Title t= 230.00000 step= 115000
44434
    1GLY      N    1   5.356   3.599   5.047
    1GLY    HT1    2   5.357   3.598   4.943
    1GLY    HT2    3   5.377   3.499   5.063
    1GLY    HT3    4   5.446   3.645   5.074
    1GLY     CA    5   5.237   3.663   5.112
    1GLY    HA1    6   5.213   3.745   5.046
    1GLY    HA2    7   5.259   3.692   5.213
    1GLY      C    8   5.118   3.576   5.124
    1GLY      O    9   5.129   3.461   5.084
    2PRO      N   10   5.007   3.626   5.183
    2PRO     CD   11   4.994   3.758   5.247
    2PRO    HD1   12   5.035   3.849   5.198
    2PRO    HD2   13   5.045   3.747   5.345
    2PRO     CA   14   4.885   3.545   5.207
    2PRO     HA   15   4.915   3.454   5.257
    2PRO     CB   16   4.805   3.628   5.309
    2PRO    HB1   17   4.831   3.599   5.413
    2PRO    HB2   18   4.696   3.615   5.298
    2PRO     CG   19   4.848   3.774   5.284
    2PRO    HG1   20   4.798   3.825   5.199
    2PRO    HG2   21   4.830   3.835   5.374
    2PRO      C   22   4.810   3.505   5.082
    2PRO      O   23   4.766   3.596   5.013
    3GLY      N   24   4.796   3.379   5.060
    3GLY     HN   25   4.833   3.310   5.122
    3GLY     CA   26   4.730   3.330   4.937
    3GLY    HA1   27   4.627   3.362   4.943
    3GLY    HA2   28   4.720   3.223   4.931
    3GLY      C   29   4.780   3.378   4.801
    3GLY      O   30   4.898   3.398   4.787
    4ASP      N   31   4.684   3.392   4.704
    4ASP     HN   32   4.591   3.390   4.740
    4ASP     CA   33   4.701   3.423   4.563
    4ASP     HA   34   4.762   3.341   4.527
    4ASP     CB   35   4.567   3.441   4.491
    4ASP    HB1   36   4.587   3.442   4.382
    4ASP    HB2   37   4.522   3.534   4.530
    4ASP     CG   38   4.462   3.332   4.503
    4ASP    OD1   39   4.489   3.217   4.452
    4ASP    OD2   40   4.348   3.372   4.550
    4ASP      C   41   4.780   3.546   4.541
    4ASP      O   42   4.751   3.644   4.614
    5PRO      N   43   4.871   3.559   4.447
    5PRO     CD   44   4.917   3.454   4.353
    5PRO    HD1   45   4.836   3.400   4.300
    5PRO    HD2   46   4.971   3.371   4.403
    5PRO     CA   47   4.928   3.691   4.406
    5PRO     HA   48   4.961   3.749   4.491
    5PRO     CB   49   5.042   3.655   4.309
    5PRO    HB1   50   5.136   3.640   4.367
    5PRO    HB2   51   5.068   3.731   4.234
    5PRO     CG   52   5.007   3.520   4.247
    5PRO    HG1   53   4.946   3.536   4.156
    5PRO    HG2   54   5.103   3.467   4.229
    5PRO      C   55   4.827   3.794   4.356
    5PRO      O   56   4.728   3.753   4.289
    6GLY      N   57   4.846   3.923   4.375
    6GLY     HN   58   4.923   3.956   4.429
    6GLY     CA   59   4.760   4.022   4.306
    6GLY    HA1   60   4.777   4.121   4.346
    6GLY    HA2   61   4.659   3.984   4.307
    6GLY      C   62   4.789   4.039   4.159
    6GLY      O   63   4.900   4.004   4.112
    7SER      N   64   4.690   4.085   4.083
    7SER     HN   65   4.597   4.095   4.117
    7SER     CA   66   4.712   4.102   3.937
    7SER     HA   67   4.720   4.005   3.890
    7SER     CB   68   4.581   4.148   3.864
    7SER    HB1   69   4.601   4.129   3.757
    7SER    HB2   70   4.567   4.257   3.873
    7SER     OG   71   4.458   4.070   3.895
    7SER    HG1   72   4.426   4.103   3.980
    7SER      C   73   4.831   4.190   3.885
    7SER      O   74   4.862   4.296   3.941
    8GLY      N   75   4.893   4.145   3.774
    8GLY     HN   76   4.854   4.071   3.720
    8GLY     CA   77   5.021   4.193   3.713
    8GLY    HA1   78   5.033   4.131   3.626
    8GLY    HA2   79   5.099   4.176   3.786
    8GLY      C   80   5.035   4.344   3.680
    8GLY      O   81   4.953   4.424   3.716
    9ASN      N   82   5.143   4.384   3.603
    9ASN     HN   83   5.208   4.317   3.570
    9ASN     CA   84   5.188   4.518   3.571
    9ASN     HA   85   5.122   4.582   3.628
    9ASN     CB   86   5.325   4.547   3.629
    9ASN    HB1   87   5.402   4.499   3.566
    9ASN    HB2   88   5.334   4.519   3.737
    9ASN     CG   89   5.338   4.698   3.634
    9ASN    OD1   90   5.242   4.774   3.660
    9ASN    ND2   91   5.453   4.756   3.608
    9ASN   HD21   92   5.456   4.856   3.609
    9ASN   HD22   93   5.534   4.708   3.575
    9ASN      C   94   5.184   4.539   3.415
    9ASN      O   95   5.257   4.473   3.349
   10PRO      N   96   5.114   4.633   3.359
   10PRO     CD   97   5.024   4.718   3.439
   10PRO    HD1   98   5.086   4.802   3.478
   10PRO    HD2   99   4.966   4.661   3.515
   10PRO     CA  100   5.112   4.665   3.218
   10PRO     HA  101   5.087   4.568   3.177
   10PRO     CB  102   5.013   4.784   3.221
   10PRO    HB1  103   4.953   4.792   3.128
   10PRO    HB2  104   5.066   4.881   3.216
   10PRO     CG  105   4.919   4.765   3.338
   10PRO    HG1  106   4.875   4.858   3.379
   10PRO    HG2  107   4.846   4.684   3.314
   10PRO      C  108   5.249   4.701   3.169
   10PRO      O  109   5.321   4.770   3.236
   11GLY      N  110   5.286   4.652   3.051
   11GLY     HN  111   5.207   4.604   3.013
   11GLY     CA  112   5.395   4.705   2.968
   11GLY    HA1  113   5.396   4.672   2.865
   11GLY    HA2  114   5.485   4.673   3.019
   11GLY      C  115   5.404   4.853   2.950
   11GLY      O  116   5.313   4.932   2.942
   12SER      N  117   5.523   4.909   2.947
   12SER     HN  118   5.599   4.846   2.939
   12SER     CA  119   5.544   5.053   2.957
   12SER     HA  120   5.480   5.086   3.037
   12SER     CB  121   5.685   5.090   2.992
   12SER    HB1  122   5.705   5.198   2.977
   12SER    HB2  123   5.745   5.024   2.925
   12SER     OG  124   5.712   5.053   3.126
   12SER    HG1  125   5.789   4.996   3.123
   12SER      C  126   5.509   5.129   2.836
   12SER      O  127   5.511   5.083   2.721
   13GLY      N  128   5.461   5.253   2.851
   13GLY     HN  129   5.462   5.291   2.943
   13GLY     CA  130   5.415   5.332   2.742
   13GLY    HA1  131   5.363   5.416   2.785
   13GLY    HA2  132   5.353   5.277   2.673
   13GLY      C  133   5.528   5.393   2.656
   13GLY      O  134   5.638   5.334   2.654
   14ASP      N  135   5.509   5.501   2.579
   14ASP     HN  136   5.425   5.554   2.581
   14ASP     CA  137   5.594   5.553   2.472
   14ASP     HA  138   5.583   5.487   2.387
   14ASP     CB  139   5.549   5.688   2.412
   14ASP    HB1  140   5.608   5.716   2.322
   14ASP    HB2  141   5.542   5.766   2.490
   14ASP     CG  142   5.411   5.663   2.345
   14ASP    OD1  143   5.350   5.763   2.302
   14ASP    OD2  144   5.369   5.547   2.312
   14ASP      C  145   5.748   5.562   2.508
   14ASP      O  146   5.775   5.632   2.603
   15PRO      N  147   5.847   5.508   2.446
   15PRO     CD  148   5.829   5.403   2.358
   15PRO    HD1  149   5.765   5.423   2.270
   15PRO    HD2  150   5.795   5.317   2.420
   15PRO     CA  151   5.985   5.533   2.485
   15PRO     HA  152   6.008   5.527   2.590
   15PRO     CB  153   6.060   5.419   2.426
   15PRO    HB1  154   6.053   5.338   2.502
   15PRO    HB2  155   6.163   5.450   2.399
   15PRO     CG  156   5.968   5.372   2.315
   15PRO    HG1  157   5.990   5.418   2.216
   15PRO    HG2  158   5.991   5.265   2.295
   15PRO      C  159   6.021   5.671   2.438
   15PRO    OT1  160   5.941   5.744   2.377
   15PRO    OT2  161   6.135   5.716   2.470
   16LIT    LIT  162   4.245   3.225   4.610
   17LIT    LIT  163   5.564   3.354   2.614
   18LIT    LIT  164   5.944   0.814   2.194
   19LIT    LIT  165   3.532   5.088   4.441
   20LIT    LIT  166   5.755   4.830   4.397
   21LIT    LIT  167   0.508   2.781   6.463
   22LIT    LIT  168   7.346   1.320   5.054
   23LIT    LIT  169   5.136   1.892   0.994
   24LIT    LIT  170   7.181   7.258   3.188
   25LIT    LIT  171   0.028   0.014   4.533
   26LIT    LIT  172   2.488   3.880   3.682
   27LIT    LIT  173   7.312   7.543   4.075
   28LIT    LIT  174   5.868   2.911   2.185
   29LIT    LIT  175   7.600   1.266   2.850
   30LIT    LIT  176   6.621   7.698   5.683
   31LIT    LIT  177   1.853   1.131   1.530
   32LIT    LIT  178   1.077   3.029   4.727
   33LIT    LIT  179   5.088   0.861   0.504
   34LIT    LIT  180   0.203   7.643   0.042
   35LIT    LIT  181   4.316   3.069   1.261
   36LIT    LIT  182   4.166   6.960   2.355
   37LIT    LIT  183   0.394   4.657   1.237
   38LIT    LIT  184   5.267   5.170   5.339
   39LIT    LIT  185   3.394   0.727   3.641
   40LIT    LIT  186   6.310   5.420   3.467
   41LIT    LIT  187   6.106   5.880   2.380
   42LIT    LIT  188   2.152   0.400   6.381
   43LIT    LIT  189   1.114   1.016   2.577
   44LIT    LIT  190   7.186   7.350   2.587
   45LIT    LIT  191   0.827   2.409   2.158
   46LIT    LIT  192   5.346   2.801   0.667
   47LIT    LIT  193   3.899   1.445   1.514
   48LIT    LIT  194   7.034   6.546   4.255
   49LIT    LIT  195   5.194   5.607   2.252
   50LIT    LIT  196   5.323   1.784   2.333
   51LIT    LIT  197   7.330   7.685   0.690
   52LIT    LIT  198   6.121   2.313   4.688
   53LIT    LIT  199   3.530   5.876   2.049
   54LIT    LIT  200   0.699   6.572   3.806
   55LIT    LIT  201   1.852   0.672   5.132
   56LIT    LIT  202   6.771   2.582   5.900
   57LIT    LIT  203   7.276   0.915   1.683
   58LIT    LIT  204   7.062   4.930   0.824
   59LIT    LIT  205   3.218   4.122   1.554
   60CLA    CLA  206   2.690   0.568   3.254
   61CLA    CLA  207   5.571   4.778   4.510
   62CLA    CLA  208   6.211   4.954   1.260
   63CLA    CLA  209   0.127   2.556   1.522
   64CLA    CLA  210   6.448   6.404   3.057
   65CLA    CLA  211   2.776   0.066   1.347
   66CLA    CLA  212   2.947   1.412   5.345
   67CLA    CLA  213   2.552   4.675   0.317
   68CLA    CLA  214   6.124   1.400   4.473
   69CLA    CLA  215   1.096   3.142   4.269
   70CLA    CLA  216   5.490   5.450   0.589
   71CLA    CLA  217   1.931   1.244   4.271
   72CLA    CLA  218   0.585   3.084   2.155
   73CLA    CLA  219   3.577   4.240   4.532
   74CLA    CLA  220   4.092   4.802   1.445
   75CLA    CLA  221   4.360   2.453   3.673
   76CLA    CLA  222   3.810   4.929   3.834
   77CLA    CLA  223   2.460   2.628   5.541
   78CLA    CLA  224   0.861   2.742   0.033
   79CLA    CLA  225   4.095   4.122   6.705
   80CLA    CLA  226   5.087   0.123   1.098
   81CLA    CLA  227   7.402   0.846   1.860
   82CLA    CLA  228   6.242   1.299   5.521
   83CLA    CLA  229   7.578   3.603   4.715
   84CLA    CLA  230   5.138   1.134   6.013
   85CLA    CLA  231   0.728   4.715   5.453
   86CLA    CLA  232   6.211   4.474   2.137
   87CLA    CLA  233   0.463   5.085   1.451
   88CLA    CLA  234   0.090   6.663   3.738
   89CLA    CLA  235   6.861   5.313   5.854
   90CLA    CLA  236   2.493   0.327   2.036
   91CLA    CLA  237   3.141   7.709   1.889
   92CLA    CLA  238   3.282   5.539   6.445
   93CLA    CLA  239   4.337   1.447   4.181
   94CLA    CLA  240   1.594   1.219   0.559
   95CLA    CLA  241   7.104   4.929   0.585
   96CLA    CLA  242   8.174   0.176   4.597
   97CLA    CLA  243   5.108   4.411   2.929
   98CLA    CLA  244   1.393   4.649   6.098
   99CLA    CLA  245   4.096   3.972   0.546
  100CLA    CLA  246   1.822   4.993   2.782
  101CLA    CLA  247   6.707   1.585   0.377
  102TIP3   OH2  248   4.864   2.309   2.653
  102TIP3    H1  249   4.848   2.364   2.729
  102TIP3    H2  250   4.882   2.222   2.690
  103TIP3   OH2  251   4.200   7.409   5.875
  103TIP3    H1  252   4.234   7.478   5.818
  103TIP3    H2  253   4.275   7.353   5.892
  104TIP3   OH2  254   2.203   2.340   5.745
  104TIP3    H1  255   2.174   2.256   5.708
  104TIP3    H2  256   2.195   2.328   5.840
  105TIP3   OH2  257   3.807   6.193   1.093
  105TIP3    H1  258   3.806   6.112   1.143
  105TIP3    H2  259   3.792   6.165   1.002
  106TIP3   OH2  260   7.937   3.663   6.606
  106TIP3    H1  261   7.846   3.650   6.579
  106TIP3    H2  262   7.939   3.633   6.697
  107TIP3   OH2  263   5.235   2.656   0.614
  107TIP3    H1  264   5.149   2.672   0.575
  107TIP3    H2  265   5.230   2.566   0.647
  108TIP3   OH2  266   2.529   6.204   5.622
  108TIP3    H1  267   2.443   6.189   5.663
  108TIP3    H2  268   2.513   6.192   5.529
  109TIP3   OH2  269   4.126   1.687   2.195
  109TIP3    H1  270   4.113   1.643   2.280
  109TIP3    H2  271   4.155   1.775   2.218
  110TIP3   OH2  272   7.537   2.743   1.896
  110TIP3    H1  273   7.495   2.674   1.948
  110TIP3    H2  274   7.509   2.726   1.806
  111TIP3   OH2  275   0.193   3.993   5.574
  111TIP3    H1  276   0.197   4.089   5.581
  111TIP3    H2  277   0.201   3.975   5.481
  112TIP3   OH2  278   4.579   5.110   5.169
  112TIP3    H1  279   4.634   5.035   5.192
  112TIP3    H2  280   4.491   5.074   5.162
  113TIP3   OH2  281   5.789   3.212   0.886
  113TIP3    H1  282   5.764   3.121   0.870
  113TIP3    H2  283   5.734   3.262   0.826
  114TIP3   OH2  284   4.436   7.824   3.029
  114TIP3    H1  285   4.483   7.743   3.012
  114TIP3    H2  286   4.386   7.840   2.949
  115TIP3   OH2  287   7.272   1.133   1.041
  115TIP3    H1  288   7.352   1.167   1.001
  115TIP3    H2  289   7.246   1.060   0.985
  116TIP3   OH2  290   4.144   2.343   3.429
  116TIP3    H1  291   4.119   2.426   3.389
  116TIP3    H2  292   4.204   2.367   3.499
  117TIP3   OH2  293   2.958   6.356   5.428
  117TIP3    H1  294   2.869   6.390   5.431
  117TIP3    H2  295   3.005   6.418   5.372
  118TIP3   OH2  296   7.818   4.237   0.560
  118TIP3    H1  297   7.842   4.148   0.589
  118TIP3    H2  298   7.902   4.282   0.552
  119TIP3   OH2  299   0.593   3.404   2.088
  119TIP3    H1  300   0.514   3.449   2.057
  119TIP3    H2  301   0.568   3.311   2.087
  120TIP3   OH2  302   1.478   5.897   3.976
  120TIP3    H1  303   1.567   5.863   3.966
  120TIP3    H2  304   1.471   5.965   3.910
  121TIP3   OH2  305   1.252   2.022   4.104
  121TIP3    H1  306   1.310   2.097   4.095
  121TIP3    H2  307   1.178   2.042   4.047
  122TIP3   OH2  308   0.349   4.425   0.713
  122TIP3    H1  309   0.262   4.392   0.692
  122TIP3    H2  310   0.387   4.445   0.627
  123TIP3   OH2  311   6.296   5.719   2.975
  123TIP3    H1  312   6.231   5.740   2.907
  123TIP3    H2  313   6.377   5.760   2.944
  124TIP3   OH2  314   4.734   6.539   3.476
  124TIP3    H1  315   4.746   6.451   3.512
  124TIP3    H2  316   4.662   6.576   3.528
  125TIP3   OH2  317   7.546   3.436   3.301
  125TIP3    H1  318   7.569   3.354   3.257
  125TIP3    H2  319   7.617   3.496   3.280
  126TIP3   OH2  320   8.046   0.138   0.609
  126TIP3    H1  321   8.132   0.157   0.573
  126TIP3    H2  322   8.033   0.204   0.677
  127TIP3   OH2  323   3.959   7.628   4.032
  127TIP3    H1  324   3.942   7.714   4.070
  127TIP3    H2  325   3.977   7.571   4.107
  128TIP3   OH2  326   3.248   3.754   6.165
  128TIP3    H1  327   3.262   3.783   6.255
  128TIP3    H2  328   3.330   3.713   6.139
  129TIP3   OH2  329   5.567   2.190   6.444
  129TIP3    H1  330   5.574   2.232   6.358
  129TIP3    H2  331   5.493   2.130   6.435
  130TIP3   OH2  332   1.903   5.789   6.220
  130TIP3    H1  333   1.952   5.868   6.244
  130TIP3    H2  334   1.963   5.741   6.164
  131TIP3   OH2  335   0.559   3.648   1.055
  131TIP3    H1  336   0.493   3.578   1.052
  131TIP3    H2  337   0.521   3.714   1.112
  132TIP3   OH2  338   1.634   6.193   4.408
  132TIP3    H1  339   1.700   6.142   4.454
  132TIP3    H2  340   1.574   6.127   4.372
  133TIP3   OH2  341   5.451   1.908   5.302
  133TIP3    H1  342   5.377   1.849   5.318
  133TIP3    H2  343   5.447   1.926   5.208
  134TIP3   OH2  344   2.545   1.263   5.839
  134TIP3    H1  345   2.586   1.348   5.851
  134TIP3    H2  346   2.521   1.260   5.747
  135TIP3   OH2  347   6.403   1.710   5.352
  135TIP3    H1  348   6.362   1.656   5.284
  135TIP3    H2  349   6.496   1.692   5.344
  136TIP3   OH2  350   5.740   3.199   3.432
  136TIP3    H1  351   5.706   3.159   3.512
  136TIP3    H2  352   5.667   3.252   3.399
  137TIP3   OH2  353   1.989   2.406   3.984
  137TIP3    H1  354   1.958   2.407   4.074
  137TIP3    H2  355   1.975   2.496   3.953
  138TIP3   OH2  356   3.158   7.474   6.268
  138TIP3    H1  357   3.197   7.397   6.227
  138TIP3    H2  358   3.226   7.508   6.327
  139TIP3   OH2  359   1.288   0.496   0.075
  139TIP3    H1  360   1.267   0.403   0.078
  139TIP3    H2  361   1.363   0.502   0.016
  140TIP3   OH2  362   1.648   6.166   4.754
  140TIP3    H1  363   1.653   6.261   4.748
  140TIP3    H2  364   1.662   6.146   4.847
  141TIP3   OH2  365   3.395   6.533   2.690
  141TIP3    H1  366   3.306   6.531   2.655
  141TIP3    H2  367   3.383   6.548   2.784
  142TIP3   OH2  368   1.168   4.688   2.581
  142TIP3    H1  369   1.156   4.608   2.530
  142TIP3    H2  370   1.128   4.757   2.529
  143TIP3   OH2  371   5.253   1.601   2.366
  143TIP3    H1  372   5.303   1.520   2.372
  143TIP3    H2  373   5.162   1.575   2.379
  144TIP3   OH2  374   6.107   7.022   4.329
  144TIP3    H1  375   6.072   6.951   4.382
  144TIP3    H2  376   6.095   7.100   4.383
  145TIP3   OH2  377   0.047   3.092   6.679
  145TIP3    H1  378   0.101   3.170   6.693
  145TIP3    H2  379  -0.043   3.122   6.693
  146TIP3   OH2  380   5.322   0.256   1.857
  146TIP3    H1  381   5.236   0.251   1.899
  146TIP3    H2  382   5.304   0.291   1.770
  147TIP3   OH2  383   4.844   1.050   2.296
  147TIP3    H1  384   4.880   1.008   2.219
  147TIP3    H2  385   4.759   1.008   2.309
  148TIP3   OH2  386   7.768   2.574   3.779
  148TIP3    H1  387   7.824   2.505   3.815
  148TIP3    H2  388   7.772   2.645   3.843
  149TIP3   OH2  389   0.612   0.109   6.520
  149TIP3    H1  390   0.639   0.060   6.443
  149TIP3    H2  391   0.527   0.146   6.497
  150TIP3   OH2  392   6.285   2.370   4.762
  150TIP3    H1  393   6.356   2.356   4.699
  150TIP3    H2  394   6.329   2.379   4.847
  151TIP3   OH2  395   0.141   0.530   0.788
  151TIP3    H1  396   0.182   0.449   0.758
  151TIP3    H2  397   0.206   0.570   0.846
  152TIP3   OH2  398   5.956   4.209   6.512
  152TIP3    H1  399   5.995   4.126   6.483
  152TIP3    H2  400   5.953   4.263   6.433
  153TIP3   OH2  401   7.835   2.790   1.387
  153TIP3    H1  402   7.755   2.793   1.335
  153TIP3    H2  403   7.818   2.849   1.460
  154TIP3   OH2  404   7.090   7.315   1.739
  154TIP3    H1  405   7.178   7.312   1.700
  154TIP3    H2  406   7.106   7.316   1.833
  155TIP3   OH2  407   3.136   5.966   2.270
  155TIP3    H1  408   3.183   6.044   2.301
  155TIP3    H2  409   3.046   5.995   2.260
  156TIP3   OH2  410   1.577   5.733   6.697
  156TIP3    H1  411   1.525   5.808   6.666
  156TIP3    H2  412   1.607   5.691   6.617
  157TIP3   OH2  413   5.781   5.455   0.029
  157TIP3    H1  414   5.769   5.550   0.031
  157TIP3    H2  415   5.858   5.439   0.082
  158TIP3   OH2  416   3.999   7.587   4.312
  158TIP3    H1  417   4.088   7.608   4.284
  158TIP3    H2  418   3.982   7.645   4.386
  159TIP3   OH2  419   7.938   0.803   0.144
  159TIP3    H1  420   7.984   0.731   0.101
  159TIP3    H2  421   7.851   0.803   0.104
  160TIP3   OH2  422   1.777   2.045   4.183
  160TIP3    H1  423   1.726   2.090   4.114
  160TIP3    H2  424   1.811   1.967   4.140
  161TIP3   OH2  425   1.600   1.198   6.058
  161TIP3    H1  426   1.680   1.148   6.042
  161TIP3    H2  427   1.594   1.259   5.985
  162TIP3   OH2  428   6.711   4.534   2.457
  162TIP3    H1  429   6.679   4.578   2.378
  162TIP3    H2  430   6.633   4.501   2.500
  163TIP3   OH2  431   0.486   3.260   1.787
  163TIP3    H1  432   0.559   3.198   1.778
  163TIP3    H2  433   0.524   3.345   1.765
  164TIP3   OH2  434   7.544   3.363   6.163
  164TIP3    H1  435   7.451   3.383   6.152
  164TIP3    H2  436   7.556   3.359   6.258
  165TIP3   OH2  437   2.648   1.275   0.753
  165TIP3    H1  438   2.666   1.203   0.813
  165TIP3    H2  439   2.569   1.317   0.788
  166TIP3   OH2  440   1.373   7.724   1.621
  166TIP3    H1  441   1.359   7.818   1.619
  166TIP3    H2  442   1.301   7.689   1.673
  167TIP3   OH2  443   1.020   1.130   0.563
  167TIP3    H1  444   0.978   1.216   0.551
  167TIP3    H2  445   1.114   1.149   0.558
  168TIP3   OH2  446   5.045   2.112   2.205
  168TIP3    H1  447   4.963   2.159   2.217
  168TIP3    H2  448   5.088   2.157   2.132
  169TIP3   OH2  449   3.465   7.765   6.318
  169TIP3    H1  450   3.515   7.691   6.352
  169TIP3    H2  451   3.450   7.743   6.226
  170TIP3   OH2  452   4.533   0.152   0.577
  170TIP3    H1  453   4.597   0.180   0.642
  170TIP3    H2  454   4.583   0.147   0.495
  171TIP3   OH2  455   4.450   0.283   5.369
  171TIP3    H1  456   4.383   0.309   5.306
  171TIP3    H2  457   4.420   0.320   5.452
  172TIP3   OH2  458   4.648   7.500   6.042
  172TIP3    H1  459   4.607   7.435   6.099
  172TIP3    H2  460   4.674   7.450   5.964
  173TIP3   OH2  461   1.745   7.629   1.053
  173TIP3    H1  462   1.835   7.657   1.036
  173TIP3    H2  463   1.754   7.540   1.089
  174TIP3   OH2  464   5.877   0.562   5.005
  174TIP3    H1  465   5.811   0.627   5.029
  174TIP3    H2  466   5.834   0.477   5.017
  175TIP3   OH2  467   6.672   5.446   0.062
  175TIP3    H1  468   6.660   5.451  -0.033
  175TIP3    H2  469   6.764   5.469   0.076
  176TIP3   OH2  470   4.526   0.464   5.028
  176TIP3    H1  471   4.596   0.522   4.998
  176TIP3    H2  472   4.544   0.381   4.985
  177TIP3   OH2  473   6.720   3.192   1.618
  177TIP3    H1  474   6.639   3.148   1.641
  177TIP3    H2  475   6.740   3.162   1.529
  178TIP3   OH2  476   7.627   5.082   5.147
  178TIP3    H1  477   7.677   5.047   5.074
  178TIP3    H2  478   7.536   5.069   5.122
  179TIP3   OH2  479   4.538   5.980   1.221
  179TIP3    H1  480   4.530   5.899   1.171
  179TIP3    H2  481   4.552   6.048   1.155
  180TIP3   OH2  482   4.308   0.889   5.864
  180TIP3    H1  483   4.354   0.879   5.780
  180TIP3    H2  484   4.345   0.820   5.920
  181TIP3   OH2  485   3.619   2.383   3.953
  181TIP3    H1  486   3.636   2.450   3.887
  181TIP3    H2  487   3.630   2.300   3.906
  182TIP3   OH2  488   8.252   4.540   5.721
  182TIP3    H1  489   8.343   4.562   5.740
  182TIP3    H2  490   8.254   4.447   5.697
  183TIP3   OH2  491   5.879   1.429   2.946
  183TIP3    H1  492   5.900   1.521   2.963
  183TIP3    H2  493   5.808   1.409   3.007
  184TIP3   OH2  494   3.372   1.013   2.409
  184TIP3    H1  495   3.306   1.078   2.432
  184TIP3    H2  496   3.397   1.035   2.319
  185TIP3   OH2  497   6.469   2.600   0.268
  185TIP3    H1  498   6.443   2.535   0.333
  185TIP3    H2  499   6.560   2.580   0.249
  186TIP3   OH2  500   4.110   2.666   2.839
  186TIP3    H1  501   4.138   2.757   2.831
  186TIP3    H2  502   4.187   2.614   2.819
  187TIP3   OH2  503   1.492   6.078   6.241
  187TIP3    H1  504   1.429   6.046   6.177
  187TIP3    H2  505   1.549   6.003   6.257
  188TIP3   OH2  506   4.739   1.214   3.664
  188TIP3    H1  507   4.646   1.220   3.685
  188TIP3    H2  508   4.777   1.160   3.734
  189TIP3   OH2  509   1.750   7.853   1.355
  189TIP3    H1  510   1.822   7.790   1.357
  189TIP3    H2  511   1.685   7.819   1.417
  190TIP3   OH2  512   2.547   5.957   1.620
  190TIP3    H1  513   2.529   5.925   1.532
  190TIP3    H2  514   2.485   5.911   1.676
  191TIP3   OH2  515   7.451   1.782   6.139
  191TIP3    H1  516   7.473   1.706   6.193
  191TIP3    H2  517   7.394   1.835   6.195
  192TIP3   OH2  518   4.208   0.306   6.164
  192TIP3    H1  519   4.249   0.220   6.156
  192TIP3    H2  520   4.209   0.342   6.075
  193TIP3   OH2  521   2.511   5.960   4.367
  193TIP3    H1  522   2.441   5.945   4.303
  193TIP3    H2  523   2.506   6.053   4.387
  194TIP3   OH2  524   2.694   4.142   2.139
  194TIP3    H1  525   2.600   4.157   2.132
  194TIP3    H2  526   2.710   4.126   2.232
  195TIP3   OH2  527   1.558   2.361   3.506
  195TIP3    H1  528   1.548   2.456   3.496
  195TIP3    H2  529   1.577   2.348   3.599
  196TIP3   OH2  530   0.480   4.446   4.382
  196TIP3    H1  531   0.574   4.431   4.374
  196TIP3    H2  532   0.462   4.437   4.475
  197TIP3   OH2  533   6.072   6.078   0.558
  197TIP3    H1  534   6.156   6.111   0.592
  197TIP3    H2  535   6.047   6.008   0.618
  198TIP3   OH2  536   5.557   6.316   3.356
  198TIP3    H1  537   5.480   6.280   3.399
  198TIP3    H2  538   5.586   6.386   3.414
  199TIP3   OH2  539   0.378   6.268   6.218
  199TIP3    H1  540   0.403   6.269   6.310
  199TIP3    H2  541   0.440   6.208   6.177
  200TIP3   OH2  542   2.310   7.312   6.088
  200TIP3    H1  543   2.320   7.285   6.179
  200TIP3    H2  544   2.309   7.230   6.039
  201TIP3   OH2  545   1.994   4.528   2.532
  201TIP3    H1  546   2.019   4.482   2.612
  201TIP3    H2  547   2.072   4.525   2.477
  202TIP3   OH2  548   7.454   2.574   6.249
  202TIP3    H1  549   7.531   2.627   6.267
  202TIP3    H2  550   7.489   2.491   6.215
  203TIP3   OH2  551   7.400   2.722   3.590
  203TIP3    H1  552   7.445   2.649   3.632
  203TIP3    H2  553   7.311   2.718   3.623
  204TIP3   OH2  554   4.449   0.075   4.450
  204TIP3    H1  555   4.460   0.113   4.362
  204TIP3    H2  556   4.362   0.103   4.477
  205TIP3   OH2  557   1.623   1.033   5.294
  205TIP3    H1  558   1.676   1.107   5.323
  205TIP3    H2  559   1.562   1.070   5.230
  206TIP3   OH2  560   6.657   1.562   4.600
  206TIP3    H1  561   6.691   1.479   4.634
  206TIP3    H2  562   6.586   1.537   4.542
  207TIP3   OH2  563   5.971   0.606   6.201
  207TIP3    H1  564   6.064   0.613   6.180
  207TIP3    H2  565   5.928   0.663   6.138
  208TIP3   OH2  566   2.577   7.052   2.839
  208TIP3    H1  567   2.490   7.025   2.809
  208TIP3    H2  568   2.637   7.019   2.771
  209TIP3   OH2  569   3.860   3.506   3.400
  209TIP3    H1  570   3.852   3.540   3.489
  209TIP3    H2  571   3.861   3.411   3.410
  210TIP3   OH2  572   2.265   6.893   4.171
  210TIP3    H1  573   2.283   6.805   4.204
  210TIP3    H2  574   2.317   6.899   4.090
  211TIP3   OH2  575   2.669   2.400   6.350
  211TIP3    H1  576   2.603   2.445   6.297
  211TIP3    H2  577   2.628   2.317   6.373
  212TIP3   OH2  578   2.651   4.063   0.600
  212TIP3    H1  579   2.556   4.060   0.583
  212TIP3    H2  580   2.675   4.154   0.587
  213TIP3   OH2  581   6.007   3.435   3.118
  213TIP3    H1  582   5.961   3.519   3.117
  213TIP3    H2  583   6.099   3.458   3.122
  214TIP3   OH2  584   7.510   5.839   4.863
  214TIP3    H1  585   7.530   5.932   4.856
  214TIP3    H2  586   7.596   5.796   4.860
  215TIP3   OH2  587   7.396   6.655   3.944
  215TIP3    H1  588   7.394   6.712   4.021
  215TIP3    H2  589   7.451   6.701   3.881
  216TIP3   OH2  590   7.338   7.292   5.488
  216TIP3    H1  591   7.245   7.269   5.481
  216TIP3    H2  592   7.346   7.330   5.576
  217TIP3   OH2  593   7.223   4.213   6.099
  217TIP3    H1  594   7.219   4.186   6.008
  217TIP3    H2  595   7.178   4.143   6.147
  218TIP3   OH2  596   5.126   1.756   3.898
  218TIP3    H1  597   5.049   1.707   3.871
  218TIP3    H2  598   5.198   1.716   3.848
  219TIP3   OH2  599   0.316   5.202   6.016
  219TIP3    H1  600   0.379   5.247   6.072
  219TIP3    H2  601   0.235   5.199   6.067
  220TIP3   OH2  602   4.892   5.779   0.087
  220TIP3    H1  603   4.930   5.700   0.128
  220TIP3    H2  604   4.811   5.794   0.135
  221TIP3   OH2  605   6.151   1.754   3.050
  221TIP3    H1  606   6.161   1.665   3.017
  221TIP3    H2  607   6.067   1.754   3.094
  222TIP3   OH2  608   4.795   2.337   3.392
  222TIP3    H1  609   4.768   2.423   3.426
  222TIP3    H2  610   4.872   2.354   3.339
  223TIP3   OH2  611   8.259   0.315   2.344
  223TIP3    H1  612   8.241   0.367   2.422
  223TIP3    H2  613   8.205   0.354   2.275
  224TIP3   OH2  614   8.155   2.868   3.455
  224TIP3    H1  615   8.248   2.874   3.478
  224TIP3    H2  616   8.145   2.780   3.419
  225TIP3   OH2  617   0.280   0.647   1.037
  225TIP3    H1  618   0.353   0.665   1.096
  225TIP3    H2  619   0.302   0.692   0.956
  226TIP3   OH2  620   5.001   2.730   4.291
  226TIP3    H1  621   4.980   2.693   4.205
  226TIP3    H2  622   4.948   2.679   4.352
  227TIP3   OH2  623   6.055   7.193   0.859
  227TIP3    H1  624   6.074   7.284   0.838
  227TIP3    H2  625   6.060   7.147   0.775
  228TIP3   OH2  626   0.256   1.327   5.750
  228TIP3    H1  627   0.342   1.369   5.760
  228TIP3    H2  628   0.277   1.236   5.728
  229TIP3   OH2  629   7.770   1.505   5.111
  229TIP3    H1  630   7.800   1.547   5.029
  229TIP3    H2  631   7.734   1.577   5.162
  230TIP3   OH2  632   4.317   5.006   5.233
  230TIP3    H1  633   4.294   5.016   5.326
  230TIP3    H2  634   4.255   5.064   5.188
  231TIP3   OH2  635   2.394   7.224   0.058
  231TIP3    H1  636   2.490   7.230   0.052
  231TIP3    H2  637   2.364   7.225  -0.033
  232TIP3   OH2  638   4.821   1.416   5.273
  232TIP3    H1  639   4.912   1.401   5.301
  232TIP3    H2  640   4.824   1.499   5.225
  233TIP3   OH2  641   8.240   5.028   3.416
  233TIP3    H1  642   8.182   4.985   3.353
  233TIP3    H2  643   8.197   5.111   3.436
  234TIP3   OH2  644   3.650   0.860   5.077
  234TIP3    H1  645   3.602   0.942   5.089
  234TIP3    H2  646   3.739   0.887   5.053
  235TIP3   OH2  647   7.863   5.804   2.283
  235TIP3    H1  648   7.957   5.793   2.295
  235TIP3    H2  649   7.826   5.717   2.296
  236TIP3   OH2  650   0.216   5.228   1.132
  236TIP3    H1  651   0.171   5.243   1.215
  236TIP3    H2  652   0.309   5.228   1.154
  237TIP3   OH2  653   3.913   4.872   5.176
  237TIP3    H1  654   3.907   4.805   5.108
  237TIP3    H2  655   3.938   4.824   5.255
  238TIP3   OH2  656   4.615   6.432   2.003
  238TIP3    H1  657   4.558   6.508   2.018
  238TIP3    H2  658   4.696   6.469   1.970
  239TIP3   OH2  659   0.705   4.281   5.532
  239TIP3    H1  660   0.707   4.195   5.490
  239TIP3    H2  661   0.772   4.331   5.485
  240TIP3   OH2  662   6.921   7.807   0.612
  240TIP3    H1  663   6.869   7.878   0.650
  240TIP3    H2  664   6.892   7.804   0.520
  241TIP3   OH2  665   6.451   3.102   1.511
  241TIP3    H1  666   6.463   3.148   1.428
  241TIP3    H2  667   6.489   3.015   1.496
  242TIP3   OH2  668   0.163   2.507   0.558
  242TIP3    H1  669   0.072   2.523   0.585
  242TIP3    H2  670   0.210   2.587   0.584
  243TIP3   OH2  671   7.167   5.642   5.162
  243TIP3    H1  672   7.103   5.596   5.108
  243TIP3    H2  673   7.249   5.638   5.113
  244TIP3   OH2  674   7.113   6.865   2.304
  244TIP3    H1  675   7.192   6.813   2.319
  244TIP3    H2  676   7.134   6.920   2.229
  245TIP3   OH2  677   5.286   6.079   3.576
  245TIP3    H1  678   5.316   6.104   3.663
  245TIP3    H2  679   5.291   6.160   3.525
  246TIP3   OH2  680   2.074   3.519   2.825
  246TIP3    H1  681   2.081   3.500   2.918
  246TIP3    H2  682   1.982   3.544   2.812
  247TIP3   OH2  683   6.356   6.917   6.145
  247TIP3    H1  684   6.276   6.968   6.154
  247TIP3    H2  685   6.426   6.979   6.166
  248TIP3   OH2  686   3.954   3.399   2.951
  248TIP3    H1  687   4.021   3.388   2.884
  248TIP3    H2  688   3.999   3.378   3.033
  249TIP3   OH2  689   2.107   4.887   0.451
  249TIP3    H1  690   2.104   4.947   0.377
  249TIP3    H2  691   2.160   4.813   0.420
  250TIP3   OH2  692   8.152   7.530   4.901
  250TIP3    H1  693   8.139   7.573   4.986
  250TIP3    H2  694   8.246   7.514   4.897
  251TIP3   OH2  695   6.482   1.727   0.913
  251TIP3    H1  696   6.482   1.636   0.944
  251TIP3    H2  697   6.569   1.760   0.935
  252TIP3   OH2  698   2.553   6.058   3.780
  252TIP3    H1  699   2.561   5.992   3.849
  252TIP3    H2  700   2.563   6.010   3.698
  253TIP3   OH2  701   6.653   4.591   2.143
  253TIP3    H1  702   6.587   4.583   2.075
  253TIP3    H2  703   6.695   4.506   2.146
  254TIP3   OH2  704   6.441   4.599   1.463
  254TIP3    H1  705   6.497   4.649   1.522
  254TIP3    H2  706   6.424   4.517   1.510
  255TIP3   OH2  707   1.828   5.505   4.709
  255TIP3    H1  708   1.756   5.567   4.704
  255TIP3    H2  709   1.873   5.528   4.791
  256TIP3   OH2  710   6.660   0.234   2.322
  256TIP3    H1  711   6.624   0.161   2.272
  256TIP3    H2  712   6.592   0.255   2.386
  257TIP3   OH2  713   6.735   4.101   0.172
  257TIP3    H1  714   6.694   4.177   0.211
  257TIP3    H2  715   6.812   4.084   0.227
  258TIP3   OH2  716   2.490   6.047   3.438
  258TIP3    H1  717   2.555   5.983   3.409
  258TIP3    H2  718   2.519   6.130   3.400
  259TIP3   OH2  719   5.994   5.127   1.408
  259TIP3    H1  720   6.037   5.064   1.351
  259TIP3    H2  721   6.042   5.209   1.393
  260TIP3   OH2  722   0.302   2.635   4.611
  260TIP3    H1  723   0.305   2.729   4.590
  260TIP3    H2  724   0.218   2.623   4.656
  261TIP3   OH2  725   6.779   1.490   0.754
  261TIP3    H1  726   6.823   1.477   0.670
  261TIP3    H2  727   6.686   1.482   0.734
  262TIP3   OH2  728   1.237   4.274   6.352
  262TIP3    H1  729   1.266   4.292   6.262
  262TIP3    H2  730   1.302   4.316   6.407
  263TIP3   OH2  731   4.263   2.716   3.972
  263TIP3    H1  732   4.359   2.722   3.962
  263TIP3    H2  733   4.229   2.784   3.914
  264TIP3   OH2  734   7.754   7.027   0.489
  264TIP3    H1  735   7.681   7.086   0.508
  264TIP3    H2  736   7.822   7.052   0.552
  265TIP3   OH2  737   1.999   4.613   2.811
  265TIP3    H1  738   1.906   4.635   2.818
  265TIP3    H2  739   2.039   4.689   2.769
  266TIP3   OH2  740   0.865   2.029   4.263
  266TIP3    H1  741   0.879   2.124   4.266
  266TIP3    H2  742   0.927   1.993   4.326
  267TIP3   OH2  743   2.361   5.702   5.568
  267TIP3    H1  744   2.406   5.751   5.637
  267TIP3    H2  745   2.391   5.612   5.579
  268TIP3   OH2  746   7.087   5.952   5.623
  268TIP3    H1  747   7.016   6.017   5.621
  268TIP3    H2  748   7.044   5.871   5.648
  269TIP3   OH2  749   6.938   3.531   0.620
  269TIP3    H1  750   7.011   3.499   0.568
  269TIP3    H2  751   6.977   3.594   0.680
  270TIP3   OH2  752   6.224   1.215   1.226
  270TIP3    H1  753   6.292   1.175   1.281
  270TIP3    H2  754   6.252   1.306   1.217
  271TIP3   OH2  755   6.245   3.557   4.162
  271TIP3    H1  756   6.202   3.622   4.218
  271TIP3    H2  757   6.177   3.491   4.146
  272TIP3   OH2  758   3.159   0.969   4.785
  272TIP3    H1  759   3.137   0.883   4.747
  272TIP3    H2  760   3.112   1.032   4.729
  273TIP3   OH2  761   0.859   0.620   1.993
  273TIP3    H1  762   0.792   0.643   2.058
  273TIP3    H2  763   0.808   0.600   1.914
  274TIP3   OH2  764   6.251   0.233   3.142
  274TIP3    H1  765   6.227   0.198   3.228
  274TIP3    H2  766   6.343   0.211   3.132
  275TIP3   OH2  767   2.641   2.014   6.233
  275TIP3    H1  768   2.675   1.965   6.308
  275TIP3    H2  769   2.590   2.084   6.271
  276TIP3   OH2  770   8.173   1.828   5.712
  276TIP3    H1  771   8.173   1.747   5.764
  276TIP3    H2  772   8.144   1.801   5.625
  277TIP3   OH2  773   1.554   0.507   3.546
  277TIP3    H1  774   1.585   0.595   3.524
  277TIP3    H2  775   1.617   0.448   3.505
  278TIP3   OH2  776   2.494   7.432   6.353
  278TIP3    H1  777   2.519   7.433   6.445
  278TIP3    H2  778   2.455   7.518   6.338
  279TIP3   OH2  779   3.649   2.029   2.220
  279TIP3    H1  780   3.589   2.020   2.294
  279TIP3    H2  781   3.606   2.090   2.161
  280TIP3   OH2  782   0.262   0.736   4.426
  280TIP3    H1  783   0.237   0.825   4.450
  280TIP3    H2  784   0.358   0.738   4.423
  281TIP3   OH2  785   0.323   3.250   5.544
  281TIP3    H1  786   0.334   3.166   5.588
  281TIP3    H2  787   0.230   3.253   5.521
  282TIP3   OH2  788   5.009   1.662   3.440
  282TIP3    H1  789   5.063   1.613   3.502
  282TIP3    H2  790   4.965   1.595   3.389
  283TIP3   OH2  791   5.717   2.167   1.690
  283TIP3    H1  792   5.772   2.238   1.724
  283TIP3    H2  793   5.734   2.093   1.748
  284TIP3   OH2  794   7.424   4.557   4.043
  284TIP3    H1  795   7.440   4.638   3.994
  284TIP3    H2  796   7.362   4.508   3.989
  285TIP3   OH2  797   1.468   3.984   2.106
  285TIP3    H1  798   1.530   3.913   2.091
  285TIP3    H2  799   1.441   3.974   2.198
  286TIP3   OH2  800   6.746   6.591   5.158
  286TIP3    H1  801   6.816   6.526   5.163
  286TIP3    H2  802   6.703   6.588   5.244
  287TIP3   OH2  803   6.425   1.160   4.756
  287TIP3    H1  804   6.338   1.142   4.791
  287TIP3    H2  805   6.460   1.075   4.730
  288TIP3   OH2  806   4.642   4.388   4.702
  288TIP3    H1  807   4.725   4.344   4.717
  288TIP3    H2  808   4.667   4.476   4.673
  289TIP3   OH2  809   5.122   5.901   0.901
  289TIP3    H1  810   5.079   5.903   0.816
  289TIP3    H2  811   5.200   5.956   0.890
  290TIP3   OH2  812   6.614   5.320   4.869
  290TIP3    H1  813   6.563   5.400   4.883
  290TIP3    H2  814   6.577   5.282   4.790
  291TIP3   OH2  815   7.312   3.915   1.602
  291TIP3    H1  816   7.245   3.858   1.563
  291TIP3    H2  817   7.263   3.970   1.663
  292TIP3   OH2  818   4.276   6.945   5.092
  292TIP3    H1  819   4.264   6.981   5.180
  292TIP3    H2  820   4.205   6.984   5.040
  293TIP3   OH2  821   0.353   5.487   2.373
  293TIP3    H1  822   0.332   5.497   2.280
  293TIP3    H2  823   0.399   5.568   2.396
  294TIP3   OH2  824   5.023   0.298   6.229
  294TIP3    H1  825   5.075   0.290   6.309
  294TIP3    H2  826   4.971   0.218   6.226
  295TIP3   OH2  827   1.517   7.353   5.564
  295TIP3    H1  828   1.558   7.439   5.577
  295TIP3    H2  829   1.433   7.372   5.523
  296TIP3   OH2  830   3.596   1.410   3.067
  296TIP3    H1  831   3.643   1.489   3.041
  296TIP3    H2  832   3.587   1.418   3.162
  297TIP3   OH2  833   1.084   6.932   1.454
  297TIP3    H1  834   1.134   6.962   1.379
  297TIP3    H2  835   1.043   7.011   1.489
  298TIP3   OH2  836   4.587   7.221   4.191
  298TIP3    H1  837   4.677   7.204   4.221
  298TIP3    H2  838   4.536   7.149   4.229
  299TIP3   OH2  839   5.178   3.747   3.224
  299TIP3    H1  840   5.116   3.675   3.214
  299TIP3    H2  841   5.124   3.826   3.228
  300TIP3   OH2  842   2.628   6.964   1.143
  300TIP3    H1  843   2.617   7.059   1.130
  300TIP3    H2  844   2.703   6.957   1.203
  301TIP3   OH2  845   6.685   5.907   3.296
  301TIP3    H1  846   6.630   5.973   3.254
  301TIP3    H2  847   6.686   5.932   3.388
  302TIP3   OH2  848   8.220   0.188   3.791
  302TIP3    H1  849   8.127   0.201   3.805
  302TIP3    H2  850   8.227   0.150   3.704
  303TIP3   OH2  851   6.400   6.600   6.276
  303TIP3    H1  852   6.401   6.672   6.338
  303TIP3    H2  853   6.452   6.632   6.202
  304TIP3   OH2  854   2.911   3.945   1.354
  304TIP3    H1  855   2.829   3.993   1.364
  304TIP3    H2  856   2.941   3.966   1.266
  305TIP3   OH2  857   6.685   6.470   2.698
  305TIP3    H1  858   6.674   6.562   2.672
  305TIP3    H2  859   6.720   6.427   2.620
  306TIP3   OH2  860  -0.011   5.891   6.699
  306TIP3    H1  861  -0.106   5.876   6.695
  306TIP3    H2  862   0.019   5.829   6.765
  307TIP3   OH2  863   4.053   6.686   5.581
  307TIP3    H1  864   3.969   6.727   5.557
  307TIP3    H2  865   4.092   6.748   5.642
  308TIP3   OH2  866   0.259   4.834   4.253
  308TIP3    H1  867   0.309   4.916   4.247
  308TIP3    H2  868   0.318   4.768   4.217
  309TIP3   OH2  869   2.874   7.089   1.653
  309TIP3    H1  870   2.828   7.094   1.737
  309TIP3    H2  871   2.955   7.042   1.673
  310TIP3   OH2  872   6.072   5.736   1.766
  310TIP3    H1  873   5.996   5.785   1.734
  310TIP3    H2  874   6.035   5.658   1.806
  311TIP3   OH2  875   1.136   3.025   1.528
  311TIP3    H1  876   1.165   2.934   1.532
  311TIP3    H2  877   1.064   3.030   1.590
  312TIP3   OH2  878   0.669   1.009   1.603
  312TIP3    H1  879   0.715   1.004   1.519
  312TIP3    H2  880   0.713   1.080   1.650
  313TIP3   OH2  881   0.104   0.191   6.601
  313TIP3    H1  882   0.042   0.176   6.672
  313TIP3    H2  883   0.078   0.129   6.533
  314TIP3   OH2  884   0.403   1.210   4.881
  314TIP3    H1  885   0.497   1.207   4.902
  314TIP3    H2  886   0.360   1.221   4.966
  315TIP3   OH2  887   3.635   4.631   0.819
  315TIP3    H1  888   3.554   4.657   0.775
  315TIP3    H2  889   3.617   4.544   0.854
  316TIP3   OH2  890   4.538   7.606   0.217
  316TIP3    H1  891   4.476   7.651   0.274
  316TIP3    H2  892   4.543   7.517   0.252
  317TIP3   OH2  893   5.070   2.281   6.682
  317TIP3    H1  894   5.014   2.302   6.607
  317TIP3    H2  895   5.070   2.360   6.736
  318TIP3   OH2  896   6.566   4.177   3.897
  318TIP3    H1  897   6.628   4.224   3.842
  318TIP3    H2  898   6.608   4.173   3.983
  319TIP3   OH2  899   6.860   2.474   6.589
  319TIP3    H1  900   6.853   2.399   6.648
  319TIP3    H2  901   6.947   2.466   6.551
  320TIP3   OH2  902   3.231   1.028   3.962
  320TIP3    H1  903   3.170   1.083   4.010
  320TIP3    H2  904   3.317   1.067   3.977
  321TIP3   OH2  905   6.986   3.593   2.390
  321TIP3    H1  906   6.980   3.499   2.375
  321TIP3    H2  907   7.003   3.630   2.304
  322TIP3   OH2  908   3.075   7.083   3.870
  322TIP3    H1  909   3.139   7.104   3.802
  322TIP3    H2  910   3.117   7.112   3.951
  323TIP3   OH2  911   5.145   5.146   0.835
  323TIP3    H1  912   5.145   5.238   0.807
  323TIP3    H2  913   5.158   5.150   0.929
  324TIP3   OH2  914   7.259   0.730   0.425
  324TIP3    H1  915   7.205   0.681   0.363
  324TIP3    H2  916   7.292   0.664   0.485
  325TIP3   OH2  917   5.371   3.322   0.103
  325TIP3    H1  918   5.412   3.391   0.155
  325TIP3    H2  919   5.369   3.356   0.014
  326TIP3   OH2  920   2.793   5.092   6.535
  326TIP3    H1  921   2.748   5.056   6.612
  326TIP3    H2  922   2.722   5.131   6.483
  327TIP3   OH2  923   0.275   0.281   3.517
  327TIP3    H1  924   0.355   0.325   3.545
  327TIP3    H2  925   0.303   0.191   3.498
  328TIP3   OH2  926   1.740   0.835   1.885
  328TIP3    H1  927   1.826   0.796   1.898
  328TIP3    H2  928   1.721   0.822   1.792
  329TIP3   OH2  929   6.126   3.963   4.648
  329TIP3    H1  930   6.160   3.947   4.736
  329TIP3    H2  931   6.204   3.958   4.591
  330TIP3   OH2  932   4.690   3.005   4.084
  330TIP3    H1  933   4.781   3.010   4.112
  330TIP3    H2  934   4.649   3.083   4.120
  331TIP3   OH2  935   1.600   6.127   6.553
  331TIP3    H1  936   1.590   6.035   6.530
  331TIP3    H2  937   1.665   6.161   6.492
  332TIP3   OH2  938   1.083   5.239   0.481
  332TIP3    H1  939   1.098   5.194   0.398
  332TIP3    H2  940   0.997   5.207   0.510
  333TIP3   OH2  941   5.025   5.942   2.473
  333TIP3    H1  942   4.966   5.906   2.538
  333TIP3    H2  943   5.002   6.035   2.469
  334TIP3   OH2  944   4.686   0.374   2.570
  334TIP3    H1  945   4.727   0.451   2.610
  334TIP3    H2  946   4.749   0.303   2.584
  335TIP3   OH2  947   1.992   4.663   5.508
  335TIP3    H1  948   2.012   4.569   5.510
  335TIP3    H2  949   1.969   4.684   5.598
  336TIP3   OH2  950   5.983   1.490   4.954
  336TIP3    H1  951   6.067   1.452   4.979
  336TIP3    H2  952   5.970   1.562   5.016
  337TIP3   OH2  953   3.290   0.052   0.694
  337TIP3    H1  954   3.355   0.120   0.676
  337TIP3    H2  955   3.238   0.087   0.766
  338TIP3   OH2  956   2.171   6.106   0.882
  338TIP3    H1  957   2.265   6.097   0.897
  338TIP3    H2  958   2.143   6.021   0.849
  339TIP3   OH2  959   0.102   0.423   0.189
  339TIP3    H1  960   0.040   0.359   0.155
  339TIP3    H2  961   0.090   0.500   0.133
  340TIP3   OH2  962   7.511   7.139   0.514
  340TIP3    H1  963   7.472   7.205   0.456
  340TIP3    H2  964   7.465   7.150   0.598
  341TIP3   OH2  965   2.607   6.665   1.785
  341TIP3    H1  966   2.577   6.712   1.707
  341TIP3    H2  967   2.589   6.573   1.764
  342TIP3   OH2  968   1.087   4.999   5.490
  342TIP3    H1  969   1.002   5.013   5.532
  342TIP3    H2  970   1.094   4.904   5.480
  343TIP3   OH2  971   1.411   2.895   1.689
  343TIP3    H1  972   1.378   2.811   1.657
  343TIP3    H2  973   1.430   2.945   1.609
  344TIP3   OH2  974   4.346   1.921   2.009
  344TIP3    H1  975   4.327   1.881   2.094
  344TIP3    H2  976   4.267   1.970   1.987
  345TIP3   OH2  977   7.975   1.664   1.883
  345TIP3    H1  978   7.957   1.636   1.793
  345TIP3    H2  979   7.986   1.759   1.876
  346TIP3   OH2  980   0.506   1.425   4.774
  346TIP3    H1  981   0.599   1.404   4.778
  346TIP3    H2  982   0.462   1.340   4.784
  347TIP3   OH2  983   5.405   3.129   4.260
  347TIP3    H1  984   5.364   3.156   4.342
  347TIP3    H2  985   5.355   3.173   4.191
  348TIP3   OH2  986   5.408   0.779   5.963
  348TIP3    H1  987   5.370   0.718   6.026
  348TIP3    H2  988   5.372   0.753   5.879
  349TIP3   OH2  989   7.372   3.511   3.885
  349TIP3    H1  990   7.361   3.592   3.835
  349TIP3    H2  991   7.462   3.514   3.916
  350TIP3   OH2  992   3.417   4.162   0.150
  350TIP3    H1  993   3.404   4.074   0.116
  350TIP3    H2  994   3.346   4.214   0.112
  351TIP3   OH2  995   0.179   6.796   5.135
  351TIP3    H1  996   0.223   6.726   5.184
  351TIP3    H2  997   0.238   6.815   5.062
  352TIP3   OH2  998   2.574   3.035   6.373
  352TIP3    H1  999   2.606   3.052   6.461
  352TIP3    H2 1000   2.569   3.121   6.332
  353TIP3   OH2 1001   6.612   2.338   1.494
  353TIP3    H1 1002   6.670   2.346   1.418
  353TIP3    H2 1003   6.555   2.264   1.473
  354TIP3   OH2 1004   8.046   5.425   0.086
  354TIP3    H1 1005   8.101   5.503   0.094
  354TIP3    H2 1006   7.985   5.447   0.015
  355TIP3   OH2 1007   8.306   0.837   2.606
  355TIP3    H1 1008   8.300   0.851   2.700
  355TIP3    H2 1009   8.276   0.746   2.593
  356TIP3   OH2 1010   1.071   2.876   3.604
  356TIP3    H1 1011   1.002   2.810   3.597
  356TIP3    H2 1012   1.077   2.915   3.516
  357TIP3   OH2 1013   7.398   7.057   2.945
  357TIP3    H1 1014   7.435   6.970   2.931
  357TIP3    H2 1015   7.472   7.117   2.935
  358TIP3   OH2 1016   3.635   4.747   2.320
  358TIP3    H1 1017   3.630   4.684   2.247
  358TIP3    H2 1018   3.708   4.804   2.298
  359TIP3   OH2 1019   3.231   1.848   4.171
  359TIP3    H1 1020   3.156   1.880   4.221
  359TIP3    H2 1021   3.283   1.927   4.155
  360TIP3   OH2 1022   2.819   2.948   3.706
  360TIP3    H1 1023   2.801   3.031   3.750
  360TIP3    H2 1024   2.912   2.931   3.723
  361TIP3   OH2 1025   6.642   2.220   0.243
  361TIP3    H1 1026   6.636   2.153   0.312
  361TIP3    H2 1027   6.736   2.222   0.221
  362TIP3   OH2 1028   5.205   3.813   4.589
  362TIP3    H1 1029   5.171   3.882   4.645
  362TIP3    H2 1030   5.217   3.855   4.504
  363TIP3   OH2 1031   5.096   3.231   5.269
  363TIP3    H1 1032   5.054   3.175   5.204
  363TIP3    H2 1033   5.055   3.206   5.352
  364TIP3   OH2 1034   5.662   7.059   1.704
  364TIP3    H1 1035   5.701   7.058   1.617
  364TIP3    H2 1036   5.584   7.005   1.696
  365TIP3   OH2 1037   3.520   4.521   1.152
  365TIP3    H1 1038   3.503   4.519   1.246
  365TIP3    H2 1039   3.615   4.536   1.145
  366TIP3   OH2 1040   2.549   1.420   2.136
  366TIP3    H1 1041   2.601   1.500   2.145
  366TIP3    H2 1042   2.459   1.450   2.128
  367TIP3   OH2 1043   1.235   6.165   4.269
  367TIP3    H1 1044   1.313   6.109   4.270
  367TIP3    H2 1045   1.242   6.214   4.187
  368TIP3   OH2 1046   2.005   5.818   4.234
  368TIP3    H1 1047   2.003   5.910   4.261
  368TIP3    H2 1048   1.967   5.770   4.308
  369TIP3   OH2 1049   3.168   5.478   1.713
  369TIP3    H1 1050   3.181   5.539   1.786
  369TIP3    H2 1051   3.082   5.499   1.679
  370TIP3   OH2 1052   0.566   3.621   2.488
  370TIP3    H1 1053   0.641   3.585   2.535
  370TIP3    H2 1054   0.524   3.545   2.448
  371TIP3   OH2 1055   4.528   1.593   3.052
  371TIP3    H1 1056   4.447   1.629   3.017
  371TIP3    H2 1057   4.514   1.585   3.146
  372TIP3   OH2 1058   0.999   1.601   1.548
  372TIP3    H1 1059   0.965   1.688   1.566
  372TIP3    H2 1060   0.927   1.555   1.505
  373TIP3   OH2 1061   1.709   3.070   5.616
  373TIP3    H1 1062   1.621   3.073   5.653
  373TIP3    H2 1063   1.756   3.007   5.670
  374TIP3   OH2 1064   3.711   1.020   4.762
  374TIP3    H1 1065   3.615   1.018   4.762
  374TIP3    H2 1066   3.736   0.975   4.681
  375TIP3   OH2 1067   7.156   5.046   3.407
  375TIP3    H1 1068   7.117   5.058   3.321
  375TIP3    H2 1069   7.115   5.114   3.462
  376TIP3   OH2 1070   8.188   5.685   2.985
  376TIP3    H1 1071   8.165   5.743   3.057
  376TIP3    H2 1072   8.135   5.606   2.998
  377TIP3   OH2 1073   6.989   3.308   2.367
  377TIP3    H1 1074   6.895   3.289   2.371
  377TIP3    H2 1075   7.021   3.252   2.296
  378TIP3   OH2 1076   6.750   6.311   2.456
  378TIP3    H1 1077   6.800   6.381   2.414
  378TIP3    H2 1078   6.812   6.238   2.462
  379TIP3   OH2 1079   4.283   1.867   5.644
  379TIP3    H1 1080   4.236   1.838   5.566
  379TIP3    H2 1081   4.376   1.855   5.622
  380TIP3   OH2 1082   6.362   5.927   2.030
  380TIP3    H1 1083   6.343   5.991   2.099
  380TIP3    H2 1084   6.317   5.847   2.058
  381TIP3   OH2 1085   3.490   4.348   5.330
  381TIP3    H1 1086   3.581   4.378   5.321
  381TIP3    H2 1087   3.443   4.392   5.260
  382TIP3   OH2 1088   0.302   3.475   3.371
  382TIP3    H1 1089   0.322   3.565   3.399
  382TIP3    H2 1090   0.367   3.456   3.304
  383TIP3   OH2 1091   5.729   4.372   1.869
  383TIP3    H1 1092   5.759   4.291   1.909
  383TIP3    H2 1093   5.777   4.441   1.915
  384TIP3   OH2 1094   7.491   7.770   6.573
  384TIP3    H1 1095   7.453   7.728   6.496
  384TIP3    H2 1096   7.416   7.804   6.622
  385TIP3   OH2 1097   1.907   0.681   6.349
  385TIP3    H1 1098   1.860   0.732   6.416
  385TIP3    H2 1099   1.877   0.716   6.266
  386TIP3   OH2 1100   2.965   3.037   0.901
  386TIP3    H1 1101   2.986   3.129   0.916
  386TIP3    H2 1102   2.890   3.039   0.841
  387TIP3   OH2 1103   3.528   2.396   1.852
  387TIP3    H1 1104   3.608   2.447   1.837
  387TIP3    H2 1105   3.464   2.460   1.883
  388TIP3   OH2 1106   8.097   1.455   3.576
  388TIP3    H1 1107   8.100   1.531   3.634
  388TIP3    H2 1108   8.005   1.449   3.550
  389TIP3   OH2 1109   5.233   3.553   1.706
  389TIP3    H1 1110   5.229   3.524   1.797
  389TIP3    H2 1111   5.145   3.587   1.687
  390TIP3   OH2 1112   2.200   2.030   4.096
  390TIP3    H1 1113   2.286   2.049   4.135
  390TIP3    H2 1114   2.220   2.011   4.005
  391TIP3   OH2 1115   0.572   6.511   4.783
  391TIP3    H1 1116   0.501   6.476   4.729
  391TIP3    H2 1117   0.584   6.601   4.752
  392TIP3   OH2 1118   7.839   2.161   2.137
  392TIP3    H1 1119   7.916   2.164   2.079
  392TIP3    H2 1120   7.806   2.071   2.128
  393TIP3   OH2 1121   6.626   3.021   0.392
  393TIP3    H1 1122   6.638   3.115   0.400
  393TIP3    H2 1123   6.589   3.008   0.305
  394TIP3   OH2 1124   6.197   2.741   5.572
  394TIP3    H1 1125   6.245   2.662   5.547
  394TIP3    H2 1126   6.252   2.782   5.639
  395TIP3   OH2 1127   3.211   4.549   1.598
  395TIP3    H1 1128   3.208   4.543   1.693
  395TIP3    H2 1129   3.178   4.636   1.578
  396TIP3   OH2 1130   7.704   4.097   6.725
  396TIP3    H1 1131   7.755   4.050   6.791
  396TIP3    H2 1132   7.688   4.032   6.656
  397TIP3   OH2 1133   3.860   1.635   0.554
  397TIP3    H1 1134   3.804   1.705   0.587
  397TIP3    H2 1135   3.913   1.677   0.486
  398TIP3   OH2 1136   5.593   0.817   1.579
  398TIP3    H1 1137   5.502   0.812   1.550
  398TIP3    H2 1138   5.616   0.909   1.571
  399TIP3   OH2 1139   5.696   4.721   2.843
  399TIP3    H1 1140   5.684   4.665   2.766
  399TIP3    H2 1141   5.774   4.686   2.886
  400TIP3   OH2 1142   7.940   3.185   2.879
  400TIP3    H1 1143   7.849   3.154   2.885
  400TIP3    H2 1144   7.964   3.169   2.788
  401TIP3   OH2 1145   7.737   6.286   3.908
  401TIP3    H1 1146   7.702   6.260   3.993
  401TIP3    H2 1147   7.786   6.210   3.877
  402TIP3   OH2 1148   1.067   4.128   5.590
  402TIP3    H1 1149   1.054   4.201   5.649
  402TIP3    H2 1150   1.108   4.167   5.512
  403TIP3   OH2 1151   7.416   4.336   1.544
  403TIP3    H1 1152   7.501   4.369   1.516
  403TIP3    H2 1153   7.434   4.288   1.625
  404TIP3   OH2 1154   6.848   0.849   1.789
  404TIP3    H1 1155   6.858   0.884   1.878
  404TIP3    H2 1156   6.823   0.758   1.802
  405TIP3   OH2 1157   0.271   3.616   0.645
  405TIP3    H1 1158   0.365   3.637   0.645
  405TIP3    H2 1159   0.227   3.701   0.651
  406TIP3   OH2 1160   3.411   5.358   3.809
  406TIP3    H1 1161   3.493   5.368   3.858
  406TIP3    H2 1162   3.435   5.373   3.718
  407TIP3   OH2 1163   2.325   4.482   3.494
  407TIP3    H1 1164   2.399   4.524   3.451
  407TIP3    H2 1165   2.340   4.388   3.481
  408TIP3   OH2 1166   7.333   6.195   2.884
  408TIP3    H1 1167   7.326   6.188   2.979
  408TIP3    H2 1168   7.401   6.261   2.869
  409TIP3   OH2 1169   7.534   5.134   2.645
  409TIP3    H1 1170   7.625   5.164   2.636
  409TIP3    H2 1171   7.542   5.039   2.654
  410TIP3   OH2 1172   5.493   6.021   5.684
  410TIP3    H1 1173   5.534   6.025   5.598
  410TIP3    H2 1174   5.564   6.042   5.745
  411TIP3   OH2 1175   7.937   7.220   2.435
  411TIP3    H1 1176   7.906   7.237   2.524
  411TIP3    H2 1177   7.873   7.159   2.398
  412TIP3   OH2 1178   6.139   3.769   2.574
  412TIP3    H1 1179   6.147   3.801   2.664
  412TIP3    H2 1180   6.113   3.846   2.524
  413TIP3   OH2 1181   3.758   4.005  -0.011
  413TIP3    H1 1182   3.708   4.027   0.068
  413TIP3    H2 1183   3.848   3.997   0.018
  414TIP3   OH2 1184   4.154   4.235   6.039
  414TIP3    H1 1185   4.091   4.176   6.081
  414TIP3    H2 1186   4.193   4.283   6.111
  415TIP3   OH2 1187   1.463   0.862   1.409
  415TIP3    H1 1188   1.400   0.795   1.435
  415TIP3    H2 1189   1.519   0.818   1.345
  416TIP3   OH2 1190   7.973   1.453   5.551
  416TIP3    H1 1191   7.984   1.361   5.577
  416TIP3    H2 1192   7.895   1.453   5.495
  417TIP3   OH2 1193   8.108   1.287   4.633
  417TIP3    H1 1194   8.153   1.365   4.666
  417TIP3    H2 1195   8.065   1.318   4.553
  418TIP3   OH2 1196   7.548   5.064   2.031
  418TIP3    H1 1197   7.459   5.030   2.026
  418TIP3    H2 1198   7.563   5.104   1.946
  419TIP3   OH2 1199   0.849   3.123   5.374
  419TIP3    H1 1200   0.883   3.083   5.454
  419TIP3    H2 1201   0.820   3.210   5.402
  420TIP3   OH2 1202   5.710   0.224   1.350
  420TIP3    H1 1203   5.751   0.146   1.388
  420TIP3    H2 1204   5.617   0.213   1.369
  421TIP3   OH2 1205   4.846   5.321   6.697
  421TIP3    H1 1206   4.890   5.236   6.705
  421TIP3    H2 1207   4.904   5.383   6.741
  422TIP3   OH2 1208   8.106   7.685   4.662
  422TIP3    H1 1209   8.087   7.618   4.727
  422TIP3    H2 1210   8.162   7.641   4.597
  423TIP3   OH2 1211   4.441   0.104   3.064
  423TIP3    H1 1212   4.413   0.026   3.015
  423TIP3    H2 1213   4.464   0.167   2.996
  424TIP3   OH2 1214   2.079   7.615   5.487
  424TIP3    H1 1215   2.040   7.585   5.570
  424TIP3    H2 1216   2.150   7.673   5.514
  425TIP3   OH2 1217   7.623   1.697   0.808
  425TIP3    H1 1218   7.656   1.629   0.749
  425TIP3    H2 1219   7.549   1.736   0.761
  426TIP3   OH2 1220   5.175   7.520   1.423
  426TIP3    H1 1221   5.232   7.506   1.498
  426TIP3    H2 1222   5.115   7.590   1.450
  427TIP3   OH2 1223   1.880   0.894   2.267
  427TIP3    H1 1224   1.906   0.846   2.189
  427TIP3    H2 1225   1.951   0.879   2.329
  428TIP3   OH2 1226   7.413   4.768   3.833
  428TIP3    H1 1227   7.493   4.819   3.820
  428TIP3    H2 1228   7.405   4.715   3.754
  429TIP3   OH2 1229   7.718   6.962   6.290
  429TIP3    H1 1230   7.630   6.924   6.290
  429TIP3    H2 1231   7.730   6.994   6.200
  430TIP3   OH2 1232   4.920   5.573   2.561
  430TIP3    H1 1233   4.892   5.631   2.632
  430TIP3    H2 1234   4.938   5.490   2.604
  431TIP3   OH2 1235   6.400   5.181   2.528
  431TIP3    H1 1236   6.377   5.114   2.592
  431TIP3    H2 1237   6.370   5.263   2.567
  432TIP3   OH2 1238   2.774   3.633   2.756
  432TIP3    H1 1239   2.722   3.700   2.712
  432TIP3    H2 1240   2.724   3.552   2.746
  433TIP3   OH2 1241   0.728   0.959   4.478
  433TIP3    H1 1242   0.655   0.898   4.485
  433TIP3    H2 1243   0.803   0.911   4.514
  434TIP3   OH2 1244   3.900   2.919   0.817
  434TIP3    H1 1245   3.916   2.832   0.780
  434TIP3    H2 1246   3.948   2.920   0.899
  435TIP3   OH2 1247   7.178   1.869   5.397
  435TIP3    H1 1248   7.133   1.948   5.429
  435TIP3    H2 1249   7.225   1.835   5.474
  436TIP3   OH2 1250   5.475   5.182   6.325
  436TIP3    H1 1251   5.380   5.172   6.323
  436TIP3    H2 1252   5.489   5.275   6.305
  437TIP3   OH2 1253   4.733   0.449   1.166
  437TIP3    H1 1254   4.649   0.431   1.208
  437TIP3    H2 1255   4.724   0.538   1.132
  438TIP3   OH2 1256   8.129   3.529   1.888
  438TIP3    H1 1257   8.169   3.485   1.963
  438TIP3    H2 1258   8.148   3.473   1.813
  439TIP3   OH2 1259   2.692   3.289   1.950
  439TIP3    H1 1260   2.720   3.207   1.911
  439TIP3    H2 1261   2.608   3.308   1.908
  440TIP3   OH2 1262   1.675   4.820   1.191
  440TIP3    H1 1263   1.663   4.725   1.196
  440TIP3    H2 1264   1.666   4.851   1.281
  441TIP3   OH2 1265   1.832   7.240   5.040
  441TIP3    H1 1266   1.898   7.289   4.991
  441TIP3    H2 1267   1.814   7.293   5.117
  442TIP3   OH2 1268   6.539   2.593   2.152
  442TIP3    H1 1269   6.563   2.552   2.235
  442TIP3    H2 1270   6.613   2.574   2.094
  443TIP3   OH2 1271   2.894   3.373   2.942
  443TIP3    H1 1272   2.803   3.363   2.967
  443TIP3    H2 1273   2.921   3.457   2.978
  444TIP3   OH2 1274   6.629   7.078   1.910
  444TIP3    H1 1275   6.618   7.083   1.815
  444TIP3    H2 1276   6.568   7.143   1.944
  445TIP3   OH2 1277   4.805   4.969   0.401
  445TIP3    H1 1278   4.778   4.891   0.353
  445TIP3    H2 1279   4.892   4.989   0.367
  446TIP3   OH2 1280   7.209   4.084   1.092
  446TIP3    H1 1281   7.268   4.148   1.134
  446TIP3    H2 1282   7.244   3.999   1.119
  447TIP3   OH2 1283   7.867   7.248   1.743
  447TIP3    H1 1284   7.819   7.173   1.778
  447TIP3    H2 1285   7.959   7.228   1.759
  448TIP3   OH2 1286   1.610   1.342   3.172
  448TIP3    H1 1287   1.530   1.325   3.121
  448TIP3    H2 1288   1.595   1.427   3.212
  449TIP3   OH2 1289   6.435   6.137   5.077
  449TIP3    H1 1290   6.366   6.148   5.142
  449TIP3    H2 1291   6.469   6.226   5.063
  450TIP3   OH2 1292   4.818   7.505   1.588
  450TIP3    H1 1293   4.897   7.468   1.549
  450TIP3    H2 1294   4.849   7.554   1.664
  451TIP3   OH2 1295   2.552   6.025   6.007
  451TIP3    H1 1296   2.595   6.066   6.082
  451TIP3    H2 1297   2.487   5.966   6.045
  452TIP3   OH2 1298   4.761   2.842   3.543
  452TIP3    H1 1299   4.832   2.903   3.562
  452TIP3    H2 1300   4.682   2.896   3.551
  453TIP3   OH2 1301   4.584   1.833   1.963
  453TIP3    H1 1302   4.579   1.768   2.033
  453TIP3    H2 1303   4.496   1.870   1.958
  454TIP3   OH2 1304   2.354   7.325   4.752
  454TIP3    H1 1305   2.416   7.343   4.681
  454TIP3    H2 1306   2.391   7.250   4.797
  455TIP3   OH2 1307   2.517   7.267   3.407
  455TIP3    H1 1308   2.613   7.260   3.411
  455TIP3    H2 1309   2.485   7.195   3.461
  456TIP3   OH2 1310   3.771   3.772   0.345
  456TIP3    H1 1311   3.850   3.796   0.296
  456TIP3    H2 1312   3.714   3.730   0.280
  457TIP3   OH2 1313   5.900   1.173   3.245
  457TIP3    H1 1314   5.986   1.192   3.284
  457TIP3    H2 1315   5.842   1.239   3.283
  458TIP3   OH2 1316   5.225   0.206   6.405
  458TIP3    H1 1317   5.241   0.279   6.466
  458TIP3    H2 1318   5.311   0.184   6.371
  459TIP3   OH2 1319   0.085   6.252   1.290
  459TIP3    H1 1320   0.051   6.321   1.347
  459TIP3    H2 1321   0.097   6.294   1.206
  460TIP3   OH2 1322   6.368   6.816   0.852
  460TIP3    H1 1323   6.444   6.770   0.888
  460TIP3    H2 1324   6.404   6.873   0.784
  461TIP3   OH2 1325   1.617   1.686   5.949
  461TIP3    H1 1326   1.562   1.762   5.933
  461TIP3    H2 1327   1.663   1.672   5.866
  462TIP3   OH2 1328   4.318   4.817   0.572
  462TIP3    H1 1329   4.224   4.811   0.586
  462TIP3    H2 1330   4.343   4.899   0.613
  463TIP3   OH2 1331   3.861   2.938   5.484
  463TIP3    H1 1332   3.782   2.978   5.446
  463TIP3    H2 1333   3.856   2.960   5.577
  464TIP3   OH2 1334   7.058   5.148   1.592
  464TIP3    H1 1335   7.068   5.092   1.668
  464TIP3    H2 1336   7.023   5.230   1.627
  465TIP3   OH2 1337   3.357   0.965   2.993
  465TIP3    H1 1338   3.428   1.016   3.031
  465TIP3    H2 1339   3.278   1.018   3.009
  466TIP3   OH2 1340   6.380   0.416   0.094
  466TIP3    H1 1341   6.353   0.342   0.147
  466TIP3    H2 1342   6.396   0.379   0.007
  467TIP3   OH2 1343   5.572   5.328   0.179
  467TIP3    H1 1344   5.639   5.383   0.138
  467TIP3    H2 1345   5.619   5.277   0.245
  468TIP3   OH2 1346   0.783   7.014   5.444
  468TIP3    H1 1347   0.735   7.095   5.456
  468TIP3    H2 1348   0.734   6.966   5.377
  469TIP3   OH2 1349   2.755   2.655   5.410
  469TIP3    H1 1350   2.661   2.647   5.427
  469TIP3    H2 1351   2.769   2.607   5.329
  470TIP3   OH2 1352   3.194   1.318   3.096
  470TIP3    H1 1353   3.149   1.402   3.100
  470TIP3    H2 1354   3.255   1.326   3.023
  471TIP3   OH2 1355   6.896   5.482   0.219
  471TIP3    H1 1356   6.953   5.545   0.263
  471TIP3    H2 1357   6.914   5.399   0.263
  472TIP3   OH2 1358   0.728   1.215   0.783
  472TIP3    H1 1359   0.734   1.135   0.730
  472TIP3    H2 1360   0.796   1.272   0.747
  473TIP3   OH2 1361   2.573   2.042   4.815
  473TIP3    H1 1362   2.580   2.134   4.790
  473TIP3    H2 1363   2.553   1.996   4.734
  474TIP3   OH2 1364   4.300   6.824   2.316
  474TIP3    H1 1365   4.391   6.850   2.332
  474TIP3    H2 1366   4.287   6.747   2.372
  475TIP3   OH2 1367   2.173   4.252   2.212
  475TIP3    H1 1368   2.184   4.346   2.224
  475TIP3    H2 1369   2.253   4.223   2.167
  476TIP3   OH2 1370   1.592   4.994   1.735
  476TIP3    H1 1371   1.533   4.919   1.723
  476TIP3    H2 1372   1.634   5.006   1.650
  477TIP3   OH2 1373   4.999   7.461   6.115
  477TIP3    H1 1374   4.961   7.505   6.039
  477TIP3    H2 1375   5.089   7.442   6.090
  478TIP3   OH2 1376   7.013   3.628   2.107
  478TIP3    H1 1377   7.091   3.682   2.120
  478TIP3    H2 1378   6.952   3.686   2.060
  479TIP3   OH2 1379   6.263   6.916   2.658
  479TIP3    H1 1380   6.286   6.916   2.565
  479TIP3    H2 1381   6.168   6.931   2.659
  480TIP3   OH2 1382   3.241   1.022   3.334
  480TIP3    H1 1383   3.326   1.065   3.346
  480TIP3    H2 1384   3.218   1.040   3.243
  481TIP3   OH2 1385   0.104   3.668   1.905
  481TIP3    H1 1386   0.010   3.652   1.914
  481TIP3    H2 1387   0.137   3.661   1.995
  482TIP3   OH2 1388   4.517   3.639   2.594
  482TIP3    H1 1389   4.525   3.716   2.538
  482TIP3    H2 1390   4.544   3.670   2.681
  483TIP3   OH2 1391   4.636   4.690   1.633
  483TIP3    H1 1392   4.696   4.676   1.560
  483TIP3    H2 1393   4.550   4.696   1.592
  484TIP3   OH2 1394   3.686   0.647   2.391
  484TIP3    H1 1395   3.722   0.700   2.463
  484TIP3    H2 1396   3.762   0.623   2.339
  485TIP3   OH2 1397   3.962   5.387   3.948
  485TIP3    H1 1398   3.886   5.445   3.941
  485TIP3    H2 1399   4.025   5.422   3.886
  486TIP3   OH2 1400   4.529   0.723   5.658
  486TIP3    H1 1401   4.507   0.639   5.697
  486TIP3    H2 1402   4.473   0.729   5.581
  487TIP3   OH2 1403   4.597   1.828   5.978
  487TIP3    H1 1404   4.540   1.857   6.049
  487TIP3    H2 1405   4.685   1.845   6.009
  488TIP3   OH2 1406   3.596   0.026   4.075
  488TIP3    H1 1407   3.540  -0.050   4.057
  488TIP3    H2 1408   3.563   0.061   4.158
  489TIP3   OH2 1409   0.910   5.964   4.082
  489TIP3    H1 1410   0.986   6.011   4.046
  489TIP3    H2 1411   0.891   6.009   4.164
  490TIP3   OH2 1412   1.113   3.385   3.055
  490TIP3    H1 1413   1.165   3.389   2.974
  490TIP3    H2 1414   1.174   3.351   3.120
  491TIP3   OH2 1415   4.362   1.480   0.587
  491TIP3    H1 1416   4.279   1.492   0.633
  491TIP3    H2 1417   4.364   1.387   0.564
  492TIP3   OH2 1418   4.889   2.641   2.218
  492TIP3    H1 1419   4.837   2.624   2.297
  492TIP3    H2 1420   4.978   2.620   2.243
  493TIP3   OH2 1421   4.348   4.828   4.057
  493TIP3    H1 1422   4.339   4.910   4.008
  493TIP3    H2 1423   4.431   4.837   4.104
  494TIP3   OH2 1424   3.825   1.359   2.255
  494TIP3    H1 1425   3.809   1.442   2.300
  494TIP3    H2 1426   3.746   1.307   2.271
  495TIP3   OH2 1427   2.015   0.383   1.920
  495TIP3    H1 1428   1.955   0.350   1.988
  495TIP3    H2 1429   2.089   0.418   1.969
  496TIP3   OH2 1430   4.587   0.410   4.168
  496TIP3    H1 1431   4.609   0.319   4.186
  496TIP3    H2 1432   4.614   0.457   4.248
  497TIP3   OH2 1433   5.546   2.086   2.425
  497TIP3    H1 1434   5.610   2.040   2.370
  497TIP3    H2 1435   5.581   2.175   2.433
  498TIP3   OH2 1436   5.606   2.483   5.915
  498TIP3    H1 1437   5.694   2.487   5.877
  498TIP3    H2 1438   5.556   2.430   5.853
  499TIP3   OH2 1439   6.170   5.175   1.040
  499TIP3    H1 1440   6.236   5.169   0.970
  499TIP3    H2 1441   6.197   5.110   1.104
  500TIP3   OH2 1442   0.404   1.098   1.522
  500TIP3    H1 1443   0.495   1.075   1.542
  500TIP3    H2 1444   0.410   1.159   1.448
  501TIP3   OH2 1445   5.532   1.619   1.693
  501TIP3    H1 1446   5.473   1.566   1.639
  501TIP3    H2 1447   5.560   1.559   1.762
  502TIP3   OH2 1448   3.787   5.389   2.881
  502TIP3    H1 1449   3.861   5.348   2.837
  502TIP3    H2 1450   3.726   5.317   2.897
  503TIP3   OH2 1451   0.618   0.176   0.696
  503TIP3    H1 1452   0.649   0.232   0.625
  503TIP3    H2 1453   0.690   0.176   0.759
  504TIP3   OH2 1454   2.624   2.436   1.905
  504TIP3    H1 1455   2.710   2.408   1.873
  504TIP3    H2 1456   2.635   2.443   2.000
  505TIP3   OH2 1457   3.274   5.859   6.514
  505TIP3    H1 1458   3.341   5.874   6.580
  505TIP3    H2 1459   3.281   5.767   6.492
  506TIP3   OH2 1460   5.380   1.649   3.225
  506TIP3    H1 1461   5.309   1.590   3.198
  506TIP3    H2 1462   5.440   1.649   3.151
  507TIP3   OH2 1463   3.554   5.587   5.568
  507TIP3    H1 1464   3.484   5.652   5.560
  507TIP3    H2 1465   3.629   5.627   5.523
  508TIP3   OH2 1466   0.881   7.331   0.131
  508TIP3    H1 1467   0.826   7.262   0.169
  508TIP3    H2 1468   0.873   7.405   0.191
  509TIP3   OH2 1469   7.913   6.228   5.787
  509TIP3    H1 1470   7.872   6.158   5.839
  509TIP3    H2 1471   7.957   6.181   5.716
  510TIP3   OH2 1472   4.568   3.325   1.082
  510TIP3    H1 1473   4.575   3.287   0.995
  510TIP3    H2 1474   4.478   3.356   1.088
  511TIP3   OH2 1475   6.537   2.752   5.603
  511TIP3    H1 1476   6.519   2.742   5.509
  511TIP3    H2 1477   6.484   2.827   5.630
  512TIP3   OH2 1478   4.250   4.740   5.107
  512TIP3    H1 1479   4.251   4.830   5.140
  512TIP3    H2 1480   4.252   4.686   5.186
  513TIP3   OH2 1481   0.492   3.821   1.272
  513TIP3    H1 1482   0.408   3.779   1.291
  513TIP3    H2 1483   0.551   3.791   1.340
  514TIP3   OH2 1484   6.998   6.743   0.451
  514TIP3    H1 1485   6.903   6.747   0.450
  514TIP3    H2 1486   7.018   6.652   0.430
  515TIP3   OH2 1487   4.085   7.669   6.307
  515TIP3    H1 1488   4.031   7.723   6.250
  515TIP3    H2 1489   4.159   7.725   6.331
  516TIP3   OH2 1490   5.218   3.699   6.274
  516TIP3    H1 1491   5.246   3.762   6.208
  516TIP3    H2 1492   5.270   3.721   6.352
  517TIP3   OH2 1493   2.485   4.448   2.833
  517TIP3    H1 1494   2.567   4.460   2.881
  517TIP3    H2 1495   2.490   4.358   2.800
  518TIP3   OH2 1496   7.309   7.450   4.956
  518TIP3    H1 1497   7.366   7.386   4.999
  518TIP3    H2 1498   7.355   7.471   4.874
  519TIP3   OH2 1499   2.475   5.770   0.209
  519TIP3    H1 1500   2.522   5.687   0.208
  519TIP3    H2 1501   2.389   5.749   0.174
  520TIP3   OH2 1502   4.925   0.100   4.753
  520TIP3    H1 1503   4.839   0.092   4.795
  520TIP3    H2 1504   4.957   0.011   4.746
  521TIP3   OH2 1505   2.345   4.689   0.987
  521TIP3    H1 1506   2.335   4.695   0.892
  521TIP3    H2 1507   2.400   4.764   1.011
  522TIP3   OH2 1508   2.756   1.143   2.910
  522TIP3    H1 1509   2.669   1.122   2.875
  522TIP3    H2 1510   2.738   1.202   2.983
  523TIP3   OH2 1511   4.657   0.646   4.727
  523TIP3    H1 1512   4.661   0.700   4.806
  523TIP3    H2 1513   4.564   0.629   4.715
  524TIP3   OH2 1514   5.012   6.076   2.131
  524TIP3    H1 1515   4.964   6.020   2.071
  524TIP3    H2 1516   5.083   6.113   2.079
  525TIP3   OH2 1517   5.671   3.401   2.445
  525TIP3    H1 1518   5.661   3.492   2.418
  525TIP3    H2 1519   5.739   3.366   2.388
  526TIP3   OH2 1520   1.488   6.414   4.511
  526TIP3    H1 1521   1.564   6.463   4.541
  526TIP3    H2 1522   1.517   6.323   4.508
  527TIP3   OH2 1523   2.657   7.014   3.314
  527TIP3    H1 1524   2.676   7.004   3.221
  527TIP3    H2 1525   2.574   6.968   3.327
  528TIP3   OH2 1526   2.470   6.173   0.249
  528TIP3    H1 1527   2.489   6.157   0.157
  528TIP3    H2 1528   2.397   6.234   0.249
  529TIP3   OH2 1529   4.917   7.585   4.032
  529TIP3    H1 1530   4.987   7.633   4.075
  529TIP3    H2 1531   4.838   7.638   4.048
  530TIP3   OH2 1532   0.408   0.627   3.134
  530TIP3    H1 1533   0.480   0.578   3.174
  530TIP3    H2 1534   0.446   0.713   3.113
  531TIP3   OH2 1535   2.108   2.344   0.867
  531TIP3    H1 1536   2.199   2.318   0.859
  531TIP3    H2 1537   2.058   2.262   0.865
  532TIP3   OH2 1538   4.444   5.105   2.889
  532TIP3    H1 1539   4.442   5.198   2.866
  532TIP3    H2 1540   4.369   5.093   2.947
  533TIP3   OH2 1541   1.234   4.043   3.590
  533TIP3    H1 1542   1.306   3.980   3.577
  533TIP3    H2 1543   1.277   4.122   3.622
  534TIP3   OH2 1544   2.311   1.080   4.444
  534TIP3    H1 1545   2.258   1.134   4.385
  534TIP3    H2 1546   2.387   1.055   4.391
  535TIP3   OH2 1547   2.827   1.727   5.770
  535TIP3    H1 1548   2.817   1.781   5.691
  535TIP3    H2 1549   2.781   1.776   5.838
  536TIP3   OH2 1550   1.834   7.559   5.211
  536TIP3    H1 1551   1.873   7.482   5.252
  536TIP3    H2 1552   1.892   7.631   5.236
  537TIP3   OH2 1553   5.381   1.797   1.882
  537TIP3    H1 1554   5.436   1.788   1.805
  537TIP3    H2 1555   5.357   1.890   1.883
  538TIP3   OH2 1556   6.333   6.564   1.177
  538TIP3    H1 1557   6.364   6.627   1.242
  538TIP3    H2 1558   6.295   6.492   1.228
  539TIP3   OH2 1559   1.400   1.393   2.986
  539TIP3    H1 1560   1.330   1.451   3.013
  539TIP3    H2 1561   1.452   1.444   2.924
  540TIP3   OH2 1562   4.550   6.146   5.286
  540TIP3    H1 1563   4.569   6.062   5.245
  540TIP3    H2 1564   4.502   6.123   5.365
  541TIP3   OH2 1565   0.802   7.554   4.606
  541TIP3    H1 1566   0.857   7.580   4.533
  541TIP3    H2 1567   0.862   7.513   4.668
  542TIP3   OH2 1568   5.232   5.386   6.494
  542TIP3    H1 1569   5.179   5.453   6.538
  542TIP3    H2 1570   5.295   5.435   6.442
  543TIP3   OH2 1571   6.779   7.658   6.319
  543TIP3    H1 1572   6.753   7.566   6.317
  543TIP3    H2 1573   6.735   7.694   6.396
  544TIP3   OH2 1574   5.576   1.385   3.404
  544TIP3    H1 1575   5.484   1.407   3.415
  544TIP3    H2 1576   5.593   1.319   3.472
  545TIP3   OH2 1577   5.090   7.680   2.177
  545TIP3    H1 1578   5.014   7.710   2.126
  545TIP3    H2 1579   5.135   7.761   2.202
  546TIP3   OH2 1580   0.237   1.005   3.494
  546TIP3    H1 1581   0.293   0.980   3.421
  546TIP3    H2 1582   0.160   1.045   3.453
  547TIP3   OH2 1583   0.769   6.700   0.449
  547TIP3    H1 1584   0.825   6.650   0.507
  547TIP3    H2 1585   0.746   6.779   0.499
  548TIP3   OH2 1586   8.079   3.190   0.146
  548TIP3    H1 1587   8.033   3.192   0.230
  548TIP3    H2 1588   8.027   3.130   0.092
  549TIP3   OH2 1589   5.466   4.238   3.809
  549TIP3    H1 1590   5.509   4.159   3.843
  549TIP3    H2 1591   5.393   4.253   3.868
  550TIP3   OH2 1592   7.811   3.509   3.472
  550TIP3    H1 1593   7.841   3.555   3.394
  550TIP3    H2 1594   7.779   3.579   3.530
  551TIP3   OH2 1595   7.754   4.335   3.374
  551TIP3    H1 1596   7.754   4.390   3.452
  551TIP3    H2 1597   7.742   4.246   3.407
  552TIP3   OH2 1598   3.166   3.125   4.008
  552TIP3    H1 1599   3.132   3.038   4.027
  552TIP3    H2 1600   3.150   3.176   4.088
  553TIP3   OH2 1601   3.493   0.970   1.914
  553TIP3    H1 1602   3.450   0.976   1.999
  553TIP3    H2 1603   3.566   1.032   1.919
  554TIP3   OH2 1604   7.416   5.784   6.050
  554TIP3    H1 1605   7.434   5.796   6.143
  554TIP3    H2 1606   7.351   5.714   6.047
  555TIP3   OH2 1607   7.799   6.600   5.068
  555TIP3    H1 1608   7.834   6.688   5.062
  555TIP3    H2 1609   7.779   6.575   4.977
  556TIP3   OH2 1610   1.918   4.926   5.209
  556TIP3    H1 1611   1.944   4.921   5.301
  556TIP3    H2 1612   1.842   4.983   5.208
  557TIP3   OH2 1613   5.184   0.799   6.493
  557TIP3    H1 1614   5.122   0.855   6.446
  557TIP3    H2 1615   5.161   0.811   6.586
  558TIP3   OH2 1616   8.283   5.405   4.125
  558TIP3    H1 1617   8.306   5.473   4.061
  558TIP3    H2 1618   8.198   5.431   4.159
  559TIP3   OH2 1619   3.431   3.001   2.291
  559TIP3    H1 1620   3.412   2.916   2.331
  559TIP3    H2 1621   3.361   3.014   2.227
  560TIP3   OH2 1622   6.976   0.288   1.041
  560TIP3    H1 1623   6.907   0.333   1.091
  560TIP3    H2 1624   6.929   0.221   0.991
  561TIP3   OH2 1625   2.987   3.495   3.470
  561TIP3    H1 1626   3.056   3.522   3.531
  561TIP3    H2 1627   2.908   3.539   3.501
  562TIP3   OH2 1628   6.302   0.149   1.301
  562TIP3    H1 1629   6.255   0.103   1.370
  562TIP3    H2 1630   6.268   0.113   1.220
  563TIP3   OH2 1631   5.257   0.404   1.650
  563TIP3    H1 1632   5.224   0.449   1.573
  563TIP3    H2 1633   5.276   0.474   1.713
  564TIP3   OH2 1634   3.763   4.958   3.007
  564TIP3    H1 1635   3.735   4.916   3.088
  564TIP3    H2 1636   3.780   4.886   2.946
  565TIP3   OH2 1637   2.208   7.602   0.188
  565TIP3    H1 1638   2.184   7.618   0.279
  565TIP3    H2 1639   2.124   7.590   0.143
  566TIP3   OH2 1640   6.528   5.262   3.767
  566TIP3    H1 1641   6.550   5.355   3.763
  566TIP3    H2 1642   6.526   5.242   3.860
  567TIP3   OH2 1643   0.753   2.447   0.100
  567TIP3    H1 1644   0.822   2.432   0.164
  567TIP3    H2 1645   0.760   2.540   0.078
  568TIP3   OH2 1646   6.390   3.577   3.818
  568TIP3    H1 1647   6.467   3.605   3.867
  568TIP3    H2 1648   6.423   3.560   3.730
  569TIP3   OH2 1649   3.767   5.226   5.697
  569TIP3    H1 1650   3.837   5.278   5.657
  569TIP3    H2 1651   3.688   5.277   5.684
  570TIP3   OH2 1652   1.594   0.863   6.696
  570TIP3    H1 1653   1.512   0.895   6.735
  570TIP3    H2 1654   1.640   0.943   6.670
  571TIP3   OH2 1655   0.303   6.321   6.630
  571TIP3    H1 1656   0.243   6.355   6.563
  571TIP3    H2 1657   0.277   6.230   6.641
  572TIP3   OH2 1658   5.284   0.283   0.222
  572TIP3    H1 1659   5.234   0.226   0.280
  572TIP3    H2 1660   5.343   0.331   0.280
  573TIP3   OH2 1661   3.629   2.798   4.801
  573TIP3    H1 1662   3.661   2.858   4.735
  573TIP3    H2 1663   3.667   2.713   4.777
  574TIP3   OH2 1664   7.374   3.301   2.306
  574TIP3    H1 1665   7.301   3.243   2.285
  574TIP3    H2 1666   7.337   3.389   2.298
  575TIP3   OH2 1667   0.383   0.384   0.680
  575TIP3    H1 1668   0.415   0.297   0.706
  575TIP3    H2 1669   0.343   0.370   0.594
  576TIP3   OH2 1670   8.223   3.774   6.532
  576TIP3    H1 1671   8.229   3.834   6.607
  576TIP3    H2 1672   8.151   3.715   6.554
  577TIP3   OH2 1673   3.859   2.284   2.926
  577TIP3    H1 1674   3.883   2.254   3.014
  577TIP3    H2 1675   3.775   2.329   2.939
  578TIP3   OH2 1676   0.646   2.893   3.026
  578TIP3    H1 1677   0.663   2.920   2.936
  578TIP3    H2 1678   0.675   2.967   3.079
  579TIP3   OH2 1679   3.636   4.754   1.459
  579TIP3    H1 1680   3.702   4.772   1.526
  579TIP3    H2 1681   3.681   4.700   1.394
  580TIP3   OH2 1682   5.251   0.270   2.585
  580TIP3    H1 1683   5.240   0.365   2.577
  580TIP3    H2 1684   5.246   0.253   2.679
  581TIP3   OH2 1685   6.167   1.802   1.682
  581TIP3    H1 1686   6.101   1.846   1.734
  581TIP3    H2 1687   6.245   1.801   1.737
  582TIP3   OH2 1688   5.494   5.424   3.098
  582TIP3    H1 1689   5.545   5.407   3.177
  582TIP3    H2 1690   5.421   5.478   3.128
  583TIP3   OH2 1691   6.717   3.310   0.895
  583TIP3    H1 1692   6.793   3.346   0.941
  583TIP3    H2 1693   6.645   3.317   0.958
  584TIP3   OH2 1694   2.909   6.726   2.613
  584TIP3    H1 1695   2.986   6.768   2.574
  584TIP3    H2 1696   2.838   6.788   2.597
  585TIP3   OH2 1697   7.356   5.724   3.908
  585TIP3    H1 1698   7.266   5.751   3.923
  585TIP3    H2 1699   7.349   5.646   3.853
  586TIP3   OH2 1700   3.560   4.285   6.057
  586TIP3    H1 1701   3.537   4.345   6.127
  586TIP3    H2 1702   3.483   4.228   6.047
  587TIP3   OH2 1703   6.592   3.598   6.247
  587TIP3    H1 1704   6.561   3.675   6.295
  587TIP3    H2 1705   6.683   3.619   6.224
  588TIP3   OH2 1706   3.122   3.585   0.087
  588TIP3    H1 1707   3.184   3.638   0.037
  588TIP3    H2 1708   3.151   3.594   0.178
  589TIP3   OH2 1709   6.508   3.674   0.943
  589TIP3    H1 1710   6.511   3.749   1.002
  589TIP3    H2 1711   6.529   3.710   0.857
  590TIP3   OH2 1712   0.149   7.372   5.883
  590TIP3    H1 1713   0.199   7.310   5.829
  590TIP3    H2 1714   0.212   7.440   5.906
  591TIP3   OH2 1715   4.475   5.703   2.983
  591TIP3    H1 1716   4.541   5.682   3.049
  591TIP3    H2 1717   4.516   5.680   2.900
  592TIP3   OH2 1718   6.449   3.804   5.215
  592TIP3    H1 1719   6.440   3.771   5.304
  592TIP3    H2 1720   6.526   3.760   5.180
  593TIP3   OH2 1721   5.199   4.835   3.979
  593TIP3    H1 1722   5.143   4.785   3.919
  593TIP3    H2 1723   5.274   4.860   3.925
  594TIP3   OH2 1724   2.375   5.459   5.690
  594TIP3    H1 1725   2.320   5.457   5.768
  594TIP3    H2 1726   2.423   5.376   5.692
  595TIP3   OH2 1727   4.306   0.851   6.756
  595TIP3    H1 1728   4.338   0.928   6.803
  595TIP3    H2 1729   4.375   0.785   6.769
  596TIP3   OH2 1730   2.508   6.565   6.465
  596TIP3    H1 1731   2.448   6.619   6.517
  596TIP3    H2 1732   2.592   6.571   6.510
  597TIP3   OH2 1733   6.794   1.490   3.227
  597TIP3    H1 1734   6.845   1.561   3.188
  597TIP3    H2 1735   6.717   1.533   3.263
  598TIP3   OH2 1736   1.809   0.167   5.584
  598TIP3    H1 1737   1.903   0.157   5.574
  598TIP3    H2 1738   1.772   0.118   5.510
  599TIP3   OH2 1739   7.811   5.600   2.949
  599TIP3    H1 1740   7.798   5.571   3.039
  599TIP3    H2 1741   7.863   5.531   2.909
  600TIP3   OH2 1742   7.374   0.025   4.607
  600TIP3    H1 1743   7.352   0.036   4.700
  600TIP3    H2 1744   7.469   0.036   4.603
  601TIP3   OH2 1745   7.610   7.632   5.028
  601TIP3    H1 1746   7.591   7.607   4.938
  601TIP3    H2 1747   7.665   7.562   5.062
  602TIP3   OH2 1748   3.586   2.202   2.035
  602TIP3    H1 1749   3.578   2.269   1.968
  602TIP3    H2 1750   3.585   2.250   2.118
  603TIP3   OH2 1751   2.193   7.782   2.589
  603TIP3    H1 1752   2.133   7.708   2.578
  603TIP3    H2 1753   2.280   7.744   2.574
  604TIP3   OH2 1754   1.963   6.748   6.569
  604TIP3    H1 1755   1.885   6.748   6.514
  604TIP3    H2 1756   1.950   6.675   6.630
  605TIP3   OH2 1757   0.465   2.917   4.621
  605TIP3    H1 1758   0.441   2.901   4.529
  605TIP3    H2 1759   0.525   2.991   4.617
  606TIP3   OH2 1760   0.108   6.014   5.247
  606TIP3    H1 1761   0.014   5.999   5.254
  606TIP3    H2 1762   0.116   6.107   5.224
  607TIP3   OH2 1763   1.553   6.107   2.641
  607TIP3    H1 1764   1.545   6.016   2.670
  607TIP3    H2 1765   1.473   6.122   2.589
  608TIP3   OH2 1766   3.865   3.167   1.973
  608TIP3    H1 1767   3.776   3.141   1.949
  608TIP3    H2 1768   3.867   3.262   1.961
  609TIP3   OH2 1769   5.658   0.714   5.067
  609TIP3    H1 1770   5.627   0.744   5.152
  609TIP3    H2 1771   5.584   0.666   5.030
  610TIP3   OH2 1772   0.560   5.579   6.426
  610TIP3    H1 1773   0.494   5.602   6.360
  610TIP3    H2 1774   0.629   5.535   6.377
  611TIP3   OH2 1775   5.806   7.705   5.866
  611TIP3    H1 1776   5.720   7.682   5.831
  611TIP3    H2 1777   5.832   7.782   5.814
  612TIP3   OH2 1778   3.091   1.882   0.092
  612TIP3    H1 1779   3.000   1.901   0.072
  612TIP3    H2 1780   3.134   1.967   0.097
  613TIP3   OH2 1781   4.694   1.018   1.348
  613TIP3    H1 1782   4.731   0.969   1.421
  613TIP3    H2 1783   4.705   0.960   1.272
  614TIP3   OH2 1784   1.909   7.151   6.557
  614TIP3    H1 1785   1.949   7.230   6.594
  614TIP3    H2 1786   1.913   7.087   6.628
  615TIP3   OH2 1787   1.591   0.581   1.457
  615TIP3    H1 1788   1.549   0.543   1.380
  615TIP3    H2 1789   1.525   0.574   1.526
  616TIP3   OH2 1790   6.495   6.779   3.252
  616TIP3    H1 1791   6.585   6.747   3.254
  616TIP3    H2 1792   6.442   6.703   3.272
  617TIP3   OH2 1793   6.868   3.480   6.701
  617TIP3    H1 1794   6.882   3.507   6.610
  617TIP3    H2 1795   6.817   3.399   6.694
  618TIP3   OH2 1796   0.287   4.010   5.310
  618TIP3    H1 1797   0.372   3.966   5.320
  618TIP3    H2 1798   0.265   3.999   5.218
  619TIP3   OH2 1799   1.873   4.752   3.157
  619TIP3    H1 1800   1.820   4.827   3.130
  619TIP3    H2 1801   1.938   4.788   3.216
  620TIP3   OH2 1802   5.514   1.162   6.113
  620TIP3    H1 1803   5.452   1.109   6.163
  620TIP3    H2 1804   5.503   1.251   6.146
  621TIP3   OH2 1805   8.109   3.733   5.996
  621TIP3    H1 1806   8.197   3.772   6.001
  621TIP3    H2 1807   8.125   3.639   6.005
  622TIP3   OH2 1808   0.070   6.588   2.596
  622TIP3    H1 1809   0.097   6.499   2.619
  622TIP3    H2 1810   0.128   6.644   2.648
  623TIP3   OH2 1811   1.772   0.353   1.565
  623TIP3    H1 1812   1.747   0.324   1.477
  623TIP3    H2 1813   1.819   0.435   1.550
  624TIP3   OH2 1814   2.440   6.100   6.651
  624TIP3    H1 1815   2.473   6.080   6.739
  624TIP3    H2 1816   2.408   6.190   6.658
  625TIP3   OH2 1817   0.380   3.503   5.237
  625TIP3    H1 1818   0.285   3.506   5.236
  625TIP3    H2 1819   0.404   3.534   5.325
  626TIP3   OH2 1820   1.661   6.753   6.371
  626TIP3    H1 1821   1.678   6.831   6.318
  626TIP3    H2 1822   1.603   6.784   6.440
  627TIP3   OH2 1823   0.506   5.234   1.189
  627TIP3    H1 1824   0.479   5.189   1.269
  627TIP3    H2 1825   0.566   5.173   1.146
  628TIP3   OH2 1826   7.555   1.594   6.354
  628TIP3    H1 1827   7.535   1.521   6.296
  628TIP3    H2 1828   7.635   1.632   6.318
  629TIP3   OH2 1829   2.824   1.660   3.419
  629TIP3    H1 1830   2.860   1.621   3.340
  629TIP3    H2 1831   2.736   1.688   3.394
  630TIP3   OH2 1832   1.748   7.729   2.262
  630TIP3    H1 1833   1.688   7.781   2.209
  630TIP3    H2 1834   1.761   7.649   2.211
  631TIP3   OH2 1835   3.078  -0.004   1.440
  631TIP3    H1 1836   3.099   0.052   1.515
  631TIP3    H2 1837   3.003   0.039   1.398
  632TIP3   OH2 1838   2.381   3.970   0.505
  632TIP3    H1 1839   2.456   3.958   0.446
  632TIP3    H2 1840   2.361   3.881   0.535
  633TIP3   OH2 1841   2.295   2.950   6.260
  633TIP3    H1 1842   2.361   2.911   6.202
  633TIP3    H2 1843   2.345   3.006   6.319
  634TIP3   OH2 1844   3.961   6.621   6.286
  634TIP3    H1 1845   4.011   6.539   6.289
  634TIP3    H2 1846   4.006   6.679   6.347
  635TIP3   OH2 1847   2.416   7.085   3.059
  635TIP3    H1 1848   2.398   6.991   3.056
  635TIP3    H2 1849   2.495   7.096   3.006
  636TIP3   OH2 1850   2.988   3.667   5.055
  636TIP3    H1 1851   3.081   3.645   5.059
  636TIP3    H2 1852   2.981   3.750   5.103
  637TIP3   OH2 1853   7.716   0.274   5.431
  637TIP3    H1 1854   7.811   0.262   5.428
  637TIP3    H2 1855   7.695   0.318   5.348
  638TIP3   OH2 1856   3.501   6.819   1.866
  638TIP3    H1 1857   3.531   6.868   1.790
  638TIP3    H2 1858   3.577   6.819   1.925
  639TIP3   OH2 1859   2.963   3.039   5.544
  639TIP3    H1 1860   2.960   3.124   5.588
  639TIP3    H2 1861   3.056   3.023   5.528
  640TIP3   OH2 1862   2.468   4.838   5.050
  640TIP3    H1 1863   2.496   4.838   5.142
  640TIP3    H2 1864   2.474   4.929   5.024
  641TIP3   OH2 1865   5.101   1.988   0.173
  641TIP3    H1 1866   5.071   2.076   0.148
  641TIP3    H2 1867   5.144   1.954   0.094
  642TIP3   OH2 1868   0.602   0.570   5.927
  642TIP3    H1 1869   0.598   0.496   5.988
  642TIP3    H2 1870   0.688   0.562   5.885
  643TIP3   OH2 1871   6.321   0.187   1.844
  643TIP3    H1 1872   6.240   0.141   1.865
  643TIP3    H2 1873   6.293   0.278   1.831
  644TIP3   OH2 1874   0.689   2.205   0.034
  644TIP3    H1 1875   0.776   2.170   0.016
  644TIP3    H2 1876   0.702   2.299   0.044
  645TIP3   OH2 1877   5.108   0.711   4.040
  645TIP3    H1 1878   5.162   0.669   3.973
  645TIP3    H2 1879   5.096   0.800   4.008
  646TIP3   OH2 1880   7.935   1.061   1.553
  646TIP3    H1 1881   7.940   1.057   1.458
  646TIP3    H2 1882   7.974   0.978   1.583
  647TIP3   OH2 1883   5.977   5.348   0.258
  647TIP3    H1 1884   5.924   5.405   0.314
  647TIP3    H2 1885   6.001   5.274   0.314
  648TIP3   OH2 1886   4.336   3.401   0.622
  648TIP3    H1 1887   4.320   3.426   0.531
  648TIP3    H2 1888   4.248   3.393   0.660
  649TIP3   OH2 1889   6.203   5.833   4.074
  649TIP3    H1 1890   6.135   5.777   4.111
  649TIP3    H2 1891   6.240   5.880   4.150
  650TIP3   OH2 1892   2.775   2.412   0.212
  650TIP3    H1 1893   2.706   2.361   0.168
  650TIP3    H2 1894   2.799   2.359   0.287
  651TIP3   OH2 1895   6.409   4.049   5.087
  651TIP3    H1 1896   6.433   3.962   5.119
  651TIP3    H2 1897   6.490   4.082   5.046
  652TIP3   OH2 1898   2.606   3.634   2.381
  652TIP3    H1 1899   2.665   3.649   2.308
  652TIP3    H2 1900   2.537   3.579   2.346
  653TIP3   OH2 1901   0.131   0.587   4.218
  653TIP3    H1 1902   0.155   0.639   4.295
  653TIP3    H2 1903   0.148   0.645   4.144
  654TIP3   OH2 1904   2.991   1.411   0.997
  654TIP3    H1 1905   2.965   1.424   0.906
  654TIP3    H2 1906   3.063   1.349   0.993
  655TIP3   OH2 1907   0.352   2.346   2.342
  655TIP3    H1 1908   0.265   2.352   2.382
  655TIP3    H2 1909   0.372   2.253   2.341
  656TIP3   OH2 1910   1.738   5.244   2.396
  656TIP3    H1 1911   1.665   5.233   2.335
  656TIP3    H2 1912   1.699   5.239   2.483
  657TIP3   OH2 1913   5.052   4.205   4.521
  657TIP3    H1 1914   4.994   4.266   4.475
  657TIP3    H2 1915   5.139   4.223   4.486
  658TIP3   OH2 1916   5.612   6.268   4.338
  658TIP3    H1 1917   5.697   6.244   4.374
  658TIP3    H2 1918   5.606   6.363   4.351
  659TIP3   OH2 1919   7.972   4.689   0.419
  659TIP3    H1 1920   7.934   4.682   0.507
  659TIP3    H2 1921   8.063   4.713   0.434
  660TIP3   OH2 1922   2.914   7.785   6.433
  660TIP3    H1 1923   2.939   7.840   6.358
  660TIP3    H2 1924   2.829   7.748   6.408
  661TIP3   OH2 1925   5.383   2.952   4.633
  661TIP3    H1 1926   5.340   3.026   4.590
  661TIP3    H2 1927   5.316   2.884   4.638
  662TIP3   OH2 1928   3.989   4.127   5.803
  662TIP3    H1 1929   4.068   4.134   5.857
  662TIP3    H2 1930   3.917   4.141   5.864
  663TIP3   OH2 1931   7.303   4.393   6.310
  663TIP3    H1 1932   7.318   4.473   6.260
  663TIP3    H2 1933   7.269   4.331   6.246
  664TIP3   OH2 1934   4.948   1.733   5.264
  664TIP3    H1 1935   4.901   1.713   5.183
  664TIP3    H2 1936   5.002   1.809   5.242
  665TIP3   OH2 1937   5.839   1.736   1.633
  665TIP3    H1 1938   5.847   1.668   1.700
  665TIP3    H2 1939   5.746   1.759   1.632
  666TIP3   OH2 1940   0.819   6.068   3.238
  666TIP3    H1 1941   0.810   5.978   3.206
  666TIP3    H2 1942   0.864   6.059   3.322
  667TIP3   OH2 1943   3.675   5.145   5.952
  667TIP3    H1 1944   3.704   5.148   5.861
  667TIP3    H2 1945   3.749   5.105   5.999
  668TIP3   OH2 1946   6.736   0.082   6.121
  668TIP3    H1 1947   6.663   0.036   6.161
  668TIP3    H2 1948   6.701   0.117   6.039
  669TIP3   OH2 1949   5.670   4.790   1.429
  669TIP3    H1 1950   5.742   4.834   1.474
  669TIP3    H2 1951   5.648   4.847   1.356
  670TIP3   OH2 1952   3.458   0.456   2.412
  670TIP3    H1 1953   3.528   0.518   2.392
  670TIP3    H2 1954   3.502   0.384   2.457
  671TIP3   OH2 1955   0.743   1.225   2.270
  671TIP3    H1 1956   0.722   1.136   2.244
  671TIP3    H2 1957   0.667   1.254   2.321
  672TIP3   OH2 1958   4.698   1.503   4.142
  672TIP3    H1 1959   4.717   1.597   4.144
  672TIP3    H2 1960   4.656   1.485   4.226
  673TIP3   OH2 1961   6.603   3.567   5.164
  673TIP3    H1 1962   6.520   3.524   5.186
  673TIP3    H2 1963   6.638   3.516   5.091
  674TIP3   OH2 1964   2.907   2.917   5.266
  674TIP3    H1 1965   2.842   2.986   5.250
  674TIP3    H2 1966   2.916   2.915   5.362
  675TIP3   OH2 1967   5.766   2.599   2.693
  675TIP3    H1 1968   5.693   2.630   2.640
  675TIP3    H2 1969   5.791   2.515   2.653
  676TIP3   OH2 1970   2.128   7.626   4.291
  676TIP3    H1 1971   2.045   7.635   4.338
  676TIP3    H2 1972   2.157   7.715   4.275
  677TIP3   OH2 1973   5.795   5.271   6.285
  677TIP3    H1 1974   5.745   5.331   6.341
  677TIP3    H2 1975   5.837   5.211   6.347
  678TIP3   OH2 1976   5.652   6.235   0.029
  678TIP3    H1 1977   5.582   6.271   0.082
  678TIP3    H2 1978   5.634   6.268  -0.060
  679TIP3   OH2 1979   1.957   2.012   3.187
  679TIP3    H1 1980   1.956   1.919   3.164
  679TIP3    H2 1981   2.027   2.021   3.251
  680TIP3   OH2 1982   0.117   4.478   3.644
  680TIP3    H1 1983   0.103   4.489   3.738
  680TIP3    H2 1984   0.109   4.384   3.630
  681TIP3   OH2 1985   2.860   3.096   4.911
  681TIP3    H1 1986   2.795   3.165   4.925
  681TIP3    H2 1987   2.820   3.017   4.948
  682TIP3   OH2 1988   0.330   3.499   1.058
  682TIP3    H1 1989   0.285   3.451   1.127
  682TIP3    H2 1990   0.263   3.514   0.992
  683TIP3   OH2 1991   6.780   1.294   3.418
  683TIP3    H1 1992   6.743   1.234   3.353
  683TIP3    H2 1993   6.797   1.374   3.369
  684TIP3   OH2 1994   2.836   6.537   4.551
  684TIP3    H1 1995   2.774   6.550   4.480
  684TIP3    H2 1996   2.821   6.447   4.580
  685TIP3   OH2 1997   3.233   2.658   5.571
  685TIP3    H1 1998   3.281   2.629   5.493
  685TIP3    H2 1999   3.170   2.587   5.587
  686TIP3   OH2 2000   2.679   4.576   6.160
  686TIP3    H1 2001   2.598   4.607   6.201
  686TIP3    H2 2002   2.656   4.492   6.120
  687TIP3   OH2 2003   4.689   3.804   0.176
  687TIP3    H1 2004   4.684   3.716   0.212
  687TIP3    H2 2005   4.707   3.860   0.252
  688TIP3   OH2 2006   5.233   3.783   3.878
  688TIP3    H1 2007   5.176   3.833   3.937
  688TIP3    H2 2008   5.202   3.807   3.790
  689TIP3   OH2 2009   7.594   5.161   0.795
  689TIP3    H1 2010   7.585   5.119   0.881
  689TIP3    H2 2011   7.531   5.115   0.739
  690TIP3   OH2 2012   1.125   5.522   4.275
  690TIP3    H1 2013   1.125   5.609   4.235
  690TIP3    H2 2014   1.080   5.466   4.212
  691TIP3   OH2 2015   3.982   5.505   2.586
  691TIP3    H1 2016   3.958   5.567   2.656
  691TIP3    H2 2017   3.993   5.560   2.509
  692TIP3   OH2 2018   0.778   3.273   5.777
  692TIP3    H1 2019   0.746   3.362   5.793
  692TIP3    H2 2020   0.714   3.216   5.820
  693TIP3   OH2 2021   5.732   0.787   1.808
  693TIP3    H1 2022   5.815   0.818   1.772
  693TIP3    H2 2023   5.673   0.783   1.733
  694TIP3   OH2 2024   3.967   2.344   1.893
  694TIP3    H1 2025   4.052   2.386   1.902
  694TIP3    H2 2026   3.910   2.413   1.859
  695TIP3   OH2 2027   7.613   1.421   3.903
  695TIP3    H1 2028   7.551   1.396   3.971
  695TIP3    H2 2029   7.680   1.352   3.905
  696TIP3   OH2 2030   5.670   5.874   6.091
  696TIP3    H1 2031   5.582   5.837   6.094
  696TIP3    H2 2032   5.662   5.958   6.137
  697TIP3   OH2 2033   7.327   6.518   6.668
  697TIP3    H1 2034   7.394   6.523   6.599
  697TIP3    H2 2035   7.255   6.470   6.627
  698TIP3   OH2 2036   0.211   0.993   4.500
  698TIP3    H1 2037   0.303   1.021   4.501
  698TIP3    H2 2038   0.165   1.060   4.550
  699TIP3   OH2 2039   6.102   0.956   0.448
  699TIP3    H1 2040   6.044   0.954   0.524
  699TIP3    H2 2041   6.180   1.003   0.479
  700TIP3   OH2 2042   6.871   5.007   6.064
  700TIP3    H1 2043   6.859   5.086   6.117
  700TIP3    H2 2044   6.820   5.024   5.984
  701TIP3   OH2 2045   1.557   4.542   1.857
  701TIP3    H1 2046   1.612   4.534   1.935
  701TIP3    H2 2047   1.503   4.619   1.874
  702TIP3   OH2 2048   4.072   5.255   3.705
  702TIP3    H1 2049   4.026   5.327   3.662
  702TIP3    H2 2050   4.069   5.184   3.641
  703TIP3   OH2 2051   1.627   2.953   2.478
  703TIP3    H1 2052   1.545   2.922   2.518
  703TIP3    H2 2053   1.682   2.875   2.474
  704TIP3   OH2 2054   0.623   1.246   1.908
  704TIP3    H1 2055   0.678   1.190   1.962
  704TIP3    H2 2056   0.542   1.196   1.898
  705TIP3   OH2 2057   1.107   0.876   3.228
  705TIP3    H1 2058   1.194   0.843   3.250
  705TIP3    H2 2059   1.048   0.802   3.246
  706TIP3   OH2 2060   7.284   5.940   0.517
  706TIP3    H1 2061   7.343   5.871   0.545
  706TIP3    H2 2062   7.204   5.895   0.491
  707TIP3   OH2 2063   0.735   6.901   2.755
  707TIP3    H1 2064   0.804   6.836   2.770
  707TIP3    H2 2065   0.712   6.932   2.842
  708TIP3   OH2 2066   1.738   6.322   2.681
  708TIP3    H1 2067   1.819   6.285   2.713
  708TIP3    H2 2068   1.673   6.253   2.694
  709TIP3   OH2 2069   2.000   0.648   2.644
  709TIP3    H1 2070   1.906   0.660   2.634
  709TIP3    H2 2071   2.020   0.569   2.593
  710TIP3   OH2 2072   2.393   3.211   2.387
  710TIP3    H1 2073   2.383   3.305   2.401
  710TIP3    H2 2074   2.400   3.201   2.292
  711TIP3   OH2 2075   3.051   2.365   3.492
  711TIP3    H1 2076   2.965   2.403   3.509
  711TIP3    H2 2077   3.085   2.343   3.579
  712TIP3   OH2 2078   4.276   7.688   3.281
  712TIP3    H1 2079   4.354   7.713   3.233
  712TIP3    H2 2080   4.272   7.592   3.273
  713TIP3   OH2 2081   6.583   6.696   1.707
  713TIP3    H1 2082   6.643   6.740   1.647
  713TIP3    H2 2083   6.497   6.734   1.687
  714TIP3   OH2 2084   3.551   2.893   5.751
  714TIP3    H1 2085   3.603   2.898   5.831
  714TIP3    H2 2086   3.563   2.977   5.708
  715TIP3   OH2 2087   5.849   7.167   1.256
  715TIP3    H1 2088   5.828   7.189   1.165
  715TIP3    H2 2089   5.934   7.207   1.271
  716TIP3   OH2 2090   5.367   4.938   6.566
  716TIP3    H1 2091   5.315   4.858   6.565
  716TIP3    H2 2092   5.457   4.908   6.558
  717TIP3   OH2 2093   0.559   2.520   2.898
  717TIP3    H1 2094   0.604   2.436   2.910
  717TIP3    H2 2095   0.629   2.583   2.879
  718TIP3   OH2 2096   2.493   0.587   6.320
  718TIP3    H1 2097   2.434   0.657   6.350
  718TIP3    H2 2098   2.566   0.589   6.381
  719TIP3   OH2 2099   5.756   3.661   5.844
  719TIP3    H1 2100   5.802   3.734   5.802
  719TIP3    H2 2101   5.692   3.703   5.901
  720TIP3   OH2 2102   3.891   0.864   2.198
  720TIP3    H1 2103   3.799   0.857   2.223
  720TIP3    H2 2104   3.913   0.957   2.211
  721TIP3   OH2 2105   5.421   6.737   4.161
  721TIP3    H1 2106   5.472   6.747   4.241
  721TIP3    H2 2107   5.337   6.700   4.191
  722TIP3   OH2 2108   5.887   3.205   0.362
  722TIP3    H1 2109   5.965   3.255   0.385
  722TIP3    H2 2110   5.917   3.145   0.293
  723TIP3   OH2 2111   7.534   4.504   4.291
  723TIP3    H1 2112   7.628   4.497   4.277
  723TIP3    H2 2113   7.496   4.496   4.203
  724TIP3   OH2 2114   7.877   5.492   5.317
  724TIP3    H1 2115   7.814   5.437   5.270
  724TIP3    H2 2116   7.931   5.429   5.365
  725TIP3   OH2 2117   7.234   4.043   5.249
  725TIP3    H1 2118   7.292   3.977   5.210
  725TIP3    H2 2119   7.152   3.995   5.265
  726TIP3   OH2 2120   3.031   0.386   3.560
  726TIP3    H1 2121   3.036   0.406   3.466
  726TIP3    H2 2122   3.038   0.290   3.564
  727TIP3   OH2 2123   0.023   4.782   6.766
  727TIP3    H1 2124   0.052   4.746   6.683
  727TIP3    H2 2125   0.058   4.722   6.832
  728TIP3   OH2 2126   3.634   3.165   5.899
  728TIP3    H1 2127   3.723   3.202   5.905
  728TIP3    H2 2128   3.618   3.128   5.986
  729TIP3   OH2 2129   2.715   2.716   3.603
  729TIP3    H1 2130   2.764   2.798   3.606
  729TIP3    H2 2131   2.632   2.736   3.645
  730TIP3   OH2 2132   6.798   7.348   2.397
  730TIP3    H1 2133   6.764   7.326   2.310
  730TIP3    H2 2134   6.850   7.272   2.423
  731TIP3   OH2 2135   6.945   0.800   5.251
  731TIP3    H1 2136   7.004   0.727   5.267
  731TIP3    H2 2137   6.907   0.819   5.337
  732TIP3   OH2 2138   2.472   3.242   1.793
  732TIP3    H1 2139   2.389   3.269   1.833
  732TIP3    H2 2140   2.458   3.255   1.699
  733TIP3   OH2 2141   6.628   0.764   4.434
  733TIP3    H1 2142   6.645   0.841   4.381
  733TIP3    H2 2143   6.533   0.752   4.430
  734TIP3   OH2 2144   6.751   5.427   2.187
  734TIP3    H1 2145   6.740   5.518   2.160
  734TIP3    H2 2146   6.668   5.404   2.228
  735TIP3   OH2 2147   1.244   2.740   2.973
  735TIP3    H1 2148   1.206   2.706   2.892
  735TIP3    H2 2149   1.295   2.816   2.945
  736TIP3   OH2 2150   7.154   6.750   2.736
  736TIP3    H1 2151   7.217   6.810   2.697
  736TIP3    H2 2152   7.163   6.669   2.685
  737TIP3   OH2 2153   8.164   5.380   6.027
  737TIP3    H1 2154   8.191   5.447   6.090
  737TIP3    H2 2155   8.209   5.301   6.057
  738TIP3   OH2 2156   1.935   2.614   1.268
  738TIP3    H1 2157   1.960   2.659   1.349
  738TIP3    H2 2158   2.017   2.608   1.218
  739TIP3   OH2 2159   2.517   0.651   0.222
  739TIP3    H1 2160   2.580   0.596   0.269
  739TIP3    H2 2161   2.445   0.591   0.201
  740TIP3   OH2 2162   3.876   5.985   4.899
  740TIP3    H1 2163   3.969   5.994   4.879
  740TIP3    H2 2164   3.863   5.891   4.914
  741TIP3   OH2 2165   4.911   3.164   2.057
  741TIP3    H1 2166   4.935   3.073   2.076
  741TIP3    H2 2167   4.968   3.216   2.114
  742TIP3   OH2 2168   4.522   4.144   1.244
  742TIP3    H1 2169   4.486   4.228   1.271
  742TIP3    H2 2170   4.559   4.160   1.157
  743TIP3   OH2 2171   3.365   1.411   2.890
  743TIP3    H1 2172   3.348   1.497   2.851
  743TIP3    H2 2173   3.443   1.424   2.944
  744TIP3   OH2 2174   2.484   7.191   1.568
  744TIP3    H1 2175   2.526   7.248   1.632
  744TIP3    H2 2176   2.449   7.118   1.619
  745TIP3   OH2 2177   5.964   6.249   4.179
  745TIP3    H1 2178   5.971   6.340   4.209
  745TIP3    H2 2179   6.042   6.235   4.126
  746TIP3   OH2 2180   5.297   4.010   5.128
  746TIP3    H1 2181   5.348   3.957   5.066
  746TIP3    H2 2182   5.284   4.093   5.083
  747TIP3   OH2 2183   3.790   7.488   0.820
  747TIP3    H1 2184   3.819   7.462   0.908
  747TIP3    H2 2185   3.768   7.581   0.829
  748TIP3   OH2 2186   2.646   3.802   1.236
  748TIP3    H1 2187   2.581   3.871   1.219
  748TIP3    H2 2188   2.709   3.811   1.165
  749TIP3   OH2 2189   4.156   4.248   2.823
  749TIP3    H1 2190   4.222   4.313   2.849
  749TIP3    H2 2191   4.113   4.224   2.905
  750TIP3   OH2 2192   5.611   5.703   6.503
  750TIP3    H1 2193   5.667   5.725   6.428
  750TIP3    H2 2194   5.572   5.786   6.529
  751TIP3   OH2 2195   5.184   2.620   2.200
  751TIP3    H1 2196   5.194   2.703   2.246
  751TIP3    H2 2197   5.254   2.620   2.134
  752TIP3   OH2 2198   3.582   0.544   3.338
  752TIP3    H1 2199   3.593   0.535   3.432
  752TIP3    H2 2200   3.562   0.455   3.307
  753TIP3   OH2 2201   3.282   2.091   4.050
  753TIP3    H1 2202   3.302   2.166   4.106
  753TIP3    H2 2203   3.314   2.117   3.963
  754TIP3   OH2 2204   2.472   1.700   2.436
  754TIP3    H1 2205   2.400   1.692   2.374
  754TIP3    H2 2206   2.432   1.738   2.514
  755TIP3   OH2 2207   3.468   1.808   1.021
  755TIP3    H1 2208   3.559   1.821   1.046
  755TIP3    H2 2209   3.447   1.719   1.049
  756TIP3   OH2 2210   4.189   5.902   0.383
  756TIP3    H1 2211   4.283   5.917   0.384
  756TIP3    H2 2212   4.151   5.988   0.401
  757TIP3   OH2 2213   4.926   6.835   0.342
  757TIP3    H1 2214   4.886   6.885   0.270
  757TIP3    H2 2215   4.855   6.780   0.375
  758TIP3   OH2 2216   3.509   7.481   2.703
  758TIP3    H1 2217   3.500   7.474   2.798
  758TIP3    H2 2218   3.602   7.497   2.688
  759TIP3   OH2 2219   3.772   4.544   5.307
  759TIP3    H1 2220   3.856   4.545   5.353
  759TIP3    H2 2221   3.787   4.596   5.228
  760TIP3   OH2 2222   1.059   4.322   1.232
  760TIP3    H1 2223   0.980   4.274   1.258
  760TIP3    H2 2224   1.094   4.271   1.158
  761TIP3   OH2 2225   6.498   0.116   1.657
  761TIP3    H1 2226   6.465   0.162   1.734
  761TIP3    H2 2227   6.440   0.040   1.648
  762TIP3   OH2 2228   8.188   1.787   0.590
  762TIP3    H1 2229   8.219   1.706   0.551
  762TIP3    H2 2230   8.226   1.787   0.678
  763TIP3   OH2 2231   0.595   0.784   1.140
  763TIP3    H1 2232   0.687   0.775   1.116
  763TIP3    H2 2233   0.568   0.696   1.166
  764TIP3   OH2 2234   3.043   7.553   5.046
  764TIP3    H1 2235   3.121   7.575   5.097
  764TIP3    H2 2236   3.074   7.492   4.979
  765TIP3   OH2 2237   8.110   1.625   0.147
  765TIP3    H1 2238   8.177   1.607   0.082
  765TIP3    H2 2239   8.103   1.721   0.149
  766TIP3   OH2 2240   2.902   2.680   2.113
  766TIP3    H1 2241   2.808   2.667   2.128
  766TIP3    H2 2242   2.908   2.765   2.070
  767TIP3   OH2 2243   6.907   3.538   5.822
  767TIP3    H1 2244   6.922   3.608   5.758
  767TIP3    H2 2245   6.941   3.460   5.780
  768TIP3   OH2 2246   0.092   5.440   0.015
  768TIP3    H1 2247   0.157   5.467   0.080
  768TIP3    H2 2248   0.025   5.508   0.019
  769TIP3   OH2 2249   7.647   4.839   2.141
  769TIP3    H1 2250   7.618   4.917   2.094
  769TIP3    H2 2251   7.667   4.870   2.229
  770TIP3   OH2 2252   6.294   0.116   2.719
  770TIP3    H1 2253   6.306   0.065   2.639
  770TIP3    H2 2254   6.322   0.059   2.789
  771TIP3   OH2 2255   5.734   6.714   3.284
  771TIP3    H1 2256   5.638   6.712   3.294
  771TIP3    H2 2257   5.766   6.753   3.364
  772TIP3   OH2 2258   3.043   2.456   5.493
  772TIP3    H1 2259   2.981   2.504   5.548
  772TIP3    H2 2260   3.001   2.372   5.477
  773TIP3   OH2 2261   7.100   6.416   6.583
  773TIP3    H1 2262   7.082   6.443   6.493
  773TIP3    H2 2263   7.053   6.333   6.593
  774TIP3   OH2 2264   0.569   6.706   3.824
  774TIP3    H1 2265   0.485   6.680   3.863
  774TIP3    H2 2266   0.548   6.784   3.772
  775TIP3   OH2 2267   5.842   3.787   2.431
  775TIP3    H1 2268   5.836   3.742   2.347
  775TIP3    H2 2269   5.811   3.876   2.413
  776TIP3   OH2 2270   1.911   5.096   5.756
  776TIP3    H1 2271   1.936   5.047   5.678
  776TIP3    H2 2272   1.967   5.174   5.753
  777TIP3   OH2 2273   5.013   7.012   5.721
  777TIP3    H1 2274   4.929   7.057   5.708
  777TIP3    H2 2275   5.035   7.027   5.812
  778TIP3   OH2 2276   5.485   5.763   4.957
  778TIP3    H1 2277   5.529   5.784   5.040
  778TIP3    H2 2278   5.503   5.670   4.943
  779TIP3   OH2 2279   0.970   7.333   5.943
  779TIP3    H1 2280   1.055   7.296   5.918
  779TIP3    H2 2281   0.991   7.399   6.009
  780TIP3   OH2 2282   6.731   5.967   5.765
  780TIP3    H1 2283   6.791   5.893   5.769
  780TIP3    H2 2284   6.786   6.043   5.784
  781TIP3   OH2 2285   4.164   6.897   0.082
  781TIP3    H1 2286   4.236   6.919   0.142
  781TIP3    H2 2287   4.157   6.802   0.086
  782TIP3   OH2 2288   7.719   1.677   4.028
  782TIP3    H1 2289   7.675   1.594   4.010
  782TIP3    H2 2290   7.676   1.740   3.969
  783TIP3   OH2 2291   0.527   3.244   3.160
  783TIP3    H1 2292   0.501   3.182   3.229
  783TIP3    H2 2293   0.523   3.192   3.080
  784TIP3   OH2 2294   4.961   6.931   0.823
  784TIP3    H1 2295   4.995   6.923   0.912
  784TIP3    H2 2296   5.024   6.884   0.769
  785TIP3   OH2 2297   1.919   6.578   0.530
  785TIP3    H1 2298   1.853   6.619   0.587
  785TIP3    H2 2299   1.883   6.491   0.511
  786TIP3   OH2 2300   0.930   1.591   0.049
  786TIP3    H1 2301   0.849   1.605   0.098
  786TIP3    H2 2302   0.958   1.678   0.022
  787TIP3   OH2 2303   0.138   1.670   4.622
  787TIP3    H1 2304   0.223   1.634   4.595
  787TIP3    H2 2305   0.116   1.734   4.554
  788TIP3   OH2 2306   0.593   0.741   1.694
  788TIP3    H1 2307   0.545   0.761   1.775
  788TIP3    H2 2308   0.626   0.825   1.664
  789TIP3   OH2 2309   4.722   0.461   6.682
  789TIP3    H1 2310   4.719   0.366   6.692
  789TIP3    H2 2311   4.793   0.489   6.740
  790TIP3   OH2 2312   2.538   6.753   3.535
  790TIP3    H1 2313   2.496   6.784   3.454
  790TIP3    H2 2314   2.529   6.658   3.532
  791TIP3   OH2 2315   3.225   5.258   0.032
  791TIP3    H1 2316   3.311   5.290   0.005
  791TIP3    H2 2317   3.223   5.270   0.126
  792TIP3   OH2 2318   8.270   5.648   2.738
  792TIP3    H1 2319   8.247   5.637   2.831
  792TIP3    H2 2320   8.197   5.696   2.701
  793TIP3   OH2 2321   0.417   6.758   1.447
  793TIP3    H1 2322   0.346   6.818   1.426
  793TIP3    H2 2323   0.411   6.689   1.381
  794TIP3   OH2 2324   6.290   0.274   4.948
  794TIP3    H1 2325   6.372   0.324   4.948
  794TIP3    H2 2326   6.223   0.338   4.973
  795TIP3   OH2 2327   2.430   0.608   3.409
  795TIP3    H1 2328   2.400   0.525   3.445
  795TIP3    H2 2329   2.517   0.588   3.373
  796TIP3   OH2 2330   1.318   5.206   2.595
  796TIP3    H1 2331   1.286   5.153   2.522
  796TIP3    H2 2332   1.395   5.160   2.627
  797TIP3   OH2 2333   1.992   1.682   5.592
  797TIP3    H1 2334   2.049   1.630   5.648
  797TIP3    H2 2335   2.051   1.745   5.550
  798TIP3   OH2 2336   3.250   7.697   0.210
  798TIP3    H1 2337   3.300   7.640   0.268
  798TIP3    H2 2338   3.255   7.783   0.250
  799TIP3   OH2 2339   0.054   3.239   5.485
  799TIP3    H1 2340   0.012   3.154   5.475
  799TIP3    H2 2341   0.044   3.282   5.400
  800TIP3   OH2 2342   3.005   4.451   6.152
  800TIP3    H1 2343   3.076   4.491   6.102
  800TIP3    H2 2344   2.949   4.524   6.178
  801TIP3   OH2 2345   7.477   5.825   3.243
  801TIP3    H1 2346   7.430   5.867   3.316
  801TIP3    H2 2347   7.410   5.772   3.199
  802TIP3   OH2 2348   7.359   5.751   5.351
  802TIP3    H1 2349   7.277   5.718   5.315
  802TIP3    H2 2350   7.420   5.748   5.277
  803TIP3   OH2 2351   6.545   1.066   6.433
  803TIP3    H1 2352   6.487   0.995   6.458
  803TIP3    H2 2353   6.487   1.135   6.400
  804TIP3   OH2 2354   2.568   5.225   0.785
  804TIP3    H1 2355   2.585   5.275   0.865
  804TIP3    H2 2356   2.609   5.277   0.715
  805TIP3   OH2 2357   1.125   6.596   4.038
  805TIP3    H1 2358   1.179   6.532   4.084
  805TIP3    H2 2359   1.160   6.597   3.949
  806TIP3   OH2 2360   7.919   2.520   1.439
  806TIP3    H1 2361   7.885   2.609   1.427
  806TIP3    H2 2362   7.999   2.518   1.385
  807TIP3   OH2 2363   1.999   0.507   3.496
  807TIP3    H1 2364   2.048   0.424   3.495
  807TIP3    H2 2365   2.016   0.545   3.410
  808TIP3   OH2 2366   6.294   0.735   1.070
  808TIP3    H1 2367   6.300   0.685   0.989
  808TIP3    H2 2368   6.380   0.727   1.110
  809TIP3   OH2 2369   6.869   4.004   0.471
  809TIP3    H1 2370   6.896   4.079   0.523
  809TIP3    H2 2371   6.781   4.025   0.441
  810TIP3   OH2 2372   1.641   7.636   6.024
  810TIP3    H1 2373   1.652   7.590   6.107
  810TIP3    H2 2374   1.717   7.610   5.972
  811TIP3   OH2 2375   0.810   0.999   2.562
  811TIP3    H1 2376   0.755   0.932   2.522
  811TIP3    H2 2377   0.750   1.053   2.613
  812TIP3   OH2 2378   5.956   1.366   4.078
  812TIP3    H1 2379   5.915   1.416   4.007
  812TIP3    H2 2380   5.886   1.350   4.140
  813TIP3   OH2 2381   2.739   2.860   5.035
  813TIP3    H1 2382   2.709   2.886   5.123
  813TIP3    H2 2383   2.819   2.810   5.051
  814TIP3   OH2 2384   0.979   7.043   5.624
  814TIP3    H1 2385   0.902   7.027   5.569
  814TIP3    H2 2386   0.983   6.968   5.683
  815TIP3   OH2 2387   5.146   5.255   3.776
  815TIP3    H1 2388   5.057   5.288   3.788
  815TIP3    H2 2389   5.135   5.175   3.725
  816TIP3   OH2 2390   5.437   2.138   1.711
  816TIP3    H1 2391   5.467   2.054   1.676
  816TIP3    H2 2392   5.467   2.203   1.647
  817TIP3   OH2 2393   2.781   2.047   6.723
  817TIP3    H1 2394   2.826   2.132   6.723
  817TIP3    H2 2395   2.847   1.986   6.755
  818TIP3   OH2 2396   6.847   4.855   1.678
  818TIP3    H1 2397   6.845   4.921   1.609
  818TIP3    H2 2398   6.879   4.901   1.756
  819TIP3   OH2 2399   3.108   5.547   4.010
  819TIP3    H1 2400   3.163   5.598   3.951
  819TIP3    H2 2401   3.127   5.581   4.097
  820TIP3   OH2 2402   7.267   3.952   2.765
  820TIP3    H1 2403   7.278   4.045   2.788
  820TIP3    H2 2404   7.270   3.951   2.669
  821TIP3   OH2 2405   7.517   4.274   2.888
  821TIP3    H1 2406   7.578   4.312   2.952
  821TIP3    H2 2407   7.531   4.180   2.895
  822TIP3   OH2 2408   6.562   3.737   0.114
  822TIP3    H1 2409   6.511   3.803   0.160
  822TIP3    H2 2410   6.619   3.699   0.181
  823TIP3   OH2 2411   7.521   2.867   2.288
  823TIP3    H1 2412   7.453   2.910   2.236
  823TIP3    H2 2413   7.546   2.791   2.236
  824TIP3   OH2 2414   3.100   5.485   3.043
  824TIP3    H1 2415   3.039   5.560   3.046
  824TIP3    H2 2416   3.043   5.409   3.032
  825TIP3   OH2 2417   1.117   7.243   0.033
  825TIP3    H1 2418   1.051   7.295   0.078
  825TIP3    H2 2419   1.072   7.161   0.011
  826TIP3   OH2 2420   2.930   0.199   0.544
  826TIP3    H1 2421   2.962   0.250   0.470
  826TIP3    H2 2422   2.867   0.256   0.588
  827TIP3   OH2 2423   7.196   0.165   5.120
  827TIP3    H1 2424   7.284   0.187   5.150
  827TIP3    H2 2425   7.142   0.169   5.199
  828TIP3   OH2 2426   1.367   0.711   3.309
  828TIP3    H1 2427   1.412   0.762   3.377
  828TIP3    H2 2428   1.426   0.715   3.234
  829TIP3   OH2 2429   1.427   4.674   0.086
  829TIP3    H1 2430   1.511   4.680   0.131
  829TIP3    H2 2431   1.447   4.700  -0.004
  830TIP3   OH2 2432   3.165   7.779   4.220
  830TIP3    H1 2433   3.075   7.783   4.187
  830TIP3    H2 2434   3.176   7.860   4.270
  831TIP3   OH2 2435   6.213   4.171   5.846
  831TIP3    H1 2436   6.226   4.196   5.755
  831TIP3    H2 2437   6.223   4.253   5.895
  832TIP3   OH2 2438   5.058   4.508   4.726
  832TIP3    H1 2439   5.077   4.470   4.640
  832TIP3    H2 2440   5.138   4.555   4.749
  833TIP3   OH2 2441   6.121   2.085   2.356
  833TIP3    H1 2442   6.189   2.124   2.411
  833TIP3    H2 2443   6.096   2.154   2.295
  834TIP3   OH2 2444   7.889   2.805   4.256
  834TIP3    H1 2445   7.827   2.822   4.184
  834TIP3    H2 2446   7.861   2.720   4.291
  835TIP3   OH2 2447   5.062   4.066   1.112
  835TIP3    H1 2448   4.987   4.006   1.111
  835TIP3    H2 2449   5.100   4.055   1.199
  836TIP3   OH2 2450   6.390   7.014   0.639
  836TIP3    H1 2451   6.455   7.031   0.571
  836TIP3    H2 2452   6.399   7.087   0.700
  837TIP3   OH2 2453   7.427   3.781   3.130
  837TIP3    H1 2454   7.508   3.785   3.080
  837TIP3    H2 2455   7.358   3.802   3.066
  838TIP3   OH2 2456   1.073   1.978   0.759
  838TIP3    H1 2457   1.157   1.937   0.781
  838TIP3    H2 2458   1.097   2.064   0.725
  839TIP3   OH2 2459   5.216   6.652   3.008
  839TIP3    H1 2460   5.246   6.600   3.083
  839TIP3    H2 2461   5.295   6.694   2.975
  840TIP3   OH2 2462   7.951   1.832   3.102
  840TIP3    H1 2463   7.889   1.783   3.158
  840TIP3    H2 2464   7.904   1.843   3.019
  841TIP3   OH2 2465   5.533   6.371   5.068
  841TIP3    H1 2466   5.585   6.292   5.077
  841TIP3    H2 2467   5.449   6.349   5.109
  842TIP3   OH2 2468   2.211   6.518   6.153
  842TIP3    H1 2469   2.161   6.584   6.104
  842TIP3    H2 2470   2.146   6.452   6.178
  843TIP3   OH2 2471   6.214   4.493   4.530
  843TIP3    H1 2472   6.124   4.463   4.518
  843TIP3    H2 2473   6.219   4.516   4.623
  844TIP3   OH2 2474   6.436   3.083   0.945
  844TIP3    H1 2475   6.362   3.132   0.909
  844TIP3    H2 2476   6.498   3.076   0.872
  845TIP3   OH2 2477   2.548   4.304   4.309
  845TIP3    H1 2478   2.606   4.365   4.263
  845TIP3    H2 2479   2.604   4.228   4.328
  846TIP3   OH2 2480   2.956   7.313   1.299
  846TIP3    H1 2481   2.917   7.297   1.385
  846TIP3    H2 2482   2.880   7.327   1.241
  847TIP3   OH2 2483   4.568   2.438   2.566
  847TIP3    H1 2484   4.596   2.429   2.657
  847TIP3    H2 2485   4.472   2.435   2.570
  848TIP3   OH2 2486   6.807   0.964   4.822
  848TIP3    H1 2487   6.712   0.973   4.826
  848TIP3    H2 2488   6.828   0.906   4.896
  849TIP3   OH2 2489   7.526   7.687   2.329
  849TIP3    H1 2490   7.594   7.643   2.277
  849TIP3    H2 2491   7.499   7.761   2.275
  850TIP3   OH2 2492   1.973   1.065   3.018
  850TIP3    H1 2493   2.022   1.073   2.937
  850TIP3    H2 2494   2.021   0.998   3.068
  851TIP3   OH2 2495   5.386   2.682   5.294
  851TIP3    H1 2496   5.392   2.760   5.349
  851TIP3    H2 2497   5.446   2.619   5.334
  852TIP3   OH2 2498   0.994   3.624   4.977
  852TIP3    H1 2499   1.056   3.560   4.941
  852TIP3    H2 2500   0.960   3.670   4.900
  853TIP3   OH2 2501   5.201   5.649   2.056
  853TIP3    H1 2502   5.216   5.742   2.041
  853TIP3    H2 2503   5.207   5.609   1.970
  854TIP3   OH2 2504   4.612   0.704   2.762
  854TIP3    H1 2505   4.619   0.736   2.672
  854TIP3    H2 2506   4.632   0.780   2.816
  855TIP3   OH2 2507   6.735   4.181   2.899
  855TIP3    H1 2508   6.794   4.152   2.830
  855TIP3    H2 2509   6.696   4.100   2.933
  856TIP3   OH2 2510   8.128   4.207   1.049
  856TIP3    H1 2511   8.119   4.290   1.097
  856TIP3    H2 2512   8.042   4.167   1.056
  857TIP3   OH2 2513   7.193   2.914   3.391
  857TIP3    H1 2514   7.247   2.980   3.435
  857TIP3    H2 2515   7.120   2.900   3.450
  858TIP3   OH2 2516   0.403   1.466   2.840
  858TIP3    H1 2517   0.329   1.458   2.780
  858TIP3    H2 2518   0.420   1.376   2.869
  859TIP3   OH2 2519   6.430   7.089   4.852
  859TIP3    H1 2520   6.339   7.064   4.837
  859TIP3    H2 2521   6.441   7.170   4.803
  860TIP3   OH2 2522   4.986   1.236   3.211
  860TIP3    H1 2523   4.905   1.198   3.178
  860TIP3    H2 2524   4.964   1.327   3.230
  861TIP3   OH2 2525   7.026   6.877   4.791
  861TIP3    H1 2526   6.982   6.953   4.830
  861TIP3    H2 2527   7.086   6.915   4.726
  862TIP3   OH2 2528   5.438   0.167   1.411
  862TIP3    H1 2529   5.418   0.122   1.328
  862TIP3    H2 2530   5.354   0.169   1.458
  863TIP3   OH2 2531   0.820   0.994   1.356
  863TIP3    H1 2532   0.873   0.917   1.334
  863TIP3    H2 2533   0.883   1.063   1.372
  864TIP3   OH2 2534   1.168   3.506   1.550
  864TIP3    H1 2535   1.132   3.555   1.475
  864TIP3    H2 2536   1.136   3.554   1.627
  865TIP3   OH2 2537   3.736   6.997   0.681
  865TIP3    H1 2538   3.719   6.905   0.659
  865TIP3    H2 2539   3.753   7.038   0.596
  866TIP3   OH2 2540   2.142   2.662   6.375
  866TIP3    H1 2541   2.122   2.683   6.284
  866TIP3    H2 2542   2.114   2.571   6.385
  867TIP3   OH2 2543   1.686   3.231   1.385
  867TIP3    H1 2544   1.617   3.283   1.427
  867TIP3    H2 2545   1.765   3.249   1.437
  868TIP3   OH2 2546   7.351   0.751   2.156
  868TIP3    H1 2547   7.262   0.720   2.176
  868TIP3    H2 2548   7.351   0.762   2.061
  869TIP3   OH2 2549   3.921   1.277   3.947
  869TIP3    H1 2550   4.015   1.294   3.959
  869TIP3    H2 2551   3.911   1.184   3.968
  870TIP3   OH2 2552   5.914   2.812   1.446
  870TIP3    H1 2553   5.955   2.788   1.363
  870TIP3    H2 2554   5.986   2.820   1.507
  871TIP3   OH2 2555   3.134   5.229   4.894
  871TIP3    H1 2556   3.199   5.299   4.889
  871TIP3    H2 2557   3.171   5.158   4.841
  872TIP3   OH2 2558   2.754   6.881   3.066
  872TIP3    H1 2559   2.793   6.794   3.059
  872TIP3    H2 2560   2.660   6.866   3.053
  873TIP3   OH2 2561   5.244   4.264   0.988
  873TIP3    H1 2562   5.300   4.309   1.051
  873TIP3    H2 2563   5.185   4.211   1.041
  874TIP3   OH2 2564   2.315   4.438   1.939
  874TIP3    H1 2565   2.221   4.454   1.928
  874TIP3    H2 2566   2.357   4.518   1.906
  875TIP3   OH2 2567   1.321   1.968   5.950
  875TIP3    H1 2568   1.261   1.923   5.891
  875TIP3    H2 2569   1.407   1.956   5.909
  876TIP3   OH2 2570   3.497   0.207   6.415
  876TIP3    H1 2571   3.423   0.172   6.465
  876TIP3    H2 2572   3.514   0.293   6.453
  877TIP3   OH2 2573   6.258   4.843   4.736
  877TIP3    H1 2574   6.213   4.763   4.761
  877TIP3    H2 2575   6.292   4.878   4.819
  878TIP3   OH2 2576   7.829   6.396   3.379
  878TIP3    H1 2577   7.773   6.469   3.405
  878TIP3    H2 2578   7.810   6.384   3.286
  879TIP3   OH2 2579   0.638   2.457   2.150
  879TIP3    H1 2580   0.570   2.390   2.145
  879TIP3    H2 2581   0.612   2.522   2.085
  880TIP3   OH2 2582   6.512   5.565   4.866
  880TIP3    H1 2583   6.544   5.599   4.950
  880TIP3    H2 2584   6.555   5.620   4.800
  881TIP3   OH2 2585   3.560   0.279   3.242
  881TIP3    H1 2586   3.534   0.189   3.220
  881TIP3    H2 2587   3.551   0.327   3.159
  882TIP3   OH2 2588   7.363   2.157   4.745
  882TIP3    H1 2589   7.292   2.137   4.685
  882TIP3    H2 2590   7.418   2.220   4.697
  883TIP3   OH2 2591   7.766   0.146   0.543
  883TIP3    H1 2592   7.826   0.118   0.612
  883TIP3    H2 2593   7.821   0.155   0.466
  884TIP3   OH2 2594   0.840   3.234   4.459
  884TIP3    H1 2595   0.809   3.177   4.529
  884TIP3    H2 2596   0.902   3.180   4.410
  885TIP3   OH2 2597   6.639   7.113   2.244
  885TIP3    H1 2598   6.671   7.062   2.169
  885TIP3    H2 2599   6.568   7.166   2.208
  886TIP3   OH2 2600   1.622   7.765   0.633
  886TIP3    H1 2601   1.695   7.705   0.647
  886TIP3    H2 2602   1.663   7.847   0.605
  887TIP3   OH2 2603   2.519   1.402   4.599
  887TIP3    H1 2604   2.553   1.491   4.605
  887TIP3    H2 2605   2.563   1.354   4.669
  888TIP3   OH2 2606   4.735   6.123   1.539
  888TIP3    H1 2607   4.767   6.071   1.465
  888TIP3    H2 2608   4.688   6.060   1.593
  889TIP3   OH2 2609   2.379   6.266   1.703
  889TIP3    H1 2610   2.451   6.227   1.654
  889TIP3    H2 2611   2.303   6.259   1.644
  890TIP3   OH2 2612   1.314   5.026   2.003
  890TIP3    H1 2613   1.340   5.000   2.092
  890TIP3    H2 2614   1.284   5.117   2.013
  891TIP3   OH2 2615   0.597   3.431   3.967
  891TIP3    H1 2616   0.661   3.417   4.036
  891TIP3    H2 2617   0.562   3.343   3.949
  892TIP3   OH2 2618   4.100   3.319   4.704
  892TIP3    H1 2619   4.051   3.375   4.643
  892TIP3    H2 2620   4.059   3.334   4.789
  893TIP3   OH2 2621   6.715   3.494   3.423
  893TIP3    H1 2622   6.796   3.528   3.385
  893TIP3    H2 2623   6.707   3.539   3.507
  894TIP3   OH2 2624   1.485   6.394   3.969
  894TIP3    H1 2625   1.505   6.481   4.003
  894TIP3    H2 2626   1.542   6.335   4.018
  895TIP3   OH2 2627   8.315   6.834   6.101
  895TIP3    H1 2628   8.263   6.901   6.145
  895TIP3    H2 2629   8.253   6.761   6.088
  896TIP3   OH2 2630   0.506   3.309   1.256
  896TIP3    H1 2631   0.419   3.287   1.224
  896TIP3    H2 2632   0.491   3.365   1.332
  897TIP3   OH2 2633   6.502   2.984   5.068
  897TIP3    H1 2634   6.546   3.001   4.985
  897TIP3    H2 2635   6.409   2.993   5.048
  898TIP3   OH2 2636   3.530   5.598   3.266
  898TIP3    H1 2637   3.601   5.575   3.207
  898TIP3    H2 2638   3.462   5.533   3.250
  899TIP3   OH2 2639   3.951   0.923   0.567
  899TIP3    H1 2640   3.857   0.935   0.559
  899TIP3    H2 2641   3.988   0.963   0.488
  900TIP3   OH2 2642   5.998   3.074   1.594
  900TIP3    H1 2643   5.903   3.078   1.586
  900TIP3    H2 2644   6.032   3.111   1.513
  901TIP3   OH2 2645   2.516   7.241   5.058
  901TIP3    H1 2646   2.594   7.296   5.068
  901TIP3    H2 2647   2.443   7.301   5.069
  902TIP3   OH2 2648   6.137   2.745   6.385
  902TIP3    H1 2649   6.169   2.808   6.321
  902TIP3    H2 2650   6.077   2.689   6.336
  903TIP3   OH2 2651   1.055   5.813   2.270
  903TIP3    H1 2652   1.031   5.773   2.354
  903TIP3    H2 2653   1.148   5.793   2.259
  904TIP3   OH2 2654   0.907   7.099   1.547
  904TIP3    H1 2655   0.814   7.079   1.540
  904TIP3    H2 2656   0.910   7.191   1.573
  905TIP3   OH2 2657   3.632   0.822   1.682
  905TIP3    H1 2658   3.615   0.814   1.776
  905TIP3    H2 2659   3.600   0.740   1.644
  906TIP3   OH2 2660   3.344   5.790   1.372
  906TIP3    H1 2661   3.288   5.839   1.432
  906TIP3    H2 2662   3.285   5.757   1.305
  907TIP3   OH2 2663   5.286   5.013   3.338
  907TIP3    H1 2664   5.302   4.924   3.306
  907TIP3    H2 2665   5.373   5.051   3.350
  908TIP3   OH2 2666   2.101   3.130   3.903
  908TIP3    H1 2667   2.192   3.119   3.930
  908TIP3    H2 2668   2.076   3.044   3.869
  909TIP3   OH2 2669   2.126   1.767   1.342
  909TIP3    H1 2670   2.147   1.842   1.286
  909TIP3    H2 2671   2.059   1.719   1.294
  910TIP3   OH2 2672   4.272   1.023   0.610
  910TIP3    H1 2673   4.261   1.103   0.558
  910TIP3    H2 2674   4.302   1.053   0.695
  911TIP3   OH2 2675   6.140   2.358   4.512
  911TIP3    H1 2676   6.138   2.274   4.468
  911TIP3    H2 2677   6.188   2.416   4.452
  912TIP3   OH2 2678   2.755   6.108   2.737
  912TIP3    H1 2679   2.706   6.053   2.676
  912TIP3    H2 2680   2.748   6.196   2.702
  913TIP3   OH2 2681   4.871   5.441   3.153
  913TIP3    H1 2682   4.783   5.462   3.120
  913TIP3    H2 2683   4.877   5.346   3.143
  914TIP3   OH2 2684   5.558   6.657   0.586
  914TIP3    H1 2685   5.605   6.610   0.655
  914TIP3    H2 2686   5.584   6.614   0.505
  915TIP3   OH2 2687   2.361   6.732   6.055
  915TIP3    H1 2688   2.298   6.778   5.998
  915TIP3    H2 2689   2.317   6.729   6.140
  916TIP3   OH2 2690   6.877   1.689   2.325
  916TIP3    H1 2691   6.946   1.697   2.391
  916TIP3    H2 2692   6.799   1.725   2.366
  917TIP3   OH2 2693   5.909   1.548   0.089
  917TIP3    H1 2694   5.933   1.513   0.003
  917TIP3    H2 2695   5.989   1.541   0.141
  918TIP3   OH2 2696   1.137   2.967   2.260
  918TIP3    H1 2697   1.049   2.936   2.237
  918TIP3    H2 2698   1.160   2.917   2.339
  919TIP3   OH2 2699   0.055   5.528   2.387
  919TIP3    H1 2700   0.126   5.592   2.394
  919TIP3    H2 2701   0.078   5.460   2.450
  920TIP3   OH2 2702   4.109   5.876   6.437
  920TIP3    H1 2703   4.033   5.894   6.380
  920TIP3    H2 2704   4.126   5.783   6.425
  921TIP3   OH2 2705   2.587   2.438   0.938
  921TIP3    H1 2706   2.671   2.456   0.897
  921TIP3    H2 2707   2.551   2.364   0.889
  922TIP3   OH2 2708   6.295   2.251   2.795
  922TIP3    H1 2709   6.246   2.229   2.875
  922TIP3    H2 2710   6.382   2.216   2.810
  923TIP3   OH2 2711   0.977   5.927   0.326
  923TIP3    H1 2712   0.965   5.991   0.256
  923TIP3    H2 2713   1.000   5.846   0.281
  924TIP3   OH2 2714   6.711   3.084   2.420
  924TIP3    H1 2715   6.733   3.013   2.360
  924TIP3    H2 2716   6.701   3.161   2.364
  925TIP3   OH2 2717   7.971   3.314   6.193
  925TIP3    H1 2718   7.963   3.397   6.240
  925TIP3    H2 2719   7.894   3.312   6.136
  926TIP3   OH2 2720   4.790   5.484   6.476
  926TIP3    H1 2721   4.864   5.465   6.534
  926TIP3    H2 2722   4.719   5.510   6.536
  927TIP3   OH2 2723   7.612   3.721   5.182
  927TIP3    H1 2724   7.665   3.659   5.131
  927TIP3    H2 2725   7.647   3.715   5.271
  928TIP3   OH2 2726   4.187   7.406   6.295
  928TIP3    H1 2727   4.149   7.486   6.332
  928TIP3    H2 2728   4.222   7.434   6.211
  929TIP3   OH2 2729   3.818   5.343   2.097
  929TIP3    H1 2730   3.904   5.380   2.116
  929TIP3    H2 2731   3.828   5.301   2.012
  930TIP3   OH2 2732   5.782   7.234   0.276
  930TIP3    H1 2733   5.688   7.235   0.298
  930TIP3    H2 2734   5.793   7.303   0.212
  931TIP3   OH2 2735   7.325   2.106   5.598
  931TIP3    H1 2736   7.418   2.084   5.589
  931TIP3    H2 2737   7.285   2.074   5.517
  932TIP3   OH2 2738   5.574   5.501   4.860
  932TIP3    H1 2739   5.597   5.421   4.908
  932TIP3    H2 2740   5.643   5.510   4.795
  933TIP3   OH2 2741   2.223   7.190   6.624
  933TIP3    H1 2742   2.287   7.209   6.693
  933TIP3    H2 2743   2.151   7.251   6.642
  934TIP3   OH2 2744   5.864   5.871   5.601
  934TIP3    H1 2745   5.936   5.933   5.616
  934TIP3    H2 2746   5.810   5.878   5.680
  935TIP3   OH2 2747   1.304   5.370   5.909
  935TIP3    H1 2748   1.269   5.401   5.993
  935TIP3    H2 2749   1.315   5.276   5.920
  936TIP3   OH2 2750   1.149   1.793   5.360
  936TIP3    H1 2751   1.074   1.777   5.417
  936TIP3    H2 2752   1.150   1.717   5.301
  937TIP3   OH2 2753   7.714   5.152   6.190
  937TIP3    H1 2754   7.746   5.062   6.200
  937TIP3    H2 2755   7.783   5.197   6.142
  938TIP3   OH2 2756   7.111   1.851   3.530
  938TIP3    H1 2757   7.174   1.778   3.521
  938TIP3    H2 2758   7.159   1.927   3.498
  939TIP3   OH2 2759   1.217   2.340   5.345
  939TIP3    H1 2760   1.246   2.299   5.263
  939TIP3    H2 2761   1.126   2.311   5.356
  940TIP3   OH2 2762   7.464   6.037   3.940
  940TIP3    H1 2763   7.487   5.993   3.859
  940TIP3    H2 2764   7.428   5.968   3.996
  941TIP3   OH2 2765   2.339   4.538   3.997
  941TIP3    H1 2766   2.318   4.461   4.051
  941TIP3    H2 2767   2.408   4.583   4.046
  942TIP3   OH2 2768   8.229   7.749   2.836
  942TIP3    H1 2769   8.240   7.764   2.930
  942TIP3    H2 2770   8.190   7.661   2.831
  943TIP3   OH2 2771   5.122   2.624   5.166
  943TIP3    H1 2772   5.042   2.670   5.192
  943TIP3    H2 2773   5.144   2.570   5.242
  944TIP3   OH2 2774   7.787   1.251   5.859
  944TIP3    H1 2775   7.821   1.187   5.921
  944TIP3    H2 2776   7.832   1.231   5.777
  945TIP3   OH2 2777   3.075   5.354   4.491
  945TIP3    H1 2778   3.119   5.339   4.574
  945TIP3    H2 2779   3.134   5.318   4.425
  946TIP3   OH2 2780   1.763   3.454   2.516
  946TIP3    H1 2781   1.817   3.380   2.544
  946TIP3    H2 2782   1.825   3.525   2.499
  947TIP3   OH2 2783   1.044   6.282   1.432
  947TIP3    H1 2784   0.958   6.313   1.406
  947TIP3    H2 2785   1.092   6.361   1.457
  948TIP3   OH2 2786   0.526   6.791   0.635
  948TIP3    H1 2787   0.572   6.707   0.642
  948TIP3    H2 2788   0.535   6.831   0.721
  949TIP3   OH2 2789   0.744   5.896   3.647
  949TIP3    H1 2790   0.790   5.908   3.564
  949TIP3    H2 2791   0.727   5.802   3.652
  950TIP3   OH2 2792   1.761   5.081   3.702
  950TIP3    H1 2793   1.724   4.996   3.678
  950TIP3    H2 2794   1.694   5.144   3.676
  951TIP3   OH2 2795   5.408   7.040   1.211
  951TIP3    H1 2796   5.425   7.108   1.276
  951TIP3    H2 2797   5.334   7.072   1.161
  952TIP3   OH2 2798   5.173   2.568   3.986
  952TIP3    H1 2799   5.155   2.498   4.049
  952TIP3    H2 2800   5.111   2.637   4.009
  953TIP3   OH2 2801   2.859   1.463   2.264
  953TIP3    H1 2802   2.824   1.536   2.213
  953TIP3    H2 2803   2.929   1.428   2.210
  954TIP3   OH2 2804   2.639   1.557   4.948
  954TIP3    H1 2805   2.556   1.510   4.957
  954TIP3    H2 2806   2.691   1.528   5.023
  955TIP3   OH2 2807   4.814   0.517   1.530
  955TIP3    H1 2808   4.820   0.433   1.484
  955TIP3    H2 2809   4.861   0.503   1.612
  956TIP3   OH2 2810   1.779   2.639   3.084
  956TIP3    H1 2811   1.761   2.731   3.063
  956TIP3    H2 2812   1.849   2.614   3.025
  957TIP3   OH2 2813   7.512   6.069   5.072
  957TIP3    H1 2814   7.598   6.032   5.090
  957TIP3    H2 2815   7.515   6.158   5.108
  958TIP3   OH2 2816   6.188   2.104   1.442
  958TIP3    H1 2817   6.244   2.107   1.520
  958TIP3    H2 2818   6.104   2.072   1.473
  959TIP3   OH2 2819   4.804   7.591   2.658
  959TIP3    H1 2820   4.795   7.683   2.682
  959TIP3    H2 2821   4.872   7.590   2.591
  960TIP3   OH2 2822   6.835   2.762   6.414
  960TIP3    H1 2823   6.807   2.849   6.443
  960TIP3    H2 2824   6.872   2.722   6.493
  961TIP3   OH2 2825   1.667   6.156   1.672
  961TIP3    H1 2826   1.610   6.227   1.702
  961TIP3    H2 2827   1.607   6.095   1.628
  962TIP3   OH2 2828   7.597   0.896   6.671
  962TIP3    H1 2829   7.560   0.860   6.751
  962TIP3    H2 2830   7.524   0.942   6.629
  963TIP3   OH2 2831   0.151   7.392   3.976
  963TIP3    H1 2832   0.075   7.383   4.033
  963TIP3    H2 2833   0.226   7.395   4.036
  964TIP3   OH2 2834   4.989   7.645   3.471
  964TIP3    H1 2835   5.083   7.644   3.489
  964TIP3    H2 2836   4.947   7.649   3.557
  965TIP3   OH2 2837   2.526   3.634   6.604
  965TIP3    H1 2838   2.574   3.619   6.523
  965TIP3    H2 2839   2.434   3.632   6.577
  966TIP3   OH2 2840   3.674   7.799   3.208
  966TIP3    H1 2841   3.748   7.817   3.266
  966TIP3    H2 2842   3.712   7.749   3.136
  967TIP3   OH2 2843   1.852   7.363   5.617
  967TIP3    H1 2844   1.789   7.427   5.585
  967TIP3    H2 2845   1.828   7.349   5.709
  968TIP3   OH2 2846   2.768   1.536   0.310
  968TIP3    H1 2847   2.727   1.559   0.393
  968TIP3    H2 2848   2.825   1.611   0.290
  969TIP3   OH2 2849   3.412   6.980   5.036
  969TIP3    H1 2850   3.497   6.996   4.995
  969TIP3    H2 2851   3.368   7.065   5.037
  970TIP3   OH2 2852   8.095   4.936   1.887
  970TIP3    H1 2853   8.100   4.975   1.799
  970TIP3    H2 2854   8.016   4.883   1.885
  971TIP3   OH2 2855   2.250   0.437   5.437
  971TIP3    H1 2856   2.193   0.514   5.437
  971TIP3    H2 2857   2.214   0.380   5.369
  972TIP3   OH2 2858   3.792   1.578   5.673
  972TIP3    H1 2859   3.752   1.617   5.595
  972TIP3    H2 2860   3.878   1.548   5.644
  973TIP3   OH2 2861   8.170   5.271   1.787
  973TIP3    H1 2862   8.187   5.352   1.738
  973TIP3    H2 2863   8.257   5.233   1.801
  974TIP3   OH2 2864   1.319   4.768   1.960
  974TIP3    H1 2865   1.327   4.745   2.052
  974TIP3    H2 2866   1.322   4.864   1.959
  975TIP3   OH2 2867   4.580   7.561   5.137
  975TIP3    H1 2868   4.660   7.610   5.118
  975TIP3    H2 2869   4.540   7.545   5.051
  976TIP3   OH2 2870   5.474   5.001   0.841
  976TIP3    H1 2871   5.406   4.941   0.871
  976TIP3    H2 2872   5.517   5.030   0.922
  977TIP3   OH2 2873   6.119   2.889   0.498
  977TIP3    H1 2874   6.164   2.953   0.442
  977TIP3    H2 2875   6.040   2.935   0.528
  978TIP3   OH2 2876   5.493   1.214   2.710
  978TIP3    H1 2877   5.559   1.165   2.660
  978TIP3    H2 2878   5.409   1.183   2.676
  979TIP3   OH2 2879   7.537   3.037   0.352
  979TIP3    H1 2880   7.546   3.048   0.258
  979TIP3    H2 2881   7.442   3.035   0.367
  980TIP3   OH2 2882   7.914   7.411   2.194
  980TIP3    H1 2883   7.971   7.389   2.121
  980TIP3    H2 2884   7.921   7.337   2.254
  981TIP3   OH2 2885   3.934   5.025   5.802
  981TIP3    H1 2886   3.867   5.088   5.777
  981TIP3    H2 2887   3.886   4.954   5.844
  982TIP3   OH2 2888   4.345   3.933   3.224
  982TIP3    H1 2889   4.377   3.843   3.216
  982TIP3    H2 2890   4.251   3.926   3.207
  983TIP3   OH2 2891   6.286   4.588   1.709
  983TIP3    H1 2892   6.323   4.500   1.706
  983TIP3    H2 2893   6.276   4.613   1.617
  984TIP3   OH2 2894   3.272   4.344   0.878
  984TIP3    H1 2895   3.314   4.295   0.949
  984TIP3    H2 2896   3.278   4.435   0.904
  985TIP3   OH2 2897   7.140   3.789   6.686
  985TIP3    H1 2898   7.173   3.709   6.727
  985TIP3    H2 2899   7.167   3.860   6.744
  986TIP3   OH2 2900   3.172   0.704   6.179
  986TIP3    H1 2901   3.155   0.797   6.192
  986TIP3    H2 2902   3.108   0.678   6.112
  987TIP3   OH2 2903   1.014   0.020   1.078
  987TIP3    H1 2904   1.060   0.103   1.089
  987TIP3    H2 2905   1.040  -0.012   0.992
  988TIP3   OH2 2906   4.584   0.528   0.516
  988TIP3    H1 2907   4.521   0.469   0.475
  988TIP3    H2 2908   4.582   0.504   0.609
  989TIP3   OH2 2909   2.657   3.275   4.874
  989TIP3    H1 2910   2.564   3.257   4.861
  989TIP3    H2 2911   2.694   3.275   4.786
  990TIP3   OH2 2912   0.776   3.037   3.225
  990TIP3    H1 2913   0.799   3.119   3.180
  990TIP3    H2 2914   0.726   3.065   3.301
  991TIP3   OH2 2915   5.483   7.158   5.032
  991TIP3    H1 2916   5.402   7.185   4.989
  991TIP3    H2 2917   5.500   7.070   4.997
  992TIP3   OH2 2918   8.308   7.436   5.452
  992TIP3    H1 2919   8.260   7.512   5.483
  992TIP3    H2 2920   8.400   7.461   5.457
  993TIP3   OH2 2921   5.737   3.432   4.424
  993TIP3    H1 2922   5.805   3.376   4.386
  993TIP3    H2 2923   5.722   3.500   4.358
  994TIP3   OH2 2924   7.517   2.123   2.972
  994TIP3    H1 2925   7.494   2.215   2.988
  994TIP3    H2 2926   7.470   2.101   2.892
  995TIP3   OH2 2927   3.589   7.455   4.497
  995TIP3    H1 2928   3.634   7.502   4.427
  995TIP3    H2 2929   3.641   7.473   4.575
  996TIP3   OH2 2930   4.575   1.329   0.051
  996TIP3    H1 2931   4.600   1.243   0.018
  996TIP3    H2 2932   4.616   1.334   0.138
  997TIP3   OH2 2933   0.724   0.886   5.521
  997TIP3    H1 2934   0.791   0.918   5.581
  997TIP3    H2 2935   0.644   0.883   5.573
  998TIP3   OH2 2936   7.296   5.339   3.410
  998TIP3    H1 2937   7.277   5.263   3.466
  998TIP3    H2 2938   7.211   5.369   3.380
  999TIP3   OH2 2939   4.561   7.474   4.020
  999TIP3    H1 2940   4.567   7.387   4.059
  999TIP3    H2 2941   4.554   7.458   3.926
 1000TIP3   OH2 2942   7.689   0.156   1.944
 1000TIP3    H1 2943   7.765   0.175   1.999
 1000TIP3    H2 2944   7.641   0.089   1.992
 1001TIP3   OH2 2945   6.112   1.691   1.435
 1001TIP3    H1 2946   6.138   1.737   1.515
 1001TIP3    H2 2947   6.086   1.761   1.375
 1002TIP3   OH2 2948   3.340   2.336   5.951
 1002TIP3    H1 2949   3.334   2.313   6.044
 1002TIP3    H2 2950   3.354   2.253   5.906
 1003TIP3   OH2 2951   0.356   0.238   6.416
 1003TIP3    H1 2952   0.362   0.318   6.364
 1003TIP3    H2 2953   0.264   0.214   6.413
 1004TIP3   OH2 2954   7.138   6.077   4.444
 1004TIP3    H1 2955   7.138   6.129   4.364
 1004TIP3    H2 2956   7.063   6.109   4.494
 1005TIP3   OH2 2957   1.352   3.679   4.180
 1005TIP3    H1 2958   1.385   3.650   4.094
 1005TIP3    H2 2959   1.430   3.688   4.234
 1006TIP3   OH2 2960   1.585   1.770   4.237
 1006TIP3    H1 2961   1.548   1.733   4.157
 1006TIP3    H2 2962   1.603   1.862   4.215
 1007TIP3   OH2 2963   2.893   5.027   2.497
 1007TIP3    H1 2964   2.811   5.053   2.454
 1007TIP3    H2 2965   2.926   4.955   2.444
 1008TIP3   OH2 2966   1.236   5.285   1.935
 1008TIP3    H1 2967   1.160   5.317   1.983
 1008TIP3    H2 2968   1.308   5.341   1.964
 1009TIP3   OH2 2969   4.547   2.719   5.054
 1009TIP3    H1 2970   4.494   2.677   5.122
 1009TIP3    H2 2971   4.570   2.648   4.995
 1010TIP3   OH2 2972   5.195   4.316   1.470
 1010TIP3    H1 2973   5.258   4.385   1.452
 1010TIP3    H2 2974   5.140   4.351   1.540
 1011TIP3   OH2 2975   4.030   0.772   5.932
 1011TIP3    H1 2976   4.124   0.783   5.924
 1011TIP3    H2 2977   4.000   0.850   5.978
 1012TIP3   OH2 2978   6.038   3.614   5.290
 1012TIP3    H1 2979   6.090   3.693   5.276
 1012TIP3    H2 2980   6.089   3.563   5.353
 1013TIP3   OH2 2981   2.492   7.472   3.201
 1013TIP3    H1 2982   2.487   7.409   3.273
 1013TIP3    H2 2983   2.579   7.510   3.208
 1014TIP3   OH2 2984   1.226   5.628   4.584
 1014TIP3    H1 2985   1.241   5.574   4.662
 1014TIP3    H2 2986   1.134   5.616   4.563
 1015TIP3   OH2 2987   6.348   5.508   0.848
 1015TIP3    H1 2988   6.433   5.531   0.809
 1015TIP3    H2 2989   6.357   5.415   0.871
 1016TIP3   OH2 2990   2.710   0.139   6.051
 1016TIP3    H1 2991   2.746   0.212   6.001
 1016TIP3    H2 2992   2.662   0.180   6.123
 1017TIP3   OH2 2993   2.642   7.725   5.880
 1017TIP3    H1 2994   2.731   7.759   5.887
 1017TIP3    H2 2995   2.606   7.734   5.968
 1018TIP3   OH2 2996   6.498   7.119   1.678
 1018TIP3    H1 2997   6.440   7.055   1.636
 1018TIP3    H2 2998   6.489   7.198   1.624
 1019TIP3   OH2 2999   1.809   2.926   1.730
 1019TIP3    H1 3000   1.823   2.848   1.784
 1019TIP3    H2 3001   1.733   2.969   1.770
 1020TIP3   OH2 3002   8.130   5.519   1.267
 1020TIP3    H1 3003   8.181   5.560   1.197
 1020TIP3    H2 3004   8.084   5.592   1.309
 1021TIP3   OH2 3005   3.267   6.153   1.872
 1021TIP3    H1 3006   3.320   6.192   1.803
 1021TIP3    H2 3007   3.211   6.224   1.902
 1022TIP3   OH2 3008   6.868   7.780   0.907
 1022TIP3    H1 3009   6.915   7.711   0.954
 1022TIP3    H2 3010   6.846   7.741   0.823
 1023TIP3   OH2 3011   0.602   7.136   3.267
 1023TIP3    H1 3012   0.589   7.230   3.256
 1023TIP3    H2 3013   0.597   7.122   3.361
 1024TIP3   OH2 3014   7.339   3.313   5.001
 1024TIP3    H1 3015   7.363   3.329   4.910
 1024TIP3    H2 3016   7.288   3.390   5.027
 1025TIP3   OH2 3017   2.188   1.861   4.321
 1025TIP3    H1 3018   2.208   1.933   4.262
 1025TIP3    H2 3019   2.167   1.787   4.264
 1026TIP3   OH2 3020   4.973   0.922   3.912
 1026TIP3    H1 3021   4.892   0.965   3.888
 1026TIP3    H2 3022   5.041   0.968   3.864
 1027TIP3   OH2 3023   2.374   1.796   6.255
 1027TIP3    H1 3024   2.311   1.851   6.208
 1027TIP3    H2 3025   2.320   1.727   6.296
 1028TIP3   OH2 3026   5.293   4.491   1.794
 1028TIP3    H1 3027   5.350   4.546   1.847
 1028TIP3    H2 3028   5.237   4.553   1.747
 1029TIP3   OH2 3029   0.247   3.147   1.446
 1029TIP3    H1 3030   0.325   3.129   1.498
 1029TIP3    H2 3031   0.183   3.081   1.474
 1030TIP3   OH2 3032   8.146   2.191   4.982
 1030TIP3    H1 3033   8.190   2.106   4.986
 1030TIP3    H2 3034   8.199   2.249   5.036
 1031TIP3   OH2 3035   0.500   1.164   4.193
 1031TIP3    H1 3036   0.447   1.193   4.120
 1031TIP3    H2 3037   0.451   1.092   4.232
 1032TIP3   OH2 3038   7.973   1.852   5.034
 1032TIP3    H1 3039   7.944   1.938   5.065
 1032TIP3    H2 3040   7.950   1.849   4.942
 1033TIP3   OH2 3041   6.015   3.214   4.557
 1033TIP3    H1 3042   5.958   3.229   4.482
 1033TIP3    H2 3043   5.974   3.263   4.629
 1034TIP3   OH2 3044   0.970   1.794   3.849
 1034TIP3    H1 3045   0.971   1.777   3.755
 1034TIP3    H2 3046   0.896   1.744   3.882
 1035TIP3   OH2 3047   8.287   1.715   6.492
 1035TIP3    H1 3048   8.326   1.803   6.499
 1035TIP3    H2 3049   8.214   1.716   6.554
 1036TIP3   OH2 3050   3.064   5.147   5.159
 1036TIP3    H1 3051   3.076   5.176   5.069
 1036TIP3    H2 3052   3.015   5.065   5.152
 1037TIP3   OH2 3053   4.650   1.617   5.811
 1037TIP3    H1 3054   4.568   1.576   5.841
 1037TIP3    H2 3055   4.645   1.707   5.843
 1038TIP3   OH2 3056   2.588   0.905   0.115
 1038TIP3    H1 3057   2.562   0.826   0.162
 1038TIP3    H2 3058   2.569   0.885   0.023
 1039TIP3   OH2 3059   6.330   6.577   2.470
 1039TIP3    H1 3060   6.279   6.525   2.533
 1039TIP3    H2 3061   6.385   6.513   2.425
 1040TIP3   OH2 3062   7.171   2.406   5.969
 1040TIP3    H1 3063   7.265   2.415   5.954
 1040TIP3    H2 3064   7.130   2.459   5.900
 1041TIP3   OH2 3065   3.718   1.656   3.023
 1041TIP3    H1 3066   3.788   1.703   3.069
 1041TIP3    H2 3067   3.689   1.717   2.955
 1042TIP3   OH2 3068   4.344   1.339   1.091
 1042TIP3    H1 3069   4.268   1.306   1.137
 1042TIP3    H2 3070   4.419   1.312   1.145
 1043TIP3   OH2 3071   6.069   4.822   6.567
 1043TIP3    H1 3072   6.016   4.764   6.513
 1043TIP3    H2 3073   6.006   4.872   6.619
 1044TIP3   OH2 3074   6.061   6.835   2.144
 1044TIP3    H1 3075   6.058   6.858   2.237
 1044TIP3    H2 3076   6.005   6.900   2.102
 1045TIP3   OH2 3077   4.485   4.447   1.268
 1045TIP3    H1 3078   4.487   4.489   1.183
 1045TIP3    H2 3079   4.393   4.427   1.284
 1046TIP3   OH2 3080   5.640   3.484   2.726
 1046TIP3    H1 3081   5.693   3.455   2.800
 1046TIP3    H2 3082   5.650   3.580   2.726
 1047TIP3   OH2 3083   0.999   6.872   6.645
 1047TIP3    H1 3084   1.033   6.959   6.626
 1047TIP3    H2 3085   1.075   6.823   6.679
 1048TIP3   OH2 3086   0.242   0.826   1.403
 1048TIP3    H1 3087   0.301   0.847   1.330
 1048TIP3    H2 3088   0.154   0.841   1.368
 1049TIP3   OH2 3089   7.128   5.101   0.296
 1049TIP3    H1 3090   7.116   5.061   0.383
 1049TIP3    H2 3091   7.192   5.044   0.253
 1050TIP3   OH2 3092   7.516   4.041   3.760
 1050TIP3    H1 3093   7.479   3.955   3.740
 1050TIP3    H2 3094   7.546   4.034   3.850
 1051TIP3   OH2 3095   3.266   1.346   5.182
 1051TIP3    H1 3096   3.345   1.388   5.217
 1051TIP3    H2 3097   3.289   1.326   5.091
 1052TIP3   OH2 3098   8.164   7.218   4.924
 1052TIP3    H1 3099   8.070   7.235   4.931
 1052TIP3    H2 3100   8.198   7.230   5.013
 1053TIP3   OH2 3101   8.175   4.258   1.484
 1053TIP3    H1 3102   8.195   4.173   1.445
 1053TIP3    H2 3103   8.142   4.237   1.571
 1054TIP3   OH2 3104   5.317   6.700   1.893
 1054TIP3    H1 3105   5.336   6.639   1.822
 1054TIP3    H2 3106   5.403   6.722   1.930
 1055TIP3   OH2 3107   6.483   1.193   6.684
 1055TIP3    H1 3108   6.568   1.153   6.700
 1055TIP3    H2 3109   6.498   1.256   6.614
 1056TIP3   OH2 3110   0.030   4.691   4.144
 1056TIP3    H1 3111   0.036   4.705   4.050
 1056TIP3    H2 3112   0.105   4.738   4.180
 1057TIP3   OH2 3113   0.488   6.173   2.136
 1057TIP3    H1 3114   0.474   6.119   2.058
 1057TIP3    H2 3115   0.411   6.230   2.140
 1058TIP3   OH2 3116   7.870   1.635   2.688
 1058TIP3    H1 3117   7.839   1.551   2.654
 1058TIP3    H2 3118   7.945   1.612   2.742
 1059TIP3   OH2 3119   5.031   3.090   6.056
 1059TIP3    H1 3120   5.090   3.095   6.132
 1059TIP3    H2 3121   4.966   3.158   6.073
 1060TIP3   OH2 3122   0.853   6.838   2.448
 1060TIP3    H1 3123   0.864   6.852   2.353
 1060TIP3    H2 3124   0.825   6.747   2.455
 1061TIP3   OH2 3125   2.913   4.916   6.185
 1061TIP3    H1 3126   2.874   4.898   6.099
 1061TIP3    H2 3127   2.959   5.000   6.174
 1062TIP3   OH2 3128   5.010   7.823   6.677
 1062TIP3    H1 3129   4.989   7.735   6.706
 1062TIP3    H2 3130   4.990   7.823   6.584
 1063TIP3   OH2 3131   6.163   5.762   2.739
 1063TIP3    H1 3132   6.164   5.731   2.648
 1063TIP3    H2 3133   6.071   5.783   2.756
 1064TIP3   OH2 3134   0.049   1.605   1.734
 1064TIP3    H1 3135   0.023   1.694   1.755
 1064TIP3    H2 3136   0.143   1.612   1.714
 1065TIP3   OH2 3137   4.763   4.300   6.319
 1065TIP3    H1 3138   4.806   4.286   6.235
 1065TIP3    H2 3139   4.795   4.385   6.349
 1066TIP3   OH2 3140   7.007   0.560   6.049
 1066TIP3    H1 3141   7.092   0.536   6.085
 1066TIP3    H2 3142   7.019   0.648   6.015
 1067TIP3   OH2 3143   6.730   5.605   5.864
 1067TIP3    H1 3144   6.760   5.516   5.848
 1067TIP3    H2 3145   6.771   5.657   5.795
 1068TIP3   OH2 3146   5.169   0.608  -0.009
 1068TIP3    H1 3147   5.143   0.531   0.041
 1068TIP3    H2 3148   5.265   0.604  -0.011
 1069TIP3   OH2 3149   4.036   5.533   3.439
 1069TIP3    H1 3150   4.081   5.449   3.424
 1069TIP3    H2 3151   3.967   5.512   3.502
 1070TIP3   OH2 3152   3.068   4.738   0.303
 1070TIP3    H1 3153   3.078   4.706   0.393
 1070TIP3    H2 3154   2.975   4.732   0.285
 1071TIP3   OH2 3155   1.023   4.722   4.595
 1071TIP3    H1 3156   1.116   4.740   4.608
 1071TIP3    H2 3157   0.979   4.795   4.639
 1072TIP3   OH2 3158   4.417   3.066   2.465
 1072TIP3    H1 3159   4.361   3.142   2.481
 1072TIP3    H2 3160   4.403   3.043   2.373
 1073TIP3   OH2 3161   7.485   5.558   4.357
 1073TIP3    H1 3162   7.444   5.482   4.316
 1073TIP3    H2 3163   7.578   5.550   4.337
 1074TIP3   OH2 3164   0.266   2.280   5.621
 1074TIP3    H1 3165   0.227   2.223   5.555
 1074TIP3    H2 3166   0.343   2.233   5.653
 1075TIP3   OH2 3167   2.597   7.371   3.756
 1075TIP3    H1 3168   2.599   7.303   3.688
 1075TIP3    H2 3169   2.526   7.345   3.814
 1076TIP3   OH2 3170   7.364   5.542   0.975
 1076TIP3    H1 3171   7.431   5.593   0.930
 1076TIP3    H2 3172   7.407   5.510   1.055
 1077TIP3   OH2 3173   4.191   4.835   3.466
 1077TIP3    H1 3174   4.134   4.776   3.417
 1077TIP3    H2 3175   4.243   4.880   3.399
 1078TIP3   OH2 3176   2.385   3.313   0.630
 1078TIP3    H1 3177   2.450   3.354   0.573
 1078TIP3    H2 3178   2.405   3.220   0.627
 1079TIP3   OH2 3179   1.470   7.333   2.020
 1079TIP3    H1 3180   1.390   7.376   2.049
 1079TIP3    H2 3181   1.448   7.240   2.017
 1080TIP3   OH2 3182   6.616   6.622   6.070
 1080TIP3    H1 3183   6.660   6.647   6.151
 1080TIP3    H2 3184   6.646   6.533   6.053
 1081TIP3   OH2 3185   5.408   5.097   1.884
 1081TIP3    H1 3186   5.400   5.008   1.850
 1081TIP3    H2 3187   5.343   5.102   1.954
 1082TIP3   OH2 3188   0.504   6.890   4.439
 1082TIP3    H1 3189   0.581   6.941   4.464
 1082TIP3    H2 3190   0.540   6.808   4.405
 1083TIP3   OH2 3191   4.436   3.602   5.434
 1083TIP3    H1 3192   4.502   3.670   5.450
 1083TIP3    H2 3193   4.352   3.648   5.440
 1084TIP3   OH2 3194   3.867   1.198   4.442
 1084TIP3    H1 3195   3.881   1.105   4.461
 1084TIP3    H2 3196   3.931   1.218   4.374
 1085TIP3   OH2 3197   5.583   5.751   3.467
 1085TIP3    H1 3198   5.487   5.748   3.471
 1085TIP3    H2 3199   5.611   5.754   3.558
 1086TIP3   OH2 3200   8.027   4.224   4.872
 1086TIP3    H1 3201   8.045   4.250   4.781
 1086TIP3    H2 3202   7.944   4.267   4.893
 1087TIP3   OH2 3203   4.464   5.206   1.380
 1087TIP3    H1 3204   4.435   5.121   1.413
 1087TIP3    H2 3205   4.413   5.219   1.300
 1088TIP3   OH2 3206   0.304   5.903   6.464
 1088TIP3    H1 3207   0.322   5.863   6.549
 1088TIP3    H2 3208   0.230   5.961   6.480
 1089TIP3   OH2 3209   3.415   4.665   3.195
 1089TIP3    H1 3210   3.395   4.573   3.180
 1089TIP3    H2 3211   3.469   4.666   3.274
 1090TIP3   OH2 3212   0.338   6.467   0.884
 1090TIP3    H1 3213   0.428   6.499   0.881
 1090TIP3    H2 3214   0.289   6.536   0.928
 1091TIP3   OH2 3215   4.355   3.248   1.339
 1091TIP3    H1 3216   4.340   3.333   1.296
 1091TIP3    H2 3217   4.329   3.263   1.430
 1092TIP3   OH2 3218   7.570   6.612   2.162
 1092TIP3    H1 3219   7.627   6.542   2.131
 1092TIP3    H2 3220   7.530   6.648   2.083
 1093TIP3   OH2 3221   4.823   2.099   0.941
 1093TIP3    H1 3222   4.823   2.135   1.030
 1093TIP3    H2 3223   4.746   2.041   0.939
 1094TIP3   OH2 3224   8.124   6.792   4.920
 1094TIP3    H1 3225   8.168   6.745   4.990
 1094TIP3    H2 3226   8.032   6.795   4.947
 1095TIP3   OH2 3227   7.018   4.563   3.806
 1095TIP3    H1 3228   6.991   4.655   3.810
 1095TIP3    H2 3229   7.035   4.547   3.713
 1096TIP3   OH2 3230   7.006   3.052   6.340
 1096TIP3    H1 3231   6.954   2.996   6.397
 1096TIP3    H2 3232   7.081   3.078   6.394
 1097TIP3   OH2 3233   3.528   1.214   6.685
 1097TIP3    H1 3234   3.517   1.303   6.718
 1097TIP3    H2 3235   3.567   1.225   6.599
 1098TIP3   OH2 3236   4.060   1.531   0.325
 1098TIP3    H1 3237   3.993   1.474   0.364
 1098TIP3    H2 3238   4.117   1.471   0.276
 1099TIP3   OH2 3239   5.257   3.597   2.867
 1099TIP3    H1 3240   5.322   3.537   2.903
 1099TIP3    H2 3241   5.300   3.682   2.866
 1100TIP3   OH2 3242   8.159   0.119   3.539
 1100TIP3    H1 3243   8.083   0.139   3.483
 1100TIP3    H2 3244   8.234   0.153   3.491
 1101TIP3   OH2 3245   4.200   7.763   1.134
 1101TIP3    H1 3246   4.160   7.815   1.204
 1101TIP3    H2 3247   4.291   7.752   1.162
 1102TIP3   OH2 3248   1.740   0.505   1.067
 1102TIP3    H1 3249   1.818   0.513   1.012
 1102TIP3    H2 3250   1.770   0.459   1.145
 1103TIP3   OH2 3251   7.364   7.381   2.666
 1103TIP3    H1 3252   7.401   7.440   2.731
 1103TIP3    H2 3253   7.440   7.341   2.623
 1104TIP3   OH2 3254   2.767   5.554   6.240
 1104TIP3    H1 3255   2.819   5.597   6.308
 1104TIP3    H2 3256   2.789   5.461   6.248
 1105TIP3   OH2 3257   3.175   1.868   0.820
 1105TIP3    H1 3258   3.206   1.920   0.894
 1105TIP3    H2 3259   3.113   1.925   0.775
 1106TIP3   OH2 3260   5.054   3.236   4.973
 1106TIP3    H1 3261   5.117   3.304   4.996
 1106TIP3    H2 3262   4.978   3.284   4.941
 1107TIP3   OH2 3263   6.193   4.926   4.483
 1107TIP3    H1 3264   6.255   4.885   4.423
 1107TIP3    H2 3265   6.222   4.898   4.570
 1108TIP3   OH2 3266   5.844   7.458   4.507
 1108TIP3    H1 3267   5.792   7.444   4.428
 1108TIP3    H2 3268   5.924   7.407   4.493
 1109TIP3   OH2 3269   3.124   7.103   0.185
 1109TIP3    H1 3270   3.181   7.093   0.109
 1109TIP3    H2 3271   3.069   7.177   0.164
 1110TIP3   OH2 3272   4.604   2.500   4.913
 1110TIP3    H1 3273   4.658   2.425   4.937
 1110TIP3    H2 3274   4.519   2.462   4.890
 1111TIP3   OH2 3275   4.267   2.904   1.368
 1111TIP3    H1 3276   4.244   2.812   1.352
 1111TIP3    H2 3277   4.347   2.900   1.421
 1112TIP3   OH2 3278   7.047   0.371   4.843
 1112TIP3    H1 3279   6.984   0.425   4.797
 1112TIP3    H2 3280   7.125   0.425   4.851
 1113TIP3   OH2 3281   5.847   2.400   1.812
 1113TIP3    H1 3282   5.862   2.475   1.755
 1113TIP3    H2 3283   5.935   2.368   1.834
 1114TIP3   OH2 3284   6.084   6.632   3.558
 1114TIP3    H1 3285   6.053   6.667   3.641
 1114TIP3    H2 3286   6.078   6.537   3.568
 1115TIP3   OH2 3287   3.484   1.970   2.426
 1115TIP3    H1 3288   3.520   1.974   2.515
 1115TIP3    H2 3289   3.467   1.877   2.411
 1116TIP3   OH2 3290   1.068   5.074   0.262
 1116TIP3    H1 3291   0.982   5.057   0.223
 1116TIP3    H2 3292   1.127   5.011   0.220
 1117TIP3   OH2 3293   7.043   6.491   6.335
 1117TIP3    H1 3294   6.994   6.483   6.253
 1117TIP3    H2 3295   7.135   6.478   6.309
 1118TIP3   OH2 3296   5.304   7.670   2.475
 1118TIP3    H1 3297   5.344   7.585   2.459
 1118TIP3    H2 3298   5.376   7.733   2.466
 1119TIP3   OH2 3299   2.572   0.676   6.025
 1119TIP3    H1 3300   2.533   0.728   5.955
 1119TIP3    H2 3301   2.569   0.733   6.102
 1120TIP3   OH2 3302   5.447   1.656   6.243
 1120TIP3    H1 3303   5.401   1.678   6.162
 1120TIP3    H2 3304   5.471   1.564   6.233
 1121TIP3   OH2 3305   4.665   3.978   5.644
 1121TIP3    H1 3306   4.693   4.038   5.713
 1121TIP3    H2 3307   4.658   4.033   5.566
 1122TIP3   OH2 3308   1.142   6.086   6.655
 1122TIP3    H1 3309   1.130   6.138   6.734
 1122TIP3    H2 3310   1.176   6.002   6.687
 1123TIP3   OH2 3311   2.506   5.968   6.415
 1123TIP3    H1 3312   2.487   6.042   6.473
 1123TIP3    H2 3313   2.582   5.926   6.455
 1124TIP3   OH2 3314   7.008   6.619   4.427
 1124TIP3    H1 3315   6.938   6.677   4.457
 1124TIP3    H2 3316   7.051   6.590   4.507
 1125TIP3   OH2 3317   3.341   2.534   5.332
 1125TIP3    H1 3318   3.282   2.499   5.265
 1125TIP3    H2 3319   3.372   2.617   5.295
 1126TIP3   OH2 3320   4.621   1.739   5.302
 1126TIP3    H1 3321   4.701   1.769   5.345
 1126TIP3    H2 3322   4.621   1.784   5.217
 1127TIP3   OH2 3323   2.300   3.859   4.662
 1127TIP3    H1 3324   2.366   3.806   4.706
 1127TIP3    H2 3325   2.346   3.898   4.588
 1128TIP3   OH2 3326   0.750   2.784   3.852
 1128TIP3    H1 3327   0.831   2.784   3.903
 1128TIP3    H2 3328   0.778   2.770   3.762
 1129TIP3   OH2 3329   5.706   1.149   5.503
 1129TIP3    H1 3330   5.658   1.130   5.423
 1129TIP3    H2 3331   5.788   1.188   5.474
 1130TIP3   OH2 3332   4.093   4.755   1.751
 1130TIP3    H1 3333   4.167   4.695   1.763
 1130TIP3    H2 3334   4.095   4.777   1.658
 1131TIP3   OH2 3335   2.237   5.969   5.693
 1131TIP3    H1 3336   2.270   5.893   5.741
 1131TIP3    H2 3337   2.271   6.044   5.741
 1132TIP3   OH2 3338   1.006   2.569   2.500
 1132TIP3    H1 3339   0.930   2.533   2.546
 1132TIP3    H2 3340   0.989   2.664   2.497
 1133TIP3   OH2 3341   1.835   6.246   5.539
 1133TIP3    H1 3342   1.930   6.259   5.530
 1133TIP3    H2 3343   1.805   6.326   5.582
 1134TIP3   OH2 3344   0.319   2.044   6.276
 1134TIP3    H1 3345   0.348   2.078   6.192
 1134TIP3    H2 3346   0.374   1.967   6.291
 1135TIP3   OH2 3347   4.285   3.181   1.639
 1135TIP3    H1 3348   4.356   3.129   1.675
 1135TIP3    H2 3349   4.231   3.205   1.714
 1136TIP3   OH2 3350   2.110   4.492   1.324
 1136TIP3    H1 3351   2.108   4.580   1.362
 1136TIP3    H2 3352   2.196   4.457   1.349
 1137TIP3   OH2 3353   5.198   3.450   1.957
 1137TIP3    H1 3354   5.218   3.531   2.004
 1137TIP3    H2 3355   5.159   3.392   2.022
 1138TIP3   OH2 3356   7.210   3.581   2.547
 1138TIP3    H1 3357   7.116   3.575   2.532
 1138TIP3    H2 3358   7.218   3.602   2.640
 1139TIP3   OH2 3359   5.324   4.708   5.931
 1139TIP3    H1 3360   5.256   4.775   5.926
 1139TIP3    H2 3361   5.287   4.633   5.886
 1140TIP3   OH2 3362   7.350   2.813   1.218
 1140TIP3    H1 3363   7.328   2.742   1.278
 1140TIP3    H2 3364   7.304   2.792   1.137
 1141TIP3   OH2 3365   1.854   2.915   5.136
 1141TIP3    H1 3366   1.927   2.854   5.147
 1141TIP3    H2 3367   1.827   2.936   5.225
 1142TIP3   OH2 3368   5.514   4.606   6.732
 1142TIP3    H1 3369   5.559   4.531   6.770
 1142TIP3    H2 3370   5.482   4.574   6.647
 1143TIP3   OH2 3371   4.953   7.266   2.153
 1143TIP3    H1 3372   4.921   7.314   2.077
 1143TIP3    H2 3373   4.889   7.195   2.164
 1144TIP3   OH2 3374   5.518   1.601   2.979
 1144TIP3    H1 3375   5.494   1.552   2.900
 1144TIP3    H2 3376   5.588   1.549   3.019
 1145TIP3   OH2 3377   5.640   4.444   3.003
 1145TIP3    H1 3378   5.718   4.487   3.039
 1145TIP3    H2 3379   5.659   4.432   2.910
 1146TIP3   OH2 3380   7.330   1.622   6.490
 1146TIP3    H1 3381   7.418   1.600   6.459
 1146TIP3    H2 3382   7.282   1.539   6.486
 1147TIP3   OH2 3383   8.221   3.597   2.537
 1147TIP3    H1 3384   8.295   3.608   2.596
 1147TIP3    H2 3385   8.191   3.507   2.552
 1148TIP3   OH2 3386   2.117   4.684   4.166
 1148TIP3    H1 3387   2.122   4.734   4.084
 1148TIP3    H2 3388   2.194   4.711   4.215
 1149TIP3   OH2 3389   1.018   5.416   4.054
 1149TIP3    H1 3390   1.080   5.371   3.996
 1149TIP3    H2 3391   0.963   5.467   3.994
 1150TIP3   OH2 3392   3.685   5.906   0.951
 1150TIP3    H1 3393   3.606   5.879   0.998
 1150TIP3    H2 3394   3.729   5.824   0.928
 1151TIP3   OH2 3395   6.365   0.693   0.110
 1151TIP3    H1 3396   6.349   0.601   0.092
 1151TIP3    H2 3397   6.310   0.740   0.047
 1152TIP3   OH2 3398   7.298   4.440   0.186
 1152TIP3    H1 3399   7.368   4.395   0.140
 1152TIP3    H2 3400   7.250   4.371   0.232
 1153TIP3   OH2 3401   0.414   7.006   5.307
 1153TIP3    H1 3402   0.454   6.944   5.368
 1153TIP3    H2 3403   0.439   6.973   5.220
 1154TIP3   OH2 3404   1.863   1.492   3.763
 1154TIP3    H1 3405   1.884   1.480   3.856
 1154TIP3    H2 3406   1.862   1.587   3.752
 1155TIP3   OH2 3407   7.960   4.629   1.485
 1155TIP3    H1 3408   8.020   4.579   1.429
 1155TIP3    H2 3409   7.883   4.644   1.430
 1156TIP3   OH2 3410   3.533   1.162   5.324
 1156TIP3    H1 3411   3.538   1.250   5.289
 1156TIP3    H2 3412   3.490   1.111   5.255
 1157TIP3   OH2 3413   5.481   5.803   4.332
 1157TIP3    H1 3414   5.448   5.771   4.416
 1157TIP3    H2 3415   5.405   5.840   4.288
 1158TIP3   OH2 3416   3.668   0.967   0.505
 1158TIP3    H1 3417   3.611   0.972   0.428
 1158TIP3    H2 3418   3.632   1.031   0.566
 1159TIP3   OH2 3419   6.591   3.299   0.427
 1159TIP3    H1 3420   6.628   3.356   0.494
 1159TIP3    H2 3421   6.573   3.356   0.353
 1160TIP3   OH2 3422   8.247   0.565   3.188
 1160TIP3    H1 3423   8.181   0.501   3.164
 1160TIP3    H2 3424   8.330   0.528   3.156
 1161TIP3   OH2 3425   0.676   1.903   4.041
 1161TIP3    H1 3426   0.752   1.873   4.090
 1161TIP3    H2 3427   0.668   1.995   4.063
 1162TIP3   OH2 3428   0.108   1.304   3.735
 1162TIP3    H1 3429   0.195   1.274   3.760
 1162TIP3    H2 3430   0.061   1.314   3.818
 1163TIP3   OH2 3431   2.987   1.581   4.177
 1163TIP3    H1 3432   3.019   1.670   4.192
 1163TIP3    H2 3433   3.021   1.557   4.091
 1164TIP3   OH2 3434   0.196   5.342   5.794
 1164TIP3    H1 3435   0.112   5.298   5.801
 1164TIP3    H2 3436   0.250   5.302   5.863
 1165TIP3   OH2 3437   3.750   0.604   4.590
 1165TIP3    H1 3438   3.717   0.665   4.525
 1165TIP3    H2 3439   3.681   0.537   4.597
 1166TIP3   OH2 3440   6.197   5.142   1.783
 1166TIP3    H1 3441   6.180   5.048   1.786
 1166TIP3    H2 3442   6.113   5.181   1.808
 1167TIP3   OH2 3443   4.960   0.548   6.379
 1167TIP3    H1 3444   5.005   0.615   6.430
 1167TIP3    H2 3445   4.905   0.596   6.317
 1168TIP3   OH2 3446   7.873   6.851   0.248
 1168TIP3    H1 3447   7.886   6.776   0.306
 1168TIP3    H2 3448   7.825   6.915   0.302
 1169TIP3   OH2 3449   7.158   5.519   0.340
 1169TIP3    H1 3450   7.184   5.457   0.273
 1169TIP3    H2 3451   7.178   5.474   0.423
 1170TIP3   OH2 3452   7.656   1.609   6.623
 1170TIP3    H1 3453   7.606   1.572   6.551
 1170TIP3    H2 3454   7.694   1.534   6.668
 1171TIP3   OH2 3455   0.099   4.225   2.578
 1171TIP3    H1 3456   0.027   4.288   2.578
 1171TIP3    H2 3457   0.066   4.152   2.526
 1172TIP3   OH2 3458   5.361   4.065   1.960
 1172TIP3    H1 3459   5.292   4.002   1.942
 1172TIP3    H2 3460   5.414   4.066   1.880
 1173TIP3   OH2 3461   0.328   7.550   5.966
 1173TIP3    H1 3462   0.264   7.619   5.984
 1173TIP3    H2 3463   0.400   7.595   5.921
 1174TIP3   OH2 3464   7.570   1.004   2.468
 1174TIP3    H1 3465   7.618   0.996   2.386
 1174TIP3    H2 3466   7.557   0.913   2.496
 1175TIP3   OH2 3467   6.071   3.443   5.094
 1175TIP3    H1 3468   6.012   3.371   5.114
 1175TIP3    H2 3469   6.061   3.503   5.168
 1176TIP3   OH2 3470   6.059   7.058   0.067
 1176TIP3    H1 3471   6.063   7.063  -0.029
 1176TIP3    H2 3472   6.058   7.149   0.096
 1177TIP3   OH2 3473   0.543   0.250   4.520
 1177TIP3    H1 3474   0.558   0.340   4.490
 1177TIP3    H2 3475   0.559   0.196   4.443
 1178TIP3   OH2 3476   4.511   1.084   4.497
 1178TIP3    H1 3477   4.462   1.064   4.418
 1178TIP3    H2 3478   4.521   1.000   4.542
 1179TIP3   OH2 3479   8.118   3.594   4.914
 1179TIP3    H1 3480   8.043   3.637   4.955
 1179TIP3    H2 3481   8.133   3.516   4.968
 1180TIP3   OH2 3482   6.991   2.988   6.614
 1180TIP3    H1 3483   6.954   2.981   6.702
 1180TIP3    H2 3484   7.079   2.950   6.622
 1181TIP3   OH2 3485   8.102   6.934   1.622
 1181TIP3    H1 3486   8.067   6.861   1.571
 1181TIP3    H2 3487   8.171   6.895   1.676
 1182TIP3   OH2 3488   0.491   4.607   2.253
 1182TIP3    H1 3489   0.549   4.678   2.281
 1182TIP3    H2 3490   0.408   4.651   2.231
 1183TIP3   OH2 3491   1.062   0.128   6.293
 1183TIP3    H1 3492   1.013   0.209   6.305
 1183TIP3    H2 3493   1.034   0.073   6.367
 1184TIP3   OH2 3494   6.204   3.534   0.286
 1184TIP3    H1 3495   6.257   3.607   0.316
 1184TIP3    H2 3496   6.137   3.523   0.353
 1185TIP3   OH2 3497   0.660   3.434   6.590
 1185TIP3    H1 3498   0.608   3.375   6.535
 1185TIP3    H2 3499   0.678   3.509   6.534
 1186TIP3   OH2 3500   1.985   0.895   0.540
 1186TIP3    H1 3501   2.031   0.872   0.621
 1186TIP3    H2 3502   1.985   0.815   0.488
 1187TIP3   OH2 3503   0.218   7.212   6.125
 1187TIP3    H1 3504   0.263   7.130   6.104
 1187TIP3    H2 3505   0.161   7.228   6.049
 1188TIP3   OH2 3506   1.100   3.229   1.852
 1188TIP3    H1 3507   1.142   3.256   1.770
 1188TIP3    H2 3508   1.068   3.141   1.836
 1189TIP3   OH2 3509   7.602   7.284   6.166
 1189TIP3    H1 3510   7.593   7.314   6.075
 1189TIP3    H2 3511   7.519   7.239   6.184
 1190TIP3   OH2 3512   8.195   4.003   1.361
 1190TIP3    H1 3513   8.117   3.955   1.331
 1190TIP3    H2 3514   8.253   3.935   1.396
 1191TIP3   OH2 3515   2.237   7.042   2.405
 1191TIP3    H1 3516   2.165   7.041   2.342
 1191TIP3    H2 3517   2.292   6.967   2.381
 1192TIP3   OH2 3518   4.545   2.997   5.352
 1192TIP3    H1 3519   4.466   3.042   5.322
 1192TIP3    H2 3520   4.595   2.981   5.272
 1193TIP3   OH2 3521   3.701   2.756   2.862
 1193TIP3    H1 3522   3.788   2.746   2.900
 1193TIP3    H2 3523   3.700   2.846   2.829
 1194TIP3   OH2 3524   7.252   4.494   5.826
 1194TIP3    H1 3525   7.297   4.467   5.746
 1194TIP3    H2 3526   7.316   4.482   5.895
 1195TIP3   OH2 3527   3.169   4.115   4.244
 1195TIP3    H1 3528   3.197   4.025   4.228
 1195TIP3    H2 3529   3.082   4.106   4.282
 1196TIP3   OH2 3530   6.578   7.769   0.575
 1196TIP3    H1 3531   6.648   7.711   0.606
 1196TIP3    H2 3532   6.614   7.808   0.495
 1197TIP3   OH2 3533   6.558   4.988   0.596
 1197TIP3    H1 3534   6.481   4.938   0.567
 1197TIP3    H2 3535   6.632   4.932   0.574
 1198TIP3   OH2 3536   0.966   4.880   6.623
 1198TIP3    H1 3537   0.968   4.819   6.696
 1198TIP3    H2 3538   1.011   4.958   6.655
 1199TIP3   OH2 3539   4.519   2.587   3.913
 1199TIP3    H1 3540   4.452   2.556   3.852
 1199TIP3    H2 3541   4.550   2.669   3.875
 1200TIP3   OH2 3542   1.367   2.452   1.633
 1200TIP3    H1 3543   1.444   2.495   1.672
 1200TIP3    H2 3544   1.404   2.395   1.565
 1201TIP3   OH2 3545   5.271   2.133   4.318
 1201TIP3    H1 3546   5.232   2.117   4.404
 1201TIP3    H2 3547   5.362   2.106   4.328
 1202TIP3   OH2 3548   2.171   5.157   4.818
 1202TIP3    H1 3549   2.084   5.131   4.785
 1202TIP3    H2 3550   2.231   5.137   4.746
 1203TIP3   OH2 3551   3.606   0.526   1.212
 1203TIP3    H1 3552   3.568   0.440   1.198
 1203TIP3    H2 3553   3.686   0.525   1.160
 1204TIP3   OH2 3554   6.576   4.799   6.638
 1204TIP3    H1 3555   6.605   4.791   6.547
 1204TIP3    H2 3556   6.557   4.892   6.649
 1205TIP3   OH2 3557   2.853   6.305   5.757
 1205TIP3    H1 3558   2.828   6.390   5.721
 1205TIP3    H2 3559   2.770   6.260   5.774
 1206TIP3   OH2 3560   4.954   0.268   4.353
 1206TIP3    H1 3561   4.971   0.273   4.447
 1206TIP3    H2 3562   4.970   0.356   4.321
 1207TIP3   OH2 3563   7.906   2.805   4.551
 1207TIP3    H1 3564   7.993   2.772   4.575
 1207TIP3    H2 3565   7.912   2.824   4.457
 1208TIP3   OH2 3566   7.612   5.119   1.062
 1208TIP3    H1 3567   7.561   5.175   1.121
 1208TIP3    H2 3568   7.703   5.144   1.079
 1209TIP3   OH2 3569   2.395   5.100   4.368
 1209TIP3    H1 3570   2.374   5.108   4.275
 1209TIP3    H2 3571   2.419   5.188   4.396
 1210TIP3   OH2 3572   4.049   5.956   4.032
 1210TIP3    H1 3573   4.051   5.974   3.938
 1210TIP3    H2 3574   3.988   6.020   4.068
 1211TIP3   OH2 3575   2.894   2.168   5.868
 1211TIP3    H1 3576   2.812   2.119   5.877
 1211TIP3    H2 3577   2.962   2.100   5.865
 1212TIP3   OH2 3578   3.342   5.472   1.146
 1212TIP3    H1 3579   3.406   5.492   1.077
 1212TIP3    H2 3580   3.389   5.489   1.227
 1213TIP3   OH2 3581   6.109   1.544   0.903
 1213TIP3    H1 3582   6.055   1.562   0.826
 1213TIP3    H2 3583   6.075   1.461   0.937
 1214TIP3   OH2 3584   1.899   0.504   3.760
 1214TIP3    H1 3585   1.913   0.523   3.667
 1214TIP3    H2 3586   1.955   0.567   3.805
 1215TIP3   OH2 3587   7.788   1.661   6.233
 1215TIP3    H1 3588   7.852   1.681   6.301
 1215TIP3    H2 3589   7.840   1.626   6.161
 1216TIP3   OH2 3590   2.462   2.862   3.084
 1216TIP3    H1 3591   2.552   2.867   3.052
 1216TIP3    H2 3592   2.418   2.802   3.022
 1217TIP3   OH2 3593   1.072   5.384   1.021
 1217TIP3    H1 3594   1.122   5.458   0.986
 1217TIP3    H2 3595   1.072   5.398   1.116
 1218TIP3   OH2 3596   6.565   1.277   2.786
 1218TIP3    H1 3597   6.657   1.286   2.763
 1218TIP3    H2 3598   6.530   1.219   2.718
 1219TIP3   OH2 3599   1.217   1.570   0.634
 1219TIP3    H1 3600   1.152   1.637   0.658
 1219TIP3    H2 3601   1.297   1.597   0.679
 1220TIP3   OH2 3602   6.081   5.921   2.170
 1220TIP3    H1 3603   6.011   5.860   2.146
 1220TIP3    H2 3604   6.078   5.989   2.103
 1221TIP3   OH2 3605   2.990   0.384   0.340
 1221TIP3    H1 3606   3.078   0.385   0.303
 1221TIP3    H2 3607   2.941   0.447   0.288
 1222TIP3   OH2 3608   2.161   7.683   3.807
 1222TIP3    H1 3609   2.190   7.762   3.853
 1222TIP3    H2 3610   2.158   7.616   3.875
 1223TIP3   OH2 3611   4.646   7.572   3.535
 1223TIP3    H1 3612   4.736   7.587   3.562
 1223TIP3    H2 3613   4.598   7.558   3.617
 1224TIP3   OH2 3614   7.132   6.541   5.446
 1224TIP3    H1 3615   7.121   6.635   5.427
 1224TIP3    H2 3616   7.201   6.513   5.386
 1225TIP3   OH2 3617   3.888   1.628   2.052
 1225TIP3    H1 3618   3.977   1.662   2.052
 1225TIP3    H2 3619   3.892   1.548   1.999
 1226TIP3   OH2 3620   3.871   6.319   3.887
 1226TIP3    H1 3621   3.785   6.360   3.897
 1226TIP3    H2 3622   3.894   6.332   3.795
 1227TIP3   OH2 3623   1.046   5.575   1.260
 1227TIP3    H1 3624   1.106   5.646   1.236
 1227TIP3    H2 3625   0.959   5.615   1.255
 1228TIP3   OH2 3626   6.271   1.709   3.662
 1228TIP3    H1 3627   6.197   1.768   3.653
 1228TIP3    H2 3628   6.266   1.678   3.753
 1229TIP3   OH2 3629   6.778   1.910   4.139
 1229TIP3    H1 3630   6.855   1.964   4.121
 1229TIP3    H2 3631   6.720   1.925   4.064
 1230TIP3   OH2 3632   2.399   2.203   5.922
 1230TIP3    H1 3633   2.467   2.234   5.982
 1230TIP3    H2 3634   2.377   2.280   5.869
 1231TIP3   OH2 3635   5.937   3.369   2.610
 1231TIP3    H1 3636   6.025   3.404   2.592
 1231TIP3    H2 3637   5.880   3.445   2.603
 1232TIP3   OH2 3638   2.151   4.124   0.543
 1232TIP3    H1 3639   2.124   4.077   0.622
 1232TIP3    H2 3640   2.222   4.070   0.506
 1233TIP3   OH2 3641   8.222   4.216   1.867
 1233TIP3    H1 3642   8.289   4.242   1.803
 1233TIP3    H2 3643   8.144   4.200   1.814
 1234TIP3   OH2 3644   3.268   4.672   1.002
 1234TIP3    H1 3645   3.357   4.697   1.023
 1234TIP3    H2 3646   3.232   4.749   0.957
 1235TIP3   OH2 3647   6.391   7.227   1.922
 1235TIP3    H1 3648   6.404   7.200   1.831
 1235TIP3    H2 3649   6.300   7.205   1.941
 1236TIP3   OH2 3650   6.119   3.328   6.006
 1236TIP3    H1 3651   6.203   3.338   5.961
 1236TIP3    H2 3652   6.077   3.413   5.997
 1237TIP3   OH2 3653   0.907   1.923   5.749
 1237TIP3    H1 3654   0.939   1.875   5.673
 1237TIP3    H2 3655   0.916   1.862   5.822
 1238TIP3   OH2 3656   1.798   5.610   1.737
 1238TIP3    H1 3657   1.880   5.658   1.728
 1238TIP3    H2 3658   1.746   5.638   1.662
 1239TIP3   OH2 3659   2.872   3.526   5.785
 1239TIP3    H1 3660   2.810   3.565   5.723
 1239TIP3    H2 3661   2.926   3.599   5.814
 1240TIP3   OH2 3662   1.458   4.216   3.972
 1240TIP3    H1 3663   1.526   4.280   3.955
 1240TIP3    H2 3664   1.468   4.195   4.065
 1241TIP3   OH2 3665   4.901   2.290   6.461
 1241TIP3    H1 3666   4.841   2.341   6.407
 1241TIP3    H2 3667   4.846   2.226   6.505
 1242TIP3   OH2 3668   5.419   6.901   0.552
 1242TIP3    H1 3669   5.340   6.872   0.507
 1242TIP3    H2 3670   5.479   6.827   0.545
 1243TIP3   OH2 3671   4.005   1.104   1.975
 1243TIP3    H1 3672   4.010   1.131   2.067
 1243TIP3    H2 3673   4.093   1.121   1.941
 1244TIP3   OH2 3674   1.980   2.223   3.753
 1244TIP3    H1 3675   2.053   2.247   3.696
 1244TIP3    H2 3676   1.988   2.282   3.828
 1245TIP3   OH2 3677   3.770   5.861   5.540
 1245TIP3    H1 3678   3.758   5.895   5.629
 1245TIP3    H2 3679   3.713   5.916   5.485
 1246TIP3   OH2 3680   6.056   0.219   2.305
 1246TIP3    H1 3681   5.987   0.153   2.304
 1246TIP3    H2 3682   6.010   0.301   2.287
 1247TIP3   OH2 3683   7.776   2.916   2.520
 1247TIP3    H1 3684   7.728   2.862   2.582
 1247TIP3    H2 3685   7.843   2.858   2.484
 1248TIP3   OH2 3686   7.519   7.023   4.255
 1248TIP3    H1 3687   7.498   7.070   4.336
 1248TIP3    H2 3688   7.600   6.976   4.274
 1249TIP3   OH2 3689   2.495   7.502   2.030
 1249TIP3    H1 3690   2.538   7.543   1.955
 1249TIP3    H2 3691   2.478   7.412   2.002
 1250TIP3   OH2 3692   1.690   0.758   4.502
 1250TIP3    H1 3693   1.682   0.779   4.595
 1250TIP3    H2 3694   1.752   0.823   4.469
 1251TIP3   OH2 3695   7.507   2.599   2.211
 1251TIP3    H1 3696   7.560   2.520   2.222
 1251TIP3    H2 3697   7.474   2.592   2.121
 1252TIP3   OH2 3698   2.574   3.309   1.275
 1252TIP3    H1 3699   2.488   3.269   1.260
 1252TIP3    H2 3700   2.558   3.403   1.268
 1253TIP3   OH2 3701   8.022   4.774   6.659
 1253TIP3    H1 3702   8.090   4.764   6.592
 1253TIP3    H2 3703   7.993   4.685   6.677
 1254TIP3   OH2 3704   7.789   4.660   1.055
 1254TIP3    H1 3705   7.798   4.744   1.011
 1254TIP3    H2 3706   7.730   4.676   1.128
 1255TIP3   OH2 3707   2.554   1.887   0.902
 1255TIP3    H1 3708   2.554   1.959   0.965
 1255TIP3    H2 3709   2.530   1.810   0.954
 1256TIP3   OH2 3710   0.309   7.509   5.274
 1256TIP3    H1 3711   0.323   7.507   5.369
 1256TIP3    H2 3712   0.337   7.422   5.244
 1257TIP3   OH2 3713   6.431   2.511   1.307
 1257TIP3    H1 3714   6.447   2.587   1.251
 1257TIP3    H2 3715   6.481   2.529   1.387
 1258TIP3   OH2 3716   0.786   3.967   3.363
 1258TIP3    H1 3717   0.844   3.936   3.432
 1258TIP3    H2 3718   0.843   3.982   3.288
 1259TIP3   OH2 3719   1.961   3.065   6.581
 1259TIP3    H1 3720   2.051   3.047   6.553
 1259TIP3    H2 3721   1.907   3.009   6.525
 1260TIP3   OH2 3722   1.204   6.425   3.009
 1260TIP3    H1 3723   1.148   6.348   3.001
 1260TIP3    H2 3724   1.289   6.391   3.037
 1261TIP3   OH2 3725   6.221   3.346   6.667
 1261TIP3    H1 3726   6.257   3.321   6.752
 1261TIP3    H2 3727   6.208   3.263   6.621
 1262TIP3   OH2 3728   5.094   0.283   5.269
 1262TIP3    H1 3729   5.151   0.324   5.205
 1262TIP3    H2 3730   5.005   0.309   5.243
 1263TIP3   OH2 3731   4.416   1.748   2.645
 1263TIP3    H1 3732   4.336   1.702   2.670
 1263TIP3    H2 3733   4.464   1.758   2.727
 1264TIP3   OH2 3734   2.607   5.789   4.173
 1264TIP3    H1 3735   2.579   5.850   4.242
 1264TIP3    H2 3736   2.697   5.765   4.197
 1265TIP3   OH2 3737   6.702   3.631   2.202
 1265TIP3    H1 3738   6.766   3.678   2.149
 1265TIP3    H2 3739   6.701   3.677   2.286
 1266TIP3   OH2 3740   0.409   0.957   1.218
 1266TIP3    H1 3741   0.447   1.045   1.224
 1266TIP3    H2 3742   0.485   0.900   1.206
 1267TIP3   OH2 3743   7.320   5.030   1.732
 1267TIP3    H1 3744   7.273   5.113   1.739
 1267TIP3    H2 3745   7.410   5.056   1.710
 1268TIP3   OH2 3746   6.585   7.754   2.030
 1268TIP3    H1 3747   6.617   7.674   1.988
 1268TIP3    H2 3748   6.606   7.823   1.968
 1269TIP3   OH2 3749   1.949   5.771   5.332
 1269TIP3    H1 3750   1.983   5.691   5.292
 1269TIP3    H2 3751   1.969   5.760   5.425
 1270TIP3   OH2 3752   2.411   2.611   2.581
 1270TIP3    H1 3753   2.393   2.689   2.530
 1270TIP3    H2 3754   2.383   2.538   2.525
 1271TIP3   OH2 3755   1.776   5.888   3.997
 1271TIP3    H1 3756   1.784   5.946   3.921
 1271TIP3    H2 3757   1.811   5.939   4.069
 1272TIP3   OH2 3758   1.171   7.085   1.990
 1272TIP3    H1 3759   1.264   7.062   1.986
 1272TIP3    H2 3760   1.163   7.136   2.071
 1273TIP3   OH2 3761   0.517   4.313   2.013
 1273TIP3    H1 3762   0.557   4.391   1.975
 1273TIP3    H2 3763   0.469   4.273   1.941
 1274TIP3   OH2 3764   6.998   2.296   5.280
 1274TIP3    H1 3765   6.940   2.333   5.346
 1274TIP3    H2 3766   7.034   2.372   5.235
 1275TIP3   OH2 3767   1.047   0.706   5.266
 1275TIP3    H1 3768   1.029   0.800   5.277
 1275TIP3    H2 3769   1.040   0.692   5.172
 1276TIP3   OH2 3770   3.498   1.459   5.295
 1276TIP3    H1 3771   3.587   1.464   5.330
 1276TIP3    H2 3772   3.454   1.537   5.329
 1277TIP3   OH2 3773   7.558   3.135   4.581
 1277TIP3    H1 3774   7.518   3.212   4.621
 1277TIP3    H2 3775   7.649   3.160   4.565
 1278TIP3   OH2 3776   3.353   0.447   6.581
 1278TIP3    H1 3777   3.264   0.411   6.579
 1278TIP3    H2 3778   3.356   0.509   6.509
 1279TIP3   OH2 3779   7.960   1.806   3.969
 1279TIP3    H1 3780   7.888   1.744   3.984
 1279TIP3    H2 3781   7.938   1.848   3.886
 1280TIP3   OH2 3782   5.682   6.310   1.648
 1280TIP3    H1 3783   5.746   6.352   1.705
 1280TIP3    H2 3784   5.670   6.371   1.576
 1281TIP3   OH2 3785   3.946   0.211   3.440
 1281TIP3    H1 3786   4.017   0.261   3.481
 1281TIP3    H2 3787   3.970   0.209   3.347
 1282TIP3   OH2 3788   3.353   0.157   5.611
 1282TIP3    H1 3789   3.425   0.132   5.669
 1282TIP3    H2 3790   3.282   0.098   5.634
 1283TIP3   OH2 3791   1.064   5.249   1.724
 1283TIP3    H1 3792   1.101   5.263   1.637
 1283TIP3    H2 3793   1.129   5.285   1.784
 1284TIP3   OH2 3794   2.948   2.525   4.555
 1284TIP3    H1 3795   2.968   2.586   4.626
 1284TIP3    H2 3796   3.019   2.460   4.559
 1285TIP3   OH2 3797   6.130   2.705   5.287
 1285TIP3    H1 3798   6.060   2.667   5.340
 1285TIP3    H2 3799   6.088   2.727   5.204
 1286TIP3   OH2 3800   2.623   0.700   1.522
 1286TIP3    H1 3801   2.707   0.660   1.501
 1286TIP3    H2 3802   2.600   0.666   1.608
 1287TIP3   OH2 3803   1.575   2.409   5.557
 1287TIP3    H1 3804   1.605   2.433   5.644
 1287TIP3    H2 3805   1.568   2.313   5.559
 1288TIP3   OH2 3806   7.595   1.042   4.966
 1288TIP3    H1 3807   7.512   1.023   4.922
 1288TIP3    H2 3808   7.657   1.055   4.895
 1289TIP3   OH2 3809   7.632   6.027   4.431
 1289TIP3    H1 3810   7.626   5.936   4.459
 1289TIP3    H2 3811   7.599   6.077   4.505
 1290TIP3   OH2 3812   0.624   1.638   5.197
 1290TIP3    H1 3813   0.669   1.685   5.127
 1290TIP3    H2 3814   0.692   1.619   5.261
 1291TIP3   OH2 3815   4.316   1.160   0.065
 1291TIP3    H1 3816   4.385   1.119   0.012
 1291TIP3    H2 3817   4.237   1.151   0.013
 1292TIP3   OH2 3818   6.264   1.604   0.556
 1292TIP3    H1 3819   6.268   1.526   0.612
 1292TIP3    H2 3820   6.207   1.578   0.484
 1293TIP3   OH2 3821   6.351   7.466   0.948
 1293TIP3    H1 3822   6.390   7.381   0.927
 1293TIP3    H2 3823   6.380   7.485   1.037
 1294TIP3   OH2 3824   5.687   3.847   3.246
 1294TIP3    H1 3825   5.746   3.912   3.210
 1294TIP3    H2 3826   5.663   3.880   3.333
 1295TIP3   OH2 3827   3.505   4.835   2.059
 1295TIP3    H1 3828   3.462   4.918   2.040
 1295TIP3    H2 3829   3.595   4.860   2.082
 1296TIP3   OH2 3830   2.453   7.017   4.862
 1296TIP3    H1 3831   2.481   6.931   4.830
 1296TIP3    H2 3832   2.490   7.023   4.950
 1297TIP3   OH2 3833   3.756   6.793   3.719
 1297TIP3    H1 3834   3.758   6.804   3.814
 1297TIP3    H2 3835   3.805   6.712   3.703
 1298TIP3   OH2 3836   3.215   4.305   6.341
 1298TIP3    H1 3837   3.126   4.317   6.308
 1298TIP3    H2 3838   3.208   4.229   6.399
 1299TIP3   OH2 3839   5.678   2.099   4.468
 1299TIP3    H1 3840   5.589   2.126   4.490
 1299TIP3    H2 3841   5.734   2.162   4.513
 1300TIP3   OH2 3842   3.931   5.708   2.755
 1300TIP3    H1 3843   3.842   5.693   2.787
 1300TIP3    H2 3844   3.941   5.803   2.755
 1301TIP3   OH2 3845   5.103   7.798   3.194
 1301TIP3    H1 3846   5.056   7.828   3.272
 1301TIP3    H2 3847   5.151   7.721   3.224
 1302TIP3   OH2 3848   6.036   3.580   5.651
 1302TIP3    H1 3849   6.048   3.585   5.746
 1302TIP3    H2 3850   5.996   3.664   5.627
 1303TIP3   OH2 3851   0.693   2.303   5.960
 1303TIP3    H1 3852   0.666   2.349   5.880
 1303TIP3    H2 3853   0.772   2.348   5.989
 1304TIP3   OH2 3854   1.149   1.665   6.483
 1304TIP3    H1 3855   1.123   1.594   6.542
 1304TIP3    H2 3856   1.079   1.730   6.492
 1305TIP3   OH2 3857   1.530   5.993   5.535
 1305TIP3    H1 3858   1.573   6.012   5.618
 1305TIP3    H2 3859   1.550   6.069   5.480
 1306TIP3   OH2 3860   2.138   6.453   3.598
 1306TIP3    H1 3861   2.194   6.435   3.674
 1306TIP3    H2 3862   2.141   6.548   3.587
 1307TIP3   OH2 3863   3.371   3.832   0.719
 1307TIP3    H1 3864   3.414   3.766   0.773
 1307TIP3    H2 3865   3.429   3.842   0.644
 1308TIP3   OH2 3866   8.000   0.615   2.694
 1308TIP3    H1 3867   8.050   0.656   2.764
 1308TIP3    H2 3868   7.940   0.683   2.663
 1309TIP3   OH2 3869   3.954   2.163   1.253
 1309TIP3    H1 3870   4.029   2.218   1.278
 1309TIP3    H2 3871   3.894   2.169   1.328
 1310TIP3   OH2 3872   1.457   4.050   5.204
 1310TIP3    H1 3873   1.404   3.990   5.152
 1310TIP3    H2 3874   1.496   3.994   5.272
 1311TIP3   OH2 3875   4.652   4.084   3.421
 1311TIP3    H1 3876   4.691   4.019   3.479
 1311TIP3    H2 3877   4.725   4.137   3.391
 1312TIP3   OH2 3878   4.259   5.764   6.100
 1312TIP3    H1 3879   4.217   5.840   6.061
 1312TIP3    H2 3880   4.342   5.797   6.133
 1313TIP3   OH2 3881   5.890   5.363   3.572
 1313TIP3    H1 3882   5.798   5.376   3.594
 1313TIP3    H2 3883   5.889   5.289   3.511
 1314TIP3   OH2 3884   7.203   3.034   4.974
 1314TIP3    H1 3885   7.235   3.021   4.885
 1314TIP3    H2 3886   7.263   2.984   5.029
 1315TIP3   OH2 3887   3.029   1.200   6.307
 1315TIP3    H1 3888   3.046   1.175   6.216
 1315TIP3    H2 3889   3.006   1.293   6.302
 1316TIP3   OH2 3890   5.403   5.307   4.656
 1316TIP3    H1 3891   5.413   5.241   4.724
 1316TIP3    H2 3892   5.492   5.334   4.634
 1317TIP3   OH2 3893   1.144   2.505   3.376
 1317TIP3    H1 3894   1.163   2.594   3.347
 1317TIP3    H2 3895   1.121   2.514   3.469
 1318TIP3   OH2 3896   5.770   4.420   3.987
 1318TIP3    H1 3897   5.828   4.449   4.057
 1318TIP3    H2 3898   5.752   4.328   4.007
 1319TIP3   OH2 3899   2.701   5.353   2.468
 1319TIP3    H1 3900   2.734   5.303   2.394
 1319TIP3    H2 3901   2.749   5.436   2.465
 1320TIP3   OH2 3902   7.096   0.596   5.322
 1320TIP3    H1 3903   7.091   0.637   5.408
 1320TIP3    H2 3904   7.127   0.507   5.340
 1321TIP3   OH2 3905   3.100   3.257   3.639
 1321TIP3    H1 3906   3.047   3.217   3.570
 1321TIP3    H2 3907   3.189   3.227   3.620
 1322TIP3   OH2 3908   1.409   4.844   0.911
 1322TIP3    H1 3909   1.455   4.771   0.954
 1322TIP3    H2 3910   1.317   4.819   0.914
 1323TIP3   OH2 3911   4.446   7.665   0.845
 1323TIP3    H1 3912   4.498   7.706   0.914
 1323TIP3    H2 3913   4.368   7.720   0.838
 1324TIP3   OH2 3914   3.493   3.620   3.060
 1324TIP3    H1 3915   3.491   3.656   2.971
 1324TIP3    H2 3916   3.581   3.640   3.092
 1325TIP3   OH2 3917   5.191   6.312   5.508
 1325TIP3    H1 3918   5.117   6.343   5.560
 1325TIP3    H2 3919   5.264   6.306   5.570
 1326TIP3   OH2 3920   4.988   6.885   2.983
 1326TIP3    H1 3921   4.984   6.908   3.076
 1326TIP3    H2 3922   5.061   6.824   2.976
 1327TIP3   OH2 3923   4.207   5.145   0.854
 1327TIP3    H1 3924   4.157   5.224   0.876
 1327TIP3    H2 3925   4.296   5.164   0.884
 1328TIP3   OH2 3926   3.140   4.055   6.540
 1328TIP3    H1 3927   3.153   4.050   6.635
 1328TIP3    H2 3928   3.045   4.053   6.529
 1329TIP3   OH2 3929   3.965   0.132   0.190
 1329TIP3    H1 3930   4.046   0.168   0.154
 1329TIP3    H2 3931   3.967   0.039   0.165
 1330TIP3   OH2 3932   5.775   4.359   0.200
 1330TIP3    H1 3933   5.844   4.421   0.177
 1330TIP3    H2 3934   5.810   4.311   0.275
 1331TIP3   OH2 3935   2.830   2.270   0.781
 1331TIP3    H1 3936   2.834   2.206   0.852
 1331TIP3    H2 3937   2.877   2.346   0.815
 1332TIP3   OH2 3938   1.655   7.154   3.808
 1332TIP3    H1 3939   1.733   7.200   3.840
 1332TIP3    H2 3940   1.629   7.098   3.881
 1333TIP3   OH2 3941   4.499   2.993   1.179
 1333TIP3    H1 3942   4.582   3.028   1.213
 1333TIP3    H2 3943   4.522   2.954   1.095
 1334TIP3   OH2 3944   2.929   4.489   5.552
 1334TIP3    H1 3945   2.932   4.395   5.566
 1334TIP3    H2 3946   2.930   4.527   5.640
 1335TIP3   OH2 3947   1.126   2.440   1.791
 1335TIP3    H1 3948   1.078   2.361   1.767
 1335TIP3    H2 3949   1.212   2.428   1.751
 1336TIP3   OH2 3950   6.575   4.060   3.433
 1336TIP3    H1 3951   6.666   4.077   3.411
 1336TIP3    H2 3952   6.551   3.982   3.383
 1337TIP3   OH2 3953   1.327   6.516   4.288
 1337TIP3    H1 3954   1.369   6.485   4.368
 1337TIP3    H2 3955   1.392   6.573   4.247
 1338TIP3   OH2 3956   2.707   0.357   5.863
 1338TIP3    H1 3957   2.623   0.377   5.905
 1338TIP3    H2 3958   2.711   0.414   5.786
 1339TIP3   OH2 3959   6.260   5.763   5.719
 1339TIP3    H1 3960   6.268   5.820   5.643
 1339TIP3    H2 3961   6.332   5.700   5.710
 1340TIP3   OH2 3962   3.029   3.927   1.091
 1340TIP3    H1 3963   3.118   3.907   1.119
 1340TIP3    H2 3964   3.035   4.015   1.053
 1341TIP3   OH2 3965   6.894   7.108   4.888
 1341TIP3    H1 3966   6.825   7.140   4.832
 1341TIP3    H2 3967   6.851   7.089   4.972
 1342TIP3   OH2 3968   2.502   7.669   1.621
 1342TIP3    H1 3969   2.433   7.627   1.570
 1342TIP3    H2 3970   2.547   7.597   1.664
 1343TIP3   OH2 3971   1.250   7.311   6.406
 1343TIP3    H1 3972   1.233   7.373   6.335
 1343TIP3    H2 3973   1.190   7.338   6.476
 1344TIP3   OH2 3974   5.386   0.205   3.886
 1344TIP3    H1 3975   5.334   0.124   3.888
 1344TIP3    H2 3976   5.471   0.178   3.853
 1345TIP3   OH2 3977   5.517   4.483   0.111
 1345TIP3    H1 3978   5.584   4.432   0.157
 1345TIP3    H2 3979   5.538   4.574   0.132
 1346TIP3   OH2 3980   4.354   1.012   4.283
 1346TIP3    H1 3981   4.280   1.025   4.223
 1346TIP3    H2 3982   4.320   0.952   4.349
 1347TIP3   OH2 3983   5.610   3.705   2.949
 1347TIP3    H1 3984   5.651   3.780   2.906
 1347TIP3    H2 3985   5.517   3.728   2.954
 1348TIP3   OH2 3986   7.739   5.048   3.627
 1348TIP3    H1 3987   7.737   5.114   3.557
 1348TIP3    H2 3988   7.680   4.979   3.596
 1349TIP3   OH2 3989   2.461   7.742   3.360
 1349TIP3    H1 3990   2.401   7.673   3.332
 1349TIP3    H2 3991   2.547   7.712   3.331
 1350TIP3   OH2 3992   4.080   4.081   4.427
 1350TIP3    H1 3993   4.049   4.000   4.468
 1350TIP3    H2 3994   4.007   4.142   4.435
 1351TIP3   OH2 3995   6.365   7.746   4.194
 1351TIP3    H1 3996   6.388   7.729   4.102
 1351TIP3    H2 3997   6.392   7.836   4.210
 1352TIP3   OH2 3998   0.496   5.890   0.537
 1352TIP3    H1 3999   0.518   5.806   0.498
 1352TIP3    H2 4000   0.548   5.954   0.489
 1353TIP3   OH2 4001   1.207   2.265   6.409
 1353TIP3    H1 4002   1.201   2.261   6.504
 1353TIP3    H2 4003   1.122   2.233   6.378
 1354TIP3   OH2 4004   2.027   3.490   1.793
 1354TIP3    H1 4005   2.053   3.525   1.878
 1354TIP3    H2 4006   1.931   3.484   1.797
 1355TIP3   OH2 4007   4.551   4.880   6.670
 1355TIP3    H1 4008   4.590   4.937   6.603
 1355TIP3    H2 4009   4.510   4.940   6.731
 1356TIP3   OH2 4010   5.481   4.649   0.639
 1356TIP3    H1 4011   5.445   4.662   0.727
 1356TIP3    H2 4012   5.414   4.598   0.593
 1357TIP3   OH2 4013   0.750   0.333   2.086
 1357TIP3    H1 4014   0.746   0.321   2.180
 1357TIP3    H2 4015   0.658   0.333   2.058
 1358TIP3   OH2 4016   3.445   0.252   0.594
 1358TIP3    H1 4017   3.390   0.304   0.534
 1358TIP3    H2 4018   3.534   0.273   0.568
 1359TIP3   OH2 4019   0.783   7.318   3.828
 1359TIP3    H1 4020   0.762   7.404   3.864
 1359TIP3    H2 4021   0.708   7.294   3.775
 1360TIP3   OH2 4022   8.156   3.012   1.083
 1360TIP3    H1 4023   8.244   3.034   1.054
 1360TIP3    H2 4024   8.099   3.068   1.029
 1361TIP3   OH2 4025   1.617   3.095   5.961
 1361TIP3    H1 4026   1.528   3.079   5.992
 1361TIP3    H2 4027   1.639   3.018   5.909
 1362TIP3   OH2 4028   2.819   6.044   4.276
 1362TIP3    H1 4029   2.752   6.111   4.265
 1362TIP3    H2 4030   2.795   5.999   4.357
 1363TIP3   OH2 4031   3.453   4.329   6.518
 1363TIP3    H1 4032   3.423   4.395   6.455
 1363TIP3    H2 4033   3.510   4.272   6.467
 1364TIP3   OH2 4034   7.342   6.223   4.192
 1364TIP3    H1 4035   7.408   6.274   4.239
 1364TIP3    H2 4036   7.376   6.215   4.103
 1365TIP3   OH2 4037   7.613   2.507   3.248
 1365TIP3    H1 4038   7.664   2.502   3.329
 1365TIP3    H2 4039   7.538   2.562   3.270
 1366TIP3   OH2 4040   5.950   0.836   6.035
 1366TIP3    H1 4041   5.975   0.855   6.125
 1366TIP3    H2 4042   5.914   0.918   6.002
 1367TIP3   OH2 4043   7.822   5.515   1.727
 1367TIP3    H1 4044   7.888   5.582   1.711
 1367TIP3    H2 4045   7.868   5.446   1.775
 1368TIP3   OH2 4046   4.200   6.981   6.364
 1368TIP3    H1 4047   4.239   7.068   6.374
 1368TIP3    H2 4048   4.113   6.990   6.404
 1369TIP3   OH2 4049   6.992   1.624   5.473
 1369TIP3    H1 4050   7.057   1.686   5.439
 1369TIP3    H2 4051   7.012   1.542   5.427
 1370TIP3   OH2 4052   2.105   1.730   5.042
 1370TIP3    H1 4053   2.069   1.797   4.984
 1370TIP3    H2 4054   2.198   1.751   5.047
 1371TIP3   OH2 4055   2.187   2.680   1.436
 1371TIP3    H1 4056   2.126   2.750   1.458
 1371TIP3    H2 4057   2.224   2.652   1.519
 1372TIP3   OH2 4058   2.279   3.548   1.134
 1372TIP3    H1 4059   2.292   3.516   1.044
 1372TIP3    H2 4060   2.212   3.615   1.126
 1373TIP3   OH2 4061   0.411   2.030   5.691
 1373TIP3    H1 4062   0.328   1.987   5.712
 1373TIP3    H2 4063   0.462   2.025   5.773
 1374TIP3   OH2 4064   4.940   3.819   5.632
 1374TIP3    H1 4065   4.930   3.725   5.648
 1374TIP3    H2 4066   4.857   3.857   5.663
 1375TIP3   OH2 4067   7.728   1.458   0.629
 1375TIP3    H1 4068   7.632   1.460   0.629
 1375TIP3    H2 4069   7.751   1.422   0.544
 1376TIP3   OH2 4070   3.907   4.671   4.937
 1376TIP3    H1 4071   3.850   4.595   4.950
 1376TIP3    H2 4072   3.978   4.639   4.882
 1377TIP3   OH2 4073   7.569   4.089   4.414
 1377TIP3    H1 4074   7.618   4.019   4.457
 1377TIP3    H2 4075   7.557   4.155   4.482
 1378TIP3   OH2 4076   0.710   0.904   4.973
 1378TIP3    H1 4077   0.632   0.857   4.943
 1378TIP3    H2 4078   0.775   0.891   4.904
 1379TIP3   OH2 4079   1.937   0.468   0.121
 1379TIP3    H1 4080   2.014   0.413   0.134
 1379TIP3    H2 4081   1.863   0.412   0.144
 1380TIP3   OH2 4082   2.320   1.374   6.007
 1380TIP3    H1 4083   2.378   1.322   5.951
 1380TIP3    H2 4084   2.368   1.383   6.090
 1381TIP3   OH2 4085   5.431   1.470   2.765
 1381TIP3    H1 4086   5.470   1.386   2.741
 1381TIP3    H2 4087   5.337   1.457   2.750
 1382TIP3   OH2 4088   0.542   0.844   6.006
 1382TIP3    H1 4089   0.460   0.839   6.055
 1382TIP3    H2 4090   0.558   0.755   5.976
 1383TIP3   OH2 4091   7.360   1.809   0.079
 1383TIP3    H1 4092   7.444   1.796   0.035
 1383TIP3    H2 4093   7.294   1.796   0.011
 1384TIP3   OH2 4094   4.617   0.794   4.480
 1384TIP3    H1 4095   4.619   0.717   4.424
 1384TIP3    H2 4096   4.624   0.759   4.569
 1385TIP3   OH2 4097   5.718   4.448   0.607
 1385TIP3    H1 4098   5.641   4.493   0.641
 1385TIP3    H2 4099   5.728   4.482   0.518
 1386TIP3   OH2 4100   4.830   7.736   2.089
 1386TIP3    H1 4101   4.786   7.767   2.169
 1386TIP3    H2 4102   4.782   7.657   2.065
 1387TIP3   OH2 4103   2.353   4.367   1.346
 1387TIP3    H1 4104   2.397   4.337   1.267
 1387TIP3    H2 4105   2.382   4.306   1.414
 1388TIP3   OH2 4106   0.833   0.691   0.440
 1388TIP3    H1 4107   0.880   0.674   0.358
 1388TIP3    H2 4108   0.741   0.689   0.416
 1389TIP3   OH2 4109   4.795   6.978   2.821
 1389TIP3    H1 4110   4.726   6.978   2.887
 1389TIP3    H2 4111   4.859   6.915   2.854
 1390TIP3   OH2 4112   0.465   3.721   2.886
 1390TIP3    H1 4113   0.402   3.671   2.937
 1390TIP3    H2 4114   0.415   3.753   2.811
 1391TIP3   OH2 4115   5.783   7.730   1.704
 1391TIP3    H1 4116   5.701   7.720   1.752
 1391TIP3    H2 4117   5.774   7.814   1.660
 1392TIP3   OH2 4118   1.695   1.134   4.486
 1392TIP3    H1 4119   1.783   1.109   4.513
 1392TIP3    H2 4120   1.705   1.162   4.395
 1393TIP3   OH2 4121   0.059   3.930   3.155
 1393TIP3    H1 4122   0.054   3.951   3.062
 1393TIP3    H2 4123   0.112   3.850   3.159
 1394TIP3   OH2 4124   7.080   5.115   5.856
 1394TIP3    H1 4125   7.039   5.202   5.856
 1394TIP3    H2 4126   7.054   5.076   5.939
 1395TIP3   OH2 4127   2.600   7.112   5.423
 1395TIP3    H1 4128   2.527   7.145   5.476
 1395TIP3    H2 4129   2.654   7.063   5.484
 1396TIP3   OH2 4130   1.777   3.647   2.127
 1396TIP3    H1 4131   1.866   3.610   2.125
 1396TIP3    H2 4132   1.783   3.720   2.189
 1397TIP3   OH2 4133   3.667   1.791   2.030
 1397TIP3    H1 4134   3.745   1.738   2.047
 1397TIP3    H2 4135   3.684   1.874   2.076
 1398TIP3   OH2 4136   2.148   0.870   0.765
 1398TIP3    H1 4137   2.160   0.964   0.750
 1398TIP3    H2 4138   2.211   0.848   0.833
 1399TIP3   OH2 4139   1.858   3.255   3.606
 1399TIP3    H1 4140   1.815   3.192   3.664
 1399TIP3    H2 4141   1.897   3.319   3.665
 1400TIP3   OH2 4142   0.341   3.675   4.342
 1400TIP3    H1 4143   0.281   3.748   4.331
 1400TIP3    H2 4144   0.345   3.662   4.437
 1401TIP3   OH2 4145   2.270   3.482   1.407
 1401TIP3    H1 4146   2.185   3.516   1.432
 1401TIP3    H2 4147   2.274   3.493   1.312
 1402TIP3   OH2 4148   4.958   2.888   1.563
 1402TIP3    H1 4149   4.871   2.914   1.534
 1402TIP3    H2 4150   4.960   2.907   1.656
 1403TIP3   OH2 4151   1.250   5.348   6.207
 1403TIP3    H1 4152   1.250   5.383   6.296
 1403TIP3    H2 4153   1.336   5.372   6.172
 1404TIP3   OH2 4154   5.098   1.789   0.351
 1404TIP3    H1 4155   5.040   1.725   0.310
 1404TIP3    H2 4156   5.108   1.858   0.286
 1405TIP3   OH2 4157   3.903   2.229   4.321
 1405TIP3    H1 4158   3.821   2.179   4.330
 1405TIP3    H2 4159   3.897   2.267   4.233
 1406TIP3   OH2 4160   5.842   7.791   5.177
 1406TIP3    H1 4161   5.860   7.706   5.137
 1406TIP3    H2 4162   5.749   7.787   5.200
 1407TIP3   OH2 4163   1.775   4.908   1.912
 1407TIP3    H1 4164   1.726   4.921   1.994
 1407TIP3    H2 4165   1.717   4.940   1.844
 1408TIP3   OH2 4166   2.620   7.449   1.732
 1408TIP3    H1 4167   2.702   7.429   1.686
 1408TIP3    H2 4168   2.627   7.403   1.815
 1409TIP3   OH2 4169   1.968   7.806   5.941
 1409TIP3    H1 4170   1.931   7.854   6.015
 1409TIP3    H2 4171   2.034   7.749   5.981
 1410TIP3   OH2 4172   5.700   3.851   4.902
 1410TIP3    H1 4173   5.626   3.861   4.842
 1410TIP3    H2 4174   5.761   3.794   4.856
 1411TIP3   OH2 4175   0.375   7.199   6.768
 1411TIP3    H1 4176   0.420   7.273   6.809
 1411TIP3    H2 4177   0.388   7.214   6.674
 1412TIP3   OH2 4178   0.564   2.787   0.746
 1412TIP3    H1 4179   0.588   2.749   0.662
 1412TIP3    H2 4180   0.602   2.728   0.811
 1413TIP3   OH2 4181   1.006   1.571   5.242
 1413TIP3    H1 4182   0.927   1.549   5.291
 1413TIP3    H2 4183   1.067   1.499   5.262
 1414TIP3   OH2 4184   0.089   2.560   4.771
 1414TIP3    H1 4185   0.145   2.531   4.844
 1414TIP3    H2 4186   0.096   2.489   4.707
 1415TIP3   OH2 4187   2.043   4.261   5.277
 1415TIP3    H1 4188   2.030   4.338   5.222
 1415TIP3    H2 4189   2.004   4.285   5.361
 1416TIP3   OH2 4190   6.046   5.015   0.014
 1416TIP3    H1 4191   6.057   5.009   0.109
 1416TIP3    H2 4192   6.106   5.085  -0.013
 1417TIP3   OH2 4193   6.500   0.593   2.480
 1417TIP3    H1 4194   6.512   0.600   2.574
 1417TIP3    H2 4195   6.444   0.516   2.469
 1418TIP3   OH2 4196   4.505   2.649   3.313
 1418TIP3    H1 4197   4.580   2.683   3.363
 1418TIP3    H2 4198   4.523   2.556   3.302
 1419TIP3   OH2 4199   6.923   1.537   3.801
 1419TIP3    H1 4200   6.842   1.575   3.834
 1419TIP3    H2 4201   6.896   1.458   3.754
 1420TIP3   OH2 4202   4.199   3.076   0.647
 1420TIP3    H1 4203   4.239   3.102   0.730
 1420TIP3    H2 4204   4.108   3.106   0.654
 1421TIP3   OH2 4205   6.354   7.618   3.167
 1421TIP3    H1 4206   6.351   7.706   3.128
 1421TIP3    H2 4207   6.275   7.613   3.220
 1422TIP3   OH2 4208   7.877   5.863   4.943
 1422TIP3    H1 4209   7.971   5.849   4.955
 1422TIP3    H2 4210   7.844   5.882   5.031
 1423TIP3   OH2 4211   2.975   1.034   0.331
 1423TIP3    H1 4212   2.887   1.051   0.365
 1423TIP3    H2 4213   2.986   1.099   0.261
 1424TIP3   OH2 4214   2.649   0.245   4.636
 1424TIP3    H1 4215   2.627   0.331   4.672
 1424TIP3    H2 4216   2.648   0.258   4.541
 1425TIP3   OH2 4217   0.059   0.029   0.016
 1425TIP3    H1 4218   0.133   0.090   0.012
 1425TIP3    H2 4219   0.053  -0.006  -0.072
 1426TIP3   OH2 4220   1.172   6.278   0.813
 1426TIP3    H1 4221   1.148   6.194   0.852
 1426TIP3    H2 4222   1.256   6.300   0.854
 1427TIP3   OH2 4223   7.126   1.164   1.907
 1427TIP3    H1 4224   7.057   1.230   1.894
 1427TIP3    H2 4225   7.110   1.100   1.837
 1428TIP3   OH2 4226   2.751   0.046   0.339
 1428TIP3    H1 4227   2.803   0.093   0.405
 1428TIP3    H2 4228   2.697  -0.014   0.390
 1429TIP3   OH2 4229   4.288   2.333   0.537
 1429TIP3    H1 4230   4.256   2.257   0.488
 1429TIP3    H2 4231   4.242   2.407   0.497
 1430TIP3   OH2 4232   1.967   3.898   0.104
 1430TIP3    H1 4233   2.034   3.830   0.110
 1430TIP3    H2 4234   1.941   3.914   0.194
 1431TIP3   OH2 4235   0.687   7.494   2.274
 1431TIP3    H1 4236   0.613   7.440   2.246
 1431TIP3    H2 4237   0.758   7.469   2.215
 1432TIP3   OH2 4238   6.050   6.804   3.341
 1432TIP3    H1 4239   6.038   6.726   3.286
 1432TIP3    H2 4240   6.055   6.769   3.430
 1433TIP3   OH2 4241   8.058   6.830   2.524
 1433TIP3    H1 4242   8.027   6.863   2.439
 1433TIP3    H2 4243   8.152   6.847   2.523
 1434TIP3   OH2 4244   3.954   6.437   4.580
 1434TIP3    H1 4245   3.994   6.354   4.558
 1434TIP3    H2 4246   3.997   6.465   4.661
 1435TIP3   OH2 4247   6.679   7.323   2.811
 1435TIP3    H1 4248   6.642   7.405   2.844
 1435TIP3    H2 4249   6.623   7.255   2.848
 1436TIP3   OH2 4250   5.937   4.974   4.786
 1436TIP3    H1 4251   6.007   4.923   4.825
 1436TIP3    H2 4252   5.948   5.062   4.821
 1437TIP3   OH2 4253   4.479   3.306   3.783
 1437TIP3    H1 4254   4.541   3.379   3.781
 1437TIP3    H2 4255   4.533   3.228   3.792
 1438TIP3   OH2 4256   5.809   1.467   3.859
 1438TIP3    H1 4257   5.764   1.428   3.784
 1438TIP3    H2 4258   5.738   1.497   3.916
 1439TIP3   OH2 4259   5.314   3.587   4.756
 1439TIP3    H1 4260   5.232   3.623   4.722
 1439TIP3    H2 4261   5.309   3.493   4.738
 1440TIP3   OH2 4262   0.267   5.887   5.725
 1440TIP3    H1 4263   0.291   5.971   5.685
 1440TIP3    H2 4264   0.325   5.823   5.684
 1441TIP3   OH2 4265   7.094   1.577   2.036
 1441TIP3    H1 4266   7.043   1.656   2.017
 1441TIP3    H2 4267   7.183   1.600   2.008
 1442TIP3   OH2 4268   5.109   4.278   3.210
 1442TIP3    H1 4269   5.118   4.304   3.119
 1442TIP3    H2 4270   5.173   4.331   3.257
 1443TIP3   OH2 4271   1.462   4.131   6.166
 1443TIP3    H1 4272   1.555   4.137   6.144
 1443TIP3    H2 4273   1.422   4.205   6.120
 1444TIP3   OH2 4274   2.289   2.795   2.410
 1444TIP3    H1 4275   2.225   2.862   2.384
 1444TIP3    H2 4276   2.371   2.825   2.370
 1445TIP3   OH2 4277   0.534   0.893   3.044
 1445TIP3    H1 4278   0.503   0.851   2.964
 1445TIP3    H2 4279   0.627   0.912   3.026
 1446TIP3   OH2 4280   5.335   7.159   3.371
 1446TIP3    H1 4281   5.305   7.142   3.460
 1446TIP3    H2 4282   5.287   7.238   3.345
 1447TIP3   OH2 4283   2.419   3.438   5.743
 1447TIP3    H1 4284   2.509   3.406   5.746
 1447TIP3    H2 4285   2.414   3.488   5.661
 1448TIP3   OH2 4286   6.314   6.817   3.774
 1448TIP3    H1 4287   6.224   6.793   3.795
 1448TIP3    H2 4288   6.306   6.892   3.715
 1449TIP3   OH2 4289   7.368   0.411   5.382
 1449TIP3    H1 4290   7.294   0.377   5.432
 1449TIP3    H2 4291   7.353   0.505   5.378
 1450TIP3   OH2 4292   8.037   5.645   0.583
 1450TIP3    H1 4293   8.001   5.732   0.570
 1450TIP3    H2 4294   7.967   5.597   0.628
 1451TIP3   OH2 4295   2.859   6.280   4.634
 1451TIP3    H1 4296   2.851   6.185   4.625
 1451TIP3    H2 4297   2.948   6.293   4.666
 1452TIP3   OH2 4298   8.239   4.349   3.852
 1452TIP3    H1 4299   8.195   4.264   3.852
 1452TIP3    H2 4300   8.213   4.390   3.769
 1453TIP3   OH2 4301   7.574   7.209   4.051
 1453TIP3    H1 4302   7.588   7.166   3.967
 1453TIP3    H2 4303   7.579   7.138   4.115
 1454TIP3   OH2 4304   7.507   7.660   0.187
 1454TIP3    H1 4305   7.571   7.649   0.117
 1454TIP3    H2 4306   7.441   7.592   0.172
 1455TIP3   OH2 4307   7.769   1.075   5.242
 1455TIP3    H1 4308   7.811   1.132   5.177
 1455TIP3    H2 4309   7.697   1.128   5.277
 1456TIP3   OH2 4310   8.154   2.173   4.112
 1456TIP3    H1 4311   8.162   2.209   4.201
 1456TIP3    H2 4312   8.189   2.241   4.056
 1457TIP3   OH2 4313   7.108   7.000   3.613
 1457TIP3    H1 4314   7.118   6.918   3.662
 1457TIP3    H2 4315   7.187   7.050   3.633
 1458TIP3   OH2 4316   3.529   5.172   0.594
 1458TIP3    H1 4317   3.530   5.100   0.531
 1458TIP3    H2 4318   3.597   5.232   0.563
 1459TIP3   OH2 4319   7.915   4.453   2.432
 1459TIP3    H1 4320   7.859   4.384   2.398
 1459TIP3    H2 4321   7.856   4.525   2.451
 1460TIP3   OH2 4322   0.830   6.354   2.936
 1460TIP3    H1 4323   0.922   6.342   2.960
 1460TIP3    H2 4324   0.829   6.341   2.841
 1461TIP3   OH2 4325   2.805   7.355   5.060
 1461TIP3    H1 4326   2.740   7.400   5.007
 1461TIP3    H2 4327   2.886   7.361   5.009
 1462TIP3   OH2 4328   0.404   2.398   0.578
 1462TIP3    H1 4329   0.421   2.314   0.620
 1462TIP3    H2 4330   0.320   2.426   0.613
 1463TIP3   OH2 4331   5.221   4.101   5.993
 1463TIP3    H1 4332   5.227   4.197   5.992
 1463TIP3    H2 4333   5.253   4.074   5.907
 1464TIP3   OH2 4334   6.558   6.727   1.960
 1464TIP3    H1 4335   6.575   6.678   1.879
 1464TIP3    H2 4336   6.473   6.768   1.947
 1465TIP3   OH2 4337   2.906   5.697   3.861
 1465TIP3    H1 4338   2.939   5.634   3.925
 1465TIP3    H2 4339   2.812   5.682   3.858
 1466TIP3   OH2 4340   2.616   4.414   1.901
 1466TIP3    H1 4341   2.645   4.487   1.956
 1466TIP3    H2 4342   2.529   4.392   1.933
 1467TIP3   OH2 4343   4.666   0.483   3.911
 1467TIP3    H1 4344   4.657   0.465   4.005
 1467TIP3    H2 4345   4.616   0.413   3.869
 1468TIP3   OH2 4346   0.295   1.805   2.058
 1468TIP3    H1 4347   0.244   1.841   1.985
 1468TIP3    H2 4348   0.316   1.881   2.112
 1469TIP3   OH2 4349   2.042   2.549   5.586
 1469TIP3    H1 4350   2.113   2.492   5.555
 1469TIP3    H2 4351   2.004   2.502   5.660
 1470TIP3   OH2 4352   0.901   0.562   2.763
 1470TIP3    H1 4353   0.825   0.604   2.724
 1470TIP3    H2 4354   0.928   0.496   2.699
 1471TIP3   OH2 4355   3.618   6.332   1.962
 1471TIP3    H1 4356   3.703   6.341   1.918
 1471TIP3    H2 4357   3.564   6.402   1.923
 1472TIP3   OH2 4358   7.591   4.855   4.439
 1472TIP3    H1 4359   7.635   4.905   4.507
 1472TIP3    H2 4360   7.650   4.783   4.420
 1473TIP3   OH2 4361   0.721   4.065   3.835
 1473TIP3    H1 4362   0.682   4.059   3.922
 1473TIP3    H2 4363   0.743   4.157   3.824
 1474TIP3   OH2 4364   5.049   3.056   3.298
 1474TIP3    H1 4365   5.021   3.088   3.212
 1474TIP3    H2 4366   5.034   2.962   3.295
 1475TIP3   OH2 4367   2.918   0.692   1.219
 1475TIP3    H1 4368   2.972   0.684   1.140
 1475TIP3    H2 4369   2.972   0.742   1.280
 1476TIP3   OH2 4370   3.724   1.395   0.043
 1476TIP3    H1 4371   3.693   1.432   0.126
 1476TIP3    H2 4372   3.667   1.434  -0.023
 1477TIP3   OH2 4373   5.073   2.014   3.871
 1477TIP3    H1 4374   5.081   2.039   3.963
 1477TIP3    H2 4375   5.080   1.918   3.871
 1478TIP3   OH2 4376   3.289   7.363   6.660
 1478TIP3    H1 4377   3.273   7.359   6.754
 1478TIP3    H2 4378   3.229   7.299   6.622
 1479TIP3   OH2 4379   0.414   4.093   1.257
 1479TIP3    H1 4380   0.433   4.002   1.277
 1479TIP3    H2 4381   0.318   4.098   1.255
 1480TIP3   OH2 4382   0.936   2.083   0.047
 1480TIP3    H1 4383   1.002   2.013   0.044
 1480TIP3    H2 4384   0.987   2.163   0.061
 1481TIP3   OH2 4385   4.859   3.893   1.120
 1481TIP3    H1 4386   4.764   3.893   1.132
 1481TIP3    H2 4387   4.874   3.833   1.047
 1482TIP3   OH2 4388   6.197   4.210   1.325
 1482TIP3    H1 4389   6.229   4.192   1.414
 1482TIP3    H2 4390   6.114   4.163   1.320
 1483TIP3   OH2 4391   5.320   1.977   6.690
 1483TIP3    H1 4392   5.398   2.028   6.710
 1483TIP3    H2 4393   5.265   2.036   6.639
 1484TIP3   OH2 4394   5.361   0.986   4.430
 1484TIP3    H1 4395   5.303   0.958   4.360
 1484TIP3    H2 4396   5.316   0.961   4.511
 1485TIP3   OH2 4397   3.632   2.532   4.666
 1485TIP3    H1 4398   3.638   2.566   4.576
 1485TIP3    H2 4399   3.638   2.437   4.656
 1486TIP3   OH2 4400   1.084   1.613   1.027
 1486TIP3    H1 4401   1.070   1.674   1.100
 1486TIP3    H2 4402   1.178   1.615   1.011
 1487TIP3   OH2 4403   2.360   1.753   5.107
 1487TIP3    H1 4404   2.351   1.701   5.187
 1487TIP3    H2 4405   2.453   1.771   5.100
 1488TIP3   OH2 4406   0.722   7.115   0.225
 1488TIP3    H1 4407   0.693   7.158   0.306
 1488TIP3    H2 4408   0.681   7.028   0.229
 1489TIP3   OH2 4409   2.937   4.408   6.503
 1489TIP3    H1 4410   2.988   4.442   6.576
 1489TIP3    H2 4411   2.948   4.473   6.433
 1490TIP3   OH2 4412   5.064   5.715   6.565
 1490TIP3    H1 4413   5.134   5.769   6.604
 1490TIP3    H2 4414   5.042   5.653   6.634
 1491TIP3   OH2 4415   3.870   0.924   1.708
 1491TIP3    H1 4416   3.860   0.975   1.789
 1491TIP3    H2 4417   3.792   0.870   1.704
 1492TIP3   OH2 4418   5.119   2.184   4.103
 1492TIP3    H1 4419   5.055   2.253   4.123
 1492TIP3    H2 4420   5.167   2.172   4.185
 1493TIP3   OH2 4421   2.726   7.230   4.764
 1493TIP3    H1 4422   2.779   7.177   4.824
 1493TIP3    H2 4423   2.637   7.226   4.801
 1494TIP3   OH2 4424   6.768   0.060   2.831
 1494TIP3    H1 4425   6.704   0.049   2.760
 1494TIP3    H2 4426   6.737   0.002   2.900
 1495TIP3   OH2 4427   2.983   2.668   3.474
 1495TIP3    H1 4428   3.079   2.668   3.480
 1495TIP3    H2 4429   2.963   2.611   3.400
 1496TIP3   OH2 4430   4.583   2.307   2.891
 1496TIP3    H1 4431   4.519   2.340   2.954
 1496TIP3    H2 4432   4.668   2.327   2.930
 1497TIP3   OH2 4433   5.909   4.712   5.775
 1497TIP3    H1 4434   5.930   4.796   5.816
 1497TIP3    H2 4435   5.911   4.648   5.846
 1498TIP3   OH2 4436   5.826   3.712   2.166
 1498TIP3    H1 4437   5.780   3.782   2.120
 1498TIP3    H2 4438   5.798   3.632   2.122
 1499TIP3   OH2 4439   3.767   4.470   4.659
 1499TIP3    H1 4440   3.841   4.412   4.642
 1499TIP3    H2 4441   3.699   4.441   4.598
 1500TIP3   OH2 4442   7.980   2.986   0.701
 1500TIP3    H1 4443   7.987   3.018   0.791
 1500TIP3    H2 4444   7.894   3.016   0.672
 1501TIP3   OH2 4445   7.159   4.555   5.526
 1501TIP3    H1 4446   7.177   4.641   5.487
 1501TIP3    H2 4447   7.246   4.521   5.550
 1502TIP3   OH2 4448   3.512   6.322   2.548
 1502TIP3    H1 4449   3.468   6.266   2.611
 1502TIP3    H2 4450   3.471   6.408   2.560
 1503TIP3   OH2 4451   2.819   6.625   2.186
 1503TIP3    H1 4452   2.854   6.554   2.132
 1503TIP3    H2 4453   2.724   6.616   2.179
 1504TIP3   OH2 4454   5.560   0.143   0.888
 1504TIP3    H1 4455   5.579   0.162   0.796
 1504TIP3    H2 4456   5.465   0.151   0.895
 1505TIP3   OH2 4457   5.305   6.567   4.945
 1505TIP3    H1 4458   5.303   6.662   4.954
 1505TIP3    H2 4459   5.346   6.536   5.026
 1506TIP3   OH2 4460   3.228   3.600   5.799
 1506TIP3    H1 4461   3.171   3.591   5.722
 1506TIP3    H2 4462   3.313   3.625   5.764
 1507TIP3   OH2 4463   7.186   5.308   0.136
 1507TIP3    H1 4464   7.171   5.234   0.195
 1507TIP3    H2 4465   7.280   5.306   0.119
 1508TIP3   OH2 4466   2.373   1.370   1.301
 1508TIP3    H1 4467   2.421   1.374   1.217
 1508TIP3    H2 4468   2.417   1.301   1.350
 1509TIP3   OH2 4469   5.656   2.052   5.613
 1509TIP3    H1 4470   5.737   2.000   5.615
 1509TIP3    H2 4471   5.590   1.992   5.579
 1510TIP3   OH2 4472   8.192   5.653   3.295
 1510TIP3    H1 4473   8.099   5.675   3.295
 1510TIP3    H2 4474   8.204   5.601   3.374
 1511TIP3   OH2 4475   5.677   6.799   5.366
 1511TIP3    H1 4476   5.695   6.706   5.380
 1511TIP3    H2 4477   5.585   6.810   5.392
 1512TIP3   OH2 4478   0.389   2.541   1.827
 1512TIP3    H1 4479   0.367   2.489   1.750
 1512TIP3    H2 4480   0.356   2.629   1.807
 1513TIP3   OH2 4481   7.090   6.351   2.809
 1513TIP3    H1 4482   7.123   6.402   2.735
 1513TIP3    H2 4483   7.163   6.292   2.831
 1514TIP3   OH2 4484   2.447   4.673   2.153
 1514TIP3    H1 4485   2.540   4.655   2.139
 1514TIP3    H2 4486   2.444   4.715   2.239
 1515TIP3   OH2 4487   4.015   1.476   4.771
 1515TIP3    H1 4488   3.992   1.539   4.703
 1515TIP3    H2 4489   3.953   1.405   4.761
 1516TIP3   OH2 4490   3.101   7.622   3.665
 1516TIP3    H1 4491   3.074   7.642   3.576
 1516TIP3    H2 4492   3.117   7.707   3.705
 1517TIP3   OH2 4493   0.029   4.650   4.567
 1517TIP3    H1 4494   0.032   4.609   4.653
 1517TIP3    H2 4495   0.118   4.642   4.533
 1518TIP3   OH2 4496   7.981   7.380   4.731
 1518TIP3    H1 4497   8.023   7.436   4.796
 1518TIP3    H2 4498   8.051   7.320   4.703
 1519TIP3   OH2 4499   0.483   4.050   6.310
 1519TIP3    H1 4500   0.460   3.998   6.233
 1519TIP3    H2 4501   0.556   4.004   6.350
 1520TIP3   OH2 4502   2.398   2.520   4.715
 1520TIP3    H1 4503   2.454   2.591   4.749
 1520TIP3    H2 4504   2.314   2.562   4.698
 1521TIP3   OH2 4505   4.922   2.741   5.306
 1521TIP3    H1 4506   4.838   2.697   5.311
 1521TIP3    H2 4507   4.910   2.821   5.358
 1522TIP3   OH2 4508   4.089   2.246   1.556
 1522TIP3    H1 4509   4.083   2.218   1.647
 1522TIP3    H2 4510   4.156   2.314   1.555
 1523TIP3   OH2 4511   2.658   2.591   2.681
 1523TIP3    H1 4512   2.716   2.646   2.628
 1523TIP3    H2 4513   2.570   2.612   2.649
 1524TIP3   OH2 4514   6.904   4.536   1.023
 1524TIP3    H1 4515   6.974   4.483   1.062
 1524TIP3    H2 4516   6.888   4.605   1.087
 1525TIP3   OH2 4517   7.724   3.091   5.305
 1525TIP3    H1 4518   7.714   3.019   5.368
 1525TIP3    H2 4519   7.657   3.073   5.239
 1526TIP3   OH2 4520   1.775   3.561   5.290
 1526TIP3    H1 4521   1.751   3.484   5.341
 1526TIP3    H2 4522   1.790   3.528   5.201
 1527TIP3   OH2 4523   5.845   1.973   6.064
 1527TIP3    H1 4524   5.923   1.917   6.062
 1527TIP3    H2 4525   5.837   2.000   6.155
 1528TIP3   OH2 4526   3.082   5.822   0.659
 1528TIP3    H1 4527   3.138   5.822   0.582
 1528TIP3    H2 4528   2.995   5.847   0.626
 1529TIP3   OH2 4529   6.739   0.646   1.588
 1529TIP3    H1 4530   6.716   0.662   1.497
 1529TIP3    H2 4531   6.808   0.580   1.584
 1530TIP3   OH2 4532   2.291   5.719   6.378
 1530TIP3    H1 4533   2.365   5.701   6.320
 1530TIP3    H2 4534   2.311   5.669   6.458
 1531TIP3   OH2 4535   5.907   4.677   6.072
 1531TIP3    H1 4536   5.918   4.582   6.066
 1531TIP3    H2 4537   5.991   4.713   6.044
 1532TIP3   OH2 4538   5.483   2.332   4.400
 1532TIP3    H1 4539   5.393   2.360   4.382
 1532TIP3    H2 4540   5.531   2.414   4.414
 1533TIP3   OH2 4541   7.634   7.295   3.529
 1533TIP3    H1 4542   7.603   7.242   3.602
 1533TIP3    H2 4543   7.701   7.351   3.566
 1534TIP3   OH2 4544   1.182   6.013   3.983
 1534TIP3    H1 4545   1.226   6.091   3.949
 1534TIP3    H2 4546   1.233   5.987   4.060
 1535TIP3   OH2 4547   4.577   7.839   5.333
 1535TIP3    H1 4548   4.499   7.811   5.381
 1535TIP3    H2 4549   4.604   7.760   5.286
 1536TIP3   OH2 4550   5.959   5.419   6.529
 1536TIP3    H1 4551   5.956   5.468   6.611
 1536TIP3    H2 4552   5.876   5.437   6.486
 1537TIP3   OH2 4553   4.379   3.857   4.780
 1537TIP3    H1 4554   4.431   3.785   4.815
 1537TIP3    H2 4555   4.441   3.910   4.730
 1538TIP3   OH2 4556   4.817   6.186   6.640
 1538TIP3    H1 4557   4.768   6.157   6.564
 1538TIP3    H2 4558   4.797   6.280   6.647
 1539TIP3   OH2 4559   1.927   2.182   0.556
 1539TIP3    H1 4560   2.018   2.174   0.528
 1539TIP3    H2 4561   1.891   2.253   0.503
 1540TIP3   OH2 4562   0.628   6.388   5.865
 1540TIP3    H1 4563   0.562   6.448   5.899
 1540TIP3    H2 4564   0.638   6.322   5.934
 1541TIP3   OH2 4565   7.832   4.273   1.230
 1541TIP3    H1 4566   7.818   4.213   1.303
 1541TIP3    H2 4567   7.780   4.237   1.158
 1542TIP3   OH2 4568   3.904   3.060   3.741
 1542TIP3    H1 4569   3.955   3.131   3.702
 1542TIP3    H2 4570   3.898   3.082   3.834
 1543TIP3   OH2 4571   7.457   6.146   0.119
 1543TIP3    H1 4572   7.535   6.093   0.101
 1543TIP3    H2 4573   7.398   6.127   0.046
 1544TIP3   OH2 4574   7.481   6.173   1.559
 1544TIP3    H1 4575   7.480   6.152   1.465
 1544TIP3    H2 4576   7.454   6.265   1.563
 1545TIP3   OH2 4577   5.910   6.419   3.842
 1545TIP3    H1 4578   5.956   6.335   3.843
 1545TIP3    H2 4579   5.820   6.397   3.864
 1546TIP3   OH2 4580   4.381   6.211   4.790
 1546TIP3    H1 4581   4.443   6.176   4.854
 1546TIP3    H2 4582   4.435   6.268   4.734
 1547TIP3   OH2 4583   6.559   6.181   4.790
 1547TIP3    H1 4584   6.567   6.243   4.863
 1547TIP3    H2 4585   6.621   6.111   4.811
 1548TIP3   OH2 4586   1.280   4.179   5.858
 1548TIP3    H1 4587   1.237   4.234   5.793
 1548TIP3    H2 4588   1.373   4.203   5.852
 1549TIP3   OH2 4589   2.455   1.194   1.738
 1549TIP3    H1 4590   2.491   1.208   1.825
 1549TIP3    H2 4591   2.361   1.188   1.751
 1550TIP3   OH2 4592   5.956   2.356   2.834
 1550TIP3    H1 4593   6.020   2.339   2.904
 1550TIP3    H2 4594   5.876   2.313   2.864
 1551TIP3   OH2 4595   1.587   0.482   4.515
 1551TIP3    H1 4596   1.623   0.568   4.492
 1551TIP3    H2 4597   1.509   0.502   4.568
 1552TIP3   OH2 4598   6.849   7.651   4.974
 1552TIP3    H1 4599   6.927   7.681   4.928
 1552TIP3    H2 4600   6.864   7.557   4.989
 1553TIP3   OH2 4601   3.554   4.297   5.622
 1553TIP3    H1 4602   3.496   4.268   5.552
 1553TIP3    H2 4603   3.497   4.343   5.683
 1554TIP3   OH2 4604   3.230   6.530   4.026
 1554TIP3    H1 4605   3.176   6.482   4.090
 1554TIP3    H2 4606   3.176   6.533   3.947
 1555TIP3   OH2 4607   3.740   6.769   0.498
 1555TIP3    H1 4608   3.652   6.747   0.528
 1555TIP3    H2 4609   3.767   6.693   0.447
 1556TIP3   OH2 4610   2.557   0.888   6.697
 1556TIP3    H1 4611   2.505   0.855   6.770
 1556TIP3    H2 4612   2.597   0.968   6.731
 1557TIP3   OH2 4613   1.448   0.265   2.601
 1557TIP3    H1 4614   1.372   0.256   2.658
 1557TIP3    H2 4615   1.412   0.269   2.512
 1558TIP3   OH2 4616   5.008   7.047   3.907
 1558TIP3    H1 4617   5.065   6.976   3.876
 1558TIP3    H2 4618   4.956   7.007   3.977
 1559TIP3   OH2 4619   0.003   3.309   0.274
 1559TIP3    H1 4620  -0.050   3.342   0.346
 1559TIP3    H2 4621  -0.060   3.279   0.209
 1560TIP3   OH2 4622   4.749   6.286   4.080
 1560TIP3    H1 4623   4.786   6.206   4.043
 1560TIP3    H2 4624   4.743   6.268   4.174
 1561TIP3   OH2 4625   4.258   4.844   4.728
 1561TIP3    H1 4626   4.239   4.757   4.695
 1561TIP3    H2 4627   4.177   4.872   4.771
 1562TIP3   OH2 4628   6.118   2.159   3.010
 1562TIP3    H1 4629   6.175   2.090   3.042
 1562TIP3    H2 4630   6.078   2.196   3.089
 1563TIP3   OH2 4631   3.193   4.361   4.887
 1563TIP3    H1 4632   3.161   4.377   4.799
 1563TIP3    H2 4633   3.181   4.445   4.933
 1564TIP3   OH2 4634   6.614   3.662   3.949
 1564TIP3    H1 4635   6.683   3.641   4.012
 1564TIP3    H2 4636   6.611   3.757   3.947
 1565TIP3   OH2 4637   7.430   1.214   2.965
 1565TIP3    H1 4638   7.340   1.184   2.950
 1565TIP3    H2 4639   7.446   1.195   3.057
 1566TIP3   OH2 4640   3.978   4.028   5.129
 1566TIP3    H1 4641   3.951   4.111   5.169
 1566TIP3    H2 4642   4.073   4.038   5.115
 1567TIP3   OH2 4643   2.339   3.955   5.266
 1567TIP3    H1 4644   2.364   3.863   5.281
 1567TIP3    H2 4645   2.248   3.960   5.296
 1568TIP3   OH2 4646   2.055   6.833   1.962
 1568TIP3    H1 4647   1.960   6.838   1.955
 1568TIP3    H2 4648   2.081   6.769   1.896
 1569TIP3   OH2 4649   4.274   1.540   5.644
 1569TIP3    H1 4650   4.347   1.583   5.600
 1569TIP3    H2 4651   4.295   1.547   5.737
 1570TIP3   OH2 4652   4.612   5.672   4.501
 1570TIP3    H1 4653   4.548   5.611   4.464
 1570TIP3    H2 4654   4.560   5.735   4.550
 1571TIP3   OH2 4655   7.947   0.209   2.042
 1571TIP3    H1 4656   7.964   0.165   2.126
 1571TIP3    H2 4657   7.992   0.155   1.977
 1572TIP3   OH2 4658   4.691   2.857   1.886
 1572TIP3    H1 4659   4.645   2.842   1.969
 1572TIP3    H2 4660   4.756   2.787   1.882
 1573TIP3   OH2 4661   2.003   1.740   6.173
 1573TIP3    H1 4662   1.922   1.778   6.206
 1573TIP3    H2 4663   2.004   1.651   6.209
 1574TIP3   OH2 4664   1.547   0.792   5.338
 1574TIP3    H1 4665   1.569   0.884   5.323
 1574TIP3    H2 4666   1.484   0.771   5.269
 1575TIP3   OH2 4667   1.811   7.458   4.741
 1575TIP3    H1 4668   1.724   7.419   4.747
 1575TIP3    H2 4669   1.801   7.544   4.780
 1576TIP3   OH2 4670   1.722   5.743   2.520
 1576TIP3    H1 4671   1.732   5.657   2.561
 1576TIP3    H2 4672   1.683   5.725   2.435
 1577TIP3   OH2 4673   2.550   0.333   0.884
 1577TIP3    H1 4674   2.566   0.343   0.790
 1577TIP3    H2 4675   2.554   0.238   0.899
 1578TIP3   OH2 4676   4.262   1.617   3.507
 1578TIP3    H1 4677   4.180   1.568   3.499
 1578TIP3    H2 4678   4.286   1.610   3.599
 1579TIP3   OH2 4679   6.108   2.334   6.432
 1579TIP3    H1 4680   6.057   2.365   6.507
 1579TIP3    H2 4681   6.199   2.348   6.457
 1580TIP3   OH2 4682   8.225   7.371   0.797
 1580TIP3    H1 4683   8.311   7.351   0.761
 1580TIP3    H2 4684   8.222   7.467   0.800
 1581TIP3   OH2 4685   6.075   6.232   6.745
 1581TIP3    H1 4686   6.039   6.317   6.721
 1581TIP3    H2 4687   6.166   6.235   6.715
 1582TIP3   OH2 4688   2.054   6.699   5.276
 1582TIP3    H1 4689   2.119   6.712   5.206
 1582TIP3    H2 4690   2.104   6.708   5.357
 1583TIP3   OH2 4691   7.529   6.453   1.580
 1583TIP3    H1 4692   7.598   6.489   1.524
 1583TIP3    H2 4693   7.563   6.463   1.669
 1584TIP3   OH2 4694   1.768   2.847   5.784
 1584TIP3    H1 4695   1.763   2.807   5.697
 1584TIP3    H2 4696   1.860   2.842   5.808
 1585TIP3   OH2 4697   4.040   0.717   2.902
 1585TIP3    H1 4698   4.079   0.803   2.916
 1585TIP3    H2 4699   4.050   0.672   2.986
 1586TIP3   OH2 4700   4.688   7.301   3.448
 1586TIP3    H1 4701   4.656   7.381   3.488
 1586TIP3    H2 4702   4.754   7.330   3.384
 1587TIP3   OH2 4703   1.756   5.748   3.346
 1587TIP3    H1 4704   1.722   5.659   3.356
 1587TIP3    H2 4705   1.842   5.745   3.387
 1588TIP3   OH2 4706   2.681   7.218   0.075
 1588TIP3    H1 4707   2.670   7.141   0.130
 1588TIP3    H2 4708   2.766   7.254   0.100
 1589TIP3   OH2 4709   2.601   1.933   3.985
 1589TIP3    H1 4710   2.635   1.844   3.979
 1589TIP3    H2 4711   2.674   1.988   3.957
 1590TIP3   OH2 4712   5.928   6.757   2.907
 1590TIP3    H1 4713   5.926   6.670   2.867
 1590TIP3    H2 4714   5.994   6.750   2.976
 1591TIP3   OH2 4715   2.921   5.624   1.233
 1591TIP3    H1 4716   2.864   5.701   1.236
 1591TIP3    H2 4717   3.005   5.658   1.203
 1592TIP3   OH2 4718   7.889   3.943   5.599
 1592TIP3    H1 4719   7.968   3.944   5.545
 1592TIP3    H2 4720   7.914   3.896   5.678
 1593TIP3   OH2 4721   1.262   7.712   2.563
 1593TIP3    H1 4722   1.252   7.620   2.588
 1593TIP3    H2 4723   1.208   7.760   2.626
 1594TIP3   OH2 4724   3.421   7.710   3.190
 1594TIP3    H1 4725   3.357   7.758   3.243
 1594TIP3    H2 4726   3.506   7.744   3.218
 1595TIP3   OH2 4727   5.837   1.872   1.060
 1595TIP3    H1 4728   5.828   1.838   1.149
 1595TIP3    H2 4729   5.831   1.795   1.004
 1596TIP3   OH2 4730   6.460   5.432   1.579
 1596TIP3    H1 4731   6.399   5.505   1.589
 1596TIP3    H2 4732   6.425   5.363   1.635
 1597TIP3   OH2 4733   6.095   4.201   0.707
 1597TIP3    H1 4734   6.155   4.265   0.745
 1597TIP3    H2 4735   6.150   4.127   0.683
 1598TIP3   OH2 4736   7.263   6.166   3.157
 1598TIP3    H1 4737   7.273   6.083   3.202
 1598TIP3    H2 4738   7.174   6.194   3.177
 1599TIP3   OH2 4739   2.316   7.342   2.459
 1599TIP3    H1 4740   2.242   7.287   2.484
 1599TIP3    H2 4741   2.370   7.346   2.538
 1600TIP3   OH2 4742   5.595   7.540   3.373
 1600TIP3    H1 4743   5.628   7.522   3.285
 1600TIP3    H2 4744   5.550   7.460   3.399
 1601TIP3   OH2 4745   6.613   0.158   0.567
 1601TIP3    H1 4746   6.598   0.238   0.516
 1601TIP3    H2 4747   6.542   0.099   0.541
 1602TIP3   OH2 4748   5.028   0.988   5.274
 1602TIP3    H1 4749   5.037   1.052   5.345
 1602TIP3    H2 4750   4.935   0.992   5.251
 1603TIP3   OH2 4751   1.585   6.671   0.667
 1603TIP3    H1 4752   1.558   6.751   0.711
 1603TIP3    H2 4753   1.503   6.628   0.643
 1604TIP3   OH2 4754   0.763   4.890   2.113
 1604TIP3    H1 4755   0.754   4.808   2.162
 1604TIP3    H2 4756   0.835   4.935   2.156
 1605TIP3   OH2 4757   3.713   2.973   5.022
 1605TIP3    H1 4758   3.684   2.935   5.106
 1605TIP3    H2 4759   3.686   2.908   4.957
 1606TIP3   OH2 4760   3.085   6.607   0.698
 1606TIP3    H1 4761   3.155   6.545   0.678
 1606TIP3    H2 4762   3.006   6.567   0.663
 1607TIP3   OH2 4763   8.237   3.403   4.041
 1607TIP3    H1 4764   8.282   3.456   3.976
 1607TIP3    H2 4765   8.252   3.312   4.012
 1608TIP3   OH2 4766   6.637   0.511   0.194
 1608TIP3    H1 4767   6.556   0.538   0.152
 1608TIP3    H2 4768   6.686   0.464   0.127
 1609TIP3   OH2 4769   3.890   3.873   3.511
 1609TIP3    H1 4770   3.832   3.877   3.435
 1609TIP3    H2 4771   3.844   3.818   3.574
 1610TIP3   OH2 4772   4.120   1.009   4.088
 1610TIP3    H1 4773   4.044   0.977   4.039
 1610TIP3    H2 4774   4.194   0.960   4.052
 1611TIP3   OH2 4775   4.190   3.798   5.057
 1611TIP3    H1 4776   4.107   3.843   5.040
 1611TIP3    H2 4777   4.215   3.760   4.972
 1612TIP3   OH2 4778   2.271   6.172   3.824
 1612TIP3    H1 4779   2.360   6.146   3.799
 1612TIP3    H2 4780   2.275   6.267   3.831
 1613TIP3   OH2 4781   5.544   3.230   5.476
 1613TIP3    H1 4782   5.457   3.218   5.513
 1613TIP3    H2 4783   5.579   3.308   5.520
 1614TIP3   OH2 4784   6.019   1.554   6.360
 1614TIP3    H1 4785   5.955   1.528   6.427
 1614TIP3    H2 4786   5.971   1.615   6.304
 1615TIP3   OH2 4787   3.112   2.178   0.092
 1615TIP3    H1 4788   3.193   2.229   0.092
 1615TIP3    H2 4789   3.066   2.207   0.171
 1616TIP3   OH2 4790   6.115   2.089   6.273
 1616TIP3    H1 4791   6.041   2.040   6.309
 1616TIP3    H2 4792   6.115   2.172   6.321
 1617TIP3   OH2 4793   3.714   3.372   0.215
 1617TIP3    H1 4794   3.759   3.288   0.231
 1617TIP3    H2 4795   3.770   3.437   0.255
 1618TIP3   OH2 4796   8.239   1.945   0.900
 1618TIP3    H1 4797   8.327   1.979   0.918
 1618TIP3    H2 4798   8.212   1.904   0.981
 1619TIP3   OH2 4799   5.065   7.484   4.980
 1619TIP3    H1 4800   5.103   7.475   5.067
 1619TIP3    H2 4801   5.106   7.563   4.944
 1620TIP3   OH2 4802   5.884   0.504   0.333
 1620TIP3    H1 4803   5.973   0.527   0.305
 1620TIP3    H2 4804   5.886   0.515   0.428
 1621TIP3   OH2 4805   5.875   0.976   3.860
 1621TIP3    H1 4806   5.954   1.012   3.901
 1621TIP3    H2 4807   5.804   1.004   3.919
 1622TIP3   OH2 4808   8.057   0.984   2.175
 1622TIP3    H1 4809   8.090   1.006   2.087
 1622TIP3    H2 4810   8.041   0.890   2.172
 1623TIP3   OH2 4811   7.338   1.760   5.588
 1623TIP3    H1 4812   7.392   1.808   5.650
 1623TIP3    H2 4813   7.377   1.672   5.585
 1624TIP3   OH2 4814   6.298   3.505   5.347
 1624TIP3    H1 4815   6.368   3.559   5.384
 1624TIP3    H2 4816   6.322   3.493   5.256
 1625TIP3   OH2 4817   7.127   6.054   0.287
 1625TIP3    H1 4818   7.055   6.037   0.227
 1625TIP3    H2 4819   7.166   5.968   0.304
 1626TIP3   OH2 4820   2.745   6.239   6.731
 1626TIP3    H1 4821   2.684   6.306   6.761
 1626TIP3    H2 4822   2.829   6.285   6.723
 1627TIP3   OH2 4823   5.426   3.536   5.371
 1627TIP3    H1 4824   5.347   3.539   5.425
 1627TIP3    H2 4825   5.497   3.517   5.433
 1628TIP3   OH2 4826   0.311   7.691   3.490
 1628TIP3    H1 4827   0.394   7.650   3.512
 1628TIP3    H2 4828   0.254   7.672   3.564
 1629TIP3   OH2 4829   0.382   0.916   6.324
 1629TIP3    H1 4830   0.308   0.894   6.380
 1629TIP3    H2 4831   0.351   0.900   6.235
 1630TIP3   OH2 4832   3.577   0.804   2.696
 1630TIP3    H1 4833   3.619   0.731   2.740
 1630TIP3    H2 4834   3.492   0.770   2.668
 1631TIP3   OH2 4835   0.929   0.221   1.613
 1631TIP3    H1 4836   0.856   0.278   1.639
 1631TIP3    H2 4837   0.972   0.268   1.541
 1632TIP3   OH2 4838   7.947   2.730   0.462
 1632TIP3    H1 4839   8.014   2.784   0.504
 1632TIP3    H2 4840   7.997   2.663   0.415
 1633TIP3   OH2 4841   2.711   5.865   1.928
 1633TIP3    H1 4842   2.751   5.842   1.844
 1633TIP3    H2 4843   2.625   5.824   1.926
 1634TIP3   OH2 4844   7.317   6.685   2.335
 1634TIP3    H1 4845   7.275   6.601   2.314
 1634TIP3    H2 4846   7.400   6.682   2.288
 1635TIP3   OH2 4847   1.737   7.377   1.185
 1635TIP3    H1 4848   1.698   7.322   1.117
 1635TIP3    H2 4849   1.821   7.335   1.204
 1636TIP3   OH2 4850   4.575   0.729   5.241
 1636TIP3    H1 4851   4.651   0.765   5.286
 1636TIP3    H2 4852   4.527   0.682   5.309
 1637TIP3   OH2 4853   7.754   6.555   2.743
 1637TIP3    H1 4854   7.737   6.598   2.659
 1637TIP3    H2 4855   7.796   6.472   2.719
 1638TIP3   OH2 4856   1.390   1.306   3.692
 1638TIP3    H1 4857   1.434   1.382   3.729
 1638TIP3    H2 4858   1.330   1.277   3.760
 1639TIP3   OH2 4859   5.258   0.344   0.950
 1639TIP3    H1 4860   5.332   0.373   1.003
 1639TIP3    H2 4861   5.221   0.270   0.998
 1640TIP3   OH2 4862   7.494   7.645   6.074
 1640TIP3    H1 4863   7.505   7.692   5.991
 1640TIP3    H2 4864   7.582   7.641   6.111
 1641TIP3   OH2 4865   2.791   0.408   4.390
 1641TIP3    H1 4866   2.836   0.325   4.410
 1641TIP3    H2 4867   2.857   0.475   4.408
 1642TIP3   OH2 4868   6.444   0.380   5.308
 1642TIP3    H1 4869   6.434   0.425   5.392
 1642TIP3    H2 4870   6.513   0.429   5.263
 1643TIP3   OH2 4871   3.578   0.473   0.126
 1643TIP3    H1 4872   3.593   0.491   0.219
 1643TIP3    H2 4873   3.618   0.547   0.081
 1644TIP3   OH2 4874   5.407   5.746   6.147
 1644TIP3    H1 4875   5.361   5.726   6.065
 1644TIP3    H2 4876   5.340   5.739   6.215
 1645TIP3   OH2 4877   2.359   0.340   3.474
 1645TIP3    H1 4878   2.403   0.312   3.555
 1645TIP3    H2 4879   2.272   0.301   3.480
 1646TIP3   OH2 4880   8.233   3.173   2.371
 1646TIP3    H1 4881   8.285   3.094   2.356
 1646TIP3    H2 4882   8.151   3.141   2.408
 1647TIP3   OH2 4883   6.924   0.833   2.832
 1647TIP3    H1 4884   6.936   0.916   2.878
 1647TIP3    H2 4885   6.976   0.770   2.881
 1648TIP3   OH2 4886   0.780   6.063   4.360
 1648TIP3    H1 4887   0.693   6.061   4.402
 1648TIP3    H2 4888   0.827   5.990   4.400
 1649TIP3   OH2 4889   6.957   6.479   0.732
 1649TIP3    H1 4890   7.039   6.430   0.724
 1649TIP3    H2 4891   6.889   6.413   0.722
 1650TIP3   OH2 4892   5.641   1.054   1.924
 1650TIP3    H1 4893   5.670   1.025   1.837
 1650TIP3    H2 4894   5.545   1.046   1.921
 1651TIP3   OH2 4895   4.938   7.161   3.023
 1651TIP3    H1 4896   4.983   7.225   2.968
 1651TIP3    H2 4897   4.932   7.083   2.969
 1652TIP3   OH2 4898   0.472   6.886   4.733
 1652TIP3    H1 4899   0.545   6.835   4.767
 1652TIP3    H2 4900   0.479   6.878   4.638
 1653TIP3   OH2 4901   7.932   3.529   1.420
 1653TIP3    H1 4902   7.839   3.530   1.398
 1653TIP3    H2 4903   7.970   3.464   1.360
 1654TIP3   OH2 4904   5.013   5.193   4.405
 1654TIP3    H1 4905   4.969   5.184   4.489
 1654TIP3    H2 4906   5.100   5.154   4.419
 1655TIP3   OH2 4907   6.497   7.774   5.804
 1655TIP3    H1 4908   6.498   7.768   5.899
 1655TIP3    H2 4909   6.440   7.849   5.785
 1656TIP3   OH2 4910   2.806   3.340   6.686
 1656TIP3    H1 4911   2.769   3.427   6.678
 1656TIP3    H2 4912   2.901   3.353   6.678
 1657TIP3   OH2 4913   4.314   5.896   0.946
 1657TIP3    H1 4914   4.353   5.812   0.972
 1657TIP3    H2 4915   4.275   5.930   1.027
 1658TIP3   OH2 4916   0.014   7.388   6.660
 1658TIP3    H1 4917   0.052   7.342   6.735
 1658TIP3    H2 4918   0.011   7.322   6.590
 1659TIP3   OH2 4919   0.902   4.528   4.932
 1659TIP3    H1 4920   0.842   4.598   4.908
 1659TIP3    H2 4921   0.955   4.565   5.003
 1660TIP3   OH2 4922   6.571   0.126   1.329
 1660TIP3    H1 4923   6.479   0.148   1.318
 1660TIP3    H2 4924   6.574   0.078   1.412
 1661TIP3   OH2 4925   1.562   0.092   5.710
 1661TIP3    H1 4926   1.577   0.091   5.805
 1661TIP3    H2 4927   1.639   0.136   5.675
 1662TIP3   OH2 4928   5.145   6.197   0.844
 1662TIP3    H1 4929   5.187   6.219   0.760
 1662TIP3    H2 4930   5.217   6.170   0.901
 1663TIP3   OH2 4931   3.772   2.819   1.728
 1663TIP3    H1 4932   3.824   2.772   1.662
 1663TIP3    H2 4933   3.837   2.869   1.777
 1664TIP3   OH2 4934   4.092   4.538   4.811
 1664TIP3    H1 4935   4.090   4.457   4.760
 1664TIP3    H2 4936   4.182   4.546   4.840
 1665TIP3   OH2 4937   7.952   6.123   3.905
 1665TIP3    H1 4938   7.900   6.045   3.924
 1665TIP3    H2 4939   8.009   6.097   3.832
 1666TIP3   OH2 4940   4.142   1.350   2.152
 1666TIP3    H1 4941   4.232   1.332   2.178
 1666TIP3    H2 4942   4.142   1.443   2.129
 1667TIP3   OH2 4943   3.697   1.177   6.037
 1667TIP3    H1 4944   3.707   1.264   6.076
 1667TIP3    H2 4945   3.631   1.188   5.969
 1668TIP3   OH2 4946   7.138   2.592   2.134
 1668TIP3    H1 4947   7.067   2.533   2.109
 1668TIP3    H2 4948   7.108   2.635   2.214
 1669TIP3   OH2 4949   0.505   3.402   0.787
 1669TIP3    H1 4950   0.499   3.329   0.849
 1669TIP3    H2 4951   0.461   3.475   0.831
 1670TIP3   OH2 4952   1.285   0.982   3.910
 1670TIP3    H1 4953   1.230   1.057   3.888
 1670TIP3    H2 4954   1.351   1.017   3.969
 1671TIP3   OH2 4955   7.306   0.852   5.104
 1671TIP3    H1 4956   7.397   0.883   5.099
 1671TIP3    H2 4957   7.270   0.895   5.181
 1672TIP3   OH2 4958   4.082   0.210   0.507
 1672TIP3    H1 4959   4.068   0.287   0.453
 1672TIP3    H2 4960   4.003   0.157   0.493
 1673TIP3   OH2 4961   0.145   3.488   4.825
 1673TIP3    H1 4962   0.089   3.533   4.762
 1673TIP3    H2 4963   0.088   3.474   4.901
 1674TIP3   OH2 4964   3.761   3.499   5.064
 1674TIP3    H1 4965   3.673   3.461   5.061
 1674TIP3    H2 4966   3.747   3.591   5.085
 1675TIP3   OH2 4967   2.865   6.504   1.927
 1675TIP3    H1 4968   2.788   6.475   1.878
 1675TIP3    H2 4969   2.863   6.599   1.922
 1676TIP3   OH2 4970   7.759   2.450   1.125
 1676TIP3    H1 4971   7.683   2.468   1.180
 1676TIP3    H2 4972   7.796   2.536   1.105
 1677TIP3   OH2 4973   5.126   2.904   0.294
 1677TIP3    H1 4974   5.133   2.985   0.243
 1677TIP3    H2 4975   5.088   2.931   0.377
 1678TIP3   OH2 4976   2.633   2.108   5.686
 1678TIP3    H1 4977   2.626   2.085   5.593
 1678TIP3    H2 4978   2.627   2.203   5.687
 1679TIP3   OH2 4979   7.237   3.207   0.183
 1679TIP3    H1 4980   7.176   3.219   0.257
 1679TIP3    H2 4981   7.265   3.296   0.161
 1680TIP3   OH2 4982   3.484   4.007   6.658
 1680TIP3    H1 4983   3.448   3.930   6.703
 1680TIP3    H2 4984   3.577   4.005   6.680
 1681TIP3   OH2 4985   3.003   1.672   0.826
 1681TIP3    H1 4986   3.036   1.585   0.846
 1681TIP3    H2 4987   3.079   1.729   0.833
 1682TIP3   OH2 4988   0.092   5.449   3.780
 1682TIP3    H1 4989   0.182   5.472   3.755
 1682TIP3    H2 4990   0.068   5.515   3.845
 1683TIP3   OH2 4991   1.900   3.671   5.798
 1683TIP3    H1 4992   1.886   3.671   5.703
 1683TIP3    H2 4993   1.820   3.631   5.833
 1684TIP3   OH2 4994   1.318   2.949   0.378
 1684TIP3    H1 4995   1.335   3.031   0.332
 1684TIP3    H2 4996   1.226   2.931   0.363
 1685TIP3   OH2 4997   6.667   5.032   2.226
 1685TIP3    H1 4998   6.623   4.980   2.294
 1685TIP3    H2 4999   6.718   5.096   2.274
 1686TIP3   OH2 5000   7.774   1.407   5.382
 1686TIP3    H1 5001   7.788   1.444   5.295
 1686TIP3    H2 5002   7.683   1.378   5.381
 1687TIP3   OH2 5003   7.246   0.396   4.171
 1687TIP3    H1 5004   7.191   0.378   4.247
 1687TIP3    H2 5005   7.205   0.347   4.100
 1688TIP3   OH2 5006   6.165   5.454   0.092
 1688TIP3    H1 5007   6.091   5.427   0.146
 1688TIP3    H2 5008   6.194   5.537   0.129
 1689TIP3   OH2 5009   3.251   5.253   5.325
 1689TIP3    H1 5010   3.336   5.261   5.282
 1689TIP3    H2 5011   3.197   5.205   5.263
 1690TIP3   OH2 5012   6.408   1.026   1.307
 1690TIP3    H1 5013   6.319   1.007   1.339
 1690TIP3    H2 5014   6.434   0.948   1.259
 1691TIP3   OH2 5015   6.919   5.930   1.732
 1691TIP3    H1 5016   6.886   5.971   1.652
 1691TIP3    H2 5017   6.958   6.002   1.781
 1692TIP3   OH2 5018   0.894   3.492   2.897
 1692TIP3    H1 5019   0.953   3.439   2.951
 1692TIP3    H2 5020   0.892   3.577   2.941
 1693TIP3   OH2 5021   0.428   6.870   6.735
 1693TIP3    H1 5022   0.515   6.843   6.704
 1693TIP3    H2 5023   0.377   6.789   6.736
 1694TIP3   OH2 5024   3.342   3.214   4.989
 1694TIP3    H1 5025   3.329   3.296   4.940
 1694TIP3    H2 5026   3.254   3.191   5.019
 1695TIP3   OH2 5027   1.467   4.288   5.523
 1695TIP3    H1 5028   1.531   4.358   5.535
 1695TIP3    H2 5029   1.514   4.207   5.541
 1696TIP3   OH2 5030   3.720   5.848   3.708
 1696TIP3    H1 5031   3.706   5.803   3.625
 1696TIP3    H2 5032   3.745   5.779   3.770
 1697TIP3   OH2 5033   5.158   4.227   6.397
 1697TIP3    H1 5034   5.242   4.215   6.355
 1697TIP3    H2 5035   5.118   4.301   6.352
 1698TIP3   OH2 5036   0.097   3.885   2.751
 1698TIP3    H1 5037   0.176   3.883   2.696
 1698TIP3    H2 5038   0.104   3.807   2.806
 1699TIP3   OH2 5039   5.687   6.713   2.486
 1699TIP3    H1 5040   5.728   6.666   2.414
 1699TIP3    H2 5041   5.708   6.661   2.564
 1700TIP3   OH2 5042   5.196   5.471   5.920
 1700TIP3    H1 5043   5.137   5.547   5.924
 1700TIP3    H2 5044   5.282   5.506   5.941
 1701TIP3   OH2 5045   5.948   4.007   4.949
 1701TIP3    H1 5046   5.870   3.968   4.911
 1701TIP3    H2 5047   5.917   4.052   5.028
 1702TIP3   OH2 5048   5.590   3.863   3.550
 1702TIP3    H1 5049   5.505   3.852   3.508
 1702TIP3    H2 5050   5.580   3.942   3.603
 1703TIP3   OH2 5051   6.786   7.019   6.405
 1703TIP3    H1 5052   6.767   7.007   6.498
 1703TIP3    H2 5053   6.870   7.066   6.403
 1704TIP3   OH2 5054   1.625   5.859   6.294
 1704TIP3    H1 5055   1.719   5.853   6.313
 1704TIP3    H2 5056   1.616   5.823   6.206
 1705TIP3   OH2 5057   4.261   7.434   1.913
 1705TIP3    H1 5058   4.198   7.412   1.844
 1705TIP3    H2 5059   4.290   7.349   1.947
 1706TIP3   OH2 5060   1.555   1.927   5.819
 1706TIP3    H1 5061   1.630   1.974   5.784
 1706TIP3    H2 5062   1.517   1.881   5.744
 1707TIP3   OH2 5063   8.109   6.827   0.127
 1707TIP3    H1 5064   8.016   6.825   0.150
 1707TIP3    H2 5065   8.145   6.899   0.179
 1708TIP3   OH2 5066   4.564   6.112   6.204
 1708TIP3    H1 5067   4.522   6.191   6.172
 1708TIP3    H2 5068   4.552   6.048   6.134
 1709TIP3   OH2 5069   3.044   1.991   0.465
 1709TIP3    H1 5070   3.055   2.007   0.559
 1709TIP3    H2 5071   2.952   1.964   0.457
 1710TIP3   OH2 5072   1.465   6.433   5.411
 1710TIP3    H1 5073   1.528   6.446   5.482
 1710TIP3    H2 5074   1.512   6.462   5.333
 1711TIP3   OH2 5075   5.643   6.163   3.597
 1711TIP3    H1 5076   5.646   6.224   3.523
 1711TIP3    H2 5077   5.583   6.094   3.569
 1712TIP3   OH2 5078   0.810   4.986   0.140
 1712TIP3    H1 5079   0.847   5.027   0.061
 1712TIP3    H2 5080   0.717   5.010   0.137
 1713TIP3   OH2 5081   2.817   0.746   3.453
 1713TIP3    H1 5082   2.784   0.682   3.390
 1713TIP3    H2 5083   2.848   0.819   3.399
 1714TIP3   OH2 5084   4.465   7.229   1.413
 1714TIP3    H1 5085   4.381   7.182   1.406
 1714TIP3    H2 5086   4.496   7.236   1.323
 1715TIP3   OH2 5087   4.179   2.826   3.747
 1715TIP3    H1 5088   4.232   2.812   3.668
 1715TIP3    H2 5089   4.089   2.820   3.716
 1716TIP3   OH2 5090   0.807   4.715   0.767
 1716TIP3    H1 5091   0.853   4.642   0.808
 1716TIP3    H2 5092   0.803   4.693   0.674
 1717TIP3   OH2 5093   3.193   1.992   4.951
 1717TIP3    H1 5094   3.185   1.898   4.970
 1717TIP3    H2 5095   3.157   2.036   5.028
 1718TIP3   OH2 5096   2.247   7.579   3.298
 1718TIP3    H1 5097   2.179   7.525   3.340
 1718TIP3    H2 5098   2.306   7.515   3.258
 1719TIP3   OH2 5099   1.526   1.041   1.846
 1719TIP3    H1 5100   1.578   1.004   1.918
 1719TIP3    H2 5101   1.553   0.991   1.769
 1720TIP3   OH2 5102   0.415   5.233   3.820
 1720TIP3    H1 5103   0.427   5.189   3.904
 1720TIP3    H2 5104   0.323   5.219   3.799
 1721TIP3   OH2 5105   1.264   5.447   4.834
 1721TIP3    H1 5106   1.278   5.369   4.781
 1721TIP3    H2 5107   1.184   5.428   4.883
 1722TIP3   OH2 5108   4.122   6.757   6.468
 1722TIP3    H1 5109   4.180   6.826   6.437
 1722TIP3    H2 5110   4.171   6.714   6.538
 1723TIP3   OH2 5111   6.113   7.828   2.960
 1723TIP3    H1 5112   6.150   7.857   3.044
 1723TIP3    H2 5113   6.019   7.842   2.970
 1724TIP3   OH2 5114   0.785   1.414   3.304
 1724TIP3    H1 5115   0.699   1.376   3.286
 1724TIP3    H2 5116   0.841   1.338   3.321
 1725TIP3   OH2 5117   8.079   1.859   1.127
 1725TIP3    H1 5118   8.026   1.780   1.125
 1725TIP3    H2 5119   8.016   1.930   1.139
 1726TIP3   OH2 5120   4.230   6.860   5.729
 1726TIP3    H1 5121   4.217   6.935   5.786
 1726TIP3    H2 5122   4.265   6.792   5.787
 1727TIP3   OH2 5123   2.652   3.709   3.247
 1727TIP3    H1 5124   2.622   3.717   3.157
 1727TIP3    H2 5125   2.745   3.686   3.240
 1728TIP3   OH2 5126   7.143   2.517   5.711
 1728TIP3    H1 5127   7.130   2.597   5.661
 1728TIP3    H2 5128   7.186   2.457   5.649
 1729TIP3   OH2 5129   5.879   1.101   2.755
 1729TIP3    H1 5130   5.848   1.089   2.845
 1729TIP3    H2 5131   5.950   1.038   2.746
 1730TIP3   OH2 5132   5.017   2.416   3.237
 1730TIP3    H1 5133   5.059   2.499   3.261
 1730TIP3    H2 5134   5.076   2.376   3.173
 1731TIP3   OH2 5135   1.164   2.016   5.516
 1731TIP3    H1 5136   1.070   2.025   5.532
 1731TIP3    H2 5137   1.171   1.955   5.443
 1732TIP3   OH2 5138   7.450   3.133   5.660
 1732TIP3    H1 5139   7.402   3.065   5.613
 1732TIP3    H2 5140   7.435   3.113   5.753
 1733TIP3   OH2 5141   0.618   2.797   1.385
 1733TIP3    H1 5142   0.550   2.753   1.437
 1733TIP3    H2 5143   0.583   2.798   1.296
 1734TIP3   OH2 5144   7.111   2.891   0.754
 1734TIP3    H1 5145   7.082   2.802   0.735
 1734TIP3    H2 5146   7.036   2.933   0.795
 1735TIP3   OH2 5147   6.504   7.362   1.535
 1735TIP3    H1 5148   6.577   7.346   1.475
 1735TIP3    H2 5149   6.432   7.388   1.477
 1736TIP3   OH2 5150   5.705   5.691   3.710
 1736TIP3    H1 5151   5.759   5.612   3.705
 1736TIP3    H2 5152   5.674   5.693   3.801
 1737TIP3   OH2 5153   3.651   0.111   5.988
 1737TIP3    H1 5154   3.659   0.016   5.976
 1737TIP3    H2 5155   3.736   0.146   5.962
 1738TIP3   OH2 5156   0.651   3.702   4.530
 1738TIP3    H1 5157   0.744   3.704   4.508
 1738TIP3    H2 5158   0.632   3.609   4.546
 1739TIP3   OH2 5159   7.128   0.694   2.991
 1739TIP3    H1 5160   7.080   0.629   3.042
 1739TIP3    H2 5161   7.165   0.644   2.918
 1740TIP3   OH2 5162   4.441   0.439   5.915
 1740TIP3    H1 5163   4.443   0.355   5.870
 1740TIP3    H2 5164   4.503   0.428   5.987
 1741TIP3   OH2 5165   5.850   6.419   1.821
 1741TIP3    H1 5166   5.936   6.384   1.844
 1741TIP3    H2 5167   5.838   6.494   1.879
 1742TIP3   OH2 5168   0.120   7.328   4.854
 1742TIP3    H1 5169   0.146   7.367   4.937
 1742TIP3    H2 5170   0.029   7.300   4.869
 1743TIP3   OH2 5171   0.259   5.150   5.112
 1743TIP3    H1 5172   0.288   5.169   5.023
 1743TIP3    H2 5173   0.339   5.127   5.159
 1744TIP3   OH2 5174   6.562   0.418   5.769
 1744TIP3    H1 5175   6.595   0.468   5.844
 1744TIP3    H2 5176   6.468   0.415   5.782
 1745TIP3   OH2 5177   5.142   0.108   3.153
 1745TIP3    H1 5178   5.057   0.064   3.161
 1745TIP3    H2 5179   5.139   0.151   3.068
 1746TIP3   OH2 5180   0.936   2.293   5.079
 1746TIP3    H1 5181   0.928   2.316   5.171
 1746TIP3    H2 5182   1.003   2.226   5.076
 1747TIP3   OH2 5183   4.945   5.034   6.685
 1747TIP3    H1 5184   4.967   4.964   6.747
 1747TIP3    H2 5185   5.030   5.066   6.655
 1748TIP3   OH2 5186   7.553   0.731   1.543
 1748TIP3    H1 5187   7.553   0.747   1.637
 1748TIP3    H2 5188   7.525   0.640   1.534
 1749TIP3   OH2 5189   4.185   3.581   4.881
 1749TIP3    H1 5190   4.107   3.529   4.898
 1749TIP3    H2 5191   4.168   3.624   4.797
 1750TIP3   OH2 5192   3.831   7.582   3.766
 1750TIP3    H1 5193   3.878   7.603   3.847
 1750TIP3    H2 5194   3.750   7.539   3.795
 1751TIP3   OH2 5195   4.698   1.261   4.759
 1751TIP3    H1 5196   4.687   1.203   4.683
 1751TIP3    H2 5197   4.672   1.207   4.834
 1752TIP3   OH2 5198   0.890   6.397   2.243
 1752TIP3    H1 5199   0.959   6.390   2.177
 1752TIP3    H2 5200   0.852   6.310   2.248
 1753TIP3   OH2 5201   6.991   7.226   0.608
 1753TIP3    H1 5202   7.016   7.197   0.521
 1753TIP3    H2 5203   7.039   7.168   0.667
 1754TIP3   OH2 5204   6.006   6.678   0.116
 1754TIP3    H1 5205   6.095   6.696   0.146
 1754TIP3    H2 5206   6.002   6.582   0.110
 1755TIP3   OH2 5207   5.008   3.665   0.427
 1755TIP3    H1 5208   5.007   3.699   0.337
 1755TIP3    H2 5209   4.933   3.706   0.469
 1756TIP3   OH2 5210   4.700   7.518   1.986
 1756TIP3    H1 5211   4.636   7.562   1.930
 1756TIP3    H2 5212   4.677   7.426   1.981
 1757TIP3   OH2 5213   2.327   5.549   1.200
 1757TIP3    H1 5214   2.402   5.587   1.154
 1757TIP3    H2 5215   2.250   5.592   1.161
 1758TIP3   OH2 5216   1.020   4.224   5.132
 1758TIP3    H1 5217   1.028   4.205   5.039
 1758TIP3    H2 5218   1.110   4.233   5.163
 1759TIP3   OH2 5219   2.906   5.601   0.511
 1759TIP3    H1 5220   2.927   5.682   0.557
 1759TIP3    H2 5221   2.946   5.611   0.424
 1760TIP3   OH2 5222   6.862   6.159   5.609
 1760TIP3    H1 5223   6.941   6.202   5.642
 1760TIP3    H2 5224   6.845   6.201   5.525
 1761TIP3   OH2 5225   1.057   2.956   0.644
 1761TIP3    H1 5226   0.985   2.954   0.581
 1761TIP3    H2 5227   1.024   2.909   0.720
 1762TIP3   OH2 5228   6.257   5.693   2.092
 1762TIP3    H1 5229   6.235   5.600   2.094
 1762TIP3    H2 5230   6.173   5.738   2.096
 1763TIP3   OH2 5231   5.308   6.208   0.635
 1763TIP3    H1 5232   5.399   6.178   0.630
 1763TIP3    H2 5233   5.302   6.275   0.567
 1764TIP3   OH2 5234   5.016   2.268   4.707
 1764TIP3    H1 5235   4.987   2.358   4.719
 1764TIP3    H2 5236   4.959   2.233   4.638
 1765TIP3   OH2 5237   4.952   3.014   3.664
 1765TIP3    H1 5238   5.035   3.026   3.710
 1765TIP3    H2 5239   4.927   3.102   3.635
 1766TIP3   OH2 5240   5.488   5.901   3.175
 1766TIP3    H1 5241   5.572   5.925   3.213
 1766TIP3    H2 5242   5.457   5.829   3.230
 1767TIP3   OH2 5243   4.258   1.653   3.765
 1767TIP3    H1 5244   4.223   1.738   3.790
 1767TIP3    H2 5245   4.325   1.634   3.831
 1768TIP3   OH2 5246   7.602   0.074   1.677
 1768TIP3    H1 5247   7.652   0.065   1.758
 1768TIP3    H2 5248   7.663   0.114   1.615
 1769TIP3   OH2 5249   7.638   4.428   5.809
 1769TIP3    H1 5250   7.586   4.364   5.858
 1769TIP3    H2 5251   7.714   4.377   5.778
 1770TIP3   OH2 5252   0.458   4.302   0.912
 1770TIP3    H1 5253   0.376   4.322   0.958
 1770TIP3    H2 5254   0.453   4.353   0.831
 1771TIP3   OH2 5255   5.563   1.688   5.788
 1771TIP3    H1 5256   5.569   1.691   5.692
 1771TIP3    H2 5257   5.521   1.604   5.806
 1772TIP3   OH2 5258   3.599   1.722   4.345
 1772TIP3    H1 5259   3.677   1.670   4.362
 1772TIP3    H2 5260   3.552   1.675   4.276
 1773TIP3   OH2 5261   3.428   5.269   2.246
 1773TIP3    H1 5262   3.342   5.309   2.244
 1773TIP3    H2 5263   3.427   5.205   2.175
 1774TIP3   OH2 5264   3.483   1.048   5.584
 1774TIP3    H1 5265   3.533   1.107   5.639
 1774TIP3    H2 5266   3.472   1.095   5.501
 1775TIP3   OH2 5267   5.515   1.762   6.470
 1775TIP3    H1 5268   5.475   1.717   6.395
 1775TIP3    H2 5269   5.467   1.845   6.476
 1776TIP3   OH2 5270   5.621   6.556   4.378
 1776TIP3    H1 5271   5.642   6.648   4.363
 1776TIP3    H2 5272   5.702   6.518   4.412
 1777TIP3   OH2 5273   5.761   3.362   1.407
 1777TIP3    H1 5274   5.773   3.443   1.456
 1777TIP3    H2 5275   5.700   3.385   1.337
 1778TIP3   OH2 5276   6.981   0.881   6.618
 1778TIP3    H1 5277   7.043   0.942   6.657
 1778TIP3    H2 5278   6.925   0.936   6.562
 1779TIP3   OH2 5279   1.973   1.555   1.241
 1779TIP3    H1 5280   1.877   1.554   1.238
 1779TIP3    H2 5281   1.996   1.483   1.300
 1780TIP3   OH2 5282   5.126   2.712   1.834
 1780TIP3    H1 5283   5.214   2.721   1.799
 1780TIP3    H2 5284   5.071   2.689   1.759
 1781TIP3   OH2 5285   7.561   2.480   3.607
 1781TIP3    H1 5286   7.623   2.411   3.581
 1781TIP3    H2 5287   7.599   2.517   3.686
 1782TIP3   OH2 5288   0.062   2.243   0.468
 1782TIP3    H1 5289   0.072   2.333   0.499
 1782TIP3    H2 5290   0.130   2.233   0.400
 1783TIP3   OH2 5291   7.418   0.563   6.699
 1783TIP3    H1 5292   7.343   0.585   6.755
 1783TIP3    H2 5293   7.409   0.469   6.682
 1784TIP3   OH2 5294   3.244   4.072   2.004
 1784TIP3    H1 5295   3.161   4.060   1.959
 1784TIP3    H2 5296   3.244   4.163   2.033
 1785TIP3   OH2 5297   4.890   2.382   5.648
 1785TIP3    H1 5298   4.891   2.319   5.719
 1785TIP3    H2 5299   4.900   2.467   5.691
 1786TIP3   OH2 5300   7.019   4.170   0.904
 1786TIP3    H1 5301   7.089   4.126   0.952
 1786TIP3    H2 5302   7.046   4.262   0.900
 1787TIP3   OH2 5303   0.639   2.377   5.698
 1787TIP3    H1 5304   0.662   2.284   5.697
 1787TIP3    H2 5305   0.580   2.387   5.624
 1788TIP3   OH2 5306   0.401   0.394   4.712
 1788TIP3    H1 5307   0.354   0.461   4.662
 1788TIP3    H2 5308   0.432   0.332   4.646
 1789TIP3   OH2 5309   0.030   1.136   0.693
 1789TIP3    H1 5310   0.031   1.228   0.665
 1789TIP3    H2 5311  -0.014   1.090   0.621
 1790TIP3   OH2 5312   4.103   6.376   6.344
 1790TIP3    H1 5313   4.182   6.424   6.367
 1790TIP3    H2 5314   4.130   6.284   6.341
 1791TIP3   OH2 5315   0.896   4.314   2.747
 1791TIP3    H1 5316   0.843   4.276   2.676
 1791TIP3    H2 5317   0.847   4.293   2.827
 1792TIP3   OH2 5318   3.872   3.813   4.538
 1792TIP3    H1 5319   3.836   3.876   4.601
 1792TIP3    H2 5320   3.805   3.808   4.469
 1793TIP3   OH2 5321   4.129   6.114   4.852
 1793TIP3    H1 5322   4.146   6.043   4.914
 1793TIP3    H2 5323   4.216   6.147   4.829
 1794TIP3   OH2 5324   7.097   2.203   5.774
 1794TIP3    H1 5325   7.073   2.146   5.701
 1794TIP3    H2 5326   7.192   2.197   5.780
 1795TIP3   OH2 5327   1.348   5.696   4.132
 1795TIP3    H1 5328   1.265   5.732   4.162
 1795TIP3    H2 5329   1.388   5.765   4.079
 1796TIP3   OH2 5330   3.533   1.309   5.846
 1796TIP3    H1 5331   3.481   1.339   5.772
 1796TIP3    H2 5332   3.563   1.389   5.889
 1797TIP3   OH2 5333   0.748   0.554   3.984
 1797TIP3    H1 5334   0.656   0.528   3.997
 1797TIP3    H2 5335   0.743   0.648   3.969
 1798TIP3   OH2 5336   7.717   5.390   5.083
 1798TIP3    H1 5337   7.738   5.306   5.042
 1798TIP3    H2 5338   7.670   5.439   5.016
 1799TIP3   OH2 5339   5.384   2.750   6.509
 1799TIP3    H1 5340   5.474   2.763   6.536
 1799TIP3    H2 5341   5.386   2.673   6.452
 1800TIP3   OH2 5342   6.631   6.822   5.318
 1800TIP3    H1 5343   6.572   6.748   5.334
 1800TIP3    H2 5344   6.645   6.821   5.223
 1801TIP3   OH2 5345   8.076   2.472   1.226
 1801TIP3    H1 5346   8.014   2.417   1.179
 1801TIP3    H2 5347   8.142   2.412   1.259
 1802TIP3   OH2 5348   2.887   7.031   0.484
 1802TIP3    H1 5349   2.821   6.976   0.526
 1802TIP3    H2 5350   2.839   7.079   0.417
 1803TIP3   OH2 5351   6.296   1.269   0.746
 1803TIP3    H1 5352   6.343   1.214   0.808
 1803TIP3    H2 5353   6.355   1.344   0.732
 1804TIP3   OH2 5354   0.793   5.863   4.559
 1804TIP3    H1 5355   0.841   5.927   4.610
 1804TIP3    H2 5356   0.708   5.857   4.603
 1805TIP3   OH2 5357   6.302   2.478   4.020
 1805TIP3    H1 5358   6.334   2.545   3.959
 1805TIP3    H2 5359   6.288   2.401   3.965
 1806TIP3   OH2 5360   5.476   3.399   6.598
 1806TIP3    H1 5361   5.519   3.326   6.643
 1806TIP3    H2 5362   5.418   3.357   6.534
 1807TIP3   OH2 5363   8.034   6.475   6.634
 1807TIP3    H1 5364   7.968   6.426   6.682
 1807TIP3    H2 5365   8.109   6.479   6.694
 1808TIP3   OH2 5366   3.011   5.013   2.202
 1808TIP3    H1 5367   3.048   4.966   2.127
 1808TIP3    H2 5368   2.985   4.944   2.263
 1809TIP3   OH2 5369   7.898   5.198   4.877
 1809TIP3    H1 5370   7.948   5.121   4.849
 1809TIP3    H2 5371   7.896   5.255   4.800
 1810TIP3   OH2 5372   7.238   1.623   4.612
 1810TIP3    H1 5373   7.172   1.675   4.657
 1810TIP3    H2 5374   7.192   1.544   4.584
 1811TIP3   OH2 5375   1.896   1.185   1.717
 1811TIP3    H1 5376   1.916   1.277   1.734
 1811TIP3    H2 5377   1.867   1.150   1.801
 1812TIP3   OH2 5378   4.635   1.897   1.003
 1812TIP3    H1 5379   4.581   1.853   1.068
 1812TIP3    H2 5380   4.645   1.834   0.932
 1813TIP3   OH2 5381   1.187   6.271   3.362
 1813TIP3    H1 5382   1.280   6.264   3.344
 1813TIP3    H2 5383   1.161   6.354   3.321
 1814TIP3   OH2 5384   3.165   4.679   1.278
 1814TIP3    H1 5385   3.208   4.670   1.193
 1814TIP3    H2 5386   3.087   4.731   1.261
 1815TIP3   OH2 5387   8.305   1.161   3.375
 1815TIP3    H1 5388   8.266   1.210   3.447
 1815TIP3    H2 5389   8.231   1.117   3.333
 1816TIP3   OH2 5390   2.776   1.431   3.819
 1816TIP3    H1 5391   2.776   1.348   3.866
 1816TIP3    H2 5392   2.726   1.413   3.739
 1817TIP3   OH2 5393   5.225   2.981   1.882
 1817TIP3    H1 5394   5.192   3.028   1.805
 1817TIP3    H2 5395   5.171   2.902   1.886
 1818TIP3   OH2 5396   7.657   6.427   1.831
 1818TIP3    H1 5397   7.657   6.332   1.819
 1818TIP3    H2 5398   7.684   6.440   1.922
 1819TIP3   OH2 5399   2.392   4.949   6.427
 1819TIP3    H1 5400   2.412   4.943   6.520
 1819TIP3    H2 5401   2.429   5.032   6.399
 1820TIP3   OH2 5402   7.686   4.355   1.511
 1820TIP3    H1 5403   7.706   4.276   1.461
 1820TIP3    H2 5404   7.734   4.345   1.593
 1821TIP3   OH2 5405   2.243   3.167   3.092
 1821TIP3    H1 5406   2.232   3.245   3.148
 1821TIP3    H2 5407   2.169   3.170   3.032
 1822TIP3   OH2 5408   6.744   6.047   5.245
 1822TIP3    H1 5409   6.716   6.118   5.303
 1822TIP3    H2 5410   6.805   5.996   5.298
 1823TIP3   OH2 5411   7.991   7.425   3.498
 1823TIP3    H1 5412   7.973   7.337   3.532
 1823TIP3    H2 5413   8.046   7.465   3.565
 1824TIP3   OH2 5414   3.183   6.608   1.808
 1824TIP3    H1 5415   3.180   6.582   1.716
 1824TIP3    H2 5416   3.214   6.698   1.805
 1825TIP3   OH2 5417   3.325   2.322   5.489
 1825TIP3    H1 5418   3.332   2.399   5.434
 1825TIP3    H2 5419   3.309   2.250   5.428
 1826TIP3   OH2 5420   1.860   6.320   3.599
 1826TIP3    H1 5421   1.944   6.365   3.602
 1826TIP3    H2 5422   1.857   6.280   3.512
 1827TIP3   OH2 5423   2.687   5.832   3.462
 1827TIP3    H1 5424   2.771   5.821   3.417
 1827TIP3    H2 5425   2.671   5.747   3.503
 1828TIP3   OH2 5426   7.659   0.227   6.473
 1828TIP3    H1 5427   7.706   0.171   6.411
 1828TIP3    H2 5428   7.709   0.308   6.477
 1829TIP3   OH2 5429   1.420   2.362   4.803
 1829TIP3    H1 5430   1.431   2.358   4.708
 1829TIP3    H2 5431   1.438   2.453   4.826
 1830TIP3   OH2 5432   0.429   5.643   3.392
 1830TIP3    H1 5433   0.358   5.579   3.404
 1830TIP3    H2 5434   0.450   5.639   3.299
 1831TIP3   OH2 5435   7.849   1.643   5.772
 1831TIP3    H1 5436   7.811   1.609   5.853
 1831TIP3    H2 5437   7.905   1.573   5.739
 1832TIP3   OH2 5438   1.667   3.432   5.046
 1832TIP3    H1 5439   1.593   3.489   5.065
 1832TIP3    H2 5440   1.728   3.487   4.998
 1833TIP3   OH2 5441   1.396   7.703   5.941
 1833TIP3    H1 5442   1.347   7.762   5.999
 1833TIP3    H2 5443   1.472   7.676   5.993
 1834TIP3   OH2 5444   2.737   1.314   2.509
 1834TIP3    H1 5445   2.777   1.350   2.429
 1834TIP3    H2 5446   2.792   1.239   2.532
 1835TIP3   OH2 5447   4.154   5.287   3.395
 1835TIP3    H1 5448   4.125   5.200   3.370
 1835TIP3    H2 5449   4.249   5.278   3.405
 1836TIP3   OH2 5450   3.647   6.479   3.833
 1836TIP3    H1 5451   3.600   6.473   3.750
 1836TIP3    H2 5452   3.583   6.453   3.899
 1837TIP3   OH2 5453   1.188   4.496   2.328
 1837TIP3    H1 5454   1.270   4.474   2.283
 1837TIP3    H2 5455   1.183   4.433   2.400
 1838TIP3   OH2 5456   1.570   7.633   4.433
 1838TIP3    H1 5457   1.512   7.603   4.503
 1838TIP3    H2 5458   1.631   7.693   4.477
 1839TIP3   OH2 5459   2.397   0.957   5.979
 1839TIP3    H1 5460   2.346   1.034   5.955
 1839TIP3    H2 5461   2.354   0.884   5.934
 1840TIP3   OH2 5462   2.108   0.259   2.675
 1840TIP3    H1 5463   2.061   0.245   2.757
 1840TIP3    H2 5464   2.044   0.298   2.617
 1841TIP3   OH2 5465   2.331   7.666   0.565
 1841TIP3    H1 5466   2.238   7.645   0.563
 1841TIP3    H2 5467   2.376   7.583   0.551
 1842TIP3   OH2 5468   7.755   7.317   6.412
 1842TIP3    H1 5469   7.807   7.239   6.428
 1842TIP3    H2 5470   7.686   7.288   6.351
 1843TIP3   OH2 5471   3.290   7.694   4.584
 1843TIP3    H1 5472   3.250   7.621   4.537
 1843TIP3    H2 5473   3.216   7.746   4.617
 1844TIP3   OH2 5474   0.922   5.654   2.713
 1844TIP3    H1 5475   0.994   5.637   2.652
 1844TIP3    H2 5476   0.906   5.570   2.756
 1845TIP3   OH2 5477   0.785   4.683   6.276
 1845TIP3    H1 5478   0.815   4.647   6.193
 1845TIP3    H2 5479   0.690   4.668   6.276
 1846TIP3   OH2 5480   6.952   2.894   3.499
 1846TIP3    H1 5481   6.872   2.868   3.454
 1846TIP3    H2 5482   6.925   2.970   3.552
 1847TIP3   OH2 5483   8.133   1.406   2.557
 1847TIP3    H1 5484   8.133   1.498   2.582
 1847TIP3    H2 5485   8.124   1.359   2.640
 1848TIP3   OH2 5486   7.320   6.861   3.183
 1848TIP3    H1 5487   7.289   6.895   3.099
 1848TIP3    H2 5488   7.244   6.817   3.221
 1849TIP3   OH2 5489   2.866   0.445   6.184
 1849TIP3    H1 5490   2.867   0.509   6.113
 1849TIP3    H2 5491   2.849   0.497   6.263
 1850TIP3   OH2 5492   5.519   5.124   3.309
 1850TIP3    H1 5493   5.569   5.067   3.250
 1850TIP3    H2 5494   5.578   5.197   3.326
 1851TIP3   OH2 5495   8.204   7.243   5.826
 1851TIP3    H1 5496   8.253   7.171   5.788
 1851TIP3    H2 5497   8.270   7.309   5.847
 1852TIP3   OH2 5498   0.520   7.275   3.735
 1852TIP3    H1 5499   0.484   7.277   3.824
 1852TIP3    H2 5500   0.493   7.189   3.701
 1853TIP3   OH2 5501   1.298   2.019   3.185
 1853TIP3    H1 5502   1.333   2.107   3.195
 1853TIP3    H2 5503   1.242   2.023   3.108
 1854TIP3   OH2 5504   7.297   7.621   1.626
 1854TIP3    H1 5505   7.367   7.604   1.563
 1854TIP3    H2 5506   7.218   7.584   1.586
 1855TIP3   OH2 5507   5.669   0.769   6.184
 1855TIP3    H1 5508   5.658   0.771   6.089
 1855TIP3    H2 5509   5.598   0.713   6.216
 1856TIP3   OH2 5510   5.838   1.285   2.418
 1856TIP3    H1 5511   5.869   1.362   2.369
 1856TIP3    H2 5512   5.905   1.218   2.401
 1857TIP3   OH2 5513   6.940   1.283   6.716
 1857TIP3    H1 5514   6.850   1.315   6.702
 1857TIP3    H2 5515   6.933   1.223   6.790
 1858TIP3   OH2 5516   5.939   0.814   6.641
 1858TIP3    H1 5517   5.861   0.787   6.593
 1858TIP3    H2 5518   5.965   0.896   6.600
 1859TIP3   OH2 5519   1.457   4.011   3.350
 1859TIP3    H1 5520   1.540   3.964   3.347
 1859TIP3    H2 5521   1.402   3.960   3.410
 1860TIP3   OH2 5522   7.189   1.515   1.622
 1860TIP3    H1 5523   7.112   1.547   1.575
 1860TIP3    H2 5524   7.154   1.478   1.703
 1861TIP3   OH2 5525   5.898   2.583   5.440
 1861TIP3    H1 5526   5.893   2.617   5.529
 1861TIP3    H2 5527   5.820   2.618   5.396
 1862TIP3   OH2 5528   6.691   3.801   2.422
 1862TIP3    H1 5529   6.634   3.746   2.476
 1862TIP3    H2 5530   6.768   3.816   2.477
 1863TIP3   OH2 5531   7.908   5.045   3.313
 1863TIP3    H1 5532   7.930   4.961   3.355
 1863TIP3    H2 5533   7.992   5.088   3.300
 1864TIP3   OH2 5534   2.284   4.515   4.717
 1864TIP3    H1 5535   2.192   4.516   4.743
 1864TIP3    H2 5536   2.331   4.552   4.792
 1865TIP3   OH2 5537   2.061   4.465   1.955
 1865TIP3    H1 5538   2.025   4.379   1.977
 1865TIP3    H2 5539   1.983   4.518   1.937
 1866TIP3   OH2 5540   5.478   4.830   1.751
 1866TIP3    H1 5541   5.417   4.810   1.680
 1866TIP3    H2 5542   5.476   4.751   1.806
 1867TIP3   OH2 5543   4.460   6.615   6.123
 1867TIP3    H1 5544   4.543   6.639   6.165
 1867TIP3    H2 5545   4.411   6.697   6.118
 1868TIP3   OH2 5546   2.668   1.341   0.137
 1868TIP3    H1 5547   2.597   1.288   0.174
 1868TIP3    H2 5548   2.677   1.414   0.197
 1869TIP3   OH2 5549   0.818   0.260   6.576
 1869TIP3    H1 5550   0.739   0.208   6.559
 1869TIP3    H2 5551   0.868   0.208   6.638
 1870TIP3   OH2 5552   7.907   0.069   0.872
 1870TIP3    H1 5553   7.986   0.030   0.909
 1870TIP3    H2 5554   7.931   0.161   0.856
 1871TIP3   OH2 5555   8.151   3.689   2.297
 1871TIP3    H1 5556   8.074   3.650   2.255
 1871TIP3    H2 5557   8.160   3.642   2.380
 1872TIP3   OH2 5558   2.253   3.016   2.690
 1872TIP3    H1 5559   2.340   3.008   2.652
 1872TIP3    H2 5560   2.215   3.092   2.646
 1873TIP3   OH2 5561   0.850   3.138   4.727
 1873TIP3    H1 5562   0.790   3.070   4.757
 1873TIP3    H2 5563   0.828   3.215   4.781
 1874TIP3   OH2 5564   6.205   7.743   0.637
 1874TIP3    H1 5565   6.272   7.771   0.575
 1874TIP3    H2 5566   6.161   7.825   0.662
 1875TIP3   OH2 5567   1.019   4.253   3.774
 1875TIP3    H1 5568   0.946   4.242   3.835
 1875TIP3    H2 5569   1.088   4.295   3.827
 1876TIP3   OH2 5570   6.652   3.698   3.677
 1876TIP3    H1 5571   6.658   3.656   3.763
 1876TIP3    H2 5572   6.573   3.751   3.681
 1877TIP3   OH2 5573   4.828   7.199   1.595
 1877TIP3    H1 5574   4.776   7.275   1.620
 1877TIP3    H2 5575   4.919   7.224   1.613
 1878TIP3   OH2 5576   4.576   0.918   3.640
 1878TIP3    H1 5577   4.551   1.004   3.672
 1878TIP3    H2 5578   4.625   0.879   3.712
 1879TIP3   OH2 5579   5.069   0.812   6.765
 1879TIP3    H1 5580   4.979   0.801   6.734
 1879TIP3    H2 5581   5.065   0.888   6.823
 1880TIP3   OH2 5582   2.411   1.239   2.330
 1880TIP3    H1 5583   2.463   1.308   2.290
 1880TIP3    H2 5584   2.454   1.157   2.305
 1881TIP3   OH2 5585   3.698   0.040   0.808
 1881TIP3    H1 5586   3.705  -0.046   0.849
 1881TIP3    H2 5587   3.788   0.074   0.809
 1882TIP3   OH2 5588   6.572   6.694   1.025
 1882TIP3    H1 5589   6.648   6.642   1.049
 1882TIP3    H2 5590   6.497   6.636   1.041
 1883TIP3   OH2 5591   5.993   4.379   2.520
 1883TIP3    H1 5592   6.034   4.448   2.573
 1883TIP3    H2 5593   6.065   4.341   2.470
 1884TIP3   OH2 5594   7.025   5.700   3.425
 1884TIP3    H1 5595   7.116   5.726   3.434
 1884TIP3    H2 5596   7.023   5.645   3.347
 1885TIP3   OH2 5597   6.924   6.021   0.125
 1885TIP3    H1 5598   6.830   6.003   0.125
 1885TIP3    H2 5599   6.964   5.941   0.090
 1886TIP3   OH2 5600   6.894   7.530   4.316
 1886TIP3    H1 5601   6.941   7.608   4.343
 1886TIP3    H2 5602   6.823   7.562   4.260
 1887TIP3   OH2 5603   2.204   0.807   2.188
 1887TIP3    H1 5604   2.255   0.834   2.111
 1887TIP3    H2 5605   2.173   0.889   2.227
 1888TIP3   OH2 5606   5.984   5.350   5.388
 1888TIP3    H1 5607   5.971   5.276   5.330
 1888TIP3    H2 5608   6.012   5.311   5.471
 1889TIP3   OH2 5609   7.476   3.913   5.706
 1889TIP3    H1 5610   7.388   3.905   5.669
 1889TIP3    H2 5611   7.483   3.840   5.768
 1890TIP3   OH2 5612   6.511   1.560   3.648
 1890TIP3    H1 5613   6.419   1.583   3.636
 1890TIP3    H2 5614   6.516   1.468   3.621
 1891TIP3   OH2 5615   2.694   6.175   1.651
 1891TIP3    H1 5616   2.741   6.186   1.569
 1891TIP3    H2 5617   2.656   6.087   1.645
 1892TIP3   OH2 5618   8.048   7.679   1.298
 1892TIP3    H1 5619   8.044   7.611   1.366
 1892TIP3    H2 5620   8.119   7.737   1.326
 1893TIP3   OH2 5621   1.444   0.055   5.184
 1893TIP3    H1 5622   1.499   0.070   5.260
 1893TIP3    H2 5623   1.466  -0.034   5.154
 1894TIP3   OH2 5624   2.159   2.289   3.559
 1894TIP3    H1 5625   2.227   2.286   3.491
 1894TIP3    H2 5626   2.114   2.372   3.544
 1895TIP3   OH2 5627   0.840   2.744   6.033
 1895TIP3    H1 5628   0.829   2.817   6.093
 1895TIP3    H2 5629   0.776   2.761   5.963
 1896TIP3   OH2 5630   6.970   5.644   3.111
 1896TIP3    H1 5631   6.903   5.612   3.172
 1896TIP3    H2 5632   6.924   5.704   3.053
 1897TIP3   OH2 5633   3.654   5.267   3.506
 1897TIP3    H1 5634   3.605   5.349   3.493
 1897TIP3    H2 5635   3.659   5.258   3.602
 1898TIP3   OH2 5636   5.723   2.364   0.748
 1898TIP3    H1 5637   5.704   2.301   0.817
 1898TIP3    H2 5638   5.652   2.428   0.754
 1899TIP3   OH2 5639   4.617   2.227   1.419
 1899TIP3    H1 5640   4.626   2.233   1.514
 1899TIP3    H2 5641   4.585   2.138   1.403
 1900TIP3   OH2 5642   6.333   5.044   6.052
 1900TIP3    H1 5643   6.390   5.029   6.127
 1900TIP3    H2 5644   6.245   5.024   6.083
 1901TIP3   OH2 5645   2.517   4.330   0.367
 1901TIP3    H1 5646   2.524   4.414   0.321
 1901TIP3    H2 5647   2.433   4.295   0.339
 1902TIP3   OH2 5648   2.497   7.576   3.626
 1902TIP3    H1 5649   2.566   7.642   3.622
 1902TIP3    H2 5650   2.537   7.502   3.671
 1903TIP3   OH2 5651   7.527   5.631   2.366
 1903TIP3    H1 5652   7.612   5.599   2.396
 1903TIP3    H2 5653   7.499   5.568   2.300
 1904TIP3   OH2 5654   6.129   5.792   6.383
 1904TIP3    H1 5655   6.047   5.824   6.346
 1904TIP3    H2 5656   6.141   5.843   6.463
 1905TIP3   OH2 5657   2.610   3.631   4.019
 1905TIP3    H1 5658   2.696   3.625   4.059
 1905TIP3    H2 5659   2.564   3.699   4.071
 1906TIP3   OH2 5660   3.737   2.619   5.996
 1906TIP3    H1 5661   3.704   2.708   5.988
 1906TIP3    H2 5662   3.802   2.611   5.925
 1907TIP3   OH2 5663   7.297   4.960   1.991
 1907TIP3    H1 5664   7.289   4.980   1.897
 1907TIP3    H2 5665   7.223   4.901   2.009
 1908TIP3   OH2 5666   1.821   5.963   1.203
 1908TIP3    H1 5667   1.863   6.036   1.248
 1908TIP3    H2 5668   1.843   5.975   1.111
 1909TIP3   OH2 5669   7.955   0.336   0.804
 1909TIP3    H1 5670   7.892   0.406   0.784
 1909TIP3    H2 5671   8.040   0.379   0.799
 1910TIP3   OH2 5672   4.404   1.294   5.715
 1910TIP3    H1 5673   4.421   1.315   5.623
 1910TIP3    H2 5674   4.325   1.344   5.737
 1911TIP3   OH2 5675   1.826   5.096   0.209
 1911TIP3    H1 5676   1.913   5.056   0.216
 1911TIP3    H2 5677   1.797   5.105   0.300
 1912TIP3   OH2 5678   0.484   5.273   3.369
 1912TIP3    H1 5679   0.396   5.303   3.345
 1912TIP3    H2 5680   0.475   5.178   3.377
 1913TIP3   OH2 5681   3.456   5.726   2.173
 1913TIP3    H1 5682   3.505   5.644   2.174
 1913TIP3    H2 5683   3.383   5.712   2.234
 1914TIP3   OH2 5684   2.700   2.829   5.996
 1914TIP3    H1 5685   2.719   2.739   5.970
 1914TIP3    H2 5686   2.666   2.870   5.917
 1915TIP3   OH2 5687   6.034   1.849   1.923
 1915TIP3    H1 5688   5.940   1.865   1.914
 1915TIP3    H2 5689   6.041   1.780   1.988
 1916TIP3   OH2 5690   6.958   4.307   3.192
 1916TIP3    H1 5691   6.989   4.286   3.280
 1916TIP3    H2 5692   7.037   4.314   3.139
 1917TIP3   OH2 5693   8.303   2.996   0.762
 1917TIP3    H1 5694   8.244   3.072   0.771
 1917TIP3    H2 5695   8.341   3.007   0.675
 1918TIP3   OH2 5696   5.243   1.419   6.056
 1918TIP3    H1 5697   5.227   1.329   6.026
 1918TIP3    H2 5698   5.298   1.409   6.134
 1919TIP3   OH2 5699   7.465   2.923   4.171
 1919TIP3    H1 5700   7.462   2.941   4.265
 1919TIP3    H2 5701   7.411   2.845   4.160
 1920TIP3   OH2 5702   4.705   2.959   5.135
 1920TIP3    H1 5703   4.786   2.961   5.084
 1920TIP3    H2 5704   4.659   2.882   5.101
 1921TIP3   OH2 5705   0.798   7.212   1.958
 1921TIP3    H1 5706   0.708   7.244   1.963
 1921TIP3    H2 5707   0.828   7.210   2.049
 1922TIP3   OH2 5708   7.423   7.168   0.807
 1922TIP3    H1 5709   7.479   7.202   0.877
 1922TIP3    H2 5710   7.334   7.170   0.843
 1923TIP3   OH2 5711   4.703   0.742   0.217
 1923TIP3    H1 5712   4.661   0.707   0.295
 1923TIP3    H2 5713   4.755   0.816   0.249
 1924TIP3   OH2 5714   5.031   5.169   1.233
 1924TIP3    H1 5715   5.083   5.244   1.204
 1924TIP3    H2 5716   5.029   5.176   1.328
 1925TIP3   OH2 5717   2.028   3.342   4.665
 1925TIP3    H1 5718   2.013   3.419   4.719
 1925TIP3    H2 5719   2.008   3.370   4.576
 1926TIP3   OH2 5720   5.460   4.998   0.032
 1926TIP3    H1 5721   5.549   5.031   0.025
 1926TIP3    H2 5722   5.414   5.063   0.086
 1927TIP3   OH2 5723   1.278   6.312   6.008
 1927TIP3    H1 5724   1.204   6.370   5.989
 1927TIP3    H2 5725   1.353   6.371   6.012
 1928TIP3   OH2 5726   4.194   1.296   6.481
 1928TIP3    H1 5727   4.240   1.356   6.541
 1928TIP3    H2 5728   4.226   1.321   6.394
 1929TIP3   OH2 5729   5.726   0.203   2.193
 1929TIP3    H1 5730   5.695   0.227   2.281
 1929TIP3    H2 5731   5.764   0.116   2.204
 1930TIP3   OH2 5732   1.487   7.357   6.668
 1930TIP3    H1 5733   1.572   7.394   6.644
 1930TIP3    H2 5734   1.470   7.392   6.756
 1931TIP3   OH2 5735   2.559   0.924   1.771
 1931TIP3    H1 5736   2.517   1.009   1.760
 1931TIP3    H2 5737   2.510   0.865   1.714
 1932TIP3   OH2 5738   2.806   6.200   3.202
 1932TIP3    H1 5739   2.808   6.281   3.253
 1932TIP3    H2 5740   2.755   6.222   3.124
 1933TIP3   OH2 5741   1.422   5.427   4.123
 1933TIP3    H1 5742   1.424   5.431   4.218
 1933TIP3    H2 5743   1.411   5.518   4.095
 1934TIP3   OH2 5744   5.072   3.820   6.579
 1934TIP3    H1 5745   5.154   3.812   6.530
 1934TIP3    H2 5746   5.046   3.912   6.566
 1935TIP3   OH2 5747   3.902   4.785   2.804
 1935TIP3    H1 5748   3.912   4.701   2.758
 1935TIP3    H2 5749   3.844   4.836   2.747
 1936TIP3   OH2 5750   5.914   2.624   0.534
 1936TIP3    H1 5751   5.947   2.711   0.554
 1936TIP3    H2 5752   5.992   2.576   0.504
 1937TIP3   OH2 5753   7.391   2.926   1.706
 1937TIP3    H1 5754   7.318   2.904   1.764
 1937TIP3    H2 5755   7.352   2.982   1.639
 1938TIP3   OH2 5756   6.140   3.953   3.198
 1938TIP3    H1 5757   6.101   4.000   3.272
 1938TIP3    H2 5758   6.123   4.010   3.123
 1939TIP3   OH2 5759   6.751   2.833   0.011
 1939TIP3    H1 5760   6.807   2.773  -0.038
 1939TIP3    H2 5761   6.807   2.909   0.030
 1940TIP3   OH2 5762   0.756   4.274   3.448
 1940TIP3    H1 5763   0.817   4.308   3.514
 1940TIP3    H2 5764   0.776   4.181   3.441
 1941TIP3   OH2 5765   0.351   5.782   6.214
 1941TIP3    H1 5766   0.386   5.816   6.132
 1941TIP3    H2 5767   0.348   5.859   6.272
 1942TIP3   OH2 5768   3.991   6.232   1.308
 1942TIP3    H1 5769   3.962   6.187   1.229
 1942TIP3    H2 5770   4.055   6.297   1.278
 1943TIP3   OH2 5771   6.095   0.576   0.191
 1943TIP3    H1 5772   6.188   0.559   0.206
 1943TIP3    H2 5773   6.080   0.550   0.101
 1944TIP3   OH2 5774   2.514   2.182   1.882
 1944TIP3    H1 5775   2.532   2.275   1.891
 1944TIP3    H2 5776   2.449   2.163   1.950
 1945TIP3   OH2 5777   8.254   1.151   5.044
 1945TIP3    H1 5778   8.218   1.148   5.133
 1945TIP3    H2 5779   8.226   1.236   5.010
 1946TIP3   OH2 5780   2.875   7.761   4.993
 1946TIP3    H1 5781   2.934   7.819   4.945
 1946TIP3    H2 5782   2.934   7.702   5.041
 1947TIP3   OH2 5783   2.199   3.696   6.162
 1947TIP3    H1 5784   2.198   3.788   6.136
 1947TIP3    H2 5785   2.108   3.667   6.149
 1948TIP3   OH2 5786   3.291   6.251   4.187
 1948TIP3    H1 5787   3.219   6.202   4.226
 1948TIP3    H2 5788   3.282   6.236   4.093
 1949TIP3   OH2 5789   8.007   0.699   1.010
 1949TIP3    H1 5790   8.009   0.795   1.014
 1949TIP3    H2 5791   7.940   0.680   0.945
 1950TIP3   OH2 5792   7.736   2.241   3.532
 1950TIP3    H1 5793   7.728   2.215   3.623
 1950TIP3    H2 5794   7.827   2.220   3.509
 1951TIP3   OH2 5795   0.631   3.077   1.511
 1951TIP3    H1 5796   0.624   3.142   1.442
 1951TIP3    H2 5797   0.660   2.998   1.467
 1952TIP3   OH2 5798   4.921   7.554   3.718
 1952TIP3    H1 5799   4.924   7.459   3.707
 1952TIP3    H2 5800   4.949   7.568   3.809
 1953TIP3   OH2 5801   4.620   4.157   6.692
 1953TIP3    H1 5802   4.623   4.128   6.783
 1953TIP3    H2 5803   4.687   4.226   6.687
 1954TIP3   OH2 5804   0.632   4.632   2.626
 1954TIP3    H1 5805   0.721   4.636   2.660
 1954TIP3    H2 5806   0.591   4.561   2.674
 1955TIP3   OH2 5807   7.215   3.974   6.362
 1955TIP3    H1 5808   7.225   4.028   6.441
 1955TIP3    H2 5809   7.304   3.959   6.332
 1956TIP3   OH2 5810   8.039   3.614   4.592
 1956TIP3    H1 5811   8.057   3.523   4.615
 1956TIP3    H2 5812   8.085   3.628   4.510
 1957TIP3   OH2 5813   8.296   5.146   5.718
 1957TIP3    H1 5814   8.306   5.078   5.785
 1957TIP3    H2 5815   8.204   5.172   5.725
 1958TIP3   OH2 5816   0.299   7.115   4.388
 1958TIP3    H1 5817   0.240   7.071   4.327
 1958TIP3    H2 5818   0.257   7.104   4.473
 1959TIP3   OH2 5819   4.925   5.149   3.176
 1959TIP3    H1 5820   5.014   5.114   3.173
 1959TIP3    H2 5821   4.901   5.145   3.269
 1960TIP3   OH2 5822   6.173   0.592   5.488
 1960TIP3    H1 5823   6.084   0.629   5.495
 1960TIP3    H2 5824   6.161   0.498   5.502
 1961TIP3   OH2 5825   5.430   1.991   1.324
 1961TIP3    H1 5826   5.479   2.073   1.316
 1961TIP3    H2 5827   5.342   2.019   1.351
 1962TIP3   OH2 5828   7.223   0.177   3.991
 1962TIP3    H1 5829   7.238   0.203   3.900
 1962TIP3    H2 5830   7.157   0.108   3.986
 1963TIP3   OH2 5831   1.811   6.320   1.533
 1963TIP3    H1 5832   1.730   6.350   1.493
 1963TIP3    H2 5833   1.785   6.249   1.591
 1964TIP3   OH2 5834   1.095   7.566   5.997
 1964TIP3    H1 5835   1.140   7.582   5.914
 1964TIP3    H2 5836   1.163   7.576   6.064
 1965TIP3   OH2 5837   0.050   3.190   3.171
 1965TIP3    H1 5838   0.105   3.125   3.127
 1965TIP3    H2 5839   0.076   3.186   3.263
 1966TIP3   OH2 5840   4.733   1.129   1.952
 1966TIP3    H1 5841   4.701   1.057   1.897
 1966TIP3    H2 5842   4.814   1.096   1.991
 1967TIP3   OH2 5843   5.781   2.899   6.376
 1967TIP3    H1 5844   5.799   2.832   6.310
 1967TIP3    H2 5845   5.711   2.862   6.429
 1968TIP3   OH2 5846   0.155   3.657   2.162
 1968TIP3    H1 5847   0.128   3.591   2.227
 1968TIP3    H2 5848   0.163   3.738   2.212
 1969TIP3   OH2 5849   4.937   1.445   6.617
 1969TIP3    H1 5850   4.849   1.409   6.612
 1969TIP3    H2 5851   4.964   1.457   6.526
 1970TIP3   OH2 5852   7.510   2.255   3.273
 1970TIP3    H1 5853   7.559   2.338   3.271
 1970TIP3    H2 5854   7.571   2.191   3.237
 1971TIP3   OH2 5855   0.868   3.164   2.208
 1971TIP3    H1 5856   0.775   3.156   2.190
 1971TIP3    H2 5857   0.888   3.256   2.189
 1972TIP3   OH2 5858   5.830   0.566   5.907
 1972TIP3    H1 5859   5.823   0.660   5.920
 1972TIP3    H2 5860   5.741   0.533   5.924
 1973TIP3   OH2 5861   0.424   3.187   5.284
 1973TIP3    H1 5862   0.415   3.218   5.374
 1973TIP3    H2 5863   0.413   3.265   5.230
 1974TIP3   OH2 5864   1.896   4.270   3.567
 1974TIP3    H1 5865   1.985   4.279   3.601
 1974TIP3    H2 5866   1.861   4.359   3.567
 1975TIP3   OH2 5867   5.429   5.485  -0.004
 1975TIP3    H1 5868   5.467   5.429  -0.072
 1975TIP3    H2 5869   5.461   5.448   0.078
 1976TIP3   OH2 5870   4.829   1.557   2.683
 1976TIP3    H1 5871   4.758   1.571   2.746
 1976TIP3    H2 5872   4.832   1.637   2.631
 1977TIP3   OH2 5873   6.036   4.864   4.152
 1977TIP3    H1 5874   6.072   4.950   4.173
 1977TIP3    H2 5875   6.110   4.816   4.115
 1978TIP3   OH2 5876   1.806   6.986   4.662
 1978TIP3    H1 5877   1.872   7.029   4.609
 1978TIP3    H2 5878   1.771   7.055   4.718
 1979TIP3   OH2 5879   0.951   2.478   1.207
 1979TIP3    H1 5880   0.930   2.528   1.286
 1979TIP3    H2 5881   0.889   2.406   1.206
 1980TIP3   OH2 5882   2.248   1.451   1.678
 1980TIP3    H1 5883   2.326   1.483   1.722
 1980TIP3    H2 5884   2.220   1.375   1.729
 1981TIP3   OH2 5885   2.049   0.854   5.887
 1981TIP3    H1 5886   1.962   0.821   5.864
 1981TIP3    H2 5887   2.059   0.934   5.835
 1982TIP3   OH2 5888   7.650   0.390   3.785
 1982TIP3    H1 5889   7.700   0.444   3.847
 1982TIP3    H2 5890   7.650   0.303   3.824
 1983TIP3   OH2 5891   3.999   6.487   5.389
 1983TIP3    H1 5892   4.051   6.413   5.422
 1983TIP3    H2 5893   4.017   6.558   5.452
 1984TIP3   OH2 5894   5.931   2.149   2.638
 1984TIP3    H1 5895   6.006   2.113   2.590
 1984TIP3    H2 5896   5.969   2.181   2.720
 1985TIP3   OH2 5897   4.198   5.718   2.500
 1985TIP3    H1 5898   4.290   5.742   2.499
 1985TIP3    H2 5899   4.151   5.800   2.481
 1986TIP3   OH2 5900   4.061   0.387   6.374
 1986TIP3    H1 5901   4.023   0.471   6.347
 1986TIP3    H2 5902   4.093   0.347   6.293
 1987TIP3   OH2 5903   5.688   7.493   4.870
 1987TIP3    H1 5904   5.681   7.584   4.897
 1987TIP3    H2 5905   5.662   7.443   4.947
 1988TIP3   OH2 5906   3.347   5.959   2.061
 1988TIP3    H1 5907   3.279   5.953   2.129
 1988TIP3    H2 5908   3.310   6.020   1.997
 1989TIP3   OH2 5909   0.372   4.999   2.450
 1989TIP3    H1 5910   0.415   4.999   2.364
 1989TIP3    H2 5911   0.442   4.975   2.511
 1990TIP3   OH2 5912   1.368   6.374   3.668
 1990TIP3    H1 5913   1.419   6.380   3.749
 1990TIP3    H2 5914   1.317   6.293   3.678
 1991TIP3   OH2 5915   2.888   4.680   5.078
 1991TIP3    H1 5916   2.812   4.627   5.102
 1991TIP3    H2 5917   2.923   4.637   5.000
 1992TIP3   OH2 5918   4.479   4.299   2.791
 1992TIP3    H1 5919   4.491   4.388   2.758
 1992TIP3    H2 5920   4.552   4.285   2.851
 1993TIP3   OH2 5921   5.976   3.814   3.498
 1993TIP3    H1 5922   5.953   3.731   3.456
 1993TIP3    H2 5923   5.939   3.808   3.586
 1994TIP3   OH2 5924   5.870   0.458   5.660
 1994TIP3    H1 5925   5.870   0.521   5.588
 1994TIP3    H2 5926   5.876   0.512   5.739
 1995TIP3   OH2 5927   6.341   1.715   0.096
 1995TIP3    H1 5928   6.336   1.801   0.138
 1995TIP3    H2 5929   6.266   1.667   0.131
 1996TIP3   OH2 5930   7.025   6.450   0.171
 1996TIP3    H1 5931   7.002   6.434   0.263
 1996TIP3    H2 5932   6.941   6.447   0.125
 1997TIP3   OH2 5933   8.158   1.140   1.199
 1997TIP3    H1 5934   8.208   1.215   1.233
 1997TIP3    H2 5935   8.164   1.074   1.268
 1998TIP3   OH2 5936   3.939   7.466   5.982
 1998TIP3    H1 5937   4.034   7.459   5.977
 1998TIP3    H2 5938   3.915   7.519   5.906
 1999TIP3   OH2 5939   0.725   4.075   0.603
 1999TIP3    H1 5940   0.687   4.006   0.550
 1999TIP3    H2 5941   0.721   4.042   0.693
 2000TIP3   OH2 5942   3.261   3.406   6.009
 2000TIP3    H1 5943   3.276   3.487   5.961
 2000TIP3    H2 5944   3.262   3.338   5.942
 2001TIP3   OH2 5945   3.454   2.691   2.895
 2001TIP3    H1 5946   3.433   2.772   2.941
 2001TIP3    H2 5947   3.540   2.706   2.857
 2002TIP3   OH2 5948   1.986   7.240   1.244
 2002TIP3    H1 5949   2.010   7.255   1.336
 2002TIP3    H2 5950   1.949   7.152   1.242
 2003TIP3   OH2 5951   4.053   3.782   0.253
 2003TIP3    H1 5952   4.144   3.757   0.236
 2003TIP3    H2 5953   4.059   3.846   0.324
 2004TIP3   OH2 5954   0.321   4.184   2.425
 2004TIP3    H1 5955   0.404   4.227   2.439
 2004TIP3    H2 5956   0.263   4.218   2.494
 2005TIP3   OH2 5957   8.101   4.516   0.769
 2005TIP3    H1 5958   8.159   4.442   0.785
 2005TIP3    H2 5959   8.159   4.591   0.755
 2006TIP3   OH2 5960   0.953   7.806   1.673
 2006TIP3    H1 5961   0.921   7.833   1.759
 2006TIP3    H2 5962   0.997   7.722   1.689
 2007TIP3   OH2 5963   2.467   1.443   0.319
 2007TIP3    H1 5964   2.427   1.371   0.271
 2007TIP3    H2 5965   2.485   1.509   0.252
 2008TIP3   OH2 5966   2.411   1.676   1.039
 2008TIP3    H1 5967   2.396   1.586   1.009
 2008TIP3    H2 5968   2.324   1.713   1.049
 2009TIP3   OH2 5969   6.214   2.534   1.753
 2009TIP3    H1 5970   6.274   2.542   1.828
 2009TIP3    H2 5971   6.249   2.593   1.687
 2010TIP3   OH2 5972   7.013   7.306   5.416
 2010TIP3    H1 5973   6.930   7.319   5.370
 2010TIP3    H2 5974   6.990   7.256   5.494
 2011TIP3   OH2 5975   4.522   1.230   1.257
 2011TIP3    H1 5976   4.587   1.160   1.256
 2011TIP3    H2 5977   4.559   1.297   1.315
 2012TIP3   OH2 5978   3.821   6.260   6.285
 2012TIP3    H1 5979   3.815   6.209   6.365
 2012TIP3    H2 5980   3.900   6.314   6.296
 2013TIP3   OH2 5981   0.632   6.196   6.646
 2013TIP3    H1 5982   0.569   6.205   6.718
 2013TIP3    H2 5983   0.582   6.216   6.567
 2014TIP3   OH2 5984   4.497   7.587   1.841
 2014TIP3    H1 5985   4.459   7.662   1.794
 2014TIP3    H2 5986   4.421   7.533   1.863
 2015TIP3   OH2 5987   3.914   1.410   2.902
 2015TIP3    H1 5988   3.982   1.426   2.968
 2015TIP3    H2 5989   3.833   1.439   2.944
 2016TIP3   OH2 5990   1.633   4.624   3.138
 2016TIP3    H1 5991   1.579   4.690   3.094
 2016TIP3    H2 5992   1.722   4.657   3.129
 2017TIP3   OH2 5993   1.544   5.318   5.401
 2017TIP3    H1 5994   1.473   5.335   5.339
 2017TIP3    H2 5995   1.604   5.392   5.389
 2018TIP3   OH2 5996   0.237   5.568   2.753
 2018TIP3    H1 5997   0.277   5.653   2.775
 2018TIP3    H2 5998   0.145   5.589   2.735
 2019TIP3   OH2 5999   7.611   0.037   4.976
 2019TIP3    H1 6000   7.527   0.058   4.937
 2019TIP3    H2 6001   7.666   0.113   4.956
 2020TIP3   OH2 6002   4.172   7.479   1.123
 2020TIP3    H1 6003   4.193   7.561   1.077
 2020TIP3    H2 6004   4.245   7.421   1.102
 2021TIP3   OH2 6005   6.591   5.916   2.370
 2021TIP3    H1 6006   6.550   5.837   2.336
 2021TIP3    H2 6007   6.597   5.902   2.464
 2022TIP3   OH2 6008   4.397   1.504   1.467
 2022TIP3    H1 6009   4.413   1.594   1.498
 2022TIP3    H2 6010   4.479   1.478   1.425
 2023TIP3   OH2 6011   7.827   7.075   6.508
 2023TIP3    H1 6012   7.826   7.015   6.583
 2023TIP3    H2 6013   7.775   7.031   6.441
 2024TIP3   OH2 6014   3.490   3.971   2.625
 2024TIP3    H1 6015   3.400   3.968   2.657
 2024TIP3    H2 6016   3.524   3.883   2.644
 2025TIP3   OH2 6017   7.676   0.980   1.982
 2025TIP3    H1 6018   7.728   1.050   1.942
 2025TIP3    H2 6019   7.607   0.961   1.918
 2026TIP3   OH2 6020   1.243   4.124   4.324
 2026TIP3    H1 6021   1.247   4.078   4.241
 2026TIP3    H2 6022   1.333   4.155   4.339
 2027TIP3   OH2 6023   0.666   0.349   1.376
 2027TIP3    H1 6024   0.732   0.418   1.367
 2027TIP3    H2 6025   0.703   0.275   1.327
 2028TIP3   OH2 6026   0.412   4.633   4.922
 2028TIP3    H1 6027   0.406   4.663   5.012
 2028TIP3    H2 6028   0.459   4.550   4.928
 2029TIP3   OH2 6029   3.182   0.393   5.958
 2029TIP3    H1 6030   3.193   0.370   6.051
 2029TIP3    H2 6031   3.142   0.480   5.959
 2030TIP3   OH2 6032   7.615   1.933   0.403
 2030TIP3    H1 6033   7.660   1.948   0.486
 2030TIP3    H2 6034   7.618   1.838   0.390
 2031TIP3   OH2 6035   6.825   2.518   3.491
 2031TIP3    H1 6036   6.895   2.575   3.460
 2031TIP3    H2 6037   6.861   2.477   3.570
 2032TIP3   OH2 6038   4.799   1.401   5.792
 2032TIP3    H1 6039   4.766   1.365   5.710
 2032TIP3    H2 6040   4.766   1.490   5.795
 2033TIP3   OH2 6041   3.560   5.104   0.854
 2033TIP3    H1 6042   3.655   5.098   0.847
 2033TIP3    H2 6043   3.531   5.124   0.765
 2034TIP3   OH2 6044   0.989   3.573   3.484
 2034TIP3    H1 6045   1.073   3.619   3.491
 2034TIP3    H2 6046   0.946   3.589   3.568
 2035TIP3   OH2 6047   1.725   6.702   5.002
 2035TIP3    H1 6048   1.652   6.764   4.994
 2035TIP3    H2 6049   1.782   6.741   5.068
 2036TIP3   OH2 6050   5.883   2.394   3.664
 2036TIP3    H1 6051   5.903   2.330   3.733
 2036TIP3    H2 6052   5.887   2.342   3.583
 2037TIP3   OH2 6053   8.277   5.895   4.589
 2037TIP3    H1 6054   8.307   5.812   4.552
 2037TIP3    H2 6055   8.200   5.872   4.641
 2038TIP3   OH2 6056   3.515   5.649   5.212
 2038TIP3    H1 6057   3.592   5.656   5.268
 2038TIP3    H2 6058   3.510   5.734   5.168
 2039TIP3   OH2 6059   3.520   7.389   0.117
 2039TIP3    H1 6060   3.518   7.306   0.069
 2039TIP3    H2 6061   3.610   7.398   0.147
 2040TIP3   OH2 6062   4.664   3.186   0.834
 2040TIP3    H1 6063   4.737   3.242   0.861
 2040TIP3    H2 6064   4.706   3.107   0.799
 2041TIP3   OH2 6065   3.368   3.097   5.322
 2041TIP3    H1 6066   3.346   3.162   5.389
 2041TIP3    H2 6067   3.319   3.019   5.347
 2042TIP3   OH2 6068   7.284   1.687   1.365
 2042TIP3    H1 6069   7.190   1.669   1.367
 2042TIP3    H2 6070   7.311   1.681   1.457
 2043TIP3   OH2 6071   4.619   5.858   5.618
 2043TIP3    H1 6072   4.565   5.934   5.641
 2043TIP3    H2 6073   4.643   5.872   5.527
 2044TIP3   OH2 6074   4.060   6.677   1.122
 2044TIP3    H1 6075   3.972   6.703   1.095
 2044TIP3    H2 6076   4.117   6.748   1.091
 2045TIP3   OH2 6077   7.493   3.270   3.894
 2045TIP3    H1 6078   7.422   3.315   3.941
 2045TIP3    H2 6079   7.506   3.322   3.815
 2046TIP3   OH2 6080   3.432   1.082   5.100
 2046TIP3    H1 6081   3.344   1.045   5.102
 2046TIP3    H2 6082   3.425   1.154   5.037
 2047TIP3   OH2 6083   1.162   6.783   2.295
 2047TIP3    H1 6084   1.176   6.711   2.357
 2047TIP3    H2 6085   1.195   6.749   2.212
 2048TIP3   OH2 6086   7.125   0.232   3.662
 2048TIP3    H1 6087   7.175   0.194   3.590
 2048TIP3    H2 6088   7.189   0.278   3.715
 2049TIP3   OH2 6089   2.374   4.817   3.553
 2049TIP3    H1 6090   2.327   4.771   3.622
 2049TIP3    H2 6091   2.305   4.861   3.503
 2050TIP3   OH2 6092   5.602   0.989   2.214
 2050TIP3    H1 6093   5.659   1.003   2.139
 2050TIP3    H2 6094   5.661   0.964   2.285
 2051TIP3   OH2 6095   3.567   0.386   4.619
 2051TIP3    H1 6096   3.575   0.304   4.669
 2051TIP3    H2 6097   3.514   0.362   4.543
 2052TIP3   OH2 6098   8.047   5.501   3.961
 2052TIP3    H1 6099   8.069   5.549   3.881
 2052TIP3    H2 6100   8.038   5.570   4.027
 2053TIP3   OH2 6101   1.296   1.320   6.399
 2053TIP3    H1 6102   1.260   1.262   6.332
 2053TIP3    H2 6103   1.342   1.262   6.460
 2054TIP3   OH2 6104   2.771   5.370   0.596
 2054TIP3    H1 6105   2.839   5.325   0.646
 2054TIP3    H2 6106   2.814   5.447   0.559
 2055TIP3   OH2 6107   5.358   7.434   0.484
 2055TIP3    H1 6108   5.331   7.517   0.524
 2055TIP3    H2 6109   5.453   7.438   0.484
 2056TIP3   OH2 6110   0.233   2.462   4.966
 2056TIP3    H1 6111   0.316   2.510   4.960
 2056TIP3    H2 6112   0.258   2.371   4.949
 2057TIP3   OH2 6113   7.912   3.466   2.954
 2057TIP3    H1 6114   7.936   3.373   2.950
 2057TIP3    H2 6115   7.840   3.475   2.891
 2058TIP3   OH2 6116   6.785   4.036   5.983
 2058TIP3    H1 6117   6.845   3.977   5.939
 2058TIP3    H2 6118   6.788   4.117   5.931
 2059TIP3   OH2 6119   8.311   6.527   5.850
 2059TIP3    H1 6120   8.225   6.508   5.813
 2059TIP3    H2 6121   8.304   6.504   5.943
 2060TIP3   OH2 6122   4.545   6.819   1.846
 2060TIP3    H1 6123   4.623   6.765   1.856
 2060TIP3    H2 6124   4.563   6.875   1.771
 2061TIP3   OH2 6125   3.805   3.986   3.888
 2061TIP3    H1 6126   3.887   4.036   3.884
 2061TIP3    H2 6127   3.764   4.014   3.970
 2062TIP3   OH2 6128   6.473   4.215   0.546
 2062TIP3    H1 6129   6.435   4.275   0.611
 2062TIP3    H2 6130   6.509   4.272   0.479
 2063TIP3   OH2 6131   0.446   4.417   0.448
 2063TIP3    H1 6132   0.476   4.371   0.369
 2063TIP3    H2 6133   0.471   4.508   0.434
 2064TIP3   OH2 6134   3.001   3.767   2.106
 2064TIP3    H1 6135   2.934   3.807   2.050
 2064TIP3    H2 6136   3.079   3.763   2.052
 2065TIP3   OH2 6137   1.663   4.478   4.048
 2065TIP3    H1 6138   1.607   4.485   4.126
 2065TIP3    H2 6139   1.710   4.395   4.060
 2066TIP3   OH2 6140   0.530   2.386   2.561
 2066TIP3    H1 6141   0.434   2.384   2.563
 2066TIP3    H2 6142   0.553   2.319   2.496
 2067TIP3   OH2 6143   1.927   7.354   6.324
 2067TIP3    H1 6144   1.935   7.267   6.362
 2067TIP3    H2 6145   2.016   7.389   6.325
 2068TIP3   OH2 6146   5.376   2.164   2.191
 2068TIP3    H1 6147   5.426   2.245   2.185
 2068TIP3    H2 6148   5.380   2.141   2.284
 2069TIP3   OH2 6149   2.959   5.636   2.285
 2069TIP3    H1 6150   2.887   5.590   2.243
 2069TIP3    H2 6151   2.973   5.714   2.232
 2070TIP3   OH2 6152   2.724   7.295   1.127
 2070TIP3    H1 6153   2.676   7.244   1.061
 2070TIP3    H2 6154   2.680   7.380   1.127
 2071TIP3   OH2 6155   5.208   1.934   2.378
 2071TIP3    H1 6156   5.159   2.003   2.332
 2071TIP3    H2 6157   5.207   1.962   2.469
 2072TIP3   OH2 6158   1.343   4.152   4.852
 2072TIP3    H1 6159   1.260   4.109   4.872
 2072TIP3    H2 6160   1.338   4.236   4.898
 2073TIP3   OH2 6161   3.815   5.171   1.363
 2073TIP3    H1 6162   3.787   5.137   1.448
 2073TIP3    H2 6163   3.772   5.256   1.356
 2074TIP3   OH2 6164   8.073   2.216   1.999
 2074TIP3    H1 6165   8.078   2.208   1.904
 2074TIP3    H2 6166   8.135   2.150   2.032
 2075TIP3   OH2 6167   0.253   7.188   3.071
 2075TIP3    H1 6168   0.205   7.144   3.142
 2075TIP3    H2 6169   0.306   7.255   3.116
 2076TIP3   OH2 6170   2.586   2.848   0.424
 2076TIP3    H1 6171   2.653   2.853   0.493
 2076TIP3    H2 6172   2.576   2.755   0.407
 2077TIP3   OH2 6173   7.782   0.771   4.740
 2077TIP3    H1 6174   7.872   0.785   4.712
 2077TIP3    H2 6175   7.757   0.689   4.697
 2078TIP3   OH2 6176   4.760   1.468   4.562
 2078TIP3    H1 6177   4.677   1.486   4.518
 2078TIP3    H2 6178   4.735   1.425   4.643
 2079TIP3   OH2 6179   4.279   6.784   2.754
 2079TIP3    H1 6180   4.220   6.723   2.708
 2079TIP3    H2 6181   4.309   6.735   2.830
 2080TIP3   OH2 6182   4.539   3.084   6.057
 2080TIP3    H1 6183   4.537   3.178   6.039
 2080TIP3    H2 6184   4.576   3.078   6.145
 2081TIP3   OH2 6185   3.297   6.195   3.923
 2081TIP3    H1 6186   3.225   6.156   3.874
 2081TIP3    H2 6187   3.364   6.213   3.857
 2082TIP3   OH2 6188   5.197   0.101   6.080
 2082TIP3    H1 6189   5.153   0.186   6.072
 2082TIP3    H2 6190   5.279   0.121   6.126
 2083TIP3   OH2 6191   6.786   2.720   2.768
 2083TIP3    H1 6192   6.825   2.756   2.688
 2083TIP3    H2 6193   6.717   2.781   2.791
 2084TIP3   OH2 6194   6.511   5.561   3.076
 2084TIP3    H1 6195   6.522   5.483   3.021
 2084TIP3    H2 6196   6.441   5.610   3.033
 2085TIP3   OH2 6197   6.431   3.085   5.315
 2085TIP3    H1 6198   6.445   3.027   5.240
 2085TIP3    H2 6199   6.385   3.161   5.278
 2086TIP3   OH2 6200   2.444   2.512   6.108
 2086TIP3    H1 6201   2.474   2.475   6.025
 2086TIP3    H2 6202   2.409   2.598   6.085
 2087TIP3   OH2 6203   2.185   4.781   5.147
 2087TIP3    H1 6204   2.095   4.813   5.136
 2087TIP3    H2 6205   2.240   4.856   5.126
 2088TIP3   OH2 6206   7.288   2.924   5.558
 2088TIP3    H1 6207   7.243   2.949   5.477
 2088TIP3    H2 6208   7.321   2.836   5.541
 2089TIP3   OH2 6209   5.107   5.936   4.772
 2089TIP3    H1 6210   5.032   5.912   4.717
 2089TIP3    H2 6211   5.148   5.853   4.794
 2090TIP3   OH2 6212   0.929   2.429   6.515
 2090TIP3    H1 6213   0.978   2.508   6.537
 2090TIP3    H2 6214   0.966   2.361   6.570
 2091TIP3   OH2 6215   6.003   1.728   6.105
 2091TIP3    H1 6216   6.001   1.649   6.052
 2091TIP3    H2 6217   5.918   1.729   6.150
 2092TIP3   OH2 6218   6.471   3.451   1.815
 2092TIP3    H1 6219   6.495   3.418   1.728
 2092TIP3    H2 6220   6.553   3.452   1.864
 2093TIP3   OH2 6221   4.351   4.634   0.836
 2093TIP3    H1 6222   4.426   4.668   0.787
 2093TIP3    H2 6223   4.303   4.712   0.863
 2094TIP3   OH2 6224   4.232   0.075   2.513
 2094TIP3    H1 6225   4.225   0.075   2.418
 2094TIP3    H2 6226   4.164   0.015   2.542
 2095TIP3   OH2 6227   1.063   2.949   0.304
 2095TIP3    H1 6228   1.079   2.909   0.218
 2095TIP3    H2 6229   1.013   3.028   0.284
 2096TIP3   OH2 6230   5.012   0.323   4.614
 2096TIP3    H1 6231   4.949   0.393   4.631
 2096TIP3    H2 6232   4.976   0.247   4.660
 2097TIP3   OH2 6233   0.615   7.720   0.157
 2097TIP3    H1 6234   0.586   7.674   0.236
 2097TIP3    H2 6235   0.698   7.761   0.183
 2098TIP3   OH2 6236   1.399   6.097   4.640
 2098TIP3    H1 6237   1.393   6.017   4.588
 2098TIP3    H2 6238   1.489   6.097   4.673
 2099TIP3   OH2 6239   5.892   6.271   5.500
 2099TIP3    H1 6240   5.842   6.199   5.462
 2099TIP3    H2 6241   5.895   6.252   5.594
 2100TIP3   OH2 6242   2.859   5.311   3.718
 2100TIP3    H1 6243   2.950   5.318   3.748
 2100TIP3    H2 6244   2.808   5.344   3.792
 2101TIP3   OH2 6245   0.716   2.812   4.717
 2101TIP3    H1 6246   0.626   2.839   4.700
 2101TIP3    H2 6247   0.721   2.801   4.811
 2102TIP3   OH2 6248   2.411   4.355   5.897
 2102TIP3    H1 6249   2.352   4.320   5.830
 2102TIP3    H2 6250   2.387   4.447   5.904
 2103TIP3   OH2 6251   2.046   3.918   3.079
 2103TIP3    H1 6252   2.051   4.007   3.114
 2103TIP3    H2 6253   2.078   3.863   3.150
 2104TIP3   OH2 6254   0.200   0.938   5.884
 2104TIP3    H1 6255   0.270   0.995   5.917
 2104TIP3    H2 6256   0.241   0.887   5.815
 2105TIP3   OH2 6257   7.658   6.180   2.623
 2105TIP3    H1 6258   7.638   6.127   2.700
 2105TIP3    H2 6259   7.683   6.116   2.556
 2106TIP3   OH2 6260   1.118   0.074   3.466
 2106TIP3    H1 6261   1.155   0.126   3.394
 2106TIP3    H2 6262   1.074   0.001   3.423
 2107TIP3   OH2 6263   7.941   7.559   5.469
 2107TIP3    H1 6264   8.017   7.590   5.517
 2107TIP3    H2 6265   7.900   7.495   5.527
 2108TIP3   OH2 6266   4.916   1.778   2.472
 2108TIP3    H1 6267   4.938   1.694   2.431
 2108TIP3    H2 6268   4.865   1.824   2.405
 2109TIP3   OH2 6269   0.378   3.946   6.046
 2109TIP3    H1 6270   0.425   3.969   5.965
 2109TIP3    H2 6271   0.290   3.981   6.033
 2110TIP3   OH2 6272   5.831   5.970   3.696
 2110TIP3    H1 6273   5.783   5.886   3.691
 2110TIP3    H2 6274   5.769   6.034   3.660
 2111TIP3   OH2 6275   1.502   4.580   1.010
 2111TIP3    H1 6276   1.597   4.569   1.007
 2111TIP3    H2 6277   1.467   4.492   1.000
 2112TIP3   OH2 6278   2.476   5.646   3.507
 2112TIP3    H1 6279   2.407   5.712   3.510
 2112TIP3    H2 6280   2.460   5.591   3.584
 2113TIP3   OH2 6281   3.871   5.179   1.883
 2113TIP3    H1 6282   3.959   5.182   1.846
 2113TIP3    H2 6283   3.813   5.177   1.806
 2114TIP3   OH2 6284   2.579   0.490   4.726
 2114TIP3    H1 6285   2.622   0.473   4.810
 2114TIP3    H2 6286   2.500   0.539   4.749
 2115TIP3   OH2 6287   7.952   1.195   4.827
 2115TIP3    H1 6288   7.880   1.140   4.798
 2115TIP3    H2 6289   7.992   1.227   4.746
 2116TIP3   OH2 6290   7.575   4.425   1.099
 2116TIP3    H1 6291   7.518   4.389   1.031
 2116TIP3    H2 6292   7.663   4.405   1.069
 2117TIP3   OH2 6293   1.815   1.896   1.294
 2117TIP3    H1 6294   1.726   1.921   1.271
 2117TIP3    H2 6295   1.805   1.818   1.349
 2118TIP3   OH2 6296   4.866   5.890   6.406
 2118TIP3    H1 6297   4.794   5.923   6.460
 2118TIP3    H2 6298   4.927   5.850   6.468
 2119TIP3   OH2 6299   7.373   7.531   4.267
 2119TIP3    H1 6300   7.347   7.559   4.354
 2119TIP3    H2 6301   7.466   7.508   4.276
 2120TIP3   OH2 6302   0.642   5.215   6.602
 2120TIP3    H1 6303   0.671   5.124   6.589
 2120TIP3    H2 6304   0.723   5.265   6.612
 2121TIP3   OH2 6305   1.128   7.051   5.387
 2121TIP3    H1 6306   1.132   7.138   5.347
 2121TIP3    H2 6307   1.053   7.056   5.447
 2122TIP3   OH2 6308   1.276   6.600   3.800
 2122TIP3    H1 6309   1.329   6.537   3.750
 2122TIP3    H2 6310   1.331   6.678   3.807
 2123TIP3   OH2 6311   3.202   1.472   2.561
 2123TIP3    H1 6312   3.135   1.481   2.629
 2123TIP3    H2 6313   3.155   1.488   2.479
 2124TIP3   OH2 6314   6.157   7.113   4.708
 2124TIP3    H1 6315   6.115   7.138   4.790
 2124TIP3    H2 6316   6.097   7.142   4.640
 2125TIP3   OH2 6317   6.502   1.404   0.502
 2125TIP3    H1 6318   6.555   1.452   0.439
 2125TIP3    H2 6319   6.512   1.453   0.584
 2126TIP3   OH2 6320   0.654   3.071   4.914
 2126TIP3    H1 6321   0.705   3.102   4.989
 2126TIP3    H2 6322   0.575   3.124   4.915
 2127TIP3   OH2 6323   7.269   6.488   1.473
 2127TIP3    H1 6324   7.328   6.441   1.414
 2127TIP3    H2 6325   7.275   6.441   1.556
 2128TIP3   OH2 6326   3.113   7.235   4.110
 2128TIP3    H1 6327   3.208   7.235   4.120
 2128TIP3    H2 6328   3.091   7.327   4.096
 2129TIP3   OH2 6329   4.714   3.138   3.761
 2129TIP3    H1 6330   4.763   3.164   3.839
 2129TIP3    H2 6331   4.703   3.044   3.770
 2130TIP3   OH2 6332   5.532   4.314   6.534
 2130TIP3    H1 6333   5.568   4.398   6.507
 2130TIP3    H2 6334   5.497   4.276   6.453
 2131TIP3   OH2 6335   7.756   5.929   5.173
 2131TIP3    H1 6336   7.727   5.841   5.198
 2131TIP3    H2 6337   7.752   5.980   5.254
 2132TIP3   OH2 6338   0.441   2.120   4.191
 2132TIP3    H1 6339   0.499   2.165   4.129
 2132TIP3    H2 6340   0.458   2.163   4.275
 2133TIP3   OH2 6341   7.348   3.533   1.228
 2133TIP3    H1 6342   7.394   3.577   1.299
 2133TIP3    H2 6343   7.303   3.604   1.182
 2134TIP3   OH2 6344   5.120   6.114   1.256
 2134TIP3    H1 6345   5.130   6.019   1.265
 2134TIP3    H2 6346   5.074   6.126   1.173
 2135TIP3   OH2 6347   1.309   0.512   5.537
 2135TIP3    H1 6348   1.277   0.602   5.546
 2135TIP3    H2 6349   1.285   0.487   5.448
 2136TIP3   OH2 6350   1.917   4.443   3.206
 2136TIP3    H1 6351   1.849   4.427   3.272
 2136TIP3    H2 6352   1.905   4.535   3.181
 2137TIP3   OH2 6353   7.826   4.116   1.433
 2137TIP3    H1 6354   7.863   4.092   1.518
 2137TIP3    H2 6355   7.787   4.035   1.400
 2138TIP3   OH2 6356   1.704   4.366   1.372
 2138TIP3    H1 6357   1.640   4.304   1.335
 2138TIP3    H2 6358   1.676   4.377   1.463
 2139TIP3   OH2 6359   1.973   7.670   6.351
 2139TIP3    H1 6360   2.004   7.581   6.369
 2139TIP3    H2 6361   1.882   7.658   6.322
 2140TIP3   OH2 6362   8.229   7.274   6.145
 2140TIP3    H1 6363   8.142   7.285   6.182
 2140TIP3    H2 6364   8.250   7.358   6.104
 2141TIP3   OH2 6365   0.436   5.254   1.687
 2141TIP3    H1 6366   0.341   5.242   1.688
 2141TIP3    H2 6367   0.469   5.180   1.636
 2142TIP3   OH2 6368   7.424   2.820   0.656
 2142TIP3    H1 6369   7.412   2.906   0.695
 2142TIP3    H2 6370   7.501   2.784   0.699
 2143TIP3   OH2 6371   2.348   3.950   4.997
 2143TIP3    H1 6372   2.437   3.934   4.967
 2143TIP3    H2 6373   2.354   3.947   5.093
 2144TIP3   OH2 6374   6.464   0.535   1.777
 2144TIP3    H1 6375   6.470   0.611   1.719
 2144TIP3    H2 6376   6.375   0.502   1.763
 2145TIP3   OH2 6377   7.985   4.296   0.208
 2145TIP3    H1 6378   8.039   4.334   0.138
 2145TIP3    H2 6379   7.926   4.367   0.233
 2146TIP3   OH2 6380   4.009   2.747   1.172
 2146TIP3    H1 6381   3.940   2.700   1.125
 2146TIP3    H2 6382   3.982   2.839   1.168
 2147TIP3   OH2 6383   4.475   1.172   6.645
 2147TIP3    H1 6384   4.470   1.089   6.598
 2147TIP3    H2 6385   4.401   1.171   6.706
 2148TIP3   OH2 6386   4.989   3.543   5.675
 2148TIP3    H1 6387   5.019   3.493   5.750
 2148TIP3    H2 6388   4.923   3.487   5.634
 2149TIP3   OH2 6389   2.595   1.178   1.979
 2149TIP3    H1 6390   2.598   1.264   2.022
 2149TIP3    H2 6391   2.658   1.125   2.027
 2150TIP3   OH2 6392   7.598   6.881   2.231
 2150TIP3    H1 6393   7.566   6.791   2.222
 2150TIP3    H2 6394   7.552   6.930   2.163
 2151TIP3   OH2 6395   3.508   3.936   3.563
 2151TIP3    H1 6396   3.533   3.901   3.477
 2151TIP3    H2 6397   3.544   3.873   3.626
 2152TIP3   OH2 6398   1.945   4.224   6.328
 2152TIP3    H1 6399   2.026   4.199   6.371
 2152TIP3    H2 6400   1.930   4.314   6.356
 2153TIP3   OH2 6401   7.604   5.026   0.231
 2153TIP3    H1 6402   7.692   4.997   0.257
 2153TIP3    H2 6403   7.621   5.097   0.169
 2154TIP3   OH2 6404   4.659   3.719   5.674
 2154TIP3    H1 6405   4.652   3.812   5.650
 2154TIP3    H2 6406   4.575   3.698   5.714
 2155TIP3   OH2 6407   5.658   2.154   3.853
 2155TIP3    H1 6408   5.631   2.098   3.926
 2155TIP3    H2 6409   5.719   2.216   3.891
 2156TIP3   OH2 6410   0.065   6.413   4.728
 2156TIP3    H1 6411   0.066   6.317   4.729
 2156TIP3    H2 6412   0.031   6.438   4.814
 2157TIP3   OH2 6413   5.388   6.215   6.565
 2157TIP3    H1 6414   5.297   6.241   6.552
 2157TIP3    H2 6415   5.411   6.169   6.485
 2158TIP3   OH2 6416   3.922   2.236   5.352
 2158TIP3    H1 6417   3.943   2.180   5.277
 2158TIP3    H2 6418   3.945   2.324   5.324
 2159TIP3   OH2 6419   4.799   4.265   1.090
 2159TIP3    H1 6420   4.866   4.221   1.143
 2159TIP3    H2 6421   4.843   4.342   1.055
 2160TIP3   OH2 6422   6.891   1.920   3.328
 2160TIP3    H1 6423   6.952   1.929   3.402
 2160TIP3    H2 6424   6.808   1.953   3.362
 2161TIP3   OH2 6425   7.763   4.690   5.024
 2161TIP3    H1 6426   7.764   4.750   4.949
 2161TIP3    H2 6427   7.778   4.747   5.100
 2162TIP3   OH2 6428   5.191   3.222   3.008
 2162TIP3    H1 6429   5.250   3.184   3.073
 2162TIP3    H2 6430   5.244   3.230   2.929
 2163TIP3   OH2 6431   3.249   2.404   5.114
 2163TIP3    H1 6432   3.293   2.368   5.036
 2163TIP3    H2 6433   3.200   2.479   5.081
 2164TIP3   OH2 6434   7.586   2.820   2.704
 2164TIP3    H1 6435   7.541   2.897   2.668
 2164TIP3    H2 6436   7.538   2.801   2.785
 2165TIP3   OH2 6437   5.839   3.301   2.229
 2165TIP3    H1 6438   5.813   3.352   2.152
 2165TIP3    H2 6439   5.933   3.287   2.218
 2166TIP3   OH2 6440   4.774   7.726   0.141
 2166TIP3    H1 6441   4.757   7.792   0.209
 2166TIP3    H2 6442   4.692   7.677   0.134
 2167TIP3   OH2 6443   5.948   1.988   1.551
 2167TIP3    H1 6444   5.913   1.901   1.574
 2167TIP3    H2 6445   5.870   2.039   1.528
 2168TIP3   OH2 6446   3.662   7.720   5.878
 2168TIP3    H1 6447   3.599   7.792   5.876
 2168TIP3    H2 6448   3.691   7.717   5.969
 2169TIP3   OH2 6449   0.336   5.517   3.708
 2169TIP3    H1 6450   0.385   5.448   3.754
 2169TIP3    H2 6451   0.383   5.597   3.727
 2170TIP3   OH2 6452   4.164   1.844   4.369
 2170TIP3    H1 6453   4.144   1.781   4.300
 2170TIP3    H2 6454   4.139   1.800   4.450
 2171TIP3   OH2 6455   2.482   6.194   1.971
 2171TIP3    H1 6456   2.414   6.220   2.034
 2171TIP3    H2 6457   2.434   6.179   1.890
 2172TIP3   OH2 6458   8.122   5.714   2.363
 2172TIP3    H1 6459   8.211   5.680   2.353
 2172TIP3    H2 6460   8.112   5.728   2.457
 2173TIP3   OH2 6461   5.095   6.312   3.125
 2173TIP3    H1 6462   5.061   6.385   3.177
 2173TIP3    H2 6463   5.017   6.271   3.088
 2174TIP3   OH2 6464   3.394   4.096   5.380
 2174TIP3    H1 6465   3.390   4.083   5.474
 2174TIP3    H2 6466   3.452   4.171   5.368
 2175TIP3   OH2 6467   2.276   0.405   1.819
 2175TIP3    H1 6468   2.223   0.335   1.858
 2175TIP3    H2 6469   2.358   0.402   1.868
 2176TIP3   OH2 6470   1.508   5.160   6.553
 2176TIP3    H1 6471   1.554   5.093   6.503
 2176TIP3    H2 6472   1.528   5.242   6.507
 2177TIP3   OH2 6473   1.828   1.654   5.120
 2177TIP3    H1 6474   1.792   1.669   5.032
 2177TIP3    H2 6475   1.917   1.688   5.116
 2178TIP3   OH2 6476   5.340   6.079   1.004
 2178TIP3    H1 6477   5.380   6.018   1.066
 2178TIP3    H2 6478   5.415   6.128   0.968
 2179TIP3   OH2 6479   6.133   6.554   2.102
 2179TIP3    H1 6480   6.227   6.560   2.123
 2179TIP3    H2 6481   6.103   6.645   2.100
 2180TIP3   OH2 6482   6.112   1.857   0.637
 2180TIP3    H1 6483   6.127   1.844   0.731
 2180TIP3    H2 6484   6.071   1.775   0.608
 2181TIP3   OH2 6485   3.120   6.650   5.940
 2181TIP3    H1 6486   3.085   6.592   6.008
 2181TIP3    H2 6487   3.206   6.677   5.974
 2182TIP3   OH2 6488   6.578   7.383   2.560
 2182TIP3    H1 6489   6.662   7.362   2.519
 2182TIP3    H2 6490   6.586   7.349   2.649
 2183TIP3   OH2 6491   2.196   5.515   4.075
 2183TIP3    H1 6492   2.265   5.492   4.013
 2183TIP3    H2 6493   2.157   5.595   4.040
 2184TIP3   OH2 6494   6.658   3.682   5.860
 2184TIP3    H1 6495   6.716   3.608   5.841
 2184TIP3    H2 6496   6.688   3.715   5.945
 2185TIP3   OH2 6497   3.569   6.638   4.178
 2185TIP3    H1 6498   3.550   6.544   4.179
 2185TIP3    H2 6499   3.500   6.677   4.232
 2186TIP3   OH2 6500   6.937   5.438   2.924
 2186TIP3    H1 6501   6.908   5.508   2.865
 2186TIP3    H2 6502   6.978   5.485   2.997
 2187TIP3   OH2 6503   7.866   3.433   3.899
 2187TIP3    H1 6504   7.831   3.348   3.875
 2187TIP3    H2 6505   7.949   3.439   3.851
 2188TIP3   OH2 6506   6.162   6.155   4.455
 2188TIP3    H1 6507   6.080   6.162   4.505
 2188TIP3    H2 6508   6.157   6.226   4.392
 2189TIP3   OH2 6509   1.990   4.351   2.907
 2189TIP3    H1 6510   1.979   4.370   3.000
 2189TIP3    H2 6511   1.991   4.437   2.865
 2190TIP3   OH2 6512   3.077   2.717   5.248
 2190TIP3    H1 6513   3.014   2.788   5.263
 2190TIP3    H2 6514   3.073   2.664   5.328
 2191TIP3   OH2 6515   1.414   0.605   5.810
 2191TIP3    H1 6516   1.452   0.517   5.803
 2191TIP3    H2 6517   1.393   0.629   5.720
 2192TIP3   OH2 6518   3.405   6.940   5.948
 2192TIP3    H1 6519   3.494   6.967   5.923
 2192TIP3    H2 6520   3.348   6.989   5.889
 2193TIP3   OH2 6521   2.738   3.184   5.970
 2193TIP3    H1 6522   2.804   3.129   6.012
 2193TIP3    H2 6523   2.660   3.173   6.024
 2194TIP3   OH2 6524   6.558   0.405   3.037
 2194TIP3    H1 6525   6.506   0.425   2.959
 2194TIP3    H2 6526   6.641   0.373   3.003
 2195TIP3   OH2 6527   4.567   1.986   2.534
 2195TIP3    H1 6528   4.534   1.899   2.556
 2195TIP3    H2 6529   4.497   2.046   2.560
 2196TIP3   OH2 6530   0.431   7.692   2.086
 2196TIP3    H1 6531   0.352   7.746   2.079
 2196TIP3    H2 6532   0.500   7.745   2.046
 2197TIP3   OH2 6533   2.623   0.064   5.722
 2197TIP3    H1 6534   2.664  -0.021   5.712
 2197TIP3    H2 6535   2.694   0.127   5.713
 2198TIP3   OH2 6536   2.038   1.302   6.102
 2198TIP3    H1 6537   2.106   1.325   6.039
 2198TIP3    H2 6538   2.075   1.228   6.150
 2199TIP3   OH2 6539   3.917   0.260   4.536
 2199TIP3    H1 6540   3.877   0.326   4.479
 2199TIP3    H2 6541   3.882   0.177   4.505
 2200TIP3   OH2 6542   7.932   1.312   3.040
 2200TIP3    H1 6543   8.012   1.328   3.092
 2200TIP3    H2 6544   7.863   1.356   3.089
 2201TIP3   OH2 6545   4.666   7.227   1.187
 2201TIP3    H1 6546   4.711   7.158   1.235
 2201TIP3    H2 6547   4.666   7.198   1.096
 2202TIP3   OH2 6548   7.003   5.022   0.026
 2202TIP3    H1 6549   7.020   5.045   0.117
 2202TIP3    H2 6550   6.920   4.975   0.029
 2203TIP3   OH2 6551   2.992   1.562   1.313
 2203TIP3    H1 6552   2.951   1.544   1.229
 2203TIP3    H2 6553   3.035   1.647   1.301
 2204TIP3   OH2 6554   5.550   7.258   6.201
 2204TIP3    H1 6555   5.536   7.218   6.115
 2204TIP3    H2 6556   5.636   7.299   6.195
 2205TIP3   OH2 6557   1.062   0.682   6.068
 2205TIP3    H1 6558   1.017   0.634   5.998
 2205TIP3    H2 6559   1.128   0.734   6.022
 2206TIP3   OH2 6560   5.745   4.720   0.841
 2206TIP3    H1 6561   5.744   4.625   0.850
 2206TIP3    H2 6562   5.719   4.753   0.927
 2207TIP3   OH2 6563   1.176   3.456   4.876
 2207TIP3    H1 6564   1.153   3.429   4.787
 2207TIP3    H2 6565   1.253   3.404   4.898
 2208TIP3   OH2 6566   6.663   6.740   2.639
 2208TIP3    H1 6567   6.580   6.744   2.688
 2208TIP3    H2 6568   6.672   6.828   2.602
 2209TIP3   OH2 6569   3.471   6.410   4.038
 2209TIP3    H1 6570   3.476   6.343   4.107
 2209TIP3    H2 6571   3.381   6.443   4.043
 2210TIP3   OH2 6572   3.781   4.264   1.646
 2210TIP3    H1 6573   3.726   4.287   1.721
 2210TIP3    H2 6574   3.724   4.276   1.570
 2211TIP3   OH2 6575   3.697   3.942   5.919
 2211TIP3    H1 6576   3.667   3.898   5.998
 2211TIP3    H2 6577   3.741   4.021   5.950
 2212TIP3   OH2 6578   6.802   4.369   1.215
 2212TIP3    H1 6579   6.775   4.429   1.145
 2212TIP3    H2 6580   6.745   4.292   1.203
 2213TIP3   OH2 6581   0.847   0.774   1.027
 2213TIP3    H1 6582   0.911   0.844   1.010
 2213TIP3    H2 6583   0.819   0.746   0.940
 2214TIP3   OH2 6584   6.039   1.436   2.288
 2214TIP3    H1 6585   6.097   1.375   2.243
 2214TIP3    H2 6586   6.093   1.513   2.307
 2215TIP3   OH2 6587   5.789   2.336   0.192
 2215TIP3    H1 6588   5.788   2.344   0.288
 2215TIP3    H2 6589   5.882   2.347   0.169
 2216TIP3   OH2 6590   2.147   5.550   6.193
 2216TIP3    H1 6591   2.146   5.607   6.270
 2216TIP3    H2 6592   2.088   5.478   6.214
 2217TIP3   OH2 6593   4.979   0.058   1.379
 2217TIP3    H1 6594   5.009   0.092   1.295
 2217TIP3    H2 6595   5.055   0.067   1.437
 2218TIP3   OH2 6596   4.501   1.126   3.770
 2218TIP3    H1 6597   4.408   1.144   3.756
 2218TIP3    H2 6598   4.517   1.156   3.860
 2219TIP3   OH2 6599   1.287   3.612   6.469
 2219TIP3    H1 6600   1.198   3.583   6.491
 2219TIP3    H2 6601   1.274   3.692   6.418
 2220TIP3   OH2 6602   6.231   6.853   0.495
 2220TIP3    H1 6603   6.273   6.919   0.551
 2220TIP3    H2 6604   6.140   6.852   0.524
 2221TIP3   OH2 6605   1.878   4.044   5.538
 2221TIP3    H1 6606   1.872   4.010   5.628
 2221TIP3    H2 6607   1.790   4.075   5.518
 2222TIP3   OH2 6608   0.072   4.757   3.901
 2222TIP3    H1 6609   0.167   4.767   3.903
 2222TIP3    H2 6610   0.043   4.817   3.831
 2223TIP3   OH2 6611   0.941   2.195   6.661
 2223TIP3    H1 6612   1.023   2.150   6.643
 2223TIP3    H2 6613   0.881   2.166   6.592
 2224TIP3   OH2 6614   4.278   1.704   6.612
 2224TIP3    H1 6615   4.243   1.620   6.640
 2224TIP3    H2 6616   4.355   1.682   6.559
 2225TIP3   OH2 6617   6.682   6.789   0.048
 2225TIP3    H1 6618   6.589   6.774   0.064
 2225TIP3    H2 6619   6.708   6.855   0.112
 2226TIP3   OH2 6620   3.494   1.490   6.363
 2226TIP3    H1 6621   3.457   1.402   6.357
 2226TIP3    H2 6622   3.559   1.485   6.433
 2227TIP3   OH2 6623   5.519   0.951   3.737
 2227TIP3    H1 6624   5.585   1.012   3.705
 2227TIP3    H2 6625   5.569   0.882   3.781
 2228TIP3   OH2 6626   6.419   4.443   4.955
 2228TIP3    H1 6627   6.371   4.448   5.038
 2228TIP3    H2 6628   6.479   4.370   4.966
 2229TIP3   OH2 6629   5.415   2.633   3.108
 2229TIP3    H1 6630   5.394   2.547   3.073
 2229TIP3    H2 6631   5.386   2.629   3.200
 2230TIP3   OH2 6632   5.208   0.533   2.679
 2230TIP3    H1 6633   5.297   0.566   2.666
 2230TIP3    H2 6634   5.185   0.559   2.768
 2231TIP3   OH2 6635   4.870   0.548   0.764
 2231TIP3    H1 6636   4.868   0.529   0.670
 2231TIP3    H2 6637   4.849   0.465   0.806
 2232TIP3   OH2 6638   4.988   1.288   4.430
 2232TIP3    H1 6639   4.973   1.357   4.494
 2232TIP3    H2 6640   4.919   1.223   4.448
 2233TIP3   OH2 6641   4.665   3.664   2.312
 2233TIP3    H1 6642   4.730   3.601   2.342
 2233TIP3    H2 6643   4.716   3.735   2.273
 2234TIP3   OH2 6644   4.972   2.654   2.612
 2234TIP3    H1 6645   4.978   2.611   2.697
 2234TIP3    H2 6646   4.942   2.586   2.552
 2235TIP3   OH2 6647   4.973   7.596   0.294
 2235TIP3    H1 6648   4.922   7.652   0.235
 2235TIP3    H2 6649   4.909   7.563   0.357
 2236TIP3   OH2 6650   7.559   4.615   0.351
 2236TIP3    H1 6651   7.584   4.560   0.425
 2236TIP3    H2 6652   7.470   4.644   0.372
 2237TIP3   OH2 6653   7.635   7.397   4.259
 2237TIP3    H1 6654   7.650   7.329   4.325
 2237TIP3    H2 6655   7.609   7.349   4.181
 2238TIP3   OH2 6656   6.787   6.296   4.416
 2238TIP3    H1 6657   6.712   6.347   4.445
 2238TIP3    H2 6658   6.856   6.316   4.480
 2239TIP3   OH2 6659   0.106   7.110   3.274
 2239TIP3    H1 6660   0.139   7.040   3.331
 2239TIP3    H2 6661   0.120   7.190   3.325
 2240TIP3   OH2 6662   4.746   5.609   4.846
 2240TIP3    H1 6663   4.746   5.517   4.873
 2240TIP3    H2 6664   4.679   5.613   4.778
 2241TIP3   OH2 6665   7.677   1.718   5.274
 2241TIP3    H1 6666   7.754   1.762   5.309
 2241TIP3    H2 6667   7.606   1.780   5.288
 2242TIP3   OH2 6668   1.416   6.116   3.261
 2242TIP3    H1 6669   1.418   6.154   3.173
 2242TIP3    H2 6670   1.465   6.035   3.253
 2243TIP3   OH2 6671   0.167   1.028   2.338
 2243TIP3    H1 6672   0.116   1.089   2.391
 2243TIP3    H2 6673   0.219   1.085   2.281
 2244TIP3   OH2 6674   3.565   3.839   3.852
 2244TIP3    H1 6675   3.650   3.882   3.846
 2244TIP3    H2 6676   3.525   3.876   3.931
 2245TIP3   OH2 6677   7.347   2.188   0.160
 2245TIP3    H1 6678   7.274   2.128   0.143
 2245TIP3    H2 6679   7.367   2.225   0.074
 2246TIP3   OH2 6680   4.168   6.609   1.857
 2246TIP3    H1 6681   4.204   6.591   1.771
 2246TIP3    H2 6682   4.229   6.671   1.896
 2247TIP3   OH2 6683   4.676   4.720   0.318
 2247TIP3    H1 6684   4.720   4.647   0.274
 2247TIP3    H2 6685   4.584   4.694   0.320
 2248TIP3   OH2 6686   0.560   6.189   4.646
 2248TIP3    H1 6687   0.630   6.255   4.649
 2248TIP3    H2 6688   0.522   6.199   4.559
 2249TIP3   OH2 6689   6.558   1.824   3.078
 2249TIP3    H1 6690   6.583   1.804   2.988
 2249TIP3    H2 6691   6.603   1.907   3.098
 2250TIP3   OH2 6692   4.768   0.995   0.344
 2250TIP3    H1 6693   4.711   1.004   0.421
 2250TIP3    H2 6694   4.848   1.041   0.368
 2251TIP3   OH2 6695   6.156   5.166   6.680
 2251TIP3    H1 6696   6.142   5.242   6.735
 2251TIP3    H2 6697   6.166   5.202   6.592
 2252TIP3   OH2 6698   3.686   1.399   4.353
 2252TIP3    H1 6699   3.736   1.434   4.279
 2252TIP3    H2 6700   3.742   1.331   4.390
 2253TIP3   OH2 6701   2.258   7.554   6.567
 2253TIP3    H1 6702   2.331   7.530   6.625
 2253TIP3    H2 6703   2.280   7.643   6.538
 2254TIP3   OH2 6704   5.290   7.679   0.602
 2254TIP3    H1 6705   5.222   7.655   0.665
 2254TIP3    H2 6706   5.273   7.772   0.583
 2255TIP3   OH2 6707   2.843   0.935   0.013
 2255TIP3    H1 6708   2.783   0.989   0.065
 2255TIP3    H2 6709   2.801   0.849   0.010
 2256TIP3   OH2 6710   2.820   3.163   5.242
 2256TIP3    H1 6711   2.743   3.206   5.280
 2256TIP3    H2 6712   2.887   3.231   5.241
 2257TIP3   OH2 6713   6.438   1.471   1.031
 2257TIP3    H1 6714   6.382   1.519   1.093
 2257TIP3    H2 6715   6.498   1.422   1.087
 2258TIP3   OH2 6716   8.074   2.023   0.516
 2258TIP3    H1 6717   8.154   2.017   0.568
 2258TIP3    H2 6718   8.056   1.933   0.488
 2259TIP3   OH2 6719   1.134   2.737   4.441
 2259TIP3    H1 6720   1.104   2.648   4.460
 2259TIP3    H2 6721   1.131   2.744   4.346
 2260TIP3   OH2 6722   6.516   1.384   0.110
 2260TIP3    H1 6723   6.578   1.456   0.118
 2260TIP3    H2 6724   6.448   1.403   0.175
 2261TIP3   OH2 6725   2.958   1.146   5.534
 2261TIP3    H1 6726   2.944   1.188   5.619
 2261TIP3    H2 6727   2.931   1.212   5.470
 2262TIP3   OH2 6728   2.304   5.404   0.897
 2262TIP3    H1 6729   2.267   5.316   0.887
 2262TIP3    H2 6730   2.368   5.411   0.826
 2263TIP3   OH2 6731   6.322   1.167   4.397
 2263TIP3    H1 6732   6.293   1.257   4.412
 2263TIP3    H2 6733   6.275   1.115   4.463
 2264TIP3   OH2 6734   6.052   1.634   2.805
 2264TIP3    H1 6735   5.986   1.575   2.769
 2264TIP3    H2 6736   6.010   1.675   2.880
 2265TIP3   OH2 6737   7.752   3.219   4.853
 2265TIP3    H1 6738   7.690   3.242   4.922
 2265TIP3    H2 6739   7.789   3.303   4.825
 2266TIP3   OH2 6740   7.968   7.658   4.398
 2266TIP3    H1 6741   7.937   7.588   4.454
 2266TIP3    H2 6742   7.910   7.655   4.321
 2267TIP3   OH2 6743   0.409   1.191   0.517
 2267TIP3    H1 6744   0.412   1.100   0.487
 2267TIP3    H2 6745   0.344   1.191   0.588
 2268TIP3   OH2 6746   0.845   5.405   4.725
 2268TIP3    H1 6747   0.773   5.353   4.690
 2268TIP3    H2 6748   0.894   5.434   4.647
 2269TIP3   OH2 6749   4.716   2.565   3.503
 2269TIP3    H1 6750   4.674   2.531   3.583
 2269TIP3    H2 6751   4.761   2.644   3.532
 2270TIP3   OH2 6752   5.887   4.132   4.311
 2270TIP3    H1 6753   5.967   4.178   4.286
 2270TIP3    H2 6754   5.915   4.044   4.334
 2271TIP3   OH2 6755   6.594   3.705   4.268
 2271TIP3    H1 6756   6.571   3.614   4.252
 2271TIP3    H2 6757   6.529   3.756   4.219
 2272TIP3   OH2 6758   3.937   0.640   6.343
 2272TIP3    H1 6759   3.897   0.726   6.329
 2272TIP3    H2 6760   4.005   0.655   6.408
 2273TIP3   OH2 6761   8.028   6.437   5.017
 2273TIP3    H1 6762   7.964   6.501   5.047
 2273TIP3    H2 6763   8.015   6.361   5.074
 2274TIP3   OH2 6764   0.822   6.723   4.339
 2274TIP3    H1 6765   0.839   6.635   4.371
 2274TIP3    H2 6766   0.754   6.712   4.272
 2275TIP3   OH2 6767   3.136   4.594   4.991
 2275TIP3    H1 6768   3.099   4.664   5.045
 2275TIP3    H2 6769   3.226   4.585   5.020
 2276TIP3   OH2 6770   0.396   5.847   2.249
 2276TIP3    H1 6771   0.425   5.921   2.302
 2276TIP3    H2 6772   0.350   5.790   2.311
 2277TIP3   OH2 6773   6.988   0.067   5.552
 2277TIP3    H1 6774   6.977   0.105   5.465
 2277TIP3    H2 6775   6.906   0.022   5.569
 2278TIP3   OH2 6776   8.043   0.563   0.061
 2278TIP3    H1 6777   7.956   0.531   0.038
 2278TIP3    H2 6778   8.100   0.529  -0.008
 2279TIP3   OH2 6779   5.088   1.525   3.680
 2279TIP3    H1 6780   5.180   1.509   3.700
 2279TIP3    H2 6781   5.047   1.439   3.689
 2280TIP3   OH2 6782   6.662   7.028   1.295
 2280TIP3    H1 6783   6.667   6.994   1.385
 2280TIP3    H2 6784   6.614   6.961   1.247
 2281TIP3   OH2 6785   0.496   2.560   0.235
 2281TIP3    H1 6786   0.587   2.533   0.245
 2281TIP3    H2 6787   0.485   2.574   0.141
 2282TIP3   OH2 6788   0.206   5.310   2.537
 2282TIP3    H1 6789   0.282   5.260   2.506
 2282TIP3    H2 6790   0.244   5.385   2.582
 2283TIP3   OH2 6791   1.978   2.342   2.104
 2283TIP3    H1 6792   2.039   2.372   2.036
 2283TIP3    H2 6793   1.893   2.379   2.077
 2284TIP3   OH2 6794   1.502   1.075   4.837
 2284TIP3    H1 6795   1.482   1.092   4.929
 2284TIP3    H2 6796   1.516   1.162   4.799
 2285TIP3   OH2 6797   4.044   3.353   4.984
 2285TIP3    H1 6798   3.988   3.409   5.038
 2285TIP3    H2 6799   4.096   3.303   5.046
 2286TIP3   OH2 6800   5.779   6.832   5.949
 2286TIP3    H1 6801   5.872   6.841   5.968
 2286TIP3    H2 6802   5.742   6.918   5.970
 2287TIP3   OH2 6803  -0.042   1.523   0.928
 2287TIP3    H1 6804  -0.017   1.590   0.992
 2287TIP3    H2 6805   0.005   1.444   0.957
 2288TIP3   OH2 6806   7.928   3.879   4.568
 2288TIP3    H1 6807   7.970   3.798   4.594
 2288TIP3    H2 6808   7.942   3.939   4.642
 2289TIP3   OH2 6809   7.760   6.552   0.342
 2289TIP3    H1 6810   7.756   6.615   0.415
 2289TIP3    H2 6811   7.672   6.552   0.305
 2290TIP3   OH2 6812   3.818   3.244   5.558
 2290TIP3    H1 6813   3.841   3.163   5.603
 2290TIP3    H2 6814   3.785   3.214   5.473
 2291TIP3   OH2 6815   4.270   3.454   3.029
 2291TIP3    H1 6816   4.214   3.397   3.082
 2291TIP3    H2 6817   4.307   3.395   2.962
 2292TIP3   OH2 6818   3.818   6.035   2.442
 2292TIP3    H1 6819   3.741   5.978   2.440
 2292TIP3    H2 6820   3.792   6.107   2.500
 2293TIP3   OH2 6821   5.836   4.183   2.409
 2293TIP3    H1 6822   5.872   4.269   2.433
 2293TIP3    H2 6823   5.890   4.155   2.336
 2294TIP3   OH2 6824   7.528   0.854   3.177
 2294TIP3    H1 6825   7.493   0.939   3.151
 2294TIP3    H2 6826   7.504   0.844   3.269
 2295TIP3   OH2 6827   2.396   3.524   2.262
 2295TIP3    H1 6828   2.410   3.538   2.168
 2295TIP3    H2 6829   2.315   3.473   2.267
 2296TIP3   OH2 6830   3.294   2.413   0.290
 2296TIP3    H1 6831   3.359   2.362   0.242
 2296TIP3    H2 6832   3.221   2.354   0.303
 2297TIP3   OH2 6833   4.874   1.918   1.325
 2297TIP3    H1 6834   4.847   1.997   1.279
 2297TIP3    H2 6835   4.914   1.950   1.405
 2298TIP3   OH2 6836   1.403   3.061   1.468
 2298TIP3    H1 6837   1.310   3.053   1.488
 2298TIP3    H2 6838   1.406   3.107   1.384
 2299TIP3   OH2 6839   2.698   1.827   2.743
 2299TIP3    H1 6840   2.667   1.740   2.718
 2299TIP3    H2 6841   2.791   1.816   2.761
 2300TIP3   OH2 6842   6.483   1.924   3.708
 2300TIP3    H1 6843   6.421   1.995   3.689
 2300TIP3    H2 6844   6.428   1.846   3.717
 2301TIP3   OH2 6845   3.585   7.768   5.542
 2301TIP3    H1 6846   3.648   7.740   5.475
 2301TIP3    H2 6847   3.561   7.688   5.588
 2302TIP3   OH2 6848   4.054   5.443   0.838
 2302TIP3    H1 6849   4.080   5.423   0.748
 2302TIP3    H2 6850   4.087   5.531   0.854
 2303TIP3   OH2 6851   4.719   2.534   5.385
 2303TIP3    H1 6852   4.801   2.493   5.360
 2303TIP3    H2 6853   4.678   2.472   5.446
 2304TIP3   OH2 6854   3.150   0.995   1.950
 2304TIP3    H1 6855   3.220   1.033   1.896
 2304TIP3    H2 6856   3.071   1.008   1.898
 2305TIP3   OH2 6857   4.777   4.079   1.901
 2305TIP3    H1 6858   4.755   4.014   1.834
 2305TIP3    H2 6859   4.767   4.163   1.858
 2306TIP3   OH2 6860   0.435   2.295   2.013
 2306TIP3    H1 6861   0.340   2.307   2.008
 2306TIP3    H2 6862   0.467   2.319   1.926
 2307TIP3   OH2 6863   7.368   7.654   3.163
 2307TIP3    H1 6864   7.365   7.747   3.144
 2307TIP3    H2 6865   7.460   7.637   3.185
 2308TIP3   OH2 6866   7.987   6.073   4.213
 2308TIP3    H1 6867   8.009   5.982   4.233
 2308TIP3    H2 6868   7.997   6.080   4.118
 2309TIP3   OH2 6869   2.853   4.205   5.159
 2309TIP3    H1 6870   2.945   4.185   5.175
 2309TIP3    H2 6871   2.816   4.125   5.124
 2310TIP3   OH2 6872   0.463   6.861   3.319
 2310TIP3    H1 6873   0.514   6.942   3.328
 2310TIP3    H2 6874   0.490   6.807   3.393
 2311TIP3   OH2 6875   5.633   5.558   6.763
 2311TIP3    H1 6876   5.605   5.631   6.819
 2311TIP3    H2 6877   5.649   5.598   6.678
 2312TIP3   OH2 6878   5.509   4.366   2.546
 2312TIP3    H1 6879   5.423   4.399   2.571
 2312TIP3    H2 6880   5.528   4.409   2.463
 2313TIP3   OH2 6881   0.793   1.926   5.224
 2313TIP3    H1 6882   0.720   1.882   5.180
 2313TIP3    H2 6883   0.866   1.918   5.163
 2314TIP3   OH2 6884   7.253   0.953   0.833
 2314TIP3    H1 6885   7.320   0.994   0.778
 2314TIP3    H2 6886   7.179   0.939   0.774
 2315TIP3   OH2 6887   7.759   2.201   3.806
 2315TIP3    H1 6888   7.703   2.136   3.849
 2315TIP3    H2 6889   7.808   2.242   3.877
 2316TIP3   OH2 6890   5.090   2.685   3.183
 2316TIP3    H1 6891   5.019   2.732   3.228
 2316TIP3    H2 6892   5.162   2.686   3.245
 2317TIP3   OH2 6893   4.282   7.728   3.979
 2317TIP3    H1 6894   4.267   7.719   4.073
 2317TIP3    H2 6895   4.224   7.800   3.952
 2318TIP3   OH2 6896   1.595   7.173   3.225
 2318TIP3    H1 6897   1.676   7.199   3.181
 2318TIP3    H2 6898   1.611   7.083   3.252
 2319TIP3   OH2 6899   4.322   4.109   5.473
 2319TIP3    H1 6900   4.264   4.182   5.453
 2319TIP3    H2 6901   4.357   4.081   5.388
 2320TIP3   OH2 6902   7.997   0.454   0.340
 2320TIP3    H1 6903   8.035   0.500   0.265
 2320TIP3    H2 6904   8.053   0.377   0.351
 2321TIP3   OH2 6905   8.036   7.632   1.013
 2321TIP3    H1 6906   8.063   7.663   1.100
 2321TIP3    H2 6907   8.078   7.692   0.952
 2322TIP3   OH2 6908   0.938   6.731   5.227
 2322TIP3    H1 6909   0.858   6.779   5.210
 2322TIP3    H2 6910   0.914   6.639   5.216
 2323TIP3   OH2 6911   4.002   4.897   4.815
 2323TIP3    H1 6912   3.983   4.805   4.830
 2323TIP3    H2 6913   3.975   4.913   4.725
 2324TIP3   OH2 6914   7.464   0.160   6.148
 2324TIP3    H1 6915   7.425   0.202   6.225
 2324TIP3    H2 6916   7.403   0.182   6.077
 2325TIP3   OH2 6917   0.532   0.893   5.712
 2325TIP3    H1 6918   0.531   0.911   5.806
 2325TIP3    H2 6919   0.468   0.823   5.700
 2326TIP3   OH2 6920   4.602   6.600   5.552
 2326TIP3    H1 6921   4.542   6.637   5.488
 2326TIP3    H2 6922   4.689   6.610   5.513
 2327TIP3   OH2 6923   7.118   5.068   4.183
 2327TIP3    H1 6924   7.158   4.998   4.235
 2327TIP3    H2 6925   7.040   5.093   4.232
 2328TIP3   OH2 6926   8.032   7.013   5.493
 2328TIP3    H1 6927   8.106   7.065   5.524
 2328TIP3    H2 6928   8.035   7.021   5.398
 2329TIP3   OH2 6929   2.244   5.131   5.365
 2329TIP3    H1 6930   2.329   5.171   5.348
 2329TIP3    H2 6931   2.205   5.118   5.279
 2330TIP3   OH2 6932   7.123   3.395   5.387
 2330TIP3    H1 6933   7.213   3.370   5.408
 2330TIP3    H2 6934   7.085   3.317   5.346
 2331TIP3   OH2 6935   6.042   5.756   5.389
 2331TIP3    H1 6936   5.972   5.699   5.421
 2331TIP3    H2 6937   6.041   5.830   5.449
 2332TIP3   OH2 6938   3.542   5.529   4.509
 2332TIP3    H1 6939   3.509   5.618   4.524
 2332TIP3    H2 6940   3.595   5.510   4.587
 2333TIP3   OH2 6941   5.957   4.547   1.949
 2333TIP3    H1 6942   6.044   4.530   1.984
 2333TIP3    H2 6943   5.971   4.557   1.854
 2334TIP3   OH2 6944   3.725   7.782   6.640
 2334TIP3    H1 6945   3.678   7.865   6.631
 2334TIP3    H2 6946   3.756   7.763   6.551
 2335TIP3   OH2 6947   1.690   7.193   0.985
 2335TIP3    H1 6948   1.719   7.103   0.971
 2335TIP3    H2 6949   1.675   7.227   0.897
 2336TIP3   OH2 6950   1.196   2.809   2.489
 2336TIP3    H1 6951   1.135   2.803   2.564
 2336TIP3    H2 6952   1.281   2.787   2.526
 2337TIP3   OH2 6953   6.454   7.309   6.049
 2337TIP3    H1 6954   6.446   7.303   5.954
 2337TIP3    H2 6955   6.547   7.326   6.064
 2338TIP3   OH2 6956   1.331   3.474   0.940
 2338TIP3    H1 6957   1.356   3.382   0.935
 2338TIP3    H2 6958   1.254   3.481   0.884
 2339TIP3   OH2 6959   4.870   5.192   2.909
 2339TIP3    H1 6960   4.881   5.152   2.995
 2339TIP3    H2 6961   4.822   5.127   2.858
 2340TIP3   OH2 6962   0.476   3.281   4.957
 2340TIP3    H1 6963   0.440   3.306   4.871
 2340TIP3    H2 6964   0.400   3.275   5.014
 2341TIP3   OH2 6965   6.054   7.602   6.267
 2341TIP3    H1 6966   6.065   7.520   6.220
 2341TIP3    H2 6967   5.966   7.598   6.305
 2342TIP3   OH2 6968   0.386   1.310   3.761
 2342TIP3    H1 6969   0.417   1.301   3.671
 2342TIP3    H2 6970   0.435   1.384   3.796
 2343TIP3   OH2 6971   0.910   3.563   4.178
 2343TIP3    H1 6972   0.920   3.472   4.208
 2343TIP3    H2 6973   0.996   3.585   4.142
 2344TIP3   OH2 6974   2.921   3.649   3.242
 2344TIP3    H1 6975   2.960   3.624   3.158
 2344TIP3    H2 6976   2.944   3.578   3.302
 2345TIP3   OH2 6977   4.240   1.155   3.315
 2345TIP3    H1 6978   4.185   1.186   3.386
 2345TIP3    H2 6979   4.190   1.084   3.274
 2346TIP3   OH2 6980   6.812   4.071   4.280
 2346TIP3    H1 6981   6.732   4.083   4.330
 2346TIP3    H2 6982   6.812   4.142   4.215
 2347TIP3   OH2 6983   1.558   6.914   1.630
 2347TIP3    H1 6984   1.538   6.872   1.547
 2347TIP3    H2 6985   1.637   6.966   1.612
 2348TIP3   OH2 6986   4.357   5.945   2.900
 2348TIP3    H1 6987   4.413   5.970   2.826
 2348TIP3    H2 6988   4.387   5.857   2.924
 2349TIP3   OH2 6989   7.248   5.755   0.248
 2349TIP3    H1 6990   7.299   5.738   0.169
 2349TIP3    H2 6991   7.212   5.669   0.272
 2350TIP3   OH2 6992   0.633   6.481   0.355
 2350TIP3    H1 6993   0.641   6.532   0.274
 2350TIP3    H2 6994   0.634   6.546   0.425
 2351TIP3   OH2 6995   2.282   1.470   2.103
 2351TIP3    H1 6996   2.275   1.518   2.185
 2351TIP3    H2 6997   2.192   1.466   2.070
 2352TIP3   OH2 6998   0.511   4.764   1.355
 2352TIP3    H1 6999   0.503   4.859   1.341
 2352TIP3    H2 7000   0.501   4.753   1.449
 2353TIP3   OH2 7001   6.052   2.368   4.151
 2353TIP3    H1 7002   6.141   2.397   4.170
 2353TIP3    H2 7003   6.062   2.278   4.121
 2354TIP3   OH2 7004   2.784   2.895   4.660
 2354TIP3    H1 7005   2.846   2.953   4.616
 2354TIP3    H2 7006   2.834   2.859   4.734
 2355TIP3   OH2 7007   3.372   4.881   2.381
 2355TIP3    H1 7008   3.454   4.858   2.339
 2355TIP3    H2 7009   3.390   4.963   2.426
 2356TIP3   OH2 7010   1.897   0.370   5.814
 2356TIP3    H1 7011   1.865   0.301   5.756
 2356TIP3    H2 7012   1.983   0.393   5.780
 2357TIP3   OH2 7013   1.346   5.824   6.052
 2357TIP3    H1 7014   1.324   5.802   5.962
 2357TIP3    H2 7015   1.300   5.906   6.069
 2358TIP3   OH2 7016   7.902   2.388   3.960
 2358TIP3    H1 7017   7.977   2.447   3.964
 2358TIP3    H2 7018   7.868   2.386   4.049
 2359TIP3   OH2 7019   6.393   5.177   5.819
 2359TIP3    H1 7020   6.368   5.153   5.909
 2359TIP3    H2 7021   6.332   5.247   5.795
 2360TIP3   OH2 7022   2.562   6.500   5.388
 2360TIP3    H1 7023   2.583   6.593   5.394
 2360TIP3    H2 7024   2.591   6.474   5.301
 2361TIP3   OH2 7025   3.189   4.421   1.348
 2361TIP3    H1 7026   3.202   4.450   1.439
 2361TIP3    H2 7027   3.152   4.497   1.304
 2362TIP3   OH2 7028   0.159   4.291   1.723
 2362TIP3    H1 7029   0.187   4.217   1.777
 2362TIP3    H2 7030   0.241   4.333   1.696
 2363TIP3   OH2 7031   3.754   4.077   3.146
 2363TIP3    H1 7032   3.679   4.136   3.151
 2363TIP3    H2 7033   3.831   4.133   3.156
 2364TIP3   OH2 7034   6.563   5.957   1.363
 2364TIP3    H1 7035   6.586   5.993   1.449
 2364TIP3    H2 7036   6.473   5.926   1.373
 2365TIP3   OH2 7037   4.891   0.850   4.501
 2365TIP3    H1 7038   4.949   0.847   4.426
 2365TIP3    H2 7039   4.804   0.833   4.465
 2366TIP3   OH2 7040   1.579   5.706   6.076
 2366TIP3    H1 7041   1.606   5.736   5.989
 2366TIP3    H2 7042   1.494   5.748   6.090
 2367TIP3   OH2 7043   4.215   5.709   5.548
 2367TIP3    H1 7044   4.258   5.629   5.577
 2367TIP3    H2 7045   4.172   5.744   5.626
 2368TIP3   OH2 7046   1.679   2.247   2.219
 2368TIP3    H1 7047   1.672   2.283   2.130
 2368TIP3    H2 7048   1.733   2.311   2.266
 2369TIP3   OH2 7049   2.834   5.057   3.611
 2369TIP3    H1 7050   2.850   5.142   3.652
 2369TIP3    H2 7051   2.919   5.014   3.611
 2370TIP3   OH2 7052   5.659   5.045   6.443
 2370TIP3    H1 7053   5.590   5.085   6.390
 2370TIP3    H2 7054   5.655   5.091   6.527
 2371TIP3   OH2 7055   6.023   3.003   5.196
 2371TIP3    H1 7056   6.063   3.089   5.202
 2371TIP3    H2 7057   6.041   2.962   5.281
 2372TIP3   OH2 7058   4.298   7.207   6.448
 2372TIP3    H1 7059   4.251   7.254   6.380
 2372TIP3    H2 7060   4.385   7.246   6.449
 2373TIP3   OH2 7061   7.967   2.000   4.169
 2373TIP3    H1 7062   7.976   1.936   4.099
 2373TIP3    H2 7063   8.014   2.078   4.138
 2374TIP3   OH2 7064   1.286   2.088   4.809
 2374TIP3    H1 7065   1.377   2.064   4.823
 2374TIP3    H2 7066   1.289   2.158   4.744
 2375TIP3   OH2 7067   6.056   3.785   0.375
 2375TIP3    H1 7068   6.126   3.806   0.313
 2375TIP3    H2 7069   6.044   3.866   0.425
 2376TIP3   OH2 7070   2.287   3.541   3.481
 2376TIP3    H1 7071   2.268   3.452   3.453
 2376TIP3    H2 7072   2.379   3.539   3.508
 2377TIP3   OH2 7073   1.673   6.243   5.973
 2377TIP3    H1 7074   1.625   6.326   5.971
 2377TIP3    H2 7075   1.761   6.265   5.941
 2378TIP3   OH2 7076   0.627   7.091   1.558
 2378TIP3    H1 7077   0.561   7.058   1.618
 2378TIP3    H2 7078   0.585   7.090   1.472
 2379TIP3   OH2 7079   4.962   1.153   1.184
 2379TIP3    H1 7080   4.941   1.226   1.243
 2379TIP3    H2 7081   5.017   1.192   1.116
 2380TIP3   OH2 7082   6.586   7.808   4.537
 2380TIP3    H1 7083   6.617   7.819   4.447
 2380TIP3    H2 7084   6.491   7.814   4.530
 2381TIP3   OH2 7085   5.752   5.608   0.687
 2381TIP3    H1 7086   5.669   5.573   0.653
 2381TIP3    H2 7087   5.726   5.658   0.765
 2382TIP3   OH2 7088   4.617   4.731   3.904
 2382TIP3    H1 7089   4.571   4.666   3.852
 2382TIP3    H2 7090   4.629   4.805   3.845
 2383TIP3   OH2 7091   0.595   5.921   4.736
 2383TIP3    H1 7092   0.604   6.017   4.740
 2383TIP3    H2 7093   0.617   5.892   4.824
 2384TIP3   OH2 7094   4.479   7.838   6.529
 2384TIP3    H1 7095   4.427   7.872   6.601
 2384TIP3    H2 7096   4.516   7.756   6.562
 2385TIP3   OH2 7097   4.637   5.249   2.047
 2385TIP3    H1 7098   4.648   5.167   2.000
 2385TIP3    H2 7099   4.587   5.304   1.987
 2386TIP3   OH2 7100   3.282   3.394   5.240
 2386TIP3    H1 7101   3.228   3.361   5.311
 2386TIP3    H2 7102   3.311   3.315   5.193
 2387TIP3   OH2 7103   8.008   0.057   2.258
 2387TIP3    H1 7104   7.977   0.105   2.334
 2387TIP3    H2 7105   8.085   0.009   2.289
 2388TIP3   OH2 7106   1.165   3.489   3.849
 2388TIP3    H1 7107   1.086   3.439   3.870
 2388TIP3    H2 7108   1.155   3.571   3.897
 2389TIP3   OH2 7109   2.390   0.175   2.926
 2389TIP3    H1 7110   2.462   0.212   2.874
 2389TIP3    H2 7111   2.422   0.177   3.016
 2390TIP3   OH2 7112   6.707   3.786   1.680
 2390TIP3    H1 7113   6.692   3.855   1.616
 2390TIP3    H2 7114   6.722   3.707   1.628
 2391TIP3   OH2 7115   1.813   3.977   2.090
 2391TIP3    H1 7116   1.746   3.976   2.158
 2391TIP3    H2 7117   1.896   3.965   2.137
 2392TIP3   OH2 7118   3.177   6.104   5.307
 2392TIP3    H1 7119   3.120   6.167   5.352
 2392TIP3    H2 7120   3.260   6.150   5.295
 2393TIP3   OH2 7121   0.304   0.319   6.112
 2393TIP3    H1 7122   0.243   0.292   6.181
 2393TIP3    H2 7123   0.308   0.245   6.053
 2394TIP3   OH2 7124   6.094   0.192   4.146
 2394TIP3    H1 7125   6.070   0.193   4.239
 2394TIP3    H2 7126   6.015   0.221   4.100
 2395TIP3   OH2 7127   1.633   3.118   0.920
 2395TIP3    H1 7128   1.567   3.077   0.975
 2395TIP3    H2 7129   1.612   3.211   0.920
 2396TIP3   OH2 7130   6.090   2.686   3.215
 2396TIP3    H1 7131   6.070   2.647   3.130
 2396TIP3    H2 7132   6.070   2.618   3.278
 2397TIP3   OH2 7133   2.398   5.866   6.169
 2397TIP3    H1 7134   2.428   5.777   6.186
 2397TIP3    H2 7135   2.419   5.914   6.249
 2398TIP3   OH2 7136   0.731   3.960   6.343
 2398TIP3    H1 7137   0.780   4.032   6.302
 2398TIP3    H2 7138   0.799   3.901   6.376
 2399TIP3   OH2 7139   1.971   3.261   5.796
 2399TIP3    H1 7140   1.964   3.257   5.701
 2399TIP3    H2 7141   2.035   3.193   5.818
 2400TIP3   OH2 7142   1.169   3.450   6.062
 2400TIP3    H1 7143   1.145   3.427   6.151
 2400TIP3    H2 7144   1.252   3.405   6.047
 2401TIP3   OH2 7145   0.398   7.361   2.479
 2401TIP3    H1 7146   0.355   7.427   2.533
 2401TIP3    H2 7147   0.405   7.402   2.393
 2402TIP3   OH2 7148   7.554   1.893   1.992
 2402TIP3    H1 7149   7.576   1.911   1.901
 2402TIP3    H2 7150   7.637   1.869   2.034
 2403TIP3   OH2 7151   4.570   6.942   5.293
 2403TIP3    H1 7152   4.563   6.878   5.223
 2403TIP3    H2 7153   4.495   7.000   5.281
 2404TIP3   OH2 7154   3.904   3.265   5.923
 2404TIP3    H1 7155   3.928   3.343   5.874
 2404TIP3    H2 7156   3.915   3.289   6.015
 2405TIP3   OH2 7157   4.969   3.432   6.637
 2405TIP3    H1 7158   4.904   3.391   6.693
 2405TIP3    H2 7159   4.993   3.364   6.575
 2406TIP3   OH2 7160   7.285   0.769   1.300
 2406TIP3    H1 7161   7.332   0.807   1.225
 2406TIP3    H2 7162   7.259   0.682   1.270
 2407TIP3   OH2 7163   4.182   0.307   0.162
 2407TIP3    H1 7164   4.226   0.375   0.110
 2407TIP3    H2 7165   4.119   0.355   0.215
 2408TIP3   OH2 7166  -0.004   3.024   5.338
 2408TIP3    H1 7167   0.074   2.985   5.300
 2408TIP3    H2 7168  -0.071   3.016   5.269
 2409TIP3   OH2 7169   5.926   0.436   4.678
 2409TIP3    H1 7170   5.977   0.368   4.723
 2409TIP3    H2 7171   5.978   0.458   4.600
 2410TIP3   OH2 7172   1.109   0.629   4.984
 2410TIP3    H1 7173   1.112   0.706   4.927
 2410TIP3    H2 7174   1.198   0.621   5.018
 2411TIP3   OH2 7175   0.182   2.559   3.748
 2411TIP3    H1 7176   0.099   2.513   3.744
 2411TIP3    H2 7177   0.221   2.546   3.661
 2412TIP3   OH2 7178   1.490   4.052   6.424
 2412TIP3    H1 7179   1.488   4.093   6.338
 2412TIP3    H2 7180   1.583   4.035   6.441
 2413TIP3   OH2 7181   7.106   2.895   2.151
 2413TIP3    H1 7182   7.192   2.858   2.133
 2413TIP3    H2 7183   7.053   2.869   2.076
 2414TIP3   OH2 7184   5.675   3.422   5.152
 2414TIP3    H1 7185   5.630   3.348   5.191
 2414TIP3    H2 7186   5.649   3.421   5.060
 2415TIP3   OH2 7187   6.652   5.304   3.383
 2415TIP3    H1 7188   6.716   5.374   3.397
 2415TIP3    H2 7189   6.677   5.235   3.444
 2416TIP3   OH2 7190   0.691   2.260   4.940
 2416TIP3    H1 7191   0.767   2.304   4.979
 2416TIP3    H2 7192   0.620   2.276   5.002
 2417TIP3   OH2 7193   4.269   2.659   0.652
 2417TIP3    H1 7194   4.204   2.623   0.592
 2417TIP3    H2 7195   4.225   2.662   0.737
 2418TIP3   OH2 7196   5.643   5.495   1.904
 2418TIP3    H1 7197   5.608   5.581   1.925
 2418TIP3    H2 7198   5.588   5.434   1.953
 2419TIP3   OH2 7199   8.264   6.056   3.068
 2419TIP3    H1 7200   8.347   6.103   3.081
 2419TIP3    H2 7201   8.220   6.062   3.153
 2420TIP3   OH2 7202   7.282   0.672   2.556
 2420TIP3    H1 7203   7.376   0.665   2.570
 2420TIP3    H2 7204   7.253   0.740   2.617
 2421TIP3   OH2 7205   2.079   5.675   1.116
 2421TIP3    H1 7206   2.019   5.606   1.143
 2421TIP3    H2 7207   2.060   5.689   1.023
 2422TIP3   OH2 7208   3.784   7.318   0.229
 2422TIP3    H1 7209   3.783   7.261   0.306
 2422TIP3    H2 7210   3.869   7.303   0.188
 2423TIP3   OH2 7211   2.109   2.653   2.609
 2423TIP3    H1 7212   2.182   2.698   2.567
 2423TIP3    H2 7213   2.133   2.561   2.609
 2424TIP3   OH2 7214   3.737   1.094   1.962
 2424TIP3    H1 7215   3.832   1.105   1.972
 2424TIP3    H2 7216   3.701   1.181   1.983
 2425TIP3   OH2 7217   7.060   6.442   3.445
 2425TIP3    H1 7218   7.114   6.416   3.371
 2425TIP3    H2 7219   6.970   6.423   3.417
 2426TIP3   OH2 7220   1.090   4.334   1.882
 2426TIP3    H1 7221   1.162   4.302   1.828
 2426TIP3    H2 7222   1.079   4.425   1.855
 2427TIP3   OH2 7223   1.338   3.838   1.175
 2427TIP3    H1 7224   1.310   3.865   1.087
 2427TIP3    H2 7225   1.341   3.920   1.225
 2428TIP3   OH2 7226   8.197   7.657   3.367
 2428TIP3    H1 7227   8.103   7.650   3.384
 2428TIP3    H2 7228   8.231   7.701   3.446
 2429TIP3   OH2 7229   0.803   5.259   1.097
 2429TIP3    H1 7230   0.816   5.276   1.191
 2429TIP3    H2 7231   0.885   5.288   1.057
 2430TIP3   OH2 7232   5.888   0.503   6.458
 2430TIP3    H1 7233   5.972   0.537   6.488
 2430TIP3    H2 7234   5.886   0.524   6.364
 2431TIP3   OH2 7235   1.662   2.937   0.235
 2431TIP3    H1 7236   1.753   2.956   0.256
 2431TIP3    H2 7237   1.659   2.940   0.139
 2432TIP3   OH2 7238   5.295   7.331   4.401
 2432TIP3    H1 7239   5.383   7.367   4.398
 2432TIP3    H2 7240   5.237   7.406   4.388
 2433TIP3   OH2 7241   8.156   0.496   4.217
 2433TIP3    H1 7242   8.251   0.504   4.218
 2433TIP3    H2 7243   8.125   0.583   4.244
 2434TIP3   OH2 7244   0.113   5.896   3.429
 2434TIP3    H1 7245   0.091   5.844   3.352
 2434TIP3    H2 7246   0.046   5.872   3.494
 2435TIP3   OH2 7247   6.554   2.489   5.322
 2435TIP3    H1 7248   6.508   2.573   5.322
 2435TIP3    H2 7249   6.486   2.423   5.335
 2436TIP3   OH2 7250   5.809   7.048   3.608
 2436TIP3    H1 7251   5.734   7.058   3.666
 2436TIP3    H2 7252   5.799   7.119   3.544
 2437TIP3   OH2 7253   7.145   2.550   5.228
 2437TIP3    H1 7254   7.174   2.572   5.140
 2437TIP3    H2 7255   7.225   2.546   5.280
 2438TIP3   OH2 7256   6.763   2.588   1.995
 2438TIP3    H1 7257   6.830   2.520   2.004
 2438TIP3    H2 7258   6.768   2.616   1.904
 2439TIP3   OH2 7259   7.313   6.430   2.168
 2439TIP3    H1 7260   7.344   6.347   2.132
 2439TIP3    H2 7261   7.218   6.423   2.167
 2440TIP3   OH2 7262   5.082   1.674   6.703
 2440TIP3    H1 7263   5.026   1.706   6.773
 2440TIP3    H2 7264   5.031   1.606   6.660
 2441TIP3   OH2 7265   3.318   2.924   3.029
 2441TIP3    H1 7266   3.346   2.978   2.955
 2441TIP3    H2 7267   3.316   2.984   3.103
 2442TIP3   OH2 7268   4.031   5.681   4.128
 2442TIP3    H1 7269   4.034   5.776   4.117
 2442TIP3    H2 7270   3.973   5.651   4.058
 2443TIP3   OH2 7271   4.971   6.657   1.342
 2443TIP3    H1 7272   5.013   6.742   1.347
 2443TIP3    H2 7273   5.018   6.611   1.271
 2444TIP3   OH2 7274   5.867   0.407   5.351
 2444TIP3    H1 7275   5.952   0.391   5.311
 2444TIP3    H2 7276   5.874   0.495   5.389
 2445TIP3   OH2 7277   6.642   0.176   3.632
 2445TIP3    H1 7278   6.735   0.200   3.626
 2445TIP3    H2 7279   6.597   0.259   3.642
 2446TIP3   OH2 7280   1.790   4.514   2.338
 2446TIP3    H1 7281   1.707   4.537   2.380
 2446TIP3    H2 7282   1.847   4.490   2.411
 2447TIP3   OH2 7283   8.076   6.069   0.763
 2447TIP3    H1 7284   8.071   6.029   0.676
 2447TIP3    H2 7285   8.086   6.162   0.746
 2448TIP3   OH2 7286   5.821   7.479   1.929
 2448TIP3    H1 7287   5.736   7.463   1.970
 2448TIP3    H2 7288   5.840   7.571   1.948
 2449TIP3   OH2 7289   1.223   6.565   0.890
 2449TIP3    H1 7290   1.256   6.487   0.934
 2449TIP3    H2 7291   1.210   6.629   0.961
 2450TIP3   OH2 7292   4.244   4.687   6.602
 2450TIP3    H1 7293   4.272   4.726   6.519
 2450TIP3    H2 7294   4.227   4.596   6.581
 2451TIP3   OH2 7295   1.617   0.517   3.867
 2451TIP3    H1 7296   1.584   0.604   3.846
 2451TIP3    H2 7297   1.661   0.488   3.787
 2452TIP3   OH2 7298   3.386   5.299   2.857
 2452TIP3    H1 7299   3.447   5.282   2.929
 2452TIP3    H2 7300   3.441   5.321   2.783
 2453TIP3   OH2 7301   4.228   0.557   4.229
 2453TIP3    H1 7302   4.175   0.635   4.246
 2453TIP3    H2 7303   4.163   0.487   4.220
 2454TIP3   OH2 7304   6.946   4.015   5.582
 2454TIP3    H1 7305   7.007   4.046   5.650
 2454TIP3    H2 7306   6.881   3.965   5.631
 2455TIP3   OH2 7307   3.253   7.474   3.259
 2455TIP3    H1 7308   3.211   7.463   3.174
 2455TIP3    H2 7309   3.345   7.452   3.243
 2456TIP3   OH2 7310  -0.017   5.065   6.398
 2456TIP3    H1 7311  -0.092   5.018   6.434
 2456TIP3    H2 7312   0.054   5.001   6.397
 2457TIP3   OH2 7313   3.961   7.757   5.588
 2457TIP3    H1 7314   3.922   7.717   5.510
 2457TIP3    H2 7315   3.899   7.825   5.613
 2458TIP3   OH2 7316   3.129   6.926   2.917
 2458TIP3    H1 7317   3.093   6.947   3.003
 2458TIP3    H2 7318   3.077   6.976   2.855
 2459TIP3   OH2 7319   2.862   7.022   4.933
 2459TIP3    H1 7320   2.846   6.955   4.999
 2459TIP3    H2 7321   2.957   7.021   4.920
 2460TIP3   OH2 7322   3.324   7.353   2.030
 2460TIP3    H1 7323   3.250   7.353   2.090
 2460TIP3    H2 7324   3.286   7.339   1.943
 2461TIP3   OH2 7325   1.212   6.018   3.450
 2461TIP3    H1 7326   1.206   6.107   3.415
 2461TIP3    H2 7327   1.270   5.973   3.388
 2462TIP3   OH2 7328   1.307   2.989   6.593
 2462TIP3    H1 7329   1.379   3.013   6.650
 2462TIP3    H2 7330   1.333   2.904   6.555
 2463TIP3   OH2 7331   6.930   4.022   2.364
 2463TIP3    H1 7332   6.896   4.009   2.276
 2463TIP3    H2 7333   7.017   4.059   2.351
 2464TIP3   OH2 7334   7.086   5.672   1.208
 2464TIP3    H1 7335   7.076   5.689   1.115
 2464TIP3    H2 7336   6.996   5.665   1.241
 2465TIP3   OH2 7337   4.958   6.909   5.282
 2465TIP3    H1 7338   4.909   6.878   5.206
 2465TIP3    H2 7339   4.907   6.982   5.317
 2466TIP3   OH2 7340   0.991   2.736   5.340
 2466TIP3    H1 7341   1.064   2.684   5.373
 2466TIP3    H2 7342   1.031   2.818   5.310
 2467TIP3   OH2 7343   3.752   7.561   4.898
 2467TIP3    H1 7344   3.696   7.575   4.822
 2467TIP3    H2 7345   3.796   7.645   4.911
 2468TIP3   OH2 7346   0.850   4.313   0.596
 2468TIP3    H1 7347   0.786   4.243   0.598
 2468TIP3    H2 7348   0.931   4.272   0.566
 2469TIP3   OH2 7349   3.588   4.183   3.477
 2469TIP3    H1 7350   3.540   4.117   3.527
 2469TIP3    H2 7351   3.680   4.164   3.495
 2470TIP3   OH2 7352   3.201   0.957   5.046
 2470TIP3    H1 7353   3.177   0.961   4.953
 2470TIP3    H2 7354   3.158   1.034   5.085
 2471TIP3   OH2 7355   6.280   5.697   1.597
 2471TIP3    H1 7356   6.205   5.700   1.656
 2471TIP3    H2 7357   6.355   5.714   1.654
 2472TIP3   OH2 7358   0.488   5.221   1.984
 2472TIP3    H1 7359   0.422   5.243   2.049
 2472TIP3    H2 7360   0.464   5.272   1.906
 2473TIP3   OH2 7361   5.931   4.655   2.405
 2473TIP3    H1 7362   6.024   4.672   2.390
 2473TIP3    H2 7363   5.918   4.565   2.372
 2474TIP3   OH2 7364   6.376   2.416   6.383
 2474TIP3    H1 7365   6.313   2.417   6.310
 2474TIP3    H2 7366   6.437   2.487   6.362
 2475TIP3   OH2 7367   6.951   2.351   2.097
 2475TIP3    H1 7368   6.886   2.285   2.073
 2475TIP3    H2 7369   7.011   2.304   2.156
 2476TIP3   OH2 7370   4.844   0.744   6.607
 2476TIP3    H1 7371   4.761   0.709   6.575
 2476TIP3    H2 7372   4.826   0.836   6.628
 2477TIP3   OH2 7373   7.495   4.291   6.465
 2477TIP3    H1 7374   7.420   4.321   6.413
 2477TIP3    H2 7375   7.560   4.360   6.456
 2478TIP3   OH2 7376   7.746   1.166   2.928
 2478TIP3    H1 7377   7.830   1.194   2.963
 2478TIP3    H2 7378   7.743   1.072   2.942
 2479TIP3   OH2 7379   3.776   1.510   5.369
 2479TIP3    H1 7380   3.853   1.496   5.425
 2479TIP3    H2 7381   3.795   1.592   5.323
 2480TIP3   OH2 7382   4.950   3.228   1.085
 2480TIP3    H1 7383   5.033   3.209   1.128
 2480TIP3    H2 7384   4.975   3.257   0.997
 2481TIP3   OH2 7385   7.840   0.856   5.375
 2481TIP3    H1 7386   7.814   0.941   5.341
 2481TIP3    H2 7387   7.758   0.809   5.390
 2482TIP3   OH2 7388   5.973   0.883   5.282
 2482TIP3    H1 7389   6.037   0.946   5.314
 2482TIP3    H2 7390   5.921   0.932   5.218
 2483TIP3   OH2 7391   4.550   0.315   1.335
 2483TIP3    H1 7392   4.516   0.226   1.333
 2483TIP3    H2 7393   4.625   0.311   1.394
 2484TIP3   OH2 7394   3.642   2.878   6.016
 2484TIP3    H1 7395   3.552   2.847   6.024
 2484TIP3    H2 7396   3.650   2.949   6.080
 2485TIP3   OH2 7397   7.176   4.687   2.233
 2485TIP3    H1 7398   7.167   4.595   2.260
 2485TIP3    H2 7399   7.194   4.681   2.139
 2486TIP3   OH2 7400   1.872   2.731   4.134
 2486TIP3    H1 7401   1.933   2.747   4.062
 2486TIP3    H2 7402   1.928   2.726   4.212
 2487TIP3   OH2 7403   4.966   5.485   1.674
 2487TIP3    H1 7404   4.890   5.540   1.695
 2487TIP3    H2 7405   5.020   5.539   1.617
 2488TIP3   OH2 7406   8.297   1.869  -0.025
 2488TIP3    H1 7407   8.257   1.907  -0.103
 2488TIP3    H2 7408   8.242   1.899   0.047
 2489TIP3   OH2 7409   2.026   7.349   4.861
 2489TIP3    H1 7410   1.955   7.385   4.808
 2489TIP3    H2 7411   2.069   7.285   4.804
 2490TIP3   OH2 7412   2.167   0.878   0.082
 2490TIP3    H1 7413   2.135   0.938   0.150
 2490TIP3    H2 7414   2.095   0.817   0.068
 2491TIP3   OH2 7415   7.823   0.877   3.021
 2491TIP3    H1 7416   7.794   0.922   3.100
 2491TIP3    H2 7417   7.803   0.785   3.038
 2492TIP3   OH2 7418   2.525   4.156   2.885
 2492TIP3    H1 7419   2.434   4.132   2.900
 2492TIP3    H2 7420   2.572   4.072   2.885
 2493TIP3   OH2 7421   4.529   5.952   3.414
 2493TIP3    H1 7422   4.487   6.014   3.474
 2493TIP3    H2 7423   4.513   5.988   3.327
 2494TIP3   OH2 7424   4.200   2.934   0.122
 2494TIP3    H1 7425   4.162   2.937   0.210
 2494TIP3    H2 7426   4.220   2.842   0.108
 2495TIP3   OH2 7427   5.836   4.620   4.899
 2495TIP3    H1 7428   5.890   4.542   4.918
 2495TIP3    H2 7429   5.897   4.693   4.908
 2496TIP3   OH2 7430   7.037   1.857   1.583
 2496TIP3    H1 7431   7.007   1.829   1.669
 2496TIP3    H2 7432   7.048   1.952   1.591
 2497TIP3   OH2 7433   6.017   2.168   5.952
 2497TIP3    H1 7434   5.993   2.189   6.042
 2497TIP3    H2 7435   5.977   2.082   5.936
 2498TIP3   OH2 7436   7.396   6.007   1.185
 2498TIP3    H1 7437   7.410   5.995   1.091
 2498TIP3    H2 7438   7.361   6.095   1.193
 2499TIP3   OH2 7439   7.901   1.361   0.841
 2499TIP3    H1 7440   7.934   1.449   0.860
 2499TIP3    H2 7441   7.873   1.366   0.749
 2500TIP3   OH2 7442   0.175   2.799   6.622
 2500TIP3    H1 7443   0.134   2.737   6.682
 2500TIP3    H2 7444   0.112   2.870   6.613
 2501TIP3   OH2 7445   4.758   1.933   3.017
 2501TIP3    H1 7446   4.849   1.913   3.040
 2501TIP3    H2 7447   4.725   1.983   3.091
 2502TIP3   OH2 7448   7.097   7.199   5.113
 2502TIP3    H1 7449   7.181   7.240   5.094
 2502TIP3    H2 7450   7.120   7.114   5.150
 2503TIP3   OH2 7451   5.655   3.728   3.849
 2503TIP3    H1 7452   5.739   3.735   3.803
 2503TIP3    H2 7453   5.649   3.636   3.874
 2504TIP3   OH2 7454   7.523   7.258   0.018
 2504TIP3    H1 7455   7.453   7.200   0.048
 2504TIP3    H2 7456   7.593   7.247   0.082
 2505TIP3   OH2 7457   2.307   2.923   5.238
 2505TIP3    H1 7458   2.268   2.849   5.193
 2505TIP3    H2 7459   2.265   2.925   5.324
 2506TIP3   OH2 7460   3.338   2.780   2.435
 2506TIP3    H1 7461   3.280   2.708   2.457
 2506TIP3    H2 7462   3.393   2.792   2.512
 2507TIP3   OH2 7463   0.519   3.976   4.004
 2507TIP3    H1 7464   0.543   3.899   4.056
 2507TIP3    H2 7465   0.502   4.044   4.068
 2508TIP3   OH2 7466   0.409   5.722   1.029
 2508TIP3    H1 7467   0.452   5.796   1.071
 2508TIP3    H2 7468   0.400   5.657   1.099
 2509TIP3   OH2 7469   1.092   3.871   3.286
 2509TIP3    H1 7470   1.054   3.861   3.373
 2509TIP3    H2 7471   1.087   3.965   3.269
 2510TIP3   OH2 7472   1.210   0.515   1.260
 2510TIP3    H1 7473   1.139   0.532   1.199
 2510TIP3    H2 7474   1.230   0.422   1.248
 2511TIP3   OH2 7475   5.291   1.865   4.147
 2511TIP3    H1 7476   5.219   1.857   4.084
 2511TIP3    H2 7477   5.248   1.896   4.227
 2512TIP3   OH2 7478   5.679   5.369   3.301
 2512TIP3    H1 7479   5.669   5.424   3.379
 2512TIP3    H2 7480   5.753   5.312   3.322
 2513TIP3   OH2 7481   1.678   3.783   4.079
 2513TIP3    H1 7482   1.618   3.805   4.151
 2513TIP3    H2 7483   1.628   3.724   4.023
 2514TIP3   OH2 7484   7.847   6.452   0.035
 2514TIP3    H1 7485   7.843   6.543   0.006
 2514TIP3    H2 7486   7.907   6.453   0.110
 2515TIP3   OH2 7487   0.335   2.229   4.893
 2515TIP3    H1 7488   0.253   2.215   4.846
 2515TIP3    H2 7489   0.396   2.167   4.854
 2516TIP3   OH2 7490   0.127   2.081   0.694
 2516TIP3    H1 7491   0.104   2.130   0.615
 2516TIP3    H2 7492   0.099   2.138   0.766
 2517TIP3   OH2 7493   6.518   2.096   2.869
 2517TIP3    H1 7494   6.587   2.125   2.928
 2517TIP3    H2 7495   6.554   2.018   2.826
 2518TIP3   OH2 7496   4.328   1.702   6.168
 2518TIP3    H1 7497   4.303   1.789   6.138
 2518TIP3    H2 7498   4.417   1.712   6.201
 2519TIP3   OH2 7499   5.921   4.405   4.422
 2519TIP3    H1 7500   5.856   4.460   4.467
 2519TIP3    H2 7501   5.940   4.336   4.485
 2520TIP3   OH2 7502   6.018   6.176   3.775
 2520TIP3    H1 7503   5.967   6.105   3.736
 2520TIP3    H2 7504   6.087   6.195   3.712
 2521TIP3   OH2 7505   4.439   5.027   4.923
 2521TIP3    H1 7506   4.513   5.043   4.981
 2521TIP3    H2 7507   4.363   5.026   4.981
 2522TIP3   OH2 7508   3.497   7.548   5.706
 2522TIP3    H1 7509   3.466   7.480   5.766
 2522TIP3    H2 7510   3.574   7.585   5.749
 2523TIP3   OH2 7511   2.845   3.743   6.057
 2523TIP3    H1 7512   2.932   3.769   6.028
 2523TIP3    H2 7513   2.844   3.648   6.046
 2524TIP3   OH2 7514   0.922   5.558   5.627
 2524TIP3    H1 7515   0.961   5.547   5.713
 2524TIP3    H2 7516   0.976   5.624   5.584
 2525TIP3   OH2 7517   1.326   3.002   4.011
 2525TIP3    H1 7518   1.291   3.087   3.983
 2525TIP3    H2 7519   1.316   2.946   3.934
 2526TIP3   OH2 7520   2.834   2.515   4.861
 2526TIP3    H1 7521   2.797   2.509   4.949
 2526TIP3    H2 7522   2.901   2.446   4.859
 2527TIP3   OH2 7523   5.218   2.947   0.661
 2527TIP3    H1 7524   5.132   2.931   0.623
 2527TIP3    H2 7525   5.223   3.042   0.669
 2528TIP3   OH2 7526   7.906   5.545   5.837
 2528TIP3    H1 7527   7.999   5.565   5.838
 2528TIP3    H2 7528   7.863   5.629   5.852
 2529TIP3   OH2 7529   6.324   5.309   4.260
 2529TIP3    H1 7530   6.335   5.309   4.165
 2529TIP3    H2 7531   6.383   5.240   4.291
 2530TIP3   OH2 7532   2.639   1.240   4.835
 2530TIP3    H1 7533   2.644   1.161   4.782
 2530TIP3    H2 7534   2.667   1.212   4.922
 2531TIP3   OH2 7535   6.720   7.735   1.621
 2531TIP3    H1 7536   6.815   7.723   1.623
 2531TIP3    H2 7537   6.685   7.650   1.648
 2532TIP3   OH2 7538   2.285   1.411   2.769
 2532TIP3    H1 7539   2.363   1.412   2.714
 2532TIP3    H2 7540   2.223   1.469   2.724
 2533TIP3   OH2 7541   0.898   7.363   1.459
 2533TIP3    H1 7542   0.803   7.369   1.456
 2533TIP3    H2 7543   0.928   7.408   1.381
 2534TIP3   OH2 7544   6.019   2.077   0.176
 2534TIP3    H1 7545   6.039   2.148   0.237
 2534TIP3    H2 7546   6.091   2.015   0.186
 2535TIP3   OH2 7547   6.833   3.320   1.189
 2535TIP3    H1 7548   6.753   3.371   1.177
 2535TIP3    H2 7549   6.897   3.382   1.222
 2536TIP3   OH2 7550   3.141   1.445   4.371
 2536TIP3    H1 7551   3.074   1.458   4.303
 2536TIP3    H2 7552   3.099   1.475   4.452
 2537TIP3   OH2 7553   5.980   2.688   6.609
 2537TIP3    H1 7554   6.032   2.725   6.538
 2537TIP3    H2 7555   5.971   2.595   6.588
 2538TIP3   OH2 7556   1.401   0.539   0.491
 2538TIP3    H1 7557   1.431   0.609   0.433
 2538TIP3    H2 7558   1.401   0.579   0.578
 2539TIP3   OH2 7559   8.226   6.196   2.730
 2539TIP3    H1 7560   8.297   6.161   2.784
 2539TIP3    H2 7561   8.148   6.151   2.760
 2540TIP3   OH2 7562   2.154   2.712   4.663
 2540TIP3    H1 7563   2.061   2.724   4.686
 2540TIP3    H2 7564   2.200   2.774   4.720
 2541TIP3   OH2 7565   4.742   3.116   1.241
 2541TIP3    H1 7566   4.809   3.132   1.175
 2541TIP3    H2 7567   4.690   3.197   1.243
 2542TIP3   OH2 7568   5.234   5.346   1.106
 2542TIP3    H1 7569   5.278   5.343   1.021
 2542TIP3    H2 7570   5.284   5.285   1.161
 2543TIP3   OH2 7571   6.929   6.261   1.851
 2543TIP3    H1 7572   6.909   6.211   1.931
 2543TIP3    H2 7573   7.018   6.294   1.866
 2544TIP3   OH2 7574   6.247   2.107   0.821
 2544TIP3    H1 7575   6.268   2.025   0.866
 2544TIP3    H2 7576   6.156   2.126   0.847
 2545TIP3   OH2 7577   2.543   2.011   0.120
 2545TIP3    H1 7578   2.513   2.031   0.209
 2545TIP3    H2 7579   2.475   2.047   0.064
 2546TIP3   OH2 7580   2.551   1.668   3.022
 2546TIP3    H1 7581   2.574   1.583   2.984
 2546TIP3    H2 7582   2.458   1.679   3.001
 2547TIP3   OH2 7583   6.337   2.511   3.098
 2547TIP3    H1 7584   6.373   2.424   3.117
 2547TIP3    H2 7585   6.255   2.514   3.147
 2548TIP3   OH2 7586   7.644   5.186   4.542
 2548TIP3    H1 7587   7.697   5.118   4.583
 2548TIP3    H2 7588   7.657   5.174   4.448
 2549TIP3   OH2 7589   6.869   4.989   5.186
 2549TIP3    H1 7590   6.796   4.950   5.137
 2549TIP3    H2 7591   6.833   5.068   5.226
 2550TIP3   OH2 7592   2.553   4.345   2.392
 2550TIP3    H1 7593   2.500   4.277   2.351
 2550TIP3    H2 7594   2.638   4.303   2.407
 2551TIP3   OH2 7595   0.108   5.060   1.421
 2551TIP3    H1 7596   0.188   5.065   1.369
 2551TIP3    H2 7597   0.125   4.991   1.484
 2552TIP3   OH2 7598   7.448   5.390   2.619
 2552TIP3    H1 7599   7.487   5.304   2.637
 2552TIP3    H2 7600   7.414   5.383   2.530
 2553TIP3   OH2 7601   6.838   6.842   4.522
 2553TIP3    H1 7602   6.747   6.855   4.495
 2553TIP3    H2 7603   6.857   6.918   4.577
 2554TIP3   OH2 7604   0.573   3.000   2.515
 2554TIP3    H1 7605   0.664   2.983   2.541
 2554TIP3    H2 7606   0.579   3.063   2.443
 2555TIP3   OH2 7607   6.440   6.721   0.411
 2555TIP3    H1 7608   6.361   6.763   0.444
 2555TIP3    H2 7609   6.416   6.628   0.405
 2556TIP3   OH2 7610   0.804   4.313   3.914
 2556TIP3    H1 7611   0.747   4.368   3.860
 2556TIP3    H2 7612   0.784   4.339   4.004
 2557TIP3   OH2 7613   2.061   0.704   5.151
 2557TIP3    H1 7614   2.086   0.796   5.150
 2557TIP3    H2 7615   2.144   0.656   5.145
 2558TIP3   OH2 7616   8.189   3.005   1.558
 2558TIP3    H1 7617   8.136   3.037   1.485
 2558TIP3    H2 7618   8.258   2.953   1.518
 2559TIP3   OH2 7619   4.058   2.389   5.640
 2559TIP3    H1 7620   4.000   2.320   5.670
 2559TIP3    H2 7621   4.007   2.438   5.576
 2560TIP3   OH2 7622   0.374   7.037   2.872
 2560TIP3    H1 7623   0.339   7.080   2.951
 2560TIP3    H2 7624   0.466   7.022   2.892
 2561TIP3   OH2 7625   8.314   2.124   1.139
 2561TIP3    H1 7626   8.311   2.194   1.205
 2561TIP3    H2 7627   8.295   2.044   1.189
 2562TIP3   OH2 7628   8.172   6.126   3.333
 2562TIP3    H1 7629   8.252   6.110   3.383
 2562TIP3    H2 7630   8.142   6.212   3.361
 2563TIP3   OH2 7631   2.968   4.603   4.414
 2563TIP3    H1 7632   2.931   4.532   4.467
 2563TIP3    H2 7633   3.059   4.610   4.445
 2564TIP3   OH2 7634   7.441   0.387   0.946
 2564TIP3    H1 7635   7.451   0.480   0.927
 2564TIP3    H2 7636   7.495   0.342   0.882
 2565TIP3   OH2 7637   6.432   4.108   2.709
 2565TIP3    H1 7638   6.432   4.013   2.703
 2565TIP3    H2 7639   6.437   4.127   2.803
 2566TIP3   OH2 7640   6.238   1.622   5.562
 2566TIP3    H1 7641   6.307   1.671   5.517
 2566TIP3    H2 7642   6.235   1.537   5.518
 2567TIP3   OH2 7643   4.626   2.128   5.512
 2567TIP3    H1 7644   4.616   2.094   5.601
 2567TIP3    H2 7645   4.614   2.222   5.520
 2568TIP3   OH2 7646   1.709   1.151   3.350
 2568TIP3    H1 7647   1.668   1.204   3.281
 2568TIP3    H2 7648   1.757   1.215   3.403
 2569TIP3   OH2 7649   6.294   4.207   6.163
 2569TIP3    H1 7650   6.341   4.208   6.246
 2569TIP3    H2 7651   6.359   4.176   6.099
 2570TIP3   OH2 7652   4.742   5.392   4.548
 2570TIP3    H1 7653   4.768   5.301   4.555
 2570TIP3    H2 7654   4.824   5.440   4.532
 2571TIP3   OH2 7655   3.573   0.658   0.675
 2571TIP3    H1 7656   3.509   0.609   0.727
 2571TIP3    H2 7657   3.531   0.743   0.659
 2572TIP3   OH2 7658   3.787   4.415   4.925
 2572TIP3    H1 7659   3.774   4.422   4.830
 2572TIP3    H2 7660   3.711   4.461   4.962
 2573TIP3   OH2 7661   7.734   3.106   6.556
 2573TIP3    H1 7662   7.803   3.172   6.546
 2573TIP3    H2 7663   7.735   3.057   6.474
 2574TIP3   OH2 7664   0.925   7.466   1.216
 2574TIP3    H1 7665   0.976   7.541   1.186
 2574TIP3    H2 7666   0.916   7.410   1.138
 2575TIP3   OH2 7667   1.116   6.726   1.645
 2575TIP3    H1 7668   1.076   6.779   1.714
 2575TIP3    H2 7669   1.103   6.778   1.566
 2576TIP3   OH2 7670   2.111   6.389   2.828
 2576TIP3    H1 7671   2.041   6.329   2.803
 2576TIP3    H2 7672   2.191   6.336   2.820
 2577TIP3   OH2 7673   7.796   3.076   5.829
 2577TIP3    H1 7674   7.890   3.070   5.849
 2577TIP3    H2 7675   7.782   3.008   5.762
 2578TIP3   OH2 7676   2.918   5.983   4.614
 2578TIP3    H1 7677   2.854   5.977   4.684
 2578TIP3    H2 7678   3.002   5.963   4.657
 2579TIP3   OH2 7679   7.703   6.860   0.032
 2579TIP3    H1 7680   7.777   6.842   0.091
 2579TIP3    H2 7681   7.641   6.790   0.050
 2580TIP3   OH2 7682   5.813   6.711   1.356
 2580TIP3    H1 7683   5.827   6.713   1.261
 2580TIP3    H2 7684   5.719   6.721   1.367
 2581TIP3   OH2 7685   5.564   7.008   2.773
 2581TIP3    H1 7686   5.504   7.001   2.699
 2581TIP3    H2 7687   5.533   6.943   2.836
 2582TIP3   OH2 7688   6.209   2.757   5.002
 2582TIP3    H1 7689   6.153   2.815   4.951
 2582TIP3    H2 7690   6.298   2.788   4.984
 2583TIP3   OH2 7691   0.750   7.624   5.111
 2583TIP3    H1 7692   0.709   7.551   5.158
 2583TIP3    H2 7693   0.843   7.617   5.134
 2584TIP3   OH2 7694   2.323   5.509   6.579
 2584TIP3    H1 7695   2.308   5.519   6.673
 2584TIP3    H2 7696   2.244   5.465   6.547
 2585TIP3   OH2 7697   2.932   5.149   5.554
 2585TIP3    H1 7698   2.958   5.201   5.478
 2585TIP3    H2 7699   2.994   5.174   5.622
 2586TIP3   OH2 7700   2.929   5.987   3.335
 2586TIP3    H1 7701   2.904   6.056   3.273
 2586TIP3    H2 7702   2.931   5.908   3.282
 2587TIP3   OH2 7703   7.875   4.484   6.364
 2587TIP3    H1 7704   7.932   4.408   6.366
 2587TIP3    H2 7705   7.926   4.551   6.318
 2588TIP3   OH2 7706   2.672   5.199   4.524
 2588TIP3    H1 7707   2.734   5.170   4.591
 2588TIP3    H2 7708   2.684   5.294   4.520
 2589TIP3   OH2 7709   5.064   1.330   0.991
 2589TIP3    H1 7710   5.019   1.403   1.033
 2589TIP3    H2 7711   5.048   1.342   0.897
 2590TIP3   OH2 7712   3.653   3.859   0.586
 2590TIP3    H1 7713   3.694   3.932   0.632
 2590TIP3    H2 7714   3.699   3.853   0.503
 2591TIP3   OH2 7715   5.339   3.406   3.678
 2591TIP3    H1 7716   5.362   3.483   3.730
 2591TIP3    H2 7717   5.253   3.427   3.641
 2592TIP3   OH2 7718   5.240   6.979   5.062
 2592TIP3    H1 7719   5.284   6.944   4.985
 2592TIP3    H2 7720   5.168   7.030   5.028
 2593TIP3   OH2 7721   3.738   6.299   2.414
 2593TIP3    H1 7722   3.711   6.270   2.327
 2593TIP3    H2 7723   3.658   6.334   2.454
 2594TIP3   OH2 7724   2.463   5.911   1.088
 2594TIP3    H1 7725   2.410   5.872   1.018
 2594TIP3    H2 7726   2.452   6.005   1.076
 2595TIP3   OH2 7727   1.750   6.217   0.925
 2595TIP3    H1 7728   1.833   6.260   0.945
 2595TIP3    H2 7729   1.683   6.280   0.951
 2596TIP3   OH2 7730   4.975   0.689   4.937
 2596TIP3    H1 7731   5.050   0.739   4.969
 2596TIP3    H2 7732   4.984   0.691   4.842
 2597TIP3   OH2 7733   2.222   3.748   2.582
 2597TIP3    H1 7734   2.194   3.817   2.643
 2597TIP3    H2 7735   2.241   3.793   2.500
 2598TIP3   OH2 7736   3.341   3.234   6.206
 2598TIP3    H1 7737   3.330   3.300   6.138
 2598TIP3    H2 7738   3.252   3.202   6.222
 2599TIP3   OH2 7739   0.399   0.754   6.705
 2599TIP3    H1 7740   0.479   0.708   6.728
 2599TIP3    H2 7741   0.329   0.699   6.737
 2600TIP3   OH2 7742   2.892   7.821   1.744
 2600TIP3    H1 7743   2.963   7.785   1.797
 2600TIP3    H2 7744   2.822   7.841   1.807
 2601TIP3   OH2 7745   7.935   5.078   4.450
 2601TIP3    H1 7746   7.863   5.092   4.388
 2601TIP3    H2 7747   7.904   5.008   4.507
 2602TIP3   OH2 7748   6.270   2.822   0.818
 2602TIP3    H1 7749   6.315   2.742   0.846
 2602TIP3    H2 7750   6.324   2.856   0.746
 2603TIP3   OH2 7751   7.004   6.585   3.665
 2603TIP3    H1 7752   7.033   6.538   3.586
 2603TIP3    H2 7753   6.909   6.593   3.655
 2604TIP3   OH2 7754   7.309   3.869   4.028
 2604TIP3    H1 7755   7.238   3.933   4.024
 2604TIP3    H2 7756   7.309   3.839   4.118
 2605TIP3   OH2 7757   5.988   2.394   6.672
 2605TIP3    H1 7758   6.001   2.415   6.765
 2605TIP3    H2 7759   5.974   2.300   6.670
 2606TIP3   OH2 7760   4.717   2.073   2.001
 2606TIP3    H1 7761   4.703   1.979   1.991
 2606TIP3    H2 7762   4.729   2.105   1.911
 2607TIP3   OH2 7763   1.606   3.071   1.897
 2607TIP3    H1 7764   1.543   3.004   1.924
 2607TIP3    H2 7765   1.553   3.149   1.880
 2608TIP3   OH2 7766   4.657   5.009   1.887
 2608TIP3    H1 7767   4.641   4.919   1.915
 2608TIP3    H2 7768   4.569   5.044   1.871
 2609TIP3   OH2 7769   1.684   6.388   3.151
 2609TIP3    H1 7770   1.762   6.428   3.112
 2609TIP3    H2 7771   1.678   6.302   3.110
 2610TIP3   OH2 7772   8.156   4.437   6.041
 2610TIP3    H1 7773   8.229   4.466   5.986
 2610TIP3    H2 7774   8.078   4.462   5.993
 2611TIP3   OH2 7775   4.036   4.545   4.430
 2611TIP3    H1 7776   3.970   4.523   4.364
 2611TIP3    H2 7777   4.074   4.627   4.400
 2612TIP3   OH2 7778   6.495   7.059   6.567
 2612TIP3    H1 7779   6.469   7.107   6.488
 2612TIP3    H2 7780   6.440   7.096   6.636
 2613TIP3   OH2 7781   1.982   4.437   5.990
 2613TIP3    H1 7782   2.056   4.490   6.019
 2613TIP3    H2 7783   2.004   4.412   5.901
 2614TIP3   OH2 7784   0.207   5.794   4.748
 2614TIP3    H1 7785   0.188   5.706   4.782
 2614TIP3    H2 7786   0.216   5.848   4.827
 2615TIP3   OH2 7787   2.352   0.396   2.686
 2615TIP3    H1 7788   2.263   0.364   2.681
 2615TIP3    H2 7789   2.406   0.325   2.651
 2616TIP3   OH2 7790   7.098   5.473   4.941
 2616TIP3    H1 7791   7.081   5.546   4.883
 2616TIP3    H2 7792   7.045   5.401   4.906
 2617TIP3   OH2 7793   4.325   7.635   5.265
 2617TIP3    H1 7794   4.403   7.588   5.236
 2617TIP3    H2 7795   4.268   7.637   5.188
 2618TIP3   OH2 7796   4.448   4.746   3.185
 2618TIP3    H1 7797   4.392   4.708   3.117
 2618TIP3    H2 7798   4.535   4.708   3.168
 2619TIP3   OH2 7799   5.751   7.008   1.445
 2619TIP3    H1 7800   5.793   7.067   1.384
 2619TIP3    H2 7801   5.701   6.948   1.390
 2620TIP3   OH2 7802   1.337   7.485   5.402
 2620TIP3    H1 7803   1.352   7.536   5.323
 2620TIP3    H2 7804   1.291   7.544   5.461
 2621TIP3   OH2 7805   0.698   1.207   3.064
 2621TIP3    H1 7806   0.643   1.213   3.142
 2621TIP3    H2 7807   0.777   1.162   3.093
 2622TIP3   OH2 7808   1.515   1.814   0.093
 2622TIP3    H1 7809   1.517   1.777   0.004
 2622TIP3    H2 7810   1.424   1.837   0.107
 2623TIP3   OH2 7811   6.908   3.024   6.009
 2623TIP3    H1 7812   6.846   3.065   6.069
 2623TIP3    H2 7813   6.867   3.034   5.923
 2624TIP3   OH2 7814   3.167   5.899   5.715
 2624TIP3    H1 7815   3.171   5.809   5.684
 2624TIP3    H2 7816   3.114   5.945   5.650
 2625TIP3   OH2 7817   5.002   1.149   4.822
 2625TIP3    H1 7818   5.049   1.154   4.905
 2625TIP3    H2 7819   4.938   1.220   4.827
 2626TIP3   OH2 7820   3.296   0.192   2.503
 2626TIP3    H1 7821   3.284   0.107   2.461
 2626TIP3    H2 7822   3.354   0.174   2.578
 2627TIP3   OH2 7823   4.333   7.540   2.514
 2627TIP3    H1 7824   4.252   7.572   2.476
 2627TIP3    H2 7825   4.313   7.451   2.543
 2628TIP3   OH2 7826   5.478   2.938   1.365
 2628TIP3    H1 7827   5.509   2.876   1.431
 2628TIP3    H2 7828   5.416   2.993   1.412
 2629TIP3   OH2 7829   1.755   3.131   4.175
 2629TIP3    H1 7830   1.720   3.113   4.263
 2629TIP3    H2 7831   1.712   3.066   4.119
 2630TIP3   OH2 7832   0.891   3.047   5.637
 2630TIP3    H1 7833   0.983   3.034   5.661
 2630TIP3    H2 7834   0.859   3.110   5.702
 2631TIP3   OH2 7835   3.309   4.945   0.960
 2631TIP3    H1 7836   3.361   5.025   0.959
 2631TIP3    H2 7837   3.260   4.948   1.043
 2632TIP3   OH2 7838   6.808   2.691   1.752
 2632TIP3    H1 7839   6.791   2.609   1.704
 2632TIP3    H2 7840   6.826   2.755   1.683
 2633TIP3   OH2 7841   0.397   5.338   2.844
 2633TIP3    H1 7842   0.341   5.411   2.818
 2633TIP3    H2 7843   0.349   5.297   2.916
 2634TIP3   OH2 7844   2.144   7.102   5.077
 2634TIP3    H1 7845   2.200   7.181   5.077
 2634TIP3    H2 7846   2.158   7.063   4.990
 2635TIP3   OH2 7847   6.060   2.960   5.458
 2635TIP3    H1 7848   6.096   2.879   5.495
 2635TIP3    H2 7849   6.118   3.028   5.491
 2636TIP3   OH2 7850   2.457   2.271   5.440
 2636TIP3    H1 7851   2.389   2.337   5.454
 2636TIP3    H2 7852   2.536   2.310   5.478
 2637TIP3   OH2 7853   4.162   6.436   5.751
 2637TIP3    H1 7854   4.079   6.465   5.789
 2637TIP3    H2 7855   4.219   6.512   5.758
 2638TIP3   OH2 7856   0.165   2.468   2.617
 2638TIP3    H1 7857   0.133   2.447   2.529
 2638TIP3    H2 7858   0.227   2.398   2.637
 2639TIP3   OH2 7859   5.990   3.212   0.692
 2639TIP3    H1 7860   5.958   3.141   0.636
 2639TIP3    H2 7861   5.925   3.218   0.762
 2640TIP3   OH2 7862   4.303   1.873   3.476
 2640TIP3    H1 7863   4.265   1.786   3.486
 2640TIP3    H2 7864   4.345   1.871   3.390
 2641TIP3   OH2 7865   3.239   5.516   3.472
 2641TIP3    H1 7866   3.280   5.583   3.526
 2641TIP3    H2 7867   3.146   5.536   3.474
 2642TIP3   OH2 7868   0.950   6.893   2.181
 2642TIP3    H1 7869   0.956   6.985   2.155
 2642TIP3    H2 7870   1.026   6.878   2.236
 2643TIP3   OH2 7871   2.858   5.956   3.989
 2643TIP3    H1 7872   2.842   5.981   4.080
 2643TIP3    H2 7873   2.816   5.870   3.980
 2644TIP3   OH2 7874   3.968   7.217   6.065
 2644TIP3    H1 7875   3.961   7.308   6.039
 2644TIP3    H2 7876   3.927   7.213   6.151
 2645TIP3   OH2 7877   4.345   4.714   5.502
 2645TIP3    H1 7878   4.335   4.641   5.441
 2645TIP3    H2 7879   4.266   4.712   5.555
 2646TIP3   OH2 7880   3.224   4.136   1.367
 2646TIP3    H1 7881   3.196   4.214   1.318
 2646TIP3    H2 7882   3.245   4.072   1.300
 2647TIP3   OH2 7883   4.657   3.052   6.314
 2647TIP3    H1 7884   4.600   3.062   6.390
 2647TIP3    H2 7885   4.723   2.988   6.342
 2648TIP3   OH2 7886   4.241   6.881   4.381
 2648TIP3    H1 7887   4.234   6.804   4.438
 2648TIP3    H2 7888   4.218   6.848   4.294
 2649TIP3   OH2 7889   4.948   2.811   2.983
 2649TIP3    H1 7890   5.016   2.779   3.042
 2649TIP3    H2 7891   4.936   2.903   3.007
 2650TIP3   OH2 7892   1.872   2.567   4.460
 2650TIP3    H1 7893   1.902   2.515   4.534
 2650TIP3    H2 7894   1.943   2.629   4.444
 2651TIP3   OH2 7895   0.071   2.368   4.544
 2651TIP3    H1 7896  -0.001   2.344   4.486
 2651TIP3    H2 7897   0.080   2.292   4.602
 2652TIP3   OH2 7898   2.238   1.350   3.948
 2652TIP3    H1 7899   2.282   1.285   3.893
 2652TIP3    H2 7900   2.298   1.366   4.021
 2653TIP3   OH2 7901   0.779   2.158   5.669
 2653TIP3    H1 7902   0.848   2.222   5.652
 2653TIP3    H2 7903   0.825   2.077   5.691
 2654TIP3   OH2 7904   6.155   0.743   4.127
 2654TIP3    H1 7905   6.117   0.782   4.206
 2654TIP3    H2 7906   6.213   0.811   4.092
 2655TIP3   OH2 7907   3.283   3.718   1.984
 2655TIP3    H1 7908   3.354   3.775   2.012
 2655TIP3    H2 7909   3.286   3.720   1.889
 2656TIP3   OH2 7910   0.808   6.997   5.021
 2656TIP3    H1 7911   0.751   7.066   4.986
 2656TIP3    H2 7912   0.750   6.944   5.076
 2657TIP3   OH2 7913   4.216   1.245   0.461
 2657TIP3    H1 7914   4.241   1.299   0.386
 2657TIP3    H2 7915   4.122   1.261   0.471
 2658TIP3   OH2 7916   7.042   7.088   1.498
 2658TIP3    H1 7917   7.118   7.053   1.544
 2658TIP3    H2 7918   6.981   7.113   1.568
 2659TIP3   OH2 7919   2.241   5.443   4.837
 2659TIP3    H1 7920   2.205   5.354   4.827
 2659TIP3    H2 7921   2.273   5.445   4.927
 2660TIP3   OH2 7922   5.161   4.953   6.132
 2660TIP3    H1 7923   5.140   4.950   6.039
 2660TIP3    H2 7924   5.094   5.009   6.170
 2661TIP3   OH2 7925   7.343   6.678   0.742
 2661TIP3    H1 7926   7.360   6.623   0.665
 2661TIP3    H2 7927   7.249   6.698   0.737
 2662TIP3   OH2 7928   5.687   6.710   4.055
 2662TIP3    H1 7929   5.599   6.723   4.088
 2662TIP3    H2 7930   5.707   6.791   4.008
 2663TIP3   OH2 7931   3.806   6.837   5.499
 2663TIP3    H1 7932   3.743   6.836   5.571
 2663TIP3    H2 7933   3.765   6.892   5.432
 2664TIP3   OH2 7934   4.037   7.435   1.756
 2664TIP3    H1 7935   4.031   7.491   1.678
 2664TIP3    H2 7936   3.976   7.475   1.818
 2665TIP3   OH2 7937   2.240   2.441   5.399
 2665TIP3    H1 7938   2.290   2.511   5.442
 2665TIP3    H2 7939   2.270   2.441   5.309
 2666TIP3   OH2 7940   6.623   2.039   6.073
 2666TIP3    H1 7941   6.671   2.075   5.999
 2666TIP3    H2 7942   6.572   2.113   6.107
 2667TIP3   OH2 7943   7.848   7.806   5.023
 2667TIP3    H1 7944   7.777   7.768   5.074
 2667TIP3    H2 7945   7.855   7.749   4.946
 2668TIP3   OH2 7946   4.135   0.888   1.749
 2668TIP3    H1 7947   4.149   0.973   1.791
 2668TIP3    H2 7948   4.040   0.877   1.745
 2669TIP3   OH2 7949   7.794   2.854   0.963
 2669TIP3    H1 7950   7.828   2.802   1.035
 2669TIP3    H2 7951   7.725   2.801   0.924
 2670TIP3   OH2 7952   6.073   2.404   1.044
 2670TIP3    H1 7953   6.129   2.328   1.062
 2670TIP3    H2 7954   6.099   2.433   0.957
 2671TIP3   OH2 7955   4.268   0.627   6.521
 2671TIP3    H1 7956   4.262   0.711   6.475
 2671TIP3    H2 7957   4.361   0.614   6.536
 2672TIP3   OH2 7958   6.143   6.345   2.945
 2672TIP3    H1 7959   6.149   6.257   2.908
 2672TIP3    H2 7960   6.233   6.368   2.967
 2673TIP3   OH2 7961   7.100   1.632   5.020
 2673TIP3    H1 7962   7.110   1.687   4.942
 2673TIP3    H2 7963   7.097   1.694   5.093
 2674TIP3   OH2 7964   4.200   3.016   4.141
 2674TIP3    H1 7965   4.231   3.088   4.086
 2674TIP3    H2 7966   4.272   2.999   4.202
 2675TIP3   OH2 7967   2.551   6.415   6.794
 2675TIP3    H1 7968   2.467   6.399   6.753
 2675TIP3    H2 7969   2.593   6.481   6.739
 2676TIP3   OH2 7970   7.697   1.224   0.367
 2676TIP3    H1 7971   7.627   1.265   0.316
 2676TIP3    H2 7972   7.664   1.136   0.388
 2677TIP3   OH2 7973   7.493   1.142   3.219
 2677TIP3    H1 7974   7.400   1.149   3.242
 2677TIP3    H2 7975   7.535   1.113   3.300
 2678TIP3   OH2 7976   6.270   2.888   6.120
 2678TIP3    H1 7977   6.322   2.965   6.099
 2678TIP3    H2 7978   6.186   2.924   6.149
 2679TIP3   OH2 7979   4.238   0.598   3.341
 2679TIP3    H1 7980   4.220   0.692   3.344
 2679TIP3    H2 7981   4.333   0.592   3.352
 2680TIP3   OH2 7982   8.130   6.925   2.038
 2680TIP3    H1 7983   8.100   6.848   1.989
 2680TIP3    H2 7984   8.221   6.937   2.010
 2681TIP3   OH2 7985   7.555   6.255   5.746
 2681TIP3    H1 7986   7.567   6.207   5.663
 2681TIP3    H2 7987   7.566   6.188   5.813
 2682TIP3   OH2 7988   0.059   7.650   6.335
 2682TIP3    H1 7989   0.068   7.632   6.241
 2682TIP3    H2 7990   0.148   7.665   6.365
 2683TIP3   OH2 7991   5.126   7.545   0.779
 2683TIP3    H1 7992   5.080   7.574   0.858
 2683TIP3    H2 7993   5.056   7.517   0.720
 2684TIP3   OH2 7994   2.838   1.246   6.036
 2684TIP3    H1 7995   2.926   1.223   6.008
 2684TIP3    H2 7996   2.849   1.324   6.091
 2685TIP3   OH2 7997   2.961  -0.038   6.021
 2685TIP3    H1 7998   2.884   0.020   6.024
 2685TIP3    H2 7999   3.033   0.017   6.051
 2686TIP3   OH2 8000   3.401   5.924   3.763
 2686TIP3    H1 8001   3.369   6.011   3.743
 2686TIP3    H2 8002   3.453   5.935   3.843
 2687TIP3   OH2 8003   0.154   0.978   4.928
 2687TIP3    H1 8004   0.235   1.016   4.962
 2687TIP3    H2 8005   0.084   1.026   4.972
 2688TIP3   OH2 8006   7.474   7.465   2.940
 2688TIP3    H1 8007   7.435   7.545   2.974
 2688TIP3    H2 8008   7.551   7.494   2.892
 2689TIP3   OH2 8009   3.232   7.120   5.402
 2689TIP3    H1 8010   3.146   7.106   5.442
 2689TIP3    H2 8011   3.232   7.212   5.375
 2690TIP3   OH2 8012   0.993   3.923   3.558
 2690TIP3    H1 8013   1.073   3.972   3.577
 2690TIP3    H2 8014   0.953   3.908   3.643
 2691TIP3   OH2 8015   3.188   0.902   5.512
 2691TIP3    H1 8016   3.244   0.974   5.539
 2691TIP3    H2 8017   3.216   0.828   5.566
 2692TIP3   OH2 8018   0.844   0.215   5.732
 2692TIP3    H1 8019   0.775   0.150   5.718
 2692TIP3    H2 8020   0.810   0.295   5.691
 2693TIP3   OH2 8021   0.401   6.365   3.059
 2693TIP3    H1 8022   0.344   6.423   3.009
 2693TIP3    H2 8023   0.443   6.423   3.123
 2694TIP3   OH2 8024   0.523   4.952   2.222
 2694TIP3    H1 8025   0.595   4.931   2.163
 2694TIP3    H2 8026   0.454   4.890   2.198
 2695TIP3   OH2 8027   4.558   1.708   1.602
 2695TIP3    H1 8028   4.633   1.721   1.545
 2695TIP3    H2 8029   4.592   1.659   1.677
 2696TIP3   OH2 8030   3.473   4.960   1.276
 2696TIP3    H1 8031   3.496   4.897   1.208
 2696TIP3    H2 8032   3.492   4.914   1.358
 2697TIP3   OH2 8033   4.440   3.736   0.572
 2697TIP3    H1 8034   4.356   3.691   0.579
 2697TIP3    H2 8035   4.427   3.801   0.504
 2698TIP3   OH2 8036   5.637   5.990   0.989
 2698TIP3    H1 8037   5.638   6.052   1.063
 2698TIP3    H2 8038   5.682   6.036   0.919
 2699TIP3   OH2 8039   8.077   1.263   2.787
 2699TIP3    H1 8040   7.997   1.232   2.746
 2699TIP3    H2 8041   8.087   1.207   2.864
 2700TIP3   OH2 8042   1.688   4.902   0.930
 2700TIP3    H1 8043   1.663   4.993   0.940
 2700TIP3    H2 8044   1.671   4.863   1.016
 2701TIP3   OH2 8045   7.865   2.151   2.781
 2701TIP3    H1 8046   7.958   2.134   2.765
 2701TIP3    H2 8047   7.865   2.225   2.842
 2702TIP3   OH2 8048   0.576   7.705   5.897
 2702TIP3    H1 8049   0.648   7.689   5.958
 2702TIP3    H2 8050   0.532   7.783   5.931
 2703TIP3   OH2 8051   3.859   4.892   2.277
 2703TIP3    H1 8052   3.905   4.976   2.275
 2703TIP3    H2 8053   3.927   4.828   2.298
 2704TIP3   OH2 8054   2.650   4.450   5.802
 2704TIP3    H1 8055   2.620   4.466   5.713
 2704TIP3    H2 8056   2.574   4.413   5.847
 2705TIP3   OH2 8057   6.637   2.620   3.032
 2705TIP3    H1 8058   6.649   2.659   2.945
 2705TIP3    H2 8059   6.542   2.622   3.046
 2706TIP3   OH2 8060   5.512   0.783   5.300
 2706TIP3    H1 8061   5.430   0.737   5.283
 2706TIP3    H2 8062   5.536   0.757   5.389
 2707TIP3   OH2 8063   7.324   4.466   4.466
 2707TIP3    H1 8064   7.401   4.479   4.410
 2707TIP3    H2 8065   7.359   4.463   4.555
 2708TIP3   OH2 8066   0.766   0.343   0.488
 2708TIP3    H1 8067   0.697   0.407   0.472
 2708TIP3    H2 8068   0.847   0.395   0.487
 2709TIP3   OH2 8069   5.278   2.283   1.150
 2709TIP3    H1 8070   5.237   2.368   1.160
 2709TIP3    H2 8071   5.361   2.301   1.105
 2710TIP3   OH2 8072   1.735   4.052   3.730
 2710TIP3    H1 8073   1.741   4.063   3.825
 2710TIP3    H2 8074   1.775   4.132   3.695
 2711TIP3   OH2 8075   5.201   5.850   1.291
 2711TIP3    H1 8076   5.212   5.756   1.309
 2711TIP3    H2 8077   5.278   5.873   1.239
 2712TIP3   OH2 8078   1.397   7.546   4.616
 2712TIP3    H1 8079   1.340   7.575   4.687
 2712TIP3    H2 8080   1.338   7.519   4.546
 2713TIP3   OH2 8081   0.955   1.407   0.776
 2713TIP3    H1 8082   1.027   1.436   0.720
 2713TIP3    H2 8083   0.888   1.476   0.767
 2714TIP3   OH2 8084   1.710   5.778   3.762
 2714TIP3    H1 8085   1.666   5.694   3.749
 2714TIP3    H2 8086   1.774   5.761   3.831
 2715TIP3   OH2 8087   2.922   6.234   1.181
 2715TIP3    H1 8088   2.874   6.233   1.264
 2715TIP3    H2 8089   2.924   6.327   1.156
 2716TIP3   OH2 8090   0.442   4.821   0.120
 2716TIP3    H1 8091   0.452   4.794   0.029
 2716TIP3    H2 8092   0.460   4.915   0.120
 2717TIP3   OH2 8093   1.487   6.932   0.741
 2717TIP3    H1 8094   1.450   6.949   0.654
 2717TIP3    H2 8095   1.452   7.002   0.795
 2718TIP3   OH2 8096   6.844   6.602   0.961
 2718TIP3    H1 8097   6.855   6.521   1.010
 2718TIP3    H2 8098   6.867   6.579   0.871
 2719TIP3   OH2 8099   1.740   0.102   3.151
 2719TIP3    H1 8100   1.654   0.101   3.195
 2719TIP3    H2 8101   1.775   0.189   3.169
 2720TIP3   OH2 8102   2.054   4.779   0.759
 2720TIP3    H1 8103   2.141   4.771   0.721
 2720TIP3    H2 8104   2.065   4.748   0.849
 2721TIP3   OH2 8105   1.525   3.972   2.617
 2721TIP3    H1 8106   1.574   3.902   2.660
 2721TIP3    H2 8107   1.581   4.001   2.545
 2722TIP3   OH2 8108   2.291   6.945   0.022
 2722TIP3    H1 8109   2.249   6.942  -0.064
 2722TIP3    H2 8110   2.385   6.948   0.003
 2723TIP3   OH2 8111   0.708   1.697   0.122
 2723TIP3    H1 8112   0.621   1.701   0.081
 2723TIP3    H2 8113   0.693   1.719   0.213
 2724TIP3   OH2 8114   8.155   5.008   1.151
 2724TIP3    H1 8115   8.123   5.045   1.234
 2724TIP3    H2 8116   8.196   5.081   1.106
 2725TIP3   OH2 8117   5.339   2.581   5.732
 2725TIP3    H1 8118   5.365   2.648   5.796
 2725TIP3    H2 8119   5.261   2.617   5.691
 2726TIP3   OH2 8120   0.078   1.117   2.591
 2726TIP3    H1 8121   0.007   1.146   2.648
 2726TIP3    H2 8122   0.059   1.025   2.574
 2727TIP3   OH2 8123   6.735   2.391   6.254
 2727TIP3    H1 8124   6.829   2.408   6.246
 2727TIP3    H2 8125   6.729   2.320   6.318
 2728TIP3   OH2 8126   0.822   3.275   4.102
 2728TIP3    H1 8127   0.742   3.225   4.118
 2728TIP3    H2 8128   0.883   3.243   4.169
 2729TIP3   OH2 8129   5.540   2.680   2.527
 2729TIP3    H1 8130   5.453   2.641   2.528
 2729TIP3    H2 8131   5.525   2.774   2.537
 2730TIP3   OH2 8132   5.279   2.105   5.077
 2730TIP3    H1 8133   5.204   2.060   5.116
 2730TIP3    H2 8134   5.241   2.181   5.033
 2731TIP3   OH2 8135   0.303   1.658   1.264
 2731TIP3    H1 8136   0.324   1.673   1.172
 2731TIP3    H2 8137   0.217   1.699   1.276
 2732TIP3   OH2 8138   0.744   4.198   1.619
 2732TIP3    H1 8139   0.649   4.196   1.624
 2732TIP3    H2 8140   0.774   4.154   1.698
 2733TIP3   OH2 8141   6.752   5.087   4.489
 2733TIP3    H1 8142   6.681   5.036   4.529
 2733TIP3    H2 8143   6.799   5.125   4.563
 2734TIP3   OH2 8144   4.854   0.478   5.885
 2734TIP3    H1 8145   4.824   0.562   5.850
 2734TIP3    H2 8146   4.863   0.422   5.808
 2735TIP3   OH2 8147   6.212   2.235   5.128
 2735TIP3    H1 8148   6.292   2.212   5.175
 2735TIP3    H2 8149   6.206   2.330   5.135
 2736TIP3   OH2 8150   3.369   7.525   6.452
 2736TIP3    H1 8151   3.354   7.471   6.529
 2736TIP3    H2 8152   3.350   7.614   6.482
 2737TIP3   OH2 8153   7.778   3.483   4.450
 2737TIP3    H1 8154   7.751   3.519   4.535
 2737TIP3    H2 8155   7.814   3.558   4.403
 2738TIP3   OH2 8156   6.023   2.799   5.782
 2738TIP3    H1 8157   6.097   2.771   5.726
 2738TIP3    H2 8158   6.055   2.877   5.827
 2739TIP3   OH2 8159   6.981   7.104   4.504
 2739TIP3    H1 8160   6.890   7.130   4.518
 2739TIP3    H2 8161   7.017   7.172   4.446
 2740TIP3   OH2 8162   5.385   4.416   5.240
 2740TIP3    H1 8163   5.316   4.458   5.291
 2740TIP3    H2 8164   5.450   4.485   5.227
 2741TIP3   OH2 8165   6.835   4.888   0.204
 2741TIP3    H1 8166   6.764   4.944   0.173
 2741TIP3    H2 8167   6.822   4.805   0.158
 2742TIP3   OH2 8168   6.343   2.933   4.713
 2742TIP3    H1 8169   6.404   2.861   4.726
 2742TIP3    H2 8170   6.257   2.894   4.722
 2743TIP3   OH2 8171   2.763   4.401   4.539
 2743TIP3    H1 8172   2.688   4.436   4.490
 2743TIP3    H2 8173   2.725   4.341   4.603
 2744TIP3   OH2 8174   6.145   1.366   3.254
 2744TIP3    H1 8175   6.149   1.371   3.159
 2744TIP3    H2 8176   6.159   1.456   3.283
 2745TIP3   OH2 8177   3.171   6.318   6.272
 2745TIP3    H1 8178   3.198   6.228   6.286
 2745TIP3    H2 8179   3.245   6.360   6.229
 2746TIP3   OH2 8180   5.581   5.535   1.599
 2746TIP3    H1 8181   5.581   5.449   1.557
 2746TIP3    H2 8182   5.624   5.521   1.683
 2747TIP3   OH2 8183   8.094   3.585   0.829
 2747TIP3    H1 8184   8.041   3.623   0.898
 2747TIP3    H2 8185   8.071   3.492   0.830
 2748TIP3   OH2 8186   3.732   7.768   0.779
 2748TIP3    H1 8187   3.693   7.822   0.710
 2748TIP3    H2 8188   3.794   7.825   0.823
 2749TIP3   OH2 8189   8.017   0.868   5.851
 2749TIP3    H1 8190   8.088   0.931   5.847
 2749TIP3    H2 8191   7.998   0.847   5.759
 2750TIP3   OH2 8192   0.217   0.048   4.478
 2750TIP3    H1 8193   0.256   0.119   4.428
 2750TIP3    H2 8194   0.285  -0.020   4.479
 2751TIP3   OH2 8195   5.976   3.033   2.071
 2751TIP3    H1 8196   6.008   3.019   1.982
 2751TIP3    H2 8197   6.030   3.104   2.105
 2752TIP3   OH2 8198   5.878   4.452   6.372
 2752TIP3    H1 8199   5.845   4.536   6.404
 2752TIP3    H2 8200   5.955   4.476   6.320
 2753TIP3   OH2 8201   7.125   1.402   4.509
 2753TIP3    H1 8202   7.133   1.403   4.414
 2753TIP3    H2 8203   7.040   1.359   4.525
 2754TIP3   OH2 8204   4.655   5.980   1.768
 2754TIP3    H1 8205   4.592   5.915   1.800
 2754TIP3    H2 8206   4.626   6.063   1.806
 2755TIP3   OH2 8207   7.496   7.455   4.751
 2755TIP3    H1 8208   7.508   7.380   4.693
 2755TIP3    H2 8209   7.508   7.532   4.696
 2756TIP3   OH2 8210   5.024   5.428   2.898
 2756TIP3    H1 8211   5.082   5.411   2.973
 2756TIP3    H2 8212   4.968   5.350   2.893
 2757TIP3   OH2 8213   3.437   0.426   5.670
 2757TIP3    H1 8214   3.387   0.345   5.657
 2757TIP3    H2 8215   3.495   0.407   5.744
 2758TIP3   OH2 8216   2.515   2.072   1.105
 2758TIP3    H1 8217   2.542   2.147   1.158
 2758TIP3    H2 8218   2.447   2.029   1.157
 2759TIP3   OH2 8219   6.561   1.213   5.581
 2759TIP3    H1 8220   6.468   1.214   5.559
 2759TIP3    H2 8221   6.598   1.287   5.534
 2760TIP3   OH2 8222   2.397   7.749   2.061
 2760TIP3    H1 8223   2.438   7.786   2.139
 2760TIP3    H2 8224   2.407   7.654   2.072
 2761TIP3   OH2 8225   8.223   0.444   3.532
 2761TIP3    H1 8226   8.254   0.389   3.459
 2761TIP3    H2 8227   8.255   0.531   3.510
 2762TIP3   OH2 8228   7.927   0.466   4.906
 2762TIP3    H1 8229   7.999   0.499   4.960
 2762TIP3    H2 8230   7.961   0.470   4.816
 2763TIP3   OH2 8231   2.690   7.538   4.873
 2763TIP3    H1 8232   2.738   7.611   4.912
 2763TIP3    H2 8233   2.598   7.562   4.880
 2764TIP3   OH2 8234   2.001   2.784   0.923
 2764TIP3    H1 8235   1.934   2.829   0.975
 2764TIP3    H2 8236   2.017   2.703   0.971
 2765TIP3   OH2 8237   1.039   4.874   3.503
 2765TIP3    H1 8238   1.034   4.860   3.598
 2765TIP3    H2 8239   1.041   4.969   3.493
 2766TIP3   OH2 8240   8.107   7.466   5.689
 2766TIP3    H1 8241   8.129   7.373   5.690
 2766TIP3    H2 8242   8.038   7.475   5.755
 2767TIP3   OH2 8243   1.504   7.273   1.751
 2767TIP3    H1 8244   1.497   7.326   1.830
 2767TIP3    H2 8245   1.416   7.237   1.738
 2768TIP3   OH2 8246   3.080   4.667   6.566
 2768TIP3    H1 8247   3.103   4.682   6.657
 2768TIP3    H2 8248   3.012   4.733   6.547
 2769TIP3   OH2 8249   4.432   3.316   0.004
 2769TIP3    H1 8250   4.427   3.225   0.034
 2769TIP3    H2 8251   4.430   3.368   0.084
 2770TIP3   OH2 8252   6.991   5.291   6.155
 2770TIP3    H1 8253   7.067   5.239   6.178
 2770TIP3    H2 8254   6.970   5.265   6.065
 2771TIP3   OH2 8255   6.033   5.580   3.226
 2771TIP3    H1 8256   6.088   5.657   3.212
 2771TIP3    H2 8257   5.954   5.614   3.268
 2772TIP3   OH2 8258   0.792   5.542   2.040
 2772TIP3    H1 8259   0.735   5.596   2.094
 2772TIP3    H2 8260   0.751   5.455   2.042
 2773TIP3   OH2 8261   0.168   2.954   4.807
 2773TIP3    H1 8262   0.152   2.895   4.881
 2773TIP3    H2 8263   0.099   3.019   4.812
 2774TIP3   OH2 8264   0.509   6.031   4.403
 2774TIP3    H1 8265   0.414   6.034   4.398
 2774TIP3    H2 8266   0.528   6.027   4.497
 2775TIP3   OH2 8267   1.084   2.487   4.146
 2775TIP3    H1 8268   1.143   2.560   4.130
 2775TIP3    H2 8269   0.996   2.524   4.139
 2776TIP3   OH2 8270   6.298   7.067   0.234
 2776TIP3    H1 8271   6.242   7.038   0.306
 2776TIP3    H2 8272   6.300   6.993   0.173
 2777TIP3   OH2 8273   5.206   2.622   2.850
 2777TIP3    H1 8274   5.121   2.578   2.850
 2777TIP3    H2 8275   5.264   2.560   2.894
 2778TIP3   OH2 8276   1.530   3.165   5.364
 2778TIP3    H1 8277   1.492   3.078   5.374
 2778TIP3    H2 8278   1.592   3.156   5.291
 2779TIP3   OH2 8279   7.577   0.947   1.357
 2779TIP3    H1 8280   7.496   0.997   1.358
 2779TIP3    H2 8281   7.564   0.879   1.423
 2780TIP3   OH2 8282   6.276   1.098   2.297
 2780TIP3    H1 8283   6.357   1.053   2.271
 2780TIP3    H2 8284   6.306   1.175   2.345
 2781TIP3   OH2 8285   5.852   5.170   6.032
 2781TIP3    H1 8286   5.838   5.077   6.049
 2781TIP3    H2 8287   5.832   5.212   6.116
 2782TIP3   OH2 8288   7.691   5.704   6.689
 2782TIP3    H1 8289   7.786   5.706   6.679
 2782TIP3    H2 8290   7.671   5.611   6.701
 2783TIP3   OH2 8291   5.958   2.623   2.972
 2783TIP3    H1 8292   5.868   2.616   3.002
 2783TIP3    H2 8293   5.974   2.542   2.924
 2784TIP3   OH2 8294   4.808  -0.011   3.322
 2784TIP3    H1 8295   4.717   0.018   3.331
 2784TIP3    H2 8296   4.823  -0.067   3.398
 2785TIP3   OH2 8297   4.397   5.347   4.497
 2785TIP3    H1 8298   4.491   5.362   4.496
 2785TIP3    H2 8299   4.387   5.258   4.530
 2786TIP3   OH2 8300   6.323   2.200   2.501
 2786TIP3    H1 8301   6.404   2.173   2.457
 2786TIP3    H2 8302   6.348   2.211   2.593
 2787TIP3   OH2 8303   4.366   4.428   4.798
 2787TIP3    H1 8304   4.355   4.457   4.708
 2787TIP3    H2 8305   4.459   4.405   4.804
 2788TIP3   OH2 8306   4.816   5.692   1.487
 2788TIP3    H1 8307   4.808   5.769   1.430
 2788TIP3    H2 8308   4.727   5.676   1.518
 2789TIP3   OH2 8309   4.665   1.881   4.630
 2789TIP3    H1 8310   4.570   1.871   4.617
 2789TIP3    H2 8311   4.673   1.934   4.709
 2790TIP3   OH2 8312   1.634   6.279   2.387
 2790TIP3    H1 8313   1.587   6.289   2.470
 2790TIP3    H2 8314   1.696   6.207   2.403
 2791TIP3   OH2 8315   5.414   6.501   6.510
 2791TIP3    H1 8316   5.475   6.432   6.534
 2791TIP3    H2 8317   5.330   6.456   6.497
 2792TIP3   OH2 8318   0.271   7.475   2.892
 2792TIP3    H1 8319   0.284   7.457   2.985
 2792TIP3    H2 8320   0.233   7.395   2.856
 2793TIP3   OH2 8321   5.581   4.762   1.063
 2793TIP3    H1 8322   5.491   4.785   1.039
 2793TIP3    H2 8323   5.615   4.839   1.108
 2794TIP3   OH2 8324   4.637   7.736   3.848
 2794TIP3    H1 8325   4.604   7.709   3.934
 2794TIP3    H2 8326   4.570   7.707   3.786
 2795TIP3   OH2 8327   4.920   1.562   0.272
 2795TIP3    H1 8328   4.832   1.596   0.291
 2795TIP3    H2 8329   4.905   1.495   0.205
 2796TIP3   OH2 8330   2.588   7.280   0.705
 2796TIP3    H1 8331   2.588   7.196   0.660
 2796TIP3    H2 8332   2.505   7.282   0.752
 2797TIP3   OH2 8333   4.057   0.512   1.974
 2797TIP3    H1 8334   4.067   0.512   1.879
 2797TIP3    H2 8335   3.976   0.561   1.990
 2798TIP3   OH2 8336   1.885   6.359   4.310
 2798TIP3    H1 8337   1.798   6.363   4.271
 2798TIP3    H2 8338   1.870   6.367   4.404
 2799TIP3   OH2 8339   7.550   3.544   0.369
 2799TIP3    H1 8340   7.465   3.527   0.408
 2799TIP3    H2 8341   7.606   3.572   0.442
 2800TIP3   OH2 8342   5.901   5.496   6.097
 2800TIP3    H1 8343   5.985   5.465   6.131
 2800TIP3    H2 8344   5.837   5.432   6.129
 2801TIP3   OH2 8345   7.742   5.266   2.330
 2801TIP3    H1 8346   7.812   5.211   2.365
 2801TIP3    H2 8347   7.764   5.276   2.237
 2802TIP3   OH2 8348   3.258   5.589   2.314
 2802TIP3    H1 8349   3.263   5.513   2.371
 2802TIP3    H2 8350   3.188   5.567   2.252
 2803TIP3   OH2 8351   0.924   3.062   2.478
 2803TIP3    H1 8352   0.846   3.117   2.469
 2803TIP3    H2 8353   0.950   3.040   2.389
 2804TIP3   OH2 8354   0.972   3.620   1.976
 2804TIP3    H1 8355   0.904   3.552   1.976
 2804TIP3    H2 8356   0.964   3.661   2.062
 2805TIP3   OH2 8357   1.765   5.280   0.859
 2805TIP3    H1 8358   1.738   5.190   0.840
 2805TIP3    H2 8359   1.686   5.332   0.845
 2806TIP3   OH2 8360   5.986   1.833   4.231
 2806TIP3    H1 8361   5.900   1.799   4.207
 2806TIP3    H2 8362   5.995   1.812   4.324
 2807TIP3   OH2 8363   2.510   2.440   3.036
 2807TIP3    H1 8364   2.525   2.391   3.117
 2807TIP3    H2 8365   2.596   2.448   2.996
 2808TIP3   OH2 8366   6.551   0.352   4.874
 2808TIP3    H1 8367   6.606   0.403   4.934
 2808TIP3    H2 8368   6.520   0.415   4.809
 2809TIP3   OH2 8369   6.111   4.396   6.195
 2809TIP3    H1 8370   6.175   4.325   6.192
 2809TIP3    H2 8371   6.124   4.436   6.281
 2810TIP3   OH2 8372   6.057   6.256   5.123
 2810TIP3    H1 8373   6.110   6.334   5.105
 2810TIP3    H2 8374   5.994   6.253   5.051
 2811TIP3   OH2 8375   4.241   7.317   4.792
 2811TIP3    H1 8376   4.234   7.296   4.885
 2811TIP3    H2 8377   4.291   7.245   4.754
 2812TIP3   OH2 8378   2.283   3.636   6.489
 2812TIP3    H1 8379   2.229   3.644   6.567
 2812TIP3    H2 8380   2.252   3.557   6.445
 2813TIP3   OH2 8381   1.382   1.645   6.348
 2813TIP3    H1 8382   1.339   1.679   6.269
 2813TIP3    H2 8383   1.309   1.621   6.405
 2814TIP3   OH2 8384   6.692   5.748   0.707
 2814TIP3    H1 8385   6.659   5.667   0.668
 2814TIP3    H2 8386   6.785   5.732   0.721
 2815TIP3   OH2 8387   5.527   1.858   1.617
 2815TIP3    H1 8388   5.493   1.869   1.528
 2815TIP3    H2 8389   5.528   1.764   1.631
 2816TIP3   OH2 8390   5.970   7.497   5.869
 2816TIP3    H1 8391   6.041   7.516   5.930
 2816TIP3    H2 8392   5.915   7.575   5.871
 2817TIP3   OH2 8393   0.209   4.836   5.492
 2817TIP3    H1 8394   0.188   4.929   5.489
 2817TIP3    H2 8395   0.300   4.831   5.463
 2818TIP3   OH2 8396   8.087   3.839   0.650
 2818TIP3    H1 8397   8.134   3.770   0.697
 2818TIP3    H2 8398   8.128   3.841   0.563
 2819TIP3   OH2 8399   5.266   7.398   6.050
 2819TIP3    H1 8400   5.320   7.337   5.999
 2819TIP3    H2 8401   5.306   7.484   6.034
 2820TIP3   OH2 8402   6.541   1.907   6.601
 2820TIP3    H1 8403   6.617   1.898   6.543
 2820TIP3    H2 8404   6.467   1.918   6.541
 2821TIP3   OH2 8405   6.045   2.834   4.359
 2821TIP3    H1 8406   6.124   2.798   4.317
 2821TIP3    H2 8407   5.996   2.873   4.288
 2822TIP3   OH2 8408   2.084  -0.025   4.156
 2822TIP3    H1 8409   2.153   0.038   4.135
 2822TIP3    H2 8410   2.125  -0.090   4.212
 2823TIP3   OH2 8411   3.503   3.677   5.633
 2823TIP3    H1 8412   3.527   3.760   5.589
 2823TIP3    H2 8413   3.582   3.624   5.628
 2824TIP3   OH2 8414   6.295   4.793   1.976
 2824TIP3    H1 8415   6.363   4.838   1.925
 2824TIP3    H2 8416   6.333   4.707   1.994
 2825TIP3   OH2 8417   0.994   5.503   5.102
 2825TIP3    H1 8418   1.071   5.531   5.153
 2825TIP3    H2 8419   0.955   5.433   5.155
 2826TIP3   OH2 8420   4.884   1.770   2.157
 2826TIP3    H1 8421   4.840   1.837   2.210
 2826TIP3    H2 8422   4.958   1.816   2.118
 2827TIP3   OH2 8423   6.658   4.228   0.897
 2827TIP3    H1 8424   6.713   4.280   0.840
 2827TIP3    H2 8425   6.628   4.289   0.964
 2828TIP3   OH2 8426   5.689   6.567   0.336
 2828TIP3    H1 8427   5.759   6.631   0.348
 2828TIP3    H2 8428   5.663   6.578   0.244
 2829TIP3   OH2 8429   4.360   0.075   6.125
 2829TIP3    H1 8430   4.376   0.003   6.065
 2829TIP3    H2 8431   4.375   0.038   6.212
 2830TIP3   OH2 8432   1.461   6.296   2.983
 2830TIP3    H1 8433   1.538   6.247   2.956
 2830TIP3    H2 8434   1.487   6.388   2.975
 2831TIP3   OH2 8435   7.574   3.952   4.015
 2831TIP3    H1 8436   7.482   3.927   4.017
 2831TIP3    H2 8437   7.619   3.881   4.060
 2832TIP3   OH2 8438   4.134   2.961   0.397
 2832TIP3    H1 8439   4.157   2.991   0.485
 2832TIP3    H2 8440   4.090   2.877   0.411
 2833TIP3   OH2 8441   7.750   6.399   2.115
 2833TIP3    H1 8442   7.701   6.317   2.122
 2833TIP3    H2 8443   7.841   6.374   2.128
 2834TIP3   OH2 8444   0.962   4.500   0.851
 2834TIP3    H1 8445   0.909   4.427   0.881
 2834TIP3    H2 8446   1.038   4.459   0.809
 2835TIP3   OH2 8447   6.448   5.889   4.946
 2835TIP3    H1 8448   6.443   5.975   4.988
 2835TIP3    H2 8449   6.503   5.836   5.004
 2836TIP3   OH2 8450   0.048   7.134   2.126
 2836TIP3    H1 8451   0.080   7.224   2.120
 2836TIP3    H2 8452   0.112   7.090   2.182
 2837TIP3   OH2 8453   6.535   1.956   5.178
 2837TIP3    H1 8454   6.593   1.962   5.102
 2837TIP3    H2 8455   6.592   1.924   5.248
 2838TIP3   OH2 8456   1.493   0.144   3.908
 2838TIP3    H1 8457   1.449   0.073   3.862
 2838TIP3    H2 8458   1.532   0.197   3.839
 2839TIP3   OH2 8459   1.504   6.015   0.345
 2839TIP3    H1 8460   1.508   5.977   0.257
 2839TIP3    H2 8461   1.595   6.036   0.366
 2840TIP3   OH2 8462   0.308   6.128   2.750
 2840TIP3    H1 8463   0.330   6.040   2.720
 2840TIP3    H2 8464   0.378   6.151   2.810
 2841TIP3   OH2 8465   3.068   3.521   6.213
 2841TIP3    H1 8466   3.128   3.556   6.279
 2841TIP3    H2 8467   3.126   3.481   6.148
 2842TIP3   OH2 8468   0.758   6.344   6.387
 2842TIP3    H1 8469   0.838   6.331   6.336
 2842TIP3    H2 8470   0.784   6.323   6.477
 2843TIP3   OH2 8471   2.326   4.009   3.664
 2843TIP3    H1 8472   2.267   3.982   3.594
 2843TIP3    H2 8473   2.269   4.032   3.737
 2844TIP3   OH2 8474   5.938   1.809   3.324
 2844TIP3    H1 8475   5.845   1.801   3.348
 2844TIP3    H2 8476   5.965   1.892   3.363
 2845TIP3   OH2 8477   4.885   0.593   2.465
 2845TIP3    H1 8478   4.849   0.514   2.424
 2845TIP3    H2 8479   4.907   0.565   2.554
 2846TIP3   OH2 8480   7.254   0.988   2.296
 2846TIP3    H1 8481   7.323   0.924   2.282
 2846TIP3    H2 8482   7.267   1.053   2.227
 2847TIP3   OH2 8483   2.916   6.743   3.295
 2847TIP3    H1 8484   2.834   6.784   3.323
 2847TIP3    H2 8485   2.894   6.701   3.211
 2848TIP3   OH2 8486   2.818   7.311   6.461
 2848TIP3    H1 8487   2.761   7.235   6.449
 2848TIP3    H2 8488   2.821   7.353   6.375
 2849TIP3   OH2 8489   1.577   2.196   1.059
 2849TIP3    H1 8490   1.498   2.144   1.051
 2849TIP3    H2 8491   1.546   2.287   1.058
 2850TIP3   OH2 8492   0.158   6.472   0.108
 2850TIP3    H1 8493   0.075   6.513   0.087
 2850TIP3    H2 8494   0.134   6.384   0.139
 2851TIP3   OH2 8495   8.054   4.480   4.024
 2851TIP3    H1 8496   8.072   4.544   3.955
 2851TIP3    H2 8497   8.130   4.421   4.022
 2852TIP3   OH2 8498   0.740   0.428   2.366
 2852TIP3    H1 8499   0.664   0.380   2.399
 2852TIP3    H2 8500   0.814   0.369   2.379
 2853TIP3   OH2 8501   3.717   7.569   3.454
 2853TIP3    H1 8502   3.684   7.658   3.443
 2853TIP3    H2 8503   3.705   7.551   3.547
 2854TIP3   OH2 8504   2.813   3.653   3.634
 2854TIP3    H1 8505   2.846   3.601   3.707
 2854TIP3    H2 8506   2.828   3.743   3.660
 2855TIP3   OH2 8507   6.802   7.076   3.080
 2855TIP3    H1 8508   6.859   7.000   3.092
 2855TIP3    H2 8509   6.714   7.039   3.074
 2856TIP3   OH2 8510   1.006   6.832   3.772
 2856TIP3    H1 8511   0.954   6.908   3.744
 2856TIP3    H2 8512   1.072   6.821   3.704
 2857TIP3   OH2 8513   5.307   1.847   6.085
 2857TIP3    H1 8514   5.395   1.874   6.059
 2857TIP3    H2 8515   5.253   1.865   6.008
 2858TIP3   OH2 8516   3.087   1.233   0.522
 2858TIP3    H1 8517   2.994   1.258   0.525
 2858TIP3    H2 8518   3.088   1.146   0.482
 2859TIP3   OH2 8519   5.941   5.369   4.313
 2859TIP3    H1 8520   5.871   5.342   4.254
 2859TIP3    H2 8521   6.005   5.298   4.309
 2860TIP3   OH2 8522   4.996   0.823   0.661
 2860TIP3    H1 8523   4.909   0.788   0.647
 2860TIP3    H2 8524   5.006   0.827   0.756
 2861TIP3   OH2 8525   1.918   2.200   2.585
 2861TIP3    H1 8526   1.877   2.163   2.663
 2861TIP3    H2 8527   1.905   2.134   2.517
 2862TIP3   OH2 8528   4.045   5.450   4.271
 2862TIP3    H1 8529   3.980   5.464   4.339
 2862TIP3    H2 8530   4.044   5.531   4.220
 2863TIP3   OH2 8531   1.638   3.674   4.916
 2863TIP3    H1 8532   1.601   3.761   4.901
 2863TIP3    H2 8533   1.729   3.690   4.942
 2864TIP3   OH2 8534   0.025   0.172   5.013
 2864TIP3    H1 8535   0.024   0.243   5.077
 2864TIP3    H2 8536   0.062   0.211   4.934
 2865TIP3   OH2 8537   0.489   1.019   3.667
 2865TIP3    H1 8538   0.416   1.010   3.606
 2865TIP3    H2 8539   0.448   1.018   3.754
 2866TIP3   OH2 8540   5.081   6.282   6.707
 2866TIP3    H1 8541   4.991   6.271   6.674
 2866TIP3    H2 8542   5.076   6.255   6.798
 2867TIP3   OH2 8543   5.011   2.617   1.583
 2867TIP3    H1 8544   5.019   2.711   1.569
 2867TIP3    H2 8545   4.955   2.586   1.512
 2868TIP3   OH2 8546   0.584   5.783   1.756
 2868TIP3    H1 8547   0.607   5.690   1.766
 2868TIP3    H2 8548   0.504   5.794   1.807
 2869TIP3   OH2 8549   4.326   4.606   2.407
 2869TIP3    H1 8550   4.311   4.701   2.409
 2869TIP3    H2 8551   4.329   4.585   2.314
 2870TIP3   OH2 8552   2.713   1.067   3.393
 2870TIP3    H1 8553   2.707   1.079   3.487
 2870TIP3    H2 8554   2.650   0.997   3.373
 2871TIP3   OH2 8555   4.311   4.966   4.374
 2871TIP3    H1 8556   4.278   5.018   4.447
 2871TIP3    H2 8557   4.240   4.905   4.354
 2872TIP3   OH2 8558   2.982   2.375   1.564
 2872TIP3    H1 8559   2.906   2.430   1.545
 2872TIP3    H2 8560   2.996   2.324   1.484
 2873TIP3   OH2 8561   5.084   0.114   5.005
 2873TIP3    H1 8562   5.104   0.208   5.009
 2873TIP3    H2 8563   5.015   0.107   4.939
 2874TIP3   OH2 8564   3.211   6.837   2.596
 2874TIP3    H1 8565   3.210   6.891   2.517
 2874TIP3    H2 8566   3.152   6.882   2.656
 2875TIP3   OH2 8567   6.770   4.818   3.174
 2875TIP3    H1 8568   6.718   4.891   3.208
 2875TIP3    H2 8569   6.858   4.855   3.163
 2876TIP3   OH2 8570   1.227   6.728   6.063
 2876TIP3    H1 8571   1.274   6.798   6.017
 2876TIP3    H2 8572   1.296   6.678   6.107
 2877TIP3   OH2 8573   4.307   7.154   1.926
 2877TIP3    H1 8574   4.309   7.157   1.830
 2877TIP3    H2 8575   4.274   7.067   1.946
 2878TIP3   OH2 8576   5.709   3.865   5.320
 2878TIP3    H1 8577   5.652   3.860   5.396
 2878TIP3    H2 8578   5.736   3.774   5.304
 2879TIP3   OH2 8579   3.475   5.857   4.614
 2879TIP3    H1 8580   3.569   5.852   4.602
 2879TIP3    H2 8581   3.457   5.950   4.624
 2880TIP3   OH2 8582   0.740   1.811   0.428
 2880TIP3    H1 8583   0.753   1.831   0.521
 2880TIP3    H2 8584   0.716   1.896   0.389
 2881TIP3   OH2 8585   0.756   1.615   3.853
 2881TIP3    H1 8586   0.795   1.527   3.851
 2881TIP3    H2 8587   0.682   1.609   3.792
 2882TIP3   OH2 8588   5.168   0.830   4.314
 2882TIP3    H1 8589   5.165   0.765   4.244
 2882TIP3    H2 8590   5.126   0.907   4.276
 2883TIP3   OH2 8591   2.635   4.601   2.446
 2883TIP3    H1 8592   2.667   4.632   2.361
 2883TIP3    H2 8593   2.634   4.506   2.438
 2884TIP3   OH2 8594   0.186   0.931   5.244
 2884TIP3    H1 8595   0.182   0.971   5.157
 2884TIP3    H2 8596   0.153   0.999   5.303
 2885TIP3   OH2 8597   1.784   6.625   5.856
 2885TIP3    H1 8598   1.689   6.633   5.851
 2885TIP3    H2 8599   1.815   6.663   5.774
 2886TIP3   OH2 8600   7.110   1.159   0.273
 2886TIP3    H1 8601   7.070   1.080   0.238
 2886TIP3    H2 8602   7.043   1.196   0.330
 2887TIP3   OH2 8603   1.959   0.209   5.296
 2887TIP3    H1 8604   1.976   0.115   5.305
 2887TIP3    H2 8605   2.039   0.245   5.258
 2888TIP3   OH2 8606   7.416   5.220   6.093
 2888TIP3    H1 8607   7.424   5.189   6.003
 2888TIP3    H2 8608   7.505   5.247   6.117
 2889TIP3   OH2 8609   1.651   4.318   3.792
 2889TIP3    H1 8610   1.657   4.361   3.707
 2889TIP3    H2 8611   1.738   4.331   3.831
 2890TIP3   OH2 8612   2.251   0.772   2.585
 2890TIP3    H1 8613   2.311   0.785   2.658
 2890TIP3    H2 8614   2.173   0.732   2.625
 2891TIP3   OH2 8615   3.720   7.598   4.307
 2891TIP3    H1 8616   3.805   7.640   4.324
 2891TIP3    H2 8617   3.739   7.535   4.238
 2892TIP3   OH2 8618   4.590   2.469   4.432
 2892TIP3    H1 8619   4.500   2.479   4.464
 2892TIP3    H2 8620   4.595   2.529   4.358
 2893TIP3   OH2 8621   0.629   2.645   1.957
 2893TIP3    H1 8622   0.545   2.616   1.923
 2893TIP3    H2 8623   0.693   2.594   1.907
 2894TIP3   OH2 8624   0.548   0.213   2.772
 2894TIP3    H1 8625   0.515   0.137   2.724
 2894TIP3    H2 8626   0.612   0.177   2.833
 2895TIP3   OH2 8627   6.787   1.885   0.275
 2895TIP3    H1 8628   6.719   1.935   0.321
 2895TIP3    H2 8629   6.772   1.795   0.303
 2896TIP3   OH2 8630   6.671   7.387   0.433
 2896TIP3    H1 8631   6.682   7.481   0.446
 2896TIP3    H2 8632   6.722   7.367   0.355
 2897TIP3   OH2 8633   6.443   6.740   5.583
 2897TIP3    H1 8634   6.420   6.711   5.495
 2897TIP3    H2 8635   6.418   6.833   5.585
 2898TIP3   OH2 8636   0.064   1.325   4.152
 2898TIP3    H1 8637   0.049   1.292   4.240
 2898TIP3    H2 8638   0.122   1.400   4.164
 2899TIP3   OH2 8639   3.750   5.760   6.045
 2899TIP3    H1 8640   3.742   5.794   6.134
 2899TIP3    H2 8641   3.815   5.690   6.052
 2900TIP3   OH2 8642   4.641   6.616   4.430
 2900TIP3    H1 8643   4.726   6.577   4.408
 2900TIP3    H2 8644   4.660   6.708   4.447
 2901TIP3   OH2 8645   2.217   4.201   6.473
 2901TIP3    H1 8646   2.265   4.202   6.391
 2901TIP3    H2 8647   2.235   4.286   6.513
 2902TIP3   OH2 8648   4.627   3.796   1.199
 2902TIP3    H1 8649   4.651   3.704   1.201
 2902TIP3    H2 8650   4.533   3.797   1.184
 2903TIP3   OH2 8651   2.826   5.119   4.736
 2903TIP3    H1 8652   2.848   5.207   4.766
 2903TIP3    H2 8653   2.910   5.082   4.710
 2904TIP3   OH2 8654   7.827   5.384   3.418
 2904TIP3    H1 8655   7.863   5.472   3.423
 2904TIP3    H2 8656   7.897   5.328   3.453
 2905TIP3   OH2 8657   1.916   3.630   4.915
 2905TIP3    H1 8658   1.957   3.716   4.922
 2905TIP3    H2 8659   1.989   3.570   4.898
 2906TIP3   OH2 8660   4.332   7.803   6.285
 2906TIP3    H1 8661   4.398   7.798   6.354
 2906TIP3    H2 8662   4.353   7.731   6.226
 2907TIP3   OH2 8663   0.808   7.120   6.145
 2907TIP3    H1 8664   0.771   7.057   6.208
 2907TIP3    H2 8665   0.851   7.065   6.079
 2908TIP3   OH2 8666   4.185   7.461   3.868
 2908TIP3    H1 8667   4.130   7.480   3.792
 2908TIP3    H2 8668   4.203   7.546   3.907
 2909TIP3   OH2 8669   3.102   4.806   5.217
 2909TIP3    H1 8670   3.014   4.797   5.181
 2909TIP3    H2 8671   3.088   4.841   5.305
 2910TIP3   OH2 8672   3.632   7.012   5.352
 2910TIP3    H1 8673   3.545   6.973   5.356
 2910TIP3    H2 8674   3.617   7.106   5.358
 2911TIP3   OH2 8675   4.690   1.291   0.791
 2911TIP3    H1 8676   4.746   1.263   0.864
 2911TIP3    H2 8677   4.616   1.336   0.832
 2912TIP3   OH2 8678   1.991   5.094   3.859
 2912TIP3    H1 8679   1.921   5.081   3.795
 2912TIP3    H2 8680   1.948   5.082   3.944
 2913TIP3   OH2 8681   7.985   0.115   1.553
 2913TIP3    H1 8682   7.944   0.069   1.480
 2913TIP3    H2 8683   7.924   0.185   1.575
 2914TIP3   OH2 8684   0.243   3.925   4.648
 2914TIP3    H1 8685   0.163   3.875   4.633
 2914TIP3    H2 8686   0.313   3.859   4.647
 2915TIP3   OH2 8687   0.320   1.697   1.669
 2915TIP3    H1 8688   0.291   1.788   1.668
 2915TIP3    H2 8689   0.384   1.692   1.598
 2916TIP3   OH2 8690   1.873   2.812   3.694
 2916TIP3    H1 8691   1.850   2.905   3.702
 2916TIP3    H2 8692   1.926   2.807   3.615
 2917TIP3   OH2 8693   2.363   7.213   1.975
 2917TIP3    H1 8694   2.399   7.225   2.063
 2917TIP3    H2 8695   2.338   7.120   1.972
 2918TIP3   OH2 8696   7.828   7.796   5.376
 2918TIP3    H1 8697   7.872   7.715   5.353
 2918TIP3    H2 8698   7.900   7.857   5.396
 2919TIP3   OH2 8699   4.009   1.495   5.536
 2919TIP3    H1 8700   4.080   1.538   5.584
 2919TIP3    H2 8701   4.040   1.405   5.525
 2920TIP3   OH2 8702   5.649   2.576   2.292
 2920TIP3    H1 8703   5.611   2.631   2.360
 2920TIP3    H2 8704   5.742   2.571   2.314
 2921TIP3   OH2 8705   2.618   4.972   0.729
 2921TIP3    H1 8706   2.597   5.065   0.726
 2921TIP3    H2 8707   2.680   4.960   0.657
 2922TIP3   OH2 8708   1.157   4.354   3.142
 2922TIP3    H1 8709   1.222   4.423   3.143
 2922TIP3    H2 8710   1.078   4.394   3.178
 2923TIP3   OH2 8711   4.465   7.016   4.387
 2923TIP3    H1 8712   4.472   7.081   4.458
 2923TIP3    H2 8713   4.392   6.961   4.413
 2924TIP3   OH2 8714   3.300   4.569   5.250
 2924TIP3    H1 8715   3.384   4.603   5.281
 2924TIP3    H2 8716   3.238   4.640   5.265
 2925TIP3   OH2 8717   4.721   0.160   4.213
 2925TIP3    H1 8718   4.807   0.191   4.239
 2925TIP3    H2 8719   4.729   0.142   4.119
 2926TIP3   OH2 8720   2.928   1.891   2.470
 2926TIP3    H1 8721   2.889   1.921   2.388
 2926TIP3    H2 8722   2.918   1.965   2.530
 2927TIP3   OH2 8723   0.379   0.870   0.029
 2927TIP3    H1 8724   0.409   0.949  -0.016
 2927TIP3    H2 8725   0.429   0.868   0.110
 2928TIP3   OH2 8726   2.209   5.650   3.398
 2928TIP3    H1 8727   2.183   5.657   3.306
 2928TIP3    H2 8728   2.217   5.741   3.427
 2929TIP3   OH2 8729   3.978   6.068   4.320
 2929TIP3    H1 8730   4.021   6.041   4.402
 2929TIP3    H2 8731   3.943   5.987   4.284
 2930TIP3   OH2 8732   2.834   3.611   6.699
 2930TIP3    H1 8733   2.827   3.682   6.635
 2930TIP3    H2 8734   2.769   3.633   6.766
 2931TIP3   OH2 8735   6.555   3.661   3.009
 2931TIP3    H1 8736   6.599   3.733   2.965
 2931TIP3    H2 8737   6.611   3.641   3.084
 2932TIP3   OH2 8738   7.124   7.394   4.717
 2932TIP3    H1 8739   7.127   7.464   4.783
 2932TIP3    H2 8740   7.033   7.393   4.687
 2933TIP3   OH2 8741   3.417   6.003   5.728
 2933TIP3    H1 8742   3.326   5.978   5.741
 2933TIP3    H2 8743   3.458   5.992   5.814
 2934TIP3   OH2 8744   7.447   7.786   4.440
 2934TIP3    H1 8745   7.460   7.754   4.351
 2934TIP3    H2 8746   7.475   7.877   4.437
 2935TIP3   OH2 8747   3.385   2.238   3.858
 2935TIP3    H1 8748   3.375   2.333   3.865
 2935TIP3    H2 8749   3.451   2.226   3.790
 2936TIP3   OH2 8750   3.325   0.512   3.634
 2936TIP3    H1 8751   3.238   0.480   3.613
 2936TIP3    H2 8752   3.377   0.432   3.648
 2937TIP3   OH2 8753   2.563   0.531   2.514
 2937TIP3    H1 8754   2.630   0.593   2.541
 2937TIP3    H2 8755   2.516   0.510   2.594
 2938TIP3   OH2 8756   7.503   3.283   1.226
 2938TIP3    H1 8757   7.529   3.267   1.317
 2938TIP3    H2 8758   7.471   3.373   1.224
 2939TIP3   OH2 8759   1.455   5.100   0.473
 2939TIP3    H1 8760   1.394   5.062   0.537
 2939TIP3    H2 8761   1.459   5.193   0.496
 2940TIP3   OH2 8762   1.219   3.700   5.173
 2940TIP3    H1 8763   1.129   3.681   5.147
 2940TIP3    H2 8764   1.228   3.795   5.160
 2941TIP3   OH2 8765   7.586   5.343   3.914
 2941TIP3    H1 8766   7.597   5.275   3.980
 2941TIP3    H2 8767   7.608   5.424   3.960
 2942TIP3   OH2 8768   1.948   2.429   1.679
 2942TIP3    H1 8769   1.945   2.420   1.584
 2942TIP3    H2 8770   2.015   2.366   1.708
 2943TIP3   OH2 8771   4.835   4.034   0.039
 2943TIP3    H1 8772   4.773   3.966   0.013
 2943TIP3    H2 8773   4.807   4.060   0.127
 2944TIP3   OH2 8774   7.604   6.754   3.777
 2944TIP3    H1 8775   7.685   6.798   3.802
 2944TIP3    H2 8776   7.631   6.665   3.755
 2945TIP3   OH2 8777   4.795   6.933   4.068
 2945TIP3    H1 8778   4.765   6.937   4.159
 2945TIP3    H2 8779   4.833   6.846   4.059
 2946TIP3   OH2 8780   2.269   6.914   5.246
 2946TIP3    H1 8781   2.210   6.977   5.204
 2946TIP3    H2 8782   2.355   6.956   5.244
 2947TIP3   OH2 8783   6.471   6.737   3.997
 2947TIP3    H1 8784   6.396   6.728   4.056
 2947TIP3    H2 8785   6.434   6.776   3.917
 2948TIP3   OH2 8786   6.051   6.556   0.496
 2948TIP3    H1 8787   6.129   6.509   0.466
 2948TIP3    H2 8788   6.052   6.546   0.591
 2949TIP3   OH2 8789   4.776   4.485   2.577
 2949TIP3    H1 8790   4.814   4.551   2.519
 2949TIP3    H2 8791   4.799   4.514   2.665
 2950TIP3   OH2 8792   0.313   6.171   4.845
 2950TIP3    H1 8793   0.330   6.265   4.852
 2950TIP3    H2 8794   0.369   6.142   4.773
 2951TIP3   OH2 8795   6.714   1.567   2.088
 2951TIP3    H1 8796   6.768   1.604   2.157
 2951TIP3    H2 8797   6.631   1.547   2.131
 2952TIP3   OH2 8798   2.220   7.031   3.562
 2952TIP3    H1 8799   2.272   7.078   3.628
 2952TIP3    H2 8800   2.129   7.045   3.589
 2953TIP3   OH2 8801   1.834   5.454   2.635
 2953TIP3    H1 8802   1.747   5.419   2.615
 2953TIP3    H2 8803   1.894   5.382   2.615
 2954TIP3   OH2 8804   4.865   1.714   4.576
 2954TIP3    H1 8805   4.843   1.621   4.576
 2954TIP3    H2 8806   4.781   1.759   4.568
 2955TIP3   OH2 8807   1.813   4.897   4.637
 2955TIP3    H1 8808   1.840   4.909   4.728
 2955TIP3    H2 8809   1.892   4.867   4.592
 2956TIP3   OH2 8810   7.210   3.972   3.338
 2956TIP3    H1 8811   7.180   4.052   3.381
 2956TIP3    H2 8812   7.182   3.982   3.247
 2957TIP3   OH2 8813   0.537   4.377   2.384
 2957TIP3    H1 8814   0.591   4.334   2.317
 2957TIP3    H2 8815   0.532   4.468   2.355
 2958TIP3   OH2 8816   6.238   6.302   0.199
 2958TIP3    H1 8817   6.149   6.281   0.226
 2958TIP3    H2 8818   6.230   6.330   0.108
 2959TIP3   OH2 8819   7.675   7.004   5.283
 2959TIP3    H1 8820   7.623   7.012   5.363
 2959TIP3    H2 8821   7.704   6.913   5.282
 2960TIP3   OH2 8822   4.385   0.422   3.652
 2960TIP3    H1 8823   4.406   0.329   3.644
 2960TIP3    H2 8824   4.470   0.465   3.662
 2961TIP3   OH2 8825   4.852   0.110   0.524
 2961TIP3    H1 8826   4.811   0.119   0.438
 2961TIP3    H2 8827   4.888   0.197   0.542
 2962TIP3   OH2 8828   2.837   7.541   5.674
 2962TIP3    H1 8829   2.832   7.465   5.616
 2962TIP3    H2 8830   2.767   7.527   5.738
 2963TIP3   OH2 8831   6.303   3.910   4.403
 2963TIP3    H1 8832   6.346   3.857   4.470
 2963TIP3    H2 8833   6.374   3.937   4.344
 2964TIP3   OH2 8834   8.258   6.935   3.070
 2964TIP3    H1 8835   8.336   6.967   3.117
 2964TIP3    H2 8836   8.186   6.949   3.132
 2965TIP3   OH2 8837   5.744   5.984   6.410
 2965TIP3    H1 8838   5.702   6.010   6.492
 2965TIP3    H2 8839   5.750   6.066   6.360
 2966TIP3   OH2 8840   3.923   5.551   6.498
 2966TIP3    H1 8841   3.959   5.496   6.429
 2966TIP3    H2 8842   3.962   5.517   6.579
 2967TIP3   OH2 8843   0.496   1.451   5.805
 2967TIP3    H1 8844   0.483   1.536   5.763
 2967TIP3    H2 8845   0.562   1.408   5.750
 2968TIP3   OH2 8846   2.245   0.334   0.988
 2968TIP3    H1 8847   2.244   0.406   1.051
 2968TIP3    H2 8848   2.322   0.282   1.012
 2969TIP3   OH2 8849   2.503   3.926   3.280
 2969TIP3    H1 8850   2.548   3.993   3.331
 2969TIP3    H2 8851   2.557   3.848   3.290
 2970TIP3   OH2 8852   6.082   0.083   3.398
 2970TIP3    H1 8853   6.004   0.057   3.446
 2970TIP3    H2 8854   6.149   0.095   3.465
 2971TIP3   OH2 8855   5.369   1.904   5.742
 2971TIP3    H1 8856   5.318   1.832   5.778
 2971TIP3    H2 8857   5.456   1.893   5.782
 2972TIP3   OH2 8858   6.950   1.934   2.680
 2972TIP3    H1 8859   6.977   1.930   2.772
 2972TIP3    H2 8860   6.919   2.024   2.668
 2973TIP3   OH2 8861   1.584   3.336   1.143
 2973TIP3    H1 8862   1.669   3.308   1.176
 2973TIP3    H2 8863   1.521   3.303   1.207
 2974TIP3   OH2 8864   5.955   6.267   3.168
 2974TIP3    H1 8865   5.990   6.308   3.090
 2974TIP3    H2 8866   5.885   6.210   3.137
 2975TIP3   OH2 8867   2.621   6.178   2.980
 2975TIP3    H1 8868   2.671   6.168   2.898
 2975TIP3    H2 8869   2.625   6.092   3.021
 2976TIP3   OH2 8870   1.300   0.370   1.563
 2976TIP3    H1 8871   1.316   0.277   1.579
 2976TIP3    H2 8872   1.278   0.376   1.470
 2977TIP3   OH2 8873   0.450   5.368   6.178
 2977TIP3    H1 8874   0.401   5.381   6.259
 2977TIP3    H2 8875   0.540   5.354   6.206
 2978TIP3   OH2 8876   5.209   6.780   2.152
 2978TIP3    H1 8877   5.183   6.870   2.173
 2978TIP3    H2 8878   5.237   6.785   2.060
 2979TIP3   OH2 8879   4.591   7.251   1.947
 2979TIP3    H1 8880   4.596   7.175   2.005
 2979TIP3    H2 8881   4.540   7.220   1.872
 2980TIP3   OH2 8882   7.844   0.605   0.773
 2980TIP3    H1 8883   7.796   0.685   0.794
 2980TIP3    H2 8884   7.885   0.623   0.689
 2981TIP3   OH2 8885   2.772   5.638   5.844
 2981TIP3    H1 8886   2.788   5.654   5.751
 2981TIP3    H2 8887   2.829   5.700   5.890
 2982TIP3   OH2 8888   5.740   4.088   1.061
 2982TIP3    H1 8889   5.826   4.127   1.043
 2982TIP3    H2 8890   5.715   4.125   1.146
 2983TIP3   OH2 8891   3.187   3.143   5.821
 2983TIP3    H1 8892   3.116   3.184   5.770
 2983TIP3    H2 8893   3.142   3.087   5.884
 2984TIP3   OH2 8894   3.889   5.958   3.082
 2984TIP3    H1 8895   3.914   6.051   3.074
 2984TIP3    H2 8896   3.882   5.928   2.991
 2985TIP3   OH2 8897   5.335   5.698   6.729
 2985TIP3    H1 8898   5.338   5.763   6.799
 2985TIP3    H2 8899   5.377   5.741   6.654
 2986TIP3   OH2 8900   1.263   6.286   4.001
 2986TIP3    H1 8901   1.347   6.329   4.016
 2986TIP3    H2 8902   1.221   6.339   3.933
 2987TIP3   OH2 8903   7.206   4.188   4.087
 2987TIP3    H1 8904   7.277   4.147   4.137
 2987TIP3    H2 8905   7.128   4.138   4.110
 2988TIP3   OH2 8906   4.410   4.959   0.251
 2988TIP3    H1 8907   4.410   4.945   0.346
 2988TIP3    H2 8908   4.500   4.943   0.224
 2989TIP3   OH2 8909   5.490   3.942   1.729
 2989TIP3    H1 8910   5.552   3.883   1.772
 2989TIP3    H2 8911   5.463   3.896   1.650
 2990TIP3   OH2 8912   2.248   4.441   0.923
 2990TIP3    H1 8913   2.294   4.438   0.839
 2990TIP3    H2 8914   2.285   4.518   0.967
 2991TIP3   OH2 8915   3.531   7.386   0.548
 2991TIP3    H1 8916   3.587   7.310   0.532
 2991TIP3    H2 8917   3.521   7.388   0.643
 2992TIP3   OH2 8918   5.904   5.307   4.595
 2992TIP3    H1 8919   5.913   5.342   4.506
 2992TIP3    H2 8920   5.993   5.305   4.629
 2993TIP3   OH2 8921   6.700   3.357   2.264
 2993TIP3    H1 8922   6.708   3.431   2.203
 2993TIP3    H2 8923   6.621   3.311   2.235
 2994TIP3   OH2 8924   7.394   0.654   5.321
 2994TIP3    H1 8925   7.321   0.700   5.278
 2994TIP3    H2 8926   7.468   0.715   5.313
 2995TIP3   OH2 8927   0.181   3.681   3.144
 2995TIP3    H1 8928   0.237   3.611   3.112
 2995TIP3    H2 8929   0.178   3.669   3.239
 2996TIP3   OH2 8930   1.691   7.679   4.879
 2996TIP3    H1 8931   1.629   7.738   4.836
 2996TIP3    H2 8932   1.640   7.636   4.948
 2997TIP3   OH2 8933   5.525   1.370   2.378
 2997TIP3    H1 8934   5.589   1.441   2.377
 2997TIP3    H2 8935   5.559   1.309   2.444
 2998TIP3   OH2 8936   4.118   3.776   4.668
 2998TIP3    H1 8937   4.188   3.835   4.696
 2998TIP3    H2 8938   4.042   3.834   4.659
 2999TIP3   OH2 8939   5.433   4.050   3.173
 2999TIP3    H1 8940   5.516   4.096   3.184
 2999TIP3    H2 8941   5.376   4.114   3.131
 3000TIP3   OH2 8942   3.312   0.091   6.606
 3000TIP3    H1 8943   3.239   0.110   6.548
 3000TIP3    H2 8944   3.317  -0.004   6.610
 3001TIP3   OH2 8945   6.789   7.379   3.097
 3001TIP3    H1 8946   6.702   7.398   3.132
 3001TIP3    H2 8947   6.783   7.289   3.064
 3002TIP3   OH2 8948   0.503   2.808   3.948
 3002TIP3    H1 8949   0.593   2.782   3.927
 3002TIP3    H2 8950   0.454   2.726   3.949
 3003TIP3   OH2 8951   1.216   5.761   2.949
 3003TIP3    H1 8952   1.210   5.855   2.934
 3003TIP3    H2 8953   1.309   5.741   2.937
 3004TIP3   OH2 8954   1.053   0.472   6.582
 3004TIP3    H1 8955   1.051   0.531   6.657
 3004TIP3    H2 8956   0.962   0.468   6.551
 3005TIP3   OH2 8957   2.553   2.310   4.751
 3005TIP3    H1 8958   2.492   2.378   4.723
 3005TIP3    H2 8959   2.609   2.353   4.815
 3006TIP3   OH2 8960   6.966   5.192   2.780
 3006TIP3    H1 8961   6.947   5.282   2.808
 3006TIP3    H2 8962   7.019   5.203   2.701
 3007TIP3   OH2 8963   1.054   0.647   2.981
 3007TIP3    H1 8964   1.083   0.737   2.965
 3007TIP3    H2 8965   1.000   0.625   2.904
 3008TIP3   OH2 8966   3.473   1.259   3.618
 3008TIP3    H1 8967   3.458   1.327   3.683
 3008TIP3    H2 8968   3.392   1.209   3.616
 3009TIP3   OH2 8969   7.629   2.892   1.248
 3009TIP3    H1 8970   7.674   2.918   1.168
 3009TIP3    H2 8971   7.552   2.844   1.217
 3010TIP3   OH2 8972   0.992   0.432   5.387
 3010TIP3    H1 8973   1.008   0.338   5.376
 3010TIP3    H2 8974   1.018   0.451   5.477
 3011TIP3   OH2 8975   5.368   1.095   0.421
 3011TIP3    H1 8976   5.339   1.117   0.332
 3011TIP3    H2 8977   5.331   1.164   0.476
 3012TIP3   OH2 8978   7.375   1.889   6.589
 3012TIP3    H1 8979   7.345   1.804   6.555
 3012TIP3    H2 8980   7.308   1.951   6.561
 3013TIP3   OH2 8981   7.410   0.620   3.395
 3013TIP3    H1 8982   7.476   0.614   3.464
 3013TIP3    H2 8983   7.352   0.691   3.423
 3014TIP3   OH2 8984   6.031   2.553   1.278
 3014TIP3    H1 8985   6.087   2.498   1.333
 3014TIP3    H2 8986   6.052   2.525   1.188
 3015TIP3   OH2 8987   6.396   3.455   5.959
 3015TIP3    H1 8988   6.470   3.413   5.915
 3015TIP3    H2 8989   6.408   3.433   6.052
 3016TIP3   OH2 8990   2.104   1.974   3.797
 3016TIP3    H1 8991   2.196   1.979   3.823
 3016TIP3    H2 8992   2.085   2.060   3.760
 3017TIP3   OH2 8993   7.033   3.441   6.414
 3017TIP3    H1 8994   7.108   3.384   6.398
 3017TIP3    H2 8995   7.064   3.529   6.394
 3018TIP3   OH2 8996   1.361   5.443   3.159
 3018TIP3    H1 8997   1.283   5.388   3.157
 3018TIP3    H2 8998   1.374   5.463   3.252
 3019TIP3   OH2 8999   7.408   4.472   2.187
 3019TIP3    H1 9000   7.415   4.536   2.116
 3019TIP3    H2 9001   7.414   4.387   2.144
 3020TIP3   OH2 9002   1.659   5.130   1.112
 3020TIP3    H1 9003   1.594   5.196   1.091
 3020TIP3    H2 9004   1.630   5.093   1.196
 3021TIP3   OH2 9005   2.256   1.935   0.654
 3021TIP3    H1 9006   2.213   1.965   0.734
 3021TIP3    H2 9007   2.199   1.866   0.621
 3022TIP3   OH2 9008   4.475   5.340   5.752
 3022TIP3    H1 9009   4.496   5.257   5.795
 3022TIP3    H2 9010   4.545   5.399   5.777
 3023TIP3   OH2 9011   5.720   7.064   0.071
 3023TIP3    H1 9012   5.760   7.109   0.146
 3023TIP3    H2 9013   5.633   7.104   0.064
 3024TIP3   OH2 9014   2.366   3.322   5.985
 3024TIP3    H1 9015   2.409   3.402   6.017
 3024TIP3    H2 9016   2.365   3.333   5.890
 3025TIP3   OH2 9017   4.003   6.733   4.951
 3025TIP3    H1 9018   4.030   6.741   5.042
 3025TIP3    H2 9019   4.083   6.713   4.903
 3026TIP3   OH2 9020   2.506   3.010   2.554
 3026TIP3    H1 9021   2.539   2.958   2.482
 3026TIP3    H2 9022   2.503   3.100   2.520
 3027TIP3   OH2 9023   7.496   4.390   4.917
 3027TIP3    H1 9024   7.524   4.455   4.981
 3027TIP3    H2 9025   7.430   4.338   4.963
 3028TIP3   OH2 9026   3.200   1.068   0.693
 3028TIP3    H1 9027   3.167   1.144   0.646
 3028TIP3    H2 9028   3.150   1.067   0.775
 3029TIP3   OH2 9029   4.374   2.289   5.890
 3029TIP3    H1 9030   4.295   2.341   5.901
 3029TIP3    H2 9031   4.347   2.214   5.837
 3030TIP3   OH2 9032   8.092   1.046   0.183
 3030TIP3    H1 9033   8.060   1.087   0.263
 3030TIP3    H2 9034   8.068   0.954   0.192
 3031TIP3   OH2 9035   2.233   0.046   0.163
 3031TIP3    H1 9036   2.194   0.015   0.245
 3031TIP3    H2 9037   2.327   0.038   0.177
 3032TIP3   OH2 9038   0.553   4.345   6.702
 3032TIP3    H1 9039   0.513   4.258   6.710
 3032TIP3    H2 9040   0.626   4.334   6.642
 3033TIP3   OH2 9041   6.995   3.216   4.240
 3033TIP3    H1 9042   7.068   3.194   4.181
 3033TIP3    H2 9043   6.947   3.284   4.193
 3034TIP3   OH2 9044   7.120   0.823   5.949
 3034TIP3    H1 9045   7.159   0.910   5.939
 3034TIP3    H2 9046   7.026   0.841   5.955
 3035TIP3   OH2 9047   8.151   4.744   2.235
 3035TIP3    H1 9048   8.218   4.778   2.176
 3035TIP3    H2 9049   8.068   4.762   2.191
 3036TIP3   OH2 9050   0.894   2.726   1.372
 3036TIP3    H1 9051   0.908   2.689   1.459
 3036TIP3    H2 9052   0.801   2.750   1.371
 3037TIP3   OH2 9053   1.989   4.658   2.196
 3037TIP3    H1 9054   1.923   4.612   2.248
 3037TIP3    H2 9055   1.941   4.731   2.156
 3038TIP3   OH2 9056   2.145   3.485   4.846
 3038TIP3    H1 9057   2.208   3.499   4.774
 3038TIP3    H2 9058   2.199   3.477   4.924
 3039TIP3   OH2 9059   1.357   1.160   6.608
 3039TIP3    H1 9060   1.266   1.185   6.626
 3039TIP3    H2 9061   1.352   1.068   6.582
 3040TIP3   OH2 9062   1.238   5.440   3.410
 3040TIP3    H1 9063   1.152   5.402   3.392
 3040TIP3    H2 9064   1.245   5.440   3.505
 3041TIP3   OH2 9065   1.277   0.899   3.559
 3041TIP3    H1 9066   1.269   0.904   3.654
 3041TIP3    H2 9067   1.191   0.927   3.527
 3042TIP3   OH2 9068   4.564   3.353   5.369
 3042TIP3    H1 9069   4.526   3.410   5.436
 3042TIP3    H2 9070   4.493   3.293   5.346
 3043TIP3   OH2 9071   3.756   4.232   5.141
 3043TIP3    H1 9072   3.788   4.305   5.088
 3043TIP3    H2 9073   3.674   4.207   5.099
 3044TIP3   OH2 9074   4.647   1.353   0.315
 3044TIP3    H1 9075   4.640   1.258   0.317
 3044TIP3    H2 9076   4.704   1.375   0.389
 3045TIP3   OH2 9077   7.382   5.749   1.914
 3045TIP3    H1 9078   7.419   5.826   1.870
 3045TIP3    H2 9079   7.447   5.680   1.900
 3046TIP3   OH2 9080   4.711   1.124   6.406
 3046TIP3    H1 9081   4.649   1.101   6.337
 3046TIP3    H2 9082   4.689   1.215   6.429
 3047TIP3   OH2 9083   4.872   4.578   6.347
 3047TIP3    H1 9084   4.823   4.614   6.274
 3047TIP3    H2 9085   4.855   4.639   6.419
 3048TIP3   OH2 9086   5.754   5.298   1.660
 3048TIP3    H1 9087   5.711   5.220   1.624
 3048TIP3    H2 9088   5.766   5.278   1.752
 3049TIP3   OH2 9089   6.864   1.362   0.525
 3049TIP3    H1 9090   6.817   1.415   0.460
 3049TIP3    H2 9091   6.943   1.413   0.544
 3050TIP3   OH2 9092   1.140   0.206   1.322
 3050TIP3    H1 9093   1.195   0.192   1.245
 3050TIP3    H2 9094   1.105   0.119   1.342
 3051TIP3   OH2 9095   7.817   3.375   0.106
 3051TIP3    H1 9096   7.806   3.300   0.164
 3051TIP3    H2 9097   7.871   3.437   0.156
 3052TIP3   OH2 9098   7.050   1.380   3.411
 3052TIP3    H1 9099   7.005   1.464   3.419
 3052TIP3    H2 9100   6.979   1.316   3.406
 3053TIP3   OH2 9101   5.051   6.750   3.884
 3053TIP3    H1 9102   5.100   6.673   3.911
 3053TIP3    H2 9103   5.118   6.809   3.848
 3054TIP3   OH2 9104   2.795   4.390   1.592
 3054TIP3    H1 9105   2.833   4.414   1.676
 3054TIP3    H2 9106   2.793   4.472   1.542
 3055TIP3   OH2 9107   2.325   1.082   6.616
 3055TIP3    H1 9108   2.332   0.988   6.598
 3055TIP3    H2 9109   2.366   1.124   6.540
 3056TIP3   OH2 9110   6.501   0.948   5.245
 3056TIP3    H1 9111   6.576   0.937   5.303
 3056TIP3    H2 9112   6.424   0.941   5.303
 3057TIP3   OH2 9113   2.345   5.530   2.255
 3057TIP3    H1 9114   2.372   5.563   2.340
 3057TIP3    H2 9115   2.367   5.437   2.256
 3058TIP3   OH2 9116   2.190   2.064   6.459
 3058TIP3    H1 9117   2.193   2.034   6.368
 3058TIP3    H2 9118   2.173   2.158   6.453
 3059TIP3   OH2 9119   0.920   7.043   0.033
 3059TIP3    H1 9120   0.972   7.043   0.113
 3059TIP3    H2 9121   0.838   6.999   0.057
 3060TIP3   OH2 9122   5.265   4.041   0.438
 3060TIP3    H1 9123   5.304   3.958   0.467
 3060TIP3    H2 9124   5.273   4.039   0.343
 3061TIP3   OH2 9125   5.748   6.409   6.058
 3061TIP3    H1 9126   5.781   6.332   6.104
 3061TIP3    H2 9127   5.798   6.412   5.976
 3062TIP3   OH2 9128   3.588   1.710   0.409
 3062TIP3    H1 9129   3.676   1.745   0.412
 3062TIP3    H2 9130   3.577   1.680   0.319
 3063TIP3   OH2 9131   7.174   6.894   1.653
 3063TIP3    H1 9132   7.219   6.939   1.725
 3063TIP3    H2 9133   7.143   6.812   1.693
 3064TIP3   OH2 9134   7.221   7.830   5.361
 3064TIP3    H1 9135   7.165   7.792   5.428
 3064TIP3    H2 9136   7.266   7.756   5.322
 3065TIP3   OH2 9137   5.302   6.489   1.695
 3065TIP3    H1 9138   5.317   6.397   1.719
 3065TIP3    H2 9139   5.222   6.486   1.641
 3066TIP3   OH2 9140   7.071   3.708   4.560
 3066TIP3    H1 9141   7.103   3.642   4.622
 3066TIP3    H2 9142   6.977   3.693   4.556
 3067TIP3   OH2 9143   2.599   2.375   2.171
 3067TIP3    H1 9144   2.651   2.414   2.242
 3067TIP3    H2 9145   2.621   2.282   2.174
 3068TIP3   OH2 9146   1.750   0.990   1.195
 3068TIP3    H1 9147   1.729   0.961   1.106
 3068TIP3    H2 9148   1.792   0.914   1.236
 3069TIP3   OH2 9149   7.535   5.335   1.542
 3069TIP3    H1 9150   7.611   5.376   1.500
 3069TIP3    H2 9151   7.469   5.405   1.544
 3070TIP3   OH2 9152   7.120   6.121   4.080
 3070TIP3    H1 9153   7.191   6.146   4.139
 3070TIP3    H2 9154   7.059   6.195   4.083
 3071TIP3   OH2 9155   3.997   1.009   3.081
 3071TIP3    H1 9156   3.967   1.037   2.994
 3071TIP3    H2 9157   3.931   0.946   3.110
 3072TIP3   OH2 9158   0.264   4.874   3.597
 3072TIP3    H1 9159   0.320   4.922   3.536
 3072TIP3    H2 9160   0.178   4.874   3.555
 3073TIP3   OH2 9161   7.416   1.663   1.643
 3073TIP3    H1 9162   7.471   1.585   1.650
 3073TIP3    H2 9163   7.327   1.632   1.656
 3074TIP3   OH2 9164   3.551   6.951   3.562
 3074TIP3    H1 9165   3.594   6.896   3.497
 3074TIP3    H2 9166   3.506   6.890   3.620
 3075TIP3   OH2 9167   4.667   5.460   0.740
 3075TIP3    H1 9168   4.739   5.439   0.680
 3075TIP3    H2 9169   4.600   5.394   0.721
 3076TIP3   OH2 9170   0.755   1.752   4.986
 3076TIP3    H1 9171   0.718   1.703   4.913
 3076TIP3    H2 9172   0.762   1.841   4.953
 3077TIP3   OH2 9173   2.862   7.431   4.627
 3077TIP3    H1 9174   2.818   7.514   4.610
 3077TIP3    H2 9175   2.816   7.394   4.702
 3078TIP3   OH2 9176   7.807   3.310   5.475
 3078TIP3    H1 9177   7.743   3.363   5.521
 3078TIP3    H2 9178   7.754   3.243   5.430
 3079TIP3   OH2 9179   3.473   3.753   1.614
 3079TIP3    H1 9180   3.489   3.659   1.625
 3079TIP3    H2 9181   3.528   3.777   1.539
 3080TIP3   OH2 9182   5.870   6.608   5.017
 3080TIP3    H1 9183   5.784   6.566   5.011
 3080TIP3    H2 9184   5.897   6.622   4.926
 3081TIP3   OH2 9185   0.602   0.496   4.464
 3081TIP3    H1 9186   0.645   0.518   4.547
 3081TIP3    H2 9187   0.665   0.522   4.397
 3082TIP3   OH2 9188   5.642   0.125   3.836
 3082TIP3    H1 9189   5.704   0.189   3.870
 3082TIP3    H2 9190   5.665   0.115   3.744
 3083TIP3   OH2 9191   6.293   5.948   2.363
 3083TIP3    H1 9192   6.364   5.967   2.424
 3083TIP3    H2 9193   6.292   6.023   2.303
 3084TIP3   OH2 9194   3.828   6.006   1.834
 3084TIP3    H1 9195   3.900   6.070   1.829
 3084TIP3    H2 9196   3.845   5.946   1.762
 3085TIP3   OH2 9197   0.431   4.770   0.580
 3085TIP3    H1 9198   0.451   4.763   0.486
 3085TIP3    H2 9199   0.341   4.741   0.587
 3086TIP3   OH2 9200   6.239   1.477   2.997
 3086TIP3    H1 9201   6.320   1.481   2.947
 3086TIP3    H2 9202   6.177   1.434   2.938
 3087TIP3   OH2 9203   1.821   7.731   3.800
 3087TIP3    H1 9204   1.742   7.764   3.755
 3087TIP3    H2 9205   1.874   7.693   3.730
 3088TIP3   OH2 9206   4.324   4.546   0.494
 3088TIP3    H1 9207   4.386   4.487   0.538
 3088TIP3    H2 9208   4.343   4.632   0.531
 3089TIP3   OH2 9209   5.533   3.849   5.918
 3089TIP3    H1 9210   5.458   3.838   5.976
 3089TIP3    H2 9211   5.495   3.849   5.830
 3090TIP3   OH2 9212   3.042   5.802   6.730
 3090TIP3    H1 9213   2.947   5.807   6.744
 3090TIP3    H2 9214   3.076   5.884   6.763
 3091TIP3   OH2 9215   1.183   4.786   2.872
 3091TIP3    H1 9216   1.131   4.738   2.936
 3091TIP3    H2 9217   1.159   4.748   2.788
 3092TIP3   OH2 9218   1.075   6.396   5.710
 3092TIP3    H1 9219   1.061   6.418   5.803
 3092TIP3    H2 9220   1.114   6.475   5.672
 3093TIP3   OH2 9221   1.784   2.724   2.432
 3093TIP3    H1 9222   1.866   2.715   2.481
 3093TIP3    H2 9223   1.799   2.675   2.352
 3094TIP3   OH2 9224   0.275   2.855   4.409
 3094TIP3    H1 9225   0.240   2.900   4.333
 3094TIP3    H2 9226   0.346   2.800   4.375
 3095TIP3   OH2 9227   0.635   6.405   3.897
 3095TIP3    H1 9228   0.711   6.356   3.930
 3095TIP3    H2 9229   0.566   6.339   3.891
 3096TIP3   OH2 9230   6.742   7.333   6.073
 3096TIP3    H1 9231   6.765   7.240   6.071
 3096TIP3    H2 9232   6.825   7.378   6.089
 3097TIP3   OH2 9233   3.804   0.317   0.977
 3097TIP3    H1 9234   3.726   0.337   0.926
 3097TIP3    H2 9235   3.839   0.403   1.002
 3098TIP3   OH2 9236   4.917   5.016   0.766
 3098TIP3    H1 9237   5.004   5.045   0.794
 3098TIP3    H2 9238   4.856   5.070   0.817
 3099TIP3   OH2 9239   7.668   3.752   2.126
 3099TIP3    H1 9240   7.621   3.695   2.187
 3099TIP3    H2 9241   7.626   3.736   2.041
 3100TIP3   OH2 9242   6.405   6.275   4.543
 3100TIP3    H1 9243   6.465   6.208   4.575
 3100TIP3    H2 9244   6.333   6.226   4.503
 3101TIP3   OH2 9245   3.497   1.940   6.071
 3101TIP3    H1 9246   3.512   2.023   6.115
 3101TIP3    H2 9247   3.486   1.877   6.142
 3102TIP3   OH2 9248   3.750   0.801   0.290
 3102TIP3    H1 9249   3.725   0.865   0.357
 3102TIP3    H2 9250   3.845   0.793   0.298
 3103TIP3   OH2 9251   1.625   5.516   1.920
 3103TIP3    H1 9252   1.683   5.541   1.847
 3103TIP3    H2 9253   1.678   5.533   1.998
 3104TIP3   OH2 9254   5.119   4.035   4.738
 3104TIP3    H1 9255   5.074   4.097   4.680
 3104TIP3    H2 9256   5.194   4.084   4.773
 3105TIP3   OH2 9257   0.581   2.561   0.968
 3105TIP3    H1 9258   0.605   2.514   0.888
 3105TIP3    H2 9259   0.521   2.502   1.013
 3106TIP3   OH2 9260  -0.004   1.308   5.823
 3106TIP3    H1 9261   0.085   1.336   5.803
 3106TIP3    H2 9262  -0.042   1.382   5.872
 3107TIP3   OH2 9263   1.892   2.497   0.146
 3107TIP3    H1 9264   1.819   2.547   0.181
 3107TIP3    H2 9265   1.882   2.505   0.051
 3108TIP3   OH2 9266   2.803   6.866   5.129
 3108TIP3    H1 9267   2.854   6.867   5.211
 3108TIP3    H2 9268   2.749   6.787   5.136
 3109TIP3   OH2 9269   2.316   2.483   3.737
 3109TIP3    H1 9270   2.311   2.433   3.819
 3109TIP3    H2 9271   2.302   2.418   3.668
 3110TIP3   OH2 9272   1.905   2.828   0.320
 3110TIP3    H1 9273   1.965   2.884   0.369
 3110TIP3    H2 9274   1.885   2.756   0.380
 3111TIP3   OH2 9275   7.614   1.983   3.426
 3111TIP3    H1 9276   7.699   2.023   3.404
 3111TIP3    H2 9277   7.556   2.058   3.442
 3112TIP3   OH2 9278   5.187   5.429   4.774
 3112TIP3    H1 9279   5.265   5.385   4.741
 3112TIP3    H2 9280   5.137   5.360   4.817
 3113TIP3   OH2 9281   6.693   2.908   3.978
 3113TIP3    H1 9282   6.647   2.826   3.996
 3113TIP3    H2 9283   6.662   2.969   4.045
 3114TIP3   OH2 9284   1.156   5.153   5.257
 3114TIP3    H1 9285   1.086   5.130   5.196
 3114TIP3    H2 9286   1.149   5.087   5.326
 3115TIP3   OH2 9287   2.831   6.238   3.880
 3115TIP3    H1 9288   2.822   6.156   3.928
 3115TIP3    H2 9289   2.823   6.212   3.788
 3116TIP3   OH2 9290   5.122   0.680   2.010
 3116TIP3    H1 9291   5.053   0.639   2.062
 3116TIP3    H2 9292   5.164   0.741   2.071
 3117TIP3   OH2 9293   6.503   3.982   1.083
 3117TIP3    H1 9294   6.427   4.038   1.070
 3117TIP3    H2 9295   6.578   4.039   1.067
 3118TIP3   OH2 9296   2.041   1.134   3.841
 3118TIP3    H1 9297   2.063   1.106   3.752
 3118TIP3    H2 9298   2.087   1.216   3.853
 3119TIP3   OH2 9299   6.102   1.096   4.571
 3119TIP3    H1 9300   6.025   1.060   4.528
 3119TIP3    H2 9301   6.114   1.182   4.532
 3120TIP3   OH2 9302  -0.050   5.174   2.598
 3120TIP3    H1 9303  -0.011   5.090   2.573
 3120TIP3    H2 9304   0.024   5.228   2.625
 3121TIP3   OH2 9305   0.280   1.425   3.216
 3121TIP3    H1 9306   0.365   1.432   3.173
 3121TIP3    H2 9307   0.226   1.491   3.172
 3122TIP3   OH2 9308   7.169   6.685   6.086
 3122TIP3    H1 9309   7.233   6.752   6.062
 3122TIP3    H2 9310   7.213   6.631   6.151
 3123TIP3   OH2 9311   0.380   5.782   1.969
 3123TIP3    H1 9312   0.343   5.694   1.975
 3123TIP3    H2 9313   0.393   5.808   2.060
 3124TIP3   OH2 9314   3.877   1.379   1.962
 3124TIP3    H1 9315   3.866   1.359   2.055
 3124TIP3    H2 9316   3.942   1.315   1.932
 3125TIP3   OH2 9317   4.149   2.634   0.910
 3125TIP3    H1 9318   4.201   2.554   0.907
 3125TIP3    H2 9319   4.108   2.633   0.997
 3126TIP3   OH2 9320   3.814   1.480   3.326
 3126TIP3    H1 9321   3.728   1.508   3.358
 3126TIP3    H2 9322   3.808   1.385   3.320
 3127TIP3   OH2 9323   5.005   2.937   0.996
 3127TIP3    H1 9324   4.957   3.017   0.972
 3127TIP3    H2 9325   5.019   2.946   1.091
 3128TIP3   OH2 9326   2.264   2.331   3.934
 3128TIP3    H1 9327   2.169   2.335   3.928
 3128TIP3    H2 9328   2.283   2.332   4.028
 3129TIP3   OH2 9329   8.284   5.571   0.695
 3129TIP3    H1 9330   8.277   5.538   0.785
 3129TIP3    H2 9331   8.195   5.597   0.672
 3130TIP3   OH2 9332   7.126   0.721   5.564
 3130TIP3    H1 9333   7.172   0.799   5.593
 3130TIP3    H2 9334   7.167   0.650   5.613
 3131TIP3   OH2 9335   6.901   1.429   2.515
 3131TIP3    H1 9336   6.881   1.339   2.542
 3131TIP3    H2 9337   6.996   1.436   2.522
 3132TIP3   OH2 9338   1.528   0.752   3.764
 3132TIP3    H1 9339   1.545   0.844   3.786
 3132TIP3    H2 9340   1.544   0.747   3.670
 3133TIP3   OH2 9341   7.489   1.457   5.102
 3133TIP3    H1 9342   7.463   1.548   5.090
 3133TIP3    H2 9343   7.585   1.460   5.105
 3134TIP3   OH2 9344   1.508   5.399   3.539
 3134TIP3    H1 9345   1.507   5.308   3.508
 3134TIP3    H2 9346   1.445   5.400   3.611
 3135TIP3   OH2 9347   7.576   6.991   3.605
 3135TIP3    H1 9348   7.608   6.900   3.605
 3135TIP3    H2 9349   7.493   6.987   3.558
 3136TIP3   OH2 9350   4.824   4.552   2.023
 3136TIP3    H1 9351   4.909   4.535   2.064
 3136TIP3    H2 9352   4.762   4.500   2.074
 3137TIP3   OH2 9353   0.790   4.233   1.347
 3137TIP3    H1 9354   0.773   4.141   1.329
 3137TIP3    H2 9355   0.780   4.241   1.442
 3138TIP3   OH2 9356   3.849   7.563   5.746
 3138TIP3    H1 9357   3.901   7.623   5.693
 3138TIP3    H2 9358   3.781   7.619   5.785
 3139TIP3   OH2 9359   3.757   3.620   0.815
 3139TIP3    H1 9360   3.687   3.628   0.880
 3139TIP3    H2 9361   3.782   3.710   0.796
 3140TIP3   OH2 9362   3.054   4.205   2.345
 3140TIP3    H1 9363   3.086   4.221   2.434
 3140TIP3    H2 9364   3.064   4.111   2.332
 3141TIP3   OH2 9365   5.677   7.651   3.651
 3141TIP3    H1 9366   5.663   7.640   3.557
 3141TIP3    H2 9367   5.726   7.573   3.677
 3142TIP3   OH2 9368   5.033   4.459   0.933
 3142TIP3    H1 9369   5.030   4.435   1.026
 3142TIP3    H2 9370   5.086   4.391   0.893
 3143TIP3   OH2 9371   5.969   4.348   3.112
 3143TIP3    H1 9372   6.038   4.349   3.178
 3143TIP3    H2 9373   6.006   4.297   3.040
 3144TIP3   OH2 9374   2.441   1.187   0.197
 3144TIP3    H1 9375   2.404   1.192   0.109
 3144TIP3    H2 9376   2.446   1.093   0.216
 3145TIP3   OH2 9377   6.188   7.250   3.669
 3145TIP3    H1 9378   6.283   7.257   3.680
 3145TIP3    H2 9379   6.175   7.162   3.634
 3146TIP3   OH2 9380   3.626   5.258   4.438
 3146TIP3    H1 9381   3.603   5.340   4.482
 3146TIP3    H2 9382   3.687   5.285   4.369
 3147TIP3   OH2 9383   1.294   7.580   6.226
 3147TIP3    H1 9384   1.274   7.674   6.226
 3147TIP3    H2 9385   1.340   7.565   6.308
 3148TIP3   OH2 9386   7.538   0.297   3.025
 3148TIP3    H1 9387   7.499   0.362   3.083
 3148TIP3    H2 9388   7.632   0.300   3.045
 3149TIP3   OH2 9389   7.763   2.037   4.841
 3149TIP3    H1 9390   7.770   2.103   4.773
 3149TIP3    H2 9391   7.747   1.955   4.794
 3150TIP3   OH2 9392   0.413   2.925   4.988
 3150TIP3    H1 9393   0.348   2.943   4.921
 3150TIP3    H2 9394   0.494   2.961   4.954
 3151TIP3   OH2 9395   2.431   2.018   1.389
 3151TIP3    H1 9396   2.358   2.045   1.332
 3151TIP3    H2 9397   2.440   2.090   1.451
 3152TIP3   OH2 9398   0.701   1.715   0.884
 3152TIP3    H1 9399   0.613   1.720   0.922
 3152TIP3    H2 9400   0.692   1.653   0.811
 3153TIP3   OH2 9401   6.920   7.368   4.986
 3153TIP3    H1 9402   6.985   7.314   5.030
 3153TIP3    H2 9403   6.873   7.308   4.928
 3154TIP3   OH2 9404   5.581   1.772   5.502
 3154TIP3    H1 9405   5.571   1.680   5.475
 3154TIP3    H2 9406   5.525   1.821   5.442
 3155TIP3   OH2 9407   0.618   6.053   0.089
 3155TIP3    H1 9408   0.629   6.019   0.178
 3155TIP3    H2 9409   0.674   6.130   0.086
 3156TIP3   OH2 9410   5.493   2.858   0.552
 3156TIP3    H1 9411   5.532   2.787   0.502
 3156TIP3    H2 9412   5.551   2.933   0.538
 3157TIP3   OH2 9413   1.159   6.017   4.805
 3157TIP3    H1 9414   1.221   5.973   4.747
 3157TIP3    H2 9415   1.185   6.109   4.802
 3158TIP3   OH2 9416   3.237   3.695   1.436
 3158TIP3    H1 9417   3.249   3.782   1.474
 3158TIP3    H2 9418   3.310   3.684   1.376
 3159TIP3   OH2 9419   5.795   6.797   3.536
 3159TIP3    H1 9420   5.790   6.891   3.551
 3159TIP3    H2 9421   5.790   6.758   3.623
 3160TIP3   OH2 9422   1.200   1.754   5.790
 3160TIP3    H1 9423   1.216   1.660   5.781
 3160TIP3    H2 9424   1.236   1.792   5.710
 3161TIP3   OH2 9425   7.309   4.891   2.594
 3161TIP3    H1 9426   7.285   4.798   2.595
 3161TIP3    H2 9427   7.401   4.891   2.620
 3162TIP3   OH2 9428   5.414   1.830   2.157
 3162TIP3    H1 9429   5.373   1.787   2.082
 3162TIP3    H2 9430   5.501   1.853   2.127
 3163TIP3   OH2 9431   2.390   1.234   6.345
 3163TIP3    H1 9432   2.390   1.151   6.298
 3163TIP3    H2 9433   2.481   1.264   6.340
 3164TIP3   OH2 9434   4.903   5.190   6.397
 3164TIP3    H1 9435   4.907   5.192   6.301
 3164TIP3    H2 9436   4.975   5.245   6.425
 3165TIP3   OH2 9437   4.744   0.065   2.301
 3165TIP3    H1 9438   4.805   0.013   2.250
 3165TIP3    H2 9439   4.661   0.018   2.295
 3166TIP3   OH2 9440   3.773   2.194   6.350
 3166TIP3    H1 9441   3.823   2.257   6.401
 3166TIP3    H2 9442   3.834   2.163   6.283
 3167TIP3   OH2 9443   5.072   5.239   5.835
 3167TIP3    H1 9444   5.121   5.316   5.863
 3167TIP3    H2 9445   4.980   5.265   5.841
 3168TIP3   OH2 9446   0.213   2.310   2.965
 3168TIP3    H1 9447   0.207   2.269   3.052
 3168TIP3    H2 9448   0.305   2.335   2.956
 3169TIP3   OH2 9449   5.466   4.574   6.145
 3169TIP3    H1 9450   5.420   4.654   6.119
 3169TIP3    H2 9451   5.544   4.573   6.089
 3170TIP3   OH2 9452   6.467   4.100   6.354
 3170TIP3    H1 9453   6.542   4.104   6.414
 3170TIP3    H2 9454   6.496   4.042   6.284
 3171TIP3   OH2 9455   5.598   5.515   4.279
 3171TIP3    H1 9456   5.616   5.549   4.367
 3171TIP3    H2 9457   5.652   5.567   4.221
 3172TIP3   OH2 9458   7.378   3.903   6.087
 3172TIP3    H1 9459   7.469   3.903   6.056
 3172TIP3    H2 9460   7.335   3.971   6.035
 3173TIP3   OH2 9461   0.671   7.391   1.025
 3173TIP3    H1 9462   0.609   7.447   0.979
 3173TIP3    H2 9463   0.661   7.414   1.117
 3174TIP3   OH2 9464   5.749   3.921   0.613
 3174TIP3    H1 9465   5.777   3.871   0.690
 3174TIP3    H2 9466   5.709   4.000   0.648
 3175TIP3   OH2 9467   1.759   1.973   0.155
 3175TIP3    H1 9468   1.689   1.917   0.120
 3175TIP3    H2 9469   1.736   2.061   0.125
 3176TIP3   OH2 9470   7.573   3.529   2.275
 3176TIP3    H1 9471   7.497   3.496   2.322
 3176TIP3    H2 9472   7.636   3.456   2.278
 3177TIP3   OH2 9473   2.626   1.427   2.867
 3177TIP3    H1 9474   2.626   1.452   2.775
 3177TIP3    H2 9475   2.711   1.456   2.900
 3178TIP3   OH2 9476   2.883   5.373   4.832
 3178TIP3    H1 9477   2.966   5.328   4.849
 3178TIP3    H2 9478   2.908   5.464   4.819
 3179TIP3   OH2 9479   8.158   6.485   3.650
 3179TIP3    H1 9480   8.230   6.543   3.671
 3179TIP3    H2 9481   8.108   6.479   3.732
 3180TIP3   OH2 9482   4.322   0.343   3.204
 3180TIP3    H1 9483   4.267   0.341   3.282
 3180TIP3    H2 9484   4.308   0.259   3.162
 3181TIP3   OH2 9485   5.131   2.294   4.948
 3181TIP3    H1 9486   5.097   2.260   4.865
 3181TIP3    H2 9487   5.055   2.336   4.988
 3182TIP3   OH2 9488   7.435   3.059   1.044
 3182TIP3    H1 9489   7.475   3.125   1.101
 3182TIP3    H2 9490   7.382   3.006   1.103
 3183TIP3   OH2 9491   1.997   6.525   2.185
 3183TIP3    H1 9492   1.920   6.582   2.191
 3183TIP3    H2 9493   2.065   6.572   2.233
 3184TIP3   OH2 9494   1.899   6.400   2.442
 3184TIP3    H1 9495   1.886   6.465   2.374
 3184TIP3    H2 9496   1.826   6.412   2.502
 3185TIP3   OH2 9497   6.771   5.206   3.612
 3185TIP3    H1 9498   6.714   5.145   3.657
 3185TIP3    H2 9499   6.723   5.289   3.612
 3186TIP3   OH2 9500   5.685   2.665   0.687
 3186TIP3    H1 9501   5.779   2.674   0.697
 3186TIP3    H2 9502   5.674   2.615   0.606
 3187TIP3   OH2 9503   2.471   1.890   6.756
 3187TIP3    H1 9504   2.461   1.972   6.709
 3187TIP3    H2 9505   2.424   1.826   6.704
 3188TIP3   OH2 9506   4.582   3.235   4.217
 3188TIP3    H1 9507   4.511   3.293   4.187
 3188TIP3    H2 9508   4.572   3.233   4.312
 3189TIP3   OH2 9509   7.101   0.656   0.771
 3189TIP3    H1 9510   7.072   0.744   0.744
 3189TIP3    H2 9511   7.094   0.656   0.866
 3190TIP3   OH2 9512   7.651   0.883   5.965
 3190TIP3    H1 9513   7.745   0.893   5.954
 3190TIP3    H2 9514   7.617   0.973   5.964
 3191TIP3   OH2 9515   1.772   2.232   0.048
 3191TIP3    H1 9516   1.781   2.319   0.011
 3191TIP3    H2 9517   1.851   2.220   0.101
 3192TIP3   OH2 9518   6.449   2.234   4.222
 3192TIP3    H1 9519   6.420   2.245   4.132
 3192TIP3    H2 9520   6.375   2.265   4.275
 3193TIP3   OH2 9521   3.125   1.983   3.763
 3193TIP3    H1 9522   3.215   1.952   3.771
 3193TIP3    H2 9523   3.072   1.906   3.786
 3194TIP3   OH2 9524   2.762   3.535   4.350
 3194TIP3    H1 9525   2.849   3.518   4.386
 3194TIP3    H2 9526   2.774   3.614   4.296
 3195TIP3   OH2 9527   6.439   7.424   0.138
 3195TIP3    H1 9528   6.387   7.381   0.071
 3195TIP3    H2 9529   6.418   7.377   0.219
 3196TIP3   OH2 9530   0.563   4.515   1.841
 3196TIP3    H1 9531   0.478   4.554   1.820
 3196TIP3    H2 9532   0.616   4.531   1.763
 3197TIP3   OH2 9533   5.921   4.555   5.340
 3197TIP3    H1 9534   5.936   4.465   5.369
 3197TIP3    H2 9535   6.003   4.600   5.359
 3198TIP3   OH2 9536   2.129   6.473   4.222
 3198TIP3    H1 9537   2.174   6.523   4.290
 3198TIP3    H2 9538   2.065   6.420   4.270
 3199TIP3   OH2 9539   7.886   3.253   4.503
 3199TIP3    H1 9540   7.861   3.200   4.427
 3199TIP3    H2 9541   7.861   3.342   4.480
 3200TIP3   OH2 9542   1.310   4.058   0.918
 3200TIP3    H1 9543   1.281   4.086   0.832
 3200TIP3    H2 9544   1.405   4.074   0.917
 3201TIP3   OH2 9545   5.983   5.236   0.527
 3201TIP3    H1 9546   5.949   5.219   0.615
 3201TIP3    H2 9547   6.077   5.218   0.533
 3202TIP3   OH2 9548   4.276   2.690   0.036
 3202TIP3    H1 9549   4.333   2.624   0.075
 3202TIP3    H2 9550   4.274   2.668  -0.058
 3203TIP3   OH2 9551   2.312   2.272   0.183
 3203TIP3    H1 9552   2.227   2.229   0.188
 3203TIP3    H2 9553   2.347   2.268   0.272
 3204TIP3   OH2 9554   7.237   4.547   3.461
 3204TIP3    H1 9555   7.215   4.639   3.477
 3204TIP3    H2 9556   7.279   4.546   3.375
 3205TIP3   OH2 9557   6.972   2.104   4.871
 3205TIP3    H1 9558   7.038   2.171   4.889
 3205TIP3    H2 9559   6.921   2.140   4.799
 3206TIP3   OH2 9560   7.825   3.194   1.582
 3206TIP3    H1 9561   7.863   3.181   1.669
 3206TIP3    H2 9562   7.894   3.166   1.521
 3207TIP3   OH2 9563   7.854   7.509   1.710
 3207TIP3    H1 9564   7.767   7.549   1.702
 3207TIP3    H2 9565   7.837   7.415   1.715
 3208TIP3   OH2 9566   2.073   0.960   4.917
 3208TIP3    H1 9567   2.117   0.950   5.001
 3208TIP3    H2 9568   2.143   0.986   4.857
 3209TIP3   OH2 9569   7.118   2.454   0.292
 3209TIP3    H1 9570   7.032   2.414   0.281
 3209TIP3    H2 9571   7.100   2.538   0.334
 3210TIP3   OH2 9572   2.808   5.573   0.815
 3210TIP3    H1 9573   2.858   5.600   0.893
 3210TIP3    H2 9574   2.831   5.481   0.803
 3211TIP3   OH2 9575   5.223   4.735   6.331
 3211TIP3    H1 9576   5.187   4.785   6.258
 3211TIP3    H2 9577   5.154   4.737   6.397
 3212TIP3   OH2 9578   1.146   1.890   2.013
 3212TIP3    H1 9579   1.051   1.886   2.008
 3212TIP3    H2 9580   1.170   1.826   2.080
 3213TIP3   OH2 9581   7.030   1.759   6.208
 3213TIP3    H1 9582   6.968   1.828   6.231
 3213TIP3    H2 9583   7.019   1.747   6.114
 3214TIP3   OH2 9584   6.850   7.465   1.292
 3214TIP3    H1 9585   6.769   7.417   1.275
 3214TIP3    H2 9586   6.843   7.491   1.384
 3215TIP3   OH2 9587   7.365   4.660   6.517
 3215TIP3    H1 9588   7.282   4.612   6.521
 3215TIP3    H2 9589   7.412   4.621   6.443
 3216TIP3   OH2 9590   1.747   5.636   5.690
 3216TIP3    H1 9591   1.724   5.676   5.606
 3216TIP3    H2 9592   1.834   5.600   5.676
 3217TIP3   OH2 9593   3.161   5.841   6.019
 3217TIP3    H1 9594   3.135   5.853   5.928
 3217TIP3    H2 9595   3.257   5.851   6.019
 3218TIP3   OH2 9596   4.321   0.340   5.604
 3218TIP3    H1 9597   4.274   0.415   5.640
 3218TIP3    H2 9598   4.288   0.265   5.655
 3219TIP3   OH2 9599   0.823   6.224   1.151
 3219TIP3    H1 9600   0.751   6.184   1.102
 3219TIP3    H2 9601   0.893   6.159   1.149
 3220TIP3   OH2 9602   4.290   2.404   1.574
 3220TIP3    H1 9603   4.347   2.353   1.633
 3220TIP3    H2 9604   4.344   2.478   1.548
 3221TIP3   OH2 9605   1.959   3.667   2.462
 3221TIP3    H1 9606   2.008   3.681   2.381
 3221TIP3    H2 9607   2.026   3.670   2.531
 3222TIP3   OH2 9608   7.731   4.831   6.571
 3222TIP3    H1 9609   7.778   4.753   6.600
 3222TIP3    H2 9610   7.639   4.804   6.572
 3223TIP3   OH2 9611   6.631   3.259   3.097
 3223TIP3    H1 9612   6.575   3.331   3.127
 3223TIP3    H2 9613   6.670   3.224   3.177
 3224TIP3   OH2 9614   6.666   7.619   3.909
 3224TIP3    H1 9615   6.576   7.634   3.939
 3224TIP3    H2 9616   6.697   7.705   3.883
 3225TIP3   OH2 9617   8.279   5.100   2.281
 3225TIP3    H1 9618   8.357   5.085   2.334
 3225TIP3    H2 9619   8.270   5.020   2.229
 3226TIP3   OH2 9620   1.913   7.651   1.923
 3226TIP3    H1 9621   1.956   7.601   1.993
 3226TIP3    H2 9622   1.935   7.603   1.843
 3227TIP3   OH2 9623   7.498   7.502   1.447
 3227TIP3    H1 9624   7.573   7.539   1.402
 3227TIP3    H2 9625   7.535   7.459   1.524
 3228TIP3   OH2 9626   0.976   0.632   2.254
 3228TIP3    H1 9627   1.037   0.585   2.197
 3228TIP3    H2 9628   0.891   0.593   2.235
 3229TIP3   OH2 9629   6.293   0.424   2.433
 3229TIP3    H1 9630   6.252   0.341   2.410
 3229TIP3    H2 9631   6.293   0.475   2.352
 3230TIP3   OH2 9632   0.524   7.041   3.579
 3230TIP3    H1 9633   0.603   6.986   3.586
 3230TIP3    H2 9634   0.454   6.986   3.615
 3231TIP3   OH2 9635   5.254   2.607   2.548
 3231TIP3    H1 9636   5.195   2.570   2.483
 3231TIP3    H2 9637   5.205   2.606   2.630
 3232TIP3   OH2 9638   1.221   4.390   4.544
 3232TIP3    H1 9639   1.196   4.298   4.531
 3232TIP3    H2 9640   1.154   4.424   4.603
 3233TIP3   OH2 9641   6.644   2.294   3.523
 3233TIP3    H1 9642   6.569   2.352   3.515
 3233TIP3    H2 9643   6.718   2.345   3.491
 3234TIP3   OH2 9644   4.436   3.345   5.991
 3234TIP3    H1 9645   4.346   3.314   5.994
 3234TIP3    H2 9646   4.429   3.439   5.979
 3235TIP3   OH2 9647   5.680   3.764   4.554
 3235TIP3    H1 9648   5.612   3.713   4.510
 3235TIP3    H2 9649   5.649   3.854   4.549
 3236TIP3   OH2 9650   2.463   6.746   4.320
 3236TIP3    H1 9651   2.481   6.816   4.382
 3236TIP3    H2 9652   2.484   6.784   4.234
 3237TIP3   OH2 9653   5.757   6.910   5.653
 3237TIP3    H1 9654   5.836   6.958   5.625
 3237TIP3    H2 9655   5.787   6.858   5.727
 3238TIP3   OH2 9656   1.884   5.279   1.838
 3238TIP3    H1 9657   1.944   5.242   1.902
 3238TIP3    H2 9658   1.899   5.373   1.842
 3239TIP3   OH2 9659   7.214   5.756   2.799
 3239TIP3    H1 9660   7.238   5.674   2.842
 3239TIP3    H2 9661   7.252   5.749   2.712
 3240TIP3   OH2 9662   1.405   2.691   0.259
 3240TIP3    H1 9663   1.390   2.742   0.339
 3240TIP3    H2 9664   1.386   2.753   0.188
 3241TIP3   OH2 9665   2.112   5.810   0.470
 3241TIP3    H1 9666   2.175   5.876   0.439
 3241TIP3    H2 9667   2.143   5.728   0.432
 3242TIP3   OH2 9668   0.217   2.712   4.127
 3242TIP3    H1 9669   0.164   2.670   4.195
 3242TIP3    H2 9670   0.185   2.802   4.122
 3243TIP3   OH2 9671   3.009   0.594   4.899
 3243TIP3    H1 9672   2.929   0.632   4.937
 3243TIP3    H2 9673   3.024   0.514   4.949
 3244TIP3   OH2 9674   6.413   3.106   4.470
 3244TIP3    H1 9675   6.508   3.091   4.468
 3244TIP3    H2 9676   6.382   3.050   4.541
 3245TIP3   OH2 9677   3.949   6.201   0.185
 3245TIP3    H1 9678   3.880   6.237   0.240
 3245TIP3    H2 9679   3.980   6.276   0.133
 3246TIP3   OH2 9680   4.559   7.464   1.517
 3246TIP3    H1 9681   4.650   7.446   1.540
 3246TIP3    H2 9682   4.518   7.378   1.512
 3247TIP3   OH2 9683   5.699   0.823   5.906
 3247TIP3    H1 9684   5.720   0.913   5.931
 3247TIP3    H2 9685   5.608   0.827   5.877
 3248TIP3   OH2 9686   6.626   6.912   5.975
 3248TIP3    H1 9687   6.546   6.959   5.953
 3248TIP3    H2 9688   6.597   6.831   6.015
 3249TIP3   OH2 9689   4.186   5.614   6.360
 3249TIP3    H1 9690   4.154   5.651   6.278
 3249TIP3    H2 9691   4.215   5.526   6.337
 3250TIP3   OH2 9692   1.304   6.893   5.198
 3250TIP3    H1 9693   1.305   6.800   5.219
 3250TIP3    H2 9694   1.248   6.933   5.265
 3251TIP3   OH2 9695   4.054   5.704   0.496
 3251TIP3    H1 9696   4.077   5.651   0.420
 3251TIP3    H2 9697   4.080   5.793   0.473
 3252TIP3   OH2 9698   1.224   2.574   5.476
 3252TIP3    H1 9699   1.239   2.487   5.439
 3252TIP3    H2 9700   1.300   2.625   5.447
 3253TIP3   OH2 9701   1.307   1.749   4.136
 3253TIP3    H1 9702   1.299   1.844   4.141
 3253TIP3    H2 9703   1.297   1.729   4.043
 3254TIP3   OH2 9704   2.776   4.818   1.631
 3254TIP3    H1 9705   2.869   4.821   1.611
 3254TIP3    H2 9706   2.736   4.776   1.555
 3255TIP3   OH2 9707   5.969   7.713   4.495
 3255TIP3    H1 9708   5.996   7.702   4.404
 3255TIP3    H2 9709   5.927   7.631   4.519
 3256TIP3   OH2 9710   6.335   4.169   4.029
 3256TIP3    H1 9711   6.282   4.108   3.977
 3256TIP3    H2 9712   6.414   4.183   3.977
 3257TIP3   OH2 9713   6.625   3.926   6.161
 3257TIP3    H1 9714   6.695   3.900   6.221
 3257TIP3    H2 9715   6.671   3.957   6.083
 3258TIP3   OH2 9716   7.995   4.858   2.733
 3258TIP3    H1 9717   7.932   4.807   2.683
 3258TIP3    H2 9718   8.073   4.803   2.736
 3259TIP3   OH2 9719   1.720   0.982   3.016
 3259TIP3    H1 9720   1.808   1.017   3.023
 3259TIP3    H2 9721   1.671   1.049   2.969
 3260TIP3   OH2 9722   5.111   6.293   2.816
 3260TIP3    H1 9723   5.061   6.352   2.872
 3260TIP3    H2 9724   5.160   6.238   2.878
 3261TIP3   OH2 9725   5.356   3.000   5.370
 3261TIP3    H1 9726   5.422   3.012   5.301
 3261TIP3    H2 9727   5.367   3.076   5.427
 3262TIP3   OH2 9728   1.085   2.985   4.537
 3262TIP3    H1 9729   1.096   3.045   4.463
 3262TIP3    H2 9730   1.086   2.898   4.497
 3263TIP3   OH2 9731   3.439   5.109   2.026
 3263TIP3    H1 9732   3.377   5.139   1.960
 3263TIP3    H2 9733   3.525   5.125   1.986
 3264TIP3   OH2 9734   8.249   7.753   4.380
 3264TIP3    H1 9735   8.265   7.836   4.337
 3264TIP3    H2 9736   8.154   7.741   4.376
 3265TIP3   OH2 9737   3.819   6.112   6.512
 3265TIP3    H1 9738   3.823   6.018   6.496
 3265TIP3    H2 9739   3.822   6.120   6.607
 3266TIP3   OH2 9740   4.538   3.369   5.705
 3266TIP3    H1 9741   4.518   3.330   5.790
 3266TIP3    H2 9742   4.529   3.463   5.720
 3267TIP3   OH2 9743   5.924   4.394   5.988
 3267TIP3    H1 9744   5.835   4.362   5.996
 3267TIP3    H2 9745   5.970   4.359   6.065
 3268TIP3   OH2 9746   4.977   4.673   3.901
 3268TIP3    H1 9747   4.929   4.745   3.861
 3268TIP3    H2 9748   4.965   4.600   3.839
 3269TIP3   OH2 9749   7.013   0.361   4.035
 3269TIP3    H1 9750   6.943   0.339   3.974
 3269TIP3    H2 9751   6.997   0.304   4.111
 3270TIP3   OH2 9752   0.340   2.739   6.097
 3270TIP3    H1 9753   0.302   2.744   6.009
 3270TIP3    H2 9754   0.408   2.672   6.090
 3271TIP3   OH2 9755   5.361   2.409   2.977
 3271TIP3    H1 9756   5.328   2.320   2.990
 3271TIP3    H2 9757   5.433   2.399   2.915
 3272TIP3   OH2 9758   6.202   5.807   3.213
 3272TIP3    H1 9759   6.283   5.805   3.264
 3272TIP3    H2 9760   6.231   5.788   3.123
 3273TIP3   OH2 9761   5.639   5.634   3.962
 3273TIP3    H1 9762   5.697   5.567   3.997
 3273TIP3    H2 9763   5.643   5.706   4.024
 3274TIP3   OH2 9764   6.131   5.461   4.691
 3274TIP3    H1 9765   6.196   5.473   4.622
 3274TIP3    H2 9766   6.182   5.441   4.769
 3275TIP3   OH2 9767   3.437   6.780   0.508
 3275TIP3    H1 9768   3.420   6.770   0.601
 3275TIP3    H2 9769   3.364   6.833   0.475
 3276TIP3   OH2 9770   7.231   0.852   2.751
 3276TIP3    H1 9771   7.226   0.947   2.767
 3276TIP3    H2 9772   7.264   0.816   2.833
 3277TIP3   OH2 9773   1.813   1.958   3.500
 3277TIP3    H1 9774   1.896   1.991   3.467
 3277TIP3    H2 9775   1.746   2.009   3.454
 3278TIP3   OH2 9776   5.395   2.772   4.183
 3278TIP3    H1 9777   5.424   2.725   4.105
 3278TIP3    H2 9778   5.413   2.864   4.164
 3279TIP3   OH2 9779   8.105   1.563   4.121
 3279TIP3    H1 9780   8.061   1.648   4.129
 3279TIP3    H2 9781   8.179   1.569   4.180
 3280TIP3   OH2 9782   6.638   4.194   2.296
 3280TIP3    H1 9783   6.631   4.103   2.266
 3280TIP3    H2 9784   6.565   4.239   2.253
 3281TIP3   OH2 9785   4.540   6.385   6.655
 3281TIP3    H1 9786   4.451   6.418   6.639
 3281TIP3    H2 9787   4.590   6.412   6.578
 3282TIP3   OH2 9788   2.887   0.759   5.243
 3282TIP3    H1 9789   2.981   0.772   5.242
 3282TIP3    H2 9790   2.850   0.847   5.252
 3283TIP3   OH2 9791   2.602   0.565   5.322
 3283TIP3    H1 9792   2.684   0.516   5.321
 3283TIP3    H2 9793   2.611   0.626   5.395
 3284TIP3   OH2 9794   2.589   2.758   6.329
 3284TIP3    H1 9795   2.597   2.751   6.234
 3284TIP3    H2 9796   2.612   2.849   6.349
 3285TIP3   OH2 9797   1.289   6.228   5.720
 3285TIP3    H1 9798   1.212   6.283   5.706
 3285TIP3    H2 9799   1.304   6.230   5.814
 3286TIP3   OH2 9800   4.402   7.818   5.779
 3286TIP3    H1 9801   4.358   7.839   5.862
 3286TIP3    H2 9802   4.350   7.861   5.712
 3287TIP3   OH2 9803   3.332   2.454   3.511
 3287TIP3    H1 9804   3.369   2.375   3.551
 3287TIP3    H2 9805   3.238   2.440   3.513
 3288TIP3   OH2 9806   6.728   1.427   5.813
 3288TIP3    H1 9807   6.668   1.496   5.842
 3288TIP3    H2 9808   6.800   1.473   5.771
 3289TIP3   OH2 9809   5.931   5.012   0.325
 3289TIP3    H1 9810   5.891   4.926   0.338
 3289TIP3    H2 9811   5.924   5.055   0.411
 3290TIP3   OH2 9812   3.706   1.817   6.694
 3290TIP3    H1 9813   3.769   1.861   6.751
 3290TIP3    H2 9814   3.758   1.759   6.639
 3291TIP3   OH2 9815   8.216   2.521   6.030
 3291TIP3    H1 9816   8.177   2.609   6.026
 3291TIP3    H2 9817   8.202   2.485   5.943
 3292TIP3   OH2 9818   7.125   2.333   4.930
 3292TIP3    H1 9819   7.144   2.421   4.962
 3292TIP3    H2 9820   7.206   2.306   4.887
 3293TIP3   OH2 9821   2.534   1.398   5.342
 3293TIP3    H1 9822   2.598   1.455   5.385
 3293TIP3    H2 9823   2.547   1.313   5.383
 3294TIP3   OH2 9824   7.093   6.306   5.575
 3294TIP3    H1 9825   7.046   6.354   5.507
 3294TIP3    H2 9826   7.168   6.266   5.530
 3295TIP3   OH2 9827   1.596   7.399   3.556
 3295TIP3    H1 9828   1.511   7.396   3.512
 3295TIP3    H2 9829   1.633   7.483   3.531
 3296TIP3   OH2 9830   6.263   0.749   4.872
 3296TIP3    H1 9831   6.196   0.720   4.934
 3296TIP3    H2 9832   6.345   0.747   4.923
 3297TIP3   OH2 9833   7.696   3.061   2.912
 3297TIP3    H1 9834   7.632   3.083   2.845
 3297TIP3    H2 9835   7.711   2.967   2.902
 3298TIP3   OH2 9836   7.591   1.269   3.530
 3298TIP3    H1 9837   7.556   1.265   3.619
 3298TIP3    H2 9838   7.574   1.182   3.494
 3299TIP3   OH2 9839   5.499   1.980   4.013
 3299TIP3    H1 9840   5.559   2.012   4.080
 3299TIP3    H2 9841   5.438   1.923   4.060
 3300TIP3   OH2 9842   4.932   1.713   6.201
 3300TIP3    H1 9843   4.953   1.708   6.295
 3300TIP3    H2 9844   4.928   1.807   6.183
 3301TIP3   OH2 9845   3.438   1.004   4.728
 3301TIP3    H1 9846   3.350   0.973   4.748
 3301TIP3    H2 9847   3.426   1.066   4.656
 3302TIP3   OH2 9848   0.011   6.071   1.577
 3302TIP3    H1 9849  -0.070   6.107   1.540
 3302TIP3    H2 9850   0.062   6.044   1.500
 3303TIP3   OH2 9851   1.687   4.986   0.405
 3303TIP3    H1 9852   1.609   5.041   0.398
 3303TIP3    H2 9853   1.694   4.968   0.499
 3304TIP3   OH2 9854   5.080   5.604   0.224
 3304TIP3    H1 9855   5.102   5.533   0.164
 3304TIP3    H2 9856   5.165   5.640   0.250
 3305TIP3   OH2 9857   4.691   6.003   4.775
 3305TIP3    H1 9858   4.740   5.948   4.837
 3305TIP3    H2 9859   4.694   6.090   4.814
 3306TIP3   OH2 9860   7.947   2.194   6.257
 3306TIP3    H1 9861   8.035   2.166   6.280
 3306TIP3    H2 9862   7.894   2.174   6.335
 3307TIP3   OH2 9863   2.931   5.585   1.683
 3307TIP3    H1 9864   2.910   5.677   1.672
 3307TIP3    H2 9865   2.852   5.546   1.720
 3308TIP3   OH2 9866   5.262   6.956   0.856
 3308TIP3    H1 9867   5.309   7.020   0.802
 3308TIP3    H2 9868   5.247   7.001   0.939
 3309TIP3   OH2 9869   7.077   1.654   2.494
 3309TIP3    H1 9870   7.173   1.653   2.500
 3309TIP3    H2 9871   7.047   1.652   2.585
 3310TIP3   OH2 9872   6.770   2.146   5.396
 3310TIP3    H1 9873   6.750   2.236   5.425
 3310TIP3    H2 9874   6.798   2.156   5.306
 3311TIP3   OH2 9875   4.897   2.316   1.576
 3311TIP3    H1 9876   4.949   2.282   1.649
 3311TIP3    H2 9877   4.943   2.286   1.498
 3312TIP3   OH2 9878   8.075   5.446   4.301
 3312TIP3    H1 9879   8.068   5.354   4.326
 3312TIP3    H2 9880   7.993   5.485   4.330
 3313TIP3   OH2 9881   0.378   2.804   3.374
 3313TIP3    H1 9882   0.444   2.747   3.414
 3313TIP3    H2 9883   0.389   2.792   3.279
 3314TIP3   OH2 9884   1.823   2.434   4.724
 3314TIP3    H1 9885   1.905   2.387   4.707
 3314TIP3    H2 9886   1.760   2.394   4.664
 3315TIP3   OH2 9887   7.539   7.564   3.431
 3315TIP3    H1 9888   7.551   7.470   3.445
 3315TIP3    H2 9889   7.626   7.597   3.411
 3316TIP3   OH2 9890   2.860   0.725   3.926
 3316TIP3    H1 9891   2.889   0.682   3.846
 3316TIP3    H2 9892   2.767   0.706   3.933
 3317TIP3   OH2 9893   6.009   0.697   2.533
 3317TIP3    H1 9894   5.992   0.614   2.489
 3317TIP3    H2 9895   5.970   0.687   2.620
 3318TIP3   OH2 9896   4.267   1.939   2.844
 3318TIP3    H1 9897   4.275   1.941   2.749
 3318TIP3    H2 9898   4.187   1.988   2.862
 3319TIP3   OH2 9899   0.283   5.418   1.432
 3319TIP3    H1 9900   0.191   5.392   1.426
 3319TIP3    H2 9901   0.320   5.360   1.498
 3320TIP3   OH2 9902   3.124   7.102   6.359
 3320TIP3    H1 9903   3.200   7.045   6.346
 3320TIP3    H2 9904   3.129   7.130   6.450
 3321TIP3   OH2 9905   1.718   6.809   0.435
 3321TIP3    H1 9906   1.669   6.747   0.381
 3321TIP3    H2 9907   1.703   6.780   0.525
 3322TIP3   OH2 9908   2.102   0.148   0.654
 3322TIP3    H1 9909   2.151   0.227   0.677
 3322TIP3    H2 9910   2.014   0.179   0.633
 3323TIP3   OH2 9911   6.025   5.570   0.638
 3323TIP3    H1 9912   6.042   5.499   0.700
 3323TIP3    H2 9913   5.934   5.596   0.655
 3324TIP3   OH2 9914   7.662   0.371   0.117
 3324TIP3    H1 9915   7.580   0.328   0.091
 3324TIP3    H2 9916   7.650   0.392   0.209
 3325TIP3   OH2 9917   1.162   2.726   1.004
 3325TIP3    H1 9918   1.253   2.727   0.974
 3325TIP3    H2 9919   1.118   2.791   0.950
 3326TIP3   OH2 9920   2.814   6.803   4.149
 3326TIP3    H1 9921   2.903   6.830   4.172
 3326TIP3    H2 9922   2.823   6.759   4.064
 3327TIP3   OH2 9923   3.909   0.205   5.935
 3327TIP3    H1 9924   3.957   0.288   5.940
 3327TIP3    H2 9925   3.930   0.171   5.848
 3328TIP3   OH2 9926   0.690   7.450   5.662
 3328TIP3    H1 9927   0.683   7.390   5.736
 3328TIP3    H2 9928   0.728   7.529   5.698
 3329TIP3   OH2 9929   0.138   1.209   4.684
 3329TIP3    H1 9930   0.079   1.171   4.749
 3329TIP3    H2 9931   0.222   1.218   4.729
 3330TIP3   OH2 9932   4.364   1.529   3.257
 3330TIP3    H1 9933   4.336   1.588   3.326
 3330TIP3    H2 9934   4.308   1.551   3.182
 3331TIP3   OH2 9935   2.217   5.121   6.248
 3331TIP3    H1 9936   2.128   5.109   6.282
 3331TIP3    H2 9937   2.266   5.158   6.321
 3332TIP3   OH2 9938   5.472   6.095   4.079
 3332TIP3    H1 9939   5.464   6.107   4.173
 3332TIP3    H2 9940   5.566   6.100   4.061
 3333TIP3   OH2 9941   7.204   1.401   5.170
 3333TIP3    H1 9942   7.178   1.487   5.137
 3333TIP3    H2 9943   7.151   1.387   5.248
 3334TIP3   OH2 9944   7.203   1.771   3.159
 3334TIP3    H1 9945   7.207   1.729   3.073
 3334TIP3    H2 9946   7.209   1.864   3.140
 3335TIP3   OH2 9947   1.591   2.168   1.460
 3335TIP3    H1 9948   1.509   2.206   1.430
 3335TIP3    H2 9949   1.578   2.073   1.450
 3336TIP3   OH2 9950   5.213   6.237   1.616
 3336TIP3    H1 9951   5.121   6.256   1.634
 3336TIP3    H2 9952   5.211   6.158   1.562
 3337TIP3   OH2 9953   5.177   5.918   1.959
 3337TIP3    H1 9954   5.228   5.982   1.908
 3337TIP3    H2 9955   5.092   5.915   1.915
 3338TIP3   OH2 9956   2.652   7.502   2.269
 3338TIP3    H1 9957   2.583   7.455   2.222
 3338TIP3    H2 9958   2.650   7.590   2.233
 3339TIP3   OH2 9959   1.395   7.182   5.729
 3339TIP3    H1 9960   1.372   7.105   5.677
 3339TIP3    H2 9961   1.445   7.238   5.669
 3340TIP3   OH2 9962   6.788   6.308   5.388
 3340TIP3    H1 9963   6.737   6.387   5.406
 3340TIP3    H2 9964   6.839   6.330   5.310
 3341TIP3   OH2 9965   2.700   4.364   5.327
 3341TIP3    H1 9966   2.640   4.295   5.355
 3341TIP3    H2 9967   2.771   4.318   5.283
 3342TIP3   OH2 9968   6.103   2.081   5.447
 3342TIP3    H1 9969   6.051   2.061   5.525
 3342TIP3    H2 9970   6.056   2.036   5.376
 3343TIP3   OH2 9971   2.806   2.967   2.265
 3343TIP3    H1 9972   2.896   2.980   2.297
 3343TIP3    H2 9973   2.816   2.936   2.175
 3344TIP3   OH2 9974   7.717   0.415   0.451
 3344TIP3    H1 9975   7.798   0.446   0.411
 3344TIP3    H2 9976   7.742   0.332   0.493
 3345TIP3   OH2 9977   5.427   0.392   2.115
 3345TIP3    H1 9978   5.385   0.362   2.035
 3345TIP3    H2 9979   5.437   0.313   2.168
 3346TIP3   OH2 9980   6.392   5.559   1.168
 3346TIP3    H1 9981   6.428   5.601   1.090
 3346TIP3    H2 9982   6.418   5.467   1.159
 3347TIP3   OH2 9983   1.225   1.739   6.119
 3347TIP3    H1 9984   1.239   1.796   6.044
 3347TIP3    H2 9985   1.191   1.657   6.082
 3348TIP3   OH2 9986   8.154   4.294   4.637
 3348TIP3    H1 9987   8.114   4.364   4.585
 3348TIP3    H2 9988   8.247   4.296   4.612
 3349TIP3   OH2 9989   5.250   2.201   0.448
 3349TIP3    H1 9990   5.324   2.204   0.387
 3349TIP3    H2 9991   5.185   2.260   0.411
 3350TIP3   OH2 9992   2.765   5.423   3.969
 3350TIP3    H1 9993   2.811   5.348   4.006
 3350TIP3    H2 9994   2.678   5.420   4.009
 3351TIP3   OH2 9995   8.190   3.593   1.231
 3351TIP3    H1 9996   8.207   3.682   1.200
 3351TIP3    H2 9997   8.152   3.605   1.318
 3352TIP3   OH2 9998   3.404   7.159   4.128
 3352TIP3    H1 9999   3.393   7.138   4.035
 3352TIP3    H210000   3.498   7.172   4.139
 3353TIP3   OH210001   6.125   7.853   6.205
 3353TIP3    H110002   6.047   7.874   6.154
 3353TIP3    H210003   6.108   7.766   6.240
 3354TIP3   OH210004   1.671   4.487   0.573
 3354TIP3    H110005   1.656   4.568   0.621
 3354TIP3    H210006   1.766   4.477   0.573
 3355TIP3   OH210007   1.926   6.372   5.899
 3355TIP3    H110008   2.017   6.386   5.872
 3355TIP3    H210009   1.890   6.460   5.908
 3356TIP3   OH210010   6.543   5.958   0.620
 3356TIP3    H110011   6.460   5.916   0.598
 3356TIP3    H210012   6.591   5.891   0.669
 3357TIP3   OH210013   7.543   5.835   0.484
 3357TIP3    H110014   7.507   5.917   0.448
 3357TIP3    H210015   7.619   5.816   0.430
 3358TIP3   OH210016   0.186   4.146   3.275
 3358TIP3    H110017   0.201   4.102   3.359
 3358TIP3    H210018   0.139   4.081   3.222
 3359TIP3   OH210019   1.005   6.580   6.462
 3359TIP3    H110020   0.998   6.498   6.511
 3359TIP3    H210021   0.934   6.634   6.497
 3360TIP3   OH210022   5.571   0.468   5.991
 3360TIP3    H110023   5.510   0.420   5.934
 3360TIP3    H210024   5.532   0.462   6.078
 3361TIP3   OH210025   0.524   7.318   6.516
 3361TIP3    H110026   0.584   7.386   6.546
 3361TIP3    H210027   0.475   7.359   6.445
 3362TIP3   OH210028   6.884   6.372   1.101
 3362TIP3    H110029   6.868   6.279   1.084
 3362TIP3    H210030   6.921   6.374   1.190
 3363TIP3   OH210031   5.220   5.353   5.271
 3363TIP3    H110032   5.153   5.378   5.207
 3363TIP3    H210033   5.274   5.431   5.281
 3364TIP3   OH210034   2.495   0.194   1.395
 3364TIP3    H110035   2.490   0.209   1.489
 3364TIP3    H210036   2.577   0.148   1.382
 3365TIP3   OH210037   4.192   3.913   4.228
 3365TIP3    H110038   4.142   3.832   4.226
 3365TIP3    H210039   4.135   3.976   4.273
 3366TIP3   OH210040   2.942   1.748   0.284
 3366TIP3    H110041   2.960   1.752   0.378
 3366TIP3    H210042   3.016   1.794   0.244
 3367TIP3   OH210043   6.325   5.985   6.466
 3367TIP3    H110044   6.420   5.991   6.479
 3367TIP3    H210045   6.296   6.076   6.463
 3368TIP3   OH210046   3.697   5.223   3.767
 3368TIP3    H110047   3.681   5.245   3.859
 3368TIP3    H210048   3.724   5.131   3.770
 3369TIP3   OH210049   3.839   4.253   0.993
 3369TIP3    H110050   3.876   4.177   0.948
 3369TIP3    H210051   3.910   4.317   0.992
 3370TIP3   OH210052   3.303   7.469   4.401
 3370TIP3    H110053   3.278   7.465   4.308
 3370TIP3    H210054   3.396   7.447   4.402
 3371TIP3   OH210055   5.124   5.182   2.314
 3371TIP3    H110056   5.031   5.171   2.294
 3371TIP3    H210057   5.155   5.093   2.333
 3372TIP3   OH210058   2.552   5.426   4.297
 3372TIP3    H110059   2.623   5.438   4.360
 3372TIP3    H210060   2.581   5.354   4.241
 3373TIP3   OH210061   2.040   5.577   0.820
 3373TIP3    H110062   2.116   5.526   0.848
 3373TIP3    H210063   2.073   5.633   0.749
 3374TIP3   OH210064   3.182   2.613   4.707
 3374TIP3    H110065   3.164   2.582   4.796
 3374TIP3    H210066   3.205   2.705   4.718
 3375TIP3   OH210067   6.468   5.584   5.652
 3375TIP3    H110068   6.495   5.523   5.720
 3375TIP3    H210069   6.544   5.589   5.593
 3376TIP3   OH210070   6.937   5.066   1.873
 3376TIP3    H110071   6.880   5.121   1.927
 3376TIP3    H210072   7.009   5.042   1.932
 3377TIP3   OH210073   3.646   2.573   6.531
 3377TIP3    H110074   3.618   2.629   6.458
 3377TIP3    H210075   3.588   2.497   6.526
 3378TIP3   OH210076   6.140   7.609   2.368
 3378TIP3    H110077   6.168   7.690   2.324
 3378TIP3    H210078   6.178   7.616   2.456
 3379TIP3   OH210079   3.477   3.298   1.997
 3379TIP3    H110080   3.516   3.221   1.955
 3379TIP3    H210081   3.383   3.288   1.981
 3380TIP3   OH210082   7.886   5.219   1.082
 3380TIP3    H110083   7.924   5.221   1.169
 3380TIP3    H210084   7.915   5.136   1.044
 3381TIP3   OH210085   5.732   3.114   2.921
 3381TIP3    H110086   5.788   3.037   2.926
 3381TIP3    H210087   5.782   3.184   2.963
 3382TIP3   OH210088   5.082   5.088   1.939
 3382TIP3    H110089   5.083   5.184   1.943
 3382TIP3    H210090   4.999   5.063   1.980
 3383TIP3   OH210091   2.865   6.689   6.389
 3383TIP3    H110092   2.887   6.770   6.343
 3383TIP3    H210093   2.923   6.687   6.465
 3384TIP3   OH210094   0.962   1.622   0.386
 3384TIP3    H110095   1.007   1.667   0.458
 3384TIP3    H210096   0.879   1.669   0.377
 3385TIP3   OH210097   1.171   7.672   5.523
 3385TIP3    H110098   1.076   7.664   5.522
 3385TIP3    H210099   1.189   7.755   5.478
 3386TIP3   OH210100   2.709   0.307   4.133
 3386TIP3    H110101   2.788   0.361   4.136
 3386TIP3    H210102   2.675   0.310   4.223
 3387TIP3   OH210103   7.786   2.380   4.213
 3387TIP3    H110104   7.706   2.334   4.187
 3387TIP3    H210105   7.770   2.406   4.304
 3388TIP3   OH210106   2.718   1.673   2.098
 3388TIP3    H110107   2.717   1.624   2.015
 3388TIP3    H210108   2.702   1.764   2.072
 3389TIP3   OH210109   6.536   0.999   2.232
 3389TIP3    H110110   6.599   0.938   2.269
 3389TIP3    H210111   6.520   0.966   2.143
 3390TIP3   OH210112   7.695   2.813   3.559
 3390TIP3    H110113   7.649   2.819   3.475
 3390TIP3    H210114   7.646   2.746   3.607
 3391TIP3   OH210115   5.629   0.076   5.603
 3391TIP3    H110116   5.537   0.098   5.611
 3391TIP3    H210117   5.632   0.004   5.541
 3392TIP3   OH210118   0.771   0.366   0.144
 3392TIP3    H110119   0.705   0.303   0.115
 3392TIP3    H210120   0.761   0.440   0.084
 3393TIP3   OH210121   3.047   0.713   6.416
 3393TIP3    H110122   3.127   0.694   6.367
 3393TIP3    H210123   3.076   0.770   6.487
 3394TIP3   OH210124   8.053   0.661   2.969
 3394TIP3    H110125   7.978   0.720   2.964
 3394TIP3    H210126   8.042   0.615   3.051
 3395TIP3   OH210127   4.689   4.297   2.411
 3395TIP3    H110128   4.729   4.366   2.463
 3395TIP3    H210129   4.706   4.217   2.460
 3396TIP3   OH210130   1.149   3.090   6.326
 3396TIP3    H110131   1.233   3.123   6.294
 3396TIP3    H210132   1.150   2.996   6.307
 3397TIP3   OH210133   7.093   4.608   4.342
 3397TIP3    H110134   7.021   4.589   4.402
 3397TIP3    H210135   7.170   4.572   4.384
 3398TIP3   OH210136   6.598   5.831   2.623
 3398TIP3    H110137   6.674   5.773   2.625
 3398TIP3    H210138   6.523   5.771   2.614
 3399TIP3   OH210139   2.309   5.803   4.196
 3399TIP3    H110140   2.214   5.792   4.205
 3399TIP3    H210141   2.341   5.716   4.170
 3400TIP3   OH210142   0.420   4.765   5.979
 3400TIP3    H110143   0.418   4.821   5.901
 3400TIP3    H210144   0.476   4.692   5.955
 3401TIP3   OH210145   5.211   5.055   5.198
 3401TIP3    H110146   5.124   5.049   5.160
 3401TIP3    H210147   5.267   5.004   5.140
 3402TIP3   OH210148   4.330   1.211   0.811
 3402TIP3    H110149   4.248   1.249   0.844
 3402TIP3    H210150   4.391   1.284   0.807
 3403TIP3   OH210151   1.430   1.051   3.362
 3403TIP3    H110152   1.409   0.991   3.433
 3403TIP3    H210153   1.513   1.092   3.389
 3404TIP3   OH210154   0.703   5.789   4.023
 3404TIP3    H110155   0.735   5.872   4.058
 3404TIP3    H210156   0.782   5.742   3.995
 3405TIP3   OH210157   5.143   6.529   6.205
 3405TIP3    H110158   5.210   6.596   6.196
 3405TIP3    H210159   5.077   6.552   6.139
 3406TIP3   OH210160   6.478   4.537   6.238
 3406TIP3    H110161   6.392   4.562   6.205
 3406TIP3    H210162   6.460   4.493   6.321
 3407TIP3   OH210163   4.177   5.105   6.714
 3407TIP3    H110164   4.092   5.074   6.685
 3407TIP3    H210165   4.238   5.077   6.646
 3408TIP3   OH210166   1.225   4.060   1.313
 3408TIP3    H110167   1.179   4.075   1.231
 3408TIP3    H210168   1.161   4.079   1.381
 3409TIP3   OH210169   4.070   7.531   0.678
 3409TIP3    H110170   4.106   7.590   0.745
 3409TIP3    H210171   4.079   7.579   0.596
 3410TIP3   OH210172   7.351   3.774   0.910
 3410TIP3    H110173   7.309   3.698   0.871
 3410TIP3    H210174   7.298   3.849   0.880
 3411TIP3   OH210175   6.498   3.706   5.450
 3411TIP3    H110176   6.593   3.721   5.446
 3411TIP3    H210177   6.488   3.633   5.511
 3412TIP3   OH210178   3.198   0.032   0.968
 3412TIP3    H110179   3.167   0.116   0.934
 3412TIP3    H210180   3.194   0.042   1.064
 3413TIP3   OH210181   1.052   6.811   3.352
 3413TIP3    H110182   0.968   6.777   3.324
 3413TIP3    H210183   1.031   6.894   3.395
 3414TIP3   OH210184   2.763   5.776   4.490
 3414TIP3    H110185   2.670   5.788   4.508
 3414TIP3    H210186   2.806   5.842   4.544
 3415TIP3   OH210187   1.034   0.988   5.872
 3415TIP3    H110188   1.113   0.934   5.877
 3415TIP3    H210189   0.964   0.925   5.856
 3416TIP3   OH210190   2.047   5.003   1.900
 3416TIP3    H110191   2.076   5.002   1.991
 3416TIP3    H210192   1.952   4.991   1.905
 3417TIP3   OH210193   1.907   0.980   4.712
 3417TIP3    H110194   1.959   0.951   4.787
 3417TIP3    H210195   1.951   1.060   4.683
 3418TIP3   OH210196   5.359   5.245   3.945
 3418TIP3    H110197   5.310   5.265   3.865
 3418TIP3    H210198   5.424   5.181   3.917
 3419TIP3   OH210199   1.262   7.351   1.005
 3419TIP3    H110200   1.350   7.372   0.975
 3419TIP3    H210201   1.268   7.348   1.100
 3420TIP3   OH210202   2.635   3.124   6.640
 3420TIP3    H110203   2.606   3.148   6.728
 3420TIP3    H210204   2.715   3.175   6.626
 3421TIP3   OH210205   1.555   5.075   4.658
 3421TIP3    H110206   1.646   5.096   4.638
 3421TIP3    H210207   1.541   4.991   4.614
 3422TIP3   OH210208   1.044   6.036   0.886
 3422TIP3    H110209   1.048   6.066   0.976
 3422TIP3    H210210   1.055   5.941   0.892
 3423TIP3   OH210211   4.623   3.936   6.087
 3423TIP3    H110212   4.671   3.854   6.074
 3423TIP3    H210213   4.631   3.954   6.181
 3424TIP3   OH210214   1.568   5.694   2.265
 3424TIP3    H110215   1.597   5.759   2.202
 3424TIP3    H210216   1.580   5.610   2.220
 3425TIP3   OH210217   2.411   0.943   3.068
 3425TIP3    H110218   2.430   1.033   3.040
 3425TIP3    H210219   2.486   0.892   3.040
 3426TIP3   OH210220   4.515   1.609   6.531
 3426TIP3    H110221   4.543   1.630   6.442
 3426TIP3    H210222   4.529   1.515   6.539
 3427TIP3   OH210223   1.400   2.273   1.892
 3427TIP3    H110224   1.364   2.245   1.808
 3427TIP3    H210225   1.336   2.243   1.957
 3428TIP3   OH210226   0.111   0.181   1.259
 3428TIP3    H110227   0.050   0.149   1.325
 3428TIP3    H210228   0.192   0.133   1.276
 3429TIP3   OH210229   7.244   4.226   2.840
 3429TIP3    H110230   7.183   4.292   2.807
 3429TIP3    H210231   7.327   4.274   2.850
 3430TIP3   OH210232   5.344   3.056   6.631
 3430TIP3    H110233   5.434   3.066   6.599
 3430TIP3    H210234   5.352   3.003   6.710
 3431TIP3   OH210235   7.022   5.836   0.515
 3431TIP3    H110236   7.020   5.763   0.577
 3431TIP3    H210237   6.973   5.905   0.559
 3432TIP3   OH210238   3.352   5.730   4.252
 3432TIP3    H110239   3.310   5.763   4.173
 3432TIP3    H210240   3.393   5.806   4.292
 3433TIP3   OH210241   0.980   5.141   3.828
 3433TIP3    H110242   0.976   5.222   3.880
 3433TIP3    H210243   1.050   5.090   3.869
 3434TIP3   OH210244   6.991   1.533   5.740
 3434TIP3    H110245   7.051   1.464   5.767
 3434TIP3    H210246   7.022   1.559   5.654
 3435TIP3   OH210247   2.137   3.476   5.796
 3435TIP3    H110248   2.194   3.441   5.865
 3435TIP3    H210249   2.072   3.407   5.782
 3436TIP3   OH210250   5.356   6.598   3.563
 3436TIP3    H110251   5.372   6.650   3.641
 3436TIP3    H210252   5.323   6.660   3.498
 3437TIP3   OH210253   0.226   0.003   2.552
 3437TIP3    H110254   0.147  -0.013   2.603
 3437TIP3    H210255   0.223   0.097   2.533
 3438TIP3   OH210256   2.407   0.134   1.095
 3438TIP3    H110257   2.421   0.141   1.190
 3438TIP3    H210258   2.483   0.084   1.064
 3439TIP3   OH210259   8.310   7.452   4.359
 3439TIP3    H110260   8.291   7.382   4.297
 3439TIP3    H210261   8.236   7.512   4.351
 3440TIP3   OH210262   2.391   0.232   2.326
 3440TIP3    H110263   2.298   0.209   2.327
 3440TIP3    H210264   2.407   0.263   2.237
 3441TIP3   OH210265   5.572   7.310   4.623
 3441TIP3    H110266   5.634   7.328   4.695
 3441TIP3    H210267   5.537   7.224   4.643
 3442TIP3   OH210268   1.956   2.143   5.355
 3442TIP3    H110269   1.978   2.214   5.415
 3442TIP3    H210270   1.936   2.069   5.412
 3443TIP3   OH210271   1.137   5.000   1.800
 3443TIP3    H110272   1.187   5.047   1.867
 3443TIP3    H210273   1.117   5.067   1.735
 3444TIP3   OH210274   1.947   3.231   2.252
 3444TIP3    H110275   1.910   3.256   2.337
 3444TIP3    H210276   1.895   3.156   2.224
 3445TIP3   OH210277   1.050   1.066   2.382
 3445TIP3    H110278   0.967   1.074   2.428
 3445TIP3    H210279   1.029   1.020   2.301
 3446TIP3   OH210280   2.123   4.985   0.213
 3446TIP3    H110281   2.216   4.985   0.190
 3446TIP3    H210282   2.084   4.918   0.157
 3447TIP3   OH210283   2.307   5.502   2.983
 3447TIP3    H110284   2.269   5.423   3.023
 3447TIP3    H210285   2.264   5.508   2.897
 3448TIP3   OH210286   4.023   7.338   4.039
 3448TIP3    H110287   4.071   7.409   3.996
 3448TIP3    H210288   4.091   7.278   4.068
 3449TIP3   OH210289   2.371   7.156   4.261
 3449TIP3    H110290   2.293   7.102   4.270
 3449TIP3    H210291   2.426   7.132   4.335
 3450TIP3   OH210292   1.743   2.336   3.292
 3450TIP3    H110293   1.704   2.354   3.378
 3450TIP3    H210294   1.699   2.397   3.233
 3451TIP3   OH210295   2.769   5.840   1.190
 3451TIP3    H110296   2.772   5.921   1.140
 3451TIP3    H210297   2.683   5.842   1.233
 3452TIP3   OH210298   1.700   2.772   4.518
 3452TIP3    H110299   1.675   2.794   4.429
 3452TIP3    H210300   1.748   2.690   4.511
 3453TIP3   OH210301   0.633   2.939   5.518
 3453TIP3    H110302   0.655   2.847   5.506
 3453TIP3    H210303   0.714   2.979   5.550
 3454TIP3   OH210304   2.617   7.107   3.960
 3454TIP3    H110305   2.648   7.180   4.014
 3454TIP3    H210306   2.678   7.103   3.887
 3455TIP3   OH210307   8.036   6.494   0.261
 3455TIP3    H110308   7.965   6.473   0.322
 3455TIP3    H210309   8.088   6.559   0.307
 3456TIP3   OH210310   2.172   1.533   5.871
 3456TIP3    H110311   2.222   1.467   5.920
 3456TIP3    H210312   2.230   1.609   5.867
 3457TIP3   OH210313   3.421   7.510   0.343
 3457TIP3    H110314   3.458   7.464   0.419
 3457TIP3    H210315   3.462   7.468   0.268
 3458TIP3   OH210316   4.788   2.543   1.400
 3458TIP3    H110317   4.704   2.584   1.419
 3458TIP3    H210318   4.783   2.456   1.441
 3459TIP3   OH210319   6.842   0.386   5.492
 3459TIP3    H110320   6.815   0.476   5.472
 3459TIP3    H210321   6.783   0.359   5.562
 3460TIP3   OH210322   0.678   6.900   6.314
 3460TIP3    H110323   0.702   6.852   6.235
 3460TIP3    H210324   0.661   6.831   6.379
 3461TIP3   OH210325   4.796   3.183   3.167
 3461TIP3    H110326   4.741   3.105   3.164
 3461TIP3    H210327   4.736   3.254   3.190
 3462TIP3   OH210328   0.647   2.720   5.832
 3462TIP3    H110329   0.578   2.670   5.875
 3462TIP3    H210330   0.611   2.808   5.824
 3463TIP3   OH210331   0.097   6.967   1.562
 3463TIP3    H110332   0.036   7.032   1.597
 3463TIP3    H210333   0.080   6.966   1.468
 3464TIP3   OH210334   6.900   0.898   0.466
 3464TIP3    H110335   6.866   0.809   0.459
 3464TIP3    H210336   6.920   0.923   0.376
 3465TIP3   OH210337   3.088   0.042   2.884
 3465TIP3    H110338   3.061  -0.034   2.935
 3465TIP3    H210339   3.018   0.054   2.820
 3466TIP3   OH210340   0.827   5.139   6.405
 3466TIP3    H110341   0.846   5.062   6.460
 3466TIP3    H210342   0.911   5.158   6.362
 3467TIP3   OH210343   7.469   2.084   3.705
 3467TIP3    H110344   7.524   2.006   3.695
 3467TIP3    H210345   7.380   2.052   3.692
 3468TIP3   OH210346   5.519   3.365   3.404
 3468TIP3    H110347   5.519   3.407   3.491
 3468TIP3    H210348   5.530   3.438   3.343
 3469TIP3   OH210349   5.904   1.992   4.007
 3469TIP3    H110350   5.902   1.902   4.037
 3469TIP3    H210351   5.849   2.040   4.070
 3470TIP3   OH210352   1.873   1.330   3.517
 3470TIP3    H110353   1.968   1.318   3.510
 3470TIP3    H210354   1.860   1.363   3.606
 3471TIP3   OH210355   6.781   6.444   3.406
 3471TIP3    H110356   6.777   6.482   3.319
 3471TIP3    H210357   6.718   6.372   3.405
 3472TIP3   OH210358   7.264   0.644   5.797
 3472TIP3    H110359   7.357   0.661   5.814
 3472TIP3    H210360   7.219   0.720   5.834
 3473TIP3   OH210361   2.500   1.240   3.075
 3473TIP3    H110362   2.474   1.235   2.984
 3473TIP3    H210363   2.552   1.320   3.081
 3474TIP3   OH210364   2.671   0.780   2.340
 3474TIP3    H110365   2.595   0.728   2.311
 3474TIP3    H210366   2.673   0.768   2.435
 3475TIP3   OH210367   5.355   6.191   4.322
 3475TIP3    H110368   5.373   6.127   4.390
 3475TIP3    H210369   5.432   6.248   4.322
 3476TIP3   OH210370   2.375   3.681   4.877
 3476TIP3    H110371   2.370   3.627   4.956
 3476TIP3    H210372   2.306   3.747   4.889
 3477TIP3   OH210373   6.373   0.187   6.704
 3477TIP3    H110374   6.456   0.231   6.688
 3477TIP3    H210375   6.385   0.144   6.789
 3478TIP3   OH210376   7.423   0.709   6.214
 3478TIP3    H110377   7.384   0.790   6.185
 3478TIP3    H210378   7.442   0.723   6.307
 3479TIP3   OH210379   4.147   5.392   4.730
 3479TIP3    H110380   4.173   5.413   4.641
 3479TIP3    H210381   4.170   5.471   4.781
 3480TIP3   OH210382   8.000   4.801   3.412
 3480TIP3    H110383   8.034   4.713   3.428
 3480TIP3    H210384   7.980   4.836   3.499
 3481TIP3   OH210385   5.955   6.150   4.622
 3481TIP3    H110386   5.983   6.074   4.673
 3481TIP3    H210387   5.865   6.130   4.596
 3482TIP3   OH210388   6.556   0.572   0.942
 3482TIP3    H110389   6.509   0.512   0.999
 3482TIP3    H210390   6.551   0.532   0.855
 3483TIP3   OH210391   5.970   4.138   3.915
 3483TIP3    H110392   5.881   4.163   3.938
 3483TIP3    H210393   5.987   4.060   3.968
 3484TIP3   OH210394   5.982   6.537   0.797
 3484TIP3    H110395   5.934   6.620   0.793
 3484TIP3    H210396   5.914   6.470   0.791
 3485TIP3   OH210397   3.884   0.457   5.097
 3485TIP3    H110398   3.876   0.552   5.104
 3485TIP3    H210399   3.946   0.443   5.025
 3486TIP3   OH210400   2.009   7.063   4.465
 3486TIP3    H110401   2.068   6.989   4.476
 3486TIP3    H210402   2.052   7.135   4.511
 3487TIP3   OH210403   7.021   3.466   3.076
 3487TIP3    H110404   6.943   3.472   3.131
 3487TIP3    H210405   7.094   3.465   3.139
 3488TIP3   OH210406   7.254   4.799   5.385
 3488TIP3    H110407   7.277   4.731   5.321
 3488TIP3    H210408   7.224   4.872   5.332
 3489TIP3   OH210409   1.688   7.672   3.506
 3489TIP3    H110410   1.747   7.743   3.478
 3489TIP3    H210411   1.600   7.709   3.496
 3490TIP3   OH210412   0.889   2.825   6.626
 3490TIP3    H110413   0.951   2.752   6.614
 3490TIP3    H210414   0.926   2.896   6.574
 3491TIP3   OH210415   4.416   3.811   4.126
 3491TIP3    H110416   4.437   3.782   4.215
 3491TIP3    H210417   4.328   3.848   4.133
 3492TIP3   OH210418   6.161   1.133   3.581
 3492TIP3    H110419   6.146   1.224   3.606
 3492TIP3    H210420   6.188   1.137   3.489
 3493TIP3   OH210421   5.012   5.800   1.678
 3493TIP3    H110422   5.086   5.763   1.630
 3493TIP3    H210423   4.936   5.782   1.622
 3494TIP3   OH210424   5.651   2.632   1.009
 3494TIP3    H110425   5.739   2.646   0.974
 3494TIP3    H210426   5.647   2.538   1.028
 3495TIP3   OH210427   1.151   1.165   4.836
 3495TIP3    H110428   1.122   1.137   4.923
 3495TIP3    H210429   1.160   1.083   4.787
 3496TIP3   OH210430   1.470   4.811   5.605
 3496TIP3    H110431   1.499   4.801   5.515
 3496TIP3    H210432   1.551   4.816   5.656
 3497TIP3   OH210433   3.277   0.319   3.345
 3497TIP3    H110434   3.261   0.227   3.368
 3497TIP3    H210435   3.306   0.315   3.253
 3498TIP3   OH210436   6.512   1.798   6.229
 3498TIP3    H110437   6.535   1.879   6.183
 3498TIP3    H210438   6.420   1.810   6.254
 3499TIP3   OH210439   2.204   5.371   3.443
 3499TIP3    H110440   2.235   5.462   3.441
 3499TIP3    H210441   2.133   5.371   3.506
 3500TIP3   OH210442   4.587   7.794   0.495
 3500TIP3    H110443   4.638   7.732   0.548
 3500TIP3    H210444   4.652   7.846   0.450
 3501TIP3   OH210445   3.574   7.072   4.568
 3501TIP3    H110446   3.642   7.121   4.521
 3501TIP3    H210447   3.575   6.985   4.526
 3502TIP3   OH210448   4.423   6.680   3.317
 3502TIP3    H110449   4.329   6.688   3.303
 3502TIP3    H210450   4.431   6.624   3.394
 3503TIP3   OH210451   0.151   2.995   4.168
 3503TIP3    H110452   0.185   3.005   4.079
 3503TIP3    H210453   0.117   3.082   4.190
 3504TIP3   OH210454   6.396   7.571   0.501
 3504TIP3    H110455   6.457   7.643   0.518
 3504TIP3    H210456   6.413   7.509   0.572
 3505TIP3   OH210457   6.892   6.241   4.017
 3505TIP3    H110458   6.918   6.333   4.026
 3505TIP3    H210459   6.839   6.239   3.937
 3506TIP3   OH210460   5.341   5.123   1.590
 3506TIP3    H110461   5.420   5.069   1.595
 3506TIP3    H210462   5.350   5.185   1.662
 3507TIP3   OH210463   2.173   6.585   1.275
 3507TIP3    H110464   2.195   6.620   1.188
 3507TIP3    H210465   2.181   6.490   1.266
 3508TIP3   OH210466   5.158   2.952   5.192
 3508TIP3    H110467   5.130   2.893   5.262
 3508TIP3    H210468   5.226   3.006   5.232
 3509TIP3   OH210469   2.242   7.261   3.247
 3509TIP3    H110470   2.321   7.263   3.193
 3509TIP3    H210471   2.270   7.220   3.329
 3510TIP3   OH210472   0.373   2.577   3.960
 3510TIP3    H110473   0.316   2.568   3.884
 3510TIP3    H210474   0.315   2.607   4.030
 3511TIP3   OH210475   1.135   1.248   0.899
 3511TIP3    H110476   1.195   1.322   0.899
 3511TIP3    H210477   1.055   1.281   0.858
 3512TIP3   OH210478   3.284   6.029   6.293
 3512TIP3    H110479   3.260   5.962   6.358
 3512TIP3    H210480   3.352   6.080   6.335
 3513TIP3   OH210481   0.353   0.791   2.177
 3513TIP3    H110482   0.281   0.771   2.117
 3513TIP3    H210483   0.311   0.836   2.250
 3514TIP3   OH210484   0.599   0.963   0.878
 3514TIP3    H110485   0.680   0.929   0.841
 3514TIP3    H210486   0.628   1.024   0.946
 3515TIP3   OH210487   5.799   4.351   1.539
 3515TIP3    H110488   5.866   4.346   1.607
 3515TIP3    H210489   5.719   4.374   1.585
 3516TIP3   OH210490   2.072   3.004   0.150
 3516TIP3    H110491   2.030   3.042   0.227
 3516TIP3    H210492   2.153   2.965   0.183
 3517TIP3   OH210493   6.340   5.415   2.632
 3517TIP3    H110494   6.350   5.500   2.588
 3517TIP3    H210495   6.416   5.409   2.690
 3518TIP3   OH210496   6.284   4.877   5.004
 3518TIP3    H110497   6.325   4.961   5.022
 3518TIP3    H210498   6.314   4.820   5.075
 3519TIP3   OH210499   7.802   7.730   0.868
 3519TIP3    H110500   7.864   7.672   0.913
 3519TIP3    H210501   7.824   7.722   0.776
 3520TIP3   OH210502   6.724   2.594   0.815
 3520TIP3    H110503   6.650   2.569   0.760
 3520TIP3    H210504   6.738   2.687   0.797
 3521TIP3   OH210505   1.754   1.672   2.656
 3521TIP3    H110506   1.804   1.614   2.714
 3521TIP3    H210507   1.808   1.680   2.578
 3522TIP3   OH210508   5.469   3.133   1.176
 3522TIP3    H110509   5.478   3.071   1.249
 3522TIP3    H210510   5.545   3.190   1.184
 3523TIP3   OH210511   3.490   3.265   3.366
 3523TIP3    H110512   3.505   3.173   3.347
 3523TIP3    H210513   3.444   3.298   3.289
 3524TIP3   OH210514   4.015   7.178   2.780
 3524TIP3    H110515   3.955   7.212   2.847
 3524TIP3    H210516   4.034   7.088   2.808
 3525TIP3   OH210517   3.095   3.549   0.675
 3525TIP3    H110518   3.021   3.488   0.677
 3525TIP3    H210519   3.054   3.636   0.680
 3526TIP3   OH210520   8.114   1.990   2.813
 3526TIP3    H110521   8.162   1.917   2.852
 3526TIP3    H210522   8.182   2.044   2.772
 3527TIP3   OH210523   0.327   6.597   3.897
 3527TIP3    H110524   0.253   6.602   3.836
 3527TIP3    H210525   0.287   6.586   3.983
 3528TIP3   OH210526   0.508   4.689   3.065
 3528TIP3    H110527   0.482   4.600   3.039
 3528TIP3    H210528   0.461   4.705   3.147
 3529TIP3   OH210529   1.796   1.136   5.015
 3529TIP3    H110530   1.713   1.164   5.054
 3529TIP3    H210531   1.823   1.209   4.960
 3530TIP3   OH210532   3.631   0.670   1.435
 3530TIP3    H110533   3.612   0.632   1.349
 3530TIP3    H210534   3.709   0.623   1.465
 3531TIP3   OH210535   0.810   6.156   1.633
 3531TIP3    H110536   0.833   6.224   1.570
 3531TIP3    H210537   0.892   6.108   1.646
 3532TIP3   OH210538   8.022   0.292   4.068
 3532TIP3    H110539   8.029   0.219   4.130
 3532TIP3    H210540   8.087   0.355   4.098
 3533TIP3   OH210541   3.202   4.468   1.878
 3533TIP3    H110542   3.271   4.530   1.899
 3533TIP3    H210543   3.202   4.406   1.952
 3534TIP3   OH210544   1.859   5.986   0.882
 3534TIP3    H110545   1.800   6.062   0.884
 3534TIP3    H210546   1.804   5.915   0.849
 3535TIP3   OH210547   1.376   3.942   3.868
 3535TIP3    H110548   1.441   3.996   3.913
 3535TIP3    H210549   1.429   3.883   3.814
 3536TIP3   OH210550   7.386   7.799   0.519
 3536TIP3    H110551   7.341   7.795   0.434
 3536TIP3    H210552   7.394   7.892   0.538
 3537TIP3   OH210553   0.279   7.557   1.477
 3537TIP3    H110554   0.268   7.652   1.477
 3537TIP3    H210555   0.237   7.528   1.558
 3538TIP3   OH210556   2.984   6.615   5.024
 3538TIP3    H110557   3.028   6.600   5.108
 3538TIP3    H210558   3.051   6.655   4.969
 3539TIP3   OH210559   0.476   0.044   0.345
 3539TIP3    H110560   0.572   0.042   0.346
 3539TIP3    H210561   0.455   0.136   0.331
 3540TIP3   OH210562   7.165   3.678   5.402
 3540TIP3    H110563   7.136   3.588   5.384
 3540TIP3    H210564   7.235   3.694   5.338
 3541TIP3   OH210565   3.596   4.825   6.584
 3541TIP3    H110566   3.576   4.918   6.587
 3541TIP3    H210567   3.511   4.782   6.589
 3542TIP3   OH210568   6.606   1.647   0.072
 3542TIP3    H110569   6.649   1.660   0.156
 3542TIP3    H210570   6.514   1.666   0.089
 3543TIP3   OH210571   8.232   0.599   3.945
 3543TIP3    H110572   8.304   0.540   3.926
 3543TIP3    H210573   8.180   0.553   4.011
 3544TIP3   OH210574   2.538   6.133   4.795
 3544TIP3    H110575   2.448   6.121   4.763
 3544TIP3    H210576   2.562   6.047   4.830
 3545TIP3   OH210577   4.636   0.566   3.610
 3545TIP3    H110578   4.670   0.511   3.540
 3545TIP3    H210579   4.714   0.593   3.659
 3546TIP3   OH210580   3.527   2.181   1.673
 3546TIP3    H110581   3.504   2.254   1.731
 3546TIP3    H210582   3.546   2.108   1.732
 3547TIP3   OH210583   3.407   6.207   5.451
 3547TIP3    H110584   3.343   6.208   5.523
 3547TIP3    H210585   3.449   6.293   5.456
 3548TIP3   OH210586   5.020   0.400   1.267
 3548TIP3    H110587   5.069   0.320   1.246
 3548TIP3    H210588   4.929   0.380   1.244
 3549TIP3   OH210589   1.569   4.157   0.824
 3549TIP3    H110590   1.567   4.188   0.733
 3549TIP3    H210591   1.634   4.213   0.867
 3550TIP3   OH210592   1.857   1.843   5.335
 3550TIP3    H110593   1.780   1.858   5.391
 3550TIP3    H210594   1.822   1.794   5.260
 3551TIP3   OH210595   0.425   4.513   3.931
 3551TIP3    H110596   0.481   4.472   3.865
 3551TIP3    H210597   0.394   4.593   3.889
 3552TIP3   OH210598   5.541   3.499   6.100
 3552TIP3    H110599   5.637   3.488   6.101
 3552TIP3    H210600   5.526   3.580   6.148
 3553TIP3   OH210601   0.177   1.732   3.335
 3553TIP3    H110602   0.156   1.646   3.370
 3553TIP3    H210603   0.251   1.762   3.387
 3554TIP3   OH210604   3.370   5.243   6.540
 3554TIP3    H110605   3.326   5.320   6.504
 3554TIP3    H210606   3.442   5.226   6.480
 3555TIP3   OH210607   8.167   6.026   1.192
 3555TIP3    H110608   8.201   6.012   1.103
 3555TIP3    H210609   8.214   6.103   1.223
 3556TIP3   OH210610   1.379   5.722   5.490
 3556TIP3    H110611   1.446   5.772   5.536
 3556TIP3    H210612   1.366   5.644   5.544
 3557TIP3   OH210613   1.091   2.777   6.290
 3557TIP3    H110614   1.012   2.805   6.243
 3557TIP3    H210615   1.107   2.689   6.257
 3558TIP3   OH210616   3.617   7.284   5.380
 3558TIP3    H110617   3.572   7.282   5.465
 3558TIP3    H210618   3.568   7.349   5.329
 3559TIP3   OH210619   1.121   4.822   0.505
 3559TIP3    H110620   1.045   4.866   0.544
 3559TIP3    H210621   1.164   4.889   0.452
 3560TIP3   OH210622   4.404   5.475   1.451
 3560TIP3    H110623   4.449   5.391   1.439
 3560TIP3    H210624   4.311   5.452   1.453
 3561TIP3   OH210625   1.878   7.001   5.164
 3561TIP3    H110626   1.959   7.008   5.115
 3561TIP3    H210627   1.827   7.078   5.139
 3562TIP3   OH210628   1.737   7.547   6.268
 3562TIP3    H110629   1.791   7.469   6.283
 3562TIP3    H210630   1.659   7.534   6.322
 3563TIP3   OH210631   0.422   3.531   5.521
 3563TIP3    H110632   0.343   3.579   5.545
 3563TIP3    H210633   0.418   3.451   5.573
 3564TIP3   OH210634   4.491   5.616   5.358
 3564TIP3    H110635   4.422   5.636   5.421
 3564TIP3    H210636   4.484   5.522   5.344
 3565TIP3   OH210637   5.815   1.567   2.116
 3565TIP3    H110638   5.776   1.479   2.118
 3565TIP3    H210639   5.906   1.554   2.140
 3566TIP3   OH210640   2.040   3.924   6.340
 3566TIP3    H110641   2.035   3.951   6.248
 3566TIP3    H210642   2.129   3.888   6.350
 3567TIP3   OH210643   3.218   5.249   1.948
 3567TIP3    H110644   3.202   5.302   2.027
 3567TIP3    H210645   3.209   5.311   1.876
 3568TIP3   OH210646   3.435   4.431   3.691
 3568TIP3    H110647   3.439   4.527   3.691
 3568TIP3    H210648   3.500   4.404   3.627
 3569TIP3   OH210649   5.000   7.307   3.783
 3569TIP3    H110650   5.004   7.218   3.820
 3569TIP3    H210651   5.059   7.358   3.838
 3570TIP3   OH210652   7.307   2.193   0.632
 3570TIP3    H110653   7.245   2.158   0.696
 3570TIP3    H210654   7.378   2.229   0.684
 3571TIP3   OH210655   0.480   5.700   5.667
 3571TIP3    H110656   0.562   5.679   5.712
 3571TIP3    H210657   0.452   5.616   5.629
 3572TIP3   OH210658   5.179   4.856   4.274
 3572TIP3    H110659   5.169   4.812   4.190
 3572TIP3    H210660   5.239   4.928   4.256
 3573TIP3   OH210661   1.294   6.702   4.608
 3573TIP3    H110662   1.288   6.797   4.594
 3573TIP3    H210663   1.303   6.666   4.520
 3574TIP3   OH210664   1.056   2.790   5.660
 3574TIP3    H110665   1.039   2.696   5.655
 3574TIP3    H210666   1.028   2.824   5.576
 3575TIP3   OH210667   7.366   2.957   6.270
 3575TIP3    H110668   7.416   2.996   6.199
 3575TIP3    H210669   7.406   2.871   6.283
 3576TIP3   OH210670   0.967   3.613   0.618
 3576TIP3    H110671   0.886   3.563   0.614
 3576TIP3    H210672   0.958   3.679   0.549
 3577TIP3   OH210673   1.425   5.418   2.240
 3577TIP3    H110674   1.369   5.446   2.312
 3577TIP3    H210675   1.398   5.473   2.166
 3578TIP3   OH210676   0.558   5.622   4.438
 3578TIP3    H110677   0.588   5.541   4.479
 3578TIP3    H210678   0.539   5.680   4.511
 3579TIP3   OH210679   2.432   2.882   6.033
 3579TIP3    H110680   2.399   2.863   5.945
 3579TIP3    H210681   2.527   2.882   6.023
 3580TIP3   OH210682   5.003   1.483   2.030
 3580TIP3    H110683   5.002   1.568   2.074
 3580TIP3    H210684   5.053   1.426   2.089
 3581TIP3   OH210685   1.546   3.462   2.683
 3581TIP3    H110686   1.477   3.450   2.618
 3581TIP3    H210687   1.627   3.464   2.633
 3582TIP3   OH210688   4.984   0.832   1.733
 3582TIP3    H110689   4.967   0.849   1.640
 3582TIP3    H210690   4.960   0.740   1.745
 3583TIP3   OH210691   0.604   6.995   0.880
 3583TIP3    H110692   0.540   7.065   0.895
 3583TIP3    H210693   0.682   7.040   0.848
 3584TIP3   OH210694   1.400   4.857   4.148
 3584TIP3    H110695   1.484   4.887   4.182
 3584TIP3    H210696   1.392   4.898   4.062
 3585TIP3   OH210697   0.634   1.180   4.606
 3585TIP3    H110698   0.675   1.123   4.540
 3585TIP3    H210699   0.702   1.243   4.629
 3586TIP3   OH210700   3.693   0.830   0.914
 3586TIP3    H110701   3.657   0.777   0.843
 3586TIP3    H210702   3.627   0.826   0.983
 3587TIP3   OH210703   0.796   0.149   0.883
 3587TIP3    H110704   0.756   0.063   0.897
 3587TIP3    H210705   0.883   0.130   0.849
 3588TIP3   OH210706   3.611   4.641   2.596
 3588TIP3    H110707   3.699   4.611   2.617
 3588TIP3    H210708   3.619   4.673   2.506
 3589TIP3   OH210709   0.301   2.336   4.095
 3589TIP3    H110710   0.356   2.389   4.152
 3589TIP3    H210711   0.309   2.247   4.129
 3590TIP3   OH210712   4.680   6.392   0.393
 3590TIP3    H110713   4.700   6.317   0.338
 3590TIP3    H210714   4.637   6.354   0.470
 3591TIP3   OH210715   1.002   7.053   0.324
 3591TIP3    H110716   1.049   7.123   0.369
 3591TIP3    H210717   1.047   6.973   0.348
 3592TIP3   OH210718   4.391   0.387   2.566
 3592TIP3    H110719   4.382   0.452   2.635
 3592TIP3    H210720   4.484   0.392   2.541
 3593TIP3   OH210721   6.300   3.677   1.221
 3593TIP3    H110722   6.276   3.607   1.160
 3593TIP3    H210723   6.254   3.754   1.189
 3594TIP3   OH210724   3.916   5.906   5.294
 3594TIP3    H110725   3.835   5.923   5.343
 3594TIP3    H210726   3.974   5.978   5.318
 3595TIP3   OH210727   1.595   5.383   5.046
 3595TIP3    H110728   1.565   5.438   4.974
 3595TIP3    H210729   1.516   5.359   5.094
 3596TIP3   OH210730   3.773   2.776   6.320
 3596TIP3    H110731   3.811   2.744   6.402
 3596TIP3    H210732   3.747   2.697   6.273
 3597TIP3   OH210733   3.009   4.456   4.134
 3597TIP3    H110734   3.095   4.493   4.152
 3597TIP3    H210735   2.962   4.459   4.217
 3598TIP3   OH210736   0.509   4.088   6.695
 3598TIP3    H110737   0.485   4.032   6.621
 3598TIP3    H210738   0.573   4.037   6.744
 3599TIP3   OH210739   6.405   4.471   4.328
 3599TIP3    H110740   6.352   4.536   4.373
 3599TIP3    H210741   6.362   4.387   4.347
 3600TIP3   OH210742   2.805   5.136   1.108
 3600TIP3    H110743   2.768   5.048   1.117
 3600TIP3    H210744   2.734   5.194   1.137
 3601TIP3   OH210745   0.467   0.561   1.230
 3601TIP3    H110746   0.417   0.484   1.202
 3601TIP3    H210747   0.553   0.527   1.253
 3602TIP3   OH210748   7.173   2.919   4.002
 3602TIP3    H110749   7.164   3.006   4.041
 3602TIP3    H210750   7.229   2.933   3.926
 3603TIP3   OH210751   0.451   4.126   3.163
 3603TIP3    H110752   0.364   4.157   3.188
 3603TIP3    H210753   0.470   4.055   3.225
 3604TIP3   OH210754   0.586   1.924   5.448
 3604TIP3    H110755   0.612   1.980   5.521
 3604TIP3    H210756   0.567   1.984   5.377
 3605TIP3   OH210757   7.237   3.922   0.703
 3605TIP3    H110758   7.199   3.996   0.656
 3605TIP3    H210759   7.162   3.865   0.722
 3606TIP3   OH210760   2.939   0.008   2.006
 3606TIP3    H110761   2.857   0.049   1.981
 3606TIP3    H210762   2.992   0.079   2.042
 3607TIP3   OH210763   2.972   4.464   1.071
 3607TIP3    H110764   2.890   4.445   1.118
 3607TIP3    H210765   2.985   4.558   1.082
 3608TIP3   OH210766   6.473   5.934   4.693
 3608TIP3    H110767   6.437   5.903   4.776
 3608TIP3    H210768   6.492   6.026   4.708
 3609TIP3   OH210769   1.189   0.457   3.905
 3609TIP3    H110770   1.223   0.433   3.819
 3609TIP3    H210771   1.196   0.552   3.908
 3610TIP3   OH210772   2.894   3.528   3.867
 3610TIP3    H110773   2.957   3.456   3.860
 3610TIP3    H210774   2.814   3.487   3.901
 3611TIP3   OH210775   8.259   4.490   0.320
 3611TIP3    H110776   8.340   4.528   0.286
 3611TIP3    H210777   8.222   4.441   0.247
 3612TIP3   OH210778   1.632   3.061   6.603
 3612TIP3    H110779   1.684   3.100   6.674
 3612TIP3    H210780   1.557   3.119   6.593
 3613TIP3   OH210781   6.963   3.616   3.651
 3613TIP3    H110782   6.892   3.659   3.602
 3613TIP3    H210783   7.041   3.630   3.597
 3614TIP3   OH210784   8.072   4.075   6.719
 3614TIP3    H110785   8.002   4.039   6.773
 3614TIP3    H210786   8.138   4.104   6.782
 3615TIP3   OH210787   4.550   2.763   5.502
 3615TIP3    H110788   4.616   2.707   5.461
 3615TIP3    H210789   4.492   2.789   5.430
 3616TIP3   OH210790   2.543   5.849   4.841
 3616TIP3    H110791   2.525   5.845   4.747
 3616TIP3    H210792   2.539   5.758   4.871
 3617TIP3   OH210793   4.944   2.424   2.420
 3617TIP3    H110794   4.905   2.394   2.338
 3617TIP3    H210795   4.904   2.370   2.488
 3618TIP3   OH210796   6.704   1.304   4.693
 3618TIP3    H110797   6.720   1.335   4.782
 3618TIP3    H210798   6.639   1.234   4.703
 3619TIP3   OH210799   5.515   7.048   0.776
 3619TIP3    H110800   5.479   6.997   0.704
 3619TIP3    H210801   5.506   6.992   0.853
 3620TIP3   OH210802   0.305   6.581   2.254
 3620TIP3    H110803   0.356   6.563   2.175
 3620TIP3    H210804   0.235   6.639   2.224
 3621TIP3   OH210805   3.985   2.669   4.572
 3621TIP3    H110806   3.944   2.618   4.502
 3621TIP3    H210807   4.064   2.704   4.532
 3622TIP3   OH210808   1.454   5.012   3.929
 3622TIP3    H110809   1.505   4.968   3.860
 3622TIP3    H210810   1.489   5.101   3.931
 3623TIP3   OH210811   0.414   4.604   4.184
 3623TIP3    H110812   0.418   4.562   4.098
 3623TIP3    H210813   0.434   4.534   4.246
 3624TIP3   OH210814   2.895   6.765   4.676
 3624TIP3    H110815   2.911   6.846   4.629
 3624TIP3    H210816   2.855   6.707   4.611
 3625TIP3   OH210817   5.693   7.444   3.160
 3625TIP3    H110818   5.748   7.396   3.222
 3625TIP3    H210819   5.713   7.404   3.075
 3626TIP3   OH210820   3.087   1.836   2.164
 3626TIP3    H110821   3.155   1.902   2.174
 3626TIP3    H210822   3.126   1.770   2.107
 3627TIP3   OH210823   5.201   2.433   1.571
 3627TIP3    H110824   5.164   2.397   1.652
 3627TIP3    H210825   5.125   2.460   1.520
 3628TIP3   OH210826   2.260   2.197   2.760
 3628TIP3    H110827   2.194   2.144   2.805
 3628TIP3    H210828   2.326   2.134   2.733
 3629TIP3   OH210829   7.834   3.773   2.403
 3629TIP3    H110830   7.894   3.848   2.405
 3629TIP3    H210831   7.758   3.804   2.355
 3630TIP3   OH210832   2.174   6.409   5.186
 3630TIP3    H110833   2.218   6.485   5.223
 3630TIP3    H210834   2.209   6.402   5.097
 3631TIP3   OH210835   4.350   5.721   6.587
 3631TIP3    H110836   4.361   5.816   6.597
 3631TIP3    H210837   4.313   5.711   6.499
 3632TIP3   OH210838   0.548   0.204   3.739
 3632TIP3    H110839   0.635   0.164   3.743
 3632TIP3    H210840   0.488   0.133   3.762
 3633TIP3   OH210841   5.871   2.886   4.154
 3633TIP3    H110842   5.859   2.924   4.067
 3633TIP3    H210843   5.823   2.804   4.152
 3634TIP3   OH210844   0.419   3.698   1.899
 3634TIP3    H110845   0.340   3.649   1.919
 3634TIP3    H210846   0.444   3.738   1.982
 3635TIP3   OH210847   3.457   6.943   2.426
 3635TIP3    H110848   3.443   7.010   2.493
 3635TIP3    H210849   3.492   6.991   2.351
 3636TIP3   OH210850   3.685   3.777   2.652
 3636TIP3    H110851   3.762   3.748   2.701
 3636TIP3    H210852   3.719   3.835   2.585
 3637TIP3   OH210853   5.204   2.017   1.114
 3637TIP3    H110854   5.177   2.003   1.205
 3637TIP3    H210855   5.227   2.110   1.111
 3638TIP3   OH210856   6.414   4.219   5.594
 3638TIP3    H110857   6.456   4.209   5.680
 3638TIP3    H210858   6.438   4.141   5.546
 3639TIP3   OH210859   4.671   3.785   2.797
 3639TIP3    H110860   4.730   3.761   2.869
 3639TIP3    H210861   4.659   3.879   2.807
 3640TIP3   OH210862   0.177   0.875   0.714
 3640TIP3    H110863   0.207   0.945   0.771
 3640TIP3    H210864   0.116   0.917   0.653
 3641TIP3   OH210865   0.112   4.447   3.240
 3641TIP3    H110866   0.108   4.355   3.216
 3641TIP3    H210867   0.184   4.452   3.304
 3642TIP3   OH210868   7.111   1.048   3.580
 3642TIP3    H110869   7.067   1.005   3.654
 3642TIP3    H210870   7.145   1.129   3.617
 3643TIP3   OH210871   3.431   7.020   2.134
 3643TIP3    H110872   3.413   7.113   2.116
 3643TIP3    H210873   3.346   6.983   2.159
 3644TIP3   OH210874   0.476   4.867   5.438
 3644TIP3    H110875   0.514   4.952   5.460
 3644TIP3    H210876   0.552   4.811   5.419
 3645TIP3   OH210877   0.875   6.473   4.429
 3645TIP3    H110878   0.872   6.420   4.508
 3645TIP3    H210879   0.968   6.491   4.415
 3646TIP3   OH210880   1.266   3.198   5.268
 3646TIP3    H110881   1.215   3.272   5.301
 3646TIP3    H210882   1.345   3.198   5.321
 3647TIP3   OH210883   8.204   4.733   6.455
 3647TIP3    H110884   8.289   4.720   6.497
 3647TIP3    H210885   8.200   4.663   6.389
 3648TIP3   OH210886   6.715   2.254   4.102
 3648TIP3    H110887   6.636   2.219   4.143
 3648TIP3    H210888   6.712   2.221   4.012
 3649TIP3   OH210889   5.721   4.175   1.329
 3649TIP3    H110890   5.771   4.242   1.375
 3649TIP3    H210891   5.640   4.167   1.380
 3650TIP3   OH210892   4.090   7.350   3.458
 3650TIP3    H110893   4.047   7.288   3.516
 3650TIP3    H210894   4.118   7.298   3.383
 3651TIP3   OH210895   6.982   1.458   4.871
 3651TIP3    H110896   6.923   1.405   4.924
 3651TIP3    H210897   7.035   1.507   4.934
 3652TIP3   OH210898   5.004   1.395   1.303
 3652TIP3    H110899   5.018   1.487   1.325
 3652TIP3    H210900   5.064   1.347   1.361
 3653TIP3   OH210901   7.777   3.903   1.137
 3653TIP3    H110902   7.688   3.869   1.141
 3653TIP3    H210903   7.775   3.967   1.066
 3654TIP3   OH210904   8.108   2.409   2.535
 3654TIP3    H110905   8.103   2.343   2.604
 3654TIP3    H210906   8.021   2.409   2.495
 3655TIP3   OH210907   2.256   0.666   1.558
 3655TIP3    H110908   2.305   0.594   1.518
 3655TIP3    H210909   2.194   0.694   1.491
 3656TIP3   OH210910   7.543   4.888   6.091
 3656TIP3    H110911   7.624   4.902   6.041
 3656TIP3    H210912   7.510   4.976   6.109
 3657TIP3   OH210913   4.038   4.495  -0.008
 3657TIP3    H110914   3.974   4.564  -0.027
 3657TIP3    H210915   4.014   4.463   0.079
 3658TIP3   OH210916   3.764   3.291   3.889
 3658TIP3    H110917   3.854   3.324   3.891
 3658TIP3    H210918   3.754   3.243   3.970
 3659TIP3   OH210919   5.026   4.426   4.995
 3659TIP3    H110920   5.036   4.442   4.901
 3659TIP3    H210921   4.982   4.341   5.000
 3660TIP3   OH210922   7.023   0.942   3.828
 3660TIP3    H110923   7.057   0.890   3.900
 3660TIP3    H210924   6.985   1.020   3.870
 3661TIP3   OH210925   7.268   7.525   2.211
 3661TIP3    H110926   7.351   7.554   2.250
 3661TIP3    H210927   7.202   7.585   2.247
 3662TIP3   OH210928   1.133   7.477   2.669
 3662TIP3    H110929   1.045   7.445   2.653
 3662TIP3    H210930   1.180   7.401   2.705
 3663TIP3   OH210931   6.515   3.359   4.895
 3663TIP3    H110932   6.548   3.271   4.882
 3663TIP3    H210933   6.452   3.373   4.824
 3664TIP3   OH210934   8.149   7.493   0.248
 3664TIP3    H110935   8.197   7.417   0.216
 3664TIP3    H210936   8.137   7.549   0.171
 3665TIP3   OH210937   2.133   7.061   2.663
 3665TIP3    H110938   2.181   7.042   2.582
 3665TIP3    H210939   2.055   7.108   2.634
 3666TIP3   OH210940   1.487   5.711   5.232
 3666TIP3    H110941   1.547   5.638   5.246
 3666TIP3    H210942   1.448   5.728   5.318
 3667TIP3   OH210943   0.487   4.027   2.102
 3667TIP3    H110944   0.450   4.012   2.189
 3667TIP3    H210945   0.478   4.122   2.089
 3668TIP3   OH210946   6.207   4.706   2.376
 3668TIP3    H110947   6.232   4.782   2.323
 3668TIP3    H210948   6.205   4.633   2.315
 3669TIP3   OH210949   2.818   4.162   4.104
 3669TIP3    H110950   2.851   4.074   4.087
 3669TIP3    H210951   2.829   4.173   4.199
 3670TIP3   OH210952   0.198   4.618   0.553
 3670TIP3    H110953   0.159   4.532   0.534
 3670TIP3    H210954   0.139   4.656   0.619
 3671TIP3   OH210955   6.625   3.429   6.518
 3671TIP3    H110956   6.558   3.362   6.509
 3671TIP3    H210957   6.671   3.429   6.434
 3672TIP3   OH210958   3.309   7.564   5.500
 3672TIP3    H110959   3.239   7.503   5.523
 3672TIP3    H210960   3.369   7.561   5.574
 3673TIP3   OH210961   4.620   6.012   6.457
 3673TIP3    H110962   4.531   6.006   6.493
 3673TIP3    H210963   4.608   6.024   6.363
 3674TIP3   OH210964   0.164   7.569   0.210
 3674TIP3    H110965   0.243   7.525   0.241
 3674TIP3    H210966   0.095   7.538   0.269
 3675TIP3   OH210967   7.524   5.091   4.058
 3675TIP3    H110968   7.513   4.998   4.077
 3675TIP3    H210969   7.442   5.117   4.017
 3676TIP3   OH210970   5.235   2.431   4.353
 3676TIP3    H110971   5.156   2.440   4.300
 3676TIP3    H210972   5.213   2.472   4.437
 3677TIP3   OH210973   5.835   3.676   2.669
 3677TIP3    H110974   5.925   3.701   2.691
 3677TIP3    H210975   5.822   3.710   2.581
 3678TIP3   OH210976   0.403   7.144   1.015
 3678TIP3    H110977   0.391   7.090   1.093
 3678TIP3    H210978   0.339   7.214   1.024
 3679TIP3   OH210979   3.922   6.190   5.761
 3679TIP3    H110980   3.845   6.175   5.707
 3679TIP3    H210981   3.887   6.216   5.847
 3680TIP3   OH210982   2.673   6.575   4.335
 3680TIP3    H110983   2.586   6.606   4.308
 3680TIP3    H210984   2.730   6.650   4.317
 3681TIP3   OH210985   6.703   0.366   2.043
 3681TIP3    H110986   6.702   0.304   2.116
 3681TIP3    H210987   6.681   0.314   1.966
 3682TIP3   OH210988   2.034   5.437   0.227
 3682TIP3    H110989   2.050   5.366   0.288
 3682TIP3    H210990   2.005   5.394   0.147
 3683TIP3   OH210991   6.193   0.532   3.225
 3683TIP3    H110992   6.270   0.505   3.276
 3683TIP3    H210993   6.205   0.489   3.140
 3684TIP3   OH210994   1.502   7.764   5.478
 3684TIP3    H110995   1.543   7.819   5.410
 3684TIP3    H210996   1.474   7.827   5.545
 3685TIP3   OH210997   5.900   1.915   2.266
 3685TIP3    H110998   5.875   1.906   2.358
 3685TIP3    H210999   5.961   1.988   2.265
 3686TIP3   OH211000   5.313   3.217   0.699
 3686TIP3    H111001   5.353   3.181   0.779
 3686TIP3    H211002   5.293   3.308   0.721
 3687TIP3   OH211003   5.468   6.234   1.476
 3687TIP3    H111004   5.535   6.227   1.544
 3687TIP3    H211005   5.388   6.202   1.519
 3688TIP3   OH211006   2.702   5.243   5.668
 3688TIP3    H111007   2.760   5.174   5.636
 3688TIP3    H211008   2.758   5.320   5.674
 3689TIP3   OH211009   7.226   6.998   3.914
 3689TIP3    H111010   7.203   6.913   3.878
 3689TIP3    H211011   7.266   6.978   3.999
 3690TIP3   OH211012   7.881   6.307   2.662
 3690TIP3    H111013   7.921   6.278   2.744
 3690TIP3    H211014   7.800   6.256   2.656
 3691TIP3   OH211015   4.906   1.580   1.780
 3691TIP3    H111016   4.813   1.564   1.761
 3691TIP3    H211017   4.919   1.541   1.867
 3692TIP3   OH211018   1.270   2.064   1.737
 3692TIP3    H111019   1.295   2.036   1.825
 3692TIP3    H211020   1.249   1.983   1.691
 3693TIP3   OH211021   1.944   2.111   4.951
 3693TIP3    H111022   1.976   2.178   4.890
 3693TIP3    H211023   1.890   2.159   5.014
 3694TIP3   OH211024   3.461   5.776   1.040
 3694TIP3    H111025   3.467   5.697   0.987
 3694TIP3    H211026   3.381   5.820   1.011
 3695TIP3   OH211027   2.392   3.857   2.365
 3695TIP3    H111028   2.440   3.877   2.445
 3695TIP3    H211029   2.453   3.879   2.294
 3696TIP3   OH211030   0.920   6.585   0.632
 3696TIP3    H111031   0.974   6.646   0.683
 3696TIP3    H211032   0.978   6.510   0.615
 3697TIP3   OH211033   2.482   0.140   0.244
 3697TIP3    H111034   2.513   0.226   0.216
 3697TIP3    H211035   2.562   0.093   0.268
 3698TIP3   OH211036   3.873   2.651   0.755
 3698TIP3    H111037   3.891   2.583   0.691
 3698TIP3    H211038   3.854   2.604   0.836
 3699TIP3   OH211039   4.250   2.356   0.903
 3699TIP3    H111040   4.183   2.305   0.858
 3699TIP3    H211041   4.328   2.300   0.902
 3700TIP3   OH211042   6.871   7.811   2.490
 3700TIP3    H111043   6.877   7.790   2.584
 3700TIP3    H211044   6.889   7.728   2.446
 3701TIP3   OH211045   7.639   4.824   0.789
 3701TIP3    H111046   7.585   4.766   0.844
 3701TIP3    H211047   7.577   4.863   0.728
 3702TIP3   OH211048   0.636   6.382   3.444
 3702TIP3    H111049   0.656   6.335   3.363
 3702TIP3    H211050   0.564   6.332   3.483
 3703TIP3   OH211051   4.302   2.153   2.431
 3703TIP3    H111052   4.250   2.122   2.505
 3703TIP3    H211053   4.335   2.238   2.458
 3704TIP3   OH211054   0.607   7.547   4.278
 3704TIP3    H111055   0.596   7.602   4.356
 3704TIP3    H211056   0.548   7.474   4.291
 3705TIP3   OH211057   4.896   5.056   2.236
 3705TIP3    H111058   4.871   4.985   2.177
 3705TIP3    H211059   4.825   5.059   2.301
 3706TIP3   OH211060   2.426   7.490   0.105
 3706TIP3    H111061   2.353   7.544   0.135
 3706TIP3    H211062   2.394   7.400   0.115
 3707TIP3   OH211063   7.637   1.928   6.473
 3707TIP3    H111064   7.569   1.887   6.526
 3707TIP3    H211065   7.589   1.986   6.414
 3708TIP3   OH211066   3.290   3.083   1.452
 3708TIP3    H111067   3.281   3.134   1.533
 3708TIP3    H211068   3.281   3.148   1.382
 3709TIP3   OH211069   3.671   3.347   6.274
 3709TIP3    H111070   3.605   3.357   6.342
 3709TIP3    H211071   3.686   3.435   6.241
 3710TIP3   OH211072   7.619   3.508   4.021
 3710TIP3    H111073   7.705   3.485   3.985
 3710TIP3    H211074   7.602   3.441   4.087
 3711TIP3   OH211075   0.813   1.229   5.350
 3711TIP3    H111076   0.794   1.144   5.310
 3711TIP3    H211077   0.898   1.218   5.391
 3712TIP3   OH211078   2.586   6.792   1.537
 3712TIP3    H111079   2.681   6.793   1.535
 3712TIP3    H211080   2.561   6.718   1.482
 3713TIP3   OH211081   0.913   2.338   3.320
 3713TIP3    H111082   1.006   2.358   3.333
 3713TIP3    H211083   0.869   2.382   3.393
 3714TIP3   OH211084   6.887   6.934   5.370
 3714TIP3    H111085   6.801   6.893   5.376
 3714TIP3    H211086   6.889   6.996   5.443
 3715TIP3   OH211087   5.214   3.073   3.716
 3715TIP3    H111088   5.301   3.110   3.731
 3715TIP3    H211089   5.157   3.149   3.703
 3716TIP3   OH211090   3.893   7.556   1.990
 3716TIP3    H111091   3.965   7.610   2.021
 3716TIP3    H211092   3.821   7.618   1.977
 3717TIP3   OH211093   0.777   3.754   5.853
 3717TIP3    H111094   0.818   3.786   5.772
 3717TIP3    H211095   0.791   3.825   5.916
 3718TIP3   OH211096   5.642   7.796   3.302
 3718TIP3    H111097   5.734   7.815   3.285
 3718TIP3    H211098   5.640   7.701   3.317
 3719TIP3   OH211099   4.670   6.727   6.269
 3719TIP3    H111100   4.661   6.724   6.364
 3719TIP3    H211101   4.748   6.780   6.253
 3720TIP3   OH211102   3.540   2.815   1.860
 3720TIP3    H111103   3.573   2.760   1.931
 3720TIP3    H211104   3.607   2.809   1.792
 3721TIP3   OH211105   4.893   5.942   6.728
 3721TIP3    H111106   4.986   5.938   6.706
 3721TIP3    H211107   4.866   6.031   6.704
 3722TIP3   OH211108   5.903   5.193   2.695
 3722TIP3    H111109   5.812   5.221   2.690
 3722TIP3    H211110   5.946   5.260   2.747
 3723TIP3   OH211111   4.123   7.135   6.639
 3723TIP3    H111112   4.057   7.106   6.575
 3723TIP3    H211113   4.188   7.182   6.587
 3724TIP3   OH211114   6.042   3.882   4.008
 3724TIP3    H111115   6.052   3.846   4.096
 3724TIP3    H211116   6.130   3.880   3.971
 3725TIP3   OH211117   3.385   4.202   1.078
 3725TIP3    H111118   3.390   4.114   1.042
 3725TIP3    H211119   3.452   4.205   1.146
 3726TIP3   OH211120   0.548   0.047   3.984
 3726TIP3    H111121   0.514   0.094   4.060
 3726TIP3    H211122   0.613   0.107   3.946
 3727TIP3   OH211123   5.013   5.811   6.112
 3727TIP3    H111124   4.936   5.836   6.164
 3727TIP3    H211125   4.984   5.738   6.058
 3728TIP3   OH211126   0.708   6.074   2.739
 3728TIP3    H111127   0.682   6.097   2.828
 3728TIP3    H211128   0.690   6.152   2.688
 3729TIP3   OH211129   5.999   2.369   5.253
 3729TIP3    H111130   6.083   2.325   5.261
 3729TIP3    H211131   5.942   2.305   5.211
 3730TIP3   OH211132   5.804   4.070   5.174
 3730TIP3    H111133   5.780   4.139   5.235
 3730TIP3    H211134   5.777   3.989   5.217
 3731TIP3   OH211135   8.030   5.154   2.783
 3731TIP3    H111136   8.077   5.167   2.700
 3731TIP3    H211137   8.046   5.062   2.804
 3732TIP3   OH211138   5.316   2.142   2.882
 3732TIP3    H111139   5.365   2.160   2.803
 3732TIP3    H211140   5.290   2.050   2.874
 3733TIP3   OH211141   2.232   2.644   3.387
 3733TIP3    H111142   2.262   2.621   3.299
 3733TIP3    H211143   2.291   2.714   3.415
 3734TIP3   OH211144   2.836   0.882   2.805
 3734TIP3    H111145   2.821   0.970   2.840
 3734TIP3    H211146   2.913   0.850   2.852
 3735TIP3   OH211147   7.726   5.217   0.062
 3735TIP3    H111148   7.793   5.151   0.046
 3735TIP3    H211149   7.727   5.272  -0.017
 3736TIP3   OH211150   2.400   6.129   2.385
 3736TIP3    H111151   2.368   6.179   2.310
 3736TIP3    H211152   2.351   6.047   2.383
 3737TIP3   OH211153   6.511   5.686   2.253
 3737TIP3    H111154   6.588   5.687   2.196
 3737TIP3    H211155   6.437   5.686   2.193
 3738TIP3   OH211156   5.142   3.187   0.176
 3738TIP3    H111157   5.230   3.224   0.170
 3738TIP3    H211158   5.083   3.260   0.161
 3739TIP3   OH211159   2.029   4.043   6.593
 3739TIP3    H111160   2.099   4.109   6.581
 3739TIP3    H211161   2.035   3.989   6.514
 3740TIP3   OH211162   0.391   6.475   1.938
 3740TIP3    H111163   0.388   6.528   1.858
 3740TIP3    H211164   0.481   6.444   1.943
 3741TIP3   OH211165   5.521   3.097   0.199
 3741TIP3    H111166   5.445   3.154   0.184
 3741TIP3    H211167   5.576   3.110   0.121
 3742TIP3   OH211168   3.939   6.505   3.209
 3742TIP3    H111169   3.970   6.423   3.246
 3742TIP3    H211170   3.981   6.511   3.123
 3743TIP3   OH211171   3.271   7.074   4.368
 3743TIP3    H111172   3.242   7.146   4.424
 3743TIP3    H211173   3.270   7.111   4.280
 3744TIP3   OH211174   7.159   5.069   0.925
 3744TIP3    H111175   7.187   5.156   0.895
 3744TIP3    H211176   7.146   5.079   1.019
 3745TIP3   OH211177   3.913   1.214   1.066
 3745TIP3    H111178   3.889   1.172   0.984
 3745TIP3    H211179   3.941   1.142   1.122
 3746TIP3   OH211180   5.668   4.936   0.634
 3746TIP3    H111181   5.731   4.878   0.678
 3746TIP3    H211182   5.605   4.959   0.702
 3747TIP3   OH211183   7.959   5.005   6.491
 3747TIP3    H111184   8.024   5.000   6.561
 3747TIP3    H211185   7.884   4.955   6.524
 3748TIP3   OH211186   6.403   6.238   5.902
 3748TIP3    H111187   6.423   6.144   5.905
 3748TIP3    H211188   6.482   6.279   5.868
 3749TIP3   OH211189   7.773   2.181   1.180
 3749TIP3    H111190   7.785   2.272   1.155
 3749TIP3    H211191   7.744   2.185   1.271
 3750TIP3   OH211192   7.721   0.205   1.422
 3750TIP3    H111193   7.665   0.165   1.356
 3750TIP3    H211194   7.779   0.263   1.373
 3751TIP3   OH211195   6.936   5.260   5.518
 3751TIP3    H111196   6.878   5.294   5.587
 3751TIP3    H211197   7.022   5.258   5.559
 3752TIP3   OH211198   1.657   5.890   1.972
 3752TIP3    H111199   1.579   5.875   1.918
 3752TIP3    H211200   1.729   5.850   1.922
 3753TIP3   OH211201   7.769   1.503   5.989
 3753TIP3    H111202   7.703   1.504   6.059
 3753TIP3    H211203   7.758   1.418   5.948
 3754TIP3   OH211204   4.386   6.549   4.338
 3754TIP3    H111205   4.477   6.579   4.340
 3754TIP3    H211206   4.385   6.480   4.273
 3755TIP3   OH211207   1.023   1.013   1.045
 3755TIP3    H111208   1.065   1.079   0.990
 3755TIP3    H211209   1.096   0.970   1.089
 3756TIP3   OH211210   2.082   5.509   5.243
 3756TIP3    H111211   2.029   5.515   5.163
 3756TIP3    H211212   2.036   5.445   5.297
 3757TIP3   OH211213   1.981   4.959   2.478
 3757TIP3    H111214   1.952   4.972   2.568
 3757TIP3    H211215   1.937   4.879   2.450
 3758TIP3   OH211216   3.675   3.114   2.919
 3758TIP3    H111217   3.692   3.194   2.967
 3758TIP3    H211218   3.593   3.131   2.872
 3759TIP3   OH211219   4.895   6.958   2.421
 3759TIP3    H111220   4.822   7.020   2.420
 3759TIP3    H211221   4.923   6.953   2.329
 3760TIP3   OH211222   5.437   2.795   3.811
 3760TIP3    H111223   5.449   2.834   3.725
 3760TIP3    H211224   5.437   2.869   3.872
 3761TIP3   OH211225   5.133   4.675   5.107
 3761TIP3    H111226   5.214   4.685   5.058
 3761TIP3    H211227   5.095   4.594   5.073
 3762TIP3   OH211228   8.244   0.275   0.395
 3762TIP3    H111229   8.227   0.263   0.301
 3762TIP3    H211230   8.274   0.366   0.401
 3763TIP3   OH211231   5.999   6.098   1.983
 3763TIP3    H111232   5.977   6.182   2.022
 3763TIP3    H211233   6.044   6.121   1.902
 3764TIP3   OH211234   7.187   7.005   2.090
 3764TIP3    H111235   7.206   7.022   1.998
 3764TIP3    H211236   7.150   7.086   2.123
 3765TIP3   OH211237   3.277   2.489   3.891
 3765TIP3    H111238   3.195   2.440   3.883
 3765TIP3    H211239   3.255   2.577   3.859
 3766TIP3   OH211240   2.775   5.236   6.108
 3766TIP3    H111241   2.769   5.298   6.035
 3766TIP3    H211242   2.835   5.168   6.078
 3767TIP3   OH211243   6.627   5.293   0.649
 3767TIP3    H111244   6.613   5.235   0.574
 3767TIP3    H211245   6.587   5.376   0.623
 3768TIP3   OH211246   4.859   0.935   4.761
 3768TIP3    H111247   4.885   0.893   4.680
 3768TIP3    H211248   4.910   1.016   4.764
 3769TIP3   OH211249   0.047   2.406   5.177
 3769TIP3    H111250   0.035   2.447   5.092
 3769TIP3    H211251   0.115   2.458   5.220
 3770TIP3   OH211252   5.035   0.947   0.095
 3770TIP3    H111253   5.023   1.042   0.099
 3770TIP3    H211254   5.052   0.929   0.003
 3771TIP3   OH211255   0.907   3.527   0.943
 3771TIP3    H111256   0.981   3.474   0.915
 3771TIP3    H211257   0.864   3.476   1.011
 3772TIP3   OH211258   3.891   5.193   6.483
 3772TIP3    H111259   3.824   5.247   6.443
 3772TIP3    H211260   3.888   5.215   6.576
 3773TIP3   OH211261   7.706   6.818   4.317
 3773TIP3    H111262   7.799   6.805   4.336
 3773TIP3    H211263   7.689   6.757   4.244
 3774TIP3   OH211264   1.749   0.329   3.466
 3774TIP3    H111265   1.830   0.353   3.511
 3774TIP3    H211266   1.777   0.303   3.378
 3775TIP3   OH211267   6.949   1.327   1.364
 3775TIP3    H111268   6.940   1.281   1.281
 3775TIP3    H211269   7.027   1.381   1.354
 3776TIP3   OH211270   1.282   4.182   0.673
 3776TIP3    H111271   1.230   4.239   0.616
 3776TIP3    H211272   1.363   4.167   0.626
 3777TIP3   OH211273   7.740   1.443   4.650
 3777TIP3    H111274   7.688   1.521   4.672
 3777TIP3    H211275   7.675   1.373   4.640
 3778TIP3   OH211276   1.641   3.390   5.486
 3778TIP3    H111277   1.583   3.459   5.454
 3778TIP3    H211278   1.601   3.309   5.455
 3779TIP3   OH211279   0.322   4.707   4.502
 3779TIP3    H111280   0.355   4.620   4.526
 3779TIP3    H211281   0.316   4.705   4.406
 3780TIP3   OH211282   7.742   7.474   0.662
 3780TIP3    H111283   7.705   7.476   0.574
 3780TIP3    H211284   7.827   7.518   0.652
 3781TIP3   OH211285   5.861   3.321   1.121
 3781TIP3    H111286   5.864   3.276   1.037
 3781TIP3    H211287   5.773   3.358   1.125
 3782TIP3   OH211288   4.720   0.416   6.316
 3782TIP3    H111289   4.810   0.435   6.341
 3782TIP3    H211290   4.672   0.417   6.398
 3783TIP3   OH211291   1.522   0.214   4.565
 3783TIP3    H111292   1.564   0.293   4.531
 3783TIP3    H211293   1.478   0.242   4.645
 3784TIP3   OH211294   7.277   5.633   0.014
 3784TIP3    H111295   7.190   5.645  -0.025
 3784TIP3    H211296   7.328   5.591  -0.055
 3785TIP3   OH211297   5.214   0.524   1.385
 3785TIP3    H111298   5.284   0.486   1.332
 3785TIP3    H211299   5.133   0.500   1.339
 3786TIP3   OH211300   3.312   0.228   4.565
 3786TIP3    H111301   3.371   0.153   4.576
 3786TIP3    H211302   3.302   0.264   4.653
 3787TIP3   OH211303   7.561   1.182   5.400
 3787TIP3    H111304   7.613   1.134   5.464
 3787TIP3    H211305   7.479   1.202   5.446
 3788TIP3   OH211306   0.256   1.911   6.001
 3788TIP3    H111307   0.274   2.004   6.012
 3788TIP3    H211308   0.219   1.904   5.913
 3789TIP3   OH211309   2.584   2.666   2.122
 3789TIP3    H111310   2.580   2.593   2.184
 3789TIP3    H211311   2.511   2.650   2.062
 3790TIP3   OH211312   7.496   1.981   0.698
 3790TIP3    H111313   7.479   2.071   0.667
 3790TIP3    H211314   7.500   1.989   0.793
 3791TIP3   OH211315   6.091   0.937   2.753
 3791TIP3    H111316   6.125   0.915   2.839
 3791TIP3    H211317   6.165   0.922   2.694
 3792TIP3   OH211318   2.916   3.269   3.278
 3792TIP3    H111319   2.893   3.312   3.361
 3792TIP3    H211320   2.993   3.316   3.247
 3793TIP3   OH211321   0.646   3.372   2.776
 3793TIP3    H111322   0.725   3.410   2.739
 3793TIP3    H211323   0.652   3.392   2.870
 3794TIP3   OH211324   2.924   2.983   0.407
 3794TIP3    H111325   3.018   2.999   0.399
 3794TIP3    H211326   2.905   2.917   0.340
 3795TIP3   OH211327   2.740   2.921   2.675
 3795TIP3    H111328   2.648   2.946   2.663
 3795TIP3    H211329   2.747   2.905   2.769
 3796TIP3   OH211330   5.380   5.277   2.304
 3796TIP3    H111331   5.356   5.369   2.317
 3796TIP3    H211332   5.301   5.228   2.327
 3797TIP3   OH211333   3.197   5.448   0.542
 3797TIP3    H111334   3.200   5.366   0.593
 3797TIP3    H211335   3.154   5.510   0.601
 3798TIP3   OH211336   0.468   5.688   3.860
 3798TIP3    H111337   0.485   5.691   3.954
 3798TIP3    H211338   0.548   5.723   3.819
 3799TIP3   OH211339   1.994   6.217   6.697
 3799TIP3    H111340   2.051   6.169   6.637
 3799TIP3    H211341   1.952   6.283   6.642
 3800TIP3   OH211342   5.286   6.254   2.249
 3800TIP3    H111343   5.330   6.286   2.328
 3800TIP3    H211344   5.252   6.168   2.273
 3801TIP3   OH211345   5.387   6.176   3.808
 3801TIP3    H111346   5.393   6.142   3.897
 3801TIP3    H211347   5.432   6.261   3.811
 3802TIP3   OH211348   7.079   0.750   2.238
 3802TIP3    H111349   6.984   0.741   2.249
 3802TIP3    H211350   7.107   0.799   2.315
 3803TIP3   OH211351   0.719   1.466   6.530
 3803TIP3    H111352   0.722   1.373   6.553
 3803TIP3    H211353   0.705   1.511   6.613
 3804TIP3   OH211354   5.891   6.781   0.432
 3804TIP3    H111355   5.961   6.717   0.422
 3804TIP3    H211356   5.911   6.849   0.367
 3805TIP3   OH211357   5.925   2.591   3.842
 3805TIP3    H111358   5.904   2.539   3.920
 3805TIP3    H211359   5.921   2.529   3.770
 3806TIP3   OH211360   1.203   6.054   6.079
 3806TIP3    H111361   1.229   6.145   6.062
 3806TIP3    H211362   1.141   6.034   6.009
 3807TIP3   OH211363   5.297   6.326   3.494
 3807TIP3    H111364   5.217   6.320   3.441
 3807TIP3    H211365   5.296   6.415   3.529
 3808TIP3   OH211366   4.728   3.118   0.297
 3808TIP3    H111367   4.734   3.189   0.233
 3808TIP3    H211368   4.659   3.061   0.263
 3809TIP3   OH211369   4.247   1.898   2.300
 3809TIP3    H111370   4.330   1.852   2.315
 3809TIP3    H211371   4.263   1.988   2.327
 3810TIP3   OH211372   1.279   1.577   5.189
 3810TIP3    H111373   1.295   1.504   5.129
 3810TIP3    H211374   1.329   1.649   5.152
 3811TIP3   OH211375   1.304   3.836   6.342
 3811TIP3    H111376   1.322   3.844   6.249
 3811TIP3    H211377   1.353   3.908   6.382
 3812TIP3   OH211378   6.098   4.888   0.541
 3812TIP3    H111379   6.049   4.919   0.617
 3812TIP3    H211380   6.033   4.843   0.487
 3813TIP3   OH211381   1.366   6.838   1.804
 3813TIP3    H111382   1.444   6.843   1.748
 3813TIP3    H211383   1.292   6.840   1.743
 3814TIP3   OH211384   0.880   4.594   6.026
 3814TIP3    H111385   0.947   4.630   5.968
 3814TIP3    H211386   0.893   4.499   6.022
 3815TIP3   OH211387   0.031   5.696   4.390
 3815TIP3    H111388   0.043   5.604   4.415
 3815TIP3    H211389   0.101   5.713   4.327
 3816TIP3   OH211390   1.598   2.678   0.695
 3816TIP3    H111391   1.560   2.728   0.623
 3816TIP3    H211392   1.668   2.734   0.730
 3817TIP3   OH211393   3.092   5.959   3.551
 3817TIP3    H111394   3.097   5.864   3.562
 3817TIP3    H211395   3.018   5.972   3.493
 3818TIP3   OH211396   2.708   0.376   0.617
 3818TIP3    H111397   2.628   0.399   0.570
 3818TIP3    H211398   2.759   0.457   0.617
 3819TIP3   OH211399   5.571   5.245   4.229
 3819TIP3    H111400   5.586   5.336   4.254
 3819TIP3    H211401   5.485   5.246   4.188
 3820TIP3   OH211402   6.980   3.870   5.349
 3820TIP3    H111403   6.955   3.922   5.425
 3820TIP3    H211404   7.033   3.799   5.385
 3821TIP3   OH211405   7.679   2.980   1.936
 3821TIP3    H111406   7.616   2.908   1.940
 3821TIP3    H211407   7.634   3.053   1.978
 3822TIP3   OH211408   6.002   0.351   3.340
 3822TIP3    H111409   6.089   0.366   3.303
 3822TIP3    H211410   6.018   0.333   3.433
 3823TIP3   OH211411   5.238   6.875   6.760
 3823TIP3    H111412   5.181   6.838   6.827
 3823TIP3    H211413   5.272   6.799   6.713
 3824TIP3   OH211414   1.535   4.311   2.973
 3824TIP3    H111415   1.477   4.236   2.963
 3824TIP3    H211416   1.618   4.274   3.003
 3825TIP3   OH211417   2.073   0.640   0.403
 3825TIP3    H111418   2.119   0.611   0.324
 3825TIP3    H211419   1.988   0.598   0.398
 3826TIP3   OH211420   7.195   2.301   2.665
 3826TIP3    H111421   7.138   2.366   2.705
 3826TIP3    H211422   7.181   2.311   2.571
 3827TIP3   OH211423   3.363   5.084   3.561
 3827TIP3    H111424   3.441   5.055   3.514
 3827TIP3    H211425   3.384   5.070   3.653
 3828TIP3   OH211426   2.287   6.521   4.439
 3828TIP3    H111427   2.345   6.488   4.507
 3828TIP3    H211428   2.347   6.553   4.371
 3829TIP3   OH211429   2.346   6.600   2.408
 3829TIP3    H111430   2.314   6.545   2.480
 3829TIP3    H211431   2.379   6.537   2.344
 3830TIP3   OH211432   0.169   7.013   6.487
 3830TIP3    H111433   0.258   7.002   6.455
 3830TIP3    H211434   0.137   7.091   6.442
 3831TIP3   OH211435   7.874   6.554   5.489
 3831TIP3    H111436   7.928   6.478   5.466
 3831TIP3    H211437   7.848   6.538   5.580
 3832TIP3   OH211438   5.780   3.462   2.020
 3832TIP3    H111439   5.684   3.465   2.016
 3832TIP3    H211440   5.805   3.421   1.938
 3833TIP3   OH211441   6.096   0.669   1.558
 3833TIP3    H111442   6.050   0.627   1.631
 3833TIP3    H211443   6.123   0.597   1.502
 3834TIP3   OH211444   7.575   6.465   1.178
 3834TIP3    H111445   7.526   6.534   1.133
 3834TIP3    H211446   7.631   6.512   1.241
 3835TIP3   OH211447   4.314   0.628   2.306
 3835TIP3    H111448   4.286   0.671   2.225
 3835TIP3    H211449   4.288   0.536   2.294
 3836TIP3   OH211450   2.099   2.872   3.507
 3836TIP3    H111451   2.137   2.937   3.449
 3836TIP3    H211452   2.145   2.791   3.486
 3837TIP3   OH211453   7.574   1.827   2.671
 3837TIP3    H111454   7.651   1.838   2.726
 3837TIP3    H211455   7.607   1.837   2.582
 3838TIP3   OH211456   5.714   5.504   2.962
 3838TIP3    H111457   5.674   5.583   2.926
 3838TIP3    H211458   5.643   5.460   3.008
 3839TIP3   OH211459   7.446   6.990   1.306
 3839TIP3    H111460   7.404   7.076   1.304
 3839TIP3    H211461   7.384   6.932   1.261
 3840TIP3   OH211462   0.206   5.779   0.864
 3840TIP3    H111463   0.207   5.736   0.779
 3840TIP3    H211464   0.287   5.749   0.907
 3841TIP3   OH211465   0.804   2.466   3.756
 3841TIP3    H111466   0.872   2.430   3.813
 3841TIP3    H211467   0.733   2.491   3.816
 3842TIP3   OH211468   7.188   3.734   3.503
 3842TIP3    H111469   7.270   3.684   3.506
 3842TIP3    H211470   7.216   3.824   3.491
 3843TIP3   OH211471   1.502   5.601   4.876
 3843TIP3    H111472   1.468   5.661   4.942
 3843TIP3    H211473   1.431   5.539   4.861
 3844TIP3   OH211474   6.438   7.234   3.377
 3844TIP3    H111475   6.475   7.272   3.297
 3844TIP3    H211476   6.349   7.208   3.352
 3845TIP3   OH211477   5.467   4.776   0.236
 3845TIP3    H111478   5.503   4.859   0.268
 3845TIP3    H211479   5.391   4.802   0.184
 3846TIP3   OH211480   2.159   1.968   6.189
 3846TIP3    H111481   2.121   1.881   6.184
 3846TIP3    H211482   2.085   2.025   6.211
 3847TIP3   OH211483   7.388   2.497   0.253
 3847TIP3    H111484   7.431   2.446   0.322
 3847TIP3    H211485   7.308   2.447   0.234
 3848TIP3   OH211486   1.436   2.477   3.865
 3848TIP3    H111487   1.389   2.396   3.843
 3848TIP3    H211488   1.496   2.490   3.791
 3849TIP3   OH211489   6.047   4.069   3.490
 3849TIP3    H111490   6.014   3.983   3.518
 3849TIP3    H211491   6.107   4.095   3.560
 3850TIP3   OH211492   6.910   2.054   5.137
 3850TIP3    H111493   6.928   2.056   5.043
 3850TIP3    H211494   6.955   2.130   5.172
 3851TIP3   OH211495   0.743   3.216   3.467
 3851TIP3    H111496   0.757   3.233   3.560
 3851TIP3    H211497   0.661   3.261   3.447
 3852TIP3   OH211498   8.125   7.216   3.967
 3852TIP3    H111499   8.029   7.216   3.967
 3852TIP3    H211500   8.149   7.184   3.880
 3853TIP3   OH211501   5.601   7.461   5.957
 3853TIP3    H111502   5.569   7.493   5.873
 3853TIP3    H211503   5.659   7.388   5.935
 3854TIP3   OH211504   1.150   7.338   4.162
 3854TIP3    H111505   1.175   7.336   4.069
 3854TIP3    H211506   1.057   7.361   4.161
 3855TIP3   OH211507   0.214   1.358   1.895
 3855TIP3    H111508   0.266   1.435   1.918
 3855TIP3    H211509   0.205   1.362   1.799
 3856TIP3   OH211510   1.731   2.375   3.778
 3856TIP3    H111511   1.712   2.349   3.868
 3856TIP3    H211512   1.809   2.326   3.755
 3857TIP3   OH211513   4.540   0.678   2.485
 3857TIP3    H111514   4.584   0.599   2.518
 3857TIP3    H211515   4.468   0.644   2.432
 3858TIP3   OH211516   5.546   6.975   3.455
 3858TIP3    H111517   5.584   6.941   3.374
 3858TIP3    H211518   5.492   7.049   3.427
 3859TIP3   OH211519   1.680   3.434   4.444
 3859TIP3    H111520   1.654   3.448   4.535
 3859TIP3    H211521   1.668   3.341   4.429
 3860TIP3   OH211522   5.058   6.002   0.158
 3860TIP3    H111523   5.031   6.018   0.249
 3860TIP3    H211524   5.022   5.916   0.137
 3861TIP3   OH211525   5.706   3.622   3.560
 3861TIP3    H111526   5.677   3.703   3.518
 3861TIP3    H211527   5.648   3.613   3.635
 3862TIP3   OH211528   1.258   4.399   0.482
 3862TIP3    H111529   1.352   4.407   0.470
 3862TIP3    H211530   1.236   4.464   0.549
 3863TIP3   OH211531   3.643   6.745   5.958
 3863TIP3    H111532   3.676   6.810   6.021
 3863TIP3    H211533   3.642   6.663   6.007
 3864TIP3   OH211534   3.030   0.859   2.523
 3864TIP3    H111535   3.008   0.771   2.552
 3864TIP3    H211536   3.068   0.847   2.436
 3865TIP3   OH211537   2.844   3.856   6.538
 3865TIP3    H111538   2.890   3.808   6.469
 3865TIP3    H211539   2.780   3.910   6.491
 3866TIP3   OH211540   0.925   1.971   2.514
 3866TIP3    H111541   0.943   1.885   2.478
 3866TIP3    H211542   1.008   2.018   2.508
 3867TIP3   OH211543   1.447   0.044   1.291
 3867TIP3    H111544   1.365  -0.002   1.276
 3867TIP3    H211545   1.466   0.087   1.208
 3868TIP3   OH211546   6.741   2.296   4.865
 3868TIP3    H111547   6.760   2.298   4.958
 3868TIP3    H211548   6.719   2.205   4.846
 3869TIP3   OH211549   1.004   4.316   4.177
 3869TIP3    H111550   1.060   4.273   4.242
 3869TIP3    H211551   0.937   4.361   4.229
 3870TIP3   OH211552   5.120   4.922   1.168
 3870TIP3    H111553   5.080   5.009   1.175
 3870TIP3    H211554   5.113   4.885   1.256
 3871TIP3   OH211555   3.102  -0.005   5.724
 3871TIP3    H111556   3.034   0.060   5.708
 3871TIP3    H211557   3.101  -0.019   5.819
 3872TIP3   OH211558   0.524   5.642   0.243
 3872TIP3    H111559   0.619   5.658   0.246
 3872TIP3    H211560   0.505   5.596   0.324
 3873TIP3   OH211561   8.064   2.991   6.699
 3873TIP3    H111562   8.125   3.007   6.627
 3873TIP3    H211563   8.087   2.904   6.731
 3874TIP3   OH211564   2.166   2.259   2.308
 3874TIP3    H111565   2.144   2.310   2.386
 3874TIP3    H211566   2.115   2.299   2.237
 3875TIP3   OH211567   3.842   1.014   4.009
 3875TIP3    H111568   3.784   0.996   3.934
 3875TIP3    H211569   3.786   1.003   4.086
 3876TIP3   OH211570   1.993   3.204   3.361
 3876TIP3    H111571   1.946   3.203   3.444
 3876TIP3    H211572   1.939   3.257   3.302
 3877TIP3   OH211573   2.761   1.912   0.472
 3877TIP3    H111574   2.676   1.871   0.457
 3877TIP3    H211575   2.786   1.884   0.560
 3878TIP3   OH211576   1.976   1.925   6.635
 3878TIP3    H111577   2.057   1.936   6.585
 3878TIP3    H211578   2.003   1.932   6.726
 3879TIP3   OH211579   3.780   4.476   3.762
 3879TIP3    H111580   3.765   4.456   3.670
 3879TIP3    H211581   3.867   4.439   3.781
 3880TIP3   OH211582   6.912   1.063   2.962
 3880TIP3    H111583   6.910   1.141   3.017
 3880TIP3    H211584   6.829   1.018   2.981
 3881TIP3   OH211585   7.947   4.591   3.586
 3881TIP3    H111586   7.937   4.668   3.642
 3881TIP3    H211587   7.869   4.538   3.604
 3882TIP3   OH211588   3.400   4.727   2.775
 3882TIP3    H111589   3.471   4.699   2.717
 3882TIP3    H211590   3.420   4.818   2.795
 3883TIP3   OH211591   1.858   2.901   5.421
 3883TIP3    H111592   1.828   2.813   5.444
 3883TIP3    H211593   1.790   2.959   5.456
 3884TIP3   OH211594   7.398   6.936   5.225
 3884TIP3    H111595   7.377   7.002   5.159
 3884TIP3    H211596   7.494   6.937   5.230
 3885TIP3   OH211597   5.679   2.898   6.023
 3885TIP3    H111598   5.650   2.930   5.937
 3885TIP3    H211599   5.748   2.835   6.003
 3886TIP3   OH211600   5.865   2.019   6.368
 3886TIP3    H111601   5.858   2.081   6.440
 3886TIP3    H211602   5.858   1.933   6.409
 3887TIP3   OH211603   1.263   0.937   5.065
 3887TIP3    H111604   1.249   0.905   4.976
 3887TIP3    H211605   1.257   0.859   5.120
 3888TIP3   OH211606   6.479   1.786   0.479
 3888TIP3    H111607   6.400   1.740   0.506
 3888TIP3    H211608   6.526   1.723   0.424
 3889TIP3   OH211609   1.547   5.176   2.197
 3889TIP3    H111610   1.591   5.202   2.116
 3889TIP3    H211611   1.487   5.248   2.216
 3890TIP3   OH211612   1.066   7.314   5.625
 3890TIP3    H111613   1.065   7.220   5.642
 3890TIP3    H211614   1.123   7.350   5.693
 3891TIP3   OH211615   0.122   6.080   6.531
 3891TIP3    H111616   0.083   6.097   6.445
 3891TIP3    H211617   0.064   6.015   6.571
 3892TIP3   OH211618   2.613   3.983   3.773
 3892TIP3    H111619   2.700   3.974   3.811
 3892TIP3    H211620   2.614   4.069   3.730
 3893TIP3   OH211621   0.766   5.618   4.869
 3893TIP3    H111622   0.788   5.533   4.831
 3893TIP3    H211623   0.838   5.636   4.930
 3894TIP3   OH211624   1.696   1.985   0.467
 3894TIP3    H111625   1.762   1.921   0.495
 3894TIP3    H211626   1.747   2.062   0.441
 3895TIP3   OH211627   1.589   6.587   0.064
 3895TIP3    H111628   1.595   6.609   0.157
 3895TIP3    H211629   1.505   6.543   0.055
 3896TIP3   OH211630   5.648   0.411   4.709
 3896TIP3    H111631   5.638   0.316   4.706
 3896TIP3    H211632   5.742   0.425   4.714
 3897TIP3   OH211633   4.213   4.187   3.672
 3897TIP3    H111634   4.218   4.123   3.601
 3897TIP3    H211635   4.301   4.223   3.678
 3898TIP3   OH211636   5.546   0.238   0.089
 3898TIP3    H111637   5.526   0.270   0.177
 3898TIP3    H211638   5.641   0.227   0.088
 3899TIP3   OH211639   4.159   6.934   1.575
 3899TIP3    H111640   4.090   6.871   1.554
 3899TIP3    H211641   4.113   7.010   1.611
 3900TIP3   OH211642   8.305   5.658   1.982
 3900TIP3    H111643   8.219   5.616   1.987
 3900TIP3    H211644   8.293   5.728   1.917
 3901TIP3   OH211645   0.274   4.298   4.936
 3901TIP3    H111646   0.281   4.258   4.849
 3901TIP3    H211647   0.184   4.331   4.939
 3902TIP3   OH211648   5.406   6.714   2.585
 3902TIP3    H111649   5.500   6.727   2.584
 3902TIP3    H211650   5.392   6.632   2.631
 3903TIP3   OH211651   6.975   2.903   4.351
 3903TIP3    H111652   6.946   2.815   4.329
 3903TIP3    H211653   6.963   2.910   4.446
 3904TIP3   OH211654   2.151   6.093   6.040
 3904TIP3    H111655   2.159   6.040   6.119
 3904TIP3    H211656   2.058   6.090   6.018
 3905TIP3   OH211657   4.060   5.249   6.119
 3905TIP3    H111658   4.108   5.199   6.185
 3905TIP3    H211659   3.986   5.193   6.094
 3906TIP3   OH211660   7.136   4.743   0.838
 3906TIP3    H111661   7.110   4.671   0.896
 3906TIP3    H211662   7.180   4.700   0.765
 3907TIP3   OH211663   6.663   3.071   0.770
 3907TIP3    H111664   6.676   3.154   0.816
 3907TIP3    H211665   6.626   3.095   0.685
 3908TIP3   OH211666   4.287   3.941   2.736
 3908TIP3    H111667   4.232   3.990   2.797
 3908TIP3    H211668   4.342   4.007   2.694
 3909TIP3   OH211669   2.132   2.943   1.727
 3909TIP3    H111670   2.042   2.936   1.696
 3909TIP3    H211671   2.126   2.938   1.822
 3910TIP3   OH211672   6.039   7.784   2.617
 3910TIP3    H111673   6.038   7.696   2.654
 3910TIP3    H211674   5.948   7.803   2.598
 3911TIP3   OH211675   5.097   1.013   3.063
 3911TIP3    H111676   5.026   1.041   3.120
 3911TIP3    H211677   5.156   1.087   3.059
 3912TIP3   OH211678   3.243   4.798   3.529
 3912TIP3    H111679   3.302   4.848   3.473
 3912TIP3    H211680   3.292   4.785   3.610
 3913TIP3   OH211681   4.469   4.494   3.822
 3913TIP3    H111682   4.380   4.525   3.839
 3913TIP3    H211683   4.460   4.433   3.749
 3914TIP3   OH211684   1.366   1.345   4.121
 3914TIP3    H111685   1.333   1.286   4.189
 3914TIP3    H211686   1.459   1.355   4.141
 3915TIP3   OH211687   2.274   1.554   5.317
 3915TIP3    H111688   2.323   1.481   5.280
 3915TIP3    H211689   2.182   1.528   5.308
 3916TIP3   OH211690   4.666   1.979   0.409
 3916TIP3    H111691   4.670   2.048   0.343
 3916TIP3    H211692   4.575   1.981   0.440
 3917TIP3   OH211693   2.053   2.068   2.886
 3917TIP3    H111694   2.014   1.993   2.842
 3917TIP3    H211695   2.002   2.078   2.967
 3918TIP3   OH211696   3.178   0.780   5.257
 3918TIP3    H111697   3.199   0.836   5.332
 3918TIP3    H211698   3.197   0.835   5.181
 3919TIP3   OH211699   4.818   2.021   4.158
 3919TIP3    H111700   4.863   1.946   4.198
 3919TIP3    H211701   4.886   2.088   4.150
 3920TIP3   OH211702   7.093   5.833   4.023
 3920TIP3    H111703   7.092   5.928   4.011
 3920TIP3    H211704   7.094   5.822   4.118
 3921TIP3   OH211705   2.356   4.704   3.105
 3921TIP3    H111706   2.296   4.777   3.119
 3921TIP3    H211707   2.349   4.685   3.011
 3922TIP3   OH211708   4.426   3.040   0.046
 3922TIP3    H111709   4.489   2.968   0.042
 3922TIP3    H211710   4.343   2.998   0.070
 3923TIP3   OH211711   6.223   5.455   0.450
 3923TIP3    H111712   6.227   5.527   0.387
 3923TIP3    H211713   6.153   5.480   0.510
 3924TIP3   OH211714   4.953   5.852   1.112
 3924TIP3    H111715   5.013   5.818   1.178
 3924TIP3    H211716   5.009   5.889   1.044
 3925TIP3   OH211717   2.469   6.158   5.342
 3925TIP3    H111718   2.452   6.236   5.290
 3925TIP3    H211719   2.382   6.129   5.369
 3926TIP3   OH211720   4.398   4.521   3.393
 3926TIP3    H111721   4.349   4.521   3.310
 3926TIP3    H211722   4.451   4.600   3.389
 3927TIP3   OH211723   5.344   5.711   3.295
 3927TIP3    H111724   5.293   5.689   3.373
 3927TIP3    H211725   5.294   5.675   3.222
 3928TIP3   OH211726   3.587  -0.009   2.547
 3928TIP3    H111727   3.574   0.084   2.528
 3928TIP3    H211728   3.619  -0.046   2.466
 3929TIP3   OH211729   5.698   2.846   0.110
 3929TIP3    H111730   5.700   2.925   0.056
 3929TIP3    H211731   5.747   2.781   0.059
 3930TIP3   OH211732   3.107   3.042   5.105
 3930TIP3    H111733   3.067   2.982   5.168
 3930TIP3    H211734   3.043   3.049   5.034
 3931TIP3   OH211735   1.477   0.629   0.748
 3931TIP3    H111736   1.416   0.628   0.821
 3931TIP3    H211737   1.498   0.721   0.735
 3932TIP3   OH211738   8.049   6.047   3.646
 3932TIP3    H111739   8.010   6.128   3.613
 3932TIP3    H211740   8.143   6.066   3.651
 3933TIP3   OH211741   3.939   4.313   6.509
 3933TIP3    H111742   3.859   4.319   6.561
 3933TIP3    H211743   4.000   4.265   6.564
 3934TIP3   OH211744   2.770   3.625   2.154
 3934TIP3    H111745   2.768   3.585   2.067
 3934TIP3    H211746   2.853   3.673   2.156
 3935TIP3   OH211747   4.957   6.339   3.682
 3935TIP3    H111748   4.883   6.348   3.741
 3935TIP3    H211749   5.030   6.315   3.739
 3936TIP3   OH211750   5.052   0.006   5.854
 3936TIP3    H111751   5.103   0.038   5.929
 3936TIP3    H211752   4.970  -0.025   5.892
 3937TIP3   OH211753   5.921   6.255   5.803
 3937TIP3    H111754   5.914   6.349   5.821
 3937TIP3    H211755   5.993   6.225   5.859
 3938TIP3   OH211756   4.551   2.868   3.907
 3938TIP3    H111757   4.603   2.906   3.978
 3938TIP3    H211758   4.486   2.935   3.887
 3939TIP3   OH211759   7.254   5.395   0.573
 3939TIP3    H111760   7.169   5.351   0.582
 3939TIP3    H211761   7.309   5.331   0.528
 3940TIP3   OH211762   2.779   2.679   3.196
 3940TIP3    H111763   2.699   2.666   3.248
 3940TIP3    H211764   2.803   2.591   3.166
 3941TIP3   OH211765   6.135   7.418   5.416
 3941TIP3    H111766   6.156   7.368   5.495
 3941TIP3    H211767   6.190   7.379   5.348
 3942TIP3   OH211768   0.402   3.752   3.339
 3942TIP3    H111769   0.461   3.726   3.410
 3942TIP3    H211770   0.459   3.777   3.267
 3943TIP3   OH211771   7.768   5.960   4.709
 3943TIP3    H111772   7.796   6.042   4.667
 3943TIP3    H211773   7.824   5.952   4.786
 3944TIP3   OH211774   4.406   7.230   0.435
 3944TIP3    H111775   4.456   7.297   0.388
 3944TIP3    H211776   4.463   7.205   0.508
 3945TIP3   OH211777   0.883   1.403   3.900
 3945TIP3    H111778   0.968   1.443   3.922
 3945TIP3    H211779   0.848   1.373   3.984
 3946TIP3   OH211780   5.711   5.062   0.089
 3946TIP3    H111781   5.803   5.084   0.103
 3946TIP3    H211782   5.678   5.041   0.177
 3947TIP3   OH211783   2.224   1.582   6.348
 3947TIP3    H111784   2.271   1.536   6.417
 3947TIP3    H211785   2.134   1.550   6.355
 3948TIP3   OH211786   6.441   3.369   4.628
 3948TIP3    H111787   6.408   3.282   4.608
 3948TIP3    H211788   6.503   3.388   4.558
 3949TIP3   OH211789   2.826   1.261   0.470
 3949TIP3    H111790   2.760   1.221   0.526
 3949TIP3    H211791   2.784   1.340   0.435
 3950TIP3   OH211792   0.632   6.575   2.914
 3950TIP3    H111793   0.544   6.557   2.880
 3950TIP3    H211794   0.675   6.489   2.913
 3951TIP3   OH211795   1.764   2.251   1.250
 3951TIP3    H111796   1.699   2.216   1.310
 3951TIP3    H211797   1.741   2.214   1.165
 3952TIP3   OH211798   1.407   4.283   3.312
 3952TIP3    H111799   1.423   4.189   3.319
 3952TIP3    H211800   1.334   4.291   3.250
 3953TIP3   OH211801   4.308   3.432   0.926
 3953TIP3    H111802   4.239   3.369   0.907
 3953TIP3    H211803   4.366   3.429   0.850
 3954TIP3   OH211804   8.051   7.506   1.516
 3954TIP3    H111805   8.083   7.417   1.528
 3954TIP3    H211806   7.966   7.507   1.560
 3955TIP3   OH211807   0.926   6.091   3.736
 3955TIP3    H111808   0.871   6.013   3.730
 3955TIP3    H211809   0.896   6.136   3.815
 3956TIP3   OH211810   7.843   4.002   3.353
 3956TIP3    H111811   7.917   4.020   3.411
 3956TIP3    H211812   7.776   4.066   3.379
 3957TIP3   OH211813   5.135   4.801   2.315
 3957TIP3    H111814   5.084   4.849   2.250
 3957TIP3    H211815   5.219   4.846   2.317
 3958TIP3   OH211816   4.013   5.665   0.032
 3958TIP3    H111817   4.057   5.688  -0.050
 3958TIP3    H211818   4.017   5.744   0.085
 3959TIP3   OH211819   3.890   6.905   1.740
 3959TIP3    H111820   3.940   6.877   1.817
 3959TIP3    H211821   3.844   6.984   1.768
 3960TIP3   OH211822   3.000   7.203   1.928
 3960TIP3    H111823   2.950   7.257   1.990
 3960TIP3    H211824   3.042   7.266   1.870
 3961TIP3   OH211825   4.212   2.296   6.706
 3961TIP3    H111826   4.172   2.365   6.758
 3961TIP3    H211827   4.185   2.215   6.749
 3962TIP3   OH211828   2.438   0.902   1.493
 3962TIP3    H111829   2.456   0.810   1.515
 3962TIP3    H211830   2.396   0.897   1.407
 3963TIP3   OH211831   1.571   3.718   5.639
 3963TIP3    H111832   1.506   3.660   5.600
 3963TIP3    H211833   1.602   3.671   5.716
 3964TIP3   OH211834   0.083  -0.019   5.360
 3964TIP3    H111835   0.103   0.075   5.361
 3964TIP3    H211836  -0.012  -0.024   5.369
 3965TIP3   OH211837   5.243   7.652   6.268
 3965TIP3    H111838   5.285   7.574   6.304
 3965TIP3    H211839   5.152   7.645   6.296
 3966TIP3   OH211840   6.484   0.149   0.185
 3966TIP3    H111841   6.465   0.066   0.140
 3966TIP3    H211842   6.578   0.161   0.173
 3967TIP3   OH211843   5.156   7.052   2.131
 3967TIP3    H111844   5.203   7.077   2.051
 3967TIP3    H211845   5.132   7.136   2.171
 3968TIP3   OH211846   7.494   5.550   0.301
 3968TIP3    H111847   7.571   5.559   0.357
 3968TIP3    H211848   7.430   5.609   0.340
 3969TIP3   OH211849   0.815   0.971   3.733
 3969TIP3    H111850   0.744   0.933   3.785
 3969TIP3    H211851   0.892   0.919   3.756
 3970TIP3   OH211852   6.126   1.922   4.513
 3970TIP3    H111853   6.137   1.835   4.475
 3970TIP3    H211854   6.032   1.927   4.534
 3971TIP3   OH211855   7.407   4.418   2.471
 3971TIP3    H111856   7.404   4.421   2.376
 3971TIP3    H211857   7.362   4.498   2.499
 3972TIP3   OH211858   8.096   3.439   3.203
 3972TIP3    H111859   8.082   3.345   3.209
 3972TIP3    H211860   8.015   3.473   3.165
 3973TIP3   OH211861   6.967   1.625   3.443
 3973TIP3    H111862   7.008   1.712   3.438
 3973TIP3    H211863   6.882   1.641   3.483
 3974TIP3   OH211864   5.604   1.687   1.143
 3974TIP3    H111865   5.663   1.690   1.218
 3974TIP3    H211866   5.662   1.676   1.067
 3975TIP3   OH211867   4.434   1.305   5.028
 3975TIP3    H111868   4.392   1.340   4.949
 3975TIP3    H211869   4.416   1.371   5.095
 3976TIP3   OH211870   3.595   4.189   3.849
 3976TIP3    H111871   3.530   4.204   3.781
 3976TIP3    H211872   3.672   4.157   3.802
 3977TIP3   OH211873   6.777   5.054   1.468
 3977TIP3    H111874   6.781   5.147   1.490
 3977TIP3    H211875   6.808   5.050   1.377
 3978TIP3   OH211876   0.243   5.817   5.398
 3978TIP3    H111877   0.286   5.892   5.439
 3978TIP3    H211878   0.203   5.852   5.318
 3979TIP3   OH211879   3.264   2.959   5.532
 3979TIP3    H111880   3.248   2.865   5.544
 3979TIP3    H211881   3.326   2.982   5.601
 3980TIP3   OH211882   0.362   1.436   5.429
 3980TIP3    H111883   0.386   1.527   5.445
 3980TIP3    H211884   0.442   1.386   5.449
 3981TIP3   OH211885   3.713   6.967   0.955
 3981TIP3    H111886   3.734   6.974   0.862
 3981TIP3    H211887   3.641   6.903   0.958
 3982TIP3   OH211888   0.960   7.555   4.386
 3982TIP3    H111889   1.044   7.513   4.399
 3982TIP3    H211890   0.923   7.512   4.309
 3983TIP3   OH211891   3.238   4.677   2.477
 3983TIP3    H111892   3.305   4.746   2.473
 3983TIP3    H211893   3.198   4.688   2.563
 3984TIP3   OH211894   0.080   3.028   5.978
 3984TIP3    H111895   0.157   2.972   5.992
 3984TIP3    H211896   0.116   3.110   5.945
 3985TIP3   OH211897   2.309   5.182   3.613
 3985TIP3    H111898   2.389   5.129   3.609
 3985TIP3    H211899   2.317   5.244   3.541
 3986TIP3   OH211900   3.463   1.102   0.941
 3986TIP3    H111901   3.413   1.175   0.977
 3986TIP3    H211902   3.546   1.104   0.989
 3987TIP3   OH211903   4.581   5.056   0.525
 3987TIP3    H111904   4.659   5.028   0.477
 3987TIP3    H211905   4.596   5.025   0.614
 3988TIP3   OH211906   4.729   3.978   0.490
 3988TIP3    H111907   4.778   4.058   0.507
 3988TIP3    H211908   4.638   4.005   0.486
 3989TIP3   OH211909   2.671   2.047   4.341
 3989TIP3    H111910   2.753   2.086   4.373
 3989TIP3    H211911   2.681   1.953   4.356
 3990TIP3   OH211912   1.551   5.487   6.451
 3990TIP3    H111913   1.611   5.538   6.397
 3990TIP3    H211914   1.465   5.502   6.413
 3991TIP3   OH211915   1.296   5.736   3.416
 3991TIP3    H111916   1.213   5.771   3.448
 3991TIP3    H211917   1.272   5.659   3.366
 3992TIP3   OH211918   3.633   4.199   1.203
 3992TIP3    H111919   3.689   4.208   1.126
 3992TIP3    H211920   3.625   4.105   1.216
 3993TIP3   OH211921   3.156   0.719   1.924
 3993TIP3    H111922   3.071   0.711   1.882
 3993TIP3    H211923   3.157   0.809   1.958
 3994TIP3   OH211924   7.572   3.331   6.422
 3994TIP3    H111925   7.619   3.253   6.450
 3994TIP3    H211926   7.606   3.401   6.478
 3995TIP3   OH211927   7.116   5.496   1.979
 3995TIP3    H111928   7.126   5.520   2.071
 3995TIP3    H211929   7.055   5.560   1.944
 3996TIP3   OH211930   4.713   3.260   1.896
 3996TIP3    H111931   4.650   3.331   1.910
 3996TIP3    H211932   4.742   3.237   1.984
 3997TIP3   OH211933   2.908   2.403   1.166
 3997TIP3    H111934   2.946   2.471   1.222
 3997TIP3    H211935   2.857   2.348   1.226
 3998TIP3   OH211936   4.725   6.917   4.384
 3998TIP3    H111937   4.652   6.946   4.329
 3998TIP3    H211938   4.699   6.941   4.473
 3999TIP3   OH211939   2.455   1.916   4.575
 3999TIP3    H111940   2.493   1.872   4.498
 3999TIP3    H211941   2.442   1.846   4.638
 4000TIP3   OH211942   2.279   3.384   6.748
 4000TIP3    H111943   2.354   3.415   6.798
 4000TIP3    H211944   2.317   3.330   6.679
 4001TIP3   OH211945   2.771   3.424   1.003
 4001TIP3    H111946   2.753   3.441   1.095
 4001TIP3    H211947   2.748   3.332   0.991
 4002TIP3   OH211948   7.397   3.350   4.710
 4002TIP3    H111949   7.461   3.421   4.706
 4002TIP3    H211950   7.314   3.391   4.684
 4003TIP3   OH211951   3.226   0.113   5.977
 4003TIP3    H111952   3.169   0.182   5.942
 4003TIP3    H211953   3.290   0.159   6.031
 4004TIP3   OH211954   0.514   4.021   3.427
 4004TIP3    H111955   0.528   3.929   3.452
 4004TIP3    H211956   0.598   4.049   3.390
 4005TIP3   OH211957   7.480   1.034   0.736
 4005TIP3    H111958   7.486   0.999   0.647
 4005TIP3    H211959   7.570   1.054   0.760
 4006TIP3   OH211960   1.339   3.518   2.057
 4006TIP3    H111961   1.247   3.494   2.057
 4006TIP3    H211962   1.384   3.441   2.022
 4007TIP3   OH211963   3.797   1.207   3.333
 4007TIP3    H111964   3.746   1.134   3.369
 4007TIP3    H211965   3.862   1.164   3.277
 4008TIP3   OH211966   0.272   4.323   2.162
 4008TIP3    H111967   0.364   4.346   2.148
 4008TIP3    H211968   0.266   4.302   2.255
 4009TIP3   OH211969   7.703   1.434   1.184
 4009TIP3    H111970   7.786   1.422   1.137
 4009TIP3    H211971   7.702   1.365   1.249
 4010TIP3   OH211972   0.541   6.239   0.768
 4010TIP3    H111973   0.500   6.208   0.848
 4010TIP3    H211974   0.631   6.207   0.773
 4011TIP3   OH211975   4.557   2.510   1.069
 4011TIP3    H111976   4.644   2.486   1.037
 4011TIP3    H211977   4.508   2.531   0.989
 4012TIP3   OH211978   7.134   7.691   3.829
 4012TIP3    H111979   7.163   7.781   3.816
 4012TIP3    H211980   7.065   7.678   3.764
 4013TIP3   OH211981   3.063   1.036   1.069
 4013TIP3    H111982   2.972   1.028   1.097
 4013TIP3    H211983   3.114   0.993   1.139
 4014TIP3   OH211984   0.178   2.014   3.875
 4014TIP3    H111985   0.186   1.965   3.957
 4014TIP3    H211986   0.164   2.105   3.903
 4015TIP3   OH211987   0.418   3.009   1.891
 4015TIP3    H111988   0.429   3.093   1.845
 4015TIP3    H211989   0.453   3.025   1.978
 4016TIP3   OH211990   1.363   7.260   3.776
 4016TIP3    H111991   1.456   7.242   3.794
 4016TIP3    H211992   1.351   7.235   3.685
 4017TIP3   OH211993   0.389   6.843   0.930
 4017TIP3    H111994   0.475   6.881   0.916
 4017TIP3    H211995   0.328   6.917   0.920
 4018TIP3   OH211996   1.116   3.693   4.016
 4018TIP3    H111997   1.052   3.763   4.007
 4018TIP3    H211998   1.177   3.725   4.083
 4019TIP3   OH211999   6.399   0.733   5.425
 4019TIP3    H112000   6.312   0.695   5.439
 4019TIP3    H212001   6.429   0.758   5.513
 4020TIP3   OH212002   7.824   6.853   4.848
 4020TIP3    H112003   7.864   6.832   4.764
 4020TIP3    H212004   7.815   6.949   4.848
 4021TIP3   OH212005   7.063   3.125   3.735
 4021TIP3    H112006   7.141   3.070   3.720
 4021TIP3    H212007   7.080   3.205   3.685
 4022TIP3   OH212008   2.312   4.822   4.288
 4022TIP3    H112009   2.335   4.915   4.296
 4022TIP3    H212010   2.395   4.779   4.264
 4023TIP3   OH212011   7.747   0.547   4.583
 4023TIP3    H112012   7.744   0.597   4.502
 4023TIP3    H212013   7.833   0.504   4.582
 4024TIP3   OH212014   5.587   4.220   5.958
 4024TIP3    H112015   5.635   4.242   6.038
 4024TIP3    H212016   5.597   4.126   5.950
 4025TIP3   OH212017   6.653   2.890   4.657
 4025TIP3    H112018   6.696   2.879   4.742
 4025TIP3    H212019   6.645   2.801   4.623
 4026TIP3   OH212020   6.496   4.752   3.351
 4026TIP3    H112021   6.512   4.830   3.404
 4026TIP3    H212022   6.453   4.784   3.272
 4027TIP3   OH212023   3.782   1.972   3.093
 4027TIP3    H112024   3.803   2.040   3.028
 4027TIP3    H212025   3.701   2.003   3.134
 4028TIP3   OH212026   1.834   7.490   5.868
 4028TIP3    H112027   1.870   7.549   5.802
 4028TIP3    H212028   1.909   7.468   5.923
 4029TIP3   OH212029   8.077   1.234   1.814
 4029TIP3    H112030   8.167   1.253   1.785
 4029TIP3    H212031   8.060   1.299   1.881
 4030TIP3   OH212032   2.488   4.490   4.525
 4030TIP3    H112033   2.413   4.494   4.584
 4030TIP3    H212034   2.465   4.423   4.461
 4031TIP3   OH212035   3.223   2.233   0.947
 4031TIP3    H112036   3.267   2.272   1.022
 4031TIP3    H212037   3.180   2.155   0.982
 4032TIP3   OH212038   4.631   1.760   4.192
 4032TIP3    H112039   4.689   1.831   4.169
 4032TIP3    H212040   4.561   1.801   4.243
 4033TIP3   OH212041   7.869   0.162   0.253
 4033TIP3    H112042   7.804   0.209   0.201
 4033TIP3    H212043   7.950   0.167   0.201
 4034TIP3   OH212044   0.949   0.351   3.973
 4034TIP3    H112045   0.885   0.422   3.970
 4034TIP3    H212046   1.032   0.391   3.947
 4035TIP3   OH212047   3.383   4.676   1.885
 4035TIP3    H112048   3.396   4.720   1.801
 4035TIP3    H212049   3.426   4.733   1.948
 4036TIP3   OH212050   0.262   0.918   1.674
 4036TIP3    H112051   0.226   0.846   1.623
 4036TIP3    H212052   0.311   0.970   1.610
 4037TIP3   OH212053   1.129   1.680   2.171
 4037TIP3    H112054   1.213   1.634   2.175
 4037TIP3    H212055   1.066   1.612   2.148
 4038TIP3   OH212056   5.561   5.687   0.385
 4038TIP3    H112057   5.485   5.719   0.336
 4038TIP3    H212058   5.525   5.619   0.443
 4039TIP3   OH212059  -0.013   1.395   1.603
 4039TIP3    H112060   0.003   1.476   1.651
 4039TIP3    H212061   0.070   1.348   1.607
 4040TIP3   OH212062   3.999   5.694   5.128
 4040TIP3    H112063   3.920   5.726   5.085
 4040TIP3    H212064   4.013   5.755   5.201
 4041TIP3   OH212065   3.510   2.834   6.350
 4041TIP3    H112066   3.482   2.816   6.261
 4041TIP3    H212067   3.604   2.853   6.343
 4042TIP3   OH212068   0.263   3.318   0.601
 4042TIP3    H112069   0.245   3.410   0.619
 4042TIP3    H212070   0.337   3.296   0.657
 4043TIP3   OH212071   2.600   3.951   4.841
 4043TIP3    H112072   2.658   3.951   4.917
 4043TIP3    H212073   2.587   4.044   4.821
 4044TIP3   OH212074   6.925   4.331   4.334
 4044TIP3    H112075   6.970   4.295   4.411
 4044TIP3    H212076   6.973   4.412   4.314
 4045TIP3   OH212077   3.356   5.323   1.571
 4045TIP3    H112078   3.298   5.387   1.612
 4045TIP3    H212079   3.399   5.371   1.500
 4046TIP3   OH212080   2.668   4.352   0.589
 4046TIP3    H112081   2.735   4.419   0.572
 4046TIP3    H212082   2.622   4.342   0.506
 4047TIP3   OH212083   1.856   1.078   5.999
 4047TIP3    H112084   1.916   1.130   6.053
 4047TIP3    H212085   1.899   1.073   5.914
 4048TIP3   OH212086   2.893   4.624   6.323
 4048TIP3    H112087   2.806   4.611   6.286
 4048TIP3    H212088   2.880   4.688   6.393
 4049TIP3   OH212089   8.209   6.393   3.068
 4049TIP3    H112090   8.252   6.365   3.148
 4049TIP3    H212091   8.274   6.446   3.022
 4050TIP3   OH212092   2.589   7.707   0.676
 4050TIP3    H112093   2.502   7.710   0.636
 4050TIP3    H212094   2.574   7.721   0.769
 4051TIP3   OH212095   6.087   5.725   4.621
 4051TIP3    H112096   6.090   5.635   4.655
 4051TIP3    H212097   6.142   5.775   4.680
 4052TIP3   OH212098   0.365   0.149   0.963
 4052TIP3    H112099   0.460   0.145   0.972
 4052TIP3    H212100   0.339   0.226   1.013
 4053TIP3   OH212101   2.918   2.713   0.241
 4053TIP3    H112102   2.822   2.712   0.241
 4053TIP3    H212103   2.943   2.635   0.290
 4054TIP3   OH212104   3.662   3.067   0.218
 4054TIP3    H112105   3.628   3.050   0.130
 4054TIP3    H212106   3.756   3.051   0.211
 4055TIP3   OH212107   7.256   4.372   3.904
 4055TIP3    H112108   7.197   4.344   3.834
 4055TIP3    H212109   7.252   4.301   3.968
 4056TIP3   OH212110   5.724   2.799   2.120
 4056TIP3    H112111   5.684   2.735   2.179
 4056TIP3    H212112   5.655   2.820   2.058
 4057TIP3   OH212113   0.966   2.146   6.360
 4057TIP3    H112114   1.015   2.072   6.323
 4057TIP3    H212115   0.882   2.108   6.384
 4058TIP3   OH212116   6.811   1.945  -0.001
 4058TIP3    H112117   6.895   1.990   0.008
 4058TIP3    H212118   6.796   1.905   0.085
 4059TIP3   OH212119   6.104   5.307   6.115
 4059TIP3    H112120   6.188   5.306   6.161
 4059TIP3    H212121   6.070   5.218   6.126
 4060TIP3   OH212122   7.114   1.442   6.551
 4060TIP3    H112123   7.190   1.390   6.525
 4060TIP3    H212124   7.059   1.382   6.601
 4061TIP3   OH212125   0.477   2.439   4.558
 4061TIP3    H112126   0.557   2.462   4.606
 4061TIP3    H212127   0.414   2.506   4.582
 4062TIP3   OH212128   5.303   2.574   4.591
 4062TIP3    H112129   5.379   2.622   4.558
 4062TIP3    H212130   5.262   2.633   4.654
 4063TIP3   OH212131   7.046   1.016   6.296
 4063TIP3    H112132   6.951   1.025   6.282
 4063TIP3    H212133   7.056   0.929   6.335
 4064TIP3   OH212134   1.043   7.013   4.871
 4064TIP3    H112135   0.954   7.015   4.906
 4064TIP3    H212136   1.032   7.032   4.778
 4065TIP3   OH212137   8.249   5.539   5.004
 4065TIP3    H112138   8.243   5.447   5.030
 4065TIP3    H212139   8.342   5.555   4.996
 4066TIP3   OH212140   0.062   1.884   2.402
 4066TIP3    H112141   0.115   1.804   2.393
 4066TIP3    H212142   0.067   1.906   2.495
 4067TIP3   OH212143   0.972   4.307   0.103
 4067TIP3    H112144   1.022   4.246   0.050
 4067TIP3    H212145   0.996   4.394   0.070
 4068TIP3   OH212146   0.698   5.293   0.781
 4068TIP3    H112147   0.678   5.289   0.874
 4068TIP3    H212148   0.682   5.384   0.756
 4069TIP3   OH212149   1.021   4.367   5.751
 4069TIP3    H112150   0.939   4.416   5.743
 4069TIP3    H212151   1.086   4.433   5.773
 4070TIP3   OH212152   0.718   3.115   1.765
 4070TIP3    H112153   0.702   3.099   1.672
 4070TIP3    H212154   0.711   3.029   1.806
 4071TIP3   OH212155   7.600   0.608   1.792
 4071TIP3    H112156   7.561   0.521   1.789
 4071TIP3    H212157   7.535   0.663   1.835
 4072TIP3   OH212158   4.994   6.272   3.420
 4072TIP3    H112159   5.006   6.266   3.515
 4072TIP3    H212160   4.899   6.275   3.409
 4073TIP3   OH212161   8.013   7.281   3.235
 4073TIP3    H112162   8.002   7.360   3.287
 4073TIP3    H212163   7.942   7.223   3.265
 4074TIP3   OH212164   3.528   4.519   4.380
 4074TIP3    H112165   3.468   4.542   4.451
 4074TIP3    H212166   3.539   4.424   4.388
 4075TIP3   OH212167   0.756   5.744   2.246
 4075TIP3    H112168   0.783   5.686   2.316
 4075TIP3    H212169   0.835   5.793   2.224
 4076TIP3   OH212170   2.585   7.613   0.303
 4076TIP3    H112171   2.527   7.570   0.367
 4076TIP3    H212172   2.543   7.595   0.218
 4077TIP3   OH212173   2.588   4.303   6.077
 4077TIP3    H112174   2.499   4.328   6.052
 4077TIP3    H212175   2.636   4.299   5.994
 4078TIP3   OH212176   5.143   0.530   2.369
 4078TIP3    H112177   5.093   0.554   2.290
 4078TIP3    H212178   5.098   0.576   2.440
 4079TIP3   OH212179   0.001   3.378   2.720
 4079TIP3    H112180   0.020   3.303   2.777
 4079TIP3    H212181  -0.063   3.344   2.657
 4080TIP3   OH212182   3.699  -0.021   6.420
 4080TIP3    H112183   3.788  -0.035   6.388
 4080TIP3    H212184   3.676   0.067   6.389
 4081TIP3   OH212185   2.550   4.912   4.531
 4081TIP3    H112186   2.548   5.001   4.495
 4081TIP3    H212187   2.461   4.897   4.562
 4082TIP3   OH212188   5.466   5.552   5.851
 4082TIP3    H112189   5.552   5.512   5.851
 4082TIP3    H212190   5.464   5.605   5.771
 4083TIP3   OH212191   0.930   2.328   2.317
 4083TIP3    H112192   1.020   2.300   2.299
 4083TIP3    H212193   0.924   2.328   2.413
 4084TIP3   OH212194   2.964   1.703   1.808
 4084TIP3    H112195   2.950   1.643   1.881
 4084TIP3    H212196   2.876   1.719   1.773
 4085TIP3   OH212197   2.831   5.038   4.313
 4085TIP3    H112198   2.755   5.068   4.364
 4085TIP3    H212199   2.831   5.092   4.234
 4086TIP3   OH212200   3.345   2.837   4.734
 4086TIP3    H112201   3.419   2.804   4.683
 4086TIP3    H212202   3.385   2.877   4.811
 4087TIP3   OH212203   6.887   7.461   4.613
 4087TIP3    H112204   6.834   7.482   4.535
 4087TIP3    H212205   6.906   7.546   4.653
 4088TIP3   OH212206   3.662   2.506   2.670
 4088TIP3    H112207   3.629   2.595   2.685
 4088TIP3    H212208   3.653   2.462   2.754
 4089TIP3   OH212209   5.506   0.037   2.792
 4089TIP3    H112210   5.532   0.077   2.875
 4089TIP3    H212211   5.449  -0.036   2.817
 4090TIP3   OH212212   2.800   3.417   0.217
 4090TIP3    H112213   2.891   3.391   0.204
 4090TIP3    H212214   2.754   3.382   0.140
 4091TIP3   OH212215   2.834   4.113   0.281
 4091TIP3    H112216   2.794   4.192   0.244
 4091TIP3    H212217   2.923   4.140   0.305
 4092TIP3   OH212218   6.411   4.246   2.141
 4092TIP3    H112219   6.432   4.222   2.051
 4092TIP3    H212220   6.357   4.325   2.133
 4093TIP3   OH212221   6.704   5.908   1.159
 4093TIP3    H112222   6.780   5.857   1.188
 4093TIP3    H212223   6.664   5.940   1.239
 4094TIP3   OH212224   8.082   7.070   5.216
 4094TIP3    H112225   8.144   6.998   5.206
 4094TIP3    H212226   8.128   7.146   5.181
 4095TIP3   OH212227   7.939   7.160   3.612
 4095TIP3    H112228   8.014   7.114   3.574
 4095TIP3    H212229   7.863   7.122   3.570
 4096TIP3   OH212230   3.417   7.595   1.946
 4096TIP3    H112231   3.339   7.651   1.937
 4096TIP3    H212232   3.386   7.519   1.994
 4097TIP3   OH212233   1.255   0.548   4.489
 4097TIP3    H112234   1.284   0.509   4.407
 4097TIP3    H212235   1.161   0.530   4.492
 4098TIP3   OH212236   3.525   0.668   3.998
 4098TIP3    H112237   3.531   0.744   4.056
 4098TIP3    H212238   3.442   0.679   3.953
 4099TIP3   OH212239   7.863   1.133   2.608
 4099TIP3    H112240   7.843   1.043   2.634
 4099TIP3    H212241   7.927   1.123   2.537
 4100TIP3   OH212242   6.739   0.161   0.106
 4100TIP3    H112243   6.782   0.204   0.032
 4100TIP3    H212244   6.811   0.121   0.155
 4101TIP3   OH212245   4.567   4.391   0.542
 4101TIP3    H112246   4.557   4.300   0.570
 4101TIP3    H212247   4.552   4.390   0.448
 4102TIP3   OH212248   0.140   4.069   3.831
 4102TIP3    H112249   0.046   4.061   3.849
 4102TIP3    H212250   0.169   4.140   3.888
 4103TIP3   OH212251   5.484   2.405   1.558
 4103TIP3    H112252   5.390   2.384   1.553
 4103TIP3    H212253   5.489   2.497   1.535
 4104TIP3   OH212254   6.258   5.660   0.239
 4104TIP3    H112255   6.237   5.749   0.269
 4104TIP3    H212256   6.350   5.665   0.213
 4105TIP3   OH212257   6.833   6.011   0.631
 4105TIP3    H112258   6.738   6.017   0.640
 4105TIP3    H212259   6.860   6.098   0.602
 4106TIP3   OH212260   4.877   4.163   4.894
 4106TIP3    H112261   4.823   4.139   4.819
 4106TIP3    H212262   4.939   4.090   4.903
 4107TIP3   OH212263   1.222   0.266   5.856
 4107TIP3    H112264   1.258   0.253   5.768
 4107TIP3    H212265   1.218   0.178   5.893
 4108TIP3   OH212266   0.168   3.150   2.018
 4108TIP3    H112267   0.079   3.176   2.042
 4108TIP3    H212268   0.159   3.110   1.932
 4109TIP3   OH212269   6.999   1.141   5.975
 4109TIP3    H112270   6.915   1.178   6.002
 4109TIP3    H212271   7.062   1.174   6.039
 4110TIP3   OH212272   0.418   6.202   3.407
 4110TIP3    H112273   0.453   6.233   3.323
 4110TIP3    H212274   0.400   6.109   3.392
 4111TIP3   OH212275   6.252   0.310   0.459
 4111TIP3    H112276   6.207   0.391   0.485
 4111TIP3    H212277   6.342   0.338   0.441
 4112TIP3   OH212278   4.893   5.342   5.596
 4112TIP3    H112279   4.838   5.264   5.583
 4112TIP3    H212280   4.831   5.415   5.599
 4113TIP3   OH212281   2.231   5.594   0.343
 4113TIP3    H112282   2.308   5.565   0.295
 4113TIP3    H212283   2.156   5.564   0.291
 4114TIP3   OH212284   2.663   5.837   2.281
 4114TIP3    H112285   2.691   5.925   2.258
 4114TIP3    H212286   2.605   5.810   2.210
 4115TIP3   OH212287   1.382   2.105   2.312
 4115TIP3    H112288   1.451   2.092   2.377
 4115TIP3    H212289   1.423   2.086   2.229
 4116TIP3   OH212290   5.727   2.810   3.299
 4116TIP3    H112291   5.650   2.847   3.342
 4116TIP3    H212292   5.750   2.734   3.354
 4117TIP3   OH212293   1.360   2.238   5.138
 4117TIP3    H112294   1.365   2.270   5.048
 4117TIP3    H212295   1.338   2.146   5.130
 4118TIP3   OH212296   5.613   3.182   6.701
 4118TIP3    H112297   5.639   3.092   6.723
 4118TIP3    H212298   5.687   3.217   6.652
 4119TIP3   OH212299   3.650   7.049   5.905
 4119TIP3    H112300   3.673   7.024   5.995
 4119TIP3    H212301   3.722   7.016   5.852
 4120TIP3   OH212302   3.665   6.040   4.743
 4120TIP3    H112303   3.609   6.097   4.796
 4120TIP3    H212304   3.735   6.014   4.802
 4121TIP3   OH212305   4.378   0.381   6.359
 4121TIP3    H112306   4.357   0.469   6.392
 4121TIP3    H212307   4.339   0.379   6.271
 4122TIP3   OH212308   2.529   5.106   5.003
 4122TIP3    H112309   2.606   5.135   5.052
 4122TIP3    H212310   2.528   5.162   4.926
 4123TIP3   OH212311   6.378   7.713   3.923
 4123TIP3    H112312   6.331   7.641   3.883
 4123TIP3    H212313   6.345   7.791   3.879
 4124TIP3   OH212314   6.972   5.590   6.323
 4124TIP3    H112315   7.044   5.643   6.357
 4124TIP3    H212316   6.980   5.598   6.227
 4125TIP3   OH212317   6.165   5.939   0.308
 4125TIP3    H112318   6.104   5.934   0.382
 4125TIP3    H212319   6.109   5.959   0.233
 4126TIP3   OH212320   7.665   4.369   3.120
 4126TIP3    H112321   7.730   4.424   3.077
 4126TIP3    H212322   7.705   4.344   3.203
 4127TIP3   OH212323   3.910  -0.012   2.335
 4127TIP3    H112324   3.928   0.066   2.387
 4127TIP3    H212325   3.939  -0.085   2.390
 4128TIP3   OH212326   3.521   0.674   2.021
 4128TIP3    H112327   3.491   0.700   1.933
 4128TIP3    H212328   3.517   0.578   2.020
 4129TIP3   OH212329   3.501   5.079   6.159
 4129TIP3    H112330   3.547   5.083   6.075
 4129TIP3    H212331   3.565   5.041   6.219
 4130TIP3   OH212332   0.214   7.626   3.727
 4130TIP3    H112333   0.193   7.672   3.808
 4130TIP3    H212334   0.299   7.585   3.744
 4131TIP3   OH212335   2.321   1.934   3.034
 4131TIP3    H112336   2.371   1.934   2.953
 4131TIP3    H212337   2.275   1.849   3.034
 4132TIP3   OH212338   4.498   6.837   5.847
 4132TIP3    H112339   4.587   6.867   5.866
 4132TIP3    H212340   4.451   6.848   5.930
 4133TIP3   OH212341   2.861   2.863   6.466
 4133TIP3    H112342   2.917   2.803   6.515
 4133TIP3    H212343   2.864   2.830   6.376
 4134TIP3   OH212344   1.777   4.079   4.002
 4134TIP3    H112345   1.751   4.092   4.093
 4134TIP3    H212346   1.796   3.986   3.996
 4135TIP3   OH212347   5.866   6.766   0.758
 4135TIP3    H112348   5.928   6.839   0.757
 4135TIP3    H212349   5.818   6.774   0.676
 4136TIP3   OH212350   1.595   5.972   5.183
 4136TIP3    H112351   1.548   5.889   5.196
 4136TIP3    H212352   1.582   6.020   5.264
 4137TIP3   OH212353   4.922   1.341   4.142
 4137TIP3    H112354   4.939   1.313   4.232
 4137TIP3    H212355   4.847   1.400   4.150
 4138TIP3   OH212356   7.259   7.159   4.786
 4138TIP3    H112357   7.250   7.254   4.783
 4138TIP3    H212358   7.205   7.128   4.712
 4139TIP3   OH212359   2.337   7.515   4.445
 4139TIP3    H112360   2.260   7.551   4.401
 4139TIP3    H212361   2.387   7.472   4.376
 4140TIP3   OH212362   3.495   3.081   0.927
 4140TIP3    H112363   3.526   3.073   1.017
 4140TIP3    H212364   3.467   2.993   0.903
 4141TIP3   OH212365   6.156   3.994   6.372
 4141TIP3    H112366   6.164   3.972   6.465
 4141TIP3    H212367   6.245   3.986   6.338
 4142TIP3   OH212368   6.478   6.056   1.070
 4142TIP3    H112369   6.541   5.994   1.107
 4142TIP3    H212370   6.398   6.005   1.058
 4143TIP3   OH212371   2.558   2.659   3.329
 4143TIP3    H112372   2.488   2.703   3.281
 4143TIP3    H212373   2.568   2.711   3.409
 4144TIP3   OH212374   1.957   5.876   5.877
 4144TIP3    H112375   1.951   5.781   5.876
 4144TIP3    H212376   2.042   5.896   5.838
 4145TIP3   OH212377   3.883   5.142   4.491
 4145TIP3    H112378   3.884   5.215   4.552
 4145TIP3    H212379   3.860   5.182   4.407
 4146TIP3   OH212380   1.848   2.808   1.474
 4146TIP3    H112381   1.833   2.841   1.563
 4146TIP3    H212382   1.761   2.808   1.434
 4147TIP3   OH212383   5.692   4.882   2.282
 4147TIP3    H112384   5.674   4.949   2.348
 4147TIP3    H212385   5.760   4.827   2.323
 4148TIP3   OH212386   6.374   4.346   6.480
 4148TIP3    H112387   6.410   4.268   6.439
 4148TIP3    H212388   6.405   4.343   6.570
 4149TIP3   OH212389   0.888   1.048   0.276
 4149TIP3    H112390   0.901   1.012   0.364
 4149TIP3    H212391   0.970   1.093   0.256
 4150TIP3   OH212392   1.739   1.101   6.604
 4150TIP3    H112393   1.718   1.189   6.638
 4150TIP3    H212394   1.804   1.067   6.665
 4151TIP3   OH212395   6.849   5.277   6.510
 4151TIP3    H112396   6.894   5.332   6.446
 4151TIP3    H212397   6.769   5.326   6.532
 4152TIP3   OH212398   0.702   7.825   4.556
 4152TIP3    H112399   0.763   7.814   4.629
 4152TIP3    H212400   0.658   7.741   4.548
 4153TIP3   OH212401   5.236   4.261   3.965
 4153TIP3    H112402   5.300   4.287   4.031
 4153TIP3    H212403   5.172   4.332   3.965
 4154TIP3   OH212404   4.190   0.063   2.237
 4154TIP3    H112405   4.135   0.133   2.202
 4154TIP3    H212406   4.150  -0.018   2.205
 4155TIP3   OH212407   2.607   6.163   6.251
 4155TIP3    H112408   2.552   6.239   6.267
 4155TIP3    H212409   2.578   6.098   6.315
 4156TIP3   OH212410   4.003   7.111   4.362
 4156TIP3    H112411   3.959   7.094   4.279
 4156TIP3    H212412   4.009   7.026   4.405
 4157TIP3   OH212413   0.200   7.345   1.687
 4157TIP3    H112414   0.263   7.285   1.647
 4157TIP3    H212415   0.241   7.372   1.769
 4158TIP3   OH212416   4.580   0.933   5.804
 4158TIP3    H112417   4.564   0.848   5.762
 4158TIP3    H212418   4.639   0.978   5.744
 4159TIP3   OH212419   2.893   1.290   5.754
 4159TIP3    H112420   2.946   1.367   5.774
 4159TIP3    H212421   2.863   1.259   5.840
 4160TIP3   OH212422   7.143   2.880   5.328
 4160TIP3    H112423   7.189   2.836   5.256
 4160TIP3    H212424   7.159   2.973   5.314
 4161TIP3   OH212425   4.881   2.630   4.051
 4161TIP3    H112426   4.798   2.658   4.091
 4161TIP3    H212427   4.858   2.613   3.959
 4162TIP3   OH212428   6.478   5.074   5.014
 4162TIP3    H112429   6.504   5.140   4.950
 4162TIP3    H212430   6.510   5.107   5.098
 4163TIP3   OH212431   0.800   5.390   3.717
 4163TIP3    H112432   0.789   5.297   3.732
 4163TIP3    H212433   0.783   5.401   3.623
 4164TIP3   OH212434   8.234   6.690   5.141
 4164TIP3    H112435   8.324   6.719   5.156
 4164TIP3    H212436   8.192   6.698   5.227
 4165TIP3   OH212437   7.557   1.392   5.779
 4165TIP3    H112438   7.538   1.413   5.871
 4165TIP3    H212439   7.639   1.343   5.782
 4166TIP3   OH212440   5.840   0.865   2.357
 4166TIP3    H112441   5.802   0.780   2.379
 4166TIP3    H212442   5.914   0.875   2.417
 4167TIP3   OH212443   8.115   2.597   2.315
 4167TIP3    H112444   8.052   2.555   2.375
 4167TIP3    H212445   8.139   2.528   2.254
 4168TIP3   OH212446   2.103   0.693   3.662
 4168TIP3    H112447   2.087   0.631   3.590
 4168TIP3    H212448   2.177   0.746   3.631
 4169TIP3   OH212449   7.414   4.853   1.341
 4169TIP3    H112450   7.359   4.926   1.370
 4169TIP3    H212451   7.457   4.822   1.421
 4170TIP3   OH212452   5.451   5.866   1.208
 4170TIP3    H112453   5.508   5.813   1.152
 4170TIP3    H212454   5.491   5.858   1.295
 4171TIP3   OH212455   5.100   3.165   1.670
 4171TIP3    H112456   5.018   3.123   1.698
 4171TIP3    H212457   5.076   3.256   1.654
 4172TIP3   OH212458   6.404   6.933   3.463
 4172TIP3    H112459   6.436   6.878   3.392
 4172TIP3    H212460   6.448   7.017   3.450
 4173TIP3   OH212461   3.618   6.402   6.561
 4173TIP3    H112462   3.607   6.477   6.620
 4173TIP3    H212463   3.712   6.389   6.555
 4174TIP3   OH212464   3.086   0.576   3.006
 4174TIP3    H112465   3.132   0.630   2.942
 4174TIP3    H212466   3.073   0.492   2.961
 4175TIP3   OH212467   1.270   4.792   4.666
 4175TIP3    H112468   1.264   4.872   4.718
 4175TIP3    H212469   1.351   4.802   4.617
 4176TIP3   OH212470   1.423   0.483   1.779
 4176TIP3    H112471   1.421   0.393   1.814
 4176TIP3    H212472   1.359   0.482   1.708
 4177TIP3   OH212473   6.038   6.738   6.674
 4177TIP3    H112474   5.959   6.776   6.714
 4177TIP3    H212475   6.109   6.769   6.730
 4178TIP3   OH212476   1.441   7.548   0.594
 4178TIP3    H112477   1.491   7.612   0.644
 4178TIP3    H212478   1.375   7.515   0.656
 4179TIP3   OH212479   0.503   4.611   1.081
 4179TIP3    H112480   0.575   4.547   1.078
 4179TIP3    H212481   0.503   4.650   0.993
 4180TIP3   OH212482   3.119   4.703   0.567
 4180TIP3    H112483   3.185   4.640   0.598
 4180TIP3    H212484   3.158   4.789   0.583
 4181TIP3   OH212485   4.573   4.158   2.079
 4181TIP3    H112486   4.647   4.136   2.023
 4181TIP3    H212487   4.588   4.248   2.105
 4182TIP3   OH212488   6.961   5.193   3.084
 4182TIP3    H112489   7.039   5.139   3.068
 4182TIP3    H212490   6.929   5.214   2.996
 4183TIP3   OH212491   7.233   3.073   0.519
 4183TIP3    H112492   7.229   3.045   0.610
 4183TIP3    H212493   7.148   3.114   0.503
 4184TIP3   OH212494   1.101   1.214   0.207
 4184TIP3    H112495   1.181   1.166   0.225
 4184TIP3    H212496   1.109   1.296   0.256
 4185TIP3   OH212497   5.647   1.985   3.099
 4185TIP3    H112498   5.608   1.960   3.015
 4185TIP3    H212499   5.572   1.999   3.157
 4186TIP3   OH212500   2.109   6.070   3.627
 4186TIP3    H112501   2.021   6.059   3.663
 4186TIP3    H212502   2.157   6.116   3.696
 4187TIP3   OH212503   3.534   4.631   5.434
 4187TIP3    H112504   3.534   4.609   5.527
 4187TIP3    H212505   3.617   4.597   5.401
 4188TIP3   OH212506   3.261   7.008   0.383
 4188TIP3    H112507   3.301   7.061   0.452
 4188TIP3    H212508   3.215   7.072   0.328
 4189TIP3   OH212509   3.388   6.436   5.669
 4189TIP3    H112510   3.335   6.509   5.702
 4189TIP3    H212511   3.327   6.362   5.666
 4190TIP3   OH212512   7.312   3.167   6.440
 4190TIP3    H112513   7.391   3.218   6.419
 4190TIP3    H212514   7.313   3.095   6.378
 4191TIP3   OH212515   6.625   2.035   4.917
 4191TIP3    H112516   6.643   1.975   4.845
 4191TIP3    H212517   6.530   2.047   4.916
 4192TIP3   OH212518   7.195   6.508   2.616
 4192TIP3    H112519   7.273   6.475   2.661
 4192TIP3    H212520   7.164   6.433   2.565
 4193TIP3   OH212521   1.617   4.060   1.141
 4193TIP3    H112522   1.660   4.002   1.078
 4193TIP3    H212523   1.594   4.003   1.214
 4194TIP3   OH212524   7.586   5.837   1.315
 4194TIP3    H112525   7.522   5.902   1.343
 4194TIP3    H212526   7.626   5.875   1.236
 4195TIP3   OH212527   6.119   0.535   0.540
 4195TIP3    H112528   6.059   0.578   0.601
 4195TIP3    H212529   6.182   0.603   0.515
 4196TIP3   OH212530   6.679   0.991   6.710
 4196TIP3    H112531   6.619   0.933   6.663
 4196TIP3    H212532   6.740   1.021   6.642
 4197TIP3   OH212533   3.482   4.404   2.064
 4197TIP3    H112534   3.498   4.335   2.128
 4197TIP3    H212535   3.446   4.476   2.115
 4198TIP3   OH212536   2.207   1.644   0.025
 4198TIP3    H112537   2.157   1.636   0.107
 4198TIP3    H212538   2.298   1.648   0.053
 4199TIP3   OH212539   5.967   6.228   0.338
 4199TIP3    H112540   6.007   6.189   0.415
 4199TIP3    H212541   5.904   6.162   0.307
 4200TIP3   OH212542   1.793   6.635   4.313
 4200TIP3    H112543   1.845   6.556   4.298
 4200TIP3    H212544   1.796   6.681   4.229
 4201TIP3   OH212545   8.132   4.387   3.603
 4201TIP3    H112546   8.077   4.465   3.596
 4201TIP3    H212547   8.148   4.361   3.512
 4202TIP3   OH212548   5.990   7.040   4.078
 4202TIP3    H112549   6.066   7.079   4.034
 4202TIP3    H212550   6.026   7.000   4.157
 4203TIP3   OH212551   7.052   0.613   4.205
 4203TIP3    H112552   6.958   0.607   4.184
 4203TIP3    H212553   7.087   0.528   4.178
 4204TIP3   OH212554   7.522   0.566   2.706
 4204TIP3    H112555   7.534   0.474   2.728
 4204TIP3    H212556   7.479   0.604   2.783
 4205TIP3   OH212557   1.417   3.249   0.407
 4205TIP3    H112558   1.390   3.225   0.495
 4205TIP3    H212559   1.507   3.282   0.417
 4206TIP3   OH212560   2.815   6.349   4.300
 4206TIP3    H112561   2.754   6.292   4.253
 4206TIP3    H212562   2.767   6.430   4.314
 4207TIP3   OH212563   0.294   3.748   6.222
 4207TIP3    H112564   0.295   3.815   6.153
 4207TIP3    H212565   0.204   3.717   6.224
 4208TIP3   OH212566   5.856   7.631   2.906
 4208TIP3    H112567   5.772   7.619   2.862
 4208TIP3    H212568   5.921   7.598   2.844
 4209TIP3   OH212569   6.314   6.788   5.898
 4209TIP3    H112570   6.316   6.692   5.904
 4209TIP3    H212571   6.313   6.817   5.989
 4210TIP3   OH212572   2.843   4.832   4.625
 4210TIP3    H112573   2.790   4.781   4.564
 4210TIP3    H212574   2.784   4.853   4.697
 4211TIP3   OH212575   0.954   5.563   1.661
 4211TIP3    H112576   0.988   5.517   1.583
 4211TIP3    H212577   0.883   5.507   1.692
 4212TIP3   OH212578   5.209   1.883   2.886
 4212TIP3    H112579   5.164   1.839   2.958
 4212TIP3    H212580   5.201   1.824   2.812
 4213TIP3   OH212581   6.687   4.361   3.634
 4213TIP3    H112582   6.642   4.415   3.569
 4213TIP3    H212583   6.732   4.294   3.583
 4214TIP3   OH212584   2.133   2.589   0.226
 4214TIP3    H112585   2.058   2.545   0.188
 4214TIP3    H212586   2.149   2.543   0.309
 4215TIP3   OH212587   4.102   0.776   4.798
 4215TIP3    H112588   4.059   0.700   4.760
 4215TIP3    H212589   4.184   0.741   4.835
 4216TIP3   OH212590   0.617   1.273   5.532
 4216TIP3    H112591   0.673   1.227   5.596
 4216TIP3    H212592   0.669   1.274   5.452
 4217TIP3   OH212593   3.829   1.634   4.937
 4217TIP3    H112594   3.835   1.717   4.985
 4217TIP3    H212595   3.743   1.636   4.895
 4218TIP3   OH212596   1.726   2.022   6.788
 4218TIP3    H112597   1.657   2.088   6.775
 4218TIP3    H212598   1.800   2.054   6.737
 4219TIP3   OH212599   6.240   6.495   5.633
 4219TIP3    H112600   6.183   6.476   5.559
 4219TIP3    H212601   6.256   6.589   5.628
 4220TIP3   OH212602   6.307   1.576   6.450
 4220TIP3    H112603   6.286   1.669   6.457
 4220TIP3    H212604   6.227   1.535   6.416
 4221TIP3   OH212605   1.490   2.673   6.219
 4221TIP3    H112606   1.455   2.593   6.179
 4221TIP3    H212607   1.525   2.724   6.146
 4222TIP3   OH212608   2.881   6.304   0.285
 4222TIP3    H112609   2.874   6.227   0.229
 4222TIP3    H212610   2.966   6.296   0.327
 4223TIP3   OH212611   6.006   2.348   5.585
 4223TIP3    H112612   5.950   2.411   5.541
 4223TIP3    H212613   6.044   2.295   5.514
 4224TIP3   OH212614   5.545   7.355   3.603
 4224TIP3    H112615   5.574   7.298   3.674
 4224TIP3    H212616   5.490   7.421   3.647
 4225TIP3   OH212617   5.400   2.275   0.669
 4225TIP3    H112618   5.328   2.272   0.606
 4225TIP3    H212619   5.427   2.184   0.679
 4226TIP3   OH212620   5.621   1.037   3.321
 4226TIP3    H112621   5.655   1.085   3.246
 4226TIP3    H212622   5.659   0.950   3.313
 4227TIP3   OH212623   7.074   3.974   4.181
 4227TIP3    H112624   7.074   3.880   4.202
 4227TIP3    H212625   7.101   4.016   4.263
 4228TIP3   OH212626   0.182   7.618   6.636
 4228TIP3    H112627   0.119   7.548   6.643
 4228TIP3    H212628   0.183   7.659   6.722
 4229TIP3   OH212629   1.937   6.120   1.755
 4229TIP3    H112630   1.849   6.150   1.779
 4229TIP3    H212631   1.922   6.060   1.682
 4230TIP3   OH212632   3.004   7.408   0.590
 4230TIP3    H112633   2.958   7.334   0.629
 4230TIP3    H212634   2.940   7.448   0.532
 4231TIP3   OH212635   1.750   2.944   6.175
 4231TIP3    H112636   1.709   3.031   6.169
 4231TIP3    H212637   1.693   2.887   6.124
 4232TIP3   OH212638   4.067   5.916   1.258
 4232TIP3    H112639   3.990   5.955   1.300
 4232TIP3    H212640   4.033   5.840   1.210
 4233TIP3   OH212641   5.925   0.580   3.146
 4233TIP3    H112642   5.981   0.575   3.224
 4233TIP3    H212643   5.895   0.490   3.132
 4234TIP3   OH212644   0.277   2.989   0.288
 4234TIP3    H112645   0.280   2.908   0.340
 4234TIP3    H212646   0.258   2.960   0.199
 4235TIP3   OH212647   5.793   6.048   0.201
 4235TIP3    H112648   5.731   6.114   0.168
 4235TIP3    H212649   5.869   6.056   0.143
 4236TIP3   OH212650   6.344   5.192   2.258
 4236TIP3    H112651   6.338   5.177   2.352
 4236TIP3    H212652   6.296   5.119   2.219
 4237TIP3   OH212653   0.746   4.999   3.856
 4237TIP3    H112654   0.716   4.956   3.776
 4237TIP3    H212655   0.824   5.048   3.830
 4238TIP3   OH212656   0.684   6.602   2.588
 4238TIP3    H112657   0.604   6.637   2.628
 4238TIP3    H212658   0.663   6.596   2.495
 4239TIP3   OH212659   6.530   7.762   5.528
 4239TIP3    H112660   6.520   7.847   5.486
 4239TIP3    H212661   6.463   7.707   5.487
 4240TIP3   OH212662   4.642   0.136   6.188
 4240TIP3    H112663   4.648   0.193   6.264
 4240TIP3    H212664   4.598   0.189   6.121
 4241TIP3   OH212665   2.318   7.431   1.609
 4241TIP3    H112666   2.261   7.418   1.685
 4241TIP3    H212667   2.404   7.401   1.638
 4242TIP3   OH212668   6.178   1.514   0.180
 4242TIP3    H112669   6.169   1.437   0.124
 4242TIP3    H212670   6.216   1.480   0.261
 4243TIP3   OH212671   2.227   7.450   3.585
 4243TIP3    H112672   2.308   7.500   3.578
 4243TIP3    H212673   2.240   7.394   3.662
 4244TIP3   OH212674   5.211   6.207   5.781
 4244TIP3    H112675   5.171   6.280   5.828
 4244TIP3    H212676   5.175   6.129   5.823
 4245TIP3   OH212677   2.284   0.369   4.431
 4245TIP3    H112678   2.321   0.283   4.449
 4245TIP3    H212679   2.360   0.427   4.424
 4246TIP3   OH212680   0.836   7.618   6.003
 4246TIP3    H112681   0.923   7.578   6.003
 4246TIP3    H212682   0.780   7.553   6.045
 4247TIP3   OH212683   0.798   3.243   6.176
 4247TIP3    H112684   0.824   3.300   6.104
 4247TIP3    H212685   0.851   3.273   6.251
 4248TIP3   OH212686   5.267   3.837   6.048
 4248TIP3    H112687   5.238   3.781   5.976
 4248TIP3    H212688   5.231   3.923   6.028
 4249TIP3   OH212689   7.172   2.922   0.228
 4249TIP3    H112690   7.213   2.881   0.304
 4249TIP3    H212691   7.204   3.013   0.230
 4250TIP3   OH212692   0.318   6.076   5.504
 4250TIP3    H112693   0.374   6.113   5.572
 4250TIP3    H212694   0.346   6.120   5.423
 4251TIP3   OH212695   3.146   0.187   0.066
 4251TIP3    H112696   3.135   0.108   0.119
 4251TIP3    H212697   3.058   0.204   0.032
 4252TIP3   OH212698   1.044   1.717   2.857
 4252TIP3    H112699   1.111   1.744   2.794
 4252TIP3    H212700   1.034   1.793   2.915
 4253TIP3   OH212701   1.506   0.660   4.276
 4253TIP3    H112702   1.512   0.703   4.362
 4253TIP3    H212703   1.528   0.728   4.213
 4254TIP3   OH212704   5.682   5.140   1.878
 4254TIP3    H112705   5.588   5.135   1.863
 4254TIP3    H212706   5.691   5.137   1.974
 4255TIP3   OH212707   5.732   3.169   1.628
 4255TIP3    H112708   5.749   3.220   1.548
 4255TIP3    H212709   5.647   3.201   1.659
 4256TIP3   OH212710   6.403   2.088   6.416
 4256TIP3    H112711   6.351   2.076   6.496
 4256TIP3    H212712   6.343   2.133   6.356
 4257TIP3   OH212713   3.012   3.120   2.674
 4257TIP3    H112714   2.956   3.197   2.670
 4257TIP3    H212715   2.973   3.059   2.611
 4258TIP3   OH212716   4.644   4.907   0.036
 4258TIP3    H112717   4.734   4.908   0.069
 4258TIP3    H212718   4.612   4.819   0.058
 4259TIP3   OH212719   6.426   7.608   1.169
 4259TIP3    H112720   6.472   7.682   1.128
 4259TIP3    H212721   6.341   7.643   1.193
 4260TIP3   OH212722   2.966   6.285   4.997
 4260TIP3    H112723   2.892   6.228   5.016
 4260TIP3    H212724   2.927   6.371   4.980
 4261TIP3   OH212725   7.951   0.225   3.803
 4261TIP3    H112726   7.915   0.300   3.755
 4261TIP3    H212727   7.955   0.256   3.894
 4262TIP3   OH212728   1.628   1.547   5.582
 4262TIP3    H112729   1.659   1.566   5.493
 4262TIP3    H212730   1.658   1.621   5.634
 4263TIP3   OH212731   4.749   7.217  -0.005
 4263TIP3    H112732   4.712   7.212  -0.093
 4263TIP3    H212733   4.827   7.271  -0.015
 4264TIP3   OH212734   1.977   7.585   1.647
 4264TIP3    H112735   1.979   7.634   1.564
 4264TIP3    H212736   1.992   7.494   1.621
 4265TIP3   OH212737   5.175   3.925   1.673
 4265TIP3    H112738   5.193   4.013   1.706
 4265TIP3    H212739   5.083   3.927   1.647
 4266TIP3   OH212740   4.522   7.271   6.132
 4266TIP3    H112741   4.552   7.185   6.164
 4266TIP3    H212742   4.438   7.253   6.090
 4267TIP3   OH212743   4.505   1.007   1.548
 4267TIP3    H112744   4.431   0.947   1.551
 4267TIP3    H212745   4.544   0.992   1.462
 4268TIP3   OH212746   2.118   0.580   3.214
 4268TIP3    H112747   2.103   0.670   3.243
 4268TIP3    H212748   2.063   0.569   3.137
 4269TIP3   OH212749   3.797   1.356   3.712
 4269TIP3    H112750   3.832   1.313   3.790
 4269TIP3    H212751   3.872   1.362   3.652
 4270TIP3   OH212752   1.366   1.838   6.567
 4270TIP3    H112753   1.458   1.855   6.546
 4270TIP3    H212754   1.340   1.769   6.506
 4271TIP3   OH212755   5.211   3.541   6.699
 4271TIP3    H112756   5.136   3.509   6.648
 4271TIP3    H212757   5.278   3.474   6.688
 4272TIP3   OH212758   4.442   2.623   5.282
 4272TIP3    H112759   4.367   2.626   5.342
 4272TIP3    H212760   4.506   2.567   5.326
 4273TIP3   OH212761   6.581   2.656   3.615
 4273TIP3    H112762   6.626   2.739   3.632
 4273TIP3    H212763   6.650   2.597   3.584
 4274TIP3   OH212764   3.588   0.806   3.214
 4274TIP3    H112765   3.550   0.792   3.127
 4274TIP3    H212766   3.590   0.719   3.254
 4275TIP3   OH212767   0.403   3.276   6.174
 4275TIP3    H112768   0.407   3.366   6.205
 4275TIP3    H212769   0.312   3.251   6.185
 4276TIP3   OH212770   0.491   5.587   6.006
 4276TIP3    H112771   0.455   5.529   6.073
 4276TIP3    H212772   0.424   5.655   5.995
 4277TIP3   OH212773   6.319   6.587   3.385
 4277TIP3    H112774   6.326   6.501   3.344
 4277TIP3    H212775   6.229   6.592   3.417
 4278TIP3   OH212776   6.751   5.507   5.398
 4278TIP3    H112777   6.716   5.454   5.327
 4278TIP3    H212778   6.694   5.584   5.401
 4279TIP3   OH212779   0.070   6.087   4.169
 4279TIP3    H112780   0.132   6.017   4.188
 4279TIP3    H212781   0.097   6.159   4.226
 4280TIP3   OH212782   7.360   3.774   3.757
 4280TIP3    H112783   7.350   3.791   3.851
 4280TIP3    H212784   7.280   3.807   3.717
 4281TIP3   OH212785   4.727   4.406   4.151
 4281TIP3    H112786   4.632   4.415   4.140
 4281TIP3    H212787   4.761   4.407   4.062
 4282TIP3   OH212788   0.791   1.542   1.393
 4282TIP3    H112789   0.799   1.567   1.301
 4282TIP3    H212790   0.698   1.521   1.404
 4283TIP3   OH212791   4.708   7.441   5.765
 4283TIP3    H112792   4.657   7.425   5.686
 4283TIP3    H212793   4.778   7.500   5.737
 4284TIP3   OH212794   2.475   0.530   1.074
 4284TIP3    H112795   2.528   0.515   1.152
 4284TIP3    H212796   2.491   0.453   1.019
 4285TIP3   OH212797   5.340   3.105   4.868
 4285TIP3    H112798   5.388   3.063   4.796
 4285TIP3    H212799   5.254   3.061   4.868
 4286TIP3   OH212800   3.554   2.303   6.511
 4286TIP3    H112801   3.609   2.253   6.450
 4286TIP3    H212802   3.487   2.241   6.538
 4287TIP3   OH212803   8.126   4.006   4.756
 4287TIP3    H112804   8.187   3.973   4.822
 4287TIP3    H212805   8.091   4.087   4.794
 4288TIP3   OH212806   4.246   1.955   6.692
 4288TIP3    H112807   4.189   1.992   6.625
 4288TIP3    H212808   4.266   1.867   6.661
 4289TIP3   OH212809   2.568   3.532   3.567
 4289TIP3    H112810   2.571   3.436   3.565
 4289TIP3    H212811   2.659   3.559   3.571
 4290TIP3   OH212812   2.559   4.969   1.755
 4290TIP3    H112813   2.636   4.920   1.726
 4290TIP3    H212814   2.518   5.000   1.675
 4291TIP3   OH212815   2.789   1.538   4.376
 4291TIP3    H112816   2.846   1.552   4.451
 4291TIP3    H212817   2.847   1.546   4.300
 4292TIP3   OH212818   1.959   6.579   1.086
 4292TIP3    H112819   1.972   6.505   1.026
 4292TIP3    H212820   2.013   6.558   1.162
 4293TIP3   OH212821   4.514   2.342   6.373
 4293TIP3    H112822   4.450   2.373   6.438
 4293TIP3    H212823   4.461   2.299   6.306
 4294TIP3   OH212824   2.031   3.546   2.085
 4294TIP3    H112825   2.095   3.608   2.119
 4294TIP3    H212826   2.078   3.463   2.080
 4295TIP3   OH212827   4.508   2.222   6.112
 4295TIP3    H112828   4.594   2.260   6.128
 4295TIP3    H212829   4.480   2.259   6.028
 4296TIP3   OH212830   0.864   1.498   6.091
 4296TIP3    H112831   0.956   1.525   6.101
 4296TIP3    H212832   0.855   1.422   6.149
 4297TIP3   OH212833   2.745   7.006   2.607
 4297TIP3    H112834   2.734   7.051   2.524
 4297TIP3    H212835   2.827   7.041   2.642
 4298TIP3   OH212836   7.227   0.620   0.086
 4298TIP3    H112837   7.214   0.714   0.068
 4298TIP3    H212838   7.294   0.592   0.024
 4299TIP3   OH212839   5.088   4.608   4.448
 4299TIP3    H112840   5.162   4.605   4.387
 4299TIP3    H212841   5.090   4.697   4.484
 4300TIP3   OH212842   2.710   4.314   3.923
 4300TIP3    H112843   2.760   4.266   3.989
 4300TIP3    H212844   2.765   4.390   3.901
 4301TIP3   OH212845   6.531   4.964   3.827
 4301TIP3    H112846   6.483   5.029   3.878
 4301TIP3    H212847   6.479   4.884   3.836
 4302TIP3   OH212848   0.099   2.374   6.201
 4302TIP3    H112849   0.016   2.419   6.184
 4302TIP3    H212850   0.074   2.283   6.218
 4303TIP3   OH212851   4.879   5.379   0.577
 4303TIP3    H112852   4.966   5.338   0.572
 4303TIP3    H212853   4.824   5.325   0.520
 4304TIP3   OH212854   3.424   6.464   5.165
 4304TIP3    H112855   3.477   6.484   5.088
 4304TIP3    H212856   3.454   6.377   5.192
 4305TIP3   OH212857   2.754   1.532   6.047
 4305TIP3    H112858   2.728   1.621   6.071
 4305TIP3    H212859   2.707   1.515   5.965
 4306TIP3   OH212860   5.167   1.130   3.856
 4306TIP3    H112861   5.129   1.171   3.779
 4306TIP3    H212862   5.202   1.202   3.908
 4307TIP3   OH212863   2.301   3.085   4.191
 4307TIP3    H112864   2.252   3.162   4.220
 4307TIP3    H212865   2.392   3.114   4.186
 4308TIP3   OH212866   7.847   6.768   1.991
 4308TIP3    H112867   7.820   6.718   1.913
 4308TIP3    H212868   7.902   6.707   2.040
 4309TIP3   OH212869   5.049   3.417   6.117
 4309TIP3    H112870   5.035   3.511   6.125
 4309TIP3    H212871   5.102   3.408   6.037
 4310TIP3   OH212872   0.329   7.105   0.522
 4310TIP3    H112873   0.254   7.154   0.488
 4310TIP3    H212874   0.318   7.106   0.617
 4311TIP3   OH212875   8.127   7.211   0.555
 4311TIP3    H112876   8.157   7.301   0.570
 4311TIP3    H212877   8.053   7.200   0.614
 4312TIP3   OH212878   7.637   3.439   2.837
 4312TIP3    H112879   7.639   3.406   2.747
 4312TIP3    H212880   7.551   3.415   2.870
 4313TIP3   OH212881   5.486   1.310   0.992
 4313TIP3    H112882   5.474   1.237   0.931
 4313TIP3    H212883   5.575   1.298   1.027
 4314TIP3   OH212884   7.788   7.769   0.549
 4314TIP3    H112885   7.745   7.707   0.490
 4314TIP3    H212886   7.717   7.803   0.603
 4315TIP3   OH212887   4.150   3.730   6.400
 4315TIP3    H112888   4.060   3.763   6.395
 4315TIP3    H212889   4.196   3.795   6.452
 4316TIP3   OH212890   4.917   7.217   2.686
 4316TIP3    H112891   4.985   7.176   2.634
 4316TIP3    H212892   4.911   7.164   2.765
 4317TIP3   OH212893   2.764   0.681   5.016
 4317TIP3    H112894   2.783   0.695   5.109
 4317TIP3    H212895   2.743   0.587   5.011
 4318TIP3   OH212896   3.358   1.779   5.760
 4318TIP3    H112897   3.290   1.712   5.762
 4318TIP3    H212898   3.431   1.740   5.808
 4319TIP3   OH212899   6.194   3.624   4.584
 4319TIP3    H112900   6.168   3.596   4.671
 4319TIP3    H212901   6.287   3.646   4.592
 4320TIP3   OH212902   5.327   2.188   5.331
 4320TIP3    H112903   5.317   2.107   5.380
 4320TIP3    H212904   5.329   2.160   5.239
 4321TIP3   OH212905   4.066   0.301   4.250
 4321TIP3    H112906   4.067   0.217   4.296
 4321TIP3    H212907   3.974   0.327   4.249
 4322TIP3   OH212908   6.120   0.210   6.611
 4322TIP3    H112909   6.213   0.200   6.632
 4322TIP3    H212910   6.090   0.282   6.666
 4323TIP3   OH212911   3.519   6.604   4.913
 4323TIP3    H112912   3.604   6.620   4.872
 4323TIP3    H212913   3.457   6.607   4.840
 4324TIP3   OH212914   1.312   0.706   0.956
 4324TIP3    H112915   1.290   0.736   1.044
 4324TIP3    H212916   1.248   0.750   0.899
 4325TIP3   OH212917   4.812   7.141   0.253
 4325TIP3    H112918   4.814   7.156   0.159
 4325TIP3    H212919   4.748   7.070   0.264
 4326TIP3   OH212920   3.644   5.679   1.283
 4326TIP3    H112921   3.659   5.589   1.254
 4326TIP3    H212922   3.596   5.720   1.211
 4327TIP3   OH212923   5.102   1.101   4.213
 4327TIP3    H112924   5.110   1.164   4.141
 4327TIP3    H212925   5.027   1.132   4.264
 4328TIP3   OH212926   1.614   5.737   4.653
 4328TIP3    H112927   1.558   5.700   4.721
 4328TIP3    H212928   1.692   5.768   4.700
 4329TIP3   OH212929   1.253   1.534   1.483
 4329TIP3    H112930   1.169   1.571   1.509
 4329TIP3    H212931   1.317   1.601   1.508
 4330TIP3   OH212932   3.081   0.129   4.198
 4330TIP3    H112933   3.037   0.045   4.187
 4330TIP3    H212934   3.108   0.154   4.110
 4331TIP3   OH212935   2.183   0.941   5.204
 4331TIP3    H112936   2.266   0.983   5.181
 4331TIP3    H212937   2.138   1.004   5.260
 4332TIP3   OH212938   1.662   7.154   2.354
 4332TIP3    H112939   1.714   7.148   2.435
 4332TIP3    H212940   1.726   7.169   2.285
 4333TIP3   OH212941   7.201   0.514   2.790
 4333TIP3    H112942   7.135   0.448   2.812
 4333TIP3    H212943   7.225   0.495   2.700
 4334TIP3   OH212944   0.765   6.513   3.629
 4334TIP3    H112945   0.707   6.508   3.552
 4334TIP3    H212946   0.845   6.468   3.601
 4335TIP3   OH212947   6.981   4.662   5.760
 4335TIP3    H112948   7.070   4.626   5.753
 4335TIP3    H212949   6.988   4.751   5.725
 4336TIP3   OH212950   0.382   6.636   5.583
 4336TIP3    H112951   0.376   6.552   5.627
 4336TIP3    H212952   0.475   6.658   5.584
 4337TIP3   OH212953   2.868   6.244   2.277
 4337TIP3    H112954   2.862   6.176   2.344
 4337TIP3    H212955   2.830   6.205   2.199
 4338TIP3   OH212956   6.645   3.355   5.871
 4338TIP3    H112957   6.694   3.336   5.951
 4338TIP3    H212958   6.710   3.349   5.801
 4339TIP3   OH212959   6.167   3.372   3.389
 4339TIP3    H112960   6.098   3.428   3.353
 4339TIP3    H212961   6.132   3.283   3.381
 4340TIP3   OH212962   1.299   6.166   2.527
 4340TIP3    H112963   1.247   6.238   2.563
 4340TIP3    H212964   1.250   6.137   2.450
 4341TIP3   OH212965   6.489   1.667   1.835
 4341TIP3    H112966   6.436   1.630   1.906
 4341TIP3    H212967   6.544   1.594   1.806
 4342TIP3   OH212968   1.723   4.413   2.034
 4342TIP3    H112969   1.812   4.380   2.028
 4342TIP3    H212970   1.713   4.440   2.125
 4343TIP3   OH212971   6.787   3.729   4.877
 4343TIP3    H112972   6.705   3.778   4.878
 4343TIP3    H212973   6.822   3.742   4.789
 4344TIP3   OH212974   1.220   4.997   1.483
 4344TIP3    H112975   1.248   5.004   1.574
 4344TIP3    H212976   1.158   4.924   1.483
 4345TIP3   OH212977   4.663   2.152   3.576
 4345TIP3    H112978   4.697   2.183   3.660
 4345TIP3    H212979   4.697   2.214   3.512
 4346TIP3   OH212980   1.676   5.186   1.964
 4346TIP3    H112981   1.758   5.194   1.915
 4346TIP3    H212982   1.616   5.143   1.903
 4347TIP3   OH212983   6.560   2.633   6.487
 4347TIP3    H112984   6.625   2.567   6.512
 4347TIP3    H212985   6.598   2.676   6.410
 4348TIP3   OH212986   7.425   5.330   4.228
 4348TIP3    H112987   7.423   5.246   4.274
 4348TIP3    H212988   7.406   5.308   4.137
 4349TIP3   OH212989   3.226   4.934   0.685
 4349TIP3    H112990   3.244   4.947   0.778
 4349TIP3    H212991   3.270   5.008   0.642
 4350TIP3   OH212992   3.146   5.327   2.224
 4350TIP3    H112993   3.123   5.234   2.223
 4350TIP3    H212994   3.069   5.371   2.188
 4351TIP3   OH212995   5.596   0.844   2.542
 4351TIP3    H112996   5.505   0.833   2.569
 4351TIP3    H212997   5.613   0.938   2.553
 4352TIP3   OH212998   2.939   1.830   6.413
 4352TIP3    H112999   2.858   1.849   6.459
 4352TIP3    H213000   2.954   1.737   6.427
 4353TIP3   OH213001   7.047   2.443   0.964
 4353TIP3    H113002   7.055   2.348   0.954
 4353TIP3    H213003   7.087   2.479   0.885
 4354TIP3   OH213004   3.244   4.311   3.067
 4354TIP3    H113005   3.179   4.241   3.070
 4354TIP3    H213006   3.298   4.297   3.145
 4355TIP3   OH213007   3.638   4.383   1.840
 4355TIP3    H113008   3.663   4.475   1.833
 4355TIP3    H213009   3.588   4.378   1.921
 4356TIP3   OH213010   4.568   6.053   2.431
 4356TIP3    H113011   4.655   6.071   2.396
 4356TIP3    H213012   4.547   5.965   2.399
 4357TIP3   OH213013   1.937   0.703   2.079
 4357TIP3    H113014   2.020   0.657   2.077
 4357TIP3    H213015   1.871   0.634   2.091
 4358TIP3   OH213016   8.016   5.320   5.503
 4358TIP3    H113017   8.034   5.355   5.590
 4358TIP3    H213018   7.937   5.268   5.513
 4359TIP3   OH213019   5.019   5.295   2.639
 4359TIP3    H113020   5.048   5.251   2.559
 4359TIP3    H213021   5.051   5.240   2.710
 4360TIP3   OH213022   0.296   0.126   5.738
 4360TIP3    H113023   0.223   0.186   5.723
 4360TIP3    H213024   0.368   0.162   5.685
 4361TIP3   OH213025   5.779   2.285   2.243
 4361TIP3    H113026   5.720   2.241   2.182
 4361TIP3    H213027   5.784   2.375   2.211
 4362TIP3   OH213028   0.253   0.732   2.640
 4362TIP3    H113029   0.173   0.774   2.607
 4362TIP3    H213030   0.322   0.764   2.583
 4363TIP3   OH213031   8.240   1.029   5.876
 4363TIP3    H113032   8.252   1.122   5.859
 4363TIP3    H213033   8.329   0.993   5.874
 4364TIP3   OH213034   5.719   7.269   5.064
 4364TIP3    H113035   5.733   7.230   5.150
 4364TIP3    H213036   5.645   7.220   5.027
 4365TIP3   OH213037   1.987   1.525   5.333
 4365TIP3    H113038   1.926   1.554   5.265
 4365TIP3    H213039   1.995   1.600   5.391
 4366TIP3   OH213040   2.647   4.691   4.427
 4366TIP3    H113041   2.580   4.630   4.458
 4366TIP3    H213042   2.611   4.778   4.443
 4367TIP3   OH213043   3.943   3.264   6.183
 4367TIP3    H113044   3.864   3.281   6.233
 4367TIP3    H213045   4.012   3.310   6.231
 4368TIP3   OH213046   2.231   5.793   5.943
 4368TIP3    H113047   2.280   5.832   6.015
 4368TIP3    H213048   2.270   5.706   5.932
 4369TIP3   OH213049   0.019   6.116   3.711
 4369TIP3    H113050   0.101   6.070   3.693
 4369TIP3    H213051   0.043   6.208   3.718
 4370TIP3   OH213052   6.325   2.883   5.763
 4370TIP3    H113053   6.401   2.927   5.801
 4370TIP3    H213054   6.252   2.908   5.819
 4371TIP3   OH213055   7.387   2.345   3.805
 4371TIP3    H113056   7.437   2.401   3.746
 4371TIP3    H213057   7.403   2.256   3.774
 4372TIP3   OH213058   2.196   2.118   5.129
 4372TIP3    H113059   2.139   2.124   5.206
 4372TIP3    H213060   2.139   2.084   5.060
 4373TIP3   OH213061   7.215   7.498   5.650
 4373TIP3    H113062   7.178   7.484   5.738
 4373TIP3    H213063   7.155   7.561   5.610
 4374TIP3   OH213064   7.020   4.969   4.949
 4374TIP3    H113065   6.942   4.915   4.955
 4374TIP3    H213066   7.007   5.038   5.015
 4375TIP3   OH213067   5.595   3.999   6.340
 4375TIP3    H113068   5.594   3.906   6.314
 4375TIP3    H213069   5.685   4.027   6.324
 4376TIP3   OH213070   5.372   6.451   3.204
 4376TIP3    H113071   5.318   6.373   3.194
 4376TIP3    H213072   5.449   6.421   3.252
 4377TIP3   OH213073   6.911   2.839   1.950
 4377TIP3    H113074   6.890   2.763   1.896
 4377TIP3    H213075   6.837   2.898   1.938
 4378TIP3   OH213076   0.007   2.743   2.152
 4378TIP3    H113077   0.013   2.829   2.193
 4378TIP3    H213078  -0.018   2.684   2.224
 4379TIP3   OH213079   8.167   2.508   4.979
 4379TIP3    H113080   8.177   2.603   4.984
 4379TIP3    H213081   8.160   2.489   4.886
 4380TIP3   OH213082   2.512   7.497   6.660
 4380TIP3    H113083   2.564   7.577   6.661
 4380TIP3    H213084   2.573   7.428   6.688
 4381TIP3   OH213085   3.611   4.705   3.723
 4381TIP3    H113086   3.652   4.620   3.742
 4381TIP3    H213087   3.657   4.767   3.779
 4382TIP3   OH213088   7.651   5.052   5.839
 4382TIP3    H113089   7.667   4.963   5.871
 4382TIP3    H213090   7.556   5.057   5.826
 4383TIP3   OH213091   2.407   3.907   1.491
 4383TIP3    H113092   2.347   3.940   1.558
 4383TIP3    H213093   2.354   3.847   1.439
 4384TIP3   OH213094   2.348   5.789   0.886
 4384TIP3    H113095   2.267   5.812   0.840
 4384TIP3    H213096   2.364   5.698   0.862
 4385TIP3   OH213097   0.532   2.749   4.294
 4385TIP3    H113098   0.529   2.787   4.207
 4385TIP3    H213099   0.612   2.784   4.333
 4386TIP3   OH213100   1.214   3.953   5.118
 4386TIP3    H113101   1.172   3.952   5.031
 4386TIP3    H213102   1.144   3.978   5.178
 4387TIP3   OH213103   8.244   5.523   6.244
 4387TIP3    H113104   8.251   5.542   6.337
 4387TIP3    H213105   8.293   5.593   6.201
 4388TIP3   OH213106   0.228   1.840   2.699
 4388TIP3    H113107   0.308   1.867   2.746
 4388TIP3    H213108   0.167   1.815   2.768
 4389TIP3   OH213109   6.555   3.881   4.816
 4389TIP3    H113110   6.469   3.888   4.857
 4389TIP3    H213111   6.549   3.937   4.739
 4390TIP3   OH213112   3.133   3.894   0.064
 4390TIP3    H113113   3.172   3.981   0.056
 4390TIP3    H213114   3.052   3.908   0.112
 4391TIP3   OH213115   4.803   0.215   1.471
 4391TIP3    H113116   4.836   0.214   1.560
 4391TIP3    H213117   4.877   0.189   1.417
 4392TIP3   OH213118   7.775   4.425   5.412
 4392TIP3    H113119   7.784   4.362   5.484
 4392TIP3    H213120   7.769   4.510   5.456
 4393TIP3   OH213121   3.675   6.124   3.657
 4393TIP3    H113122   3.700   6.040   3.694
 4393TIP3    H213123   3.739   6.186   3.693
 4394TIP3   OH213124   0.830   0.821   5.835
 4394TIP3    H113125   0.746   0.851   5.869
 4394TIP3    H213126   0.825   0.726   5.839
 4395TIP3   OH213127   4.746   3.935   3.628
 4395TIP3    H113128   4.819   3.899   3.577
 4395TIP3    H213129   4.671   3.881   3.604
 4396TIP3   OH213130   1.702   5.075   0.690
 4396TIP3    H113131   1.652   5.133   0.633
 4396TIP3    H213132   1.792   5.079   0.656
 4397TIP3   OH213133   3.822   0.522   0.575
 4397TIP3    H113134   3.750   0.575   0.610
 4397TIP3    H213135   3.896   0.543   0.632
 4398TIP3   OH213136   8.028   2.373   2.810
 4398TIP3    H113137   8.031   2.353   2.904
 4398TIP3    H213138   7.961   2.441   2.802
 4399TIP3   OH213139   4.021   1.917   3.745
 4399TIP3    H113140   4.012   1.966   3.827
 4399TIP3    H213141   4.044   1.984   3.680
 4400TIP3   OH213142   8.121   7.193   6.543
 4400TIP3    H113143   8.065   7.246   6.486
 4400TIP3    H213144   8.067   7.117   6.566
 4401TIP3   OH213145   3.118   1.693   0.535
 4401TIP3    H113146   3.117   1.701   0.631
 4401TIP3    H213147   3.211   1.691   0.512
 4402TIP3   OH213148   0.985   0.708   0.225
 4402TIP3    H113149   0.966   0.778   0.163
 4402TIP3    H213150   1.079   0.717   0.242
 4403TIP3   OH213151   7.296   6.750   4.342
 4403TIP3    H113152   7.357   6.729   4.412
 4403TIP3    H213153   7.224   6.796   4.385
 4404TIP3   OH213154   1.538   1.915   5.051
 4404TIP3    H113155   1.588   1.850   5.001
 4404TIP3    H213156   1.539   1.993   4.996
 4405TIP3   OH213157   6.218   6.343   1.297
 4405TIP3    H113158   6.197   6.250   1.284
 4405TIP3    H213159   6.136   6.382   1.326
 4406TIP3   OH213160   1.296   3.256   3.205
 4406TIP3    H113161   1.307   3.221   3.294
 4406TIP3    H213162   1.384   3.256   3.169
 4407TIP3   OH213163   8.099   0.345   3.165
 4407TIP3    H113164   8.113   0.337   3.071
 4407TIP3    H213165   8.170   0.295   3.205
 4408TIP3   OH213166   3.934   2.269   3.659
 4408TIP3    H113167   4.018   2.224   3.669
 4408TIP3    H213168   3.956   2.362   3.670
 4409TIP3   OH213169   7.704   1.843   4.640
 4409TIP3    H113170   7.609   1.829   4.641
 4409TIP3    H213171   7.736   1.784   4.572
 4410TIP3   OH213172   5.031   1.425   0.719
 4410TIP3    H113173   5.054   1.518   0.727
 4410TIP3    H213174   4.948   1.425   0.671
 4411TIP3   OH213175   1.078   4.616   1.233
 4411TIP3    H113176   0.996   4.634   1.187
 4411TIP3    H213177   1.069   4.527   1.265
 4412TIP3   OH213178   6.070   4.387   6.705
 4412TIP3    H113179   6.006   4.447   6.742
 4412TIP3    H213180   6.018   4.330   6.648
 4413TIP3   OH213181   6.262   1.528   6.156
 4413TIP3    H113182   6.295   1.593   6.218
 4413TIP3    H213183   6.227   1.579   6.083
 4414TIP3   OH213184   5.359   7.128   5.416
 4414TIP3    H113185   5.379   7.036   5.396
 4414TIP3    H213186   5.432   7.156   5.471
 4415TIP3   OH213187   0.972   1.181   4.601
 4415TIP3    H113188   1.028   1.122   4.550
 4415TIP3    H213189   1.033   1.226   4.659
 4416TIP3   OH213190   0.406   7.426   2.204
 4416TIP3    H113191   0.312   7.412   2.195
 4416TIP3    H213192   0.427   7.491   2.138
 4417TIP3   OH213193   7.930   3.091   0.962
 4417TIP3    H113194   7.875   3.013   0.955
 4417TIP3    H213195   7.868   3.163   0.976
 4418TIP3   OH213196   2.190   3.082   5.927
 4418TIP3    H113197   2.264   3.093   5.867
 4418TIP3    H213198   2.226   3.103   6.013
 4419TIP3   OH213199   6.488   1.611   6.660
 4419TIP3    H113200   6.442   1.611   6.576
 4419TIP3    H213201   6.543   1.690   6.657
 4420TIP3   OH213202   3.245   3.532   6.721
 4420TIP3    H113203   3.199   3.526   6.805
 4420TIP3    H213204   3.313   3.466   6.726
 4421TIP3   OH213205   3.859   3.428   1.997
 4421TIP3    H113206   3.862   3.516   1.960
 4421TIP3    H213207   3.899   3.438   2.084
 4422TIP3   OH213208   5.781   6.772   1.064
 4422TIP3    H113209   5.845   6.840   1.082
 4422TIP3    H213210   5.816   6.725   0.988
 4423TIP3   OH213211   2.665   0.800   0.433
 4423TIP3    H113212   2.683   0.886   0.397
 4423TIP3    H213213   2.590   0.768   0.382
 4424TIP3   OH213214   7.598   2.120   5.038
 4424TIP3    H113215   7.676   2.097   4.989
 4424TIP3    H213216   7.593   2.055   5.108
 4425TIP3   OH213217   4.679   3.942   2.199
 4425TIP3    H113218   4.702   4.033   2.181
 4425TIP3    H213219   4.619   3.947   2.274
 4426TIP3   OH213220   4.934   6.558   0.651
 4426TIP3    H113221   4.910   6.494   0.718
 4426TIP3    H213222   5.011   6.602   0.687
 4427TIP3   OH213223  -0.007   2.798   3.866
 4427TIP3    H113224   0.063   2.761   3.812
 4427TIP3    H213225  -0.078   2.814   3.804
 4428TIP3   OH213226   4.300   5.797   1.708
 4428TIP3    H113227   4.225   5.746   1.679
 4428TIP3    H213228   4.279   5.888   1.684
 4429TIP3   OH213229   4.847   7.632   5.134
 4429TIP3    H113230   4.921   7.610   5.191
 4429TIP3    H213231   4.883   7.694   5.072
 4430TIP3   OH213232   1.566   0.989   2.398
 4430TIP3    H113233   1.573   0.954   2.309
 4430TIP3    H213234   1.590   0.915   2.455
 4431TIP3   OH213235   4.858   0.919   4.181
 4431TIP3    H113236   4.766   0.901   4.166
 4431TIP3    H213237   4.895   0.929   4.093
 4432TIP3   OH213238   1.634   2.940   4.035
 4432TIP3    H113239   1.644   2.858   3.986
 4432TIP3    H213240   1.574   2.992   3.981
 4433TIP3   OH213241   4.485   4.156   4.817
 4433TIP3    H113242   4.445   4.131   4.734
 4433TIP3    H213243   4.569   4.195   4.792
 4434TIP3   OH213244   7.438   1.165   5.144
 4434TIP3    H113245   7.482   1.170   5.229
 4434TIP3    H213246   7.498   1.116   5.088
 4435TIP3   OH213247   3.327   6.978   6.207
 4435TIP3    H113248   3.396   7.017   6.261
 4435TIP3    H213249   3.368   6.965   6.121
 4436TIP3   OH213250   0.838   3.468   2.177
 4436TIP3    H113251   0.825   3.542   2.236
 4436TIP3    H213252   0.750   3.443   2.149
 4437TIP3   OH213253   6.555   6.954   3.053
 4437TIP3    H113254   6.514   6.868   3.067
 4437TIP3    H213255   6.494   7.016   3.094
 4438TIP3   OH213256   7.614   0.503   4.822
 4438TIP3    H113257   7.665   0.434   4.863
 4438TIP3    H213258   7.651   0.513   4.735
 4439TIP3   OH213259   5.080   3.283   0.464
 4439TIP3    H113260   5.108   3.292   0.373
 4439TIP3    H213261   5.110   3.363   0.507
 4440TIP3   OH213262   4.941   2.190   0.285
 4440TIP3    H113263   4.979   2.127   0.346
 4440TIP3    H213264   5.011   2.253   0.270
 4441TIP3   OH213265   3.442   5.174   5.146
 4441TIP3    H113266   3.404   5.087   5.159
 4441TIP3    H213267   3.535   5.157   5.130
 4442TIP3   OH213268   2.125   1.469   3.097
 4442TIP3    H113269   2.107   1.376   3.086
 4442TIP3    H213270   2.047   1.503   3.141
 4443TIP3   OH213271   4.629   3.466   2.852
 4443TIP3    H113272   4.659   3.409   2.782
 4443TIP3    H213273   4.661   3.553   2.828
 4444TIP3   OH213274   0.982   1.704   2.402
 4444TIP3    H113275   1.034   1.728   2.326
 4444TIP3    H213276   0.896   1.680   2.367
 4445TIP3   OH213277   3.233   5.677   0.240
 4445TIP3    H113278   3.273   5.704   0.157
 4445TIP3    H213279   3.141   5.663   0.219
 4446TIP3   OH213280   4.360   2.479   6.557
 4446TIP3    H113281   4.311   2.422   6.616
 4446TIP3    H213282   4.293   2.528   6.509
 4447TIP3   OH213283   7.592   0.124   3.328
 4447TIP3    H113284   7.556   0.035   3.337
 4447TIP3    H213285   7.540   0.176   3.390
 4448TIP3   OH213286   7.077   0.741   6.320
 4448TIP3    H113287   7.012   0.736   6.249
 4448TIP3    H213288   7.042   0.683   6.388
 4449TIP3   OH213289   6.313   3.929   0.387
 4449TIP3    H113290   6.221   3.935   0.361
 4449TIP3    H213291   6.362   3.933   0.305
 4450TIP3   OH213292   0.728   4.460   0.016
 4450TIP3    H113293   0.762   4.541   0.056
 4450TIP3    H213294   0.775   4.390   0.061
 4451TIP3   OH213295   3.353   2.961   5.063
 4451TIP3    H113296   3.400   3.045   5.067
 4451TIP3    H213297   3.266   2.981   5.099
 4452TIP3   OH213298   0.098   0.655   1.663
 4452TIP3    H113299   0.178   0.637   1.615
 4452TIP3    H213300   0.028   0.636   1.600
 4453TIP3   OH213301   7.844   0.728   2.297
 4453TIP3    H113302   7.901   0.724   2.220
 4453TIP3    H213303   7.756   0.711   2.262
 4454TIP3   OH213304   2.878   4.760   3.620
 4454TIP3    H113305   2.832   4.814   3.684
 4454TIP3    H213306   2.817   4.690   3.599
 4455TIP3   OH213307   0.095   3.235   4.289
 4455TIP3    H113308   0.055   3.322   4.288
 4455TIP3    H213309   0.084   3.205   4.379
 4456TIP3   OH213310   4.267   7.211   3.789
 4456TIP3    H113311   4.227   7.298   3.794
 4456TIP3    H213312   4.262   7.177   3.878
 4457TIP3   OH213313   0.438   2.613   6.539
 4457TIP3    H113314   0.351   2.597   6.576
 4457TIP3    H213315   0.498   2.567   6.598
 4458TIP3   OH213316   6.592   1.268   4.356
 4458TIP3    H113317   6.599   1.363   4.356
 4458TIP3    H213318   6.498   1.251   4.352
 4459TIP3   OH213319   5.027   4.880   4.524
 4459TIP3    H113320   5.063   4.908   4.440
 4459TIP3    H213321   4.936   4.857   4.506
 4460TIP3   OH213322   2.324   1.069   0.531
 4460TIP3    H113323   2.386   1.137   0.505
 4460TIP3    H213324   2.340   0.997   0.470
 4461TIP3   OH213325   5.118   3.886   1.980
 4461TIP3    H113326   5.114   3.810   2.039
 4461TIP3    H213327   5.051   3.869   1.914
 4462TIP3   OH213328   3.926   2.995   2.766
 4462TIP3    H113329   3.841   3.030   2.794
 4462TIP3    H213330   3.951   3.051   2.692
 4463TIP3   OH213331   6.285   0.710   0.422
 4463TIP3    H113332   6.356   0.710   0.357
 4463TIP3    H213333   6.257   0.801   0.427
 4464TIP3   OH213334   7.339   0.762   6.467
 4464TIP3    H113335   7.277   0.774   6.395
 4464TIP3    H213336   7.330   0.669   6.491
 4465TIP3   OH213337   2.146   3.342   0.753
 4465TIP3    H113338   2.220   3.354   0.694
 4465TIP3    H213339   2.117   3.430   0.775
 4466TIP3   OH213340   3.488   0.256   1.125
 4466TIP3    H113341   3.574   0.216   1.114
 4466TIP3    H213342   3.461   0.281   1.036
 4467TIP3   OH213343   4.423   2.880   0.697
 4467TIP3    H113344   4.422   2.929   0.615
 4467TIP3    H213345   4.372   2.801   0.679
 4468TIP3   OH213346   6.857   0.111   4.480
 4468TIP3    H113347   6.852   0.153   4.566
 4468TIP3    H213348   6.785   0.047   4.480
 4469TIP3   OH213349   3.830   3.212   1.021
 4469TIP3    H113350   3.911   3.261   1.033
 4469TIP3    H213351   3.824   3.199   0.926
 4470TIP3   OH213352   7.500   0.673   5.956
 4470TIP3    H113353   7.475   0.686   6.047
 4470TIP3    H213354   7.554   0.749   5.934
 4471TIP3   OH213355   3.281   4.411   0.574
 4471TIP3    H113356   3.222   4.363   0.632
 4471TIP3    H213357   3.368   4.399   0.612
 4472TIP3   OH213358   7.058   3.740   1.678
 4472TIP3    H113359   7.018   3.669   1.629
 4472TIP3    H213360   7.150   3.714   1.688
 4473TIP3   OH213361   3.922   6.579   6.743
 4473TIP3    H113362   3.911   6.512   6.675
 4473TIP3    H213363   3.837   6.623   6.747
 4474TIP3   OH213364   6.295   7.762   3.439
 4474TIP3    H113365   6.389   7.747   3.448
 4474TIP3    H213366   6.256   7.718   3.514
 4475TIP3   OH213367   7.804   5.728   1.981
 4475TIP3    H113368   7.871   5.726   2.049
 4475TIP3    H213369   7.849   5.760   1.903
 4476TIP3   OH213370   0.781   2.477   1.806
 4476TIP3    H113371   0.856   2.465   1.864
 4476TIP3    H213372   0.814   2.534   1.736
 4477TIP3   OH213373   1.859   1.464   2.807
 4477TIP3    H113374   1.904   1.394   2.761
 4477TIP3    H213375   1.857   1.436   2.899
 4478TIP3   OH213376   6.771   6.197   1.329
 4478TIP3    H113377   6.678   6.222   1.327
 4478TIP3    H213378   6.812   6.259   1.388
 4479TIP3   OH213379   7.512   0.127   5.545
 4479TIP3    H113380   7.453   0.089   5.481
 4479TIP3    H213381   7.574   0.179   5.493
 4480TIP3   OH213382   3.068   3.036   3.460
 4480TIP3    H113383   3.129   3.054   3.389
 4480TIP3    H213384   2.986   3.012   3.416
 4481TIP3   OH213385   4.187   3.546   1.800
 4481TIP3    H113386   4.245   3.600   1.745
 4481TIP3    H213387   4.171   3.601   1.878
 4482TIP3   OH213388   2.709   4.740   3.969
 4482TIP3    H113389   2.758   4.771   4.045
 4482TIP3    H213390   2.759   4.664   3.939
 4483TIP3   OH213391   4.584   1.800   1.278
 4483TIP3    H113392   4.664   1.848   1.257
 4483TIP3    H213393   4.546   1.848   1.352
 4484TIP3   OH213394   7.498   2.150   4.458
 4484TIP3    H113395   7.505   2.075   4.400
 4484TIP3    H213396   7.427   2.203   4.421
 4485TIP3   OH213397   2.194   6.424   5.812
 4485TIP3    H113398   2.221   6.341   5.850
 4485TIP3    H213399   2.274   6.477   5.810
 4486TIP3   OH213400   1.302   2.742   5.771
 4486TIP3    H113401   1.275   2.652   5.790
 4486TIP3    H213402   1.235   2.775   5.711
 4487TIP3   OH213403   7.120   7.630   5.132
 4487TIP3    H113404   7.206   7.670   5.121
 4487TIP3    H213405   7.126   7.547   5.084
 4488TIP3   OH213406   3.709   4.999   6.318
 4488TIP3    H113407   3.703   4.921   6.373
 4488TIP3    H213408   3.767   5.058   6.366
 4489TIP3   OH213409   2.393   4.701   1.870
 4489TIP3    H113410   2.402   4.706   1.966
 4489TIP3    H213411   2.391   4.792   1.841
 4490TIP3   OH213412   7.465   3.105   5.115
 4490TIP3    H113413   7.498   3.051   5.043
 4490TIP3    H213414   7.407   3.169   5.073
 4491TIP3   OH213415   0.596   2.240   4.016
 4491TIP3    H113416   0.680   2.206   3.986
 4491TIP3    H213417   0.601   2.334   3.998
 4492TIP3   OH213418   1.388   3.168   6.220
 4492TIP3    H113419   1.477   3.158   6.252
 4492TIP3    H213420   1.374   3.263   6.219
 4493TIP3   OH213421   6.892   1.265   4.501
 4493TIP3    H113422   6.835   1.265   4.424
 4493TIP3    H213423   6.833   1.252   4.575
 4494TIP3   OH213424   3.485   7.436   2.274
 4494TIP3    H113425   3.571   7.413   2.238
 4494TIP3    H213426   3.423   7.399   2.212
 4495TIP3   OH213427   1.483   6.349   1.754
 4495TIP3    H113428   1.395   6.320   1.780
 4495TIP3    H213429   1.507   6.415   1.820
 4496TIP3   OH213430   6.213   4.596   3.288
 4496TIP3    H113431   6.274   4.597   3.214
 4496TIP3    H213432   6.197   4.503   3.303
 4497TIP3   OH213433   7.970   4.650   5.360
 4497TIP3    H113434   8.039   4.690   5.414
 4497TIP3    H213435   8.017   4.613   5.285
 4498TIP3   OH213436   2.041   1.719   1.726
 4498TIP3    H113437   1.974   1.763   1.674
 4498TIP3    H213438   2.121   1.728   1.675
 4499TIP3   OH213439   1.834   1.692   6.606
 4499TIP3    H113440   1.876   1.777   6.612
 4499TIP3    H213441   1.903   1.630   6.629
 4500TIP3   OH213442   6.315   5.761   1.329
 4500TIP3    H113443   6.353   5.691   1.276
 4500TIP3    H213444   6.289   5.718   1.410
 4501TIP3   OH213445   0.554   6.071   6.157
 4501TIP3    H113446   0.643   6.059   6.123
 4501TIP3    H213447   0.565   6.070   6.252
 4502TIP3   OH213448   5.713   6.094   5.891
 4502TIP3    H113449   5.767   6.154   5.838
 4502TIP3    H213450   5.776   6.050   5.948
 4503TIP3   OH213451   3.730   2.984   4.570
 4503TIP3    H113452   3.707   3.076   4.557
 4503TIP3    H213453   3.701   2.940   4.489
 4504TIP3   OH213454   6.493   1.240   3.057
 4504TIP3    H113455   6.509   1.269   2.967
 4504TIP3    H213456   6.422   1.176   3.050
 4505TIP3   OH213457   7.880   3.101   4.286
 4505TIP3    H113458   7.901   3.009   4.305
 4505TIP3    H213459   7.956   3.134   4.239
 4506TIP3   OH213460   6.956   4.873   4.650
 4506TIP3    H113461   6.957   4.962   4.686
 4506TIP3    H213462   7.048   4.845   4.653
 4507TIP3   OH213463   6.705   3.069   6.378
 4507TIP3    H113464   6.636   3.101   6.436
 4507TIP3    H213465   6.766   3.143   6.370
 4508TIP3   OH213466   5.567   7.146   5.960
 4508TIP3    H113467   5.628   7.178   5.893
 4508TIP3    H213468   5.488   7.123   5.912
 4509TIP3   OH213469   7.134   4.231   3.438
 4509TIP3    H113470   7.183   4.313   3.444
 4509TIP3    H213471   7.122   4.204   3.529
 4510TIP3   OH213472   5.319   2.230   6.119
 4510TIP3    H113473   5.341   2.181   6.198
 4510TIP3    H213474   5.385   2.203   6.055
 4511TIP3   OH213475   5.126   7.032   2.562
 4511TIP3    H113476   5.119   7.123   2.531
 4511TIP3    H213477   5.047   6.989   2.529
 4512TIP3   OH213478   4.640   0.633   1.953
 4512TIP3    H113479   4.723   0.640   1.905
 4512TIP3    H213480   4.595   0.560   1.911
 4513TIP3   OH213481   2.185   7.380   1.856
 4513TIP3    H113482   2.246   7.323   1.904
 4513TIP3    H213483   2.130   7.419   1.924
 4514TIP3   OH213484   8.044   1.545   2.932
 4514TIP3    H113485   8.109   1.546   3.001
 4514TIP3    H213486   8.028   1.452   2.915
 4515TIP3   OH213487   3.567   3.701   4.831
 4515TIP3    H113488   3.576   3.730   4.740
 4515TIP3    H213489   3.502   3.760   4.869
 4516TIP3   OH213490   4.724   0.968   6.056
 4516TIP3    H113491   4.773   1.049   6.045
 4516TIP3    H213492   4.701   0.941   5.967
 4517TIP3   OH213493   0.954   1.492   3.032
 4517TIP3    H113494   0.957   1.574   2.982
 4517TIP3    H213495   0.866   1.492   3.070
 4518TIP3   OH213496   7.847   2.112   6.511
 4518TIP3    H113497   7.903   2.075   6.580
 4518TIP3    H213498   7.769   2.057   6.512
 4519TIP3   OH213499   8.043   4.974   4.738
 4519TIP3    H113500   8.066   4.938   4.824
 4519TIP3    H213501   8.097   4.924   4.676
 4520TIP3   OH213502   2.467   1.015   5.467
 4520TIP3    H113503   2.408   1.057   5.404
 4520TIP3    H213504   2.535   1.079   5.483
 4521TIP3   OH213505   6.893   5.258   4.937
 4521TIP3    H113506   6.896   5.262   5.033
 4521TIP3    H213507   6.800   5.272   4.916
 4522TIP3   OH213508   1.660   6.857   2.740
 4522TIP3    H113509   1.695   6.860   2.829
 4522TIP3    H213510   1.658   6.763   2.718
 4523TIP3   OH213511   5.645   1.972   1.858
 4523TIP3    H113512   5.597   1.933   1.785
 4523TIP3    H213513   5.666   1.898   1.916
 4524TIP3   OH213514   7.697   7.489   2.759
 4524TIP3    H113515   7.716   7.414   2.815
 4524TIP3    H213516   7.775   7.501   2.706
 4525TIP3   OH213517   8.298   7.644   5.770
 4525TIP3    H113518   8.375   7.628   5.716
 4525TIP3    H213519   8.239   7.571   5.750
 4526TIP3   OH213520   3.274   6.537   0.934
 4526TIP3    H113521   3.262   6.458   0.881
 4526TIP3    H213522   3.275   6.609   0.871
 4527TIP3   OH213523   0.688   6.458   1.679
 4527TIP3    H113524   0.728   6.545   1.673
 4527TIP3    H213525   0.757   6.403   1.716
 4528TIP3   OH213526   6.161   0.519   2.950
 4528TIP3    H113527   6.068   0.522   2.930
 4528TIP3    H213528   6.201   0.483   2.871
 4529TIP3   OH213529   3.199   5.263   2.652
 4529TIP3    H113530   3.235   5.265   2.741
 4529TIP3    H213531   3.108   5.234   2.663
 4530TIP3   OH213532   4.398   4.154   2.574
 4530TIP3    H113533   4.330   4.213   2.542
 4530TIP3    H213534   4.443   4.205   2.642
 4531TIP3   OH213535   2.779   6.451   3.313
 4531TIP3    H113536   2.785   6.503   3.234
 4531TIP3    H213537   2.868   6.449   3.348
 4532TIP3   OH213538   6.116   4.878   1.791
 4532TIP3    H113539   6.146   4.850   1.877
 4532TIP3    H213540   6.173   4.831   1.730
 4533TIP3   OH213541   5.586   7.702   4.659
 4533TIP3    H113542   5.526   7.657   4.719
 4533TIP3    H213543   5.672   7.694   4.702
 4534TIP3   OH213544   4.221   2.196   6.137
 4534TIP3    H113545   4.238   2.285   6.107
 4534TIP3    H213546   4.308   2.159   6.154
 4535TIP3   OH213547   8.276   6.054   6.317
 4535TIP3    H113548   8.226   6.113   6.262
 4535TIP3    H213549   8.276   5.971   6.270
 4536TIP3   OH213550   0.043   1.343   3.011
 4536TIP3    H113551  -0.014   1.289   2.957
 4536TIP3    H213552   0.083   1.282   3.072
 4537TIP3   OH213553   4.847   5.138   5.089
 4537TIP3    H113554   4.852   5.074   5.160
 4537TIP3    H213555   4.755   5.164   5.086
 4538TIP3   OH213556   4.710   7.698   0.748
 4538TIP3    H113557   4.727   7.788   0.775
 4538TIP3    H213558   4.618   7.682   0.770
 4539TIP3   OH213559   4.279   5.548   3.154
 4539TIP3    H113560   4.312   5.602   3.081
 4539TIP3    H213561   4.207   5.498   3.115
 4540TIP3   OH213562   3.945   6.405   2.762
 4540TIP3    H113563   3.919   6.492   2.732
 4540TIP3    H213564   3.867   6.351   2.748
 4541TIP3   OH213565   4.560   0.878   0.760
 4541TIP3    H113566   4.597   0.907   0.843
 4541TIP3    H213567   4.467   0.861   0.780
 4542TIP3   OH213568   1.664   7.141   4.838
 4542TIP3    H113569   1.636   7.224   4.800
 4542TIP3    H213570   1.722   7.166   4.910
 4543TIP3   OH213571   6.743   3.292   5.147
 4543TIP3    H113572   6.812   3.253   5.092
 4543TIP3    H213573   6.694   3.218   5.182
 4544TIP3   OH213574   6.542   3.603   6.743
 4544TIP3    H113575   6.502   3.585   6.828
 4544TIP3    H213576   6.589   3.523   6.721
 4545TIP3   OH213577   4.130   6.616   4.451
 4545TIP3    H113578   4.220   6.590   4.433
 4545TIP3    H213579   4.087   6.535   4.481
 4546TIP3   OH213580   1.637   0.271   4.912
 4546TIP3    H113581   1.664   0.321   4.834
 4546TIP3    H213582   1.717   0.263   4.964
 4547TIP3   OH213583   0.166   0.210   0.775
 4547TIP3    H113584   0.207   0.230   0.691
 4547TIP3    H213585   0.235   0.170   0.827
 4548TIP3   OH213586   3.103   2.517   2.940
 4548TIP3    H113587   3.153   2.576   2.883
 4548TIP3    H213588   3.056   2.460   2.879
 4549TIP3   OH213589   4.270   3.582   4.414
 4549TIP3    H113590   4.340   3.645   4.431
 4549TIP3    H213591   4.289   3.509   4.473
 4550TIP3   OH213592   8.195   3.427   5.992
 4550TIP3    H113593   8.222   3.394   5.906
 4550TIP3    H213594   8.131   3.364   6.024
 4551TIP3   OH213595   8.124   6.394   3.399
 4551TIP3    H113596   8.031   6.393   3.379
 4551TIP3    H213597   8.130   6.440   3.482
 4552TIP3   OH213598   4.611   3.116   5.615
 4552TIP3    H113599   4.587   3.207   5.629
 4552TIP3    H213600   4.575   3.095   5.529
 4553TIP3   OH213601   6.863   6.771   2.299
 4553TIP3    H113602   6.953   6.785   2.327
 4553TIP3    H213603   6.856   6.819   2.216
 4554TIP3   OH213604   1.652   6.424   5.209
 4554TIP3    H113605   1.739   6.448   5.242
 4554TIP3    H213606   1.669   6.358   5.142
 4555TIP3   OH213607   1.032   4.169   3.306
 4555TIP3    H113608   1.052   4.182   3.399
 4555TIP3    H213609   1.068   4.246   3.263
 4556TIP3   OH213610   4.798   1.746   0.815
 4556TIP3    H113611   4.729   1.704   0.763
 4556TIP3    H213612   4.837   1.810   0.756
 4557TIP3   OH213613   2.579   3.730   2.976
 4557TIP3    H113614   2.653   3.779   2.940
 4557TIP3    H213615   2.511   3.738   2.910
 4558TIP3   OH213616   1.544   0.123   0.967
 4558TIP3    H113617   1.480   0.052   0.964
 4558TIP3    H213618   1.620   0.084   1.010
 4559TIP3   OH213619   3.200   2.940   0.380
 4559TIP3    H113620   3.209   2.845   0.369
 4559TIP3    H213621   3.287   2.971   0.401
 4560TIP3   OH213622   1.583   0.406   4.168
 4560TIP3    H113623   1.540   0.479   4.213
 4560TIP3    H213624   1.603   0.441   4.081
 4561TIP3   OH213625   5.298   1.275   4.478
 4561TIP3    H113626   5.295   1.193   4.529
 4561TIP3    H213627   5.207   1.293   4.457
 4562TIP3   OH213628   8.208   6.657   6.326
 4562TIP3    H113629   8.255   6.693   6.402
 4562TIP3    H213630   8.158   6.731   6.292
 4563TIP3   OH213631   0.174   4.775   6.536
 4563TIP3    H113632   0.238   4.829   6.581
 4563TIP3    H213633   0.224   4.730   6.468
 4564TIP3   OH213634   3.383   1.088   5.847
 4564TIP3    H113635   3.435   1.168   5.846
 4564TIP3    H213636   3.399   1.047   5.763
 4565TIP3   OH213637   5.898   3.311   4.770
 4565TIP3    H113638   5.880   3.285   4.860
 4565TIP3    H213639   5.846   3.390   4.757
 4566TIP3   OH213640   3.465   2.283   4.200
 4566TIP3    H113641   3.498   2.325   4.121
 4566TIP3    H213642   3.541   2.236   4.235
 4567TIP3   OH213643   1.775   0.598   3.158
 4567TIP3    H113644   1.753   0.575   3.068
 4567TIP3    H213645   1.769   0.693   3.161
 4568TIP3   OH213646   7.924   1.067   3.610
 4568TIP3    H113647   7.927   0.972   3.595
 4568TIP3    H213648   8.014   1.096   3.592
 4569TIP3   OH213649   1.659   0.784   0.060
 4569TIP3    H113650   1.710   0.831  -0.006
 4569TIP3    H213651   1.568   0.811   0.044
 4570TIP3   OH213652   3.864   1.829   4.046
 4570TIP3    H113653   3.941   1.779   4.071
 4570TIP3    H213654   3.899   1.915   4.020
 4571TIP3   OH213655   2.953   2.781   4.846
 4571TIP3    H113656   2.903   2.700   4.838
 4571TIP3    H213657   3.019   2.763   4.913
 4572TIP3   OH213658   1.534   5.875   3.214
 4572TIP3    H113659   1.534   5.828   3.131
 4572TIP3    H213660   1.605   5.835   3.264
 4573TIP3   OH213661   1.038   1.861   0.193
 4573TIP3    H113662   1.109   1.851   0.258
 4573TIP3    H213663   0.970   1.801   0.223
 4574TIP3   OH213664   7.878   7.240   5.620
 4574TIP3    H113665   7.817   7.266   5.551
 4574TIP3    H213666   7.929   7.168   5.582
 4575TIP3   OH213667   7.629   6.139   2.244
 4575TIP3    H113668   7.720   6.121   2.220
 4575TIP3    H213669   7.590   6.052   2.257
 4576TIP3   OH213670   5.550   1.156   2.984
 4576TIP3    H113671   5.641   1.126   2.994
 4576TIP3    H213672   5.542   1.178   2.891
 4577TIP3   OH213673   2.992   6.730   6.650
 4577TIP3    H113674   3.052   6.803   6.665
 4577TIP3    H213675   2.946   6.719   6.733
 4578TIP3   OH213676   0.660   3.024   5.202
 4578TIP3    H113677   0.570   3.056   5.204
 4578TIP3    H213678   0.698   3.053   5.284
 4579TIP3   OH213679   3.926   1.492   2.641
 4579TIP3    H113680   3.835   1.512   2.623
 4579TIP3    H213681   3.925   1.448   2.726
 4580TIP3   OH213682   6.017   5.891   0.739
 4580TIP3    H113683   6.061   5.819   0.784
 4580TIP3    H213684   5.955   5.926   0.803
 4581TIP3   OH213685   0.417   5.660   1.462
 4581TIP3    H113686   0.337   5.608   1.454
 4581TIP3    H213687   0.393   5.734   1.518
 4582TIP3   OH213688   6.705   5.302   6.126
 4582TIP3    H113689   6.733   5.292   6.035
 4582TIP3    H213690   6.781   5.341   6.170
 4583TIP3   OH213691   0.926   4.888   5.912
 4583TIP3    H113692   1.002   4.849   5.868
 4583TIP3    H213693   0.852   4.864   5.856
 4584TIP3   OH213694   7.164   7.168   2.662
 4584TIP3    H113695   7.133   7.162   2.752
 4584TIP3    H213696   7.217   7.090   2.649
 4585TIP3   OH213697   2.703   2.120   1.664
 4585TIP3    H113698   2.638   2.130   1.734
 4585TIP3    H213699   2.786   2.142   1.705
 4586TIP3   OH213700   6.728   3.673   0.439
 4586TIP3    H113701   6.797   3.720   0.392
 4586TIP3    H213702   6.776   3.607   0.489
 4587TIP3   OH213703   0.911   7.658   2.750
 4587TIP3    H113704   0.986   7.626   2.700
 4587TIP3    H213705   0.856   7.702   2.685
 4588TIP3   OH213706   6.037   6.017   0.073
 4588TIP3    H113707   6.075   6.073   0.005
 4588TIP3    H213708   6.039   5.929   0.036
 4589TIP3   OH213709   6.272   7.209   4.214
 4589TIP3    H113710   6.246   7.120   4.239
 4589TIP3    H213711   6.336   7.235   4.280
 4590TIP3   OH213712   6.444   1.068   1.851
 4590TIP3    H113713   6.515   1.115   1.807
 4590TIP3    H213714   6.487   0.993   1.893
 4591TIP3   OH213715   4.427   7.640   2.765
 4591TIP3    H113716   4.431   7.607   2.675
 4591TIP3    H213717   4.337   7.621   2.792
 4592TIP3   OH213718   6.033   0.510   4.138
 4592TIP3    H113719   6.063   0.601   4.132
 4592TIP3    H213720   6.113   0.459   4.149
 4593TIP3   OH213721   2.918   6.008   1.436
 4593TIP3    H113722   2.950   5.972   1.353
 4593TIP3    H213723   2.833   6.047   1.415
 4594TIP3   OH213724   5.628   1.693   0.186
 4594TIP3    H113725   5.661   1.606   0.162
 4594TIP3    H213726   5.705   1.748   0.188
 4595TIP3   OH213727   2.095   1.281   0.900
 4595TIP3    H113728   2.174   1.230   0.883
 4595TIP3    H213729   2.084   1.335   0.822
 4596TIP3   OH213730   5.381   0.379   5.208
 4596TIP3    H113731   5.443   0.379   5.281
 4596TIP3    H213732   5.379   0.288   5.178
 4597TIP3   OH213733   1.684   1.866   1.054
 4597TIP3    H113734   1.771   1.870   1.094
 4597TIP3    H213735   1.685   1.937   0.989
 4598TIP3   OH213736   1.059   4.204   0.418
 4598TIP3    H113737   1.118   4.271   0.384
 4598TIP3    H213738   1.114   4.128   0.432
 4599TIP3   OH213739   3.383   1.955   3.539
 4599TIP3    H113740   3.461   1.938   3.487
 4599TIP3    H213741   3.352   2.040   3.508
 4600TIP3   OH213742   4.945   2.889   5.896
 4600TIP3    H113743   4.852   2.908   5.896
 4600TIP3    H213744   4.983   2.953   5.955
 4601TIP3   OH213745   0.867   1.444   5.819
 4601TIP3    H113746   0.908   1.360   5.801
 4601TIP3    H213747   0.858   1.447   5.914
 4602TIP3   OH213748   4.151   7.261   5.038
 4602TIP3    H113749   4.085   7.203   5.001
 4602TIP3    H213750   4.128   7.267   5.131
 4603TIP3   OH213751   6.547   3.026   0.127
 4603TIP3    H113752   6.545   2.946   0.074
 4603TIP3    H213753   6.520   3.095   0.066
 4604TIP3   OH213754   4.933   2.020   6.171
 4604TIP3    H113755   4.986   2.098   6.185
 4604TIP3    H213756   4.944   1.999   6.079
 4605TIP3   OH213757   2.022   7.400   6.638
 4605TIP3    H113758   2.034   7.445   6.722
 4605TIP3    H213759   2.093   7.433   6.583
 4606TIP3   OH213760   5.372   3.252   1.890
 4606TIP3    H113761   5.342   3.162   1.880
 4606TIP3    H213762   5.291   3.304   1.894
 4607TIP3   OH213763   3.574   1.447   3.847
 4607TIP3    H113764   3.602   1.517   3.906
 4607TIP3    H213765   3.653   1.422   3.800
 4608TIP3   OH213766   4.197   4.073   4.972
 4608TIP3    H113767   4.265   4.006   4.971
 4608TIP3    H213768   4.244   4.156   4.978
 4609TIP3   OH213769   4.757   1.007   5.167
 4609TIP3    H113770   4.706   1.018   5.087
 4609TIP3    H213771   4.719   1.069   5.229
 4610TIP3   OH213772   7.423   5.655   5.091
 4610TIP3    H113773   7.419   5.569   5.050
 4610TIP3    H213774   7.478   5.707   5.033
 4611TIP3   OH213775   5.185   1.228   6.302
 4611TIP3    H113776   5.154   1.195   6.218
 4611TIP3    H213777   5.186   1.151   6.359
 4612TIP3   OH213778   4.168   0.766   2.089
 4612TIP3    H113779   4.133   0.699   2.030
 4612TIP3    H213780   4.091   0.802   2.133
 4613TIP3   OH213781   4.259   1.116   2.964
 4613TIP3    H113782   4.175   1.071   2.963
 4613TIP3    H213783   4.283   1.121   3.057
 4614TIP3   OH213784   2.538   6.507   1.284
 4614TIP3    H113785   2.511   6.418   1.262
 4614TIP3    H213786   2.559   6.504   1.378
 4615TIP3   OH213787   5.840   7.861   3.045
 4615TIP3    H113788   5.843   7.785   2.987
 4615TIP3    H213789   5.766   7.913   3.013
 4616TIP3   OH213790   3.496   3.589   2.421
 4616TIP3    H113791   3.421   3.635   2.383
 4616TIP3    H213792   3.502   3.622   2.511
 4617TIP3   OH213793   7.840   3.484   4.838
 4617TIP3    H113794   7.928   3.517   4.823
 4617TIP3    H213795   7.784   3.538   4.782
 4618TIP3   OH213796   5.462   2.391   1.863
 4618TIP3    H113797   5.549   2.412   1.832
 4618TIP3    H213798   5.451   2.298   1.843
 4619TIP3   OH213799   6.681   7.628   6.011
 4619TIP3    H113800   6.618   7.641   6.081
 4619TIP3    H213801   6.697   7.533   6.010
 4620TIP3   OH213802   3.135   0.102   5.056
 4620TIP3    H113803   3.115   0.195   5.047
 4620TIP3    H213804   3.142   0.088   5.150
 4621TIP3   OH213805   5.512   2.489   5.476
 4621TIP3    H113806   5.549   2.545   5.545
 4621TIP3    H213807   5.565   2.409   5.480
 4622TIP3   OH213808   7.613   4.842   4.853
 4622TIP3    H113809   7.534   4.797   4.883
 4622TIP3    H213810   7.656   4.778   4.796
 4623TIP3   OH213811   4.332   4.468   4.528
 4623TIP3    H113812   4.268   4.433   4.466
 4623TIP3    H213813   4.355   4.554   4.492
 4624TIP3   OH213814   0.072   0.478   2.705
 4624TIP3    H113815   0.147   0.532   2.678
 4624TIP3    H213816   0.086   0.465   2.799
 4625TIP3   OH213817   4.842   6.069   2.811
 4625TIP3    H113818   4.839   6.119   2.729
 4625TIP3    H213819   4.862   6.135   2.877
 4626TIP3   OH213820   2.728   3.809   0.694
 4626TIP3    H113821   2.707   3.743   0.628
 4626TIP3    H213822   2.712   3.893   0.649
 4627TIP3   OH213823   0.403   6.357   3.619
 4627TIP3    H113824   0.414   6.271   3.577
 4627TIP3    H213825   0.432   6.344   3.709
 4628TIP3   OH213826   0.275   1.571   4.848
 4628TIP3    H113827   0.340   1.507   4.819
 4628TIP3    H213828   0.269   1.633   4.776
 4629TIP3   OH213829   2.925   7.774   5.895
 4629TIP3    H113830   2.932   7.731   5.810
 4629TIP3    H213831   2.998   7.738   5.945
 4630TIP3   OH213832   3.351   1.169   1.495
 4630TIP3    H113833   3.290   1.197   1.427
 4630TIP3    H213834   3.318   1.084   1.524
 4631TIP3   OH213835   0.838   3.865   1.637
 4631TIP3    H113836   0.802   3.924   1.704
 4631TIP3    H213837   0.909   3.819   1.682
 4632TIP3   OH213838   7.704   0.595   5.307
 4632TIP3    H113839   7.639   0.530   5.279
 4632TIP3    H213840   7.729   0.640   5.226
 4633TIP3   OH213841   2.606   2.575   6.681
 4633TIP3    H113842   2.528   2.554   6.629
 4633TIP3    H213843   2.616   2.670   6.671
 4634TIP3   OH213844   3.790   0.051   4.683
 4634TIP3    H113845   3.786   0.015   4.594
 4634TIP3    H213846   3.729   0.126   4.681
 4635TIP3   OH213847   1.449   3.520   0.567
 4635TIP3    H113848   1.370   3.535   0.618
 4635TIP3    H213849   1.426   3.547   0.478
 4636TIP3   OH213850   4.925   2.452   5.054
 4636TIP3    H113851   5.010   2.490   5.080
 4636TIP3    H213852   4.862   2.522   5.070
 4637TIP3   OH213853   4.751   0.061   3.947
 4637TIP3    H113854   4.707   0.003   3.885
 4637TIP3    H213855   4.843   0.037   3.941
 4638TIP3   OH213856   5.374   3.552   3.919
 4638TIP3    H113857   5.441   3.559   3.987
 4638TIP3    H213858   5.330   3.637   3.920
 4639TIP3   OH213859   7.267   1.533   0.092
 4639TIP3    H113860   7.292   1.611   0.142
 4639TIP3    H213861   7.185   1.504   0.132
 4640TIP3   OH213862   5.311   0.862   2.595
 4640TIP3    H113863   5.285   0.924   2.664
 4640TIP3    H213864   5.235   0.806   2.583
 4641TIP3   OH213865   4.159   7.800   1.747
 4641TIP3    H113866   4.136   7.717   1.707
 4641TIP3    H213867   4.099   7.863   1.708
 4642TIP3   OH213868   5.499   1.417   5.867
 4642TIP3    H113869   5.498   1.356   5.793
 4642TIP3    H213870   5.415   1.405   5.910
 4643TIP3   OH213871   4.214   3.076   3.245
 4643TIP3    H113872   4.239   2.988   3.219
 4643TIP3    H213873   4.295   3.127   3.241
 4644TIP3   OH213874   8.247   6.497   4.512
 4644TIP3    H113875   8.267   6.453   4.594
 4644TIP3    H213876   8.254   6.590   4.532
 4645TIP3   OH213877   7.117   1.920   6.499
 4645TIP3    H113878   7.040   1.972   6.521
 4645TIP3    H213879   7.082   1.833   6.478
 4646TIP3   OH213880   0.854   5.076   5.652
 4646TIP3    H113881   0.827   5.152   5.704
 4646TIP3    H213882   0.810   5.001   5.693
 4647TIP3   OH213883   1.720   0.694   6.541
 4647TIP3    H113884   1.651   0.754   6.569
 4647TIP3    H213885   1.692   0.665   6.454
 4648TIP3   OH213886   7.198   6.255   1.142
 4648TIP3    H113887   7.118   6.210   1.114
 4648TIP3    H213888   7.236   6.289   1.061
 4649TIP3   OH213889   6.373   7.771   2.854
 4649TIP3    H113890   6.362   7.784   2.760
 4649TIP3    H213891   6.289   7.736   2.884
 4650TIP3   OH213892   4.566   0.848   4.171
 4650TIP3    H113893   4.528   0.769   4.134
 4650TIP3    H213894   4.498   0.883   4.229
 4651TIP3   OH213895   6.377   4.688   1.225
 4651TIP3    H113896   6.415   4.659   1.308
 4651TIP3    H213897   6.308   4.749   1.250
 4652TIP3   OH213898   5.407   6.053   5.073
 4652TIP3    H113899   5.493   6.092   5.088
 4652TIP3    H213900   5.421   5.959   5.086
 4653TIP3   OH213901   4.918   3.675   6.744
 4653TIP3    H113902   4.986   3.723   6.697
 4653TIP3    H213903   4.908   3.593   6.694
 4654TIP3   OH213904   2.651   0.994   0.856
 4654TIP3    H113905   2.594   0.984   0.933
 4654TIP3    H213906   2.635   0.916   0.804
 4655TIP3   OH213907   5.442   4.759   2.232
 4655TIP3    H113908   5.414   4.825   2.168
 4655TIP3    H213909   5.530   4.785   2.257
 4656TIP3   OH213910   6.868   2.096   1.399
 4656TIP3    H113911   6.811   2.021   1.416
 4656TIP3    H213912   6.812   2.159   1.353
 4657TIP3   OH213913   0.974   6.790   0.933
 4657TIP3    H113914   1.036   6.785   1.006
 4657TIP3    H213915   0.891   6.761   0.970
 4658TIP3   OH213916   0.883   4.167   6.259
 4658TIP3    H113917   0.949   4.155   6.191
 4658TIP3    H213918   0.874   4.261   6.269
 4659TIP3   OH213919   7.601   0.957   3.862
 4659TIP3    H113920   7.524   0.962   3.918
 4659TIP3    H213921   7.627   1.049   3.849
 4660TIP3   OH213922   2.077   4.198   4.111
 4660TIP3    H113923   2.018   4.271   4.095
 4660TIP3    H213924   2.162   4.239   4.130
 4661TIP3   OH213925   6.195   7.832   5.747
 4661TIP3    H113926   6.218   7.740   5.764
 4661TIP3    H213927   6.115   7.827   5.695
 4662TIP3   OH213928   6.434   2.203   5.291
 4662TIP3    H113929   6.490   2.144   5.239
 4662TIP3    H213930   6.415   2.154   5.371
 4663TIP3   OH213931   7.861   4.456   4.913
 4663TIP3    H113932   7.774   4.416   4.926
 4663TIP3    H213933   7.854   4.543   4.952
 4664TIP3   OH213934   0.333   7.370   4.698
 4664TIP3    H113935   0.284   7.407   4.625
 4664TIP3    H213936   0.271   7.368   4.771
 4665TIP3   OH213937   0.742   7.305   2.878
 4665TIP3    H113938   0.824   7.354   2.881
 4665TIP3    H213939   0.674   7.369   2.901
 4666TIP3   OH213940   6.013   2.429   0.729
 4666TIP3    H113941   5.980   2.518   0.722
 4666TIP3    H213942   5.934   2.375   0.737
 4667TIP3   OH213943   5.960   7.198   4.525
 4667TIP3    H113944   5.896   7.237   4.583
 4667TIP3    H213945   5.914   7.188   4.442
 4668TIP3   OH213946   5.386   2.363   4.770
 4668TIP3    H113947   5.368   2.423   4.697
 4668TIP3    H213948   5.313   2.375   4.830
 4669TIP3   OH213949   6.063   6.210   2.632
 4669TIP3    H113950   6.139   6.269   2.630
 4669TIP3    H213951   6.072   6.161   2.713
 4670TIP3   OH213952   3.093   7.596   0.756
 4670TIP3    H113953   3.077   7.517   0.706
 4670TIP3    H213954   3.006   7.635   0.768
 4671TIP3   OH213955   4.989   7.478   2.354
 4671TIP3    H113956   4.955   7.408   2.298
 4671TIP3    H213957   5.051   7.525   2.298
 4672TIP3   OH213958   1.550   6.751   4.366
 4672TIP3    H113959   1.570   6.832   4.411
 4672TIP3    H213960   1.633   6.703   4.363
 4673TIP3   OH213961   0.631   1.869   3.738
 4673TIP3    H113962   0.670   1.853   3.824
 4673TIP3    H213963   0.554   1.923   3.756
 4674TIP3   OH213964   4.451   7.562   4.901
 4674TIP3    H113965   4.360   7.547   4.929
 4674TIP3    H213966   4.446   7.570   4.806
 4675TIP3   OH213967   7.350   3.905   0.065
 4675TIP3    H113968   7.424   3.885   0.122
 4675TIP3    H213969   7.381   3.977   0.010
 4676TIP3   OH213970   0.561   2.943   0.343
 4676TIP3    H113971   0.469   2.932   0.318
 4676TIP3    H213972   0.609   2.885   0.284
 4677TIP3   OH213973   3.034   1.553   3.569
 4677TIP3    H113974   3.109   1.612   3.582
 4677TIP3    H213975   2.972   1.605   3.518
 4678TIP3   OH213976   4.782   1.445   6.160
 4678TIP3    H113977   4.801   1.358   6.125
 4678TIP3    H213978   4.845   1.457   6.231
 4679TIP3   OH213979   0.697   0.550   3.039
 4679TIP3    H113980   0.782   0.509   3.026
 4679TIP3    H213981   0.716   0.644   3.047
 4680TIP3   OH213982   1.697   6.134   3.009
 4680TIP3    H113983   1.783   6.105   3.041
 4680TIP3    H213984   1.662   6.058   2.962
 4681TIP3   OH213985   1.306   0.106   6.444
 4681TIP3    H113986   1.289   0.169   6.514
 4681TIP3    H213987   1.219   0.089   6.406
 4682TIP3   OH213988   3.665   1.110   3.758
 4682TIP3    H113989   3.746   1.141   3.717
 4682TIP3    H213990   3.597   1.162   3.716
 4683TIP3   OH213991   1.132   6.711   5.003
 4683TIP3    H113992   1.094   6.715   5.091
 4683TIP3    H213993   1.120   6.800   4.969
 4684TIP3   OH213994   4.999   6.775   6.331
 4684TIP3    H113995   4.955   6.828   6.264
 4684TIP3    H213996   5.029   6.697   6.284
 4685TIP3   OH213997   4.089   5.597   5.900
 4685TIP3    H113998   4.145   5.521   5.885
 4685TIP3    H213999   4.150   5.666   5.928
 4686TIP3   OH214000   8.109   7.482   6.351
 4686TIP3    H114001   8.104   7.515   6.441
 4686TIP3    H214002   8.189   7.521   6.316
 4687TIP3   OH214003   7.510   7.567   6.365
 4687TIP3    H114004   7.440   7.556   6.301
 4687TIP3    H214005   7.582   7.606   6.315
 4688TIP3   OH214006   5.168   4.067   1.369
 4688TIP3    H114007   5.172   4.153   1.411
 4688TIP3    H214008   5.234   4.015   1.416
 4689TIP3   OH214009   7.320   5.027   2.356
 4689TIP3    H114010   7.324   4.970   2.280
 4689TIP3    H214011   7.334   4.970   2.431
 4690TIP3   OH214012   3.400   0.637   6.779
 4690TIP3    H114013   3.402   0.716   6.724
 4690TIP3    H214014   3.394   0.565   6.716
 4691TIP3   OH214015   5.387   4.890   5.080
 4691TIP3    H114016   5.440   4.820   5.042
 4691TIP3    H214017   5.427   4.971   5.048
 4692TIP3   OH214018   7.167   4.131   2.316
 4692TIP3    H114019   7.155   4.210   2.368
 4692TIP3    H214020   7.214   4.071   2.375
 4693TIP3   OH214021   1.474   3.664   1.659
 4693TIP3    H114022   1.467   3.741   1.602
 4693TIP3    H214023   1.415   3.683   1.732
 4694TIP3   OH214024   5.200   2.718   6.131
 4694TIP3    H114025   5.217   2.797   6.183
 4694TIP3    H214026   5.287   2.687   6.105
 4695TIP3   OH214027   0.567   5.071   0.136
 4695TIP3    H114028   0.573   5.134   0.064
 4695TIP3    H214029   0.540   5.124   0.211
 4696TIP3   OH214030   5.703   1.910   1.372
 4696TIP3    H114031   5.746   1.975   1.316
 4696TIP3    H214032   5.613   1.907   1.340
 4697TIP3   OH214033   3.230   4.690   2.984
 4697TIP3    H114034   3.296   4.712   2.919
 4697TIP3    H214035   3.279   4.676   3.065
 4698TIP3   OH214036   2.011   5.792   3.735
 4698TIP3    H114037   1.990   5.708   3.696
 4698TIP3    H214038   2.003   5.855   3.662
 4699TIP3   OH214039   5.804   2.633   4.657
 4699TIP3    H114040   5.784   2.670   4.743
 4699TIP3    H214041   5.743   2.677   4.598
 4700TIP3   OH214042   3.285   2.666   4.433
 4700TIP3    H114043   3.322   2.598   4.377
 4700TIP3    H214044   3.256   2.620   4.511
 4701TIP3   OH214045   5.184   0.722   4.576
 4701TIP3    H114046   5.179   0.739   4.482
 4701TIP3    H214047   5.188   0.809   4.616
 4702TIP3   OH214048   4.116   6.251   3.556
 4702TIP3    H114049   4.149   6.341   3.548
 4702TIP3    H214050   4.021   6.260   3.562
 4703TIP3   OH214051   3.087   1.124   2.673
 4703TIP3    H114052   3.044   1.070   2.607
 4703TIP3    H214053   3.164   1.074   2.700
 4704TIP3   OH214054   3.597   0.479   5.445
 4704TIP3    H114055   3.568   0.566   5.474
 4704TIP3    H214056   3.535   0.418   5.484
 4705TIP3   OH214057   7.213   1.891   2.618
 4705TIP3    H114058   7.121   1.866   2.626
 4705TIP3    H214059   7.262   1.815   2.650
 4706TIP3   OH214060   7.199   1.977   2.338
 4706TIP3    H114061   7.192   1.960   2.431
 4706TIP3    H214062   7.292   1.968   2.318
 4707TIP3   OH214063   1.188   5.622   5.279
 4707TIP3    H114064   1.118   5.639   5.342
 4707TIP3    H214065   1.265   5.666   5.315
 4708TIP3   OH214066   3.933   6.796   5.975
 4708TIP3    H114067   3.905   6.776   6.064
 4708TIP3    H214068   3.919   6.715   5.926
 4709TIP3   OH214069   2.130   3.858   1.590
 4709TIP3    H114070   2.072   3.896   1.523
 4709TIP3    H214071   2.070   3.831   1.660
 4710TIP3   OH214072   0.728   7.182   4.192
 4710TIP3    H114073   0.740   7.091   4.164
 4710TIP3    H214074   0.647   7.210   4.149
 4711TIP3   OH214075   6.764   6.023   4.933
 4711TIP3    H114076   6.723   5.941   4.960
 4711TIP3    H214077   6.765   6.076   5.013
 4712TIP3   OH214078   3.109   6.280   4.480
 4712TIP3    H114079   3.107   6.336   4.558
 4712TIP3    H214080   3.025   6.295   4.437
 4713TIP3   OH214081   3.971   7.697   4.570
 4713TIP3    H114082   3.998   7.621   4.621
 4713TIP3    H214083   3.906   7.740   4.624
 4714TIP3   OH214084   3.404   5.512   1.957
 4714TIP3    H114085   3.461   5.505   2.034
 4714TIP3    H214086   3.328   5.560   1.989
 4715TIP3   OH214087   6.724   7.257   1.452
 4715TIP3    H114088   6.700   7.185   1.393
 4715TIP3    H214089   6.761   7.213   1.529
 4716TIP3   OH214090   0.328   0.695   5.338
 4716TIP3    H114091   0.288   0.777   5.311
 4716TIP3    H214092   0.381   0.668   5.263
 4717TIP3   OH214093   4.432   2.250   0.147
 4717TIP3    H114094   4.398   2.193   0.077
 4717TIP3    H214095   4.522   2.221   0.159
 4718TIP3   OH214096   7.794   7.074   6.047
 4718TIP3    H114097   7.713   7.117   6.020
 4718TIP3    H214098   7.858   7.101   5.981
 4719TIP3   OH214099   0.493   3.731   2.166
 4719TIP3    H114100   0.522   3.667   2.231
 4719TIP3    H214101   0.413   3.768   2.203
 4720TIP3   OH214102   7.861   6.036   2.116
 4720TIP3    H114103   7.852   5.961   2.175
 4720TIP3    H214104   7.940   6.018   2.066
 4721TIP3   OH214105   0.362   1.552   4.544
 4721TIP3    H114106   0.455   1.550   4.566
 4721TIP3    H214107   0.349   1.477   4.486
 4722TIP3   OH214108   4.047   3.395   0.626
 4722TIP3    H114109   3.986   3.466   0.605
 4722TIP3    H214110   3.992   3.327   0.664
 4723TIP3   OH214111   5.016   1.429   6.319
 4723TIP3    H114112   5.066   1.352   6.294
 4723TIP3    H214113   5.068   1.503   6.288
 4724TIP3   OH214114   6.703   2.165   3.802
 4724TIP3    H114115   6.707   2.212   3.719
 4724TIP3    H214116   6.751   2.084   3.787
 4725TIP3   OH214117   6.741   2.514   4.038
 4725TIP3    H114118   6.730   2.439   4.096
 4725TIP3    H214119   6.772   2.476   3.956
 4726TIP3   OH214120   1.137   2.605   2.754
 4726TIP3    H114121   1.188   2.548   2.697
 4726TIP3    H214122   1.047   2.594   2.725
 4727TIP3   OH214123   2.532   0.812   0.697
 4727TIP3    H114124   2.601   0.807   0.631
 4727TIP3    H214125   2.464   0.753   0.665
 4728TIP3   OH214126   1.512   2.637   4.826
 4728TIP3    H114127   1.556   2.718   4.851
 4728TIP3    H214128   1.462   2.660   4.747
 4729TIP3   OH214129   4.249   2.042   1.428
 4729TIP3    H114130   4.193   2.118   1.440
 4729TIP3    H214131   4.251   2.028   1.333
 4730TIP3   OH214132   2.726   5.167   0.155
 4730TIP3    H114133   2.756   5.104   0.090
 4730TIP3    H214134   2.680   5.114   0.220
 4731TIP3   OH214135   2.944   6.321   2.796
 4731TIP3    H114136   2.942   6.235   2.753
 4731TIP3    H214137   2.856   6.357   2.783
 4732TIP3   OH214138   7.625   1.947   1.456
 4732TIP3    H114139   7.665   1.878   1.404
 4732TIP3    H214140   7.531   1.940   1.436
 4733TIP3   OH214141   2.941   1.859   4.190
 4733TIP3    H114142   2.851   1.839   4.163
 4733TIP3    H214143   2.967   1.932   4.134
 4734TIP3   OH214144   0.031   4.902   4.437
 4734TIP3    H114145   0.109   4.867   4.393
 4734TIP3    H214146   0.012   4.838   4.506
 4735TIP3   OH214147   4.120   1.604   5.002
 4735TIP3    H114148   4.096   1.564   4.918
 4735TIP3    H214149   4.108   1.535   5.066
 4736TIP3   OH214150   4.806   3.259   6.035
 4736TIP3    H114151   4.820   3.284   6.127
 4736TIP3    H214152   4.787   3.342   5.991
 4737TIP3   OH214153   1.125   4.027   2.499
 4737TIP3    H114154   1.133   4.122   2.495
 4737TIP3    H214155   1.039   4.011   2.537
 4738TIP3   OH214156   0.722   5.511   5.447
 4738TIP3    H114157   0.710   5.598   5.409
 4738TIP3    H214158   0.799   5.520   5.503
 4739TIP3   OH214159   5.653   3.595   6.693
 4739TIP3    H114160   5.582   3.534   6.672
 4739TIP3    H214161   5.732   3.555   6.657
 4740TIP3   OH214162   7.277   4.873   6.311
 4740TIP3    H114163   7.356   4.897   6.359
 4740TIP3    H214164   7.301   4.792   6.265
 4741TIP3   OH214165   5.371   7.162   0.182
 4741TIP3    H114166   5.367   7.239   0.126
 4741TIP3    H214167   5.286   7.160   0.227
 4742TIP3   OH214168   4.240   6.033   3.297
 4742TIP3    H114169   4.322   6.045   3.249
 4742TIP3    H214170   4.240   5.940   3.320
 4743TIP3   OH214171   5.097   2.000   0.543
 4743TIP3    H114172   5.132   1.922   0.500
 4743TIP3    H214173   5.159   2.070   0.522
 4744TIP3   OH214174   5.723   3.403   0.465
 4744TIP3    H114175   5.791   3.342   0.438
 4744TIP3    H214176   5.741   3.483   0.415
 4745TIP3   OH214177   6.105   0.485   5.850
 4745TIP3    H114178   6.019   0.464   5.884
 4745TIP3    H214179   6.111   0.580   5.857
 4746TIP3   OH214180   1.693  -0.010   4.615
 4746TIP3    H114181   1.627   0.057   4.597
 4746TIP3    H214182   1.755  -0.003   4.541
 4747TIP3   OH214183   1.953   4.820   3.448
 4747TIP3    H114184   2.047   4.839   3.457
 4747TIP3    H214185   1.950   4.730   3.415
 4748TIP3   OH214186   5.592   5.854   5.194
 4748TIP3    H114187   5.649   5.925   5.224
 4748TIP3    H214188   5.530   5.841   5.265
 4749TIP3   OH214189   0.035   5.337   1.354
 4749TIP3    H114190  -0.032   5.399   1.325
 4749TIP3    H214191  -0.012   5.254   1.360
 4750TIP3   OH214192   5.456   3.524   0.326
 4750TIP3    H114193   5.410   3.453   0.370
 4750TIP3    H214194   5.547   3.516   0.356
 4751TIP3   OH214195   6.424   6.687   0.102
 4751TIP3    H114196   6.366   6.754   0.065
 4751TIP3    H214197   6.406   6.689   0.196
 4752TIP3   OH214198   5.844   4.126   2.683
 4752TIP3    H114199   5.938   4.109   2.688
 4752TIP3    H214200   5.832   4.167   2.597
 4753TIP3   OH214201   4.362   2.425   3.095
 4753TIP3    H114202   4.283   2.375   3.115
 4753TIP3    H214203   4.415   2.417   3.174
 4754TIP3   OH214204   1.217   4.844   0.207
 4754TIP3    H114205   1.290   4.800   0.164
 4754TIP3    H214206   1.141   4.823   0.153
 4755TIP3   OH214207   3.984   4.308   3.082
 4755TIP3    H114208   4.056   4.371   3.090
 4755TIP3    H214209   3.992   4.254   3.161
 4756TIP3   OH214210   7.758   1.926   0.010
 4756TIP3    H114211   7.741   2.012   0.048
 4756TIP3    H214212   7.809   1.880   0.076
 4757TIP3   OH214213   5.717   5.763   4.205
 4757TIP3    H114214   5.784   5.827   4.229
 4757TIP3    H214215   5.643   5.784   4.262
 4758TIP3   OH214216   7.169   7.653   2.958
 4758TIP3    H114217   7.171   7.748   2.949
 4758TIP3    H214218   7.230   7.634   3.029
 4759TIP3   OH214219   6.410   2.608   0.919
 4759TIP3    H114220   6.428   2.580   0.829
 4759TIP3    H214221   6.407   2.527   0.970
 4760TIP3   OH214222   5.430   0.977   4.810
 4760TIP3    H114223   5.479   1.028   4.874
 4760TIP3    H214224   5.497   0.936   4.755
 4761TIP3   OH214225   1.249   2.888   5.009
 4761TIP3    H114226   1.225   2.796   5.002
 4761TIP3    H214227   1.274   2.914   4.921
 4762TIP3   OH214228   1.165   2.093   2.511
 4762TIP3    H114229   1.201   2.164   2.563
 4762TIP3    H214230   1.222   2.089   2.434
 4763TIP3   OH214231   4.546   4.394   0.273
 4763TIP3    H114232   4.509   4.475   0.238
 4763TIP3    H214233   4.508   4.325   0.219
 4764TIP3   OH214234   4.665   5.316   4.800
 4764TIP3    H114235   4.669   5.356   4.713
 4764TIP3    H214236   4.701   5.229   4.789
 4765TIP3   OH214237   7.233   5.468   2.769
 4765TIP3    H114238   7.195   5.394   2.817
 4765TIP3    H214239   7.309   5.431   2.724
 4766TIP3   OH214240   4.104   5.100   1.762
 4766TIP3    H114241   4.105   5.097   1.666
 4766TIP3    H214242   4.150   5.021   1.789
 4767TIP3   OH214243   2.646   4.802   5.294
 4767TIP3    H114244   2.650   4.721   5.242
 4767TIP3    H214245   2.698   4.782   5.372
 4768TIP3   OH214246   2.493   0.162   5.463
 4768TIP3    H114247   2.571   0.215   5.480
 4768TIP3    H214248   2.441   0.170   5.543
 4769TIP3   OH214249   8.106   1.213   6.586
 4769TIP3    H114250   8.141   1.161   6.513
 4769TIP3    H214251   8.043   1.271   6.546
 4770TIP3   OH214252   5.365   4.354   5.953
 4770TIP3    H114253   5.366   4.430   6.011
 4770TIP3    H214254   5.456   4.324   5.950
 4771TIP3   OH214255   0.108   6.382   5.559
 4771TIP3    H114256   0.023   6.424   5.571
 4771TIP3    H214257   0.090   6.288   5.567
 4772TIP3   OH214258   3.510   3.549   3.509
 4772TIP3    H114259   3.501   3.461   3.472
 4772TIP3    H214260   3.598   3.550   3.547
 4773TIP3   OH214261   7.371   4.940   5.836
 4773TIP3    H114262   7.334   4.857   5.865
 4773TIP3    H214263   7.297   4.989   5.801
 4774TIP3   OH214264   1.196   3.953   0.118
 4774TIP3    H114265   1.166   3.945   0.209
 4774TIP3    H214266   1.169   3.871   0.076
 4775TIP3   OH214267   1.407   2.476   5.982
 4775TIP3    H114268   1.325   2.464   6.031
 4775TIP3    H214269   1.466   2.411   6.019
 4776TIP3   OH214270   2.317   1.730   1.590
 4776TIP3    H114271   2.271   1.740   1.507
 4776TIP3    H214272   2.306   1.637   1.613
 4777TIP3   OH214273   6.856   0.919   5.727
 4777TIP3    H114274   6.879   1.011   5.739
 4777TIP3    H214275   6.854   0.882   5.816
 4778TIP3   OH214276   7.343   1.032   4.825
 4778TIP3    H114277   7.311   1.063   4.740
 4778TIP3    H214278   7.283   1.071   4.889
 4779TIP3   OH214279   0.005   4.869   4.791
 4779TIP3    H114280  -0.025   4.778   4.793
 4779TIP3    H214281   0.098   4.864   4.811
 4780TIP3   OH214282   0.108   4.746   3.219
 4780TIP3    H114283   0.106   4.650   3.209
 4780TIP3    H214284   0.043   4.777   3.156
 4781TIP3   OH214285   6.506   4.372   5.385
 4781TIP3    H114286   6.490   4.312   5.457
 4781TIP3    H214287   6.540   4.317   5.315
 4782TIP3   OH214288   3.676   4.594   5.712
 4782TIP3    H114289   3.747   4.659   5.716
 4782TIP3    H214290   3.715   4.514   5.747
 4783TIP3   OH214291   1.916   6.860   2.903
 4783TIP3    H114292   1.995   6.859   2.957
 4783TIP3    H214293   1.877   6.773   2.914
 4784TIP3   OH214294   4.567   6.664   4.074
 4784TIP3    H114295   4.576   6.643   3.980
 4784TIP3    H214296   4.521   6.588   4.110
 4785TIP3   OH214297   2.675   2.672   1.793
 4785TIP3    H114298   2.634   2.717   1.866
 4785TIP3    H214299   2.653   2.580   1.806
 4786TIP3   OH214300   0.863   6.375   1.931
 4786TIP3    H114301   0.795   6.420   1.981
 4786TIP3    H214302   0.850   6.282   1.951
 4787TIP3   OH214303   3.184   6.175   1.163
 4787TIP3    H114304   3.214   6.222   1.240
 4787TIP3    H214305   3.096   6.209   1.146
 4788TIP3   OH214306   8.259   2.113   0.218
 4788TIP3    H114307   8.240   2.170   0.293
 4788TIP3    H214308   8.198   2.142   0.150
 4789TIP3   OH214309   4.520   5.241   2.308
 4789TIP3    H114310   4.559   5.260   2.222
 4789TIP3    H214311   4.562   5.160   2.336
 4790TIP3   OH214312   7.775   6.248   4.631
 4790TIP3    H114313   7.769   6.312   4.559
 4790TIP3    H214314   7.704   6.272   4.690
 4791TIP3   OH214315   6.998   7.753   0.236
 4791TIP3    H114316   6.914   7.787   0.266
 4791TIP3    H214317   7.034   7.823   0.181
 4792TIP3   OH214318   3.317   3.248   0.072
 4792TIP3    H114319   3.269   3.306   0.131
 4792TIP3    H214320   3.253   3.223   0.005
 4793TIP3   OH214321   0.532   4.376   4.946
 4793TIP3    H114322   0.446   4.335   4.958
 4793TIP3    H214323   0.582   4.350   5.023
 4794TIP3   OH214324   2.345   1.346   5.641
 4794TIP3    H114325   2.393   1.426   5.620
 4794TIP3    H214326   2.254   1.365   5.619
 4795TIP3   OH214327   0.444   7.068   1.329
 4795TIP3    H114328   0.382   6.997   1.348
 4795TIP3    H214329   0.404   7.145   1.370
 4796TIP3   OH214330   2.537   6.706   4.645
 4796TIP3    H114331   2.586   6.789   4.642
 4796TIP3    H214332   2.603   6.640   4.668
 4797TIP3   OH214333   0.896   4.586   2.731
 4797TIP3    H114334   0.915   4.495   2.753
 4797TIP3    H214335   0.907   4.633   2.814
 4798TIP3   OH214336   4.332   4.526   5.910
 4798TIP3    H114337   4.427   4.526   5.924
 4798TIP3    H214338   4.316   4.448   5.857
 4799TIP3   OH214339   7.749   5.736   0.953
 4799TIP3    H114340   7.842   5.735   0.929
 4799TIP3    H214341   7.704   5.760   0.873
 4800TIP3   OH214342   7.540   6.413   2.833
 4800TIP3    H114343   7.605   6.457   2.780
 4800TIP3    H214344   7.510   6.479   2.895
 4801TIP3   OH214345   0.370   3.505   6.332
 4801TIP3    H114346   0.311   3.503   6.408
 4801TIP3    H214347   0.359   3.593   6.296
 4802TIP3   OH214348   2.427   2.144   2.453
 4802TIP3    H114349   2.477   2.078   2.404
 4802TIP3    H214350   2.492   2.186   2.509
 4803TIP3   OH214351   2.043   3.865   4.711
 4803TIP3    H114352   2.045   3.883   4.805
 4803TIP3    H214353   2.134   3.866   4.684
 4804TIP3   OH214354   4.089   6.206   2.224
 4804TIP3    H114355   4.013   6.196   2.167
 4804TIP3    H214356   4.096   6.123   2.270
 4805TIP3   OH214357   4.980   3.501   3.282
 4805TIP3    H114358   4.945   3.464   3.200
 4805TIP3    H214359   5.074   3.487   3.276
 4806TIP3   OH214360   3.800   4.139   2.239
 4806TIP3    H114361   3.792   4.107   2.328
 4806TIP3    H214362   3.716   4.181   2.220
 4807TIP3   OH214363   3.489   5.958   4.334
 4807TIP3    H114364   3.457   6.032   4.385
 4807TIP3    H214365   3.578   5.942   4.367
 4808TIP3   OH214366   0.025   5.787   3.681
 4808TIP3    H114367  -0.023   5.788   3.764
 4808TIP3    H214368   0.108   5.831   3.700
 4809TIP3   OH214369   7.267   0.249   5.969
 4809TIP3    H114370   7.275   0.331   6.017
 4809TIP3    H214371   7.176   0.248   5.939
 4810TIP3   OH214372   0.746   1.308   4.153
 4810TIP3    H114373   0.673   1.248   4.142
 4810TIP3    H214374   0.705   1.390   4.183
 4811TIP3   OH214375   5.889   4.121   5.587
 4811TIP3    H114376   5.815   4.160   5.633
 4811TIP3    H214377   5.949   4.194   5.573
 4812TIP3   OH214378   1.017   4.829   6.281
 4812TIP3    H114379   1.021   4.841   6.376
 4812TIP3    H214380   0.934   4.784   6.266
 4813TIP3   OH214381   7.710   5.642   5.528
 4813TIP3    H114382   7.645   5.662   5.461
 4813TIP3    H214383   7.739   5.553   5.509
 4814TIP3   OH214384   4.167   7.811   2.288
 4814TIP3    H114385   4.150   7.733   2.342
 4814TIP3    H214386   4.181   7.776   2.200
 4815TIP3   OH214387   0.038   1.427   5.036
 4815TIP3    H114388  -0.041   1.480   5.029
 4815TIP3    H214389   0.100   1.481   5.085
 4816TIP3   OH214390   2.015   5.241   6.804
 4816TIP3    H114391   1.931   5.231   6.759
 4816TIP3    H214392   1.995   5.289   6.884
 4817TIP3   OH214393   6.641   3.355   5.436
 4817TIP3    H114394   6.719   3.298   5.440
 4817TIP3    H214395   6.617   3.354   5.343
 4818TIP3   OH214396   2.652   0.362   0.176
 4818TIP3    H114397   2.740   0.394   0.155
 4818TIP3    H214398   2.607   0.357   0.092
 4819TIP3   OH214399   6.439   1.373   3.290
 4819TIP3    H114400   6.475   1.332   3.211
 4819TIP3    H214401   6.346   1.386   3.270
 4820TIP3   OH214402   2.424   4.066   5.835
 4820TIP3    H114403   2.494   4.123   5.801
 4820TIP3    H214404   2.429   4.077   5.930
 4821TIP3   OH214405   7.482   1.945   5.242
 4821TIP3    H114406   7.403   1.988   5.209
 4821TIP3    H214407   7.496   1.982   5.329
 4822TIP3   OH214408   0.715   5.578   1.317
 4822TIP3    H114409   0.629   5.571   1.275
 4822TIP3    H214410   0.721   5.500   1.371
 4823TIP3   OH214411   8.123   7.652   5.153
 4823TIP3    H114412   8.108   7.746   5.146
 4823TIP3    H214413   8.134   7.635   5.246
 4824TIP3   OH214414   3.965   0.245   3.153
 4824TIP3    H114415   3.958   0.195   3.072
 4824TIP3    H214416   3.946   0.336   3.126
 4825TIP3   OH214417   0.742   0.071   0.374
 4825TIP3    H114418   0.757   0.166   0.377
 4825TIP3    H214419   0.817   0.037   0.326
 4826TIP3   OH214420   0.045   6.094   5.503
 4826TIP3    H114421   0.028   6.031   5.433
 4826TIP3    H214422   0.140   6.107   5.500
 4827TIP3   OH214423   3.054   2.671   6.574
 4827TIP3    H114424   3.146   2.655   6.556
 4827TIP3    H214425   3.054   2.734   6.646
 4828TIP3   OH214426   7.724   2.375   2.498
 4828TIP3    H114427   7.666   2.304   2.527
 4828TIP3    H214428   7.677   2.455   2.523
 4829TIP3   OH214429   7.331   7.198   1.616
 4829TIP3    H114430   7.414   7.159   1.591
 4829TIP3    H214431   7.295   7.234   1.535
 4830TIP3   OH214432   4.118   5.387   1.458
 4830TIP3    H114433   4.118   5.420   1.368
 4830TIP3    H214434   4.062   5.310   1.455
 4831TIP3   OH214435   6.472   6.349   2.390
 4831TIP3    H114436   6.560   6.330   2.422
 4831TIP3    H214437   6.477   6.336   2.296
 4832TIP3   OH214438   0.361   2.857   6.374
 4832TIP3    H114439   0.283   2.908   6.396
 4832TIP3    H214440   0.343   2.822   6.286
 4833TIP3   OH214441   1.253   2.838   1.935
 4833TIP3    H114442   1.292   2.861   1.851
 4833TIP3    H214443   1.273   2.912   1.992
 4834TIP3   OH214444   4.339   2.623   2.178
 4834TIP3    H114445   4.348   2.689   2.109
 4834TIP3    H214446   4.278   2.559   2.141
 4835TIP3   OH214447   4.370   0.002   6.666
 4835TIP3    H114448   4.335   0.079   6.709
 4835TIP3    H214449   4.450  -0.019   6.713
 4836TIP3   OH214450   7.598   3.243   6.776
 4836TIP3    H114451   7.509   3.214   6.757
 4836TIP3    H214452   7.654   3.186   6.724
 4837TIP3   OH214453   3.092   1.191   5.979
 4837TIP3    H114454   3.132   1.145   5.906
 4837TIP3    H214455   3.159   1.253   6.009
 4838TIP3   OH214456   0.162   1.578   3.004
 4838TIP3    H114457   0.104   1.502   3.009
 4838TIP3    H214458   0.217   1.561   2.928
 4839TIP3   OH214459   2.705   0.241   2.829
 4839TIP3    H114460   2.639   0.225   2.762
 4839TIP3    H214461   2.678   0.323   2.870
 4840TIP3   OH214462   6.076   4.048   1.671
 4840TIP3    H114463   6.140   3.990   1.630
 4840TIP3    H214464   6.084   4.030   1.765
 4841TIP3   OH214465   1.838   0.229   3.780
 4841TIP3    H114466   1.810   0.215   3.871
 4841TIP3    H214467   1.857   0.323   3.776
 4842TIP3   OH214468   4.107   7.206   0.444
 4842TIP3    H114469   4.095   7.145   0.370
 4842TIP3    H214470   4.172   7.268   0.413
 4843TIP3   OH214471   3.601   2.687   1.150
 4843TIP3    H114472   3.542   2.720   1.217
 4843TIP3    H214473   3.544   2.650   1.083
 4844TIP3   OH214474   1.587   0.640   6.300
 4844TIP3    H114475   1.601   0.553   6.262
 4844TIP3    H214476   1.495   0.659   6.283
 4845TIP3   OH214477   6.291   6.442   1.691
 4845TIP3    H114478   6.320   6.444   1.600
 4845TIP3    H214479   6.369   6.469   1.741
 4846TIP3   OH214480   2.398   0.010   6.281
 4846TIP3    H114481   2.354   0.024   6.365
 4846TIP3    H214482   2.490   0.001   6.303
 4847TIP3   OH214483   3.367   0.619   6.367
 4847TIP3    H114484   3.345   0.672   6.291
 4847TIP3    H214485   3.463   0.612   6.365
 4848TIP3   OH214486   1.111   5.678   2.538
 4848TIP3    H114487   1.173   5.719   2.598
 4848TIP3    H214488   1.166   5.624   2.481
 4849TIP3   OH214489   1.962   4.173   4.755
 4849TIP3    H114490   2.055   4.166   4.778
 4849TIP3    H214491   1.948   4.103   4.690
 4850TIP3   OH214492   5.849   5.841   4.546
 4850TIP3    H114493   5.939   5.825   4.573
 4850TIP3    H214494   5.857   5.886   4.462
 4851TIP3   OH214495   7.639   3.320   4.241
 4851TIP3    H114496   7.663   3.379   4.312
 4851TIP3    H214497   7.705   3.251   4.243
 4852TIP3   OH214498   3.453   3.083   0.417
 4852TIP3    H114499   3.498   3.055   0.497
 4852TIP3    H214500   3.522   3.122   0.364
 4853TIP3   OH214501   2.683   3.062   5.562
 4853TIP3    H114502   2.639   2.986   5.600
 4853TIP3    H214503   2.776   3.036   5.558
 4854TIP3   OH214504   7.438   1.381   1.357
 4854TIP3    H114505   7.527   1.349   1.368
 4854TIP3    H214506   7.440   1.470   1.391
 4855TIP3   OH214507   2.273   7.196   6.345
 4855TIP3    H114508   2.277   7.191   6.441
 4855TIP3    H214509   2.258   7.106   6.317
 4856TIP3   OH214510   0.998   0.306   2.299
 4856TIP3    H114511   0.980   0.313   2.205
 4856TIP3    H214512   1.022   0.215   2.312
 4857TIP3   OH214513   1.345   5.118   5.987
 4857TIP3    H114514   1.329   5.051   6.054
 4857TIP3    H214515   1.439   5.115   5.972
 4858TIP3   OH214516   3.212   4.335   2.133
 4858TIP3    H114517   3.244   4.414   2.178
 4858TIP3    H214518   3.152   4.295   2.196
 4859TIP3   OH214519   1.393   0.521   4.719
 4859TIP3    H114520   1.379   0.457   4.789
 4859TIP3    H214521   1.319   0.508   4.660
 4860TIP3   OH214522   3.460   1.200   3.328
 4860TIP3    H114523   3.505   1.183   3.411
 4860TIP3    H214524   3.392   1.263   3.350
 4861TIP3   OH214525   6.121   6.916   0.807
 4861TIP3    H114526   6.128   6.941   0.715
 4861TIP3    H214527   6.212   6.909   0.836
 4862TIP3   OH214528   6.806   3.402   1.774
 4862TIP3    H114529   6.769   3.353   1.701
 4862TIP3    H214530   6.793   3.345   1.850
 4863TIP3   OH214531   1.363   7.394   3.398
 4863TIP3    H114532   1.325   7.466   3.346
 4863TIP3    H214533   1.319   7.316   3.365
 4864TIP3   OH214534   6.467   3.725   4.565
 4864TIP3    H114535   6.528   3.796   4.582
 4864TIP3    H214536   6.523   3.650   4.542
 4865TIP3   OH214537   3.834   4.179   6.075
 4865TIP3    H114538   3.840   4.255   6.017
 4865TIP3    H214539   3.780   4.210   6.149
 4866TIP3   OH214540   7.178   5.027   5.257
 4866TIP3    H114541   7.239   5.077   5.203
 4866TIP3    H214542   7.104   5.008   5.199
 4867TIP3   OH214543   5.041   3.982   0.849
 4867TIP3    H114544   4.948   4.007   0.849
 4867TIP3    H214545   5.069   3.994   0.939
 4868TIP3   OH214546   5.680   0.651   3.560
 4868TIP3    H114547   5.724   0.721   3.513
 4868TIP3    H214548   5.586   0.666   3.545
 4869TIP3   OH214549   1.878   0.860   3.675
 4869TIP3    H114550   1.957   0.808   3.688
 4869TIP3    H214551   1.909   0.941   3.635
 4870TIP3   OH214552   7.262   4.806   4.647
 4870TIP3    H114553   7.266   4.847   4.734
 4870TIP3    H214554   7.325   4.735   4.651
 4871TIP3   OH214555   4.339   4.647   1.610
 4871TIP3    H114556   4.324   4.554   1.593
 4871TIP3    H214557   4.302   4.691   1.534
 4872TIP3   OH214558   0.319   7.373   0.318
 4872TIP3    H114559   0.398   7.426   0.335
 4872TIP3    H214560   0.336   7.331   0.234
 4873TIP3   OH214561   7.504   6.429   6.453
 4873TIP3    H114562   7.580   6.479   6.426
 4873TIP3    H214563   7.526   6.338   6.432
 4874TIP3   OH214564   5.085   2.228   2.997
 4874TIP3    H114565   5.132   2.190   3.072
 4874TIP3    H214566   5.145   2.220   2.924
 4875TIP3   OH214567   4.129   4.951   1.172
 4875TIP3    H114568   4.190   5.021   1.196
 4875TIP3    H214569   4.107   4.909   1.255
 4876TIP3   OH214570   7.253   0.243   1.080
 4876TIP3    H114571   7.162   0.270   1.066
 4876TIP3    H214572   7.304   0.316   1.046
 4877TIP3   OH214573   4.305   6.064   4.111
 4877TIP3    H114574   4.374   6.021   4.060
 4877TIP3    H214575   4.228   6.062   4.055
 4878TIP3   OH214576   6.702   1.690   3.516
 4878TIP3    H114577   6.662   1.728   3.438
 4878TIP3    H214578   6.629   1.653   3.565
 4879TIP3   OH214579   5.458   6.435   5.389
 4879TIP3    H114580   5.418   6.484   5.461
 4879TIP3    H214581   5.422   6.474   5.310
 4880TIP3   OH214582   2.332   3.527   2.695
 4880TIP3    H114583   2.301   3.599   2.641
 4880TIP3    H214584   2.267   3.520   2.765
 4881TIP3   OH214585   5.090   3.115   6.339
 4881TIP3    H114586   5.014   3.059   6.357
 4881TIP3    H214587   5.128   3.132   6.425
 4882TIP3   OH214588   1.278   3.100   0.109
 4882TIP3    H114589   1.292   3.176   0.052
 4882TIP3    H214590   1.193   3.066   0.083
 4883TIP3   OH214591   4.405   3.406   4.830
 4883TIP3    H114592   4.403   3.414   4.734
 4883TIP3    H214593   4.326   3.453   4.859
 4884TIP3   OH214594   4.522   4.153   0.099
 4884TIP3    H114595   4.529   4.058   0.090
 4884TIP3    H214596   4.429   4.170   0.108
 4885TIP3   OH214597   7.438   3.113   2.830
 4885TIP3    H114598   7.388   3.079   2.904
 4885TIP3    H214599   7.406   3.203   2.818
 4886TIP3   OH214600   7.803   5.902   3.877
 4886TIP3    H114601   7.780   5.883   3.786
 4886TIP3    H214602   7.720   5.894   3.925
 4887TIP3   OH214603   0.513   3.716   0.655
 4887TIP3    H114604   0.588   3.702   0.714
 4887TIP3    H214605   0.529   3.802   0.617
 4888TIP3   OH214606   2.748   0.140   6.784
 4888TIP3    H114607   2.755   0.051   6.820
 4888TIP3    H214608   2.784   0.133   6.696
 4889TIP3   OH214609   0.221   5.167   0.599
 4889TIP3    H114610   0.156   5.187   0.667
 4889TIP3    H214611   0.305   5.165   0.645
 4890TIP3   OH214612   4.822   2.576   0.370
 4890TIP3    H114613   4.838   2.577   0.276
 4890TIP3    H214614   4.727   2.576   0.378
 4891TIP3   OH214615   0.007   4.377   4.143
 4891TIP3    H114616   0.003   4.361   4.049
 4891TIP3    H214617  -0.007   4.471   4.153
 4892TIP3   OH214618   3.134   3.377   3.875
 4892TIP3    H114619   3.116   3.341   3.788
 4892TIP3    H214620   3.161   3.302   3.927
 4893TIP3   OH214621   1.337   3.262   1.289
 4893TIP3    H114622   1.316   3.228   1.202
 4893TIP3    H214623   1.321   3.356   1.282
 4894TIP3   OH214624   4.909   3.802   1.850
 4894TIP3    H114625   4.944   3.752   1.776
 4894TIP3    H214626   4.830   3.843   1.815
 4895TIP3   OH214627   3.731   2.669   0.496
 4895TIP3    H114628   3.690   2.738   0.549
 4895TIP3    H214629   3.665   2.601   0.489
 4896TIP3   OH214630   3.760   3.777   2.352
 4896TIP3    H114631   3.761   3.693   2.306
 4896TIP3    H214632   3.852   3.793   2.375
 4897TIP3   OH214633   3.760   0.367   4.306
 4897TIP3    H114634   3.795   0.441   4.257
 4897TIP3    H214635   3.777   0.291   4.250
 4898TIP3   OH214636   5.052   1.970   5.122
 4898TIP3    H114637   5.032   1.954   5.030
 4898TIP3    H214638   4.971   2.006   5.158
 4899TIP3   OH214639   6.674   5.413   5.148
 4899TIP3    H114640   6.667   5.398   5.054
 4899TIP3    H214641   6.636   5.335   5.188
 4900TIP3   OH214642   1.727   2.871   0.816
 4900TIP3    H114643   1.707   2.964   0.807
 4900TIP3    H214644   1.748   2.860   0.909
 4901TIP3   OH214645   4.129   1.677   0.010
 4901TIP3    H114646   4.051   1.628  -0.016
 4901TIP3    H214647   4.201   1.616  -0.006
 4902TIP3   OH214648   1.429   3.297   1.912
 4902TIP3    H114649   1.393   3.221   1.957
 4902TIP3    H214650   1.403   3.285   1.820
 4903TIP3   OH214651   2.472   6.110   0.645
 4903TIP3    H114652   2.443   6.019   0.640
 4903TIP3    H214653   2.505   6.120   0.734
 4904TIP3   OH214654   7.476   7.404   1.062
 4904TIP3    H114655   7.488   7.444   0.976
 4904TIP3    H214656   7.565   7.381   1.091
 4905TIP3   OH214657   7.735   6.490   4.190
 4905TIP3    H114658   7.771   6.413   4.235
 4905TIP3    H214659   7.641   6.483   4.202
 4906TIP3   OH214660   3.138   4.605   5.968
 4906TIP3    H114661   3.166   4.694   5.950
 4906TIP3    H214662   3.076   4.585   5.898
 4907TIP3   OH214663   0.889   5.329   6.628
 4907TIP3    H114664   0.957   5.340   6.695
 4907TIP3    H214665   0.912   5.248   6.583
 4908TIP3   OH214666   6.328   0.018   3.558
 4908TIP3    H114667   6.271  -0.052   3.591
 4908TIP3    H214668   6.364   0.058   3.637
 4909TIP3   OH214669   2.504   5.843   1.366
 4909TIP3    H114670   2.463   5.866   1.283
 4909TIP3    H214671   2.456   5.765   1.395
 4910TIP3   OH214672   6.341   4.767   4.329
 4910TIP3    H114673   6.435   4.749   4.322
 4910TIP3    H214674   6.304   4.736   4.246
 4911TIP3   OH214675   0.527   4.101   2.909
 4911TIP3    H114676   0.476   4.108   2.990
 4911TIP3    H214677   0.466   4.127   2.840
 4912TIP3   OH214678   5.835   7.211   1.858
 4912TIP3    H114679   5.745   7.190   1.832
 4912TIP3    H214680   5.840   7.306   1.853
 4913TIP3   OH214681   7.450   5.004   0.624
 4913TIP3    H114682   7.360   4.978   0.604
 4913TIP3    H214683   7.475   5.061   0.551
 4914TIP3   OH214684   3.985   4.022   4.754
 4914TIP3    H114685   4.074   4.043   4.784
 4914TIP3    H214686   3.931   4.027   4.833
 4915TIP3   OH214687   1.820   3.852   2.960
 4915TIP3    H114688   1.889   3.886   3.017
 4915TIP3    H214689   1.739   3.883   2.999
 4916TIP3   OH214690   3.221   2.231   6.209
 4916TIP3    H114691   3.252   2.142   6.230
 4916TIP3    H214692   3.127   2.222   6.198
 4917TIP3   OH214693   3.711   5.877   4.029
 4917TIP3    H114694   3.633   5.929   4.010
 4917TIP3    H214695   3.781   5.942   4.039
 4918TIP3   OH214696   0.794   0.154   1.229
 4918TIP3    H114697   0.865   0.116   1.177
 4918TIP3    H214698   0.732   0.082   1.241
 4919TIP3   OH214699   2.805   4.751   0.180
 4919TIP3    H114700   2.802   4.696   0.101
 4919TIP3    H214701   2.726   4.729   0.228
 4920TIP3   OH214702   1.944   6.174   5.188
 4920TIP3    H114703   1.916   6.187   5.278
 4920TIP3    H214704   2.008   6.244   5.172
 4921TIP3   OH214705   1.157   4.663   0.931
 4921TIP3    H114706   1.151   4.667   1.026
 4921TIP3    H214707   1.086   4.605   0.904
 4922TIP3   OH214708   7.188   5.864   2.084
 4922TIP3    H114709   7.241   5.919   2.142
 4922TIP3    H214710   7.252   5.826   2.023
 4923TIP3   OH214711   5.180   7.452   1.137
 4923TIP3    H114712   5.256   7.496   1.101
 4923TIP3    H214713   5.191   7.457   1.231
 4924TIP3   OH214714   6.490   3.422   4.207
 4924TIP3    H114715   6.469   3.366   4.132
 4924TIP3    H214716   6.405   3.456   4.234
 4925TIP3   OH214717   8.100  -0.006   6.490
 4925TIP3    H114718   8.085   0.086   6.468
 4925TIP3    H214719   8.067  -0.054   6.414
 4926TIP3   OH214720   4.390   3.412   0.254
 4926TIP3    H114721   4.316   3.352   0.261
 4926TIP3    H214722   4.458   3.373   0.310
 4927TIP3   OH214723   3.498   5.699   1.717
 4927TIP3    H114724   3.442   5.650   1.777
 4927TIP3    H214725   3.464   5.788   1.719
 4928TIP3   OH214726   1.113   6.433   0.271
 4928TIP3    H114727   1.101   6.419   0.365
 4928TIP3    H214728   1.199   6.395   0.252
 4929TIP3   OH214729   5.484   1.777   2.452
 4929TIP3    H114730   5.554   1.720   2.484
 4929TIP3    H214731   5.485   1.852   2.512
 4930TIP3   OH214732   2.216   5.910   2.660
 4930TIP3    H114733   2.125   5.933   2.643
 4930TIP3    H214734   2.219   5.815   2.650
 4931TIP3   OH214735   5.345   3.329   5.203
 4931TIP3    H114736   5.250   3.321   5.208
 4931TIP3    H214737   5.366   3.404   5.259
 4932TIP3   OH214738   7.413   6.076   2.512
 4932TIP3    H114739   7.423   6.008   2.579
 4932TIP3    H214740   7.461   6.151   2.547
 4933TIP3   OH214741   5.864   1.808   0.114
 4933TIP3    H114742   5.871   1.719   0.079
 4933TIP3    H214743   5.858   1.864   0.036
 4934TIP3   OH214744   2.816   2.907   1.612
 4934TIP3    H114745   2.781   2.853   1.683
 4934TIP3    H214746   2.765   2.882   1.536
 4935TIP3   OH214747   2.108   2.229   4.273
 4935TIP3    H114748   2.082   2.147   4.231
 4935TIP3    H214749   2.199   2.243   4.247
 4936TIP3   OH214750   8.087   4.718   5.875
 4936TIP3    H114751   8.001   4.689   5.846
 4936TIP3    H214752   8.148   4.661   5.828
 4937TIP3   OH214753   6.439   0.826   2.875
 4937TIP3    H114754   6.445   0.892   2.806
 4937TIP3    H214755   6.351   0.837   2.910
 4938TIP3   OH214756   4.752   5.854   2.257
 4938TIP3    H114757   4.705   5.873   2.176
 4938TIP3    H214758   4.810   5.781   2.236
 4939TIP3   OH214759   4.545   2.030   0.692
 4939TIP3    H114760   4.492   1.997   0.620
 4939TIP3    H214761   4.572   1.952   0.740
 4940TIP3   OH214762   6.517   3.391   0.167
 4940TIP3    H114763   6.504   3.348   0.083
 4940TIP3    H214764   6.435   3.375   0.215
 4941TIP3   OH214765   7.194   1.101   4.351
 4941TIP3    H114766   7.237   1.101   4.437
 4941TIP3    H214767   7.249   1.046   4.296
 4942TIP3   OH214768   4.470   0.921   0.218
 4942TIP3    H114769   4.506   1.007   0.241
 4942TIP3    H214770   4.536   0.881   0.161
 4943TIP3   OH214771   2.166   5.612   2.600
 4943TIP3    H114772   2.254   5.608   2.562
 4943TIP3    H214773   2.151   5.523   2.633
 4944TIP3   OH214774   4.111   3.966   6.141
 4944TIP3    H114775   4.113   3.988   6.234
 4944TIP3    H214776   4.198   3.929   6.123
 4945TIP3   OH214777   4.707   3.382   1.425
 4945TIP3    H114778   4.680   3.434   1.349
 4945TIP3    H214779   4.659   3.421   1.498
 4946TIP3   OH214780   7.010   5.917   4.820
 4946TIP3    H114781   7.028   5.901   4.913
 4946TIP3    H214782   6.921   5.953   4.819
 4947TIP3   OH214783   2.607   3.937   6.392
 4947TIP3    H114784   2.623   3.864   6.332
 4947TIP3    H214785   2.514   3.930   6.414
 4948TIP3   OH214786   2.503   3.210   0.060
 4948TIP3    H114787   2.487   3.182   0.150
 4948TIP3    H214788   2.472   3.137   0.006
 4949TIP3   OH214789   6.092   5.770   5.126
 4949TIP3    H114790   6.069   5.744   5.215
 4949TIP3    H214791   6.013   5.753   5.075
 4950TIP3   OH214792   0.967   0.434   0.802
 4950TIP3    H114793   0.899   0.405   0.864
 4950TIP3    H214794   1.049   0.416   0.847
 4951TIP3   OH214795   5.862   2.346   5.816
 4951TIP3    H114796   5.911   2.291   5.877
 4951TIP3    H214797   5.925   2.365   5.746
 4952TIP3   OH214798   1.861   3.821   1.672
 4952TIP3    H114799   1.830   3.734   1.698
 4952TIP3    H214800   1.818   3.881   1.732
 4953TIP3   OH214801   3.682   4.008   4.341
 4953TIP3    H114802   3.682   4.071   4.414
 4953TIP3    H214803   3.592   4.006   4.311
 4954TIP3   OH214804   1.663   6.468   1.983
 4954TIP3    H114805   1.725   6.395   1.987
 4954TIP3    H214806   1.653   6.497   2.073
 4955TIP3   OH214807   4.279   2.597   4.869
 4955TIP3    H114808   4.252   2.644   4.948
 4955TIP3    H214809   4.313   2.513   4.901
 4956TIP3   OH214810   2.901   5.601   2.558
 4956TIP3    H114811   2.940   5.603   2.471
 4956TIP3    H214812   2.934   5.679   2.602
 4957TIP3   OH214813   6.459   3.926   3.671
 4957TIP3    H114814   6.408   3.897   3.596
 4957TIP3    H214815   6.509   4.001   3.639
 4958TIP3   OH214816   2.703   6.475   6.046
 4958TIP3    H114817   2.779   6.440   6.092
 4958TIP3    H214818   2.632   6.469   6.111
 4959TIP3   OH214819   3.671   0.512   6.026
 4959TIP3    H114820   3.578   0.533   6.023
 4959TIP3    H214821   3.703   0.535   5.938
 4960TIP3   OH214822   0.814   0.129   4.606
 4960TIP3    H114823   0.859   0.189   4.666
 4960TIP3    H214824   0.735   0.102   4.653
 4961TIP3   OH214825   2.343   3.229   1.127
 4961TIP3    H114826   2.374   3.307   1.081
 4961TIP3    H214827   2.310   3.173   1.057
 4962TIP3   OH214828   4.014   7.544   3.281
 4962TIP3    H114829   4.074   7.494   3.336
 4962TIP3    H214830   3.937   7.559   3.336
 4963TIP3   OH214831   5.455   7.724   3.907
 4963TIP3    H114832   5.434   7.809   3.869
 4963TIP3    H214833   5.386   7.709   3.972
 4964TIP3   OH214834   2.454   6.933   5.781
 4964TIP3    H114835   2.524   6.918   5.845
 4964TIP3    H214836   2.491   6.996   5.720
 4965TIP3   OH214837   6.277   5.436   4.912
 4965TIP3    H114838   6.347   5.494   4.883
 4965TIP3    H214839   6.235   5.483   4.984
 4966TIP3   OH214840   3.391   1.891   3.828
 4966TIP3    H114841   3.470   1.873   3.879
 4966TIP3    H214842   3.423   1.910   3.740
 4967TIP3   OH214843   2.175   5.502   2.023
 4967TIP3    H114844   2.124   5.426   2.049
 4967TIP3    H214845   2.252   5.500   2.080
 4968TIP3   OH214846   1.088   5.111   2.878
 4968TIP3    H114847   0.998   5.130   2.904
 4968TIP3    H214848   1.102   5.021   2.905
 4969TIP3   OH214849   0.351   4.731   3.304
 4969TIP3    H114850   0.353   4.650   3.355
 4969TIP3    H214851   0.265   4.732   3.263
 4970TIP3   OH214852   7.329   5.666   3.498
 4970TIP3    H114853   7.284   5.658   3.582
 4970TIP3    H214854   7.401   5.603   3.504
 4971TIP3   OH214855   7.768   2.433   0.734
 4971TIP3    H114856   7.859   2.431   0.762
 4971TIP3    H214857   7.768   2.389   0.649
 4972TIP3   OH214858   1.717   1.002   1.509
 4972TIP3    H114859   1.737   0.910   1.522
 4972TIP3    H214860   1.656   1.004   1.435
 4973TIP3   OH214861   4.517   6.341   1.700
 4973TIP3    H114862   4.505   6.436   1.713
 4973TIP3    H214863   4.575   6.315   1.771
 4974TIP3   OH214864   4.513   3.522   1.901
 4974TIP3    H114865   4.427   3.514   1.942
 4974TIP3    H214866   4.545   3.607   1.931
 4975TIP3   OH214867   7.194   4.216   5.555
 4975TIP3    H114868   7.184   4.208   5.460
 4975TIP3    H214869   7.270   4.273   5.567
 4976TIP3   OH214870   3.490   3.979   0.912
 4976TIP3    H114871   3.436   3.924   0.856
 4976TIP3    H214872   3.532   4.041   0.852
 4977TIP3   OH214873   1.102   1.313   5.299
 4977TIP3    H114874   1.132   1.281   5.385
 4977TIP3    H214875   1.163   1.275   5.236
 4978TIP3   OH214876   4.803   0.185   1.053
 4978TIP3    H114877   4.777   0.267   1.096
 4978TIP3    H214878   4.892   0.169   1.084
 4979TIP3   OH214879   6.515   7.111   0.410
 4979TIP3    H114880   6.439   7.119   0.353
 4979TIP3    H214881   6.558   7.196   0.406
 4980TIP3   OH214882   0.341   2.509   3.218
 4980TIP3    H114883   0.273   2.544   3.161
 4980TIP3    H214884   0.382   2.586   3.258
 4981TIP3   OH214885   3.202   6.542   2.964
 4981TIP3    H114886   3.184   6.460   3.010
 4981TIP3    H214887   3.123   6.559   2.912
 4982TIP3   OH214888   7.443   2.294   2.530
 4982TIP3    H114889   7.394   2.346   2.594
 4982TIP3    H214890   7.481   2.223   2.582
 4983TIP3   OH214891   3.707   6.557   1.321
 4983TIP3    H114892   3.756   6.605   1.388
 4983TIP3    H214893   3.688   6.472   1.361
 4984TIP3   OH214894   7.939   3.355   0.661
 4984TIP3    H114895   7.849   3.333   0.687
 4984TIP3    H214896   7.932   3.441   0.621
 4985TIP3   OH214897   6.223   2.977   1.974
 4985TIP3    H114898   6.226   2.973   1.879
 4985TIP3    H214899   6.310   3.010   2.000
 4986TIP3   OH214900   6.322   1.465   1.492
 4986TIP3    H114901   6.390   1.415   1.536
 4986TIP3    H214902   6.270   1.503   1.564
 4987TIP3   OH214903   5.733   4.304   6.190
 4987TIP3    H114904   5.756   4.218   6.223
 4987TIP3    H214905   5.774   4.366   6.250
 4988TIP3   OH214906   6.731   6.244   6.666
 4988TIP3    H114907   6.821   6.234   6.636
 4988TIP3    H214908   6.731   6.211   6.755
 4989TIP3   OH214909   3.648   7.324   5.879
 4989TIP3    H114910   3.657   7.229   5.883
 4989TIP3    H214911   3.708   7.357   5.946
 4990TIP3   OH214912   2.963   6.957   4.510
 4990TIP3    H114913   3.010   6.951   4.427
 4990TIP3    H214914   2.910   7.037   4.502
 4991TIP3   OH214915   4.157   3.138   4.441
 4991TIP3    H114916   4.084   3.193   4.413
 4991TIP3    H214917   4.188   3.096   4.361
 4992TIP3   OH214918   4.272   4.377   6.643
 4992TIP3    H114919   4.366   4.356   6.645
 4992TIP3    H214920   4.229   4.292   6.638
 4993TIP3   OH214921   5.869   3.208   4.313
 4993TIP3    H114922   5.784   3.166   4.330
 4993TIP3    H214923   5.934   3.141   4.336
 4994TIP3   OH214924   3.123   6.280   0.408
 4994TIP3    H114925   3.170   6.364   0.404
 4994TIP3    H214926   3.135   6.251   0.498
 4995TIP3   OH214927   4.284   7.175   3.021
 4995TIP3    H114928   4.347   7.231   2.975
 4995TIP3    H214929   4.257   7.228   3.097
 4996TIP3   OH214930   1.938   0.261   2.166
 4996TIP3    H114931   2.016   0.224   2.206
 4996TIP3    H214932   1.866   0.232   2.223
 4997TIP3   OH214933   7.075   7.486   1.497
 4997TIP3    H114934   7.084   7.397   1.532
 4997TIP3    H214935   7.081   7.475   1.402
 4998TIP3   OH214936   3.473   6.066   3.450
 4998TIP3    H114937   3.544   6.079   3.513
 4998TIP3    H214938   3.394   6.088   3.498
 4999TIP3   OH214939   2.389   7.220   5.605
 4999TIP3    H114940   2.305   7.261   5.625
 4999TIP3    H214941   2.444   7.293   5.573
 5000TIP3   OH214942   4.546   2.578   0.441
 5000TIP3    H114943   4.504   2.558   0.358
 5000TIP3    H214944   4.478   2.566   0.507
 5001TIP3   OH214945   7.682   6.014   0.041
 5001TIP3    H114946   7.745   5.960   0.088
 5001TIP3    H214947   7.736   6.077  -0.007
 5002TIP3   OH214948   5.488   7.747   4.379
 5002TIP3    H114949   5.454   7.657   4.383
 5002TIP3    H214950   5.562   7.741   4.319
 5003TIP3   OH214951   4.161   2.109   0.431
 5003TIP3    H114952   4.071   2.101   0.463
 5003TIP3    H214953   4.160   2.064   0.346
 5004TIP3   OH214954   1.991   6.062   2.986
 5004TIP3    H114955   1.956   5.973   2.977
 5004TIP3    H214956   2.081   6.050   3.017
 5005TIP3   OH214957   5.563   0.777   4.114
 5005TIP3    H114958   5.476   0.815   4.102
 5005TIP3    H214959   5.576   0.722   4.036
 5006TIP3   OH214960   0.982   2.490   4.470
 5006TIP3    H114961   0.992   2.424   4.402
 5006TIP3    H214962   0.932   2.447   4.539
 5007TIP3   OH214963   7.821   4.846   5.932
 5007TIP3    H114964   7.862   4.793   6.000
 5007TIP3    H214965   7.878   4.922   5.923
 5008TIP3   OH214966   2.054   1.293   0.293
 5008TIP3    H114967   1.958   1.286   0.295
 5008TIP3    H214968   2.083   1.208   0.261
 5009TIP3   OH214969   8.105   6.810   3.791
 5009TIP3    H114970   8.171   6.763   3.741
 5009TIP3    H214971   8.113   6.901   3.761
 5010TIP3   OH214972   3.047   6.870   6.262
 5010TIP3    H114973   3.066   6.894   6.171
 5010TIP3    H214974   3.051   6.952   6.310
 5011TIP3   OH214975   0.813   4.277   4.949
 5011TIP3    H114976   0.816   4.270   5.044
 5011TIP3    H214977   0.843   4.366   4.931
 5012TIP3   OH214978   5.022   0.827   2.456
 5012TIP3    H114979   4.966   0.753   2.480
 5012TIP3    H214980   4.988   0.901   2.507
 5013TIP3   OH214981   2.561   3.149   3.189
 5013TIP3    H114982   2.645   3.135   3.144
 5013TIP3    H214983   2.502   3.085   3.149
 5014TIP3   OH214984   0.521   2.952   5.855
 5014TIP3    H114985   0.541   3.020   5.919
 5014TIP3    H214986   0.455   2.991   5.798
 5015TIP3   OH214987   0.042   0.674   5.307
 5015TIP3    H114988   0.119   0.658   5.252
 5015TIP3    H214989   0.032   0.769   5.306
 5016TIP3   OH214990   2.850   1.935   4.910
 5016TIP3    H114991   2.841   1.944   5.005
 5016TIP3    H214992   2.767   1.967   4.875
 5017TIP3   OH214993   6.718   5.637   3.244
 5017TIP3    H114994   6.645   5.606   3.190
 5017TIP3    H214995   6.688   5.720   3.281
 5018TIP3   OH214996   1.300   4.359   6.104
 5018TIP3    H114997   1.263   4.353   6.016
 5018TIP3    H214998   1.343   4.445   6.106
 5019TIP3   OH214999   4.028   7.596   0.137
 5019TIP3    H115000   4.106   7.648   0.156
 5019TIP3    H215001   4.002   7.622   0.049
 5020TIP3   OH215002   3.534   3.561   4.373
 5020TIP3    H115003   3.489   3.597   4.449
 5020TIP3    H215004   3.623   3.542   4.405
 5021TIP3   OH215005   5.473   3.794   0.186
 5021TIP3    H115006   5.458   3.705   0.217
 5021TIP3    H215007   5.406   3.807   0.118
 5022TIP3   OH215008   2.812   0.632   0.591
 5022TIP3    H115009   2.770   0.691   0.530
 5022TIP3    H215010   2.903   0.662   0.595
 5023TIP3   OH215011   1.315   6.570   0.603
 5023TIP3    H115012   1.255   6.507   0.563
 5023TIP3    H215013   1.275   6.592   0.687
 5024TIP3   OH215014   1.113   5.146   0.898
 5024TIP3    H115015   1.107   5.236   0.930
 5024TIP3    H215016   1.206   5.131   0.884
 5025TIP3   OH215017   4.417   5.004   3.294
 5025TIP3    H115018   4.365   5.055   3.232
 5025TIP3    H215019   4.428   4.918   3.252
 5026TIP3   OH215020   2.021   6.945   4.051
 5026TIP3    H115021   2.099   6.908   4.092
 5026TIP3    H215022   1.978   6.993   4.122
 5027TIP3   OH215023   4.291   1.031   2.181
 5027TIP3    H115024   4.363   1.092   2.170
 5027TIP3    H215025   4.319   0.952   2.134
 5028TIP3   OH215026   0.763   4.394   4.374
 5028TIP3    H115027   0.800   4.314   4.410
 5028TIP3    H215028   0.793   4.463   4.434
 5029TIP3   OH215029   2.889   7.400   3.256
 5029TIP3    H115030   2.943   7.399   3.334
 5029TIP3    H215031   2.892   7.310   3.223
 5030TIP3   OH215032   0.785   0.414   1.052
 5030TIP3    H115033   0.793   0.319   1.059
 5030TIP3    H215034   0.703   0.428   1.004
 5031TIP3   OH215035   7.329   3.691   2.788
 5031TIP3    H115036   7.417   3.701   2.824
 5031TIP3    H215037   7.288   3.777   2.799
 5032TIP3   OH215038   1.893   4.686   6.189
 5032TIP3    H115039   1.943   4.628   6.132
 5032TIP3    H215040   1.854   4.750   6.129
 5033TIP3   OH215041   2.941   1.695   4.818
 5033TIP3    H115042   3.008   1.664   4.878
 5033TIP3    H215043   2.918   1.782   4.851
 5034TIP3   OH215044   4.278   3.330   2.448
 5034TIP3    H115045   4.369   3.356   2.432
 5034TIP3    H215046   4.226   3.401   2.410
 5035TIP3   OH215047   2.184   0.479   4.083
 5035TIP3    H115048   2.159   0.547   4.020
 5035TIP3    H215049   2.105   0.462   4.133
 5036TIP3   OH215050   1.689   7.507   0.117
 5036TIP3    H115051   1.658   7.536   0.203
 5036TIP3    H215052   1.676   7.412   0.118
 5037TIP3   OH215053   6.963   6.161   6.484
 5037TIP3    H115054   6.983   6.186   6.394
 5037TIP3    H215055   6.938   6.069   6.478
 5038TIP3   OH215056   0.405   2.148   6.022
 5038TIP3    H115057   0.363   2.232   6.004
 5038TIP3    H215058   0.497   2.161   5.998
 5039TIP3   OH215059   2.939   3.930   4.100
 5039TIP3    H115060   3.028   3.898   4.111
 5039TIP3    H215061   2.884   3.862   4.140
 5040TIP3   OH215062   2.921   3.720   6.313
 5040TIP3    H115063   2.995   3.665   6.289
 5040TIP3    H215064   2.871   3.730   6.232
 5041TIP3   OH215065   6.261   1.093   3.021
 5041TIP3    H115066   6.193   1.134   2.967
 5041TIP3    H215067   6.229   1.004   3.036
 5042TIP3   OH215068   2.308   2.483   1.255
 5042TIP3    H115069   2.276   2.547   1.319
 5042TIP3    H215070   2.261   2.504   1.175
 5043TIP3   OH215071   3.632   5.881   6.272
 5043TIP3    H115072   3.641   5.873   6.368
 5043TIP3    H215073   3.565   5.817   6.249
 5044TIP3   OH215074   8.040   3.174   4.895
 5044TIP3    H115075   7.993   3.205   4.972
 5044TIP3    H215076   8.006   3.085   4.881
 5045TIP3   OH215077   5.338   6.541   0.708
 5045TIP3    H115078   5.374   6.526   0.621
 5045TIP3    H215079   5.267   6.604   0.694
 5046TIP3   OH215080   6.894   2.622   5.076
 5046TIP3    H115081   6.918   2.623   4.983
 5046TIP3    H215082   6.978   2.627   5.122
 5047TIP3   OH215083   5.627   4.155   2.066
 5047TIP3    H115084   5.616   4.157   2.161
 5047TIP3    H215085   5.540   4.172   2.031
 5048TIP3   OH215086   6.053   2.136   4.722
 5048TIP3    H115087   6.042   2.120   4.816
 5048TIP3    H215088   5.995   2.072   4.680
 5049TIP3   OH215089   1.105   6.597   1.331
 5049TIP3    H115090   1.015   6.594   1.363
 5049TIP3    H215091   1.158   6.568   1.405
 5050TIP3   OH215092   6.598   5.725   5.409
 5050TIP3    H115093   6.613   5.809   5.454
 5050TIP3    H215094   6.510   5.733   5.372
 5051TIP3   OH215095   7.776   4.952   2.367
 5051TIP3    H115096   7.755   5.010   2.440
 5051TIP3    H215097   7.865   4.921   2.386
 5052TIP3   OH215098   0.243   1.748   5.063
 5052TIP3    H115099   0.262   1.693   4.987
 5052TIP3    H215100   0.220   1.686   5.132
 5053TIP3   OH215101   7.237   5.465   1.313
 5053TIP3    H115102   7.193   5.449   1.397
 5053TIP3    H215103   7.206   5.551   1.286
 5054TIP3   OH215104   5.557   4.123   0.835
 5054TIP3    H115105   5.611   4.134   0.913
 5054TIP3    H215106   5.499   4.199   0.835
 5055TIP3   OH215107   7.765   1.775   2.482
 5055TIP3    H115108   7.792   1.733   2.400
 5055TIP3    H215109   7.788   1.712   2.550
 5056TIP3   OH215110   7.038   2.643   5.487
 5056TIP3    H115111   7.066   2.734   5.497
 5056TIP3    H215112   7.034   2.629   5.392
 5057TIP3   OH215113   2.349   3.216   0.310
 5057TIP3    H115114   2.336   3.121   0.312
 5057TIP3    H215115   2.262   3.252   0.321
 5058TIP3   OH215116   7.359   3.118   6.728
 5058TIP3    H115117   7.353   3.022   6.727
 5058TIP3    H215118   7.336   3.144   6.639
 5059TIP3   OH215119   7.134   6.944   5.064
 5059TIP3    H115120   7.114   6.871   5.006
 5059TIP3    H215121   7.125   7.022   5.009
 5060TIP3   OH215122   4.266   3.241   4.024
 5060TIP3    H115123   4.181   3.278   4.000
 5060TIP3    H215124   4.298   3.199   3.944
 5061TIP3   OH215125   2.823   7.747   6.170
 5061TIP3    H115126   2.873   7.750   6.088
 5061TIP3    H215127   2.834   7.657   6.201
 5062TIP3   OH215128   3.792   7.632   5.426
 5062TIP3    H115129   3.810   7.631   5.332
 5062TIP3    H215130   3.796   7.540   5.453
 5063TIP3   OH215131   0.228   2.705   5.848
 5063TIP3    H115132   0.296   2.699   5.780
 5063TIP3    H215133   0.170   2.631   5.830
 5064TIP3   OH215134   1.307   2.096   4.518
 5064TIP3    H115135   1.328   2.189   4.506
 5064TIP3    H215136   1.373   2.050   4.467
 5065TIP3   OH215137   0.713   6.752   1.694
 5065TIP3    H115138   0.754   6.827   1.737
 5065TIP3    H215139   0.750   6.751   1.606
 5066TIP3   OH215140   1.549   4.375   4.635
 5066TIP3    H115141   1.566   4.416   4.550
 5066TIP3    H215142   1.489   4.436   4.679
 5067TIP3   OH215143   0.937   0.144   5.344
 5067TIP3    H115144   0.995   0.138   5.267
 5067TIP3    H215145   0.874   0.073   5.331
 5068TIP3   OH215146   2.245   0.674   6.032
 5068TIP3    H115147   2.302   0.681   5.955
 5068TIP3    H215148   2.165   0.720   6.007
 5069TIP3   OH215149   5.606   3.376   1.112
 5069TIP3    H115150   5.601   3.421   1.027
 5069TIP3    H215151   5.523   3.398   1.155
 5070TIP3   OH215152   5.057   3.292   3.705
 5070TIP3    H115153   5.052   3.372   3.757
 5070TIP3    H215154   5.010   3.313   3.624
 5071TIP3   OH215155   7.393   6.313   1.300
 5071TIP3    H115156   7.321   6.302   1.239
 5071TIP3    H215157   7.462   6.356   1.248
 5072TIP3   OH215158   4.652   1.219   5.288
 5072TIP3    H115159   4.571   1.268   5.297
 5072TIP3    H215160   4.720   1.286   5.281
 5073TIP3   OH215161   5.855   6.951   4.742
 5073TIP3    H115162   5.870   6.954   4.837
 5073TIP3    H215163   5.879   7.038   4.711
 5074TIP3   OH215164   3.055   0.048   6.506
 5074TIP3    H115165   3.013  -0.026   6.551
 5074TIP3    H215166   3.071   0.016   6.418
 5075TIP3   OH215167   2.045   4.263   0.948
 5075TIP3    H115168   2.111   4.333   0.947
 5075TIP3    H215169   2.027   4.247   1.040
 5076TIP3   OH215170   4.921   3.637   2.082
 5076TIP3    H115171   5.013   3.646   2.055
 5076TIP3    H215172   4.872   3.687   2.017
 5077TIP3   OH215173   7.435   6.868   0.453
 5077TIP3    H115174   7.454   6.879   0.360
 5077TIP3    H215175   7.450   6.955   0.491
 5078TIP3   OH215176   5.886   6.224   6.174
 5078TIP3    H115177   5.896   6.230   6.269
 5078TIP3    H215178   5.972   6.197   6.142
 5079TIP3   OH215179   5.560   5.744   1.943
 5079TIP3    H115180   5.634   5.804   1.941
 5079TIP3    H215181   5.494   5.789   1.996
 5080TIP3   OH215182   7.847   7.030   4.506
 5080TIP3    H115183   7.918   7.053   4.566
 5080TIP3    H215184   7.851   6.934   4.500
 5081TIP3   OH215185   6.983   6.113   1.465
 5081TIP3    H115186   7.054   6.070   1.418
 5081TIP3    H215187   6.913   6.123   1.400
 5082TIP3   OH215188   2.438   3.593   6.059
 5082TIP3    H115189   2.449   3.643   5.978
 5082TIP3    H215190   2.364   3.635   6.104
 5083TIP3   OH215191   7.680   4.560   1.758
 5083TIP3    H115192   7.634   4.570   1.841
 5083TIP3    H215193   7.680   4.466   1.741
 5084TIP3   OH215194   4.298   5.447   6.642
 5084TIP3    H115195   4.323   5.538   6.628
 5084TIP3    H215196   4.371   5.396   6.607
 5085TIP3   OH215197   7.509   2.346   1.308
 5085TIP3    H115198   7.435   2.293   1.339
 5085TIP3    H215199   7.586   2.301   1.341
 5086TIP3   OH215200   6.631   2.909   4.298
 5086TIP3    H115201   6.549   2.940   4.261
 5086TIP3    H215202   6.610   2.825   4.336
 5087TIP3   OH215203   3.752   1.638   2.284
 5087TIP3    H115204   3.794   1.614   2.202
 5087TIP3    H215205   3.791   1.722   2.307
 5088TIP3   OH215206   1.646   7.424   2.907
 5088TIP3    H115207   1.703   7.347   2.907
 5088TIP3    H215208   1.580   7.405   2.973
 5089TIP3   OH215209   4.334   6.269   5.091
 5089TIP3    H115210   4.275   6.264   5.166
 5089TIP3    H215211   4.342   6.178   5.061
 5090TIP3   OH215212   5.558   1.117   6.597
 5090TIP3    H115213   5.649   1.129   6.622
 5090TIP3    H215214   5.509   1.177   6.653
 5091TIP3   OH215215   5.481   0.350   1.154
 5091TIP3    H115216   5.542   0.424   1.156
 5091TIP3    H215217   5.529   0.280   1.110
 5092TIP3   OH215218   8.068   5.806   4.738
 5092TIP3    H115219   8.075   5.717   4.702
 5092TIP3    H215220   7.985   5.806   4.786
 5093TIP3   OH215221   3.350   5.842   2.795
 5093TIP3    H115222   3.334   5.823   2.703
 5093TIP3    H215223   3.351   5.756   2.838
 5094TIP3   OH215224   4.933   4.298   0.072
 5094TIP3    H115225   4.868   4.239   0.032
 5094TIP3    H215226   4.950   4.260   0.158
 5095TIP3   OH215227   2.030   3.746   1.212
 5095TIP3    H115228   1.980   3.699   1.146
 5095TIP3    H215229   1.976   3.741   1.291
 5096TIP3   OH215230   2.515   4.622   3.362
 5096TIP3    H115231   2.492   4.631   3.269
 5096TIP3    H215232   2.479   4.700   3.404
 5097TIP3   OH215233   1.036   3.093   3.777
 5097TIP3    H115234   1.046   3.010   3.730
 5097TIP3    H215235   1.007   3.067   3.865
 5098TIP3   OH215236   8.110   7.612   6.593
 5098TIP3    H115237   8.150   7.680   6.539
 5098TIP3    H215238   8.184   7.558   6.621
 5099TIP3   OH215239   0.246   1.317   2.617
 5099TIP3    H115240   0.201   1.235   2.598
 5099TIP3    H215241   0.178   1.385   2.608
 5100TIP3   OH215242   2.218   4.208   2.887
 5100TIP3    H115243   2.244   4.135   2.942
 5100TIP3    H215244   2.128   4.228   2.916
 5101TIP3   OH215245   5.618   6.293   0.349
 5101TIP3    H115246   5.550   6.300   0.281
 5101TIP3    H215247   5.655   6.381   0.354
 5102TIP3   OH215248   7.454   7.374   5.262
 5102TIP3    H115249   7.373   7.379   5.212
 5102TIP3    H215250   7.426   7.347   5.350
 5103TIP3   OH215251   0.350   2.955   5.574
 5103TIP3    H115252   0.435   2.991   5.551
 5103TIP3    H215253   0.359   2.861   5.559
 5104TIP3   OH215254   3.631   2.561   1.483
 5104TIP3    H115255   3.661   2.652   1.483
 5104TIP3    H215256   3.683   2.518   1.551
 5105TIP3   OH215257   8.023   0.708   6.737
 5105TIP3    H115258   8.075   0.688   6.815
 5105TIP3    H215259   7.951   0.763   6.769
 5106TIP3   OH215260   6.791   3.725   3.177
 5106TIP3    H115261   6.811   3.817   3.163
 5106TIP3    H215262   6.866   3.690   3.225
 5107TIP3   OH215263   3.859   0.204   6.685
 5107TIP3    H115264   3.779   0.152   6.696
 5107TIP3    H215265   3.896   0.209   6.773
 5108TIP3   OH215266   1.736   0.526   5.068
 5108TIP3    H115267   1.671   0.546   5.002
 5108TIP3    H215268   1.728   0.432   5.082
 5109TIP3   OH215269   5.046   2.657   0.974
 5109TIP3    H115270   5.031   2.643   0.880
 5109TIP3    H215271   5.034   2.751   0.986
 5110TIP3   OH215272   8.306   3.678   3.876
 5110TIP3    H115273   8.367   3.726   3.820
 5110TIP3    H215274   8.220   3.695   3.837
 5111TIP3   OH215275   0.859   5.500   2.392
 5111TIP3    H115276   0.831   5.433   2.331
 5111TIP3    H215277   0.895   5.452   2.466
 5112TIP3   OH215278   8.013   5.343   2.164
 5112TIP3    H115279   8.028   5.248   2.160
 5112TIP3    H215280   7.918   5.352   2.170
 5113TIP3   OH215281   3.650   2.353   5.586
 5113TIP3    H115282   3.566   2.395   5.604
 5113TIP3    H215283   3.708   2.386   5.655
 5114TIP3   OH215284   7.317   4.657   0.017
 5114TIP3    H115285   7.303   4.610   0.099
 5114TIP3    H215286   7.394   4.712   0.034
 5115TIP3   OH215287   5.094   0.263   2.249
 5115TIP3    H115288   5.024   0.216   2.295
 5115TIP3    H215289   5.125   0.328   2.313
 5116TIP3   OH215290   2.051   2.484   4.984
 5116TIP3    H115291   2.017   2.431   5.056
 5116TIP3    H215292   2.060   2.422   4.911
 5117TIP3   OH215293   4.049   7.173   1.671
 5117TIP3    H115294   3.964   7.158   1.711
 5117TIP3    H215295   4.065   7.267   1.683
 5118TIP3   OH215296   4.148   5.227   6.372
 5118TIP3    H115297   4.059   5.234   6.405
 5118TIP3    H215298   4.194   5.174   6.438
 5119TIP3   OH215299   2.062   2.952   0.480
 5119TIP3    H115300   2.056   2.887   0.550
 5119TIP3    H215301   2.154   2.950   0.454
 5120TIP3   OH215302   5.277   1.060   1.737
 5120TIP3    H115303   5.247   1.005   1.809
 5120TIP3    H215304   5.337   1.122   1.779
 5121TIP3   OH215305   5.025   1.235   0.088
 5121TIP3    H115306   4.942   1.202   0.122
 5121TIP3    H215307   5.013   1.239  -0.006
 5122TIP3   OH215308   6.821   1.316   3.707
 5122TIP3    H115309   6.748   1.255   3.714
 5122TIP3    H215310   6.839   1.322   3.613
 5123TIP3   OH215311   7.383   0.242   6.420
 5123TIP3    H115312   7.477   0.235   6.440
 5123TIP3    H215313   7.351   0.152   6.425
 5124TIP3   OH215314   1.367   6.363   0.999
 5124TIP3    H115315   1.420   6.284   1.008
 5124TIP3    H215316   1.296   6.351   1.061
 5125TIP3   OH215317   2.578   3.962   0.303
 5125TIP3    H115318   2.531   4.020   0.243
 5125TIP3    H215319   2.661   4.007   0.320
 5126TIP3   OH215320   0.568   1.685   2.874
 5126TIP3    H115321   0.509   1.612   2.857
 5126TIP3    H215322   0.637   1.677   2.807
 5127TIP3   OH215323   0.964   6.020   5.315
 5127TIP3    H115324   1.054   6.002   5.344
 5127TIP3    H215325   0.939   5.942   5.266
 5128TIP3   OH215326   7.822   0.289   2.832
 5128TIP3    H115327   7.791   0.290   2.741
 5128TIP3    H215328   7.862   0.203   2.843
 5129TIP3   OH215329   4.468   0.490   2.811
 5129TIP3    H115330   4.511   0.573   2.787
 5129TIP3    H215331   4.428   0.508   2.896
 5130TIP3   OH215332   3.068   7.417   1.797
 5130TIP3    H115333   3.066   7.499   1.846
 5130TIP3    H215334   3.004   7.429   1.728
 5131TIP3   OH215335   7.068   7.199   6.031
 5131TIP3    H115336   6.987   7.155   6.056
 5131TIP3    H215337   7.098   7.241   6.112
 5132TIP3   OH215338   2.359   5.252   1.835
 5132TIP3    H115339   2.346   5.168   1.793
 5132TIP3    H215340   2.279   5.302   1.815
 5133TIP3   OH215341   7.758   0.477   6.287
 5133TIP3    H115342   7.729   0.567   6.273
 5133TIP3    H215343   7.789   0.475   6.378
 5134TIP3   OH215344   2.134   2.355   2.566
 5134TIP3    H115345   2.194   2.301   2.617
 5134TIP3    H215346   2.047   2.329   2.595
 5135TIP3   OH215347   5.583   7.646   6.145
 5135TIP3    H115348   5.602   7.596   6.066
 5135TIP3    H215349   5.507   7.700   6.121
 5136TIP3   OH215350   7.390   7.098   2.352
 5136TIP3    H115351   7.453   7.061   2.414
 5136TIP3    H215352   7.439   7.108   2.271
 5137TIP3   OH215353   1.255   4.201   5.393
 5137TIP3    H115354   1.291   4.123   5.350
 5137TIP3    H215355   1.329   4.238   5.441
 5138TIP3   OH215356   6.854   3.167   5.513
 5138TIP3    H115357   6.875   3.075   5.530
 5138TIP3    H215358   6.919   3.216   5.564
 5139TIP3   OH215359   5.771   6.684   1.974
 5139TIP3    H115360   5.797   6.776   1.982
 5139TIP3    H215361   5.714   6.669   2.049
 5140TIP3   OH215362   2.056   5.791   2.358
 5140TIP3    H115363   2.100   5.739   2.425
 5140TIP3    H215364   1.985   5.735   2.326
 5141TIP3   OH215365   3.022   2.095   0.723
 5141TIP3    H115366   3.037   2.103   0.817
 5141TIP3    H215367   2.951   2.155   0.704
 5142TIP3   OH215368   7.502   7.830   3.595
 5142TIP3    H115369   7.477   7.748   3.552
 5142TIP3    H215370   7.427   7.889   3.580
 5143TIP3   OH215371   3.783   5.618   3.905
 5143TIP3    H115372   3.760   5.693   3.960
 5143TIP3    H215373   3.701   5.594   3.862
 5144TIP3   OH215374   4.335   3.114   4.728
 5144TIP3    H115375   4.289   3.051   4.785
 5144TIP3    H215376   4.420   3.074   4.713
 5145TIP3   OH215377   3.680   5.766   1.982
 5145TIP3    H115378   3.735   5.690   1.964
 5145TIP3    H215379   3.723   5.838   1.936
 5146TIP3   OH215380   4.797   0.747   6.246
 5146TIP3    H115381   4.862   0.815   6.266
 5146TIP3    H215382   4.734   0.792   6.189
 5147TIP3   OH215383   7.026   0.220   4.267
 5147TIP3    H115384   6.959   0.205   4.334
 5147TIP3    H215385   7.099   0.165   4.292
 5148TIP3   OH215386   3.172   5.839   5.395
 5148TIP3    H115387   3.138   5.928   5.398
 5148TIP3    H215388   3.153   5.809   5.306
 5149TIP3   OH215389   4.179   2.446   3.986
 5149TIP3    H115390   4.208   2.536   4.005
 5149TIP3    H215391   4.204   2.432   3.895
 5150TIP3   OH215392   5.163   4.723   6.683
 5150TIP3    H115393   5.082   4.743   6.730
 5150TIP3    H215394   5.147   4.638   6.644
 5151TIP3   OH215395   5.214   6.356   5.232
 5151TIP3    H115396   5.197   6.334   5.324
 5151TIP3    H215397   5.204   6.272   5.186
 5152TIP3   OH215398   4.204   7.565   5.011
 5152TIP3    H115399   4.138   7.626   4.980
 5152TIP3    H215400   4.164   7.478   5.002
 5153TIP3   OH215401   5.050   6.920   1.379
 5153TIP3    H115402   5.139   6.915   1.415
 5153TIP3    H215403   5.052   6.996   1.321
 5154TIP3   OH215404   8.097   3.811   6.294
 5154TIP3    H115405   8.152   3.787   6.219
 5154TIP3    H215406   8.158   3.819   6.367
 5155TIP3   OH215407   3.546   6.624   2.373
 5155TIP3    H115408   3.501   6.576   2.303
 5155TIP3    H215409   3.504   6.710   2.374
 5156TIP3   OH215410   0.135   7.577   1.890
 5156TIP3    H115411   0.075   7.566   1.964
 5156TIP3    H215412   0.146   7.672   1.883
 5157TIP3   OH215413   0.279   6.528   3.470
 5157TIP3    H115414   0.345   6.473   3.512
 5157TIP3    H215415   0.232   6.569   3.543
 5158TIP3   OH215416   1.897   2.651   1.861
 5158TIP3    H115417   1.908   2.571   1.809
 5158TIP3    H215418   1.804   2.673   1.852
 5159TIP3   OH215419   5.436   6.337   0.162
 5159TIP3    H115420   5.373   6.380   0.105
 5159TIP3    H215421   5.404   6.247   0.170
 5160TIP3   OH215422   5.980   2.440   4.762
 5160TIP3    H115423   5.900   2.465   4.717
 5160TIP3    H215424   5.971   2.477   4.850
 5161TIP3   OH215425   6.530   3.443   1.527
 5161TIP3    H115426   6.439   3.474   1.527
 5161TIP3    H215427   6.535   3.382   1.453
 5162TIP3   OH215428   6.530   5.648   0.213
 5162TIP3    H115429   6.569   5.575   0.164
 5162TIP3    H215430   6.604   5.705   0.233
 5163TIP3   OH215431   7.351   6.061   4.610
 5163TIP3    H115432   7.290   6.027   4.545
 5163TIP3    H215433   7.415   5.991   4.622
 5164TIP3   OH215434   2.838   3.377   1.531
 5164TIP3    H115435   2.775   3.321   1.577
 5164TIP3    H215436   2.807   3.378   1.441
 5165TIP3   OH215437   4.840   5.263   4.206
 5165TIP3    H115438   4.749   5.245   4.230
 5165TIP3    H215439   4.891   5.235   4.282
 5166TIP3   OH215440   6.052   6.307   2.176
 5166TIP3    H115441   6.085   6.396   2.182
 5166TIP3    H215442   5.957   6.316   2.177
 5167TIP3   OH215443   0.850   4.633   1.100
 5167TIP3    H115444   0.808   4.553   1.068
 5167TIP3    H215445   0.835   4.697   1.031
 5168TIP3   OH215446   2.995   1.375   2.733
 5168TIP3    H115447   3.048   1.296   2.744
 5168TIP3    H215448   2.923   1.347   2.675
 5169TIP3   OH215449   5.532   3.428   5.825
 5169TIP3    H115450   5.542   3.480   5.905
 5169TIP3    H215451   5.596   3.467   5.764
 5170TIP3   OH215452   2.970   2.077   4.030
 5170TIP3    H115453   3.053   2.075   3.981
 5170TIP3    H215454   2.904   2.093   3.963
 5171TIP3   OH215455   6.086   3.046   5.859
 5171TIP3    H115456   6.106   3.130   5.900
 5171TIP3    H215457   6.005   3.062   5.810
 5172TIP3   OH215458   1.217   0.420   0.919
 5172TIP3    H115459   1.176   0.500   0.952
 5172TIP3    H215460   1.310   0.439   0.916
 5173TIP3   OH215461   1.114   3.189   4.808
 5173TIP3    H115462   1.046   3.219   4.869
 5173TIP3    H215463   1.196   3.212   4.850
 5174TIP3   OH215464   2.352   5.096   4.109
 5174TIP3    H115465   2.309   5.151   4.043
 5174TIP3    H215466   2.328   5.007   4.085
 5175TIP3   OH215467   5.969   6.258   0.734
 5175TIP3    H115468   5.971   6.214   0.649
 5175TIP3    H215469   6.059   6.288   0.748
 5176TIP3   OH215470   7.776   4.188   4.257
 5176TIP3    H115471   7.759   4.280   4.278
 5176TIP3    H215472   7.712   4.139   4.309
 5177TIP3   OH215473   0.701   5.488   0.042
 5177TIP3    H115474   0.648   5.551  -0.007
 5177TIP3    H215475   0.723   5.533   0.123
 5178TIP3   OH215476   5.192   1.877   3.433
 5178TIP3    H115477   5.194   1.904   3.341
 5178TIP3    H215478   5.116   1.820   3.439
 5179TIP3   OH215479   7.914   0.542   5.459
 5179TIP3    H115480   7.967   0.498   5.393
 5179TIP3    H215481   7.825   0.541   5.424
 5180TIP3   OH215482   4.026   4.009   0.075
 5180TIP3    H115483   4.052   4.074   0.010
 5180TIP3    H215484   4.047   4.048   0.159
 5181TIP3   OH215485   1.715   2.633   6.426
 5181TIP3    H115486   1.768   2.712   6.416
 5181TIP3    H215487   1.639   2.648   6.370
 5182TIP3   OH215488   1.040   0.285   2.024
 5182TIP3    H115489   0.969   0.344   2.001
 5182TIP3    H215490   1.043   0.222   1.951
 5183TIP3   OH215491   1.450   6.544   3.194
 5183TIP3    H115492   1.508   6.619   3.180
 5183TIP3    H215493   1.503   6.467   3.176
 5184TIP3   OH215494   7.474   1.717   5.035
 5184TIP3    H115495   7.468   1.789   4.971
 5184TIP3    H215496   7.467   1.760   5.120
 5185TIP3   OH215497   3.313   3.651   5.440
 5185TIP3    H115498   3.315   3.561   5.406
 5185TIP3    H215499   3.385   3.655   5.502
 5186TIP3   OH215500   4.731   4.702   6.530
 5186TIP3    H115501   4.758   4.734   6.616
 5186TIP3    H215502   4.662   4.639   6.548
 5187TIP3   OH215503   7.587   0.800   5.523
 5187TIP3    H115504   7.648   0.752   5.579
 5187TIP3    H215505   7.525   0.734   5.494
 5188TIP3   OH215506   7.806   3.520   0.966
 5188TIP3    H115507   7.871   3.590   0.971
 5188TIP3    H215508   7.750   3.544   0.893
 5189TIP3   OH215509   0.338   6.766   2.925
 5189TIP3    H115510   0.285   6.777   3.004
 5189TIP3    H215511   0.354   6.855   2.894
 5190TIP3   OH215512   6.122   1.428   3.598
 5190TIP3    H115513   6.116   1.480   3.518
 5190TIP3    H215514   6.074   1.478   3.664
 5191TIP3   OH215515   1.427   1.762   1.058
 5191TIP3    H115516   1.517   1.778   1.030
 5191TIP3    H215517   1.434   1.693   1.123
 5192TIP3   OH215518   0.370   0.720   3.747
 5192TIP3    H115519   0.367   0.640   3.694
 5192TIP3    H215520   0.434   0.776   3.703
 5193TIP3   OH215521   3.191   1.992   1.080
 5193TIP3    H115522   3.120   1.936   1.112
 5193TIP3    H215523   3.271   1.952   1.115
 5194TIP3   OH215524   4.896   0.831   1.466
 5194TIP3    H115525   4.964   0.814   1.401
 5194TIP3    H215526   4.839   0.754   1.462
 5195TIP3   OH215527   5.402   4.943   0.564
 5195TIP3    H115528   5.393   4.944   0.660
 5195TIP3    H215529   5.496   4.937   0.549
 5196TIP3   OH215530   0.822   2.636   4.190
 5196TIP3    H115531   0.781   2.618   4.274
 5196TIP3    H215532   0.853   2.727   4.197
 5197TIP3   OH215533   5.664   4.222   5.695
 5197TIP3    H115534   5.640   4.307   5.657
 5197TIP3    H215535   5.663   4.236   5.789
 5198TIP3   OH215536   7.106   4.388   1.797
 5198TIP3    H115537   7.037   4.443   1.834
 5198TIP3    H215538   7.085   4.385   1.703
 5199TIP3   OH215539   6.754   5.600   2.639
 5199TIP3    H115540   6.796   5.660   2.701
 5199TIP3    H215541   6.826   5.544   2.608
 5200TIP3   OH215542   7.997   3.790   1.880
 5200TIP3    H115543   8.075   3.811   1.829
 5200TIP3    H215544   7.995   3.694   1.884
 5201TIP3   OH215545   7.202   2.784  -0.014
 5201TIP3    H115546   7.207   2.833   0.068
 5201TIP3    H215547   7.111   2.796  -0.044
 5202TIP3   OH215548   6.269   1.404   5.830
 5202TIP3    H115549   6.289   1.326   5.882
 5202TIP3    H215550   6.287   1.378   5.740
 5203TIP3   OH215551   3.253   1.412   2.274
 5203TIP3    H115552   3.327   1.468   2.297
 5203TIP3    H215553   3.263   1.397   2.180
 5204TIP3   OH215554  -0.025   0.067   3.041
 5204TIP3    H115555  -0.001  -0.014   2.998
 5204TIP3    H215556  -0.036   0.044   3.134
 5205TIP3   OH215557   3.307   3.393   4.426
 5205TIP3    H115558   3.287   3.429   4.513
 5205TIP3    H215559   3.389   3.434   4.401
 5206TIP3   OH215560   5.207   4.109   5.431
 5206TIP3    H115561   5.138   4.174   5.432
 5206TIP3    H215562   5.243   4.114   5.342
 5207TIP3   OH215563   7.272   4.128   5.842
 5207TIP3    H115564   7.338   4.077   5.794
 5207TIP3    H215565   7.233   4.184   5.775
 5208TIP3   OH215566   5.931   6.670   5.610
 5208TIP3    H115567   5.846   6.675   5.567
 5208TIP3    H215568   5.985   6.619   5.550
 5209TIP3   OH215569   3.798   6.614   0.855
 5209TIP3    H115570   3.822   6.523   0.836
 5209TIP3    H215571   3.847   6.665   0.790
 5210TIP3   OH215572   6.504   5.530   0.550
 5210TIP3    H115573   6.427   5.584   0.571
 5210TIP3    H215574   6.476   5.476   0.476
 5211TIP3   OH215575   5.240   6.877   0.108
 5211TIP3    H115576   5.233   6.960   0.154
 5211TIP3    H215577   5.261   6.813   0.177
 5212TIP3   OH215578   8.068   1.045   3.263
 5212TIP3    H115579   8.099   0.960   3.296
 5212TIP3    H215580   7.976   1.048   3.290
 5213TIP3   OH215581   1.246   4.415   3.482
 5213TIP3    H115582   1.257   4.349   3.551
 5213TIP3    H215583   1.314   4.395   3.418
 5214TIP3   OH215584   7.045   7.303   4.343
 5214TIP3    H115585   7.068   7.295   4.251
 5214TIP3    H215586   6.987   7.380   4.347
 5215TIP3   OH215587   8.165   0.529   0.777
 5215TIP3    H115588   8.256   0.526   0.808
 5215TIP3    H215589   8.126   0.604   0.821
 5216TIP3   OH215590   0.515   4.759   6.226
 5216TIP3    H115591   0.474   4.772   6.141
 5216TIP3    H215592   0.537   4.846   6.257
 5217TIP3   OH215593   0.571   3.763   5.547
 5217TIP3    H115594   0.516   3.692   5.579
 5217TIP3    H215595   0.539   3.781   5.459
 5218TIP3   OH215596   3.642   1.437   0.584
 5218TIP3    H115597   3.723   1.467   0.544
 5218TIP3    H215598   3.590   1.516   0.598
 5219TIP3   OH215599   2.882   3.636   1.659
 5219TIP3    H115600   2.853   3.567   1.599
 5219TIP3    H215601   2.826   3.711   1.638
 5220TIP3   OH215602   0.669   3.780   3.801
 5220TIP3    H115603   0.631   3.769   3.888
 5220TIP3    H215604   0.671   3.875   3.787
 5221TIP3   OH215605   7.671   5.156   3.348
 5221TIP3    H115606   7.761   5.130   3.328
 5221TIP3    H215607   7.679   5.242   3.389
 5222TIP3   OH215608   4.038   4.907   4.504
 5222TIP3    H115609   4.055   4.832   4.446
 5222TIP3    H215610   4.010   4.977   4.446
 5223TIP3   OH215611   3.299   2.347   4.788
 5223TIP3    H115612   3.317   2.259   4.753
 5223TIP3    H215613   3.264   2.396   4.714
 5224TIP3   OH215614   0.559   4.607   3.511
 5224TIP3    H115615   0.636   4.569   3.468
 5224TIP3    H215616   0.588   4.694   3.539
 5225TIP3   OH215617   2.949   5.424   1.453
 5225TIP3    H115618   2.897   5.476   1.392
 5225TIP3    H215619   2.950   5.476   1.534
 5226TIP3   OH215620   2.349   6.230   2.875
 5226TIP3    H115621   2.347   6.259   2.966
 5226TIP3    H215622   2.426   6.174   2.870
 5227TIP3   OH215623   4.328   6.574   1.637
 5227TIP3    H115624   4.384   6.651   1.624
 5227TIP3    H215625   4.295   6.553   1.550
 5228TIP3   OH215626   8.024   5.051   3.823
 5228TIP3    H115627   7.934   5.052   3.857
 5228TIP3    H215628   8.032   5.133   3.775
 5229TIP3   OH215629   7.658   6.119   3.556
 5229TIP3    H115630   7.604   6.076   3.621
 5229TIP3    H215631   7.597   6.174   3.506
 5230TIP3   OH215632   6.522   1.305   3.535
 5230TIP3    H115633   6.618   1.303   3.537
 5230TIP3    H215634   6.500   1.307   3.442
 5231TIP3   OH215635   1.285   2.894   3.756
 5231TIP3    H115636   1.368   2.909   3.710
 5231TIP3    H215637   1.219   2.891   3.686
 5232TIP3   OH215638   3.327   4.346   3.963
 5232TIP3    H115639   3.359   4.367   3.875
 5232TIP3    H215640   3.264   4.275   3.950
 5233TIP3   OH215641   0.462   6.981   5.048
 5233TIP3    H115642   0.396   6.948   4.987
 5233TIP3    H215643   0.492   7.063   5.008
 5234TIP3   OH215644   5.890   2.848   1.044
 5234TIP3    H115645   5.847   2.886   1.121
 5234TIP3    H215646   5.983   2.857   1.061
 5235TIP3   OH215647   5.723   6.506   0.952
 5235TIP3    H115648   5.662   6.502   1.026
 5235TIP3    H215649   5.695   6.434   0.895
 5236TIP3   OH215650   4.992   1.684   5.549
 5236TIP3    H115651   4.912   1.728   5.579
 5236TIP3    H215652   4.986   1.687   5.453
 5237TIP3   OH215653   3.942   5.377   0.240
 5237TIP3    H115654   3.991   5.331   0.308
 5237TIP3    H215655   4.008   5.429   0.194
 5238TIP3   OH215656   2.557   6.962   2.041
 5238TIP3    H115657   2.595   6.874   2.040
 5238TIP3    H215658   2.477   6.954   1.990
 5239TIP3   OH215659   7.591   6.160   3.102
 5239TIP3    H115660   7.592   6.094   3.033
 5239TIP3    H215661   7.669   6.142   3.155
 5240TIP3   OH215662   7.729   0.997   2.247
 5240TIP3    H115663   7.819   0.973   2.270
 5240TIP3    H215664   7.719   0.968   2.156
 5241TIP3   OH215665   7.017   7.743   1.562
 5241TIP3    H115666   7.057   7.661   1.532
 5241TIP3    H215667   6.993   7.788   1.481
 5242TIP3   OH215668   7.572   6.334   4.803
 5242TIP3    H115669   7.539   6.281   4.876
 5242TIP3    H215670   7.516   6.411   4.802
 5243TIP3   OH215671   3.637   4.963   0.455
 5243TIP3    H115672   3.577   4.893   0.429
 5243TIP3    H215673   3.703   4.920   0.509
 5244TIP3   OH215674   0.970   2.989   1.751
 5244TIP3    H115675   0.882   3.025   1.757
 5244TIP3    H215676   0.971   2.915   1.811
 5245TIP3   OH215677   1.325   5.024   4.815
 5245TIP3    H115678   1.252   5.085   4.827
 5245TIP3    H215679   1.388   5.074   4.763
 5246TIP3   OH215680   6.787   4.864   3.472
 5246TIP3    H115681   6.781   4.955   3.500
 5246TIP3    H215682   6.730   4.858   3.396
 5247TIP3   OH215683   4.436   3.521   5.157
 5247TIP3    H115684   4.421   3.428   5.142
 5247TIP3    H215685   4.475   3.526   5.244
 5248TIP3   OH215686   4.631   5.039   3.477
 5248TIP3    H115687   4.623   5.054   3.383
 5248TIP3    H215688   4.713   5.081   3.501
 5249TIP3   OH215689   1.321   4.501   4.768
 5249TIP3    H115690   1.304   4.592   4.745
 5249TIP3    H215691   1.288   4.451   4.693
 5250TIP3   OH215692   7.868   7.789   3.955
 5250TIP3    H115693   7.790   7.821   3.910
 5250TIP3    H215694   7.940   7.835   3.913
 5251TIP3   OH215695   7.000   4.154   1.303
 5251TIP3    H115696   6.943   4.225   1.273
 5251TIP3    H215697   7.078   4.161   1.247
 5252TIP3   OH215698   7.103   3.696   6.387
 5252TIP3    H115699   7.091   3.751   6.465
 5252TIP3    H215700   7.094   3.758   6.314
 5253TIP3   OH215701   6.139   7.438   6.553
 5253TIP3    H115702   6.107   7.515   6.601
 5253TIP3    H215703   6.064   7.378   6.552
 5254TIP3   OH215704   2.625   5.154   6.311
 5254TIP3    H115705   2.600   5.235   6.357
 5254TIP3    H215706   2.675   5.183   6.235
 5255TIP3   OH215707   6.213   3.176   4.265
 5255TIP3    H115708   6.281   3.141   4.321
 5255TIP3    H215709   6.176   3.250   4.314
 5256TIP3   OH215710   7.068   1.314   6.282
 5256TIP3    H115711   7.076   1.219   6.283
 5256TIP3    H215712   6.973   1.330   6.282
 5257TIP3   OH215713   2.287   3.849   0.822
 5257TIP3    H115714   2.323   3.825   0.737
 5257TIP3    H215715   2.363   3.867   0.876
 5258TIP3   OH215716   1.258   7.212   6.743
 5258TIP3    H115717   1.197   7.186   6.674
 5258TIP3    H215718   1.328   7.260   6.697
 5259TIP3   OH215719   4.667   6.864   0.785
 5259TIP3    H115720   4.758   6.866   0.815
 5259TIP3    H215721   4.618   6.835   0.862
 5260TIP3   OH215722   3.675   2.631   4.381
 5260TIP3    H115723   3.639   2.709   4.338
 5260TIP3    H215724   3.766   2.628   4.353
 5261TIP3   OH215725   4.924   4.760   4.873
 5261TIP3    H115726   4.906   4.695   4.805
 5261TIP3    H215727   4.996   4.723   4.924
 5262TIP3   OH215728   0.203   2.480  -0.062
 5262TIP3    H115729   0.208   2.497   0.032
 5262TIP3    H215730   0.293   2.488  -0.093
 5263TIP3   OH215731   5.587   1.678   3.928
 5263TIP3    H115732   5.615   1.707   4.015
 5263TIP3    H215733   5.629   1.739   3.868
 5264TIP3   OH215734   2.975   5.601   5.257
 5264TIP3    H115735   2.928   5.672   5.214
 5264TIP3    H215736   3.067   5.615   5.233
 5265TIP3   OH215737   5.061   3.167   4.052
 5265TIP3    H115738   5.001   3.211   3.992
 5265TIP3    H215739   5.143   3.216   4.043
 5266TIP3   OH215740   8.125   6.447   2.626
 5266TIP3    H115741   8.215   6.475   2.610
 5266TIP3    H215742   8.133   6.365   2.674
 5267TIP3   OH215743   1.986   0.282   6.324
 5267TIP3    H115744   1.931   0.281   6.245
 5267TIP3    H215745   1.927   0.258   6.395
 5268TIP3   OH215746   1.263   3.150   2.878
 5268TIP3    H115747   1.217   3.147   2.794
 5268TIP3    H215748   1.195   3.129   2.943
 5269TIP3   OH215749   2.250   5.029   1.698
 5269TIP3    H115750   2.205   5.002   1.778
 5269TIP3    H215751   2.205   4.983   1.628
 5270TIP3   OH215752   2.691   4.098   1.380
 5270TIP3    H115753   2.739   4.168   1.336
 5270TIP3    H215754   2.600   4.109   1.352
 5271TIP3   OH215755   2.734   1.153   1.612
 5271TIP3    H115756   2.658   1.178   1.560
 5271TIP3    H215757   2.701   1.145   1.702
 5272TIP3   OH215758   7.457   2.743   4.669
 5272TIP3    H115759   7.455   2.788   4.585
 5272TIP3    H215760   7.366   2.739   4.697
 5273TIP3   OH215761   6.555   3.762   1.221
 5273TIP3    H115762   6.469   3.720   1.221
 5273TIP3    H215763   6.543   3.842   1.169
 5274TIP3   OH215764   4.035   5.283   2.758
 5274TIP3    H115765   4.043   5.358   2.699
 5274TIP3    H215766   4.064   5.315   2.843
 5275TIP3   OH215767   7.450   4.225   6.725
 5275TIP3    H115768   7.535   4.182   6.740
 5275TIP3    H215769   7.464   4.277   6.646
 5276TIP3   OH215770   0.115   4.005   6.059
 5276TIP3    H115771   0.073   4.089   6.045
 5276TIP3    H215772   0.099   3.984   6.151
 5277TIP3   OH215773   0.383   7.595   0.016
 5277TIP3    H115774   0.463   7.615   0.065
 5277TIP3    H215775   0.405   7.517  -0.035
 5278TIP3   OH215776   7.649   5.465   4.672
 5278TIP3    H115777   7.580   5.455   4.607
 5278TIP3    H215778   7.720   5.409   4.642
 5279TIP3   OH215779   8.363   2.364   2.378
 5279TIP3    H115780   8.338   2.361   2.286
 5279TIP3    H215781   8.284   2.336   2.425
 5280TIP3   OH215782   6.699   4.441   5.020
 5280TIP3    H115783   6.620   4.493   5.009
 5280TIP3    H215784   6.726   4.456   5.111
 5281TIP3   OH215785   3.953   0.480   3.782
 5281TIP3    H115786   4.027   0.432   3.819
 5281TIP3    H215787   3.885   0.475   3.849
 5282TIP3   OH215788   4.970   0.973   6.402
 5282TIP3    H115789   4.918   1.040   6.357
 5282TIP3    H215790   4.905   0.911   6.436
 5283TIP3   OH215791   3.483   6.012   1.257
 5283TIP3    H115792   3.472   5.931   1.307
 5283TIP3    H215793   3.462   5.987   1.167
 5284TIP3   OH215794   3.940   2.833   2.975
 5284TIP3    H115795   4.014   2.778   2.949
 5284TIP3    H215796   3.950   2.912   2.922
 5285TIP3   OH215797   3.905   1.199   6.460
 5285TIP3    H115798   3.971   1.146   6.504
 5285TIP3    H215799   3.933   1.200   6.368
 5286TIP3   OH215800   0.930   7.220   2.204
 5286TIP3    H115801   0.867   7.175   2.260
 5286TIP3    H215802   1.008   7.230   2.259
 5287TIP3   OH215803   7.700   1.779   3.237
 5287TIP3    H115804   7.690   1.850   3.300
 5287TIP3    H215805   7.654   1.705   3.276
 5288TIP3   OH215806   4.654   4.462   5.085
 5288TIP3    H115807   4.621   4.392   5.028
 5288TIP3    H215808   4.594   4.535   5.070
 5289TIP3   OH215809   1.321   6.505   2.478
 5289TIP3    H115810   1.325   6.438   2.409
 5289TIP3    H215811   1.258   6.470   2.541
 5290TIP3   OH215812   1.123   0.997   2.764
 5290TIP3    H115813   1.036   0.961   2.779
 5290TIP3    H215814   1.120   1.083   2.805
 5291TIP3   OH215815   3.529   7.037   6.372
 5291TIP3    H115816   3.531   6.953   6.419
 5291TIP3    H215817   3.493   7.099   6.436
 5292TIP3   OH215818   4.193   3.763   5.495
 5292TIP3    H115819   4.108   3.774   5.537
 5292TIP3    H215820   4.199   3.837   5.434
 5293TIP3   OH215821   5.838   4.566  -0.067
 5293TIP3    H115822   5.904   4.593  -0.003
 5293TIP3    H215823   5.785   4.644  -0.082
 5294TIP3   OH215824   2.341   1.604   0.535
 5294TIP3    H115825   2.268   1.661   0.512
 5294TIP3    H215826   2.331   1.528   0.477
 5295TIP3   OH215827   2.359   2.014   3.849
 5295TIP3    H115828   2.397   2.048   3.768
 5295TIP3    H215829   2.433   2.001   3.908
 5296TIP3   OH215830   2.393   2.437   2.364
 5296TIP3    H115831   2.444   2.409   2.287
 5296TIP3    H215832   2.372   2.355   2.409
 5297TIP3   OH215833   3.302   7.656   2.593
 5297TIP3    H115834   3.385   7.629   2.633
 5297TIP3    H215835   3.265   7.718   2.656
 5298TIP3   OH215836   5.068   4.447   4.077
 5298TIP3    H115837   5.002   4.386   4.045
 5298TIP3    H215838   5.030   4.534   4.062
 5299TIP3   OH215839   3.113   0.251   0.816
 5299TIP3    H115840   3.123   0.345   0.826
 5299TIP3    H215841   3.047   0.241   0.747
 5300TIP3   OH215842   7.553   3.492   2.012
 5300TIP3    H115843   7.542   3.510   2.105
 5300TIP3    H215844   7.629   3.434   2.007
 5301TIP3   OH215845   0.645   5.971   5.813
 5301TIP3    H115846   0.723   6.021   5.836
 5301TIP3    H215847   0.674   5.879   5.817
 5302TIP3   OH215848   2.713   6.009   5.634
 5302TIP3    H115849   2.752   6.013   5.722
 5302TIP3    H215850   2.645   6.076   5.635
 5303TIP3   OH215851   7.387   2.660   3.320
 5303TIP3    H115852   7.353   2.720   3.254
 5303TIP3    H215853   7.389   2.711   3.401
 5304TIP3   OH215854   1.880   6.181   4.048
 5304TIP3    H115855   1.882   6.138   3.963
 5304TIP3    H215856   1.894   6.274   4.029
 5305TIP3   OH215857   3.276   1.717   3.578
 5305TIP3    H115858   3.324   1.798   3.593
 5305TIP3    H215859   3.298   1.661   3.653
 5306TIP3   OH215860   6.589   5.037   3.229
 5306TIP3    H115861   6.615   5.128   3.216
 5306TIP3    H215862   6.494   5.037   3.223
 5307TIP3   OH215863   3.300   3.997   3.728
 5307TIP3    H115864   3.335   3.963   3.646
 5307TIP3    H215865   3.366   3.973   3.794
 5308TIP3   OH215866   0.240   3.273   1.209
 5308TIP3    H115867   0.190   3.210   1.158
 5308TIP3    H215868   0.239   3.238   1.298
 5309TIP3   OH215869   2.729   6.961   5.608
 5309TIP3    H115870   2.820   6.932   5.606
 5309TIP3    H215871   2.720   7.007   5.691
 5310TIP3   OH215872  -0.015   2.447   3.210
 5310TIP3    H115873  -0.088   2.389   3.231
 5310TIP3    H215874   0.061   2.389   3.208
 5311TIP3   OH215875   3.025   7.074   2.690
 5311TIP3    H115876   3.024   7.088   2.595
 5311TIP3    H215877   3.052   7.158   2.727
 5312TIP3   OH215878   3.998   4.100   3.267
 5312TIP3    H115879   3.993   4.024   3.209
 5312TIP3    H215880   3.999   4.063   3.355
 5313TIP3   OH215881   1.339   2.070   1.018
 5313TIP3    H115882   1.260   2.102   0.973
 5313TIP3    H215883   1.307   1.999   1.074
 5314TIP3   OH215884   2.954   1.048   0.806
 5314TIP3    H115885   2.985   1.041   0.897
 5314TIP3    H215886   2.866   1.009   0.809
 5315TIP3   OH215887   3.170   1.790   1.290
 5315TIP3    H115888   3.265   1.776   1.297
 5315TIP3    H215889   3.144   1.819   1.378
 5316TIP3   OH215890   0.817   1.155   5.726
 5316TIP3    H115891   0.748   1.142   5.791
 5316TIP3    H215892   0.895   1.115   5.765
 5317TIP3   OH215893   3.057   1.299   3.487
 5317TIP3    H115894   3.016   1.380   3.519
 5317TIP3    H215895   3.151   1.320   3.486
 5318TIP3   OH215896   5.080   0.329   5.967
 5318TIP3    H115897   4.998   0.338   5.918
 5318TIP3    H215898   5.054   0.336   6.059
 5319TIP3   OH215899   2.138   0.285   3.832
 5319TIP3    H115900   2.116   0.341   3.906
 5319TIP3    H215901   2.081   0.314   3.761
 5320TIP3   OH215902   0.860   3.946   3.087
 5320TIP3    H115903   0.912   4.025   3.077
 5320TIP3    H215904   0.811   3.939   3.006
 5321TIP3   OH215905   2.382   3.453   0.050
 5321TIP3    H115906   2.425   3.369   0.064
 5321TIP3    H215907   2.440   3.499  -0.011
 5322TIP3   OH215908   5.966   0.534   3.839
 5322TIP3    H115909   5.967   0.535   3.935
 5322TIP3    H215910   6.032   0.599   3.814
 5323TIP3   OH215911   3.235   7.051   3.664
 5323TIP3    H115912   3.297   7.086   3.600
 5323TIP3    H215913   3.190   6.980   3.618
 5324TIP3   OH215914   3.819   2.528   2.140
 5324TIP3    H115915   3.894   2.577   2.105
 5324TIP3    H215916   3.744   2.583   2.121
 5325TIP3   OH215917   2.870   3.641   4.764
 5325TIP3    H115918   2.875   3.596   4.848
 5325TIP3    H215919   2.776   3.655   4.749
 5326TIP3   OH215920   0.563   0.480   0.336
 5326TIP3    H115921   0.471   0.462   0.319
 5326TIP3    H215922   0.607   0.457   0.254
 5327TIP3   OH215923   2.379   4.170   5.526
 5327TIP3    H115924   2.290   4.154   5.555
 5327TIP3    H215925   2.370   4.237   5.458
 5328TIP3   OH215926   6.497   6.190   0.432
 5328TIP3    H115927   6.484   6.143   0.350
 5328TIP3    H215928   6.476   6.126   0.500
 5329TIP3   OH215929   7.288   1.706   2.905
 5329TIP3    H115930   7.312   1.613   2.913
 5329TIP3    H215931   7.370   1.753   2.921
 5330TIP3   OH215932   5.278   6.334   1.260
 5330TIP3    H115933   5.237   6.253   1.230
 5330TIP3    H215934   5.314   6.313   1.346
 5331TIP3   OH215935   0.394   7.669   6.358
 5331TIP3    H115936   0.376   7.576   6.344
 5331TIP3    H215937   0.487   7.678   6.337
 5332TIP3   OH215938   0.204   7.531   4.533
 5332TIP3    H115939   0.191   7.620   4.565
 5332TIP3    H215940   0.128   7.514   4.477
 5333TIP3   OH215941   1.767   3.716   0.790
 5333TIP3    H115942   1.779   3.802   0.831
 5333TIP3    H215943   1.717   3.666   0.854
 5334TIP3   OH215944   5.513   4.908   5.802
 5334TIP3    H115945   5.486   4.883   5.891
 5334TIP3    H215946   5.595   4.956   5.814
 5335TIP3   OH215947   7.513   7.720   4.685
 5335TIP3    H115948   7.487   7.735   4.594
 5335TIP3    H215949   7.483   7.798   4.732
 5336TIP3   OH215950   7.750   2.053   0.912
 5336TIP3    H115951   7.779   2.103   0.989
 5336TIP3    H215952   7.669   2.011   0.940
 5337TIP3   OH215953   5.811   0.279   0.098
 5337TIP3    H115954   5.862   0.349   0.140
 5337TIP3    H215955   5.872   0.239   0.036
 5338TIP3   OH215956   2.233   5.536   1.757
 5338TIP3    H115957   2.189   5.465   1.711
 5338TIP3    H215958   2.188   5.542   1.841
 5339TIP3   OH215959   8.313   3.193   4.835
 5339TIP3    H115960   8.231   3.152   4.862
 5339TIP3    H215961   8.296   3.287   4.843
 5340TIP3   OH215962   5.652   0.597   1.123
 5340TIP3    H115963   5.663   0.597   1.218
 5340TIP3    H215964   5.640   0.689   1.100
 5341TIP3   OH215965   3.933   2.637   5.507
 5341TIP3    H115966   3.900   2.725   5.489
 5341TIP3    H215967   3.894   2.582   5.439
 5342TIP3   OH215968   1.184   3.855   4.391
 5342TIP3    H115969   1.248   3.828   4.325
 5342TIP3    H215970   1.195   3.950   4.398
 5343TIP3   OH215971   0.779   5.877   1.930
 5343TIP3    H115972   0.747   5.967   1.926
 5343TIP3    H215973   0.723   5.830   1.868
 5344TIP3   OH215974   1.402   5.453   1.498
 5344TIP3    H115975   1.387   5.418   1.411
 5344TIP3    H215976   1.396   5.377   1.556
 5345TIP3   OH215977   3.073   7.423   5.508
 5345TIP3    H115978   3.063   7.339   5.551
 5345TIP3    H215979   2.986   7.441   5.471
 5346TIP3   OH215980   0.310   2.327   0.327
 5346TIP3    H115981   0.367   2.363   0.394
 5346TIP3    H215982   0.359   2.336   0.245
 5347TIP3   OH215983   1.708   7.101   1.831
 5347TIP3    H115984   1.643   7.169   1.811
 5347TIP3    H215985   1.659   7.035   1.880
 5348TIP3   OH215986   5.886   4.073   6.267
 5348TIP3    H115987   5.963   4.027   6.301
 5348TIP3    H215988   5.885   4.051   6.173
 5349TIP3   OH215989   4.797   1.189   3.935
 5349TIP3    H115990   4.846   1.244   3.995
 5349TIP3    H215991   4.715   1.237   3.921
 5350TIP3   OH215992   3.786   6.482   0.609
 5350TIP3    H115993   3.871   6.444   0.629
 5350TIP3    H215994   3.781   6.481   0.514
 5351TIP3   OH215995   7.001   3.601   3.360
 5351TIP3    H115996   7.073   3.649   3.401
 5351TIP3    H215997   7.033   3.511   3.354
 5352TIP3   OH215998   3.903   1.662   3.640
 5352TIP3    H115999   3.960   1.736   3.662
 5352TIP3    H216000   3.963   1.596   3.606
 5353TIP3   OH216001   5.672   0.324   6.527
 5353TIP3    H116002   5.728   0.401   6.518
 5353TIP3    H216003   5.687   0.273   6.448
 5354TIP3   OH216004   3.749   4.621   2.111
 5354TIP3    H116005   3.809   4.693   2.094
 5354TIP3    H216006   3.713   4.599   2.025
 5355TIP3   OH216007   2.320   5.021   0.715
 5355TIP3    H116008   2.230   5.034   0.743
 5355TIP3    H216009   2.371   5.082   0.769
 5356TIP3   OH216010   1.213   7.021   6.523
 5356TIP3    H116011   1.182   6.956   6.460
 5356TIP3    H216012   1.226   7.101   6.472
 5357TIP3   OH216013   1.764   4.590   0.902
 5357TIP3    H116014   1.807   4.670   0.933
 5357TIP3    H216015   1.718   4.618   0.822
 5358TIP3   OH216016   3.698   6.479   3.369
 5358TIP3    H116017   3.778   6.486   3.317
 5358TIP3    H216018   3.627   6.490   3.306
 5359TIP3   OH216019   8.058   5.468   3.068
 5359TIP3    H116020   8.110   5.392   3.042
 5359TIP3    H216021   8.076   5.479   3.161
 5360TIP3   OH216022   0.601   7.195   2.609
 5360TIP3    H116023   0.550   7.273   2.587
 5360TIP3    H216024   0.638   7.215   2.695
 5361TIP3   OH216025   2.130   2.526   1.049
 5361TIP3    H116026   2.195   2.580   1.004
 5361TIP3    H216027   2.096   2.468   0.980
 5362TIP3   OH216028   1.231   7.571   0.412
 5362TIP3    H116029   1.306   7.570   0.472
 5362TIP3    H216030   1.266   7.536   0.330
 5363TIP3   OH216031   6.038   3.040   0.200
 5363TIP3    H116032   6.002   3.023   0.113
 5363TIP3    H216033   6.132   3.020   0.192
 5364TIP3   OH216034   4.426   7.352   1.151
 5364TIP3    H116035   4.419   7.367   1.057
 5364TIP3    H216036   4.520   7.338   1.166
 5365TIP3   OH216037   6.607   7.595   4.724
 5365TIP3    H116038   6.638   7.685   4.733
 5365TIP3    H216039   6.605   7.561   4.813
 5366TIP3   OH216040   6.870   7.169   1.715
 5366TIP3    H116041   6.951   7.219   1.708
 5366TIP3    H216042   6.809   7.228   1.759
 5367TIP3   OH216043   7.247   1.043   5.825
 5367TIP3    H116044   7.170   1.097   5.839
 5367TIP3    H216045   7.244   1.019   5.732
 5368TIP3   OH216046   2.920   0.354   1.279
 5368TIP3    H116047   2.890   0.263   1.278
 5368TIP3    H216048   3.005   0.351   1.234
 5369TIP3   OH216049   0.988   5.718   6.414
 5369TIP3    H116050   0.968   5.811   6.401
 5369TIP3    H216051   0.944   5.695   6.496
 5370TIP3   OH216052   4.703   6.731   1.347
 5370TIP3    H116053   4.782   6.684   1.374
 5370TIP3    H216054   4.717   6.820   1.378
 5371TIP3   OH216055   5.854   3.360   5.686
 5371TIP3    H116056   5.907   3.280   5.680
 5371TIP3    H216057   5.917   3.429   5.707
 5372TIP3   OH216058   2.403   2.571   6.471
 5372TIP3    H116059   2.315   2.611   6.472
 5372TIP3    H216060   2.449   2.619   6.402
 5373TIP3   OH216061   6.497   7.547   3.661
 5373TIP3    H116062   6.560   7.542   3.589
 5373TIP3    H216063   6.549   7.575   3.737
 5374TIP3   OH216064   7.723   1.149   0.853
 5374TIP3    H116065   7.778   1.225   0.872
 5374TIP3    H216066   7.636   1.174   0.883
 5375TIP3   OH216067   6.815   1.618   5.123
 5375TIP3    H116068   6.898   1.648   5.159
 5375TIP3    H216069   6.818   1.645   5.031
 5376TIP3   OH216070   2.106   3.634   6.697
 5376TIP3    H116071   2.063   3.691   6.761
 5376TIP3    H216072   2.157   3.573   6.750
 5377TIP3   OH216073   2.712   1.076   3.666
 5377TIP3    H116074   2.677   1.097   3.753
 5377TIP3    H216075   2.782   1.013   3.683
 5378TIP3   OH216076   1.964   1.503   3.309
 5378TIP3    H116077   1.991   1.544   3.391
 5378TIP3    H216078   1.935   1.415   3.334
 5379TIP3   OH216079   1.734   6.026   5.734
 5379TIP3    H116080   1.765   6.048   5.646
 5379TIP3    H216081   1.813   6.023   5.787
 5380TIP3   OH216082   5.502   6.479   1.191
 5380TIP3    H116083   5.457   6.548   1.142
 5380TIP3    H216084   5.432   6.417   1.214
 5381TIP3   OH216085   4.269   7.491   1.416
 5381TIP3    H116086   4.361   7.514   1.407
 5381TIP3    H216087   4.244   7.458   1.330
 5382TIP3   OH216088   3.337   2.300   2.902
 5382TIP3    H116089   3.258   2.248   2.887
 5382TIP3    H216090   3.312   2.362   2.970
 5383TIP3   OH216091   5.887   1.686   3.052
 5383TIP3    H116092   5.871   1.780   3.044
 5383TIP3    H216093   5.846   1.661   3.135
 5384TIP3   OH216094   1.011   2.344   3.891
 5384TIP3    H116095   1.085   2.285   3.873
 5384TIP3    H216096   1.032   2.384   3.975
 5385TIP3   OH216097   6.597   1.892   1.736
 5385TIP3    H116098   6.557   1.813   1.772
 5385TIP3    H216099   6.644   1.931   1.809
 5386TIP3   OH216100   2.097   5.686   5.543
 5386TIP3    H116101   2.192   5.681   5.543
 5386TIP3    H216102   2.072   5.670   5.634
 5387TIP3   OH216103   1.954   7.302   2.410
 5387TIP3    H116104   1.978   7.385   2.451
 5387TIP3    H216105   1.921   7.248   2.482
 5388TIP3   OH216106   2.555   7.429   1.360
 5388TIP3    H116107   2.511   7.351   1.326
 5388TIP3    H216108   2.500   7.502   1.333
 5389TIP3   OH216109   7.233   0.759   1.570
 5389TIP3    H116110   7.249   0.762   1.476
 5389TIP3    H216111   7.198   0.671   1.585
 5390TIP3   OH216112   2.647   5.384   0.971
 5390TIP3    H116113   2.652   5.353   1.061
 5390TIP3    H216114   2.629   5.478   0.979
 5391TIP3   OH216115   7.879   6.911   6.742
 5391TIP3    H116116   7.882   6.951   6.828
 5391TIP3    H216117   7.815   6.840   6.750
 5392TIP3   OH216118   2.720   1.945   1.427
 5392TIP3    H116119   2.698   2.006   1.497
 5392TIP3    H216120   2.636   1.912   1.396
 5393TIP3   OH216121   3.176   2.098   3.370
 5393TIP3    H116122   3.167   2.160   3.298
 5393TIP3    H216123   3.093   2.105   3.418
 5394TIP3   OH216124   7.590   3.721   2.824
 5394TIP3    H116125   7.670   3.735   2.773
 5394TIP3    H216126   7.594   3.629   2.850
 5395TIP3   OH216127   0.865   2.710   3.550
 5395TIP3    H116128   0.846   2.739   3.461
 5395TIP3    H216129   0.795   2.649   3.571
 5396TIP3   OH216130   0.059   0.522   2.094
 5396TIP3    H116131   0.082   0.614   2.080
 5396TIP3    H216132  -0.031   0.525   2.124
 5397TIP3   OH216133   0.174   2.216   3.228
 5397TIP3    H116134   0.147   2.206   3.319
 5397TIP3    H216135   0.196   2.128   3.199
 5398TIP3   OH216136   4.445   6.634   0.322
 5398TIP3    H116137   4.355   6.652   0.294
 5398TIP3    H216138   4.438   6.625   0.417
 5399TIP3   OH216139   0.695   0.629   0.062
 5399TIP3    H116140   0.650   0.652  -0.020
 5399TIP3    H216141   0.703   0.712   0.108
 5400TIP3   OH216142   3.621   7.460   3.920
 5400TIP3    H116143   3.678   7.425   3.989
 5400TIP3    H216144   3.532   7.455   3.957
 5401TIP3   OH216145   4.398   1.991   4.606
 5401TIP3    H116146   4.323   1.973   4.664
 5401TIP3    H216147   4.411   2.085   4.613
 5402TIP3   OH216148   2.175   3.762   3.293
 5402TIP3    H116149   2.247   3.728   3.240
 5402TIP3    H216150   2.147   3.688   3.347
 5403TIP3   OH216151   3.425   0.238   3.575
 5403TIP3    H116152   3.362   0.265   3.509
 5403TIP3    H216153   3.498   0.201   3.525
 5404TIP3   OH216154   6.387   1.532   3.964
 5404TIP3    H116155   6.316   1.513   4.025
 5404TIP3    H216156   6.376   1.468   3.894
 5405TIP3   OH216157   2.146   1.556   1.024
 5405TIP3    H116158   2.094   1.546   1.104
 5405TIP3    H216159   2.156   1.467   0.990
 5406TIP3   OH216160   3.533   7.210   1.538
 5406TIP3    H116161   3.593   7.142   1.569
 5406TIP3    H216162   3.562   7.290   1.582
 5407TIP3   OH216163   3.280   6.400   0.661
 5407TIP3    H116164   3.310   6.429   0.575
 5407TIP3    H216165   3.316   6.312   0.671
 5408TIP3   OH216166   2.218   6.060   5.425
 5408TIP3    H116167   2.237   6.026   5.512
 5408TIP3    H216168   2.202   5.982   5.372
 5409TIP3   OH216169   6.131   0.471   5.076
 5409TIP3    H116170   6.060   0.498   5.019
 5409TIP3    H216171   6.160   0.552   5.119
 5410TIP3   OH216172   5.959   2.534   5.025
 5410TIP3    H116173   5.885   2.592   5.042
 5410TIP3    H216174   5.964   2.477   5.102
 5411TIP3   OH216175   1.444   4.943   2.275
 5411TIP3    H116176   1.354   4.971   2.291
 5411TIP3    H216177   1.494   5.025   2.268
 5412TIP3   OH216178   8.226   3.365   2.110
 5412TIP3    H116179   8.196   3.317   2.187
 5412TIP3    H216180   8.302   3.414   2.140
 5413TIP3   OH216181   7.159   3.243   2.603
 5413TIP3    H116182   7.184   3.311   2.666
 5413TIP3    H216183   7.123   3.291   2.529
 5414TIP3   OH216184   0.821   6.831   6.078
 5414TIP3    H116185   0.898   6.856   6.027
 5414TIP3    H216186   0.817   6.735   6.070
 5415TIP3   OH216187   7.273   5.981   0.790
 5415TIP3    H116188   7.296   6.070   0.818
 5415TIP3    H216189   7.255   5.989   0.697
 5416TIP3   OH216190   2.200   5.416   4.384
 5416TIP3    H116191   2.215   5.462   4.302
 5416TIP3    H216192   2.168   5.330   4.357
 5417TIP3   OH216193   0.144   0.852   3.707
 5417TIP3    H116194   0.171   0.895   3.625
 5417TIP3    H216195   0.221   0.802   3.734
 5418TIP3   OH216196   2.979   7.651   2.816
 5418TIP3    H116197   2.947   7.714   2.881
 5418TIP3    H216198   2.929   7.672   2.737
 5419TIP3   OH216199   2.370   3.194   3.680
 5419TIP3    H116200   2.387   3.139   3.757
 5419TIP3    H216201   2.440   3.258   3.681
 5420TIP3   OH216202   2.423   1.965   3.314
 5420TIP3    H116203   2.371   1.965   3.233
 5420TIP3    H216204   2.423   2.056   3.343
 5421TIP3   OH216205   6.223   2.907   2.755
 5421TIP3    H116206   6.204   2.909   2.661
 5421TIP3    H216207   6.294   2.971   2.766
 5422TIP3   OH216208   6.082   4.951   5.434
 5422TIP3    H116209   6.011   4.899   5.472
 5422TIP3    H216210   6.132   4.982   5.509
 5423TIP3   OH216211   5.329   6.255   4.651
 5423TIP3    H116212   5.328   6.173   4.601
 5423TIP3    H216213   5.315   6.227   4.742
 5424TIP3   OH216214   5.160   3.063   5.798
 5424TIP3    H116215   5.070   3.040   5.820
 5424TIP3    H216216   5.206   3.061   5.882
 5425TIP3   OH216217   2.836   5.846   5.174
 5425TIP3    H116218   2.753   5.819   5.135
 5425TIP3    H216219   2.813   5.924   5.226
 5426TIP3   OH216220   0.359   3.916   3.774
 5426TIP3    H116221   0.294   3.984   3.796
 5426TIP3    H216222   0.429   3.929   3.838
 5427TIP3   OH216223   7.033   0.302   1.350
 5427TIP3    H116224   7.073   0.240   1.411
 5427TIP3    H216225   6.988   0.247   1.286
 5428TIP3   OH216226   4.032   1.794   1.247
 5428TIP3    H116227   4.118   1.828   1.273
 5428TIP3    H216228   4.052   1.712   1.203
 5429TIP3   OH216229   3.450   7.134   3.855
 5429TIP3    H116230   3.525   7.181   3.820
 5429TIP3    H216231   3.392   7.122   3.779
 5430TIP3   OH216232   3.232   6.489   6.741
 5430TIP3    H116233   3.252   6.488   6.647
 5430TIP3    H216234   3.224   6.397   6.765
 5431TIP3   OH216235   3.001   5.693   3.555
 5431TIP3    H116236   2.924   5.656   3.513
 5431TIP3    H216237   2.977   5.704   3.646
 5432TIP3   OH216238   7.327   7.161   6.233
 5432TIP3    H116239   7.246   7.210   6.249
 5432TIP3    H216240   7.372   7.161   6.317
 5433TIP3   OH216241   1.242   1.775   2.671
 5433TIP3    H116242   1.337   1.777   2.683
 5433TIP3    H216243   1.221   1.859   2.631
 5434TIP3   OH216244   2.272   7.408   2.744
 5434TIP3    H116245   2.354   7.361   2.762
 5434TIP3    H216246   2.258   7.462   2.822
 5435TIP3   OH216247   2.653   4.019   4.367
 5435TIP3    H116248   2.561   4.003   4.389
 5435TIP3    H216249   2.700   4.002   4.449
 5436TIP3   OH216250   1.616   1.351   6.337
 5436TIP3    H116251   1.641   1.428   6.286
 5436TIP3    H216252   1.574   1.387   6.416
 5437TIP3   OH216253   7.628   2.585   5.451
 5437TIP3    H116254   7.615   2.504   5.501
 5437TIP3    H216255   7.718   2.579   5.419
 5438TIP3   OH216256   4.315   4.492   1.869
 5438TIP3    H116257   4.371   4.565   1.843
 5438TIP3    H216258   4.315   4.434   1.792
 5439TIP3   OH216259   6.945   4.536   1.936
 5439TIP3    H116260   6.861   4.531   1.890
 5439TIP3    H216261   6.931   4.488   2.017
 5440TIP3   OH216262   6.456   5.308   1.125
 5440TIP3    H116263   6.489   5.261   1.201
 5440TIP3    H216264   6.446   5.241   1.057
 5441TIP3   OH216265   2.297   1.850   3.533
 5441TIP3    H116266   2.241   1.775   3.511
 5441TIP3    H216267   2.357   1.858   3.459
 5442TIP3   OH216268   4.742   2.294   4.282
 5442TIP3    H116269   4.687   2.336   4.348
 5442TIP3    H216270   4.699   2.315   4.199
 5443TIP3   OH216271   2.006   2.961   3.254
 5443TIP3    H116272   2.014   3.035   3.314
 5443TIP3    H216273   2.094   2.925   3.248
 5444TIP3   OH216274   2.110   5.676   4.777
 5444TIP3    H116275   2.154   5.591   4.781
 5444TIP3    H216276   2.131   5.717   4.861
 5445TIP3   OH216277   1.993   4.559   3.858
 5445TIP3    H116278   2.004   4.576   3.952
 5445TIP3    H216279   1.979   4.464   3.853
 5446TIP3   OH216280   2.125   5.751   3.983
 5446TIP3    H116281   2.071   5.790   4.051
 5446TIP3    H216282   2.088   5.785   3.901
 5447TIP3   OH216283   3.389   2.416   2.213
 5447TIP3    H116284   3.484   2.416   2.204
 5447TIP3    H216285   3.374   2.425   2.307
 5448TIP3   OH216286   5.340   1.679   4.705
 5448TIP3    H116287   5.259   1.729   4.708
 5448TIP3    H216288   5.403   1.738   4.663
 5449TIP3   OH216289   7.840   7.174   4.869
 5449TIP3    H116290   7.759   7.193   4.917
 5449TIP3    H216291   7.872   7.259   4.840
 5450TIP3   OH216292   1.102   7.440   2.334
 5450TIP3    H116293   1.045   7.446   2.410
 5450TIP3    H216294   1.189   7.425   2.370
 5451TIP3   OH216295   5.636   7.749   4.962
 5451TIP3    H116296   5.595   7.832   4.990
 5451TIP3    H216297   5.606   7.685   5.027
 5452TIP3   OH216298   0.166   2.333   1.987
 5452TIP3    H116299   0.166   2.395   2.060
 5452TIP3    H216300   0.135   2.385   1.912
 5453TIP3   OH216301   7.006   1.914   2.945
 5453TIP3    H116302   7.087   1.954   2.977
 5453TIP3    H216303   6.975   1.861   3.017
 5454TIP3   OH216304   2.660   4.748   6.556
 5454TIP3    H116305   2.731   4.811   6.542
 5454TIP3    H216306   2.598   4.794   6.613
 5455TIP3   OH216307   5.021   2.935   4.676
 5455TIP3    H116308   5.004   3.007   4.615
 5455TIP3    H216309   4.938   2.887   4.682
 5456TIP3   OH216310   8.074   1.515   5.047
 5456TIP3    H116311   8.020   1.459   5.102
 5456TIP3    H216312   8.021   1.532   4.969
 5457TIP3   OH216313   6.260   5.212   0.550
 5457TIP3    H116314   6.245   5.291   0.498
 5457TIP3    H216315   6.332   5.167   0.506
 5458TIP3   OH216316   8.152   1.992   3.175
 5458TIP3    H116317   8.108   1.940   3.108
 5458TIP3    H216318   8.227   2.031   3.130
 5459TIP3   OH216319   6.238   5.755   0.862
 5459TIP3    H116320   6.271   5.798   0.942
 5459TIP3    H216321   6.269   5.665   0.869
 5460TIP3   OH216322   5.704   5.614   4.569
 5460TIP3    H116323   5.743   5.697   4.540
 5460TIP3    H216324   5.776   5.568   4.613
 5461TIP3   OH216325   1.164   1.464   3.954
 5461TIP3    H116326   1.243   1.423   3.989
 5461TIP3    H216327   1.194   1.549   3.920
 5462TIP3   OH216328   2.169   7.460   6.340
 5462TIP3    H116329   2.205   7.500   6.419
 5462TIP3    H216330   2.225   7.384   6.324
 5463TIP3   OH216331   6.119   6.529   5.141
 5463TIP3    H116332   6.038   6.525   5.090
 5463TIP3    H216333   6.159   6.613   5.117
 5464TIP3   OH216334   7.936   0.385   3.396
 5464TIP3    H116335   7.895   0.300   3.414
 5464TIP3    H216336   7.980   0.373   3.312
 5465TIP3   OH216337   5.495   6.796   3.689
 5465TIP3    H116338   5.553   6.828   3.621
 5465TIP3    H216339   5.552   6.747   3.749
 5466TIP3   OH216340   1.882   6.715   5.615
 5466TIP3    H116341   1.856   6.801   5.581
 5466TIP3    H216342   1.976   6.712   5.601
 5467TIP3   OH216343   7.085   6.864   3.352
 5467TIP3    H116344   7.093   6.913   3.434
 5467TIP3    H216345   6.998   6.823   3.357
 5468TIP3   OH216346   0.705   5.553   0.968
 5468TIP3    H116347   0.687   5.489   1.037
 5468TIP3    H216348   0.707   5.637   1.014
 5469TIP3   OH216349   6.845   2.472   2.416
 5469TIP3    H116350   6.901   2.549   2.403
 5469TIP3    H216351   6.761   2.508   2.444
 5470TIP3   OH216352   7.294   7.205   4.398
 5470TIP3    H116353   7.220   7.252   4.360
 5470TIP3    H216354   7.345   7.273   4.442
 5471TIP3   OH216355   3.567   2.772   2.579
 5471TIP3    H116356   3.647   2.751   2.530
 5471TIP3    H216357   3.562   2.867   2.576
 5472TIP3   OH216358   6.144   3.844   0.846
 5472TIP3    H116359   6.212   3.890   0.798
 5472TIP3    H216360   6.071   3.839   0.785
 5473TIP3   OH216361   2.855   6.692   1.524
 5473TIP3    H116362   2.950   6.701   1.531
 5473TIP3    H216363   2.842   6.612   1.473
 5474TIP3   OH216364   4.128   0.146   5.198
 5474TIP3    H116365   4.220   0.122   5.209
 5474TIP3    H216366   4.130   0.230   5.152
 5475TIP3   OH216367   0.121   0.290   4.798
 5475TIP3    H116368   0.206   0.277   4.755
 5475TIP3    H216369   0.058   0.292   4.726
 5476TIP3   OH216370   6.806   0.618   1.063
 5476TIP3    H116371   6.726   0.639   1.014
 5476TIP3    H216372   6.832   0.700   1.104
 5477TIP3   OH216373   1.591   3.202   4.889
 5477TIP3    H116374   1.612   3.286   4.930
 5477TIP3    H216375   1.673   3.174   4.848
 5478TIP3   OH216376   4.713   3.528   1.158
 5478TIP3    H116377   4.652   3.472   1.110
 5478TIP3    H216378   4.783   3.547   1.095
 5479TIP3   OH216379   7.762   7.504   2.401
 5479TIP3    H116380   7.799   7.472   2.319
 5479TIP3    H216381   7.694   7.440   2.423
 5480TIP3   OH216382   3.000   0.373   5.073
 5480TIP3    H116383   3.047   0.430   5.133
 5480TIP3    H216384   2.940   0.323   5.129
 5481TIP3   OH216385   5.630   3.046   3.651
 5481TIP3    H116386   5.586   2.983   3.595
 5481TIP3    H216387   5.721   3.016   3.655
 5482TIP3   OH216388   3.133   0.416   1.770
 5482TIP3    H116389   3.206   0.448   1.716
 5482TIP3    H216390   3.158   0.439   1.860
 5483TIP3   OH216391   6.156   5.237   6.417
 5483TIP3    H116392   6.206   5.316   6.397
 5483TIP3    H216393   6.066   5.267   6.428
 5484TIP3   OH216394   0.128   1.114   3.989
 5484TIP3    H116395   0.057   1.052   4.006
 5484TIP3    H216396   0.100   1.195   4.032
 5485TIP3   OH216397   7.187   5.222   5.615
 5485TIP3    H116398   7.276   5.256   5.626
 5485TIP3    H216399   7.158   5.201   5.704
 5486TIP3   OH216400   4.689   7.270   3.083
 5486TIP3    H116401   4.668   7.353   3.041
 5486TIP3    H216402   4.785   7.267   3.083
 5487TIP3   OH216403   8.161   6.737   0.400
 5487TIP3    H116404   8.116   6.731   0.484
 5487TIP3    H216405   8.163   6.831   0.381
 5488TIP3   OH216406   7.678   0.808   4.116
 5488TIP3    H116407   7.630   0.828   4.036
 5488TIP3    H216408   7.648   0.874   4.179
 5489TIP3   OH216409   4.933   0.963   2.055
 5489TIP3    H116410   4.998   0.925   2.115
 5489TIP3    H216411   4.955   0.927   1.970
 5490TIP3   OH216412   6.908   6.332   4.836
 5490TIP3    H116413   6.892   6.262   4.900
 5490TIP3    H216414   6.972   6.389   4.879
 5491TIP3   OH216415   1.363   4.752   1.246
 5491TIP3    H116416   1.385   4.751   1.153
 5491TIP3    H216417   1.272   4.721   1.250
 5492TIP3   OH216418   2.933   6.040   0.856
 5492TIP3    H116419   2.859   6.075   0.806
 5492TIP3    H216420   2.976   5.980   0.796
 5493TIP3   OH216421   4.984   3.638   1.647
 5493TIP3    H116422   4.969   3.644   1.553
 5493TIP3    H216423   4.950   3.551   1.670
 5494TIP3   OH216424   7.353   4.146   0.414
 5494TIP3    H116425   7.445   4.166   0.398
 5494TIP3    H216426   7.311   4.157   0.329
 5495TIP3   OH216427   5.351   2.280   6.653
 5495TIP3    H116428   5.377   2.323   6.572
 5495TIP3    H216429   5.255   2.284   6.652
 5496TIP3   OH216430   7.329   3.060   0.793
 5496TIP3    H116431   7.267   2.987   0.803
 5496TIP3    H216432   7.363   3.074   0.882
 5497TIP3   OH216433   6.646   4.147   4.972
 5497TIP3    H116434   6.699   4.224   4.949
 5497TIP3    H216435   6.655   4.090   4.896
 5498TIP3   OH216436   0.768   3.935   6.057
 5498TIP3    H116437   0.739   3.930   6.148
 5498TIP3    H216438   0.738   4.021   6.027
 5499TIP3   OH216439   4.842   2.311   0.765
 5499TIP3    H116440   4.828   2.221   0.794
 5499TIP3    H216441   4.771   2.328   0.703
 5500TIP3   OH216442   6.450   4.963   6.276
 5500TIP3    H116443   6.368   4.948   6.324
 5500TIP3    H216444   6.515   4.912   6.323
 5501TIP3   OH216445   6.455   3.994   0.159
 5501TIP3    H116446   6.495   4.074   0.192
 5501TIP3    H216447   6.423   4.016   0.072
 5502TIP3   OH216448   5.511   2.154   0.357
 5502TIP3    H116449   5.569   2.137   0.283
 5502TIP3    H216450   5.562   2.211   0.415
 5503TIP3   OH216451   4.136   0.910   0.916
 5503TIP3    H116452   4.094   0.963   0.849
 5503TIP3    H216453   4.215   0.876   0.874
 5504TIP3   OH216454   1.788   6.770   1.882
 5504TIP3    H116455   1.772   6.781   1.788
 5504TIP3    H216456   1.756   6.683   1.902
 5505TIP3   OH216457   6.724   5.495   0.971
 5505TIP3    H116458   6.686   5.581   0.988
 5505TIP3    H216459   6.819   5.511   0.967
 5506TIP3   OH216460   1.215   3.733   0.665
 5506TIP3    H116461   1.173   3.819   0.667
 5506TIP3    H216462   1.145   3.671   0.687
 5507TIP3   OH216463   2.452   0.556   4.097
 5507TIP3    H116464   2.468   0.513   4.181
 5507TIP3    H216465   2.357   0.560   4.089
 5508TIP3   OH216466   7.291   0.942   6.126
 5508TIP3    H116467   7.235   0.877   6.085
 5508TIP3    H216468   7.231   1.012   6.151
 5509TIP3   OH216469   1.422   2.117   0.189
 5509TIP3    H116470   1.356   2.072   0.137
 5509TIP3    H216471   1.426   2.067   0.271
 5510TIP3   OH216472   5.464   2.671   6.059
 5510TIP3    H116473   5.508   2.616   5.994
 5510TIP3    H216474   5.519   2.749   6.066
 5511TIP3   OH216475   1.857   1.756   2.213
 5511TIP3    H116476   1.838   1.710   2.131
 5511TIP3    H216477   1.862   1.848   2.188
 5512TIP3   OH216478   4.824   7.340   5.190
 5512TIP3    H116479   4.840   7.427   5.153
 5512TIP3    H216480   4.898   7.287   5.159
 5513TIP3   OH216481   0.883   1.987   4.940
 5513TIP3    H116482   0.828   2.058   4.908
 5513TIP3    H216483   0.962   2.030   4.973
 5514TIP3   OH216484   0.588   4.253   4.696
 5514TIP3    H116485   0.592   4.296   4.782
 5514TIP3    H216486   0.516   4.298   4.651
 5515TIP3   OH216487   4.991   0.502   4.211
 5515TIP3    H116488   4.955   0.472   4.128
 5515TIP3    H216489   5.048   0.576   4.188
 5516TIP3   OH216490   2.340   4.211   1.005
 5516TIP3    H116491   2.311   4.301   1.016
 5516TIP3    H216492   2.259   4.161   0.990
 5517TIP3   OH216493   0.796   1.273   6.242
 5517TIP3    H116494   0.876   1.303   6.286
 5517TIP3    H216495   0.744   1.233   6.312
 5518TIP3   OH216496   0.982   3.870   6.481
 5518TIP3    H116497   1.040   3.942   6.458
 5518TIP3    H216498   1.014   3.796   6.430
 5519TIP3   OH216499   0.021   6.110   4.790
 5519TIP3    H116500   0.115   6.098   4.805
 5519TIP3    H216501   0.001   6.052   4.716
 5520TIP3   OH216502   1.444   7.294   6.046
 5520TIP3    H116503   1.431   7.342   6.128
 5520TIP3    H216504   1.463   7.363   5.982
 5521TIP3   OH216505   5.862   1.201   4.291
 5521TIP3    H116506   5.809   1.174   4.366
 5521TIP3    H216507   5.928   1.260   4.328
 5522TIP3   OH216508   8.256   4.216   6.171
 5522TIP3    H116509   8.206   4.248   6.246
 5522TIP3    H216510   8.225   4.269   6.097
 5523TIP3   OH216511   1.252   5.851   3.758
 5523TIP3    H116512   1.250   5.908   3.835
 5523TIP3    H216513   1.331   5.878   3.710
 5524TIP3   OH216514   3.944   5.122   4.022
 5524TIP3    H116515   3.973   5.200   3.975
 5524TIP3    H216516   3.908   5.065   3.953
 5525TIP3   OH216517   0.215   5.353   6.352
 5525TIP3    H116518   0.169   5.368   6.434
 5525TIP3    H216519   0.147   5.353   6.285
 5526TIP3   OH216520   3.074   3.282   0.910
 5526TIP3    H116521   3.040   3.371   0.918
 5526TIP3    H216522   3.168   3.293   0.901
 5527TIP3   OH216523   4.688   0.963   2.913
 5527TIP3    H116524   4.646   1.045   2.938
 5527TIP3    H216525   4.746   0.942   2.986
 5528TIP3   OH216526   6.346   2.649   2.860
 5528TIP3    H116527   6.270   2.703   2.843
 5528TIP3    H216528   6.327   2.605   2.943
 5529TIP3   OH216529   1.251   0.924   4.789
 5529TIP3    H116530   1.252   0.874   4.707
 5529TIP3    H216531   1.343   0.944   4.805
 5530TIP3   OH216532   5.726   3.623   1.499
 5530TIP3    H116533   5.712   3.691   1.433
 5530TIP3    H216534   5.638   3.598   1.528
 5531TIP3   OH216535   4.226   4.674   6.120
 5531TIP3    H116536   4.237   4.769   6.115
 5531TIP3    H216537   4.270   4.640   6.042
 5532TIP3   OH216538   7.072   7.699   5.542
 5532TIP3    H116539   7.074   7.767   5.609
 5532TIP3    H216540   6.979   7.682   5.528
 5533TIP3   OH216541   3.861   0.560   4.126
 5533TIP3    H116542   3.935   0.613   4.099
 5533TIP3    H216543   3.801   0.561   4.051
 5534TIP3   OH216544   7.902   3.310   6.531
 5534TIP3    H116545   7.875   3.397   6.503
 5534TIP3    H216546   7.995   3.319   6.551
 5535TIP3   OH216547   0.404   5.061   5.757
 5535TIP3    H116548   0.367   5.091   5.840
 5535TIP3    H216549   0.335   5.075   5.693
 5536TIP3   OH216550   7.050   2.054   0.464
 5536TIP3    H116551   6.992   2.121   0.501
 5536TIP3    H216552   7.123   2.048   0.525
 5537TIP3   OH216553   2.316   0.934   3.797
 5537TIP3    H116554   2.314   1.028   3.777
 5537TIP3    H216555   2.350   0.893   3.718
 5538TIP3   OH216556   5.852   7.112   2.282
 5538TIP3    H116557   5.775   7.073   2.323
 5538TIP3    H216558   5.926   7.069   2.325
 5539TIP3   OH216559   5.574   0.319   3.197
 5539TIP3    H116560   5.640   0.360   3.252
 5539TIP3    H216561   5.542   0.390   3.141
 5540TIP3   OH216562   2.608   0.454   2.977
 5540TIP3    H116563   2.521   0.449   3.017
 5540TIP3    H216564   2.667   0.470   3.050
 5541TIP3   OH216565   1.597   1.842   0.710
 5541TIP3    H116566   1.680   1.814   0.672
 5541TIP3    H216567   1.619   1.920   0.760
 5542TIP3   OH216568   0.757   6.293   0.102
 5542TIP3    H116569   0.839   6.341   0.089
 5542TIP3    H216570   0.688   6.360   0.095
 5543TIP3   OH216571   1.344   0.236   5.621
 5543TIP3    H116572   1.318   0.322   5.586
 5543TIP3    H216573   1.434   0.249   5.652
 5544TIP3   OH216574   7.186   5.105   1.362
 5544TIP3    H116575   7.166   5.196   1.338
 5544TIP3    H216576   7.167   5.100   1.455
 5545TIP3   OH216577   2.962   3.834   5.735
 5545TIP3    H116578   2.981   3.919   5.696
 5545TIP3    H216579   2.999   3.839   5.823
 5546TIP3   OH216580   2.336   0.798   5.005
 5546TIP3    H116581   2.408   0.860   4.991
 5546TIP3    H216582   2.376   0.726   5.053
 5547TIP3   OH216583   1.765   4.042   6.459
 5547TIP3    H116584   1.810   4.118   6.422
 5547TIP3    H216585   1.833   3.978   6.474
 5548TIP3   OH216586   4.318   6.747   1.315
 5548TIP3    H116587   4.412   6.749   1.296
 5548TIP3    H216588   4.278   6.795   1.242
 5549TIP3   OH216589   6.299   5.272   3.602
 5549TIP3    H116590   6.258   5.186   3.594
 5549TIP3    H216591   6.382   5.256   3.646
 5550TIP3   OH216592   8.277   7.314   3.122
 5550TIP3    H116593   8.329   7.234   3.118
 5550TIP3    H216594   8.196   7.288   3.166
 5551TIP3   OH216595   7.273   3.578   2.287
 5551TIP3    H116596   7.263   3.596   2.381
 5551TIP3    H216597   7.286   3.664   2.247
 5552TIP3   OH216598   3.944   0.558   4.757
 5552TIP3    H116599   3.875   0.578   4.694
 5552TIP3    H216600   3.951   0.463   4.756
 5553TIP3   OH216601   0.219   1.219   5.365
 5553TIP3    H116602   0.256   1.306   5.380
 5553TIP3    H216603   0.252   1.166   5.437
 5554TIP3   OH216604   3.741   5.810   0.329
 5554TIP3    H116605   3.809   5.854   0.380
 5554TIP3    H216606   3.778   5.803   0.241
 5555TIP3   OH216607   7.314   2.624   4.371
 5555TIP3    H116608   7.333   2.645   4.280
 5555TIP3    H216609   7.355   2.695   4.421
 5556TIP3   OH216610   6.751   2.186   1.996
 5556TIP3    H116611   6.757   2.093   1.974
 5556TIP3    H216612   6.657   2.203   2.006
 5557TIP3   OH216613   3.381   6.850   3.267
 5557TIP3    H116614   3.453   6.814   3.318
 5557TIP3    H216615   3.391   6.810   3.180
 5558TIP3   OH216616   4.285   7.107   2.421
 5558TIP3    H116617   4.330   7.155   2.351
 5558TIP3    H216618   4.334   7.130   2.500
 5559TIP3   OH216619   5.197   5.068   2.741
 5559TIP3    H116620   5.159   4.981   2.729
 5559TIP3    H216621   5.265   5.056   2.807
 5560TIP3   OH216622   0.090   0.196   2.090
 5560TIP3    H116623   0.070   0.220   2.180
 5560TIP3    H216624   0.059   0.271   2.038
 5561TIP3   OH216625   4.396   7.535   5.712
 5561TIP3    H116626   4.445   7.615   5.732
 5561TIP3    H216627   4.462   7.476   5.676
 5562TIP3   OH216628   6.425   4.259   3.310
 5562TIP3    H116629   6.486   4.199   3.354
 5562TIP3    H216630   6.481   4.330   3.277
 5563TIP3   OH216631   1.352   3.817   1.873
 5563TIP3    H116632   1.399   3.756   1.930
 5563TIP3    H216633   1.393   3.902   1.890
 5564TIP3   OH216634   1.861   2.420   2.356
 5564TIP3    H116635   1.859   2.353   2.424
 5564TIP3    H216636   1.928   2.390   2.294
 5565TIP3   OH216637   5.771   1.340   1.630
 5565TIP3    H116638   5.728   1.262   1.666
 5565TIP3    H216639   5.728   1.355   1.546
 5566TIP3   OH216640   6.653   5.949   1.758
 5566TIP3    H116641   6.741   5.909   1.754
 5566TIP3    H216642   6.638   5.965   1.851
 5567TIP3   OH216643   3.739   6.685   0.098
 5567TIP3    H116644   3.703   6.695   0.010
 5567TIP3    H216645   3.753   6.775   0.129
 5568TIP3   OH216646   7.553   4.754   5.331
 5568TIP3    H116647   7.637   4.800   5.335
 5568TIP3    H216648   7.551   4.700   5.410
 5569TIP3   OH216649   4.473   5.265   0.686
 5569TIP3    H116650   4.506   5.213   0.613
 5569TIP3    H216651   4.387   5.295   0.656
 5570TIP3   OH216652   5.733   4.497   2.680
 5570TIP3    H116653   5.810   4.456   2.641
 5570TIP3    H216654   5.659   4.447   2.645
 5571TIP3   OH216655   3.163   0.791   2.835
 5571TIP3    H116656   3.209   0.834   2.763
 5571TIP3    H216657   3.195   0.837   2.913
 5572TIP3   OH216658   5.140   0.795   1.347
 5572TIP3    H116659   5.158   0.701   1.346
 5572TIP3    H216660   5.181   0.827   1.427
 5573TIP3   OH216661   3.312   0.866   1.272
 5573TIP3    H116662   3.383   0.835   1.329
 5573TIP3    H216663   3.234   0.863   1.328
 5574TIP3   OH216664   5.128   1.262   2.130
 5574TIP3    H116665   5.079   1.180   2.133
 5574TIP3    H216666   5.219   1.234   2.115
 5575TIP3   OH216667   0.605   6.688   4.203
 5575TIP3    H116668   0.512   6.711   4.197
 5575TIP3    H216669   0.612   6.602   4.160
 5576TIP3   OH216670   5.355   5.834   5.319
 5576TIP3    H116671   5.328   5.897   5.385
 5576TIP3    H216672   5.290   5.843   5.249
 5577TIP3   OH216673   6.866   4.844   0.860
 5577TIP3    H116674   6.771   4.851   0.870
 5577TIP3    H216675   6.879   4.767   0.804
 5578TIP3   OH216676   2.689   6.930   6.240
 5578TIP3    H116677   2.747   6.924   6.316
 5578TIP3    H216678   2.601   6.919   6.276
 5579TIP3   OH216679   4.172   4.384   2.428
 5579TIP3    H116680   4.219   4.465   2.447
 5579TIP3    H216681   4.174   4.376   2.333
 5580TIP3   OH216682   1.595   1.605   3.269
 5580TIP3    H116683   1.651   1.594   3.346
 5580TIP3    H216684   1.551   1.689   3.283
 5581TIP3   OH216685   3.958   6.947   2.936
 5581TIP3    H116686   4.030   6.925   2.995
 5581TIP3    H216687   3.917   7.023   2.977
 5582TIP3   OH216688   4.311   0.899   6.285
 5582TIP3    H116689   4.381   0.962   6.303
 5582TIP3    H216690   4.329   0.870   6.195
 5583TIP3   OH216691   1.626   0.751   5.986
 5583TIP3    H116692   1.693   0.782   6.047
 5583TIP3    H216693   1.557   0.717   6.043
 5584TIP3   OH216694   1.642   2.751   1.831
 5584TIP3    H116695   1.591   2.801   1.767
 5584TIP3    H216696   1.577   2.706   1.885
 5585TIP3   OH216697   4.070   5.364   3.027
 5585TIP3    H116698   4.015   5.427   3.075
 5585TIP3    H216699   4.037   5.278   3.053
 5586TIP3   OH216700   4.623   6.792   4.742
 5586TIP3    H116701   4.683   6.866   4.730
 5586TIP3    H216702   4.537   6.833   4.755
 5587TIP3   OH216703   6.406   5.866   3.866
 5587TIP3    H116704   6.331   5.826   3.910
 5587TIP3    H216705   6.404   5.957   3.895
 5588TIP3   OH216706   1.095   1.256   5.887
 5588TIP3    H116707   1.083   1.161   5.879
 5588TIP3    H216708   1.185   1.271   5.859
 5589TIP3   OH216709   6.383   2.761   5.364
 5589TIP3    H116710   6.381   2.848   5.325
 5589TIP3    H216711   6.294   2.728   5.354
 5590TIP3   OH216712   5.957   4.496   3.493
 5590TIP3    H116713   5.871   4.471   3.460
 5590TIP3    H216714   6.018   4.443   3.443
 5591TIP3   OH216715   4.142   3.300   1.900
 5591TIP3    H116716   4.164   3.392   1.883
 5591TIP3    H216717   4.047   3.300   1.910
 5592TIP3   OH216718   1.027   5.668   1.928
 5592TIP3    H116719   1.020   5.639   1.837
 5592TIP3    H216720   0.941   5.649   1.965
 5593TIP3   OH216721   7.754   3.340   6.011
 5593TIP3    H116722   7.719   3.296   5.933
 5593TIP3    H216723   7.683   3.335   6.075
 5594TIP3   OH216724   7.888   2.869   2.872
 5594TIP3    H116725   7.900   2.866   2.777
 5594TIP3    H216726   7.901   2.961   2.894
 5595TIP3   OH216727   8.112   3.611   4.323
 5595TIP3    H116728   8.169   3.663   4.266
 5595TIP3    H216729   8.060   3.557   4.262
 5596TIP3   OH216730   5.663   1.414   4.181
 5596TIP3    H116731   5.600   1.348   4.152
 5596TIP3    H216732   5.644   1.426   4.274
 5597TIP3   OH216733   3.997   0.008   6.135
 5597TIP3    H116734   4.010   0.033   6.226
 5597TIP3    H216735   3.969   0.088   6.091
 5598TIP3   OH216736   2.354   4.001   3.018
 5598TIP3    H116737   2.384   3.967   3.103
 5598TIP3    H216738   2.338   3.924   2.965
 5599TIP3   OH216739   3.740   6.368   5.420
 5599TIP3    H116740   3.708   6.452   5.455
 5599TIP3    H216741   3.828   6.388   5.387
 5600TIP3   OH216742   3.685   5.104   5.079
 5600TIP3    H116743   3.714   5.031   5.133
 5600TIP3    H216744   3.716   5.082   4.991
 5601TIP3   OH216745   2.232   5.706   4.498
 5601TIP3    H116746   2.191   5.620   4.488
 5601TIP3    H216747   2.181   5.750   4.565
 5602TIP3   OH216748   0.463   2.091   1.149
 5602TIP3    H116749   0.553   2.061   1.138
 5602TIP3    H216750   0.452   2.099   1.244
 5603TIP3   OH216751   7.841   6.859   3.873
 5603TIP3    H116752   7.935   6.861   3.856
 5603TIP3    H216753   7.829   6.785   3.933
 5604TIP3   OH216754   4.482   7.116   1.662
 5604TIP3    H116755   4.463   7.026   1.636
 5604TIP3    H216756   4.487   7.165   1.580
 5605TIP3   OH216757   6.325   2.109   1.682
 5605TIP3    H116758   6.403   2.155   1.713
 5605TIP3    H216759   6.283   2.077   1.763
 5606TIP3   OH216760   4.216   2.949   2.899
 5606TIP3    H116761   4.300   2.993   2.885
 5606TIP3    H216762   4.153   3.003   2.852
 5607TIP3   OH216763   2.710   4.606   1.075
 5607TIP3    H116764   2.684   4.589   0.985
 5607TIP3    H216765   2.724   4.701   1.079
 5608TIP3   OH216766   2.883   1.932   1.203
 5608TIP3    H116767   2.937   1.887   1.268
 5608TIP3    H216768   2.798   1.942   1.245
 5609TIP3   OH216769   7.112   7.204   4.068
 5609TIP3    H116770   7.167   7.149   4.012
 5609TIP3    H216771   7.028   7.207   4.023
 5610TIP3   OH216772   4.026   5.286   1.051
 5610TIP3    H116773   4.052   5.344   0.979
 5610TIP3    H216774   3.932   5.302   1.061
 5611TIP3   OH216775   7.274   0.555   1.895
 5611TIP3    H116776   7.341   0.599   1.843
 5611TIP3    H216777   7.311   0.552   1.983
 5612TIP3   OH216778   2.300   2.790   0.115
 5612TIP3    H116779   2.253   2.716   0.155
 5612TIP3    H216780   2.333   2.756   0.032
 5613TIP3   OH216781   4.431   3.138   0.373
 5613TIP3    H116782   4.345   3.158   0.410
 5613TIP3    H216783   4.453   3.052   0.408
 5614TIP3   OH216784   7.313   0.450   2.363
 5614TIP3    H116785   7.359   0.469   2.282
 5614TIP3    H216786   7.312   0.533   2.411
 5615TIP3   OH216787   2.664   2.280   2.640
 5615TIP3    H116788   2.644   2.288   2.733
 5615TIP3    H216789   2.679   2.370   2.611
 5616TIP3   OH216790   3.235   6.714   5.522
 5616TIP3    H116791   3.198   6.654   5.586
 5616TIP3    H216792   3.223   6.670   5.437
 5617TIP3   OH216793   1.818   3.153   4.758
 5617TIP3    H116794   1.891   3.211   4.735
 5617TIP3    H216795   1.804   3.100   4.680
 5618TIP3   OH216796   6.607   7.264   0.863
 5618TIP3    H116797   6.623   7.182   0.909
 5618TIP3    H216798   6.694   7.304   0.856
 5619TIP3   OH216799   0.287   0.100   3.750
 5619TIP3    H116800   0.229   0.025   3.765
 5619TIP3    H216801   0.229   0.172   3.727
 5620TIP3   OH216802   3.949   6.228   3.040
 5620TIP3    H116803   4.001   6.262   3.113
 5620TIP3    H216804   3.991   6.263   2.962
 5621TIP3   OH216805   8.071   2.265   3.706
 5621TIP3    H116806   8.045   2.324   3.636
 5621TIP3    H216807   8.011   2.285   3.778
 5622TIP3   OH216808   7.996   1.598   0.907
 5622TIP3    H116809   7.987   1.684   0.867
 5622TIP3    H216810   8.090   1.589   0.922
 5623TIP3   OH216811   0.117   4.265   5.650
 5623TIP3    H116812   0.134   4.276   5.743
 5623TIP3    H216813   0.174   4.328   5.607
 5624TIP3   OH216814   4.835   4.731   1.834
 5624TIP3    H116815   4.764   4.724   1.770
 5624TIP3    H216816   4.809   4.673   1.905
 5625TIP3   OH216817   4.880   0.201   1.743
 5625TIP3    H116818   4.914   0.119   1.777
 5625TIP3    H216819   4.814   0.228   1.807
 5626TIP3   OH216820   4.479   2.373   3.377
 5626TIP3    H116821   4.569   2.340   3.383
 5626TIP3    H216822   4.448   2.374   3.467
 5627TIP3   OH216823   4.151   3.684   0.674
 5627TIP3    H116824   4.135   3.759   0.617
 5627TIP3    H216825   4.090   3.617   0.642
 5628TIP3   OH216826   6.071   2.826   1.717
 5628TIP3    H116827   6.124   2.784   1.649
 5628TIP3    H216828   6.061   2.916   1.688
 5629TIP3   OH216829   7.323   5.502   3.770
 5629TIP3    H116830   7.352   5.430   3.714
 5629TIP3    H216831   7.234   5.480   3.795
 5630TIP3   OH216832   7.882   6.024   3.042
 5630TIP3    H116833   7.816   5.954   3.040
 5630TIP3    H216834   7.942   5.998   3.112
 5631TIP3   OH216835   0.787   4.211   2.965
 5631TIP3    H116836   0.760   4.279   3.027
 5631TIP3    H216837   0.705   4.170   2.937
 5632TIP3   OH216838   8.238   5.243   2.971
 5632TIP3    H116839   8.146   5.243   2.945
 5632TIP3    H216840   8.275   5.164   2.931
 5633TIP3   OH216841   5.215   2.443   5.391
 5633TIP3    H116842   5.239   2.352   5.373
 5633TIP3    H216843   5.298   2.486   5.412
 5634TIP3   OH216844   2.448   3.702   0.263
 5634TIP3    H116845   2.440   3.793   0.233
 5634TIP3    H216846   2.480   3.655   0.186
 5635TIP3   OH216847   6.376   2.887   2.383
 5635TIP3    H116848   6.325   2.961   2.417
 5635TIP3    H216849   6.313   2.816   2.376
 5636TIP3   OH216850   2.121   1.372   5.520
 5636TIP3    H116851   2.043   1.341   5.567
 5636TIP3    H216852   2.086   1.416   5.443
 5637TIP3   OH216853   4.051   7.479   4.695
 5637TIP3    H116854   4.013   7.429   4.623
 5637TIP3    H216855   4.132   7.432   4.716
 5638TIP3   OH216856   6.660   4.844   6.390
 5638TIP3    H116857   6.721   4.775   6.366
 5638TIP3    H216858   6.705   4.925   6.367
 5639TIP3   OH216859   8.102   3.632   1.598
 5639TIP3    H116860   8.054   3.694   1.652
 5639TIP3    H216861   8.038   3.599   1.535
 5640TIP3   OH216862   2.580   5.496   0.281
 5640TIP3    H116863   2.578   5.409   0.241
 5640TIP3    H216864   2.671   5.525   0.272
 5641TIP3   OH216865   1.922   3.472   6.534
 5641TIP3    H116866   1.982   3.413   6.488
 5641TIP3    H216867   1.979   3.532   6.582
 5642TIP3   OH216868   2.644   0.000   6.438
 5642TIP3    H116869   2.703  -0.047   6.379
 5642TIP3    H216870   2.697   0.069   6.476
 5643TIP3   OH216871   4.208   6.240   2.629
 5643TIP3    H116872   4.296   6.268   2.604
 5643TIP3    H216873   4.151   6.278   2.562
 5644TIP3   OH216874   6.242   4.706   6.279
 5644TIP3    H116875   6.247   4.797   6.306
 5644TIP3    H216876   6.215   4.659   6.357
 5645TIP3   OH216877   0.778   1.394   4.745
 5645TIP3    H116878   0.831   1.462   4.703
 5645TIP3    H216879   0.795   1.404   4.839
 5646TIP3   OH216880   4.976   2.550   4.717
 5646TIP3    H116881   5.070   2.565   4.726
 5646TIP3    H216882   4.940   2.566   4.805
 5647TIP3   OH216883   1.509   6.750   2.426
 5647TIP3    H116884   1.470   6.665   2.407
 5647TIP3    H216885   1.478   6.771   2.515
 5648TIP3   OH216886   7.417   3.728   6.300
 5648TIP3    H116887   7.379   3.646   6.269
 5648TIP3    H216888   7.394   3.793   6.233
 5649TIP3   OH216889   4.699   7.717   1.307
 5649TIP3    H116890   4.608   7.730   1.279
 5649TIP3    H216891   4.715   7.624   1.291
 5650TIP3   OH216892   3.112   0.508   5.274
 5650TIP3    H116893   3.137   0.595   5.305
 5650TIP3    H216894   3.190   0.454   5.291
 5651TIP3   OH216895   1.707   6.190   5.047
 5651TIP3    H116896   1.786   6.174   5.098
 5651TIP3    H216897   1.646   6.122   5.075
 5652TIP3   OH216898   3.078   6.834   4.202
 5652TIP3    H116899   3.140   6.797   4.139
 5652TIP3    H216900   3.130   6.896   4.254
 5653TIP3   OH216901   3.403   1.737   3.145
 5653TIP3    H116902   3.469   1.775   3.086
 5653TIP3    H216903   3.409   1.790   3.224
 5654TIP3   OH216904   7.207   1.643   6.768
 5654TIP3    H116905   7.164   1.568   6.726
 5654TIP3    H216906   7.276   1.668   6.706
 5655TIP3   OH216907   0.480   1.556   2.361
 5655TIP3    H116908   0.520   1.640   2.385
 5655TIP3    H216909   0.500   1.546   2.268
 5656TIP3   OH216910   6.329   3.842   3.005
 5656TIP3    H116911   6.370   3.832   3.092
 5656TIP3    H216912   6.248   3.890   3.022
 5657TIP3   OH216913   4.211   6.181   5.810
 5657TIP3    H116914   4.125   6.150   5.782
 5657TIP3    H216915   4.209   6.276   5.795
 5658TIP3   OH216916   0.560   0.468   0.917
 5658TIP3    H116917   0.545   0.558   0.887
 5658TIP3    H216918   0.511   0.414   0.855
 5659TIP3   OH216919   1.626   2.596   4.098
 5659TIP3    H116920   1.594   2.618   4.010
 5659TIP3    H216921   1.706   2.646   4.107
 5660TIP3   OH216922   7.985   6.171   5.149
 5660TIP3    H116923   7.940   6.088   5.130
 5660TIP3    H216924   8.068   6.164   5.102
 5661TIP3   OH216925   5.668   5.236   4.704
 5661TIP3    H116926   5.678   5.141   4.708
 5661TIP3    H216927   5.752   5.268   4.671
 5662TIP3   OH216928   3.322   0.985   6.539
 5662TIP3    H116929   3.311   1.020   6.628
 5662TIP3    H216930   3.396   0.925   6.546
 5663TIP3   OH216931   6.407   1.000   0.889
 5663TIP3    H116932   6.400   0.911   0.924
 5663TIP3    H216933   6.355   1.053   0.949
 5664TIP3   OH216934   1.982   4.448   5.058
 5664TIP3    H116935   1.954   4.455   4.967
 5664TIP3    H216936   1.910   4.485   5.109
 5665TIP3   OH216937   6.869   0.321   3.300
 5665TIP3    H116938   6.892   0.247   3.356
 5665TIP3    H216939   6.858   0.282   3.213
 5666TIP3   OH216940   4.390   0.594   1.116
 5666TIP3    H116941   4.343   0.545   1.048
 5666TIP3    H216942   4.365   0.552   1.198
 5667TIP3   OH216943   1.177   4.980   3.954
 5667TIP3    H116944   1.159   4.957   4.046
 5667TIP3    H216945   1.271   4.964   3.944
 5668TIP3   OH216946   6.629   5.385   1.375
 5668TIP3    H116947   6.620   5.300   1.418
 5668TIP3    H216948   6.568   5.442   1.422
 5669TIP3   OH216949   7.884   1.683   0.663
 5669TIP3    H116950   7.825   1.611   0.684
 5669TIP3    H216951   7.862   1.751   0.726
 5670TIP3   OH216952   5.996   4.954   2.109
 5670TIP3    H116953   5.922   4.962   2.170
 5670TIP3    H216954   5.956   4.945   2.023
 5671TIP3   OH216955   2.719   6.164   5.060
 5671TIP3    H116956   2.673   6.230   5.112
 5671TIP3    H216957   2.667   6.084   5.070
 5672TIP3   OH216958   6.358   5.264   5.396
 5672TIP3    H116959   6.304   5.228   5.326
 5672TIP3    H216960   6.374   5.190   5.454
 5673TIP3   OH216961   6.573   6.665   2.942
 5673TIP3    H116962   6.553   6.576   2.974
 5673TIP3    H216963   6.509   6.680   2.873
 5674TIP3   OH216964   3.091   2.939   3.740
 5674TIP3    H116965   3.111   2.939   3.646
 5674TIP3    H216966   3.112   3.028   3.768
 5675TIP3   OH216967   4.483   6.310   0.589
 5675TIP3    H116968   4.490   6.381   0.653
 5675TIP3    H216969   4.538   6.240   0.624
 5676TIP3   OH216970   7.759   5.030   3.912
 5676TIP3    H116971   7.737   5.077   3.831
 5676TIP3    H216972   7.679   5.034   3.965
 5677TIP3   OH216973   2.643   1.195   3.920
 5677TIP3    H116974   2.716   1.147   3.959
 5677TIP3    H216975   2.577   1.200   3.989
 5678TIP3   OH216976   4.785   1.191   2.693
 5678TIP3    H116977   4.694   1.166   2.673
 5678TIP3    H216978   4.776   1.268   2.749
 5679TIP3   OH216979   6.056   0.141   6.329
 5679TIP3    H116980   6.116   0.068   6.314
 5679TIP3    H216981   6.072   0.167   6.420
 5680TIP3   OH216982   2.689   4.150   5.795
 5680TIP3    H116983   2.756   4.219   5.796
 5680TIP3    H216984   2.707   4.098   5.873
 5681TIP3   OH216985   5.325   5.099   4.831
 5681TIP3    H116986   5.331   5.012   4.793
 5681TIP3    H216987   5.230   5.115   4.839
 5682TIP3   OH216988   0.786   2.131   1.089
 5682TIP3    H116989   0.839   2.163   1.016
 5682TIP3    H216990   0.799   2.036   1.089
 5683TIP3   OH216991   0.136   4.902   5.130
 5683TIP3    H116992   0.162   4.990   5.158
 5683TIP3    H216993   0.137   4.906   5.034
 5684TIP3   OH216994   2.630   2.378   5.632
 5684TIP3    H116995   2.607   2.461   5.591
 5684TIP3    H216996   2.708   2.398   5.684
 5685TIP3   OH216997   6.900   0.056   3.381
 5685TIP3    H116998   6.822   0.002   3.369
 5685TIP3    H216999   6.971   0.004   3.343
 5686TIP3   OH217000   7.210   3.751   5.819
 5686TIP3    H117001   7.196   3.818   5.752
 5686TIP3    H217002   7.233   3.673   5.770
 5687TIP3   OH217003   4.352   3.044   5.746
 5687TIP3    H117004   4.270   3.034   5.795
 5687TIP3    H217005   4.367   3.139   5.745
 5688TIP3   OH217006   7.720   7.172   0.227
 5688TIP3    H117007   7.806   7.215   0.224
 5688TIP3    H217008   7.705   7.156   0.321
 5689TIP3   OH217009   1.532   0.318   0.292
 5689TIP3    H117010   1.514   0.379   0.364
 5689TIP3    H217011   1.447   0.303   0.252
 5690TIP3   OH217012   0.869   3.257   3.110
 5690TIP3    H117013   0.847   3.349   3.127
 5690TIP3    H217014   0.954   3.260   3.066
 5691TIP3   OH217015   2.132   0.919   4.004
 5691TIP3    H117016   2.084   0.999   3.983
 5691TIP3    H217017   2.201   0.915   3.938
 5692TIP3   OH217018   4.130   3.573   4.173
 5692TIP3    H117019   4.156   3.589   4.263
 5692TIP3    H217020   4.049   3.623   4.162
 5693TIP3   OH217021   1.489   5.455   6.124
 5693TIP3    H117022   1.539   5.534   6.147
 5693TIP3    H217023   1.484   5.457   6.028
 5694TIP3   OH217024   3.997   1.234   0.699
 5694TIP3    H117025   3.928   1.202   0.757
 5694TIP3    H217026   4.047   1.156   0.676
 5695TIP3   OH217027   7.818   2.594   2.996
 5695TIP3    H117028   7.758   2.637   3.057
 5695TIP3    H217029   7.830   2.657   2.925
 5696TIP3   OH217030   1.871   3.293   3.939
 5696TIP3    H117031   1.814   3.241   3.995
 5696TIP3    H217032   1.958   3.254   3.949
 5697TIP3   OH217033   0.409   4.986   3.373
 5697TIP3    H117034   0.409   4.893   3.349
 5697TIP3    H217035   0.336   5.023   3.323
 5698TIP3   OH217036   4.850   3.280   6.309
 5698TIP3    H117037   4.784   3.233   6.359
 5698TIP3    H217038   4.932   3.235   6.328
 5699TIP3   OH217039   1.016   2.265   4.299
 5699TIP3    H117040   1.073   2.312   4.238
 5699TIP3    H217041   1.072   2.196   4.335
 5700TIP3   OH217042   3.417   1.633   4.146
 5700TIP3    H117043   3.368   1.563   4.103
 5700TIP3    H217044   3.351   1.700   4.165
 5701TIP3   OH217045   0.286   4.082   1.864
 5701TIP3    H117046   0.252   4.017   1.803
 5701TIP3    H217047   0.291   4.036   1.948
 5702TIP3   OH217048   6.421   4.357   1.625
 5702TIP3    H117049   6.373   4.283   1.662
 5702TIP3    H217050   6.513   4.333   1.636
 5703TIP3   OH217051   1.663   4.027   0.151
 5703TIP3    H117052   1.736   4.034   0.213
 5703TIP3    H217053   1.599   4.091   0.183
 5704TIP3   OH217054   6.989   4.623   0.435
 5704TIP3    H117055   6.968   4.710   0.466
 5704TIP3    H217056   7.033   4.581   0.509
 5705TIP3   OH217057   3.032   5.423   6.599
 5705TIP3    H117058   3.045   5.331   6.577
 5705TIP3    H217059   3.091   5.471   6.540
 5706TIP3   OH217060   3.453   1.913   6.689
 5706TIP3    H117061   3.545   1.894   6.710
 5706TIP3    H217062   3.455   1.937   6.596
 5707TIP3   OH217063   4.420   1.885   3.221
 5707TIP3    H117064   4.386   1.851   3.139
 5707TIP3    H217065   4.501   1.931   3.197
 5708TIP3   OH217066   3.957   5.121   5.269
 5708TIP3    H117067   3.934   5.031   5.247
 5708TIP3    H217068   3.880   5.173   5.245
 5709TIP3   OH217069   6.129   1.796   6.492
 5709TIP3    H117070   6.138   1.831   6.403
 5709TIP3    H217071   6.040   1.761   6.495
 5710TIP3   OH217072   2.674   6.888   6.712
 5710TIP3    H117073   2.603   6.939   6.750
 5710TIP3    H217074   2.663   6.800   6.749
 5711TIP3   OH217075   3.988   2.931   1.835
 5711TIP3    H117076   4.064   2.930   1.777
 5711TIP3    H217077   4.013   2.990   1.906
 5712TIP3   OH217078   3.768   1.450   1.089
 5712TIP3    H117079   3.807   1.363   1.072
 5712TIP3    H217080   3.789   1.500   1.010
 5713TIP3   OH217081   0.368   6.611   5.197
 5713TIP3    H117082   0.398   6.589   5.109
 5713TIP3    H217083   0.356   6.526   5.240
 5714TIP3   OH217084   7.166   5.943   6.050
 5714TIP3    H117085   7.221   5.939   5.971
 5714TIP3    H217086   7.224   5.976   6.118
 5715TIP3   OH217087   2.851   1.939   2.194
 5715TIP3    H117088   2.939   1.903   2.188
 5715TIP3    H217089   2.817   1.937   2.105
 5716TIP3   OH217090   4.254   0.227   6.782
 5716TIP3    H117091   4.183   0.176   6.821
 5716TIP3    H217092   4.210   0.298   6.736
 5717TIP3   OH217093   7.048   6.442   2.163
 5717TIP3    H117094   7.001   6.386   2.101
 5717TIP3    H217095   6.981   6.469   2.226
 5718TIP3   OH217096   7.129   4.130   4.854
 5718TIP3    H117097   7.161   4.097   4.771
 5718TIP3    H217098   7.034   4.131   4.845
 5719TIP3   OH217099   8.284   2.491   0.979
 5719TIP3    H117100   8.223   2.559   0.949
 5719TIP3    H217101   8.353   2.539   1.025
 5720TIP3   OH217102   6.692   3.222   2.673
 5720TIP3    H117103   6.702   3.165   2.597
 5720TIP3    H217104   6.713   3.310   2.641
 5721TIP3   OH217105   0.450   7.031   6.456
 5721TIP3    H117106   0.488   7.119   6.459
 5721TIP3    H217107   0.517   6.978   6.412
 5722TIP3   OH217108   4.545   6.175   1.047
 5722TIP3    H117109   4.466   6.197   0.998
 5722TIP3    H217110   4.583   6.260   1.072
 5723TIP3   OH217111   0.108   6.397   1.967
 5723TIP3    H117112   0.139   6.362   1.883
 5723TIP3    H217113   0.170   6.466   1.989
 5724TIP3   OH217114   4.258   0.023   0.370
 5724TIP3    H117115   4.303  -0.018   0.444
 5724TIP3    H217116   4.181   0.065   0.409
 5725TIP3   OH217117   7.434   0.286   4.434
 5725TIP3    H117118   7.388   0.207   4.406
 5725TIP3    H217119   7.366   0.351   4.447
 5726TIP3   OH217120   2.912   6.608   0.914
 5726TIP3    H117121   2.988   6.631   0.861
 5726TIP3    H217122   2.857   6.686   0.913
 5727TIP3   OH217123   8.064   1.582   1.177
 5727TIP3    H117124   7.996   1.545   1.233
 5727TIP3    H217125   8.030   1.573   1.088
 5728TIP3   OH217126   7.559   4.813   4.123
 5728TIP3    H117127   7.480   4.784   4.169
 5728TIP3    H217128   7.631   4.781   4.177
 5729TIP3   OH217129   1.825   3.019   2.133
 5729TIP3    H117130   1.758   3.087   2.140
 5729TIP3    H217131   1.779   2.937   2.150
 5730TIP3   OH217132   2.985   6.678   2.883
 5730TIP3    H117133   2.958   6.669   2.791
 5730TIP3    H217134   3.030   6.762   2.886
 5731TIP3   OH217135   7.937   1.096   6.024
 5731TIP3    H117136   8.024   1.117   6.057
 5731TIP3    H217137   7.950   1.021   5.967
 5732TIP3   OH217138   0.062   0.745   1.207
 5732TIP3    H117139   0.125   0.693   1.157
 5732TIP3    H217140   0.047   0.823   1.152
 5733TIP3   OH217141   7.492   2.459   5.901
 5733TIP3    H117142   7.497   2.426   5.812
 5733TIP3    H217143   7.466   2.551   5.891
 5734TIP3   OH217144   3.324   3.925   1.199
 5734TIP3    H117145   3.418   3.939   1.210
 5734TIP3    H217146   3.318   3.854   1.134
 5735TIP3   OH217147   0.400   2.660   5.248
 5735TIP3    H117148   0.427   2.653   5.156
 5735TIP3    H217149   0.474   2.704   5.291
 5736TIP3   OH217150   3.815   1.514   1.674
 5736TIP3    H117151   3.720   1.504   1.678
 5736TIP3    H217152   3.834   1.593   1.724
 5737TIP3   OH217153   1.153   3.847   6.712
 5737TIP3    H117154   1.088   3.872   6.646
 5737TIP3    H217155   1.170   3.927   6.761
 5738TIP3   OH217156   4.886   2.653   5.710
 5738TIP3    H117157   4.959   2.661   5.649
 5738TIP3    H217158   4.897   2.727   5.770
 5739TIP3   OH217159   3.971   4.429   1.734
 5739TIP3    H117160   3.921   4.366   1.682
 5739TIP3    H217161   4.045   4.453   1.678
 5740TIP3   OH217162   4.095   6.112   5.300
 5740TIP3    H117163   4.036   6.149   5.235
 5740TIP3    H217164   4.134   6.189   5.343
 5741TIP3   OH217165   6.872   2.211   2.679
 5741TIP3    H117166   6.811   2.240   2.612
 5741TIP3    H217167   6.944   2.275   2.676
 5742TIP3   OH217168   4.225   1.175   1.838
 5742TIP3    H117169   4.232   1.201   1.747
 5742TIP3    H217170   4.261   1.248   1.888
 5743TIP3   OH217171   7.937   4.677   6.127
 5743TIP3    H117172   8.020   4.703   6.086
 5743TIP3    H217173   7.897   4.617   6.064
 5744TIP3   OH217174   6.853   6.150   3.523
 5744TIP3    H117175   6.847   6.068   3.571
 5744TIP3    H217176   6.844   6.218   3.591
 5745TIP3   OH217177   2.443   3.904   6.679
 5745TIP3    H117178   2.494   3.823   6.678
 5745TIP3    H217179   2.418   3.915   6.771
 5746TIP3   OH217180   5.240   0.819   5.022
 5746TIP3    H117181   5.247   0.756   5.093
 5746TIP3    H217182   5.326   0.817   4.979
 5747TIP3   OH217183   0.975   0.155   4.169
 5747TIP3    H117184   1.063   0.119   4.174
 5747TIP3    H217185   0.974   0.205   4.087
 5748TIP3   OH217186   2.470   7.674   5.690
 5748TIP3    H117187   2.527   7.711   5.758
 5748TIP3    H217188   2.392   7.646   5.736
 5749TIP3   OH217189   0.929   7.059   6.423
 5749TIP3    H117190   0.972   6.989   6.374
 5749TIP3    H217191   0.838   7.031   6.431
 5750TIP3   OH217192   1.144   2.552   1.451
 5750TIP3    H117193   1.149   2.542   1.356
 5750TIP3    H217194   1.214   2.497   1.485
 5751TIP3   OH217195   1.143   2.519   6.275
 5751TIP3    H117196   1.141   2.447   6.339
 5751TIP3    H217197   1.161   2.476   6.191
 5752TIP3   OH217198   8.080   6.075   6.129
 5752TIP3    H117199   8.115   6.013   6.065
 5752TIP3    H217200   7.985   6.073   6.114
 5753TIP3   OH217201   5.732   1.961   0.597
 5753TIP3    H117202   5.817   2.001   0.578
 5753TIP3    H217203   5.712   1.909   0.520
 5754TIP3   OH217204   1.812   3.564   2.931
 5754TIP3    H117205   1.824   3.659   2.927
 5754TIP3    H217206   1.717   3.553   2.941
 5755TIP3   OH217207   0.068   6.775   6.532
 5755TIP3    H117208   0.104   6.861   6.509
 5755TIP3    H217209  -0.010   6.795   6.583
 5756TIP3   OH217210   6.760   7.203   6.686
 5756TIP3    H117211   6.682   7.257   6.680
 5756TIP3    H217212   6.727   7.114   6.695
 5757TIP3   OH217213   6.261   3.337   2.391
 5757TIP3    H117214   6.250   3.422   2.433
 5757TIP3    H217215   6.342   3.344   2.342
 5758TIP3   OH217216   4.692   5.949   3.020
 5758TIP3    H117217   4.697   6.013   2.949
 5758TIP3    H217218   4.740   5.873   2.987
 5759TIP3   OH217219   6.080   7.060   0.579
 5759TIP3    H117220   6.015   7.059   0.509
 5759TIP3    H217221   6.124   7.145   0.571
 5760TIP3   OH217222   6.131   5.872   5.947
 5760TIP3    H117223   6.207   5.838   5.899
 5760TIP3    H217224   6.060   5.812   5.923
 5761TIP3   OH217225   7.999   6.713   3.212
 5761TIP3    H117226   8.001   6.809   3.206
 5761TIP3    H217227   7.993   6.684   3.121
 5762TIP3   OH217228   7.691   6.310   1.000
 5762TIP3    H117229   7.780   6.314   1.035
 5762TIP3    H217230   7.641   6.372   1.054
 5763TIP3   OH217231   7.334   2.342   4.299
 5763TIP3    H117232   7.323   2.432   4.330
 5763TIP3    H217233   7.412   2.346   4.243
 5764TIP3   OH217234   2.748   5.558   3.565
 5764TIP3    H117235   2.784   5.469   3.562
 5764TIP3    H217236   2.671   5.550   3.621
 5765TIP3   OH217237   4.907   0.600   2.169
 5765TIP3    H117238   4.850   0.670   2.200
 5765TIP3    H217239   4.861   0.519   2.194
 5766TIP3   OH217240   3.343   0.538   0.743
 5766TIP3    H117241   3.292   0.483   0.684
 5766TIP3    H217242   3.301   0.624   0.737
 5767TIP3   OH217243   8.256   1.372   0.040
 5767TIP3    H117244   8.229   1.349  -0.049
 5767TIP3    H217245   8.337   1.421   0.029
 5768TIP3   OH217246   6.810   3.833   5.127
 5768TIP3    H117247   6.894   3.861   5.163
 5768TIP3    H217248   6.833   3.769   5.059
 5769TIP3   OH217249   4.987   5.873   3.049
 5769TIP3    H117250   5.043   5.921   3.110
 5769TIP3    H217251   4.951   5.940   2.991
 5770TIP3   OH217252   1.733   4.683   5.033
 5770TIP3    H117253   1.700   4.603   4.992
 5770TIP3    H217254   1.751   4.659   5.124
 5771TIP3   OH217255   1.341   7.676   2.990
 5771TIP3    H117256   1.430   7.667   2.955
 5771TIP3    H217257   1.292   7.718   2.920
 5772TIP3   OH217258   2.178   0.770   1.216
 5772TIP3    H117259   2.166   0.675   1.203
 5772TIP3    H217260   2.091   0.807   1.202
 5773TIP3   OH217261   5.341   4.767   1.434
 5773TIP3    H117262   5.397   4.836   1.399
 5773TIP3    H217263   5.253   4.790   1.403
 5774TIP3   OH217264   1.594   5.728   1.082
 5774TIP3    H117265   1.537   5.789   1.034
 5774TIP3    H217266   1.660   5.702   1.019
 5775TIP3   OH217267   5.903   3.086   5.654
 5775TIP3    H117268   5.940   3.029   5.587
 5775TIP3    H217269   5.818   3.047   5.674
 5776TIP3   OH217270   2.082   0.245   3.495
 5776TIP3    H117271   2.084   0.174   3.560
 5776TIP3    H217272   2.076   0.199   3.411
 5777TIP3   OH217273   5.510   3.736   5.599
 5777TIP3    H117274   5.559   3.655   5.616
 5777TIP3    H217275   5.424   3.706   5.568
 5778TIP3   OH217276   3.035   1.989   5.380
 5778TIP3    H117277   3.126   1.991   5.352
 5778TIP3    H217278   3.034   2.036   5.464
 5779TIP3   OH217279   7.264   6.119   4.914
 5779TIP3    H117280   7.340   6.084   4.960
 5779TIP3    H217281   7.245   6.054   4.846
 5780TIP3   OH217282   4.859   0.561   2.726
 5780TIP3    H117283   4.938   0.570   2.779
 5780TIP3    H217284   4.794   0.616   2.769
 5781TIP3   OH217285   3.844   6.388   3.614
 5781TIP3    H117286   3.833   6.473   3.658
 5781TIP3    H217287   3.771   6.383   3.553
 5782TIP3   OH217288   6.308   6.075   5.681
 5782TIP3    H117289   6.341   6.022   5.753
 5782TIP3    H217290   6.320   6.166   5.710
 5783TIP3   OH217291   0.370   1.085   3.914
 5783TIP3    H117292   0.385   1.161   3.858
 5783TIP3    H217293   0.275   1.087   3.932
 5784TIP3   OH217294   7.490   5.551   6.483
 5784TIP3    H117295   7.559   5.559   6.549
 5784TIP3    H217296   7.508   5.468   6.440
 5785TIP3   OH217297   4.011   7.081   3.606
 5785TIP3    H117298   4.103   7.055   3.612
 5785TIP3    H217299   3.986   7.101   3.696
 5786TIP3   OH217300   5.735   5.194   1.341
 5786TIP3    H117301   5.821   5.235   1.332
 5786TIP3    H217302   5.673   5.266   1.328
 5787TIP3   OH217303   5.554   6.319   0.832
 5787TIP3    H117304   5.472   6.364   0.812
 5787TIP3    H217305   5.553   6.242   0.775
 5788TIP3   OH217306   4.226   0.256   4.828
 5788TIP3    H117307   4.265   0.321   4.887
 5788TIP3    H217308   4.135   0.250   4.857
 5789TIP3   OH217309   7.211   6.231   1.628
 5789TIP3    H117310   7.273   6.159   1.614
 5789TIP3    H217311   7.126   6.194   1.605
 5790TIP3   OH217312   1.683   0.276   5.329
 5790TIP3    H117313   1.646   0.191   5.353
 5790TIP3    H217314   1.756   0.255   5.271
 5791TIP3   OH217315   7.350   2.334   3.478
 5791TIP3    H117316   7.393   2.418   3.491
 5791TIP3    H217317   7.415   2.281   3.431
 5792TIP3   OH217318   7.878   2.444   1.981
 5792TIP3    H117319   7.858   2.532   2.014
 5792TIP3    H217320   7.853   2.385   2.052
 5793TIP3   OH217321   4.197   2.853   4.526
 5793TIP3    H117322   4.181   2.947   4.528
 5793TIP3    H217323   4.185   2.828   4.434
 5794TIP3   OH217324   2.075   6.040   0.236
 5794TIP3    H117325   2.161   6.000   0.254
 5794TIP3    H217326   2.044   5.997   0.157
 5795TIP3   OH217327   5.372   0.905   3.968
 5795TIP3    H117328   5.314   0.976   3.994
 5795TIP3    H217329   5.403   0.931   3.881
 5796TIP3   OH217330   0.168   7.700   4.214
 5796TIP3    H117331   0.217   7.618   4.220
 5796TIP3    H217332   0.093   7.687   4.272
 5797TIP3   OH217333   4.438   3.093   2.796
 5797TIP3    H117334   4.449   3.172   2.744
 5797TIP3    H217335   4.518   3.043   2.781
 5798TIP3   OH217336   6.274   1.341   3.798
 5798TIP3    H117337   6.203   1.289   3.836
 5798TIP3    H217338   6.236   1.380   3.720
 5799TIP3   OH217339   1.041   0.143   4.850
 5799TIP3    H117340   1.095   0.089   4.908
 5799TIP3    H217341   0.951   0.120   4.874
 5800TIP3   OH217342   1.094   7.240   4.556
 5800TIP3    H117343   1.097   7.288   4.638
 5800TIP3    H217344   1.003   7.214   4.545
 5801TIP3   OH217345   0.791   5.495   2.899
 5801TIP3    H117346   0.749   5.418   2.937
 5801TIP3    H217347   0.868   5.511   2.954
 5802TIP3   OH217348   2.656   0.056   3.951
 5802TIP3    H117349   2.625   0.067   4.041
 5802TIP3    H217350   2.674   0.145   3.920
 5803TIP3   OH217351   5.060   4.112   2.349
 5803TIP3    H117352   5.151   4.085   2.341
 5803TIP3    H217353   5.027   4.114   2.259
 5804TIP3   OH217354   7.946   5.678   4.170
 5804TIP3    H117355   7.979   5.738   4.237
 5804TIP3    H217356   7.851   5.683   4.177
 5805TIP3   OH217357   0.895   3.982   4.058
 5805TIP3    H117358   0.977   4.022   4.088
 5805TIP3    H217359   0.908   3.968   3.965
 5806TIP3   OH217360   6.964   3.525   1.271
 5806TIP3    H117361   6.890   3.573   1.307
 5806TIP3    H217362   7.010   3.491   1.348
 5807TIP3   OH217363   4.782   1.874   5.541
 5807TIP3    H117364   4.703   1.912   5.581
 5807TIP3    H217365   4.854   1.921   5.583
 5808TIP3   OH217366   7.089   3.825   3.796
 5808TIP3    H117367   7.038   3.752   3.830
 5808TIP3    H217368   7.038   3.858   3.722
 5809TIP3   OH217369   1.550   2.851   3.173
 5809TIP3    H117370   1.527   2.833   3.082
 5809TIP3    H217371   1.568   2.945   3.175
 5810TIP3   OH217372   1.956   6.351   3.047
 5810TIP3    H117373   1.993   6.263   3.037
 5810TIP3    H217374   2.021   6.408   3.005
 5811TIP3   OH217375   1.971   0.013   2.076
 5811TIP3    H117376   1.951   0.105   2.088
 5811TIP3    H217377   2.035   0.011   2.005
 5812TIP3   OH217378   2.283   2.759   2.874
 5812TIP3    H117379   2.242   2.832   2.826
 5812TIP3    H217380   2.312   2.699   2.805
 5813TIP3   OH217381   3.348   2.185   4.457
 5813TIP3    H117382   3.352   2.091   4.440
 5813TIP3    H217383   3.374   2.225   4.374
 5814TIP3   OH217384   3.222   5.990   1.494
 5814TIP3    H117385   3.129   6.006   1.479
 5814TIP3    H217386   3.264   6.075   1.479
 5815TIP3   OH217387   0.661   5.876   6.643
 5815TIP3    H117388   0.714   5.806   6.604
 5815TIP3    H217389   0.724   5.928   6.694
 5816TIP3   OH217390   5.399   7.678   1.289
 5816TIP3    H117391   5.421   7.631   1.209
 5816TIP3    H217392   5.336   7.622   1.334
 5817TIP3   OH217393   6.600   5.296   4.372
 5817TIP3    H117394   6.622   5.355   4.445
 5817TIP3    H217395   6.661   5.223   4.381
 5818TIP3   OH217396   6.629   7.511   5.725
 5818TIP3    H117397   6.702   7.451   5.716
 5818TIP3    H217398   6.556   7.456   5.754
 5819TIP3   OH217399   2.498   6.505   3.401
 5819TIP3    H117400   2.591   6.497   3.379
 5819TIP3    H217401   2.481   6.433   3.461
 5820TIP3   OH217402   0.787   6.641   5.800
 5820TIP3    H117403   0.801   6.552   5.831
 5820TIP3    H217404   0.766   6.691   5.879
 5821TIP3   OH217405   4.432   2.377   1.264
 5821TIP3    H117406   4.485   2.439   1.214
 5821TIP3    H217407   4.489   2.351   1.337
 5822TIP3   OH217408   3.963   2.163   4.602
 5822TIP3    H117409   3.961   2.184   4.509
 5822TIP3    H217410   3.997   2.242   4.644
 5823TIP3   OH217411   3.161   1.427   0.759
 5823TIP3    H117412   3.084   1.410   0.705
 5823TIP3    H217413   3.183   1.341   0.796
 5824TIP3   OH217414   7.306   4.963   0.121
 5824TIP3    H117415   7.374   4.912   0.166
 5824TIP3    H217416   7.335   4.967   0.030
 5825TIP3   OH217417   4.224   6.153   0.712
 5825TIP3    H117418   4.255   6.169   0.801
 5825TIP3    H217419   4.303   6.139   0.661
 5826TIP3   OH217420   4.886   3.509   2.313
 5826TIP3    H117421   4.829   3.435   2.290
 5826TIP3    H217422   4.906   3.550   2.229
 5827TIP3   OH217423   7.466   5.251   1.268
 5827TIP3    H117424   7.507   5.245   1.354
 5827TIP3    H217425   7.383   5.295   1.284
 5828TIP3   OH217426   5.260   1.136   2.564
 5828TIP3    H117427   5.177   1.181   2.552
 5828TIP3    H217428   5.271   1.083   2.484
 5829TIP3   OH217429   7.691   3.270   0.695
 5829TIP3    H117430   7.691   3.176   0.680
 5829TIP3    H217431   7.612   3.302   0.652
 5830TIP3   OH217432   7.128   7.751   2.299
 5830TIP3    H117433   7.200   7.811   2.320
 5830TIP3    H217434   7.059   7.807   2.265
 5831TIP3   OH217435   5.456   2.532   3.983
 5831TIP3    H117436   5.472   2.581   3.903
 5831TIP3    H217437   5.364   2.549   4.003
 5832TIP3   OH217438   6.701   3.182   6.105
 5832TIP3    H117439   6.607   3.200   6.116
 5832TIP3    H217440   6.741   3.215   6.186
 5833TIP3   OH217441   1.796   1.253   5.328
 5833TIP3    H117442   1.813   1.309   5.404
 5833TIP3    H217443   1.883   1.238   5.290
 5834TIP3   OH217444   0.256   6.780   4.517
 5834TIP3    H117445   0.337   6.830   4.509
 5834TIP3    H217446   0.200   6.833   4.574
 5835TIP3   OH217447   3.355   4.418   0.309
 5835TIP3    H117448   3.310   4.429   0.393
 5835TIP3    H217449   3.423   4.354   0.327
 5836TIP3   OH217450   4.257   4.273   5.774
 5836TIP3    H117451   4.227   4.266   5.865
 5836TIP3    H217452   4.249   4.185   5.739
 5837TIP3   OH217453   0.839   1.373   2.613
 5837TIP3    H117454   0.896   1.381   2.537
 5837TIP3    H217455   0.762   1.327   2.580
 5838TIP3   OH217456   0.258   4.269   5.906
 5838TIP3    H117457   0.269   4.360   5.933
 5838TIP3    H217458   0.337   4.225   5.936
 5839TIP3   OH217459   3.796   7.596   2.342
 5839TIP3    H117460   3.792   7.502   2.356
 5839TIP3    H217461   3.751   7.634   2.418
 5840TIP3   OH217462   4.775   6.875   3.488
 5840TIP3    H117463   4.718   6.827   3.548
 5840TIP3    H217464   4.840   6.811   3.460
 5841TIP3   OH217465   5.742   2.841   4.430
 5841TIP3    H117466   5.827   2.838   4.473
 5841TIP3    H217467   5.750   2.780   4.356
 5842TIP3   OH217468   3.127   3.422   3.179
 5842TIP3    H117469   3.165   3.489   3.236
 5842TIP3    H217470   3.137   3.456   3.090
 5843TIP3   OH217471   7.888   3.899   1.607
 5843TIP3    H117472   7.915   3.855   1.526
 5843TIP3    H217473   7.811   3.850   1.637
 5844TIP3   OH217474   1.830   7.055   1.511
 5844TIP3    H117475   1.881   7.080   1.588
 5844TIP3    H217476   1.771   7.129   1.497
 5845TIP3   OH217477   7.377   1.234   5.579
 5845TIP3    H117478   7.293   1.192   5.600
 5845TIP3    H217479   7.380   1.311   5.636
 5846TIP3   OH217480   2.803   3.239   0.448
 5846TIP3    H117481   2.821   3.261   0.357
 5846TIP3    H217482   2.824   3.146   0.455
 5847TIP3   OH217483   4.972   7.728   1.490
 5847TIP3    H117484   4.927   7.702   1.410
 5847TIP3    H217485   4.902   7.753   1.550
 5848TIP3   OH217486   3.338   3.130   3.574
 5848TIP3    H117487   3.364   3.038   3.579
 5848TIP3    H217488   3.406   3.171   3.521
 5849TIP3   OH217489   6.799   1.325   6.299
 5849TIP3    H117490   6.733   1.384   6.337
 5849TIP3    H217491   6.782   1.328   6.205
 5850TIP3   OH217492   2.790   4.213   1.103
 5850TIP3    H117493   2.744   4.165   1.034
 5850TIP3    H217494   2.882   4.187   1.093
 5851TIP3   OH217495   1.641   4.853   6.086
 5851TIP3    H117496   1.572   4.787   6.086
 5851TIP3    H217497   1.645   4.883   5.995
 5852TIP3   OH217498   3.253   2.320   1.675
 5852TIP3    H117499   3.311   2.350   1.604
 5852TIP3    H217500   3.165   2.328   1.638
 5853TIP3   OH217501   2.154   3.742   5.432
 5853TIP3    H117502   2.114   3.797   5.365
 5853TIP3    H217503   2.094   3.668   5.443
 5854TIP3   OH217504   2.078   5.861   1.354
 5854TIP3    H117505   2.106   5.777   1.392
 5854TIP3    H217506   2.048   5.839   1.266
 5855TIP3   OH217507   0.403   6.369   1.161
 5855TIP3    H117508   0.365   6.281   1.151
 5855TIP3    H217509   0.402   6.406   1.073
 5856TIP3   OH217510   4.787   0.648   4.303
 5856TIP3    H117511   4.837   0.717   4.260
 5856TIP3    H217512   4.834   0.567   4.282
 5857TIP3   OH217513   6.184   3.889   1.121
 5857TIP3    H117514   6.210   3.981   1.124
 5857TIP3    H217515   6.165   3.873   1.028
 5858TIP3   OH217516   3.334   6.770   4.150
 5858TIP3    H117517   3.301   6.683   4.127
 5858TIP3    H217518   3.376   6.802   4.070
 5859TIP3   OH217519   8.263   1.499   4.775
 5859TIP3    H117520   8.317   1.561   4.727
 5859TIP3    H217521   8.323   1.459   4.838
 5860TIP3   OH217522   0.081   2.467   5.744
 5860TIP3    H117523   0.147   2.412   5.701
 5860TIP3    H217524   0.031   2.505   5.672
 5861TIP3   OH217525   0.289   2.011   4.679
 5861TIP3    H117526   0.343   2.065   4.621
 5861TIP3    H217527   0.237   1.958   4.619
 5862TIP3   OH217528   3.546   4.921   1.712
 5862TIP3    H117529   3.462   4.963   1.694
 5862TIP3    H217530   3.569   4.875   1.631
 5863TIP3   OH217531   4.773   4.714   6.086
 5863TIP3    H117532   4.748   4.649   6.021
 5863TIP3    H217533   4.805   4.789   6.035
 5864TIP3   OH217534   2.711   4.490   4.212
 5864TIP3    H117535   2.740   4.496   4.121
 5864TIP3    H217536   2.764   4.553   4.259
 5865TIP3   OH217537   4.950   0.820   2.915
 5865TIP3    H117538   4.956   0.764   2.993
 5865TIP3    H217539   4.994   0.901   2.941
 5866TIP3   OH217540   6.550   2.073   1.372
 5866TIP3    H117541   6.528   1.995   1.423
 5866TIP3    H217542   6.525   2.050   1.282
 5867TIP3   OH217543   7.671   6.570   2.488
 5867TIP3    H117544   7.621   6.505   2.439
 5867TIP3    H217545   7.758   6.568   2.448
 5868TIP3   OH217546   5.923   6.525   5.843
 5868TIP3    H117547   5.922   6.603   5.899
 5868TIP3    H217548   5.941   6.558   5.755
 5869TIP3   OH217549   5.277   7.612   5.760
 5869TIP3    H117550   5.235   7.662   5.691
 5869TIP3    H217551   5.308   7.678   5.822
 5870TIP3   OH217552   5.866   3.405   2.870
 5870TIP3    H117553   5.895   3.386   2.781
 5870TIP3    H217554   5.946   3.413   2.921
 5871TIP3   OH217555   5.055   7.797   3.713
 5871TIP3    H117556   5.046   7.860   3.784
 5871TIP3    H217557   4.999   7.723   3.738
 5872TIP3   OH217558   0.789   4.844   3.057
 5872TIP3    H117559   0.744   4.908   3.001
 5872TIP3    H217560   0.718   4.799   3.103
 5873TIP3   OH217561   4.977   4.111   2.098
 5873TIP3    H117562   4.914   4.092   2.029
 5873TIP3    H217563   5.056   4.062   2.073
 5874TIP3   OH217564   0.201   5.123   5.540
 5874TIP3    H117565   0.129   5.157   5.594
 5874TIP3    H217566   0.202   5.180   5.463
 5875TIP3   OH217567   6.023   5.954   4.814
 5875TIP3    H117568   5.959   5.890   4.845
 5875TIP3    H217569   6.108   5.916   4.834
 5876TIP3   OH217570   5.961   6.756   1.564
 5876TIP3    H117571   5.908   6.731   1.489
 5876TIP3    H217572   6.001   6.840   1.539
 5877TIP3   OH217573   7.007   7.158   6.539
 5877TIP3    H117574   7.065   7.231   6.561
 5877TIP3    H217575   6.947   7.152   6.613
 5878TIP3   OH217576   5.888   5.554   4.822
 5878TIP3    H117577   5.954   5.518   4.762
 5878TIP3    H217578   5.922   5.537   4.909
 5879TIP3   OH217579   2.351   4.277   3.831
 5879TIP3    H117580   2.412   4.343   3.800
 5879TIP3    H217581   2.400   4.226   3.895
 5880TIP3   OH217582   2.016   1.165   4.551
 5880TIP3    H117583   2.109   1.188   4.545
 5880TIP3    H217584   1.977   1.197   4.470
 5881TIP3   OH217585   7.047   2.694   6.259
 5881TIP3    H117586   7.041   2.599   6.271
 5881TIP3    H217587   6.974   2.730   6.309
 5882TIP3   OH217588   4.378   6.936   4.840
 5882TIP3    H117589   4.325   6.857   4.837
 5882TIP3    H217590   4.379   6.961   4.933
 5883TIP3   OH217591   3.581   5.998   5.375
 5883TIP3    H117592   3.551   6.082   5.409
 5883TIP3    H217593   3.515   5.935   5.403
 5884TIP3   OH217594   5.174   7.690   4.117
 5884TIP3    H117595   5.153   7.783   4.122
 5884TIP3    H217596   5.192   7.665   4.208
 5885TIP3   OH217597   3.311   1.323   1.988
 5885TIP3    H117598   3.390   1.271   1.973
 5885TIP3    H217599   3.336   1.412   1.965
 5886TIP3   OH217600   6.049   6.805   6.089
 5886TIP3    H117601   6.081   6.723   6.127
 5886TIP3    H217602   5.979   6.832   6.149
 5887TIP3   OH217603   1.965   5.368   4.094
 5887TIP3    H117604   1.918   5.452   4.096
 5887TIP3    H217605   2.053   5.391   4.063
 5888TIP3   OH217606   1.958   2.576   2.895
 5888TIP3    H117607   1.951   2.560   2.801
 5888TIP3    H217608   2.047   2.609   2.907
 5889TIP3   OH217609   1.577   2.043   2.528
 5889TIP3    H117610   1.600   1.978   2.462
 5889TIP3    H217611   1.634   2.023   2.603
 5890TIP3   OH217612   6.053   0.360   3.623
 5890TIP3    H117613   6.130   0.337   3.676
 5890TIP3    H217614   6.014   0.435   3.669
 5891TIP3   OH217615   0.543   5.027   6.318
 5891TIP3    H117616   0.571   5.068   6.236
 5891TIP3    H217617   0.625   5.000   6.361
 5892TIP3   OH217618   6.152   2.724   4.640
 5892TIP3    H117619   6.142   2.662   4.713
 5892TIP3    H217620   6.063   2.741   4.611
 5893TIP3   OH217621   1.585   6.835   3.817
 5893TIP3    H117622   1.554   6.784   3.742
 5893TIP3    H217623   1.660   6.884   3.783
 5894TIP3   OH217624   3.978   0.993   0.057
 5894TIP3    H117625   4.017   1.050  -0.009
 5894TIP3    H217626   3.924   0.932   0.007
 5895TIP3   OH217627   2.182   3.246   1.865
 5895TIP3    H117628   2.137   3.166   1.839
 5895TIP3    H217629   2.132   3.317   1.824
 5896TIP3   OH217630   4.247   2.031   1.115
 5896TIP3    H117631   4.307   2.092   1.072
 5896TIP3    H217632   4.195   1.995   1.043
 5897TIP3   OH217633   1.700   2.288   4.455
 5897TIP3    H117634   1.744   2.339   4.386
 5897TIP3    H217635   1.756   2.212   4.468
 5898TIP3   OH217636   5.121   6.067   6.164
 5898TIP3    H117637   5.042   6.034   6.121
 5898TIP3    H217638   5.149   6.140   6.110
 5899TIP3   OH217639   6.670   0.528   0.665
 5899TIP3    H117640   6.764   0.508   0.659
 5899TIP3    H217641   6.649   0.569   0.581
 5900TIP3   OH217642   3.378   6.940   5.543
 5900TIP3    H117643   3.345   6.855   5.515
 5900TIP3    H217644   3.329   7.003   5.490
 5901TIP3   OH217645   0.215   5.606   5.912
 5901TIP3    H117646   0.274   5.535   5.886
 5901TIP3    H217647   0.231   5.675   5.848
 5902TIP3   OH217648   6.326   0.647   3.523
 5902TIP3    H117649   6.344   0.555   3.541
 5902TIP3    H217650   6.408   0.681   3.487
 5903TIP3   OH217651   3.544   0.803   5.903
 5903TIP3    H117652   3.518   0.722   5.946
 5903TIP3    H217653   3.550   0.867   5.975
 5904TIP3   OH217654   7.303   2.319   1.801
 5904TIP3    H117655   7.209   2.303   1.792
 5904TIP3    H217656   7.341   2.233   1.816
 5905TIP3   OH217657   6.307   5.843   6.150
 5905TIP3    H117658   6.249   5.879   6.083
 5905TIP3    H217659   6.249   5.821   6.223
 5906TIP3   OH217660   2.327   5.211   6.472
 5906TIP3    H117661   2.260   5.200   6.538
 5906TIP3    H217662   2.394   5.265   6.514
 5907TIP3   OH217663   5.377   2.186   2.621
 5907TIP3    H117664   5.297   2.208   2.574
 5907TIP3    H217665   5.443   2.173   2.552
 5908TIP3   OH217666   5.648   2.340   4.991
 5908TIP3    H117667   5.648   2.326   4.896
 5908TIP3    H217668   5.584   2.410   5.005
 5909TIP3   OH217669   5.179   5.748   6.309
 5909TIP3    H117670   5.125   5.729   6.385
 5909TIP3    H217671   5.116   5.767   6.239
 5910TIP3   OH217672   3.092   0.261   1.526
 5910TIP3    H117673   3.123   0.351   1.517
 5910TIP3    H217674   3.027   0.252   1.456
 5911TIP3   OH217675   2.014   4.700   5.796
 5911TIP3    H117676   2.043   4.775   5.847
 5911TIP3    H217677   2.092   4.645   5.789
 5912TIP3   OH217678   3.981   0.465   5.381
 5912TIP3    H117679   3.960   0.436   5.293
 5912TIP3    H217680   3.935   0.548   5.391
 5913TIP3   OH217681   4.038   3.068   2.516
 5913TIP3    H117682   4.064   3.101   2.431
 5913TIP3    H217683   4.114   3.017   2.546
 5914TIP3   OH217684  -0.036   7.082   3.759
 5914TIP3    H117685  -0.026   7.025   3.835
 5914TIP3    H217686   0.031   7.149   3.771
 5915TIP3   OH217687   4.919   5.449   1.319
 5915TIP3    H117688   4.891   5.526   1.369
 5915TIP3    H217689   4.939   5.384   1.386
 5916TIP3   OH217690   1.004   2.166   1.785
 5916TIP3    H117691   0.938   2.097   1.783
 5916TIP3    H217692   1.087   2.121   1.771
 5917TIP3   OH217693   5.131   5.639   3.761
 5917TIP3    H117694   5.222   5.657   3.786
 5917TIP3    H217695   5.108   5.561   3.812
 5918TIP3   OH217696   3.233   3.006   1.724
 5918TIP3    H117697   3.295   2.964   1.784
 5918TIP3    H217698   3.198   2.934   1.672
 5919TIP3   OH217699   1.671   7.221   0.673
 5919TIP3    H117700   1.693   7.191   0.585
 5919TIP3    H217701   1.582   7.257   0.665
 5920TIP3   OH217702   4.340   3.153   0.854
 5920TIP3    H117703   4.361   3.097   0.929
 5920TIP3    H217704   4.425   3.170   0.812
 5921TIP3   OH217705   8.114   5.294   3.515
 5921TIP3    H117706   8.150   5.376   3.482
 5921TIP3    H217707   8.054   5.320   3.585
 5922TIP3   OH217708   7.173   0.707   3.643
 5922TIP3    H117709   7.256   0.685   3.687
 5922TIP3    H217710   7.110   0.716   3.714
 5923TIP3   OH217711   5.571   6.147   0.601
 5923TIP3    H117712   5.574   6.059   0.563
 5923TIP3    H217713   5.604   6.204   0.531
 5924TIP3   OH217714   1.521   5.402   0.818
 5924TIP3    H117715   1.454   5.375   0.755
 5924TIP3    H217716   1.472   5.447   0.887
 5925TIP3   OH217717   5.028   1.828   1.779
 5925TIP3    H117718   5.020   1.826   1.875
 5925TIP3    H217719   5.022   1.736   1.753
 5926TIP3   OH217720   7.807   0.023   5.587
 5926TIP3    H117721   7.866   0.094   5.561
 5926TIP3    H217722   7.720   0.061   5.581
 5927TIP3   OH217723   7.387   2.909   2.062
 5927TIP3    H117724   7.410   2.997   2.034
 5927TIP3    H217725   7.429   2.851   1.999
 5928TIP3   OH217726   8.031   0.454   4.660
 5928TIP3    H117727   8.084   0.375   4.656
 5928TIP3    H217728   8.081   0.520   4.610
 5929TIP3   OH217729   0.962   0.392   6.290
 5929TIP3    H117730   0.915   0.369   6.210
 5929TIP3    H217731   0.892   0.409   6.354
 5930TIP3   OH217732   6.559   2.869   2.871
 5930TIP3    H117733   6.553   2.915   2.955
 5930TIP3    H217734   6.479   2.816   2.867
 5931TIP3   OH217735   6.192   5.517   6.436
 5931TIP3    H117736   6.193   5.613   6.439
 5931TIP3    H217737   6.108   5.493   6.475
 5932TIP3   OH217738   2.767   3.847   5.450
 5932TIP3    H117739   2.746   3.797   5.371
 5932TIP3    H217740   2.698   3.913   5.456
 5933TIP3   OH217741   3.788   3.198   5.282
 5933TIP3    H117742   3.723   3.132   5.305
 5933TIP3    H217743   3.766   3.224   5.193
 5934TIP3   OH217744   5.415   4.208   6.310
 5934TIP3    H117745   5.480   4.138   6.314
 5934TIP3    H217746   5.448   4.269   6.244
 5935TIP3   OH217747   0.748   0.602   5.411
 5935TIP3    H117748   0.842   0.584   5.401
 5935TIP3    H217749   0.745   0.689   5.450
 5936TIP3   OH217750   3.826   6.112   4.099
 5936TIP3    H117751   3.802   6.188   4.046
 5936TIP3    H217752   3.832   6.146   4.188
 5937TIP3   OH217753   1.639   1.278   1.205
 5937TIP3    H117754   1.662   1.186   1.205
 5937TIP3    H217755   1.545   1.279   1.187
 5938TIP3   OH217756   6.416   2.205   3.929
 5938TIP3    H117757   6.366   2.179   3.852
 5938TIP3    H217758   6.507   2.181   3.908
 5939TIP3   OH217759   3.076   0.125   3.880
 5939TIP3    H117760   3.033   0.183   3.816
 5939TIP3    H217761   3.010   0.058   3.899
 5940TIP3   OH217762   4.355   4.540   6.321
 5940TIP3    H117763   4.298   4.576   6.253
 5940TIP3    H217764   4.349   4.446   6.310
 5941TIP3   OH217765   7.498   7.704   1.811
 5941TIP3    H117766   7.427   7.680   1.752
 5941TIP3    H217767   7.497   7.636   1.878
 5942TIP3   OH217768   2.845   0.361   1.730
 5942TIP3    H117769   2.849   0.267   1.715
 5942TIP3    H217770   2.937   0.389   1.729
 5943TIP3   OH217771   4.833   3.140   5.795
 5943TIP3    H117772   4.812   3.181   5.879
 5943TIP3    H217773   4.749   3.115   5.758
 5944TIP3   OH217774   7.890   2.136   5.222
 5944TIP3    H117775   7.980   2.141   5.188
 5944TIP3    H217776   7.861   2.227   5.225
 5945TIP3   OH217777   0.588   3.429   3.327
 5945TIP3    H117778   0.665   3.452   3.275
 5945TIP3    H217779   0.547   3.357   3.279
 5946TIP3   OH217780   2.276   2.535   0.608
 5946TIP3    H117781   2.186   2.553   0.579
 5946TIP3    H217782   2.271   2.543   0.703
 5947TIP3   OH217783   2.309   5.972   0.356
 5947TIP3    H117784   2.360   6.040   0.400
 5947TIP3    H217785   2.370   5.936   0.291
 5948TIP3   OH217786   3.579   4.285   1.476
 5948TIP3    H117787   3.603   4.259   1.388
 5948TIP3    H217788   3.545   4.374   1.467
 5949TIP3   OH217789   4.095   6.697   2.101
 5949TIP3    H117790   4.060   6.635   2.037
 5949TIP3    H217791   4.123   6.642   2.174
 5950TIP3   OH217792   7.415   5.512   3.153
 5950TIP3    H117793   7.389   5.464   3.231
 5950TIP3    H217794   7.351   5.582   3.145
 5951TIP3   OH217795   5.726   0.468   3.352
 5951TIP3    H117796   5.709   0.514   3.435
 5951TIP3    H217797   5.814   0.432   3.363
 5952TIP3   OH217798   3.506   5.478   3.554
 5952TIP3    H117799   3.413   5.478   3.531
 5952TIP3    H217800   3.531   5.571   3.551
 5953TIP3   OH217801   3.939   1.778   6.571
 5953TIP3    H117802   3.955   1.684   6.574
 5953TIP3    H217803   4.008   1.813   6.515
 5954TIP3   OH217804   4.496   5.797   1.896
 5954TIP3    H117805   4.424   5.823   1.954
 5954TIP3    H217806   4.452   5.767   1.816
 5955TIP3   OH217807   5.503   6.821   2.054
 5955TIP3    H117808   5.553   6.903   2.058
 5955TIP3    H217809   5.497   6.793   2.146
 5956TIP3   OH217810   4.960   5.251   1.511
 5956TIP3    H117811   4.910   5.180   1.552
 5956TIP3    H217812   4.957   5.322   1.575
 5957TIP3   OH217813   7.319   3.054   5.918
 5957TIP3    H117814   7.247   3.008   5.962
 5957TIP3    H217815   7.373   3.088   5.989
 5958TIP3   OH217816   0.827   3.554   3.217
 5958TIP3    H117817   0.863   3.604   3.144
 5958TIP3    H217818   0.881   3.578   3.292
 5959TIP3   OH217819   4.155   1.020   6.531
 5959TIP3    H117820   4.195   1.089   6.477
 5959TIP3    H217821   4.207   1.020   6.611
 5960TIP3   OH217822   3.090   6.389   2.365
 5960TIP3    H117823   3.167   6.337   2.346
 5960TIP3    H217824   3.018   6.343   2.320
 5961TIP3   OH217825   5.734   1.088   4.076
 5961TIP3    H117826   5.786   1.125   4.148
 5961TIP3    H217827   5.648   1.130   4.085
 5962TIP3   OH217828   3.752   5.533   1.711
 5962TIP3    H117829   3.724   5.444   1.731
 5962TIP3    H217830   3.676   5.588   1.731
 5963TIP3   OH217831   0.933   1.883   1.536
 5963TIP3    H117832   0.842   1.886   1.565
 5963TIP3    H217833   0.941   1.953   1.471
 5964TIP3   OH217834   2.350   1.868   5.496
 5964TIP3    H117835   2.363   1.786   5.544
 5964TIP3    H217836   2.271   1.853   5.444
 5965TIP3   OH217837   1.506   6.937   2.233
 5965TIP3    H117838   1.510   6.869   2.300
 5965TIP3    H217839   1.574   7.000   2.258
 5966TIP3   OH217840   2.611   6.372   0.404
 5966TIP3    H117841   2.547   6.309   0.370
 5966TIP3    H217842   2.693   6.347   0.362
 5967TIP3   OH217843   4.488   6.046   3.159
 5967TIP3    H117844   4.422   6.035   3.090
 5967TIP3    H217845   4.570   6.021   3.118
 5968TIP3   OH217846   6.012   5.950   3.059
 5968TIP3    H117847   6.059   5.907   3.131
 5968TIP3    H217848   5.948   5.885   3.030
 5969TIP3   OH217849   3.770   5.638   5.350
 5969TIP3    H117850   3.850   5.591   5.328
 5969TIP3    H217851   3.793   5.688   5.429
 5970TIP3   OH217852   1.051   4.940   2.497
 5970TIP3    H117853   0.962   4.962   2.468
 5970TIP3    H217854   1.068   5.002   2.568
 5971TIP3   OH217855   8.310   5.230   2.048
 5971TIP3    H117856   8.244   5.295   2.021
 5971TIP3    H217857   8.279   5.198   2.132
 5972TIP3   OH217858   2.282   1.134   4.797
 5972TIP3    H117859   2.232   1.213   4.781
 5972TIP3    H217860   2.302   1.100   4.710
 5973TIP3   OH217861   7.702   3.539   1.243
 5973TIP3    H117862   7.716   3.472   1.176
 5973TIP3    H217863   7.663   3.612   1.195
 5974TIP3   OH217864   4.143   1.948   2.607
 5974TIP3    H117865   4.052   1.919   2.600
 5974TIP3    H217866   4.194   1.870   2.585
 5975TIP3   OH217867   4.923   6.313   5.110
 5975TIP3    H117868   4.973   6.239   5.146
 5975TIP3    H217869   4.983   6.354   5.048
 5976TIP3   OH217870   0.583   5.161   3.619
 5976TIP3    H117871   0.512   5.159   3.682
 5976TIP3    H217872   0.563   5.235   3.562
 5977TIP3   OH217873   7.319   5.635   5.761
 5977TIP3    H117874   7.264   5.581   5.819
 5977TIP3    H217875   7.337   5.577   5.686
 5978TIP3   OH217876   5.088   0.001   6.511
 5978TIP3    H117877   5.016   0.050   6.472
 5978TIP3    H217878   5.165   0.057   6.500
 5979TIP3   OH217879   0.192   6.005   1.380
 5979TIP3    H117880   0.186   6.095   1.348
 5979TIP3    H217881   0.277   6.000   1.424
 5980TIP3   OH217882   3.439   3.887   2.115
 5980TIP3    H117883   3.477   3.904   2.201
 5980TIP3    H217884   3.367   3.950   2.108
 5981TIP3   OH217885   2.936   2.237   6.357
 5981TIP3    H117886   2.885   2.301   6.406
 5981TIP3    H217887   2.964   2.284   6.279
 5982TIP3   OH217888   1.177   1.387   4.697
 5982TIP3    H117889   1.193   1.320   4.762
 5982TIP3    H217890   1.120   1.450   4.741
 5983TIP3   OH217891   1.910   2.568   5.290
 5983TIP3    H117892   1.911   2.618   5.372
 5983TIP3    H217893   1.931   2.479   5.316
 5984TIP3   OH217894   2.408   3.723   0.602
 5984TIP3    H117895   2.500   3.705   0.582
 5984TIP3    H217896   2.361   3.646   0.569
 5985TIP3   OH217897   8.219   4.776   5.427
 5985TIP3    H117898   8.219   4.872   5.422
 5985TIP3    H217899   8.297   4.755   5.478
 5986TIP3   OH217900   5.025   0.871   6.079
 5986TIP3    H117901   4.948   0.895   6.027
 5986TIP3    H217902   5.079   0.950   6.080
 5987TIP3   OH217903   4.390   7.574   6.106
 5987TIP3    H117904   4.340   7.586   6.025
 5987TIP3    H217905   4.480   7.593   6.082
 5988TIP3   OH217906   4.884   3.374   1.707
 5988TIP3    H117907   4.851   3.338   1.625
 5988TIP3    H217908   4.828   3.336   1.775
 5989TIP3   OH217909   1.271   0.528   2.655
 5989TIP3    H117910   1.183   0.544   2.622
 5989TIP3    H217911   1.258   0.468   2.729
 5990TIP3   OH217912   7.567   1.452   2.881
 5990TIP3    H117913   7.598   1.539   2.904
 5990TIP3    H217914   7.473   1.455   2.896
 5991TIP3   OH217915   6.623   6.456   0.467
 5991TIP3    H117916   6.614   6.391   0.398
 5991TIP3    H217917   6.552   6.436   0.528
 5992TIP3   OH217918   3.985   4.340   0.233
 5992TIP3    H117919   3.975   4.318   0.325
 5992TIP3    H217920   3.895   4.344   0.199
 5993TIP3   OH217921   6.854   1.836   0.591
 5993TIP3    H117922   6.815   1.757   0.554
 5993TIP3    H217923   6.909   1.871   0.521
 5994TIP3   OH217924   0.075   5.132   4.107
 5994TIP3    H117925   0.093   5.165   4.195
 5994TIP3    H217926  -0.013   5.165   4.086
 5995TIP3   OH217927   3.043   2.162   5.087
 5995TIP3    H117928   2.957   2.127   5.113
 5995TIP3    H217929   3.075   2.206   5.166
 5996TIP3   OH217930   0.547   6.361   5.511
 5996TIP3    H117931   0.528   6.332   5.600
 5996TIP3    H217932   0.612   6.299   5.478
 5997TIP3   OH217933   2.874   1.386   3.011
 5997TIP3    H117934   2.922   1.350   2.937
 5997TIP3    H217935   2.889   1.325   3.083
 5998TIP3   OH217936   0.352   2.644   2.755
 5998TIP3    H117937   0.294   2.585   2.706
 5998TIP3    H217938   0.405   2.586   2.810
 5999TIP3   OH217939   6.127   5.181   4.905
 5999TIP3    H117940   6.134   5.271   4.935
 5999TIP3    H217941   6.217   5.155   4.886
 6000TIP3   OH217942   5.713   4.754   2.548
 6000TIP3    H117943   5.795   4.782   2.588
 6000TIP3    H217944   5.728   4.662   2.523
 6001TIP3   OH217945   2.654   1.265   6.336
 6001TIP3    H117946   2.698   1.190   6.375
 6001TIP3    H217947   2.725   1.324   6.309
 6002TIP3   OH217948   0.293   7.202   5.674
 6002TIP3    H117949   0.365   7.158   5.718
 6002TIP3    H217950   0.238   7.130   5.640
 6003TIP3   OH217951   2.625   5.701   0.500
 6003TIP3    H117952   2.712   5.673   0.526
 6003TIP3    H217953   2.587   5.625   0.456
 6004TIP3   OH217954   7.226   4.461   3.163
 6004TIP3    H117955   7.311   4.498   3.138
 6004TIP3    H217956   7.243   4.368   3.175
 6005TIP3   OH217957   1.566   4.840   3.725
 6005TIP3    H117958   1.499   4.798   3.672
 6005TIP3    H217959   1.579   4.781   3.799
 6006TIP3   OH217960   7.834   2.740   2.026
 6006TIP3    H117961   7.907   2.790   1.989
 6006TIP3    H217962   7.756   2.784   1.992
 6007TIP3   OH217963   3.877   2.437   6.442
 6007TIP3    H117964   3.788   2.474   6.434
 6007TIP3    H217965   3.921   2.497   6.502
 6008TIP3   OH217966   6.139   2.775   3.891
 6008TIP3    H117967   6.058   2.726   3.876
 6008TIP3    H217968   6.139   2.795   3.984
 6009TIP3   OH217969   3.794   7.543   2.661
 6009TIP3    H117970   3.832   7.626   2.631
 6009TIP3    H217971   3.866   7.480   2.656
 6010TIP3   OH217972   4.064   4.286   1.960
 6010TIP3    H117973   4.150   4.311   1.925
 6010TIP3    H217974   4.001   4.326   1.901
 6011TIP3   OH217975   1.100   4.013   1.872
 6011TIP3    H117976   1.186   4.034   1.838
 6011TIP3    H217977   1.117   3.960   1.950
 6012TIP3   OH217978   6.655   7.809   5.066
 6012TIP3    H117979   6.593   7.736   5.072
 6012TIP3    H217980   6.736   7.769   5.036
 6013TIP3   OH217981   2.173   4.689   1.545
 6013TIP3    H117982   2.105   4.631   1.580
 6013TIP3    H217983   2.254   4.659   1.584
 6014TIP3   OH217984   2.750   0.483   6.578
 6014TIP3    H117985   2.786   0.525   6.657
 6014TIP3    H217986   2.768   0.545   6.508
 6015TIP3   OH217987   6.057   0.866   3.208
 6015TIP3    H117988   6.037   0.940   3.266
 6015TIP3    H217989   6.058   0.790   3.265
 6016TIP3   OH217990   3.923   0.928   3.485
 6016TIP3    H117991   3.831   0.931   3.457
 6016TIP3    H217992   3.924   0.867   3.558
 6017TIP3   OH217993   6.100   0.072   0.389
 6017TIP3    H117994   6.139   0.016   0.456
 6017TIP3    H217995   6.155   0.150   0.387
 6018TIP3   OH217996   0.747   4.750   4.843
 6018TIP3    H117997   0.781   4.839   4.845
 6018TIP3    H217998   0.680   4.748   4.912
 6019TIP3   OH217999   3.798   2.576   5.733
 6019TIP3    H118000   3.718   2.590   5.682
 6019TIP3    H218001   3.863   2.631   5.690
 6020TIP3   OH218002   0.214   5.000   2.844
 6020TIP3    H118003   0.217   4.979   2.751
 6020TIP3    H218004   0.304   5.023   2.867
 6021TIP3   OH218005   4.892   4.129   5.191
 6021TIP3    H118006   4.980   4.094   5.177
 6021TIP3    H218007   4.848   4.119   5.107
 6022TIP3   OH218008   5.651   4.791   5.332
 6022TIP3    H118009   5.578   4.841   5.370
 6022TIP3    H218010   5.609   4.730   5.272
 6023TIP3   OH218011   6.572   4.798   1.625
 6023TIP3    H118012   6.505   4.853   1.665
 6023TIP3    H218013   6.654   4.843   1.645
 6024TIP3   OH218014   7.655   4.449   5.161
 6024TIP3    H118015   7.711   4.526   5.147
 6024TIP3    H218016   7.693   4.407   5.239
 6025TIP3   OH218017   1.192   5.208   2.280
 6025TIP3    H118018   1.143   5.127   2.296
 6025TIP3    H218019   1.132   5.263   2.231
 6026TIP3   OH218020   5.665   4.246   5.382
 6026TIP3    H118021   5.706   4.170   5.425
 6026TIP3    H218022   5.573   4.222   5.376
 6027TIP3   OH218023   3.517   7.753   4.439
 6027TIP3    H118024   3.434   7.742   4.485
 6027TIP3    H218025   3.561   7.668   4.448
 6028TIP3   OH218026   5.605   6.583   0.058
 6028TIP3    H118027   5.532   6.532   0.023
 6028TIP3    H218028   5.598   6.669   0.016
 6029TIP3   OH218029   5.240   2.860   2.307
 6029TIP3    H118030   5.215   2.918   2.379
 6029TIP3    H218031   5.332   2.880   2.290
 6030TIP3   OH218032   3.610   5.591   6.566
 6030TIP3    H118033   3.520   5.607   6.538
 6030TIP3    H218034   3.602   5.525   6.635
 6031TIP3   OH218035   8.025   0.232   6.388
 6031TIP3    H118036   7.954   0.186   6.343
 6031TIP3    H218037   8.030   0.317   6.343
 6032TIP3   OH218038   7.092   0.617   1.059
 6032TIP3    H118039   7.144   0.560   1.115
 6032TIP3    H218040   7.003   0.582   1.065
 6033TIP3   OH218041   1.885   5.458   2.313
 6033TIP3    H118042   1.834   5.381   2.341
 6033TIP3    H218043   1.953   5.467   2.380
 6034TIP3   OH218044   2.074   5.565   1.481
 6034TIP3    H118045   2.025   5.555   1.400
 6034TIP3    H218046   2.049   5.489   1.534
 6035TIP3   OH218047   3.872   6.707   2.862
 6035TIP3    H118048   3.816   6.761   2.806
 6035TIP3    H218049   3.924   6.770   2.912
 6036TIP3   OH218050   5.169   2.031   1.438
 6036TIP3    H118051   5.107   2.069   1.501
 6036TIP3    H218052   5.179   1.940   1.465
 6037TIP3   OH218053   3.400   7.445   4.957
 6037TIP3    H118054   3.394   7.376   4.891
 6037TIP3    H218055   3.319   7.436   5.007
 6038TIP3   OH218056   5.465   6.392   5.992
 6038TIP3    H118057   5.553   6.419   6.020
 6038TIP3    H218058   5.451   6.440   5.910
 6039TIP3   OH218059   0.961   6.459   0.031
 6039TIP3    H118060   0.981   6.550   0.010
 6039TIP3    H218061   1.019   6.437   0.104
 6040TIP3   OH218062   6.550   0.722   3.802
 6040TIP3    H118063   6.482   0.679   3.853
 6040TIP3    H218064   6.579   0.795   3.856
 6041TIP3   OH218065   1.761   3.998   4.272
 6041TIP3    H118066   1.815   3.939   4.219
 6041TIP3    H218067   1.792   3.983   4.362
 6042TIP3   OH218068   1.381   1.577   0.400
 6042TIP3    H118069   1.394   1.532   0.483
 6042TIP3    H218070   1.468   1.607   0.376
 6043TIP3   OH218071   1.440   6.634   6.191
 6043TIP3    H118072   1.514   6.672   6.239
 6043TIP3    H218073   1.410   6.562   6.247
 6044TIP3   OH218074   6.606   4.810   6.018
 6044TIP3    H118075   6.569   4.831   6.104
 6044TIP3    H218076   6.631   4.895   5.981
 6045TIP3   OH218077   5.372   3.819   3.020
 6045TIP3    H118078   5.404   3.896   3.066
 6045TIP3    H218079   5.308   3.780   3.080
 6046TIP3   OH218080   5.727   2.116   4.193
 6046TIP3    H118081   5.703   2.206   4.173
 6046TIP3    H218082   5.712   2.108   4.287
 6047TIP3   OH218083   5.702   0.664   0.083
 6047TIP3    H118084   5.764   0.666   0.011
 6047TIP3    H218085   5.755   0.649   0.161
 6048TIP3   OH218086   7.430   2.912   4.451
 6048TIP3    H118087   7.359   2.975   4.435
 6048TIP3    H218088   7.493   2.961   4.505
 6049TIP3   OH218089   5.514   6.177   5.445
 6049TIP3    H118090   5.503   6.270   5.424
 6049TIP3    H218091   5.424   6.144   5.452
 6050TIP3   OH218092   0.879   3.452   5.992
 6050TIP3    H118093   0.954   3.488   6.038
 6050TIP3    H218094   0.830   3.529   5.961
 6051TIP3   OH218095   1.247   5.117   3.401
 6051TIP3    H118096   1.172   5.143   3.453
 6051TIP3    H218097   1.230   5.153   3.314
 6052TIP3   OH218098   7.476   4.806   6.711
 6052TIP3    H118099   7.539   4.748   6.754
 6052TIP3    H218100   7.447   4.757   6.634
 6053TIP3   OH218101   7.802   1.651   4.471
 6053TIP3    H118102   7.828   1.582   4.531
 6053TIP3    H218103   7.883   1.695   4.447
 6054TIP3   OH218104   1.571   7.494   0.379
 6054TIP3    H118105   1.665   7.500   0.399
 6054TIP3    H218106   1.528   7.496   0.464
 6055TIP3   OH218107   1.681   3.354   6.463
 6055TIP3    H118108   1.755   3.408   6.491
 6055TIP3    H218109   1.624   3.350   6.540
 6056TIP3   OH218110   1.150   5.185   1.282
 6056TIP3    H118111   1.055   5.183   1.277
 6056TIP3    H218112   1.174   5.103   1.326
 6057TIP3   OH218113   8.254   1.523   5.497
 6057TIP3    H118114   8.232   1.430   5.490
 6057TIP3    H218115   8.169   1.567   5.501
 6058TIP3   OH218116   2.937   5.225   3.043
 6058TIP3    H118117   2.959   5.138   3.077
 6058TIP3    H218118   2.952   5.218   2.949
 6059TIP3   OH218119   3.681   0.125   1.912
 6059TIP3    H118120   3.656   0.154   1.999
 6059TIP3    H218121   3.702   0.206   1.865
 6060TIP3   OH218122   5.389   5.570   5.363
 6060TIP3    H118123   5.397   5.666   5.365
 6060TIP3    H218124   5.364   5.547   5.452
 6061TIP3   OH218125   7.546   0.076   0.364
 6061TIP3    H118126   7.617   0.056   0.426
 6061TIP3    H218127   7.524   0.167   0.383
 6062TIP3   OH218128   6.052   0.312   1.578
 6062TIP3    H118129   5.957   0.312   1.592
 6062TIP3    H218130   6.078   0.220   1.584
 6063TIP3   OH218131   6.173   1.167   0.084
 6063TIP3    H118132   6.250   1.110   0.082
 6063TIP3    H218133   6.146   1.174  -0.007
 6064TIP3   OH218134   6.317   6.843   2.393
 6064TIP3    H118135   6.313   6.748   2.409
 6064TIP3    H218136   6.409   6.860   2.375
 6065TIP3   OH218137   0.832   4.055   1.842
 6065TIP3    H118138   0.792   3.991   1.901
 6065TIP3    H218139   0.925   4.051   1.862
 6066TIP3   OH218140   7.769   1.882   1.167
 6066TIP3    H118141   7.691   1.839   1.130
 6066TIP3    H218142   7.757   1.975   1.144
 6067TIP3   OH218143   6.892   1.902   5.761
 6067TIP3    H118144   6.812   1.866   5.723
 6067TIP3    H218145   6.920   1.837   5.825
 6068TIP3   OH218146   7.611   4.820   3.581
 6068TIP3    H118147   7.678   4.797   3.518
 6068TIP3    H218148   7.529   4.819   3.531
 6069TIP3   OH218149   0.354   1.880   4.374
 6069TIP3    H118150   0.417   1.937   4.418
 6069TIP3    H218151   0.397   1.795   4.370
 6070TIP3   OH218152   1.866   0.658   4.124
 6070TIP3    H118153   1.909   0.658   4.038
 6070TIP3    H218154   1.890   0.574   4.163
 6071TIP3   OH218155   8.050   0.972   1.007
 6071TIP3    H118156   8.114   1.013   1.065
 6071TIP3    H218157   8.081   0.993   0.918
 6072TIP3   OH218158   5.442   4.622   1.983
 6072TIP3    H118159   5.530   4.583   1.986
 6072TIP3    H218160   5.435   4.672   2.064
 6073TIP3   OH218161   6.784   2.846   0.695
 6073TIP3    H118162   6.817   2.868   0.608
 6073TIP3    H218163   6.731   2.922   0.721
 6074TIP3   OH218164   0.990   1.134   5.060
 6074TIP3    H118165   0.914   1.095   5.017
 6074TIP3    H218166   0.953   1.199   5.120
 6075TIP3   OH218167   7.333   1.934   4.359
 6075TIP3    H118168   7.357   1.855   4.407
 6075TIP3    H218169   7.279   1.903   4.287
 6076TIP3   OH218170   4.257   7.668   4.248
 6076TIP3    H118171   4.316   7.596   4.267
 6076TIP3    H218172   4.295   7.744   4.293
 6077TIP3   OH218173   6.230   2.670   2.256
 6077TIP3    H118174   6.246   2.576   2.253
 6077TIP3    H218175   6.207   2.693   2.166
 6078TIP3   OH218176   0.899   7.187   6.718
 6078TIP3    H118177   0.819   7.133   6.715
 6078TIP3    H218178   0.897   7.236   6.636
 6079TIP3   OH218179   6.146   1.777   4.013
 6079TIP3    H118180   6.228   1.745   4.052
 6079TIP3    H218181   6.091   1.798   4.088
 6080TIP3   OH218182   0.123   6.048   2.362
 6080TIP3    H118183   0.075   6.016   2.285
 6080TIP3    H218184   0.094   6.138   2.372
 6081TIP3   OH218185   3.641   4.343   4.106
 6081TIP3    H118186   3.576   4.293   4.155
 6081TIP3    H218187   3.618   4.327   4.014
 6082TIP3   OH218188   4.632   1.589   3.384
 6082TIP3    H118189   4.543   1.564   3.360
 6082TIP3    H218190   4.626   1.611   3.477
 6083TIP3   OH218191   1.738   0.726   2.643
 6083TIP3    H118192   1.674   0.655   2.652
 6083TIP3    H218193   1.696   0.801   2.686
 6084TIP3   OH218194   4.618   6.418   1.171
 6084TIP3    H118195   4.702   6.434   1.129
 6084TIP3    H218196   4.640   6.386   1.258
 6085TIP3   OH218197   5.354   1.468   0.822
 6085TIP3    H118198   5.386   1.399   0.879
 6085TIP3    H218199   5.325   1.423   0.743
 6086TIP3   OH218200   1.521   2.058   3.871
 6086TIP3    H118201   1.522   1.967   3.899
 6086TIP3    H218202   1.613   2.081   3.857
 6087TIP3   OH218203   6.004   6.027   2.454
 6087TIP3    H118204   6.023   6.096   2.517
 6087TIP3    H218205   5.909   6.026   2.446
 6088TIP3   OH218206   5.630   2.285   6.153
 6088TIP3    H118207   5.626   2.377   6.128
 6088TIP3    H218208   5.631   2.238   6.070
 6089TIP3   OH218209   3.622   0.638   6.315
 6089TIP3    H118210   3.688   0.586   6.270
 6089TIP3    H218211   3.639   0.728   6.287
 6090TIP3   OH218212   5.146   7.286   2.511
 6090TIP3    H118213   5.232   7.293   2.469
 6090TIP3    H218214   5.088   7.337   2.455
 6091TIP3   OH218215   2.041   3.078   0.720
 6091TIP3    H118216   2.041   3.076   0.625
 6091TIP3    H218217   2.064   3.168   0.742
 6092TIP3   OH218218   2.714   4.445   3.069
 6092TIP3    H118219   2.764   4.395   3.004
 6092TIP3    H218220   2.779   4.503   3.109
 6093TIP3   OH218221   4.678   0.715   4.999
 6093TIP3    H118222   4.770   0.734   4.981
 6093TIP3    H218223   4.663   0.750   5.087
 6094TIP3   OH218224   5.050   5.697   2.349
 6094TIP3    H118225   4.988   5.639   2.392
 6094TIP3    H218226   5.044   5.779   2.398
 6095TIP3   OH218227   1.415   1.561   2.121
 6095TIP3    H118228   1.463   1.571   2.204
 6095TIP3    H218229   1.390   1.469   2.120
 6096TIP3   OH218230   0.916   4.654   4.320
 6096TIP3    H118231   0.834   4.684   4.280
 6096TIP3    H218232   0.930   4.712   4.394
 6097TIP3   OH218233   2.395   0.732   6.547
 6097TIP3    H118234   2.371   0.670   6.617
 6097TIP3    H218235   2.455   0.793   6.589
 6098TIP3   OH218236   7.883   6.616   1.061
 6098TIP3    H118237   7.808   6.673   1.078
 6098TIP3    H218238   7.924   6.652   0.982
 6099TIP3   OH218239   6.859   7.307   6.353
 6099TIP3    H118240   6.764   7.303   6.356
 6099TIP3    H218241   6.888   7.253   6.426
 6100TIP3   OH218242   1.683   0.975   3.838
 6100TIP3    H118243   1.751   0.964   3.772
 6100TIP3    H218244   1.712   1.050   3.890
 6101TIP3   OH218245   4.387   4.808   1.113
 6101TIP3    H118246   4.456   4.873   1.124
 6101TIP3    H218247   4.318   4.853   1.066
 6102TIP3   OH218248   0.990   5.781   3.690
 6102TIP3    H118249   1.009   5.781   3.597
 6102TIP3    H218250   1.074   5.797   3.733
 6103TIP3   OH218251   2.837   7.198   4.452
 6103TIP3    H118252   2.826   7.275   4.508
 6103TIP3    H218253   2.768   7.206   4.387
 6104TIP3   OH218254   6.071   6.962   2.399
 6104TIP3    H118255   6.041   6.904   2.469
 6104TIP3    H218256   6.160   6.933   2.380
 6105TIP3   OH218257   5.363   1.606   1.272
 6105TIP3    H118258   5.453   1.630   1.249
 6105TIP3    H218259   5.341   1.535   1.212
 6106TIP3   OH218260   7.441   5.170   4.813
 6106TIP3    H118261   7.444   5.181   4.717
 6106TIP3    H218262   7.392   5.089   4.826
 6107TIP3   OH218263   0.898   7.415   4.173
 6107TIP3    H118264   0.851   7.459   4.102
 6107TIP3    H218265   0.856   7.330   4.181
 6108TIP3   OH218266   5.549   6.148   6.102
 6108TIP3    H118267   5.505   6.230   6.078
 6108TIP3    H218268   5.599   6.124   6.024
 6109TIP3   OH218269   0.809   7.251   4.485
 6109TIP3    H118270   0.742   7.282   4.546
 6109TIP3    H218271   0.766   7.253   4.400
 6110TIP3   OH218272   3.323   7.762   6.605
 6110TIP3    H118273   3.328   7.857   6.604
 6110TIP3    H218274   3.233   7.742   6.631
 6111TIP3   OH218275   5.643   6.269   2.447
 6111TIP3    H118276   5.569   6.329   2.460
 6111TIP3    H218277   5.603   6.183   2.439
 6112TIP3   OH218278   5.209   1.009   4.664
 6112TIP3    H118279   5.258   0.967   4.734
 6112TIP3    H218280   5.170   1.087   4.705
 6113TIP3   OH218281   1.792   6.702   2.301
 6113TIP3    H118282   1.812   6.785   2.344
 6113TIP3    H218283   1.700   6.684   2.323
 6114TIP3   OH218284   3.286   0.474   1.512
 6114TIP3    H118285   3.301   0.481   1.418
 6114TIP3    H218286   3.368   0.440   1.547
 6115TIP3   OH218287   5.888   0.876   1.445
 6115TIP3    H118288   5.865   0.786   1.470
 6115TIP3    H218289   5.968   0.866   1.392
 6116TIP3   OH218290   2.075   5.397   6.553
 6116TIP3    H118291   2.068   5.339   6.629
 6116TIP3    H218292   1.995   5.380   6.503
 6117TIP3   OH218293   7.665   7.231   4.488
 6117TIP3    H118294   7.736   7.167   4.495
 6117TIP3    H218295   7.604   7.207   4.559
 6118TIP3   OH218296   6.639   7.847   2.289
 6118TIP3    H118297   6.636   7.820   2.198
 6118TIP3    H218298   6.702   7.788   2.330
 6119TIP3   OH218299   6.883   0.242   6.283
 6119TIP3    H118300   6.853   0.200   6.202
 6119TIP3    H218301   6.978   0.237   6.280
 6120TIP3   OH218302   3.609   2.695   2.100
 6120TIP3    H118303   3.520   2.689   2.134
 6120TIP3    H218304   3.641   2.780   2.129
 6121TIP3   OH218305   8.201   1.394   0.662
 6121TIP3    H118306   8.185   1.445   0.741
 6121TIP3    H218307   8.140   1.431   0.597
 6122TIP3   OH218308   6.416   5.419   6.578
 6122TIP3    H118309   6.440   5.341   6.529
 6122TIP3    H218310   6.359   5.468   6.518
 6123TIP3   OH218311   2.283   5.448   3.827
 6123TIP3    H118312   2.284   5.353   3.836
 6123TIP3    H218313   2.369   5.470   3.791
 6124TIP3   OH218314   4.816   6.105   2.351
 6124TIP3    H118315   4.853   6.144   2.272
 6124TIP3    H218316   4.813   6.011   2.333
 6125TIP3   OH218317   6.326   3.944   2.033
 6125TIP3    H118318   6.243   3.901   2.013
 6125TIP3    H218319   6.329   3.948   2.128
 6126TIP3   OH218320   1.637   2.727   3.816
 6126TIP3    H118321   1.605   2.668   3.748
 6126TIP3    H218322   1.720   2.762   3.781
 6127TIP3   OH218323   6.747   6.476   3.137
 6127TIP3    H118324   6.776   6.515   3.055
 6127TIP3    H218325   6.657   6.447   3.119
 6128TIP3   OH218326   3.439   3.068   4.298
 6128TIP3    H118327   3.352   3.030   4.289
 6128TIP3    H218328   3.423   3.162   4.311
 6129TIP3   OH218329   1.495   1.863   3.278
 6129TIP3    H118330   1.429   1.914   3.231
 6129TIP3    H218331   1.575   1.916   3.272
 6130TIP3   OH218332   2.352   1.408   0.769
 6130TIP3    H118333   2.355   1.479   0.705
 6130TIP3    H218334   2.275   1.357   0.746
 6131TIP3   OH218335   4.692   2.963   2.773
 6131TIP3    H118336   4.745   2.933   2.699
 6131TIP3    H218337   4.755   3.003   2.833
 6132TIP3   OH218338   5.799   4.904   3.433
 6132TIP3    H118339   5.750   4.843   3.378
 6132TIP3    H218340   5.885   4.864   3.442
 6133TIP3   OH218341   5.795   4.209   0.522
 6133TIP3    H118342   5.711   4.164   0.512
 6133TIP3    H218343   5.775   4.286   0.575
 6134TIP3   OH218344   4.655   7.201   5.919
 6134TIP3    H118345   4.719   7.267   5.894
 6134TIP3    H218346   4.581   7.250   5.954
 6135TIP3   OH218347   1.433   7.598   2.221
 6135TIP3    H118348   1.412   7.562   2.308
 6135TIP3    H218349   1.503   7.542   2.189
 6136TIP3   OH218350   1.582   3.110   2.235
 6136TIP3    H118351   1.617   3.077   2.318
 6136TIP3    H218352   1.561   3.202   2.252
 6137TIP3   OH218353   3.800   3.632   3.151
 6137TIP3    H118354   3.891   3.636   3.123
 6137TIP3    H218355   3.802   3.588   3.235
 6138TIP3   OH218356   4.320   5.554   2.149
 6138TIP3    H118357   4.415   5.550   2.155
 6138TIP3    H218358   4.288   5.532   2.236
 6139TIP3   OH218359   4.962   4.145   6.124
 6139TIP3    H118360   5.054   4.131   6.104
 6139TIP3    H218361   4.942   4.082   6.193
 6140TIP3   OH218362   3.215   4.897   0.167
 6140TIP3    H118363   3.174   4.903   0.081
 6140TIP3    H218364   3.159   4.837   0.216
 6141TIP3   OH218365   1.528   6.815   5.398
 6141TIP3    H118366   1.622   6.814   5.384
 6141TIP3    H218367   1.493   6.747   5.340
 6142TIP3   OH218368   5.973   4.728   3.639
 6142TIP3    H118369   5.903   4.715   3.704
 6142TIP3    H218370   5.971   4.648   3.586
 6143TIP3   OH218371   0.473   7.634   4.551
 6143TIP3    H118372   0.405   7.570   4.575
 6143TIP3    H218373   0.425   7.715   4.534
 6144TIP3   OH218374   4.526   1.067   2.604
 6144TIP3    H118375   4.465   1.020   2.660
 6144TIP3    H218376   4.522   1.023   2.519
 6145TIP3   OH218377   7.233   7.377   6.558
 6145TIP3    H118378   7.328   7.377   6.552
 6145TIP3    H218379   7.214   7.328   6.638
 6146TIP3   OH218380   1.096   4.020   4.870
 6146TIP3    H118381   1.057   3.934   4.851
 6146TIP3    H218382   1.105   4.061   4.785
 6147TIP3   OH218383   5.824   1.707   5.858
 6147TIP3    H118384   5.741   1.700   5.809
 6147TIP3    H218385   5.833   1.623   5.902
 6148TIP3   OH218386   3.884   1.782   5.235
 6148TIP3    H118387   3.891   1.801   5.142
 6148TIP3    H218388   3.795   1.808   5.259
 6149TIP3   OH218389   5.439   7.642   0.138
 6149TIP3    H118390   5.353   7.674   0.166
 6149TIP3    H218391   5.493   7.721   0.131
 6150TIP3   OH218392   7.022   6.129   0.989
 6150TIP3    H118393   6.952   6.154   0.928
 6150TIP3    H218394   7.040   6.037   0.968
 6151TIP3   OH218395   1.018   5.780   3.143
 6151TIP3    H118396   1.094   5.762   3.088
 6151TIP3    H218397   0.952   5.815   3.083
 6152TIP3   OH218398   0.652   3.513   5.773
 6152TIP3    H118399   0.689   3.597   5.798
 6152TIP3    H218400   0.558   3.523   5.789
 6153TIP3   OH218401   3.787   5.209   0.470
 6153TIP3    H118402   3.741   5.126   0.458
 6153TIP3    H218403   3.878   5.189   0.449
 6154TIP3   OH218404   5.806   3.805   1.059
 6154TIP3    H118405   5.770   3.889   1.033
 6154TIP3    H218406   5.825   3.760   0.976
 6155TIP3   OH218407   4.456   4.427   4.137
 6155TIP3    H118408   4.389   4.451   4.201
 6155TIP3    H218409   4.419   4.453   4.053
 6156TIP3   OH218410   2.484   0.910   4.000
 6156TIP3    H118411   2.484   0.989   4.053
 6156TIP3    H218412   2.434   0.933   3.921
 6157TIP3   OH218413   0.131   3.855   4.321
 6157TIP3    H118414   0.069   3.823   4.255
 6157TIP3    H218415   0.076   3.889   4.391
 6158TIP3   OH218416   5.695   1.711   3.407
 6158TIP3    H118417   5.622   1.768   3.431
 6158TIP3    H218418   5.686   1.635   3.465
 6159TIP3   OH218419   5.588   0.181   5.258
 6159TIP3    H118420   5.648   0.108   5.270
 6159TIP3    H218421   5.504   0.148   5.289
 6160TIP3   OH218422   7.272   6.927   5.829
 6160TIP3    H118423   7.298   7.004   5.779
 6160TIP3    H218424   7.177   6.930   5.830
 6161TIP3   OH218425   6.851   6.067   2.546
 6161TIP3    H118426   6.778   6.011   2.520
 6161TIP3    H218427   6.929   6.021   2.516
 6162TIP3   OH218428   7.808   3.135   0.298
 6162TIP3    H118429   7.793   3.042   0.280
 6162TIP3    H218430   7.775   3.148   0.387
 6163TIP3   OH218431   3.010   7.658   0.141
 6163TIP3    H118432   3.084   7.709   0.175
 6163TIP3    H218433   3.052   7.587   0.091
 6164TIP3   OH218434   5.907   6.679   4.214
 6164TIP3    H118435   5.968   6.665   4.142
 6164TIP3    H218436   5.820   6.678   4.173
 6165TIP3   OH218437   7.312   1.656   0.740
 6165TIP3    H118438   7.226   1.649   0.783
 6165TIP3    H218439   7.304   1.732   0.683
 6166TIP3   OH218440   6.019   1.188   5.275
 6166TIP3    H118441   5.977   1.258   5.224
 6166TIP3    H218442   6.075   1.234   5.337
 6167TIP3   OH218443   8.137   2.956   0.457
 6167TIP3    H118444   8.119   2.982   0.547
 6167TIP3    H218445   8.222   2.995   0.437
 6168TIP3   OH218446   3.366   7.487   4.006
 6168TIP3    H118447   3.346   7.580   4.017
 6168TIP3    H218448   3.291   7.452   3.958
 6169TIP3   OH218449   7.396   1.519   5.999
 6169TIP3    H118450   7.361   1.516   6.088
 6169TIP3    H218451   7.424   1.610   5.987
 6170TIP3   OH218452   4.525   7.334   5.304
 6170TIP3    H118453   4.514   7.386   5.224
 6170TIP3    H218454   4.619   7.316   5.309
 6171TIP3   OH218455   1.678   2.442   6.189
 6171TIP3    H118456   1.685   2.439   6.284
 6171TIP3    H218457   1.740   2.510   6.163
 6172TIP3   OH218458   7.230   7.309   2.399
 6172TIP3    H118459   7.287   7.237   2.373
 6172TIP3    H218460   7.236   7.371   2.326
 6173TIP3   OH218461   3.703   5.904   5.825
 6173TIP3    H118462   3.745   5.834   5.875
 6173TIP3    H218463   3.633   5.935   5.882
 6174TIP3   OH218464   3.391   2.092   5.869
 6174TIP3    H118465   3.305   2.052   5.867
 6174TIP3    H218466   3.446   2.029   5.916
 6175TIP3   OH218467   2.256   1.079   2.578
 6175TIP3    H118468   2.285   1.109   2.492
 6175TIP3    H218469   2.311   1.002   2.596
 6176TIP3   OH218470   5.240   6.732   5.230
 6176TIP3    H118471   5.162   6.678   5.243
 6176TIP3    H218472   5.209   6.808   5.180
 6177TIP3   OH218473   6.712   6.696   6.313
 6177TIP3    H118474   6.783   6.720   6.373
 6177TIP3    H218475   6.633   6.729   6.355
 6178TIP3   OH218476   5.602   3.297   0.683
 6178TIP3    H118477   5.532   3.232   0.683
 6178TIP3    H218478   5.628   3.304   0.591
 6179TIP3   OH218479   3.372   6.463   4.356
 6179TIP3    H118480   3.294   6.507   4.389
 6179TIP3    H218481   3.338   6.392   4.302
 6180TIP3   OH218482   6.535   5.200   2.053
 6180TIP3    H118483   6.474   5.228   2.121
 6180TIP3    H218484   6.586   5.129   2.093
 6181TIP3   OH218485   6.438   1.082   5.853
 6181TIP3    H118486   6.472   1.060   5.940
 6181TIP3    H218487   6.511   1.125   5.809
 6182TIP3   OH218488   4.555   4.955   3.742
 6182TIP3    H118489   4.485   4.996   3.794
 6182TIP3    H218490   4.561   5.010   3.664
 6183TIP3   OH218491   1.305   0.951   0.477
 6183TIP3    H118492   1.290   0.897   0.400
 6183TIP3    H218493   1.313   1.040   0.444
 6184TIP3   OH218494   1.256   1.254   3.444
 6184TIP3    H118495   1.309   1.181   3.412
 6184TIP3    H218496   1.308   1.291   3.515
 6185TIP3   OH218497   0.230   2.161   0.056
 6185TIP3    H118498   0.164   2.195  -0.004
 6185TIP3    H218499   0.182   2.137   0.135
 6186TIP3   OH218500   4.540   4.939   5.420
 6186TIP3    H118501   4.509   4.917   5.332
 6186TIP3    H218502   4.500   4.873   5.476
 6187TIP3   OH218503   2.758   5.007   2.155
 6187TIP3    H118504   2.851   5.024   2.172
 6187TIP3    H218505   2.714   5.033   2.236
 6188TIP3   OH218506   8.027   2.314   5.943
 6188TIP3    H118507   7.948   2.330   5.891
 6188TIP3    H218508   8.007   2.354   6.028
 6189TIP3   OH218509   4.838   5.490   4.051
 6189TIP3    H118510   4.849   5.560   4.115
 6189TIP3    H218511   4.831   5.410   4.102
 6190TIP3   OH218512   4.116   7.011   5.946
 6190TIP3    H118513   4.089   6.939   6.003
 6190TIP3    H218514   4.062   7.085   5.974
 6191TIP3   OH218515   5.436   0.503   4.047
 6191TIP3    H118516   5.452   0.417   4.009
 6191TIP3    H218517   5.351   0.529   4.011
 6192TIP3   OH218518   3.319   5.408   3.239
 6192TIP3    H118519   3.254   5.428   3.171
 6192TIP3    H218520   3.280   5.440   3.320
 6193TIP3   OH218521   7.633   3.653   0.776
 6193TIP3    H118522   7.687   3.679   0.702
 6193TIP3    H218523   7.554   3.615   0.737
 6194TIP3   OH218524   7.203   1.037   5.301
 6194TIP3    H118525   7.117   1.076   5.287
 6194TIP3    H218526   7.266   1.103   5.273
 6195TIP3   OH218527   0.660   3.422   4.625
 6195TIP3    H118528   0.661   3.350   4.561
 6195TIP3    H218529   0.723   3.395   4.692
 6196TIP3   OH218530   6.403   1.019   0.190
 6196TIP3    H118531   6.473   1.073   0.226
 6196TIP3    H218532   6.447   0.939   0.160
 6197TIP3   OH218533   4.105   1.548   2.443
 6197TIP3    H118534   4.187   1.520   2.486
 6197TIP3    H218535   4.037   1.500   2.490
 6198TIP3   OH218536   2.080   0.873   1.759
 6198TIP3    H118537   2.149   0.833   1.813
 6198TIP3    H218538   2.015   0.803   1.747
 6199TIP3   OH218539   3.083   5.178   6.495
 6199TIP3    H118540   3.156   5.116   6.495
 6199TIP3    H218541   3.034   5.158   6.416
 6200TIP3   OH218542   1.958   2.726   6.589
 6200TIP3    H118543   1.918   2.810   6.569
 6200TIP3    H218544   2.037   2.723   6.534
 6201TIP3   OH218545   2.944   5.639   0.252
 6201TIP3    H118546   2.902   5.649   0.167
 6201TIP3    H218547   2.927   5.548   0.277
 6202TIP3   OH218548   3.712   0.067   5.213
 6202TIP3    H118549   3.621   0.045   5.232
 6202TIP3    H218550   3.754  -0.018   5.197
 6203TIP3   OH218551   6.396   0.058   4.846
 6203TIP3    H118552   6.490   0.077   4.846
 6203TIP3    H218553   6.359   0.124   4.904
 6204TIP3   OH218554   7.603   2.314   5.554
 6204TIP3    H118555   7.561   2.301   5.468
 6204TIP3    H218556   7.608   2.227   5.592
 6205TIP3   OH218557   4.066   3.303   5.297
 6205TIP3    H118558   3.970   3.303   5.303
 6205TIP3    H218559   4.090   3.395   5.286
 6206TIP3   OH218560   4.634   1.466   1.767
 6206TIP3    H118561   4.608   1.395   1.709
 6206TIP3    H218562   4.641   1.427   1.853
 6207TIP3   OH218563   3.294   7.031   1.616
 6207TIP3    H118564   3.226   7.027   1.549
 6207TIP3    H218565   3.267   6.965   1.680
 6208TIP3   OH218566   7.709   3.251   2.239
 6208TIP3    H118567   7.802   3.227   2.242
 6208TIP3    H218568   7.667   3.190   2.300
 6209TIP3   OH218569   8.043   0.788   3.405
 6209TIP3    H118570   7.982   0.767   3.476
 6209TIP3    H218571   8.023   0.725   3.336
 6210TIP3   OH218572   1.944   3.115   1.006
 6210TIP3    H118573   1.988   3.153   0.929
 6210TIP3    H218574   1.865   3.075   0.971
 6211TIP3   OH218575   5.890   5.195   3.355
 6211TIP3    H118576   5.888   5.100   3.339
 6211TIP3    H218577   5.957   5.227   3.295
 6212TIP3   OH218578   7.849   5.305   4.118
 6212TIP3    H118579   7.768   5.350   4.142
 6212TIP3    H218580   7.912   5.375   4.099
 6213TIP3   OH218581   7.565   4.130   0.979
 6213TIP3    H118582   7.525   4.082   0.907
 6213TIP3    H218583   7.656   4.140   0.954
 6214TIP3   OH218584   4.590   6.352   3.059
 6214TIP3    H118585   4.577   6.372   2.966
 6214TIP3    H218586   4.502   6.341   3.094
 6215TIP3   OH218587   1.652   4.404   0.293
 6215TIP3    H118588   1.735   4.375   0.330
 6215TIP3    H218589   1.626   4.478   0.349
 6216TIP3   OH218590   4.055   1.806   5.435
 6216TIP3    H118591   3.992   1.782   5.366
 6216TIP3    H218592   4.120   1.858   5.389
 6217TIP3   OH218593   3.964   7.057   0.233
 6217TIP3    H118594   3.886   7.013   0.199
 6217TIP3    H218595   4.023   7.065   0.158
 6218TIP3   OH218596   0.786   4.660   2.258
 6218TIP3    H118597   0.814   4.626   2.343
 6218TIP3    H218598   0.766   4.582   2.206
 6219TIP3   OH218599   1.769   4.742   6.524
 6219TIP3    H118600   1.681   4.779   6.523
 6219TIP3    H218601   1.769   4.680   6.451
 6220TIP3   OH218602   1.566   0.117   0.088
 6220TIP3    H118603   1.500   0.146   0.025
 6220TIP3    H218604   1.618   0.195   0.107
 6221TIP3   OH218605   4.111   3.667   3.145
 6221TIP3    H118606   4.184   3.622   3.104
 6221TIP3    H218607   4.130   3.664   3.239
 6222TIP3   OH218608   6.344   0.731   4.416
 6222TIP3    H118609   6.254   0.763   4.409
 6222TIP3    H218610   6.336   0.636   4.416
 6223TIP3   OH218611   6.572   2.830   6.783
 6223TIP3    H118612   6.515   2.832   6.860
 6223TIP3    H218613   6.557   2.913   6.739
 6224TIP3   OH218614   5.689   1.910   6.732
 6224TIP3    H118615   5.701   1.895   6.826
 6224TIP3    H218616   5.651   1.829   6.699
 6225TIP3   OH218617   8.221   3.938   1.770
 6225TIP3    H118618   8.312   3.921   1.748
 6225TIP3    H218619   8.222   4.023   1.814
 6226TIP3   OH218620   3.097   3.803   5.963
 6226TIP3    H118621   3.136   3.743   5.900
 6226TIP3    H218622   3.158   3.802   6.038
 6227TIP3   OH218623   7.391   0.471   3.178
 6227TIP3    H118624   7.336   0.395   3.196
 6227TIP3    H218625   7.383   0.525   3.256
 6228TIP3   OH218626   5.146   2.202   5.864
 6228TIP3    H118627   5.158   2.242   5.950
 6228TIP3    H218628   5.232   2.210   5.821
 6229TIP3   OH218629   0.685   0.900   0.146
 6229TIP3    H118630   0.736   0.924   0.223
 6229TIP3    H218631   0.682   0.980   0.093
 6230TIP3   OH218632   0.254   5.960   3.737
 6230TIP3    H118633   0.291   5.953   3.825
 6230TIP3    H218634   0.330   5.966   3.680
 6231TIP3   OH218635   5.422   7.509   1.565
 6231TIP3    H118636   5.458   7.559   1.637
 6231TIP3    H218637   5.486   7.438   1.551
 6232TIP3   OH218638   3.617   3.937   6.238
 6232TIP3    H118639   3.711   3.939   6.219
 6232TIP3    H218640   3.604   4.008   6.302
 6233TIP3   OH218641   6.338   1.093   0.535
 6233TIP3    H118642   6.422   1.128   0.504
 6233TIP3    H218643   6.321   1.138   0.617
 6234TIP3   OH218644   7.668   2.730   5.067
 6234TIP3    H118645   7.755   2.771   5.071
 6234TIP3    H218646   7.680   2.643   5.106
 6235TIP3   OH218647   1.815   0.212   4.050
 6235TIP3    H118648   1.850   0.287   4.098
 6235TIP3    H218649   1.765   0.163   4.115
 6236TIP3   OH218650   7.607   4.006   2.944
 6236TIP3    H118651   7.644   3.946   3.009
 6236TIP3    H218652   7.580   3.950   2.872
 6237TIP3   OH218653   6.981   4.511   3.535
 6237TIP3    H118654   7.073   4.504   3.507
 6237TIP3    H218655   6.938   4.555   3.462
 6238TIP3   OH218656   6.259   7.375   1.340
 6238TIP3    H118657   6.241   7.446   1.402
 6238TIP3    H218658   6.180   7.369   1.286
 6239TIP3   OH218659   2.365   5.636   1.451
 6239TIP3    H118660   2.355   5.580   1.374
 6239TIP3    H218661   2.282   5.628   1.497
 6240TIP3   OH218662   1.444   3.085   0.650
 6240TIP3    H118663   1.488   3.005   0.622
 6240TIP3    H218664   1.513   3.152   0.647
 6241TIP3   OH218665   5.825   2.512   2.083
 6241TIP3    H118666   5.832   2.476   1.994
 6241TIP3    H218667   5.830   2.607   2.071
 6242TIP3   OH218668   7.233   6.856   1.159
 6242TIP3    H118669   7.176   6.933   1.154
 6242TIP3    H218670   7.175   6.781   1.146
 6243TIP3   OH218671   7.979   5.047   6.001
 6243TIP3    H118672   7.993   5.081   6.089
 6243TIP3    H218673   7.998   5.121   5.943
 6244TIP3   OH218674   7.792   7.604   4.201
 6244TIP3    H118675   7.749   7.527   4.239
 6244TIP3    H218676   7.755   7.612   4.114
 6245TIP3   OH218677   2.405   6.800   3.078
 6245TIP3    H118678   2.339   6.769   3.016
 6245TIP3    H218679   2.394   6.744   3.154
 6246TIP3   OH218680   7.850   4.985   1.683
 6246TIP3    H118681   7.868   4.894   1.705
 6246TIP3    H218682   7.899   5.001   1.602
 6247TIP3   OH218683   7.010   1.123   4.738
 6247TIP3    H118684   6.952   1.058   4.779
 6247TIP3    H218685   6.950   1.189   4.704
 6248TIP3   OH218686   0.676   5.896   0.801
 6248TIP3    H118687   0.582   5.896   0.785
 6248TIP3    H218688   0.715   5.897   0.713
 6249TIP3   OH218689   1.326   0.604   6.203
 6249TIP3    H118690   1.285   0.607   6.290
 6249TIP3    H218691   1.252   0.596   6.143
 6250TIP3   OH218692   6.572   1.374   1.584
 6250TIP3    H118693   6.616   1.306   1.533
 6250TIP3    H218694   6.634   1.395   1.654
 6251TIP3   OH218695   0.932   3.817   4.777
 6251TIP3    H118696   0.870   3.890   4.774
 6251TIP3    H218697   0.943   3.791   4.686
 6252TIP3   OH218698   0.610   3.549   1.736
 6252TIP3    H118699   0.553   3.595   1.798
 6252TIP3    H218700   0.660   3.488   1.790
 6253TIP3   OH218701   2.247   2.127   5.544
 6253TIP3    H118702   2.323   2.179   5.518
 6253TIP3    H218703   2.271   2.037   5.521
 6254TIP3   OH218704   5.692   1.107   2.561
 6254TIP3    H118705   5.728   1.163   2.492
 6254TIP3    H218706   5.767   1.089   2.618
 6255TIP3   OH218707   4.318   5.065   3.908
 6255TIP3    H118708   4.244   5.025   3.862
 6255TIP3    H218709   4.294   5.158   3.915
 6256TIP3   OH218710   0.956   3.976   5.212
 6256TIP3    H118711   0.970   4.070   5.207
 6256TIP3    H218712   0.938   3.959   5.304
 6257TIP3   OH218713   8.251   3.953   4.511
 6257TIP3    H118714   8.193   3.987   4.580
 6257TIP3    H218715   8.241   4.016   4.439
 6258TIP3   OH218716   6.157   4.520   6.451
 6258TIP3    H118717   6.220   4.449   6.460
 6258TIP3    H218718   6.110   4.522   6.534
 6259TIP3   OH218719   5.608   7.464   2.103
 6259TIP3    H118720   5.642   7.431   2.186
 6259TIP3    H218721   5.597   7.558   2.117
 6260TIP3   OH218722   7.519   6.199   6.692
 6260TIP3    H118723   7.549   6.110   6.676
 6260TIP3    H218724   7.496   6.232   6.605
 6261TIP3   OH218725   1.292   3.183   3.480
 6261TIP3    H118726   1.203   3.214   3.498
 6261TIP3    H218727   1.348   3.259   3.494
 6262TIP3   OH218728   1.151   1.300   1.596
 6262TIP3    H118729   1.206   1.270   1.668
 6262TIP3    H218730   1.190   1.384   1.570
 6263TIP3   OH218731   6.176   3.072   6.593
 6263TIP3    H118732   6.187   2.981   6.621
 6263TIP3    H218733   6.092   3.073   6.547
 6264TIP3   OH218734   7.508   5.489   5.400
 6264TIP3    H118735   7.512   5.393   5.397
 6264TIP3    H218736   7.416   5.508   5.420
 6265TIP3   OH218737   3.867   3.718   6.417
 6265TIP3    H118738   3.783   3.674   6.427
 6265TIP3    H218739   3.886   3.754   6.503
 6266TIP3   OH218740   4.219   5.346   0.585
 6266TIP3    H118741   4.221   5.404   0.509
 6266TIP3    H218742   4.150   5.282   0.565
 6267TIP3   OH218743   1.534   1.917   1.344
 6267TIP3    H118744   1.508   1.825   1.352
 6267TIP3    H218745   1.468   1.955   1.285
 6268TIP3   OH218746   5.953   0.673   0.817
 6268TIP3    H118747   5.863   0.701   0.802
 6268TIP3    H218748   5.950   0.578   0.810
 6269TIP3   OH218749   2.335   2.327   1.694
 6269TIP3    H118750   2.398   2.396   1.676
 6269TIP3    H218751   2.306   2.298   1.608
 6270TIP3   OH218752   0.567   2.318   3.153
 6270TIP3    H118753   0.490   2.360   3.192
 6270TIP3    H218754   0.641   2.370   3.183
 6271TIP3   OH218755   8.190   5.084   5.477
 6271TIP3    H118756   8.259   5.081   5.544
 6271TIP3    H218757   8.150   5.170   5.489
 6272TIP3   OH218758   0.394   3.707   4.612
 6272TIP3    H118759   0.421   3.644   4.678
 6272TIP3    H218760   0.475   3.732   4.568
 6273TIP3   OH218761   6.714   6.187   6.214
 6273TIP3    H118762   6.802   6.150   6.228
 6273TIP3    H218763   6.657   6.110   6.208
 6274TIP3   OH218764   0.440   6.968   0.149
 6274TIP3    H118765   0.450   6.977   0.244
 6274TIP3    H218766   0.515   6.915   0.122
 6275TIP3   OH218767   1.893   3.391   0.213
 6275TIP3    H118768   1.913   3.475   0.254
 6275TIP3    H218769   1.952   3.388   0.137
 6276TIP3   OH218770   1.350   2.296   4.139
 6276TIP3    H118771   1.359   2.381   4.182
 6276TIP3    H218772   1.413   2.298   4.067
 6277TIP3   OH218773   1.977   0.706   0.997
 6277TIP3    H118774   2.012   0.794   0.980
 6277TIP3    H218775   1.972   0.665   0.910
 6278TIP3   OH218776   2.591   3.938   1.778
 6278TIP3    H118777   2.591   4.033   1.763
 6278TIP3    H218778   2.505   3.920   1.815
 6279TIP3   OH218779   1.921   3.195   1.697
 6279TIP3    H118780   1.916   3.253   1.773
 6279TIP3    H218781   1.853   3.129   1.713
 6280TIP3   OH218782   3.136   5.373   3.771
 6280TIP3    H118783   3.225   5.343   3.789
 6280TIP3    H218784   3.137   5.466   3.793
 6281TIP3   OH218785   5.666   4.422   2.309
 6281TIP3    H118786   5.631   4.488   2.251
 6281TIP3    H218787   5.758   4.414   2.284
 6282TIP3   OH218788   2.604   4.539   0.826
 6282TIP3    H118789   2.518   4.539   0.785
 6282TIP3    H218790   2.665   4.526   0.753
 6283TIP3   OH218791   3.030   0.711   1.625
 6283TIP3    H118792   3.001   0.628   1.587
 6283TIP3    H218793   2.974   0.722   1.702
 6284TIP3   OH218794   4.540   6.901   3.243
 6284TIP3    H118795   4.499   6.818   3.266
 6284TIP3    H218796   4.632   6.890   3.269
 6285TIP3   OH218797   4.433   1.908   4.348
 6285TIP3    H118798   4.338   1.897   4.343
 6285TIP3    H218799   4.448   1.950   4.433
 6286TIP3   OH218800   5.056   0.053   0.164
 6286TIP3    H118801   5.062  -0.042   0.164
 6286TIP3    H218802   5.080   0.078   0.253
 6287TIP3   OH218803   7.212   3.111   4.678
 6287TIP3    H118804   7.178   3.199   4.695
 6287TIP3    H218805   7.222   3.108   4.583
 6288TIP3   OH218806   1.325   3.286   5.909
 6288TIP3    H118807   1.375   3.297   5.828
 6288TIP3    H218808   1.319   3.191   5.920
 6289TIP3   OH218809   5.563   2.731   1.551
 6289TIP3    H118810   5.630   2.693   1.494
 6289TIP3    H218811   5.613   2.783   1.614
 6290TIP3   OH218812   7.372   6.859   4.113
 6290TIP3    H118813   7.431   6.927   4.145
 6290TIP3    H218814   7.322   6.832   4.191
 6291TIP3   OH218815   4.954   7.647   5.924
 6291TIP3    H118816   4.990   7.612   5.843
 6291TIP3    H218817   4.874   7.692   5.898
 6292TIP3   OH218818   5.671   1.374   4.609
 6292TIP3    H118819   5.760   1.355   4.639
 6292TIP3    H218820   5.633   1.288   4.591
 6293TIP3   OH218821   2.123   1.767   4.551
 6293TIP3    H118822   2.172   1.685   4.563
 6293TIP3    H218823   2.176   1.818   4.489
 6294TIP3   OH218824   5.563   3.451   4.885
 6294TIP3    H118825   5.539   3.365   4.852
 6294TIP3    H218826   5.642   3.475   4.837
 6295TIP3   OH218827   0.810   6.173   0.738
 6295TIP3    H118828   0.795   6.124   0.657
 6295TIP3    H218829   0.875   6.123   0.786
 6296TIP3   OH218830   5.365   0.634   6.339
 6296TIP3    H118831   5.293   0.644   6.277
 6296TIP3    H218832   5.328   0.665   6.422
 6297TIP3   OH218833   4.244   1.377   0.227
 6297TIP3    H118834   4.258   1.300   0.172
 6297TIP3    H218835   4.253   1.452   0.167
 6298TIP3   OH218836   4.222   1.600   1.969
 6298TIP3    H118837   4.192   1.655   1.897
 6298TIP3    H218838   4.180   1.636   2.046
 6299TIP3   OH218839   4.378   0.032   5.238
 6299TIP3    H118840   4.384  -0.060   5.214
 6299TIP3    H218841   4.468   0.063   5.241
 6300TIP3   OH218842   6.119   0.446   2.030
 6300TIP3    H118843   6.115   0.361   1.987
 6300TIP3    H218844   6.201   0.445   2.079
 6301TIP3   OH218845   0.106   1.253   6.536
 6301TIP3    H118846   0.140   1.217   6.618
 6301TIP3    H218847   0.035   1.312   6.564
 6302TIP3   OH218848   6.389   3.341   3.978
 6302TIP3    H118849   6.388   3.413   3.916
 6302TIP3    H218850   6.300   3.305   3.975
 6303TIP3   OH218851   2.398   0.110   4.494
 6303TIP3    H118852   2.391   0.017   4.473
 6303TIP3    H218853   2.475   0.116   4.550
 6304TIP3   OH218854   6.919   2.776   4.008
 6304TIP3    H118855   6.989   2.838   4.025
 6304TIP3    H218856   6.840   2.830   4.001
 6305TIP3   OH218857   3.602   5.916   0.071
 6305TIP3    H118858   3.643   5.984   0.017
 6305TIP3    H218859   3.654   5.837   0.054
 6306TIP3   OH218860   1.030   0.420   5.658
 6306TIP3    H118861   1.016   0.326   5.670
 6306TIP3    H218862   1.119   0.435   5.690
 6307TIP3   OH218863   8.114   6.763   6.622
 6307TIP3    H118864   8.093   6.673   6.598
 6307TIP3    H218865   8.030   6.803   6.646
 6308TIP3   OH218866   3.123   7.453   3.866
 6308TIP3    H118867   3.125   7.522   3.800
 6308TIP3    H218868   3.112   7.372   3.816
 6309TIP3   OH218869   2.098   0.077   5.588
 6309TIP3    H118870   2.111   0.038   5.502
 6309TIP3    H218871   2.186   0.105   5.615
 6310TIP3   OH218872   3.022   7.106   5.579
 6310TIP3    H118873   2.996   7.020   5.612
 6310TIP3    H218874   2.940   7.148   5.553
 6311TIP3   OH218875   4.253   5.379   5.926
 6311TIP3    H118876   4.199   5.301   5.914
 6311TIP3    H218877   4.329   5.365   5.870
 6312TIP3   OH218878   2.710   4.574   3.549
 6312TIP3    H118879   2.651   4.598   3.477
 6312TIP3    H218880   2.777   4.520   3.508
 6313TIP3   OH218881   3.926   6.805   4.327
 6313TIP3    H118882   3.865   6.816   4.400
 6313TIP3    H218883   3.979   6.729   4.351
 6314TIP3   OH218884   0.161   4.369   4.444
 6314TIP3    H118885   0.204   4.291   4.408
 6314TIP3    H218886   0.138   4.421   4.367
 6315TIP3   OH218887   4.429   4.014   4.532
 6315TIP3    H118888   4.488   4.083   4.501
 6315TIP3    H218889   4.341   4.052   4.526
 6316TIP3   OH218890   4.064   0.574   2.486
 6316TIP3    H118891   4.152   0.578   2.447
 6316TIP3    H218892   4.081   0.574   2.581
 6317TIP3   OH218893   5.355   0.011   1.206
 6317TIP3    H118894   5.283   0.059   1.166
 6317TIP3    H218895   5.321  -0.078   1.217
 6318TIP3   OH218896   7.175   7.274   0.879
 6318TIP3    H118897   7.123   7.195   0.862
 6318TIP3    H218898   7.161   7.292   0.972
 6319TIP3   OH218899   0.180   5.164   3.523
 6319TIP3    H118900   0.105   5.131   3.474
 6319TIP3    H218901   0.151   5.165   3.614
 6320TIP3   OH218902   5.543   4.353   4.946
 6320TIP3    H118903   5.508   4.408   4.876
 6320TIP3    H218904   5.466   4.320   4.992
 6321TIP3   OH218905   0.455   7.604   1.148
 6321TIP3    H118906   0.508   7.563   1.216
 6321TIP3    H218907   0.463   7.698   1.164
 6322TIP3   OH218908   0.049   4.670   5.208
 6322TIP3    H118909   0.077   4.760   5.192
 6322TIP3    H218910  -0.024   4.678   5.271
 6323TIP3   OH218911   5.688   5.254   0.460
 6323TIP3    H118912   5.621   5.313   0.495
 6323TIP3    H218913   5.769   5.304   0.466
 6324TIP3   OH218914   4.137   3.568   5.254
 6324TIP3    H118915   4.163   3.606   5.170
 6324TIP3    H218916   4.166   3.632   5.318
 6325TIP3   OH218917   4.835   4.611   0.585
 6325TIP3    H118918   4.896   4.570   0.524
 6325TIP3    H218919   4.771   4.655   0.528
 6326TIP3   OH218920   2.098   7.297   4.614
 6326TIP3    H118921   2.056   7.369   4.568
 6326TIP3    H218922   2.184   7.331   4.639
 6327TIP3   OH218923   7.344   1.687   1.944
 6327TIP3    H118924   7.350   1.778   1.973
 6327TIP3    H218925   7.418   1.677   1.884
 6328TIP3   OH218926   2.702   2.175   2.316
 6328TIP3    H118927   2.792   2.164   2.286
 6328TIP3    H218928   2.690   2.108   2.383
 6329TIP3   OH218929   3.943   0.114   5.674
 6329TIP3    H118930   3.974   0.070   5.595
 6329TIP3    H218931   3.890   0.187   5.641
 6330TIP3   OH218932   1.654   6.281   4.162
 6330TIP3    H118933   1.658   6.256   4.255
 6330TIP3    H218934   1.716   6.222   4.119
 6331TIP3   OH218935   5.106   1.082   3.467
 6331TIP3    H118936   5.063   1.090   3.381
 6331TIP3    H218937   5.198   1.069   3.446
 6332TIP3   OH218938   2.636   6.469   1.526
 6332TIP3    H118939   2.714   6.439   1.480
 6332TIP3    H218940   2.653   6.447   1.618
 6333TIP3   OH218941   5.907   3.846   5.705
 6333TIP3    H118942   6.003   3.854   5.712
 6333TIP3    H218943   5.883   3.912   5.640
 6334TIP3   OH218944   0.993   0.372   3.088
 6334TIP3    H118945   1.083   0.396   3.064
 6334TIP3    H218946   0.989   0.278   3.076
 6335TIP3   OH218947   2.680   2.591   5.881
 6335TIP3    H118948   2.592   2.563   5.857
 6335TIP3    H218949   2.727   2.595   5.797
 6336TIP3   OH218950   8.002   2.777   5.442
 6336TIP3    H118951   7.983   2.683   5.443
 6336TIP3    H218952   7.917   2.817   5.423
 6337TIP3   OH218953   0.974   3.704   3.052
 6337TIP3    H118954   1.045   3.728   2.993
 6337TIP3    H218955   0.954   3.785   3.098
 6338TIP3   OH218956   3.385   6.581   4.682
 6338TIP3    H118957   3.294   6.611   4.690
 6338TIP3    H218958   3.394   6.555   4.591
 6339TIP3   OH218959   3.980   2.989   4.974
 6339TIP3    H118960   3.970   2.974   4.880
 6339TIP3    H218961   3.891   3.003   5.005
 6340TIP3   OH218962   5.836   2.381   3.987
 6340TIP3    H118963   5.762   2.361   4.043
 6340TIP3    H218964   5.912   2.379   4.046
 6341TIP3   OH218965   3.730   4.894   0.015
 6341TIP3    H118966   3.768   4.980   0.030
 6341TIP3    H218967   3.788   4.852  -0.049
 6342TIP3   OH218968   8.203   1.369   3.949
 6342TIP3    H118969   8.147   1.436   3.988
 6342TIP3    H218970   8.249   1.331   4.023
 6343TIP3   OH218971   2.327   5.287   1.309
 6343TIP3    H118972   2.233   5.274   1.326
 6343TIP3    H218973   2.331   5.371   1.264
 6344TIP3   OH218974   8.043   5.813   2.669
 6344TIP3    H118975   8.045   5.856   2.755
 6344TIP3    H218976   7.992   5.872   2.614
 6345TIP3   OH218977   0.242   1.203   5.082
 6345TIP3    H118978   0.157   1.222   5.043
 6345TIP3    H218979   0.226   1.205   5.176
 6346TIP3   OH218980   0.704   1.624   3.097
 6346TIP3    H118981   0.641   1.600   3.165
 6346TIP3    H218982   0.650   1.645   3.021
 6347TIP3   OH218983   6.575   6.821   2.340
 6347TIP3    H118984   6.584   6.869   2.258
 6347TIP3    H218985   6.657   6.837   2.387
 6348TIP3   OH218986   6.637   7.484   4.461
 6348TIP3    H118987   6.604   7.551   4.401
 6348TIP3    H218988   6.625   7.523   4.548
 6349TIP3   OH218989   4.012   3.585   0.977
 6349TIP3    H118990   3.935   3.566   0.923
 6349TIP3    H218991   4.075   3.623   0.917
 6350TIP3   OH218992   4.782   4.501   0.191
 6350TIP3    H118993   4.846   4.434   0.168
 6350TIP3    H218994   4.716   4.455   0.242
 6351TIP3   OH218995   5.553   1.508   5.476
 6351TIP3    H118996   5.501   1.461   5.411
 6351TIP3    H218997   5.544   1.456   5.556
 6352TIP3   OH218998   5.813   4.695   4.256
 6352TIP3    H118999   5.792   4.693   4.163
 6352TIP3    H219000   5.904   4.725   4.260
 6353TIP3   OH219001   2.229   0.531   0.188
 6353TIP3    H119002   2.237   0.469   0.261
 6353TIP3    H219003   2.250   0.480   0.110
 6354TIP3   OH219004   3.905   5.134   0.087
 6354TIP3    H119005   3.927   5.207   0.146
 6354TIP3    H219006   3.979   5.074   0.095
 6355TIP3   OH219007   1.447   6.635   5.196
 6355TIP3    H119008   1.392   6.570   5.152
 6355TIP3    H219009   1.535   6.621   5.159
 6356TIP3   OH219010   4.644   1.406   2.866
 6356TIP3    H119011   4.607   1.460   2.935
 6356TIP3    H219012   4.570   1.381   2.811
 6357TIP3   OH219013   4.542   7.729   1.545
 6357TIP3    H119014   4.559   7.635   1.552
 6357TIP3    H219015   4.601   7.760   1.476
 6358TIP3   OH219016   4.836   7.478   3.303
 6358TIP3    H119017   4.896   7.474   3.228
 6358TIP3    H219018   4.876   7.541   3.362
 6359TIP3   OH219019   7.819   7.780   2.826
 6359TIP3    H119020   7.864   7.713   2.878
 6359TIP3    H219021   7.835   7.862   2.874
 6360TIP3   OH219022   7.051   1.360   5.390
 6360TIP3    H119023   7.089   1.298   5.453
 6360TIP3    H219024   6.968   1.386   5.428
 6361TIP3   OH219025   4.296   2.275   4.539
 6361TIP3    H119026   4.283   2.369   4.525
 6361TIP3    H219027   4.250   2.234   4.466
 6362TIP3   OH219028   5.744   2.631   4.216
 6362TIP3    H119029   5.669   2.572   4.206
 6362TIP3    H219030   5.810   2.579   4.262
 6363TIP3   OH219031   3.757   0.737   4.310
 6363TIP3    H119032   3.665   0.743   4.284
 6363TIP3    H219033   3.796   0.677   4.247
 6364TIP3   OH219034   4.328   0.029   3.828
 6364TIP3    H119035   4.233   0.039   3.836
 6364TIP3    H219036   4.353  -0.026   3.902
 6365TIP3   OH219037   2.157   3.399   3.794
 6365TIP3    H119038   2.222   3.391   3.864
 6365TIP3    H219039   2.110   3.316   3.794
 6366TIP3   OH219040   2.629   4.561   5.165
 6366TIP3    H119041   2.556   4.529   5.111
 6366TIP3    H219042   2.656   4.485   5.216
 6367TIP3   OH219043   3.015   0.743   0.243
 6367TIP3    H119044   2.979   0.829   0.269
 6367TIP3    H219045   3.104   0.743   0.279
 6368TIP3   OH219046   5.226   0.459   3.390
 6368TIP3    H119047   5.244   0.366   3.376
 6368TIP3    H219048   5.149   0.460   3.446
 6369TIP3   OH219049   7.497   3.287   0.493
 6369TIP3    H119050   7.478   3.195   0.475
 6369TIP3    H219051   7.499   3.328   0.407
 6370TIP3   OH219052   5.129   6.706   2.674
 6370TIP3    H119053   5.102   6.779   2.618
 6370TIP3    H219054   5.213   6.678   2.638
 6371TIP3   OH219055   0.963   2.969   2.898
 6371TIP3    H119056   1.003   3.024   2.966
 6371TIP3    H219057   0.881   3.013   2.876
 6372TIP3   OH219058   2.491   0.188   2.588
 6372TIP3    H119059   2.459   0.216   2.502
 6372TIP3    H219060   2.545   0.111   2.570
 6373TIP3   OH219061   6.999   6.264   4.590
 6373TIP3    H119062   6.962   6.284   4.676
 6373TIP3    H219063   7.085   6.307   4.591
 6374TIP3   OH219064   7.966   0.050   5.161
 6374TIP3    H119065   8.010   0.014   5.083
 6374TIP3    H219066   7.882   0.083   5.128
 6375TIP3   OH219067   5.697   6.082   4.600
 6375TIP3    H119068   5.652   6.088   4.684
 6375TIP3    H219069   5.692   5.990   4.576
 6376TIP3   OH219070   0.451   6.051   1.893
 6376TIP3    H119071   0.365   6.055   1.852
 6376TIP3    H219072   0.455   5.963   1.931
 6377TIP3   OH219073   7.070   0.521   3.238
 6377TIP3    H119074   6.990   0.469   3.235
 6377TIP3    H219075   7.139   0.461   3.208
 6378TIP3   OH219076   6.524   0.827   2.002
 6378TIP3    H119077   6.450   0.793   1.951
 6378TIP3    H219078   6.595   0.765   1.987
 6379TIP3   OH219079   6.590   4.835   4.921
 6379TIP3    H119080   6.581   4.910   4.980
 6379TIP3    H219081   6.501   4.804   4.907
 6380TIP3   OH219082   5.018   4.339   5.454
 6380TIP3    H119083   4.940   4.324   5.508
 6380TIP3    H219084   4.984   4.350   5.366
 6381TIP3   OH219085   6.434   3.222   3.686
 6381TIP3    H119086   6.398   3.138   3.659
 6381TIP3    H219087   6.426   3.222   3.782
 6382TIP3   OH219088   4.199   1.144   3.780
 6382TIP3    H119089   4.146   1.087   3.837
 6382TIP3    H219090   4.205   1.227   3.828
 6383TIP3   OH219091   6.600   1.286   2.209
 6383TIP3    H119092   6.571   1.195   2.198
 6383TIP3    H219093   6.694   1.283   2.196
 6384TIP3   OH219094   2.929   2.090   1.005
 6384TIP3    H119095   2.950   2.163   1.063
 6384TIP3    H219096   2.908   2.018   1.064
 6385TIP3   OH219097   1.393   3.953   1.546
 6385TIP3    H119098   1.330   3.972   1.477
 6385TIP3    H219099   1.378   4.020   1.612
 6386TIP3   OH219100   1.405   3.571   1.213
 6386TIP3    H119101   1.432   3.522   1.135
 6386TIP3    H219102   1.400   3.662   1.183
 6387TIP3   OH219103   4.650   4.124   5.889
 6387TIP3    H119104   4.741   4.149   5.903
 6387TIP3    H219105   4.633   4.057   5.955
 6388TIP3   OH219106   7.914   1.985   3.388
 6388TIP3    H119107   7.984   2.011   3.329
 6388TIP3    H219108   7.914   1.889   3.385
 6389TIP3   OH219109   5.034   3.313   2.462
 6389TIP3    H119110   4.946   3.317   2.423
 6389TIP3    H219111   5.045   3.397   2.506
 6390TIP3   OH219112   1.461   4.780   2.946
 6390TIP3    H119113   1.387   4.783   2.886
 6390TIP3    H219114   1.424   4.798   3.033
 6391TIP3   OH219115   3.502   7.358   3.159
 6391TIP3    H119116   3.579   7.345   3.214
 6391TIP3    H219117   3.536   7.405   3.082
 6392TIP3   OH219118   6.311   7.733   5.396
 6392TIP3    H119119   6.303   7.670   5.324
 6392TIP3    H219120   6.229   7.724   5.445
 6393TIP3   OH219121   3.194   3.277   2.001
 6393TIP3    H119122   3.139   3.272   1.923
 6393TIP3    H219123   3.177   3.364   2.038
 6394TIP3   OH219124   0.993   0.885   2.193
 6394TIP3    H119125   0.916   0.901   2.137
 6394TIP3    H219126   0.974   0.802   2.236
 6395TIP3   OH219127   6.990   6.989   1.248
 6395TIP3    H119128   7.040   7.041   1.311
 6395TIP3    H219129   6.941   6.928   1.303
 6396TIP3   OH219130   7.966   6.061   0.334
 6396TIP3    H119131   8.027   6.082   0.264
 6396TIP3    H219132   7.886   6.109   0.312
 6397TIP3   OH219133   3.293   7.332   2.586
 6397TIP3    H119134   3.355   7.398   2.619
 6397TIP3    H219135   3.317   7.252   2.632
 6398TIP3   OH219136   7.911   2.546   6.367
 6398TIP3    H119137   7.989   2.539   6.422
 6398TIP3    H219138   7.853   2.476   6.399
 6399TIP3   OH219139   7.404   7.362   1.915
 6399TIP3    H119140   7.313   7.341   1.934
 6399TIP3    H219141   7.424   7.437   1.972
 6400TIP3   OH219142   0.650   5.350   1.463
 6400TIP3    H119143   0.579   5.297   1.425
 6400TIP3    H219144   0.665   5.311   1.549
 6401TIP3   OH219145   6.879   5.462   3.967
 6401TIP3    H119146   6.880   5.471   4.062
 6401TIP3    H219147   6.788   5.480   3.942
 6402TIP3   OH219148   1.333   4.183   1.787
 6402TIP3    H119149   1.413   4.197   1.838
 6402TIP3    H219150   1.304   4.271   1.763
 6403TIP3   OH219151   0.026   2.837   5.021
 6403TIP3    H119152  -0.035   2.905   5.052
 6403TIP3    H219153   0.094   2.834   5.087
 6404TIP3   OH219154   5.186   1.757   1.431
 6404TIP3    H119155   5.147   1.687   1.484
 6404TIP3    H219156   5.252   1.713   1.377
 6405TIP3   OH219157   6.971   4.845   2.312
 6405TIP3    H119158   6.933   4.795   2.241
 6405TIP3    H219159   7.057   4.804   2.326
 6406TIP3   OH219160   7.349   4.226   5.070
 6406TIP3    H119161   7.350   4.170   5.147
 6406TIP3    H219162   7.295   4.178   5.006
 6407TIP3   OH219163   1.008   0.583   3.320
 6407TIP3    H119164   1.016   0.525   3.245
 6407TIP3    H219165   1.090   0.571   3.368
 6408TIP3   OH219166   4.594   3.356   0.472
 6408TIP3    H119167   4.576   3.264   0.455
 6408TIP3    H219168   4.553   3.374   0.557
 6409TIP3   OH219169   6.798   7.771   5.731
 6409TIP3    H119170   6.836   7.858   5.719
 6409TIP3    H219171   6.867   7.721   5.776
 6410TIP3   OH219172   7.372   5.119   6.465
 6410TIP3    H119173   7.301   5.127   6.402
 6410TIP3    H219174   7.334   5.070   6.538
 6411TIP3   OH219175   5.266   0.275   0.679
 6411TIP3    H119176   5.272   0.311   0.768
 6411TIP3    H219177   5.322   0.332   0.626
 6412TIP3   OH219178   7.857   3.509   2.421
 6412TIP3    H119179   7.870   3.603   2.433
 6412TIP3    H219180   7.861   3.496   2.327
 6413TIP3   OH219181   2.459   6.859   0.857
 6413TIP3    H119182   2.457   6.922   0.929
 6413TIP3    H219183   2.544   6.815   0.867
 6414TIP3   OH219184   5.198   7.451   3.946
 6414TIP3    H119185   5.267   7.476   3.885
 6414TIP3    H219186   5.170   7.533   3.987
 6415TIP3   OH219187   3.444   2.465   2.482
 6415TIP3    H119188   3.376   2.485   2.546
 6415TIP3    H219189   3.526   2.484   2.528
 6416TIP3   OH219190   8.072   5.601   2.103
 6416TIP3    H119191   8.088   5.620   2.196
 6416TIP3    H219192   8.047   5.509   2.102
 6417TIP3   OH219193   4.271   4.408   3.156
 6417TIP3    H119194   4.307   4.331   3.200
 6417TIP3    H219195   4.336   4.428   3.088
 6418TIP3   OH219196   6.594   4.024   0.706
 6418TIP3    H119197   6.585   4.085   0.632
 6418TIP3    H219198   6.571   4.077   0.783
 6419TIP3   OH219199   2.915   5.928   6.494
 6419TIP3    H119200   2.985   5.901   6.554
 6419TIP3    H219201   2.958   5.935   6.409
 6420TIP3   OH219202   7.750   5.836   3.363
 6420TIP3    H119203   7.700   5.890   3.424
 6420TIP3    H219204   7.688   5.815   3.293
 6421TIP3   OH219205   2.974   4.118   2.740
 6421TIP3    H119206   3.051   4.098   2.793
 6421TIP3    H219207   3.005   4.179   2.673
 6422TIP3   OH219208   4.048   4.462   3.349
 6422TIP3    H119209   4.078   4.548   3.319
 6422TIP3    H219210   4.097   4.400   3.294
 6423TIP3   OH219211   5.855   6.380   1.195
 6423TIP3    H119212   5.831   6.386   1.102
 6423TIP3    H219213   5.943   6.417   1.199
 6424TIP3   OH219214   4.406   3.431   4.155
 6424TIP3    H119215   4.362   3.372   4.094
 6424TIP3    H219216   4.338   3.458   4.217
 6425TIP3   OH219217   0.389   2.374   1.098
 6425TIP3    H119218   0.367   2.292   1.143
 6425TIP3    H219219   0.323   2.436   1.128
 6426TIP3   OH219220   6.972   4.820   1.993
 6426TIP3    H119221   6.971   4.745   1.935
 6426TIP3    H219222   6.879   4.837   2.012
 6427TIP3   OH219223   6.612   1.287   1.155
 6427TIP3    H119224   6.667   1.216   1.121
 6427TIP3    H219225   6.613   1.275   1.250
 6428TIP3   OH219226   1.286   0.914   6.488
 6428TIP3    H119227   1.246   0.921   6.401
 6428TIP3    H219228   1.324   0.826   6.490
 6429TIP3   OH219229   3.760   0.980   5.846
 6429TIP3    H119230   3.761   1.010   5.936
 6429TIP3    H219231   3.715   0.895   5.850
 6430TIP3   OH219232   2.082   5.178   4.330
 6430TIP3    H119233   2.046   5.105   4.279
 6430TIP3    H219234   2.115   5.137   4.410
 6431TIP3   OH219235   5.291   1.725   5.445
 6431TIP3    H119236   5.336   1.704   5.527
 6431TIP3    H219237   5.198   1.725   5.468
 6432TIP3   OH219238   4.181   2.161   4.313
 6432TIP3    H119239   4.183   2.069   4.339
 6432TIP3    H219240   4.088   2.180   4.299
 6433TIP3   OH219241   6.947   1.624   6.472
 6433TIP3    H119242   6.989   1.546   6.509
 6433TIP3    H219243   6.949   1.610   6.378
 6434TIP3   OH219244   4.020   1.470   3.506
 6434TIP3    H119245   3.946   1.487   3.447
 6434TIP3    H219246   4.041   1.378   3.494
 6435TIP3   OH219247   0.869   5.596   3.876
 6435TIP3    H119248   0.893   5.666   3.815
 6435TIP3    H219249   0.821   5.533   3.822
 6436TIP3   OH219250   6.972   7.382   3.778
 6436TIP3    H119251   6.951   7.381   3.871
 6436TIP3    H219252   6.887   7.380   3.734
 6437TIP3   OH219253   2.915   2.545   0.025
 6437TIP3    H119254   2.874   2.486   0.088
 6437TIP3    H219255   2.911   2.632   0.066
 6438TIP3   OH219256   5.243   6.902   3.759
 6438TIP3    H119257   5.321   6.872   3.712
 6438TIP3    H219258   5.204   6.967   3.702
 6439TIP3   OH219259   6.387   7.015   5.742
 6439TIP3    H119260   6.357   6.937   5.791
 6439TIP3    H219261   6.331   7.017   5.664
 6440TIP3   OH219262   4.135   6.945   2.003
 6440TIP3    H119263   4.052   6.975   2.040
 6440TIP3    H219264   4.136   6.851   2.019
 6441TIP3   OH219265   3.168   1.619   3.110
 6441TIP3    H119266   3.223   1.690   3.142
 6441TIP3    H219267   3.210   1.590   3.029
 6442TIP3   OH219268   8.236   0.201   0.928
 6442TIP3    H119269   8.306   0.215   0.863
 6442TIP3    H219270   8.227   0.285   0.972
 6443TIP3   OH219271   4.496   0.229   3.933
 6443TIP3    H119272   4.441   0.179   3.873
 6443TIP3    H219273   4.482   0.187   4.018
 6444TIP3   OH219274   0.175   3.870   1.703
 6444TIP3    H119275   0.258   3.840   1.665
 6444TIP3    H219276   0.166   3.820   1.784
 6445TIP3   OH219277   0.611   6.102   1.016
 6445TIP3    H119278   0.657   6.018   1.019
 6445TIP3    H219279   0.518   6.080   1.018
 6446TIP3   OH219280   3.893   3.219   4.318
 6446TIP3    H119281   3.855   3.277   4.383
 6446TIP3    H219282   3.817   3.182   4.272
 6447TIP3   OH219283   2.582   6.380   5.141
 6447TIP3    H119284   2.503   6.393   5.088
 6447TIP3    H219285   2.646   6.442   5.105
 6448TIP3   OH219286   1.348   3.552   0.301
 6448TIP3    H119287   1.393   3.630   0.269
 6448TIP3    H219288   1.354   3.489   0.230
 6449TIP3   OH219289   1.798   5.874   0.551
 6449TIP3    H119290   1.891   5.892   0.540
 6449TIP3    H219291   1.781   5.799   0.494
 6450TIP3   OH219292   2.537   2.800   0.869
 6450TIP3    H119293   2.618   2.820   0.915
 6450TIP3    H219294   2.502   2.885   0.844
 6451TIP3   OH219295   6.323   6.432   0.416
 6451TIP3    H119296   6.284   6.393   0.338
 6451TIP3    H219297   6.353   6.357   0.467
 6452TIP3   OH219298   0.354   5.143   3.097
 6452TIP3    H119299   0.285   5.077   3.099
 6452TIP3    H219300   0.307   5.227   3.091
 6453TIP3   OH219301   2.299   2.165   4.849
 6453TIP3    H119302   2.384   2.204   4.828
 6453TIP3    H219303   2.320   2.089   4.904
 6454TIP3   OH219304   3.583   0.170   6.711
 6454TIP3    H119305   3.532   0.148   6.633
 6454TIP3    H219306   3.532   0.239   6.754
 6455TIP3   OH219307   1.549   6.359   6.668
 6455TIP3    H119308   1.639   6.391   6.660
 6455TIP3    H219309   1.547   6.279   6.615
 6456TIP3   OH219310   1.897   7.176   2.177
 6456TIP3    H119311   1.949   7.096   2.172
 6456TIP3    H219312   1.927   7.220   2.257
 6457TIP3   OH219313   8.272   6.445   0.590
 6457TIP3    H119314   8.360   6.407   0.597
 6457TIP3    H219315   8.214   6.370   0.583
 6458TIP3   OH219316   1.563   0.781   3.098
 6458TIP3    H119317   1.505   0.773   3.023
 6458TIP3    H219318   1.600   0.869   3.090
 6459TIP3   OH219319   1.571   4.494   5.334
 6459TIP3    H119320   1.544   4.457   5.249
 6459TIP3    H219321   1.522   4.576   5.341
 6460TIP3   OH219322   5.768   0.177   3.570
 6460TIP3    H119323   5.763   0.266   3.606
 6460TIP3    H219324   5.694   0.171   3.510
 6461TIP3   OH219325   6.763   4.687   0.676
 6461TIP3    H119326   6.670   4.676   0.693
 6461TIP3    H219327   6.768   4.757   0.611
 6462TIP3   OH219328   1.538   3.419   6.747
 6462TIP3    H119329   1.616   3.368   6.770
 6462TIP3    H219330   1.498   3.370   6.675
 6463TIP3   OH219331   5.459   3.553   4.183
 6463TIP3    H119332   5.439   3.557   4.277
 6463TIP3    H219333   5.554   3.553   4.179
 6464TIP3   OH219334   8.042   0.184   2.659
 6464TIP3    H119335   7.952   0.171   2.629
 6464TIP3    H219336   8.078   0.250   2.599
 6465TIP3   OH219337   5.004   6.380   1.377
 6465TIP3    H119338   5.056   6.437   1.320
 6465TIP3    H219339   5.039   6.292   1.361
 6466TIP3   OH219340   0.060   6.892   2.435
 6466TIP3    H119341   0.046   6.982   2.465
 6466TIP3    H219342   0.127   6.857   2.493
 6467TIP3   OH219343   5.353   5.199   1.327
 6467TIP3    H119344   5.317   5.199   1.416
 6467TIP3    H219345   5.428   5.258   1.332
 6468TIP3   OH219346   6.497   4.021   5.799
 6468TIP3    H119347   6.493   4.104   5.848
 6468TIP3    H219348   6.497   3.954   5.867
 6469TIP3   OH219349   4.908   6.577   6.081
 6469TIP3    H119350   4.899   6.496   6.132
 6469TIP3    H219351   4.818   6.609   6.072
 6470TIP3   OH219352   5.830   1.788   6.506
 6470TIP3    H119353   5.737   1.805   6.489
 6470TIP3    H219354   5.834   1.694   6.521
 6471TIP3   OH219355   4.326   0.737   0.787
 6471TIP3    H119356   4.282   0.707   0.708
 6471TIP3    H219357   4.358   0.657   0.829
 6472TIP3   OH219358   4.157   7.743   0.853
 6472TIP3    H119359   4.119   7.821   0.811
 6472TIP3    H219360   4.131   7.751   0.945
 6473TIP3   OH219361   2.193   4.788   4.859
 6473TIP3    H119362   2.107   4.823   4.884
 6473TIP3    H219363   2.231   4.757   4.941
 6474TIP3   OH219364   4.199   2.391   2.026
 6474TIP3    H119365   4.158   2.319   2.075
 6474TIP3    H219366   4.274   2.350   1.984
 6475TIP3   OH219367   3.433   1.896   5.146
 6475TIP3    H119368   3.452   1.812   5.104
 6475TIP3    H219369   3.483   1.894   5.227
 6476TIP3   OH219370   1.928   2.161   6.241
 6476TIP3    H119371   1.860   2.104   6.206
 6476TIP3    H219372   1.911   2.166   6.335
 6477TIP3   OH219373   6.890   0.415   1.566
 6477TIP3    H119374   6.906   0.374   1.481
 6477TIP3    H219375   6.977   0.440   1.598
 6478TIP3   OH219376   1.916   2.580   6.105
 6478TIP3    H119377   1.946   2.670   6.123
 6478TIP3    H219378   1.986   2.524   6.141
 6479TIP3   OH219379   2.848   5.453   2.778
 6479TIP3    H119380   2.860   5.494   2.692
 6479TIP3    H219381   2.887   5.367   2.769
 6480TIP3   OH219382   1.382   2.934   5.426
 6480TIP3    H119383   1.442   2.881   5.373
 6480TIP3    H219384   1.305   2.946   5.369
 6481TIP3   OH219385   1.912   7.767   4.395
 6481TIP3    H119386   1.824   7.795   4.421
 6481TIP3    H219387   1.931   7.818   4.317
 6482TIP3   OH219388   2.948   0.163   4.802
 6482TIP3    H119389   2.934   0.236   4.742
 6482TIP3    H219390   3.022   0.192   4.857
 6483TIP3   OH219391   8.206   4.505   6.780
 6483TIP3    H119392   8.296   4.528   6.802
 6483TIP3    H219393   8.213   4.461   6.694
 6484TIP3   OH219394   7.328   7.317   0.422
 6484TIP3    H119395   7.255   7.257   0.407
 6484TIP3    H219396   7.334   7.368   0.341
 6485TIP3   OH219397   5.425   1.363   6.281
 6485TIP3    H119398   5.468   1.401   6.358
 6485TIP3    H219399   5.355   1.308   6.318
 6486TIP3   OH219400   3.069   1.206   4.689
 6486TIP3    H119401   3.007   1.268   4.727
 6486TIP3    H219402   3.149   1.257   4.675
 6487TIP3   OH219403   4.568   5.472   3.156
 6487TIP3    H119404   4.474   5.457   3.150
 6487TIP3    H219405   4.585   5.483   3.249
 6488TIP3   OH219406   8.058   4.279   6.376
 6488TIP3    H119407   8.043   4.187   6.399
 6488TIP3    H219408   8.099   4.316   6.454
 6489TIP3   OH219409   4.576   0.399   1.808
 6489TIP3    H119410   4.652   0.348   1.837
 6489TIP3    H219411   4.529   0.341   1.749
 6490TIP3   OH219412   3.692   5.456   0.173
 6490TIP3    H119413   3.768   5.403   0.197
 6490TIP3    H219414   3.635   5.454   0.250
 6491TIP3   OH219415   7.071   5.864   2.507
 6491TIP3    H119416   7.160   5.888   2.535
 6491TIP3    H219417   7.056   5.778   2.547
 6492TIP3   OH219418   7.343   4.296   1.959
 6492TIP3    H119419   7.293   4.223   1.996
 6492TIP3    H219420   7.279   4.344   1.906
 6493TIP3   OH219421   3.065   4.263   0.724
 6493TIP3    H119422   3.116   4.294   0.800
 6493TIP3    H219423   3.109   4.182   0.698
 6494TIP3   OH219424   1.639   1.068   6.311
 6494TIP3    H119425   1.692   1.088   6.387
 6494TIP3    H219426   1.609   1.153   6.279
 6495TIP3   OH219427   1.097   1.739   4.499
 6495TIP3    H119428   1.127   1.684   4.427
 6495TIP3    H219429   1.042   1.805   4.458
 6496TIP3   OH219430   3.029   7.594   1.174
 6496TIP3    H119431   2.953   7.643   1.144
 6496TIP3    H219432   2.993   7.525   1.230
 6497TIP3   OH219433   7.854   4.686   0.667
 6497TIP3    H119434   7.780   4.736   0.701
 6497TIP3    H219435   7.931   4.734   0.696
 6498TIP3   OH219436   4.648   5.515   5.885
 6498TIP3    H119437   4.599   5.554   5.958
 6498TIP3    H219438   4.616   5.561   5.807
 6499TIP3   OH219439   4.796   4.844   5.834
 6499TIP3    H119440   4.806   4.900   5.757
 6499TIP3    H219441   4.832   4.759   5.808
 6500TIP3   OH219442   7.838   5.896   5.466
 6500TIP3    H119443   7.900   5.861   5.530
 6500TIP3    H219444   7.786   5.821   5.439
 6501TIP3   OH219445   0.811   0.583   4.681
 6501TIP3    H119446   0.846   0.580   4.770
 6501TIP3    H219447   0.744   0.651   4.685
 6502TIP3   OH219448   6.146   6.680   6.414
 6502TIP3    H119449   6.077   6.633   6.368
 6502TIP3    H219450   6.120   6.677   6.506
 6503TIP3   OH219451   5.446   1.745   4.403
 6503TIP3    H119452   5.456   1.652   4.424
 6503TIP3    H219453   5.533   1.773   4.376
 6504TIP3   OH219454   4.665   0.938   3.944
 6504TIP3    H119455   4.634   0.907   4.028
 6504TIP3    H219456   4.673   1.033   3.954
 6505TIP3   OH219457   2.172   6.260   1.203
 6505TIP3    H119458   2.088   6.240   1.246
 6505TIP3    H219459   2.149   6.271   1.111
 6506TIP3   OH219460   3.860   3.856   6.163
 6506TIP3    H119461   3.858   3.826   6.253
 6506TIP3    H219462   3.938   3.912   6.157
 6507TIP3   OH219463   1.601   1.710   0.339
 6507TIP3    H119464   1.630   1.763   0.413
 6507TIP3    H219465   1.541   1.767   0.290
 6508TIP3   OH219466   3.129   2.870   1.054
 6508TIP3    H119467   3.074   2.924   0.997
 6508TIP3    H219468   3.113   2.904   1.142
 6509TIP3   OH219469   3.086   5.652   5.650
 6509TIP3    H119470   3.110   5.605   5.570
 6509TIP3    H219471   3.012   5.707   5.624
 6510TIP3   OH219472   0.957   7.333   6.486
 6510TIP3    H119473   0.963   7.244   6.452
 6510TIP3    H219474   0.909   7.381   6.419
 6511TIP3   OH219475   7.455   1.917   2.249
 6511TIP3    H119476   7.486   1.935   2.160
 6511TIP3    H219477   7.530   1.937   2.305
 6512TIP3   OH219478   1.685   7.138   4.087
 6512TIP3    H119479   1.760   7.131   4.146
 6512TIP3    H219480   1.610   7.109   4.139
 6513TIP3   OH219481   8.209   0.250   0.114
 6513TIP3    H119482   8.261   0.173   0.089
 6513TIP3    H219483   8.161   0.273   0.035
 6514TIP3   OH219484   1.762   6.527   4.577
 6514TIP3    H119485   1.778   6.566   4.491
 6514TIP3    H219486   1.804   6.586   4.639
 6515TIP3   OH219487   5.620   7.818   6.408
 6515TIP3    H119488   5.666   7.751   6.458
 6515TIP3    H219489   5.528   7.790   6.410
 6516TIP3   OH219490   5.583   0.403   0.713
 6516TIP3    H119491   5.601   0.324   0.662
 6516TIP3    H219492   5.626   0.473   0.664
 6517TIP3   OH219493   7.376   7.168   5.036
 6517TIP3    H119494   7.342   7.138   4.951
 6517TIP3    H219495   7.471   7.174   5.024
 6518TIP3   OH219496   5.113   0.394   4.940
 6518TIP3    H119497   5.078   0.380   4.852
 6518TIP3    H219498   5.044   0.442   4.986
 6519TIP3   OH219499   3.094   6.342   1.522
 6519TIP3    H119500   3.186   6.331   1.500
 6519TIP3    H219501   3.073   6.268   1.578
 6520TIP3   OH219502   3.547   7.653   4.744
 6520TIP3    H119503   3.573   7.733   4.789
 6520TIP3    H219504   3.451   7.650   4.753
 6521TIP3   OH219505   5.359   3.455   1.246
 6521TIP3    H119506   5.365   3.550   1.231
 6521TIP3    H219507   5.332   3.447   1.337
 6522TIP3   OH219508   3.471   4.521   1.413
 6522TIP3    H119509   3.382   4.548   1.393
 6522TIP3    H219510   3.514   4.601   1.443
 6523TIP3   OH219511   0.980   3.514   5.438
 6523TIP3    H119512   0.914   3.460   5.482
 6523TIP3    H219513   1.059   3.459   5.436
 6524TIP3   OH219514   6.480   6.454   3.858
 6524TIP3    H119515   6.411   6.497   3.909
 6524TIP3    H219516   6.478   6.497   3.773
 6525TIP3   OH219517   2.221   2.971   0.889
 6525TIP3    H119518   2.148   3.002   0.836
 6525TIP3    H219519   2.182   2.949   0.973
 6526TIP3   OH219520   0.243   6.288   2.215
 6526TIP3    H119521   0.188   6.326   2.146
 6526TIP3    H219522   0.259   6.361   2.275
 6527TIP3   OH219523   7.429   2.527   5.222
 6527TIP3    H119524   7.443   2.486   5.136
 6527TIP3    H219525   7.492   2.485   5.280
 6528TIP3   OH219526   1.320   2.979   5.955
 6528TIP3    H119527   1.271   3.003   6.034
 6528TIP3    H219528   1.270   2.907   5.917
 6529TIP3   OH219529   5.835   4.323   4.990
 6529TIP3    H119530   5.818   4.259   5.059
 6529TIP3    H219531   5.748   4.345   4.956
 6530TIP3   OH219532   7.261   2.474   0.722
 6530TIP3    H119533   7.264   2.436   0.634
 6530TIP3    H219534   7.192   2.540   0.718
 6531TIP3   OH219535   5.150   6.544   1.166
 6531TIP3    H119536   5.197   6.461   1.171
 6531TIP3    H219537   5.186   6.588   1.089
 6532TIP3   OH219538   1.691   4.912   3.417
 6532TIP3    H119539   1.684   4.959   3.334
 6532TIP3    H219540   1.772   4.861   3.409
 6533TIP3   OH219541   2.876   7.689   2.561
 6533TIP3    H119542   2.931   7.767   2.564
 6533TIP3    H219543   2.795   7.718   2.521
 6534TIP3   OH219544   3.309   6.183   2.693
 6534TIP3    H119545   3.267   6.122   2.753
 6534TIP3    H219546   3.257   6.263   2.699
 6535TIP3   OH219547   3.683   3.532   2.226
 6535TIP3    H119548   3.610   3.550   2.286
 6535TIP3    H219549   3.646   3.476   2.159
 6536TIP3   OH219550   1.435   1.412   6.678
 6536TIP3    H119551   1.435   1.326   6.635
 6536TIP3    H219552   1.527   1.430   6.694
 6537TIP3   OH219553   2.974   3.658   2.978
 6537TIP3    H119554   2.905   3.650   2.913
 6537TIP3    H219555   3.023   3.736   2.952
 6538TIP3   OH219556   0.626   7.060   2.941
 6538TIP3    H119557   0.628   7.042   3.036
 6538TIP3    H219558   0.667   7.146   2.932
 6539TIP3   OH219559   7.751   3.277   1.070
 6539TIP3    H119560   7.659   3.256   1.083
 6539TIP3    H219561   7.752   3.369   1.045
 6540TIP3   OH219562   5.642   2.652   6.340
 6540TIP3    H119563   5.588   2.627   6.265
 6540TIP3    H219564   5.603   2.606   6.414
 6541TIP3   OH219565   0.444   0.873   4.089
 6541TIP3    H119566   0.424   0.933   4.017
 6541TIP3    H219567   0.381   0.802   4.078
 6542TIP3   OH219568   0.375   6.210   0.198
 6542TIP3    H119569   0.466   6.198   0.170
 6542TIP3    H219570   0.378   6.288   0.253
 6543TIP3   OH219571   7.384   1.335   4.862
 6543TIP3    H119572   7.328   1.311   4.788
 6543TIP3    H219573   7.450   1.394   4.824
 6544TIP3   OH219574   7.997   5.916   3.271
 6544TIP3    H119575   8.042   5.985   3.320
 6544TIP3    H219576   7.919   5.896   3.323
 6545TIP3   OH219577   2.979   2.297   6.090
 6545TIP3    H119578   3.035   2.358   6.042
 6545TIP3    H219579   2.935   2.246   6.023
 6546TIP3   OH219580   4.396   5.972   6.691
 6546TIP3    H119581   4.449   6.040   6.731
 6546TIP3    H219582   4.306   6.004   6.699
 6547TIP3   OH219583   0.230   2.051   0.998
 6547TIP3    H119584   0.153   2.065   1.053
 6547TIP3    H219585   0.302   2.037   1.059
 6548TIP3   OH219586   6.819   3.841   1.257
 6548TIP3    H119587   6.786   3.850   1.346
 6548TIP3    H219588   6.762   3.775   1.217
 6549TIP3   OH219589   5.642   3.827   1.295
 6549TIP3    H119590   5.712   3.850   1.234
 6549TIP3    H219591   5.640   3.900   1.357
 6550TIP3   OH219592   1.449   0.720   2.534
 6550TIP3    H119593   1.479   0.659   2.466
 6550TIP3    H219594   1.390   0.668   2.588
 6551TIP3   OH219595   0.136   2.865   1.200
 6551TIP3    H119596   0.041   2.861   1.209
 6551TIP3    H219597   0.150   2.913   1.118
 6552TIP3   OH219598   1.331   1.432   0.885
 6552TIP3    H119599   1.405   1.373   0.872
 6552TIP3    H219600   1.364   1.518   0.857
 6553TIP3   OH219601   2.431   0.483   1.419
 6553TIP3    H119602   2.509   0.537   1.426
 6553TIP3    H219603   2.463   0.393   1.426
 6554TIP3   OH219604   6.506   1.625   1.325
 6554TIP3    H119605   6.452   1.563   1.375
 6554TIP3    H219606   6.473   1.711   1.349
 6555TIP3   OH219607   7.573   2.022   5.533
 6555TIP3    H119608   7.644   2.011   5.469
 6555TIP3    H219609   7.598   1.966   5.606
 6556TIP3   OH219610   5.368   5.706   0.764
 6556TIP3    H119611   5.452   5.717   0.809
 6556TIP3    H219612   5.375   5.620   0.722
 6557TIP3   OH219613   5.354   6.136   3.162
 6557TIP3    H119614   5.411   6.060   3.171
 6557TIP3    H219615   5.266   6.102   3.178
 6558TIP3   OH219616   6.074   3.528   4.814
 6558TIP3    H119617   6.089   3.499   4.904
 6558TIP3    H219618   6.026   3.456   4.773
 6559TIP3   OH219619   3.955   0.208   4.872
 6559TIP3    H119620   3.939   0.163   4.789
 6559TIP3    H219621   3.878   0.189   4.925
 6560TIP3   OH219622   7.070   7.254   0.356
 6560TIP3    H119623   7.036   7.204   0.282
 6560TIP3    H219624   7.047   7.345   0.336
 6561TIP3   OH219625   5.236   7.570   3.300
 6561TIP3    H119626   5.275   7.596   3.384
 6561TIP3    H219627   5.211   7.478   3.313
 6562TIP3   OH219628   4.297   0.827   0.036
 6562TIP3    H119629   4.346   0.880   0.099
 6562TIP3    H219630   4.223   0.881   0.011
 6563TIP3   OH219631   5.119   5.014   3.581
 6563TIP3    H119632   5.176   5.014   3.505
 6563TIP3    H219633   5.164   4.958   3.645
 6564TIP3   OH219634   1.383   4.835   3.201
 6564TIP3    H119635   1.322   4.780   3.250
 6564TIP3    H219636   1.425   4.890   3.267
 6565TIP3   OH219637   5.989   7.146   6.544
 6565TIP3    H119638   6.065   7.099   6.509
 6565TIP3    H219639   5.929   7.154   6.470
 6566TIP3   OH219640   6.623   4.281   4.408
 6566TIP3    H119641   6.709   4.302   4.370
 6566TIP3    H219642   6.577   4.364   4.412
 6567TIP3   OH219643   6.770   5.715   2.093
 6567TIP3    H119644   6.745   5.779   2.026
 6567TIP3    H219645   6.827   5.764   2.152
 6568TIP3   OH219646   2.581   3.839   2.155
 6568TIP3    H119647   2.639   3.766   2.132
 6568TIP3    H219648   2.633   3.917   2.139
 6569TIP3   OH219649   7.474   3.741   2.508
 6569TIP3    H119650   7.389   3.698   2.511
 6569TIP3    H219651   7.512   3.725   2.595
 6570TIP3   OH219652   4.640   7.761   3.319
 6570TIP3    H119653   4.608   7.718   3.240
 6570TIP3    H219654   4.638   7.694   3.386
 6571TIP3   OH219655   7.082   1.866   4.786
 6571TIP3    H119656   7.051   1.956   4.774
 6571TIP3    H219657   7.007   1.812   4.762
 6572TIP3   OH219658   0.551   5.968   5.259
 6572TIP3    H119659   0.595   5.971   5.344
 6572TIP3    H219660   0.488   6.040   5.262
 6573TIP3   OH219661   2.070   7.332   1.514
 6573TIP3    H119662   2.068   7.307   1.606
 6573TIP3    H219663   2.147   7.389   1.506
 6574TIP3   OH219664   2.360   4.343   5.309
 6574TIP3    H119665   2.334   4.433   5.329
 6574TIP3    H219666   2.332   4.330   5.219
 6575TIP3   OH219667   1.587   2.275   2.998
 6575TIP3    H119668   1.584   2.367   3.026
 6575TIP3    H219669   1.680   2.257   2.986
 6576TIP3   OH219670   2.140   5.779   5.072
 6576TIP3    H119671   2.213   5.738   5.118
 6576TIP3    H219672   2.074   5.794   5.139
 6577TIP3   OH219673   8.008   3.788   3.117
 6577TIP3    H119674   8.087   3.799   3.170
 6577TIP3    H219675   8.039   3.748   3.036
 6578TIP3   OH219676   2.842   6.781   3.670
 6578TIP3    H119677   2.795   6.703   3.640
 6578TIP3    H219678   2.878   6.756   3.755
 6579TIP3   OH219679   7.030   6.191   6.186
 6579TIP3    H119680   7.020   6.154   6.099
 6579TIP3    H219681   7.116   6.234   6.184
 6580TIP3   OH219682   3.726   5.564   3.068
 6580TIP3    H119683   3.813   5.591   3.098
 6580TIP3    H219684   3.743   5.496   3.003
 6581TIP3   OH219685   4.041   0.634   0.682
 6581TIP3    H119686   4.109   0.607   0.621
 6581TIP3    H219687   4.049   0.730   0.686
 6582TIP3   OH219688   6.647   6.537   5.446
 6582TIP3    H119689   6.552   6.525   5.444
 6582TIP3    H219690   6.662   6.606   5.510
 6583TIP3   OH219691   3.371   4.503   0.061
 6583TIP3    H119692   3.460   4.537   0.064
 6583TIP3    H219693   3.355   4.471   0.150
 6584TIP3   OH219694   3.617   0.165   5.681
 6584TIP3    H119695   3.635   0.169   5.775
 6584TIP3    H219696   3.696   0.201   5.640
 6585TIP3   OH219697   1.594   3.144   4.441
 6585TIP3    H119698   1.540   3.103   4.373
 6585TIP3    H219699   1.583   3.089   4.518
 6586TIP3   OH219700   4.315   3.692   0.215
 6586TIP3    H119701   4.294   3.688   0.121
 6586TIP3    H219702   4.368   3.613   0.230
 6587TIP3   OH219703   7.700   4.472   2.132
 6587TIP3    H119704   7.641   4.397   2.144
 6587TIP3    H219705   7.652   4.531   2.074
 6588TIP3   OH219706   4.980   5.442   5.161
 6588TIP3    H119707   4.890   5.463   5.185
 6588TIP3    H219708   4.972   5.385   5.084
 6589TIP3   OH219709   6.379   6.588   5.349
 6589TIP3    H119710   6.341   6.501   5.336
 6589TIP3    H219711   6.316   6.649   5.310
 6590TIP3   OH219712   2.780   0.698   4.661
 6590TIP3    H119713   2.697   0.651   4.659
 6590TIP3    H219714   2.810   0.690   4.751
 6591TIP3   OH219715   3.020   2.051   6.540
 6591TIP3    H119716   3.019   2.125   6.479
 6591TIP3    H219717   2.995   1.976   6.487
 6592TIP3   OH219718   5.388   5.811   1.697
 6592TIP3    H119719   5.378   5.880   1.763
 6592TIP3    H219720   5.410   5.733   1.748
 6593TIP3   OH219721   7.591   0.636   2.217
 6593TIP3    H119722   7.612   0.552   2.176
 6593TIP3    H219723   7.531   0.678   2.156
 6594TIP3   OH219724   1.267   0.732   0.255
 6594TIP3    H119725   1.267   0.639   0.232
 6594TIP3    H219726   1.302   0.777   0.178
 6595TIP3   OH219727   0.733   2.091   6.121
 6595TIP3    H119728   0.721   2.170   6.069
 6595TIP3    H219729   0.724   2.119   6.212
 6596TIP3   OH219730   5.108   4.722   1.988
 6596TIP3    H119731   5.078   4.702   1.899
 6596TIP3    H219732   5.100   4.639   2.035
 6597TIP3   OH219733   2.360   6.472   1.928
 6597TIP3    H119734   2.331   6.550   1.881
 6597TIP3    H219735   2.365   6.404   1.860
 6598TIP3   OH219736   2.934   7.154   3.149
 6598TIP3    H119737   2.863   7.108   3.105
 6598TIP3    H219738   2.985   7.085   3.191
 6599TIP3   OH219739   1.456   6.949   1.177
 6599TIP3    H119740   1.455   6.972   1.084
 6599TIP3    H219741   1.370   6.976   1.209
 6600TIP3   OH219742   1.060   7.821   4.418
 6600TIP3    H119743   1.118   7.842   4.345
 6600TIP3    H219744   1.011   7.745   4.388
 6601TIP3   OH219745   7.559   3.950   0.744
 6601TIP3    H119746   7.538   3.868   0.788
 6601TIP3    H219747   7.533   3.936   0.653
 6602TIP3   OH219748   2.903   4.219   4.379
 6602TIP3    H119749   2.857   4.282   4.434
 6602TIP3    H219750   2.984   4.201   4.426
 6603TIP3   OH219751   8.205   6.066   5.035
 6603TIP3    H119752   8.264   6.087   4.964
 6603TIP3    H219753   8.183   5.973   5.022
 6604TIP3   OH219754   5.726   1.484   6.018
 6604TIP3    H119755   5.778   1.409   5.988
 6604TIP3    H219756   5.646   1.479   5.966
 6605TIP3   OH219757   3.399   4.461   6.214
 6605TIP3    H119758   3.339   4.393   6.243
 6605TIP3    H219759   3.346   4.520   6.160
 6606TIP3   OH219760   4.699   1.415   1.102
 6606TIP3    H119761   4.609   1.434   1.074
 6606TIP3    H219762   4.713   1.324   1.077
 6607TIP3   OH219763   5.574   3.518   0.863
 6607TIP3    H119764   5.501   3.578   0.845
 6607TIP3    H219765   5.556   3.442   0.807
 6608TIP3   OH219766   7.282   5.311   1.812
 6608TIP3    H119767   7.263   5.388   1.865
 6608TIP3    H219768   7.359   5.336   1.760
 6609TIP3   OH219769   2.870   2.518   0.928
 6609TIP3    H119770   2.871   2.488   1.019
 6609TIP3    H219771   2.853   2.612   0.934
 6610TIP3   OH219772   5.431   1.084   5.296
 6610TIP3    H119773   5.485   1.007   5.313
 6610TIP3    H219774   5.419   1.085   5.201
 6611TIP3   OH219775   2.307   5.992   4.966
 6611TIP3    H119776   2.237   5.937   5.001
 6611TIP3    H219777   2.305   5.978   4.872
 6612TIP3   OH219778   5.611   5.149   2.410
 6612TIP3    H119779   5.627   5.195   2.492
 6612TIP3    H219780   5.529   5.186   2.377
 6613TIP3   OH219781   7.525   1.949   0.990
 6613TIP3    H119782   7.510   1.861   1.022
 6613TIP3    H219783   7.458   2.003   1.033
 6614TIP3   OH219784   7.535   6.703   3.453
 6614TIP3    H119785   7.499   6.751   3.377
 6614TIP3    H219786   7.629   6.698   3.436
 6615TIP3   OH219787   1.988   4.456   4.157
 6615TIP3    H119788   2.058   4.520   4.169
 6615TIP3    H219789   1.974   4.419   4.244
 6616TIP3   OH219790   7.556   0.140   1.214
 6616TIP3    H119791   7.505   0.063   1.240
 6616TIP3    H219792   7.609   0.110   1.140
 6617TIP3   OH219793   6.910   1.423   4.149
 6617TIP3    H119794   6.873   1.449   4.233
 6617TIP3    H219795   6.845   1.451   4.084
 6618TIP3   OH219796   2.673   6.994   4.284
 6618TIP3    H119797   2.691   7.067   4.225
 6618TIP3    H219798   2.716   6.919   4.243
 6619TIP3   OH219799   1.123   6.366   0.562
 6619TIP3    H119800   1.109   6.328   0.649
 6619TIP3    H219801   1.178   6.302   0.516
 6620TIP3   OH219802   3.745   0.464   3.589
 6620TIP3    H119803   3.741   0.381   3.543
 6620TIP3    H219804   3.822   0.456   3.646
 6621TIP3   OH219805   1.371   6.816   0.228
 6621TIP3    H119806   1.356   6.750   0.161
 6621TIP3    H219807   1.329   6.895   0.194
 6622TIP3   OH219808   2.940   4.824   0.880
 6622TIP3    H119809   2.863   4.864   0.841
 6622TIP3    H219810   2.945   4.737   0.840
 6623TIP3   OH219811   6.526   5.398   2.356
 6623TIP3    H119812   6.455   5.334   2.346
 6623TIP3    H219813   6.582   5.361   2.423
 6624TIP3   OH219814   1.401   5.088   0.807
 6624TIP3    H119815   1.402   4.995   0.828
 6624TIP3    H219816   1.492   5.116   0.822
 6625TIP3   OH219817   7.858   2.083   5.646
 6625TIP3    H119818   7.789   2.042   5.698
 6625TIP3    H219819   7.902   2.142   5.707
 6626TIP3   OH219820   5.682   4.349   3.661
 6626TIP3    H119821   5.677   4.439   3.695
 6626TIP3    H219822   5.606   4.306   3.699
 6627TIP3   OH219823   5.557   0.739   6.637
 6627TIP3    H119824   5.606   0.796   6.697
 6627TIP3    H219825   5.465   0.762   6.651
 6628TIP3   OH219826   4.170   6.441   6.672
 6628TIP3    H119827   4.191   6.396   6.754
 6628TIP3    H219828   4.118   6.517   6.699
 6629TIP3   OH219829   1.071   3.292   1.417
 6629TIP3    H119830   1.133   3.224   1.444
 6629TIP3    H219831   1.085   3.363   1.480
 6630TIP3   OH219832   6.605   2.883   1.439
 6630TIP3    H119833   6.624   2.853   1.350
 6630TIP3    H219834   6.664   2.832   1.495
 6631TIP3   OH219835   5.477   7.256   6.715
 6631TIP3    H119836   5.432   7.176   6.742
 6631TIP3    H219837   5.568   7.230   6.701
 6632TIP3   OH219838   4.421   0.100   2.098
 6632TIP3    H119839   4.339   0.069   2.138
 6632TIP3    H219840   4.439   0.182   2.143
 6633TIP3   OH219841   5.474   1.466   6.526
 6633TIP3    H119842   5.469   1.432   6.616
 6633TIP3    H219843   5.476   1.561   6.537
 6634TIP3   OH219844   3.874   5.359   4.748
 6634TIP3    H119845   3.969   5.371   4.743
 6634TIP3    H219846   3.845   5.422   4.814
 6635TIP3   OH219847   2.998   5.844   2.641
 6635TIP3    H119848   3.078   5.826   2.593
 6635TIP3    H219849   3.027   5.887   2.722
 6636TIP3   OH219850   7.930   0.660   0.531
 6636TIP3    H119851   7.956   0.751   0.544
 6636TIP3    H219852   7.947   0.643   0.439
 6637TIP3   OH219853   2.879   2.096   2.675
 6637TIP3    H119854   2.799   2.147   2.677
 6637TIP3    H219855   2.886   2.058   2.763
 6638TIP3   OH219856   0.153   6.354   3.743
 6638TIP3    H119857   0.226   6.372   3.684
 6638TIP3    H219858   0.115   6.440   3.763
 6639TIP3   OH219859   2.528   4.259   3.151
 6639TIP3    H119860   2.561   4.341   3.114
 6639TIP3    H219861   2.504   4.207   3.074
 6640TIP3   OH219862   5.502   2.531   5.098
 6640TIP3    H119863   5.447   2.604   5.130
 6640TIP3    H219864   5.487   2.461   5.161
 6641TIP3   OH219865   0.970   4.919   1.052
 6641TIP3    H119866   0.986   4.998   1.001
 6641TIP3    H219867   1.033   4.924   1.124
 6642TIP3   OH219868   2.231   3.714   5.688
 6642TIP3    H119869   2.198   3.631   5.724
 6642TIP3    H219870   2.198   3.717   5.599
 6643TIP3   OH219871   6.727   1.158   1.867
 6643TIP3    H119872   6.751   1.096   1.798
 6643TIP3    H219873   6.772   1.125   1.945
 6644TIP3   OH219874   5.409   6.638   6.268
 6644TIP3    H119875   5.402   6.603   6.356
 6644TIP3    H219876   5.368   6.724   6.272
 6645TIP3   OH219877   7.025   2.609   0.679
 6645TIP3    H119878   7.008   2.635   0.588
 6645TIP3    H219879   6.938   2.609   0.720
 6646TIP3   OH219880   6.757   3.475   2.574
 6646TIP3    H119881   6.797   3.540   2.633
 6646TIP3    H219882   6.748   3.521   2.491
 6647TIP3   OH219883   4.925   0.557   0.247
 6647TIP3    H119884   4.991   0.507   0.200
 6647TIP3    H219885   4.863   0.584   0.179
 6648TIP3   OH219886   7.049   2.070   3.786
 6648TIP3    H119887   7.057   2.134   3.715
 6648TIP3    H219888   6.978   2.011   3.758
 6649TIP3   OH219889   3.291   2.814   5.800
 6649TIP3    H119890   3.377   2.845   5.772
 6649TIP3    H219891   3.266   2.748   5.735
 6650TIP3   OH219892   1.880   2.107   5.647
 6650TIP3    H119893   1.911   2.118   5.737
 6650TIP3    H219894   1.798   2.156   5.643
 6651TIP3   OH219895   1.933   1.955   1.883
 6651TIP3    H119896   1.936   1.959   1.787
 6651TIP3    H219897   1.840   1.962   1.904
 6652TIP3   OH219898   1.045   6.884   4.038
 6652TIP3    H119899   1.044   6.895   3.943
 6652TIP3    H219900   1.091   6.801   4.052
 6653TIP3   OH219901   2.782   7.376   5.425
 6653TIP3    H119902   2.705   7.391   5.480
 6653TIP3    H219903   2.754   7.308   5.363
 6654TIP3   OH219904   2.508   5.202   2.581
 6654TIP3    H119905   2.570   5.273   2.567
 6654TIP3    H219906   2.518   5.180   2.674
 6655TIP3   OH219907   8.300   0.681   3.443
 6655TIP3    H119908   8.274   0.771   3.429
 6655TIP3    H219909   8.284   0.638   3.359
 6656TIP3   OH219910   4.370   3.391   2.758
 6656TIP3    H119911   4.345   3.475   2.720
 6656TIP3    H219912   4.454   3.407   2.799
 6657TIP3   OH219913   4.575   3.880   6.362
 6657TIP3    H119914   4.543   3.794   6.336
 6657TIP3    H219915   4.497   3.926   6.392
 6658TIP3   OH219916   0.808   0.949   0.686
 6658TIP3    H119917   0.879   0.987   0.633
 6658TIP3    H219918   0.802   0.858   0.656
 6659TIP3   OH219919   0.014   7.033   5.116
 6659TIP3    H119920   0.055   6.962   5.066
 6659TIP3    H219921   0.074   7.049   5.189
 6660TIP3   OH219922   4.181   5.565   1.923
 6660TIP3    H119923   4.203   5.476   1.898
 6660TIP3    H219924   4.240   5.584   1.997
 6661TIP3   OH219925   4.496   1.393   6.134
 6661TIP3    H119926   4.586   1.425   6.132
 6661TIP3    H219927   4.495   1.321   6.071
 6662TIP3   OH219928   3.635   3.100   1.813
 6662TIP3    H119929   3.700   3.100   1.742
 6662TIP3    H219930   3.632   3.008   1.842
 6663TIP3   OH219931   2.370   3.612   3.181
 6663TIP3    H119932   2.430   3.674   3.140
 6663TIP3    H219933   2.425   3.558   3.237
 6664TIP3   OH219934   2.914   4.863   6.467
 6664TIP3    H119935   2.903   4.946   6.514
 6664TIP3    H219936   2.904   4.887   6.375
 6665TIP3   OH219937   5.581   3.655   2.371
 6665TIP3    H119938   5.575   3.678   2.278
 6665TIP3    H219939   5.509   3.702   2.413
 6666TIP3   OH219940   4.686   3.341   3.545
 6666TIP3    H119941   4.775   3.307   3.544
 6666TIP3    H219942   4.641   3.288   3.612
 6667TIP3   OH219943   5.204   5.402   3.104
 6667TIP3    H119944   5.209   5.306   3.107
 6667TIP3    H219945   5.141   5.425   3.173
 6668TIP3   OH219946   3.552   7.684   1.697
 6668TIP3    H119947   3.523   7.641   1.778
 6668TIP3    H219948   3.479   7.671   1.636
 6669TIP3   OH219949   8.072   3.353   0.966
 6669TIP3    H119950   8.092   3.348   1.059
 6669TIP3    H219951   7.980   3.327   0.959
 6670TIP3   OH219952   3.612   1.243   2.367
 6670TIP3    H119953   3.573   1.326   2.392
 6670TIP3    H219954   3.595   1.185   2.441
 6671TIP3   OH219955   7.062   6.976   0.271
 6671TIP3    H119956   7.060   6.957   0.364
 6671TIP3    H219957   6.988   7.035   0.256
 6672TIP3   OH219958   1.194   1.575   3.084
 6672TIP3    H119959   1.173   1.654   3.135
 6672TIP3    H219960   1.110   1.545   3.050
 6673TIP3   OH219961   8.335   3.388   5.714
 6673TIP3    H119962   8.275   3.460   5.696
 6673TIP3    H219963   8.329   3.332   5.637
 6674TIP3   OH219964   0.141   5.182   3.797
 6674TIP3    H119965   0.111   5.273   3.799
 6674TIP3    H219966   0.110   5.145   3.879
 6675TIP3   OH219967   4.118   6.273   4.000
 6675TIP3    H119968   4.032   6.286   3.959
 6675TIP3    H219969   4.107   6.300   4.091
 6676TIP3   OH219970   1.531   2.005   6.150
 6676TIP3    H119971   1.443   1.984   6.118
 6676TIP3    H219972   1.516   2.067   6.222
 6677TIP3   OH219973   3.205   7.158   4.748
 6677TIP3    H119974   3.284   7.213   4.744
 6677TIP3    H219975   3.162   7.172   4.663
 6678TIP3   OH219976   3.160   4.533   3.331
 6678TIP3    H119977   3.222   4.460   3.338
 6678TIP3    H219978   3.186   4.593   3.400
 6679TIP3   OH219979   2.711   1.546   5.487
 6679TIP3    H119980   2.784   1.496   5.449
 6679TIP3    H219981   2.751   1.628   5.514
 6680TIP3   OH219982   6.469   5.950   5.875
 6680TIP3    H119983   6.463   5.862   5.911
 6680TIP3    H219984   6.563   5.966   5.867
 6681TIP3   OH219985   5.142   1.956   3.181
 6681TIP3    H119986   5.225   1.947   3.134
 6681TIP3    H219987   5.078   1.910   3.126
 6682TIP3   OH219988   2.618   3.208   1.518
 6682TIP3    H119989   2.611   3.238   1.427
 6682TIP3    H219990   2.568   3.126   1.520
 6683TIP3   OH219991   5.949   1.538   0.697
 6683TIP3    H119992   5.916   1.455   0.662
 6683TIP3    H219993   5.956   1.594   0.620
 6684TIP3   OH219994   4.574   5.095   4.462
 6684TIP3    H119995   4.539   5.137   4.383
 6684TIP3    H219996   4.498   5.058   4.505
 6685TIP3   OH219997   2.556   3.347   5.312
 6685TIP3    H119998   2.461   3.341   5.300
 6685TIP3    H219999   2.588   3.385   5.231
 6686TIP3   OH220000   7.370   1.636   2.588
 6686TIP3    H120001   7.445   1.689   2.614
 6686TIP3    H220002   7.365   1.645   2.492
 6687TIP3   OH220003   7.800   6.143   6.476
 6687TIP3    H120004   7.819   6.121   6.567
 6687TIP3    H220005   7.875   6.110   6.427
 6688TIP3   OH220006   7.738   6.835   2.498
 6688TIP3    H120007   7.734   6.852   2.404
 6688TIP3    H220008   7.809   6.771   2.508
 6689TIP3   OH220009   0.608   1.529   4.223
 6689TIP3    H120010   0.610   1.567   4.312
 6689TIP3    H220011   0.550   1.587   4.174
 6690TIP3   OH220012   0.151   6.270   5.172
 6690TIP3    H120013   0.161   6.338   5.239
 6690TIP3    H220014   0.112   6.315   5.097
 6691TIP3   OH220015   0.079   3.462   1.422
 6691TIP3    H120016   0.071   3.398   1.351
 6691TIP3    H220017   0.019   3.533   1.398
 6692TIP3   OH220018   4.253   1.405   6.228
 6692TIP3    H120019   4.237   1.499   6.234
 6692TIP3    H220020   4.347   1.397   6.211
 6693TIP3   OH220021   2.284   6.732   6.327
 6693TIP3    H120022   2.290   6.739   6.422
 6693TIP3    H220023   2.265   6.639   6.311
 6694TIP3   OH220024   4.827   6.203   5.526
 6694TIP3    H120025   4.752   6.204   5.585
 6694TIP3    H220026   4.793   6.237   5.443
 6695TIP3   OH220027   6.998   1.069   3.326
 6695TIP3    H120028   7.026   1.055   3.416
 6695TIP3    H220029   6.938   0.997   3.307
 6696TIP3   OH220030   3.763   0.692   6.662
 6696TIP3    H120031   3.825   0.728   6.599
 6696TIP3    H220032   3.801   0.609   6.689
 6697TIP3   OH220033   1.951   2.215   4.526
 6697TIP3    H120034   2.002   2.218   4.445
 6697TIP3    H220035   1.989   2.141   4.575
 6698TIP3   OH220036   1.355   6.988   0.482
 6698TIP3    H120037   1.395   7.073   0.463
 6698TIP3    H220038   1.388   6.930   0.414
 6699TIP3   OH220039   3.818   1.573   0.854
 6699TIP3    H120040   3.748   1.533   0.801
 6699TIP3    H220041   3.875   1.615   0.790
 6700TIP3   OH220042   4.226   4.321   4.299
 6700TIP3    H120043   4.175   4.262   4.354
 6700TIP3    H220044   4.162   4.357   4.237
 6701TIP3   OH220045   2.185   2.774   5.644
 6701TIP3    H120046   2.131   2.697   5.629
 6701TIP3    H220047   2.273   2.747   5.617
 6702TIP3   OH220048   5.859   6.374   2.605
 6702TIP3    H120049   5.793   6.322   2.558
 6702TIP3    H220050   5.935   6.317   2.610
 6703TIP3   OH220051   7.505   1.100   5.835
 6703TIP3    H120052   7.434   1.036   5.842
 6703TIP3    H220053   7.462   1.182   5.810
 6704TIP3   OH220054   3.432   4.734   0.689
 6704TIP3    H120055   3.343   4.769   0.689
 6704TIP3    H220056   3.462   4.744   0.598
 6705TIP3   OH220057   0.972   4.461   4.672
 6705TIP3    H120058   0.961   4.554   4.650
 6705TIP3    H220059   0.965   4.459   4.768
 6706TIP3   OH220060   0.358   7.428   3.165
 6706TIP3    H120061   0.383   7.408   3.255
 6706TIP3    H220062   0.285   7.489   3.173
 6707TIP3   OH220063   5.528   3.578   3.245
 6707TIP3    H120064   5.584   3.656   3.242
 6707TIP3    H220065   5.449   3.604   3.197
 6708TIP3   OH220066   3.682   5.741   2.843
 6708TIP3    H120067   3.634   5.692   2.909
 6708TIP3    H220068   3.685   5.830   2.877
 6709TIP3   OH220069   7.297   6.330   4.562
 6709TIP3    H120070   7.305   6.239   4.592
 6709TIP3    H220071   7.381   6.350   4.522
 6710TIP3   OH220072   4.045   6.010   4.581
 6710TIP3    H120073   4.120   6.067   4.599
 6710TIP3    H220074   3.973   6.048   4.633
 6711TIP3   OH220075   7.294   2.702   4.089
 6711TIP3    H120076   7.245   2.623   4.068
 6711TIP3    H220077   7.241   2.773   4.052
 6712TIP3   OH220078   0.980   6.003   1.157
 6712TIP3    H120079   0.913   5.934   1.146
 6712TIP3    H220080   1.041   5.966   1.221
 6713TIP3   OH220081   5.801   2.598   3.461
 6713TIP3    H120082   5.757   2.529   3.511
 6713TIP3    H220083   5.893   2.589   3.485
 6714TIP3   OH220084   1.536   0.413   6.194
 6714TIP3    H120085   1.470   0.478   6.169
 6714TIP3    H220086   1.494   0.329   6.177
 6715TIP3   OH220087   3.203   1.865   6.618
 6715TIP3    H120088   3.293   1.873   6.649
 6715TIP3    H220089   3.181   1.952   6.585
 6716TIP3   OH220090   8.235   5.451   5.357
 6716TIP3    H120091   8.297   5.377   5.355
 6716TIP3    H220092   8.162   5.419   5.410
 6717TIP3   OH220093   0.046   1.949   4.948
 6717TIP3    H120094   0.024   1.870   4.997
 6717TIP3    H220095   0.141   1.945   4.937
 6718TIP3   OH220096   6.249   4.709   4.081
 6718TIP3    H120097   6.167   4.671   4.049
 6718TIP3    H220098   6.317   4.670   4.027
 6719TIP3   OH220099   3.081   3.584   4.321
 6719TIP3    H120100   3.106   3.526   4.392
 6719TIP3    H220101   3.097   3.672   4.354
 6720TIP3   OH220102   8.321   4.701   0.758
 6720TIP3    H120103   8.350   4.706   0.849
 6720TIP3    H220104   8.292   4.790   0.738
 6721TIP3   OH220105   2.262   5.013   3.087
 6721TIP3    H120106   2.205   5.054   3.151
 6721TIP3    H220107   2.350   5.023   3.123
 6722TIP3   OH220108   1.568   5.804   5.799
 6722TIP3    H120109   1.604   5.887   5.766
 6722TIP3    H220110   1.635   5.739   5.777
 6723TIP3   OH220111   6.104   0.067   1.486
 6723TIP3    H120112   6.023   0.078   1.437
 6723TIP3    H220113   6.105  -0.026   1.511
 6724TIP3   OH220114   3.127   7.356   2.219
 6724TIP3    H120115   3.116   7.418   2.292
 6724TIP3    H220116   3.039   7.347   2.182
 6725TIP3   OH220117   4.913   1.139   1.494
 6725TIP3    H120118   4.835   1.129   1.548
 6725TIP3    H220119   4.889   1.099   1.411
 6726TIP3   OH220120   5.693   2.160   0.919
 6726TIP3    H120121   5.621   2.097   0.911
 6726TIP3    H220122   5.772   2.106   0.910
 6727TIP3   OH220123   2.438   6.537   5.893
 6727TIP3    H120124   2.416   6.597   5.963
 6727TIP3    H220125   2.481   6.463   5.936
 6728TIP3   OH220126   5.893   7.449   3.614
 6728TIP3    H120127   5.944   7.379   3.655
 6728TIP3    H220128   5.852   7.409   3.538
 6729TIP3   OH220129   1.980   4.855   6.379
 6729TIP3    H120130   1.910   4.826   6.436
 6729TIP3    H220131   1.973   4.798   6.302
 6730TIP3   OH220132   7.000   2.060   5.575
 6730TIP3    H120133   6.971   2.003   5.646
 6730TIP3    H220134   6.919   2.093   5.536
 6731TIP3   OH220135   2.629   3.257   3.585
 6731TIP3    H120136   2.621   3.201   3.508
 6731TIP3    H220137   2.646   3.196   3.657
 6732TIP3   OH220138   0.037   2.487   1.831
 6732TIP3    H120139   0.081   2.509   1.749
 6732TIP3    H220140  -0.051   2.460   1.804
 6733TIP3   OH220141   5.126   0.018   3.589
 6733TIP3    H120142   5.117  -0.027   3.505
 6733TIP3    H220143   5.131  -0.052   3.654
 6734TIP3   OH220144   0.911   7.594   0.890
 6734TIP3    H120145   0.888   7.503   0.871
 6734TIP3    H220146   0.829   7.634   0.919
 6735TIP3   OH220147   5.766   7.103   6.348
 6735TIP3    H120148   5.700   7.165   6.317
 6735TIP3    H220149   5.723   7.055   6.419
 6736TIP3   OH220150   6.945   4.087   2.787
 6736TIP3    H120151   6.965   4.179   2.767
 6736TIP3    H220152   7.020   4.057   2.838
 6737TIP3   OH220153   7.488   2.091   6.310
 6737TIP3    H120154   7.544   2.064   6.237
 6737TIP3    H220155   7.401   2.058   6.287
 6738TIP3   OH220156   2.446   6.856   2.329
 6738TIP3    H120157   2.439   6.823   2.239
 6738TIP3    H220158   2.446   6.778   2.384
 6739TIP3   OH220159   0.233   3.718   0.204
 6739TIP3    H120160   0.165   3.689   0.144
 6739TIP3    H220161   0.224   3.660   0.280
 6740TIP3   OH220162   7.769   0.574   3.949
 6740TIP3    H120163   7.848   0.591   3.898
 6740TIP3    H220164   7.755   0.654   3.999
 6741TIP3   OH220165   4.994   5.539   4.548
 6741TIP3    H120166   5.051   5.518   4.621
 6741TIP3    H220167   5.054   5.549   4.473
 6742TIP3   OH220168   8.090   3.169   3.159
 6742TIP3    H120169   8.055   3.163   3.070
 6742TIP3    H220170   8.185   3.165   3.147
 6743TIP3   OH220171   1.160   0.934   0.764
 6743TIP3    H120172   1.117   1.015   0.737
 6743TIP3    H220173   1.186   0.893   0.682
 6744TIP3   OH220174   5.277   4.416   2.667
 6744TIP3    H120175   5.215   4.422   2.740
 6744TIP3    H220176   5.260   4.493   2.614
 6745TIP3   OH220177   4.086   5.026   4.252
 6745TIP3    H120178   4.035   5.071   4.184
 6745TIP3    H220179   4.162   5.082   4.266
 6746TIP3   OH220180   8.266   3.888   5.209
 6746TIP3    H120181   8.280   3.864   5.118
 6746TIP3    H220182   8.279   3.982   5.212
 6747TIP3   OH220183   0.029   1.620   0.394
 6747TIP3    H120184  -0.022   1.605   0.315
 6747TIP3    H220185   0.091   1.546   0.396
 6748TIP3   OH220186   2.699   1.322   1.032
 6748TIP3    H120187   2.665   1.387   1.094
 6748TIP3    H220188   2.785   1.357   1.006
 6749TIP3   OH220189   7.390   3.619   0.631
 6749TIP3    H120190   7.329   3.564   0.582
 6749TIP3    H220191   7.382   3.706   0.592
 6750TIP3   OH220192   7.194   4.434   4.866
 6750TIP3    H120193   7.105   4.447   4.833
 6750TIP3    H220194   7.245   4.410   4.789
 6751TIP3   OH220195   4.847   4.532   2.841
 6751TIP3    H120196   4.934   4.509   2.874
 6751TIP3    H220197   4.786   4.482   2.895
 6752TIP3   OH220198   0.975   2.975   4.036
 6752TIP3    H120199   1.051   2.922   4.059
 6752TIP3    H220200   0.958   3.028   4.114
 6753TIP3   OH220201   5.031   3.764   1.310
 6753TIP3    H120202   5.038   3.682   1.261
 6753TIP3    H220203   4.963   3.814   1.264
 6754TIP3   OH220204   8.065   1.979   4.642
 6754TIP3    H120205   7.988   1.967   4.587
 6754TIP3    H220206   8.073   1.898   4.691
 6755TIP3   OH220207   1.962   7.792   4.898
 6755TIP3    H120208   1.996   7.764   4.982
 6755TIP3    H220209   1.879   7.746   4.889
 6756TIP3   OH220210   5.223   1.727   0.920
 6756TIP3    H120211   5.191   1.697   0.834
 6756TIP3    H220212   5.278   1.655   0.951
 6757TIP3   OH220213   3.120   0.949  -0.001
 6757TIP3    H120214   3.137   1.007   0.073
 6757TIP3    H220215   3.024   0.949  -0.010
 6758TIP3   OH220216   4.430   1.340   5.429
 6758TIP3    H120217   4.341   1.313   5.409
 6758TIP3    H220218   4.432   1.434   5.411
 6759TIP3   OH220219   6.304   7.561   2.647
 6759TIP3    H120220   6.383   7.598   2.686
 6759TIP3    H220221   6.334   7.483   2.600
 6760TIP3   OH220222   6.590   4.313   0.290
 6760TIP3    H120223   6.543   4.354   0.218
 6760TIP3    H220224   6.667   4.368   0.303
 6761TIP3   OH220225   1.887   4.576   0.303
 6761TIP3    H120226   1.911   4.582   0.396
 6761TIP3    H220227   1.931   4.496   0.273
 6762TIP3   OH220228   0.893   7.633   3.455
 6762TIP3    H120229   0.941   7.560   3.416
 6762TIP3    H220230   0.939   7.711   3.423
 6763TIP3   OH220231   3.543   1.143   3.078
 6763TIP3    H120232   3.514   1.139   3.169
 6763TIP3    H220233   3.568   1.235   3.065
 6764TIP3   OH220234   2.172   4.045   3.377
 6764TIP3    H120235   2.119   3.993   3.438
 6764TIP3    H220236   2.240   3.985   3.347
 6765TIP3   OH220237   6.485   3.527   3.266
 6765TIP3    H120238   6.558   3.541   3.327
 6765TIP3    H220239   6.444   3.446   3.296
 6766TIP3   OH220240   5.785   7.377   6.157
 6766TIP3    H120241   5.742   7.427   6.088
 6766TIP3    H220242   5.781   7.434   6.234
 6767TIP3   OH220243   1.502   1.926   4.477
 6767TIP3    H120244   1.573   1.987   4.493
 6767TIP3    H220245   1.532   1.873   4.403
 6768TIP3   OH220246   8.282   0.812   5.662
 6768TIP3    H120247   8.239   0.777   5.740
 6768TIP3    H220248   8.211   0.825   5.599
 6769TIP3   OH220249   0.216   4.520   5.563
 6769TIP3    H120250   0.189   4.612   5.564
 6769TIP3    H220251   0.178   4.485   5.482
 6770TIP3   OH220252   0.524   1.590   1.517
 6770TIP3    H120253   0.543   1.516   1.574
 6770TIP3    H220254   0.470   1.553   1.447
 6771TIP3   OH220255   3.764   2.561   1.833
 6771TIP3    H120256   3.763   2.641   1.781
 6771TIP3    H220257   3.808   2.586   1.915
 6772TIP3   OH220258   3.095   0.281   5.461
 6772TIP3    H120259   3.059   0.343   5.525
 6772TIP3    H220260   3.174   0.324   5.428
 6773TIP3   OH220261   8.033   5.096   0.319
 6773TIP3    H120262   8.091   5.048   0.259
 6773TIP3    H220263   8.076   5.180   0.332
 6774TIP3   OH220264   0.081   3.815   0.695
 6774TIP3    H120265   0.087   3.904   0.662
 6774TIP3    H220266   0.084   3.823   0.790
 6775TIP3   OH220267   3.357   2.404   3.230
 6775TIP3    H120268   3.339   2.418   3.323
 6775TIP3    H220269   3.452   2.394   3.225
 6776TIP3   OH220270   8.057   7.379   1.162
 6776TIP3    H120271   8.147   7.386   1.196
 6776TIP3    H220272   8.052   7.445   1.093
 6777TIP3   OH220273   6.304   6.699   4.496
 6777TIP3    H120274   6.362   6.650   4.554
 6777TIP3    H220275   6.217   6.664   4.514
 6778TIP3   OH220276   5.949   1.996   0.451
 6778TIP3    H120277   5.968   1.983   0.358
 6778TIP3    H220278   5.994   1.924   0.495
 6779TIP3   OH220279   5.833   1.399   0.402
 6779TIP3    H120280   5.879   1.337   0.345
 6779TIP3    H220281   5.840   1.361   0.490
 6780TIP3   OH220282   8.186   3.942   2.208
 6780TIP3    H120283   8.139   3.932   2.126
 6780TIP3    H220284   8.173   3.859   2.255
 6781TIP3   OH220285   0.641   6.073   0.376
 6781TIP3    H120286   0.577   6.144   0.384
 6781TIP3    H220287   0.726   6.114   0.392
 6782TIP3   OH220288   6.516   4.703   0.784
 6782TIP3    H120289   6.544   4.728   0.872
 6782TIP3    H220290   6.425   4.734   0.778
 6783TIP3   OH220291   0.831   0.254   6.051
 6783TIP3    H120292   0.825   0.231   5.959
 6783TIP3    H220293   0.743   0.242   6.085
 6784TIP3   OH220294   1.331   1.809   4.652
 6784TIP3    H120295   1.386   1.852   4.587
 6784TIP3    H220296   1.242   1.819   4.619
 6785TIP3   OH220297   6.177   0.817   2.981
 6785TIP3    H120298   6.158   0.729   2.949
 6785TIP3    H220299   6.131   0.823   3.064
 6786TIP3   OH220300   5.422   5.699   4.577
 6786TIP3    H120301   5.382   5.675   4.660
 6786TIP3    H220302   5.515   5.677   4.588
 6787TIP3   OH220303   1.636   0.892   2.137
 6787TIP3    H120304   1.724   0.907   2.171
 6787TIP3    H220305   1.650   0.855   2.050
 6788TIP3   OH220306   5.329   6.458   2.734
 6788TIP3    H120307   5.241   6.421   2.731
 6788TIP3    H220308   5.374   6.410   2.803
 6789TIP3   OH220309   3.769   7.336   4.142
 6789TIP3    H120310   3.765   7.241   4.156
 6789TIP3    H220311   3.860   7.353   4.116
 6790TIP3   OH220312   1.452   1.369   0.172
 6790TIP3    H120313   1.371   1.402   0.211
 6790TIP3    H220314   1.425   1.335   0.086
 6791TIP3   OH220315   6.231   0.387   2.707
 6791TIP3    H120316   6.282   0.306   2.703
 6791TIP3    H220317   6.249   0.431   2.624
 6792TIP3   OH220318   5.266   3.190   5.581
 6792TIP3    H120319   5.234   3.156   5.665
 6792TIP3    H220320   5.187   3.213   5.533
 6793TIP3   OH220321   1.565   7.541   5.113
 6793TIP3    H120322   1.658   7.533   5.134
 6793TIP3    H220323   1.531   7.452   5.123
 6794TIP3   OH220324   3.660   7.183   3.655
 6794TIP3    H120325   3.631   7.099   3.619
 6794TIP3    H220326   3.748   7.165   3.688
 6795TIP3   OH220327   3.969   5.853   1.570
 6795TIP3    H120328   3.878   5.831   1.550
 6795TIP3    H220329   4.013   5.768   1.576
 6796TIP3   OH220330   2.463   6.188   0.949
 6796TIP3    H120331   2.435   6.278   0.933
 6796TIP3    H220332   2.559   6.192   0.950
 6797TIP3   OH220333   1.416   3.579   5.443
 6797TIP3    H120334   1.337   3.592   5.496
 6797TIP3    H220335   1.388   3.593   5.353
 6798TIP3   OH220336   2.686   7.013   0.239
 6798TIP3    H120337   2.744   6.946   0.201
 6798TIP3    H220338   2.627   6.963   0.296
 6799TIP3   OH220339   0.663   0.082   1.868
 6799TIP3    H120340   0.582   0.115   1.907
 6799TIP3    H220341   0.703   0.029   1.937
 6800TIP3   OH220342   7.662   7.075   2.675
 6800TIP3    H120343   7.651   6.987   2.639
 6800TIP3    H220344   7.756   7.082   2.692
 6801TIP3   OH220345   6.334   0.807   0.677
 6801TIP3    H120346   6.341   0.760   0.594
 6801TIP3    H220347   6.418   0.852   0.686
 6802TIP3   OH220348   6.865   7.357   0.821
 6802TIP3    H120349   6.896   7.352   0.731
 6802TIP3    H220350   6.862   7.266   0.851
 6803TIP3   OH220351   6.426   5.273   1.813
 6803TIP3    H120352   6.343   5.226   1.806
 6803TIP3    H220353   6.453   5.261   1.905
 6804TIP3   OH220354   0.601   7.346   4.641
 6804TIP3    H120355   0.525   7.352   4.699
 6804TIP3    H220356   0.637   7.435   4.639
 6805TIP3   OH220357   4.596   2.757   2.144
 6805TIP3    H120358   4.522   2.712   2.186
 6805TIP3    H220359   4.673   2.710   2.174
 6806TIP3   OH220360   6.864   2.230   2.983
 6806TIP3    H120361   6.949   2.230   3.027
 6806TIP3    H220362   6.880   2.190   2.898
 6807TIP3   OH220363   7.355   0.586   4.697
 6807TIP3    H120364   7.446   0.573   4.723
 6807TIP3    H220365   7.327   0.665   4.744
 6808TIP3   OH220366   4.924   0.122   2.846
 6808TIP3    H120367   4.892   0.087   2.763
 6808TIP3    H220368   4.947   0.044   2.897
 6809TIP3   OH220369   0.843   6.479   1.437
 6809TIP3    H120370   0.763   6.447   1.395
 6809TIP3    H220371   0.813   6.518   1.519
 6810TIP3   OH220372   1.782   2.106   2.815
 6810TIP3    H120373   1.818   2.160   2.885
 6810TIP3    H220374   1.693   2.086   2.845
 6811TIP3   OH220375   7.221   3.937   5.581
 6811TIP3    H120376   7.208   3.891   5.498
 6811TIP3    H220377   7.194   4.027   5.562
 6812TIP3   OH220378   0.491   7.587   0.366
 6812TIP3    H120379   0.566   7.607   0.422
 6812TIP3    H220380   0.415   7.602   0.422
 6813TIP3   OH220381   5.631   6.517   4.859
 6813TIP3    H120382   5.583   6.483   4.935
 6813TIP3    H220383   5.592   6.473   4.784
 6814TIP3   OH220384   7.985   3.224   2.116
 6814TIP3    H120385   8.044   3.289   2.078
 6814TIP3    H220386   7.972   3.159   2.047
 6815TIP3   OH220387   7.709   7.126   2.312
 6815TIP3    H120388   7.695   7.032   2.298
 6815TIP3    H220389   7.665   7.168   2.238
 6816TIP3   OH220390   4.738   6.953   5.854
 6816TIP3    H120391   4.736   6.973   5.761
 6816TIP3    H220392   4.724   7.037   5.898
 6817TIP3   OH220393   8.024   6.888   1.010
 6817TIP3    H120394   7.976   6.876   0.928
 6817TIP3    H220395   8.025   6.983   1.023
 6818TIP3   OH220396   6.271   0.130   5.863
 6818TIP3    H120397   6.306   0.204   5.813
 6818TIP3    H220398   6.190   0.107   5.818
 6819TIP3   OH220399   4.532   0.954   5.412
 6819TIP3    H120400   4.500   0.946   5.322
 6819TIP3    H220401   4.577   1.039   5.413
 6820TIP3   OH220402   0.279   1.339   1.624
 6820TIP3    H120403   0.288   1.383   1.539
 6820TIP3    H220404   0.331   1.259   1.615
 6821TIP3   OH220405   6.074   4.107   2.984
 6821TIP3    H120406   6.002   4.048   3.006
 6821TIP3    H220407   6.084   4.099   2.889
 6822TIP3   OH220408   0.745   3.337   4.902
 6822TIP3    H120409   0.778   3.423   4.928
 6822TIP3    H220410   0.666   3.325   4.955
 6823TIP3   OH220411   5.197   4.522   5.387
 6823TIP3    H120412   5.141   4.543   5.312
 6823TIP3    H220413   5.140   4.476   5.448
 6824TIP3   OH220414   2.199   6.047   6.559
 6824TIP3    H120415   2.283   6.087   6.581
 6824TIP3    H220416   2.204   5.958   6.595
 6825TIP3   OH220417   2.719   4.050   3.400
 6825TIP3    H120418   2.808   4.025   3.426
 6825TIP3    H220419   2.699   4.126   3.454
 6826TIP3   OH220420   4.574   6.362   4.639
 6826TIP3    H120421   4.666   6.338   4.629
 6826TIP3    H220422   4.575   6.436   4.700
 6827TIP3   OH220423   2.972   3.411   5.283
 6827TIP3    H120424   2.896   3.432   5.337
 6827TIP3    H220425   3.043   3.397   5.346
 6828TIP3   OH220426   3.835   2.569   1.081
 6828TIP3    H120427   3.817   2.489   1.130
 6828TIP3    H220428   3.752   2.617   1.080
 6829TIP3   OH220429   1.429   1.569   1.241
 6829TIP3    H120430   1.359   1.573   1.307
 6829TIP3    H220431   1.425   1.480   1.206
 6830TIP3   OH220432   2.163   4.460   5.765
 6830TIP3    H120433   2.155   4.364   5.765
 6830TIP3    H220434   2.229   4.478   5.698
 6831TIP3   OH220435   3.729   5.465   0.544
 6831TIP3    H120436   3.817   5.497   0.525
 6831TIP3    H220437   3.727   5.377   0.507
 6832TIP3   OH220438   4.099   2.189   2.232
 6832TIP3    H120439   4.166   2.178   2.299
 6832TIP3    H220440   4.026   2.230   2.279
 6833TIP3   OH220441   2.007   1.082   5.741
 6833TIP3    H120442   2.088   1.115   5.702
 6833TIP3    H220443   1.964   1.035   5.669
 6834TIP3   OH220444   0.626   5.307   2.996
 6834TIP3    H120445   0.548   5.334   2.947
 6834TIP3    H220446   0.591   5.260   3.072
 6835TIP3   OH220447   7.595   5.587   1.146
 6835TIP3    H120448   7.631   5.617   1.062
 6835TIP3    H220449   7.583   5.668   1.196
 6836TIP3   OH220450   0.581   4.898   2.589
 6836TIP3    H120451   0.566   4.923   2.680
 6836TIP3    H220452   0.605   4.805   2.593
 6837TIP3   OH220453   4.839   2.370   3.027
 6837TIP3    H120454   4.907   2.304   3.012
 6837TIP3    H220455   4.859   2.406   3.113
 6838TIP3   OH220456   7.090   3.988   4.628
 6838TIP3    H120457   7.113   4.018   4.541
 6838TIP3    H220458   7.109   3.894   4.628
 6839TIP3   OH220459   4.029   1.586   1.487
 6839TIP3    H120460   4.099   1.586   1.422
 6839TIP3    H220461   4.026   1.676   1.519
 6840TIP3   OH220462   5.053   4.762   2.741
 6840TIP3    H120463   5.019   4.673   2.747
 6840TIP3    H220464   5.137   4.752   2.696
 6841TIP3   OH220465   4.988   3.413   0.126
 6841TIP3    H120466   4.898   3.405   0.095
 6841TIP3    H220467   5.004   3.507   0.132
 6842TIP3   OH220468   8.191   6.667   1.935
 6842TIP3    H120469   8.185   6.686   1.841
 6842TIP3    H220470   8.277   6.627   1.946
 6843TIP3   OH220471   5.849   1.536   6.599
 6843TIP3    H120472   5.885   1.543   6.687
 6843TIP3    H220473   5.773   1.480   6.608
 6844TIP3   OH220474   0.494   0.680   0.506
 6844TIP3    H120475   0.459   0.645   0.588
 6844TIP3    H220476   0.520   0.603   0.456
 6845TIP3   OH220477   1.110   7.685   1.141
 6845TIP3    H120478   1.182   7.724   1.092
 6845TIP3    H220479   1.138   7.688   1.232
 6846TIP3   OH220480   7.938   7.527   5.924
 6846TIP3    H120481   7.976   7.614   5.936
 6846TIP3    H220482   7.953   7.482   6.007
 6847TIP3   OH220483   2.982   2.689   4.326
 6847TIP3    H120484   2.994   2.684   4.421
 6847TIP3    H220485   3.017   2.607   4.293
 6848TIP3   OH220486   0.418   1.116   6.694
 6848TIP3    H120487   0.497   1.115   6.639
 6848TIP3    H220488   0.421   1.201   6.738
 6849TIP3   OH220489   5.853   7.652   0.309
 6849TIP3    H120490   5.910   7.600   0.365
 6849TIP3    H220491   5.897   7.736   0.301
 6850TIP3   OH220492   8.059   1.139   2.415
 6850TIP3    H120493   8.093   1.221   2.379
 6850TIP3    H220494   8.064   1.077   2.342
 6851TIP3   OH220495   3.355   7.081   3.125
 6851TIP3    H120496   3.416   7.146   3.160
 6851TIP3    H220497   3.344   7.017   3.195
 6852TIP3   OH220498   8.251   6.529   0.872
 6852TIP3    H120499   8.303   6.609   0.861
 6852TIP3    H220500   8.261   6.482   0.789
 6853TIP3   OH220501   7.535   7.573   2.062
 6853TIP3    H120502   7.535   7.668   2.068
 6853TIP3    H220503   7.624   7.546   2.084
 6854TIP3   OH220504   3.927   2.278   3.186
 6854TIP3    H120505   4.010   2.231   3.196
 6854TIP3    H220506   3.868   2.237   3.249
 6855TIP3   OH220507   0.135   6.565   3.024
 6855TIP3    H120508   0.092   6.618   2.957
 6855TIP3    H220509   0.162   6.628   3.091
 6856TIP3   OH220510   6.394   4.718   5.213
 6856TIP3    H120511   6.359   4.629   5.202
 6856TIP3    H220512   6.472   4.707   5.267
 6857TIP3   OH220513   0.775   2.287   0.421
 6857TIP3    H120514   0.771   2.277   0.516
 6857TIP3    H220515   0.806   2.377   0.408
 6858TIP3   OH220516   2.780   3.340   4.071
 6858TIP3    H120517   2.805   3.418   4.121
 6858TIP3    H220518   2.807   3.267   4.125
 6859TIP3   OH220519   3.370   4.648   6.556
 6859TIP3    H120520   3.397   4.680   6.470
 6859TIP3    H220521   3.274   4.648   6.552
 6860TIP3   OH220522   2.806   4.627   1.398
 6860TIP3    H120523   2.820   4.560   1.332
 6860TIP3    H220524   2.721   4.665   1.377
 6861TIP3   OH220525   0.380   7.003   6.058
 6861TIP3    H120526   0.393   6.975   5.967
 6861TIP3    H220527   0.340   6.927   6.101
 6862TIP3   OH220528   3.115   2.009   5.911
 6862TIP3    H120529   3.110   1.915   5.893
 6862TIP3    H220530   3.108   2.016   6.007
 6863TIP3   OH220531   3.914   3.158   0.703
 6863TIP3    H120532   3.904   3.067   0.731
 6863TIP3    H220533   3.826   3.185   0.676
 6864TIP3   OH220534   1.607   3.731   0.569
 6864TIP3    H120535   1.676   3.726   0.635
 6864TIP3    H220536   1.545   3.662   0.592
 6865TIP3   OH220537   3.367   6.520   2.163
 6865TIP3    H120538   3.357   6.531   2.069
 6865TIP3    H220539   3.284   6.552   2.199
 6866TIP3   OH220540   0.987   1.296   2.231
 6866TIP3    H120541   0.896   1.296   2.261
 6866TIP3    H220542   1.023   1.215   2.265
 6867TIP3   OH220543   8.276   4.950   0.660
 6867TIP3    H120544   8.347   4.962   0.597
 6867TIP3    H220545   8.255   5.039   0.689
 6868TIP3   OH220546   3.175   1.681   5.983
 6868TIP3    H120547   3.271   1.674   5.981
 6868TIP3    H220548   3.154   1.685   6.077
 6869TIP3   OH220549   3.072   4.174   0.383
 6869TIP3    H120550   3.131   4.106   0.417
 6869TIP3    H220551   3.129   4.249   0.366
 6870TIP3   OH220552   5.965   0.061   3.769
 6870TIP3    H120553   5.925   0.110   3.697
 6870TIP3    H220554   6.022   0.125   3.813
 6871TIP3   OH220555   4.831   5.654   6.259
 6871TIP3    H120556   4.822   5.591   6.331
 6871TIP3    H220557   4.818   5.739   6.300
 6872TIP3   OH220558   4.296   7.574   6.686
 6872TIP3    H120559   4.391   7.581   6.695
 6872TIP3    H220560   4.262   7.588   6.774
 6873TIP3   OH220561   7.240   5.640   6.622
 6873TIP3    H120562   7.256   5.717   6.676
 6873TIP3    H220563   7.325   5.621   6.582
 6874TIP3   OH220564   7.943   6.679   0.809
 6874TIP3    H120565   7.897   6.704   0.729
 6874TIP3    H220566   8.036   6.690   0.788
 6875TIP3   OH220567   3.408   5.744   0.029
 6875TIP3    H120568   3.338   5.777  -0.028
 6875TIP3    H220569   3.472   5.814   0.032
 6876TIP3   OH220570   4.512   0.619   6.254
 6876TIP3    H120571   4.497   0.639   6.347
 6876TIP3    H220572   4.607   0.624   6.243
 6877TIP3   OH220573   4.343   7.703   0.376
 6877TIP3    H120574   4.403   7.747   0.436
 6877TIP3    H220575   4.256   7.732   0.403
 6878TIP3   OH220576   5.251   6.950   2.830
 6878TIP3    H120577   5.208   6.913   2.753
 6878TIP3    H220578   5.310   6.881   2.860
 6879TIP3   OH220579   4.757   4.127   0.857
 6879TIP3    H120580   4.665   4.147   0.839
 6879TIP3    H220581   4.770   4.153   0.948
 6880TIP3   OH220582   0.665   7.397   5.229
 6880TIP3    H120583   0.725   7.348   5.174
 6880TIP3    H220584   0.698   7.385   5.318
 6881TIP3   OH220585   0.175   2.533   5.391
 6881TIP3    H120586   0.116   2.593   5.437
 6881TIP3    H220587   0.249   2.588   5.365
 6882TIP3   OH220588   4.796   2.542   0.098
 6882TIP3    H120589   4.863   2.505   0.040
 6882TIP3    H220590   4.728   2.575   0.038
 6883TIP3   OH220591   5.148   3.424   6.382
 6883TIP3    H120592   5.170   3.515   6.360
 6883TIP3    H220593   5.111   3.389   6.301
 6884TIP3   OH220594   5.586   0.022   4.433
 6884TIP3    H120595   5.655   0.029   4.367
 6884TIP3    H220596   5.567   0.113   4.457
 6885TIP3   OH220597   5.097   0.498   5.475
 6885TIP3    H120598   5.007   0.465   5.462
 6885TIP3    H220599   5.152   0.430   5.435
 6886TIP3   OH220600   7.120   3.362   3.328
 6886TIP3    H120601   7.201   3.317   3.352
 6886TIP3    H220602   7.059   3.292   3.304
 6887TIP3   OH220603   4.605   5.817   4.261
 6887TIP3    H120604   4.598   5.855   4.348
 6887TIP3    H220605   4.688   5.769   4.263
 6888TIP3   OH220606   6.300   6.869   1.977
 6888TIP3    H120607   6.254   6.884   2.060
 6888TIP3    H220608   6.236   6.892   1.910
 6889TIP3   OH220609   3.194   3.131   3.216
 6889TIP3    H120610   3.140   3.117   3.139
 6889TIP3    H220611   3.190   3.226   3.231
 6890TIP3   OH220612   6.153   2.102   4.066
 6890TIP3    H120613   6.232   2.047   4.062
 6890TIP3    H220614   6.085   2.049   4.026
 6891TIP3   OH220615   5.698   2.329   0.467
 6891TIP3    H120616   5.656   2.407   0.430
 6891TIP3    H220617   5.714   2.352   0.558
 6892TIP3   OH220618   0.396   0.886   3.301
 6892TIP3    H120619   0.463   0.897   3.369
 6892TIP3    H220620   0.445   0.888   3.219
 6893TIP3   OH220621   7.081   4.215   1.551
 6893TIP3    H120622   7.098   4.170   1.468
 6893TIP3    H220623   7.016   4.281   1.530
 6894TIP3   OH220624   0.729   0.091   2.318
 6894TIP3    H120625   0.761   0.051   2.237
 6894TIP3    H220626   0.642   0.124   2.296
 6895TIP3   OH220627   4.168   1.877   4.032
 6895TIP3    H120628   4.247   1.910   3.990
 6895TIP3    H220629   4.110   1.953   4.038
 6896TIP3   OH220630   0.359   6.855   3.688
 6896TIP3    H120631   0.323   6.928   3.740
 6896TIP3    H220632   0.305   6.780   3.713
 6897TIP3   OH220633   6.938   7.526   1.032
 6897TIP3    H120634   6.912   7.500   1.121
 6897TIP3    H220635   6.913   7.452   0.978
 6898TIP3   OH220636   1.739   1.513   0.838
 6898TIP3    H120637   1.829   1.548   0.834
 6898TIP3    H220638   1.747   1.434   0.891
 6899TIP3   OH220639   0.927   1.603   1.855
 6899TIP3    H120640   0.977   1.546   1.914
 6899TIP3    H220641   0.972   1.594   1.771
 6900TIP3   OH220642   1.447   7.525   6.454
 6900TIP3    H120643   1.426   7.586   6.524
 6900TIP3    H220644   1.457   7.441   6.497
 6901TIP3   OH220645   4.043   0.752   6.595
 6901TIP3    H120646   4.092   0.680   6.635
 6901TIP3    H220647   4.098   0.829   6.608
 6902TIP3   OH220648   7.894   5.960   2.491
 6902TIP3    H120649   7.881   5.887   2.431
 6902TIP3    H220650   7.960   6.015   2.449
 6903TIP3   OH220651   7.777   1.256   1.955
 6903TIP3    H120652   7.838   1.313   2.002
 6903TIP3    H220653   7.697   1.258   2.008
 6904TIP3   OH220654   3.990   1.260   6.200
 6904TIP3    H120655   4.051   1.327   6.230
 6904TIP3    H220656   3.916   1.309   6.164
 6905TIP3   OH220657   2.406   1.594   1.896
 6905TIP3    H120658   2.360   1.546   1.965
 6905TIP3    H220659   2.350   1.670   1.879
 6906TIP3   OH220660   7.624   7.812   3.839
 6906TIP3    H120661   7.584   7.881   3.892
 6906TIP3    H220662   7.596   7.831   3.750
 6907TIP3   OH220663   6.087   3.286   2.157
 6907TIP3    H120664   6.147   3.292   2.230
 6907TIP3    H220665   6.136   3.321   2.082
 6908TIP3   OH220666   0.344   3.926   2.325
 6908TIP3    H120667   0.333   4.011   2.367
 6908TIP3    H220668   0.283   3.868   2.370
 6909TIP3   OH220669   0.421   3.236   0.274
 6909TIP3    H120670   0.487   3.246   0.342
 6909TIP3    H220671   0.365   3.165   0.307
 6910TIP3   OH220672   4.685   5.013   2.772
 6910TIP3    H120673   4.593   5.039   2.781
 6910TIP3    H220674   4.689   4.925   2.809
 6911TIP3   OH220675   8.010   4.131   1.718
 6911TIP3    H120676   7.983   4.042   1.696
 6911TIP3    H220677   7.955   4.154   1.794
 6912TIP3   OH220678   3.964   4.069   1.712
 6912TIP3    H120679   3.937   4.073   1.804
 6912TIP3    H220680   3.900   4.124   1.666
 6913TIP3   OH220681   2.460   1.553   0.058
 6913TIP3    H120682   2.502   1.622   0.006
 6913TIP3    H220683   2.473   1.473   0.008
 6914TIP3   OH220684   6.905   7.463   6.696
 6914TIP3    H120685   6.864   7.378   6.680
 6914TIP3    H220686   6.834   7.527   6.685
 6915TIP3   OH220687   7.030   5.529   2.244
 6915TIP3    H120688   6.952   5.475   2.258
 6915TIP3    H220689   6.995   5.616   2.221
 6916TIP3   OH220690   6.428   2.540   0.651
 6916TIP3    H120691   6.471   2.537   0.565
 6916TIP3    H220692   6.336   2.558   0.631
 6917TIP3   OH220693   6.138   4.246   1.936
 6917TIP3    H120694   6.229   4.235   1.961
 6917TIP3    H220695   6.095   4.280   2.015
 6918TIP3   OH220696   2.440   1.723   4.186
 6918TIP3    H120697   2.479   1.741   4.272
 6918TIP3    H220698   2.379   1.795   4.172
 6919TIP3   OH220699   3.617   1.359   1.938
 6919TIP3    H120700   3.710   1.374   1.926
 6919TIP3    H220701   3.575   1.406   1.866
 6920TIP3   OH220702   2.438   4.182   1.525
 6920TIP3    H120703   2.430   4.087   1.519
 6920TIP3    H220704   2.516   4.196   1.579
 6921TIP3   OH220705   0.750   2.785   4.974
 6921TIP3    H120706   0.826   2.742   5.014
 6921TIP3    H220707   0.735   2.863   5.027
 6922TIP3   OH220708   0.138   0.802   2.018
 6922TIP3    H120709   0.105   0.887   1.991
 6922TIP3    H220710   0.121   0.745   1.943
 6923TIP3   OH220711   4.352   3.751   1.202
 6923TIP3    H120712   4.305   3.756   1.118
 6923TIP3    H220713   4.283   3.750   1.268
 6924TIP3   OH220714   7.544   6.409   0.148
 6924TIP3    H120715   7.635   6.408   0.120
 6924TIP3    H220716   7.515   6.318   0.141
 6925TIP3   OH220717   0.178   0.492   4.533
 6925TIP3    H120718   0.207   0.569   4.484
 6925TIP3    H220719   0.205   0.511   4.623
 6926TIP3   OH220720   8.157   2.547   6.551
 6926TIP3    H120721   8.175   2.625   6.498
 6926TIP3    H220722   8.235   2.537   6.605
 6927TIP3   OH220723   6.522   0.133   5.603
 6927TIP3    H120724   6.447   0.077   5.581
 6927TIP3    H220725   6.488   0.222   5.596
 6928TIP3   OH220726   5.857   3.966   3.080
 6928TIP3    H120727   5.812   4.051   3.086
 6928TIP3    H220728   5.818   3.923   3.005
 6929TIP3   OH220729   5.309   3.812   2.444
 6929TIP3    H120730   5.224   3.776   2.419
 6929TIP3    H220731   5.313   3.896   2.399
 6930TIP3   OH220732   4.625   2.634   5.822
 6930TIP3    H120733   4.690   2.601   5.760
 6930TIP3    H220734   4.623   2.728   5.807
 6931TIP3   OH220735   2.511   4.692   4.162
 6931TIP3    H120736   2.575   4.650   4.219
 6931TIP3    H220737   2.563   4.731   4.092
 6932TIP3   OH220738   3.948   2.685   1.564
 6932TIP3    H120739   3.944   2.620   1.494
 6932TIP3    H220740   3.962   2.768   1.517
 6933TIP3   OH220741   8.200   0.934   4.007
 6933TIP3    H120742   8.184   0.891   3.923
 6933TIP3    H220743   8.156   0.879   4.071
 6934TIP3   OH220744   6.609   4.721   4.426
 6934TIP3    H120745   6.635   4.667   4.500
 6934TIP3    H220746   6.680   4.711   4.363
 6935TIP3   OH220747   3.325   5.496   2.567
 6935TIP3    H120748   3.407   5.499   2.615
 6935TIP3    H220749   3.279   5.420   2.602
 6936TIP3   OH220750   5.601   0.624   4.544
 6936TIP3    H120751   5.656   0.551   4.572
 6936TIP3    H220752   5.612   0.628   4.449
 6937TIP3   OH220753   1.788   5.734   6.514
 6937TIP3    H120754   1.845   5.725   6.591
 6937TIP3    H220755   1.808   5.658   6.460
 6938TIP3   OH220756   7.385   7.672   5.167
 6938TIP3    H120757   7.442   7.724   5.223
 6938TIP3    H220758   7.445   7.618   5.115
 6939TIP3   OH220759   1.612   0.720   1.180
 6939TIP3    H120760   1.642   0.642   1.134
 6939TIP3    H220761   1.680   0.739   1.244
 6940TIP3   OH220762   1.160   3.337   5.522
 6940TIP3    H120763   1.250   3.334   5.555
 6940TIP3    H220764   1.106   3.332   5.600
 6941TIP3   OH220765   0.754   6.992   4.585
 6941TIP3    H120766   0.776   7.073   4.538
 6941TIP3    H220767   0.833   6.937   4.576
 6942TIP3   OH220768   6.439   0.128   3.843
 6942TIP3    H120769   6.444   0.048   3.896
 6942TIP3    H220770   6.520   0.128   3.793
 6943TIP3   OH220771   3.419   0.817   1.003
 6943TIP3    H120772   3.402   0.897   0.954
 6943TIP3    H220773   3.395   0.838   1.093
 6944TIP3   OH220774   5.215   1.452   0.049
 6944TIP3    H120775   5.167   1.370   0.061
 6944TIP3    H220776   5.232   1.456  -0.046
 6945TIP3   OH220777   4.699   4.301   2.995
 6945TIP3    H120778   4.769   4.241   2.972
 6945TIP3    H220779   4.690   4.293   3.090
 6946TIP3   OH220780   7.465   0.273   5.783
 6946TIP3    H120781   7.387   0.250   5.834
 6946TIP3    H220782   7.454   0.229   5.699
 6947TIP3   OH220783   1.438   3.979   0.498
 6947TIP3    H120784   1.470   3.896   0.533
 6947TIP3    H220785   1.514   4.038   0.506
 6948TIP3   OH220786   6.827   5.848   3.588
 6948TIP3    H120787   6.856   5.807   3.669
 6948TIP3    H220788   6.870   5.798   3.519
 6949TIP3   OH220789   1.580   4.233   0.542
 6949TIP3    H120790   1.654   4.205   0.488
 6949TIP3    H220791   1.600   4.324   0.564
 6950TIP3   OH220792   7.292   7.818   0.272
 6950TIP3    H120793   7.366   7.776   0.227
 6950TIP3    H220794   7.224   7.825   0.206
 6951TIP3   OH220795   2.134   6.236   1.577
 6951TIP3    H120796   2.116   6.173   1.508
 6951TIP3    H220797   2.049   6.254   1.616
 6952TIP3   OH220798   2.510   0.657   2.167
 6952TIP3    H120799   2.422   0.691   2.150
 6952TIP3    H220800   2.511   0.572   2.122
 6953TIP3   OH220801   1.204   4.570   4.308
 6953TIP3    H120802   1.213   4.512   4.384
 6953TIP3    H220803   1.148   4.641   4.338
 6954TIP3   OH220804   0.084   4.764   1.744
 6954TIP3    H120805   0.017   4.713   1.790
 6954TIP3    H220806   0.081   4.731   1.654
 6955TIP3   OH220807   4.060   4.507   1.471
 6955TIP3    H120808   3.981   4.483   1.423
 6955TIP3    H220809   4.070   4.601   1.455
 6956TIP3   OH220810   1.624   5.106   5.874
 6956TIP3    H120811   1.564   5.130   5.803
 6956TIP3    H220812   1.698   5.065   5.829
 6957TIP3   OH220813   1.442   0.635   1.986
 6957TIP3    H120814   1.404   0.716   1.950
 6957TIP3    H220815   1.449   0.577   1.910
 6958TIP3   OH220816   5.948   2.924   4.602
 6958TIP3    H120817   6.016   2.917   4.535
 6958TIP3    H220818   5.950   3.016   4.628
 6959TIP3   OH220819   7.419   5.070   4.339
 6959TIP3    H120820   7.496   5.029   4.376
 6959TIP3    H220821   7.367   4.998   4.303
 6960TIP3   OH220822   6.227   5.397   2.886
 6960TIP3    H120823   6.245   5.404   2.792
 6960TIP3    H220824   6.152   5.455   2.900
 6961TIP3   OH220825   6.009   3.149   3.368
 6961TIP3    H120826   5.981   3.069   3.324
 6961TIP3    H220827   5.928   3.192   3.395
 6962TIP3   OH220828   3.192   1.717   5.004
 6962TIP3    H120829   3.279   1.683   5.021
 6962TIP3    H220830   3.141   1.695   5.082
 6963TIP3   OH220831   3.887   2.327   2.476
 6963TIP3    H120832   3.932   2.351   2.557
 6963TIP3    H220833   3.806   2.285   2.505
 6964TIP3   OH220834   6.496   3.183   6.535
 6964TIP3    H120835   6.495   3.181   6.631
 6964TIP3    H220836   6.405   3.167   6.510
 6965TIP3   OH220837   5.647   6.501   2.662
 6965TIP3    H120838   5.731   6.456   2.653
 6965TIP3    H220839   5.633   6.508   2.756
 6966TIP3   OH220840   2.192   4.602   6.079
 6966TIP3    H120841   2.252   4.634   6.012
 6966TIP3    H220842   2.224   4.641   6.161
 6967TIP3   OH220843   7.841   7.562   6.501
 6967TIP3    H120844   7.808   7.481   6.464
 6967TIP3    H220845   7.935   7.548   6.508
 6968TIP3   OH220846   6.563   1.516   6.253
 6968TIP3    H120847   6.513   1.517   6.171
 6968TIP3    H220848   6.583   1.608   6.269
 6969TIP3   OH220849   3.275   5.020   6.347
 6969TIP3    H120850   3.353   5.045   6.297
 6969TIP3    H220851   3.262   4.928   6.327
 6970TIP3   OH220852   3.324   3.849   6.459
 6970TIP3    H120853   3.393   3.886   6.515
 6970TIP3    H220854   3.248   3.906   6.474
 6971TIP3   OH220855   8.241   7.172   5.516
 6971TIP3    H120856   8.238   7.267   5.513
 6971TIP3    H220857   8.327   7.150   5.480
 6972TIP3   OH220858   3.777   6.813   6.397
 6972TIP3    H120859   3.826   6.743   6.353
 6972TIP3    H220860   3.701   6.769   6.435
 6973TIP3   OH220861   3.905   2.637   6.658
 6973TIP3    H120862   3.811   2.651   6.654
 6973TIP3    H220863   3.938   2.715   6.704
 6974TIP3   OH220864   7.722   0.542   1.075
 6974TIP3    H120865   7.676   0.502   1.001
 6974TIP3    H220866   7.703   0.635   1.068
 6975TIP3   OH220867   8.054   4.470   3.025
 6975TIP3    H120868   8.012   4.513   3.100
 6975TIP3    H220869   8.088   4.388   3.061
 6976TIP3   OH220870   2.578   1.532   5.825
 6976TIP3    H120871   2.508   1.575   5.874
 6976TIP3    H220872   2.580   1.577   5.740
 6977TIP3   OH220873   2.984   3.687   1.306
 6977TIP3    H120874   2.946   3.772   1.327
 6977TIP3    H220875   3.065   3.683   1.358
 6978TIP3   OH220876   8.196   2.687   1.345
 6978TIP3    H120877   8.148   2.618   1.299
 6978TIP3    H220878   8.260   2.640   1.398
 6979TIP3   OH220879   7.665   6.644   1.381
 6979TIP3    H120880   7.738   6.704   1.364
 6979TIP3    H220881   7.587   6.699   1.368
 6980TIP3   OH220882   4.848   6.059   6.099
 6980TIP3    H120883   4.764   6.028   6.132
 6980TIP3    H220884   4.852   6.026   6.009
 6981TIP3   OH220885   3.087   6.969   2.376
 6981TIP3    H120886   3.123   6.977   2.287
 6981TIP3    H220887   3.067   7.059   2.401
 6982TIP3   OH220888   7.864   7.296   2.826
 6982TIP3    H120889   7.938   7.357   2.829
 6982TIP3    H220890   7.897   7.222   2.775
 6983TIP3   OH220891   7.146   4.131   2.049
 6983TIP3    H120892   7.052   4.141   2.038
 6983TIP3    H220893   7.159   4.116   2.142
 6984TIP3   OH220894   5.922   0.444   2.433
 6984TIP3    H120895   5.928   0.369   2.492
 6984TIP3    H220896   5.834   0.478   2.447
 6985TIP3   OH220897   7.839   1.578   0.075
 6985TIP3    H120898   7.933   1.584   0.095
 6985TIP3    H220899   7.819   1.485   0.086
 6986TIP3   OH220900   7.663   3.310   5.732
 6986TIP3    H120901   7.583   3.258   5.723
 6986TIP3    H220902   7.733   3.245   5.740
 6987TIP3   OH220903   1.710   2.850   2.876
 6987TIP3    H120904   1.723   2.909   2.950
 6987TIP3    H220905   1.780   2.871   2.815
 6988TIP3   OH220906   5.011   3.495   2.979
 6988TIP3    H120907   5.094   3.525   2.943
 6988TIP3    H220908   4.987   3.421   2.924
 6989TIP3   OH220909   4.233   5.884   4.324
 6989TIP3    H120910   4.281   5.943   4.267
 6989TIP3    H220911   4.268   5.797   4.304
 6990TIP3   OH220912   1.885   6.995   5.482
 6990TIP3    H120913   1.817   7.054   5.514
 6990TIP3    H220914   1.884   7.006   5.387
 6991TIP3   OH220915   4.122   0.156   1.280
 6991TIP3    H120916   4.086   0.067   1.281
 6991TIP3    H220917   4.108   0.187   1.191
 6992TIP3   OH220918   5.717   6.199   4.095
 6992TIP3    H120919   5.672   6.244   4.167
 6992TIP3    H220920   5.810   6.208   4.116
 6993TIP3   OH220921   4.032   6.704   4.091
 6993TIP3    H120922   3.964   6.638   4.107
 6993TIP3    H220923   4.023   6.764   4.166
 6994TIP3   OH220924   2.214   7.550   2.277
 6994TIP3    H120925   2.181   7.494   2.207
 6994TIP3    H220926   2.233   7.490   2.349
 6995TIP3   OH220927   6.938   1.264   3.138
 6995TIP3    H120928   6.945   1.215   3.220
 6995TIP3    H220929   6.890   1.344   3.161
 6996TIP3   OH220930   6.806   0.774   3.336
 6996TIP3    H120931   6.900   0.761   3.348
 6996TIP3    H220932   6.790   0.750   3.244
 6997TIP3   OH220933   7.577   0.876   5.197
 6997TIP3    H120934   7.651   0.826   5.164
 6997TIP3    H220935   7.614   0.961   5.221
 6998TIP3   OH220936   1.776   6.706   1.614
 6998TIP3    H120937   1.820   6.740   1.537
 6998TIP3    H220938   1.691   6.676   1.582
 6999TIP3   OH220939   4.659   0.371   6.060
 6999TIP3    H120940   4.724   0.407   6.000
 6999TIP3    H220941   4.694   0.388   6.147
 7000TIP3   OH220942   1.095   3.359   2.093
 7000TIP3    H120943   1.088   3.312   2.010
 7000TIP3    H220944   1.010   3.400   2.105
 7001TIP3   OH220945   0.887   7.501   2.118
 7001TIP3    H120946   0.944   7.437   2.160
 7001TIP3    H220947   0.945   7.574   2.095
 7002TIP3   OH220948   7.920   4.728   1.746
 7002TIP3    H120949   7.936   4.708   1.654
 7002TIP3    H220950   7.856   4.663   1.774
 7003TIP3   OH220951   2.264   5.496   5.946
 7003TIP3    H120952   2.257   5.401   5.955
 7003TIP3    H220953   2.229   5.530   6.028
 7004TIP3   OH220954   4.616   0.234   4.798
 7004TIP3    H120955   4.599   0.140   4.796
 7004TIP3    H220956   4.615   0.261   4.707
 7005TIP3   OH220957   0.011   5.542   6.506
 7005TIP3    H120958   0.056   5.474   6.556
 7005TIP3    H220959  -0.014   5.607   6.571
 7006TIP3   OH220960   4.427   4.146   6.478
 7006TIP3    H120961   4.499   4.162   6.540
 7006TIP3    H220962   4.461   4.177   6.394
 7007TIP3   OH220963   6.762   5.315   2.492
 7007TIP3    H120964   6.762   5.375   2.418
 7007TIP3    H220965   6.826   5.247   2.469
 7008TIP3   OH220966   4.843   2.648   6.508
 7008TIP3    H120967   4.839   2.571   6.451
 7008TIP3    H220968   4.771   2.637   6.570
 7009TIP3   OH220969   3.487   4.824   0.147
 7009TIP3    H120970   3.418   4.891   0.145
 7009TIP3    H220971   3.565   4.869   0.115
 7010TIP3   OH220972   2.495   0.338   3.945
 7010TIP3    H120973   2.480   0.431   3.961
 7010TIP3    H220974   2.542   0.307   4.022
 7011TIP3   OH220975   4.826   7.148   0.705
 7011TIP3    H120976   4.804   7.197   0.785
 7011TIP3    H220977   4.872   7.070   0.737
 7012TIP3   OH220978   0.011   1.810   2.881
 7012TIP3    H120979   0.031   1.719   2.905
 7012TIP3    H220980   0.064   1.862   2.941
 7013TIP3   OH220981   1.216   5.333   2.811
 7013TIP3    H120982   1.164   5.259   2.841
 7013TIP3    H220983   1.262   5.300   2.733
 7014TIP3   OH220984   4.454   7.046   5.617
 7014TIP3    H120985   4.379   7.008   5.571
 7014TIP3    H220986   4.506   6.971   5.645
 7015TIP3   OH220987   2.842   2.899   1.988
 7015TIP3    H120988   2.750   2.924   1.980
 7015TIP3    H220989   2.889   2.966   1.937
 7016TIP3   OH220990   4.599   7.186   6.434
 7016TIP3    H120991   4.597   7.160   6.527
 7016TIP3    H220992   4.678   7.240   6.426
 7017TIP3   OH220993   0.218   6.801   3.157
 7017TIP3    H120994   0.289   6.813   3.220
 7017TIP3    H220995   0.140   6.787   3.211
 7018TIP3   OH220996   7.483   1.133   6.158
 7018TIP3    H120997   7.440   1.052   6.131
 7018TIP3    H220998   7.556   1.104   6.213
 7019TIP3   OH220999   1.177   7.446   2.080
 7019TIP3    H121000   1.151   7.430   2.171
 7019TIP3    H221001   1.205   7.538   2.080
 7020TIP3   OH221002   0.286   1.663   6.102
 7020TIP3    H121003   0.378   1.667   6.076
 7020TIP3    H221004   0.251   1.749   6.079
 7021TIP3   OH221005   1.431   0.150   6.205
 7021TIP3    H121006   1.405   0.109   6.288
 7021TIP3    H221007   1.360   0.129   6.144
 7022TIP3   OH221008   4.908   5.404   3.786
 7022TIP3    H121009   4.826   5.356   3.795
 7022TIP3    H221010   4.913   5.459   3.864
 7023TIP3   OH221011   3.424   6.330   0.109
 7023TIP3    H121012   3.345   6.285   0.138
 7023TIP3    H221013   3.414   6.419   0.144
 7024TIP3   OH221014   1.823   1.310   4.757
 7024TIP3    H121015   1.851   1.371   4.688
 7024TIP3    H221016   1.736   1.280   4.729
 7025TIP3   OH221017   5.400   0.667   3.579
 7025TIP3    H121018   5.343   0.703   3.647
 7025TIP3    H221019   5.340   0.637   3.511
 7026TIP3   OH221020   5.004   3.916   3.399
 7026TIP3    H121021   4.938   3.857   3.363
 7026TIP3    H221022   4.956   3.997   3.416
 7027TIP3   OH221023   6.475   4.970   1.860
 7027TIP3    H121024   6.469   5.065   1.844
 7027TIP3    H221025   6.564   4.958   1.893
 7028TIP3   OH221026   5.120   5.437   2.221
 7028TIP3    H121027   5.146   5.345   2.227
 7028TIP3    H221028   5.030   5.435   2.191
 7029TIP3   OH221029   1.707   2.707   5.549
 7029TIP3    H121030   1.670   2.668   5.628
 7029TIP3    H221031   1.638   2.699   5.483
 7030TIP3   OH221032   3.262   2.566   1.952
 7030TIP3    H121033   3.295   2.627   2.018
 7030TIP3    H221034   3.236   2.623   1.879
 7031TIP3   OH221035   3.714   5.145   4.783
 7031TIP3    H121036   3.765   5.067   4.761
 7031TIP3    H221037   3.777   5.217   4.777
 7032TIP3   OH221038   4.258   5.244   4.942
 7032TIP3    H121039   4.242   5.273   4.852
 7032TIP3    H221040   4.176   5.205   4.970
 7033TIP3   OH221041   3.841   7.287   5.189
 7033TIP3    H121042   3.775   7.297   5.258
 7033TIP3    H221043   3.918   7.254   5.234
 7034TIP3   OH221044   7.249   3.449   0.954
 7034TIP3    H121045   7.317   3.503   0.992
 7034TIP3    H221046   7.279   3.432   0.864
 7035TIP3   OH221047   4.018   0.725   0.305
 7035TIP3    H121048   4.027   0.715   0.210
 7035TIP3    H221049   4.090   0.784   0.329
 7036TIP3   OH221050   4.494   6.529   2.353
 7036TIP3    H121051   4.493   6.596   2.421
 7036TIP3    H221052   4.488   6.579   2.271
 7037TIP3   OH221053   4.233   5.842   2.001
 7037TIP3    H121054   4.249   5.928   1.963
 7037TIP3    H221055   4.217   5.785   1.926
 7038TIP3   OH221056   7.470   1.927   4.829
 7038TIP3    H121057   7.411   1.998   4.802
 7038TIP3    H221058   7.552   1.971   4.850
 7039TIP3   OH221059   8.159   6.783   5.651
 7039TIP3    H121060   8.141   6.843   5.723
 7039TIP3    H221061   8.254   6.789   5.637
 7040TIP3   OH221062   0.930   2.605   1.623
 7040TIP3    H121063   0.956   2.652   1.702
 7040TIP3    H221064   1.012   2.574   1.585
 7041TIP3   OH221065   0.345   0.042   1.334
 7041TIP3    H121066   0.363  -0.005   1.415
 7041TIP3    H221067   0.372   0.132   1.352
 7042TIP3   OH221068   1.312   5.798   0.680
 7042TIP3    H121069   1.252   5.862   0.643
 7042TIP3    H221070   1.390   5.803   0.625
 7043TIP3   OH221071   0.004   3.854   4.941
 7043TIP3    H121072  -0.032   3.774   4.902
 7043TIP3    H221073   0.098   3.849   4.922
 7044TIP3   OH221074   4.251   4.550   3.619
 7044TIP3    H121075   4.203   4.633   3.611
 7044TIP3    H221076   4.294   4.540   3.534
 7045TIP3   OH221077   1.099   6.239   2.130
 7045TIP3    H121078   1.062   6.196   2.207
 7045TIP3    H221079   1.113   6.169   2.067
 7046TIP3   OH221080   5.144   2.667   5.537
 7046TIP3    H121081   5.133   2.613   5.459
 7046TIP3    H221082   5.138   2.757   5.505
 7047TIP3   OH221083   1.795   7.619   2.530
 7047TIP3    H121084   1.757   7.634   2.443
 7047TIP3    H221085   1.873   7.567   2.514
 7048TIP3   OH221086   4.300   0.433   5.160
 7048TIP3    H121087   4.382   0.447   5.112
 7048TIP3    H221088   4.271   0.521   5.183
 7049TIP3   OH221089   7.893   2.858   3.147
 7049TIP3    H121090   7.901   2.852   3.052
 7049TIP3    H221091   7.983   2.850   3.179
 7050TIP3   OH221092   8.129   2.990   5.142
 7050TIP3    H121093   8.055   3.051   5.152
 7050TIP3    H221094   8.087   2.906   5.122
 7051TIP3   OH221095   6.176   2.144   4.362
 7051TIP3    H121096   6.182   2.118   4.270
 7051TIP3    H221097   6.158   2.062   4.408
 7052TIP3   OH221098   1.560   6.441   3.473
 7052TIP3    H121099   1.522   6.372   3.528
 7052TIP3    H221100   1.488   6.469   3.417
 7053TIP3   OH221101   5.276   0.352   4.514
 7053TIP3    H121102   5.295   0.423   4.575
 7053TIP3    H221103   5.181   0.356   4.501
 7054TIP3   OH221104   8.306   2.084   2.598
 7054TIP3    H121105   8.246   2.118   2.531
 7054TIP3    H221106   8.311   2.155   2.663
 7055TIP3   OH221107   6.620   0.484   6.300
 7055TIP3    H121108   6.557   0.420   6.333
 7055TIP3    H221109   6.699   0.433   6.281
 7056TIP3   OH221110   7.147   1.658   3.916
 7056TIP3    H121111   7.213   1.612   3.865
 7056TIP3    H221112   7.065   1.641   3.870
 7057TIP3   OH221113   2.601   2.581   4.509
 7057TIP3    H121114   2.694   2.567   4.525
 7057TIP3    H221115   2.574   2.505   4.457
 7058TIP3   OH221116   6.574   0.906   4.004
 7058TIP3    H121117   6.600   0.896   4.096
 7058TIP3    H221118   6.551   0.998   3.996
 7059TIP3   OH221119   5.605   7.113   5.562
 7059TIP3    H121120   5.660   7.053   5.613
 7059TIP3    H221121   5.666   7.179   5.530
 7060TIP3   OH221122   4.532   6.775   0.085
 7060TIP3    H121123   4.487   6.759   0.169
 7060TIP3    H221124   4.478   6.729   0.021
 7061TIP3   OH221125   3.614   2.999   5.364
 7061TIP3    H121126   3.589   2.913   5.331
 7061TIP3    H221127   3.531   3.047   5.369
 7062TIP3   OH221128   4.150   2.454   6.001
 7062TIP3    H121129   4.156   2.507   5.922
 7062TIP3    H221130   4.074   2.490   6.048
 7063TIP3   OH221131   2.578   5.548   2.768
 7063TIP3    H121132   2.529   5.476   2.808
 7063TIP3    H221133   2.667   5.515   2.759
 7064TIP3   OH221134   2.661   0.752   4.159
 7064TIP3    H121135   2.616   0.804   4.091
 7064TIP3    H221136   2.604   0.676   4.172
 7065TIP3   OH221137   0.848   2.942   6.223
 7065TIP3    H121138   0.847   2.970   6.314
 7065TIP3    H221139   0.875   3.020   6.174
 7066TIP3   OH221140   2.600   3.586   4.722
 7066TIP3    H121141   2.520   3.618   4.763
 7066TIP3    H221142   2.586   3.492   4.713
 7067TIP3   OH221143   6.298   0.408   4.612
 7067TIP3    H121144   6.225   0.457   4.575
 7067TIP3    H221145   6.256   0.332   4.654
 7068TIP3   OH221146   6.092   1.121   6.353
 7068TIP3    H121147   6.094   1.124   6.448
 7068TIP3    H221148   6.036   1.047   6.332
 7069TIP3   OH221149   0.664   6.839   5.216
 7069TIP3    H121150   0.638   6.791   5.137
 7069TIP3    H221151   0.652   6.776   5.287
 7070TIP3   OH221152   4.649   4.856   5.165
 7070TIP3    H121153   4.625   4.776   5.120
 7070TIP3    H221154   4.739   4.842   5.194
 7071TIP3   OH221155   1.643   0.971   0.353
 7071TIP3    H121156   1.648   1.005   0.264
 7071TIP3    H221157   1.630   1.048   0.408
 7072TIP3   OH221158   6.875   0.339   3.614
 7072TIP3    H121159   6.858   0.433   3.616
 7072TIP3    H221160   6.970   0.331   3.605
 7073TIP3   OH221161   1.622   3.671   4.309
 7073TIP3    H121162   1.621   3.733   4.382
 7073TIP3    H221163   1.659   3.591   4.346
 7074TIP3   OH221164   0.391   1.144   5.959
 7074TIP3    H121165   0.464   1.129   6.019
 7074TIP3    H221166   0.355   1.228   5.986
 7075TIP3   OH221167   0.348   0.088   0.595
 7075TIP3    H121168   0.307   0.007   0.625
 7075TIP3    H221169   0.416   0.059   0.534
 7076TIP3   OH221170   3.725   0.297   6.247
 7076TIP3    H121171   3.815   0.330   6.247
 7076TIP3    H221172   3.691   0.324   6.161
 7077TIP3   OH221173   2.757   7.703   3.586
 7077TIP3    H121174   2.828   7.766   3.603
 7077TIP3    H221175   2.799   7.618   3.595
 7078TIP3   OH221176   6.839   7.016   3.676
 7078TIP3    H121177   6.799   7.102   3.684
 7078TIP3    H221178   6.927   7.033   3.642
 7079TIP3   OH221179   5.815   0.692   2.738
 7079TIP3    H121180   5.809   0.720   2.829
 7079TIP3    H221181   5.751   0.748   2.692
 7080TIP3   OH221182   8.214   0.481   1.061
 7080TIP3    H121183   8.195   0.444   1.147
 7080TIP3    H221184   8.164   0.562   1.058
 7081TIP3   OH221185   4.629   6.220   3.612
 7081TIP3    H121186   4.541   6.184   3.602
 7081TIP3    H221187   4.645   6.219   3.706
 7082TIP3   OH221188   6.030   7.613   3.211
 7082TIP3    H121189   5.938   7.618   3.239
 7082TIP3    H221190   6.032   7.661   3.128
 7083TIP3   OH221191   8.243   0.080   1.457
 7083TIP3    H121192   8.157   0.107   1.489
 7083TIP3    H221193   8.228  -0.007   1.421
 7084TIP3   OH221194   4.187   0.366   3.443
 7084TIP3    H121195   4.203   0.459   3.427
 7084TIP3    H221196   4.254   0.341   3.507
 7085TIP3   OH221197   0.521   4.967   4.775
 7085TIP3    H121198   0.610   4.961   4.811
 7085TIP3    H221199   0.534   4.971   4.681
 7086TIP3   OH221200   7.892   1.267   5.077
 7086TIP3    H121201   7.916   1.248   4.986
 7086TIP3    H221202   7.842   1.348   5.072
 7087TIP3   OH221203   2.033   5.599   5.802
 7087TIP3    H121204   1.970   5.557   5.862
 7087TIP3    H221205   2.116   5.597   5.849
 7088TIP3   OH221206   0.247   0.642   5.018
 7088TIP3    H121207   0.246   0.549   4.996
 7088TIP3    H221208   0.160   0.673   4.995
 7089TIP3   OH221209   7.771   1.394   2.558
 7089TIP3    H121210   7.815   1.310   2.565
 7089TIP3    H221211   7.761   1.408   2.464
 7090TIP3   OH221212   1.352   2.285   1.413
 7090TIP3    H121213   1.289   2.228   1.457
 7090TIP3    H221214   1.308   2.314   1.333
 7091TIP3   OH221215   7.669   3.495   6.628
 7091TIP3    H121216   7.626   3.570   6.669
 7091TIP3    H221217   7.658   3.424   6.692
 7092TIP3   OH221218   1.976   4.229   1.208
 7092TIP3    H121219   1.890   4.248   1.244
 7092TIP3    H221220   2.034   4.292   1.251
 7093TIP3   OH221221   6.771   1.812   6.466
 7093TIP3    H121222   6.826   1.735   6.472
 7093TIP3    H221223   6.809   1.864   6.395
 7094TIP3   OH221224   4.825   2.255   2.180
 7094TIP3    H121225   4.776   2.200   2.119
 7094TIP3    H221226   4.770   2.258   2.259
 7095TIP3   OH221227   7.373   7.159   3.728
 7095TIP3    H121228   7.328   7.132   3.808
 7095TIP3    H221229   7.462   7.125   3.739
 7096TIP3   OH221230   1.796   4.341   5.704
 7096TIP3    H121231   1.737   4.401   5.750
 7096TIP3    H221232   1.762   4.254   5.724
 7097TIP3   OH221233   0.393   5.906   6.700
 7097TIP3    H121234   0.398   5.959   6.779
 7097TIP3    H221235   0.483   5.882   6.681
 7098TIP3   OH221236   7.368   1.206   0.333
 7098TIP3    H121237   7.410   1.123   0.355
 7098TIP3    H221238   7.281   1.182   0.303
 7099TIP3   OH221239   5.677   7.761   1.035
 7099TIP3    H121240   5.700   7.853   1.020
 7099TIP3    H221241   5.629   7.735   0.956
 7100TIP3   OH221242   6.526   0.547   4.657
 7100TIP3    H121243   6.589   0.527   4.589
 7100TIP3    H221244   6.446   0.501   4.630
 7101TIP3   OH221245   6.576   0.619   3.386
 7101TIP3    H121246   6.669   0.639   3.380
 7101TIP3    H221247   6.540   0.642   3.300
 7102TIP3   OH221248   4.053   4.017   0.888
 7102TIP3    H121249   4.117   4.064   0.942
 7102TIP3    H221250   4.106   3.967   0.826
 7103TIP3   OH221251   0.559   2.304   1.754
 7103TIP3    H121252   0.591   2.390   1.780
 7103TIP3    H221253   0.474   2.321   1.714
 7104TIP3   OH221254   6.127   1.056   6.615
 7104TIP3    H121255   6.178   1.134   6.636
 7104TIP3    H221256   6.186   0.983   6.636
 7105TIP3   OH221257   3.906   0.719   5.171
 7105TIP3    H121258   3.843   0.749   5.237
 7105TIP3    H221259   3.913   0.792   5.109
 7106TIP3   OH221260   1.192   5.958   5.548
 7106TIP3    H121261   1.241   6.019   5.604
 7106TIP3    H221262   1.258   5.900   5.511
 7107TIP3   OH221263   7.376   1.643   2.318
 7107TIP3    H121264   7.354   1.727   2.277
 7107TIP3    H221265   7.423   1.595   2.251
 7108TIP3   OH221266   7.036   1.574   0.214
 7108TIP3    H121267   6.998   1.612   0.135
 7108TIP3    H221268   6.962   1.559   0.272
 7109TIP3   OH221269   2.319   4.762   4.605
 7109TIP3    H121270   2.330   4.667   4.606
 7109TIP3    H221271   2.283   4.782   4.691
 7110TIP3   OH221272   4.943   5.505   1.027
 7110TIP3    H121273   4.942   5.500   1.122
 7110TIP3    H221274   5.020   5.558   1.007
 7111TIP3   OH221275   2.569   2.398   3.324
 7111TIP3    H121276   2.548   2.490   3.341
 7111TIP3    H221277   2.625   2.373   3.397
 7112TIP3   OH221278   6.191   7.740   1.260
 7112TIP3    H121279   6.173   7.715   1.351
 7112TIP3    H221280   6.109   7.722   1.213
 7113TIP3   OH221281   1.217   1.330   5.542
 7113TIP3    H121282   1.250   1.413   5.508
 7113TIP3    H221283   1.258   1.321   5.628
 7114TIP3   OH221284   1.381   4.293   1.314
 7114TIP3    H121285   1.401   4.317   1.223
 7114TIP3    H221286   1.314   4.226   1.307
 7115TIP3   OH221287   4.258   0.808   4.435
 7115TIP3    H121288   4.291   0.764   4.514
 7115TIP3    H221289   4.173   0.843   4.462
 7116TIP3   OH221290   7.301   4.712   0.469
 7116TIP3    H121291   7.254   4.776   0.523
 7116TIP3    H221292   7.232   4.670   0.418
 7117TIP3   OH221293   7.822   3.846   3.655
 7117TIP3    H121294   7.835   3.804   3.570
 7117TIP3    H221295   7.745   3.803   3.691
 7118TIP3   OH221296   0.637   6.352   1.319
 7118TIP3    H121297   0.563   6.369   1.260
 7118TIP3    H221298   0.694   6.293   1.270
 7119TIP3   OH221299   0.707   3.413   1.113
 7119TIP3    H121300   0.661   3.482   1.066
 7119TIP3    H221301   0.642   3.378   1.175
 7120TIP3   OH221302   6.324   4.833   0.948
 7120TIP3    H121303   6.243   4.783   0.939
 7120TIP3    H221304   6.319   4.873   1.035
 7121TIP3   OH221305   7.342   4.751   1.677
 7121TIP3    H121306   7.434   4.741   1.654
 7121TIP3    H221307   7.328   4.846   1.680
 7122TIP3   OH221308   3.654   5.731   3.459
 7122TIP3    H121309   3.595   5.688   3.398
 7122TIP3    H221310   3.701   5.795   3.405
 7123TIP3   OH221311   8.116   1.431   3.168
 7123TIP3    H121312   8.200   1.387   3.156
 7123TIP3    H221313   8.128   1.487   3.245
 7124TIP3   OH221314   0.459   5.584   0.791
 7124TIP3    H121315   0.450   5.495   0.826
 7124TIP3    H221316   0.519   5.627   0.852
 7125TIP3   OH221317   1.620   2.183   5.704
 7125TIP3    H121318   1.590   2.177   5.795
 7125TIP3    H221319   1.554   2.136   5.653
 7126TIP3   OH221320   5.710   4.625   2.034
 7126TIP3    H121321   5.787   4.585   1.993
 7126TIP3    H221322   5.735   4.716   2.049
 7127TIP3   OH221323   4.670   4.735   2.810
 7127TIP3    H121324   4.595   4.697   2.763
 7127TIP3    H221325   4.728   4.661   2.827
 7128TIP3   OH221326   3.185   2.642   3.176
 7128TIP3    H121327   3.168   2.596   3.094
 7128TIP3    H221328   3.237   2.581   3.228
 7129TIP3   OH221329   5.409   5.910   2.089
 7129TIP3    H121330   5.390   5.844   2.156
 7129TIP3    H221331   5.322   5.935   2.056
 7130TIP3   OH221332   2.196   1.683   4.044
 7130TIP3    H121333   2.288   1.663   4.030
 7130TIP3    H221334   2.151   1.600   4.026
 7131TIP3   OH221335   3.858   1.484   4.164
 7131TIP3    H121336   3.933   1.543   4.150
 7131TIP3    H221337   3.886   1.401   4.124
 7132TIP3   OH221338   8.031   0.720   2.078
 7132TIP3    H121339   8.070   0.789   2.025
 7132TIP3    H221340   7.973   0.673   2.019
 7133TIP3   OH221341   1.349   2.575   0.734
 7133TIP3    H121342   1.299   2.629   0.673
 7133TIP3    H221343   1.439   2.604   0.725
 7134TIP3   OH221344   3.620   3.338   2.477
 7134TIP3    H121345   3.593   3.429   2.469
 7134TIP3    H221346   3.611   3.302   2.389
 7135TIP3   OH221347   2.974   2.007   1.744
 7135TIP3    H121348   2.912   1.937   1.761
 7135TIP3    H221349   2.986   2.050   1.829
 7136TIP3   OH221350   0.530   4.057   1.004
 7136TIP3    H121351   0.501   4.058   1.095
 7136TIP3    H221352   0.517   4.147   0.974
 7137TIP3   OH221353   1.678   3.978   1.842
 7137TIP3    H121354   1.635   4.057   1.873
 7137TIP3    H221355   1.714   3.937   1.921
 7138TIP3   OH221356   7.103   4.790   3.480
 7138TIP3    H121357   7.031   4.801   3.542
 7138TIP3    H221358   7.117   4.878   3.444
 7139TIP3   OH221359   2.129   7.095   2.975
 7139TIP3    H121360   2.132   7.095   2.880
 7139TIP3    H221361   2.221   7.092   3.002
 7140TIP3   OH221362   6.138   0.602   6.557
 7140TIP3    H121363   6.148   0.692   6.589
 7140TIP3    H221364   6.184   0.548   6.621
 7141TIP3   OH221365   1.541   6.765   1.386
 7141TIP3    H121366   1.610   6.714   1.343
 7141TIP3    H221367   1.503   6.818   1.316
 7142TIP3   OH221368   0.561   5.344   4.883
 7142TIP3    H121369   0.643   5.323   4.927
 7142TIP3    H221370   0.553   5.439   4.893
 7143TIP3   OH221371   1.906   0.974   5.510
 7143TIP3    H121372   1.873   0.886   5.494
 7143TIP3    H221373   1.828   1.030   5.507
 7144TIP3   OH221374   2.073   7.396   3.048
 7144TIP3    H121375   2.101   7.307   3.026
 7144TIP3    H221376   2.147   7.452   3.024
 7145TIP3   OH221377   3.409   4.895   4.906
 7145TIP3    H121378   3.316   4.895   4.882
 7145TIP3    H221379   3.455   4.906   4.823
 7146TIP3   OH221380   5.013   6.892   6.597
 7146TIP3    H121381   5.025   6.872   6.504
 7146TIP3    H221382   5.100   6.919   6.627
 7147TIP3   OH221383   2.270   1.663   2.967
 7147TIP3    H121384   2.248   1.681   2.875
 7147TIP3    H221385   2.209   1.593   2.992
 7148TIP3   OH221386   7.839   4.937   0.948
 7148TIP3    H121387   7.754   4.926   0.905
 7148TIP3    H221388   7.903   4.931   0.877
 7149TIP3   OH221389   6.202   2.274   0.617
 7149TIP3    H121390   6.213   2.208   0.686
 7149TIP3    H221391   6.135   2.333   0.653
 7150TIP3   OH221392  -0.057   7.752   3.624
 7150TIP3    H121393   0.030   7.723   3.651
 7150TIP3    H221394  -0.051   7.848   3.624
 7151TIP3   OH221395   1.269   0.888   1.171
 7151TIP3    H121396   1.302   0.926   1.089
 7151TIP3    H221397   1.336   0.909   1.236
 7152TIP3   OH221398   3.255   1.577   6.281
 7152TIP3    H121399   3.338   1.574   6.329
 7152TIP3    H221400   3.189   1.596   6.348
 7153TIP3   OH221401   1.650   2.462   1.622
 7153TIP3    H121402   1.666   2.470   1.527
 7153TIP3    H221403   1.733   2.429   1.657
 7154TIP3   OH221404   6.505   4.943   4.569
 7154TIP3    H121405   6.447   4.921   4.642
 7154TIP3    H221406   6.534   4.858   4.536
 7155TIP3   OH221407   4.348   1.742   4.941
 7155TIP3    H121408   4.420   1.750   5.004
 7155TIP3    H221409   4.292   1.673   4.977
 7156TIP3   OH221410   7.038   5.250   3.544
 7156TIP3    H121411   6.959   5.211   3.581
 7156TIP3    H221412   7.065   5.314   3.610
 7157TIP3   OH221413   1.637   7.237   0.113
 7157TIP3    H121414   1.708   7.175   0.095
 7157TIP3    H221415   1.582   7.234   0.035
 7158TIP3   OH221416   3.107   0.227   2.047
 7158TIP3    H121417   3.044   0.299   2.049
 7158TIP3    H221418   3.157   0.237   2.127
 7159TIP3   OH221419   7.003   3.300   4.847
 7159TIP3    H121420   7.017   3.232   4.914
 7159TIP3    H221421   6.916   3.335   4.867
 7160TIP3   OH221422   3.222   7.245   6.097
 7160TIP3    H121423   3.203   7.188   6.022
 7160TIP3    H221424   3.264   7.186   6.161
 7161TIP3   OH221425   6.289   0.795   2.563
 7161TIP3    H121426   6.350   0.749   2.506
 7161TIP3    H221427   6.203   0.762   2.537
 7162TIP3   OH221428   5.800   0.308   1.692
 7162TIP3    H121429   5.759   0.245   1.751
 7162TIP3    H221430   5.728   0.364   1.663
 7163TIP3   OH221431   4.526   5.717   1.581
 7163TIP3    H121432   4.483   5.637   1.551
 7163TIP3    H221433   4.455   5.779   1.598
 7164TIP3   OH221434   0.069   5.873   0.241
 7164TIP3    H121435   0.053   5.965   0.220
 7164TIP3    H221436   0.155   5.871   0.281
 7165TIP3   OH221437   0.089   3.941   6.307
 7165TIP3    H121438   0.037   4.002   6.359
 7165TIP3    H221439   0.115   3.873   6.370
 7166TIP3   OH221440   4.356   7.286   2.604
 7166TIP3    H121441   4.309   7.228   2.663
 7166TIP3    H221442   4.446   7.285   2.636
 7167TIP3   OH221443   7.105   5.204   2.148
 7167TIP3    H121444   7.180   5.154   2.115
 7167TIP3    H221445   7.116   5.291   2.111
 7168TIP3   OH221446   4.626   6.955   2.624
 7168TIP3    H121447   4.557   6.987   2.682
 7168TIP3    H221448   4.696   6.929   2.683
 7169TIP3   OH221449   1.985   1.977   1.588
 7169TIP3    H121450   2.037   1.950   1.513
 7169TIP3    H221451   2.011   2.068   1.603
 7170TIP3   OH221452   3.496   1.559   2.116
 7170TIP3    H121453   3.558   1.487   2.109
 7170TIP3    H221454   3.537   1.621   2.176
 7171TIP3   OH221455   2.173   1.233   1.193
 7171TIP3    H121456   2.231   1.304   1.219
 7171TIP3    H221457   2.149   1.253   1.102
 7172TIP3   OH221458   6.286   1.940   2.186
 7172TIP3    H121459   6.344   1.884   2.238
 7172TIP3    H221460   6.243   1.997   2.250
 7173TIP3   OH221461   3.690   6.251   0.172
 7173TIP3    H121462   3.694   6.204   0.088
 7173TIP3    H221463   3.605   6.295   0.170
 7174TIP3   OH221464   2.485   4.932   0.980
 7174TIP3    H121465   2.544   4.940   0.905
 7174TIP3    H221466   2.437   5.014   0.982
 7175TIP3   OH221467   7.139   5.481   1.560
 7175TIP3    H121468   7.174   5.560   1.603
 7175TIP3    H221469   7.098   5.432   1.631
 7176TIP3   OH221470   3.630   0.999   2.520
 7176TIP3    H121471   3.637   0.948   2.600
 7176TIP3    H221472   3.536   1.010   2.507
 7177TIP3   OH221473   1.961   0.425   4.224
 7177TIP3    H121474   1.949   0.344   4.274
 7177TIP3    H221475   2.018   0.479   4.279
 7178TIP3   OH221476   5.012   1.465   2.355
 7178TIP3    H121477   4.924   1.465   2.319
 7178TIP3    H221478   5.037   1.372   2.356
 7179TIP3   OH221479   4.787   1.413   0.569
 7179TIP3    H121480   4.783   1.508   0.577
 7179TIP3    H221481   4.743   1.380   0.647
 7180TIP3   OH221482   1.854   0.341   1.243
 7180TIP3    H121483   1.792   0.270   1.262
 7180TIP3    H221484   1.918   0.302   1.184
 7181TIP3   OH221485   1.942   6.489   1.712
 7181TIP3    H121486   1.906   6.440   1.639
 7181TIP3    H221487   1.895   6.572   1.712
 7182TIP3   OH221488   1.894   4.700   1.391
 7182TIP3    H121489   1.840   4.661   1.323
 7182TIP3    H221490   1.917   4.627   1.449
 7183TIP3   OH221491   7.006   0.283   2.034
 7183TIP3    H121492   6.976   0.371   2.011
 7183TIP3    H221493   6.967   0.267   2.121
 7184TIP3   OH221494   5.943   4.894   3.129
 7184TIP3    H121495   5.942   4.800   3.111
 7184TIP3    H221496   5.951   4.900   3.224
 7185TIP3   OH221497   2.486   1.175   1.471
 7185TIP3    H121498   2.475   1.166   1.566
 7185TIP3    H221499   2.463   1.089   1.436
 7186TIP3   OH221500   3.207   6.030   3.232
 7186TIP3    H121501   3.128   6.008   3.281
 7186TIP3    H221502   3.272   5.968   3.263
 7187TIP3   OH221503   1.735   7.453   3.784
 7187TIP3    H121504   1.767   7.543   3.772
 7187TIP3    H221505   1.692   7.432   3.701
 7188TIP3   OH221506   7.411   2.729   5.861
 7188TIP3    H121507   7.327   2.684   5.876
 7188TIP3    H221508   7.397   2.780   5.782
 7189TIP3   OH221509   2.006   7.670   3.589
 7189TIP3    H121510   2.064   7.661   3.664
 7189TIP3    H221511   2.002   7.582   3.551
 7190TIP3   OH221512   2.214   2.249   3.097
 7190TIP3    H121513   2.148   2.312   3.127
 7190TIP3    H221514   2.176   2.212   3.018
 7191TIP3   OH221515   4.004   1.778   4.635
 7191TIP3    H121516   3.930   1.829   4.668
 7191TIP3    H221517   3.965   1.714   4.576
 7192TIP3   OH221518   4.384   1.583   5.900
 7192TIP3    H121519   4.351   1.494   5.899
 7192TIP3    H221520   4.390   1.605   5.993
 7193TIP3   OH221521   4.349   4.950   2.529
 7193TIP3    H121522   4.340   5.006   2.452
 7193TIP3    H221523   4.261   4.949   2.568
 7194TIP3   OH221524   8.068   0.143   4.310
 7194TIP3    H121525   8.138   0.078   4.311
 7194TIP3    H221526   8.059   0.172   4.401
 7195TIP3   OH221527   1.440   0.682   2.867
 7195TIP3    H121528   1.435   0.767   2.823
 7195TIP3    H221529   1.355   0.642   2.852
 7196TIP3   OH221530   0.112   2.976   2.275
 7196TIP3    H121531   0.161   3.018   2.204
 7196TIP3    H221532   0.179   2.944   2.335
 7197TIP3   OH221533   7.967   3.826   1.340
 7197TIP3    H121534   7.902   3.847   1.273
 7197TIP3    H221535   7.941   3.739   1.372
 7198TIP3   OH221536   1.709   0.541   2.071
 7198TIP3    H121537   1.729   0.473   2.007
 7198TIP3    H221538   1.635   0.589   2.034
 7199TIP3   OH221539   3.501   1.059   0.077
 7199TIP3    H121540   3.471   1.107   0.000
 7199TIP3    H221541   3.483   1.118   0.151
 7200TIP3   OH221542   2.204   6.012   3.201
 7200TIP3    H121543   2.262   6.087   3.214
 7200TIP3    H221544   2.263   5.938   3.188
 7201TIP3   OH221545   7.781   0.268   5.044
 7201TIP3    H121546   7.713   0.324   5.083
 7201TIP3    H221547   7.832   0.328   4.990
 7202TIP3   OH221548   3.041   4.173   1.609
 7202TIP3    H121549   2.969   4.130   1.656
 7202TIP3    H221550   2.997   4.237   1.552
 7203TIP3   OH221551   7.098   2.215   2.261
 7203TIP3    H121552   7.135   2.247   2.343
 7203TIP3    H221553   7.112   2.121   2.263
 7204TIP3   OH221554   1.234   3.971   4.108
 7204TIP3    H121555   1.282   3.905   4.058
 7204TIP3    H221556   1.174   4.011   4.046
 7205TIP3   OH221557   8.239   4.907   3.668
 7205TIP3    H121558   8.174   4.976   3.682
 7205TIP3    H221559   8.241   4.895   3.573
 7206TIP3   OH221560   0.128   6.245   6.110
 7206TIP3    H121561   0.117   6.155   6.082
 7206TIP3    H221562   0.207   6.244   6.165
 7207TIP3   OH221563   8.063   4.507   5.126
 7207TIP3    H121564   8.052   4.481   5.034
 7207TIP3    H221565   8.068   4.425   5.174
 7208TIP3   OH221566   4.686   4.360   1.461
 7208TIP3    H121567   4.691   4.264   1.460
 7208TIP3    H221568   4.626   4.381   1.390
 7209TIP3   OH221569   1.008   0.988   1.792
 7209TIP3    H121570   1.019   0.902   1.833
 7209TIP3    H221571   1.066   0.986   1.716
 7210TIP3   OH221572   2.166   3.814   4.331
 7210TIP3    H121573   2.245   3.807   4.384
 7210TIP3    H221574   2.186   3.883   4.268
 7211TIP3   OH221575   3.742   4.423   0.473
 7211TIP3    H121576   3.659   4.375   0.466
 7211TIP3    H221577   3.801   4.361   0.516
 7212TIP3   OH221578   3.061   0.866   1.371
 7212TIP3    H121579   3.046   0.824   1.456
 7212TIP3    H221580   3.041   0.958   1.386
 7213TIP3   OH221581   5.636   5.007   5.030
 7213TIP3    H121582   5.628   4.957   4.948
 7213TIP3    H221583   5.710   5.066   5.014
 7214TIP3   OH221584   3.443   6.845   3.811
 7214TIP3    H121585   3.530   6.826   3.846
 7214TIP3    H221586   3.432   6.939   3.825
 7215TIP3   OH221587   6.034   0.202   2.988
 7215TIP3    H121588   6.118   0.220   3.031
 7215TIP3    H221589   6.001   0.288   2.963
 7216TIP3   OH221590   7.988   3.561   6.319
 7216TIP3    H121591   7.948   3.599   6.398
 7216TIP3    H221592   8.050   3.628   6.289
 7217TIP3   OH221593   1.076   6.870   1.869
 7217TIP3    H121594   1.104   6.811   1.940
 7217TIP3    H221595   1.107   6.956   1.896
 7218TIP3   OH221596   2.274   5.873   3.557
 7218TIP3    H121597   2.354   5.914   3.524
 7218TIP3    H221598   2.212   5.945   3.567
 7219TIP3   OH221599   1.314   7.101   0.188
 7219TIP3    H121600   1.355   7.158   0.254
 7219TIP3    H221601   1.261   7.161   0.135
 7220TIP3   OH221602   4.188   0.195   4.520
 7220TIP3    H121603   4.199   0.220   4.612
 7220TIP3    H221604   4.095   0.209   4.503
 7221TIP3   OH221605   1.033   1.765   4.948
 7221TIP3    H121606   0.985   1.846   4.929
 7221TIP3    H221607   0.977   1.720   5.011
 7222TIP3   OH221608   1.089   2.878   1.226
 7222TIP3    H121609   1.032   2.811   1.262
 7222TIP3    H221610   1.124   2.840   1.146
 7223TIP3   OH221611   1.005   0.994   6.410
 7223TIP3    H121612   0.922   0.995   6.458
 7223TIP3    H221613   0.998   1.067   6.349
 7224TIP3   OH221614   6.798   6.275   1.607
 7224TIP3    H121615   6.863   6.219   1.565
 7224TIP3    H221616   6.843   6.312   1.683
 7225TIP3   OH221617   7.407   5.455   2.148
 7225TIP3    H121618   7.483   5.468   2.090
 7225TIP3    H221619   7.427   5.375   2.196
 7226TIP3   OH221620   1.709   4.567   4.438
 7226TIP3    H121621   1.708   4.637   4.373
 7226TIP3    H221622   1.687   4.611   4.520
 7227TIP3   OH221623   0.539   7.684   5.512
 7227TIP3    H121624   0.604   7.679   5.582
 7227TIP3    H221625   0.511   7.594   5.498
 7228TIP3   OH221626   2.905   3.620   4.122
 7228TIP3    H121627   2.917   3.577   4.037
 7228TIP3    H221628   2.983   3.595   4.173
 7229TIP3   OH221629   4.751   0.222   0.772
 7229TIP3    H121630   4.845   0.214   0.753
 7229TIP3    H221631   4.744   0.202   0.866
 7230TIP3   OH221632   7.653   1.787   3.633
 7230TIP3    H121633   7.665   1.830   3.549
 7230TIP3    H221634   7.740   1.786   3.673
 7231TIP3   OH221635   5.971   1.309   6.150
 7231TIP3    H121636   5.952   1.378   6.213
 7231TIP3    H221637   5.981   1.230   6.204
 7232TIP3   OH221638   6.836   0.562   2.790
 7232TIP3    H121639   6.888   0.613   2.727
 7232TIP3    H221640   6.856   0.471   2.770
 7233TIP3   OH221641   4.060   0.281   2.119
 7233TIP3    H121642   4.137   0.331   2.093
 7233TIP3    H221643   3.995   0.348   2.142
 7234TIP3   OH221644   2.620   1.566   2.627
 7234TIP3    H121645   2.693   1.520   2.585
 7234TIP3    H221646   2.558   1.582   2.555
 7235TIP3   OH221647   6.745   5.303   1.160
 7235TIP3    H121648   6.721   5.372   1.099
 7235TIP3    H221649   6.695   5.322   1.239
 7236TIP3   OH221650   6.663   0.015   4.961
 7236TIP3    H121651   6.687   0.016   5.053
 7236TIP3    H221652   6.746   0.009   4.914
 7237TIP3   OH221653   6.462   6.364   1.017
 7237TIP3    H121654   6.475   6.274   1.049
 7237TIP3    H221655   6.441   6.414   1.096
 7238TIP3   OH221656   6.495   1.561   5.121
 7238TIP3    H121657   6.469   1.590   5.034
 7238TIP3    H221658   6.589   1.580   5.125
 7239TIP3   OH221659   4.686   2.760   4.205
 7239TIP3    H121660   4.748   2.769   4.278
 7239TIP3    H221661   4.662   2.850   4.183
 7240TIP3   OH221662   3.632   6.747   3.366
 7240TIP3    H121663   3.689   6.695   3.421
 7240TIP3    H221664   3.680   6.757   3.284
 7241TIP3   OH221665   1.859   1.762   4.536
 7241TIP3    H121666   1.849   1.676   4.495
 7241TIP3    H221667   1.954   1.773   4.546
 7242TIP3   OH221668   0.443   5.340   0.904
 7242TIP3    H121669   0.460   5.250   0.877
 7242TIP3    H221670   0.441   5.336   1.000
 7243TIP3   OH221671   1.274   5.590   2.083
 7243TIP3    H121672   1.341   5.633   2.029
 7243TIP3    H221673   1.193   5.634   2.059
 7244TIP3   OH221674   7.801   7.232   1.274
 7244TIP3    H121675   7.850   7.172   1.330
 7244TIP3    H221676   7.868   7.285   1.231
 7245TIP3   OH221677   3.248   3.730   1.022
 7245TIP3    H121678   3.196   3.658   1.058
 7245TIP3    H221679   3.228   3.728   0.928
 7246TIP3   OH221680   0.514   4.944   3.994
 7246TIP3    H121681   0.466   5.023   4.019
 7246TIP3    H221682   0.586   4.976   3.940
 7247TIP3   OH221683   0.239   7.281   0.781
 7247TIP3    H121684   0.241   7.332   0.700
 7247TIP3    H221685   0.271   7.341   0.848
 7248TIP3   OH221686   0.525   3.192   4.262
 7248TIP3    H121687   0.457   3.257   4.245
 7248TIP3    H221688   0.521   3.134   4.187
 7249TIP3   OH221689   0.768   2.268   1.561
 7249TIP3    H121690   0.754   2.300   1.650
 7249TIP3    H221691   0.800   2.344   1.513
 7250TIP3   OH221692   0.661   7.784   1.843
 7250TIP3    H121693   0.727   7.848   1.869
 7250TIP3    H221694   0.584   7.836   1.822
 7251TIP3   OH221695   1.914   0.698   4.899
 7251TIP3    H121696   1.964   0.777   4.916
 7251TIP3    H221697   1.918   0.686   4.804
 7252TIP3   OH221698   0.142   1.689   6.757
 7252TIP3    H121699   0.111   1.706   6.668
 7252TIP3    H221700   0.224   1.639   6.745
 7253TIP3   OH221701   6.121   1.604   3.375
 7253TIP3    H121702   6.187   1.672   3.389
 7253TIP3    H221703   6.044   1.652   3.344
 7254TIP3   OH221704   4.841   0.694   5.713
 7254TIP3    H121705   4.907   0.757   5.741
 7254TIP3    H221706   4.777   0.746   5.664
 7255TIP3   OH221707   1.656   7.573   5.624
 7255TIP3    H121708   1.649   7.661   5.586
 7255TIP3    H221709   1.694   7.588   5.710
 7256TIP3   OH221710   6.275   3.446   2.657
 7256TIP3    H121711   6.368   3.450   2.679
 7256TIP3    H221712   6.231   3.438   2.742
 7257TIP3   OH221713   0.376   6.503   6.037
 7257TIP3    H121714   0.448   6.534   6.092
 7257TIP3    H221715   0.335   6.433   6.087
 7258TIP3   OH221716   6.141   4.471   1.466
 7258TIP3    H121717   6.147   4.397   1.406
 7258TIP3    H221718   6.102   4.435   1.545
 7259TIP3   OH221719   2.380   0.742   5.789
 7259TIP3    H121720   2.404   0.650   5.776
 7259TIP3    H221721   2.360   0.774   5.701
 7260TIP3   OH221722   2.714   1.292   4.466
 7260TIP3    H121723   2.623   1.297   4.495
 7260TIP3    H221724   2.724   1.363   4.403
 7261TIP3   OH221725   4.553   6.497   0.783
 7261TIP3    H121726   4.515   6.505   0.870
 7261TIP3    H221727   4.525   6.577   0.738
 7262TIP3   OH221728   5.786   7.281   0.981
 7262TIP3    H121729   5.858   7.264   0.920
 7262TIP3    H221730   5.710   7.298   0.925
 7263TIP3   OH221731   0.603   6.520   6.237
 7263TIP3    H121732   0.637   6.436   6.268
 7263TIP3    H221733   0.531   6.540   6.296
 7264TIP3   OH221734   4.862   1.028   5.593
 7264TIP3    H121735   4.850   0.983   5.510
 7264TIP3    H221736   4.917   1.103   5.572
 7265TIP3   OH221737   3.556   6.854   2.906
 7265TIP3    H121738   3.474   6.818   2.938
 7265TIP3    H221739   3.563   6.822   2.816
 7266TIP3   OH221740   4.405   0.204   1.662
 7266TIP3    H121741   4.446   0.132   1.709
 7266TIP3    H221742   4.316   0.174   1.643
 7267TIP3   OH221743   3.817   2.165   3.422
 7267TIP3    H121744   3.888   2.184   3.484
 7267TIP3    H221745   3.823   2.071   3.408
 7268TIP3   OH221746   0.814   0.310   3.321
 7268TIP3    H121747   0.731   0.358   3.316
 7268TIP3    H221748   0.841   0.300   3.230
 7269TIP3   OH221749   6.116   5.890   3.771
 7269TIP3    H121750   6.087   5.855   3.687
 7269TIP3    H221751   6.163   5.818   3.812
 7270TIP3   OH221752   0.267   6.832   1.976
 7270TIP3    H121753   0.245   6.822   2.068
 7270TIP3    H221754   0.362   6.833   1.973
 7271TIP3   OH221755   5.302   4.008   5.749
 7271TIP3    H121756   5.287   3.937   5.688
 7271TIP3    H221757   5.321   4.084   5.694
 7272TIP3   OH221758   1.121   3.891   5.892
 7272TIP3    H121759   1.179   3.960   5.861
 7272TIP3    H221760   1.077   3.860   5.812
 7273TIP3   OH221761   6.673   1.401   6.715
 7273TIP3    H121762   6.595   1.445   6.682
 7273TIP3    H221763   6.645   1.360   6.797
 7274TIP3   OH221764   1.916   2.681   4.844
 7274TIP3    H121765   1.955   2.619   4.905
 7274TIP3    H221766   1.856   2.628   4.792
 7275TIP3   OH221767   5.282   5.988   1.517
 7275TIP3    H121768   5.302   5.917   1.578
 7275TIP3    H221769   5.244   5.945   1.441
 7276TIP3   OH221770   7.750   7.017   1.873
 7276TIP3    H121771   7.781   6.953   1.937
 7276TIP3    H221772   7.666   6.982   1.842
 7277TIP3   OH221773   5.112   1.490   4.687
 7277TIP3    H121774   5.092   1.582   4.677
 7277TIP3    H221775   5.206   1.484   4.669
 7278TIP3   OH221776   3.280   2.285   1.229
 7278TIP3    H121777   3.345   2.281   1.299
 7278TIP3    H221778   3.197   2.261   1.271
 7279TIP3   OH221779   2.753   2.252   1.351
 7279TIP3    H121780   2.666   2.256   1.310
 7279TIP3    H221781   2.735   2.263   1.445
 7280TIP3   OH221782   3.626   1.689   3.655
 7280TIP3    H121783   3.698   1.627   3.654
 7280TIP3    H221784   3.574   1.665   3.732
 7281TIP3   OH221785   1.319   3.213   4.965
 7281TIP3    H121786   1.291   3.182   5.051
 7281TIP3    H221787   1.413   3.194   4.961
 7282TIP3   OH221788   4.873   2.824   3.265
 7282TIP3    H121789   4.840   2.789   3.347
 7282TIP3    H221790   4.796   2.854   3.218
 7283TIP3   OH221791   1.046   4.724   5.525
 7283TIP3    H121792   1.077   4.649   5.474
 7283TIP3    H221793   0.951   4.725   5.512
 7284TIP3   OH221794   3.578   4.803   6.028
 7284TIP3    H121795   3.535   4.864   5.969
 7284TIP3    H221796   3.535   4.719   6.012
 7285TIP3   OH221797   5.915   0.632   2.126
 7285TIP3    H121798   5.990   0.582   2.095
 7285TIP3    H221799   5.839   0.576   2.106
 7286TIP3   OH221800   4.267   4.257   0.115
 7286TIP3    H121801   4.173   4.268   0.096
 7286TIP3    H221802   4.310   4.326   0.065
 7287TIP3   OH221803   0.913   5.794   5.173
 7287TIP3    H121804   0.943   5.704   5.163
 7287TIP3    H221805   0.908   5.827   5.083
 7288TIP3   OH221806   0.199   1.367   0.368
 7288TIP3    H121807   0.148   1.295   0.330
 7288TIP3    H221808   0.288   1.353   0.334
 7289TIP3   OH221809   4.566   3.575   1.619
 7289TIP3    H121810   4.592   3.518   1.691
 7289TIP3    H221811   4.478   3.605   1.643
 7290TIP3   OH221812   3.920   2.719   5.108
 7290TIP3    H121813   3.897   2.812   5.109
 7290TIP3    H221814   3.937   2.700   5.016
 7291TIP3   OH221815   6.934   4.097   3.875
 7291TIP3    H121816   6.939   4.073   3.967
 7291TIP3    H221817   6.913   4.190   3.875
 7292TIP3   OH221818   1.938   4.861   4.943
 7292TIP3    H121819   1.949   4.905   5.027
 7292TIP3    H221820   1.878   4.788   4.962
 7293TIP3   OH221821   6.410   1.706   2.265
 7293TIP3    H121822   6.426   1.625   2.218
 7293TIP3    H221823   6.380   1.679   2.352
 7294TIP3   OH221824   4.604   5.561   0.391
 7294TIP3    H121825   4.696   5.584   0.405
 7294TIP3    H221826   4.581   5.604   0.309
 7295TIP3   OH221827   4.906   7.509   4.342
 7295TIP3    H121828   4.871   7.478   4.258
 7295TIP3    H221829   4.835   7.494   4.405
 7296TIP3   OH221830   7.566   1.886   1.708
 7296TIP3    H121831   7.637   1.907   1.648
 7296TIP3    H221832   7.528   1.806   1.673
 7297TIP3   OH221833   5.355   3.325   5.990
 7297TIP3    H121834   5.394   3.377   6.059
 7297TIP3    H221835   5.421   3.322   5.921
 7298TIP3   OH221836   8.148   4.425   0.027
 7298TIP3    H121837   8.138   4.520   0.032
 7298TIP3    H221838   8.155   4.407  -0.067
 7299TIP3   OH221839   4.831   7.025   2.080
 7299TIP3    H121840   4.737   7.034   2.096
 7299TIP3    H221841   4.840   6.938   2.040
 7300TIP3   OH221842   6.052   7.417   1.726
 7300TIP3    H121843   5.983   7.438   1.788
 7300TIP3    H221844   6.017   7.344   1.675
 7301TIP3   OH221845   1.532   1.803   5.330
 7301TIP3    H121846   1.556   1.721   5.286
 7301TIP3    H221847   1.507   1.861   5.258
 7302TIP3   OH221848   7.722   5.998   0.688
 7302TIP3    H121849   7.647   6.023   0.634
 7302TIP3    H221850   7.720   6.059   0.761
 7303TIP3   OH221851   5.503   6.378   2.121
 7303TIP3    H121852   5.437   6.329   2.170
 7303TIP3    H221853   5.476   6.470   2.131
 7304TIP3   OH221854   5.946   5.208   1.922
 7304TIP3    H121855   5.977   5.192   2.011
 7304TIP3    H221856   5.853   5.187   1.926
 7305TIP3   OH221857   2.319   2.626   4.384
 7305TIP3    H121858   2.225   2.610   4.392
 7305TIP3    H221859   2.347   2.651   4.472
 7306TIP3   OH221860   6.184   5.902   6.727
 7306TIP3    H121861   6.108   5.928   6.675
 7306TIP3    H221862   6.259   5.923   6.672
 7307TIP3   OH221863   2.225   6.614   0.986
 7307TIP3    H121864   2.317   6.588   0.973
 7307TIP3    H221865   2.198   6.646   0.900
 7308TIP3   OH221866   4.725   0.919   1.755
 7308TIP3    H121867   4.685   0.855   1.696
 7308TIP3    H221868   4.813   0.885   1.770
 7309TIP3   OH221869   5.052   2.266   1.343
 7309TIP3    H121870   5.140   2.234   1.365
 7309TIP3    H221871   5.068   2.334   1.278
 7310TIP3   OH221872   4.738   1.486   2.402
 7310TIP3    H121873   4.740   1.492   2.498
 7310TIP3    H221874   4.666   1.426   2.383
 7311TIP3   OH221875   3.515   0.819   6.630
 7311TIP3    H121876   3.586   0.762   6.602
 7311TIP3    H221877   3.559   0.889   6.679
 7312TIP3   OH221878   3.966   4.251   0.496
 7312TIP3    H121879   4.010   4.284   0.574
 7312TIP3    H221880   4.008   4.166   0.479
 7313TIP3   OH221881   4.616   1.678   3.634
 7313TIP3    H121882   4.711   1.693   3.638
 7313TIP3    H221883   4.578   1.757   3.671
 7314TIP3   OH221884   6.735   7.804   3.183
 7314TIP3    H121885   6.770   7.769   3.264
 7314TIP3    H221886   6.775   7.750   3.114
 7315TIP3   OH221887   4.106   5.043   5.021
 7315TIP3    H121888   4.054   5.005   5.092
 7315TIP3    H221889   4.072   5.001   4.942
 7316TIP3   OH221890   7.026   7.004   0.808
 7316TIP3    H121891   6.955   6.954   0.849
 7316TIP3    H221892   7.091   6.938   0.785
 7317TIP3   OH221893   4.238   5.931   5.064
 7317TIP3    H121894   4.208   5.951   5.152
 7317TIP3    H221895   4.294   5.855   5.074
 7318TIP3   OH221896   7.965   5.452   0.350
 7318TIP3    H121897   7.970   5.436   0.256
 7318TIP3    H221898   8.053   5.430   0.382
 7319TIP3   OH221899   7.643   6.256   5.377
 7319TIP3    H121900   7.640   6.189   5.444
 7319TIP3    H221901   7.724   6.304   5.394
 7320TIP3   OH221902  -0.018   5.945   0.927
 7320TIP3    H121903  -0.055   6.006   0.863
 7320TIP3    H221904   0.057   5.906   0.883
 7321TIP3   OH221905   4.327   6.532   6.376
 7321TIP3    H121906   4.348   6.595   6.307
 7321TIP3    H221907   4.325   6.584   6.456
 7322TIP3   OH221908   2.868   5.719   4.245
 7322TIP3    H121909   2.960   5.690   4.249
 7322TIP3    H221910   2.846   5.737   4.336
 7323TIP3   OH221911   7.624   7.292   2.525
 7323TIP3    H121912   7.619   7.257   2.614
 7323TIP3    H221913   7.653   7.217   2.472
 7324TIP3   OH221914   8.114   2.163   2.401
 7324TIP3    H121915   8.072   2.086   2.439
 7324TIP3    H221916   8.042   2.224   2.384
 7325TIP3   OH221917   3.928   6.364   6.569
 7325TIP3    H121918   4.013   6.364   6.525
 7325TIP3    H221919   3.891   6.278   6.550
 7326TIP3   OH221920   3.890   4.409   1.270
 7326TIP3    H121921   3.833   4.455   1.208
 7326TIP3    H221922   3.897   4.320   1.234
 7327TIP3   OH221923   2.258   5.720   0.046
 7327TIP3    H121924   2.196   5.792   0.036
 7327TIP3    H221925   2.211   5.643   0.014
 7328TIP3   OH221926   4.308   2.728   3.511
 7328TIP3    H121927   4.308   2.637   3.541
 7328TIP3    H221928   4.383   2.733   3.452
 7329TIP3   OH221929   7.305   3.524   3.136
 7329TIP3    H121930   7.341   3.613   3.145
 7329TIP3    H221931   7.321   3.483   3.221
 7330TIP3   OH221932   2.588   0.883   4.951
 7330TIP3    H121933   2.612   0.918   4.865
 7330TIP3    H221934   2.635   0.799   4.956
 7331TIP3   OH221935   2.216   1.596   3.735
 7331TIP3    H121936   2.193   1.615   3.826
 7331TIP3    H221937   2.310   1.611   3.730
 7332TIP3   OH221938   4.722   2.436   1.740
 7332TIP3    H121939   4.805   2.413   1.699
 7332TIP3    H221940   4.746   2.505   1.803
 7333TIP3   OH221941   5.648   2.997   5.731
 7333TIP3    H121942   5.581   3.044   5.682
 7333TIP3    H221943   5.627   2.905   5.719
 7334TIP3   OH221944   6.121   2.372   3.259
 7334TIP3    H121945   6.198   2.336   3.304
 7334TIP3    H221946   6.069   2.412   3.328
 7335TIP3   OH221947   4.627   4.568   5.601
 7335TIP3    H121948   4.618   4.521   5.684
 7335TIP3    H221949   4.538   4.593   5.578
 7336TIP3   OH221950   5.790   5.909   1.241
 7336TIP3    H121951   5.763   5.857   1.317
 7336TIP3    H221952   5.728   5.981   1.239
 7337TIP3   OH221953   4.628   1.018   4.889
 7337TIP3    H121954   4.570   0.981   4.822
 7337TIP3    H221955   4.715   0.983   4.868
 7338TIP3   OH221956   1.014   5.384   3.245
 7338TIP3    H121957   1.023   5.454   3.181
 7338TIP3    H221958   0.982   5.309   3.195
 7339TIP3   OH221959   7.219   4.095   1.790
 7339TIP3    H121960   7.168   4.093   1.870
 7339TIP3    H221961   7.170   4.153   1.731
 7340TIP3   OH221962   7.311   4.284   1.291
 7340TIP3    H121963   7.324   4.280   1.386
 7340TIP3    H221964   7.278   4.372   1.275
 7341TIP3   OH221965   1.761   3.184   5.185
 7341TIP3    H121966   1.766   3.104   5.133
 7341TIP3    H221967   1.780   3.254   5.122
 7342TIP3   OH221968   6.666   2.193   6.419
 7342TIP3    H121969   6.632   2.113   6.378
 7342TIP3    H221970   6.602   2.214   6.487
 7343TIP3   OH221971   2.723   0.947   6.476
 7343TIP3    H121972   2.672   0.912   6.550
 7343TIP3    H221973   2.800   0.986   6.517
 7344TIP3   OH221974   1.563   7.034   5.970
 7344TIP3    H121975   1.592   7.035   6.061
 7344TIP3    H221976   1.501   7.107   5.964
 7345TIP3   OH221977   4.169   2.596   5.785
 7345TIP3    H121978   4.222   2.654   5.731
 7345TIP3    H221979   4.133   2.532   5.724
 7346TIP3   OH221980   4.391   3.435   6.469
 7346TIP3    H121981   4.370   3.476   6.553
 7346TIP3    H221982   4.392   3.341   6.488
 7347TIP3   OH221983   1.410   2.194   2.705
 7347TIP3    H121984   1.451   2.168   2.623
 7347TIP3    H221985   1.446   2.133   2.770
 7348TIP3   OH221986   5.047   1.202   5.465
 7348TIP3    H121987   5.064   1.279   5.411
 7348TIP3    H221988   5.084   1.223   5.550
 7349TIP3   OH221989   0.913   0.257   3.584
 7349TIP3    H121990   0.849   0.261   3.513
 7349TIP3    H221991   0.982   0.199   3.551
 7350TIP3   OH221992   4.875   3.565   0.917
 7350TIP3    H121993   4.914   3.541   0.833
 7350TIP3    H221994   4.949   3.574   0.976
 7351TIP3   OH221995   2.063   7.113   6.075
 7351TIP3    H121996   2.133   7.076   6.021
 7351TIP3    H221997   2.072   7.070   6.160
 7352TIP3   OH221998   6.207   1.235   1.849
 7352TIP3    H121999   6.175   1.261   1.762
 7352TIP3    H222000   6.298   1.209   1.833
 7353TIP3   OH222001   7.158   4.891   4.384
 7353TIP3    H122002   7.208   4.860   4.460
 7353TIP3    H222003   7.103   4.816   4.360
 7354TIP3   OH222004   3.551   5.100   6.702
 7354TIP3    H122005   3.639   5.137   6.706
 7354TIP3    H222006   3.493   5.177   6.703
 7355TIP3   OH222007   2.619   0.864   6.238
 7355TIP3    H122008   2.644   0.934   6.177
 7355TIP3    H222009   2.637   0.901   6.325
 7356TIP3   OH222010   4.057   1.078   5.303
 7356TIP3    H122011   3.972   1.040   5.323
 7356TIP3    H222012   4.038   1.155   5.250
 7357TIP3   OH222013   3.977   5.020   3.564
 7357TIP3    H122014   3.911   4.975   3.617
 7357TIP3    H222015   3.994   4.961   3.491
 7358TIP3   OH222016   7.503   0.624   0.821
 7358TIP3    H122017   7.477   0.711   0.852
 7358TIP3    H222018   7.553   0.640   0.741
 7359TIP3   OH222019   6.122   5.455   3.459
 7359TIP3    H122020   6.077   5.499   3.388
 7359TIP3    H222021   6.053   5.405   3.504
 7360TIP3   OH222022   8.181   5.589   5.798
 7360TIP3    H122023   8.246   5.534   5.841
 7360TIP3    H222024   8.228   5.629   5.725
 7361TIP3   OH222025   0.730   3.615   6.399
 7361TIP3    H122026   0.822   3.616   6.373
 7361TIP3    H222027   0.681   3.629   6.318
 7362TIP3   OH222028   0.860   5.547   0.742
 7362TIP3    H122029   0.818   5.569   0.825
 7362TIP3    H222030   0.945   5.511   0.768
 7363TIP3   OH222031   8.201   4.196   4.340
 7363TIP3    H122032   8.242   4.199   4.253
 7363TIP3    H222033   8.179   4.287   4.359
 7364TIP3   OH222034   3.670   5.531   2.443
 7364TIP3    H122035   3.759   5.527   2.409
 7364TIP3    H222036   3.618   5.566   2.371
 7365TIP3   OH222037   0.785   4.170   0.266
 7365TIP3    H122038   0.791   4.206   0.355
 7365TIP3    H222039   0.870   4.189   0.227
 7366TIP3   OH222040   6.573   2.324   0.860
 7366TIP3    H122041   6.638   2.259   0.887
 7366TIP3    H222042   6.519   2.337   0.938
 7367TIP3   OH222043   4.463   4.740   1.866
 7367TIP3    H122044   4.388   4.792   1.837
 7367TIP3    H222045   4.505   4.710   1.785
 7368TIP3   OH222046   3.368   3.875   4.937
 7368TIP3    H122047   3.343   3.823   5.014
 7368TIP3    H222048   3.289   3.925   4.916
 7369TIP3   OH222049   0.692   0.830   3.929
 7369TIP3    H122050   0.738   0.868   4.004
 7369TIP3    H222051   0.604   0.811   3.962
 7370TIP3   OH222052   2.941   6.352   6.433
 7370TIP3    H122053   2.925   6.354   6.527
 7370TIP3    H222054   3.032   6.324   6.425
 7371TIP3   OH222055   3.151   0.036   5.332
 7371TIP3    H122056   3.109   0.115   5.367
 7371TIP3    H222057   3.185  -0.009   5.409
 7372TIP3   OH222058   3.897   2.805   0.328
 7372TIP3    H122059   3.842   2.761   0.393
 7372TIP3    H222060   3.869   2.768   0.245
 7373TIP3   OH222061   2.751   7.714   1.521
 7373TIP3    H122062   2.772   7.789   1.577
 7373TIP3    H222063   2.662   7.689   1.548
 7374TIP3   OH222064   1.765   5.597   0.894
 7374TIP3    H122065   1.856   5.621   0.874
 7374TIP3    H222066   1.769   5.503   0.914
 7375TIP3   OH222067   4.623   6.936   0.336
 7375TIP3    H122068   4.646   6.845   0.353
 7375TIP3    H222069   4.605   6.973   0.422
 7376TIP3   OH222070   2.578   2.730   1.458
 7376TIP3    H122071   2.591   2.716   1.364
 7376TIP3    H222072   2.533   2.814   1.464
 7377TIP3   OH222073   4.377   2.769   1.938
 7377TIP3    H122074   4.330   2.809   1.865
 7377TIP3    H222075   4.441   2.712   1.896
 7378TIP3   OH222076   7.100   5.669   4.733
 7378TIP3    H122077   7.045   5.618   4.673
 7378TIP3    H222078   7.048   5.746   4.754
 7379TIP3   OH222079   6.966   0.639   0.144
 7379TIP3    H122080   6.923   0.555   0.129
 7379TIP3    H222081   7.059   0.621   0.131
 7380TIP3   OH222082   6.446   0.826   5.673
 7380TIP3    H122083   6.371   0.884   5.680
 7380TIP3    H222084   6.488   0.830   5.759
 7381TIP3   OH222085   5.701   0.886   6.465
 7381TIP3    H122086   5.638   0.957   6.454
 7381TIP3    H222087   5.656   0.822   6.520
 7382TIP3   OH222088   2.201   4.896   2.143
 7382TIP3    H122089   2.281   4.915   2.093
 7382TIP3    H222090   2.211   4.805   2.171
 7383TIP3   OH222091   4.078   7.263   5.321
 7383TIP3    H122092   4.120   7.338   5.363
 7383TIP3    H222093   4.059   7.203   5.394
 7384TIP3   OH222094   4.463   6.295   2.515
 7384TIP3    H122095   4.475   6.373   2.460
 7384TIP3    H222096   4.495   6.223   2.461
 7385TIP3   OH222097   0.223   1.653   2.361
 7385TIP3    H122098   0.308   1.611   2.370
 7385TIP3    H222099   0.206   1.654   2.266
 7386TIP3   OH222100   1.303   5.862   2.607
 7386TIP3    H122101   1.317   5.953   2.632
 7386TIP3    H222102   1.297   5.864   2.512
 7387TIP3   OH222103   2.587   2.301   0.055
 7387TIP3    H122104   2.501   2.274   0.086
 7387TIP3    H222105   2.583   2.289  -0.040
 7388TIP3   OH222106   0.906   6.727   0.228
 7388TIP3    H122107   0.836   6.705   0.291
 7388TIP3    H222108   0.982   6.745   0.283
 7389TIP3   OH222109   4.689   7.686   4.149
 7389TIP3    H122110   4.640   7.609   4.119
 7389TIP3    H222111   4.674   7.689   4.244
 7390TIP3   OH222112   2.143   7.015   0.809
 7390TIP3    H122113   2.125   6.965   0.889
 7390TIP3    H222114   2.059   7.019   0.764
 7391TIP3   OH222115   4.084   4.806   5.650
 7391TIP3    H122116   4.087   4.739   5.718
 7391TIP3    H222117   4.049   4.883   5.694
 7392TIP3   OH222118   4.439   4.187   3.199
 7392TIP3    H122119   4.512   4.194   3.259
 7392TIP3    H222120   4.402   4.100   3.216
 7393TIP3   OH222121   2.597   7.551   5.281
 7393TIP3    H122122   2.621   7.468   5.239
 7393TIP3    H222123   2.594   7.615   5.209
 7394TIP3   OH222124   8.172   0.601   4.969
 7394TIP3    H122125   8.192   0.626   4.879
 7394TIP3    H222126   8.127   0.678   5.005
 7395TIP3   OH222127   7.514   2.630   1.630
 7395TIP3    H122128   7.573   2.565   1.670
 7395TIP3    H222129   7.571   2.681   1.572
 7396TIP3   OH222130   3.597   3.102   6.170
 7396TIP3    H122131   3.668   3.151   6.212
 7396TIP3    H222132   3.517   3.135   6.211
 7397TIP3   OH222133   5.975   1.136   1.937
 7397TIP3    H122134   6.057   1.181   1.917
 7397TIP3    H222135   5.957   1.085   1.858
 7398TIP3   OH222136   3.110   4.539   2.745
 7398TIP3    H122137   3.154   4.591   2.813
 7398TIP3    H222138   3.017   4.549   2.763
 7399TIP3   OH222139   5.323   7.151   5.815
 7399TIP3    H122140   5.263   7.115   5.880
 7399TIP3    H222141   5.322   7.089   5.743
 7400TIP3   OH222142   2.617   7.347   2.869
 7400TIP3    H122143   2.680   7.392   2.926
 7400TIP3    H222144   2.662   7.266   2.844
 7401TIP3   OH222145   1.576   1.228   2.292
 7401TIP3    H122146   1.484   1.239   2.266
 7401TIP3    H222147   1.580   1.140   2.328
 7402TIP3   OH222148   3.523   2.468   0.467
 7402TIP3    H122149   3.508   2.477   0.373
 7402TIP3    H222150   3.438   2.486   0.507
 7403TIP3   OH222151   6.275   1.021   4.150
 7403TIP3    H122152   6.278   1.060   4.237
 7403TIP3    H222153   6.362   1.038   4.113
 7404TIP3   OH222154   5.114   6.038   0.498
 7404TIP3    H122155   5.167   6.071   0.570
 7404TIP3    H222156   5.110   5.944   0.512
 7405TIP3   OH222157   5.258   1.607   5.186
 7405TIP3    H122158   5.279   1.668   5.256
 7405TIP3    H222159   5.341   1.592   5.141
 7406TIP3   OH222160   0.546   1.264   3.308
 7406TIP3    H122161   0.474   1.305   3.355
 7406TIP3    H222162   0.537   1.170   3.328
 7407TIP3   OH222163   7.613   4.427   6.213
 7407TIP3    H122164   7.696   4.467   6.238
 7407TIP3    H222165   7.623   4.335   6.238
 7408TIP3   OH222166   5.921   0.550   1.741
 7408TIP3    H122167   5.842   0.601   1.760
 7408TIP3    H222168   5.890   0.459   1.735
 7409TIP3   OH222169   4.736   5.781   0.689
 7409TIP3    H122170   4.701   5.753   0.774
 7409TIP3    H222171   4.758   5.699   0.645
 7410TIP3   OH222172   4.167   2.405   0.191
 7410TIP3    H122173   4.111   2.328   0.180
 7410TIP3    H222174   4.256   2.370   0.197
 7411TIP3   OH222175   2.816   6.984   6.462
 7411TIP3    H122176   2.811   6.982   6.558
 7411TIP3    H222177   2.884   7.048   6.442
 7412TIP3   OH222178   4.763   5.624   1.807
 7412TIP3    H122179   4.802   5.667   1.883
 7412TIP3    H222180   4.713   5.693   1.763
 7413TIP3   OH222181   4.297   5.401   6.201
 7413TIP3    H122182   4.267   5.384   6.112
 7413TIP3    H222183   4.235   5.353   6.257
 7414TIP3   OH222184   6.583   3.982   3.070
 7414TIP3    H122185   6.569   3.904   3.124
 7414TIP3    H222186   6.496   4.004   3.036
 7415TIP3   OH222187   0.745   5.837   2.564
 7415TIP3    H122188   0.745   5.921   2.611
 7415TIP3    H222189   0.812   5.785   2.607
 7416TIP3   OH222190   1.860   6.708   4.763
 7416TIP3    H122191   1.873   6.800   4.742
 7416TIP3    H222192   1.821   6.708   4.851
 7417TIP3   OH222193   5.336   3.090   1.528
 7417TIP3    H122194   5.249   3.098   1.568
 7417TIP3    H222195   5.378   3.175   1.545
 7418TIP3   OH222196   6.598   2.027   0.421
 7418TIP3    H122197   6.566   2.094   0.481
 7418TIP3    H222198   6.543   1.950   0.438
 7419TIP3   OH222199   6.887   2.698   1.158
 7419TIP3    H122200   6.865   2.708   1.250
 7419TIP3    H222201   6.840   2.620   1.129
 7420TIP3   OH222202   1.305   1.967   5.200
 7420TIP3    H122203   1.389   1.933   5.169
 7420TIP3    H222204   1.270   1.899   5.257
 7421TIP3   OH222205   8.314   4.333   4.952
 7421TIP3    H122206   8.283   4.292   5.033
 7421TIP3    H222207   8.241   4.323   4.891
 7422TIP3   OH222208   6.692   3.181   3.660
 7422TIP3    H122209   6.750   3.231   3.717
 7422TIP3    H222210   6.604   3.196   3.694
 7423TIP3   OH222211   6.191   7.575   1.520
 7423TIP3    H122212   6.133   7.545   1.590
 7423TIP3    H222213   6.249   7.639   1.563
 7424TIP3   OH222214   5.964   1.930   5.255
 7424TIP3    H122215   5.871   1.946   5.271
 7424TIP3    H222216   5.970   1.836   5.239
 7425TIP3   OH222217   1.699   7.517   2.075
 7425TIP3    H122218   1.701   7.563   1.991
 7425TIP3    H222219   1.644   7.440   2.059
 7426TIP3   OH222220   6.927   6.396   5.157
 7426TIP3    H122221   6.986   6.471   5.149
 7426TIP3    H222222   6.980   6.321   5.132
 7427TIP3   OH222223   2.501   3.492   1.605
 7427TIP3    H122224   2.589   3.456   1.594
 7427TIP3    H222225   2.466   3.499   1.516
 7428TIP3   OH222226   7.271   6.366   3.745
 7428TIP3    H122227   7.322   6.409   3.676
 7428TIP3    H222228   7.326   6.372   3.823
 7429TIP3   OH222229   0.708   3.488   0.628
 7429TIP3    H122230   0.672   3.572   0.601
 7429TIP3    H222231   0.644   3.452   0.689
 7430TIP3   OH222232   6.918   3.136   3.285
 7430TIP3    H122233   6.926   3.041   3.278
 7430TIP3    H222234   6.826   3.150   3.308
 7431TIP3   OH222235   5.256   0.345   3.669
 7431TIP3    H122236   5.318   0.336   3.597
 7431TIP3    H222237   5.301   0.307   3.745
 7432TIP3   OH222238   6.924   1.740   1.816
 7432TIP3    H122239   6.870   1.693   1.752
 7432TIP3    H222240   6.861   1.776   1.879
 7433TIP3   OH222241   5.548   7.049   4.687
 7433TIP3    H122242   5.568   6.983   4.753
 7433TIP3    H222243   5.557   7.003   4.604
 7434TIP3   OH222244   2.678   0.088   1.946
 7434TIP3    H122245   2.653   0.082   1.853
 7434TIP3    H222246   2.600   0.119   1.990
 7435TIP3   OH222247   5.236   3.390   3.272
 7435TIP3    H122248   5.225   3.312   3.217
 7435TIP3    H222249   5.310   3.369   3.329
 7436TIP3   OH222250   4.731   7.502   4.551
 7436TIP3    H122251   4.774   7.554   4.619
 7436TIP3    H222252   4.638   7.504   4.575
 7437TIP3   OH222253   3.816   1.268   4.718
 7437TIP3    H122254   3.844   1.257   4.627
 7437TIP3    H222255   3.773   1.185   4.740
 7438TIP3   OH222256   5.321   6.629   5.546
 7438TIP3    H122257   5.353   6.720   5.539
 7438TIP3    H222258   5.236   6.637   5.588
 7439TIP3   OH222259   5.555   6.015   4.823
 7439TIP3    H122260   5.537   5.924   4.848
 7439TIP3    H222261   5.512   6.068   4.890
 7440TIP3   OH222262   6.971   2.970   4.654
 7440TIP3    H122263   6.898   3.030   4.668
 7440TIP3    H222264   7.048   3.017   4.687
 7441TIP3   OH222265   2.308   0.022   1.508
 7441TIP3    H122266   2.368  -0.034   1.459
 7441TIP3    H222267   2.330   0.111   1.481
 7442TIP3   OH222268   6.097   1.130   3.974
 7442TIP3    H122269   6.154   1.103   4.046
 7442TIP3    H222270   6.049   1.205   4.008
 7443TIP3   OH222271   4.439   6.840   1.567
 7443TIP3    H122272   4.349   6.864   1.545
 7443TIP3    H222273   4.464   6.777   1.499
 7444TIP3   OH222274   3.400   1.400   5.629
 7444TIP3    H122275   3.330   1.463   5.648
 7444TIP3    H222276   3.369   1.354   5.550
 7445TIP3   OH222277   5.178   3.233   1.238
 7445TIP3    H122278   5.188   3.140   1.261
 7445TIP3    H222279   5.266   3.262   1.218
 7446TIP3   OH222280   6.336   3.006   0.318
 7446TIP3    H122281   6.356   2.962   0.235
 7446TIP3    H222282   6.341   3.099   0.296
 7447TIP3   OH222283   0.394   4.444   6.097
 7447TIP3    H122284   0.455   4.487   6.037
 7447TIP3    H222285   0.443   4.435   6.178
 7448TIP3   OH222286   3.794   7.188   1.802
 7448TIP3    H122287   3.703   7.193   1.834
 7448TIP3    H222288   3.800   7.258   1.736
 7449TIP3   OH222289   0.989   5.977   2.053
 7449TIP3    H122290   0.937   5.918   1.998
 7449TIP3    H222291   1.022   5.922   2.123
 7450TIP3   OH222292   0.003   7.534   6.066
 7450TIP3    H122293  -0.049   7.600   6.021
 7450TIP3    H222294   0.052   7.490   5.997
 7451TIP3   OH222295   7.767   7.817   6.506
 7451TIP3    H122296   7.672   7.808   6.501
 7451TIP3    H222297   7.800   7.727   6.508
 7452TIP3   OH222298   2.146   3.451   3.118
 7452TIP3    H122299   2.235   3.485   3.130
 7452TIP3    H222300   2.093   3.497   3.184
 7453TIP3   OH222301   1.710   6.288   0.114
 7453TIP3    H122302   1.714   6.259   0.206
 7453TIP3    H222303   1.794   6.331   0.099
 7454TIP3   OH222304   5.935   2.726   0.796
 7454TIP3    H122305   5.932   2.743   0.890
 7454TIP3    H222306   6.017   2.766   0.767
 7455TIP3   OH222307   5.818   7.269   4.777
 7455TIP3    H122308   5.768   7.347   4.801
 7455TIP3    H222309   5.872   7.251   4.854
 7456TIP3   OH222310   1.223   0.217   5.150
 7456TIP3    H122311   1.299   0.170   5.185
 7456TIP3    H222312   1.169   0.148   5.110
 7457TIP3   OH222313   3.139   2.380   6.658
 7457TIP3    H122314   3.073   2.411   6.596
 7457TIP3    H222315   3.100   2.392   6.744
 7458TIP3   OH222316   1.360   0.894   0.031
 7458TIP3    H122317   1.417   0.860  -0.038
 7458TIP3    H222318   1.285   0.932  -0.015
 7459TIP3   OH222319   2.825   3.449   6.085
 7459TIP3    H122320   2.784   3.380   6.034
 7459TIP3    H222321   2.916   3.422   6.094
 7460TIP3   OH222322   3.548   0.667   4.914
 7460TIP3    H122323   3.564   0.717   4.993
 7460TIP3    H222324   3.635   0.648   4.879
 7461TIP3   OH222325   3.121   7.544   1.418
 7461TIP3    H122326   3.126   7.554   1.323
 7461TIP3    H222327   3.150   7.454   1.434
 7462TIP3   OH222328   2.654   3.827   4.587
 7462TIP3    H122329   2.610   3.884   4.651
 7462TIP3    H222330   2.632   3.739   4.615
 7463TIP3   OH222331   1.121   4.941   2.235
 7463TIP3    H122332   1.103   4.862   2.184
 7463TIP3    H222333   1.101   4.917   2.326
 7464TIP3   OH222334   6.232   7.288   0.517
 7464TIP3    H122335   6.323   7.276   0.543
 7464TIP3    H222336   6.213   7.380   0.534
 7465TIP3   OH222337   6.508   0.875   4.755
 7465TIP3    H122338   6.463   0.801   4.714
 7465TIP3    H222339   6.517   0.850   4.847
 7466TIP3   OH222340   2.944   7.353   0.190
 7466TIP3    H122341   2.986   7.434   0.159
 7466TIP3    H222342   2.922   7.371   0.281
 7467TIP3   OH222343   7.332   2.586   2.960
 7467TIP3    H122344   7.259   2.590   2.898
 7467TIP3    H222345   7.291   2.556   3.041
 7468TIP3   OH222346   5.611   2.198   1.337
 7468TIP3    H122347   5.695   2.230   1.304
 7468TIP3    H222348   5.590   2.257   1.409
 7469TIP3   OH222349   1.917   1.750   3.698
 7469TIP3    H122350   1.856   1.818   3.672
 7469TIP3    H222351   1.989   1.797   3.741
 7470TIP3   OH222352   5.999   5.652   6.692
 7470TIP3    H122353   6.043   5.734   6.669
 7470TIP3    H222354   5.934   5.678   6.758
 7471TIP3   OH222355   3.681   3.859   1.775
 7471TIP3    H122356   3.662   3.925   1.841
 7471TIP3    H222357   3.596   3.822   1.751
 7472TIP3   OH222358   4.867   4.212   0.615
 7472TIP3    H122359   4.961   4.229   0.626
 7472TIP3    H222360   4.829   4.231   0.700
 7473TIP3   OH222361   1.571   0.147   4.177
 7473TIP3    H122362   1.545   0.122   4.088
 7473TIP3    H222363   1.566   0.242   4.177
 7474TIP3   OH222364   2.249   0.367   0.713
 7474TIP3    H122365   2.233   0.366   0.807
 7474TIP3    H222366   2.309   0.440   0.699
 7475TIP3   OH222367   0.230   0.135   4.078
 7475TIP3    H122368   0.303   0.124   4.017
 7475TIP3    H222369   0.235   0.059   4.136
 7476TIP3   OH222370   3.399   2.799   1.318
 7476TIP3    H122371   3.352   2.855   1.380
 7476TIP3    H222372   3.359   2.713   1.327
 7477TIP3   OH222373   3.802   3.222   3.395
 7477TIP3    H122374   3.793   3.213   3.300
 7477TIP3    H222375   3.715   3.200   3.429
 7478TIP3   OH222376   4.452   2.152   0.905
 7478TIP3    H122377   4.478   2.107   0.824
 7478TIP3    H222378   4.534   2.184   0.942
 7479TIP3   OH222379   8.011   6.403   0.849
 7479TIP3    H122380   7.959   6.477   0.818
 7479TIP3    H222381   8.101   6.434   0.848
 7480TIP3   OH222382   4.172   1.473   5.257
 7480TIP3    H122383   4.131   1.392   5.229
 7480TIP3    H222384   4.122   1.501   5.334
 7481TIP3   OH222385   5.465   6.877   1.718
 7481TIP3    H122386   5.516   6.805   1.681
 7481TIP3    H222387   5.427   6.840   1.799
 7482TIP3   OH222388   5.660   5.817   5.804
 7482TIP3    H122389   5.568   5.791   5.803
 7482TIP3    H222390   5.667   5.878   5.878
 7483TIP3   OH222391   3.302   6.715   6.351
 7483TIP3    H122392   3.298   6.627   6.388
 7483TIP3    H222393   3.212   6.735   6.325
 7484TIP3   OH222394   3.844   5.105   0.800
 7484TIP3    H122395   3.876   5.042   0.864
 7484TIP3    H222396   3.892   5.085   0.719
 7485TIP3   OH222397   7.602   3.698   3.596
 7485TIP3    H122398   7.560   3.731   3.517
 7485TIP3    H222399   7.538   3.715   3.665
 7486TIP3   OH222400   4.919   7.819   1.019
 7486TIP3    H122401   4.925   7.725   1.006
 7486TIP3    H222402   4.987   7.856   0.962
 7487TIP3   OH222403   1.818   4.811   6.800
 7487TIP3    H122404   1.786   4.898   6.822
 7487TIP3    H222405   1.829   4.812   6.705
 7488TIP3   OH222406   6.203   4.528   4.804
 7488TIP3    H122407   6.287   4.500   4.841
 7488TIP3    H222408   6.141   4.519   4.876
 7489TIP3   OH222409   1.154   5.496   0.384
 7489TIP3    H122410   1.103   5.435   0.331
 7489TIP3    H222411   1.179   5.446   0.462
 7490TIP3   OH222412   1.071   5.502   2.993
 7490TIP3    H122413   1.102   5.588   2.964
 7490TIP3    H222414   1.129   5.440   2.949
 7491TIP3   OH222415   0.512   6.074   3.680
 7491TIP3    H122416   0.491   6.035   3.595
 7491TIP3    H222417   0.599   6.040   3.701
 7492TIP3   OH222418   2.642   0.575   1.776
 7492TIP3    H122419   2.719   0.519   1.766
 7492TIP3    H222420   2.639   0.595   1.870
 7493TIP3   OH222421   3.454   4.409   2.486
 7493TIP3    H122422   3.489   4.483   2.535
 7493TIP3    H222423   3.379   4.446   2.438
 7494TIP3   OH222424   7.001   3.730   1.067
 7494TIP3    H122425   6.940   3.795   1.101
 7494TIP3    H222426   6.994   3.657   1.129
 7495TIP3   OH222427   1.332   1.325   1.176
 7495TIP3    H122428   1.294   1.269   1.108
 7495TIP3    H222429   1.256   1.361   1.222
 7496TIP3   OH222430   1.752   5.716   4.373
 7496TIP3    H122431   1.672   5.685   4.417
 7496TIP3    H222432   1.823   5.675   4.423
 7497TIP3   OH222433   5.855   5.745   3.042
 7497TIP3    H122434   5.837   5.757   3.135
 7497TIP3    H222435   5.845   5.651   3.028
 7498TIP3   OH222436   1.267   6.941   3.238
 7498TIP3    H122437   1.200   6.880   3.269
 7498TIP3    H222438   1.278   6.919   3.145
 7499TIP3   OH222439   4.442   6.653   2.077
 7499TIP3    H122440   4.451   6.708   1.999
 7499TIP3    H222441   4.366   6.688   2.123
 7500TIP3   OH222442   1.464   7.519   0.908
 7500TIP3    H122443   1.411   7.594   0.881
 7500TIP3    H222444   1.536   7.558   0.957
 7501TIP3   OH222445   7.574   7.757   5.832
 7501TIP3    H122446   7.604   7.835   5.879
 7501TIP3    H222447   7.578   7.782   5.740
 7502TIP3   OH222448   0.501   1.620   3.344
 7502TIP3    H122449   0.471   1.557   3.409
 7502TIP3    H222450   0.563   1.676   3.391
 7503TIP3   OH222451   1.301   1.620   4.879
 7503TIP3    H122452   1.209   1.628   4.903
 7503TIP3    H222453   1.314   1.684   4.809
 7504TIP3   OH222454   6.873   0.321   2.655
 7504TIP3    H122455   6.877   0.228   2.633
 7504TIP3    H222456   6.936   0.362   2.595
 7505TIP3   OH222457   7.577   4.109   3.491
 7505TIP3    H122458   7.560   4.126   3.584
 7505TIP3    H222459   7.557   4.016   3.479
 7506TIP3   OH222460   2.737   6.466   2.424
 7506TIP3    H122461   2.766   6.556   2.406
 7506TIP3    H222462   2.798   6.412   2.374
 7507TIP3   OH222463   1.204   0.049   3.807
 7507TIP3    H122464   1.256   0.015   3.734
 7507TIP3    H222465   1.182   0.138   3.782
 7508TIP3   OH222466   4.381   0.709   6.037
 7508TIP3    H122467   4.412   0.685   6.124
 7508TIP3    H222468   4.377   0.626   5.989
 7509TIP3   OH222469   1.424   7.282   5.167
 7509TIP3    H122470   1.346   7.243   5.129
 7509TIP3    H222471   1.468   7.210   5.212
 7510TIP3   OH222472   4.117   2.168   0.064
 7510TIP3    H122473   4.183   2.130   0.007
 7510TIP3    H222474   4.088   2.095   0.119
 7511TIP3   OH222475   3.357   7.160   3.462
 7511TIP3    H122476   3.386   7.249   3.482
 7511TIP3    H222477   3.439   7.111   3.451
 7512TIP3   OH222478   2.296   5.418   5.111
 7512TIP3    H122479   2.236   5.453   5.176
 7512TIP3    H222480   2.360   5.368   5.162
 7513TIP3   OH222481   2.275   2.061   1.789
 7513TIP3    H122482   2.308   2.151   1.789
 7513TIP3    H222483   2.353   2.006   1.786
 7514TIP3   OH222484   3.044   2.913   0.054
 7514TIP3    H122485   3.056   2.879   0.143
 7514TIP3    H222486   2.950   2.929   0.047
 7515TIP3   OH222487   5.189   0.679   5.754
 7515TIP3    H122488   5.144   0.753   5.795
 7515TIP3    H222489   5.119   0.618   5.730
 7516TIP3   OH222490   7.063   2.609   3.416
 7516TIP3    H122491   7.068   2.703   3.401
 7516TIP3    H222492   7.120   2.593   3.491
 7517TIP3   OH222493   3.309   4.984   3.191
 7517TIP3    H122494   3.335   4.897   3.161
 7517TIP3    H222495   3.213   4.980   3.196
 7518TIP3   OH222496   4.969   6.155   1.033
 7518TIP3    H122497   5.031   6.172   0.962
 7518TIP3    H222498   4.916   6.081   1.001
 7519TIP3   OH222499   0.994   5.166   3.529
 7519TIP3    H122500   1.028   5.196   3.614
 7519TIP3    H222501   0.911   5.212   3.520
 7520TIP3   OH222502   6.642   3.366   4.430
 7520TIP3    H122503   6.704   3.301   4.397
 7520TIP3    H222504   6.596   3.397   4.352
 7521TIP3   OH222505   7.292   6.077   5.751
 7521TIP3    H122506   7.219   6.025   5.715
 7521TIP3    H222507   7.316   6.136   5.680
 7522TIP3   OH222508   1.576   2.795   1.377
 7522TIP3    H122509   1.501   2.829   1.425
 7522TIP3    H222510   1.565   2.700   1.378
 7523TIP3   OH222511   7.819   6.064   1.339
 7523TIP3    H122512   7.893   6.103   1.292
 7523TIP3    H222513   7.774   6.011   1.274
 7524TIP3   OH222514   2.743   1.689   3.699
 7524TIP3    H122515   2.754   1.617   3.761
 7524TIP3    H222516   2.767   1.652   3.614
 7525TIP3   OH222517   0.365   2.649   2.298
 7525TIP3    H122518   0.298   2.629   2.232
 7525TIP3    H222519   0.412   2.567   2.309
 7526TIP3   OH222520   1.070   1.402   1.194
 7526TIP3    H122521   0.976   1.390   1.180
 7526TIP3    H222522   1.099   1.453   1.119
 7527TIP3   OH222523   1.590   0.052   2.798
 7527TIP3    H122524   1.617   0.122   2.739
 7527TIP3    H222525   1.517   0.009   2.753
 7528TIP3   OH222526   0.756   4.110   5.753
 7528TIP3    H122527   0.838   4.070   5.725
 7528TIP3    H222528   0.722   4.155   5.676
 7529TIP3   OH222529   4.339   7.113   5.301
 7529TIP3    H122530   4.390   7.191   5.278
 7529TIP3    H222531   4.269   7.146   5.358
 7530TIP3   OH222532   1.559   1.725   3.658
 7530TIP3    H122533   1.510   1.799   3.623
 7530TIP3    H222534   1.597   1.683   3.581
 7531TIP3   OH222535   8.006   0.652   6.039
 7531TIP3    H122536   8.059   0.727   6.068
 7531TIP3    H222537   7.952   0.687   5.969
 7532TIP3   OH222538   5.971   3.539   5.926
 7532TIP3    H122539   5.885   3.545   5.885
 7532TIP3    H222540   5.974   3.614   5.986
 7533TIP3   OH222541   7.800   7.661   4.795
 7533TIP3    H122542   7.705   7.668   4.787
 7533TIP3    H222543   7.830   7.638   4.707
 7534TIP3   OH222544   0.111   3.792   2.405
 7534TIP3    H122545   0.054   3.867   2.423
 7534TIP3    H222546   0.063   3.716   2.439
 7535TIP3   OH222547   5.363   0.408   5.628
 7535TIP3    H122548   5.437   0.404   5.567
 7535TIP3    H222549   5.302   0.471   5.588
 7536TIP3   OH222550   4.695   3.610   3.522
 7536TIP3    H122551   4.689   3.517   3.542
 7536TIP3    H222552   4.611   3.646   3.551
 7537TIP3   OH222553   5.343   2.203   0.110
 7537TIP3    H122554   5.419   2.144   0.114
 7537TIP3    H222555   5.381   2.289   0.094
 7538TIP3   OH222556   7.269   2.671   6.458
 7538TIP3    H122557   7.342   2.610   6.447
 7538TIP3    H222558   7.254   2.706   6.370
 7539TIP3   OH222559   7.545   0.693   0.226
 7539TIP3    H122560   7.464   0.651   0.256
 7539TIP3    H222561   7.557   0.661   0.137
 7540TIP3   OH222562   4.515   3.697   4.986
 7540TIP3    H122563   4.600   3.657   4.967
 7540TIP3    H222564   4.474   3.637   5.048
 7541TIP3   OH222565   5.489   4.747   4.192
 7541TIP3    H122566   5.412   4.693   4.207
 7541TIP3    H222567   5.514   4.777   4.279
 7542TIP3   OH222568   1.434   7.041   1.976
 7542TIP3    H122569   1.428   6.965   1.918
 7542TIP3    H222570   1.475   7.007   2.056
 7543TIP3   OH222571   3.388   7.130   0.810
 7543TIP3    H122572   3.331   7.191   0.763
 7543TIP3    H222573   3.476   7.163   0.794
 7544TIP3   OH222574   7.756   6.445   5.717
 7544TIP3    H122575   7.829   6.388   5.741
 7544TIP3    H222576   7.678   6.393   5.735
 7545TIP3   OH222577   6.622   0.036   3.391
 7545TIP3    H122578   6.615   0.033   3.486
 7545TIP3    H222579   6.617   0.130   3.370
 7546TIP3   OH222580   7.596   7.369   1.677
 7546TIP3    H122581   7.649   7.290   1.666
 7546TIP3    H222582   7.514   7.339   1.714
 7547TIP3   OH222583   1.413   4.117   6.669
 7547TIP3    H122584   1.471   4.078   6.735
 7547TIP3    H222585   1.431   4.070   6.589
 7548TIP3   OH222586   2.576   5.813   3.915
 7548TIP3    H122587   2.566   5.800   4.010
 7548TIP3    H222588   2.496   5.777   3.877
 7549TIP3   OH222589   3.243   5.653   5.163
 7549TIP3    H122590   3.332   5.621   5.176
 7549TIP3    H222591   3.254   5.737   5.120
 7550TIP3   OH222592   1.370   0.687   5.138
 7550TIP3    H122593   1.419   0.653   5.064
 7550TIP3    H222594   1.337   0.609   5.184
 7551TIP3   OH222595   3.863   7.399   5.533
 7551TIP3    H122596   3.802   7.327   5.551
 7551TIP3    H222597   3.865   7.448   5.615
 7552TIP3   OH222598   7.193   3.418   5.875
 7552TIP3    H122599   7.282   3.451   5.886
 7552TIP3    H222600   7.157   3.415   5.963
 7553TIP3   OH222601   4.425   5.699   5.097
 7553TIP3    H122602   4.450   5.672   5.185
 7553TIP3    H222603   4.376   5.625   5.063
 7554TIP3   OH222604   3.713   0.465   3.923
 7554TIP3    H122605   3.670   0.412   3.856
 7554TIP3    H222606   3.643   0.518   3.961
 7555TIP3   OH222607   5.864   5.741   6.259
 7555TIP3    H122608   5.873   5.664   6.203
 7555TIP3    H222609   5.811   5.802   6.208
 7556TIP3   OH222610   8.129   0.291   5.986
 7556TIP3    H122611   8.036   0.299   6.003
 7556TIP3    H222612   8.138   0.206   5.942
 7557TIP3   OH222613   1.091   6.838   0.435
 7557TIP3    H122614   1.088   6.858   0.529
 7557TIP3    H222615   1.177   6.798   0.422
 7558TIP3   OH222616   2.174   0.084   6.046
 7558TIP3    H122617   2.221   0.002   6.061
 7558TIP3    H222618   2.152   0.117   6.133
 7559TIP3   OH222619   5.186   6.291   4.142
 7559TIP3    H122620   5.246   6.282   4.216
 7559TIP3    H222621   5.158   6.201   4.123
 7560TIP3   OH222622   6.743   7.747   1.258
 7560TIP3    H122623   6.742   7.656   1.286
 7560TIP3    H222624   6.664   7.757   1.205
 7561TIP3   OH222625   2.822   3.912   1.950
 7561TIP3    H122626   2.840   4.000   1.982
 7561TIP3    H222627   2.756   3.924   1.882
 7562TIP3   OH222628   6.485   4.957   3.550
 7562TIP3    H122629   6.505   4.939   3.641
 7562TIP3    H222630   6.395   4.991   3.551
 7563TIP3   OH222631   3.154   6.800   3.883
 7563TIP3    H122632   3.132   6.891   3.866
 7563TIP3    H222633   3.235   6.785   3.835
 7564TIP3   OH222634   2.809   6.587   3.081
 7564TIP3    H122635   2.874   6.572   3.013
 7564TIP3    H222636   2.729   6.546   3.047
 7565TIP3   OH222637   5.666   3.459   3.874
 7565TIP3    H122638   5.672   3.403   3.951
 7565TIP3    H222639   5.700   3.406   3.802
 7566TIP3   OH222640   7.988   5.930   6.370
 7566TIP3    H122641   7.952   5.861   6.314
 7566TIP3    H222642   8.054   5.973   6.317
 7567TIP3   OH222643   6.802   7.121   5.155
 7567TIP3    H122644   6.782   7.062   5.228
 7567TIP3    H222645   6.880   7.169   5.183
 7568TIP3   OH222646   1.023   6.223   5.165
 7568TIP3    H122647   1.118   6.229   5.155
 7568TIP3    H222648   1.011   6.153   5.230
 7569TIP3   OH222649   0.822   7.406   6.256
 7569TIP3    H122650   0.731   7.434   6.267
 7569TIP3    H222651   0.816   7.320   6.215
 7570TIP3   OH222652   4.000   7.052   5.511
 7570TIP3    H122653   3.929   6.996   5.542
 7570TIP3    H222654   4.051   7.072   5.589
 7571TIP3   OH222655   3.091   1.059   4.307
 7571TIP3    H122656   3.094   0.964   4.293
 7571TIP3    H222657   3.018   1.071   4.368
 7572TIP3   OH222658   4.362   1.997   3.903
 7572TIP3    H122659   4.435   2.039   3.948
 7572TIP3    H222660   4.403   1.935   3.843
 7573TIP3   OH222661   0.251   4.297   6.301
 7573TIP3    H122662   0.202   4.294   6.219
 7573TIP3    H222663   0.296   4.212   6.305
 7574TIP3   OH222664   3.614   2.803   0.700
 7574TIP3    H122665   3.687   2.853   0.737
 7574TIP3    H222666   3.541   2.820   0.760
 7575TIP3   OH222667   4.950   0.532   1.809
 7575TIP3    H122668   4.990   0.553   1.893
 7575TIP3    H222669   4.971   0.440   1.795
 7576TIP3   OH222670   0.843   6.269   0.419
 7576TIP3    H122671   0.923   6.295   0.373
 7576TIP3    H222672   0.800   6.352   0.442
 7577TIP3   OH222673   5.710   0.703   3.831
 7577TIP3    H122674   5.798   0.739   3.828
 7577TIP3    H222675   5.695   0.667   3.743
 7578TIP3   OH222676   3.863   5.007   1.116
 7578TIP3    H122677   3.957   4.993   1.125
 7578TIP3    H222678   3.840   5.062   1.190
 7579TIP3   OH222679   6.319   1.249   6.251
 7579TIP3    H122680   6.304   1.343   6.241
 7579TIP3    H222681   6.231   1.211   6.253
 7580TIP3   OH222682   3.450   2.187   0.217
 7580TIP3    H122683   3.435   2.184   0.122
 7580TIP3    H222684   3.400   2.113   0.251
 7581TIP3   OH222685   8.116   2.247   1.708
 7581TIP3    H122686   8.062   2.224   1.632
 7581TIP3    H222687   8.098   2.340   1.722
 7582TIP3   OH222688   0.913   3.078   6.479
 7582TIP3    H122689   0.998   3.097   6.440
 7582TIP3    H222690   0.911   3.133   6.558
 7583TIP3   OH222691   1.092   0.991   4.361
 7583TIP3    H122692   1.041   1.042   4.299
 7583TIP3    H222693   1.182   0.993   4.327
 7584TIP3   OH222694   7.327   7.043   1.857
 7584TIP3    H122695   7.409   7.001   1.883
 7584TIP3    H222696   7.354   7.121   1.809
 7585TIP3   OH222697   0.215   4.730   1.180
 7585TIP3    H122698   0.135   4.679   1.185
 7585TIP3    H222699   0.198   4.797   1.114
 7586TIP3   OH222700   3.322   2.190   6.600
 7586TIP3    H122701   3.280   2.162   6.518
 7586TIP3    H222702   3.269   2.262   6.631
 7587TIP3   OH222703   1.152   4.482   5.409
 7587TIP3    H122704   1.141   4.387   5.409
 7587TIP3    H222705   1.234   4.497   5.456
 7588TIP3   OH222706   4.201   0.478   0.951
 7588TIP3    H122707   4.148   0.552   0.918
 7588TIP3    H222708   4.173   0.404   0.897
 7589TIP3   OH222709   0.859   3.883   6.759
 7589TIP3    H122710   0.893   3.822   6.693
 7589TIP3    H222711   0.776   3.844   6.787
 7590TIP3   OH222712   6.920   0.832   1.197
 7590TIP3    H122713   7.012   0.808   1.198
 7590TIP3    H222714   6.918   0.921   1.233
 7591TIP3   OH222715   3.541   5.153   0.185
 7591TIP3    H122716   3.497   5.223   0.233
 7591TIP3    H222717   3.596   5.109   0.250
 7592TIP3   OH222718   4.580   4.593   1.058
 7592TIP3    H122719   4.604   4.563   0.970
 7592TIP3    H222720   4.513   4.660   1.043
 7593TIP3   OH222721   2.315   6.151   4.642
 7593TIP3    H122722   2.255   6.225   4.644
 7593TIP3    H222723   2.275   6.090   4.579
 7594TIP3   OH222724   2.061   0.452   4.928
 7594TIP3    H122725   2.011   0.534   4.922
 7594TIP3    H222726   2.090   0.435   4.839
 7595TIP3   OH222727   5.534   6.081   2.808
 7595TIP3    H122728   5.540   6.059   2.715
 7595TIP3    H222729   5.503   6.000   2.849
 7596TIP3   OH222730   0.386   0.670   5.793
 7596TIP3    H122731   0.453   0.628   5.847
 7596TIP3    H222732   0.303   0.642   5.831
 7597TIP3   OH222733  -0.032   3.171   3.805
 7597TIP3    H122734   0.002   3.261   3.801
 7597TIP3    H222735  -0.093   3.165   3.732
 7598TIP3   OH222736   6.281   0.689   1.961
 7598TIP3    H122737   6.238   0.735   1.890
 7598TIP3    H222738   6.249   0.599   1.955
 7599TIP3   OH222739   6.703   7.666   6.727
 7599TIP3    H122740   6.651   7.720   6.667
 7599TIP3    H222741   6.739   7.729   6.789
 7600TIP3   OH222742   4.343   6.955   0.283
 7600TIP3    H122743   4.295   7.017   0.337
 7600TIP3    H222744   4.431   6.952   0.321
 7601TIP3   OH222745   2.881   0.737   1.869
 7601TIP3    H122746   2.887   0.777   1.956
 7601TIP3    H222747   2.790   0.747   1.845
 7602TIP3   OH222748   5.984   2.537   1.598
 7602TIP3    H122749   6.011   2.498   1.515
 7602TIP3    H222750   6.064   2.543   1.650
 7603TIP3   OH222751   2.584   2.995   1.979
 7603TIP3    H122752   2.544   3.007   2.065
 7603TIP3    H222753   2.532   3.051   1.920
 7604TIP3   OH222754   6.584   0.555   1.348
 7604TIP3    H122755   6.527   0.504   1.406
 7604TIP3    H222756   6.614   0.492   1.282
 7605TIP3   OH222757   0.413   0.735   2.874
 7605TIP3    H122758   0.355   0.698   2.808
 7605TIP3    H222759   0.391   0.689   2.955
 7606TIP3   OH222760   7.307   0.888   3.510
 7606TIP3    H122761   7.246   0.962   3.522
 7606TIP3    H222762   7.267   0.817   3.560
 7607TIP3   OH222763   2.014   3.523   5.438
 7607TIP3    H122764   1.934   3.565   5.468
 7607TIP3    H222765   2.002   3.430   5.457
 7608TIP3   OH222766   3.374   4.413   2.850
 7608TIP3    H122767   3.347   4.502   2.825
 7608TIP3    H222768   3.306   4.384   2.911
 7609TIP3   OH222769   5.899   0.810   1.072
 7609TIP3    H122770   5.926   0.760   0.994
 7609TIP3    H222771   5.943   0.766   1.144
 7610TIP3   OH222772   0.082   4.047   0.892
 7610TIP3    H122773   0.175   4.031   0.878
 7610TIP3    H222774   0.065   4.131   0.848
 7611TIP3   OH222775   2.331   0.113   6.739
 7611TIP3    H122776   2.256   0.131   6.795
 7611TIP3    H222777   2.294   0.077   6.659
 7612TIP3   OH222778   7.507   7.669   2.618
 7612TIP3    H122779   7.502   7.667   2.523
 7612TIP3    H222780   7.586   7.618   2.638
 7613TIP3   OH222781   5.075   0.016   5.535
 7613TIP3    H122782   5.087   0.052   5.623
 7613TIP3    H222783   5.163  -0.008   5.507
 7614TIP3   OH222784   5.301   5.878   4.090
 7614TIP3    H122785   5.365   5.944   4.064
 7614TIP3    H222786   5.223   5.929   4.113
 7615TIP3   OH222787   7.383   4.428   5.558
 7615TIP3    H122788   7.474   4.456   5.563
 7615TIP3    H222789   7.369   4.413   5.464
 7616TIP3   OH222790   7.164   0.423   0.291
 7616TIP3    H122791   7.200   0.480   0.223
 7616TIP3    H222792   7.205   0.338   0.274
 7617TIP3   OH222793   5.639   3.087   4.389
 7617TIP3    H122794   5.644   2.997   4.423
 7617TIP3    H222795   5.563   3.086   4.330
 7618TIP3   OH222796   6.057   4.806   3.383
 7618TIP3    H122797   6.111   4.744   3.334
 7618TIP3    H222798   6.054   4.769   3.472
 7619TIP3   OH222799   7.516   2.274   5.305
 7619TIP3    H122800   7.427   2.258   5.276
 7619TIP3    H222801   7.570   2.222   5.246
 7620TIP3   OH222802   5.182   3.775   0.742
 7620TIP3    H122803   5.128   3.845   0.779
 7620TIP3    H222804   5.259   3.821   0.708
 7621TIP3   OH222805   7.290   7.291   3.035
 7621TIP3    H122806   7.350   7.356   2.998
 7621TIP3    H222807   7.320   7.208   2.999
 7622TIP3   OH222808   7.772   5.198   6.584
 7622TIP3    H122809   7.863   5.180   6.561
 7622TIP3    H222810   7.727   5.203   6.500
 7623TIP3   OH222811   3.046   2.321   4.856
 7623TIP3    H122812   3.138   2.326   4.829
 7623TIP3    H222813   3.047   2.270   4.937
 7624TIP3   OH222814   1.870   4.213   6.738
 7624TIP3    H122815   1.883   4.127   6.698
 7624TIP3    H222816   1.805   4.256   6.683
 7625TIP3   OH222817   1.105   6.364   2.547
 7625TIP3    H122818   1.040   6.356   2.477
 7625TIP3    H222819   1.067   6.428   2.608
 7626TIP3   OH222820   4.852   3.315   3.944
 7626TIP3    H122821   4.855   3.398   3.897
 7626TIP3    H222822   4.769   3.316   3.991
 7627TIP3   OH222823   6.802   1.901   1.995
 7627TIP3    H122824   6.875   1.865   2.047
 7627TIP3    H222825   6.726   1.893   2.052
 7628TIP3   OH222826   7.431   6.857   6.340
 7628TIP3    H122827   7.378   6.885   6.265
 7628TIP3    H222828   7.393   6.903   6.415
 7629TIP3   OH222829   3.528   3.081   6.488
 7629TIP3    H122830   3.519   3.006   6.429
 7629TIP3    H222831   3.439   3.097   6.521
 7630TIP3   OH222832   1.903   1.419   6.504
 7630TIP3    H122833   1.980   1.363   6.493
 7630TIP3    H222834   1.877   1.442   6.415
 7631TIP3   OH222835   0.059   7.006   5.850
 7631TIP3    H122836  -0.036   7.008   5.859
 7631TIP3    H222837   0.089   6.947   5.918
 7632TIP3   OH222838   0.392   1.594   6.685
 7632TIP3    H122839   0.380   1.511   6.732
 7632TIP3    H222840   0.484   1.593   6.658
 7633TIP3   OH222841   3.552   4.977   2.681
 7633TIP3    H122842   3.496   5.032   2.626
 7633TIP3    H222843   3.627   4.957   2.626
 7634TIP3   OH222844   1.465   7.224   0.397
 7634TIP3    H122845   1.486   7.313   0.370
 7634TIP3    H222846   1.546   7.175   0.385
 7635TIP3   OH222847   7.962   1.168   5.640
 7635TIP3    H122848   7.879   1.135   5.605
 7635TIP3    H222849   8.027   1.102   5.613
 7636TIP3   OH222850   7.758   3.245   3.413
 7636TIP3    H122851   7.780   3.333   3.443
 7636TIP3    H222852   7.830   3.191   3.445
 7637TIP3   OH222853   4.476   6.570   3.580
 7637TIP3    H122854   4.440   6.496   3.630
 7637TIP3    H222855   4.471   6.644   3.641
 7638TIP3   OH222856   0.996   0.900   0.032
 7638TIP3    H122857   0.957   0.986   0.051
 7638TIP3    H222858   0.955   0.873  -0.050
 7639TIP3   OH222859   4.623   2.914   5.873
 7639TIP3    H122860   4.584   2.951   5.952
 7639TIP3    H222861   4.574   2.953   5.801
 7640TIP3   OH222862   4.927   2.988   4.217
 7640TIP3    H122863   4.984   2.915   4.240
 7640TIP3    H222864   4.972   3.032   4.144
 7641TIP3   OH222865   7.298   6.920   6.107
 7641TIP3    H122866   7.308   6.937   6.013
 7641TIP3    H222867   7.286   7.007   6.146
 7642TIP3   OH222868   1.706   7.073   0.398
 7642TIP3    H122869   1.692   6.979   0.407
 7642TIP3    H222870   1.800   7.085   0.412
 7643TIP3   OH222871   0.091   6.406   1.081
 7643TIP3    H122872   0.045   6.413   0.998
 7643TIP3    H222873   0.151   6.481   1.082
 7644TIP3   OH222874   0.367   2.940   6.726
 7644TIP3    H122875   0.296   2.901   6.676
 7644TIP3    H222876   0.348   2.918   6.817
 7645TIP3   OH222877   4.120   6.027   6.665
 7645TIP3    H122878   4.065   5.961   6.707
 7645TIP3    H222879   4.119   6.003   6.572
 7646TIP3   OH222880   3.461   6.001   4.055
 7646TIP3    H122881   3.397   6.072   4.049
 7646TIP3    H222882   3.462   5.977   4.147
 7647TIP3   OH222883   7.545   5.930   6.630
 7647TIP3    H122884   7.466   5.919   6.683
 7647TIP3    H222885   7.595   5.849   6.642
 7648TIP3   OH222886   7.796   6.910   1.608
 7648TIP3    H122887   7.790   6.814   1.615
 7648TIP3    H222888   7.781   6.941   1.697
 7649TIP3   OH222889   5.526   0.167   3.433
 7649TIP3    H122890   5.558   0.195   3.347
 7649TIP3    H222891   5.433   0.149   3.420
 7650TIP3   OH222892   5.244   1.255   3.302
 7650TIP3    H122893   5.158   1.269   3.342
 7650TIP3    H222894   5.300   1.228   3.374
 7651TIP3   OH222895   5.640   4.641   0.399
 7651TIP3    H122896   5.571   4.673   0.340
 7651TIP3    H222897   5.599   4.639   0.485
 7652TIP3   OH222898   3.535   6.276   2.229
 7652TIP3    H122899   3.462   6.337   2.235
 7652TIP3    H222900   3.574   6.292   2.143
 7653TIP3   OH222901   0.745   5.299   3.967
 7653TIP3    H122902   0.673   5.239   3.985
 7653TIP3    H222903   0.727   5.332   3.879
 7654TIP3   OH222904   7.551   2.254   0.770
 7654TIP3    H122905   7.519   2.260   0.860
 7654TIP3    H222906   7.638   2.294   0.773
 7655TIP3   OH222907   1.711   0.444   2.332
 7655TIP3    H122908   1.737   0.469   2.244
 7655TIP3    H222909   1.616   0.452   2.333
 7656TIP3   OH222910   6.999   2.138   6.040
 7656TIP3    H122911   7.045   2.177   5.966
 7656TIP3    H222912   7.056   2.152   6.115
 7657TIP3   OH222913   1.402   0.790   5.567
 7657TIP3    H122914   1.445   0.811   5.484
 7657TIP3    H222915   1.310   0.811   5.552
 7658TIP3   OH222916   7.290   1.093   3.944
 7658TIP3    H122917   7.264   1.003   3.964
 7658TIP3    H222918   7.210   1.135   3.913
 7659TIP3   OH222919   2.369   0.964   6.349
 7659TIP3    H122920   2.308   0.904   6.391
 7659TIP3    H222921   2.443   0.909   6.323
 7660TIP3   OH222922   5.945   5.456   5.065
 7660TIP3    H122923   6.031   5.452   5.105
 7660TIP3    H222924   5.887   5.489   5.134
 7661TIP3   OH222925   8.048   2.445   0.789
 7661TIP3    H122926   8.113   2.513   0.773
 7661TIP3    H222927   8.098   2.364   0.794
 7662TIP3   OH222928   3.798   4.527   4.309
 7662TIP3    H122929   3.713   4.543   4.350
 7662TIP3    H222930   3.788   4.560   4.220
 7663TIP3   OH222931   2.667   5.812   0.859
 7663TIP3    H122932   2.587   5.817   0.807
 7663TIP3    H222933   2.699   5.723   0.845
 7664TIP3   OH222934   3.732   1.875   5.947
 7664TIP3    H122935   3.743   1.920   5.863
 7664TIP3    H222936   3.650   1.909   5.983
 7665TIP3   OH222937   6.951   0.598   6.500
 7665TIP3    H122938   6.941   0.661   6.571
 7665TIP3    H222939   6.991   0.521   6.541
 7666TIP3   OH222940   7.132   4.507   6.486
 7666TIP3    H122941   7.198   4.467   6.429
 7666TIP3    H222942   7.085   4.432   6.523
 7667TIP3   OH222943   2.323   6.907   1.165
 7667TIP3    H122944   2.408   6.871   1.138
 7667TIP3    H222945   2.346   6.971   1.234
 7668TIP3   OH222946   1.186   1.060   2.037
 7668TIP3    H122947   1.211   1.004   2.110
 7668TIP3    H222948   1.104   1.023   2.005
 7669TIP3   OH222949   5.089   1.560   1.568
 7669TIP3    H122950   5.117   1.469   1.555
 7669TIP3    H222951   5.019   1.554   1.633
 7670TIP3   OH222952   7.023   7.748   3.368
 7670TIP3    H122953   7.042   7.836   3.337
 7670TIP3    H222954   7.109   7.706   3.375
 7671TIP3   OH222955   3.799   0.634   2.774
 7671TIP3    H122956   3.817   0.668   2.686
 7671TIP3    H222957   3.882   0.645   2.820
 7672TIP3   OH222958   2.632   6.387   1.812
 7672TIP3    H122959   2.591   6.357   1.892
 7672TIP3    H222960   2.655   6.307   1.764
 7673TIP3   OH222961   3.439   1.627   6.011
 7673TIP3    H122962   3.423   1.678   6.090
 7673TIP3    H222963   3.529   1.596   6.021
 7674TIP3   OH222964   8.039   4.933   2.416
 7674TIP3    H122965   8.081   5.017   2.396
 7674TIP3    H222966   8.095   4.868   2.373
 7675TIP3   OH222967   6.359   3.454   5.094
 7675TIP3    H122968   6.271   3.426   5.068
 7675TIP3    H222969   6.414   3.428   5.021
 7676TIP3   OH222970   7.726   7.335   0.900
 7676TIP3    H122971   7.819   7.316   0.912
 7676TIP3    H222972   7.722   7.391   0.823
 7677TIP3   OH222973   3.901   3.573   0.481
 7677TIP3    H122974   3.933   3.553   0.393
 7677TIP3    H222975   3.863   3.660   0.473
 7678TIP3   OH222976   1.029   5.253   4.867
 7678TIP3    H122977   1.011   5.238   4.960
 7678TIP3    H222978   0.948   5.291   4.833
 7679TIP3   OH222979   5.689   5.739   0.922
 7679TIP3    H122980   5.781   5.724   0.941
 7679TIP3    H222981   5.673   5.829   0.948
 7680TIP3   OH222982   0.690   6.304   3.197
 7680TIP3    H122983   0.707   6.314   3.104
 7680TIP3    H222984   0.715   6.214   3.217
 7681TIP3   OH222985   0.495   4.078   5.795
 7681TIP3    H122986   0.587   4.064   5.770
 7681TIP3    H222987   0.457   4.123   5.720
 7682TIP3   OH222988   0.521   5.642   4.170
 7682TIP3    H122989   0.592   5.685   4.124
 7682TIP3    H222990   0.541   5.655   4.263
 7683TIP3   OH222991   2.869   4.569   2.841
 7683TIP3    H122992   2.845   4.476   2.832
 7683TIP3    H222993   2.788   4.617   2.825
 7684TIP3   OH222994   4.318   6.632   5.858
 7684TIP3    H122995   4.368   6.598   5.933
 7684TIP3    H222996   4.377   6.695   5.816
 7685TIP3   OH222997   4.878   4.206   3.343
 7685TIP3    H122998   4.968   4.237   3.334
 7685TIP3    H222999   4.826   4.269   3.294
 7686TIP3   OH223000   4.859   4.569   1.143
 7686TIP3    H123001   4.765   4.571   1.128
 7686TIP3    H223002   4.897   4.613   1.067
 7687TIP3   OH223003   4.646   6.568   5.828
 7687TIP3    H123004   4.602   6.579   5.744
 7687TIP3    H223005   4.600   6.626   5.888
 7688TIP3   OH223006   3.274   6.152   3.613
 7688TIP3    H123007   3.215   6.227   3.621
 7688TIP3    H223008   3.217   6.080   3.586
 7689TIP3   OH223009   7.591   2.398   1.800
 7689TIP3    H123010   7.619   2.414   1.890
 7689TIP3    H223011   7.495   2.396   1.804
 7690TIP3   OH223012   4.902   5.765   3.853
 7690TIP3    H123013   4.868   5.769   3.763
 7690TIP3    H223014   4.983   5.716   3.846
 7691TIP3   OH223015   7.261   4.054   4.407
 7691TIP3    H123016   7.325   4.114   4.444
 7691TIP3    H223017   7.313   3.980   4.376
 7692TIP3   OH223018   2.626   6.851   5.998
 7692TIP3    H123019   2.544   6.802   6.008
 7692TIP3    H223020   2.649   6.876   6.088
 7693TIP3   OH223021   4.836   3.988   2.469
 7693TIP3    H123022   4.889   4.056   2.427
 7693TIP3    H223023   4.816   4.023   2.556
 7694TIP3   OH223024   1.759   3.509   1.549
 7694TIP3    H123025   1.733   3.533   1.638
 7694TIP3    H223026   1.678   3.481   1.507
 7695TIP3   OH223027   5.502   7.321   5.259
 7695TIP3    H123028   5.484   7.285   5.172
 7695TIP3    H223029   5.440   7.277   5.317
 7696TIP3   OH223030   8.085   6.263   1.784
 7696TIP3    H123031   8.114   6.243   1.873
 7696TIP3    H223032   8.054   6.353   1.788
 7697TIP3   OH223033   6.818   3.921   6.357
 7697TIP3    H123034   6.894   3.927   6.414
 7697TIP3    H223035   6.753   3.873   6.408
 7698TIP3   OH223036   5.322   0.036   4.574
 7698TIP3    H123037   5.309   0.130   4.567
 7698TIP3    H223038   5.343   0.008   4.484
 7699TIP3   OH223039   7.057   6.198   5.865
 7699TIP3    H123040   7.058   6.267   5.798
 7699TIP3    H223041   7.137   6.148   5.851
 7700TIP3   OH223042   7.989   3.441   4.143
 7700TIP3    H123043   7.939   3.412   4.067
 7700TIP3    H223044   8.078   3.410   4.126
 7701TIP3   OH223045   3.624   3.177   1.416
 7701TIP3    H123046   3.689   3.159   1.483
 7701TIP3    H223047   3.540   3.160   1.458
 7702TIP3   OH223048   1.217   4.702   3.388
 7702TIP3    H123049   1.214   4.621   3.439
 7702TIP3    H223050   1.161   4.763   3.436
 7703TIP3   OH223051   0.107   0.704   0.080
 7703TIP3    H123052   0.179   0.744   0.032
 7703TIP3    H223053   0.030   0.754   0.052
 7704TIP3   OH223054   5.015   3.264   0.825
 7704TIP3    H123055   5.087   3.326   0.813
 7704TIP3    H223056   4.948   3.294   0.763
 7705TIP3   OH223057   6.905   3.647   4.023
 7705TIP3    H123058   6.909   3.576   4.087
 7705TIP3    H223059   6.980   3.702   4.042
 7706TIP3   OH223060   0.199   3.915   3.475
 7706TIP3    H123061   0.190   3.855   3.548
 7706TIP3    H223062   0.280   3.888   3.431
 7707TIP3   OH223063   2.873   4.734   1.900
 7707TIP3    H123064   2.925   4.814   1.905
 7707TIP3    H223065   2.849   4.727   1.808
 7708TIP3   OH223066   0.480   3.465   0.151
 7708TIP3    H123067   0.430   3.538   0.189
 7708TIP3    H223068   0.451   3.388   0.200
 7709TIP3   OH223069   4.312   6.359   3.083
 7709TIP3    H123070   4.227   6.403   3.088
 7709TIP3    H223071   4.296   6.284   3.025
 7710TIP3   OH223072   3.485   0.736   4.630
 7710TIP3    H123073   3.513   0.696   4.713
 7710TIP3    H223074   3.449   0.821   4.657
 7711TIP3   OH223075   8.203   6.185   2.019
 7711TIP3    H123076   8.254   6.114   2.059
 7711TIP3    H223077   8.264   6.257   2.011
 7712TIP3   OH223078   3.783   6.750   1.159
 7712TIP3    H123079   3.722   6.768   1.089
 7712TIP3    H223080   3.740   6.682   1.212
 7713TIP3   OH223081   3.908   6.585   3.806
 7713TIP3    H123082   3.997   6.553   3.797
 7713TIP3    H223083   3.884   6.565   3.896
 7714TIP3   OH223084   4.945   6.475   0.022
 7714TIP3    H123085   4.866   6.497   0.071
 7714TIP3    H223086   4.966   6.556  -0.026
 7715TIP3   OH223087   7.092   6.635   4.678
 7715TIP3    H123088   7.062   6.720   4.710
 7715TIP3    H223089   7.102   6.582   4.756
 7716TIP3   OH223090   0.685   2.063   0.308
 7716TIP3    H123091   0.677   2.138   0.366
 7716TIP3    H223092   0.677   2.099   0.220
 7717TIP3   OH223093   7.819   0.098   2.508
 7717TIP3    H123094   7.786   0.008   2.515
 7717TIP3    H223095   7.741   0.152   2.516
 7718TIP3   OH223096   7.843   4.881   0.247
 7718TIP3    H123097   7.837   4.818   0.319
 7718TIP3    H223098   7.894   4.954   0.285
 7719TIP3   OH223099   3.423   7.745   1.134
 7719TIP3    H123100   3.431   7.662   1.181
 7719TIP3    H223101   3.343   7.784   1.167
 7720TIP3   OH223102   7.824   3.795   0.361
 7720TIP3    H123103   7.898   3.777   0.304
 7720TIP3    H223104   7.806   3.889   0.349
 7721TIP3   OH223105   3.180   5.685   1.089
 7721TIP3    H123106   3.193   5.701   0.996
 7721TIP3    H223107   3.234   5.608   1.108
 7722TIP3   OH223108   6.911   6.478   0.426
 7722TIP3    H123109   6.817   6.469   0.438
 7722TIP3    H223110   6.949   6.421   0.493
 7723TIP3   OH223111   0.537   4.422   2.809
 7723TIP3    H123112   0.625   4.385   2.797
 7723TIP3    H223113   0.478   4.346   2.805
 7724TIP3   OH223114   3.923   2.515   4.358
 7724TIP3    H123115   3.872   2.437   4.380
 7724TIP3    H223116   3.950   2.501   4.267
 7725TIP3   OH223117   2.188   6.275   0.275
 7725TIP3    H123118   2.196   6.282   0.371
 7725TIP3    H223119   2.139   6.194   0.262
 7726TIP3   OH223120   0.126   2.813   3.509
 7726TIP3    H123121   0.215   2.823   3.474
 7726TIP3    H223122   0.108   2.720   3.502
 7727TIP3   OH223123   4.983   1.753   4.176
 7727TIP3    H123124   5.056   1.714   4.224
 7727TIP3    H223125   4.968   1.694   4.102
 7728TIP3   OH223126   6.226   7.736   0.951
 7728TIP3    H123127   6.147   7.684   0.936
 7728TIP3    H223128   6.298   7.676   0.933
 7729TIP3   OH223129   0.003   6.793   0.806
 7729TIP3    H123130   0.009   6.844   0.887
 7729TIP3    H223131   0.085   6.811   0.760
 7730TIP3   OH223132   7.163   1.194   2.449
 7730TIP3    H123133   7.173   1.272   2.394
 7730TIP3    H223134   7.207   1.125   2.401
 7731TIP3   OH223135   0.547   5.484   1.798
 7731TIP3    H123136   0.580   5.419   1.859
 7731TIP3    H223137   0.530   5.435   1.717
 7732TIP3   OH223138   0.915   4.554   2.461
 7732TIP3    H123139   0.933   4.460   2.465
 7732TIP3    H223140   0.899   4.579   2.552
 7733TIP3   OH223141   2.782   2.759   3.902
 7733TIP3    H123142   2.840   2.784   3.974
 7733TIP3    H223143   2.784   2.834   3.843
 7734TIP3   OH223144   6.135   4.875   3.825
 7734TIP3    H123145   6.218   4.827   3.816
 7734TIP3    H223146   6.076   4.833   3.762
 7735TIP3   OH223147   7.945   4.026   5.086
 7735TIP3    H123148   7.858   4.065   5.087
 7735TIP3    H223149   7.997   4.082   5.028
 7736TIP3   OH223150   7.567   0.707   2.492
 7736TIP3    H123151   7.561   0.659   2.409
 7736TIP3    H223152   7.548   0.642   2.559
 7737TIP3   OH223153   5.932   1.115   4.798
 7737TIP3    H123154   5.996   1.091   4.731
 7737TIP3    H223155   5.906   1.204   4.775
 7738TIP3   OH223156   7.497   6.724   4.522
 7738TIP3    H123157   7.499   6.783   4.597
 7738TIP3    H223158   7.576   6.745   4.473
 7739TIP3   OH223159   2.361   4.089   0.074
 7739TIP3    H123160   2.421   4.120   0.007
 7739TIP3    H223161   2.296   4.038   0.027
 7740TIP3   OH223162   2.283   4.705   0.128
 7740TIP3    H123163   2.315   4.787   0.092
 7740TIP3    H223164   2.358   4.669   0.176
 7741TIP3   OH223165   6.094   3.848   1.880
 7741TIP3    H123166   6.070   3.755   1.880
 7741TIP3    H223167   6.173   3.852   1.825
 7742TIP3   OH223168   1.287   2.674   3.228
 7742TIP3    H123169   1.266   2.627   3.147
 7742TIP3    H223170   1.320   2.759   3.197
 7743TIP3   OH223171   2.570   7.816   4.297
 7743TIP3    H123172   2.660   7.843   4.312
 7743TIP3    H223173   2.576   7.743   4.235
 7744TIP3   OH223174   1.083   5.407   1.481
 7744TIP3    H123175   1.017   5.344   1.450
 7744TIP3    H223176   1.092   5.469   1.409
 7745TIP3   OH223177   3.700   2.032   2.746
 7745TIP3    H123178   3.651   2.113   2.727
 7745TIP3    H223179   3.759   2.022   2.671
 7746TIP3   OH223180   0.533   7.488   2.964
 7746TIP3    H123181   0.458   7.502   2.907
 7746TIP3    H223182   0.495   7.457   3.046
 7747TIP3   OH223183   0.664   6.770   2.112
 7747TIP3    H123184   0.746   6.819   2.109
 7747TIP3    H223185   0.608   6.812   2.048
 7748TIP3   OH223186   2.483   0.416   6.042
 7748TIP3    H123187   2.488   0.380   6.131
 7748TIP3    H223188   2.506   0.508   6.052
 7749TIP3   OH223189   3.116   6.380   4.737
 7749TIP3    H123190   3.105   6.476   4.738
 7749TIP3    H223191   3.118   6.356   4.830
 7750TIP3   OH223192   0.470   3.479   1.442
 7750TIP3    H123193   0.402   3.453   1.503
 7750TIP3    H223194   0.512   3.555   1.483
 7751TIP3   OH223195   5.678   7.566   1.278
 7751TIP3    H123196   5.695   7.632   1.211
 7751TIP3    H223197   5.751   7.574   1.339
 7752TIP3   OH223198   0.430   0.240   6.729
 7752TIP3    H123199   0.476   0.317   6.693
 7752TIP3    H223200   0.353   0.230   6.674
 7753TIP3   OH223201   6.333   2.970   3.624
 7753TIP3    H123202   6.287   2.940   3.545
 7753TIP3    H223203   6.424   2.943   3.610
 7754TIP3   OH223204   5.332   1.953   4.527
 7754TIP3    H123205   5.366   1.884   4.470
 7754TIP3    H223206   5.242   1.926   4.546
 7755TIP3   OH223207   5.188   3.828   3.592
 7755TIP3    H123208   5.261   3.823   3.530
 7755TIP3    H223209   5.119   3.872   3.542
 7756TIP3   OH223210   3.771   4.612   1.828
 7756TIP3    H123211   3.800   4.678   1.766
 7756TIP3    H223212   3.845   4.551   1.833
 7757TIP3   OH223213   5.198   1.322   4.061
 7757TIP3    H123214   5.245   1.398   4.026
 7757TIP3    H223215   5.115   1.358   4.094
 7758TIP3   OH223216   4.314   2.838   3.173
 7758TIP3    H123217   4.262   2.806   3.099
 7758TIP3    H223218   4.363   2.761   3.202
 7759TIP3   OH223219   8.086   1.666   6.674
 7759TIP3    H123220   8.105   1.576   6.703
 7759TIP3    H223221   8.001   1.659   6.631
 7760TIP3   OH223222   3.150   6.427   2.637
 7760TIP3    H123223   3.127   6.425   2.544
 7760TIP3    H223224   3.067   6.411   2.682
 7761TIP3   OH223225   3.452   1.691   1.294
 7761TIP3    H123226   3.495   1.635   1.230
 7761TIP3    H223227   3.463   1.646   1.378
 7762TIP3   OH223228   3.927   6.971   5.241
 7762TIP3    H123229   3.840   7.010   5.245
 7762TIP3    H223230   3.959   6.974   5.332
 7763TIP3   OH223231   1.602   6.891   5.752
 7763TIP3    H123232   1.598   6.947   5.675
 7763TIP3    H223233   1.592   6.950   5.826
 7764TIP3   OH223234  -0.002   0.411   5.146
 7764TIP3    H123235  -0.018   0.436   5.055
 7764TIP3    H223236   0.003   0.493   5.193
 7765TIP3   OH223237   4.031   7.018   4.989
 7765TIP3    H123238   4.026   6.937   4.938
 7765TIP3    H223239   3.971   7.004   5.062
 7766TIP3   OH223240   0.678   7.499   6.607
 7766TIP3    H123241   0.757   7.549   6.626
 7766TIP3    H223242   0.607   7.563   6.617
 7767TIP3   OH223243   4.605   5.617   1.313
 7767TIP3    H123244   4.670   5.555   1.346
 7767TIP3    H223245   4.520   5.579   1.338
 7768TIP3   OH223246   5.777   2.355   1.100
 7768TIP3    H123247   5.762   2.273   1.053
 7768TIP3    H223248   5.865   2.382   1.073
 7769TIP3   OH223249   1.876   2.980   4.555
 7769TIP3    H123250   1.971   2.987   4.558
 7769TIP3    H223251   1.859   2.886   4.541
 7770TIP3   OH223252   6.044   0.863   0.200
 7770TIP3    H123253   6.079   0.910   0.276
 7770TIP3    H223254   6.064   0.771   0.218
 7771TIP3   OH223255   4.344   0.433   4.451
 7771TIP3    H123256   4.294   0.352   4.467
 7771TIP3    H223257   4.313   0.464   4.366
 7772TIP3   OH223258   1.470   5.665   2.825
 7772TIP3    H123259   1.485   5.668   2.731
 7772TIP3    H223260   1.503   5.580   2.853
 7773TIP3   OH223261   6.602   2.157   4.506
 7773TIP3    H123262   6.512   2.129   4.523
 7773TIP3    H223263   6.597   2.197   4.419
 7774TIP3   OH223264   4.884   7.116   3.508
 7774TIP3    H123265   4.832   7.036   3.518
 7774TIP3    H223266   4.821   7.187   3.519
 7775TIP3   OH223267   6.074   2.637   3.515
 7775TIP3    H123268   6.071   2.733   3.514
 7775TIP3    H223269   6.167   2.616   3.523
 7776TIP3   OH223270   0.607   3.271   0.478
 7776TIP3    H123271   0.656   3.346   0.511
 7776TIP3    H223272   0.635   3.197   0.532
 7777TIP3   OH223273   5.245   2.319   3.497
 7777TIP3    H123274   5.315   2.380   3.522
 7777TIP3    H223275   5.196   2.305   3.578
 7778TIP3   OH223276   1.548   7.344   4.700
 7778TIP3    H123277   1.499   7.423   4.677
 7778TIP3    H223278   1.593   7.321   4.619
 7779TIP3   OH223279   5.410   0.796   2.255
 7779TIP3    H123280   5.420   0.738   2.330
 7779TIP3    H223281   5.491   0.847   2.253
 7780TIP3   OH223282   0.786   3.377   1.884
 7780TIP3    H123283   0.751   3.293   1.913
 7780TIP3    H223284   0.841   3.356   1.809
 7781TIP3   OH223285   7.376   5.878   4.132
 7781TIP3    H123286   7.291   5.885   4.175
 7781TIP3    H223287   7.361   5.820   4.058
 7782TIP3   OH223288   1.110   6.851   0.692
 7782TIP3    H123289   1.047   6.847   0.764
 7782TIP3    H223290   1.191   6.881   0.733
 7783TIP3   OH223291   0.084   2.020   1.965
 7783TIP3    H123292   0.162   2.070   1.988
 7783TIP3    H223293   0.042   2.000   2.049
 7784TIP3   OH223294   1.984   4.519   1.621
 7784TIP3    H123295   1.962   4.546   1.710
 7784TIP3    H223296   2.018   4.430   1.631
 7785TIP3   OH223297   6.598   3.942   2.198
 7785TIP3    H123298   6.579   3.890   2.120
 7785TIP3    H223299   6.632   3.879   2.261
 7786TIP3   OH223300   3.928   2.744   4.098
 7786TIP3    H123301   3.915   2.821   4.043
 7786TIP3    H223302   3.947   2.673   4.037
 7787TIP3   OH223303   8.184   1.883   1.778
 7787TIP3    H123304   8.101   1.917   1.811
 7787TIP3    H223305   8.251   1.937   1.820
 7788TIP3   OH223306   4.436   2.768   2.798
 7788TIP3    H123307   4.434   2.809   2.884
 7788TIP3    H223308   4.514   2.803   2.756
 7789TIP3   OH223309   3.438   3.822   5.888
 7789TIP3    H123310   3.408   3.913   5.888
 7789TIP3    H223311   3.506   3.819   5.820
 7790TIP3   OH223312   0.141   5.566   3.196
 7790TIP3    H123313   0.160   5.537   3.286
 7790TIP3    H223314   0.048   5.588   3.198
 7791TIP3   OH223315   1.935   5.684   2.760
 7791TIP3    H123316   1.912   5.597   2.725
 7791TIP3    H223317   2.026   5.698   2.732
 7792TIP3   OH223318   3.059   3.459   2.217
 7792TIP3    H123319   2.976   3.421   2.243
 7792TIP3    H223320   3.043   3.497   2.130
 7793TIP3   OH223321   2.337   7.466   0.967
 7793TIP3    H123322   2.376   7.392   1.014
 7793TIP3    H223323   2.245   7.463   0.991
 7794TIP3   OH223324   7.751   5.628   0.438
 7794TIP3    H123325   7.817   5.577   0.391
 7794TIP3    H223326   7.766   5.607   0.530
 7795TIP3   OH223327   0.556   3.674   6.132
 7795TIP3    H123328   0.465   3.647   6.118
 7795TIP3    H223329   0.551   3.769   6.143
 7796TIP3   OH223330   0.392   4.546   6.625
 7796TIP3    H123331   0.414   4.465   6.671
 7796TIP3    H223332   0.335   4.520   6.554
 7797TIP3   OH223333   6.335   3.746   1.787
 7797TIP3    H123334   6.336   3.670   1.729
 7797TIP3    H223335   6.344   3.708   1.875
 7798TIP3   OH223336   0.154   7.022   0.870
 7798TIP3    H123337   0.154   7.103   0.819
 7798TIP3    H223338   0.174   7.049   0.959
 7799TIP3   OH223339   0.408   1.593   3.823
 7799TIP3    H123340   0.336   1.627   3.770
 7799TIP3    H223341   0.474   1.566   3.759
 7800TIP3   OH223342   3.004   1.966   6.166
 7800TIP3    H123343   2.921   2.011   6.150
 7800TIP3    H223344   2.994   1.925   6.252
 7801TIP3   OH223345   5.389   7.310   2.163
 7801TIP3    H123346   5.316   7.358   2.124
 7801TIP3    H223347   5.466   7.365   2.148
 7802TIP3   OH223348   3.036   4.969   4.495
 7802TIP3    H123349   2.987   5.033   4.444
 7802TIP3    H223350   2.970   4.910   4.530
 7803TIP3   OH223351   4.224  -0.020   0.869
 7803TIP3    H123352   4.308   0.018   0.840
 7803TIP3    H223353   4.227  -0.015   0.964
 7804TIP3   OH223354   8.187   2.993   4.009
 7804TIP3    H123355   8.206   2.906   3.975
 7804TIP3    H223356   8.176   3.048   3.931
 7805TIP3   OH223357   3.242   3.596   6.433
 7805TIP3    H123358   3.215   3.572   6.521
 7805TIP3    H223359   3.276   3.685   6.442
 7806TIP3   OH223360   0.283   2.896   0.973
 7806TIP3    H123361   0.347   2.847   1.025
 7806TIP3    H223362   0.287   2.855   0.886
 7807TIP3   OH223363   4.181   6.510   3.497
 7807TIP3    H123364   4.172   6.554   3.582
 7807TIP3    H223365   4.197   6.580   3.435
 7808TIP3   OH223366   4.097   3.485   2.262
 7808TIP3    H123367   4.082   3.573   2.298
 7808TIP3    H223368   4.031   3.430   2.304
 7809TIP3   OH223369   5.163   5.191   5.516
 7809TIP3    H123370   5.091   5.242   5.553
 7809TIP3    H223371   5.216   5.164   5.591
 7810TIP3   OH223372   0.542   0.955   0.446
 7810TIP3    H123373   0.494   0.877   0.420
 7810TIP3    H223374   0.597   0.926   0.519
 7811TIP3   OH223375   5.992   1.669   4.443
 7811TIP3    H123376   6.045   1.590   4.451
 7811TIP3    H223377   5.923   1.659   4.508
 7812TIP3   OH223378   3.625   6.380   1.128
 7812TIP3    H123379   3.691   6.311   1.119
 7812TIP3    H223380   3.673   6.454   1.165
 7813TIP3   OH223381   1.020   7.371   2.953
 7813TIP3    H123382   1.030   7.276   2.955
 7813TIP3    H223383   1.105   7.404   2.924
 7814TIP3   OH223384   0.199   1.934   3.148
 7814TIP3    H123385   0.165   1.870   3.211
 7814TIP3    H223386   0.269   1.887   3.102
 7815TIP3   OH223387   0.432   7.651   5.057
 7815TIP3    H123388   0.407   7.743   5.069
 7815TIP3    H223389   0.399   7.607   5.135
 7816TIP3   OH223390   1.025   6.010   1.450
 7816TIP3    H123391   1.001   6.103   1.450
 7816TIP3    H223392   0.957   5.968   1.398
 7817TIP3   OH223393   4.670   0.852   3.234
 7817TIP3    H123394   4.620   0.914   3.180
 7817TIP3    H223395   4.604   0.806   3.285
 7818TIP3   OH223396   8.214   6.600   0.059
 7818TIP3    H123397   8.164   6.533   0.106
 7818TIP3    H223398   8.171   6.682   0.081
 7819TIP3   OH223399   3.487   2.100   1.162
 7819TIP3    H123400   3.529   2.108   1.076
 7819TIP3    H223401   3.406   2.151   1.154
 7820TIP3   OH223402   1.819   0.961   4.282
 7820TIP3    H123403   1.852   1.040   4.239
 7820TIP3    H223404   1.747   0.932   4.226
 7821TIP3   OH223405   4.717   7.533   2.967
 7821TIP3    H123406   4.727   7.623   2.935
 7821TIP3    H223407   4.802   7.492   2.950
 7822TIP3   OH223408   6.244   4.416   3.768
 7822TIP3    H123409   6.276   4.463   3.691
 7822TIP3    H223410   6.149   4.426   3.765
 7823TIP3   OH223411   4.771   6.775   2.202
 7823TIP3    H123412   4.757   6.750   2.111
 7823TIP3    H223413   4.797   6.694   2.246
 7824TIP3   OH223414   1.204   3.537   5.797
 7824TIP3    H123415   1.263   3.461   5.795
 7824TIP3    H223416   1.180   3.545   5.889
 7825TIP3   OH223417   4.531   2.808   4.478
 7825TIP3    H123418   4.480   2.767   4.409
 7825TIP3    H223419   4.492   2.776   4.560
 7826TIP3   OH223420   6.014   2.042   4.961
 7826TIP3    H123421   5.963   2.114   4.999
 7826TIP3    H223422   6.069   2.011   5.033
 7827TIP3   OH223423   8.212   4.900   0.222
 7827TIP3    H123424   8.226   4.873   0.313
 7827TIP3    H223425   8.298   4.895   0.181
 7828TIP3   OH223426   1.511   1.105   5.601
 7828TIP3    H123427   1.540   1.026   5.646
 7828TIP3    H223428   1.517   1.083   5.508
 7829TIP3   OH223429   5.616   5.005   0.358
 7829TIP3    H123430   5.611   5.099   0.370
 7829TIP3    H223431   5.656   4.972   0.439
 7830TIP3   OH223432   0.461   7.674   6.686
 7830TIP3    H123433   0.380   7.644   6.644
 7830TIP3    H223434   0.434   7.697   6.775
 7831TIP3   OH223435   4.250   4.215   0.636
 7831TIP3    H123436   4.271   4.231   0.543
 7831TIP3    H223437   4.210   4.128   0.636
 7832TIP3   OH223438   6.601   6.200   3.373
 7832TIP3    H123439   6.677   6.156   3.410
 7832TIP3    H223440   6.606   6.183   3.279
 7833TIP3   OH223441   6.689   1.381   3.959
 7833TIP3    H123442   6.725   1.343   3.879
 7833TIP3    H223443   6.644   1.308   4.002
 7834TIP3   OH223444   3.540   7.491   1.253
 7834TIP3    H123445   3.625   7.447   1.252
 7834TIP3    H223446   3.478   7.421   1.232
 7835TIP3   OH223447   1.042   0.076   0.817
 7835TIP3    H123448   1.017   0.005   0.758
 7835TIP3    H223449   1.126   0.106   0.784
 7836TIP3   OH223450   4.570   2.928   0.922
 7836TIP3    H123451   4.641   2.957   0.865
 7836TIP3    H223452   4.495   2.919   0.864
 7837TIP3   OH223453   3.032   7.834   1.496
 7837TIP3    H123454   2.993   7.829   1.583
 7837TIP3    H223455   3.050   7.743   1.472
 7838TIP3   OH223456   2.450   2.249   5.150
 7838TIP3    H123457   2.367   2.208   5.126
 7838TIP3    H223458   2.450   2.249   5.246
 7839TIP3   OH223459   2.659   5.506   1.449
 7839TIP3    H123460   2.579   5.552   1.425
 7839TIP3    H223461   2.633   5.449   1.522
 7840TIP3   OH223462   6.735   0.640   1.923
 7840TIP3    H123463   6.686   0.560   1.905
 7840TIP3    H223464   6.820   0.609   1.954
 7841TIP3   OH223465   1.935   2.169   5.921
 7841TIP3    H123466   1.842   2.177   5.942
 7841TIP3    H223467   1.972   2.121   5.996
 7842TIP3   OH223468   6.174   6.966   3.601
 7842TIP3    H123469   6.239   6.980   3.532
 7842TIP3    H223470   6.100   6.925   3.556
 7843TIP3   OH223471   6.397   3.793   4.085
 7843TIP3    H123472   6.360   3.705   4.087
 7843TIP3    H223473   6.336   3.843   4.030
 7844TIP3   OH223474   2.896   0.124   3.450
 7844TIP3    H123475   2.943   0.055   3.402
 7844TIP3    H223476   2.847   0.170   3.383
 7845TIP3   OH223477   5.609   6.849   4.337
 7845TIP3    H123478   5.671   6.904   4.288
 7845TIP3    H223479   5.537   6.908   4.358
 7846TIP3   OH223480   4.055   4.415   1.023
 7846TIP3    H123481   4.131   4.380   0.976
 7846TIP3    H223482   4.074   4.508   1.034
 7847TIP3   OH223483   7.664   0.470   5.900
 7847TIP3    H123484   7.599   0.540   5.902
 7847TIP3    H223485   7.614   0.390   5.889
 7848TIP3   OH223486   3.986   5.895   0.177
 7848TIP3    H123487   3.994   5.990   0.169
 7848TIP3    H223488   4.041   5.872   0.252
 7849TIP3   OH223489   7.668   5.325   2.962
 7849TIP3    H123490   7.674   5.383   3.037
 7849TIP3    H223491   7.745   5.346   2.909
 7850TIP3   OH223492   3.585   2.251   4.584
 7850TIP3    H123493   3.597   2.203   4.666
 7850TIP3    H223494   3.495   2.232   4.559
 7851TIP3   OH223495   6.261   2.140   3.699
 7851TIP3    H123496   6.174   2.136   3.740
 7851TIP3    H223497   6.242   2.157   3.606
 7852TIP3   OH223498   2.952   5.834   2.051
 7852TIP3    H123499   2.994   5.918   2.040
 7852TIP3    H223500   2.867   5.843   2.008
 7853TIP3   OH223501   7.469   0.297   0.505
 7853TIP3    H123502   7.534   0.362   0.480
 7853TIP3    H223503   7.387   0.347   0.513
 7854TIP3   OH223504   7.533   5.472   3.459
 7854TIP3    H123505   7.602   5.437   3.516
 7854TIP3    H223506   7.463   5.407   3.463
 7855TIP3   OH223507   0.642   6.772   5.616
 7855TIP3    H123508   0.668   6.742   5.529
 7855TIP3    H223509   0.694   6.719   5.677
 7856TIP3   OH223510   1.864   1.731   0.200
 7856TIP3    H123511   1.792   1.669   0.194
 7856TIP3    H223512   1.822   1.817   0.197
 7857TIP3   OH223513   3.727   3.472   4.755
 7857TIP3    H123514   3.675   3.552   4.760
 7857TIP3    H223515   3.719   3.433   4.842
 7858TIP3   OH223516   4.481   1.176   5.945
 7858TIP3    H123517   4.460   1.221   5.863
 7858TIP3    H223518   4.474   1.083   5.924
 7859TIP3   OH223519   2.102   4.948   1.477
 7859TIP3    H123520   2.014   4.946   1.514
 7859TIP3    H223521   2.138   4.861   1.494
 7860TIP3   OH223522   5.597   4.806   6.519
 7860TIP3    H123523   5.641   4.878   6.474
 7860TIP3    H223524   5.618   4.819   6.611
 7861TIP3   OH223525   3.429   0.676   3.034
 7861TIP3    H123526   3.387   0.641   3.113
 7861TIP3    H223527   3.375   0.751   3.009
 7862TIP3   OH223528   3.693   0.710   0.024
 7862TIP3    H123529   3.695   0.763   0.104
 7862TIP3    H223530   3.741   0.763  -0.041
 7863TIP3   OH223531   1.114   4.561   0.065
 7863TIP3    H123532   1.094   4.592   0.153
 7863TIP3    H223533   1.209   4.568   0.058
 7864TIP3   OH223534   7.020   6.405   1.351
 7864TIP3    H123535   7.096   6.395   1.410
 7864TIP3    H223536   6.986   6.492   1.371
 7865TIP3   OH223537   6.274   2.734   1.552
 7865TIP3    H123538   6.369   2.729   1.558
 7865TIP3    H223539   6.258   2.762   1.462
 7866TIP3   OH223540   5.961   5.967   6.591
 7866TIP3    H123541   5.896   5.949   6.523
 7866TIP3    H223542   5.914   6.018   6.657
 7867TIP3   OH223543   3.526   1.539   1.752
 7867TIP3    H123544   3.556   1.629   1.759
 7867TIP3    H223545   3.431   1.545   1.748
 7868TIP3   OH223546   3.699   4.100   5.386
 7868TIP3    H123547   3.785   4.105   5.428
 7868TIP3    H223548   3.705   4.159   5.311
 7869TIP3   OH223549   1.565   1.755   2.030
 7869TIP3    H123550   1.632   1.715   1.976
 7869TIP3    H223551   1.517   1.681   2.068
 7870TIP3   OH223552   2.288   7.195   3.787
 7870TIP3    H123553   2.339   7.182   3.867
 7870TIP3    H223554   2.197   7.187   3.815
 7871TIP3   OH223555   2.182   7.439   0.698
 7871TIP3    H123556   2.099   7.396   0.721
 7871TIP3    H223557   2.246   7.401   0.758
 7872TIP3   OH223558   6.042   2.286   2.161
 7872TIP3    H123559   5.951   2.284   2.189
 7872TIP3    H223560   6.038   2.275   2.066
 7873TIP3   OH223561   0.673   4.387   4.130
 7873TIP3    H123562   0.710   4.399   4.218
 7873TIP3    H223563   0.603   4.322   4.143
 7874TIP3   OH223564   7.541   3.608   0.102
 7874TIP3    H123565   7.555   3.575   0.191
 7874TIP3    H223566   7.551   3.703   0.110
 7875TIP3   OH223567   3.479   0.311   1.559
 7875TIP3    H123568   3.561   0.270   1.530
 7875TIP3    H223569   3.412   0.245   1.545
 7876TIP3   OH223570   1.056   3.383   0.065
 7876TIP3    H123571   1.089   3.468   0.093
 7876TIP3    H223572   1.053   3.331   0.145
 7877TIP3   OH223573   4.811   6.249   1.895
 7877TIP3    H123574   4.862   6.278   1.971
 7877TIP3    H223575   4.726   6.224   1.931
 7878TIP3   OH223576   1.895   7.401   4.011
 7878TIP3    H123577   1.830   7.436   3.950
 7878TIP3    H223578   1.854   7.406   4.097
 7879TIP3   OH223579   1.444   3.830   0.170
 7879TIP3    H123580   1.510   3.899   0.161
 7879TIP3    H223581   1.361   3.874   0.152
 7880TIP3   OH223582   5.883   0.444   2.855
 7880TIP3    H123583   5.858   0.521   2.803
 7880TIP3    H223584   5.866   0.370   2.797
 7881TIP3   OH223585   3.589   2.781   5.178
 7881TIP3    H123586   3.647   2.714   5.214
 7881TIP3    H223587   3.526   2.732   5.124
 7882TIP3   OH223588   6.985   2.295   3.345
 7882TIP3    H123589   6.906   2.329   3.304
 7882TIP3    H223590   7.055   2.320   3.285
 7883TIP3   OH223591   5.323   4.160   3.578
 7883TIP3    H123592   5.376   4.171   3.657
 7883TIP3    H223593   5.386   4.162   3.506
 7884TIP3   OH223594   8.269   5.241   0.727
 7884TIP3    H123595   8.213   5.289   0.665
 7884TIP3    H223596   8.269   5.296   0.806
 7885TIP3   OH223597   5.353   3.876   2.701
 7885TIP3    H123598   5.369   3.849   2.611
 7885TIP3    H223599   5.393   3.963   2.708
 7886TIP3   OH223600   4.921   1.955   4.892
 7886TIP3    H123601   4.897   1.870   4.927
 7886TIP3    H223602   4.838   1.999   4.873
 7887TIP3   OH223603   6.328   7.765   2.060
 7887TIP3    H123604   6.309   7.678   2.027
 7887TIP3    H223605   6.423   7.772   2.058
 7888TIP3   OH223606   1.896   3.929   1.418
 7888TIP3    H123607   1.883   3.873   1.495
 7888TIP3    H223608   1.808   3.948   1.386
 7889TIP3   OH223609   1.295   6.485   5.041
 7889TIP3    H123610   1.349   6.493   4.962
 7889TIP3    H223611   1.241   6.565   5.041
 7890TIP3   OH223612   5.550   7.402   4.367
 7890TIP3    H123613   5.606   7.371   4.296
 7890TIP3    H223614   5.602   7.387   4.447
 7891TIP3   OH223615   4.738   4.122   4.646
 7891TIP3    H123616   4.710   4.030   4.649
 7891TIP3    H223617   4.684   4.161   4.577
 7892TIP3   OH223618   4.510   2.945   3.557
 7892TIP3    H123619   4.451   2.881   3.597
 7892TIP3    H223620   4.462   3.028   3.561
 7893TIP3   OH223621   3.778   4.616   4.046
 7893TIP3    H123622   3.777   4.553   3.974
 7893TIP3    H223623   3.821   4.693   4.010
 7894TIP3   OH223624   5.673   0.624   2.384
 7894TIP3    H123625   5.597   0.589   2.337
 7894TIP3    H223626   5.635   0.686   2.447
 7895TIP3   OH223627   4.068   7.634   1.534
 7895TIP3    H123628   4.146   7.594   1.496
 7895TIP3    H223629   4.006   7.641   1.462
 7896TIP3   OH223630   5.555   6.899   6.244
 7896TIP3    H123631   5.575   6.823   6.190
 7896TIP3    H223632   5.460   6.896   6.256
 7897TIP3   OH223633   6.062   2.442   0.155
 7897TIP3    H123634   6.051   2.434   0.249
 7897TIP3    H223635   6.099   2.529   0.142
 7898TIP3   OH223636   2.624   5.453   5.969
 7898TIP3    H123637   2.667   5.518   5.913
 7898TIP3    H223638   2.543   5.495   5.998
 7899TIP3   OH223639   0.218   2.598   2.084
 7899TIP3    H123640   0.244   2.623   1.995
 7899TIP3    H223641   0.153   2.664   2.109
 7900TIP3   OH223642  -0.035   4.734   0.432
 7900TIP3    H123643   0.002   4.729   0.520
 7900TIP3    H223644  -0.034   4.644   0.400
 7901TIP3   OH223645   2.637   6.454   3.873
 7901TIP3    H123646   2.672   6.500   3.797
 7901TIP3    H223647   2.702   6.386   3.892
 7902TIP3   OH223648   0.136   5.150   0.339
 7902TIP3    H123649   0.173   5.072   0.297
 7902TIP3    H223650   0.163   5.144   0.430
 7903TIP3   OH223651   0.467   2.159   4.510
 7903TIP3    H123652   0.552   2.157   4.555
 7903TIP3    H223653   0.441   2.252   4.512
 7904TIP3   OH223654   7.575   7.059   1.565
 7904TIP3    H123655   7.669   7.060   1.546
 7904TIP3    H223656   7.542   6.983   1.517
 7905TIP3   OH223657   2.478   4.681   6.313
 7905TIP3    H123658   2.504   4.706   6.401
 7905TIP3    H223659   2.401   4.736   6.295
 7906TIP3   OH223660   3.743   7.629   1.093
 7906TIP3    H123661   3.657   7.657   1.125
 7906TIP3    H223662   3.786   7.710   1.065
 7907TIP3   OH223663   5.283   0.642   1.796
 7907TIP3    H123664   5.363   0.650   1.849
 7907TIP3    H223665   5.216   0.689   1.846
 7908TIP3   OH223666   0.681   0.204   5.293
 7908TIP3    H123667   0.601   0.199   5.346
 7908TIP3    H223668   0.748   0.235   5.353
 7909TIP3   OH223669   0.337   1.064   5.554
 7909TIP3    H123670   0.318   0.973   5.576
 7909TIP3    H223671   0.432   1.073   5.568
 7910TIP3   OH223672   1.818   4.745   2.539
 7910TIP3    H123673   1.774   4.725   2.621
 7910TIP3    H223674   1.872   4.668   2.520
 7911TIP3   OH223675   1.629   1.805   3.913
 7911TIP3    H123676   1.705   1.863   3.912
 7911TIP3    H223677   1.616   1.780   3.821
 7912TIP3   OH223678   2.008   4.444   4.774
 7912TIP3    H123679   1.985   4.501   4.701
 7912TIP3    H223680   1.971   4.359   4.751
 7913TIP3   OH223681   1.256   7.715   1.361
 7913TIP3    H123682   1.247   7.733   1.455
 7913TIP3    H223683   1.312   7.637   1.357
 7914TIP3   OH223684   4.258   2.945   4.945
 7914TIP3    H123685   4.289   2.868   4.992
 7914TIP3    H223686   4.164   2.933   4.937
 7915TIP3   OH223687   7.197   5.457   5.428
 7915TIP3    H123688   7.197   5.437   5.334
 7915TIP3    H223689   7.178   5.374   5.471
 7916TIP3   OH223690   3.547   5.649   3.776
 7916TIP3    H123691   3.477   5.604   3.823
 7916TIP3    H223692   3.509   5.734   3.751
 7917TIP3   OH223693   7.034   1.826   2.152
 7917TIP3    H123694   7.086   1.867   2.221
 7917TIP3    H223695   6.979   1.763   2.198
 7918TIP3   OH223696   7.809   5.103   2.607
 7918TIP3    H123697   7.839   5.033   2.666
 7918TIP3    H223698   7.889   5.133   2.564
 7919TIP3   OH223699   5.940   1.194   0.213
 7919TIP3    H123700   6.022   1.181   0.165
 7919TIP3    H223701   5.923   1.110   0.254
 7920TIP3   OH223702   4.814   5.276   5.896
 7920TIP3    H123703   4.752   5.209   5.868
 7920TIP3    H223704   4.763   5.356   5.900
 7921TIP3   OH223705   1.921   6.247   1.292
 7921TIP3    H123706   1.895   6.274   1.380
 7921TIP3    H223707   1.843   6.260   1.238
 7922TIP3   OH223708   8.084   7.742   5.961
 7922TIP3    H123709   8.087   7.820   6.016
 7922TIP3    H223710   8.132   7.767   5.881
 7923TIP3   OH223711   0.327   4.646   1.831
 7923TIP3    H123712   0.277   4.624   1.909
 7923TIP3    H223713   0.261   4.677   1.768
 7924TIP3   OH223714   3.122   7.211   2.966
 7924TIP3    H123715   3.204   7.182   3.006
 7924TIP3    H223716   3.055   7.189   3.030
 7925TIP3   OH223717   5.870   0.402   0.759
 7925TIP3    H123718   5.775   0.404   0.751
 7925TIP3    H223719   5.891   0.309   0.771
 7926TIP3   OH223720   6.635   2.641   4.533
 7926TIP3    H123721   6.720   2.604   4.509
 7926TIP3    H223722   6.593   2.574   4.586
 7927TIP3   OH223723   4.202   5.891   5.799
 7927TIP3    H123724   4.218   5.983   5.780
 7927TIP3    H223725   4.113   5.887   5.833
 7928TIP3   OH223726   6.528   5.982   2.841
 7928TIP3    H123727   6.548   5.940   2.758
 7928TIP3    H223728   6.513   6.074   2.818
 7929TIP3   OH223729   3.917   3.043   5.729
 7929TIP3    H123730   3.924   2.967   5.786
 7929TIP3    H223731   3.943   3.117   5.784
 7930TIP3   OH223732   5.413   6.426   2.476
 7930TIP3    H123733   5.492   6.479   2.480
 7930TIP3    H223734   5.380   6.425   2.566
 7931TIP3   OH223735   1.699   3.065   3.747
 7931TIP3    H123736   1.664   3.123   3.814
 7931TIP3    H223737   1.621   3.026   3.707
 7932TIP3   OH223738   7.903   1.966   1.785
 7932TIP3    H123739   7.855   2.036   1.741
 7932TIP3    H223740   7.901   1.893   1.723
 7933TIP3   OH223741   7.513   2.349   6.678
 7933TIP3    H123742   7.430   2.309   6.650
 7933TIP3    H223743   7.567   2.350   6.598
 7934TIP3   OH223744   1.492   1.068   4.057
 7934TIP3    H123745   1.527   0.984   4.086
 7934TIP3    H223746   1.570   1.122   4.042
 7935TIP3   OH223747   4.350   0.591   3.042
 7935TIP3    H123748   4.298   0.527   3.090
 7935TIP3    H223749   4.405   0.632   3.108
 7936TIP3   OH223750   0.169   1.935   0.267
 7936TIP3    H123751   0.094   1.995   0.262
 7936TIP3    H223752   0.133   1.853   0.300
 7937TIP3   OH223753   0.820   5.636   6.612
 7937TIP3    H123754   0.766   5.559   6.596
 7937TIP3    H223755   0.844   5.630   6.704
 7938TIP3   OH223756   2.830   3.079   3.121
 7938TIP3    H123757   2.885   3.103   3.047
 7938TIP3    H223758   2.858   3.136   3.192
 7939TIP3   OH223759   3.131   4.073   5.864
 7939TIP3    H123760   3.141   3.998   5.921
 7939TIP3    H223761   3.132   4.149   5.922
 7940TIP3   OH223762   5.141   2.867   6.537
 7940TIP3    H123763   5.201   2.792   6.542
 7940TIP3    H223764   5.195   2.942   6.561
 7941TIP3   OH223765   5.028   5.016   4.766
 7941TIP3    H123766   4.997   5.031   4.677
 7941TIP3    H223767   5.003   4.925   4.785
 7942TIP3   OH223768   5.825   6.998   2.057
 7942TIP3    H123769   5.775   7.053   1.997
 7942TIP3    H223770   5.825   7.046   2.139
 7943TIP3   OH223771   7.676   5.691   5.251
 7943TIP3    H123772   7.751   5.631   5.249
 7943TIP3    H223773   7.600   5.635   5.235
 7944TIP3   OH223774   6.140   1.529   1.687
 7944TIP3    H123775   6.127   1.623   1.675
 7944TIP3    H223776   6.075   1.504   1.752
 7945TIP3   OH223777   4.063   0.773   1.334
 7945TIP3    H123778   4.039   0.807   1.247
 7945TIP3    H223779   4.077   0.680   1.320
 7946TIP3   OH223780   7.041   4.672   4.065
 7946TIP3    H123781   7.080   4.619   4.134
 7946TIP3    H223782   7.026   4.611   3.993
 7947TIP3   OH223783   3.149   0.690   4.695
 7947TIP3    H123784   3.231   0.643   4.677
 7947TIP3    H223785   3.109   0.642   4.766
 7948TIP3   OH223786   0.979   1.570   3.433
 7948TIP3    H123787   1.036   1.565   3.357
 7948TIP3    H223788   0.895   1.536   3.402
 7949TIP3   OH223789   5.879   2.692   6.015
 7949TIP3    H123790   5.899   2.628   6.084
 7949TIP3    H223791   5.957   2.693   5.960
 7950TIP3   OH223792   3.958   2.072   6.180
 7950TIP3    H123793   4.040   2.115   6.155
 7950TIP3    H223794   3.964   1.984   6.141
 7951TIP3   OH223795   1.549   4.848   1.457
 7951TIP3    H123796   1.485   4.848   1.387
 7951TIP3    H223797   1.501   4.816   1.534
 7952TIP3   OH223798   7.786   7.169   3.330
 7952TIP3    H123799   7.728   7.221   3.386
 7952TIP3    H223800   7.726   7.114   3.279
 7953TIP3   OH223801   0.222   3.562   3.993
 7953TIP3    H123802   0.140   3.608   3.974
 7953TIP3    H223803   0.288   3.631   3.999
 7954TIP3   OH223804   1.532   6.169   2.121
 7954TIP3    H123805   1.540   6.195   2.213
 7954TIP3    H223806   1.616   6.193   2.083
 7955TIP3   OH223807   4.913   0.452   0.509
 7955TIP3    H123808   5.002   0.477   0.536
 7955TIP3    H223809   4.908   0.478   0.417
 7956TIP3   OH223810   1.640   0.970   2.691
 7956TIP3    H123811   1.553   0.939   2.719
 7956TIP3    H223812   1.648   1.056   2.731
 7957TIP3   OH223813   4.080   3.302   3.169
 7957TIP3    H123814   4.125   3.363   3.228
 7957TIP3    H223815   4.092   3.216   3.211
 7958TIP3   OH223816   7.966   6.687   4.177
 7958TIP3    H123817   8.046   6.638   4.196
 7958TIP3    H223818   7.895   6.623   4.186
 7959TIP3   OH223819   2.831   4.788   4.205
 7959TIP3    H123820   2.851   4.868   4.254
 7959TIP3    H223821   2.793   4.729   4.269
 7960TIP3   OH223822   4.338   4.482   2.162
 7960TIP3    H123823   4.278   4.482   2.088
 7960TIP3    H223824   4.422   4.456   2.125
 7961TIP3   OH223825   0.367   4.233   5.499
 7961TIP3    H123826   0.354   4.151   5.450
 7961TIP3    H223827   0.399   4.295   5.434
 7962TIP3   OH223828   8.298   4.914   2.075
 7962TIP3    H123829   8.365   4.976   2.046
 7962TIP3    H223830   8.229   4.920   2.009
 7963TIP3   OH223831   6.485   1.346   5.321
 7963TIP3    H123832   6.404   1.308   5.355
 7963TIP3    H223833   6.457   1.406   5.252
 7964TIP3   OH223834   0.532   2.808   1.111
 7964TIP3    H123835   0.610   2.860   1.127
 7964TIP3    H223836   0.564   2.721   1.088
 7965TIP3   OH223837   2.722   1.942   5.979
 7965TIP3    H123838   2.639   1.924   5.934
 7965TIP3    H223839   2.696   1.974   6.066
 7966TIP3   OH223840   5.027   6.872   4.684
 7966TIP3    H123841   5.011   6.778   4.688
 7966TIP3    H223842   5.075   6.885   4.602
 7967TIP3   OH223843   3.340   1.000   2.731
 7967TIP3    H123844   3.399   1.068   2.701
 7967TIP3    H223845   3.371   0.979   2.819
 7968TIP3   OH223846   1.268   1.258   0.605
 7968TIP3    H123847   1.264   1.349   0.636
 7968TIP3    H223848   1.362   1.238   0.603
 7969TIP3   OH223849   3.985   1.277   1.527
 7969TIP3    H123850   3.955   1.206   1.470
 7969TIP3    H223851   4.080   1.265   1.533
 7970TIP3   OH223852   0.253   5.422   3.445
 7970TIP3    H123853   0.250   5.459   3.533
 7970TIP3    H223854   0.249   5.327   3.458
 7971TIP3   OH223855   4.840   4.581   1.439
 7971TIP3    H123856   4.813   4.494   1.467
 7971TIP3    H223857   4.839   4.577   1.343
 7972TIP3   OH223858   0.173   5.017   3.220
 7972TIP3    H123859   0.085   5.044   3.245
 7972TIP3    H223860   0.170   4.922   3.216
 7973TIP3   OH223861   4.784   3.763   3.327
 7973TIP3    H123862   4.735   3.746   3.246
 7973TIP3    H223863   4.749   3.700   3.390
 7974TIP3   OH223864   4.054   3.372   1.333
 7974TIP3    H123865   4.124   3.435   1.351
 7974TIP3    H223866   4.009   3.361   1.417
 7975TIP3   OH223867   4.867   1.709   4.996
 7975TIP3    H123868   4.956   1.700   4.961
 7975TIP3    H223869   4.827   1.623   4.984
 7976TIP3   OH223870   1.741   4.184   3.095
 7976TIP3    H123871   1.832   4.205   3.075
 7976TIP3    H223872   1.728   4.219   3.183
 7977TIP3   OH223873   4.256   4.287   6.282
 7977TIP3    H123874   4.334   4.254   6.237
 7977TIP3    H223875   4.237   4.221   6.348
 7978TIP3   OH223876   7.966   5.356   3.734
 7978TIP3    H123877   8.028   5.365   3.806
 7978TIP3    H223878   7.888   5.403   3.764
 7979TIP3   OH223879   6.545   0.791   6.619
 7979TIP3    H123880   6.565   0.743   6.539
 7979TIP3    H223881   6.583   0.738   6.689
 7980TIP3   OH223882   2.739   2.980   0.062
 7980TIP3    H123883   2.646   3.003   0.058
 7980TIP3    H223884   2.743   2.890   0.030
 7981TIP3   OH223885   2.563   2.875   5.735
 7981TIP3    H123886   2.515   2.956   5.720
 7981TIP3    H223887   2.524   2.812   5.673
 7982TIP3   OH223888   6.309   3.965   0.662
 7982TIP3    H123889   6.286   3.953   0.570
 7982TIP3    H223890   6.399   3.999   0.660
 7983TIP3   OH223891   1.452   3.589   5.112
 7983TIP3    H123892   1.358   3.586   5.130
 7983TIP3    H223893   1.459   3.621   5.022
 7984TIP3   OH223894   0.962   5.453   6.328
 7984TIP3    H123895   0.958   5.548   6.343
 7984TIP3    H223896   1.040   5.425   6.376
 7985TIP3   OH223897   1.069   4.684   4.074
 7985TIP3    H123898   1.036   4.632   4.147
 7985TIP3    H223899   1.084   4.621   4.004
 7986TIP3   OH223900   7.196   5.846   3.662
 7986TIP3    H123901   7.182   5.930   3.707
 7986TIP3    H223902   7.127   5.789   3.695
 7987TIP3   OH223903   1.210   5.291   4.585
 7987TIP3    H123904   1.178   5.206   4.553
 7987TIP3    H223905   1.171   5.355   4.526
 7988TIP3   OH223906   1.500   3.449   1.447
 7988TIP3    H123907   1.458   3.513   1.505
 7988TIP3    H223908   1.456   3.460   1.363
 7989TIP3   OH223909   0.273   7.774   3.141
 7989TIP3    H123910   0.229   7.690   3.155
 7989TIP3    H223911   0.203   7.834   3.116
 7990TIP3   OH223912   5.554   0.295   4.419
 7990TIP3    H123913   5.591   0.381   4.404
 7990TIP3    H223914   5.471   0.312   4.465
 7991TIP3   OH223915   0.418   3.088   2.962
 7991TIP3    H123916   0.475   3.017   2.933
 7991TIP3    H223917   0.331   3.064   2.929
 7992TIP3   OH223918   0.276   3.244   3.827
 7992TIP3    H123919   0.220   3.168   3.813
 7992TIP3    H223920   0.283   3.252   3.922
 7993TIP3   OH223921   8.010   4.297   5.298
 7993TIP3    H123922   7.974   4.209   5.293
 7993TIP3    H223923   7.943   4.348   5.343
 7994TIP3   OH223924   1.326   3.699   4.581
 7994TIP3    H123925   1.296   3.629   4.522
 7994TIP3    H223926   1.275   3.776   4.554
 7995TIP3   OH223927   0.133   2.904   2.846
 7995TIP3    H123928   0.162   2.848   2.773
 7995TIP3    H223929   0.045   2.931   2.821
 7996TIP3   OH223930   6.782   3.271   2.012
 7996TIP3    H123931   6.748   3.287   2.100
 7996TIP3    H223932   6.733   3.196   1.980
 7997TIP3   OH223933   0.677   2.452   5.201
 7997TIP3    H123934   0.589   2.441   5.168
 7997TIP3    H223935   0.697   2.370   5.246
 7998TIP3   OH223936   0.633   5.069   6.046
 7998TIP3    H123937   0.589   5.079   5.962
 7998TIP3    H223938   0.726   5.077   6.026
 7999TIP3   OH223939   0.172   2.880   3.134
 7999TIP3    H123940   0.146   2.884   3.042
 7999TIP3    H223941   0.267   2.874   3.131
 8000TIP3   OH223942   1.304   3.005   4.717
 8000TIP3    H123943   1.343   3.093   4.707
 8000TIP3    H223944   1.368   2.947   4.675
 8001TIP3   OH223945   6.465   6.369   2.060
 8001TIP3    H123946   6.475   6.389   1.967
 8001TIP3    H223947   6.485   6.452   2.105
 8002TIP3   OH223948   0.438   7.254   0.077
 8002TIP3    H123949   0.445   7.161   0.095
 8002TIP3    H223950   0.511   7.273   0.018
 8003TIP3   OH223951   1.034   2.099   0.377
 8003TIP3    H123952   1.020   2.018   0.329
 8003TIP3    H223953   0.947   2.138   0.385
 8004TIP3   OH223954   4.853   5.618   0.438
 8004TIP3    H123955   4.875   5.536   0.482
 8004TIP3    H223956   4.913   5.622   0.363
 8005TIP3   OH223957   2.875   7.487   6.258
 8005TIP3    H123958   2.968   7.500   6.243
 8005TIP3    H223959   2.844   7.443   6.179
 8006TIP3   OH223960   3.553   7.503   5.221
 8006TIP3    H123961   3.548   7.464   5.134
 8006TIP3    H223962   3.576   7.594   5.205
 8007TIP3   OH223963   6.919   2.134   6.492
 8007TIP3    H123964   6.923   2.194   6.567
 8007TIP3    H223965   6.826   2.134   6.466
 8008TIP3   OH223966   1.534   4.256   2.308
 8008TIP3    H123967   1.503   4.341   2.279
 8008TIP3    H223968   1.455   4.209   2.335
 8009TIP3   OH223969   1.720   5.643   0.415
 8009TIP3    H123970   1.760   5.558   0.434
 8009TIP3    H223971   1.754   5.666   0.329
 8010TIP3   OH223972   7.062   3.645   2.856
 8010TIP3    H123973   7.156   3.641   2.843
 8010TIP3    H223974   7.049   3.610   2.944
 8011TIP3   OH223975   3.816   1.710   6.248
 8011TIP3    H123976   3.807   1.768   6.324
 8011TIP3    H223977   3.861   1.763   6.182
 8012TIP3   OH223978   7.620   5.637   0.072
 8012TIP3    H123979   7.552   5.643   0.138
 8012TIP3    H223980   7.592   5.697   0.003
 8013TIP3   OH223981   3.758   7.247   6.289
 8013TIP3    H123982   3.799   7.261   6.374
 8013TIP3    H223983   3.735   7.154   6.287
 8014TIP3   OH223984   3.520   3.952   2.362
 8014TIP3    H123985   3.603   3.905   2.353
 8014TIP3    H223986   3.512   3.968   2.456
 8015TIP3   OH223987   2.952   2.879   4.071
 8015TIP3    H123988   2.900   2.897   4.150
 8015TIP3    H223989   3.040   2.863   4.104
 8016TIP3   OH223990   4.400   4.937   1.462
 8016TIP3    H123991   4.442   4.905   1.382
 8016TIP3    H223992   4.315   4.892   1.464
 8017TIP3   OH223993   8.283   7.650   1.658
 8017TIP3    H123994   8.222   7.581   1.632
 8017TIP3    H223995   8.338   7.610   1.724
 8018TIP3   OH223996   7.083   7.682   4.806
 8018TIP3    H123997   7.116   7.722   4.726
 8018TIP3    H223998   7.142   7.711   4.875
 8019TIP3   OH223999   6.776   3.125   4.374
 8019TIP3    H124000   6.858   3.151   4.332
 8019TIP3    H224001   6.763   3.034   4.346
 8020TIP3   OH224002   0.421   3.704   5.808
 8020TIP3    H124003   0.337   3.750   5.802
 8020TIP3    H224004   0.485   3.769   5.780
 8021TIP3   OH224005   5.258   2.249   3.849
 8021TIP3    H124006   5.172   2.276   3.817
 8021TIP3    H224007   5.245   2.236   3.943
 8022TIP3   OH224008   6.981   5.639   5.486
 8022TIP3    H124009   7.060   5.593   5.459
 8022TIP3    H224010   6.910   5.580   5.464
 8023TIP3   OH224011   5.941   0.875   6.325
 8023TIP3    H124012   5.949   0.780   6.311
 8023TIP3    H224013   5.847   0.889   6.339
 8024TIP3   OH224014   5.132   1.693   0.672
 8024TIP3    H124015   5.074   1.724   0.602
 8024TIP3    H224016   5.219   1.725   0.648
 8025TIP3   OH224017   6.909   5.863   0.875
 8025TIP3    H124018   6.974   5.796   0.854
 8025TIP3    H224019   6.896   5.910   0.792
 8026TIP3   OH224020   2.091   1.641   3.495
 8026TIP3    H124021   2.153   1.616   3.563
 8026TIP3    H224022   2.012   1.667   3.542
 8027TIP3   OH224023   6.761   1.283   6.033
 8027TIP3    H124024   6.748   1.320   5.945
 8027TIP3    H224025   6.672   1.265   6.064
 8028TIP3   OH224026   4.904   4.600   5.771
 8028TIP3    H124027   4.987   4.568   5.806
 8028TIP3    H224028   4.914   4.592   5.676
 8029TIP3   OH224029   6.831   2.703   4.239
 8029TIP3    H124030   6.864   2.685   4.151
 8029TIP3    H224031   6.756   2.761   4.224
 8030TIP3   OH224032   0.403   7.431   1.842
 8030TIP3    H124033   0.481   7.479   1.815
 8030TIP3    H224034   0.346   7.498   1.881
 8031TIP3   OH224035   6.083   6.488   1.052
 8031TIP3    H124036   6.067   6.509   0.960
 8031TIP3    H224037   6.177   6.501   1.063
 8032TIP3   OH224038   7.552   6.682   5.188
 8032TIP3    H124039   7.581   6.705   5.276
 8032TIP3    H224040   7.633   6.660   5.142
 8033TIP3   OH224041   2.149   0.357   1.576
 8033TIP3    H124042   2.118   0.268   1.596
 8033TIP3    H224043   2.203   0.381   1.651
 8034TIP3   OH224044   5.139   3.387   5.840
 8034TIP3    H124045   5.230   3.368   5.866
 8034TIP3    H224046   5.099   3.301   5.829
 8035TIP3   OH224047   0.914   3.369   3.830
 8035TIP3    H124048   0.943   3.287   3.790
 8035TIP3    H224049   0.873   3.342   3.912
 8036TIP3   OH224050   5.852   5.481   4.043
 8036TIP3    H124051   5.940   5.505   4.015
 8036TIP3    H224052   5.857   5.386   4.059
 8037TIP3   OH224053   2.736   6.792   0.848
 8037TIP3    H124054   2.768   6.881   0.860
 8037TIP3    H224055   2.741   6.777   0.754
 8038TIP3   OH224056   5.857   1.516   1.802
 8038TIP3    H124057   5.839   1.435   1.755
 8038TIP3    H224058   5.829   1.499   1.892
 8039TIP3   OH224059   6.071   0.069   5.434
 8039TIP3    H124060   6.137   0.006   5.460
 8039TIP3    H224061   6.117   0.129   5.375
 8040TIP3   OH224062   7.655   3.851   4.528
 8040TIP3    H124063   7.633   3.762   4.555
 8040TIP3    H224064   7.736   3.871   4.575
 8041TIP3   OH224065   1.525   0.437   3.210
 8041TIP3    H124066   1.532   0.439   3.115
 8041TIP3    H224067   1.598   0.490   3.241
 8042TIP3   OH224068   5.410   6.628   1.445
 8042TIP3    H124069   5.404   6.605   1.538
 8042TIP3    H224070   5.404   6.544   1.399
 8043TIP3   OH224071   3.078   6.297   3.033
 8043TIP3    H124072   3.029   6.233   3.084
 8043TIP3    H224073   3.043   6.289   2.944
 8044TIP3   OH224074   1.868   5.653   0.164
 8044TIP3    H124075   1.809   5.614   0.099
 8044TIP3    H224076   1.927   5.581   0.187
 8045TIP3   OH224077   5.754   7.689   0.696
 8045TIP3    H124078   5.665   7.674   0.730
 8045TIP3    H224079   5.761   7.629   0.622
 8046TIP3   OH224080   7.787   6.507   6.477
 8046TIP3    H124081   7.871   6.483   6.515
 8046TIP3    H224082   7.791   6.475   6.387
 8047TIP3   OH224083   6.536   7.167   5.438
 8047TIP3    H124084   6.591   7.243   5.418
 8047TIP3    H224085   6.574   7.131   5.518
 8048TIP3   OH224086   2.220   4.161   4.868
 8048TIP3    H124087   2.261   4.076   4.882
 8048TIP3    H224088   2.246   4.213   4.944
 8049TIP3   OH224089   4.198   1.651   0.851
 8049TIP3    H124090   4.160   1.717   0.793
 8049TIP3    H224091   4.173   1.568   0.811
 8050TIP3   OH224092   1.418   1.965   0.477
 8050TIP3    H124093   1.511   1.978   0.498
 8050TIP3    H224094   1.376   2.047   0.503
 8051TIP3   OH224095   5.883   0.666   5.456
 8051TIP3    H124096   5.897   0.743   5.400
 8051TIP3    H224097   5.827   0.697   5.527
 8052TIP3   OH224098   5.522   6.764   4.634
 8052TIP3    H124099   5.471   6.690   4.666
 8052TIP3    H224100   5.550   6.738   4.546
 8053TIP3   OH224101   1.654   3.384   0.674
 8053TIP3    H124102   1.691   3.417   0.756
 8053TIP3    H224103   1.576   3.438   0.659
 8054TIP3   OH224104   7.925   3.581   2.151
 8054TIP3    H124105   7.877   3.663   2.138
 8054TIP3    H224106   7.910   3.532   2.070
 8055TIP3   OH224107   4.195   1.383   5.951
 8055TIP3    H124108   4.195   1.379   6.047
 8055TIP3    H224109   4.162   1.298   5.924
 8056TIP3   OH224110   6.812   4.016   3.242
 8056TIP3    H124111   6.747   4.041   3.176
 8056TIP3    H224112   6.871   4.090   3.247
 8057TIP3   OH224113   3.748   3.524   3.653
 8057TIP3    H124114   3.740   3.439   3.697
 8057TIP3    H224115   3.795   3.579   3.716
 8058TIP3   OH224116   6.663   3.225   3.368
 8058TIP3    H124117   6.637   3.160   3.433
 8058TIP3    H224118   6.697   3.298   3.419
 8059TIP3   OH224119   4.735   1.166   1.033
 8059TIP3    H124120   4.817   1.138   1.074
 8059TIP3    H224121   4.683   1.085   1.028
 8060TIP3   OH224122   8.156   2.044   6.451
 8060TIP3    H124123   8.216   2.079   6.517
 8060TIP3    H224124   8.086   2.004   6.502
 8061TIP3   OH224125   2.709   7.591   3.323
 8061TIP3    H124126   2.751   7.638   3.395
 8061TIP3    H224127   2.764   7.514   3.309
 8062TIP3   OH224128   5.634   5.991   2.207
 8062TIP3    H124129   5.697   5.997   2.135
 8062TIP3    H224130   5.549   6.005   2.165
 8063TIP3   OH224131   3.037   0.231   4.473
 8063TIP3    H124132   3.077   0.209   4.389
 8063TIP3    H224133   3.111   0.230   4.535
 8064TIP3   OH224134   2.454   4.965   2.025
 8064TIP3    H124135   2.527   4.926   2.072
 8064TIP3    H224136   2.480   4.961   1.933
 8065TIP3   OH224137   5.752   4.168   4.092
 8065TIP3    H124138   5.708   4.084   4.081
 8065TIP3    H224139   5.793   4.162   4.179
 8066TIP3   OH224140   4.289   4.516   5.285
 8066TIP3    H124141   4.338   4.459   5.226
 8066TIP3    H224142   4.212   4.465   5.309
 8067TIP3   OH224143   5.852   1.271   0.636
 8067TIP3    H124144   5.785   1.208   0.663
 8067TIP3    H224145   5.916   1.270   0.707
 8068TIP3   OH224146   7.661   0.825   3.624
 8068TIP3    H124147   7.636   0.875   3.702
 8068TIP3    H224148   7.754   0.805   3.637
 8069TIP3   OH224149   5.353   1.532   3.457
 8069TIP3    H124150   5.346   1.592   3.531
 8069TIP3    H224151   5.378   1.587   3.383
 8070TIP3   OH224152   0.748   4.692   3.854
 8070TIP3    H124153   0.704   4.619   3.810
 8070TIP3    H224154   0.839   4.688   3.825
 8071TIP3   OH224155   0.637   3.541   5.052
 8071TIP3    H124156   0.562   3.525   5.110
 8071TIP3    H224157   0.704   3.578   5.109
 8072TIP3   OH224158   7.714   3.844   4.863
 8072TIP3    H124159   7.660   3.894   4.924
 8072TIP3    H224160   7.655   3.778   4.827
 8073TIP3   OH224161   1.399   3.591   2.326
 8073TIP3    H124162   1.336   3.663   2.328
 8073TIP3    H224163   1.391   3.555   2.238
 8074TIP3   OH224164   3.273   2.653   0.423
 8074TIP3    H124165   3.247   2.576   0.372
 8074TIP3    H224166   3.360   2.676   0.389
 8075TIP3   OH224167   5.088   7.255   1.639
 8075TIP3    H124168   5.168   7.285   1.596
 8075TIP3    H224169   5.119   7.205   1.715
 8076TIP3   OH224170   7.657   7.698   3.174
 8076TIP3    H124171   7.686   7.680   3.264
 8076TIP3    H224172   7.730   7.666   3.119
 8077TIP3   OH224173   5.363   3.803   0.524
 8077TIP3    H124174   5.314   3.725   0.549
 8077TIP3    H224175   5.454   3.774   0.518
 8078TIP3   OH224176   2.955   2.238   3.245
 8078TIP3    H124177   2.976   2.275   3.331
 8078TIP3    H224178   2.920   2.151   3.264
 8079TIP3   OH224179   7.223   4.754   1.136
 8079TIP3    H124180   7.283   4.798   1.197
 8079TIP3    H224181   7.165   4.823   1.105
 8080TIP3   OH224182   5.942   3.603   1.208
 8080TIP3    H124183   5.925   3.516   1.171
 8080TIP3    H224184   5.919   3.663   1.138
 8081TIP3   OH224185   6.163   2.774   1.060
 8081TIP3    H124186   6.176   2.816   0.975
 8081TIP3    H224187   6.205   2.689   1.052
 8082TIP3   OH224188   7.232   0.494   1.267
 8082TIP3    H124189   7.170   0.436   1.310
 8082TIP3    H224190   7.314   0.445   1.265
 8083TIP3   OH224191   1.928   2.747   0.020
 8083TIP3    H124192   1.989   2.812   0.056
 8083TIP3    H224193   1.888   2.707   0.097
 8084TIP3   OH224194   0.464   1.800   0.969
 8084TIP3    H124195   0.493   1.888   0.946
 8084TIP3    H224196   0.399   1.777   0.902
 8085TIP3   OH224197   2.817   0.194   6.499
 8085TIP3    H124198   2.906   0.158   6.491
 8085TIP3    H224199   2.831   0.288   6.510
 8086TIP3   OH224200   6.185   6.174   3.991
 8086TIP3    H124201   6.198   6.088   4.031
 8086TIP3    H224202   6.122   6.159   3.921
 8087TIP3   OH224203   7.449   6.316   3.930
 8087TIP3    H124204   7.537   6.352   3.919
 8087TIP3    H224205   7.462   6.221   3.933
 8088TIP3   OH224206   7.505   7.045   5.509
 8088TIP3    H124207   7.527   7.050   5.602
 8088TIP3    H224208   7.455   7.124   5.491
 8089TIP3   OH224209   4.944   3.059   0.512
 8089TIP3    H124210   4.867   3.081   0.459
 8089TIP3    H224211   5.004   3.132   0.500
 8090TIP3   OH224212   2.665   4.806   5.741
 8090TIP3    H124213   2.598   4.860   5.697
 8090TIP3    H224214   2.724   4.779   5.671
 8091TIP3   OH224215   0.185   5.335   3.025
 8091TIP3    H124216   0.094   5.314   3.006
 8091TIP3    H224217   0.181   5.419   3.072
 8092TIP3   OH224218   6.923   2.236   6.736
 8092TIP3    H124219   6.857   2.198   6.794
 8092TIP3    H224220   7.001   2.184   6.751
 8093TIP3   OH224221   0.225   2.970   5.182
 8093TIP3    H124222   0.303   2.939   5.136
 8093TIP3    H224223   0.256   3.043   5.236
 8094TIP3   OH224224   6.598   2.763   0.463
 8094TIP3    H124225   6.641   2.846   0.444
 8094TIP3    H224226   6.549   2.742   0.384
 8095TIP3   OH224227   5.054   7.466   3.117
 8095TIP3    H124228   5.140   7.509   3.118
 8095TIP3    H224229   5.032   7.459   3.024
 8096TIP3   OH224230   6.595   0.293   3.312
 8096TIP3    H124231   6.568   0.355   3.244
 8096TIP3    H224232   6.689   0.305   3.319
 8097TIP3   OH224233   4.010   6.658   0.417
 8097TIP3    H124234   4.011   6.677   0.511
 8097TIP3    H224235   4.019   6.743   0.375
 8098TIP3   OH224236   4.925   7.277   6.435
 8098TIP3    H124237   4.864   7.345   6.464
 8098TIP3    H224238   4.989   7.270   6.507
 8099TIP3   OH224239   0.361   3.777   2.626
 8099TIP3    H124240   0.299   3.708   2.602
 8099TIP3    H224241   0.439   3.758   2.574
 8100TIP3   OH224242   3.483   1.226   2.682
 8100TIP3    H124243   3.573   1.225   2.715
 8100TIP3    H224244   3.435   1.279   2.745
 8101TIP3   OH224245   6.581   4.461   1.047
 8101TIP3    H124246   6.534   4.441   1.128
 8101TIP3    H224247   6.597   4.555   1.051
 8102TIP3   OH224248   2.344   4.249   4.653
 8102TIP3    H124249   2.274   4.209   4.704
 8102TIP3    H224250   2.327   4.343   4.656
 8103TIP3   OH224251   7.896   4.249   5.637
 8103TIP3    H124252   7.991   4.256   5.643
 8103TIP3    H224253   7.876   4.160   5.666
 8104TIP3   OH224254   6.699   5.698   4.699
 8104TIP3    H124255   6.670   5.784   4.669
 8104TIP3    H224256   6.794   5.700   4.685
 8105TIP3   OH224257   3.228   5.646   4.798
 8105TIP3    H124258   3.237   5.700   4.876
 8105TIP3    H224259   3.277   5.693   4.731
 8106TIP3   OH224260   2.515   6.676   5.673
 8106TIP3    H124261   2.472   6.757   5.699
 8106TIP3    H224262   2.511   6.620   5.751
 8107TIP3   OH224263   6.640   2.359   3.079
 8107TIP3    H124264   6.652   2.454   3.086
 8107TIP3    H224265   6.706   2.332   3.014
 8108TIP3   OH224266   2.768   6.794   0.576
 8108TIP3    H124267   2.679   6.798   0.543
 8108TIP3    H224268   2.811   6.728   0.522
 8109TIP3   OH224269   7.426   0.638   4.320
 8109TIP3    H124270   7.394   0.600   4.402
 8109TIP3    H224271   7.359   0.614   4.256
 8110TIP3   OH224272   4.405   3.267   3.308
 8110TIP3    H124273   4.494   3.290   3.279
 8110TIP3    H224274   4.365   3.350   3.332
 8111TIP3   OH224275   5.550   4.172   2.365
 8111TIP3    H124276   5.645   4.183   2.369
 8111TIP3    H224277   5.517   4.217   2.442
 8112TIP3   OH224278   7.370   3.525   3.500
 8112TIP3    H124279   7.417   3.483   3.428
 8112TIP3    H224280   7.406   3.485   3.579
 8113TIP3   OH224281   6.301   0.191   6.142
 8113TIP3    H124282   6.226   0.184   6.202
 8113TIP3    H224283   6.265   0.167   6.057
 8114TIP3   OH224284   5.853   0.915   2.040
 8114TIP3    H124285   5.874   1.005   2.014
 8114TIP3    H224286   5.825   0.872   1.959
 8115TIP3   OH224287   0.148   3.254   3.409
 8115TIP3    H124288   0.215   3.316   3.439
 8115TIP3    H224289   0.094   3.238   3.485
 8116TIP3   OH224290   7.052   7.407   3.180
 8116TIP3    H124291   6.961   7.392   3.153
 8116TIP3    H224292   7.045   7.466   3.255
 8117TIP3   OH224293   1.974   0.537   0.781
 8117TIP3    H124294   2.042   0.507   0.721
 8117TIP3    H224295   1.905   0.573   0.725
 8118TIP3   OH224296   1.745   1.520   1.599
 8118TIP3    H124297   1.661   1.530   1.643
 8118TIP3    H224298   1.764   1.607   1.563
 8119TIP3   OH224299   4.358   6.794   0.936
 8119TIP3    H124300   4.424   6.828   0.996
 8119TIP3    H224301   4.379   6.701   0.926
 8120TIP3   OH224302   2.440   1.779   4.819
 8120TIP3    H124303   2.396   1.724   4.883
 8120TIP3    H224304   2.497   1.836   4.871
 8121TIP3   OH224305   4.088   2.996   5.301
 8121TIP3    H124306   4.029   2.987   5.376
 8121TIP3    H224307   4.081   3.088   5.275
 8122TIP3   OH224308   5.373   2.027   6.314
 8122TIP3    H124309   5.354   1.952   6.258
 8122TIP3    H224310   5.293   2.040   6.365
 8123TIP3   OH224311   7.380   6.201   2.027
 8123TIP3    H124312   7.405   6.142   2.098
 8123TIP3    H224313   7.461   6.217   1.980
 8124TIP3   OH224314   2.654   5.606   5.440
 8124TIP3    H124315   2.605   5.525   5.424
 8124TIP3    H224316   2.649   5.654   5.358
 8125TIP3   OH224317   4.585   7.057   0.587
 8125TIP3    H124318   4.655   7.106   0.630
 8125TIP3    H224319   4.580   6.975   0.636
 8126TIP3   OH224320   5.464   0.034   2.007
 8126TIP3    H124321   5.411   0.073   1.937
 8126TIP3    H224322   5.420   0.060   2.088
 8127TIP3   OH224323   6.538   2.339   6.637
 8127TIP3    H124324   6.548   2.411   6.699
 8127TIP3    H224325   6.468   2.367   6.578
 8128TIP3   OH224326   0.183   0.867   3.097
 8128TIP3    H124327   0.219   0.785   3.130
 8128TIP3    H224328   0.191   0.928   3.171
 8129TIP3   OH224329   7.830   4.655   4.394
 8129TIP3    H124330   7.898   4.717   4.366
 8129TIP3    H224331   7.823   4.594   4.320
 8130TIP3   OH224332   1.977   5.054   3.210
 8130TIP3    H124333   1.948   5.134   3.254
 8130TIP3    H224334   1.989   4.991   3.282
 8131TIP3   OH224335   3.806   0.522   3.160
 8131TIP3    H124336   3.750   0.540   3.236
 8131TIP3    H224337   3.747   0.484   3.095
 8132TIP3   OH224338   4.776   2.959   0.742
 8132TIP3    H124339   4.838   2.982   0.673
 8132TIP3    H224340   4.781   2.864   0.750
 8133TIP3   OH224341   4.906   7.585   5.644
 8133TIP3    H124342   4.963   7.659   5.622
 8133TIP3    H224343   4.919   7.522   5.574
 8134TIP3   OH224344   0.432   6.657   1.712
 8134TIP3    H124345   0.421   6.646   1.618
 8134TIP3    H224346   0.517   6.700   1.722
 8135TIP3   OH224347   1.980   3.892   4.110
 8135TIP3    H124348   1.967   3.845   4.028
 8135TIP3    H224349   2.037   3.834   4.161
 8136TIP3   OH224350   6.486   2.020   0.712
 8136TIP3    H124351   6.456   1.956   0.648
 8136TIP3    H224352   6.407   2.069   0.735
 8137TIP3   OH224353   1.184   3.704   5.555
 8137TIP3    H124354   1.179   3.708   5.651
 8137TIP3    H224355   1.098   3.674   5.528
 8138TIP3   OH224356   3.547   6.720   0.965
 8138TIP3    H124357   3.482   6.685   1.026
 8138TIP3    H224358   3.594   6.642   0.933
 8139TIP3   OH224359   1.455   5.214   4.404
 8139TIP3    H124360   1.421   5.193   4.491
 8139TIP3    H224361   1.441   5.309   4.395
 8140TIP3   OH224362   7.207   5.128   6.241
 8140TIP3    H124363   7.268   5.167   6.179
 8140TIP3    H224364   7.227   5.034   6.238
 8141TIP3   OH224365   7.126   3.647   6.051
 8141TIP3    H124366   7.155   3.642   5.960
 8141TIP3    H224367   7.129   3.740   6.073
 8142TIP3   OH224368   6.398   2.094   0.008
 8142TIP3    H124369   6.445   2.152  -0.052
 8142TIP3    H224370   6.345   2.153   0.062
 8143TIP3   OH224371   7.953   6.439   6.002
 8143TIP3    H124372   7.937   6.352   5.967
 8143TIP3    H224373   8.047   6.441   6.022
 8144TIP3   OH224374   2.599   1.032   2.272
 8144TIP3    H124375   2.627   0.941   2.282
 8144TIP3    H224376   2.680   1.083   2.270
 8145TIP3   OH224377   0.220   6.904   1.308
 8145TIP3    H124378   0.196   6.951   1.228
 8145TIP3    H224379   0.177   6.819   1.301
 8146TIP3   OH224380   5.913   5.011   6.369
 8146TIP3    H124381   5.941   5.011   6.461
 8146TIP3    H224382   5.817   5.009   6.373
 8147TIP3   OH224383   7.181   6.085   3.815
 8147TIP3    H124384   7.200   6.092   3.909
 8147TIP3    H224385   7.200   6.172   3.780
 8148TIP3   OH224386   3.019   3.552   1.049
 8148TIP3    H124387   3.006   3.600   1.131
 8148TIP3    H224388   2.936   3.507   1.034
 8149TIP3   OH224389   0.293   6.738   5.828
 8149TIP3    H124390   0.257   6.671   5.885
 8149TIP3    H224391   0.299   6.696   5.742
 8150TIP3   OH224392   1.948   2.711   2.150
 8150TIP3    H124393   1.939   2.687   2.058
 8150TIP3    H224394   2.020   2.656   2.182
 8151TIP3   OH224395   3.310   6.847   4.536
 8151TIP3    H124396   3.292   6.914   4.469
 8151TIP3    H224397   3.306   6.894   4.619
 8152TIP3   OH224398   6.388   5.358   3.306
 8152TIP3    H124399   6.482   5.339   3.312
 8152TIP3    H224400   6.366   5.342   3.214
 8153TIP3   OH224401   6.934   0.906   0.187
 8153TIP3    H124402   6.937   0.811   0.193
 8153TIP3    H224403   6.937   0.925   0.093
 8154TIP3   OH224404   1.411   7.531   3.749
 8154TIP3    H124405   1.497   7.501   3.721
 8154TIP3    H224406   1.375   7.458   3.800
 8155TIP3   OH224407   7.176   3.363   1.354
 8155TIP3    H124408   7.194   3.281   1.307
 8155TIP3    H224409   7.243   3.423   1.322
 8156TIP3   OH224410   2.033   7.361   0.999
 8156TIP3    H124411   1.970   7.349   0.928
 8156TIP3    H224412   2.004   7.301   1.068
 8157TIP3   OH224413   1.881   5.763   3.020
 8157TIP3    H124414   1.887   5.771   2.925
 8157TIP3    H224415   1.840   5.678   3.035
 8158TIP3   OH224416   5.687   6.159   1.230
 8158TIP3    H124417   5.634   6.198   1.299
 8158TIP3    H224418   5.747   6.229   1.203
 8159TIP3   OH224419   7.707   3.655   5.944
 8159TIP3    H124420   7.736   3.565   5.932
 8159TIP3    H224421   7.612   3.652   5.928
 8160TIP3   OH224422   1.512   6.875   5.006
 8160TIP3    H124423   1.454   6.868   5.082
 8160TIP3    H224424   1.532   6.968   5.000
 8161TIP3   OH224425   2.871   2.428   6.559
 8161TIP3    H124426   2.797   2.426   6.498
 8161TIP3    H224427   2.897   2.520   6.563
 8162TIP3   OH224428   1.560   2.950   4.676
 8162TIP3    H124429   1.622   2.937   4.748
 8162TIP3    H224430   1.590   2.891   4.607
 8163TIP3   OH224431   0.961   1.731   5.965
 8163TIP3    H124432   0.913   1.651   5.986
 8163TIP3    H224433   1.019   1.705   5.893
 8164TIP3   OH224434   1.946   4.474   6.739
 8164TIP3    H124435   1.993   4.491   6.657
 8164TIP3    H224436   1.972   4.386   6.764
 8165TIP3   OH224437   8.226   7.623   2.047
 8165TIP3    H124438   8.223   7.718   2.059
 8165TIP3    H224439   8.142   7.602   2.006
 8166TIP3   OH224440   1.367   4.264   3.694
 8166TIP3    H124441   1.346   4.220   3.777
 8166TIP3    H224442   1.455   4.301   3.709
 8167TIP3   OH224443   2.110   2.793   6.130
 8167TIP3    H124444   2.171   2.860   6.161
 8167TIP3    H224445   2.078   2.825   6.046
 8168TIP3   OH224446   6.759   5.040   1.105
 8168TIP3    H124447   6.687   5.018   1.047
 8168TIP3    H224448   6.736   5.125   1.141
 8169TIP3   OH224449   1.791   4.310   0.826
 8169TIP3    H124450   1.781   4.403   0.844
 8169TIP3    H224451   1.882   4.291   0.850
 8170TIP3   OH224452   3.244   7.208   0.576
 8170TIP3    H124453   3.164   7.186   0.624
 8170TIP3    H224454   3.245   7.303   0.573
 8171TIP3   OH224455   3.366   4.055   6.099
 8171TIP3    H124456   3.296   3.990   6.099
 8171TIP3    H224457   3.444   4.007   6.127
 8172TIP3   OH224458   5.775   0.181   6.300
 8172TIP3    H124459   5.762   0.193   6.206
 8172TIP3    H224460   5.868   0.160   6.308
 8173TIP3   OH224461   0.890   5.991   6.366
 8173TIP3    H124462   0.951   6.064   6.358
 8173TIP3    H224463   0.807   6.033   6.390
 8174TIP3   OH224464   5.919   3.760   4.772
 8174TIP3    H124465   5.965   3.681   4.801
 8174TIP3    H224466   5.987   3.813   4.730
 8175TIP3   OH224467   6.259   1.428   4.743
 8175TIP3    H124468   6.324   1.358   4.747
 8175TIP3    H224469   6.218   1.418   4.657
 8176TIP3   OH224470   5.230   6.621   4.351
 8176TIP3    H124471   5.153   6.674   4.371
 8176TIP3    H224472   5.239   6.561   4.425
 8177TIP3   OH224473   4.779   3.184   5.296
 8177TIP3    H124474   4.733   3.231   5.366
 8177TIP3    H224475   4.715   3.121   5.264
 8178TIP3   OH224476   6.369   7.239   6.391
 8178TIP3    H124477   6.299   7.276   6.444
 8178TIP3    H224478   6.325   7.204   6.314
 8179TIP3   OH224479   1.828   6.904   2.521
 8179TIP3    H124480   1.773   6.881   2.596
 8179TIP3    H224481   1.904   6.846   2.528
 8180TIP3   OH224482   8.143   2.710   4.772
 8180TIP3    H124483   8.145   2.798   4.735
 8180TIP3    H224484   8.233   2.695   4.800
 8181TIP3   OH224485   2.795   6.440   3.633
 8181TIP3    H124486   2.865   6.472   3.577
 8181TIP3    H224487   2.765   6.359   3.592
 8182TIP3   OH224488   3.496   1.519   1.097
 8182TIP3    H124489   3.443   1.440   1.098
 8182TIP3    H224490   3.584   1.488   1.075
 8183TIP3   OH224491   0.063   3.399   6.383
 8183TIP3    H124492   0.073   3.331   6.317
 8183TIP3    H224493   0.083   3.480   6.337
 8184TIP3   OH224494   5.610   6.468   3.572
 8184TIP3    H124495   5.528   6.517   3.570
 8184TIP3    H224496   5.644   6.481   3.661
 8185TIP3   OH224497   5.066   4.819   5.575
 8185TIP3    H124498   5.021   4.742   5.542
 8185TIP3    H224499   5.159   4.795   5.573
 8186TIP3   OH224500   6.855   3.395   3.808
 8186TIP3    H124501   6.941   3.355   3.791
 8186TIP3    H224502   6.872   3.489   3.806
 8187TIP3   OH224503   7.168   2.450   2.437
 8187TIP3    H124504   7.087   2.489   2.405
 8187TIP3    H224505   7.235   2.517   2.420
 8188TIP3   OH224506   3.508   5.849   6.670
 8188TIP3    H124507   3.534   5.773   6.723
 8188TIP3    H224508   3.547   5.924   6.715
 8189TIP3   OH224509   4.343   2.512   2.837
 8189TIP3    H124510   4.333   2.505   2.932
 8189TIP3    H224511   4.395   2.591   2.824
 8190TIP3   OH224512   4.896   6.557   4.879
 8190TIP3    H124513   4.970   6.500   4.901
 8190TIP3    H224514   4.918   6.592   4.793
 8191TIP3   OH224515   1.010   5.023   4.717
 8191TIP3    H124516   1.071   5.033   4.644
 8191TIP3    H224517   0.997   5.112   4.749
 8192TIP3   OH224518   6.081   6.454   4.302
 8192TIP3    H124519   6.063   6.538   4.345
 8192TIP3    H224520   6.150   6.474   4.238
 8193TIP3   OH224521   7.491   0.965   0.378
 8193TIP3    H124522   7.430   0.892   0.363
 8193TIP3    H224523   7.577   0.929   0.357
 8194TIP3   OH224524   7.002   4.537   5.169
 8194TIP3    H124525   6.928   4.517   5.227
 8194TIP3    H224526   7.037   4.452   5.145
 8195TIP3   OH224527   5.272   5.030   2.485
 8195TIP3    H124528   5.227   5.087   2.548
 8195TIP3    H224529   5.332   4.978   2.539
 8196TIP3   OH224530   1.788   1.783   1.529
 8196TIP3    H124531   1.828   1.870   1.521
 8196TIP3    H224532   1.703   1.799   1.570
 8197TIP3   OH224533   2.333   2.246   3.367
 8197TIP3    H124534   2.281   2.249   3.287
 8197TIP3    H224535   2.406   2.306   3.350
 8198TIP3   OH224536   3.234   5.721   3.863
 8198TIP3    H124537   3.268   5.755   3.781
 8198TIP3    H224538   3.189   5.795   3.903
 8199TIP3   OH224539   1.304   5.787   5.788
 8199TIP3    H124540   1.289   5.697   5.758
 8199TIP3    H224541   1.399   5.795   5.794
 8200TIP3   OH224542   5.233   3.487   0.787
 8200TIP3    H124543   5.251   3.527   0.702
 8200TIP3    H224544   5.247   3.557   0.851
 8201TIP3   OH224545   0.953   6.582   2.690
 8201TIP3    H124546   0.980   6.674   2.685
 8201TIP3    H224547   0.858   6.584   2.678
 8202TIP3   OH224548   6.851   2.072   4.563
 8202TIP3    H124549   6.761   2.101   4.550
 8202TIP3    H224550   6.844   1.976   4.569
 8203TIP3   OH224551   3.144   7.012   2.082
 8203TIP3    H124552   3.111   7.090   2.038
 8203TIP3    H224553   3.069   6.952   2.086
 8204TIP3   OH224554   4.599   3.047   4.599
 8204TIP3    H124555   4.556   3.106   4.537
 8204TIP3    H224556   4.590   2.960   4.560
 8205TIP3   OH224557   1.810   3.339   1.909
 8205TIP3    H124558   1.828   3.313   1.999
 8205TIP3    H224559   1.714   3.340   1.904
 8206TIP3   OH224560   5.159   5.796   0.615
 8206TIP3    H124561   5.144   5.707   0.585
 8206TIP3    H224562   5.238   5.791   0.669
 8207TIP3   OH224563   4.701   5.077   2.464
 8207TIP3    H124564   4.727   5.143   2.528
 8207TIP3    H224565   4.756   5.001   2.483
 8208TIP3   OH224566   2.956   3.924   3.328
 8208TIP3    H124567   3.044   3.897   3.353
 8208TIP3    H224568   2.903   3.844   3.334
 8209TIP3   OH224569   5.956   7.099   5.800
 8209TIP3    H124570   5.955   7.109   5.895
 8209TIP3    H224571   5.962   7.004   5.785
 8210TIP3   OH224572   0.230   2.274   3.802
 8210TIP3    H124573   0.141   2.303   3.782
 8210TIP3    H224574   0.269   2.348   3.849
 8211TIP3   OH224575   4.874   1.639   3.946
 8211TIP3    H124576   4.885   1.629   3.852
 8211TIP3    H224577   4.806   1.577   3.970
 8212TIP3   OH224578   2.946   7.179   5.216
 8212TIP3    H124579   2.916   7.266   5.188
 8212TIP3    H224580   2.895   7.118   5.163
 8213TIP3   OH224581   2.460   7.151   1.005
 8213TIP3    H124582   2.408   7.169   0.926
 8213TIP3    H224583   2.394   7.132   1.072
 8214TIP3   OH224584   3.628   3.254   4.978
 8214TIP3    H124585   3.536   3.233   4.992
 8214TIP3    H224586   3.670   3.169   4.960
 8215TIP3   OH224587   6.658   1.102   3.247
 8215TIP3    H124588   6.570   1.134   3.228
 8215TIP3    H224589   6.668   1.024   3.192
 8216TIP3   OH224590   0.460   1.857   2.500
 8216TIP3    H124591   0.423   1.945   2.497
 8216TIP3    H224592   0.389   1.803   2.534
 8217TIP3   OH224593   5.127   7.085   0.263
 8217TIP3    H124594   5.126   7.174   0.299
 8217TIP3    H224595   5.037   7.054   0.273
 8218TIP3   OH224596   1.985   1.118   1.406
 8218TIP3    H124597   1.998   1.162   1.322
 8218TIP3    H224598   2.073   1.094   1.435
 8219TIP3   OH224599   0.240   6.874   5.562
 8219TIP3    H124600   0.281   6.794   5.531
 8219TIP3    H224601   0.249   6.870   5.658
 8220TIP3   OH224602   5.182   6.388   6.435
 8220TIP3    H124603   5.118   6.316   6.442
 8220TIP3    H224604   5.166   6.426   6.349
 8221TIP3   OH224605   8.010   4.754   3.915
 8221TIP3    H124606   7.995   4.784   4.005
 8221TIP3    H224607   8.061   4.824   3.875
 8222TIP3   OH224608   0.215   3.219   5.034
 8222TIP3    H124609   0.169   3.226   4.950
 8222TIP3    H224610   0.193   3.131   5.066
 8223TIP3   OH224611   6.195   6.031   5.231
 8223TIP3    H124612   6.136   6.105   5.215
 8223TIP3    H224613   6.148   5.955   5.197
 8224TIP3   OH224614   0.174   3.823   5.796
 8224TIP3    H124615   0.172   3.896   5.735
 8224TIP3    H224616   0.156   3.862   5.882
 8225TIP3   OH224617   4.558   6.176   1.945
 8225TIP3    H124618   4.468   6.143   1.956
 8225TIP3    H224619   4.550   6.271   1.955
 8226TIP3   OH224620   0.815   2.681   1.034
 8226TIP3    H124621   0.735   2.635   1.009
 8226TIP3    H224622   0.868   2.616   1.079
 8227TIP3   OH224623   3.359   5.730   3.572
 8227TIP3    H124624   3.389   5.802   3.627
 8227TIP3    H224625   3.352   5.768   3.485
 8228TIP3   OH224626   5.536   4.550   6.428
 8228TIP3    H124627   5.464   4.564   6.366
 8228TIP3    H224628   5.560   4.637   6.458
 8229TIP3   OH224629   1.716   1.498   0.544
 8229TIP3    H124630   1.659   1.425   0.519
 8229TIP3    H224631   1.699   1.511   0.637
 8230TIP3   OH224632   4.240   2.849   1.695
 8230TIP3    H124633   4.213   2.758   1.691
 8230TIP3    H224634   4.313   2.856   1.634
 8231TIP3   OH224635   6.362   4.665   0.181
 8231TIP3    H124636   6.373   4.582   0.136
 8231TIP3    H224637   6.371   4.732   0.113
 8232TIP3   OH224638   3.730   0.247   0.262
 8232TIP3    H124639   3.702   0.291   0.182
 8232TIP3    H224640   3.803   0.191   0.234
 8233TIP3   OH224641   0.797   2.724   0.371
 8233TIP3    H124642   0.866   2.722   0.304
 8233TIP3    H224643   0.815   2.804   0.421
 8234TIP3   OH224644   3.047   3.352   4.999
 8234TIP3    H124645   3.131   3.395   5.012
 8234TIP3    H224646   3.004   3.355   5.084
 8235TIP3   OH224647   4.796   6.389   0.814
 8235TIP3    H124648   4.715   6.426   0.777
 8235TIP3    H224649   4.775   6.297   0.829
 8236TIP3   OH224650   4.145   1.111   5.854
 8236TIP3    H124651   4.216   1.048   5.847
 8236TIP3    H224652   4.081   1.069   5.912
 8237TIP3   OH224653   0.991   4.425   3.565
 8237TIP3    H124654   1.079   4.438   3.527
 8237TIP3    H224655   1.005   4.366   3.639
 8238TIP3   OH224656   5.756   6.530   5.403
 8238TIP3    H124657   5.831   6.471   5.414
 8238TIP3    H224658   5.680   6.474   5.419
 8239TIP3   OH224659   1.102   6.292   4.494
 8239TIP3    H124660   1.131   6.296   4.585
 8239TIP3    H224661   1.184   6.289   4.443
 8240TIP3   OH224662   5.029   5.029   0.287
 8240TIP3    H124663   5.045   5.124   0.289
 8240TIP3    H224664   5.083   4.994   0.358
 8241TIP3   OH224665   0.874   2.902   2.235
 8241TIP3    H124666   0.790   2.859   2.251
 8241TIP3    H224667   0.852   2.994   2.223
 8242TIP3   OH224668   5.628   0.160   0.622
 8242TIP3    H124669   5.568   0.116   0.563
 8242TIP3    H224670   5.713   0.119   0.605
 8243TIP3   OH224671   5.316   6.836   4.848
 8243TIP3    H124672   5.281   6.817   4.761
 8243TIP3    H224673   5.406   6.864   4.832
 8244TIP3   OH224674   0.141   1.935   6.467
 8244TIP3    H124675   0.121   2.023   6.499
 8244TIP3    H224676   0.215   1.947   6.407
 8245TIP3   OH224677   3.924   1.537   4.458
 8245TIP3    H124678   4.018   1.521   4.465
 8245TIP3    H224679   3.906   1.537   4.364
 8246TIP3   OH224680   3.763   2.880   2.240
 8246TIP3    H124681   3.786   2.872   2.332
 8246TIP3    H224682   3.846   2.895   2.195
 8247TIP3   OH224683   4.547   0.551   0.061
 8247TIP3    H124684   4.590   0.597   0.132
 8247TIP3    H224685   4.617   0.502   0.018
 8248TIP3   OH224686   3.198   5.592   6.093
 8248TIP3    H124687   3.203   5.687   6.080
 8248TIP3    H224688   3.272   5.572   6.150
 8249TIP3   OH224689   3.851   7.274   4.909
 8249TIP3    H124690   3.833   7.361   4.874
 8249TIP3    H224691   3.855   7.286   5.004
 8250TIP3   OH224692   7.200   6.355   1.851
 8250TIP3    H124693   7.205   6.297   1.774
 8250TIP3    H224694   7.270   6.324   1.908
 8251TIP3   OH224695   3.530   1.175   1.691
 8251TIP3    H124696   3.457   1.152   1.634
 8251TIP3    H224697   3.536   1.102   1.753
 8252TIP3   OH224698   4.498   7.361   3.711
 8252TIP3    H124699   4.463   7.439   3.753
 8252TIP3    H224700   4.426   7.298   3.714
 8253TIP3   OH224701   7.790   5.592   3.850
 8253TIP3    H124702   7.724   5.596   3.919
 8253TIP3    H224703   7.873   5.609   3.895
 8254TIP3   OH224704   7.944   5.894   5.742
 8254TIP3    H124705   7.993   5.875   5.822
 8254TIP3    H224706   7.854   5.865   5.761
 8255TIP3   OH224707   1.458   2.760   0.982
 8255TIP3    H124708   1.503   2.834   1.023
 8255TIP3    H224709   1.466   2.776   0.888
 8256TIP3   OH224710   6.755   1.211   0.887
 8256TIP3    H124711   6.758   1.306   0.892
 8256TIP3    H224712   6.772   1.191   0.795
 8257TIP3   OH224713   7.854   1.419   3.449
 8257TIP3    H124714   7.780   1.371   3.487
 8257TIP3    H224715   7.843   1.408   3.355
 8258TIP3   OH224716   8.142   6.510   4.262
 8258TIP3    H124717   8.183   6.505   4.348
 8258TIP3    H224718   8.201   6.462   4.204
 8259TIP3   OH224719   6.340   4.781   0.591
 8259TIP3    H124720   6.265   4.836   0.567
 8259TIP3    H224721   6.335   4.707   0.530
 8260TIP3   OH224722   1.173   5.066   4.452
 8260TIP3    H124723   1.079   5.069   4.433
 8260TIP3    H224724   1.204   4.990   4.403
 8261TIP3   OH224725   6.319   6.738   5.043
 8261TIP3    H124726   6.288   6.665   4.989
 8261TIP3    H224727   6.393   6.774   4.994
 8262TIP3   OH224728   6.375   2.339   3.428
 8262TIP3    H124729   6.340   2.255   3.458
 8262TIP3    H224730   6.396   2.324   3.336
 8263TIP3   OH224731   1.863   4.895   1.582
 8263TIP3    H124732   1.873   4.812   1.536
 8263TIP3    H224733   1.811   4.873   1.659
 8264TIP3   OH224734   0.432   3.152   0.946
 8264TIP3    H124735   0.409   3.061   0.964
 8264TIP3    H224736   0.387   3.202   1.014
 8265TIP3   OH224737   0.989   5.353   2.142
 8265TIP3    H124738   0.899   5.325   2.129
 8265TIP3    H224739   0.987   5.447   2.124
 8266TIP3   OH224740   2.770   7.514   4.335
 8266TIP3    H124741   2.852   7.559   4.315
 8266TIP3    H224742   2.739   7.556   4.415
 8267TIP3   OH224743   3.707   0.366   1.747
 8267TIP3    H124744   3.642   0.359   1.677
 8267TIP3    H224745   3.658   0.402   1.822
 8268TIP3   OH224746   5.135   4.187   0.661
 8268TIP3    H124747   5.171   4.134   0.590
 8268TIP3    H224748   5.130   4.127   0.736
 8269TIP3   OH224749   2.933   4.565   0.796
 8269TIP3    H124750   2.948   4.481   0.839
 8269TIP3    H224751   2.941   4.545   0.703
 8270TIP3   OH224752   8.007   2.287   0.394
 8270TIP3    H124753   8.049   2.213   0.437
 8270TIP3    H224754   7.921   2.292   0.434
 8271TIP3   OH224755   5.323   3.011   3.336
 8271TIP3    H124756   5.356   3.045   3.252
 8271TIP3    H224757   5.249   3.067   3.356
 8272TIP3   OH224758   7.815   5.328   0.837
 8272TIP3    H124759   7.749   5.261   0.821
 8272TIP3    H224760   7.852   5.304   0.922
 8273TIP3   OH224761   7.463   6.090   0.395
 8273TIP3    H124762   7.438   6.085   0.303
 8273TIP3    H224763   7.382   6.073   0.443
 8274TIP3   OH224764   6.478   1.148   3.981
 8274TIP3    H124765   6.424   1.225   3.997
 8274TIP3    H224766   6.493   1.148   3.886
 8275TIP3   OH224767   1.310   3.903   5.416
 8275TIP3    H124768   1.222   3.937   5.432
 8275TIP3    H224769   1.309   3.814   5.453
 8276TIP3   OH224770   3.523   6.132   4.966
 8276TIP3    H124771   3.549   6.198   5.030
 8276TIP3    H224772   3.451   6.172   4.918
 8277TIP3   OH224773   2.791   7.785  -0.023
 8277TIP3    H124774   2.748   7.865   0.008
 8277TIP3    H224775   2.833   7.748   0.055
 8278TIP3   OH224776   3.810   6.281   4.324
 8278TIP3    H124777   3.870   6.214   4.357
 8278TIP3    H224778   3.738   6.282   4.386
 8279TIP3   OH224779   4.531   3.969   5.035
 8279TIP3    H124780   4.506   4.009   4.952
 8279TIP3    H224781   4.539   3.876   5.015
 8280TIP3   OH224782   6.909   4.873   2.850
 8280TIP3    H124783   6.853   4.847   2.777
 8280TIP3    H224784   6.997   4.878   2.812
 8281TIP3   OH224785   0.290   4.583   2.753
 8281TIP3    H124786   0.377   4.544   2.767
 8281TIP3    H224787   0.231   4.529   2.805
 8282TIP3   OH224788   3.343   0.342   5.362
 8282TIP3    H124789   3.414   0.328   5.299
 8282TIP3    H224790   3.354   0.273   5.427
 8283TIP3   OH224791   3.925   4.866   0.228
 8283TIP3    H124792   3.994   4.838   0.168
 8283TIP3    H224793   3.844   4.861   0.177
 8284TIP3   OH224794   6.238   4.352   0.889
 8284TIP3    H124795   6.284   4.413   0.832
 8284TIP3    H224796   6.221   4.402   0.969
 8285TIP3   OH224797   4.030   0.155   3.928
 8285TIP3    H124798   3.980   0.201   3.996
 8285TIP3    H224799   3.975   0.160   3.850
 8286TIP3   OH224800   4.527   1.974   1.488
 8286TIP3    H124801   4.434   1.990   1.472
 8286TIP3    H224802   4.529   1.908   1.557
 8287TIP3   OH224803   7.893   6.762   4.577
 8287TIP3    H124804   7.826   6.696   4.559
 8287TIP3    H224805   7.976   6.716   4.564
 8288TIP3   OH224806   0.824   3.605   1.322
 8288TIP3    H124807   0.791   3.543   1.257
 8288TIP3    H224808   0.907   3.567   1.351
 8289TIP3   OH224809   7.976   0.851   6.327
 8289TIP3    H124810   8.036   0.784   6.359
 8289TIP3    H224811   7.891   0.826   6.362
 8290TIP3   OH224812   1.734   3.076   3.411
 8290TIP3    H124813   1.781   3.014   3.355
 8290TIP3    H224814   1.799   3.105   3.475
 8291TIP3   OH224815   2.110   6.734   2.411
 8291TIP3    H124816   2.075   6.757   2.497
 8291TIP3    H224817   2.199   6.706   2.428
 8292TIP3   OH224818   2.539   0.879   3.326
 8292TIP3    H124819   2.586   0.799   3.301
 8292TIP3    H224820   2.475   0.892   3.255
 8293TIP3   OH224821   4.718   5.798   3.302
 8293TIP3    H124822   4.752   5.872   3.251
 8293TIP3    H224823   4.652   5.837   3.359
 8294TIP3   OH224824   8.250   4.618   1.194
 8294TIP3    H124825   8.227   4.649   1.107
 8294TIP3    H224826   8.170   4.577   1.227
 8295TIP3   OH224827   1.092   5.787   1.003
 8295TIP3    H124828   1.129   5.724   0.941
 8295TIP3    H224829   1.158   5.796   1.071
 8296TIP3   OH224830   7.722   2.425   4.477
 8296TIP3    H124831   7.706   2.348   4.530
 8296TIP3    H224832   7.699   2.499   4.534
 8297TIP3   OH224833   0.511   4.839   1.916
 8297TIP3    H124834   0.594   4.794   1.930
 8297TIP3    H224835   0.448   4.769   1.901
 8298TIP3   OH224836   1.115   7.307   5.312
 8298TIP3    H124837   1.078   7.340   5.394
 8298TIP3    H224838   1.207   7.333   5.315
 8299TIP3   OH224839   0.838   6.788   1.448
 8299TIP3    H124840   0.913   6.846   1.455
 8299TIP3    H224841   0.805   6.802   1.359
 8300TIP3   OH224842   5.430   2.560   0.074
 8300TIP3    H124843   5.500   2.495   0.070
 8300TIP3    H224844   5.455   2.618   0.145
 8301TIP3   OH224845   2.042   6.536   4.929
 8301TIP3    H124846   2.077   6.622   4.950
 8301TIP3    H224847   1.950   6.552   4.908
 8302TIP3   OH224848   4.326   4.595   2.900
 8302TIP3    H124849   4.238   4.568   2.924
 8302TIP3    H224850   4.313   4.671   2.843
 8303TIP3   OH224851   2.649   1.596   0.547
 8303TIP3    H124852   2.688   1.655   0.612
 8303TIP3    H224853   2.559   1.582   0.578
 8304TIP3   OH224854   6.817   3.642   4.550
 8304TIP3    H124855   6.810   3.696   4.471
 8304TIP3    H224856   6.771   3.561   4.528
 8305TIP3   OH224857   6.205   1.508   4.149
 8305TIP3    H124858   6.226   1.517   4.242
 8305TIP3    H224859   6.116   1.475   4.147
 8306TIP3   OH224860   0.357   3.924   0.437
 8306TIP3    H124861   0.379   3.939   0.529
 8306TIP3    H224862   0.336   4.011   0.403
 8307TIP3   OH224863   4.474   5.217   1.767
 8307TIP3    H124864   4.523   5.250   1.692
 8307TIP3    H224865   4.440   5.296   1.810
 8308TIP3   OH224866   5.674   3.875   1.993
 8308TIP3    H124867   5.722   3.870   1.910
 8308TIP3    H224868   5.649   3.967   2.001
 8309TIP3   OH224869   5.459   4.371   1.216
 8309TIP3    H124870   5.422   4.447   1.261
 8309TIP3    H224871   5.541   4.354   1.262
 8310TIP3   OH224872   5.305   4.128   0.159
 8310TIP3    H124873   5.381   4.098   0.109
 8310TIP3    H224874   5.241   4.153   0.092
 8311TIP3   OH224875   2.484   1.911   1.714
 8311TIP3    H124876   2.427   1.866   1.652
 8311TIP3    H224877   2.572   1.880   1.692
 8312TIP3   OH224878   6.274   2.101   5.810
 8312TIP3    H124879   6.223   2.172   5.849
 8312TIP3    H224880   6.229   2.021   5.837
 8313TIP3   OH224881   7.796   2.039   0.603
 8313TIP3    H124882   7.794   2.065   0.695
 8313TIP3    H224883   7.889   2.032   0.583
 8314TIP3   OH224884   2.561   5.515   3.766
 8314TIP3    H124885   2.613   5.477   3.837
 8314TIP3    H224886   2.508   5.583   3.808
 8315TIP3   OH224887   5.881   5.734   2.117
 8315TIP3    H124888   5.867   5.695   2.203
 8315TIP3    H224889   5.891   5.659   2.058
 8316TIP3   OH224890   2.553   7.562   4.168
 8316TIP3    H124891   2.640   7.529   4.191
 8316TIP3    H224892   2.507   7.486   4.132
 8317TIP3   OH224893   8.062   3.757   0.233
 8317TIP3    H124894   8.126   3.763   0.304
 8317TIP3    H224895   8.115   3.755   0.153
 8318TIP3   OH224896   6.570   1.851   2.783
 8318TIP3    H124897   6.493   1.826   2.732
 8318TIP3    H224898   6.644   1.822   2.731
 8319TIP3   OH224899   6.981   5.367   1.770
 8319TIP3    H124900   7.035   5.362   1.849
 8319TIP3    H224901   6.891   5.371   1.802
 8320TIP3   OH224902   6.471   1.502   2.877
 8320TIP3    H124903   6.548   1.549   2.909
 8320TIP3    H224904   6.506   1.428   2.827
 8321TIP3   OH224905   6.852   4.922   2.555
 8321TIP3    H124906   6.912   4.987   2.590
 8321TIP3    H224907   6.904   4.870   2.495
 8322TIP3   OH224908   0.861   5.160   0.616
 8322TIP3    H124909   0.884   5.071   0.642
 8322TIP3    H224910   0.802   5.190   0.685
 8323TIP3   OH224911   1.427   4.469   2.150
 8323TIP3    H124912   1.476   4.551   2.160
 8323TIP3    H224913   1.405   4.465   2.057
 8324TIP3   OH224914   4.782   4.298   5.598
 8324TIP3    H124915   4.741   4.219   5.562
 8324TIP3    H224916   4.719   4.368   5.580
 8325TIP3   OH224917   2.328   6.166   5.858
 8325TIP3    H124918   2.271   6.144   5.932
 8325TIP3    H224919   2.416   6.143   5.889
 8326TIP3   OH224920   6.080   7.800   4.735
 8326TIP3    H124921   6.001   7.854   4.741
 8326TIP3    H224922   6.068   7.751   4.654
 8327TIP3   OH224923   5.364   3.864   3.395
 8327TIP3    H124924   5.412   3.906   3.322
 8327TIP3    H224925   5.285   3.830   3.354
 8328TIP3   OH224926   6.750   2.611   0.193
 8328TIP3    H124927   6.772   2.703   0.182
 8328TIP3    H224928   6.804   2.565   0.129
 8329TIP3   OH224929   2.411   4.188   2.084
 8329TIP3    H124930   2.386   4.266   2.034
 8329TIP3    H224931   2.372   4.115   2.037
 8330TIP3   OH224932   3.915   7.038   6.497
 8330TIP3    H124933   3.874   6.952   6.486
 8330TIP3    H224934   3.848   7.090   6.543
 8331TIP3   OH224935   7.148   7.563   2.504
 8331TIP3    H124936   7.206   7.600   2.570
 8331TIP3    H224937   7.131   7.635   2.443
 8332TIP3   OH224938   8.279   4.304   0.853
 8332TIP3    H124939   8.218   4.248   0.901
 8332TIP3    H224940   8.347   4.325   0.918
 8333TIP3   OH224941   0.677   6.833   0.077
 8333TIP3    H124942   0.757   6.792   0.110
 8333TIP3    H224943   0.659   6.787  -0.006
 8334TIP3   OH224944   3.163   2.392   4.471
 8334TIP3    H124945   3.220   2.317   4.484
 8334TIP3    H224946   3.172   2.413   4.378
 8335TIP3   OH224947   6.446   5.326   6.245
 8335TIP3    H124948   6.526   5.304   6.198
 8335TIP3    H224949   6.450   5.276   6.326
 8336TIP3   OH224950   6.909   5.223   4.296
 8336TIP3    H124951   6.963   5.299   4.317
 8336TIP3    H224952   6.884   5.187   4.381
 8337TIP3   OH224953   5.421   0.921   6.256
 8337TIP3    H124954   5.478   0.889   6.186
 8337TIP3    H224955   5.387   0.842   6.298
 8338TIP3   OH224956   7.881   4.169   1.963
 8338TIP3    H124957   7.930   4.199   2.040
 8338TIP3    H224958   7.848   4.083   1.988
 8339TIP3   OH224959   0.806   2.524   0.780
 8339TIP3    H124960   0.869   2.590   0.752
 8339TIP3    H224961   0.756   2.504   0.701
 8340TIP3   OH224962   7.949   0.330   1.367
 8340TIP3    H124963   7.945   0.317   1.272
 8340TIP3    H224964   8.036   0.298   1.392
 8341TIP3   OH224965   0.753   0.966   2.044
 8341TIP3    H124966   0.669   0.933   2.010
 8341TIP3    H224967   0.814   0.954   1.972
 8342TIP3   OH224968   8.004   2.784   1.713
 8342TIP3    H124969   8.075   2.846   1.700
 8342TIP3    H224970   7.979   2.756   1.625
 8343TIP3   OH224971   3.612   4.954   5.605
 8343TIP3    H124972   3.646   5.043   5.603
 8343TIP3    H224973   3.629   4.920   5.517
 8344TIP3   OH224974   5.698   4.262   4.675
 8344TIP3    H124975   5.682   4.354   4.655
 8344TIP3    H224976   5.793   4.256   4.688
 8345TIP3   OH224977   7.767   7.668   2.163
 8345TIP3    H124978   7.817   7.729   2.110
 8345TIP3    H224979   7.813   7.585   2.155
 8346TIP3   OH224980   6.881   4.582   4.514
 8346TIP3    H124981   6.812   4.632   4.557
 8346TIP3    H224982   6.911   4.520   4.581
 8347TIP3   OH224983   6.589   5.166   5.275
 8347TIP3    H124984   6.518   5.202   5.327
 8347TIP3    H224985   6.630   5.101   5.332
 8348TIP3   OH224986   5.302   4.253   4.434
 8348TIP3    H124987   5.334   4.335   4.471
 8348TIP3    H224988   5.367   4.230   4.367
 8349TIP3   OH224989   6.566   6.962   4.125
 8349TIP3    H124990   6.587   7.008   4.043
 8349TIP3    H224991   6.557   6.870   4.099
 8350TIP3   OH224992   2.104   2.392   6.218
 8350TIP3    H124993   2.061   2.307   6.222
 8350TIP3    H224994   2.196   2.374   6.239
 8351TIP3   OH224995   1.753   2.390   0.798
 8351TIP3    H124996   1.791   2.439   0.725
 8351TIP3    H224997   1.822   2.389   0.865
 8352TIP3   OH224998   3.741   5.377   0.830
 8352TIP3    H124999   3.796   5.299   0.828
 8352TIP3    H225000   3.739   5.408   0.740
 8353TIP3   OH225001   1.981   4.518   4.491
 8353TIP3    H125002   2.001   4.609   4.514
 8353TIP3    H225003   1.891   4.521   4.458
 8354TIP3   OH225004   3.889   1.875   3.449
 8354TIP3    H125005   3.898   1.815   3.523
 8354TIP3    H225006   3.963   1.935   3.457
 8355TIP3   OH225007   7.434   6.450   3.524
 8355TIP3    H125008   7.459   6.542   3.530
 8355TIP3    H225009   7.403   6.439   3.434
 8356TIP3   OH225010   5.054   0.026   4.254
 8356TIP3    H125011   5.133  -0.022   4.280
 8356TIP3    H225012   5.056   0.106   4.308
 8357TIP3   OH225013   3.099   3.521   4.591
 8357TIP3    H125014   3.047   3.590   4.632
 8357TIP3    H225015   3.058   3.439   4.620
 8358TIP3   OH225016   4.334   4.372   1.579
 8358TIP3    H125017   4.263   4.363   1.516
 8358TIP3    H225018   4.381   4.289   1.574
 8359TIP3   OH225019   0.395   1.425   0.910
 8359TIP3    H125020   0.333   1.418   0.837
 8359TIP3    H225021   0.342   1.406   0.988
 8360TIP3   OH225022   6.142   3.424   4.418
 8360TIP3    H125023   6.167   3.368   4.491
 8360TIP3    H225024   6.137   3.512   4.456
 8361TIP3   OH225025   3.773   4.244   2.810
 8361TIP3    H125026   3.855   4.291   2.791
 8361TIP3    H225027   3.731   4.235   2.724
 8362TIP3   OH225028   1.178   6.160   3.681
 8362TIP3    H125029   1.219   6.117   3.606
 8362TIP3    H225030   1.120   6.094   3.718
 8363TIP3   OH225031   0.716   3.878   2.063
 8363TIP3    H125032   0.676   3.794   2.087
 8363TIP3    H225033   0.644   3.941   2.068
 8364TIP3   OH225034   4.057   4.034   6.412
 8364TIP3    H125035   4.078   4.050   6.505
 8364TIP3    H225036   4.005   4.110   6.386
 8365TIP3   OH225037   6.247   3.024   3.865
 8365TIP3    H125038   6.323   3.001   3.811
 8365TIP3    H225039   6.188   2.948   3.858
 8366TIP3   OH225040   6.486   0.788   5.019
 8366TIP3    H125041   6.481   0.843   5.097
 8366TIP3    H225042   6.545   0.716   5.043
 8367TIP3   OH225043   1.294   7.288   1.285
 8367TIP3    H125044   1.383   7.322   1.300
 8367TIP3    H225045   1.257   7.282   1.373
 8368TIP3   OH225046   1.296   0.964   2.528
 8368TIP3    H125047   1.357   0.893   2.545
 8368TIP3    H225048   1.344   1.024   2.470
 8369TIP3   OH225049   5.124   7.030   5.982
 8369TIP3    H125050   5.071   7.064   6.054
 8369TIP3    H225051   5.132   6.936   6.000
 8370TIP3   OH225052   7.389   5.033   5.427
 8370TIP3    H125053   7.370   4.944   5.456
 8370TIP3    H225054   7.330   5.047   5.353
 8371TIP3   OH225055   5.742   1.699   4.156
 8371TIP3    H125056   5.718   1.734   4.241
 8371TIP3    H225057   5.739   1.604   4.167
 8372TIP3   OH225058   4.436   2.229   1.721
 8372TIP3    H125059   4.384   2.150   1.706
 8372TIP3    H225060   4.434   2.241   1.816
 8373TIP3   OH225061   2.391   1.714   5.945
 8373TIP3    H125062   2.422   1.798   5.912
 8373TIP3    H225063   2.408   1.718   6.039
 8374TIP3   OH225064   7.056   1.635   2.766
 8374TIP3    H125065   7.044   1.545   2.797
 8374TIP3    H225066   7.128   1.669   2.818
 8375TIP3   OH225067   5.119   1.571   4.967
 8375TIP3    H125068   5.162   1.582   5.052
 8375TIP3    H225069   5.143   1.483   4.939
 8376TIP3   OH225070   4.497   2.613   1.701
 8376TIP3    H125071   4.557   2.545   1.733
 8376TIP3    H225072   4.546   2.658   1.632
 8377TIP3   OH225073   5.786   0.233   5.782
 8377TIP3    H125074   5.737   0.176   5.722
 8377TIP3    H225075   5.784   0.319   5.740
 8378TIP3   OH225076   2.857   2.448   3.069
 8378TIP3    H125077   2.919   2.494   3.011
 8378TIP3    H225078   2.913   2.397   3.128
 8379TIP3   OH225079   3.644   7.251   0.787
 8379TIP3    H125080   3.697   7.326   0.812
 8379TIP3    H225081   3.707   7.182   0.766
 8380TIP3   OH225082   5.079   6.111   5.178
 8380TIP3    H125083   5.122   6.041   5.128
 8380TIP3    H225084   5.064   6.074   5.265
 8381TIP3   OH225085   6.882   7.148   0.188
 8381TIP3    H125086   6.809   7.092   0.214
 8381TIP3    H225087   6.851   7.191   0.108
 8382TIP3   OH225088   2.371   3.361   4.634
 8382TIP3    H125089   2.427   3.371   4.557
 8382TIP3    H225090   2.282   3.359   4.599
 8383TIP3   OH225091   7.959   4.016   6.439
 8383TIP3    H125092   8.001   3.936   6.408
 8383TIP3    H225093   7.970   4.014   6.534
 8384TIP3   OH225094   7.536   0.297   3.536
 8384TIP3    H125095   7.562   0.388   3.523
 8384TIP3    H225096   7.580   0.271   3.616
 8385TIP3   OH225097   7.267   1.586   0.382
 8385TIP3    H125098   7.286   1.678   0.397
 8385TIP3    H225099   7.186   1.586   0.330
 8386TIP3   OH225100   2.876   0.528   0.140
 8386TIP3    H125101   2.926   0.605   0.167
 8386TIP3    H225102   2.932   0.483   0.078
 8387TIP3   OH225103   1.123   7.280   3.892
 8387TIP3    H125104   1.198   7.293   3.834
 8387TIP3    H225105   1.070   7.214   3.848
 8388TIP3   OH225106   0.079   2.924   5.688
 8388TIP3    H125107   0.173   2.912   5.670
 8388TIP3    H225108   0.074   2.941   5.782
 8389TIP3   OH225109   2.862   3.350   6.350
 8389TIP3    H125110   2.801   3.398   6.407
 8389TIP3    H225111   2.925   3.416   6.322
 8390TIP3   OH225112   6.325   4.826   3.127
 8390TIP3    H125113   6.238   4.800   3.098
 8390TIP3    H225114   6.360   4.877   3.055
 8391TIP3   OH225115   7.560   0.194   0.742
 8391TIP3    H125116   7.633   0.160   0.689
 8391TIP3    H225117   7.508   0.246   0.680
 8392TIP3   OH225118   4.596   0.407   3.207
 8392TIP3    H125119   4.510   0.366   3.194
 8392TIP3    H225120   4.652   0.366   3.140
 8393TIP3   OH225121   3.313   5.877   4.969
 8393TIP3    H125122   3.251   5.949   4.975
 8393TIP3    H225123   3.398   5.918   4.955
 8394TIP3   OH225124   5.679   4.533   3.422
 8394TIP3    H125125   5.600   4.505   3.376
 8394TIP3    H225126   5.698   4.462   3.483
 8395TIP3   OH225127   2.548   5.425   3.344
 8395TIP3    H125128   2.520   5.507   3.385
 8395TIP3    H225129   2.568   5.448   3.254
 8396TIP3   OH225130   3.917   3.858   5.549
 8396TIP3    H125131   3.904   3.815   5.464
 8396TIP3    H225132   3.857   3.812   5.608
 8397TIP3   OH225133   7.631   3.532   5.467
 8397TIP3    H125134   7.721   3.562   5.474
 8397TIP3    H225135   7.634   3.460   5.403
 8398TIP3   OH225136   1.662   0.498   2.922
 8398TIP3    H125137   1.669   0.480   2.829
 8398TIP3    H225138   1.607   0.576   2.928
 8399TIP3   OH225139   3.157   6.703   1.543
 8399TIP3    H125140   3.163   6.700   1.448
 8399TIP3    H225141   3.244   6.675   1.573
 8400TIP3   OH225142   1.760   4.913   2.235
 8400TIP3    H125143   1.707   4.888   2.310
 8400TIP3    H225144   1.801   4.996   2.260
 8401TIP3   OH225145   2.273   2.965   3.279
 8401TIP3    H125146   2.248   3.046   3.235
 8401TIP3    H225147   2.339   2.926   3.222
 8402TIP3   OH225148   7.598   5.589   1.878
 8402TIP3    H125149   7.646   5.538   1.813
 8402TIP3    H225150   7.665   5.624   1.936
 8403TIP3   OH225151   2.292   1.126   0.803
 8403TIP3    H125152   2.344   1.070   0.860
 8403TIP3    H225153   2.311   1.096   0.714
 8404TIP3   OH225154   5.456   1.475   4.820
 8404TIP3    H125155   5.412   1.540   4.765
 8404TIP3    H225156   5.388   1.412   4.843
 8405TIP3   OH225157   5.153   4.983   5.859
 8405TIP3    H125158   5.244   4.993   5.830
 8405TIP3    H225159   5.117   5.071   5.856
 8406TIP3   OH225160   6.153   7.221   2.469
 8406TIP3    H125161   6.096   7.233   2.546
 8406TIP3    H225162   6.122   7.140   2.429
 8407TIP3   OH225163   4.322   4.351   0.926
 8407TIP3    H125164   4.379   4.298   0.870
 8407TIP3    H225165   4.343   4.441   0.903
 8408TIP3   OH225166   7.801   0.534   2.989
 8408TIP3    H125167   7.708   0.519   2.970
 8408TIP3    H225168   7.847   0.463   2.946
 8409TIP3   OH225169   2.515   0.519   4.364
 8409TIP3    H125170   2.599   0.478   4.383
 8409TIP3    H225171   2.528   0.612   4.383
 8410TIP3   OH225172   7.713   2.085   3.173
 8410TIP3    H125173   7.772   2.014   3.149
 8410TIP3    H225174   7.655   2.095   3.098
 8411TIP3   OH225175   1.216   7.162   5.933
 8411TIP3    H125176   1.275   7.162   5.858
 8411TIP3    H225177   1.267   7.202   6.003
 8412TIP3   OH225178   6.120   4.555   5.673
 8412TIP3    H125179   6.142   4.586   5.585
 8412TIP3    H225180   6.046   4.609   5.700
 8413TIP3   OH225181   7.362   0.823   3.983
 8413TIP3    H125182   7.379   0.740   3.939
 8413TIP3    H225183   7.271   0.816   4.012
 8414TIP3   OH225184   2.859   7.378   2.122
 8414TIP3    H125185   2.858   7.473   2.108
 8414TIP3    H225186   2.775   7.359   2.163
 8415TIP3   OH225187   0.454   7.342   4.389
 8415TIP3    H125188   0.407   7.259   4.392
 8415TIP3    H225189   0.493   7.351   4.476
 8416TIP3   OH225190   0.008   5.658   1.070
 8416TIP3    H125191   0.054   5.699   0.996
 8416TIP3    H225192   0.048   5.698   1.147
 8417TIP3   OH225193   0.500   5.880   4.993
 8417TIP3    H125194   0.536   5.888   5.081
 8417TIP3    H225195   0.408   5.906   5.002
 8418TIP3   OH225196   5.990   7.229   2.708
 8418TIP3    H125197   6.040   7.214   2.788
 8418TIP3    H225198   5.931   7.154   2.701
 8419TIP3   OH225199   7.754   4.198   2.379
 8419TIP3    H125200   7.712   4.186   2.293
 8419TIP3    H225201   7.685   4.177   2.442
 8420TIP3   OH225202   3.469   3.480   1.590
 8420TIP3    H125203   3.495   3.389   1.607
 8420TIP3    H225204   3.417   3.475   1.510
 8421TIP3   OH225205   7.012   3.284   0.998
 8421TIP3    H125206   7.089   3.340   0.996
 8421TIP3    H225207   6.966   3.309   1.078
 8422TIP3   OH225208   4.476   2.521   0.170
 8422TIP3    H125209   4.546   2.528   0.104
 8422TIP3    H225210   4.467   2.427   0.186
 8423TIP3   OH225211   2.083   0.723   6.710
 8423TIP3    H125212   2.116   0.799   6.759
 8423TIP3    H225213   2.032   0.674   6.775
 8424TIP3   OH225214   3.835   5.276   4.209
 8424TIP3    H125215   3.910   5.335   4.202
 8424TIP3    H225216   3.850   5.211   4.141
 8425TIP3   OH225217   0.948   3.854   1.167
 8425TIP3    H125218   0.927   3.769   1.206
 8425TIP3    H225219   0.896   3.917   1.217
 8426TIP3   OH225220   2.890   5.941   0.505
 8426TIP3    H125221   2.978   5.940   0.468
 8426TIP3    H225222   2.832   5.931   0.430
 8427TIP3   OH225223   0.946   6.095   4.616
 8427TIP3    H125224   0.953   6.116   4.709
 8427TIP3    H225225   0.961   6.178   4.571
 8428TIP3   OH225226   3.593   0.560   0.384
 8428TIP3    H125227   3.583   0.591   0.474
 8428TIP3    H225228   3.656   0.621   0.345
 8429TIP3   OH225229   0.125   1.904   4.486
 8429TIP3    H125230   0.191   1.893   4.418
 8429TIP3    H225231   0.081   1.985   4.465
 8430TIP3   OH225232   2.087   4.740   1.091
 8430TIP3    H125233   2.179   4.716   1.087
 8430TIP3    H225234   2.047   4.674   1.148
 8431TIP3   OH225235   7.676   1.314   4.408
 8431TIP3    H125236   7.590   1.357   4.401
 8431TIP3    H225237   7.662   1.242   4.470
 8432TIP3   OH225238   3.180   6.249   5.726
 8432TIP3    H125239   3.121   6.203   5.667
 8432TIP3    H225240   3.122   6.293   5.788
 8433TIP3   OH225241   3.596   6.367   5.870
 8433TIP3    H125242   3.627   6.297   5.813
 8433TIP3    H225243   3.550   6.427   5.811
 8434TIP3   OH225244   6.371   5.216   0.807
 8434TIP3    H125245   6.459   5.209   0.771
 8434TIP3    H225246   6.315   5.231   0.731
 8435TIP3   OH225247   3.844   7.000   3.213
 8435TIP3    H125248   3.808   6.919   3.175
 8435TIP3    H225249   3.842   6.985   3.307
 8436TIP3   OH225250   7.090   3.902   1.410
 8436TIP3    H125251   7.035   3.967   1.366
 8436TIP3    H225252   7.038   3.875   1.486
 8437TIP3   OH225253   1.182   7.045   1.225
 8437TIP3    H125254   1.144   7.026   1.139
 8437TIP3    H225255   1.173   7.140   1.235
 8438TIP3   OH225256   6.807   5.287   1.967
 8438TIP3    H125257   6.714   5.304   1.975
 8438TIP3    H225258   6.849   5.352   2.023
 8439TIP3   OH225259   1.878   3.316   1.172
 8439TIP3    H125260   1.900   3.276   1.256
 8439TIP3    H225261   1.873   3.242   1.111
 8440TIP3   OH225262   4.057   6.016   3.764
 8440TIP3    H125263   4.096   6.094   3.725
 8440TIP3    H225264   4.047   5.955   3.691
 8441TIP3   OH225265   4.815   4.974   5.431
 8441TIP3    H125266   4.726   4.965   5.465
 8441TIP3    H225267   4.869   4.987   5.509
 8442TIP3   OH225268   4.986   2.904   2.128
 8442TIP3    H125269   4.942   2.819   2.114
 8442TIP3    H225270   5.073   2.880   2.160
 8443TIP3   OH225271   2.263   6.679   0.431
 8443TIP3    H125272   2.205   6.726   0.492
 8443TIP3    H225273   2.223   6.694   0.345
 8444TIP3   OH225274   3.196   2.297   1.940
 8444TIP3    H125275   3.232   2.295   1.851
 8444TIP3    H225276   3.216   2.385   1.972
 8445TIP3   OH225277   6.908   2.006   1.125
 8445TIP3    H125278   6.924   2.009   1.220
 8445TIP3    H225279   6.957   1.929   1.095
 8446TIP3   OH225280   4.723   5.808   5.369
 8446TIP3    H125281   4.800   5.806   5.312
 8446TIP3    H225282   4.649   5.795   5.311
 8447TIP3   OH225283   6.975   5.793   2.256
 8447TIP3    H125284   7.044   5.821   2.195
 8447TIP3    H225285   6.996   5.838   2.338
 8448TIP3   OH225286   1.280   1.137   1.783
 8448TIP3    H125287   1.363   1.092   1.796
 8448TIP3    H225288   1.227   1.112   1.858
 8449TIP3   OH225289   4.091   5.189   0.401
 8449TIP3    H125290   4.141   5.156   0.326
 8449TIP3    H225291   4.080   5.113   0.458
 8450TIP3   OH225292   6.898   3.948   0.818
 8450TIP3    H125293   6.808   3.976   0.803
 8450TIP3    H225294   6.946   4.029   0.838
 8451TIP3   OH225295   5.489   7.680   1.823
 8451TIP3    H125296   5.406   7.723   1.845
 8451TIP3    H225297   5.528   7.658   1.908
 8452TIP3   OH225298   6.107   3.526   3.823
 8452TIP3    H125299   6.197   3.559   3.821
 8452TIP3    H225300   6.117   3.433   3.842
 8453TIP3   OH225301   0.072   2.751   6.179
 8453TIP3    H125302   0.153   2.764   6.129
 8453TIP3    H225303   0.067   2.656   6.193
 8454TIP3   OH225304   6.266   1.317   0.339
 8454TIP3    H125305   6.243   1.233   0.299
 8454TIP3    H225306   6.305   1.293   0.424
 8455TIP3   OH225307   3.113   6.360   1.938
 8455TIP3    H125308   3.163   6.435   1.907
 8455TIP3    H225309   3.024   6.393   1.948
 8456TIP3   OH225310   4.660   5.191   5.549
 8456TIP3    H125311   4.569   5.199   5.577
 8456TIP3    H225312   4.656   5.135   5.471
 8457TIP3   OH225313   8.182   7.803   2.546
 8457TIP3    H125314   8.184   7.807   2.641
 8457TIP3    H225315   8.198   7.711   2.525
 8458TIP3   OH225316   1.796   6.217   2.077
 8458TIP3    H125317   1.822   6.131   2.109
 8458TIP3    H225318   1.878   6.261   2.056
 8459TIP3   OH225319   7.624   1.374   6.194
 8459TIP3    H125320   7.652   1.333   6.276
 8459TIP3    H225321   7.574   1.305   6.149
 8460TIP3   OH225322   1.196   6.494   1.561
 8460TIP3    H125323   1.186   6.569   1.619
 8460TIP3    H225324   1.181   6.418   1.617
 8461TIP3   OH225325   5.408   3.720   1.238
 8461TIP3    H125326   5.365   3.766   1.310
 8461TIP3    H225327   5.498   3.752   1.239
 8462TIP3   OH225328   3.736   3.850   3.298
 8462TIP3    H125329   3.750   3.778   3.236
 8462TIP3    H225330   3.717   3.925   3.243
 8463TIP3   OH225331   0.612   2.718   6.303
 8463TIP3    H125332   0.605   2.730   6.209
 8463TIP3    H225333   0.665   2.639   6.314
 8464TIP3   OH225334   5.245   0.170   6.697
 8464TIP3    H125335   5.295   0.241   6.736
 8464TIP3    H225336   5.174   0.213   6.650
 8465TIP3   OH225337   2.051   3.885   5.831
 8465TIP3    H125338   2.115   3.862   5.764
 8465TIP3    H225339   1.988   3.813   5.831
 8466TIP3   OH225340   0.648   0.626   3.708
 8466TIP3    H125341   0.671   0.685   3.780
 8466TIP3    H225342   0.728   0.578   3.689
 8467TIP3   OH225343   0.991   6.396   3.531
 8467TIP3    H125344   0.967   6.313   3.489
 8467TIP3    H225345   1.078   6.416   3.496
 8468TIP3   OH225346   6.467   0.213   0.913
 8468TIP3    H125347   6.428   0.211   0.826
 8468TIP3    H225348   6.392   0.222   0.972
 8469TIP3   OH225349   0.555   2.615   0.534
 8469TIP3    H125350   0.583   2.624   0.443
 8469TIP3    H225351   0.502   2.536   0.535
 8470TIP3   OH225352   0.524   0.775   4.346
 8470TIP3    H125353   0.481   0.799   4.264
 8470TIP3    H225354   0.588   0.708   4.321
 8471TIP3   OH225355   1.745   6.660   2.982
 8471TIP3    H125356   1.666   6.624   2.941
 8471TIP3    H225357   1.729   6.651   3.076
 8472TIP3   OH225358   2.589   3.627   0.868
 8472TIP3    H125359   2.671   3.590   0.899
 8472TIP3    H225360   2.614   3.703   0.815
 8473TIP3   OH225361   4.016   0.002   4.196
 8473TIP3    H125362   4.015   0.017   4.101
 8473TIP3    H225363   4.077  -0.070   4.208
 8474TIP3   OH225364   6.108   0.190   4.673
 8474TIP3    H125365   6.030   0.135   4.681
 8474TIP3    H225366   6.175   0.144   4.723
 8475TIP3   OH225367   3.070   1.663   5.253
 8475TIP3    H125368   3.121   1.676   5.333
 8475TIP3    H225369   3.011   1.590   5.275
 8476TIP3   OH225370   6.458   2.153   2.022
 8476TIP3    H125371   6.488   2.086   2.084
 8476TIP3    H225372   6.372   2.122   1.994
 8477TIP3   OH225373   7.772   1.180   3.844
 8477TIP3    H125374   7.807   1.148   3.761
 8477TIP3    H225375   7.849   1.195   3.899
 8478TIP3   OH225376   6.641   5.959   2.025
 8478TIP3    H125377   6.654   6.048   2.059
 8478TIP3    H225378   6.549   5.940   2.041
 8479TIP3   OH225379   7.780   6.228   0.239
 8479TIP3    H125380   7.765   6.322   0.240
 8479TIP3    H225381   7.699   6.190   0.272
 8480TIP3   OH225382   6.223   0.218   5.255
 8480TIP3    H125383   6.186   0.252   5.173
 8480TIP3    H225384   6.285   0.286   5.282
 8481TIP3   OH225385   6.662   0.371   1.750
 8481TIP3    H125386   6.709   0.405   1.674
 8481TIP3    H225387   6.602   0.441   1.775
 8482TIP3   OH225388   3.663   6.825   4.004
 8482TIP3    H125389   3.647   6.883   4.079
 8482TIP3    H225390   3.621   6.742   4.028
 8483TIP3   OH225391   7.891   7.476   5.051
 8483TIP3    H125392   7.973   7.512   5.087
 8483TIP3    H225393   7.830   7.480   5.125
 8484TIP3   OH225394   5.976   6.837   4.453
 8484TIP3    H125395   5.916   6.851   4.526
 8484TIP3    H225396   5.927   6.784   4.391
 8485TIP3   OH225397   1.984   3.820   0.616
 8485TIP3    H125398   1.912   3.787   0.670
 8485TIP3    H225399   2.028   3.884   0.671
 8486TIP3   OH225400   4.580   4.742   1.307
 8486TIP3    H125401   4.584   4.650   1.332
 8486TIP3    H225402   4.532   4.743   1.224
 8487TIP3   OH225403   1.227   5.436   6.451
 8487TIP3    H125404   1.210   5.530   6.450
 8487TIP3    H225405   1.219   5.410   6.542
 8488TIP3   OH225406   5.929   5.436   2.814
 8488TIP3    H125407   5.928   5.505   2.748
 8488TIP3    H225408   5.851   5.451   2.867
 8489TIP3   OH225409   6.999   0.609   3.874
 8489TIP3    H125410   7.039   0.522   3.876
 8489TIP3    H225411   6.953   0.615   3.957
 8490TIP3   OH225412   7.801   5.555   0.693
 8490TIP3    H125413   7.811   5.472   0.741
 8490TIP3    H225414   7.715   5.587   0.719
 8491TIP3   OH225415   2.437   3.028   0.700
 8491TIP3    H125416   2.406   2.954   0.648
 8491TIP3    H225417   2.369   3.041   0.766
 8492TIP3   OH225418   3.281   3.321   0.342
 8492TIP3    H125419   3.358   3.266   0.328
 8492TIP3    H225420   3.242   3.286   0.422
 8493TIP3   OH225421   5.234   2.743   1.311
 8493TIP3    H125422   5.325   2.769   1.327
 8493TIP3    H225423   5.188   2.825   1.293
 8494TIP3   OH225424   0.217   2.581   1.219
 8494TIP3    H125425   0.200   2.675   1.218
 8494TIP3    H225426   0.204   2.555   1.311
 8495TIP3   OH225427   7.179   6.609   1.744
 8495TIP3    H125428   7.275   6.610   1.744
 8495TIP3    H225429   7.156   6.526   1.786
 8496TIP3   OH225430   5.301   0.954   2.866
 8496TIP3    H125431   5.362   1.017   2.903
 8496TIP3    H225432   5.228   0.951   2.929
 8497TIP3   OH225433   6.938   1.716   3.153
 8497TIP3    H125434   6.896   1.776   3.213
 8497TIP3    H225435   7.030   1.715   3.179
 8498TIP3   OH225436   2.527   3.280   6.242
 8498TIP3    H125437   2.574   3.360   6.262
 8498TIP3    H225438   2.465   3.305   6.173
 8499TIP3   OH225439   5.746   5.447   5.855
 8499TIP3    H125440   5.827   5.439   5.906
 8499TIP3    H225441   5.773   5.431   5.765
 8500TIP3   OH225442   0.636   3.695   1.497
 8500TIP3    H125443   0.672   3.683   1.585
 8500TIP3    H225444   0.699   3.652   1.439
 8501TIP3   OH225445   4.600   1.872   5.066
 8501TIP3    H125446   4.587   1.950   5.119
 8501TIP3    H225447   4.644   1.904   4.987
 8502TIP3   OH225448   4.250   3.608   3.869
 8502TIP3    H125449   4.281   3.610   3.960
 8502TIP3    H225450   4.228   3.699   3.849
 8503TIP3   OH225451   1.734   1.277   1.487
 8503TIP3    H125452   1.743   1.369   1.512
 8503TIP3    H225453   1.701   1.280   1.397
 8504TIP3   OH225454   3.767   4.081   6.747
 8504TIP3    H125455   3.854   4.091   6.707
 8504TIP3    H225456   3.733   4.171   6.752
 8505TIP3   OH225457   6.560   4.372   2.810
 8505TIP3    H125458   6.643   4.337   2.841
 8505TIP3    H225459   6.567   4.369   2.714
 8506TIP3   OH225460   7.510   5.915   3.691
 8506TIP3    H125461   7.571   5.844   3.671
 8506TIP3    H225462   7.425   5.884   3.659
 8507TIP3   OH225463   4.419   2.632   4.297
 8507TIP3    H125464   4.336   2.653   4.253
 8507TIP3    H225465   4.484   2.632   4.226
 8508TIP3   OH225466   2.308   4.730   0.713
 8508TIP3    H125467   2.363   4.803   0.743
 8508TIP3    H225468   2.308   4.739   0.617
 8509TIP3   OH225469   4.777   6.700   3.839
 8509TIP3    H125470   4.736   6.786   3.850
 8509TIP3    H225471   4.870   6.720   3.827
 8510TIP3   OH225472   0.756   3.408   0.167
 8510TIP3    H125473   0.666   3.434   0.143
 8510TIP3    H225474   0.810   3.483   0.141
 8511TIP3   OH225475   0.771   0.045   2.588
 8511TIP3    H125476   0.766   0.056   2.493
 8511TIP3    H225477   0.692  -0.004   2.611
 8512TIP3   OH225478   5.226   7.830   1.847
 8512TIP3    H125479   5.226   7.849   1.753
 8512TIP3    H225480   5.147   7.778   1.860
 8513TIP3   OH225481   0.974   0.514   4.485
 8513TIP3    H125482   1.003   0.432   4.524
 8513TIP3    H225483   0.898   0.540   4.536
 8514TIP3   OH225484   2.522   1.975   0.640
 8514TIP3    H125485   2.576   1.944   0.713
 8514TIP3    H225486   2.433   1.947   0.663
 8515TIP3   OH225487   8.049   2.368   6.756
 8515TIP3    H125488   8.104   2.424   6.701
 8515TIP3    H225489   7.960   2.383   6.725
 8516TIP3   OH225490   6.213   4.229   2.417
 8516TIP3    H125491   6.277   4.294   2.387
 8516TIP3    H225492   6.258   4.145   2.410
 8517TIP3   OH225493   4.813   2.164   4.536
 8517TIP3    H125494   4.791   2.152   4.444
 8517TIP3    H225495   4.888   2.107   4.551
 8518TIP3   OH225496   7.288   3.007   3.680
 8518TIP3    H125497   7.349   3.001   3.754
 8518TIP3    H225498   7.330   2.956   3.611
 8519TIP3   OH225499   3.483   3.580   2.746
 8519TIP3    H125500   3.556   3.632   2.712
 8519TIP3    H225501   3.525   3.511   2.798
 8520TIP3   OH225502   7.754   4.640   4.664
 8520TIP3    H125503   7.780   4.549   4.681
 8520TIP3    H225504   7.759   4.649   4.569
 8521TIP3   OH225505   4.826   2.456   1.003
 8521TIP3    H125506   4.909   2.496   1.029
 8521TIP3    H225507   4.850   2.393   0.934
 8522TIP3   OH225508   6.084   1.256   2.849
 8522TIP3    H125509   6.004   1.301   2.876
 8522TIP3    H225510   6.060   1.212   2.767
 8523TIP3   OH225511   7.452   5.219   0.432
 8523TIP3    H125512   7.473   5.145   0.375
 8523TIP3    H225513   7.529   5.276   0.427
 8524TIP3   OH225514   3.617   2.238   2.571
 8524TIP3    H125515   3.603   2.321   2.616
 8524TIP3    H225516   3.546   2.233   2.507
 8525TIP3   OH225517   0.729   3.429   5.500
 8525TIP3    H125518   0.703   3.413   5.591
 8525TIP3    H225519   0.655   3.476   5.462
 8526TIP3   OH225520   1.502   2.290   0.494
 8526TIP3    H125521   1.423   2.292   0.440
 8526TIP3    H225522   1.470   2.288   0.584
 8527TIP3   OH225523   3.827   3.439   6.610
 8527TIP3    H125524   3.919   3.457   6.593
 8527TIP3    H225525   3.819   3.344   6.598
 8528TIP3   OH225526   5.377   7.006   3.125
 8528TIP3    H125527   5.335   7.026   3.208
 8528TIP3    H225528   5.306   7.009   3.061
 8529TIP3   OH225529   5.950   2.902   2.882
 8529TIP3    H125530   6.041   2.927   2.863
 8529TIP3    H225531   5.947   2.808   2.865
 8530TIP3   OH225532   1.602   3.270   2.911
 8530TIP3    H125533   1.640   3.207   2.850
 8530TIP3    H225534   1.588   3.349   2.858
 8531TIP3   OH225535   6.651   2.108   1.083
 8531TIP3    H125536   6.741   2.076   1.089
 8531TIP3    H225537   6.614   2.062   1.008
 8532TIP3   OH225538   7.439   4.515   0.769
 8532TIP3    H125539   7.450   4.592   0.825
 8532TIP3    H225540   7.518   4.515   0.714
 8533TIP3   OH225541   2.970   6.851   5.649
 8533TIP3    H125542   2.936   6.830   5.736
 8533TIP3    H225543   3.015   6.771   5.622
 8534TIP3   OH225544   1.221   7.123   2.276
 8534TIP3    H125545   1.225   7.028   2.287
 8534TIP3    H225546   1.291   7.157   2.333
 8535TIP3   OH225547   4.420   5.291   0.950
 8535TIP3    H125548   4.474   5.360   0.988
 8535TIP3    H225549   4.453   5.281   0.861
 8536TIP3   OH225550   1.784   6.198   3.359
 8536TIP3    H125551   1.834   6.127   3.319
 8536TIP3    H225552   1.747   6.246   3.285
 8537TIP3   OH225553   3.612   4.224   2.605
 8537TIP3    H125554   3.547   4.286   2.572
 8537TIP3    H225555   3.564   4.142   2.615
 8538TIP3   OH225556   0.894   2.537   2.993
 8538TIP3    H125557   0.944   2.599   3.047
 8538TIP3    H225558   0.864   2.589   2.919
 8539TIP3   OH225559   4.153   0.871   3.261
 8539TIP3    H125560   4.086   0.842   3.199
 8539TIP3    H225561   4.103   0.903   3.336
 8540TIP3   OH225562   3.270   5.714   4.507
 8540TIP3    H125563   3.270   5.733   4.413
 8540TIP3    H225564   3.304   5.794   4.547
 8541TIP3   OH225565   2.054   3.599   0.312
 8541TIP3    H125566   2.120   3.550   0.360
 8541TIP3    H225567   1.999   3.638   0.381
 8542TIP3   OH225568   6.726   2.798   4.894
 8542TIP3    H125569   6.778   2.728   4.853
 8542TIP3    H225570   6.770   2.814   4.978
 8543TIP3   OH225571   3.600   5.499   2.145
 8543TIP3    H125572   3.545   5.440   2.196
 8543TIP3    H225573   3.677   5.447   2.122
 8544TIP3   OH225574   6.816   3.136   2.907
 8544TIP3    H125575   6.760   3.188   2.964
 8544TIP3    H225576   6.782   3.152   2.819
 8545TIP3   OH225577   3.132   2.242   3.744
 8545TIP3    H125578   3.106   2.150   3.742
 8545TIP3    H225579   3.224   2.241   3.768
 8546TIP3   OH225580   2.837   1.138   2.205
 8546TIP3    H125581   2.862   1.230   2.195
 8546TIP3    H225582   2.917   1.094   2.232
 8547TIP3   OH225583   0.017   4.828   2.965
 8547TIP3    H125584   0.004   4.759   2.900
 8547TIP3    H225585   0.077   4.890   2.922
 8548TIP3   OH225586   3.072   6.033   3.825
 8548TIP3    H125587   3.065   5.983   3.743
 8548TIP3    H225588   3.001   5.999   3.880
 8549TIP3   OH225589   6.508   4.483   3.871
 8549TIP3    H125590   6.418   4.454   3.851
 8549TIP3    H225591   6.563   4.415   3.831
 8550TIP3   OH225592   6.501   4.139   1.370
 8550TIP3    H125593   6.472   4.222   1.333
 8550TIP3    H225594   6.496   4.077   1.297
 8551TIP3   OH225595   3.044   2.197   1.346
 8551TIP3    H125596   2.960   2.159   1.321
 8551TIP3    H225597   3.083   2.131   1.404
 8552TIP3   OH225598   0.913   5.142   3.158
 8552TIP3    H125599   0.825   5.108   3.141
 8552TIP3    H225600   0.967   5.065   3.173
 8553TIP3   OH225601   5.035   6.529   1.631
 8553TIP3    H125602   4.977   6.587   1.582
 8553TIP3    H225603   5.020   6.443   1.591
 8554TIP3   OH225604   7.836   2.365   5.757
 8554TIP3    H125605   7.915   2.374   5.702
 8554TIP3    H225606   7.765   2.352   5.694
 8555TIP3   OH225607   7.821   7.428   3.718
 8555TIP3    H125608   7.883   7.500   3.734
 8555TIP3    H225609   7.844   7.362   3.784
 8556TIP3   OH225610   4.688   6.518   0.155
 8556TIP3    H125611   4.669   6.488   0.244
 8556TIP3    H225612   4.647   6.604   0.150
 8557TIP3   OH225613   4.574   3.006   3.214
 8557TIP3    H125614   4.493   2.977   3.173
 8557TIP3    H225615   4.548   3.029   3.303
 8558TIP3   OH225616   6.597   2.656   5.859
 8558TIP3    H125617   6.549   2.655   5.776
 8558TIP3    H225618   6.557   2.728   5.909
 8559TIP3   OH225619   0.115   4.323   0.604
 8559TIP3    H125620   0.104   4.237   0.563
 8559TIP3    H225621   0.081   4.311   0.692
 8560TIP3   OH225622   0.083   6.316   3.373
 8560TIP3    H125623  -0.002   6.356   3.392
 8560TIP3    H225624   0.147   6.373   3.416
 8561TIP3   OH225625   0.076   4.055   0.532
 8561TIP3    H125626   0.146   4.054   0.466
 8561TIP3    H225627  -0.003   4.074   0.482
 8562TIP3   OH225628   6.222   1.491   1.235
 8562TIP3    H125629   6.258   1.514   1.320
 8562TIP3    H225630   6.142   1.544   1.228
 8563TIP3   OH225631   7.469   5.259   5.745
 8563TIP3    H125632   7.507   5.219   5.667
 8563TIP3    H225633   7.510   5.346   5.749
 8564TIP3   OH225634   8.182   5.557   4.736
 8564TIP3    H125635   8.217   5.478   4.695
 8564TIP3    H225636   8.188   5.539   4.830
 8565TIP3   OH225637   5.940   1.454   1.443
 8565TIP3    H125638   6.028   1.479   1.471
 8565TIP3    H225639   5.900   1.417   1.522
 8566TIP3   OH225640   2.846   7.559   0.392
 8566TIP3    H125641   2.754   7.573   0.370
 8566TIP3    H225642   2.885   7.647   0.391
 8567TIP3   OH225643   6.128   5.193   3.873
 8567TIP3    H125644   6.117   5.160   3.962
 8567TIP3    H225645   6.123   5.115   3.818
 8568TIP3   OH225646   5.626   7.117   3.788
 8568TIP3    H125647   5.554   7.064   3.821
 8568TIP3    H225648   5.629   7.193   3.846
 8569TIP3   OH225649   7.636   1.726   2.973
 8569TIP3    H125650   7.663   1.754   3.060
 8569TIP3    H225651   7.696   1.771   2.914
 8570TIP3   OH225652   2.911   1.121   6.535
 8570TIP3    H125653   2.958   1.145   6.455
 8570TIP3    H225654   2.893   1.205   6.578
 8571TIP3   OH225655   3.110   5.572   1.978
 8571TIP3    H125656   3.062   5.655   1.977
 8571TIP3    H225657   3.047   5.508   2.009
 8572TIP3   OH225658   2.239   4.944   5.710
 8572TIP3    H125659   2.242   4.937   5.805
 8572TIP3    H225660   2.292   5.021   5.689
 8573TIP3   OH225661   3.247   5.690   0.827
 8573TIP3    H125662   3.180   5.747   0.788
 8573TIP3    H225663   3.326   5.710   0.776
 8574TIP3   OH225664   1.122   1.857   3.342
 8574TIP3    H125665   1.191   1.906   3.297
 8574TIP3    H225666   1.041   1.890   3.304
 8575TIP3   OH225667   6.157   5.047   2.691
 8575TIP3    H125668   6.078   5.101   2.683
 8575TIP3    H225669   6.159   5.021   2.783
 8576TIP3   OH225670   3.861   3.856   1.058
 8576TIP3    H125671   3.913   3.783   1.092
 8576TIP3    H225672   3.926   3.921   1.031
 8577TIP3   OH225673   3.531   7.234   1.863
 8577TIP3    H125674   3.506   7.268   1.949
 8577TIP3    H225675   3.450   7.236   1.812
 8578TIP3   OH225676   2.321   0.215   4.878
 8578TIP3    H125677   2.411   0.228   4.909
 8578TIP3    H225678   2.301   0.124   4.902
 8579TIP3   OH225679   5.204   5.551   0.532
 8579TIP3    H125680   5.291   5.511   0.540
 8579TIP3    H225681   5.192   5.562   0.438
 8580TIP3   OH225682   4.706   5.640   0.921
 8580TIP3    H125683   4.782   5.620   0.975
 8580TIP3    H225684   4.695   5.562   0.866
 8581TIP3   OH225685   3.836   6.671   1.539
 8581TIP3    H125686   3.819   6.753   1.586
 8581TIP3    H225687   3.929   6.674   1.519
 8582TIP3   OH225688   8.243   4.704   2.715
 8582TIP3    H125689   8.304   4.710   2.641
 8582TIP3    H225690   8.242   4.610   2.736
 8583TIP3   OH225691   2.313   6.959   1.904
 8583TIP3    H125692   2.328   6.954   1.809
 8583TIP3    H225693   2.228   6.917   1.917
 8584TIP3   OH225694   2.942   2.398   2.741
 8584TIP3    H125695   2.861   2.445   2.760
 8584TIP3    H225696   2.913   2.317   2.698
 8585TIP3   OH225697   0.719   2.045   3.111
 8585TIP3    H125698   0.759   2.124   3.073
 8585TIP3    H225699   0.654   2.018   3.045
 8586TIP3   OH225700   0.071   5.168   4.814
 8586TIP3    H125701   0.162   5.170   4.846
 8586TIP3    H225702   0.050   5.075   4.808
 8587TIP3   OH225703   4.936   4.208   6.800
 8587TIP3    H125704   4.965   4.183   6.712
 8587TIP3    H225705   4.936   4.126   6.849
 8588TIP3   OH225706   1.555   6.131   3.497
 8588TIP3    H125707   1.633   6.186   3.484
 8588TIP3    H225708   1.514   6.126   3.411
 8589TIP3   OH225709   4.074   1.660   6.334
 8589TIP3    H125710   4.142   1.667   6.267
 8589TIP3    H225711   3.992   1.660   6.284
 8590TIP3   OH225712   0.393   2.049   2.168
 8590TIP3    H125713   0.407   2.126   2.112
 8590TIP3    H225714   0.481   2.025   2.198
 8591TIP3   OH225715   4.745   0.279   3.009
 8591TIP3    H125716   4.827   0.257   2.966
 8591TIP3    H225717   4.677   0.259   2.944
 8592TIP3   OH225718   0.426   4.489   4.656
 8592TIP3    H125719   0.403   4.527   4.741
 8592TIP3    H225720   0.514   4.523   4.638
 8593TIP3   OH225721   2.907   1.613   3.145
 8593TIP3    H125722   2.887   1.531   3.100
 8593TIP3    H225723   3.002   1.622   3.138
 8594TIP3   OH225724   1.459   4.516   4.228
 8594TIP3    H125725   1.367   4.505   4.251
 8594TIP3    H225726   1.461   4.592   4.171
 8595TIP3   OH225727   4.690   4.128   5.419
 8595TIP3    H125728   4.772   4.129   5.371
 8595TIP3    H225729   4.625   4.161   5.357
 8596TIP3   OH225730   6.330   6.254   6.663
 8596TIP3    H125731   6.312   6.318   6.593
 8596TIP3    H225732   6.417   6.219   6.641
 8597TIP3   OH225733   0.632   1.964   5.875
 8597TIP3    H125734   0.690   1.973   5.800
 8597TIP3    H225735   0.672   2.018   5.943
 8598TIP3   OH225736   1.148   3.664   1.324
 8598TIP3    H125737   1.127   3.735   1.262
 8598TIP3    H225738   1.227   3.624   1.289
 8599TIP3   OH225739   4.640   3.619   3.088
 8599TIP3    H125740   4.603   3.565   3.018
 8599TIP3    H225741   4.725   3.647   3.054
 8600TIP3   OH225742   2.067   6.937   2.216
 8600TIP3    H125743   2.080   6.859   2.271
 8600TIP3    H225744   2.054   6.903   2.128
 8601TIP3   OH225745   2.847   5.970   5.858
 8601TIP3    H125746   2.917   6.032   5.879
 8601TIP3    H225747   2.844   5.912   5.934
 8602TIP3   OH225748   1.472   7.648   4.179
 8602TIP3    H125749   1.494   7.644   4.272
 8602TIP3    H225750   1.494   7.561   4.146
 8603TIP3   OH225751   0.694   1.731   2.443
 8603TIP3    H125752   0.629   1.796   2.471
 8603TIP3    H225753   0.739   1.706   2.524
 8604TIP3   OH225754   3.115   6.507   0.086
 8604TIP3    H125755   3.162   6.554   0.155
 8604TIP3    H225756   3.037   6.560   0.069
 8605TIP3   OH225757   6.070   3.390   0.503
 8605TIP3    H125758   6.067   3.316   0.563
 8605TIP3    H225759   6.071   3.467   0.560
 8606TIP3   OH225760   2.438   1.245   3.537
 8606TIP3    H125761   2.407   1.196   3.461
 8606TIP3    H225762   2.481   1.322   3.501
 8607TIP3   OH225763   3.364   1.288   1.155
 8607TIP3    H125764   3.276   1.306   1.188
 8607TIP3    H225765   3.401   1.227   1.218
 8608TIP3   OH225766   4.040   1.257   4.232
 8608TIP3    H125767   4.107   1.322   4.251
 8608TIP3    H225768   4.088   1.182   4.197
 8609TIP3   OH225769   4.215   0.661   3.710
 8609TIP3    H125770   4.232   0.569   3.690
 8609TIP3    H225771   4.253   0.709   3.636
 8610TIP3   OH225772   5.748   4.564   1.291
 8610TIP3    H125773   5.753   4.649   1.335
 8610TIP3    H225774   5.752   4.500   1.362
 8611TIP3   OH225775   2.946   0.625   4.464
 8611TIP3    H125776   3.032   0.649   4.499
 8611TIP3    H225777   2.884   0.653   4.532
 8612TIP3   OH225778   1.782   5.181   5.123
 8612TIP3    H125779   1.701   5.228   5.104
 8612TIP3    H225780   1.830   5.183   5.041
 8613TIP3   OH225781   8.097   2.648   2.702
 8613TIP3    H125782   8.163   2.611   2.644
 8613TIP3    H225783   8.130   2.630   2.790
 8614TIP3   OH225784   3.562   4.042   1.931
 8614TIP3    H125785   3.519   3.991   2.000
 8614TIP3    H225786   3.504   4.116   1.915
 8615TIP3   OH225787   4.289   6.252   0.960
 8615TIP3    H125788   4.276   6.190   1.032
 8615TIP3    H225789   4.272   6.338   0.998
 8616TIP3   OH225790   4.815   5.846   4.951
 8616TIP3    H125791   4.900   5.814   4.984
 8616TIP3    H225792   4.774   5.769   4.913
 8617TIP3   OH225793   4.593   1.072   0.562
 8617TIP3    H125794   4.566   1.005   0.624
 8617TIP3    H225795   4.611   1.149   0.616
 8618TIP3   OH225796   1.924   1.494   6.241
 8618TIP3    H125797   1.973   1.422   6.201
 8618TIP3    H225798   1.844   1.501   6.190
 8619TIP3   OH225799   1.326   6.073   1.330
 8619TIP3    H125800   1.260   6.135   1.362
 8619TIP3    H225801   1.407   6.100   1.372
 8620TIP3   OH225802   2.533   7.343   2.612
 8620TIP3    H125803   2.582   7.287   2.552
 8620TIP3    H225804   2.590   7.352   2.688
 8621TIP3   OH225805   8.263   4.410   6.526
 8621TIP3    H125806   8.349   4.368   6.528
 8621TIP3    H225807   8.268   4.469   6.450
 8622TIP3   OH225808   8.111   2.479   4.546
 8622TIP3    H125809   8.108   2.401   4.602
 8622TIP3    H225810   8.131   2.550   4.606
 8623TIP3   OH225811   5.169   7.602   4.368
 8623TIP3    H125812   5.153   7.675   4.427
 8623TIP3    H225813   5.084   7.558   4.361
 8624TIP3   OH225814   0.680   1.276   0.216
 8624TIP3    H125815   0.631   1.284   0.298
 8624TIP3    H225816   0.758   1.226   0.240
 8625TIP3   OH225817   0.740   2.887   1.923
 8625TIP3    H125818   0.696   2.803   1.938
 8625TIP3    H225819   0.720   2.938   2.001
 8626TIP3   OH225820   7.448   7.500   0.611
 8626TIP3    H125821   7.518   7.521   0.550
 8626TIP3    H225822   7.409   7.419   0.576
 8627TIP3   OH225823   4.219   2.884   2.623
 8627TIP3    H125824   4.292   2.863   2.682
 8627TIP3    H225825   4.229   2.822   2.551
 8628TIP3   OH225826   0.407   7.433   5.549
 8628TIP3    H125827   0.501   7.421   5.539
 8628TIP3    H225828   0.377   7.352   5.591
 8629TIP3   OH225829   1.038   0.795   1.319
 8629TIP3    H125830   1.097   0.795   1.244
 8629TIP3    H225831   1.093   0.774   1.394
 8630TIP3   OH225832   7.242   2.273   3.208
 8630TIP3    H125833   7.331   2.279   3.243
 8630TIP3    H225834   7.219   2.363   3.184
 8631TIP3   OH225835   5.774   1.637   6.234
 8631TIP3    H125836   5.756   1.578   6.161
 8631TIP3    H225837   5.689   1.648   6.278
 8632TIP3   OH225838   2.052   6.481   3.279
 8632TIP3    H125839   2.095   6.421   3.341
 8632TIP3    H225840   2.008   6.423   3.216
 8633TIP3   OH225841   6.042   7.378   1.161
 8633TIP3    H125842   6.023   7.471   1.165
 8633TIP3    H225843   6.042   7.358   1.067
 8634TIP3   OH225844   2.218   1.786   1.912
 8634TIP3    H125845   2.129   1.785   1.877
 8634TIP3    H225846   2.250   1.875   1.895
 8635TIP3   OH225847   3.620   4.382   0.917
 8635TIP3    H125848   3.706   4.342   0.932
 8635TIP3    H225849   3.585   4.397   1.005
 8636TIP3   OH225850   0.787   1.394   5.011
 8636TIP3    H125851   0.724   1.446   5.061
 8636TIP3    H225852   0.746   1.308   5.004
 8637TIP3   OH225853   6.707   6.497   1.463
 8637TIP3    H125854   6.634   6.449   1.423
 8637TIP3    H225855   6.748   6.434   1.522
 8638TIP3   OH225856   2.508   0.778   4.462
 8638TIP3    H125857   2.523   0.860   4.415
 8638TIP3    H225858   2.418   0.784   4.494
 8639TIP3   OH225859   3.542   7.583   6.684
 8639TIP3    H125860   3.618   7.622   6.641
 8639TIP3    H225861   3.467   7.635   6.654
 8640TIP3   OH225862   7.883   1.646   2.280
 8640TIP3    H125863   7.884   1.551   2.287
 8640TIP3    H225864   7.953   1.667   2.219
 8641TIP3   OH225865   1.182   4.577   5.849
 8641TIP3    H125866   1.166   4.649   5.788
 8641TIP3    H225867   1.257   4.606   5.900
 8642TIP3   OH225868   4.918   5.028   5.679
 8642TIP3    H125869   4.962   5.095   5.732
 8642TIP3    H225870   4.985   4.961   5.664
 8643TIP3   OH225871   5.387   2.612   1.976
 8643TIP3    H125872   5.414   2.521   1.994
 8643TIP3    H225873   5.400   2.621   1.881
 8644TIP3   OH225874   7.798   0.340   4.250
 8644TIP3    H125875   7.805   0.424   4.296
 8644TIP3    H225876   7.861   0.348   4.178
 8645TIP3   OH225877   3.082   4.215   1.062
 8645TIP3    H125878   3.173   4.211   1.092
 8645TIP3    H225879   3.054   4.304   1.080
 8646TIP3   OH225880   8.101   4.738   1.010
 8646TIP3    H125881   8.080   4.817   1.059
 8646TIP3    H225882   8.018   4.691   1.002
 8647TIP3   OH225883   4.128   4.750   0.095
 8647TIP3    H125884   4.074   4.696   0.037
 8647TIP3    H225885   4.128   4.703   0.178
 8648TIP3   OH225886   4.177   3.213   5.950
 8648TIP3    H125887   4.156   3.249   6.036
 8648TIP3    H225888   4.164   3.286   5.889
 8649TIP3   OH225889   4.482   2.171   6.727
 8649TIP3    H125890   4.423   2.246   6.731
 8649TIP3    H225891   4.432   2.099   6.765
 8650TIP3   OH225892   3.166   2.591   1.069
 8650TIP3    H125893   3.080   2.552   1.083
 8650TIP3    H225894   3.152   2.685   1.081
 8651TIP3   OH225895   0.294   4.607   6.317
 8651TIP3    H125896   0.352   4.662   6.265
 8651TIP3    H225897   0.310   4.518   6.286
 8652TIP3   OH225898   6.705   7.277   4.251
 8652TIP3    H125899   6.643   7.210   4.280
 8652TIP3    H225900   6.708   7.339   4.324
 8653TIP3   OH225901   7.559   0.260   4.158
 8653TIP3    H125902   7.494   0.244   4.227
 8653TIP3    H225903   7.618   0.325   4.195
 8654TIP3   OH225904   7.205   6.572   3.048
 8654TIP3    H125905   7.143   6.499   3.042
 8654TIP3    H225906   7.178   6.632   2.978
 8655TIP3   OH225907   1.190   3.186   0.698
 8655TIP3    H125908   1.265   3.134   0.671
 8655TIP3    H225909   1.114   3.130   0.681
 8656TIP3   OH225910   7.650   6.146   1.942
 8656TIP3    H125911   7.628   6.081   1.876
 8656TIP3    H225912   7.735   6.117   1.978
 8657TIP3   OH225913   6.426   0.382   2.147
 8657TIP3    H125914   6.511   0.377   2.104
 8657TIP3    H225915   6.420   0.301   2.198
 8658TIP3   OH225916   3.370   1.815   0.515
 8658TIP3    H125917   3.397   1.830   0.605
 8658TIP3    H225918   3.450   1.787   0.469
 8659TIP3   OH225919   0.712   2.201   4.652
 8659TIP3    H125920   0.777   2.271   4.650
 8659TIP3    H225921   0.675   2.204   4.740
 8660TIP3   OH225922   2.917   2.673   1.281
 8660TIP3    H125923   2.880   2.643   1.364
 8660TIP3    H225924   2.965   2.753   1.305
 8661TIP3   OH225925   7.610   2.749   0.197
 8661TIP3    H125926   7.583   2.712   0.281
 8661TIP3    H225927   7.535   2.738   0.140
 8662TIP3   OH225928   7.557   0.143   3.907
 8662TIP3    H125929   7.492   0.075   3.893
 8662TIP3    H225930   7.528   0.189   3.986
 8663TIP3   OH225931   1.322   5.259   6.805
 8663TIP3    H125932   1.377   5.220   6.737
 8663TIP3    H225933   1.337   5.353   6.797
 8664TIP3   OH225934   5.671   5.956   0.441
 8664TIP3    H125935   5.635   5.869   0.426
 8664TIP3    H225936   5.690   5.989   0.353
 8665TIP3   OH225937   4.637   6.115   0.737
 8665TIP3    H125938   4.712   6.076   0.783
 8665TIP3    H225939   4.564   6.056   0.755
 8666TIP3   OH225940   0.634   3.075   0.758
 8666TIP3    H125941   0.621   2.982   0.740
 8666TIP3    H225942   0.576   3.093   0.833
 8667TIP3   OH225943   5.526   4.163   0.519
 8667TIP3    H125944   5.440   4.166   0.476
 8667TIP3    H225945   5.514   4.213   0.600
 8668TIP3   OH225946   0.508   2.544   6.003
 8668TIP3    H125947   0.429   2.492   5.986
 8668TIP3    H225948   0.575   2.480   6.023
 8669TIP3   OH225949   4.662   5.635   3.870
 8669TIP3    H125950   4.735   5.614   3.928
 8669TIP3    H225951   4.700   5.633   3.782
 8670TIP3   OH225952   4.347   3.997   2.070
 8670TIP3    H125953   4.422   4.053   2.089
 8670TIP3    H225954   4.276   4.034   2.122
 8671TIP3   OH225955   3.097   6.686   2.258
 8671TIP3    H125956   3.128   6.777   2.262
 8671TIP3    H225957   3.021   6.684   2.316
 8672TIP3   OH225958   1.753   3.746   6.451
 8672TIP3    H125959   1.669   3.746   6.497
 8672TIP3    H225960   1.792   3.661   6.473
 8673TIP3   OH225961   4.077   5.551   6.764
 8673TIP3    H125962   4.061   5.490   6.836
 8673TIP3    H225963   4.159   5.520   6.724
 8674TIP3   OH225964   5.434   6.491   3.891
 8674TIP3    H125965   5.521   6.451   3.881
 8674TIP3    H225966   5.451   6.573   3.937
 8675TIP3   OH225967   1.283   4.675   6.373
 8675TIP3    H125968   1.322   4.635   6.296
 8675TIP3    H225969   1.213   4.731   6.339
 8676TIP3   OH225970   5.796   3.333   6.120
 8676TIP3    H125971   5.738   3.258   6.132
 8676TIP3    H225972   5.862   3.303   6.057
 8677TIP3   OH225973   6.935   1.110   4.201
 8677TIP3    H125974   6.950   1.204   4.186
 8677TIP3    H225975   6.991   1.089   4.275
 8678TIP3   OH225976   3.809   0.165   3.743
 8678TIP3    H125977   3.823   0.181   3.650
 8678TIP3    H225978   3.724   0.204   3.762
 8679TIP3   OH225979   6.853   4.193   6.193
 8679TIP3    H125980   6.858   4.122   6.129
 8679TIP3    H225981   6.784   4.251   6.161
 8680TIP3   OH225982   0.090   2.078   5.455
 8680TIP3    H125983   0.114   2.005   5.399
 8680TIP3    H225984   0.030   2.041   5.519
 8681TIP3   OH225985   2.156   3.972   6.106
 8681TIP3    H125986   2.143   3.977   6.011
 8681TIP3    H225987   2.183   4.061   6.131
 8682TIP3   OH225988   3.884   3.692   4.132
 8682TIP3    H125989   3.794   3.661   4.124
 8682TIP3    H225990   3.876   3.787   4.143
 8683TIP3   OH225991   3.629   2.479   5.242
 8683TIP3    H125992   3.578   2.422   5.298
 8683TIP3    H225993   3.602   2.456   5.153
 8684TIP3   OH225994   1.086   4.929   3.199
 8684TIP3    H125995   1.180   4.948   3.207
 8684TIP3    H225996   1.066   4.873   3.274
 8685TIP3   OH225997   4.060   0.467   5.923
 8685TIP3    H125998   4.026   0.544   5.969
 8685TIP3    H225999   4.077   0.498   5.834
 8686TIP3   OH226000   0.450   4.182   3.629
 8686TIP3    H126001   0.481   4.121   3.561
 8686TIP3    H226002   0.419   4.125   3.700
 8687TIP3   OH226003   7.232   1.203   3.282
 8687TIP3    H126004   7.174   1.271   3.317
 8687TIP3    H226005   7.173   1.133   3.255
 8688TIP3   OH226006   7.858   3.702   5.309
 8688TIP3    H126007   7.879   3.784   5.353
 8688TIP3    H226008   7.903   3.707   5.225
 8689TIP3   OH226009   1.173   5.664   6.615
 8689TIP3    H126010   1.202   5.744   6.658
 8689TIP3    H226011   1.116   5.621   6.680
 8690TIP3   OH226012   2.258   2.046   1.177
 8690TIP3    H126013   2.243   2.038   1.083
 8690TIP3    H226014   2.173   2.074   1.212
 8691TIP3   OH226015   1.769   2.831   1.102
 8691TIP3    H126016   1.730   2.911   1.140
 8691TIP3    H226017   1.789   2.776   1.178
 8692TIP3   OH226018   0.388   0.268   3.171
 8692TIP3    H126019   0.431   0.313   3.098
 8692TIP3    H226020   0.379   0.178   3.141
 8693TIP3   OH226021   1.949   1.754   0.976
 8693TIP3    H126022   2.017   1.687   0.985
 8693TIP3    H226023   1.892   1.741   1.051
 8694TIP3   OH226024   3.577   6.186   0.423
 8694TIP3    H126025   3.631   6.204   0.347
 8694TIP3    H226026   3.607   6.248   0.489
 8695TIP3   OH226027   4.179   6.124   0.039
 8695TIP3    H126028   4.230   6.204   0.028
 8695TIP3    H226029   4.111   6.148   0.102
 8696TIP3   OH226030   3.873   0.692   5.506
 8696TIP3    H126031   3.932   0.751   5.553
 8696TIP3    H226032   3.785   0.727   5.526
 8697TIP3   OH226033   3.609   4.328   2.998
 8697TIP3    H126034   3.654   4.275   2.932
 8697TIP3    H226035   3.527   4.354   2.956
 8698TIP3   OH226036   0.559   3.695   3.550
 8698TIP3    H126037   0.645   3.654   3.559
 8698TIP3    H226038   0.522   3.692   3.639
 8699TIP3   OH226039   1.607   0.672   0.338
 8699TIP3    H126040   1.614   0.741   0.405
 8699TIP3    H226041   1.610   0.720   0.255
 8700TIP3   OH226042   6.381   2.385   0.411
 8700TIP3    H126043   6.306   2.372   0.470
 8700TIP3    H226044   6.452   2.336   0.452
 8701TIP3   OH226045   5.044   7.228   1.362
 8701TIP3    H126046   5.127   7.274   1.352
 8701TIP3    H226047   5.054   7.177   1.443
 8702TIP3   OH226048   2.196   2.581   2.245
 8702TIP3    H126049   2.231   2.507   2.295
 8702TIP3    H226050   2.227   2.658   2.291
 8703TIP3   OH226051   6.431   2.520   1.904
 8703TIP3    H126052   6.438   2.562   1.990
 8703TIP3    H226053   6.460   2.430   1.918
 8704TIP3   OH226054   5.305   4.852   4.679
 8704TIP3    H126055   5.383   4.856   4.624
 8704TIP3    H226056   5.233   4.874   4.620
 8705TIP3   OH226057   1.603   6.493   2.244
 8705TIP3    H126058   1.630   6.419   2.300
 8705TIP3    H226059   1.508   6.484   2.236
 8706TIP3   OH226060   0.168   0.583   6.412
 8706TIP3    H126061   0.149   0.676   6.401
 8706TIP3    H226062   0.256   0.572   6.376
 8707TIP3   OH226063   3.110   2.412   5.839
 8707TIP3    H126064   3.191   2.399   5.888
 8707TIP3    H226065   3.118   2.352   5.764
 8708TIP3   OH226066   3.699   2.188   3.778
 8708TIP3    H126067   3.704   2.093   3.788
 8708TIP3    H226068   3.784   2.212   3.742
 8709TIP3   OH226069   7.774   1.159   0.067
 8709TIP3    H126070   7.842   1.219   0.098
 8709TIP3    H226071   7.704   1.217   0.036
 8710TIP3   OH226072   6.179   4.156   3.720
 8710TIP3    H126073   6.229   4.237   3.733
 8710TIP3    H226074   6.110   4.160   3.787
 8711TIP3   OH226075   5.875   5.497   1.099
 8711TIP3    H126076   5.916   5.562   1.041
 8711TIP3    H226077   5.891   5.531   1.187
 8712TIP3   OH226078   4.904   2.717   4.913
 8712TIP3    H126079   4.959   2.794   4.921
 8712TIP3    H226080   4.820   2.751   4.882
 8713TIP3   OH226081   8.256   4.241   5.215
 8713TIP3    H126082   8.322   4.295   5.259
 8713TIP3    H226083   8.178   4.250   5.269
 8714TIP3   OH226084   6.264   7.277   2.735
 8714TIP3    H126085   6.270   7.247   2.644
 8714TIP3    H226086   6.347   7.321   2.751
 8715TIP3   OH226087   5.739   5.930   1.873
 8715TIP3    H126088   5.764   5.928   1.780
 8715TIP3    H226089   5.811   5.976   1.916
 8716TIP3   OH226090   2.870   1.210   3.219
 8716TIP3    H126091   2.925   1.227   3.295
 8716TIP3    H226092   2.791   1.170   3.255
 8717TIP3   OH226093   3.941   4.130   5.531
 8717TIP3    H126094   3.937   4.034   5.531
 8717TIP3    H226095   3.947   4.154   5.623
 8718TIP3   OH226096   2.285   2.634   1.977
 8718TIP3    H126097   2.255   2.549   1.943
 8718TIP3    H226098   2.259   2.634   2.069
 8719TIP3   OH226099   5.614   2.458   6.541
 8719TIP3    H126100   5.673   2.454   6.616
 8719TIP3    H226101   5.568   2.374   6.542
 8720TIP3   OH226102   1.588   2.609   5.090
 8720TIP3    H126103   1.579   2.604   4.995
 8720TIP3    H226104   1.630   2.527   5.114
 8721TIP3   OH226105   1.886   3.270   3.000
 8721TIP3    H126106   1.886   3.330   3.075
 8721TIP3    H226107   1.847   3.321   2.929
 8722TIP3   OH226108   3.933   7.843   5.250
 8722TIP3    H126109   3.967   7.755   5.264
 8722TIP3    H226110   3.838   7.834   5.258
 8723TIP3   OH226111   7.927   0.018   4.596
 8723TIP3    H126112   8.017   0.050   4.601
 8723TIP3    H226113   7.875   0.096   4.574
 8724TIP3   OH226114   4.524   4.211   6.200
 8724TIP3    H126115   4.602   4.217   6.255
 8724TIP3    H226116   4.554   4.174   6.117
 8725TIP3   OH226117   0.795   2.768   3.287
 8725TIP3    H126118   0.865   2.766   3.222
 8725TIP3    H226119   0.768   2.860   3.289
 8726TIP3   OH226120   4.598   6.324   5.658
 8726TIP3    H126121   4.622   6.365   5.741
 8726TIP3    H226122   4.588   6.398   5.598
 8727TIP3   OH226123   1.916   4.689   1.833
 8727TIP3    H126124   1.994   4.744   1.834
 8727TIP3    H226125   1.845   4.747   1.861
 8728TIP3   OH226126   1.753   1.205   3.988
 8728TIP3    H126127   1.747   1.295   3.956
 8728TIP3    H226128   1.815   1.210   4.061
 8729TIP3   OH226129   1.352   4.413   2.788
 8729TIP3    H126130   1.371   4.430   2.880
 8729TIP3    H226131   1.395   4.330   2.769
 8730TIP3   OH226132   2.764   1.779   0.708
 8730TIP3    H126133   2.837   1.731   0.747
 8730TIP3    H226134   2.718   1.816   0.784
 8731TIP3   OH226135   6.620   5.287   3.025
 8731TIP3    H126136   6.642   5.233   2.949
 8731TIP3    H226137   6.702   5.332   3.046
 8732TIP3   OH226138   7.230   0.902   3.152
 8732TIP3    H126139   7.205   0.888   3.243
 8732TIP3    H226140   7.202   0.823   3.106
 8733TIP3   OH226141   7.468   2.271   0.407
 8733TIP3    H126142   7.405   2.266   0.479
 8733TIP3    H226143   7.426   2.224   0.335
 8734TIP3   OH226144   5.297   1.373   0.552
 8734TIP3    H126145   5.202   1.360   0.541
 8734TIP3    H226146   5.315   1.455   0.506
 8735TIP3   OH226147   6.197   6.897   2.944
 8735TIP3    H126148   6.181   6.806   2.970
 8735TIP3    H226149   6.230   6.891   2.854
 8736TIP3   OH226150   3.478   4.006   4.048
 8736TIP3    H126151   3.483   4.058   4.128
 8736TIP3    H226152   3.482   4.069   3.977
 8737TIP3   OH226153   0.354   5.855   0.239
 8737TIP3    H126154   0.418   5.926   0.246
 8737TIP3    H226155   0.407   5.776   0.225
 8738TIP3   OH226156   4.622   1.838   2.813
 8738TIP3    H126157   4.675   1.841   2.892
 8738TIP3    H226158   4.569   1.917   2.816
 8739TIP3   OH226159   6.559   2.963   3.429
 8739TIP3    H126160   6.501   2.975   3.353
 8739TIP3    H226161   6.619   2.893   3.401
 8740TIP3   OH226162   4.389   5.347   2.600
 8740TIP3    H126163   4.368   5.335   2.692
 8740TIP3    H226164   4.482   5.326   2.593
 8741TIP3   OH226165   6.540   0.796   1.195
 8741TIP3    H126166   6.565   0.720   1.247
 8741TIP3    H226167   6.623   0.829   1.159
 8742TIP3   OH226168   3.551   1.140   4.250
 8742TIP3    H126169   3.481   1.185   4.296
 8742TIP3    H226170   3.629   1.192   4.269
 8743TIP3   OH226171   5.021   6.016   5.420
 8743TIP3    H126172   4.999   6.100   5.461
 8743TIP3    H226173   4.972   5.952   5.471
 8744TIP3   OH226174   5.059   4.394   1.194
 8744TIP3    H126175   5.002   4.463   1.226
 8744TIP3    H226176   5.115   4.372   1.268
 8745TIP3   OH226177   4.915   4.914   0.049
 8745TIP3    H126178   4.972   4.927   0.125
 8745TIP3    H226179   4.963   4.952  -0.024
 8746TIP3   OH226180   0.127   6.999   0.332
 8746TIP3    H126181   0.191   6.963   0.394
 8746TIP3    H226182   0.150   6.960   0.248
 8747TIP3   OH226183   1.955   5.260   2.887
 8747TIP3    H126184   2.042   5.232   2.915
 8747TIP3    H226185   1.903   5.180   2.885
 8748TIP3   OH226186   5.958   6.496   6.313
 8748TIP3    H126187   5.876   6.468   6.272
 8748TIP3    H226188   6.027   6.452   6.263
 8749TIP3   OH226189   4.185   3.136   2.289
 8749TIP3    H126190   4.210   3.217   2.332
 8749TIP3    H226191   4.239   3.133   2.210
 8750TIP3   OH226192   4.891   2.740   1.212
 8750TIP3    H126193   4.910   2.669   1.273
 8750TIP3    H226194   4.812   2.711   1.166
 8751TIP3   OH226195   1.079   2.650   6.556
 8751TIP3    H126196   1.074   2.695   6.472
 8751TIP3    H226197   1.162   2.603   6.554
 8752TIP3   OH226198   6.386   3.112   1.772
 8752TIP3    H126199   6.406   3.100   1.679
 8752TIP3    H226200   6.301   3.157   1.773
 8753TIP3   OH226201   4.999   6.617   4.605
 8753TIP3    H126202   5.075   6.561   4.620
 8753TIP3    H226203   4.947   6.570   4.540
 8754TIP3   OH226204   8.237   3.785   4.128
 8754TIP3    H126205   8.275   3.764   4.043
 8754TIP3    H226206   8.151   3.821   4.108
 8755TIP3   OH226207   7.082   2.305   4.175
 8755TIP3    H126208   7.164   2.284   4.220
 8755TIP3    H226209   7.030   2.351   4.240
 8756TIP3   OH226210   3.657   2.913   3.976
 8756TIP3    H126211   3.695   2.846   3.919
 8756TIP3    H226212   3.586   2.951   3.923
 8757TIP3   OH226213   1.004   1.310   3.517
 8757TIP3    H126214   0.995   1.405   3.510
 8757TIP3    H226215   1.091   1.292   3.483
 8758TIP3   OH226216   7.419   0.367   4.936
 8758TIP3    H126217   7.353   0.427   4.970
 8758TIP3    H226218   7.480   0.422   4.887
 8759TIP3   OH226219   4.043   6.365   2.435
 8759TIP3    H126220   3.948   6.364   2.452
 8759TIP3    H226221   4.054   6.313   2.356
 8760TIP3   OH226222   3.215   6.123   0.167
 8760TIP3    H126223   3.168   6.154   0.245
 8760TIP3    H226224   3.280   6.061   0.201
 8761TIP3   OH226225   0.818   5.975   6.088
 8761TIP3    H126226   0.796   5.944   6.175
 8761TIP3    H226227   0.861   5.900   6.046
 8762TIP3   OH226228   7.092   0.757   4.457
 8762TIP3    H126229   7.021   0.787   4.514
 8762TIP3    H226230   7.047   0.708   4.387
 8763TIP3   OH226231   6.132   2.711   1.980
 8763TIP3    H126232   6.096   2.714   1.891
 8763TIP3    H226233   6.185   2.791   1.986
 8764TIP3   OH226234   7.710   5.736   3.645
 8764TIP3    H126235   7.729   5.669   3.711
 8764TIP3    H226236   7.791   5.746   3.596
 8765TIP3   OH226237   3.558   2.190   5.098
 8765TIP3    H126238   3.511   2.110   5.120
 8765TIP3    H226239   3.599   2.216   5.180
 8766TIP3   OH226240   4.641   7.713   6.232
 8766TIP3    H126241   4.667   7.642   6.175
 8766TIP3    H226242   4.677   7.792   6.191
 8767TIP3   OH226243   4.558   5.798   6.078
 8767TIP3    H126244   4.508   5.776   6.000
 8767TIP3    H226245   4.572   5.714   6.122
 8768TIP3   OH226246   8.072   0.382   5.738
 8768TIP3    H126247   8.069   0.364   5.832
 8768TIP3    H226248   7.992   0.430   5.720
 8769TIP3   OH226249   3.696   6.937   6.159
 8769TIP3    H126250   3.636   6.969   6.226
 8769TIP3    H226251   3.767   6.896   6.208
 8770TIP3   OH226252   3.012   0.467   5.640
 8770TIP3    H126253   2.929   0.478   5.592
 8770TIP3    H226254   3.033   0.555   5.671
 8771TIP3   OH226255   1.258   0.827   5.953
 8771TIP3    H126256   1.316   0.878   6.010
 8771TIP3    H226257   1.315   0.762   5.913
 8772TIP3   OH226258   3.651   3.200   0.709
 8772TIP3    H126259   3.640   3.291   0.680
 8772TIP3    H226260   3.583   3.189   0.776
 8773TIP3   OH226261   3.248   3.930   1.612
 8773TIP3    H126262   3.182   3.896   1.673
 8773TIP3    H226263   3.326   3.878   1.632
 8774TIP3   OH226264   3.771   4.802   0.631
 8774TIP3    H126265   3.707   4.731   0.623
 8774TIP3    H226266   3.822   4.781   0.709
 8775TIP3   OH226267   3.403   0.585   5.998
 8775TIP3    H126268   3.318   0.608   6.036
 8775TIP3    H226269   3.392   0.496   5.967
 8776TIP3   OH226270   4.878   2.656   1.920
 8776TIP3    H126271   4.876   2.640   2.014
 8776TIP3    H226272   4.967   2.630   1.894
 8777TIP3   OH226273   0.230   1.765   3.717
 8777TIP3    H126274   0.203   1.835   3.777
 8777TIP3    H226275   0.252   1.810   3.636
 8778TIP3   OH226276   5.546   3.315   4.596
 8778TIP3    H126277   5.613   3.368   4.552
 8778TIP3    H226278   5.531   3.242   4.536
 8779TIP3   OH226279   6.925   7.729   1.907
 8779TIP3    H126280   7.020   7.737   1.899
 8779TIP3    H226281   6.900   7.798   1.969
 8780TIP3   OH226282   2.997   4.793   2.346
 8780TIP3    H126283   2.942   4.715   2.339
 8780TIP3    H226284   3.085   4.758   2.360
 8781TIP3   OH226285   2.945   5.185   2.761
 8781TIP3    H126286   2.915   5.181   2.670
 8781TIP3    H226287   2.947   5.094   2.790
 8782TIP3   OH226288   5.014   3.713   0.157
 8782TIP3    H126289   4.939   3.757   0.117
 8782TIP3    H226290   5.090   3.758   0.121
 8783TIP3   OH226291   6.899   2.969   0.437
 8783TIP3    H126292   6.943   3.049   0.466
 8783TIP3    H226293   6.830   3.000   0.378
 8784TIP3   OH226294   6.758   1.522   4.354
 8784TIP3    H126295   6.676   1.564   4.327
 8784TIP3    H226296   6.766   1.542   4.447
 8785TIP3   OH226297   7.984   4.043   2.400
 8785TIP3    H126298   8.053   4.017   2.340
 8785TIP3    H226299   7.932   4.107   2.351
 8786TIP3   OH226300   0.862   0.538   5.825
 8786TIP3    H126301   0.910   0.488   5.891
 8786TIP3    H226302   0.904   0.514   5.742
 8787TIP3   OH226303   0.506   7.552   3.736
 8787TIP3    H126304   0.496   7.461   3.707
 8787TIP3    H226305   0.590   7.580   3.700
 8788TIP3   OH226306   5.792   7.467   0.545
 8788TIP3    H126307   5.799   7.376   0.574
 8788TIP3    H226308   5.715   7.469   0.488
 8789TIP3   OH226309   3.197   0.058   3.341
 8789TIP3    H126310   3.188  -0.017   3.399
 8789TIP3    H226311   3.166   0.027   3.256
 8790TIP3   OH226312   5.281   5.081   4.503
 8790TIP3    H126313   5.317   5.097   4.416
 8790TIP3    H226314   5.329   5.141   4.560
 8791TIP3   OH226315   6.095   3.786   4.271
 8791TIP3    H126316   6.027   3.813   4.333
 8791TIP3    H226317   6.172   3.836   4.296
 8792TIP3   OH226318   2.453   6.218   1.234
 8792TIP3    H126319   2.466   6.211   1.140
 8792TIP3    H226320   2.363   6.250   1.244
 8793TIP3   OH226321   2.056   0.668   3.919
 8793TIP3    H126322   2.055   0.759   3.948
 8793TIP3    H226323   2.101   0.670   3.835
 8794TIP3   OH226324   6.341   5.785   0.591
 8794TIP3    H126325   6.274   5.825   0.537
 8794TIP3    H226326   6.303   5.782   0.679
 8795TIP3   OH226327   3.986   1.017   1.446
 8795TIP3    H126328   3.964   0.986   1.534
 8795TIP3    H226329   4.011   0.938   1.399
 8796TIP3   OH226330   4.790   4.939   4.356
 8796TIP3    H126331   4.725   4.913   4.291
 8796TIP3    H226332   4.741   4.989   4.421
 8797TIP3   OH226333   1.842   0.225   0.574
 8797TIP3    H126334   1.813   0.309   0.539
 8797TIP3    H226335   1.780   0.204   0.643
 8798TIP3   OH226336   1.932   4.233   2.002
 8798TIP3    H126337   2.009   4.177   1.990
 8798TIP3    H226338   1.858   4.174   1.989
 8799TIP3   OH226339   2.042   3.574   0.791
 8799TIP3    H126340   2.003   3.554   0.876
 8799TIP3    H226341   2.014   3.663   0.771
 8800TIP3   OH226342   0.655   7.076   6.716
 8800TIP3    H126343   0.574   7.027   6.698
 8800TIP3    H226344   0.624   7.157   6.758
 8801TIP3   OH226345   0.860   7.675   6.668
 8801TIP3    H126346   0.929   7.695   6.731
 8801TIP3    H226347   0.871   7.740   6.598
 8802TIP3   OH226348   3.940   3.108   0.211
 8802TIP3    H126349   3.996   3.104   0.133
 8802TIP3    H226350   3.970   3.035   0.266
 8803TIP3   OH226351   6.868   1.297   2.165
 8803TIP3    H126352   6.941   1.294   2.227
 8803TIP3    H226353   6.874   1.383   2.124
 8804TIP3   OH226354   4.945   5.781   5.550
 8804TIP3    H126355   4.849   5.774   5.553
 8804TIP3    H226356   4.973   5.701   5.504
 8805TIP3   OH226357   3.431   4.778   6.305
 8805TIP3    H126358   3.351   4.754   6.258
 8805TIP3    H226359   3.494   4.799   6.236
 8806TIP3   OH226360   2.695   3.461   5.098
 8806TIP3    H126361   2.660   3.401   5.032
 8806TIP3    H226362   2.789   3.461   5.083
 8807TIP3   OH226363   5.010   3.121   4.467
 8807TIP3    H126364   5.073   3.056   4.437
 8807TIP3    H226365   4.954   3.137   4.392
 8808TIP3   OH226366   4.354   2.047   6.424
 8808TIP3    H126367   4.262   2.027   6.442
 8808TIP3    H226368   4.394   2.054   6.511
 8809TIP3   OH226369   0.757   0.944   4.190
 8809TIP3    H126370   0.792   0.913   4.274
 8809TIP3    H226371   0.690   1.007   4.213
 8810TIP3   OH226372   1.538   7.779   6.402
 8810TIP3    H126373   1.574   7.787   6.490
 8810TIP3    H226374   1.523   7.686   6.391
 8811TIP3   OH226375   4.128   0.303   2.666
 8811TIP3    H126376   4.132   0.218   2.712
 8811TIP3    H226377   4.207   0.304   2.613
 8812TIP3   OH226378   3.139   7.258   4.503
 8812TIP3    H126379   3.061   7.287   4.455
 8812TIP3    H226380   3.196   7.335   4.505
 8813TIP3   OH226381   1.532   7.412   4.080
 8813TIP3    H126382   1.602   7.347   4.074
 8813TIP3    H226383   1.463   7.369   4.131
 8814TIP3   OH226384   6.955   5.879   5.362
 8814TIP3    H126385   6.941   5.798   5.410
 8814TIP3    H226386   7.034   5.917   5.401
 8815TIP3   OH226387   4.174   4.860   2.273
 8815TIP3    H126388   4.255   4.880   2.226
 8815TIP3    H226389   4.138   4.946   2.295
 8816TIP3   OH226390   6.728   1.853   1.423
 8816TIP3    H126391   6.738   1.765   1.385
 8816TIP3    H226392   6.704   1.837   1.514
 8817TIP3   OH226393   4.767   6.996   4.641
 8817TIP3    H126394   4.791   7.086   4.619
 8817TIP3    H226395   4.847   6.958   4.677
 8818TIP3   OH226396   5.787   0.768   2.994
 8818TIP3    H126397   5.700   0.760   3.033
 8818TIP3    H226398   5.841   0.706   3.044
 8819TIP3   OH226399   4.178   3.746   1.416
 8819TIP3    H126400   4.151   3.838   1.411
 8819TIP3    H226401   4.108   3.698   1.373
 8820TIP3   OH226402   5.812   3.899   1.767
 8820TIP3    H126403   5.902   3.869   1.771
 8820TIP3    H226404   5.810   3.960   1.693
 8821TIP3   OH226405   7.608   2.381   6.130
 8821TIP3    H126406   7.580   2.407   6.042
 8821TIP3    H226407   7.644   2.293   6.118
 8822TIP3   OH226408   6.410   4.064   1.612
 8822TIP3    H126409   6.436   4.093   1.525
 8822TIP3    H226410   6.370   3.978   1.599
 8823TIP3   OH226411   0.979   1.793   3.551
 8823TIP3    H126412   1.005   1.701   3.543
 8823TIP3    H226413   1.036   1.840   3.490
 8824TIP3   OH226414   3.972   3.590   6.193
 8824TIP3    H126415   4.044   3.643   6.224
 8824TIP3    H226416   3.894   3.626   6.235
 8825TIP3   OH226417   0.284   1.992   1.611
 8825TIP3    H126418   0.206   2.042   1.634
 8825TIP3    H226419   0.327   2.044   1.543
 8826TIP3   OH226420   1.421   5.932   0.896
 8826TIP3    H126421   1.369   5.890   0.828
 8826TIP3    H226422   1.512   5.913   0.871
 8827TIP3   OH226423   0.809   6.949   3.151
 8827TIP3    H126424   0.765   7.017   3.203
 8827TIP3    H226425   0.742   6.882   3.138
 8828TIP3   OH226426   5.178   0.503   3.875
 8828TIP3    H126427   5.205   0.453   3.798
 8828TIP3    H226428   5.095   0.462   3.901
 8829TIP3   OH226429   5.018   1.265   3.656
 8829TIP3    H126430   4.924   1.279   3.650
 8829TIP3    H226431   5.037   1.198   3.591
 8830TIP3   OH226432   1.960   1.823   5.926
 8830TIP3    H126433   1.970   1.786   6.014
 8830TIP3    H226434   2.047   1.853   5.902
 8831TIP3   OH226435   5.058   4.822   1.445
 8831TIP3    H126436   5.024   4.733   1.447
 8831TIP3    H226437   5.054   4.852   1.535
 8832TIP3   OH226438   7.988   6.397   1.328
 8832TIP3    H126439   8.043   6.460   1.281
 8832TIP3    H226440   7.923   6.369   1.263
 8833TIP3   OH226441   8.283   4.538   1.857
 8833TIP3    H126442   8.193   4.549   1.887
 8833TIP3    H226443   8.280   4.463   1.797
 8834TIP3   OH226444   0.664   0.800   2.416
 8834TIP3    H126445   0.673   0.751   2.334
 8834TIP3    H226446   0.580   0.845   2.408
 8835TIP3   OH226447   1.260   2.439   1.194
 8835TIP3    H126448   1.318   2.483   1.132
 8835TIP3    H226449   1.181   2.421   1.144
 8836TIP3   OH226450   2.021   5.404   3.704
 8836TIP3    H126451   1.950   5.437   3.758
 8836TIP3    H226452   2.099   5.412   3.760
 8837TIP3   OH226453   1.797   4.196   4.975
 8837TIP3    H126454   1.864   4.168   4.913
 8837TIP3    H226455   1.790   4.124   5.037
 8838TIP3   OH226456   4.093   7.063   0.673
 8838TIP3    H126457   4.078   7.124   0.745
 8838TIP3    H226458   4.072   7.114   0.594
 8839TIP3   OH226459   5.501   1.964   5.018
 8839TIP3    H126460   5.412   1.999   5.014
 8839TIP3    H226461   5.554   2.030   4.974
 8840TIP3   OH226462   7.930   4.174   3.102
 8840TIP3    H126463   7.878   4.128   3.168
 8840TIP3    H226464   7.885   4.157   3.019
 8841TIP3   OH226465   6.681   0.962   5.432
 8841TIP3    H126466   6.746   0.930   5.495
 8841TIP3    H226467   6.645   1.040   5.473
 8842TIP3   OH226468   1.790   0.675   5.310
 8842TIP3    H126469   1.705   0.720   5.310
 8842TIP3    H226470   1.804   0.653   5.402
 8843TIP3   OH226471   1.501   7.474   1.323
 8843TIP3    H126472   1.531   7.552   1.368
 8843TIP3    H226473   1.575   7.450   1.266
 8844TIP3   OH226474   0.773   6.202   5.477
 8844TIP3    H126475   0.820   6.163   5.404
 8844TIP3    H226476   0.823   6.176   5.554
 8845TIP3   OH226477   3.317   7.430   0.771
 8845TIP3    H126478   3.251   7.495   0.749
 8845TIP3    H226479   3.321   7.431   0.867
 8846TIP3   OH226480   3.160   3.594   3.645
 8846TIP3    H126481   3.113   3.587   3.727
 8846TIP3    H226482   3.252   3.590   3.669
 8847TIP3   OH226483   7.698   5.080   3.087
 8847TIP3    H126484   7.657   5.123   3.162
 8847TIP3    H226485   7.685   5.140   3.014
 8848TIP3   OH226486   4.033   4.383   5.092
 8848TIP3    H126487   3.978   4.383   5.014
 8848TIP3    H226488   3.975   4.410   5.163
 8849TIP3   OH226489   7.598   4.641   5.595
 8849TIP3    H126490   7.567   4.721   5.637
 8849TIP3    H226491   7.622   4.583   5.667
 8850TIP3   OH226492   1.370   3.434   0.054
 8850TIP3    H126493   1.305   3.497   0.021
 8850TIP3    H226494   1.398   3.386  -0.023
 8851TIP3   OH226495   3.597   3.307  -0.029
 8851TIP3    H126496   3.508   3.333  -0.008
 8851TIP3    H226497   3.633   3.275   0.054
 8852TIP3   OH226498   1.566   4.486   2.502
 8852TIP3    H126499   1.529   4.534   2.576
 8852TIP3    H226500   1.585   4.399   2.538
 8853TIP3   OH226501   3.802   3.494   4.409
 8853TIP3    H126502   3.871   3.517   4.471
 8853TIP3    H226503   3.843   3.500   4.323
 8854TIP3   OH226504   3.039   7.226   2.467
 8854TIP3    H126505   2.976   7.295   2.486
 8854TIP3    H226506   3.123   7.271   2.462
 8855TIP3   OH226507   2.378   6.985   6.727
 8855TIP3    H126508   2.358   7.051   6.662
 8855TIP3    H226509   2.292   6.952   6.756
 8856TIP3   OH226510   5.954   6.476   6.679
 8856TIP3    H126511   5.872   6.489   6.727
 8856TIP3    H226512   6.000   6.560   6.686
 8857TIP3   OH226513   7.689   1.249   1.392
 8857TIP3    H126514   7.678   1.154   1.390
 8857TIP3    H226515   7.708   1.269   1.484
 8858TIP3   OH226516   5.734   3.617   4.201
 8858TIP3    H126517   5.807   3.570   4.160
 8858TIP3    H226518   5.740   3.706   4.166
 8859TIP3   OH226519   5.806   4.932   3.978
 8859TIP3    H126520   5.901   4.922   3.988
 8859TIP3    H226521   5.795   4.970   3.892
 8860TIP3   OH226522   5.338   2.880   3.022
 8860TIP3    H126523   5.300   2.866   2.935
 8860TIP3    H226524   5.372   2.794   3.047
 8861TIP3   OH226525   7.063   7.654   6.297
 8861TIP3    H126526   6.969   7.667   6.298
 8861TIP3    H226527   7.095   7.708   6.370
 8862TIP3   OH226528   3.283   7.362   5.311
 8862TIP3    H126529   3.239   7.430   5.362
 8862TIP3    H226530   3.370   7.398   5.293
 8863TIP3   OH226531   1.316   1.667   3.834
 8863TIP3    H126532   1.253   1.725   3.791
 8863TIP3    H226533   1.396   1.678   3.783
 8864TIP3   OH226534   6.717   6.280   3.801
 8864TIP3    H126535   6.648   6.237   3.750
 8864TIP3    H226536   6.683   6.367   3.818
 8865TIP3   OH226537   4.732   0.765   0.583
 8865TIP3    H126538   4.684   0.799   0.659
 8865TIP3    H226539   4.692   0.679   0.568
 8866TIP3   OH226540   8.210   3.321   1.696
 8866TIP3    H126541   8.244   3.232   1.685
 8866TIP3    H226542   8.252   3.372   1.627
 8867TIP3   OH226543   3.149   2.758   1.585
 8867TIP3    H126544   3.128   2.697   1.515
 8867TIP3    H226545   3.095   2.730   1.659
 8868TIP3   OH226546   6.176   0.756   5.138
 8868TIP3    H126547   6.250   0.787   5.190
 8868TIP3    H226548   6.101   0.762   5.197
 8869TIP3   OH226549   4.365   6.884   6.126
 8869TIP3    H126550   4.444   6.931   6.153
 8869TIP3    H226551   4.305   6.895   6.200
 8870TIP3   OH226552   2.513   5.852   5.779
 8870TIP3    H126553   2.592   5.863   5.725
 8870TIP3    H226554   2.532   5.902   5.859
 8871TIP3   OH226555   6.834   0.833   5.993
 8871TIP3    H126556   6.835   0.898   6.064
 8871TIP3    H226557   6.765   0.772   6.017
 8872TIP3   OH226558   2.571   5.073   5.356
 8872TIP3    H126559   2.593   4.988   5.319
 8872TIP3    H226560   2.606   5.071   5.445
 8873TIP3   OH226561   3.945   5.992   2.766
 8873TIP3    H126562   3.900   6.067   2.726
 8873TIP3    H226563   4.038   6.015   2.763
 8874TIP3   OH226564   4.103   2.893   3.427
 8874TIP3    H126565   4.152   2.963   3.384
 8874TIP3    H226566   4.170   2.830   3.453
 8875TIP3   OH226567   7.569   3.138   3.144
 8875TIP3    H126568   7.598   3.105   3.059
 8875TIP3    H226569   7.636   3.108   3.205
 8876TIP3   OH226570   6.999   2.510   2.752
 8876TIP3    H126571   7.071   2.565   2.723
 8876TIP3    H226572   6.927   2.570   2.770
 8877TIP3   OH226573   6.504   2.713   1.151
 8877TIP3    H126574   6.496   2.703   1.056
 8877TIP3    H226575   6.521   2.807   1.163
 8878TIP3   OH226576   1.716   0.487   5.505
 8878TIP3    H126577   1.759   0.402   5.500
 8878TIP3    H226578   1.658   0.489   5.429
 8879TIP3   OH226579   7.878   0.636   3.249
 8879TIP3    H126580   7.887   0.549   3.289
 8879TIP3    H226581   7.818   0.622   3.176
 8880TIP3   OH226582   3.095   7.196   6.610
 8880TIP3    H126583   3.078   7.158   6.696
 8880TIP3    H226584   3.019   7.250   6.592
 8881TIP3   OH226585   3.620   3.614   4.104
 8881TIP3    H126586   3.556   3.555   4.064
 8881TIP3    H226587   3.584   3.633   4.190
 8882TIP3   OH226588   5.946   4.908   0.792
 8882TIP3    H126589   5.921   4.818   0.775
 8882TIP3    H226590   5.975   4.909   0.883
 8883TIP3   OH226591   7.195   0.259   3.189
 8883TIP3    H126592   7.244   0.185   3.154
 8883TIP3    H226593   7.208   0.253   3.284
 8884TIP3   OH226594   4.668   2.085   4.861
 8884TIP3    H126595   4.630   2.125   4.782
 8884TIP3    H226596   4.679   2.158   4.922
 8885TIP3   OH226597   6.052   6.094   1.253
 8885TIP3    H126598   5.986   6.109   1.185
 8885TIP3    H226599   6.003   6.100   1.335
 8886TIP3   OH226600   7.106   0.842   4.102
 8886TIP3    H126601   7.076   0.765   4.150
 8886TIP3    H226602   7.053   0.914   4.135
 8887TIP3   OH226603   0.359   1.371   6.391
 8887TIP3    H126604   0.288   1.366   6.455
 8887TIP3    H226605   0.403   1.454   6.411
 8888TIP3   OH226606   7.502   1.578   4.800
 8888TIP3    H126607   7.453   1.643   4.749
 8888TIP3    H226608   7.523   1.622   4.882
 8889TIP3   OH226609   6.200   3.321   2.900
 8889TIP3    H126610   6.221   3.370   2.979
 8889TIP3    H226611   6.176   3.234   2.932
 8890TIP3   OH226612   6.069   6.460   5.411
 8890TIP3    H126613   6.034   6.371   5.422
 8890TIP3    H226614   6.069   6.474   5.317
 8891TIP3   OH226615   5.486   5.596   1.048
 8891TIP3    H126616   5.469   5.521   0.991
 8891TIP3    H226617   5.581   5.608   1.044
 8892TIP3   OH226618   0.405   3.507   3.761
 8892TIP3    H126619   0.471   3.503   3.830
 8892TIP3    H226620   0.325   3.477   3.804
 8893TIP3   OH226621   4.366   5.086   4.634
 8893TIP3    H126622   4.337   4.997   4.656
 8893TIP3    H226623   4.375   5.130   4.719
 8894TIP3   OH226624   2.826   7.768   1.070
 8894TIP3    H126625   2.834   7.841   1.008
 8894TIP3    H226626   2.748   7.789   1.121
 8895TIP3   OH226627   3.395   4.375   3.300
 8895TIP3    H126628   3.477   4.338   3.267
 8895TIP3    H226629   3.358   4.306   3.355
 8896TIP3   OH226630   7.071   5.398   3.777
 8896TIP3    H126631   7.006   5.416   3.846
 8896TIP3    H226632   7.088   5.304   3.784
 8897TIP3   OH226633   2.448   1.715   3.738
 8897TIP3    H126634   2.415   1.770   3.666
 8897TIP3    H226635   2.538   1.744   3.751
 8898TIP3   OH226636   7.732   7.528   1.292
 8898TIP3    H126637   7.807   7.583   1.315
 8898TIP3    H226638   7.768   7.439   1.287
 8899TIP3   OH226639   2.419   6.524   2.824
 8899TIP3    H126640   2.383   6.467   2.755
 8899TIP3    H226641   2.493   6.568   2.782
 8900TIP3   OH226642   8.000   5.796   1.253
 8900TIP3    H126643   7.948   5.824   1.178
 8900TIP3    H226644   8.079   5.849   1.249
 8901TIP3   OH226645   6.926   5.504   4.585
 8901TIP3    H126646   6.840   5.463   4.589
 8901TIP3    H226647   6.931   5.542   4.497
 8902TIP3   OH226648   5.202   3.957   4.373
 8902TIP3    H126649   5.194   3.929   4.282
 8902TIP3    H226650   5.223   4.050   4.369
 8903TIP3   OH226651   2.513   0.950   1.091
 8903TIP3    H126652   2.572   0.888   1.134
 8903TIP3    H226653   2.485   1.008   1.162
 8904TIP3   OH226654   2.350   3.881   1.956
 8904TIP3    H126655   2.409   3.858   2.029
 8904TIP3    H226656   2.325   3.797   1.918
 8905TIP3   OH226657   1.881   2.667   3.329
 8905TIP3    H126658   1.831   2.618   3.265
 8905TIP3    H226659   1.929   2.732   3.278
 8906TIP3   OH226660   2.141   7.355   5.662
 8906TIP3    H126661   2.049   7.330   5.665
 8906TIP3    H226662   2.146   7.422   5.594
 8907TIP3   OH226663   0.698   2.123   3.596
 8907TIP3    H126664   0.693   2.048   3.655
 8907TIP3    H226665   0.662   2.089   3.513
 8908TIP3   OH226666   7.070   3.233   6.140
 8908TIP3    H126667   7.037   3.204   6.055
 8908TIP3    H226668   7.042   3.165   6.201
 8909TIP3   OH226669   7.169   3.160   2.163
 8909TIP3    H126670   7.152   3.218   2.089
 8909TIP3    H226671   7.146   3.073   2.131
 8910TIP3   OH226672   2.278   0.269   6.479
 8910TIP3    H126673   2.336   0.297   6.550
 8910TIP3    H226674   2.260   0.177   6.498
 8911TIP3   OH226675   1.831   2.600   0.540
 8911TIP3    H126676   1.831   2.550   0.458
 8911TIP3    H226677   1.740   2.627   0.551
 8912TIP3   OH226678   3.632   2.250   0.633
 8912TIP3    H126679   3.600   2.276   0.546
 8912TIP3    H226680   3.609   2.158   0.641
 8913TIP3   OH226681   6.439   5.046   4.267
 8913TIP3    H126682   6.391   4.969   4.298
 8913TIP3    H226683   6.530   5.018   4.263
 8914TIP3   OH226684   0.009   0.436   6.551
 8914TIP3    H126685   0.061   0.365   6.587
 8914TIP3    H226686   0.050   0.456   6.467
 8915TIP3   OH226687   7.477   2.663   3.875
 8915TIP3    H126688   7.511   2.597   3.935
 8915TIP3    H226689   7.420   2.717   3.928
 8916TIP3   OH226690   5.515   2.265   3.352
 8916TIP3    H126691   5.585   2.259   3.287
 8916TIP3    H226692   5.438   2.290   3.301
 8917TIP3   OH226693   7.621   7.013   5.757
 8917TIP3    H126694   7.635   6.965   5.839
 8917TIP3    H226695   7.692   6.985   5.700
 8918TIP3   OH226696   5.273   4.941   2.101
 8918TIP3    H126697   5.229   4.867   2.060
 8918TIP3    H226698   5.207   5.011   2.102
 8919TIP3   OH226699   2.884   6.183   6.221
 8919TIP3    H126700   2.900   6.231   6.302
 8919TIP3    H226701   2.791   6.159   6.226
 8920TIP3   OH226702   5.438   5.494   6.327
 8920TIP3    H126703   5.397   5.445   6.256
 8920TIP3    H226704   5.442   5.584   6.295
 8921TIP3   OH226705   0.912   7.661   5.439
 8921TIP3    H126706   0.889   7.579   5.395
 8921TIP3    H226707   0.843   7.673   5.504
 8922TIP3   OH226708   6.726   6.777   1.489
 8922TIP3    H126709   6.718   6.683   1.477
 8922TIP3    H226710   6.814   6.790   1.523
 8923TIP3   OH226711   0.575   1.515   3.624
 8923TIP3    H126712   0.614   1.429   3.635
 8923TIP3    H226713   0.634   1.561   3.564
 8924TIP3   OH226714   0.140   6.151   0.485
 8924TIP3    H126715   0.183   6.231   0.516
 8924TIP3    H226716   0.172   6.082   0.543
 8925TIP3   OH226717   3.171   3.898   5.362
 8925TIP3    H126718   3.218   3.826   5.406
 8925TIP3    H226719   3.235   3.969   5.357
 8926TIP3   OH226720   1.065   4.590   0.344
 8926TIP3    H126721   1.113   4.512   0.374
 8926TIP3    H226722   1.100   4.661   0.397
 8927TIP3   OH226723   2.496   2.680   5.243
 8927TIP3    H126724   2.487   2.644   5.332
 8927TIP3    H226725   2.497   2.775   5.256
 8928TIP3   OH226726   7.899   5.252   1.825
 8928TIP3    H126727   7.861   5.172   1.788
 8928TIP3    H226728   7.992   5.246   1.803
 8929TIP3   OH226729   6.798   4.706   4.217
 8929TIP3    H126730   6.745   4.629   4.199
 8929TIP3    H226731   6.879   4.692   4.168
 8930TIP3   OH226732   8.052   0.358   6.645
 8930TIP3    H126733   8.139   0.398   6.639
 8930TIP3    H226734   8.042   0.309   6.563
 8931TIP3   OH226735   2.239   6.909   4.509
 8931TIP3    H126736   2.246   6.822   4.549
 8931TIP3    H226737   2.329   6.942   4.509
 8932TIP3   OH226738   6.405   2.491   2.649
 8932TIP3    H126739   6.351   2.424   2.690
 8932TIP3    H226740   6.410   2.561   2.714
 8933TIP3   OH226741   2.260   4.382   5.027
 8933TIP3    H126742   2.167   4.389   5.004
 8933TIP3    H226743   2.300   4.460   4.988
 8934TIP3   OH226744   0.896   0.523   1.347
 8934TIP3    H126745   0.888   0.617   1.358
 8934TIP3    H226746   0.982   0.510   1.307
 8935TIP3   OH226747   3.631   0.988   3.420
 8935TIP3    H126748   3.571   0.940   3.477
 8935TIP3    H226749   3.624   0.943   3.336
 8936TIP3   OH226750   3.476   3.358   6.716
 8936TIP3    H126751   3.514   3.322   6.636
 8936TIP3    H226752   3.492   3.290   6.782
 8937TIP3   OH226753   1.869   6.112   3.777
 8937TIP3    H126754   1.855   6.200   3.742
 8937TIP3    H226755   1.813   6.056   3.723
 8938TIP3   OH226756   0.949   3.753   0.370
 8938TIP3    H126757   0.874   3.789   0.323
 8938TIP3    H226758   1.000   3.830   0.396
 8939TIP3   OH226759   5.153   2.142   6.450
 8939TIP3    H126760   5.156   2.237   6.459
 8939TIP3    H226761   5.061   2.120   6.459
 8940TIP3   OH226762   7.099   1.402   2.268
 8940TIP3    H126763   7.143   1.426   2.187
 8940TIP3    H226764   7.062   1.484   2.301
 8941TIP3   OH226765   1.162   3.756   2.480
 8941TIP3    H126766   1.131   3.843   2.504
 8941TIP3    H226767   1.151   3.704   2.560
 8942TIP3   OH226768   6.567   7.046   6.246
 8942TIP3    H126769   6.587   7.136   6.219
 8942TIP3    H226770   6.646   7.016   6.290
 8943TIP3   OH226771   3.714   3.783   1.475
 8943TIP3    H126772   3.704   3.865   1.523
 8943TIP3    H226773   3.795   3.745   1.508
 8944TIP3   OH226774   7.050   3.376   2.008
 8944TIP3    H126775   6.971   3.333   1.973
 8944TIP3    H226776   7.021   3.464   2.030
 8945TIP3   OH226777   2.626   4.212   1.719
 8945TIP3    H126778   2.692   4.245   1.658
 8945TIP3    H226779   2.642   4.259   1.800
 8946TIP3   OH226780   6.552   7.501   4.986
 8946TIP3    H126781   6.571   7.427   5.044
 8946TIP3    H226782   6.480   7.547   5.029
 8947TIP3   OH226783   2.254   2.455   2.860
 8947TIP3    H126784   2.327   2.447   2.921
 8947TIP3    H226785   2.248   2.369   2.819
 8948TIP3   OH226786   3.266   3.334   2.408
 8948TIP3    H126787   3.333   3.366   2.348
 8948TIP3    H226788   3.185   3.336   2.356
 8949TIP3   OH226789   4.952   6.458   5.568
 8949TIP3    H126790   4.904   6.378   5.546
 8949TIP3    H226791   4.902   6.528   5.526
 8950TIP3   OH226792   3.323   2.045   3.098
 8950TIP3    H126793   3.283   1.974   3.148
 8950TIP3    H226794   3.252   2.108   3.084
 8951TIP3   OH226795   7.354   1.651   4.148
 8951TIP3    H126796   7.407   1.708   4.092
 8951TIP3    H226797   7.266   1.688   4.143
 8952TIP3   OH226798   7.149   5.347   4.222
 8952TIP3    H126799   7.094   5.308   4.155
 8952TIP3    H226800   7.238   5.318   4.201
 8953TIP3   OH226801   2.726   6.050   1.025
 8953TIP3    H126802   2.808   6.061   0.977
 8953TIP3    H226803   2.682   5.977   0.980
 8954TIP3   OH226804   0.510   7.252   4.014
 8954TIP3    H126805   0.466   7.316   4.070
 8954TIP3    H226806   0.463   7.170   4.030
 8955TIP3   OH226807   6.577   5.984   5.538
 8955TIP3    H126808   6.618   6.000   5.623
 8955TIP3    H226809   6.485   6.009   5.551
 8956TIP3   OH226810   6.630   1.120   3.726
 8956TIP3    H126811   6.562   1.116   3.658
 8956TIP3    H226812   6.692   1.051   3.702
 8957TIP3   OH226813   4.498   5.730   1.084
 8957TIP3    H126814   4.528   5.708   1.172
 8957TIP3    H226815   4.563   5.693   1.026
 8958TIP3   OH226816   4.355   4.975   5.686
 8958TIP3    H126817   4.329   4.884   5.673
 8958TIP3    H226818   4.419   4.972   5.757
 8959TIP3   OH226819   5.879   5.104   6.632
 8959TIP3    H126820   5.792   5.120   6.669
 8959TIP3    H226821   5.938   5.158   6.685
 8960TIP3   OH226822   2.186   2.234   0.466
 8960TIP3    H126823   2.264   2.179   0.478
 8960TIP3    H226824   2.215   2.322   0.490
 8961TIP3   OH226825   3.617   5.438   6.123
 8961TIP3    H126826   3.613   5.360   6.068
 8961TIP3    H226827   3.618   5.511   6.061
 8962TIP3   OH226828   6.493   6.352   1.382
 8962TIP3    H126829   6.402   6.364   1.353
 8962TIP3    H226830   6.489   6.277   1.441
 8963TIP3   OH226831   5.599   2.376   4.150
 8963TIP3    H126832   5.545   2.339   4.220
 8963TIP3    H226833   5.539   2.429   4.098
 8964TIP3   OH226834   5.784   4.551   4.610
 8964TIP3    H126835   5.715   4.612   4.583
 8964TIP3    H226836   5.811   4.583   4.696
 8965TIP3   OH226837   1.521   4.825   6.461
 8965TIP3    H126838   1.438   4.781   6.445
 8965TIP3    H226839   1.532   4.885   6.388
 8966TIP3   OH226840   0.521   4.037   4.501
 8966TIP3    H126841   0.607   4.009   4.471
 8966TIP3    H226842   0.538   4.096   4.574
 8967TIP3   OH226843   0.999   0.565   1.084
 8967TIP3    H126844   0.951   0.648   1.089
 8967TIP3    H226845   0.932   0.498   1.076
 8968TIP3   OH226846   1.002   6.611   4.785
 8968TIP3    H126847   1.029   6.684   4.729
 8968TIP3    H226848   1.066   6.610   4.856
 8969TIP3   OH226849   5.106   6.383   4.877
 8969TIP3    H126850   5.173   6.444   4.910
 8969TIP3    H226851   5.154   6.302   4.862
 8970TIP3   OH226852   1.101   6.526   5.933
 8970TIP3    H126853   1.024   6.579   5.953
 8970TIP3    H226854   1.175   6.583   5.952
 8971TIP3   OH226855   1.121   3.089   3.102
 8971TIP3    H126856   1.189   3.149   3.131
 8971TIP3    H226857   1.087   3.050   3.183
 8972TIP3   OH226858   4.149   3.452   5.809
 8972TIP3    H126859   4.117   3.538   5.835
 8972TIP3    H226860   4.111   3.438   5.722
 8973TIP3   OH226861   4.836   6.672   4.145
 8973TIP3    H126862   4.860   6.617   4.071
 8973TIP3    H226863   4.740   6.678   4.141
 8974TIP3   OH226864   0.692   1.272   3.671
 8974TIP3    H126865   0.664   1.180   3.678
 8974TIP3    H226866   0.781   1.272   3.705
 8975TIP3   OH226867   3.811   2.325   4.977
 8975TIP3    H126868   3.753   2.396   4.952
 8975TIP3    H226869   3.772   2.246   4.939
 8976TIP3   OH226870   6.462   0.441   3.912
 8976TIP3    H126871   6.482   0.457   3.820
 8976TIP3    H226872   6.455   0.346   3.919
 8977TIP3   OH226873   6.577   1.897   3.959
 8977TIP3    H126874   6.605   1.806   3.970
 8977TIP3    H226875   6.547   1.902   3.868
 8978TIP3   OH226876   6.695   6.599   4.076
 8978TIP3    H126877   6.748   6.651   4.015
 8978TIP3    H226878   6.605   6.616   4.050
 8979TIP3   OH226879   5.554   5.239   5.896
 8979TIP3    H126880   5.591   5.327   5.908
 8979TIP3    H226881   5.630   5.184   5.877
 8980TIP3   OH226882   1.213   2.470   5.746
 8980TIP3    H126883   1.305   2.442   5.744
 8980TIP3    H226884   1.197   2.503   5.657
 8981TIP3   OH226885   2.727   0.606   5.704
 8981TIP3    H126886   2.642   0.586   5.664
 8981TIP3    H226887   2.761   0.679   5.653
 8982TIP3   OH226888   3.353   6.823   0.197
 8982TIP3    H126889   3.269   6.855   0.229
 8982TIP3    H226890   3.416   6.891   0.220
 8983TIP3   OH226891   3.459   2.782   3.236
 8983TIP3    H126892   3.462   2.824   3.150
 8983TIP3    H226893   3.405   2.704   3.223
 8984TIP3   OH226894   6.714   2.412   5.978
 8984TIP3    H126895   6.733   2.400   6.072
 8984TIP3    H226896   6.644   2.349   5.960
 8985TIP3   OH226897   8.002   0.928   0.558
 8985TIP3    H126898   8.092   0.946   0.533
 8985TIP3    H226899   7.991   0.973   0.642
 8986TIP3   OH226900   2.813   1.940   0.114
 8986TIP3    H126901   2.820   1.888   0.194
 8986TIP3    H226902   2.724   1.976   0.116
 8987TIP3   OH226903   6.027   6.963   1.385
 8987TIP3    H126904   5.941   6.987   1.418
 8987TIP3    H226905   6.014   6.950   1.291
 8988TIP3   OH226906   5.749   3.513   4.702
 8988TIP3    H126907   5.788   3.600   4.712
 8988TIP3    H226908   5.742   3.500   4.607
 8989TIP3   OH226909   7.709   2.655   4.690
 8989TIP3    H126910   7.783   2.700   4.649
 8989TIP3    H226911   7.633   2.706   4.664
 8990TIP3   OH226912   0.572   3.102   0.081
 8990TIP3    H126913   0.530   3.128   0.163
 8990TIP3    H226914   0.548   3.010   0.069
 8991TIP3   OH226915   1.612   3.016   1.220
 8991TIP3    H126916   1.626   3.094   1.273
 8991TIP3    H226917   1.576   2.951   1.281
 8992TIP3   OH226918   6.547   3.477   2.777
 8992TIP3    H126919   6.556   3.533   2.854
 8992TIP3    H226920   6.635   3.475   2.739
 8993TIP3   OH226921   3.797   7.389   6.575
 8993TIP3    H126922   3.892   7.401   6.576
 8993TIP3    H226923   3.772   7.382   6.667
 8994TIP3   OH226924   2.701   3.717   5.221
 8994TIP3    H126925   2.709   3.636   5.172
 8994TIP3    H226926   2.613   3.714   5.259
 8995TIP3   OH226927   7.262   2.843   6.668
 8995TIP3    H126928   7.290   2.787   6.595
 8995TIP3    H226929   7.225   2.782   6.732
 8996TIP3   OH226930   6.992   3.889   5.902
 8996TIP3    H126931   7.025   3.914   5.988
 8996TIP3    H226932   7.053   3.822   5.870
 8997TIP3   OH226933   3.063   6.875   3.541
 8997TIP3    H126934   2.988   6.834   3.585
 8997TIP3    H226935   3.052   6.852   3.449
 8998TIP3   OH226936   1.199   0.535   3.552
 8998TIP3    H126937   1.278   0.508   3.505
 8998TIP3    H226938   1.213   0.628   3.570
 8999TIP3   OH226939   5.447   4.278   4.151
 8999TIP3    H126940   5.531   4.305   4.115
 8999TIP3    H226941   5.463   4.190   4.185
 9000TIP3   OH226942   3.905   3.964   4.171
 9000TIP3    H126943   3.910   4.051   4.131
 9000TIP3    H226944   3.839   3.973   4.240
 9001TIP3   OH226945   5.031   2.280   6.141
 9001TIP3    H126946   5.033   2.370   6.173
 9001TIP3    H226947   5.123   2.253   6.139
 9002TIP3   OH226948   6.225   2.662   0.199
 9002TIP3    H126949   6.225   2.748   0.156
 9002TIP3    H226950   6.318   2.639   0.206
 9003TIP3   OH226951   0.299   7.057   2.212
 9003TIP3    H126952   0.344   7.071   2.129
 9003TIP3    H226953   0.350   6.989   2.255
 9004TIP3   OH226954   0.364   5.266   4.467
 9004TIP3    H126955   0.278   5.306   4.472
 9004TIP3    H226956   0.350   5.174   4.489
 9005TIP3   OH226957   7.312   6.560   0.479
 9005TIP3    H126958   7.341   6.640   0.436
 9005TIP3    H226959   7.296   6.499   0.407
 9006TIP3   OH226960   4.701   4.677   2.291
 9006TIP3    H126961   4.782   4.660   2.340
 9006TIP3    H226962   4.650   4.735   2.349
 9007TIP3   OH226963   0.519   3.773   5.282
 9007TIP3    H126964   0.571   3.797   5.205
 9007TIP3    H226965   0.459   3.706   5.250
 9008TIP3   OH226966   3.724   5.924   4.477
 9008TIP3    H126967   3.810   5.888   4.459
 9008TIP3    H226968   3.735   5.978   4.555
 9009TIP3   OH226969   7.910   2.425   5.119
 9009TIP3    H126970   7.999   2.416   5.085
 9009TIP3    H226971   7.853   2.412   5.043
 9010TIP3   OH226972   6.493   0.035   4.584
 9010TIP3    H126973   6.449   0.052   4.667
 9010TIP3    H226974   6.423   0.012   4.523
 9011TIP3   OH226975   3.284   3.752   2.648
 9011TIP3    H126976   3.250   3.711   2.569
 9011TIP3    H226977   3.345   3.687   2.684
 9012TIP3   OH226978   7.339   1.517   3.807
 9012TIP3    H126979   7.332   1.453   3.877
 9012TIP3    H226980   7.433   1.533   3.798
 9013TIP3   OH226981   6.591   4.857   5.634
 9013TIP3    H126982   6.570   4.772   5.671
 9013TIP3    H226983   6.634   4.904   5.705
 9014TIP3   OH226984   2.780   4.306   2.811
 9014TIP3    H126985   2.707   4.245   2.810
 9014TIP3    H226986   2.858   4.251   2.804
 9015TIP3   OH226987   3.171   7.199   1.197
 9015TIP3    H126988   3.096   7.203   1.256
 9015TIP3    H226989   3.137   7.227   1.112
 9016TIP3   OH226990   2.808   2.601   1.553
 9016TIP3    H126991   2.813   2.641   1.640
 9016TIP3    H226992   2.723   2.628   1.519
 9017TIP3   OH226993   3.056   4.884   5.479
 9017TIP3    H126994   3.010   4.965   5.460
 9017TIP3    H226995   3.121   4.908   5.545
 9018TIP3   OH226996   5.780   7.206   0.636
 9018TIP3    H126997   5.761   7.181   0.545
 9018TIP3    H226998   5.706   7.171   0.686
 9019TIP3   OH226999   2.617   2.269   6.076
 9019TIP3    H127000   2.684   2.239   6.137
 9019TIP3    H227001   2.665   2.288   5.995
 9020TIP3   OH227002   3.599   1.491   4.778
 9020TIP3    H127003   3.681   1.457   4.743
 9020TIP3    H227004   3.553   1.528   4.703
 9021TIP3   OH227005   6.807   1.205   2.677
 9021TIP3    H127006   6.896   1.200   2.712
 9021TIP3    H227007   6.792   1.118   2.640
 9022TIP3   OH227008   4.601   7.321   0.234
 9022TIP3    H127009   4.684   7.288   0.270
 9022TIP3    H227010   4.604   7.294   0.142
 9023TIP3   OH227011   4.313   0.091   5.746
 9023TIP3    H127012   4.270   0.027   5.802
 9023TIP3    H227013   4.395   0.111   5.790
 9024TIP3   OH227014   2.473   2.530   1.613
 9024TIP3    H127015   2.530   2.587   1.560
 9024TIP3    H227016   2.423   2.591   1.668
 9025TIP3   OH227017   2.329   7.751   5.220
 9025TIP3    H127018   2.330   7.799   5.138
 9025TIP3    H227019   2.413   7.772   5.261
 9026TIP3   OH227020   5.981  -0.011   2.805
 9026TIP3    H127021   6.012   0.051   2.871
 9026TIP3    H227022   5.913  -0.061   2.849
 9027TIP3   OH227023   4.714   3.398   0.067
 9027TIP3    H127024   4.733   3.453  -0.009
 9027TIP3    H227025   4.643   3.341   0.038
 9028TIP3   OH227026   2.688   5.360   3.079
 9028TIP3    H127027   2.744   5.322   3.011
 9028TIP3    H227028   2.626   5.290   3.100
 9029TIP3   OH227029   5.351   5.850   2.876
 9029TIP3    H127030   5.280   5.864   2.813
 9029TIP3    H227031   5.309   5.803   2.948
 9030TIP3   OH227032   3.695   5.363   6.383
 9030TIP3    H127033   3.684   5.450   6.422
 9030TIP3    H227034   3.643   5.366   6.303
 9031TIP3   OH227035   2.349   5.721   3.793
 9031TIP3    H127036   2.302   5.781   3.736
 9031TIP3    H227037   2.285   5.697   3.861
 9032TIP3   OH227038   2.597   0.600   3.857
 9032TIP3    H127039   2.552   0.639   3.932
 9032TIP3    H227040   2.588   0.665   3.788
 9033TIP3   OH227041   4.675   2.472   2.054
 9033TIP3    H127042   4.602   2.432   2.101
 9033TIP3    H227043   4.753   2.434   2.094
 9034TIP3   OH227044   3.263   4.872   4.390
 9034TIP3    H127045   3.205   4.928   4.442
 9034TIP3    H227046   3.222   4.869   4.304
 9035TIP3   OH227047   4.363   6.271   0.342
 9035TIP3    H127048   4.361   6.176   0.348
 9035TIP3    H227049   4.404   6.299   0.424
 9036TIP3   OH227050   5.550   6.547   2.946
 9036TIP3    H127051   5.609   6.533   3.020
 9036TIP3    H227052   5.491   6.471   2.948
 9037TIP3   OH227053   6.519   5.816   3.614
 9037TIP3    H127054   6.469   5.828   3.695
 9037TIP3    H227055   6.611   5.823   3.642
 9038TIP3   OH227056   7.280   2.256   6.503
 9038TIP3    H127057   7.247   2.240   6.415
 9038TIP3    H227058   7.218   2.318   6.541
 9039TIP3   OH227059   4.443   5.995   0.424
 9039TIP3    H127060   4.447   5.947   0.507
 9039TIP3    H227061   4.528   6.039   0.418
 9040TIP3   OH227062   6.329   7.154   0.876
 9040TIP3    H127063   6.238   7.139   0.903
 9040TIP3    H227064   6.375   7.174   0.957
 9041TIP3   OH227065   3.564   6.976   0.311
 9041TIP3    H127066   3.621   7.045   0.345
 9041TIP3    H227067   3.546   6.920   0.387
 9042TIP3   OH227068   3.072   2.867   2.756
 9042TIP3    H127069   3.068   2.960   2.732
 9042TIP3    H227070   3.066   2.866   2.851
 9043TIP3   OH227071   5.850   3.324   1.814
 9043TIP3    H127072   5.833   3.246   1.762
 9043TIP3    H227073   5.936   3.354   1.786
 9044TIP3   OH227074   1.588   5.859   1.328
 9044TIP3    H127075   1.564   5.781   1.278
 9044TIP3    H227076   1.657   5.900   1.277
 9045TIP3   OH227077   1.207   6.823   3.598
 9045TIP3    H127078   1.297   6.790   3.588
 9045TIP3    H227079   1.165   6.805   3.514
 9046TIP3   OH227080   0.456   6.872   2.334
 9046TIP3    H127081   0.485   6.780   2.338
 9046TIP3    H227082   0.477   6.908   2.420
 9047TIP3   OH227083   1.754   3.091   0.596
 9047TIP3    H127084   1.742   3.116   0.505
 9047TIP3    H227085   1.837   3.132   0.621
 9048TIP3   OH227086   2.607   0.779   3.656
 9048TIP3    H127087   2.695   0.770   3.621
 9048TIP3    H227088   2.555   0.809   3.581
 9049TIP3   OH227089   5.912   4.603   3.004
 9049TIP3    H127090   5.919   4.520   3.052
 9049TIP3    H227091   6.003   4.629   2.988
 9050TIP3   OH227092   0.219   0.926   6.594
 9050TIP3    H127093   0.265   0.871   6.657
 9050TIP3    H227094   0.285   0.986   6.561
 9051TIP3   OH227095   2.504   6.869   0.390
 9051TIP3    H127096   2.417   6.843   0.360
 9051TIP3    H227097   2.562   6.800   0.358
 9052TIP3   OH227098   3.012   5.024   3.218
 9052TIP3    H127099   2.993   4.948   3.274
 9052TIP3    H227100   3.059   5.085   3.275
 9053TIP3   OH227101   1.721   6.614   1.226
 9053TIP3    H127102   1.795   6.627   1.166
 9053TIP3    H227103   1.645   6.608   1.169
 9054TIP3   OH227104   1.804   5.482   2.956
 9054TIP3    H127105   1.894   5.450   2.963
 9054TIP3    H227106   1.774   5.451   2.870
 9055TIP3   OH227107   5.377   6.524   4.668
 9055TIP3    H127108   5.351   6.436   4.640
 9055TIP3    H227109   5.367   6.522   4.763
 9056TIP3   OH227110   6.715   2.774   2.310
 9056TIP3    H127111   6.727   2.714   2.236
 9056TIP3    H227112   6.647   2.733   2.363
 9057TIP3   OH227113   0.413   1.411   1.373
 9057TIP3    H127114   0.424   1.339   1.311
 9057TIP3    H227115   0.377   1.483   1.322
 9058TIP3   OH227116   4.472   4.171   5.217
 9058TIP3    H127117   4.508   4.108   5.155
 9058TIP3    H227118   4.437   4.241   5.162
 9059TIP3   OH227119   2.013   5.777   1.710
 9059TIP3    H127120   1.975   5.840   1.648
 9059TIP3    H227121   2.085   5.737   1.662
 9060TIP3   OH227122   4.709   3.983   3.135
 9060TIP3    H127123   4.698   3.984   3.230
 9060TIP3    H227124   4.802   3.966   3.121
 9061TIP3   OH227125   0.938   5.325   6.084
 9061TIP3    H127126   0.974   5.360   6.166
 9061TIP3    H227127   0.929   5.231   6.100
 9062TIP3   OH227128   2.722   7.191   2.426
 9062TIP3    H127129   2.726   7.170   2.332
 9062TIP3    H227130   2.780   7.266   2.437
 9063TIP3   OH227131   0.067   5.174   6.114
 9063TIP3    H127132   0.055   5.104   6.050
 9063TIP3    H227133   0.033   5.138   6.196
 9064TIP3   OH227134   2.769   4.188   2.414
 9064TIP3    H127135   2.854   4.232   2.407
 9064TIP3    H227136   2.786   4.111   2.467
 9065TIP3   OH227137   4.405   6.645   4.616
 9065TIP3    H127138   4.442   6.729   4.588
 9065TIP3    H227139   4.434   6.583   4.550
 9066TIP3   OH227140   5.380   7.521   3.761
 9066TIP3    H127141   5.417   7.598   3.805
 9066TIP3    H227142   5.355   7.553   3.674
 9067TIP3   OH227143   7.180   5.518   4.432
 9067TIP3    H127144   7.126   5.482   4.503
 9067TIP3    H227145   7.164   5.460   4.358
 9068TIP3   OH227146   7.923   5.627   3.379
 9068TIP3    H127147   7.858   5.677   3.328
 9068TIP3    H227148   7.951   5.688   3.448
 9069TIP3   OH227149   1.919   3.563   1.033
 9069TIP3    H127150   1.920   3.494   1.099
 9069TIP3    H227151   1.835   3.553   0.988
 9070TIP3   OH227152   2.059   3.920   3.598
 9070TIP3    H127153   2.100   3.841   3.633
 9070TIP3    H227154   2.071   3.986   3.666
 9071TIP3   OH227155   2.856   6.760   1.840
 9071TIP3    H127156   2.915   6.756   1.765
 9071TIP3    H227157   2.769   6.746   1.802
 9072TIP3   OH227158   7.656   4.622   2.424
 9072TIP3    H127159   7.601   4.561   2.473
 9072TIP3    H227160   7.607   4.639   2.343
 9073TIP3   OH227161   6.998   5.467   2.623
 9073TIP3    H127162   7.047   5.479   2.704
 9073TIP3    H227163   7.063   5.433   2.561
 9074TIP3   OH227164  -0.007   2.275   2.799
 9074TIP3    H127165  -0.082   2.332   2.820
 9074TIP3    H227166   0.063   2.306   2.856
 9075TIP3   OH227167   1.979   7.568   0.042
 9075TIP3    H127168   1.912   7.528   0.097
 9075TIP3    H227169   1.931   7.602  -0.033
 9076TIP3   OH227170   3.372   2.792   6.078
 9076TIP3    H127171   3.325   2.804   5.995
 9076TIP3    H227172   3.303   2.785   6.144
 9077TIP3   OH227173   2.642   6.680   0.235
 9077TIP3    H127174   2.598   6.644   0.158
 9077TIP3    H227175   2.703   6.612   0.262
 9078TIP3   OH227176   2.245   0.223   4.178
 9078TIP3    H127177   2.234   0.252   4.269
 9078TIP3    H227178   2.244   0.304   4.127
 9079TIP3   OH227179   5.901   2.308   6.224
 9079TIP3    H127180   5.923   2.241   6.289
 9079TIP3    H227181   5.808   2.293   6.205
 9080TIP3   OH227182   5.036   4.209   0.310
 9080TIP3    H127183   5.024   4.262   0.388
 9080TIP3    H227184   5.125   4.174   0.318
 9081TIP3   OH227185   3.564   3.000   3.337
 9081TIP3    H127186   3.524   2.924   3.296
 9081TIP3    H227187   3.651   3.005   3.299
 9082TIP3   OH227188   3.197   1.210   0.918
 9082TIP3    H127189   3.162   1.151   0.984
 9082TIP3    H227190   3.265   1.158   0.874
 9083TIP3   OH227191   0.918   2.237   3.038
 9083TIP3    H127192   0.941   2.311   2.981
 9083TIP3    H227193   0.899   2.276   3.123
 9084TIP3   OH227194   7.968   0.086   2.965
 9084TIP3    H127195   8.054   0.125   2.981
 9084TIP3    H227196   7.943   0.049   3.050
 9085TIP3   OH227197   6.705   4.576   1.787
 9085TIP3    H127198   6.716   4.645   1.722
 9085TIP3    H227199   6.639   4.610   1.848
 9086TIP3   OH227200   3.982   1.017   6.054
 9086TIP3    H127201   3.971   0.952   6.124
 9086TIP3    H227202   3.970   1.102   6.098
 9087TIP3   OH227203   8.151   6.137   0.148
 9087TIP3    H127204   8.242   6.166   0.154
 9087TIP3    H227205   8.124   6.161   0.059
 9088TIP3   OH227206   5.787   0.849   3.403
 9088TIP3    H127207   5.833   0.904   3.467
 9088TIP3    H227208   5.854   0.788   3.371
 9089TIP3   OH227209   7.610   1.036   4.494
 9089TIP3    H127210   7.638   1.025   4.403
 9089TIP3    H227211   7.554   0.960   4.511
 9090TIP3   OH227212   7.114   7.319   6.275
 9090TIP3    H127213   7.021   7.318   6.298
 9090TIP3    H227214   7.154   7.379   6.338
 9091TIP3   OH227215   3.907   1.820   1.483
 9091TIP3    H127216   3.853   1.899   1.475
 9091TIP3    H227217   3.911   1.785   1.394
 9092TIP3   OH227218   7.569   4.776   6.328
 9092TIP3    H127219   7.531   4.786   6.241
 9092TIP3    H227220   7.637   4.843   6.333
 9093TIP3   OH227221   7.164   7.325   2.046
 9093TIP3    H127222   7.093   7.264   2.066
 9093TIP3    H227223   7.165   7.386   2.120
 9094TIP3   OH227224   5.332   5.197   0.166
 9094TIP3    H127225   5.306   5.192   0.258
 9094TIP3    H227226   5.399   5.265   0.164
 9095TIP3   OH227227   6.991   5.737   6.061
 9095TIP3    H127228   6.898   5.742   6.081
 9095TIP3    H227229   7.028   5.819   6.094
 9096TIP3   OH227230   7.736   2.304   0.499
 9096TIP3    H127231   7.647   2.327   0.474
 9096TIP3    H227232   7.728   2.222   0.547
 9097TIP3   OH227233   7.008   1.682   0.777
 9097TIP3    H127234   6.940   1.618   0.797
 9097TIP3    H227235   6.985   1.715   0.690
 9098TIP3   OH227236   4.691   2.154   0.142
 9098TIP3    H127237   4.763   2.151   0.205
 9098TIP3    H227238   4.718   2.218   0.076
 9099TIP3   OH227239   1.760   1.733   5.737
 9099TIP3    H127240   1.834   1.708   5.682
 9099TIP3    H227241   1.799   1.776   5.812
 9100TIP3   OH227242   0.000   1.009  -0.004
 9100TIP3    H127243   0.078   1.059   0.017
 9100TIP3    H227244  -0.045   0.998   0.080
 9101TIP3   OH227245   2.940   7.556   6.562
 9101TIP3    H127246   2.915   7.483   6.505
 9101TIP3    H227247   2.944   7.632   6.505
 9102TIP3   OH227248   5.691   6.712   1.724
 9102TIP3    H127249   5.775   6.720   1.680
 9102TIP3    H227250   5.712   6.699   1.816
 9103TIP3   OH227251   3.373   2.075   4.774
 9103TIP3    H127252   3.314   2.051   4.846
 9103TIP3    H227253   3.360   2.006   4.709
 9104TIP3   OH227254   6.744   2.030   0.755
 9104TIP3    H127255   6.777   1.944   0.728
 9104TIP3    H227256   6.652   2.030   0.729
 9105TIP3   OH227257   3.994   2.699   1.992
 9105TIP3    H127258   4.056   2.656   1.932
 9105TIP3    H227259   4.006   2.793   1.975
 9106TIP3   OH227260   7.630   4.831   2.647
 9106TIP3    H127261   7.625   4.741   2.677
 9106TIP3    H227262   7.673   4.826   2.561
 9107TIP3   OH227263   6.317   3.739   3.528
 9107TIP3    H127264   6.231   3.753   3.488
 9107TIP3    H227265   6.320   3.644   3.544
 9108TIP3   OH227266   7.385   2.795   5.113
 9108TIP3    H127267   7.452   2.812   5.047
 9108TIP3    H227268   7.425   2.729   5.170
 9109TIP3   OH227269   4.357   5.067   6.511
 9109TIP3    H127270   4.438   5.105   6.546
 9109TIP3    H227271   4.384   4.982   6.476
 9110TIP3   OH227272   4.164   3.291   0.373
 9110TIP3    H127273   4.114   3.212   0.352
 9110TIP3    H227274   4.123   3.324   0.453
 9111TIP3   OH227275   0.387   0.464   2.122
 9111TIP3    H127276   0.414   0.513   2.044
 9111TIP3    H227277   0.295   0.488   2.135
 9112TIP3   OH227278   2.897   0.938   5.888
 9112TIP3    H127279   2.960   1.004   5.915
 9112TIP3    H227280   2.813   0.969   5.924
 9113TIP3   OH227281   3.652   3.647   6.238
 9113TIP3    H127282   3.563   3.631   6.206
 9113TIP3    H227283   3.666   3.740   6.222
 9114TIP3   OH227284   3.068   2.607   6.035
 9114TIP3    H127285   3.127   2.564   5.972
 9114TIP3    H227286   3.023   2.674   5.984
 9115TIP3   OH227287   1.352   6.755   2.654
 9115TIP3    H127288   1.348   6.670   2.609
 9115TIP3    H227289   1.260   6.779   2.667
 9116TIP3   OH227290   5.089   5.209   0.543
 9116TIP3    H127291   5.091   5.173   0.632
 9116TIP3    H227292   5.181   5.212   0.517
 9117TIP3   OH227293   2.239   5.946   2.201
 9117TIP3    H127294   2.182   5.899   2.262
 9117TIP3    H227295   2.182   6.010   2.160
 9118TIP3   OH227296   4.911   3.531   3.778
 9118TIP3    H127297   4.900   3.597   3.847
 9118TIP3    H227298   4.934   3.582   3.700
 9119TIP3   OH227299   4.704   4.123   2.706
 9119TIP3    H127300   4.615   4.109   2.737
 9119TIP3    H227301   4.753   4.149   2.785
 9120TIP3   OH227302   5.178   3.991   2.892
 9120TIP3    H127303   5.197   4.065   2.835
 9120TIP3    H227304   5.259   3.940   2.893
 9121TIP3   OH227305   3.996   5.976   5.953
 9121TIP3    H127306   3.970   5.947   6.040
 9121TIP3    H227307   3.939   6.051   5.935
 9122TIP3   OH227308   7.817   6.007   6.008
 9122TIP3    H127309   7.727   6.018   5.977
 9122TIP3    H227310   7.825   5.913   6.025
 9123TIP3   OH227311   2.260   1.526   4.591
 9123TIP3    H127312   2.198   1.461   4.623
 9123TIP3    H227313   2.345   1.495   4.621
 9124TIP3   OH227314   2.911   7.767   4.091
 9124TIP3    H127315   2.847   7.839   4.091
 9124TIP3    H227316   2.919   7.743   3.999
 9125TIP3   OH227317   1.726   7.271   5.325
 9125TIP3    H127318   1.651   7.214   5.308
 9125TIP3    H227319   1.702   7.318   5.405
 9126TIP3   OH227320   4.386   6.356   3.907
 9126TIP3    H127321   4.306   6.322   3.948
 9126TIP3    H227322   4.368   6.352   3.813
 9127TIP3   OH227323   3.086   5.071   1.509
 9127TIP3    H127324   3.002   5.110   1.535
 9127TIP3    H227325   3.122   5.132   1.445
 9128TIP3   OH227326   1.396   2.450   2.603
 9128TIP3    H127327   1.392   2.364   2.646
 9128TIP3    H227328   1.466   2.496   2.649
 9129TIP3   OH227329   6.419   7.806   6.075
 9129TIP3    H127330   6.408   7.790   6.169
 9129TIP3    H227331   6.421   7.901   6.067
 9130TIP3   OH227332   0.477   7.384   3.442
 9130TIP3    H127333   0.526   7.331   3.504
 9130TIP3    H227334   0.533   7.460   3.424
 9131TIP3   OH227335   4.266   5.247   1.185
 9131TIP3    H127336   4.309   5.266   1.102
 9131TIP3    H227337   4.173   5.245   1.164
 9132TIP3   OH227338   5.078   2.237   1.761
 9132TIP3    H127339   5.119   2.261   1.845
 9132TIP3    H227340   5.100   2.144   1.751
 9133TIP3   OH227341   4.096   6.532   2.987
 9133TIP3    H127342   4.164   6.591   2.953
 9133TIP3    H227343   4.045   6.507   2.910
 9134TIP3   OH227344   5.299   7.393   0.046
 9134TIP3    H127345   5.303   7.439  -0.039
 9134TIP3    H227346   5.303   7.463   0.111
 9135TIP3   OH227347   6.988   7.813   4.363
 9135TIP3    H127348   6.990   7.860   4.446
 9135TIP3    H227349   7.026   7.874   4.300
 9136TIP3   OH227350   2.590   2.956   5.323
 9136TIP3    H127351   2.499   2.978   5.342
 9136TIP3    H227352   2.641   3.011   5.383
 9137TIP3   OH227353   1.507   4.952   2.611
 9137TIP3    H127354   1.600   4.961   2.630
 9137TIP3    H227355   1.488   4.859   2.628
 9138TIP3   OH227356   0.191   5.282   1.845
 9138TIP3    H127357   0.149   5.204   1.811
 9138TIP3    H227358   0.175   5.279   1.940
 9139TIP3   OH227359   5.147   5.413   4.047
 9139TIP3    H127360   5.175   5.348   3.982
 9139TIP3    H227361   5.221   5.474   4.052
 9140TIP3   OH227362   7.929   0.336   1.086
 9140TIP3    H127363   7.871   0.411   1.077
 9140TIP3    H227364   7.948   0.309   0.996
 9141TIP3   OH227365   6.710   1.650   5.540
 9141TIP3    H127366   6.703   1.745   5.544
 9141TIP3    H227367   6.799   1.634   5.510
 9142TIP3   OH227368   2.297   6.593   3.224
 9142TIP3    H127369   2.354   6.552   3.289
 9142TIP3    H227370   2.208   6.569   3.253
 9143TIP3   OH227371   3.733   4.303   5.834
 9143TIP3    H127372   3.670   4.298   5.906
 9143TIP3    H227373   3.686   4.269   5.759
 9144TIP3   OH227374   8.189   2.859   3.165
 9144TIP3    H127375   8.282   2.857   3.142
 9144TIP3    H227376   8.183   2.927   3.232
 9145TIP3   OH227377   1.066   2.965   0.011
 9145TIP3    H127378   0.998   2.899   0.009
 9145TIP3    H227379   1.032   3.036  -0.044
 9146TIP3   OH227380   3.854   1.905   2.555
 9146TIP3    H127381   3.858   1.920   2.460
 9146TIP3    H227382   3.813   1.819   2.564
 9147TIP3   OH227383   7.563   6.856   1.766
 9147TIP3    H127384   7.633   6.791   1.773
 9147TIP3    H227385   7.509   6.826   1.693
 9148TIP3   OH227386   1.232   6.281   4.756
 9148TIP3    H127387   1.267   6.367   4.780
 9148TIP3    H227388   1.309   6.227   4.739
 9149TIP3   OH227389   6.202   5.116   5.205
 9149TIP3    H127390   6.135   5.106   5.138
 9149TIP3    H227391   6.183   5.047   5.269
 9150TIP3   OH227392   0.138   3.073   4.536
 9150TIP3    H127393   0.160   3.073   4.629
 9150TIP3    H227394   0.184   2.998   4.500
 9151TIP3   OH227395   2.967   4.949   5.862
 9151TIP3    H127396   3.056   4.964   5.891
 9151TIP3    H227397   2.951   5.016   5.795
 9152TIP3   OH227398   3.205   4.479   5.502
 9152TIP3    H127399   3.110   4.494   5.505
 9152TIP3    H227400   3.230   4.504   5.413
 9153TIP3   OH227401   2.081   5.217   1.415
 9153TIP3    H127402   2.066   5.124   1.431
 9153TIP3    H227403   2.021   5.239   1.344
 9154TIP3   OH227404   6.151   4.245   0.054
 9154TIP3    H127405   6.068   4.199   0.043
 9154TIP3    H227406   6.145   4.319  -0.007
 9155TIP3   OH227407   3.193   2.753   6.255
 9155TIP3    H127408   3.192   2.713   6.342
 9155TIP3    H227409   3.136   2.697   6.202
 9156TIP3   OH227410   3.917   5.961   6.258
 9156TIP3    H127411   3.830   5.991   6.231
 9156TIP3    H227412   3.972   6.039   6.249
 9157TIP3   OH227413   1.184   1.236   3.166
 9157TIP3    H127414   1.210   1.211   3.255
 9157TIP3    H227415   1.185   1.332   3.168
 9158TIP3   OH227416   0.055   5.819   0.559
 9158TIP3    H127417  -0.019   5.817   0.499
 9158TIP3    H227418   0.052   5.734   0.604
 9159TIP3   OH227419   7.812   3.734   2.673
 9159TIP3    H127420   7.903   3.764   2.679
 9159TIP3    H227421   7.807   3.692   2.587
 9160TIP3   OH227422   2.299   7.109   5.907
 9160TIP3    H127423   2.338   7.034   5.862
 9160TIP3    H227424   2.260   7.161   5.836
 9161TIP3   OH227425   5.172   5.857   5.104
 9161TIP3    H127426   5.202   5.813   5.024
 9161TIP3    H227427   5.102   5.801   5.137
 9162TIP3   OH227428   1.812   0.226   6.582
 9162TIP3    H127429   1.802   0.244   6.675
 9162TIP3    H227430   1.743   0.163   6.562
 9163TIP3   OH227431   2.118   2.983   5.468
 9163TIP3    H127432   2.037   2.936   5.453
 9163TIP3    H227433   2.156   2.943   5.546
 9164TIP3   OH227434   8.100   4.760   4.295
 9164TIP3    H127435   8.157   4.727   4.225
 9164TIP3    H227436   8.133   4.847   4.315
 9165TIP3   OH227437   4.244   3.687   2.626
 9165TIP3    H127438   4.329   3.644   2.621
 9165TIP3    H227439   4.259   3.764   2.680
 9166TIP3   OH227440   0.750   0.243   4.309
 9166TIP3    H127441   0.823   0.244   4.247
 9166TIP3    H227442   0.792   0.232   4.395
 9167TIP3   OH227443   6.513   7.393   3.177
 9167TIP3    H127444   6.450   7.465   3.175
 9167TIP3    H227445   6.480   7.330   3.113
 9168TIP3   OH227446   2.644   2.161   6.480
 9168TIP3    H127447   2.566   2.156   6.535
 9168TIP3    H227448   2.712   2.114   6.529
 9169TIP3   OH227449   4.459   7.379   2.895
 9169TIP3    H127450   4.512   7.311   2.854
 9169TIP3    H227451   4.493   7.461   2.858
 9170TIP3   OH227452   0.572   5.222   5.539
 9170TIP3    H127453   0.535   5.160   5.601
 9170TIP3    H227454   0.646   5.262   5.585
 9171TIP3   OH227455   4.915   1.882   5.926
 9171TIP3    H127456   4.922   1.786   5.918
 9171TIP3    H227457   4.965   1.916   5.853
 9172TIP3   OH227458   3.059   3.834   0.676
 9172TIP3    H127459   3.129   3.894   0.654
 9172TIP3    H227460   3.010   3.878   0.745
 9173TIP3   OH227461   0.214   2.408   6.456
 9173TIP3    H127462   0.299   2.368   6.441
 9173TIP3    H227463   0.164   2.390   6.377
 9174TIP3   OH227464   6.744   4.513   5.303
 9174TIP3    H127465   6.742   4.601   5.343
 9174TIP3    H227466   6.695   4.458   5.363
 9175TIP3   OH227467   0.912   2.372   4.716
 9175TIP3    H127468   0.965   2.294   4.698
 9175TIP3    H227469   0.974   2.436   4.751
 9176TIP3   OH227470   5.158   4.940   1.692
 9176TIP3    H127471   5.141   4.990   1.772
 9176TIP3    H227472   5.215   4.996   1.640
 9177TIP3   OH227473   7.111   7.623   6.618
 9177TIP3    H127474   7.144   7.540   6.583
 9177TIP3    H227475   7.034   7.599   6.670
 9178TIP3   OH227476   5.096   6.748   5.672
 9178TIP3    H127477   5.031   6.703   5.619
 9178TIP3    H227478   5.054   6.830   5.698
 9179TIP3   OH227479   6.217   4.977   0.240
 9179TIP3    H127480   6.276   5.041   0.279
 9179TIP3    H227481   6.143   4.972   0.300
 9180TIP3   OH227482   6.676   5.173   2.764
 9180TIP3    H127483   6.769   5.151   2.768
 9180TIP3    H227484   6.666   5.221   2.682
 9181TIP3   OH227485   5.515   2.765   4.773
 9181TIP3    H127486   5.483   2.837   4.718
 9181TIP3    H227487   5.448   2.754   4.840
 9182TIP3   OH227488   5.357   5.578   4.130
 9182TIP3    H127489   5.435   5.551   4.177
 9182TIP3    H227490   5.350   5.673   4.146
 9183TIP3   OH227491   0.669   2.511   4.781
 9183TIP3    H127492   0.741   2.449   4.773
 9183TIP3    H227493   0.709   2.590   4.817
 9184TIP3   OH227494   0.639   6.760   3.114
 9184TIP3    H127495   0.546   6.765   3.137
 9184TIP3    H227496   0.642   6.699   3.040
 9185TIP3   OH227497   7.353   0.897   4.546
 9185TIP3    H127498   7.344   0.891   4.641
 9185TIP3    H227499   7.281   0.843   4.512
 9186TIP3   OH227500   4.273   1.688   2.999
 9186TIP3    H127501   4.274   1.777   2.962
 9186TIP3    H227502   4.206   1.642   2.948
 9187TIP3   OH227503   0.460   1.741   4.054
 9187TIP3    H127504   0.541   1.792   4.051
 9187TIP3    H227505   0.455   1.697   3.969
 9188TIP3   OH227506   3.697   3.411   2.798
 9188TIP3    H127507   3.771   3.359   2.829
 9188TIP3    H227508   3.708   3.413   2.703
 9189TIP3   OH227509   0.097   3.067   0.491
 9189TIP3    H127510   0.114   3.161   0.484
 9189TIP3    H227511   0.154   3.028   0.424
 9190TIP3   OH227512   4.008   5.696   1.073
 9190TIP3    H127513   4.054   5.731   0.997
 9190TIP3    H227514   3.918   5.686   1.043
 9191TIP3   OH227515   3.236   5.523   5.445
 9191TIP3    H127516   3.285   5.581   5.386
 9191TIP3    H227517   3.228   5.441   5.396
 9192TIP3   OH227518   0.067   5.985   2.086
 9192TIP3    H127519   0.090   5.988   1.993
 9192TIP3    H227520   0.135   5.932   2.127
 9193TIP3   OH227521   6.159   3.233   5.310
 9193TIP3    H127522   6.210   3.310   5.336
 9193TIP3    H227523   6.069   3.255   5.332
 9194TIP3   OH227524   2.011   7.710   1.025
 9194TIP3    H127525   2.047   7.677   0.942
 9194TIP3    H227526   2.029   7.804   1.023
 9195TIP3   OH227527   3.883   0.539   1.089
 9195TIP3    H127528   3.948   0.492   1.141
 9195TIP3    H227529   3.918   0.628   1.083
 9196TIP3   OH227530   3.470   1.445   1.483
 9196TIP3    H127531   3.511   1.463   1.568
 9196TIP3    H227532   3.427   1.360   1.496
 9197TIP3   OH227533   2.259   2.269   1.441
 9197TIP3    H127534   2.174   2.277   1.397
 9197TIP3    H227535   2.316   2.332   1.397
 9198TIP3   OH227536   0.616   4.573   5.944
 9198TIP3    H127537   0.637   4.554   5.853
 9198TIP3    H227538   0.701   4.583   5.987
 9199TIP3   OH227539   3.496   1.741   0.099
 9199TIP3    H127540   3.435   1.814   0.107
 9199TIP3    H227541   3.443   1.668   0.068
 9200TIP3   OH227542   6.711   4.191   1.914
 9200TIP3    H127543   6.618   4.171   1.929
 9200TIP3    H227544   6.712   4.241   1.832
 9201TIP3   OH227545   0.582   0.432   6.610
 9201TIP3    H127546   0.604   0.490   6.683
 9201TIP3    H227547   0.667   0.407   6.574
 9202TIP3   OH227548   4.428   4.462   0.005
 9202TIP3    H127549   4.462   4.450  -0.083
 9202TIP3    H227550   4.411   4.555   0.012
 9203TIP3   OH227551   3.518   4.197   0.739
 9203TIP3    H127552   3.596   4.215   0.791
 9203TIP3    H227553   3.451   4.254   0.776
 9204TIP3   OH227554   1.217   5.825   1.256
 9204TIP3    H127555   1.213   5.789   1.345
 9204TIP3    H227556   1.253   5.913   1.268
 9205TIP3   OH227557   7.586   5.122   1.719
 9205TIP3    H127558   7.666   5.080   1.688
 9205TIP3    H227559   7.575   5.198   1.660
 9206TIP3   OH227560   2.873  -0.025  -0.004
 9206TIP3    H127561   2.780  -0.012   0.016
 9206TIP3    H227562   2.898   0.053  -0.054
 9207TIP3   OH227563   1.100   4.082   1.081
 9207TIP3    H127564   1.153   4.074   1.002
 9207TIP3    H227565   1.041   4.007   1.077
 9208TIP3   OH227566   3.958   6.630   2.556
 9208TIP3    H127567   3.872   6.593   2.577
 9208TIP3    H227568   4.016   6.554   2.551
 9209TIP3   OH227569   2.245   5.014   4.588
 9209TIP3    H127570   2.261   4.924   4.559
 9209TIP3    H227571   2.309   5.066   4.539
 9210TIP3   OH227572   6.134   1.179   1.566
 9210TIP3    H127573   6.101   1.227   1.490
 9210TIP3    H227574   6.147   1.090   1.534
 9211TIP3   OH227575   6.577   1.928   2.158
 9211TIP3    H127576   6.572   1.842   2.199
 9211TIP3    H227577   6.595   1.988   2.229
 9212TIP3   OH227578   8.065   2.922   1.966
 9212TIP3    H127579   8.073   2.922   2.062
 9212TIP3    H227580   8.116   2.846   1.937
 9213TIP3   OH227581   3.856   5.436   3.613
 9213TIP3    H127582   3.833   5.349   3.645
 9213TIP3    H227583   3.772   5.473   3.584
 9214TIP3   OH227584   5.151   7.031   3.542
 9214TIP3    H127585   5.161   6.966   3.472
 9214TIP3    H227586   5.059   7.057   3.537
 9215TIP3   OH227587   2.905   4.222   1.988
 9215TIP3    H127588   2.868   4.288   1.929
 9215TIP3    H227589   2.853   4.228   2.068
 9216TIP3   OH227590   3.859   7.582   5.166
 9216TIP3    H127591   3.815   7.579   5.082
 9216TIP3    H227592   3.877   7.490   5.186
 9217TIP3   OH227593   3.872   6.498   5.022
 9217TIP3    H127594   3.937   6.553   4.979
 9217TIP3    H227595   3.809   6.560   5.059
 9218TIP3   OH227596   0.585   7.452   4.924
 9218TIP3    H127597   0.527   7.509   4.875
 9218TIP3    H227598   0.600   7.498   5.007
 9219TIP3   OH227599   2.274   4.308   0.210
 9219TIP3    H127600   2.241   4.364   0.140
 9219TIP3    H227601   2.304   4.229   0.164
 9220TIP3   OH227602   4.272   2.017   1.703
 9220TIP3    H127603   4.249   2.015   1.610
 9220TIP3    H227604   4.242   1.932   1.736
 9221TIP3   OH227605   2.416   7.681   6.257
 9221TIP3    H127606   2.366   7.737   6.316
 9221TIP3    H227607   2.448   7.740   6.189
 9222TIP3   OH227608   3.331   1.522   3.747
 9222TIP3    H127609   3.285   1.486   3.823
 9222TIP3    H227610   3.424   1.513   3.769
 9223TIP3   OH227611   6.825   3.819   4.349
 9223TIP3    H127612   6.837   3.914   4.342
 9223TIP3    H227613   6.739   3.803   4.309
 9224TIP3   OH227614   2.998   0.955   3.413
 9224TIP3    H127615   2.930   1.022   3.427
 9224TIP3    H227616   3.065   1.001   3.363
 9225TIP3   OH227617   4.514   6.781   5.089
 9225TIP3    H127618   4.490   6.689   5.082
 9225TIP3    H227619   4.433   6.828   5.074
 9226TIP3   OH227620   1.954   4.491   6.414
 9226TIP3    H127621   1.995   4.553   6.475
 9226TIP3    H227622   1.936   4.542   6.336
 9227TIP3   OH227623   4.782   0.373   2.300
 9227TIP3    H127624   4.797   0.285   2.265
 9227TIP3    H227625   4.742   0.358   2.386
 9228TIP3   OH227626   2.568   3.812   2.583
 9228TIP3    H127627   2.639   3.874   2.566
 9228TIP3    H227628   2.577   3.745   2.515
 9229TIP3   OH227629   5.007   6.572   5.273
 9229TIP3    H127630   4.972   6.528   5.196
 9229TIP3    H227631   5.065   6.507   5.314
 9230TIP3   OH227632   4.005   4.761   2.032
 9230TIP3    H127633   4.075   4.783   2.092
 9230TIP3    H227634   4.036   4.792   1.947
 9231TIP3   OH227635   2.604   5.210   4.121
 9231TIP3    H127636   2.651   5.180   4.043
 9231TIP3    H227637   2.522   5.161   4.121
 9232TIP3   OH227638   1.053   0.969   5.310
 9232TIP3    H127639   1.073   1.017   5.390
 9232TIP3    H227640   1.097   1.017   5.240
 9233TIP3   OH227641   6.972   2.662   3.015
 9233TIP3    H127642   6.923   2.597   2.965
 9233TIP3    H227643   6.909   2.732   3.031
 9234TIP3   OH227644   1.936   2.128   0.833
 9234TIP3    H127645   1.847   2.099   0.856
 9234TIP3    H227646   1.934   2.136   0.738
 9235TIP3   OH227647   4.014   4.352   3.774
 9235TIP3    H127648   4.081   4.295   3.737
 9235TIP3    H227649   4.060   4.433   3.794
 9236TIP3   OH227650   1.812   1.231   0.850
 9236TIP3    H127651   1.906   1.232   0.867
 9236TIP3    H227652   1.804   1.197   0.761
 9237TIP3   OH227653   6.511   5.058   6.703
 9237TIP3    H127654   6.449   5.004   6.752
 9237TIP3    H227655   6.532   5.130   6.762
 9238TIP3   OH227656   5.706   4.159   6.677
 9238TIP3    H127657   5.779   4.150   6.616
 9238TIP3    H227658   5.633   4.192   6.624
 9239TIP3   OH227659   4.200   6.507   0.633
 9239TIP3    H127660   4.149   6.464   0.702
 9239TIP3    H227661   4.150   6.491   0.553
 9240TIP3   OH227662   5.462   5.425   2.080
 9240TIP3    H127663   5.452   5.482   2.156
 9240TIP3    H227664   5.448   5.336   2.114
 9241TIP3   OH227665   3.253   2.560   1.371
 9241TIP3    H127666   3.263   2.526   1.282
 9241TIP3    H227667   3.332   2.531   1.417
 9242TIP3   OH227668   7.044   0.850   2.525
 9242TIP3    H127669   7.109   0.920   2.528
 9242TIP3    H227670   7.052   0.806   2.609
 9243TIP3   OH227671   0.717   3.688   0.829
 9243TIP3    H127672   0.671   3.692   0.912
 9243TIP3    H227673   0.783   3.619   0.840
 9244TIP3   OH227674   5.202   0.760   5.350
 9244TIP3    H127675   5.149   0.685   5.379
 9244TIP3    H227676   5.139   0.831   5.338
 9245TIP3   OH227677   2.627   2.695   0.085
 9245TIP3    H127678   2.644   2.650   0.002
 9245TIP3    H227679   2.559   2.642   0.128
 9246TIP3   OH227680   4.832   7.294   0.488
 9246TIP3    H127681   4.853   7.233   0.418
 9246TIP3    H227682   4.854   7.246   0.568
 9247TIP3   OH227683   4.050   5.094   1.493
 9247TIP3    H127684   4.068   5.002   1.472
 9247TIP3    H227685   3.974   5.116   1.440
 9248TIP3   OH227686   4.498   3.755   4.409
 9248TIP3    H127687   4.580   3.755   4.359
 9248TIP3    H227688   4.500   3.837   4.457
 9249TIP3   OH227689   0.542   3.162   4.544
 9249TIP3    H127690   0.481   3.233   4.561
 9249TIP3    H227691   0.561   3.167   4.450
 9250TIP3   OH227692   2.486   7.711   0.953
 9250TIP3    H127693   2.435   7.631   0.963
 9250TIP3    H227694   2.424   7.781   0.974
 9251TIP3   OH227695   7.814   6.505   4.501
 9251TIP3    H127696   7.830   6.454   4.422
 9251TIP3    H227697   7.886   6.483   4.560
 9252TIP3   OH227698   7.908   5.369   4.563
 9252TIP3    H127699   7.931   5.277   4.550
 9252TIP3    H227700   7.992   5.415   4.557
 9253TIP3   OH227701   0.774   4.477   1.682
 9253TIP3    H127702   0.846   4.521   1.637
 9253TIP3    H227703   0.788   4.384   1.664
 9254TIP3   OH227704   6.154   6.254   3.548
 9254TIP3    H127705   6.090   6.200   3.501
 9254TIP3    H227706   6.227   6.263   3.487
 9255TIP3   OH227707   3.757   6.289   1.436
 9255TIP3    H127708   3.832   6.268   1.379
 9255TIP3    H227709   3.715   6.204   1.450
 9256TIP3   OH227710   1.118   4.858   5.121
 9256TIP3    H127711   1.103   4.765   5.136
 9256TIP3    H227712   1.213   4.866   5.111
 9257TIP3   OH227713   1.460   6.125   1.089
 9257TIP3    H127714   1.473   6.054   1.027
 9257TIP3    H227715   1.407   6.087   1.159
 9258TIP3   OH227716   5.886   0.100   3.203
 9258TIP3    H127717   5.931   0.136   3.126
 9258TIP3    H227718   5.947   0.114   3.275
 9259TIP3   OH227719   7.529   1.275   4.636
 9259TIP3    H127720   7.442   1.251   4.606
 9259TIP3    H227721   7.565   1.195   4.674
 9260TIP3   OH227722   2.099   2.297   4.770
 9260TIP3    H127723   2.181   2.278   4.815
 9260TIP3    H227724   2.126   2.334   4.686
 9261TIP3   OH227725   2.094   3.334   6.108
 9261TIP3    H127726   2.168   3.335   6.048
 9261TIP3    H227727   2.081   3.241   6.128
 9262TIP3   OH227728   2.992   2.069   4.667
 9262TIP3    H127729   3.006   2.142   4.728
 9262TIP3    H227730   2.976   1.994   4.724
 9263TIP3   OH227731   4.274   7.245   4.436
 9263TIP3    H127732   4.300   7.211   4.522
 9263TIP3    H227733   4.200   7.189   4.410
 9264TIP3   OH227734   0.610   1.318   2.486
 9264TIP3    H127735   0.545   1.384   2.462
 9264TIP3    H227736   0.562   1.257   2.543
 9265TIP3   OH227737   2.367   6.917   1.638
 9265TIP3    H127738   2.451   6.899   1.598
 9265TIP3    H227739   2.309   6.847   1.608
 9266TIP3   OH227740   3.839   6.136   2.114
 9266TIP3    H127741   3.885   6.100   2.038
 9266TIP3    H227742   3.775   6.068   2.138
 9267TIP3   OH227743   1.423   0.594   2.293
 9267TIP3    H127744   1.374   0.663   2.338
 9267TIP3    H227745   1.434   0.626   2.204
 9268TIP3   OH227746   0.438   6.093   2.395
 9268TIP3    H127747   0.351   6.114   2.430
 9268TIP3    H227748   0.443   6.141   2.313
 9269TIP3   OH227749   1.270   5.401   3.720
 9269TIP3    H127750   1.240   5.345   3.791
 9269TIP3    H227751   1.305   5.479   3.764
 9270TIP3   OH227752   5.735   2.679   5.105
 9270TIP3    H127753   5.656   2.626   5.117
 9270TIP3    H227754   5.750   2.720   5.189
 9271TIP3   OH227755   4.140   1.617   2.730
 9271TIP3    H127756   4.159   1.527   2.757
 9271TIP3    H227757   4.061   1.610   2.677
 9272TIP3   OH227758   3.417   7.136   6.611
 9272TIP3    H127759   3.407   7.109   6.703
 9272TIP3    H227760   3.401   7.230   6.613
 9273TIP3   OH227761   0.899   6.136   5.748
 9273TIP3    H127762   0.948   6.217   5.735
 9273TIP3    H227763   0.967   6.070   5.764
 9274TIP3   OH227764   7.332   1.954   1.368
 9274TIP3    H127765   7.264   1.997   1.420
 9274TIP3    H227766   7.307   1.862   1.367
 9275TIP3   OH227767   6.062   7.533   4.901
 9275TIP3    H127768   5.988   7.532   4.963
 9275TIP3    H227769   6.081   7.625   4.887
 9276TIP3   OH227770   0.982   7.732   3.862
 9276TIP3    H127771   0.954   7.734   3.953
 9276TIP3    H227772   0.990   7.824   3.837
 9277TIP3   OH227773   5.252   4.641   0.802
 9277TIP3    H127774   5.259   4.568   0.740
 9277TIP3    H227775   5.168   4.681   0.783
 9278TIP3   OH227776   7.502   7.574   5.562
 9278TIP3    H127777   7.410   7.566   5.587
 9278TIP3    H227778   7.549   7.525   5.630
 9279TIP3   OH227779   7.134   3.179   4.023
 9279TIP3    H127780   7.118   3.171   3.929
 9279TIP3    H227781   7.163   3.269   4.035
 9280TIP3   OH227782   8.123   7.182   1.822
 9280TIP3    H127783   8.179   7.105   1.818
 9280TIP3    H227784   8.115   7.201   1.916
 9281TIP3   OH227785   3.073   0.721   0.591
 9281TIP3    H127786   3.097   0.747   0.502
 9281TIP3    H227787   3.107   0.791   0.646
 9282TIP3   OH227788   2.246   4.715   3.775
 9282TIP3    H127789   2.292   4.665   3.842
 9282TIP3    H227790   2.153   4.704   3.797
 9283TIP3   OH227791   6.379   4.721   5.922
 9283TIP3    H127792   6.455   4.753   5.970
 9283TIP3    H227793   6.384   4.625   5.929
 9284TIP3   OH227794   1.816   1.742   0.545
 9284TIP3    H127795   1.905   1.746   0.510
 9284TIP3    H227796   1.793   1.649   0.539
 9285TIP3   OH227797   5.249   0.197   3.383
 9285TIP3    H127798   5.227   0.125   3.324
 9285TIP3    H227799   5.227   0.165   3.470
 9286TIP3   OH227800   0.774   1.611   5.639
 9286TIP3    H127801   0.786   1.541   5.704
 9286TIP3    H227802   0.693   1.655   5.666
 9287TIP3   OH227803   7.437   4.699   0.945
 9287TIP3    H127804   7.499   4.739   1.006
 9287TIP3    H227805   7.351   4.713   0.985
 9288TIP3   OH227806   7.120   2.164   6.297
 9288TIP3    H127807   7.049   2.143   6.358
 9288TIP3    H227808   7.181   2.090   6.306
 9289TIP3   OH227809   2.800   2.514   5.176
 9289TIP3    H127810   2.821   2.425   5.203
 9289TIP3    H227811   2.713   2.507   5.136
 9290TIP3   OH227812   6.498   7.329   4.686
 9290TIP3    H127813   6.556   7.405   4.695
 9290TIP3    H227814   6.413   7.361   4.715
 9291TIP3   OH227815   2.593   5.022   2.377
 9291TIP3    H127816   2.548   5.083   2.436
 9291TIP3    H227817   2.541   4.942   2.381
 9292TIP3   OH227818   7.151   2.061   3.365
 9292TIP3    H127819   7.084   2.122   3.336
 9292TIP3    H227820   7.223   2.071   3.303
 9293TIP3   OH227821   1.570   1.247   5.091
 9293TIP3    H127822   1.539   1.303   5.019
 9293TIP3    H227823   1.501   1.251   5.157
 9294TIP3   OH227824   3.780   7.143   0.451
 9294TIP3    H127825   3.821   7.193   0.521
 9294TIP3    H227826   3.854   7.100   0.407
 9295TIP3   OH227827   2.674   3.316   4.595
 9295TIP3    H127828   2.607   3.300   4.528
 9295TIP3    H227829   2.713   3.400   4.571
 9296TIP3   OH227830   6.205   7.384   6.159
 9296TIP3    H127831   6.209   7.453   6.093
 9296TIP3    H227832   6.296   7.369   6.184
 9297TIP3   OH227833   4.746   1.395   2.028
 9297TIP3    H127834   4.754   1.316   1.975
 9297TIP3    H227835   4.836   1.426   2.039
 9298TIP3   OH227836   6.538   5.840   4.185
 9298TIP3    H127837   6.490   5.921   4.172
 9298TIP3    H227838   6.487   5.774   4.139
 9299TIP3   OH227839   3.079   7.813   0.549
 9299TIP3    H127840   3.113   7.724   0.552
 9299TIP3    H227841   3.138   7.860   0.489
 9300TIP3   OH227842   0.320   3.404   1.962
 9300TIP3    H127843   0.378   3.347   1.910
 9300TIP3    H227844   0.239   3.354   1.972
 9301TIP3   OH227845   1.442   0.994   4.388
 9301TIP3    H127846   1.419   1.071   4.335
 9301TIP3    H227847   1.498   1.028   4.457
 9302TIP3   OH227848   6.779   7.090   0.966
 9302TIP3    H127849   6.746   7.011   0.923
 9302TIP3    H227850   6.794   7.063   1.057
 9303TIP3   OH227851   1.285   0.328   4.131
 9303TIP3    H127852   1.365   0.368   4.164
 9303TIP3    H227853   1.272   0.367   4.045
 9304TIP3   OH227854   6.144   7.184   2.028
 9304TIP3    H127855   6.064   7.132   2.035
 9304TIP3    H227856   6.144   7.238   2.107
 9305TIP3   OH227857   6.938   2.359   4.585
 9305TIP3    H127858   6.895   2.275   4.601
 9305TIP3    H227859   6.934   2.371   4.490
 9306TIP3   OH227860   7.042   5.140   3.837
 9306TIP3    H127861   7.083   5.060   3.804
 9306TIP3    H227862   6.953   5.113   3.861
 9307TIP3   OH227863   0.813   6.663   3.315
 9307TIP3    H127864   0.852   6.591   3.265
 9307TIP3    H227865   0.735   6.687   3.265
 9308TIP3   OH227866   3.313   4.595   2.230
 9308TIP3    H127867   3.289   4.636   2.313
 9308TIP3    H227868   3.368   4.660   2.186
 9309TIP3   OH227869   0.999   3.633   6.324
 9309TIP3    H127870   1.026   3.542   6.313
 9309TIP3    H227871   0.999   3.669   6.235
 9310TIP3   OH227872   6.230   3.888   1.477
 9310TIP3    H127873   6.148   3.840   1.466
 9310TIP3    H227874   6.263   3.901   1.388
 9311TIP3   OH227875   7.028   6.691   4.128
 9311TIP3    H127876   7.017   6.687   4.033
 9311TIP3    H227877   6.989   6.775   4.153
 9312TIP3   OH227878   7.190   0.767   4.834
 9312TIP3    H127879   7.102   0.745   4.864
 9312TIP3    H227880   7.217   0.840   4.890
 9313TIP3   OH227881   6.693   7.844   2.867
 9313TIP3    H127882   6.654   7.809   2.787
 9313TIP3    H227883   6.752   7.775   2.897
 9314TIP3   OH227884   0.425   5.889   2.647
 9314TIP3    H127885   0.454   5.963   2.593
 9314TIP3    H227886   0.465   5.812   2.607
 9315TIP3   OH227887   2.421   5.324   6.226
 9315TIP3    H127888   2.361   5.277   6.284
 9315TIP3    H227889   2.445   5.260   6.159
 9316TIP3   OH227890   5.024   1.215   2.455
 9316TIP3    H127891   4.978   1.166   2.387
 9316TIP3    H227892   4.958   1.229   2.523
 9317TIP3   OH227893   2.857   3.382   0.673
 9317TIP3    H127894   2.843   3.331   0.593
 9317TIP3    H227895   2.797   3.344   0.737
 9318TIP3   OH227896   2.233   2.406   4.545
 9318TIP3    H127897   2.318   2.431   4.580
 9318TIP3    H227898   2.251   2.329   4.491
 9319TIP3   OH227899   7.436   6.748   5.659
 9319TIP3    H127900   7.392   6.832   5.672
 9319TIP3    H227901   7.527   6.764   5.682
 9320TIP3   OH227902   7.705   2.357   6.457
 9320TIP3    H127903   7.661   2.315   6.383
 9320TIP3    H227904   7.758   2.287   6.496
 9321TIP3   OH227905   6.739   7.343   2.113
 9321TIP3    H127906   6.762   7.397   2.038
 9321TIP3    H227907   6.643   7.337   2.111
 9322TIP3   OH227908   2.447   7.239   2.223
 9322TIP3    H127909   2.434   7.147   2.246
 9322TIP3    H227910   2.417   7.288   2.300
 9323TIP3   OH227911   7.851   4.048   0.219
 9323TIP3    H127912   7.833   4.036   0.125
 9323TIP3    H227913   7.912   4.122   0.223
 9324TIP3   OH227914   4.578   4.466   6.055
 9324TIP3    H127915   4.668   4.444   6.076
 9324TIP3    H227916   4.531   4.462   6.139
 9325TIP3   OH227917   5.450   2.079   4.741
 9325TIP3    H127918   5.386   2.065   4.671
 9325TIP3    H227919   5.431   2.167   4.773
 9326TIP3   OH227920   0.753   5.327   5.750
 9326TIP3    H127921   0.817   5.390   5.718
 9326TIP3    H227922   0.738   5.351   5.841
 9327TIP3   OH227923   1.313   2.228   3.817
 9327TIP3    H127924   1.257   2.165   3.772
 9327TIP3    H227925   1.386   2.175   3.851
 9328TIP3   OH227926   7.173   5.836   4.302
 9328TIP3    H127927   7.191   5.778   4.376
 9328TIP3    H227928   7.162   5.922   4.341
 9329TIP3   OH227929   6.507   1.718   3.327
 9329TIP3    H127930   6.453   1.640   3.332
 9329TIP3    H227931   6.498   1.747   3.236
 9330TIP3   OH227932   7.861   4.419   0.927
 9330TIP3    H127933   7.823   4.496   0.971
 9330TIP3    H227934   7.921   4.455   0.862
 9331TIP3   OH227935   6.274   5.923   4.309
 9331TIP3    H127936   6.223   5.987   4.359
 9331TIP3    H227937   6.338   5.889   4.371
 9332TIP3   OH227938   5.675   6.341   6.535
 9332TIP3    H127939   5.697   6.387   6.616
 9332TIP3    H227940   5.757   6.299   6.508
 9333TIP3   OH227941   4.069   4.761   0.655
 9333TIP3    H127942   4.105   4.780   0.742
 9333TIP3    H227943   4.060   4.666   0.654
 9334TIP3   OH227944   5.579   1.136   4.979
 9334TIP3    H127945   5.619   1.221   4.961
 9334TIP3    H227946   5.652   1.079   5.003
 9335TIP3   OH227947   0.565   2.610   3.376
 9335TIP3    H127948   0.589   2.540   3.437
 9335TIP3    H227949   0.649   2.641   3.342
 9336TIP3   OH227950   7.787   6.730   0.547
 9336TIP3    H127951   7.704   6.719   0.594
 9336TIP3    H227952   7.789   6.822   0.523
 9337TIP3   OH227953   2.284   4.627   2.845
 9337TIP3    H127954   2.357   4.570   2.825
 9337TIP3    H227955   2.206   4.579   2.816
 9338TIP3   OH227956   2.326   7.477   5.872
 9338TIP3    H127957   2.264   7.432   5.815
 9338TIP3    H227958   2.330   7.423   5.951
 9339TIP3   OH227959   2.614   1.057   4.374
 9339TIP3    H127960   2.640   1.144   4.404
 9339TIP3    H227961   2.682   1.032   4.310
 9340TIP3   OH227962   5.964   0.952   1.735
 9340TIP3    H127963   5.946   0.984   1.647
 9340TIP3    H227964   6.056   0.923   1.731
 9341TIP3   OH227965   5.142   3.063   2.487
 9341TIP3    H127966   5.109   3.151   2.469
 9341TIP3    H227967   5.072   3.020   2.536
 9342TIP3   OH227968   0.933   5.055   5.108
 9342TIP3    H127969   0.879   5.037   5.185
 9342TIP3    H227970   0.992   4.980   5.102
 9343TIP3   OH227971   7.694   1.053   5.620
 9343TIP3    H127972   7.645   1.075   5.699
 9343TIP3    H227973   7.676   0.960   5.606
 9344TIP3   OH227974   4.091   0.526   5.629
 9344TIP3    H127975   4.047   0.491   5.551
 9344TIP3    H227976   4.091   0.620   5.615
 9345TIP3   OH227977   5.546   3.741   6.287
 9345TIP3    H127978   5.622   3.687   6.310
 9345TIP3    H227979   5.491   3.740   6.365
 9346TIP3   OH227980   4.805   0.672   1.015
 9346TIP3    H127981   4.808   0.659   0.920
 9346TIP3    H227982   4.890   0.640   1.046
 9347TIP3   OH227983   1.765   1.993   4.631
 9347TIP3    H127984   1.853   2.021   4.657
 9347TIP3    H227985   1.775   1.901   4.607
 9348TIP3   OH227986   7.509   4.148   1.733
 9348TIP3    H127987   7.423   4.135   1.773
 9348TIP3    H227988   7.509   4.089   1.658
 9349TIP3   OH227989   0.867   6.251   3.960
 9349TIP3    H127990   0.918   6.236   4.039
 9349TIP3    H227991   0.917   6.317   3.912
 9350TIP3   OH227992   3.467   1.519   4.528
 9350TIP3    H127993   3.434   1.594   4.480
 9350TIP3    H227994   3.543   1.490   4.478
 9351TIP3   OH227995   7.530   2.301   4.067
 9351TIP3    H127996   7.575   2.218   4.053
 9351TIP3    H227997   7.460   2.301   4.001
 9352TIP3   OH227998   3.262   5.762   2.547
 9352TIP3    H127999   3.291   5.672   2.566
 9352TIP3    H228000   3.247   5.762   2.452
 9353TIP3   OH228001   3.289   6.526   3.717
 9353TIP3    H128002   3.340   6.550   3.795
 9353TIP3    H228003   3.343   6.462   3.672
 9354TIP3   OH228004   6.359   6.978   4.536
 9354TIP3    H128005   6.284   7.018   4.581
 9354TIP3    H228006   6.353   6.885   4.559
 9355TIP3   OH228007   6.877   2.478   1.584
 9355TIP3    H128008   6.842   2.391   1.605
 9355TIP3    H228009   6.961   2.461   1.542
 9356TIP3   OH228010   4.282   0.885   5.241
 9356TIP3    H128011   4.353   0.933   5.198
 9356TIP3    H228012   4.223   0.952   5.274
 9357TIP3   OH228013   5.887   0.119   0.807
 9357TIP3    H128014   5.948   0.067   0.858
 9357TIP3    H228015   5.868   0.065   0.730
 9358TIP3   OH228016   7.862   4.216   6.092
 9358TIP3    H128017   7.914   4.136   6.085
 9358TIP3    H228018   7.804   4.199   6.167
 9359TIP3   OH228019   7.859   0.573   5.731
 9359TIP3    H128020   7.781   0.522   5.752
 9359TIP3    H228021   7.859   0.579   5.636
 9360TIP3   OH228022   0.207   0.529   3.618
 9360TIP3    H128023   0.165   0.444   3.602
 9360TIP3    H228024   0.147   0.593   3.579
 9361TIP3   OH228025   3.799   3.702   5.754
 9361TIP3    H128026   3.884   3.667   5.783
 9361TIP3    H228027   3.790   3.785   5.802
 9362TIP3   OH228028   7.581   5.452   6.050
 9362TIP3    H128029   7.584   5.486   5.960
 9362TIP3    H228030   7.493   5.415   6.058
 9363TIP3   OH228031   4.666   3.536   4.074
 9363TIP3    H128032   4.574   3.511   4.084
 9363TIP3    H228033   4.693   3.564   4.161
 9364TIP3   OH228034   4.515   3.798   3.874
 9364TIP3    H128035   4.482   3.785   3.963
 9364TIP3    H228036   4.496   3.890   3.855
 9365TIP3   OH228037   7.764   0.884   0.357
 9365TIP3    H128038   7.792   0.832   0.282
 9365TIP3    H228039   7.845   0.903   0.405
 9366TIP3   OH228040   3.514   3.898   5.225
 9366TIP3    H128041   3.501   3.960   5.297
 9366TIP3    H228042   3.500   3.949   5.146
 9367TIP3   OH228043   1.876   7.741   3.086
 9367TIP3    H128044   1.828   7.678   3.139
 9367TIP3    H228045   1.837   7.826   3.109
 9368TIP3   OH228046   3.632   3.954   4.690
 9368TIP3    H128047   3.613   4.042   4.656
 9368TIP3    H228048   3.658   3.969   4.781
 9369TIP3   OH228049   2.127   5.119   2.276
 9369TIP3    H128050   2.065   5.094   2.344
 9369TIP3    H228051   2.158   5.036   2.240
 9370TIP3   OH228052   0.519   4.160   0.185
 9370TIP3    H128053   0.474   4.076   0.181
 9370TIP3    H228054   0.611   4.137   0.200
 9371TIP3   OH228055   7.473   1.276   6.541
 9371TIP3    H128056   7.442   1.186   6.544
 9371TIP3    H228057   7.568   1.269   6.534
 9372TIP3   OH228058   3.098   4.650   3.792
 9372TIP3    H128059   3.186   4.677   3.766
 9372TIP3    H228060   3.040   4.705   3.740
 9373TIP3   OH228061   7.986   0.225   5.500
 9373TIP3    H128062   8.040   0.235   5.421
 9373TIP3    H228063   8.026   0.283   5.564
 9374TIP3   OH228064   2.871   0.792   2.129
 9374TIP3    H128065   2.786   0.805   2.171
 9374TIP3    H228066   2.933   0.839   2.184
 9375TIP3   OH228067   4.248   5.185   2.407
 9375TIP3    H128068   4.281   5.238   2.335
 9375TIP3    H228069   4.263   5.239   2.485
 9376TIP3   OH228070   6.823   3.365   4.101
 9376TIP3    H128071   6.730   3.363   4.122
 9376TIP3    H228072   6.827   3.350   4.006
 9377TIP3   OH228073   2.963   6.409   4.039
 9377TIP3    H128074   2.946   6.376   4.128
 9377TIP3    H228075   2.919   6.346   3.982
 9378TIP3   OH228076   0.948   6.819   4.573
 9378TIP3    H128077   1.035   6.812   4.535
 9378TIP3    H228078   0.890   6.777   4.510
 9379TIP3   OH228079   1.102   6.616   4.376
 9379TIP3    H128080   1.064   6.668   4.305
 9379TIP3    H228081   1.172   6.565   4.335
 9380TIP3   OH228082   2.439   5.718   1.781
 9380TIP3    H128083   2.397   5.797   1.816
 9380TIP3    H228084   2.367   5.656   1.768
 9381TIP3   OH228085   7.158   1.155   5.006
 9381TIP3    H128086   7.090   1.114   5.059
 9381TIP3    H228087   7.113   1.183   4.927
 9382TIP3   OH228088   6.086   0.536   4.501
 9382TIP3    H128089   6.087   0.616   4.553
 9382TIP3    H228090   6.022   0.552   4.432
 9383TIP3   OH228091   2.809   2.829   0.595
 9383TIP3    H128092   2.882   2.877   0.555
 9383TIP3    H228093   2.788   2.878   0.674
 9384TIP3   OH228094   0.650   7.512   1.308
 9384TIP3    H128095   0.645   7.479   1.397
 9384TIP3    H228096   0.744   7.524   1.292
 9385TIP3   OH228097   3.271   0.630   3.228
 9385TIP3    H128098   3.253   0.552   3.281
 9385TIP3    H228099   3.212   0.622   3.153
 9386TIP3   OH228100   5.185   6.759   0.426
 9386TIP3    H128101   5.201   6.682   0.372
 9386TIP3    H228102   5.103   6.795   0.394
 9387TIP3   OH228103   4.821   6.012   4.014
 9387TIP3    H128104   4.844   5.951   3.944
 9387TIP3    H228105   4.760   5.963   4.069
 9388TIP3   OH228106   1.172   1.508   5.987
 9388TIP3    H128107   1.126   1.427   5.963
 9388TIP3    H228108   1.250   1.478   6.034
 9389TIP3   OH228109   1.705   2.864   4.894
 9389TIP3    H128110   1.732   2.890   4.982
 9389TIP3    H228111   1.775   2.807   4.862
 9390TIP3   OH228112   6.489   3.341   6.207
 9390TIP3    H128113   6.402   3.365   6.238
 9390TIP3    H228114   6.543   3.417   6.227
 9391TIP3   OH228115   2.441   3.398   0.894
 9391TIP3    H128116   2.412   3.389   0.803
 9391TIP3    H228117   2.499   3.474   0.894
 9392TIP3   OH228118   6.799   0.676   5.539
 9392TIP3    H128119   6.871   0.701   5.597
 9392TIP3    H228120   6.720   0.706   5.584
 9393TIP3   OH228121   5.507   2.393   2.150
 9393TIP3    H128122   5.562   2.355   2.081
 9393TIP3    H228123   5.559   2.466   2.184
 9394TIP3   OH228124   6.290   6.758   4.226
 9394TIP3    H128125   6.210   6.811   4.232
 9394TIP3    H228126   6.306   6.728   4.315
 9395TIP3   OH228127   2.930   1.943   2.936
 9395TIP3    H128128   2.860   1.920   2.997
 9395TIP3    H228129   2.936   1.867   2.877
 9396TIP3   OH228130   2.112   7.526   1.208
 9396TIP3    H128131   2.078   7.439   1.193
 9396TIP3    H228132   2.086   7.577   1.131
 9397TIP3   OH228133   7.582   3.349   5.256
 9397TIP3    H128134   7.599   3.411   5.185
 9397TIP3    H228135   7.544   3.272   5.214
 9398TIP3   OH228136   7.963   3.845   4.084
 9398TIP3    H128137   7.922   3.904   4.021
 9398TIP3    H228138   7.891   3.817   4.141
 9399TIP3   OH228139   1.217   0.065   0.362
 9399TIP3    H128140   1.220   0.157   0.387
 9399TIP3    H228141   1.142   0.058   0.303
 9400TIP3   OH228142   5.143   0.870   2.226
 9400TIP3    H128143   5.236   0.852   2.241
 9400TIP3    H228144   5.101   0.851   2.311
 9401TIP3   OH228145   5.865   0.963   4.515
 9401TIP3    H128146   5.827   0.957   4.603
 9401TIP3    H228147   5.800   0.922   4.458
 9402TIP3   OH228148   1.117   3.438   0.770
 9402TIP3    H128149   1.063   3.473   0.700
 9402TIP3    H228150   1.125   3.345   0.751
 9403TIP3   OH228151   3.684   3.252   4.547
 9403TIP3    H128152   3.745   3.312   4.592
 9403TIP3    H228153   3.601   3.300   4.546
 9404TIP3   OH228154   3.826   6.699   5.226
 9404TIP3    H128155   3.900   6.760   5.231
 9404TIP3    H228156   3.799   6.688   5.318
 9405TIP3   OH228157   4.075   1.161   3.543
 9405TIP3    H128158   4.152   1.147   3.599
 9405TIP3    H228159   4.037   1.073   3.533
 9406TIP3   OH228160   4.539   7.167   6.749
 9406TIP3    H128161   4.565   7.197   6.836
 9406TIP3    H228162   4.615   7.117   6.718
 9407TIP3   OH228163   0.548   6.508   0.087
 9407TIP3    H128164   0.535   6.546   0.000
 9407TIP3    H228165   0.479   6.545   0.141
 9408TIP3   OH228166   1.450   2.365   4.529
 9408TIP3    H128167   1.537   2.331   4.508
 9408TIP3    H228168   1.436   2.437   4.468
 9409TIP3   OH228169   1.098   3.075   6.759
 9409TIP3    H128170   1.050   3.137   6.704
 9409TIP3    H228171   1.174   3.051   6.707
 9410TIP3   OH228172   8.128   1.182   5.324
 9410TIP3    H128173   8.079   1.264   5.314
 9410TIP3    H228174   8.194   1.202   5.390
 9411TIP3   OH228175   3.893   2.572   3.890
 9411TIP3    H128176   3.958   2.571   3.820
 9411TIP3    H228177   3.816   2.613   3.851
 9412TIP3   OH228178   6.486   5.600   6.225
 9412TIP3    H128179   6.418   5.651   6.182
 9412TIP3    H228180   6.458   5.509   6.213
 9413TIP3   OH228181   0.190   3.644   6.531
 9413TIP3    H128182   0.097   3.661   6.551
 9413TIP3    H228183   0.228   3.731   6.522
 9414TIP3   OH228184   0.257   6.896   4.895
 9414TIP3    H128185   0.176   6.908   4.845
 9414TIP3    H228186   0.326   6.901   4.829
 9415TIP3   OH228187   3.583   2.448   2.943
 9415TIP3    H128188   3.545   2.534   2.929
 9415TIP3    H228189   3.507   2.389   2.944
 9416TIP3   OH228190   2.858   5.377   0.316
 9416TIP3    H128191   2.846   5.296   0.266
 9416TIP3    H228192   2.859   5.348   0.408
 9417TIP3   OH228193   2.812   7.041   3.732
 9417TIP3    H128194   2.826   6.950   3.707
 9417TIP3    H228195   2.894   7.067   3.775
 9418TIP3   OH228196   5.099   0.027   1.815
 9418TIP3    H128197   5.127  -0.049   1.763
 9418TIP3    H228198   5.137   0.013   1.901
 9419TIP3   OH228199   8.226   0.069   6.762
 9419TIP3    H128200   8.291   0.028   6.819
 9419TIP3    H228201   8.145   0.023   6.781
 9420TIP3   OH228202   0.254   2.782   1.881
 9420TIP3    H128203   0.308   2.858   1.901
 9420TIP3    H228204   0.181   2.817   1.829
 9421TIP3   OH228205   1.075   4.150   6.061
 9421TIP3    H128206   1.090   4.102   5.980
 9421TIP3    H228207   1.158   4.193   6.080
 9422TIP3   OH228208   7.390   0.951   4.256
 9422TIP3    H128209   7.413   0.883   4.319
 9422TIP3    H228210   7.366   0.902   4.177
 9423TIP3   OH228211   3.421   1.248   0.272
 9423TIP3    H128212   3.365   1.272   0.345
 9423TIP3    H228213   3.508   1.239   0.310
 9424TIP3   OH228214   2.897   1.048   3.968
 9424TIP3    H128215   2.935   0.968   4.004
 9424TIP3    H228216   2.898   1.033   3.873
 9425TIP3   OH228217   5.790   7.292   4.286
 9425TIP3    H128218   5.777   7.203   4.253
 9425TIP3    H228219   5.874   7.319   4.249
 9426TIP3   OH228220   6.841   4.334   2.115
 9426TIP3    H128221   6.815   4.279   2.189
 9426TIP3    H228222   6.799   4.293   2.040
 9427TIP3   OH228223   8.293   5.547   0.281
 9427TIP3    H128224   8.388   5.554   0.270
 9427TIP3    H228225   8.259   5.626   0.238
 9428TIP3   OH228226   0.409   5.877   5.965
 9428TIP3    H128227   0.360   5.897   5.885
 9428TIP3    H228228   0.465   5.953   5.979
 9429TIP3   OH228229   3.658   2.345   5.986
 9429TIP3    H128230   3.577   2.378   5.945
 9429TIP3    H228231   3.725   2.408   5.960
 9430TIP3   OH228232   7.541   6.115   6.413
 9430TIP3    H128233   7.633   6.127   6.436
 9430TIP3    H228234   7.525   6.021   6.425
 9431TIP3   OH228235   6.603   0.812   0.094
 9431TIP3    H128236   6.531   0.759   0.130
 9431TIP3    H228237   6.682   0.763   0.116
 9432TIP3   OH228238   2.569   2.706   4.256
 9432TIP3    H128239   2.475   2.688   4.268
 9432TIP3    H228240   2.609   2.677   4.338
 9433TIP3   OH228241   1.363   3.050   2.083
 9433TIP3    H128242   1.453   3.058   2.112
 9433TIP3    H228243   1.312   3.037   2.163
 9434TIP3   OH228244   6.107   1.720   2.174
 9434TIP3    H128245   6.181   1.777   2.192
 9434TIP3    H228246   6.034   1.760   2.223
 9435TIP3   OH228247   2.404   5.133   0.475
 9435TIP3    H128248   2.457   5.082   0.414
 9435TIP3    H228249   2.394   5.077   0.552
 9436TIP3   OH228250   4.523   4.517   3.062
 9436TIP3    H128251   4.464   4.546   2.992
 9436TIP3    H228252   4.570   4.443   3.025
 9437TIP3   OH228253   0.537   5.260   0.325
 9437TIP3    H128254   0.625   5.295   0.342
 9437TIP3    H228255   0.501   5.244   0.413
 9438TIP3   OH228256   5.910   2.602   6.271
 9438TIP3    H128257   5.916   2.507   6.283
 9438TIP3    H228258   5.821   2.624   6.299
 9439TIP3   OH228259   7.347   6.724   2.021
 9439TIP3    H128260   7.299   6.807   2.013
 9439TIP3    H228261   7.280   6.660   2.048
 9440TIP3   OH228262   0.204   3.708   3.694
 9440TIP3    H128263   0.258   3.783   3.717
 9440TIP3    H228264   0.259   3.632   3.714
 9441TIP3   OH228265   3.425   7.767   0.636
 9441TIP3    H128266   3.478   7.699   0.677
 9441TIP3    H228267   3.344   7.769   0.687
 9442TIP3   OH228268   2.375   1.116   5.067
 9442TIP3    H128269   2.348   1.105   4.976
 9442TIP3    H228270   2.457   1.068   5.075
 9443TIP3   OH228271   5.681   0.612   0.561
 9443TIP3    H128272   5.691   0.668   0.638
 9443TIP3    H228273   5.672   0.674   0.488
 9444TIP3   OH228274   3.735   0.360   2.741
 9444TIP3    H128275   3.646   0.332   2.762
 9444TIP3    H228276   3.734   0.455   2.752
 9445TIP3   OH228277   0.842   2.573   5.700
 9445TIP3    H128278   0.775   2.505   5.699
 9445TIP3    H228279   0.797   2.652   5.730
 9446TIP3   OH228280   4.842   4.381   6.029
 9446TIP3    H128281   4.860   4.382   5.936
 9446TIP3    H228282   4.902   4.316   6.065
 9447TIP3   OH228283   5.354   3.024   6.006
 9447TIP3    H128284   5.398   3.107   6.026
 9447TIP3    H228285   5.310   3.000   6.087
 9448TIP3   OH228286   0.199   0.762   4.006
 9448TIP3    H128287   0.201   0.671   3.977
 9448TIP3    H228288   0.154   0.809   3.935
 9449TIP3   OH228289   5.436   2.001   3.299
 9449TIP3    H128290   5.503   1.972   3.360
 9449TIP3    H228291   5.397   2.079   3.340
 9450TIP3   OH228292   4.731   0.167   6.687
 9450TIP3    H128293   4.693   0.174   6.599
 9450TIP3    H228294   4.803   0.105   6.677
 9451TIP3   OH228295   6.749   6.332   0.046
 9451TIP3    H128296   6.735   6.380  -0.036
 9451TIP3    H228297   6.675   6.357   0.101
 9452TIP3   OH228298   6.293   2.634   6.054
 9452TIP3    H128299   6.292   2.723   6.088
 9452TIP3    H228300   6.372   2.595   6.090
 9453TIP3   OH228301   4.568   0.185   5.800
 9453TIP3    H128302   4.648   0.166   5.849
 9453TIP3    H228303   4.592   0.258   5.743
 9454TIP3   OH228304   6.798   0.279   3.014
 9454TIP3    H128305   6.880   0.315   2.982
 9454TIP3    H228306   6.777   0.209   2.952
 9455TIP3   OH228307   7.241   0.480   4.482
 9455TIP3    H128308   7.154   0.520   4.493
 9455TIP3    H228309   7.293   0.517   4.553
 9456TIP3   OH228310   6.735   7.526   1.921
 9456TIP3    H128311   6.797   7.592   1.889
 9456TIP3    H228312   6.679   7.507   1.847
 9457TIP3   OH228313   6.499   1.136   6.109
 9457TIP3    H128314   6.521   1.058   6.161
 9457TIP3    H228315   6.443   1.188   6.166
 9458TIP3   OH228316   1.824   3.030   3.088
 9458TIP3    H128317   1.843   3.118   3.055
 9458TIP3    H228318   1.905   3.003   3.132
 9459TIP3   OH228319   3.489   0.908   4.141
 9459TIP3    H128320   3.399   0.912   4.173
 9459TIP3    H228321   3.530   0.988   4.174
 9460TIP3   OH228322   4.457   3.001   2.189
 9460TIP3    H128323   4.403   3.001   2.110
 9460TIP3    H228324   4.503   2.917   2.187
 9461TIP3   OH228325   2.684   4.886   1.164
 9461TIP3    H128326   2.615   4.889   1.097
 9461TIP3    H228327   2.636   4.894   1.247
 9462TIP3   OH228328   1.244   2.802   1.436
 9462TIP3    H128329   1.190   2.723   1.433
 9462TIP3    H228330   1.205   2.860   1.371
 9463TIP3   OH228331   7.333   3.988   2.503
 9463TIP3    H128332   7.362   3.899   2.481
 9463TIP3    H228333   7.413   4.032   2.531
 9464TIP3   OH228334   3.574   1.553   6.652
 9464TIP3    H128335   3.580   1.648   6.664
 9464TIP3    H228336   3.517   1.523   6.722
 9465TIP3   OH228337   0.867   1.845   3.216
 9465TIP3    H128338   0.820   1.762   3.207
 9465TIP3    H228339   0.820   1.907   3.161
 9466TIP3   OH228340   0.496   5.164   0.641
 9466TIP3    H128341   0.530   5.081   0.607
 9466TIP3    H228342   0.570   5.201   0.691
 9467TIP3   OH228343   2.034   3.881   5.013
 9467TIP3    H128344   1.982   3.911   5.087
 9467TIP3    H228345   2.125   3.897   5.039
 9468TIP3   OH228346   4.923   0.242   3.383
 9468TIP3    H128347   4.918   0.151   3.355
 9468TIP3    H228348   5.004   0.275   3.345
 9469TIP3   OH228349   7.224   7.627   5.980
 9469TIP3    H128350   7.177   7.681   6.044
 9469TIP3    H228351   7.306   7.604   6.025
 9470TIP3   OH228352   3.886   2.052   0.781
 9470TIP3    H128353   3.828   2.083   0.850
 9470TIP3    H228354   3.955   2.119   0.776
 9471TIP3   OH228355   4.910   2.026   1.606
 9471TIP3    H128356   4.930   1.956   1.668
 9471TIP3    H228357   4.857   2.088   1.655
 9472TIP3   OH228358   2.676   6.946   4.668
 9472TIP3    H128359   2.738   6.907   4.730
 9472TIP3    H228360   2.724   7.020   4.630
 9473TIP3   OH228361   3.853   2.879   3.560
 9473TIP3    H128362   3.924   2.903   3.500
 9473TIP3    H228363   3.855   2.946   3.628
 9474TIP3   OH228364   0.201   1.904   4.128
 9474TIP3    H128365   0.230   1.968   4.194
 9474TIP3    H228366   0.279   1.854   4.107
 9475TIP3   OH228367   8.160   4.131   5.581
 9475TIP3    H128368   8.248   4.169   5.574
 9475TIP3    H228369   8.131   4.122   5.491
 9476TIP3   OH228370   2.655   3.771   1.534
 9476TIP3    H128371   2.578   3.825   1.553
 9476TIP3    H228372   2.668   3.780   1.440
 9477TIP3   OH228373   5.177   2.903   4.413
 9477TIP3    H128374   5.108   2.843   4.385
 9477TIP3    H228375   5.255   2.875   4.364
 9478TIP3   OH228376   4.315   6.112   6.061
 9478TIP3    H128377   4.275   6.118   5.974
 9478TIP3    H228378   4.369   6.191   6.068
 9479TIP3   OH228379   3.894   6.523   5.865
 9479TIP3    H128380   3.878   6.498   5.774
 9479TIP3    H228381   3.819   6.487   5.913
 9480TIP3   OH228382   2.137   6.347   4.753
 9480TIP3    H128383   2.060   6.349   4.696
 9480TIP3    H228384   2.121   6.415   4.818
 9481TIP3   OH228385   1.651   3.193   6.247
 9481TIP3    H128386   1.675   3.246   6.171
 9481TIP3    H228387   1.682   3.244   6.322
 9482TIP3   OH228388   6.429   0.679   3.133
 9482TIP3    H128389   6.336   0.666   3.151
 9482TIP3    H228390   6.437   0.675   3.038
 9483TIP3   OH228391   3.982   2.973   4.697
 9483TIP3    H128392   3.887   2.980   4.688
 9483TIP3    H228393   4.008   2.910   4.631
 9484TIP3   OH228394   4.196   5.113   5.858
 9484TIP3    H128395   4.261   5.089   5.792
 9484TIP3    H228396   4.113   5.080   5.823
 9485TIP3   OH228397   8.058   1.719   6.114
 9485TIP3    H128398   8.052   1.795   6.057
 9485TIP3    H228399   8.150   1.717   6.142
 9486TIP3   OH228400   3.744   7.126   2.612
 9486TIP3    H128401   3.789   7.129   2.696
 9486TIP3    H228402   3.769   7.042   2.574
 9487TIP3   OH228403   6.232   5.910   1.123
 9487TIP3    H128404   6.177   5.982   1.154
 9487TIP3    H228405   6.255   5.862   1.202
 9488TIP3   OH228406   5.967   5.753   1.053
 9488TIP3    H128407   5.915   5.817   1.102
 9488TIP3    H228408   6.057   5.771   1.078
 9489TIP3   OH228409   1.043   1.375   6.312
 9489TIP3    H128410   1.120   1.330   6.347
 9489TIP3    H228411   1.045   1.462   6.353
 9490TIP3   OH228412   0.676   4.714   5.124
 9490TIP3    H128413   0.719   4.698   5.208
 9490TIP3    H228414   0.583   4.698   5.141
 9491TIP3   OH228415   1.523   4.832   4.531
 9491TIP3    H128416   1.614   4.826   4.559
 9491TIP3    H228417   1.528   4.862   4.441
 9492TIP3   OH228418   5.285   6.038   5.496
 9492TIP3    H128419   5.299   6.061   5.588
 9492TIP3    H228420   5.193   6.059   5.479
 9493TIP3   OH228421   6.350   0.113   4.227
 9493TIP3    H128422   6.269   0.116   4.176
 9493TIP3    H228423   6.327   0.060   4.304
 9494TIP3   OH228424   2.802   0.646   6.358
 9494TIP3    H128425   2.739   0.716   6.340
 9494TIP3    H228426   2.881   0.692   6.388
 9495TIP3   OH228427   6.211   0.436   1.761
 9495TIP3    H128428   6.159   0.399   1.689
 9495TIP3    H228429   6.146   0.467   1.824
 9496TIP3   OH228430   4.352   2.273   5.170
 9496TIP3    H128431   4.409   2.296   5.096
 9496TIP3    H228432   4.269   2.248   5.130
 9497TIP3   OH228433   6.822  -0.091   0.487
 9497TIP3    H128434   6.741  -0.104   0.438
 9497TIP3    H228435   6.808  -0.011   0.536
 9498TIP3   OH228436   2.067   0.535   6.492
 9498TIP3    H128437   1.985   0.570   6.457
 9498TIP3    H228438   2.068   0.564   6.583
 9499TIP3   OH228439   6.582   3.755   0.697
 9499TIP3    H128440   6.578   3.850   0.690
 9499TIP3    H228441   6.632   3.727   0.620
 9500TIP3   OH228442   7.722   2.131   4.586
 9500TIP3    H128443   7.742   2.041   4.559
 9500TIP3    H228444   7.641   2.153   4.540
 9501TIP3   OH228445   5.031   0.054   3.993
 9501TIP3    H128446   5.051   0.020   4.080
 9501TIP3    H228447   5.063   0.145   3.995
 9502TIP3   OH228448   7.347   6.544   5.294
 9502TIP3    H128449   7.388   6.526   5.379
 9502TIP3    H228450   7.419   6.563   5.235
 9503TIP3   OH228451   7.470   2.143   1.546
 9503TIP3    H128452   7.424   2.146   1.630
 9503TIP3    H228453   7.449   2.057   1.510
 9504TIP3   OH228454   5.647   0.864   4.679
 9504TIP3    H128455   5.720   0.841   4.736
 9504TIP3    H228456   5.621   0.781   4.639
 9505TIP3   OH228457   7.913   7.615   2.599
 9505TIP3    H128458   7.864   7.584   2.523
 9505TIP3    H228459   7.868   7.695   2.625
 9506TIP3   OH228460   0.974   1.203   4.229
 9506TIP3    H128461   0.885   1.225   4.202
 9506TIP3    H228462   1.015   1.165   4.151
 9507TIP3   OH228463   6.621   3.031   1.929
 9507TIP3    H128464   6.603   2.958   1.988
 9507TIP3    H228465   6.538   3.047   1.885
 9508TIP3   OH228466   8.262   2.173   6.694
 9508TIP3    H128467   8.331   2.184   6.760
 9508TIP3    H228468   8.209   2.252   6.702
 9509TIP3   OH228469   8.285   6.973   2.741
 9509TIP3    H128470   8.244   7.047   2.786
 9509TIP3    H228471   8.269   6.898   2.799
 9510TIP3   OH228472   7.020   1.645   1.413
 9510TIP3    H128473   6.931   1.617   1.391
 9510TIP3    H228474   7.010   1.735   1.444
 9511TIP3   OH228475   2.052   2.008   4.665
 9511TIP3    H128476   2.123   2.027   4.726
 9511TIP3    H228477   2.076   1.924   4.625
 9512TIP3   OH228478   5.393   2.465   6.257
 9512TIP3    H128479   5.395   2.535   6.191
 9512TIP3    H228480   5.379   2.385   6.207
 9513TIP3   OH228481   2.332   6.303   3.154
 9513TIP3    H128482   2.299   6.295   3.243
 9513TIP3    H228483   2.366   6.393   3.149
 9514TIP3   OH228484   0.437   2.322   0.070
 9514TIP3    H128485   0.369   2.262   0.042
 9514TIP3    H228486   0.512   2.266   0.091
 9515TIP3   OH228487   3.870   4.435   6.275
 9515TIP3    H128488   3.802   4.484   6.320
 9515TIP3    H228489   3.912   4.383   6.344
 9516TIP3   OH228490   0.416   5.580   0.498
 9516TIP3    H128491   0.349   5.513   0.483
 9516TIP3    H228492   0.416   5.592   0.593
 9517TIP3   OH228493   3.329   6.476   6.493
 9517TIP3    H128494   3.291   6.400   6.449
 9517TIP3    H228495   3.422   6.452   6.504
 9518TIP3   OH228496   0.076   7.337   3.695
 9518TIP3    H128497  -0.014   7.370   3.688
 9518TIP3    H228498   0.101   7.356   3.786
 9519TIP3   OH228499   8.040   1.440   1.997
 9519TIP3    H128500   7.995   1.522   1.977
 9519TIP3    H228501   8.055   1.443   2.092
 9520TIP3   OH228502   2.693   4.551   4.842
 9520TIP3    H128503   2.772   4.523   4.888
 9520TIP3    H228504   2.712   4.535   4.749
 9521TIP3   OH228505   6.285   7.070   3.116
 9521TIP3    H128506   6.226   7.048   3.188
 9521TIP3    H228507   6.272   6.999   3.052
 9522TIP3   OH228508   4.830   6.741   1.084
 9522TIP3    H128509   4.807   6.715   1.173
 9522TIP3    H228510   4.897   6.678   1.057
 9523TIP3   OH228511   0.187   1.560   5.266
 9523TIP3    H128512   0.265   1.543   5.320
 9523TIP3    H228513   0.115   1.560   5.329
 9524TIP3   OH228514   4.412   2.765   4.702
 9524TIP3    H128515   4.387   2.709   4.775
 9524TIP3    H228516   4.332   2.812   4.680
 9525TIP3   OH228517   7.543   6.415   4.477
 9525TIP3    H128518   7.627   6.430   4.432
 9525TIP3    H228519   7.519   6.500   4.513
 9526TIP3   OH228520   4.523   5.342   4.025
 9526TIP3    H128521   4.518   5.396   4.104
 9526TIP3    H228522   4.433   5.338   3.993
 9527TIP3   OH228523   7.386   0.218   1.622
 9527TIP3    H128524   7.298   0.181   1.614
 9527TIP3    H228525   7.444   0.143   1.634
 9528TIP3   OH228526   5.024   6.829   1.695
 9528TIP3    H128527   5.101   6.845   1.640
 9528TIP3    H228528   5.055   6.769   1.763
 9529TIP3   OH228529   5.309   5.510   1.846
 9529TIP3    H128530   5.374   5.471   1.904
 9529TIP3    H228531   5.227   5.465   1.869
 9530TIP3   OH228532   1.530   4.096   4.638
 9530TIP3    H128533   1.477   4.104   4.717
 9530TIP3    H228534   1.564   4.184   4.623
 9531TIP3   OH228535   7.906   7.594   3.033
 9531TIP3    H128536   7.942   7.509   3.008
 9531TIP3    H228537   7.979   7.640   3.074
 9532TIP3   OH228538   1.720   5.277   6.060
 9532TIP3    H128539   1.670   5.264   5.979
 9532TIP3    H228540   1.656   5.313   6.122
 9533TIP3   OH228541   0.139   1.727   1.000
 9533TIP3    H128542   0.137   1.660   0.932
 9533TIP3    H228543   0.183   1.801   0.959
 9534TIP3   OH228544   2.500   5.344   5.354
 9534TIP3    H128545   2.503   5.349   5.449
 9534TIP3    H228546   2.547   5.263   5.332
 9535TIP3   OH228547   5.634   6.982   2.403
 9535TIP3    H128548   5.660   6.890   2.406
 9535TIP3    H228549   5.546   6.983   2.439
 9536TIP3   OH228550   6.679   6.957   0.267
 9536TIP3    H128551   6.718   6.881   0.310
 9536TIP3    H228552   6.607   6.982   0.324
 9537TIP3   OH228553   3.246   1.694   4.435
 9537TIP3    H128554   3.162   1.732   4.464
 9537TIP3    H228555   3.223   1.606   4.406
 9538TIP3   OH228556   1.192   4.910   6.091
 9538TIP3    H128557   1.273   4.858   6.091
 9538TIP3    H228558   1.133   4.864   6.150
 9539TIP3   OH228559   0.704   5.303   2.164
 9539TIP3    H128560   0.644   5.254   2.109
 9539TIP3    H228561   0.663   5.304   2.250
 9540TIP3   OH228562   2.567   5.603   3.090
 9540TIP3    H128563   2.610   5.518   3.099
 9540TIP3    H228564   2.477   5.582   3.062
 9541TIP3   OH228565   6.697   0.040   1.098
 9541TIP3    H128566   6.661   0.084   1.175
 9541TIP3    H228567   6.712   0.111   1.035
 9542TIP3   OH228568   5.711   1.812   2.068
 9542TIP3    H128569   5.737   1.721   2.058
 9542TIP3    H228570   5.762   1.845   2.142
 9543TIP3   OH228571   2.647   3.637   5.628
 9543TIP3    H128572   2.608   3.674   5.707
 9543TIP3    H228573   2.707   3.705   5.597
 9544TIP3   OH228574   6.906   4.276   0.328
 9544TIP3    H128575   6.930   4.259   0.419
 9544TIP3    H228576   6.870   4.365   0.328
 9545TIP3   OH228577   7.844   5.367   6.041
 9545TIP3    H128578   7.758   5.409   6.053
 9545TIP3    H228579   7.876   5.404   5.959
 9546TIP3   OH228580   7.375   3.595   4.461
 9546TIP3    H128581   7.365   3.689   4.448
 9546TIP3    H228582   7.406   3.585   4.551
 9547TIP3   OH228583   7.115   5.966   6.742
 9547TIP3    H128584   7.193   5.910   6.744
 9547TIP3    H228585   7.048   5.912   6.701
 9548TIP3   OH228586   6.552   7.098   2.774
 9548TIP3    H128587   6.547   7.018   2.828
 9548TIP3    H228588   6.617   7.077   2.707
 9549TIP3   OH228589   5.244   2.198   3.241
 9549TIP3    H128590   5.187   2.122   3.227
 9549TIP3    H228591   5.228   2.223   3.332
 9550TIP3   OH228592   7.205   4.375   1.021
 9550TIP3    H128593   7.281   4.422   0.985
 9550TIP3    H228594   7.188   4.417   1.105
 9551TIP3   OH228595   3.959   6.228   1.848
 9551TIP3    H128596   3.920   6.312   1.873
 9551TIP3    H228597   4.041   6.252   1.804
 9552TIP3   OH228598   5.844   5.773   4.971
 9552TIP3    H128599   5.755   5.801   4.992
 9552TIP3    H228600   5.833   5.711   4.898
 9553TIP3   OH228601   4.027   7.107   2.292
 9553TIP3    H128602   3.992   7.181   2.342
 9553TIP3    H228603   3.979   7.109   2.209
 9554TIP3   OH228604   4.463   5.746   4.023
 9554TIP3    H128605   4.538   5.712   3.974
 9554TIP3    H228606   4.499   5.770   4.108
 9555TIP3   OH228607   2.393   4.650   5.898
 9555TIP3    H128608   2.372   4.652   5.805
 9555TIP3    H228609   2.450   4.726   5.911
 9556TIP3   OH228610   2.102   7.835   2.044
 9556TIP3    H128611   2.193   7.807   2.032
 9556TIP3    H228612   2.050   7.771   1.996
 9557TIP3   OH228613   1.523   4.800   5.325
 9557TIP3    H128614   1.596   4.834   5.274
 9557TIP3    H228615   1.445   4.826   5.276
 9558TIP3   OH228616   3.108   7.345   3.434
 9558TIP3    H128617   3.163   7.392   3.371
 9558TIP3    H228618   3.163   7.274   3.466
 9559TIP3   OH228619   2.368   0.599   5.183
 9559TIP3    H128620   2.379   0.523   5.126
 9559TIP3    H228621   2.445   0.596   5.241
 9560TIP3   OH228622   4.595   1.398   3.899
 9560TIP3    H128623   4.618   1.427   3.988
 9560TIP3    H228624   4.538   1.467   3.866
 9561TIP3   OH228625   8.070   5.253   1.313
 9561TIP3    H128626   8.041   5.266   1.403
 9561TIP3    H228627   8.080   5.342   1.278
 9562TIP3   OH228628   0.902   2.285   0.901
 9562TIP3    H128629   0.973   2.251   0.848
 9562TIP3    H228630   0.903   2.379   0.884
 9563TIP3   OH228631   1.375   4.921   6.725
 9563TIP3    H128632   1.289   4.933   6.684
 9563TIP3    H228633   1.438   4.938   6.654
 9564TIP3   OH228634   5.375   5.706   3.860
 9564TIP3    H128635   5.351   5.761   3.934
 9564TIP3    H228636   5.451   5.656   3.891
 9565TIP3   OH228637   1.276   0.633   6.476
 9565TIP3    H128638   1.347   0.585   6.519
 9565TIP3    H228639   1.200   0.577   6.488
 9566TIP3   OH228640   4.918   5.593   5.978
 9566TIP3    H128641   4.885   5.586   6.067
 9566TIP3    H228642   4.846   5.560   5.923
 9567TIP3   OH228643   1.218   7.691   3.669
 9567TIP3    H128644   1.145   7.688   3.731
 9567TIP3    H228645   1.283   7.632   3.706
 9568TIP3   OH228646   2.690   6.086   2.124
 9568TIP3    H128647   2.711   6.028   2.051
 9568TIP3    H228648   2.613   6.135   2.094
 9569TIP3   OH228649   5.772   3.577   5.351
 9569TIP3    H128650   5.737   3.532   5.274
 9569TIP3    H228651   5.866   3.561   5.346
 9570TIP3   OH228652   0.806   5.328   4.230
 9570TIP3    H128653   0.716   5.360   4.227
 9570TIP3    H228654   0.835   5.331   4.139
 9571TIP3   OH228655   3.603   0.457   5.138
 9571TIP3    H128656   3.612   0.482   5.230
 9571TIP3    H228657   3.687   0.482   5.098
 9572TIP3   OH228658   4.568   3.838   1.474
 9572TIP3    H128659   4.533   3.749   1.489
 9572TIP3    H228660   4.563   3.850   1.379
 9573TIP3   OH228661   5.874   0.398   1.157
 9573TIP3    H128662   5.824   0.445   1.090
 9573TIP3    H228663   5.809   0.349   1.207
 9574TIP3   OH228664   1.005   7.601   5.161
 9574TIP3    H128665   1.087   7.630   5.122
 9574TIP3    H228666   1.030   7.530   5.220
 9575TIP3   OH228667   1.405   0.971   6.151
 9575TIP3    H128668   1.441   1.034   6.089
 9575TIP3    H228669   1.479   0.948   6.208
 9576TIP3   OH228670   4.543   0.624   6.555
 9576TIP3    H128671   4.609   0.557   6.571
 9576TIP3    H228672   4.540   0.675   6.636
 9577TIP3   OH228673   5.905   7.171   5.502
 9577TIP3    H128674   5.859   7.255   5.495
 9577TIP3    H228675   5.978   7.179   5.441
 9578TIP3   OH228676   5.278   1.315   1.163
 9578TIP3    H128677   5.351   1.340   1.105
 9578TIP3    H228678   5.206   1.295   1.103
 9579TIP3   OH228679   7.793   5.833   1.486
 9579TIP3    H128680   7.736   5.850   1.412
 9579TIP3    H228681   7.839   5.916   1.500
 9580TIP3   OH228682   1.444   3.031   5.686
 9580TIP3    H128683   1.423   2.981   5.607
 9580TIP3    H228684   1.396   2.987   5.756
 9581TIP3   OH228685   1.251   4.399   1.657
 9581TIP3    H128686   1.165   4.414   1.617
 9581TIP3    H228687   1.310   4.459   1.611
 9582TIP3   OH228688   5.662   2.779   6.673
 9582TIP3    H128689   5.593   2.737   6.723
 9582TIP3    H228690   5.723   2.709   6.652
 9583TIP3   OH228691   2.425   6.393   4.160
 9583TIP3    H128692   2.339   6.370   4.123
 9583TIP3    H228693   2.441   6.482   4.129
 9584TIP3   OH228694   7.647   6.770   1.119
 9584TIP3    H128695   7.638   6.864   1.107
 9584TIP3    H228696   7.564   6.733   1.088
 9585TIP3   OH228697   5.453   4.295   1.735
 9585TIP3    H128698   5.402   4.375   1.744
 9585TIP3    H228699   5.543   4.321   1.752
 9586TIP3   OH228700   1.342   2.130   3.488
 9586TIP3    H128701   1.378   2.205   3.535
 9586TIP3    H228702   1.360   2.149   3.396
 9587TIP3   OH228703   6.223   3.503   1.027
 9587TIP3    H128704   6.154   3.439   1.045
 9587TIP3    H228705   6.217   3.519   0.933
 9588TIP3   OH228706   0.515   0.701   4.948
 9588TIP3    H128707   0.562   0.666   5.024
 9588TIP3    H228708   0.424   0.704   4.976
 9589TIP3   OH228709   0.993   3.954   0.631
 9589TIP3    H128710   0.988   3.933   0.725
 9589TIP3    H228711   0.905   3.985   0.609
 9590TIP3   OH228712   8.171   2.949   2.788
 9590TIP3    H128713   8.147   2.857   2.779
 9590TIP3    H228714   8.153   2.987   2.702
 9591TIP3   OH228715   7.482   3.487   5.875
 9591TIP3    H128716   7.537   3.408   5.878
 9591TIP3    H228717   7.505   3.528   5.792
 9592TIP3   OH228718   4.404   2.201   2.002
 9592TIP3    H128719   4.388   2.108   2.015
 9592TIP3    H228720   4.429   2.235   2.088
 9593TIP3   OH228721   8.142   7.478   3.737
 9593TIP3    H128722   8.179   7.567   3.733
 9593TIP3    H228723   8.110   7.470   3.827
 9594TIP3   OH228724   0.143   1.571   2.721
 9594TIP3    H128725   0.056   1.588   2.684
 9594TIP3    H228726   0.196   1.644   2.689
 9595TIP3   OH228727   1.623   3.858   5.921
 9595TIP3    H128728   1.533   3.874   5.947
 9595TIP3    H228729   1.667   3.826   6.000
 9596TIP3   OH228730   1.122   1.542   2.575
 9596TIP3    H128731   1.163   1.611   2.628
 9596TIP3    H228732   1.075   1.590   2.507
 9597TIP3   OH228733   5.604   5.032   1.611
 9597TIP3    H128734   5.617   4.953   1.663
 9597TIP3    H228735   5.647   5.014   1.527
 9598TIP3   OH228736   5.089   1.435   5.313
 9598TIP3    H128737   5.120   1.513   5.266
 9598TIP3    H228738   5.169   1.393   5.344
 9599TIP3   OH228739   2.517   6.632   4.053
 9599TIP3    H128740   2.563   6.583   3.985
 9599TIP3    H228741   2.502   6.719   4.015
 9600TIP3   OH228742   5.882   6.421   0.123
 9600TIP3    H128743   5.903   6.361   0.194
 9600TIP3    H228744   5.788   6.437   0.132
 9601TIP3   OH228745   4.742   7.189   2.401
 9601TIP3    H128746   4.698   7.269   2.373
 9601TIP3    H228747   4.726   7.185   2.495
 9602TIP3   OH228748   7.438   5.838   5.619
 9602TIP3    H128749   7.384   5.824   5.541
 9602TIP3    H228750   7.396   5.786   5.687
 9603TIP3   OH228751   8.153   5.627   6.753
 9603TIP3    H128752   8.231   5.633   6.809
 9603TIP3    H228753   8.103   5.554   6.790
 9604TIP3   OH228754   4.170   7.599   2.855
 9604TIP3    H128755   4.163   7.693   2.840
 9604TIP3    H228756   4.103   7.579   2.919
 9605TIP3   OH228757   1.567   2.499   3.170
 9605TIP3    H128758   1.512   2.576   3.181
 9605TIP3    H228759   1.648   2.532   3.131
 9606TIP3   OH228760   1.163   2.328   6.049
 9606TIP3    H128761   1.203   2.291   5.970
 9606TIP3    H228762   1.110   2.257   6.085
 9607TIP3   OH228763   7.759   3.174   3.866
 9607TIP3    H128764   7.668   3.182   3.894
 9607TIP3    H228765   7.767   3.084   3.835
 9608TIP3   OH228766   7.229   4.737   5.953
 9608TIP3    H128767   7.220   4.652   5.911
 9608TIP3    H228768   7.143   4.754   5.992
 9609TIP3   OH228769   6.962   4.743   6.077
 9609TIP3    H128770   6.924   4.830   6.066
 9609TIP3    H228771   6.930   4.713   6.162
 9610TIP3   OH228772   3.755   5.740   4.945
 9610TIP3    H128773   3.697   5.664   4.936
 9610TIP3    H228774   3.711   5.797   5.008
 9611TIP3   OH228775   1.926   3.200   2.558
 9611TIP3    H128776   1.860   3.135   2.584
 9611TIP3    H228777   2.007   3.169   2.597
 9612TIP3   OH228778   8.101   7.655   0.016
 9612TIP3    H128779   8.054   7.737   0.002
 9612TIP3    H228780   8.043   7.587  -0.018
 9613TIP3   OH228781   3.772   4.737   4.597
 9613TIP3    H128782   3.848   4.715   4.543
 9613TIP3    H228783   3.763   4.664   4.658
 9614TIP3   OH228784   5.872   6.194   4.911
 9614TIP3    H128785   5.815   6.209   4.836
 9614TIP3    H228786   5.943   6.140   4.877
 9615TIP3   OH228787   0.254   5.174  -0.034
 9615TIP3    H128788   0.318   5.226   0.014
 9615TIP3    H228789   0.181   5.234  -0.048
 9616TIP3   OH228790   4.510   1.216   2.103
 9616TIP3    H128791   4.482   1.287   2.045
 9616TIP3    H228792   4.599   1.195   2.075
 9617TIP3   OH228793   8.045   3.469   3.699
 9617TIP3    H128794   7.973   3.531   3.682
 9617TIP3    H228795   8.124   3.516   3.673
 9618TIP3   OH228796   8.230   5.526   1.717
 9618TIP3    H128797   8.298   5.537   1.784
 9618TIP3    H228798   8.252   5.590   1.650
 9619TIP3   OH228799   1.255   2.671   3.958
 9619TIP3    H128800   1.316   2.600   3.936
 9619TIP3    H228801   1.265   2.734   3.887
 9620TIP3   OH228802   4.650   4.109   1.485
 9620TIP3    H128803   4.628   4.034   1.539
 9620TIP3    H228804   4.616   4.088   1.398
 9621TIP3   OH228805   8.203   7.096   1.331
 9621TIP3    H128806   8.208   7.181   1.375
 9621TIP3    H228807   8.114   7.064   1.350
 9622TIP3   OH228808   0.299   2.232   2.681
 9622TIP3    H128809   0.304   2.200   2.771
 9622TIP3    H228810   0.287   2.154   2.628
 9623TIP3   OH228811   4.958   3.285   3.452
 9623TIP3    H128812   4.940   3.358   3.393
 9623TIP3    H228813   5.022   3.231   3.405
 9624TIP3   OH228814   1.821   3.833   2.696
 9624TIP3    H128815   1.805   3.848   2.789
 9624TIP3    H228816   1.894   3.891   2.675
 9625TIP3   OH228817   3.947   1.331   5.207
 9625TIP3    H128818   3.910   1.302   5.123
 9625TIP3    H228819   3.877   1.383   5.247
 9626TIP3   OH228820   5.539   4.159   3.404
 9626TIP3    H128821   5.628   4.131   3.383
 9626TIP3    H228822   5.530   4.244   3.361
 9627TIP3   OH228823   3.770   7.502   2.939
 9627TIP3    H128824   3.811   7.421   2.969
 9627TIP3    H228825   3.793   7.507   2.846
 9628TIP3   OH228826   1.574   1.524   4.404
 9628TIP3    H128827   1.496   1.544   4.456
 9628TIP3    H228828   1.599   1.608   4.366
 9629TIP3   OH228829   0.920   1.859   1.021
 9629TIP3    H128830   0.995   1.869   0.963
 9629TIP3    H228831   0.861   1.799   0.974
 9630TIP3   OH228832   7.004   5.862   5.103
 9630TIP3    H128833   6.974   5.866   5.193
 9630TIP3    H228834   7.071   5.792   5.103
 9631TIP3   OH228835   6.763   0.143   1.611
 9631TIP3    H128836   6.795   0.227   1.646
 9631TIP3    H228837   6.670   0.143   1.633
 9632TIP3   OH228838   1.028   3.007   3.349
 9632TIP3    H128839   0.935   2.991   3.330
 9632TIP3    H228840   1.029   3.095   3.388
 9633TIP3   OH228841   7.338   0.767   1.008
 9633TIP3    H128842   7.257   0.717   1.014
 9633TIP3    H228843   7.314   0.844   0.957
 9634TIP3   OH228844   4.301   2.399   5.518
 9634TIP3    H128845   4.214   2.410   5.558
 9634TIP3    H228846   4.301   2.461   5.444
 9635TIP3   OH228847   5.199   6.228   1.999
 9635TIP3    H128848   5.245   6.262   2.076
 9635TIP3    H228849   5.269   6.209   1.936
 9636TIP3   OH228850   0.469   3.853   1.660
 9636TIP3    H128851   0.448   3.801   1.737
 9636TIP3    H228852   0.518   3.793   1.603
 9637TIP3   OH228853   7.622   3.734   4.179
 9637TIP3    H128854   7.693   3.739   4.244
 9637TIP3    H228855   7.644   3.659   4.125
 9638TIP3   OH228856   1.188   1.155   6.204
 9638TIP3    H128857   1.152   1.184   6.121
 9638TIP3    H228858   1.249   1.085   6.181
 9639TIP3   OH228859   8.151   2.125   5.698
 9639TIP3    H128860   8.187   2.149   5.783
 9639TIP3    H228861   8.167   2.031   5.691
 9640TIP3   OH228862   3.165   3.849   4.488
 9640TIP3    H128863   3.097   3.874   4.551
 9640TIP3    H228864   3.228   3.922   4.492
 9641TIP3   OH228865   3.326   0.480   0.448
 9641TIP3    H128866   3.419   0.490   0.426
 9641TIP3    H228867   3.289   0.431   0.375
 9642TIP3   OH228868   6.103   6.327   1.862
 9642TIP3    H128869   6.150   6.327   1.946
 9642TIP3    H228870   6.168   6.356   1.798
 9643TIP3   OH228871   0.734   1.220   6.664
 9643TIP3    H128872   0.767   1.266   6.742
 9643TIP3    H228873   0.768   1.131   6.673
 9644TIP3   OH228874   7.926   4.186   4.502
 9644TIP3    H128875   8.012   4.201   4.541
 9644TIP3    H228876   7.945   4.134   4.424
 9645TIP3   OH228877   1.573   2.843   4.284
 9645TIP3    H128878   1.493   2.889   4.259
 9645TIP3    H228879   1.629   2.849   4.206
 9646TIP3   OH228880   5.795   7.385   2.561
 9646TIP3    H128881   5.872   7.357   2.610
 9646TIP3    H228882   5.724   7.381   2.625
 9647TIP3   OH228883   2.585   3.419   2.594
 9647TIP3    H128884   2.582   3.495   2.536
 9647TIP3    H228885   2.522   3.439   2.663
 9648TIP3   OH228886   1.574   2.104   4.851
 9648TIP3    H128887   1.550   2.197   4.848
 9648TIP3    H228888   1.633   2.093   4.776
 9649TIP3   OH228889   6.711   2.818   3.280
 9649TIP3    H128890   6.769   2.840   3.207
 9649TIP3    H228891   6.666   2.738   3.252
 9650TIP3   OH228892   2.647   4.111   5.502
 9650TIP3    H128893   2.694   4.127   5.584
 9650TIP3    H228894   2.558   4.141   5.519
 9651TIP3   OH228895   3.476   6.506   3.196
 9651TIP3    H128896   3.436   6.421   3.174
 9651TIP3    H228897   3.476   6.554   3.113
 9652TIP3   OH228898   2.626   5.305   1.259
 9652TIP3    H128899   2.539   5.292   1.296
 9652TIP3    H228900   2.670   5.363   1.321
 9653TIP3   OH228901   5.924   1.357   4.713
 9653TIP3    H128902   5.962   1.405   4.786
 9653TIP3    H228903   5.991   1.361   4.644
 9654TIP3   OH228904   2.461   2.010   2.782
 9654TIP3    H128905   2.510   2.040   2.858
 9654TIP3    H228906   2.525   1.962   2.729
 9655TIP3   OH228907   5.064   4.506   2.154
 9655TIP3    H128908   5.065   4.473   2.243
 9655TIP3    H228909   5.121   4.446   2.105
 9656TIP3   OH228910   3.025   3.275   0.234
 9656TIP3    H128911   3.094   3.322   0.279
 9656TIP3    H228912   3.045   3.183   0.246
 9657TIP3   OH228913   4.234   0.920   2.700
 9657TIP3    H128914   4.237   0.825   2.712
 9657TIP3    H228915   4.195   0.931   2.613
 9658TIP3   OH228916   5.548   7.112   0.396
 9658TIP3    H128917   5.494   7.040   0.428
 9658TIP3    H228918   5.512   7.132   0.309
 9659TIP3   OH228919   4.538   0.208   6.469
 9659TIP3    H128920   4.481   0.270   6.422
 9659TIP3    H228921   4.480   0.137   6.494
 9660TIP3   OH228922   6.188   2.080   1.936
 9660TIP3    H128923   6.159   1.994   1.906
 9660TIP3    H228924   6.183   2.075   2.031
 9661TIP3   OH228925   4.745   6.675   0.429
 9661TIP3    H128926   4.706   6.593   0.398
 9661TIP3    H228927   4.775   6.656   0.518
 9662TIP3   OH228928   1.575   4.506   3.592
 9662TIP3    H128929   1.663   4.501   3.555
 9662TIP3    H228930   1.519   4.525   3.518
 9663TIP3   OH228931   4.854   5.691   4.266
 9663TIP3    H128932   4.891   5.616   4.313
 9663TIP3    H228933   4.863   5.764   4.326
 9664TIP3   OH228934   4.831   5.963   0.868
 9664TIP3    H128935   4.798   5.906   0.799
 9664TIP3    H228936   4.855   5.904   0.940
 9665TIP3   OH228937   5.957   2.927   3.209
 9665TIP3    H128938   6.001   2.844   3.191
 9665TIP3    H228939   5.866   2.901   3.227
 9666TIP3   OH228940   6.182   5.471   5.224
 9666TIP3    H128941   6.114   5.451   5.288
 9666TIP3    H228942   6.259   5.425   5.257
 9667TIP3   OH228943   7.222   3.054   2.997
 9667TIP3    H128944   7.188   2.982   2.945
 9667TIP3    H228945   7.154   3.121   2.993
 9668TIP3   OH228946   6.354   4.606   3.581
 9668TIP3    H128947   6.441   4.643   3.599
 9668TIP3    H228948   6.354   4.590   3.487
 9669TIP3   OH228949   3.401   2.024   1.903
 9669TIP3    H128950   3.437   2.022   1.992
 9669TIP3    H228951   3.317   2.068   1.912
 9670TIP3   OH228952   3.319   0.287   3.984
 9670TIP3    H128953   3.248   0.227   3.958
 9670TIP3    H228954   3.309   0.296   4.079
 9671TIP3   OH228955   5.594   0.103   6.651
 9671TIP3    H128956   5.643   0.041   6.597
 9671TIP3    H228957   5.612   0.188   6.612
 9672TIP3   OH228958   4.702   4.605   4.319
 9672TIP3    H128959   4.684   4.524   4.270
 9672TIP3    H228960   4.773   4.647   4.271
 9673TIP3   OH228961   3.797   0.292   5.528
 9673TIP3    H128962   3.865   0.302   5.461
 9673TIP3    H228963   3.725   0.346   5.496
 9674TIP3   OH228964   2.049   7.023   3.225
 9674TIP3    H128965   2.062   7.055   3.136
 9674TIP3    H228966   2.035   7.102   3.277
 9675TIP3   OH228967   6.608   0.260   2.613
 9675TIP3    H128968   6.567   0.297   2.691
 9675TIP3    H228969   6.701   0.278   2.624
 9676TIP3   OH228970   7.846   4.470   5.994
 9676TIP3    H128971   7.765   4.473   5.942
 9676TIP3    H228972   7.850   4.379   6.024
 9677TIP3   OH228973   1.888   1.308   3.064
 9677TIP3    H128974   1.915   1.217   3.074
 9677TIP3    H228975   1.798   1.311   3.096
 9678TIP3   OH228976   0.975   4.719   1.836
 9678TIP3    H128977   0.961   4.661   1.911
 9678TIP3    H228978   1.047   4.776   1.863
 9679TIP3   OH228979   5.774   6.675   3.797
 9679TIP3    H128980   5.848   6.638   3.845
 9679TIP3    H228981   5.774   6.767   3.820
 9680TIP3   OH228982   7.817   1.333   1.690
 9680TIP3    H128983   7.805   1.320   1.784
 9680TIP3    H228984   7.908   1.307   1.673
 9681TIP3   OH228985   1.938   2.483   5.850
 9681TIP3    H128986   1.937   2.522   5.938
 9681TIP3    H228987   1.933   2.389   5.867
 9682TIP3   OH228988   4.398   4.105   4.178
 9682TIP3    H128989   4.359   4.192   4.178
 9682TIP3    H228990   4.332   4.048   4.219
 9683TIP3   OH228991   0.167   5.519   2.137
 9683TIP3    H128992   0.120   5.515   2.220
 9683TIP3    H228993   0.110   5.568   2.078
 9684TIP3   OH228994   7.670   7.512   0.412
 9684TIP3    H128995   7.620   7.549   0.339
 9684TIP3    H228996   7.750   7.479   0.372
 9685TIP3   OH228997   2.782   5.477   4.462
 9685TIP3    H128998   2.778   5.573   4.470
 9685TIP3    H228999   2.874   5.456   4.475
 9686TIP3   OH229000   3.380   2.438   6.352
 9686TIP3    H129001   3.438   2.374   6.394
 9686TIP3    H229002   3.313   2.386   6.309
 9687TIP3   OH229003   2.924   5.385   2.069
 9687TIP3    H129004   2.887   5.314   2.016
 9687TIP3    H229005   2.852   5.447   2.081
 9688TIP3   OH229006   7.305   0.164   3.449
 9688TIP3    H129007   7.383   0.209   3.482
 9688TIP3    H229008   7.337   0.079   3.418
 9689TIP3   OH229009   1.638   5.641   1.498
 9689TIP3    H129010   1.619   5.723   1.453
 9689TIP3    H229011   1.572   5.580   1.465
 9690TIP3   OH229012   0.364   4.758   3.870
 9690TIP3    H129013   0.409   4.820   3.927
 9690TIP3    H229014   0.329   4.811   3.799
 9691TIP3   OH229015   6.425   0.361   1.456
 9691TIP3    H129016   6.355   0.330   1.398
 9691TIP3    H229017   6.462   0.281   1.494
 9692TIP3   OH229018   7.984   6.255   2.922
 9692TIP3    H129019   7.948   6.182   2.972
 9692TIP3    H229020   8.042   6.300   2.983
 9693TIP3   OH229021   4.786   7.508   6.560
 9693TIP3    H129022   4.765   7.473   6.647
 9693TIP3    H229023   4.701   7.512   6.515
 9694TIP3   OH229024   1.550   3.600   2.943
 9694TIP3    H129025   1.516   3.570   2.859
 9694TIP3    H229026   1.510   3.686   2.955
 9695TIP3   OH229027   7.235   4.935   6.637
 9695TIP3    H129028   7.302   4.880   6.678
 9695TIP3    H229029   7.170   4.872   6.605
 9696TIP3   OH229030   1.756   1.628   3.490
 9696TIP3    H129031   1.813   1.665   3.558
 9696TIP3    H229032   1.774   1.534   3.493
 9697TIP3   OH229033   7.777   7.013   0.828
 9697TIP3    H129034   7.722   6.967   0.765
 9697TIP3    H229035   7.723   7.020   0.907
 9698TIP3   OH229036   0.133   4.957   2.558
 9698TIP3    H129037   0.130   4.863   2.541
 9698TIP3    H229038   0.206   4.989   2.506
 9699TIP3   OH229039   0.460   4.401   5.316
 9699TIP3    H129040   0.555   4.393   5.310
 9699TIP3    H229041   0.441   4.493   5.299
 9700TIP3   OH229042   0.676   2.106   2.523
 9700TIP3    H129043   0.647   2.015   2.525
 9700TIP3    H229044   0.771   2.100   2.512
 9701TIP3   OH229045   7.815   5.067   0.632
 9701TIP3    H129046   7.770   5.125   0.571
 9701TIP3    H229047   7.770   5.082   0.716
 9702TIP3   OH229048   0.469   6.280   0.503
 9702TIP3    H129049   0.484   6.251   0.593
 9702TIP3    H229050   0.525   6.357   0.493
 9703TIP3   OH229051   2.176   3.345   4.214
 9703TIP3    H129052   2.151   3.422   4.267
 9703TIP3    H229053   2.195   3.381   4.128
 9704TIP3   OH229054   0.352   1.156   2.171
 9704TIP3    H129055   0.342   1.145   2.077
 9704TIP3    H229056   0.444   1.179   2.183
 9705TIP3   OH229057   2.163   2.353   6.514
 9705TIP3    H129058   2.242   2.338   6.463
 9705TIP3    H229059   2.192   2.352   6.605
 9706TIP3   OH229060   3.655   3.164   2.266
 9706TIP3    H129061   3.580   3.119   2.304
 9706TIP3    H229062   3.718   3.094   2.248
 9707TIP3   OH229063   5.292   4.363   0.303
 9707TIP3    H129064   5.317   4.432   0.242
 9707TIP3    H229065   5.311   4.281   0.256
 9708TIP3   OH229066   1.405   6.387   0.113
 9708TIP3    H129067   1.408   6.303   0.069
 9708TIP3    H229068   1.486   6.390   0.165
 9709TIP3   OH229069   5.968   5.669   0.187
 9709TIP3    H129070   6.063   5.656   0.182
 9709TIP3    H229071   5.954   5.712   0.272
 9710TIP3   OH229072   4.384   7.423   4.270
 9710TIP3    H129073   4.345   7.372   4.340
 9710TIP3    H229074   4.462   7.373   4.244
 9711TIP3   OH229075   5.996   1.264   1.052
 9711TIP3    H129076   6.020   1.217   0.973
 9711TIP3    H229077   6.065   1.245   1.115
 9712TIP3   OH229078   5.684   2.140   3.582
 9712TIP3    H129079   5.683   2.167   3.674
 9712TIP3    H229080   5.606   2.179   3.544
 9713TIP3   OH229081   5.254   7.283   4.894
 9713TIP3    H129082   5.171   7.327   4.912
 9713TIP3    H229083   5.237   7.230   4.817
 9714TIP3   OH229084   2.687   0.358   5.535
 9714TIP3    H129085   2.752   0.414   5.493
 9714TIP3    H229086   2.614   0.417   5.555
 9715TIP3   OH229087   6.600  -0.003   4.166
 9715TIP3    H129088   6.570   0.078   4.207
 9715TIP3    H229089   6.520  -0.041   4.128
 9716TIP3   OH229090   6.754   4.090   1.162
 9716TIP3    H129091   6.786   4.015   1.213
 9716TIP3    H229092   6.809   4.091   1.084
 9717TIP3   OH229093   5.332   3.801   6.502
 9717TIP3    H129094   5.355   3.893   6.511
 9717TIP3    H229095   5.360   3.760   6.584
 9718TIP3   OH229096   2.828   0.246   5.247
 9718TIP3    H129097   2.795   0.160   5.220
 9718TIP3    H229098   2.851   0.235   5.339
 9719TIP3   OH229099   3.370   6.257   4.802
 9719TIP3    H129100   3.360   6.351   4.787
 9719TIP3    H229101   3.351   6.217   4.717
 9720TIP3   OH229102   1.266   1.821   0.337
 9720TIP3    H129103   1.314   1.739   0.339
 9720TIP3    H229104   1.328   1.887   0.370
 9721TIP3   OH229105   4.333   3.224   5.039
 9721TIP3    H129106   4.337   3.297   4.976
 9721TIP3    H229107   4.299   3.151   4.988
 9722TIP3   OH229108   3.469   1.186   3.960
 9722TIP3    H129109   3.543   1.194   3.899
 9722TIP3    H229110   3.507   1.204   4.046
 9723TIP3   OH229111   5.523   4.488   0.985
 9723TIP3    H129112   5.536   4.582   0.986
 9723TIP3    H229113   5.497   4.467   1.075
 9724TIP3   OH229114   1.574   5.460   5.835
 9724TIP3    H129115   1.637   5.514   5.787
 9724TIP3    H229116   1.552   5.389   5.774
 9725TIP3   OH229117  -0.002   0.844   4.392
 9725TIP3    H129118  -0.025   0.908   4.459
 9725TIP3    H229119   0.052   0.892   4.330
 9726TIP3   OH229120   2.756   1.828   3.109
 9726TIP3    H129121   2.804   1.751   3.139
 9726TIP3    H229122   2.675   1.793   3.072
 9727TIP3   OH229123   3.719   7.723   6.187
 9727TIP3    H129124   3.727   7.632   6.216
 9727TIP3    H229125   3.639   7.755   6.227
 9728TIP3   OH229126   1.185   2.468   0.930
 9728TIP3    H129127   1.254   2.501   0.871
 9728TIP3    H229128   1.145   2.547   0.966
 9729TIP3   OH229129   1.494   2.625   5.398
 9729TIP3    H129130   1.499   2.551   5.458
 9729TIP3    H229131   1.502   2.587   5.311
 9730TIP3   OH229132   7.527   6.505   6.065
 9730TIP3    H129133   7.461   6.510   6.134
 9730TIP3    H229134   7.481   6.464   5.992
 9731TIP3   OH229135   2.944   3.460   1.970
 9731TIP3    H129136   2.968   3.424   1.884
 9731TIP3    H229137   2.867   3.408   1.996
 9732TIP3   OH229138   0.716   4.006   4.266
 9732TIP3    H129139   0.714   3.910   4.263
 9732TIP3    H229140   0.791   4.030   4.212
 9733TIP3   OH229141   1.853   6.059   6.050
 9733TIP3    H129142   1.769   6.087   6.016
 9733TIP3    H229143   1.886   5.998   5.985
 9734TIP3   OH229144   4.616   4.861   4.145
 9734TIP3    H129145   4.624   4.796   4.075
 9734TIP3    H229146   4.647   4.943   4.106
 9735TIP3   OH229147   5.699   1.164  -0.035
 9735TIP3    H129148   5.771   1.178  -0.097
 9735TIP3    H229149   5.719   1.081   0.007
 9736TIP3   OH229150   5.337   7.749   6.031
 9736TIP3    H129151   5.292   7.709   6.105
 9736TIP3    H229152   5.273   7.808   5.991
 9737TIP3   OH229153   1.551   4.241   5.900
 9737TIP3    H129154   1.624   4.181   5.879
 9737TIP3    H229155   1.593   4.317   5.940
 9738TIP3   OH229156   2.614   4.518   5.530
 9738TIP3    H129157   2.642   4.603   5.496
 9738TIP3    H229158   2.660   4.454   5.477
 9739TIP3   OH229159   3.138   1.183   2.403
 9739TIP3    H129160   3.163   1.265   2.360
 9739TIP3    H229161   3.124   1.208   2.495
 9740TIP3   OH229162   2.874   1.424   0.713
 9740TIP3    H129163   2.814   1.350   0.727
 9740TIP3    H229164   2.836   1.470   0.638
 9741TIP3   OH229165   0.428   1.940   0.395
 9741TIP3    H129166   0.473   2.002   0.338
 9741TIP3    H229167   0.340   1.933   0.359
 9742TIP3   OH229168   5.569   3.180   2.693
 9742TIP3    H129169   5.610   3.160   2.777
 9742TIP3    H229170   5.532   3.097   2.664
 9743TIP3   OH229171   4.099   3.322   1.060
 9743TIP3    H129172   4.075   3.405   1.019
 9743TIP3    H229173   4.105   3.342   1.153
 9744TIP3   OH229174   3.694   6.279   2.970
 9744TIP3    H129175   3.781   6.240   2.977
 9744TIP3    H229176   3.649   6.250   3.049
 9745TIP3   OH229177   7.408   6.327   2.602
 9745TIP3    H129178   7.487   6.321   2.656
 9745TIP3    H229179   7.441   6.334   2.512
 9746TIP3   OH229180   1.784   5.966   4.481
 9746TIP3    H129181   1.742   5.893   4.436
 9746TIP3    H229182   1.825   5.927   4.557
 9747TIP3   OH229183   4.889   7.230   4.610
 9747TIP3    H129184   4.843   7.312   4.625
 9747TIP3    H229185   4.982   7.252   4.622
 9748TIP3   OH229186   0.276   4.821   2.256
 9748TIP3    H129187   0.263   4.914   2.238
 9748TIP3    H229188   0.207   4.777   2.207
 9749TIP3   OH229189   1.968   6.035   4.918
 9749TIP3    H129190   2.008   6.104   4.866
 9749TIP3    H229191   1.962   6.072   5.006
 9750TIP3   OH229192   1.353   4.371   6.737
 9750TIP3    H129193   1.394   4.413   6.662
 9750TIP3    H229194   1.384   4.281   6.734
 9751TIP3   OH229195   4.066   0.701   3.998
 9751TIP3    H129196   4.148   0.751   4.000
 9751TIP3    H229197   4.090   0.619   3.954
 9752TIP3   OH229198   0.222   6.667   1.045
 9752TIP3    H129199   0.183   6.725   1.111
 9752TIP3    H229200   0.271   6.726   0.988
 9753TIP3   OH229201   6.334   5.427   4.512
 9753TIP3    H129202   6.348   5.396   4.423
 9753TIP3    H229203   6.337   5.522   4.505
 9754TIP3   OH229204   6.114   4.193   4.201
 9754TIP3    H129205   6.183   4.199   4.135
 9754TIP3    H229206   6.160   4.191   4.285
 9755TIP3   OH229207   0.076   0.283   1.600
 9755TIP3    H129208   0.009   0.275   1.668
 9755TIP3    H229209   0.071   0.200   1.552
 9756TIP3   OH229210   7.868   1.714   6.489
 9756TIP3    H129211   7.854   1.789   6.431
 9756TIP3    H229212   7.792   1.713   6.546
 9757TIP3   OH229213   3.174   0.611   2.377
 9757TIP3    H129214   3.119   0.601   2.300
 9757TIP3    H229215   3.247   0.551   2.362
 9758TIP3   OH229216   6.210   5.756   4.851
 9758TIP3    H129217   6.161   5.713   4.922
 9758TIP3    H229218   6.287   5.793   4.894
 9759TIP3   OH229219   6.702   0.699   6.433
 9759TIP3    H129220   6.683   0.630   6.370
 9759TIP3    H229221   6.793   0.685   6.458
 9760TIP3   OH229222   5.176   1.767   2.639
 9760TIP3    H129223   5.150   1.682   2.675
 9760TIP3    H229224   5.114   1.782   2.568
 9761TIP3   OH229225   4.349   6.318   0.065
 9761TIP3    H129226   4.386   6.282   0.146
 9761TIP3    H229227   4.423   6.358   0.020
 9762TIP3   OH229228   5.264   2.674   3.376
 9762TIP3    H129229   5.253   2.745   3.439
 9762TIP3    H229230   5.314   2.607   3.424
 9763TIP3   OH229231   0.770   1.653   2.196
 9763TIP3    H129232   0.726   1.664   2.280
 9763TIP3    H229233   0.710   1.599   2.144
 9764TIP3   OH229234   7.010   2.405   6.184
 9764TIP3    H129235   7.046   2.319   6.206
 9764TIP3    H229236   7.045   2.425   6.098
 9765TIP3   OH229237   2.981   6.500   1.156
 9765TIP3    H129238   2.943   6.544   1.079
 9765TIP3    H229239   3.069   6.537   1.163
 9766TIP3   OH229240   8.231   3.825   5.583
 9766TIP3    H129241   8.291   3.859   5.650
 9766TIP3    H229242   8.193   3.904   5.544
 9767TIP3   OH229243   6.567   2.857   6.240
 9767TIP3    H129244   6.618   2.929   6.278
 9767TIP3    H229245   6.482   2.895   6.219
 9768TIP3   OH229246   3.073   2.242   0.348
 9768TIP3    H129247   2.998   2.265   0.402
 9768TIP3    H229248   3.097   2.154   0.376
 9769TIP3   OH229249   5.328   7.246   1.419
 9769TIP3    H129250   5.398   7.305   1.391
 9769TIP3    H229251   5.356   7.213   1.504
 9770TIP3   OH229252   3.924   3.321   2.474
 9770TIP3    H129253   3.832   3.299   2.459
 9770TIP3    H229254   3.964   3.238   2.500
 9771TIP3   OH229255   8.242   1.860   4.226
 9771TIP3    H129256   8.315   1.879   4.167
 9771TIP3    H229257   8.180   1.931   4.211
 9772TIP3   OH229258   7.838   3.466   1.678
 9772TIP3    H129259   7.775   3.406   1.638
 9772TIP3    H229260   7.914   3.465   1.619
 9773TIP3   OH229261   6.932   0.076   2.565
 9773TIP3    H129262   6.917   0.068   2.471
 9773TIP3    H229263   7.026   0.064   2.576
 9774TIP3   OH229264   5.439   3.107   3.121
 9774TIP3    H129265   5.413   3.024   3.083
 9774TIP3    H229266   5.530   3.119   3.095
 9775TIP3   OH229267   4.461   3.922   0.904
 9775TIP3    H129268   4.390   3.858   0.913
 9775TIP3    H229269   4.538   3.870   0.884
 9776TIP3   OH229270   2.946   4.771   1.146
 9776TIP3    H129271   2.874   4.808   1.196
 9776TIP3    H229272   2.936   4.808   1.058
 9777TIP3   OH229273   2.507   5.555   0.762
 9777TIP3    H129274   2.599   5.567   0.787
 9777TIP3    H229275   2.511   5.506   0.681
 9778TIP3   OH229276   6.080   0.733   1.277
 9778TIP3    H129277   6.070   0.647   1.318
 9778TIP3    H229278   6.154   0.723   1.217
 9779TIP3   OH229279   6.032   5.679   4.209
 9779TIP3    H129280   6.092   5.657   4.281
 9779TIP3    H229281   5.950   5.634   4.231
 9780TIP3   OH229282   4.340   7.131   0.928
 9780TIP3    H129283   4.317   7.224   0.930
 9780TIP3    H229284   4.260   7.087   0.900
 9781TIP3   OH229285   3.814   2.991   3.246
 9781TIP3    H129286   3.848   3.003   3.157
 9781TIP3    H229287   3.891   2.974   3.299
 9782TIP3   OH229288   6.052   6.606   3.991
 9782TIP3    H129289   6.008   6.530   3.953
 9782TIP3    H229290   6.143   6.579   3.999
 9783TIP3   OH229291   8.226   1.712   2.603
 9783TIP3    H129292   8.233   1.782   2.539
 9783TIP3    H229293   8.208   1.756   2.686
 9784TIP3   OH229294   3.452   0.234   6.125
 9784TIP3    H129295   3.517   0.196   6.066
 9784TIP3    H229296   3.491   0.228   6.212
 9785TIP3   OH229297   4.346   0.503   1.375
 9785TIP3    H129298   4.303   0.479   1.456
 9785TIP3    H229299   4.417   0.440   1.365
 9786TIP3   OH229300   2.161   0.310   5.147
 9786TIP3    H129301   2.144   0.361   5.067
 9786TIP3    H229302   2.255   0.290   5.143
 9787TIP3   OH229303   0.768   7.383   3.241
 9787TIP3    H129304   0.800   7.440   3.171
 9787TIP3    H229305   0.843   7.372   3.299
 9788TIP3   OH229306   0.484   2.408   5.479
 9788TIP3    H129307   0.400   2.364   5.463
 9788TIP3    H229308   0.498   2.462   5.401
 9789TIP3   OH229309   6.501   6.249   2.784
 9789TIP3    H129310   6.451   6.287   2.856
 9789TIP3    H229311   6.580   6.302   2.779
 9790TIP3   OH229312   7.524   1.798   3.881
 9790TIP3    H129313   7.433   1.830   3.879
 9790TIP3    H229314   7.550   1.796   3.789
 9791TIP3   OH229315   2.819   4.204   3.192
 9791TIP3    H129316   2.793   4.124   3.239
 9791TIP3    H229317   2.737   4.246   3.169
 9792TIP3   OH229318   6.707   1.447   1.850
 9792TIP3    H129319   6.707   1.356   1.881
 9792TIP3    H229320   6.708   1.499   1.930
 9793TIP3   OH229321   5.107   2.518   1.193
 9793TIP3    H129322   5.085   2.555   1.107
 9793TIP3    H229323   5.168   2.581   1.232
 9794TIP3   OH229324   4.849   2.658   4.498
 9794TIP3    H129325   4.759   2.651   4.531
 9794TIP3    H229326   4.901   2.605   4.558
 9795TIP3   OH229327   4.965   4.634   2.449
 9795TIP3    H129328   5.021   4.557   2.453
 9795TIP3    H229329   5.005   4.689   2.382
 9796TIP3   OH229330   3.801   4.847   1.640
 9796TIP3    H129331   3.893   4.863   1.622
 9796TIP3    H229332   3.787   4.885   1.727
 9797TIP3   OH229333   4.580   3.806   1.979
 9797TIP3    H129334   4.485   3.813   1.966
 9797TIP3    H229335   4.598   3.864   2.053
 9798TIP3   OH229336   2.384   4.384   0.687
 9798TIP3    H129337   2.467   4.348   0.657
 9798TIP3    H229338   2.326   4.377   0.611
 9799TIP3   OH229339   6.976   7.125   2.451
 9799TIP3    H129340   6.985   7.040   2.409
 9799TIP3    H229341   7.033   7.121   2.528
 9800TIP3   OH229342   5.285   4.481   0.565
 9800TIP3    H129343   5.276   4.403   0.620
 9800TIP3    H229344   5.310   4.447   0.479
 9801TIP3   OH229345   1.503   7.082   4.286
 9801TIP3    H129346   1.418   7.052   4.254
 9801TIP3    H229347   1.510   7.046   4.374
 9802TIP3   OH229348   5.031   2.544   6.273
 9802TIP3    H129349   5.092   2.611   6.244
 9802TIP3    H229350   4.944   2.579   6.253
 9803TIP3   OH229351   3.987   4.677   2.380
 9803TIP3    H129352   4.082   4.681   2.370
 9803TIP3    H229353   3.962   4.595   2.337
 9804TIP3   OH229354   1.936   3.262   5.530
 9804TIP3    H129355   1.847   3.282   5.500
 9804TIP3    H229356   1.965   3.191   5.473
 9805TIP3   OH229357   1.603   7.156   6.499
 9805TIP3    H129358   1.555   7.205   6.565
 9805TIP3    H229359   1.692   7.189   6.504
 9806TIP3   OH229360   3.220   4.153   5.160
 9806TIP3    H129361   3.187   4.243   5.166
 9806TIP3    H229362   3.265   4.139   5.243
 9807TIP3   OH229363   2.898   0.178   5.712
 9807TIP3    H129364   2.950   0.256   5.692
 9807TIP3    H229365   2.840   0.205   5.783
 9808TIP3   OH229366   6.491   1.629   4.225
 9808TIP3    H129367   6.462   1.710   4.267
 9808TIP3    H229368   6.447   1.629   4.140
 9809TIP3   OH229369   2.110   1.790   0.432
 9809TIP3    H129370   2.110   1.850   0.358
 9809TIP3    H229371   2.121   1.703   0.392
 9810TIP3   OH229372   5.132   7.635   4.762
 9810TIP3    H129373   5.144   7.706   4.698
 9810TIP3    H229374   5.184   7.562   4.727
 9811TIP3   OH229375   1.630   2.156   1.859
 9811TIP3    H129376   1.654   2.236   1.812
 9811TIP3    H229377   1.543   2.172   1.894
 9812TIP3   OH229378   4.836   7.324   4.903
 9812TIP3    H129379   4.896   7.398   4.913
 9812TIP3    H229380   4.892   7.249   4.886
 9813TIP3   OH229381   4.630   0.331   4.528
 9813TIP3    H129382   4.558   0.393   4.515
 9813TIP3    H229383   4.631   0.280   4.447
 9814TIP3   OH229384   3.147   7.494   2.971
 9814TIP3    H129385   3.126   7.400   2.966
 9814TIP3    H229386   3.100   7.533   2.897
 9815TIP3   OH229387   7.014   6.704   5.831
 9815TIP3    H129388   7.031   6.665   5.917
 9815TIP3    H229389   7.082   6.668   5.774
 9816TIP3   OH229390   1.295   6.643   0.032
 9816TIP3    H129391   1.207   6.680   0.029
 9816TIP3    H229392   1.284   6.552   0.005
 9817TIP3   OH229393   4.897   0.204   2.490
 9817TIP3    H129394   4.829   0.159   2.440
 9817TIP3    H229395   4.929   0.138   2.552
 9818TIP3   OH229396   3.905   1.059   5.645
 9818TIP3    H129397   3.838   1.023   5.704
 9818TIP3    H229398   3.956   1.118   5.699
 9819TIP3   OH229399   5.975   5.807   0.441
 9819TIP3    H129400   5.989   5.792   0.534
 9819TIP3    H229401   5.885   5.840   0.435
 9820TIP3   OH229402   4.275   2.141   5.673
 9820TIP3    H129403   4.237   2.059   5.641
 9820TIP3    H229404   4.285   2.194   5.594
 9821TIP3   OH229405   6.657   4.698   0.122
 9821TIP3    H129406   6.627   4.679   0.033
 9821TIP3    H229407   6.583   4.744   0.163
 9822TIP3   OH229408   6.428   5.121   0.312
 9822TIP3    H129409   6.469   5.035   0.304
 9822TIP3    H229410   6.501   5.182   0.320
 9823TIP3   OH229411   5.264   4.316   2.024
 9823TIP3    H129412   5.268   4.373   1.947
 9823TIP3    H229413   5.317   4.240   2.000
 9824TIP3   OH229414   3.354   4.223   6.739
 9824TIP3    H129415   3.377   4.136   6.707
 9824TIP3    H229416   3.372   4.281   6.665
 9825TIP3   OH229417   1.118   1.221   2.593
 9825TIP3    H129418   1.067   1.243   2.671
 9825TIP3    H229419   1.171   1.300   2.577
 9826TIP3   OH229420   5.109   3.552   3.556
 9826TIP3    H129421   5.064   3.561   3.472
 9826TIP3    H229422   5.153   3.636   3.569
 9827TIP3   OH229423   0.385   6.281   4.430
 9827TIP3    H129424   0.290   6.276   4.437
 9827TIP3    H229425   0.403   6.281   4.336
 9828TIP3   OH229426   2.700   0.405   2.287
 9828TIP3    H129427   2.620   0.370   2.247
 9828TIP3    H229428   2.669   0.463   2.357
 9829TIP3   OH229429   1.489   5.534   2.549
 9829TIP3    H129430   1.399   5.549   2.519
 9829TIP3    H229431   1.489   5.443   2.579
 9830TIP3   OH229432   7.054   0.488   2.521
 9830TIP3    H129433   7.099   0.571   2.506
 9830TIP3    H229434   7.056   0.444   2.435
 9831TIP3   OH229435   2.485   1.286   2.599
 9831TIP3    H129436   2.439   1.289   2.515
 9831TIP3    H229437   2.578   1.287   2.576
 9832TIP3   OH229438   0.640   7.224   0.470
 9832TIP3    H129439   0.672   7.307   0.506
 9832TIP3    H229440   0.561   7.205   0.521
 9833TIP3   OH229441   3.640   4.590   0.044
 9833TIP3    H129442   3.703   4.560   0.109
 9833TIP3    H229443   3.611   4.676   0.075
 9834TIP3   OH229444   0.879   5.341   5.309
 9834TIP3    H129445   0.948   5.309   5.366
 9834TIP3    H229446   0.810   5.370   5.368
 9835TIP3   OH229447   5.471   7.693   0.802
 9835TIP3    H129448   5.430   7.752   0.866
 9835TIP3    H229449   5.411   7.694   0.727
 9836TIP3   OH229450   2.910   4.403   4.926
 9836TIP3    H129451   2.889   4.345   4.999
 9836TIP3    H229452   3.003   4.391   4.911
 9837TIP3   OH229453   7.199   5.160   2.587
 9837TIP3    H129454   7.235   5.072   2.588
 9837TIP3    H229455   7.203   5.186   2.495
 9838TIP3   OH229456   2.034   2.863   5.848
 9838TIP3    H129457   2.081   2.946   5.844
 9838TIP3    H229458   2.087   2.803   5.797
 9839TIP3   OH229459   3.685   6.225   5.659
 9839TIP3    H129460   3.668   6.261   5.572
 9839TIP3    H229461   3.631   6.146   5.663
 9840TIP3   OH229462   6.005   4.429   4.173
 9840TIP3    H129463   5.958   4.443   4.256
 9840TIP3    H229464   6.062   4.355   4.192
 9841TIP3   OH229465   5.547   7.322   0.876
 9841TIP3    H129466   5.455   7.340   0.861
 9841TIP3    H229467   5.560   7.232   0.848
 9842TIP3   OH229468   3.273   1.676   2.026
 9842TIP3    H129469   3.258   1.675   1.931
 9842TIP3    H229470   3.367   1.660   2.035
 9843TIP3   OH229471   3.121   3.445   1.486
 9843TIP3    H129472   3.030   3.464   1.465
 9843TIP3    H229473   3.161   3.530   1.502
 9844TIP3   OH229474   4.214   2.629   1.322
 9844TIP3    H129475   4.135   2.644   1.270
 9844TIP3    H229476   4.225   2.534   1.324
 9845TIP3   OH229477   2.118   2.865   4.096
 9845TIP3    H129478   2.059   2.940   4.101
 9845TIP3    H229479   2.205   2.903   4.108
 9846TIP3   OH229480   2.317   7.706   4.703
 9846TIP3    H129481   2.388   7.738   4.647
 9846TIP3    H229482   2.271   7.642   4.649
 9847TIP3   OH229483   5.623   6.962   6.564
 9847TIP3    H129484   5.643   6.869   6.562
 9847TIP3    H229485   5.596   6.979   6.654
 9848TIP3   OH229486   0.137   6.648   0.418
 9848TIP3    H129487   0.069   6.686   0.363
 9848TIP3    H229488   0.094   6.574   0.461
 9849TIP3   OH229489   5.393   7.476   4.765
 9849TIP3    H129490   5.450   7.445   4.695
 9849TIP3    H229491   5.361   7.396   4.807
 9850TIP3   OH229492   2.602   4.208   4.745
 9850TIP3    H129493   2.519   4.218   4.699
 9850TIP3    H229494   2.582   4.231   4.835
 9851TIP3   OH229495   1.491   0.386   1.281
 9851TIP3    H129496   1.515   0.400   1.190
 9851TIP3    H229497   1.446   0.302   1.282
 9852TIP3   OH229498   4.104   2.550   0.450
 9852TIP3    H129499   4.148   2.576   0.369
 9852TIP3    H229500   4.015   2.528   0.423
 9853TIP3   OH229501   3.457   1.501   2.461
 9853TIP3    H129502   3.402   1.442   2.512
 9853TIP3    H229503   3.399   1.574   2.438
 9854TIP3   OH229504   7.866   4.683   3.157
 9854TIP3    H129505   7.919   4.716   3.230
 9854TIP3    H229506   7.895   4.735   3.082
 9855TIP3   OH229507   1.927   0.167   4.732
 9855TIP3    H129508   1.892   0.166   4.821
 9855TIP3    H229509   1.962   0.255   4.721
 9856TIP3   OH229510   5.196   2.738   4.757
 9856TIP3    H129511   5.207   2.755   4.851
 9856TIP3    H229512   5.140   2.809   4.726
 9857TIP3   OH229513   0.268   3.498   1.621
 9857TIP3    H129514   0.212   3.525   1.694
 9857TIP3    H229515   0.214   3.440   1.568
 9858TIP3   OH229516   8.166   2.749   0.912
 9858TIP3    H129517   8.227   2.822   0.921
 9858TIP3    H229518   8.086   2.780   0.956
 9859TIP3   OH229519   2.145   3.658   3.683
 9859TIP3    H129520   2.132   3.571   3.722
 9859TIP3    H229521   2.191   3.640   3.600
 9860TIP3   OH229522   4.203   6.316   5.501
 9860TIP3    H129523   4.188   6.360   5.584
 9860TIP3    H229524   4.289   6.274   5.511
 9861TIP3   OH229525   6.196   1.100   3.316
 9861TIP3    H129526   6.215   1.190   3.290
 9861TIP3    H229527   6.244   1.046   3.253
 9862TIP3   OH229528   7.799   1.963   5.381
 9862TIP3    H129529   7.872   1.967   5.443
 9862TIP3    H229530   7.817   2.033   5.319
 9863TIP3   OH229531   7.707   4.483   0.572
 9863TIP3    H129532   7.770   4.538   0.619
 9863TIP3    H229533   7.736   4.394   0.590
 9864TIP3   OH229534   2.438   3.971   6.119
 9864TIP3    H129535   2.392   3.904   6.068
 9864TIP3    H229536   2.390   3.975   6.202
 9865TIP3   OH229537   7.339   6.995   3.429
 9865TIP3    H129538   7.272   6.929   3.444
 9865TIP3    H229539   7.398   6.955   3.365
 9866TIP3   OH229540   4.513   6.403   4.134
 9866TIP3    H129541   4.587   6.343   4.130
 9866TIP3    H229542   4.459   6.380   4.059
 9867TIP3   OH229543   0.380   2.211   3.563
 9867TIP3    H129544   0.457   2.225   3.617
 9867TIP3    H229545   0.316   2.173   3.623
 9868TIP3   OH229546   2.797   7.748   5.363
 9868TIP3    H129547   2.830   7.662   5.336
 9868TIP3    H229548   2.710   7.754   5.323
 9869TIP3   OH229549   4.823   5.894   3.629
 9869TIP3    H129550   4.783   5.979   3.645
 9869TIP3    H229551   4.917   5.911   3.626
 9870TIP3   OH229552   4.437   5.640   0.089
 9870TIP3    H129553   4.482   5.597   0.015
 9870TIP3    H229554   4.448   5.733   0.073
 9871TIP3   OH229555   4.184   0.646   5.254
 9871TIP3    H129556   4.096   0.650   5.290
 9871TIP3    H229557   4.210   0.737   5.242
 9872TIP3   OH229558   4.217   6.282   4.268
 9872TIP3    H129559   4.251   6.210   4.215
 9872TIP3    H229560   4.125   6.261   4.282
 9873TIP3   OH229561   1.745   4.770   5.792
 9873TIP3    H129562   1.832   4.748   5.827
 9873TIP3    H229563   1.762   4.835   5.724
 9874TIP3   OH229564   6.711   4.007   1.483
 9874TIP3    H129565   6.636   4.054   1.446
 9874TIP3    H229566   6.757   4.073   1.535
 9875TIP3   OH229567   2.206   6.463   0.734
 9875TIP3    H129568   2.191   6.556   0.720
 9875TIP3    H229569   2.301   6.453   0.730
 9876TIP3   OH229570   4.196   2.895   0.900
 9876TIP3    H129571   4.202   2.799   0.899
 9876TIP3    H229572   4.214   2.921   0.810
 9877TIP3   OH229573   0.059   2.090   6.204
 9877TIP3    H129574   0.145   2.050   6.219
 9877TIP3    H229575   0.007   2.065   6.280
 9878TIP3   OH229576   3.707   4.047   0.265
 9878TIP3    H129577   3.725   4.100   0.342
 9878TIP3    H229578   3.725   3.957   0.293
 9879TIP3   OH229579   1.817   1.681   1.928
 9879TIP3    H129580   1.830   1.588   1.910
 9879TIP3    H229581   1.894   1.724   1.890
 9880TIP3   OH229582   3.356   5.130   4.521
 9880TIP3    H129583   3.308   5.157   4.600
 9880TIP3    H229584   3.292   5.136   4.451
 9881TIP3   OH229585   1.297   4.421   5.049
 9881TIP3    H129586   1.380   4.386   5.082
 9881TIP3    H229587   1.316   4.446   4.958
 9882TIP3   OH229588   4.320   6.954   0.578
 9882TIP3    H129589   4.386   7.024   0.586
 9882TIP3    H229590   4.238   6.995   0.606
 9883TIP3   OH229591   5.579   1.889   5.980
 9883TIP3    H129592   5.572   1.801   5.942
 9883TIP3    H229593   5.673   1.903   5.992
 9884TIP3   OH229594   3.390   7.680   6.028
 9884TIP3    H129595   3.359   7.592   6.007
 9884TIP3    H229596   3.391   7.726   5.943
 9885TIP3   OH229597   1.149   2.114   1.450
 9885TIP3    H129598   1.056   2.115   1.429
 9885TIP3    H229599   1.161   2.032   1.499
 9886TIP3   OH229600   3.596   6.015   2.861
 9886TIP3    H129601   3.511   5.971   2.852
 9886TIP3    H229602   3.592   6.059   2.946
 9887TIP3   OH229603   7.398   4.378   5.282
 9887TIP3    H129604   7.471   4.416   5.233
 9887TIP3    H229605   7.350   4.327   5.217
 9888TIP3   OH229606   4.463   6.253   4.399
 9888TIP3    H129607   4.504   6.315   4.460
 9888TIP3    H229608   4.394   6.304   4.356
 9889TIP3   OH229609   0.796   2.155   3.878
 9889TIP3    H129610   0.890   2.167   3.864
 9889TIP3    H229611   0.756   2.188   3.797
 9890TIP3   OH229612   1.461   5.080   2.954
 9890TIP3    H129613   1.473   4.985   2.943
 9890TIP3    H229614   1.543   5.110   2.992
 9891TIP3   OH229615   0.729   6.199   4.967
 9891TIP3    H129616   0.772   6.124   5.009
 9891TIP3    H229617   0.801   6.253   4.936
 9892TIP3   OH229618   5.019   1.765   6.445
 9892TIP3    H129619   4.940   1.799   6.486
 9892TIP3    H229620   5.070   1.730   6.518
 9893TIP3   OH229621   2.914   2.727   2.574
 9893TIP3    H129622   2.847   2.792   2.594
 9893TIP3    H229623   2.993   2.758   2.618
 9894TIP3   OH229624   4.854   7.434   1.262
 9894TIP3    H129625   4.777   7.377   1.266
 9894TIP3    H229626   4.925   7.380   1.295
 9895TIP3   OH229627   0.600   3.158   6.006
 9895TIP3    H129628   0.528   3.200   6.052
 9895TIP3    H229629   0.677   3.178   6.059
 9896TIP3   OH229630   5.356   1.318   5.397
 9896TIP3    H129631   5.354   1.233   5.353
 9896TIP3    H229632   5.364   1.297   5.490
 9897TIP3   OH229633   6.984   6.941   4.239
 9897TIP3    H129634   6.959   6.922   4.330
 9897TIP3    H229635   7.050   7.009   4.247
 9898TIP3   OH229636   5.138   1.290   1.528
 9898TIP3    H129637   5.184   1.255   1.604
 9898TIP3    H229638   5.054   1.243   1.527
 9899TIP3   OH229639   2.731   2.156   5.079
 9899TIP3    H129640   2.758   2.145   4.988
 9899TIP3    H229641   2.640   2.185   5.075
 9900TIP3   OH229642   2.896   4.459   3.392
 9900TIP3    H129643   2.983   4.495   3.375
 9900TIP3    H229644   2.884   4.392   3.324
 9901TIP3   OH229645   7.250   1.235   6.071
 9901TIP3    H129646   7.233   1.306   6.133
 9901TIP3    H229647   7.344   1.219   6.079
 9902TIP3   OH229648   2.237   4.224   1.710
 9902TIP3    H129649   2.155   4.222   1.659
 9902TIP3    H229650   2.302   4.259   1.648
 9903TIP3   OH229651   1.360   6.973   5.547
 9903TIP3    H129652   1.299   7.007   5.482
 9903TIP3    H229653   1.415   6.911   5.498
 9904TIP3   OH229654   0.235   6.766   0.652
 9904TIP3    H129655   0.331   6.770   0.647
 9904TIP3    H229656   0.207   6.737   0.565
 9905TIP3   OH229657   0.957   3.888   5.666
 9905TIP3    H129658   0.931   3.853   5.581
 9905TIP3    H229659   1.003   3.970   5.645
 9906TIP3   OH229660   8.313   2.696   5.530
 9906TIP3    H129661   8.344   2.771   5.580
 9906TIP3    H229662   8.223   2.718   5.507
 9907TIP3   OH229663   3.715   5.162   1.647
 9907TIP3    H129664   3.667   5.240   1.675
 9907TIP3    H229665   3.658   5.089   1.669
 9908TIP3   OH229666   3.570   6.050   1.905
 9908TIP3    H129667   3.661   6.052   1.875
 9908TIP3    H229668   3.553   6.139   1.935
 9909TIP3   OH229669   6.440   6.517   4.628
 9909TIP3    H129670   6.411   6.435   4.588
 9909TIP3    H229671   6.532   6.503   4.648
 9910TIP3   OH229672   0.947   2.073   3.396
 9910TIP3    H129673   0.861   2.032   3.392
 9910TIP3    H229674   0.932   2.162   3.363
 9911TIP3   OH229675   4.066   5.735   4.667
 9911TIP3    H129676   4.136   5.692   4.618
 9911TIP3    H229677   4.058   5.821   4.626
 9912TIP3   OH229678   1.619   0.914   0.969
 9912TIP3    H129679   1.589   0.830   1.002
 9912TIP3    H229680   1.541   0.969   0.970
 9913TIP3   OH229681   1.527   1.545   1.766
 9913TIP3    H129682   1.445   1.566   1.810
 9913TIP3    H229683   1.565   1.474   1.819
 9914TIP3   OH229684   4.747   4.977   4.879
 9914TIP3    H129685   4.775   5.030   4.953
 9914TIP3    H229686   4.806   4.902   4.878
 9915TIP3   OH229687   5.471   3.795   2.150
 9915TIP3    H129688   5.543   3.831   2.097
 9915TIP3    H229689   5.412   3.868   2.164
 9916TIP3   OH229690   2.219   6.736   1.505
 9916TIP3    H129691   2.135   6.782   1.502
 9916TIP3    H229692   2.221   6.685   1.425
 9917TIP3   OH229693   3.068   3.819   1.768
 9917TIP3    H129694   2.992   3.876   1.756
 9917TIP3    H229695   3.032   3.731   1.774
 9918TIP3   OH229696   3.829   2.817   0.019
 9918TIP3    H129697   3.876   2.734   0.027
 9918TIP3    H229698   3.745   2.794  -0.021
 9919TIP3   OH229699   7.692   6.403   3.111
 9919TIP3    H129700   7.615   6.348   3.098
 9919TIP3    H229701   7.738   6.399   3.027
 9920TIP3   OH229702   4.189   2.576   6.343
 9920TIP3    H129703   4.177   2.666   6.311
 9920TIP3    H229704   4.114   2.528   6.307
 9921TIP3   OH229705   4.838   4.474   6.665
 9921TIP3    H129706   4.823   4.415   6.739
 9921TIP3    H229707   4.752   4.513   6.647
 9922TIP3   OH229708   6.798   7.398   0.059
 9922TIP3    H129709   6.704   7.415   0.067
 9922TIP3    H229710   6.818   7.417  -0.032
 9923TIP3   OH229711   3.742   6.763   3.129
 9923TIP3    H129712   3.678   6.761   3.059
 9923TIP3    H229713   3.825   6.738   3.088
 9924TIP3   OH229714   7.427   7.419   3.986
 9924TIP3    H129715   7.456   7.330   4.004
 9924TIP3    H229716   7.480   7.447   3.912
 9925TIP3   OH229717   2.341   6.387   5.527
 9925TIP3    H129718   2.372   6.452   5.464
 9925TIP3    H229719   2.420   6.342   5.556
 9926TIP3   OH229720   1.561   1.410   5.872
 9926TIP3    H129721   1.548   1.490   5.922
 9926TIP3    H229722   1.587   1.440   5.785
 9927TIP3   OH229723   3.257   1.352   6.099
 9927TIP3    H129724   3.244   1.447   6.101
 9927TIP3    H229725   3.277   1.329   6.190
 9928TIP3   OH229726   5.431   5.910   6.543
 9928TIP3    H129727   5.411   5.903   6.450
 9928TIP3    H229728   5.498   5.979   6.549
 9929TIP3   OH229729   2.132   1.968   0.912
 9929TIP3    H129730   2.095   1.890   0.953
 9929TIP3    H229731   2.056   2.021   0.887
 9930TIP3   OH229732   6.543   2.517   2.406
 9930TIP3    H129733   6.488   2.540   2.481
 9930TIP3    H229734   6.499   2.441   2.367
 9931TIP3   OH229735   1.668   4.280   2.674
 9931TIP3    H129736   1.660   4.303   2.766
 9931TIP3    H229737   1.668   4.184   2.673
 9932TIP3   OH229738   5.454   1.200   0.724
 9932TIP3    H129739   5.422   1.265   0.662
 9932TIP3    H229740   5.529   1.159   0.679
 9933TIP3   OH229741   6.843   2.398   0.024
 9933TIP3    H129742   6.872   2.339   0.093
 9933TIP3    H229743   6.924   2.433  -0.013
 9934TIP3   OH229744   2.340   2.955   0.316
 9934TIP3    H129745   2.413   2.922   0.368
 9934TIP3    H229746   2.342   2.903   0.235
 9935TIP3   OH229747   5.411   2.985   2.552
 9935TIP3    H129748   5.434   3.000   2.460
 9935TIP3    H229749   5.317   2.968   2.551
 9936TIP3   OH229750   2.845   0.553   1.507
 9936TIP3    H129751   2.835   0.532   1.414
 9936TIP3    H229752   2.840   0.469   1.552
 9937TIP3   OH229753   1.162   2.510   4.731
 9937TIP3    H129754   1.235   2.451   4.753
 9937TIP3    H229755   1.202   2.582   4.683
 9938TIP3   OH229756   7.277   0.498   0.620
 9938TIP3    H129757   7.222   0.573   0.643
 9938TIP3    H229758   7.323   0.477   0.701
 9939TIP3   OH229759   6.905   6.103   2.842
 9939TIP3    H129760   6.986   6.154   2.843
 9939TIP3    H229761   6.889   6.086   2.749
 9940TIP3   OH229762   6.169   7.180   3.927
 9940TIP3    H129763   6.177   7.188   3.832
 9940TIP3    H229764   6.259   7.188   3.959
 9941TIP3   OH229765   3.388   5.239   5.816
 9941TIP3    H129766   3.359   5.317   5.864
 9941TIP3    H229767   3.421   5.273   5.733
 9942TIP3   OH229768   1.668   0.756   3.508
 9942TIP3    H129769   1.724   0.781   3.582
 9942TIP3    H229770   1.722   0.772   3.431
 9943TIP3   OH229771   0.525   2.051   0.841
 9943TIP3    H129772   0.473   2.114   0.891
 9943TIP3    H229773   0.469   2.027   0.767
 9944TIP3   OH229774   3.157   4.763   6.293
 9944TIP3    H129775   3.104   4.811   6.228
 9944TIP3    H229776   3.094   4.708   6.339
 9945TIP3   OH229777   4.297   3.913   6.553
 9945TIP3    H129778   4.239   3.947   6.621
 9945TIP3    H229779   4.344   3.989   6.521
 9946TIP3   OH229780   2.969   3.119   4.522
 9946TIP3    H129781   3.028   3.051   4.489
 9946TIP3    H229782   3.010   3.150   4.602
 9947TIP3   OH229783   7.287   5.303   5.117
 9947TIP3    H129784   7.220   5.309   5.049
 9947TIP3    H229785   7.364   5.345   5.078
 9948TIP3   OH229786   7.214   2.039   3.070
 9948TIP3    H129787   7.229   2.122   3.115
 9948TIP3    H229788   7.257   2.050   2.985
 9949TIP3   OH229789   2.150   4.308   4.417
 9949TIP3    H129790   2.089   4.369   4.458
 9949TIP3    H229791   2.105   4.224   4.418
 9950TIP3   OH229792   0.470   0.422   2.927
 9950TIP3    H129793   0.493   0.346   2.874
 9950TIP3    H229794   0.552   0.468   2.941
 9951TIP3   OH229795   7.805   6.700   3.395
 9951TIP3    H129796   7.864   6.695   3.320
 9951TIP3    H229797   7.860   6.729   3.467
 9952TIP3   OH229798   1.211   1.626   1.794
 9952TIP3    H129799   1.154   1.549   1.793
 9952TIP3    H229800   1.229   1.640   1.887
 9953TIP3   OH229801   6.374   4.573   2.768
 9953TIP3    H129802   6.432   4.649   2.769
 9953TIP3    H229803   6.433   4.498   2.773
 9954TIP3   OH229804   4.804   5.920   1.324
 9954TIP3    H129805   4.869   5.895   1.258
 9954TIP3    H229806   4.722   5.928   1.275
 9955TIP3   OH229807   6.753   1.348   4.969
 9955TIP3    H129808   6.761   1.420   5.031
 9955TIP3    H229809   6.736   1.271   5.024
 9956TIP3   OH229810   5.689   1.374   4.967
 9956TIP3    H129811   5.776   1.415   4.971
 9956TIP3    H229812   5.643   1.422   4.898
 9957TIP3   OH229813   4.708   1.672   0.548
 9957TIP3    H129814   4.746   1.759   0.539
 9957TIP3    H229815   4.671   1.653   0.462
 9958TIP3   OH229816   5.350   5.122   5.735
 9958TIP3    H129817   5.398   5.183   5.791
 9958TIP3    H229818   5.412   5.051   5.719
 9959TIP3   OH229819   6.572   5.728   0.953
 9959TIP3    H129820   6.601   5.774   0.874
 9959TIP3    H229821   6.589   5.790   1.024
 9960TIP3   OH229822   4.539   3.052   1.760
 9960TIP3    H129823   4.592   3.127   1.790
 9960TIP3    H229824   4.585   2.975   1.793
 9961TIP3   OH229825   0.849   6.638   3.923
 9961TIP3    H129826   0.872   6.725   3.891
 9961TIP3    H229827   0.917   6.616   3.986
 9962TIP3   OH229828   2.115   5.329   2.471
 9962TIP3    H129829   2.103   5.283   2.388
 9962TIP3    H229830   2.154   5.263   2.529
 9963TIP3   OH229831   2.012   7.421   2.106
 9963TIP3    H129832   1.979   7.334   2.086
 9963TIP3    H229833   1.969   7.446   2.187
 9964TIP3   OH229834   3.282   5.038   6.720
 9964TIP3    H129835   3.362   5.018   6.769
 9964TIP3    H229836   3.311   5.094   6.648
 9965TIP3   OH229837   1.555   3.411   4.140
 9965TIP3    H129838   1.516   3.490   4.101
 9965TIP3    H229839   1.550   3.426   4.234
 9966TIP3   OH229840   3.598   5.532   5.844
 9966TIP3    H129841   3.688   5.564   5.847
 9966TIP3    H229842   3.570   5.547   5.754
 9967TIP3   OH229843   6.109   7.677   6.688
 9967TIP3    H129844   6.100   7.751   6.629
 9967TIP3    H229845   6.053   7.699   6.763
 9968TIP3   OH229846   7.658   5.429   6.708
 9968TIP3    H129847   7.581   5.381   6.738
 9968TIP3    H229848   7.710   5.363   6.661
 9969TIP3   OH229849   7.528   0.637   3.013
 9969TIP3    H129850   7.552   0.717   3.060
 9969TIP3    H229851   7.490   0.580   3.080
 9970TIP3   OH229852   4.717   2.819   4.746
 9970TIP3    H129853   4.640   2.764   4.762
 9970TIP3    H229854   4.687   2.882   4.680
 9971TIP3   OH229855   0.161   7.088   5.361
 9971TIP3    H129856   0.243   7.070   5.316
 9971TIP3    H229857   0.156   7.022   5.430
 9972TIP3   OH229858   5.446   0.457   0.448
 9972TIP3    H129859   5.420   0.532   0.394
 9972TIP3    H229860   5.531   0.482   0.484
 9973TIP3   OH229861   4.913   4.395   4.404
 9973TIP3    H129862   4.860   4.415   4.327
 9973TIP3    H229863   4.946   4.480   4.433
 9974TIP3   OH229864   7.351   1.860   0.345
 9974TIP3    H129865   7.356   1.843   0.251
 9974TIP3    H229866   7.435   1.902   0.366
 9975TIP3   OH229867   0.786   2.229   2.067
 9975TIP3    H129868   0.771   2.205   1.975
 9975TIP3    H229869   0.731   2.169   2.116
 9976TIP3   OH229870   7.623   7.052   1.093
 9976TIP3    H129871   7.695   7.112   1.115
 9976TIP3    H229872   7.573   7.045   1.174
 9977TIP3   OH229873   6.813   1.195   5.683
 9977TIP3    H129874   6.722   1.188   5.652
 9977TIP3    H229875   6.808   1.253   5.759
 9978TIP3   OH229876   4.169   6.658   3.762
 9978TIP3    H129877   4.120   6.700   3.832
 9978TIP3    H229878   4.257   6.693   3.769
 9979TIP3   OH229879   1.247   6.907   2.944
 9979TIP3    H129880   1.301   6.962   2.888
 9979TIP3    H229881   1.231   6.828   2.892
 9980TIP3   OH229882   4.971   5.144   6.109
 9980TIP3    H129883   5.051   5.165   6.062
 9980TIP3    H229884   4.901   5.177   6.053
 9981TIP3   OH229885   2.424   3.500   1.969
 9981TIP3    H129886   2.369   3.517   1.893
 9981TIP3    H229887   2.512   3.527   1.941
 9982TIP3   OH229888   8.236   5.293   4.592
 9982TIP3    H129889   8.218   5.228   4.524
 9982TIP3    H229890   8.273   5.242   4.664
 9983TIP3   OH229891   6.526   7.773   6.529
 9983TIP3    H129892   6.502   7.808   6.615
 9983TIP3    H229893   6.447   7.730   6.497
 9984TIP3   OH229894   8.001   5.796   3.576
 9984TIP3    H129895   8.050   5.755   3.647
 9984TIP3    H229896   8.008   5.890   3.593
 9985TIP3   OH229897   3.514   6.799   6.529
 9985TIP3    H129898   3.444   6.745   6.491
 9985TIP3    H229899   3.531   6.760   6.615
 9986TIP3   OH229900   3.237   4.610   4.063
 9986TIP3    H129901   3.323   4.651   4.075
 9986TIP3    H229902   3.243   4.569   3.977
 9987TIP3   OH229903   3.425   0.995   0.385
 9987TIP3    H129904   3.392   0.918   0.338
 9987TIP3    H229905   3.349   1.052   0.395
 9988TIP3   OH229906   3.758   1.839   5.561
 9988TIP3    H129907   3.853   1.848   5.564
 9988TIP3    H229908   3.726   1.905   5.623
 9989TIP3   OH229909   0.055   4.450   1.526
 9989TIP3    H129910   0.108   4.397   1.586
 9989TIP3    H229911  -0.009   4.389   1.490
 9990TIP3   OH229912   1.655   2.215   5.987
 9990TIP3    H129913   1.612   2.136   6.019
 9990TIP3    H229914   1.670   2.268   6.065
 9991TIP3   OH229915   2.968   0.576   2.551
 9991TIP3    H129916   2.936   0.487   2.562
 9991TIP3    H229917   3.050   0.567   2.502
 9992TIP3   OH229918   6.720   0.555   6.014
 9992TIP3    H129919   6.810   0.531   6.036
 9992TIP3    H229920   6.669   0.528   6.091
 9993TIP3   OH229921   4.986   0.516   3.509
 9993TIP3    H129922   4.919   0.449   3.507
 9993TIP3    H229923   4.947   0.591   3.465
 9994TIP3   OH229924   5.572   4.080   2.725
 9994TIP3    H129925   5.497   4.135   2.701
 9994TIP3    H229926   5.641   4.106   2.663
 9995TIP3   OH229927   8.068   4.424   1.301
 9995TIP3    H129928   8.099   4.346   1.348
 9995TIP3    H229929   7.985   4.398   1.263
 9996TIP3   OH229930   7.958   3.754   0.991
 9996TIP3    H129931   7.883   3.795   1.035
 9996TIP3    H229932   8.029   3.817   1.001
 9997TIP3   OH229933   6.863   3.792   1.942
 9997TIP3    H129934   6.769   3.793   1.923
 9997TIP3    H229935   6.905   3.790   1.855
 9998TIP3   OH229936   0.444   7.020   4.158
 9998TIP3    H129937   0.404   7.045   4.242
 9998TIP3    H229938   0.506   6.952   4.181
 9999TIP3   OH229939   5.988   4.218   4.634
 9999TIP3    H129940   6.030   4.257   4.710
 9999TIP3    H229941   6.047   4.146   4.610
10000TIP3   OH229942   0.183   7.167   2.524
10000TIP3    H129943   0.270   7.193   2.494
10000TIP3    H229944   0.124   7.193   2.453
10001TIP3   OH229945   4.871   7.243   1.893
10001TIP3    H129946   4.915   7.165   1.858
10001TIP3    H229947   4.780   7.216   1.904
10002TIP3   OH229948   4.402   2.315   4.863
10002TIP3    H129949   4.394   2.222   4.887
10002TIP3    H229950   4.439   2.313   4.774
10003TIP3   OH229951   7.897   2.516   5.384
10003TIP3    H129952   7.910   2.488   5.293
10003TIP3    H229953   7.952   2.457   5.435
10004TIP3   OH229954   5.243   6.921   4.540
10004TIP3    H129955   5.336   6.920   4.516
10004TIP3    H229956   5.197   6.933   4.457
10005TIP3   OH229957   3.202   2.792   4.156
10005TIP3    H129958   3.170   2.755   4.238
10005TIP3    H229959   3.285   2.748   4.141
10006TIP3   OH229960   7.638   4.525   6.474
10006TIP3    H129961   7.721   4.502   6.432
10006TIP3    H229962   7.609   4.604   6.429
10007TIP3   OH229963   2.276   5.355  -0.003
10007TIP3    H129964   2.276   5.271   0.041
10007TIP3    H229965   2.368   5.372  -0.023
10008TIP3   OH229966   6.174   5.505   3.778
10008TIP3    H129967   6.178   5.421   3.824
10008TIP3    H229968   6.133   5.485   3.694
10009TIP3   OH229969   7.878   4.008   0.705
10009TIP3    H129970   7.937   3.951   0.657
10009TIP3    H229971   7.793   3.964   0.700
10010TIP3   OH229972   1.703   1.551   1.185
10010TIP3    H129973   1.683   1.457   1.188
10010TIP3    H229974   1.617   1.593   1.182
10011TIP3   OH229975   5.795   1.046   3.020
10011TIP3    H129976   5.840   1.064   3.102
10011TIP3    H229977   5.789   0.950   3.016
10012TIP3   OH229978   3.568   1.546   3.416
10012TIP3    H129979   3.492   1.488   3.418
10012TIP3    H229980   3.565   1.592   3.500
10013TIP3   OH229981   4.378   3.706   5.746
10013TIP3    H129982   4.316   3.678   5.679
10013TIP3    H229983   4.343   3.789   5.778
10014TIP3   OH229984   5.337   4.682   5.553
10014TIP3    H129985   5.289   4.634   5.485
10014TIP3    H229986   5.321   4.633   5.633
10015TIP3   OH229987   7.285   4.911   4.888
10015TIP3    H129988   7.192   4.910   4.911
10015TIP3    H229989   7.321   4.833   4.930
10016TIP3   OH229990   7.235   7.787   1.122
10016TIP3    H129991   7.266   7.819   1.206
10016TIP3    H229992   7.243   7.692   1.128
10017TIP3   OH229993   6.129   3.096   3.060
10017TIP3    H129994   6.102   3.027   2.999
10017TIP3    H229995   6.083   3.075   3.142
10018TIP3   OH229996   1.689   6.709   3.244
10018TIP3    H129997   1.737   6.647   3.300
10018TIP3    H229998   1.650   6.771   3.306
10019TIP3   OH229999   0.614   0.796   6.505
10019TIP3    H130000   0.572   0.793   6.419
10019TIP3    H230001   0.540   0.804   6.567
10020TIP3   OH230002   5.423   4.514   4.471
10020TIP3    H130003   5.474   4.595   4.471
10020TIP3    H230004   5.367   4.520   4.394
10021TIP3   OH230005   2.467   3.703   3.784
10021TIP3    H130006   2.476   3.637   3.716
10021TIP3    H230007   2.491   3.659   3.866
10022TIP3   OH230008   6.428   4.399   0.072
10022TIP3    H130009   6.346   4.356   0.095
10022TIP3    H230010   6.431   4.396  -0.024
10023TIP3   OH230011   0.958   7.546   0.304
10023TIP3    H130012   1.029   7.525   0.365
10023TIP3    H230013   0.985   7.629   0.263
10024TIP3   OH230014   3.476   5.510   0.914
10024TIP3    H130015   3.553   5.460   0.888
10024TIP3    H230016   3.414   5.497   0.842
10025TIP3   OH230017   6.026   5.383   0.841
10025TIP3    H130018   6.114   5.355   0.866
10025TIP3    H230019   5.977   5.302   0.830
10026TIP3   OH230020   5.885   6.404   3.438
10026TIP3    H130021   5.886   6.319   3.394
10026TIP3    H230022   5.816   6.396   3.504
10027TIP3   OH230023   1.666   2.333   4.073
10027TIP3    H130024   1.734   2.316   4.138
10027TIP3    H230025   1.647   2.427   4.082
10028TIP3   OH230026   7.565   7.754   5.339
10028TIP3    H130027   7.557   7.688   5.407
10028TIP3    H230028   7.658   7.757   5.318
10029TIP3   OH230029   6.436   1.864   1.509
10029TIP3    H130030   6.350   1.897   1.536
10029TIP3    H230031   6.486   1.857   1.590
10030TIP3   OH230032   2.371   3.171   5.154
10030TIP3    H130033   2.437   3.153   5.087
10030TIP3    H230034   2.341   3.084   5.181
10031TIP3   OH230035   2.777   3.942   2.919
10031TIP3    H130036   2.817   3.953   3.006
10031TIP3    H230037   2.849   3.958   2.858
10032TIP3   OH230038   2.203   2.382   1.937
10032TIP3    H130039   2.216   2.359   1.845
10032TIP3    H230040   2.259   2.320   1.986
10033TIP3   OH230041   0.109   6.477   6.512
10033TIP3    H130042   0.054   6.510   6.442
10033TIP3    H230043   0.093   6.535   6.586
10034TIP3   OH230044   0.707   0.286   5.028
10034TIP3    H130045   0.723   0.269   5.120
10034TIP3    H230046   0.757   0.365   5.009
10035TIP3   OH230047   4.016   6.749   0.742
10035TIP3    H130048   4.095   6.705   0.771
10035TIP3    H230049   4.037   6.842   0.747
10036TIP3   OH230050   4.830   0.791   3.499
10036TIP3    H130051   4.827   0.760   3.590
10036TIP3    H230052   4.763   0.859   3.494
10037TIP3   OH230053   5.642   2.307   5.656
10037TIP3    H130054   5.643   2.213   5.640
10037TIP3    H230055   5.721   2.324   5.708
10038TIP3   OH230056   4.180   6.168   2.893
10038TIP3    H130057   4.210   6.078   2.898
10038TIP3    H230058   4.204   6.197   2.805
10039TIP3   OH230059   6.289   1.627   2.491
10039TIP3    H130060   6.310   1.628   2.585
10039TIP3    H230061   6.216   1.688   2.482
10040TIP3   OH230062   4.856   1.237   6.009
10040TIP3    H130063   4.948   1.226   5.987
10040TIP3    H230064   4.817   1.276   5.931
10041TIP3   OH230065   3.741   6.625   4.549
10041TIP3    H130066   3.779   6.713   4.562
10041TIP3    H230067   3.811   6.566   4.577
10042TIP3   OH230068   1.974   4.772   0.147
10042TIP3    H130069   1.879   4.782   0.146
10042TIP3    H230070   1.990   4.702   0.210
10043TIP3   OH230071   0.232   6.477   4.137
10043TIP3    H130072   0.155   6.419   4.133
10043TIP3    H230073   0.307   6.418   4.136
10044TIP3   OH230074   4.504   1.570   4.440
10044TIP3    H130075   4.524   1.663   4.429
10044TIP3    H230076   4.465   1.544   4.357
10045TIP3   OH230077   1.124   3.260   0.319
10045TIP3    H130078   1.176   3.322   0.371
10045TIP3    H230079   1.185   3.189   0.298
10046TIP3   OH230080   8.081   5.781   3.860
10046TIP3    H130081   8.143   5.833   3.911
10046TIP3    H230082   8.000   5.832   3.861
10047TIP3   OH230083   4.959   7.516   1.885
10047TIP3    H130084   4.921   7.429   1.875
10047TIP3    H230085   4.897   7.565   1.939
10048TIP3   OH230086   1.723   4.416   6.101
10048TIP3    H130087   1.811   4.443   6.075
10048TIP3    H230088   1.729   4.321   6.111
10049TIP3   OH230089   5.507   0.611   0.880
10049TIP3    H130090   5.552   0.599   0.963
10049TIP3    H230091   5.529   0.532   0.829
10050TIP3   OH230092   2.353   6.424   4.959
10050TIP3    H130093   2.364   6.511   4.921
10050TIP3    H230094   2.324   6.370   4.886
10051TIP3   OH230095   8.201   1.796   5.392
10051TIP3    H130096   8.188   1.767   5.301
10051TIP3    H230097   8.293   1.823   5.395
10052TIP3   OH230098   3.684   6.895   2.047
10052TIP3    H130099   3.609   6.952   2.065
10052TIP3    H230100   3.723   6.878   2.132
10053TIP3   OH230101   8.279   5.276   5.053
10053TIP3    H130102   8.284   5.241   4.964
10053TIP3    H230103   8.370   5.273   5.084
10054TIP3   OH230104   5.673   2.361   4.671
10054TIP3    H130105   5.697   2.449   4.642
10054TIP3    H230106   5.578   2.365   4.681
10055TIP3   OH230107   6.713   3.887   5.666
10055TIP3    H130108   6.702   3.801   5.708
10055TIP3    H230109   6.646   3.942   5.707
10056TIP3   OH230110   5.326   7.298   6.339
10056TIP3    H130111   5.274   7.313   6.260
10056TIP3    H230112   5.417   7.300   6.309
10057TIP3   OH230113   2.875   6.438   1.402
10057TIP3    H130114   2.947   6.383   1.433
10057TIP3    H230115   2.903   6.468   1.316
10058TIP3   OH230116   2.116   1.418   1.435
10058TIP3    H130117   2.169   1.434   1.512
10058TIP3    H230118   2.151   1.337   1.398
10059TIP3   OH230119   8.075   4.360   0.518
10059TIP3    H130120   8.092   4.449   0.549
10059TIP3    H230121   8.160   4.330   0.485
10060TIP3   OH230122   6.455   7.277   3.632
10060TIP3    H130123   6.452   7.367   3.663
10060TIP3    H230124   6.452   7.284   3.537
10061TIP3   OH230125   5.854   4.918   1.860
10061TIP3    H130126   5.780   4.978   1.851
10061TIP3    H230127   5.901   4.926   1.777
10062TIP3   OH230128   4.524   4.762   3.489
10062TIP3    H130129   4.514   4.851   3.454
10062TIP3    H230130   4.492   4.767   3.579
10063TIP3   OH230131   3.418   5.127   2.479
10063TIP3    H130132   3.331   5.145   2.515
10063TIP3    H230133   3.435   5.200   2.420
10064TIP3   OH230134   3.906   0.881   4.935
10064TIP3    H130135   3.840   0.908   4.871
10064TIP3    H230136   3.980   0.853   4.883
10065TIP3   OH230137   1.269   7.131   1.701
10065TIP3    H130138   1.209   7.079   1.754
10065TIP3    H230139   1.213   7.173   1.635
10066TIP3   OH230140   3.583   6.354   4.496
10066TIP3    H130141   3.633   6.427   4.533
10066TIP3    H230142   3.518   6.395   4.440
10067TIP3   OH230143   0.814   4.943   4.127
10067TIP3    H130144   0.823   4.848   4.135
10067TIP3    H230145   0.814   4.959   4.033
10068TIP3   OH230146   1.687   2.651   0.219
10068TIP3    H130147   1.685   2.746   0.235
10068TIP3    H230148   1.599   2.621   0.244
10069TIP3   OH230149   0.671   7.523   1.850
10069TIP3    H130150   0.676   7.618   1.838
10069TIP3    H230151   0.751   7.500   1.897
10070TIP3   OH230152   1.515   3.697   6.604
10070TIP3    H130153   1.519   3.608   6.640
10070TIP3    H230154   1.438   3.697   6.547
10071TIP3   OH230155   2.506   5.361   2.032
10071TIP3    H130156   2.482   5.318   1.949
10071TIP3    H230157   2.433   5.341   2.091
10072TIP3   OH230158   0.801   5.827   2.947
10072TIP3    H130159   0.712   5.851   2.920
10072TIP3    H230160   0.815   5.740   2.910
10073TIP3   OH230161   2.564   4.245   5.037
10073TIP3    H130162   2.472   4.236   5.061
10073TIP3    H230163   2.610   4.189   5.100
10074TIP3   OH230164   2.999   5.666   6.382
10074TIP3    H130165   3.001   5.753   6.342
10074TIP3    H230166   3.081   5.625   6.355
10075TIP3   OH230167   2.195   1.126   4.205
10075TIP3    H130168   2.183   1.041   4.162
10075TIP3    H230169   2.108   1.166   4.204
10076TIP3   OH230170   8.296   3.435   3.016
10076TIP3    H130171   8.347   3.358   3.039
10076TIP3    H230172   8.222   3.436   3.077
10077TIP3   OH230173   5.730   0.476   4.026
10077TIP3    H130174   5.747   0.537   3.954
10077TIP3    H230175   5.635   0.481   4.040
10078TIP3   OH230176   8.075   3.798   2.702
10078TIP3    H130177   8.143   3.785   2.636
10078TIP3    H230178   8.111   3.757   2.781
10079TIP3   OH230179   2.202   7.015   4.787
10079TIP3    H130180   2.194   6.982   4.697
10079TIP3    H230181   2.291   7.049   4.792
10080TIP3   OH230182   2.087   6.304   5.485
10080TIP3    H130183   2.141   6.233   5.450
10080TIP3    H230184   2.150   6.368   5.518
10081TIP3   OH230185   4.492   2.525   0.785
10081TIP3    H130186   4.411   2.565   0.752
10081TIP3    H230187   4.503   2.446   0.733
10082TIP3   OH230188   5.523   0.676   1.934
10082TIP3    H130189   5.603   0.715   1.899
10082TIP3    H230190   5.545   0.584   1.946
10083TIP3   OH230191   2.100   2.721   5.159
10083TIP3    H130192   2.053   2.652   5.207
10083TIP3    H230193   2.127   2.680   5.078
10084TIP3   OH230194   6.914   3.132   1.383
10084TIP3    H130195   6.867   3.196   1.330
10084TIP3    H230196   6.996   3.117   1.336
10085TIP3   OH230197   3.639   6.052   1.584
10085TIP3    H130198   3.575   6.047   1.654
10085TIP3    H230199   3.659   5.961   1.563
10086TIP3   OH230200   1.580   0.381   5.758
10086TIP3    H130201   1.630   0.414   5.684
10086TIP3    H230202   1.645   0.344   5.818
10087TIP3   OH230203   5.952   4.478   1.143
10087TIP3    H130204   5.903   4.456   1.064
10087TIP3    H230205   5.886   4.509   1.205
10088TIP3   OH230206   3.995   1.809   6.050
10088TIP3    H130207   4.079   1.835   6.011
10088TIP3    H230208   3.936   1.799   5.975
10089TIP3   OH230209   6.094   7.461   0.787
10089TIP3    H130210   6.170   7.483   0.841
10089TIP3    H230211   6.032   7.532   0.802
10090TIP3   OH230212   7.303   0.186   2.373
10090TIP3    H130213   7.295   0.281   2.385
10090TIP3    H230214   7.310   0.174   2.278
10091TIP3   OH230215   3.997   5.833   2.134
10091TIP3    H130216   4.055   5.825   2.059
10091TIP3    H230217   3.925   5.773   2.116
10092TIP3   OH230218   5.399   4.289   3.015
10092TIP3    H130219   5.336   4.318   2.950
10092TIP3    H230220   5.483   4.320   2.982
10093TIP3   OH230221   0.583   6.008   6.419
10093TIP3    H130222   0.508   5.949   6.408
10093TIP3    H230223   0.602   6.005   6.512
10094TIP3   OH230224   7.808   0.468   6.557
10094TIP3    H130225   7.882   0.425   6.599
10094TIP3    H230226   7.743   0.477   6.627
10095TIP3   OH230227   4.469   7.107   0.070
10095TIP3    H130228   4.432   7.064   0.147
10095TIP3    H230229   4.563   7.094   0.078
10096TIP3   OH230230   4.203   1.485   4.453
10096TIP3    H130231   4.232   1.454   4.368
10096TIP3    H230232   4.283   1.518   4.495
10097TIP3   OH230233   0.493   0.519   4.077
10097TIP3    H130234   0.466   0.475   4.158
10097TIP3    H230235   0.424   0.499   4.014
10098TIP3   OH230236   3.113   7.796   2.214
10098TIP3    H130237   3.105   7.745   2.134
10098TIP3    H230238   3.091   7.734   2.284
10099TIP3   OH230239   3.071   2.468   0.756
10099TIP3    H130240   3.000   2.489   0.817
10099TIP3    H230241   3.114   2.391   0.794
10100TIP3   OH230242   6.544   0.422   3.626
10100TIP3    H130243   6.613   0.480   3.655
10100TIP3    H230244   6.545   0.428   3.531
10101TIP3   OH230245   5.693   6.423   1.397
10101TIP3    H130246   5.768   6.410   1.339
10101TIP3    H230247   5.627   6.466   1.341
10102TIP3   OH230248   5.637   3.687   0.521
10102TIP3    H130249   5.709   3.648   0.471
10102TIP3    H230250   5.661   3.779   0.530
10103TIP3   OH230251   7.480   1.703   4.492
10103TIP3    H130252   7.511   1.618   4.460
10103TIP3    H230253   7.393   1.685   4.528
10104TIP3   OH230254   0.177   4.941   0.151
10104TIP3    H130255   0.166   5.003   0.079
10104TIP3    H230256   0.260   4.897   0.133
10105TIP3   OH230257   1.242   0.466   5.262
10105TIP3    H130258   1.253   0.385   5.212
10105TIP3    H230259   1.153   0.495   5.241
10106TIP3   OH230260   3.707   2.043   5.723
10106TIP3    H130261   3.791   2.086   5.709
10106TIP3    H230262   3.645   2.091   5.669
10107TIP3   OH230263   2.546   4.202   6.637
10107TIP3    H130264   2.588   4.276   6.593
10107TIP3    H230265   2.558   4.128   6.578
10108TIP3   OH230266   8.024   4.005   3.733
10108TIP3    H130267   7.941   3.957   3.737
10108TIP3    H230268   8.009   4.073   3.667
10109TIP3   OH230269   5.598   5.041   3.573
10109TIP3    H130270   5.660   4.992   3.519
10109TIP3    H230271   5.546   5.092   3.511
10110TIP3   OH230272   1.843   7.431   0.456
10110TIP3    H130273   1.917   7.492   0.449
10110TIP3    H230274   1.880   7.354   0.499
10111TIP3   OH230275   6.122   7.634   3.663
10111TIP3    H130276   6.033   7.601   3.674
10111TIP3    H230277   6.176   7.576   3.716
10112TIP3   OH230278   0.600   3.817   3.161
10112TIP3    H130279   0.690   3.851   3.169
10112TIP3    H230280   0.602   3.764   3.081
10113TIP3   OH230281   5.902   5.539   1.886
10113TIP3    H130282   5.807   5.526   1.887
10113TIP3    H230283   5.938   5.451   1.879
10114TIP3   OH230284   0.590   6.518   1.014
10114TIP3    H130285   0.669   6.486   1.057
10114TIP3    H230286   0.599   6.613   1.013
10115TIP3   OH230287   3.745   0.107   1.214
10115TIP3    H130288   3.777   0.176   1.156
10115TIP3    H230289   3.746   0.028   1.161
10116TIP3   OH230290   2.040   2.193   1.768
10116TIP3    H130291   1.979   2.160   1.833
10116TIP3    H230292   2.117   2.137   1.776
10117TIP3   OH230293   0.196   0.259   2.473
10117TIP3    H130294   0.187   0.318   2.547
10117TIP3    H230295   0.150   0.302   2.402
10118TIP3   OH230296   7.104   1.459   0.572
10118TIP3    H130297   7.177   1.510   0.536
10118TIP3    H230298   7.147   1.388   0.620
10119TIP3   OH230299   1.387   1.847   5.591
10119TIP3    H130300   1.319   1.907   5.562
10119TIP3    H230301   1.448   1.840   5.518
10120TIP3   OH230302   4.302   5.381   3.834
10120TIP3    H130303   4.286   5.474   3.815
10120TIP3    H230304   4.248   5.334   3.771
10121TIP3   OH230305   0.325   6.452   4.678
10121TIP3    H130306   0.336   6.390   4.605
10121TIP3    H230307   0.231   6.462   4.687
10122TIP3   OH230308   3.072   2.918   2.348
10122TIP3    H130309   3.118   2.891   2.269
10122TIP3    H230310   3.139   2.914   2.417
10123TIP3   OH230311   6.267   5.993   1.720
10123TIP3    H130312   6.200   5.940   1.677
10123TIP3    H230313   6.258   5.974   1.813
10124TIP3   OH230314   8.014   1.171   3.994
10124TIP3    H130315   8.079   1.101   3.997
10124TIP3    H230316   8.042   1.227   3.922
10125TIP3   OH230317   0.896   0.762   6.269
10125TIP3    H130318   0.957   0.731   6.202
10125TIP3    H230319   0.945   0.829   6.317
10126TIP3   OH230320   5.459   6.992   4.006
10126TIP3    H130321   5.400   7.055   4.047
10126TIP3    H230322   5.431   6.907   4.041
10127TIP3   OH230323   0.835   7.751   2.281
10127TIP3    H130324   0.788   7.670   2.259
10127TIP3    H230325   0.917   7.745   2.232
10128TIP3   OH230326   1.454   0.149   2.186
10128TIP3    H130327   1.384   0.157   2.251
10128TIP3    H230328   1.421   0.197   2.110
10129TIP3   OH230329   0.517   7.008   5.689
10129TIP3    H130330   0.608   7.001   5.716
10129TIP3    H230331   0.498   6.924   5.646
10130TIP3   OH230332   0.425   2.768   3.087
10130TIP3    H130333   0.432   2.706   3.014
10130TIP3    H230334   0.515   2.795   3.103
10131TIP3   OH230335   4.927   0.592   4.640
10131TIP3    H130336   4.866   0.663   4.625
10131TIP3    H230337   5.013   0.628   4.619
10132TIP3   OH230338   7.782   2.662   5.898
10132TIP3    H130339   7.749   2.574   5.883
10132TIP3    H230340   7.825   2.657   5.983
10133TIP3   OH230341   0.459   2.071   3.824
10133TIP3    H130342   0.508   2.101   3.900
10133TIP3    H230343   0.377   2.121   3.828
10134TIP3   OH230344   2.141   6.769   0.183
10134TIP3    H130345   2.207   6.833   0.155
10134TIP3    H230346   2.057   6.808   0.158
10135TIP3   OH230347   8.037   4.987   5.283
10135TIP3    H130348   8.092   5.015   5.356
10135TIP3    H230349   8.001   5.068   5.248
10136TIP3   OH230350   2.356   3.193   6.544
10136TIP3    H130351   2.447   3.162   6.545
10136TIP3    H230352   2.304   3.113   6.536
10137TIP3   OH230353   1.166   3.636   2.741
10137TIP3    H130354   1.128   3.704   2.796
10137TIP3    H230355   1.187   3.565   2.802
10138TIP3   OH230356   2.734   5.089   3.905
10138TIP3    H130357   2.715   5.070   3.813
10138TIP3    H230358   2.829   5.099   3.908
10139TIP3   OH230359   2.328   3.446   5.049
10139TIP3    H130360   2.316   3.444   5.144
10139TIP3    H230361   2.345   3.355   5.025
10140TIP3   OH230362   7.192   2.512   4.605
10140TIP3    H130363   7.125   2.445   4.591
10140TIP3    H230364   7.229   2.526   4.518
10141TIP3   OH230365   5.178   5.631   3.491
10141TIP3    H130366   5.098   5.608   3.444
10141TIP3    H230367   5.148   5.650   3.580
10142TIP3   OH230368   4.852   1.912   0.587
10142TIP3    H130369   4.808   1.947   0.509
10142TIP3    H230370   4.945   1.932   0.572
10143TIP3   OH230371   5.113   7.659   2.833
10143TIP3    H130372   5.102   7.739   2.885
10143TIP3    H230373   5.074   7.679   2.749
10144TIP3   OH230374   7.258   1.892   3.816
10144TIP3    H130375   7.187   1.952   3.794
10144TIP3    H230376   7.217   1.826   3.871
10145TIP3   OH230377   4.369   0.738   4.949
10145TIP3    H130378   4.449   0.730   5.002
10145TIP3    H230379   4.304   0.774   5.009
10146TIP3   OH230380   0.273   5.976   0.639
10146TIP3    H130381   0.353   5.951   0.593
10146TIP3    H230382   0.207   5.915   0.608
10147TIP3   OH230383   4.445   3.729   3.616
10147TIP3    H130384   4.450   3.770   3.702
10147TIP3    H230385   4.417   3.639   3.633
10148TIP3   OH230386   1.161   3.898   2.148
10148TIP3    H130387   1.099   3.829   2.171
10148TIP3    H230388   1.230   3.892   2.215
10149TIP3   OH230389   0.698   5.370   6.301
10149TIP3    H130390   0.691   5.280   6.331
10149TIP3    H230391   0.791   5.391   6.308
10150TIP3   OH230392   6.190   2.620   0.468
10150TIP3    H130393   6.195   2.622   0.372
10150TIP3    H230394   6.179   2.712   0.493
10151TIP3   OH230395   0.888   3.264   6.656
10151TIP3    H130396   0.828   3.220   6.716
10151TIP3    H230397   0.838   3.338   6.622
10152TIP3   OH230398   4.661   4.373   3.251
10152TIP3    H130399   4.628   4.447   3.200
10152TIP3    H230400   4.659   4.405   3.342
10153TIP3   OH230401   1.816   0.289   6.105
10153TIP3    H130402   1.858   0.331   6.030
10153TIP3    H230403   1.742   0.346   6.127
10154TIP3   OH230404   3.154   1.560   5.562
10154TIP3    H130405   3.102   1.578   5.640
10154TIP3    H230406   3.093   1.518   5.501
10155TIP3   OH230407   7.219   5.677   1.705
10155TIP3    H130408   7.144   5.650   1.758
10155TIP3    H230409   7.288   5.694   1.768
10156TIP3   OH230410   6.394   5.577   3.527
10156TIP3    H130411   6.442   5.658   3.512
10156TIP3    H230412   6.337   5.596   3.602
10157TIP3   OH230413   4.198   6.946   3.101
10157TIP3    H130414   4.224   7.023   3.051
10157TIP3    H230415   4.166   6.981   3.184
10158TIP3   OH230416   7.953   7.584   1.952
10158TIP3    H130417   7.941   7.539   1.868
10158TIP3    H230418   7.951   7.677   1.929
10159TIP3   OH230419   4.073   5.961   2.365
10159TIP3    H130420   4.039   5.915   2.288
10159TIP3    H230421   3.996   6.000   2.406
10160TIP3   OH230422   4.360   6.681   5.443
10160TIP3    H130423   4.323   6.706   5.529
10160TIP3    H230424   4.307   6.729   5.380
10161TIP3   OH230425   1.912   7.130   4.232
10161TIP3    H130426   1.930   7.093   4.319
10161TIP3    H230427   1.900   7.224   4.249
10162TIP3   OH230428   0.396   0.133   5.385
10162TIP3    H130429   0.387   0.227   5.366
10162TIP3    H230430   0.370   0.089   5.305
10163TIP3   OH230431   0.038   0.522   0.547
10163TIP3    H130432  -0.053   0.513   0.576
10163TIP3    H230433   0.086   0.545   0.627
10164TIP3   OH230434   3.497   7.698   2.405
10164TIP3    H130435   3.479   7.618   2.356
10164TIP3    H230436   3.416   7.715   2.454
10165TIP3   OH230437   6.421   2.380   1.071
10165TIP3    H130438   6.431   2.417   1.159
10165TIP3    H230439   6.380   2.295   1.086
10166TIP3   OH230440   3.113   3.423   2.621
10166TIP3    H130441   3.030   3.421   2.572
10166TIP3    H230442   3.176   3.382   2.562
10167TIP3   OH230443   2.068   4.553   3.425
10167TIP3    H130444   2.078   4.488   3.355
10167TIP3    H230445   2.148   4.544   3.477
10168TIP3   OH230446   1.699   1.385   6.686
10168TIP3    H130447   1.773   1.417   6.634
10168TIP3    H230448   1.728   1.397   6.777
10169TIP3   OH230449   5.003   4.077   6.554
10169TIP3    H130450   5.058   4.134   6.501
10169TIP3    H230451   4.940   4.039   6.493
10170TIP3   OH230452   3.573   1.877   3.352
10170TIP3    H130453   3.660   1.915   3.341
10170TIP3    H230454   3.588   1.794   3.398
10171TIP3   OH230455   3.818   1.777   1.726
10171TIP3    H130456   3.841   1.788   1.634
10171TIP3    H230457   3.738   1.828   1.738
10172TIP3   OH230458  -0.007   5.899   5.793
10172TIP3    H130459  -0.071   5.947   5.740
10172TIP3    H230460   0.074   5.906   5.744
10173TIP3   OH230461   3.239   7.503   1.031
10173TIP3    H130462   3.178   7.434   1.006
10173TIP3    H230463   3.194   7.552   1.099
10174TIP3   OH230464   5.971   7.029   3.258
10174TIP3    H130465   5.890   7.051   3.303
10174TIP3    H230466   5.989   6.938   3.283
10175TIP3   OH230467   3.927   5.406   5.602
10175TIP3    H130468   3.916   5.482   5.660
10175TIP3    H230469   3.966   5.442   5.522
10176TIP3   OH230470   1.628   1.600   6.221
10176TIP3    H130471   1.544   1.629   6.258
10176TIP3    H230472   1.624   1.626   6.129
10177TIP3   OH230473   3.328   1.205   4.368
10177TIP3    H130474   3.277   1.278   4.334
10177TIP3    H230475   3.266   1.132   4.372
10178TIP3   OH230476   2.880   0.840   5.622
10178TIP3    H130477   2.878   0.892   5.703
10178TIP3    H230478   2.952   0.878   5.571
10179TIP3   OH230479   5.168   7.003   4.265
10179TIP3    H130480   5.111   6.928   4.249
10179TIP3    H230481   5.108   7.075   4.284
10180TIP3   OH230482   6.610   7.105   3.895
10180TIP3    H130483   6.625   7.046   3.821
10180TIP3    H230484   6.693   7.103   3.944
10181TIP3   OH230485   0.185   1.126   1.283
10181TIP3    H130486   0.244   1.053   1.264
10181TIP3    H230487   0.120   1.089   1.343
10182TIP3   OH230488   5.713   5.322   0.963
10182TIP3    H130489   5.775   5.276   0.907
10182TIP3    H230490   5.768   5.381   1.016
10183TIP3   OH230491   5.955   7.021   0.319
10183TIP3    H130492   5.917   7.108   0.311
10183TIP3    H230493   5.990   7.001   0.233
10184TIP3   OH230494   0.042   6.967   1.875
10184TIP3    H130495   0.103   6.895   1.891
10184TIP3    H230496   0.063   7.032   1.943
10185TIP3   OH230497   4.442   0.924   4.737
10185TIP3    H130498   4.402   0.860   4.796
10185TIP3    H230499   4.378   0.996   4.734
10186TIP3   OH230500   7.907   5.329   1.511
10186TIP3    H130501   7.853   5.389   1.460
10186TIP3    H230502   7.881   5.345   1.602
10187TIP3   OH230503   0.255   5.894   4.488
10187TIP3    H130504   0.330   5.862   4.538
10187TIP3    H230505   0.185   5.902   4.553
10188TIP3   OH230506   0.517   4.671   0.335
10188TIP3    H130507   0.463   4.712   0.267
10188TIP3    H230508   0.607   4.686   0.307
10189TIP3   OH230509   0.531   4.010   2.560
10189TIP3    H130510   0.443   3.973   2.545
10189TIP3    H230511   0.552   3.984   2.650
10190TIP3   OH230512   1.917   4.122   2.750
10190TIP3    H130513   1.925   4.198   2.808
10190TIP3    H230514   1.901   4.160   2.664
10191TIP3   OH230515   7.801   1.056   6.248
10191TIP3    H130516   7.839   1.073   6.162
10191TIP3    H230517   7.863   0.997   6.290
10192TIP3   OH230518   3.590   6.977   4.218
10192TIP3    H130519   3.580   6.937   4.304
10192TIP3    H230520   3.500   6.987   4.186
10193TIP3   OH230521   8.227   2.630   0.649
10193TIP3    H130522   8.168   2.627   0.574
10193TIP3    H230523   8.200   2.707   0.699
10194TIP3   OH230524   5.059   1.720   3.067
10194TIP3    H130525   5.119   1.682   3.131
10194TIP3    H230526   5.009   1.645   3.034
10195TIP3   OH230527   7.157   4.858   3.911
10195TIP3    H130528   7.245   4.821   3.912
10195TIP3    H230529   7.115   4.823   3.990
10196TIP3   OH230530   0.611   6.495   0.661
10196TIP3    H130531   0.704   6.502   0.681
10196TIP3    H230532   0.583   6.415   0.705
10197TIP3   OH230533   3.357   1.468   0.100
10197TIP3    H130534   3.280   1.512   0.136
10197TIP3    H230535   3.374   1.397   0.162
10198TIP3   OH230536   1.769   1.361   2.154
10198TIP3    H130537   1.696   1.311   2.191
10198TIP3    H230538   1.828   1.375   2.228
10199TIP3   OH230539   2.335   3.887   6.409
10199TIP3    H130540   2.344   3.918   6.499
10199TIP3    H230541   2.305   3.796   6.417
10200TIP3   OH230542   6.442   0.786   1.599
10200TIP3    H130543   6.530   0.819   1.581
10200TIP3    H230544   6.412   0.748   1.516
10201TIP3   OH230545   4.980   2.710   0.545
10201TIP3    H130546   4.935   2.684   0.465
10201TIP3    H230547   4.928   2.671   0.615
10202TIP3   OH230548   2.545   4.774   1.415
10202TIP3    H130549   2.489   4.836   1.367
10202TIP3    H230550   2.484   4.725   1.470
10203TIP3   OH230551   1.215   4.592   3.813
10203TIP3    H130552   1.232   4.520   3.873
10203TIP3    H230553   1.301   4.618   3.781
10204TIP3   OH230554   7.192   2.741   4.747
10204TIP3    H130555   7.177   2.656   4.704
10204TIP3    H230556   7.128   2.800   4.706
10205TIP3   OH230557   5.948   7.632   3.895
10205TIP3    H130558   6.027   7.579   3.905
10205TIP3    H230559   5.981   7.722   3.890
10206TIP3   OH230560   4.025   3.668   5.926
10206TIP3    H130561   4.020   3.757   5.960
10206TIP3    H230562   3.984   3.614   5.993
10207TIP3   OH230563   2.428   3.666   5.284
10207TIP3    H130564   2.436   3.652   5.379
10207TIP3    H230565   2.352   3.614   5.259
10208TIP3   OH230566   2.667   7.374   6.106
10208TIP3    H130567   2.595   7.393   6.166
10208TIP3    H230568   2.700   7.289   6.135
10209TIP3   OH230569   0.300   7.448   0.976
10209TIP3    H130570   0.355   7.506   1.029
10209TIP3    H230571   0.211   7.463   1.009
10210TIP3   OH230572   7.663   3.356   2.581
10210TIP3    H130573   7.701   3.401   2.507
10210TIP3    H230574   7.619   3.279   2.543
10211TIP3   OH230575   2.172   1.207   1.834
10211TIP3    H130576   2.086   1.175   1.809
10211TIP3    H230577   2.177   1.194   1.929
10212TIP3   OH230578   1.564   1.981   2.937
10212TIP3    H130579   1.546   2.057   2.992
10212TIP3    H230580   1.601   1.916   2.996
10213TIP3   OH230581   6.532   7.659   3.377
10213TIP3    H130582   6.575   7.575   3.394
10213TIP3    H230583   6.469   7.640   3.308
10214TIP3   OH230584   4.275   2.711   2.428
10214TIP3    H130585   4.201   2.652   2.444
10214TIP3    H230586   4.301   2.692   2.337
10215TIP3   OH230587   5.735   2.793   5.372
10215TIP3    H130588   5.663   2.815   5.432
10215TIP3    H230589   5.777   2.876   5.353
10216TIP3   OH230590   0.703   2.235   0.690
10216TIP3    H130591   0.759   2.264   0.762
10216TIP3    H230592   0.637   2.180   0.732
10217TIP3   OH230593   1.264   5.750   6.352
10217TIP3    H130594   1.277   5.745   6.257
10217TIP3    H230595   1.169   5.751   6.363
10218TIP3   OH230596   6.355   2.643   3.441
10218TIP3    H130597   6.357   2.550   3.420
10218TIP3    H230598   6.433   2.658   3.494
10219TIP3   OH230599   4.160   0.050   3.211
10219TIP3    H130600   4.151   0.003   3.128
10219TIP3    H230601   4.080   0.102   3.219
10220TIP3   OH230602   0.076   0.857   6.322
10220TIP3    H130603  -0.002   0.840   6.375
10220TIP3    H230604   0.090   0.951   6.330
10221TIP3   OH230605   0.890   0.458   4.925
10221TIP3    H130606   0.947   0.527   4.959
10221TIP3    H230607   0.951   0.388   4.900
10222TIP3   OH230608   1.372   2.182   5.534
10222TIP3    H130609   1.333   2.259   5.493
10222TIP3    H230610   1.297   2.125   5.552
10223TIP3   OH230611   1.294   6.301   5.240
10223TIP3    H130612   1.336   6.344   5.315
10223TIP3    H230613   1.306   6.363   5.167
10224TIP3   OH230614   7.698   6.738   5.383
10224TIP3    H130615   7.710   6.751   5.477
10224TIP3    H230616   7.738   6.654   5.365
10225TIP3   OH230617   4.789   3.539   5.906
10225TIP3    H130618   4.799   3.590   5.986
10225TIP3    H230619   4.786   3.603   5.835
10226TIP3   OH230620   3.217   7.164   5.113
10226TIP3    H130621   3.124   7.162   5.136
10226TIP3    H230622   3.254   7.233   5.168
10227TIP3   OH230623   7.452   6.247   0.628
10227TIP3    H130624   7.467   6.228   0.535
10227TIP3    H230625   7.539   6.266   0.663
10228TIP3   OH230626   1.832   0.646   5.852
10228TIP3    H130627   1.743   0.649   5.885
10228TIP3    H230628   1.859   0.555   5.865
10229TIP3   OH230629   6.344   2.152   5.557
10229TIP3    H130630   6.270   2.122   5.505
10229TIP3    H230631   6.325   2.122   5.646
10230TIP3   OH230632   3.807   0.934   4.538
10230TIP3    H130633   3.901   0.943   4.528
10230TIP3    H230634   3.782   0.868   4.473
10231TIP3   OH230635   0.217   5.555   4.999
10231TIP3    H130636   0.227   5.529   5.091
10231TIP3    H230637   0.304   5.543   4.961
10232TIP3   OH230638   3.673   0.184   3.460
10232TIP3    H130639   3.639   0.194   3.370
10232TIP3    H230640   3.768   0.194   3.451
10233TIP3   OH230641   8.099  -0.004   1.030
10233TIP3    H130642   8.141   0.078   1.007
10233TIP3    H230643   8.128  -0.022   1.120
10234TIP3   OH230644   2.455   0.336   5.157
10234TIP3    H130645   2.447   0.390   5.236
10234TIP3    H230646   2.509   0.261   5.184
10235TIP3   OH230647   3.564   5.447   2.685
10235TIP3    H130648   3.596   5.479   2.601
10235TIP3    H230649   3.619   5.492   2.750
10236TIP3   OH230650   0.779   2.958   0.512
10236TIP3    H130651   0.784   3.024   0.580
10236TIP3    H230652   0.702   2.982   0.461
10237TIP3   OH230653   3.656   3.878   2.937
10237TIP3    H130654   3.689   3.945   2.997
10237TIP3    H230655   3.734   3.830   2.909
10238TIP3   OH230656   4.016   0.480   1.314
10238TIP3    H130657   3.943   0.476   1.377
10238TIP3    H230658   4.059   0.395   1.321
10239TIP3   OH230659   1.912   6.429   3.934
10239TIP3    H130660   1.878   6.500   3.989
10239TIP3    H230661   1.959   6.474   3.864
10240TIP3   OH230662   7.362   6.194   5.525
10240TIP3    H130663   7.352   6.152   5.439
10240TIP3    H230664   7.387   6.284   5.506
10241TIP3   OH230665   4.259   3.968   3.506
10241TIP3    H130666   4.281   3.976   3.413
10241TIP3    H230667   4.337   3.928   3.545
10242TIP3   OH230668   7.632   4.816   3.153
10242TIP3    H130669   7.669   4.900   3.124
10242TIP3    H230670   7.708   4.764   3.177
10243TIP3   OH230671   4.196   0.287   0.737
10243TIP3    H130672   4.145   0.260   0.661
10243TIP3    H230673   4.283   0.305   0.703
10244TIP3   OH230674   1.615   6.179   5.361
10244TIP3    H130675   1.674   6.204   5.432
10244TIP3    H230676   1.581   6.262   5.327
10245TIP3   OH230677   4.213   4.384   1.288
10245TIP3    H130678   4.143   4.425   1.339
10245TIP3    H230679   4.175   4.371   1.201
10246TIP3   OH230680   3.511   6.800   2.645
10246TIP3    H130681   3.437   6.739   2.651
10246TIP3    H230682   3.492   6.853   2.568
10247TIP3   OH230683   3.848   1.909   4.997
10247TIP3    H130684   3.896   1.990   5.016
10247TIP3    H230685   3.848   1.904   4.902
10248TIP3   OH230686   3.525   6.015   2.484
10248TIP3    H130687   3.499   6.082   2.547
10248TIP3    H230688   3.507   5.932   2.528
10249TIP3   OH230689   4.505   0.638   3.357
10249TIP3    H130690   4.527   0.649   3.449
10249TIP3    H230691   4.569   0.575   3.324
10250TIP3   OH230692   5.721   1.246   1.110
10250TIP3    H130693   5.815   1.266   1.107
10250TIP3    H230694   5.716   1.163   1.158
10251TIP3   OH230695   3.269   5.353   4.687
10251TIP3    H130696   3.238   5.443   4.700
10251TIP3    H230697   3.348   5.347   4.741
10252TIP3   OH230698   4.265   0.365   2.328
10252TIP3    H130699   4.192   0.303   2.332
10252TIP3    H230700   4.327   0.334   2.394
10253TIP3   OH230701   3.183   5.883   0.416
10253TIP3    H130702   3.216   5.810   0.364
10253TIP3    H230703   3.262   5.933   0.439
10254TIP3   OH230704   6.237   6.922   6.780
10254TIP3    H130705   6.239   6.969   6.697
10254TIP3    H230706   6.188   6.979   6.839
10255TIP3   OH230707   5.758   5.920   2.446
10255TIP3    H130708   5.727   5.930   2.356
10255TIP3    H230709   5.785   5.828   2.452
10256TIP3   OH230710   5.700   0.797   0.765
10256TIP3    H130711   5.624   0.771   0.817
10256TIP3    H230712   5.711   0.890   0.784
10257TIP3   OH230713   4.512   0.033   1.846
10257TIP3    H130714   4.498   0.054   1.939
10257TIP3    H230715   4.574  -0.039   1.846
10258TIP3   OH230716   0.875   6.242   6.123
10258TIP3    H130717   0.869   6.151   6.093
10258TIP3    H230718   0.945   6.241   6.189
10259TIP3   OH230719   7.885   6.261   3.620
10259TIP3    H130720   7.825   6.189   3.597
10259TIP3    H230721   7.893   6.311   3.539
10260TIP3   OH230722   1.880   3.565   4.150
10260TIP3    H130723   1.823   3.491   4.129
10260TIP3    H230724   1.821   3.640   4.154
10261TIP3   OH230725   3.070   7.451   5.909
10261TIP3    H130726   3.165   7.457   5.904
10261TIP3    H230727   3.038   7.534   5.873
10262TIP3   OH230728   6.952   7.162   2.076
10262TIP3    H130729   6.868   7.209   2.080
10262TIP3    H230730   6.928   7.070   2.073
10263TIP3   OH230731   2.679   1.051   0.337
10263TIP3    H130732   2.655   1.066   0.246
10263TIP3    H230733   2.628   1.115   0.386
10264TIP3   OH230734   0.677   2.355   1.209
10264TIP3    H130735   0.583   2.364   1.189
10264TIP3    H230736   0.711   2.298   1.140
10265TIP3   OH230737   1.879   1.962   2.438
10265TIP3    H130738   1.973   1.958   2.427
10265TIP3    H230739   1.845   1.884   2.393
10266TIP3   OH230740   2.696   1.862   6.521
10266TIP3    H130741   2.736   1.902   6.598
10266TIP3    H230742   2.614   1.824   6.554
10267TIP3   OH230743   2.613   2.368   0.631
10267TIP3    H130744   2.633   2.460   0.647
10267TIP3    H230745   2.671   2.320   0.690
10268TIP3   OH230746   6.193   0.224   3.866
10268TIP3    H130747   6.274   0.174   3.865
10268TIP3    H230748   6.176   0.241   3.958
10269TIP3   OH230749   7.608  -0.010   3.007
10269TIP3    H130750   7.581   0.070   3.054
10269TIP3    H230751   7.685  -0.041   3.056
10270TIP3   OH230752   4.941   5.967   4.397
10270TIP3    H130753   4.880   6.040   4.409
10270TIP3    H230754   4.930   5.913   4.475
10271TIP3   OH230755   7.842   6.805   2.910
10271TIP3    H130756   7.760   6.765   2.881
10271TIP3    H230757   7.906   6.734   2.910
10272TIP3   OH230758   3.383   7.633   3.559
10272TIP3    H130759   3.355   7.591   3.478
10272TIP3    H230760   3.302   7.646   3.609
10273TIP3   OH230761   4.343   4.958   1.743
10273TIP3    H130762   4.373   5.048   1.752
10273TIP3    H230763   4.374   4.930   1.657
10274TIP3   OH230764   1.367   4.551   5.586
10274TIP3    H130765   1.415   4.540   5.668
10274TIP3    H230766   1.358   4.646   5.577
10275TIP3   OH230767   0.501   6.173   5.693
10275TIP3    H130768   0.511   6.249   5.750
10275TIP3    H230769   0.562   6.108   5.728
10276TIP3   OH230770   0.772   4.504   5.702
10276TIP3    H130771   0.728   4.561   5.639
10276TIP3    H230772   0.750   4.415   5.674
10277TIP3   OH230773   3.261   4.380   4.233
10277TIP3    H130774   3.309   4.378   4.150
10277TIP3    H230775   3.207   4.301   4.231
10278TIP3   OH230776   0.186   5.801   2.908
10278TIP3    H130777   0.192   5.896   2.899
10278TIP3    H230778   0.092   5.783   2.906
10279TIP3   OH230779   1.745   6.981   1.248
10279TIP3    H130780   1.650   6.969   1.248
10279TIP3    H230781   1.765   7.017   1.335
10280TIP3   OH230782   7.567   5.680   0.712
10280TIP3    H130783   7.474   5.660   0.713
10280TIP3    H230784   7.578   5.744   0.642
10281TIP3   OH230785   1.427   1.357   4.888
10281TIP3    H130786   1.364   1.429   4.889
10281TIP3    H230787   1.450   1.346   4.796
10282TIP3   OH230788   2.622   1.802   5.080
10282TIP3    H130789   2.654   1.743   5.013
10282TIP3    H230790   2.701   1.838   5.121
10283TIP3   OH230791   6.468   3.025   3.070
10283TIP3    H130792   6.517   3.107   3.073
10283TIP3    H230793   6.377   3.050   3.086
10284TIP3   OH230794   7.148   2.884   6.024
10284TIP3    H130795   7.164   2.868   6.117
10284TIP3    H230796   7.069   2.938   6.022
10285TIP3   OH230797   5.194   5.619   1.585
10285TIP3    H130798   5.260   5.585   1.645
10285TIP3    H230799   5.221   5.586   1.499
10286TIP3   OH230800   8.226   2.807   6.397
10286TIP3    H130801   8.174   2.887   6.395
10286TIP3    H230802   8.289   2.817   6.326
10287TIP3   OH230803   3.306   0.968   1.666
10287TIP3    H130804   3.228   0.930   1.707
10287TIP3    H230805   3.379   0.940   1.721
10288TIP3   OH230806   7.677   5.829   5.753
10288TIP3    H130807   7.620   5.898   5.788
10288TIP3    H230808   7.633   5.798   5.674
10289TIP3   OH230809   6.919   5.036   6.613
10289TIP3    H130810   6.891   5.119   6.575
10289TIP3    H230811   6.945   4.982   6.538
10290TIP3   OH230812   6.454   6.725   1.371
10290TIP3    H130813   6.399   6.740   1.448
10290TIP3    H230814   6.542   6.714   1.406
10291TIP3   OH230815   3.052   4.780   1.516
10291TIP3    H130816   3.081   4.756   1.428
10291TIP3    H230817   3.062   4.875   1.520
10292TIP3   OH230818   7.694   1.093   4.205
10292TIP3    H130819   7.681   1.160   4.272
10292TIP3    H230820   7.666   1.135   4.124
10293TIP3   OH230821   5.471   4.908   5.533
10293TIP3    H130822   5.405   4.839   5.530
10293TIP3    H230823   5.500   4.909   5.624
10294TIP3   OH230824   0.453   6.545   3.238
10294TIP3    H130825   0.387   6.549   3.307
10294TIP3    H230826   0.535   6.531   3.283
10295TIP3   OH230827   5.646   3.032   1.874
10295TIP3    H130828   5.691   3.008   1.794
10295TIP3    H230829   5.582   2.962   1.888
10296TIP3   OH230830   3.439   5.787   5.934
10296TIP3    H130831   3.480   5.814   6.016
10296TIP3    H230832   3.493   5.714   5.902
10297TIP3   OH230833   1.312   1.296   2.022
10297TIP3    H130834   1.279   1.207   2.009
10297TIP3    H230835   1.401   1.294   1.987
10298TIP3   OH230836   1.490   5.405   2.930
10298TIP3    H130837   1.425   5.349   2.888
10298TIP3    H230838   1.460   5.414   3.020
10299TIP3   OH230839   0.397   1.588   1.916
10299TIP3    H130840   0.370   1.629   1.833
10299TIP3    H230841   0.374   1.652   1.983
10300TIP3   OH230842   3.549   2.462   4.931
10300TIP3    H130843   3.459   2.473   4.902
10300TIP3    H230844   3.601   2.501   4.860
10301TIP3   OH230845   6.239   2.181   1.147
10301TIP3    H130846   6.269   2.097   1.114
10301TIP3    H230847   6.192   2.160   1.228
10302TIP3   OH230848   5.917   3.765   3.759
10302TIP3    H130849   5.960   3.682   3.778
10302TIP3    H230850   5.965   3.830   3.812
10303TIP3   OH230851   0.845   1.935   6.540
10303TIP3    H130852   0.850   1.851   6.495
10303TIP3    H230853   0.870   1.916   6.630
10304TIP3   OH230854   0.609   5.069   3.181
10304TIP3    H130855   0.585   5.041   3.269
10304TIP3    H230856   0.527   5.097   3.140
10305TIP3   OH230857   0.131   4.170   0.103
10305TIP3    H130858   0.107   4.093   0.050
10305TIP3    H230859   0.119   4.244   0.044
10306TIP3   OH230860   1.822   7.571   3.296
10306TIP3    H130861   1.769   7.586   3.374
10306TIP3    H230862   1.905   7.537   3.330
10307TIP3   OH230863   7.269   1.893   0.593
10307TIP3    H130864   7.279   1.882   0.499
10307TIP3    H230865   7.354   1.925   0.623
10308TIP3   OH230866   5.305   7.182   0.573
10308TIP3    H130867   5.350   7.254   0.529
10308TIP3    H230868   5.372   7.114   0.585
10309TIP3   OH230869   1.732   3.737   6.174
10309TIP3    H130870   1.729   3.730   6.269
10309TIP3    H230871   1.812   3.691   6.149
10310TIP3   OH230872   7.811   5.239   5.676
10310TIP3    H130873   7.738   5.252   5.615
10310TIP3    H230874   7.774   5.185   5.746
10311TIP3   OH230875   6.762   0.836   2.311
10311TIP3    H130876   6.750   0.747   2.280
10311TIP3    H230877   6.779   0.828   2.405
10312TIP3   OH230878   6.372   5.024   5.562
10312TIP3    H130879   6.362   5.048   5.654
10312TIP3    H230880   6.450   4.969   5.559
10313TIP3   OH230881   6.273   3.926   3.872
10313TIP3    H130882   6.345   3.887   3.824
10313TIP3    H230883   6.248   4.003   3.821
10314TIP3   OH230884   3.026   1.366   2.043
10314TIP3    H130885   3.010   1.351   1.950
10314TIP3    H230886   3.119   1.387   2.048
10315TIP3   OH230887   2.034   3.260   5.229
10315TIP3    H130888   1.948   3.218   5.238
10315TIP3    H230889   2.058   3.245   5.138
10316TIP3   OH230890   2.014   0.790   2.888
10316TIP3    H130891   1.942   0.850   2.907
10316TIP3    H230892   2.002   0.768   2.796
10317TIP3   OH230893   2.585   3.864   4.151
10317TIP3    H130894   2.522   3.926   4.114
10317TIP3    H230895   2.620   3.908   4.228
10318TIP3   OH230896   3.806   7.842   2.193
10318TIP3    H130897   3.747   7.807   2.126
10318TIP3    H230898   3.818   7.769   2.254
10319TIP3   OH230899   3.364   2.845   0.902
10319TIP3    H130900   3.328   2.796   0.827
10319TIP3    H230901   3.291   2.852   0.963
10320TIP3   OH230902   8.186   0.800   3.758
10320TIP3    H130903   8.215   0.727   3.813
10320TIP3    H230904   8.266   0.837   3.722
10321TIP3   OH230905   1.223   7.566   3.225
10321TIP3    H130906   1.243   7.606   3.141
10321TIP3    H230907   1.151   7.617   3.261
10322TIP3   OH230908   3.989   4.935   6.614
10322TIP3    H130909   4.021   4.861   6.563
10322TIP3    H230910   3.964   5.001   6.549
10323TIP3   OH230911   2.924   4.456   1.835
10323TIP3    H130912   3.007   4.410   1.819
10323TIP3    H230913   2.949   4.534   1.884
10324TIP3   OH230914   8.129   1.053   4.476
10324TIP3    H130915   8.092   1.082   4.393
10324TIP3    H230916   8.141   1.133   4.526
10325TIP3   OH230917   3.063   1.237   4.082
10325TIP3    H130918   3.081   1.200   4.168
10325TIP3    H230919   2.994   1.181   4.046
10326TIP3   OH230920   4.175   1.596   1.134
10326TIP3    H130921   4.189   1.633   1.047
10326TIP3    H230922   4.179   1.501   1.121
10327TIP3   OH230923   6.620   4.582   5.684
10327TIP3    H130924   6.700   4.543   5.649
10327TIP3    H230925   6.614   4.549   5.774
10328TIP3   OH230926   2.997   0.469   3.262
10328TIP3    H130927   3.007   0.501   3.172
10328TIP3    H230928   2.906   0.485   3.284
10329TIP3   OH230929   6.994   7.602   5.831
10329TIP3    H130930   7.080   7.617   5.872
10329TIP3    H230931   6.940   7.569   5.903
10330TIP3   OH230932   0.204   3.264   5.896
10330TIP3    H130933   0.142   3.297   5.831
10330TIP3    H230934   0.256   3.341   5.920
10331TIP3   OH230935   2.338   2.790   0.593
10331TIP3    H130936   2.285   2.719   0.628
10331TIP3    H230937   2.391   2.749   0.525
10332TIP3   OH230938   1.708   0.182   2.319
10332TIP3    H130939   1.635   0.182   2.257
10332TIP3    H230940   1.713   0.273   2.349
10333TIP3   OH230941   1.388   5.066   0.188
10333TIP3    H130942   1.341   4.984   0.207
10333TIP3    H230943   1.422   5.094   0.273
10334TIP3   OH230944   4.602   5.963   4.512
10334TIP3    H130945   4.537   6.032   4.507
10334TIP3    H230946   4.640   5.971   4.599
10335TIP3   OH230947   1.385   5.229   1.678
10335TIP3    H130948   1.470   5.191   1.700
10335TIP3    H230949   1.330   5.213   1.755
10336TIP3   OH230950   1.485   2.579   4.367
10336TIP3    H130951   1.507   2.671   4.378
10336TIP3    H230952   1.509   2.558   4.277
10337TIP3   OH230953   3.143   2.264   2.241
10337TIP3    H130954   3.185   2.337   2.195
10337TIP3    H230955   3.132   2.295   2.331
10338TIP3   OH230956   8.072   6.707   5.382
10338TIP3    H130957   8.110   6.763   5.449
10338TIP3    H230958   7.988   6.679   5.419
10339TIP3   OH230959   3.778   2.155   1.047
10339TIP3    H130960   3.753   2.236   1.001
10339TIP3    H230961   3.844   2.183   1.110
10340TIP3   OH230962   5.318   4.027   6.699
10340TIP3    H130963   5.345   4.112   6.734
10340TIP3    H230964   5.226   4.039   6.675
10341TIP3   OH230965   5.406   3.857   4.832
10341TIP3    H130966   5.386   3.787   4.771
10341TIP3    H230967   5.414   3.935   4.777
10342TIP3   OH230968   3.439   1.924   4.472
10342TIP3    H130969   3.506   1.859   4.453
10342TIP3    H230970   3.360   1.890   4.429
10343TIP3   OH230971   3.844   4.149   3.572
10343TIP3    H130972   3.893   4.067   3.583
10343TIP3    H230973   3.904   4.217   3.601
10344TIP3   OH230974   0.106   2.730   0.159
10344TIP3    H130975   0.071   2.641   0.163
10344TIP3    H230976   0.029   2.787   0.163
10345TIP3   OH230977   2.953   0.814   4.257
10345TIP3    H130978   2.935   0.761   4.335
10345TIP3    H230979   2.876   0.802   4.201
10346TIP3   OH230980   3.181   5.004   4.719
10346TIP3    H130981   3.124   4.970   4.787
10346TIP3    H230982   3.139   4.980   4.637
10347TIP3   OH230983   6.747   0.633   3.082
10347TIP3    H130984   6.734   0.542   3.109
10347TIP3    H230985   6.752   0.628   2.987
10348TIP3   OH230986   6.122   4.773   1.523
10348TIP3    H130987   6.111   4.685   1.487
10348TIP3    H230988   6.163   4.822   1.452
10349TIP3   OH230989   4.795   7.052   6.659
10349TIP3    H130990   4.848   7.014   6.589
10349TIP3    H230991   4.826   7.009   6.739
10350TIP3   OH230992   5.864   7.842   6.097
10350TIP3    H130993   5.861   7.772   6.031
10350TIP3    H230994   5.810   7.810   6.169
10351TIP3   OH230995   8.124   3.639   2.907
10351TIP3    H130996   8.047   3.584   2.921
10351TIP3    H230997   8.197   3.578   2.904
10352TIP3   OH230998   0.774   2.729   4.442
10352TIP3    H130999   0.770   2.776   4.525
10352TIP3    H231000   0.816   2.646   4.463
10353TIP3   OH231001   3.986   2.988   2.137
10353TIP3    H131002   4.046   3.041   2.190
10353TIP3    H231003   3.949   3.049   2.074
10354TIP3   OH231004   5.085   2.427   0.641
10354TIP3    H131005   5.097   2.395   0.551
10354TIP3    H231006   5.022   2.366   0.680
10355TIP3   OH231007   5.495   1.654   5.016
10355TIP3    H131008   5.471   1.593   4.946
10355TIP3    H231009   5.467   1.740   4.984
10356TIP3   OH231010   1.945   4.956   4.160
10356TIP3    H131011   1.895   4.875   4.153
10356TIP3    H231012   2.031   4.935   4.123
10357TIP3   OH231013   3.441   0.960   6.106
10357TIP3    H131014   3.381   0.982   6.177
10357TIP3    H231015   3.412   1.013   6.033
10358TIP3   OH231016   4.870   5.386   2.111
10358TIP3    H131017   4.806   5.331   2.066
10358TIP3    H231018   4.818   5.443   2.167
10359TIP3   OH231019   7.222   4.635   2.570
10359TIP3    H131020   7.126   4.636   2.561
10359TIP3    H231021   7.239   4.568   2.636
10360TIP3   OH231022   0.683   6.938   1.219
10360TIP3    H131023   0.595   6.950   1.255
10360TIP3    H231024   0.698   7.017   1.166
10361TIP3   OH231025   0.599   1.018   3.427
10361TIP3    H131026   0.688   0.990   3.447
10361TIP3    H231027   0.567   1.058   3.509
10362TIP3   OH231028   8.094   6.940   5.885
10362TIP3    H131029   8.051   6.862   5.920
10362TIP3    H231030   8.036   7.012   5.909
10363TIP3   OH231031   1.979   5.119   6.380
10363TIP3    H131032   1.982   5.024   6.366
10363TIP3    H231033   1.925   5.130   6.458
10364TIP3   OH231034   0.638   7.748   6.341
10364TIP3    H131035   0.690   7.716   6.415
10364TIP3    H231036   0.696   7.809   6.296
10365TIP3   OH231037   6.981   5.689   1.846
10365TIP3    H131038   6.890   5.675   1.819
10365TIP3    H231039   6.995   5.783   1.835
10366TIP3   OH231040   1.125   1.209   3.814
10366TIP3    H131041   1.041   1.188   3.774
10366TIP3    H231042   1.114   1.298   3.849
10367TIP3   OH231043   3.422   3.705   4.577
10367TIP3    H131044   3.448   3.797   4.573
10367TIP3    H231045   3.327   3.706   4.565
10368TIP3   OH231046   5.296   4.493   4.222
10368TIP3    H131047   5.350   4.416   4.206
10368TIP3    H231048   5.215   4.475   4.173
10369TIP3   OH231049   3.329   5.610   2.942
10369TIP3    H131050   3.238   5.583   2.949
10369TIP3    H231051   3.379   5.530   2.959
10370TIP3   OH231052   2.127   4.885   5.984
10370TIP3    H131053   2.065   4.947   6.023
10370TIP3    H231054   2.168   4.842   6.060
10371TIP3   OH231055   4.613   5.912   5.132
10371TIP3    H131056   4.680   5.909   5.064
10371TIP3    H231057   4.545   5.853   5.101
10372TIP3   OH231058   1.733   6.583   2.629
10372TIP3    H131059   1.745   6.488   2.641
10372TIP3    H231060   1.819   6.620   2.646
10373TIP3   OH231061   0.587   1.484   2.066
10373TIP3    H131062   0.597   1.403   2.016
10373TIP3    H231063   0.527   1.537   2.014
10374TIP3   OH231064   7.537   2.753   6.707
10374TIP3    H131065   7.446   2.783   6.713
10374TIP3    H231066   7.542   2.681   6.770
10375TIP3   OH231067   5.925   6.821   5.227
10375TIP3    H131068   5.915   6.732   5.193
10375TIP3    H231069   5.870   6.823   5.305
10376TIP3   OH231070   6.524   2.700   4.072
10376TIP3    H131071   6.485   2.687   3.985
10376TIP3    H231072   6.580   2.623   4.084
10377TIP3   OH231073   5.390   7.064   6.491
10377TIP3    H131074   5.377   7.158   6.478
10377TIP3    H231075   5.485   7.055   6.499
10378TIP3   OH231076   8.093   3.340   4.692
10378TIP3    H131077   8.081   3.301   4.779
10378TIP3    H231078   8.019   3.308   4.641
10379TIP3   OH231079   4.437   5.714   5.804
10379TIP3    H131080   4.477   5.757   5.729
10379TIP3    H231081   4.358   5.765   5.822
10380TIP3   OH231082   4.089   3.727   2.395
10380TIP3    H131083   4.149   3.715   2.469
10380TIP3    H231084   4.108   3.816   2.363
10381TIP3   OH231085   6.019   7.071   1.714
10381TIP3    H131086   5.963   7.122   1.771
10381TIP3    H231087   5.995   6.980   1.731
10382TIP3   OH231088   0.840   5.950   0.567
10382TIP3    H131089   0.927   5.928   0.601
10382TIP3    H231090   0.852   5.962   0.473
10383TIP3   OH231091   4.215   5.737   3.409
10383TIP3    H131092   4.260   5.683   3.344
10383TIP3    H231093   4.154   5.676   3.452
10384TIP3   OH231094   3.330   1.403   0.482
10384TIP3    H131095   3.249   1.378   0.526
10384TIP3    H231096   3.358   1.483   0.528
10385TIP3   OH231097   7.774   0.078   4.080
10385TIP3    H131098   7.693   0.097   4.033
10385TIP3    H231099   7.783   0.150   4.142
10386TIP3   OH231100   1.968   0.599   1.716
10386TIP3    H131101   1.947   0.555   1.799
10386TIP3    H231102   2.037   0.545   1.677
10387TIP3   OH231103   0.959   0.108   3.073
10387TIP3    H131104   1.043   0.077   3.107
10387TIP3    H231105   0.953   0.071   2.985
10388TIP3   OH231106   5.645   7.242   2.940
10388TIP3    H131107   5.596   7.219   3.019
10388TIP3    H231108   5.666   7.158   2.900
10389TIP3   OH231109   0.885   1.842   5.491
10389TIP3    H131110   0.823   1.769   5.494
10389TIP3    H231111   0.862   1.891   5.412
10390TIP3   OH231112   2.005   6.715   6.045
10390TIP3    H131113   1.927   6.712   5.990
10390TIP3    H231114   2.072   6.756   5.990
10391TIP3   OH231115   0.699   6.826   3.539
10391TIP3    H131116   0.726   6.786   3.456
10391TIP3    H231117   0.745   6.776   3.606
10392TIP3   OH231118   6.870   4.725   1.208
10392TIP3    H131119   6.880   4.693   1.298
10392TIP3    H231120   6.925   4.803   1.204
10393TIP3   OH231121   7.292   6.441   3.251
10393TIP3    H131122   7.296   6.353   3.214
10393TIP3    H231123   7.264   6.496   3.178
10394TIP3   OH231124   2.388   4.011   4.431
10394TIP3    H131125   2.375   4.100   4.466
10394TIP3    H231126   2.328   4.006   4.357
10395TIP3   OH231127   4.122   3.718   3.437
10395TIP3    H131128   4.050   3.779   3.418
10395TIP3    H231129   4.190   3.773   3.477
10396TIP3   OH231130   6.103   4.025   6.044
10396TIP3    H131131   6.149   4.063   6.118
10396TIP3    H231132   6.115   4.089   5.973
10397TIP3   OH231133   3.578   0.424   3.003
10397TIP3    H131134   3.531   0.359   2.951
10397TIP3    H231135   3.535   0.507   2.984
10398TIP3   OH231136   0.768   2.663   2.753
10398TIP3    H131137   0.836   2.725   2.727
10398TIP3    H231138   0.727   2.636   2.670
10399TIP3   OH231139   3.654   2.172   5.365
10399TIP3    H131140   3.635   2.227   5.441
10399TIP3    H231141   3.749   2.180   5.352
10400TIP3   OH231142   1.729   3.208   0.323
10400TIP3    H131143   1.664   3.182   0.258
10400TIP3    H231144   1.762   3.292   0.293
10401TIP3   OH231145   3.501   2.252   3.563
10401TIP3    H131146   3.540   2.295   3.487
10401TIP3    H231147   3.571   2.247   3.628
10402TIP3   OH231148   1.460   2.638   3.634
10402TIP3    H131149   1.368   2.663   3.632
10402TIP3    H231150   1.500   2.685   3.561
10403TIP3   OH231151   3.802   0.213   4.093
10403TIP3    H131152   3.776   0.291   4.045
10403TIP3    H231153   3.739   0.146   4.068
10404TIP3   OH231154   1.979   7.694   1.384
10404TIP3    H131155   2.029   7.635   1.327
10404TIP3    H231156   2.027   7.777   1.381
10405TIP3   OH231157   4.103   5.017   2.689
10405TIP3    H131158   4.011   4.992   2.697
10405TIP3    H231159   4.107   5.106   2.725
10406TIP3   OH231160   7.720   2.204   1.443
10406TIP3    H131161   7.712   2.244   1.530
10406TIP3    H231162   7.674   2.120   1.451
10407TIP3   OH231163   1.871   0.700   5.591
10407TIP3    H131164   1.883   0.692   5.686
10407TIP3    H231165   1.790   0.652   5.573
10408TIP3   OH231166   3.451   5.505   1.398
10408TIP3    H131167   3.547   5.505   1.396
10408TIP3    H231168   3.428   5.597   1.408
10409TIP3   OH231169   4.953   7.396   5.442
10409TIP3    H131170   5.013   7.329   5.474
10409TIP3    H231171   4.907   7.354   5.369
10410TIP3   OH231172   4.977   6.566   2.850
10410TIP3    H131173   5.019   6.582   2.934
10410TIP3    H231174   5.036   6.603   2.785
10411TIP3   OH231175   1.994   2.197   0.251
10411TIP3    H131176   1.998   2.106   0.222
10411TIP3    H231177   2.065   2.205   0.315
10412TIP3   OH231178   1.939   7.504   4.502
10412TIP3    H131179   1.913   7.593   4.478
10412TIP3    H231180   1.913   7.496   4.594
10413TIP3   OH231181   5.465   3.082   5.141
10413TIP3    H131182   5.453   3.088   5.046
10413TIP3    H231183   5.445   3.170   5.174
10414TIP3   OH231184   6.702   4.965   4.219
10414TIP3    H131185   6.761   5.017   4.274
10414TIP3    H231186   6.741   4.878   4.217
10415TIP3   OH231187   5.035   0.358   6.612
10415TIP3    H131188   5.027   0.417   6.537
10415TIP3    H231189   5.002   0.408   6.686
10416TIP3   OH231190   2.169   3.043   2.359
10416TIP3    H131191   2.221   3.124   2.366
10416TIP3    H231192   2.079   3.074   2.348
10417TIP3   OH231193   3.278   5.277   0.941
10417TIP3    H131194   3.288   5.338   1.015
10417TIP3    H231195   3.206   5.219   0.968
10418TIP3   OH231196   5.427   3.889   0.792
10418TIP3    H131197   5.485   3.869   0.719
10418TIP3    H231198   5.466   3.966   0.833
10419TIP3   OH231199   5.416   1.252   1.895
10419TIP3    H131200   5.418   1.258   1.990
10419TIP3    H231201   5.374   1.333   1.866
10420TIP3   OH231202   6.253   3.092   2.510
10420TIP3    H131203   6.224   3.177   2.476
10420TIP3    H231204   6.313   3.113   2.581
10421TIP3   OH231205   7.231   7.555   0.827
10421TIP3    H131206   7.229   7.460   0.816
10421TIP3    H231207   7.139   7.579   0.843
10422TIP3   OH231208   5.435   0.094   2.512
10422TIP3    H131209   5.471   0.076   2.599
10422TIP3    H231210   5.358   0.148   2.529
10423TIP3   OH231211   5.850   3.149   5.000
10423TIP3    H131212   5.796   3.082   4.960
10423TIP3    H231213   5.901   3.103   5.066
10424TIP3   OH231214   1.677   4.779   0.212
10424TIP3    H131215   1.654   4.847   0.276
10424TIP3    H231216   1.744   4.726   0.256
10425TIP3   OH231217   4.778   7.122   5.624
10425TIP3    H131218   4.789   7.098   5.532
10425TIP3    H231219   4.740   7.210   5.621
10426TIP3   OH231220   1.503   4.290   1.067
10426TIP3    H131221   1.550   4.223   1.116
10426TIP3    H231222   1.472   4.244   0.988
10427TIP3   OH231223   7.472   2.462   4.711
10427TIP3    H131224   7.391   2.477   4.663
10427TIP3    H231225   7.504   2.550   4.732
10428TIP3   OH231226   7.418   0.285   2.784
10428TIP3    H131227   7.340   0.330   2.816
10428TIP3    H231228   7.478   0.284   2.858
10429TIP3   OH231229   7.817   0.292   1.670
10429TIP3    H131230   7.790   0.372   1.715
10429TIP3    H231231   7.760   0.288   1.593
10430TIP3   OH231232   2.072   6.070   1.999
10430TIP3    H131233   2.076   6.160   2.030
10430TIP3    H231234   2.025   6.075   1.916
10431TIP3   OH231235   2.348   5.817   3.117
10431TIP3    H131236   2.264   5.771   3.111
10431TIP3    H231237   2.412   5.751   3.090
10432TIP3   OH231238   4.982   1.449   2.969
10432TIP3    H131239   5.044   1.432   2.898
10432TIP3    H231240   4.908   1.391   2.951
10433TIP3   OH231241   4.598   6.695   6.538
10433TIP3    H131242   4.627   6.691   6.629
10433TIP3    H231243   4.503   6.710   6.545
10434TIP3   OH231244   5.562   2.393   2.776
10434TIP3    H131245   5.585   2.341   2.699
10434TIP3    H231246   5.582   2.483   2.750
10435TIP3   OH231247   0.161   1.868   5.724
10435TIP3    H131248   0.067   1.876   5.704
10435TIP3    H231249   0.184   1.780   5.692
10436TIP3   OH231250   6.187   7.039   5.562
10436TIP3    H131251   6.101   7.058   5.599
10436TIP3    H231252   6.188   7.086   5.478
10437TIP3   OH231253   1.110   2.099   3.619
10437TIP3    H131254   1.044   2.059   3.563
10437TIP3    H231255   1.189   2.102   3.565
10438TIP3   OH231256   6.138   4.284   3.309
10438TIP3    H131257   6.106   4.208   3.358
10438TIP3    H231258   6.233   4.279   3.317
10439TIP3   OH231259   0.554   6.393   5.049
10439TIP3    H131260   0.540   6.446   4.971
10439TIP3    H231261   0.607   6.319   5.020
10440TIP3   OH231262   6.452   2.670  -0.038
10440TIP3    H131263   6.478   2.638   0.048
10440TIP3    H231264   6.514   2.740  -0.058
10441TIP3   OH231265   0.308   3.905   6.505
10441TIP3    H131266   0.394   3.865   6.518
10441TIP3    H231267   0.321   3.968   6.434
10442TIP3   OH231268   0.491   3.552   4.816
10442TIP3    H131269   0.543   3.534   4.894
10442TIP3    H231270   0.551   3.533   4.743
10443TIP3   OH231271   8.144   2.608   3.376
10443TIP3    H131272   8.217   2.581   3.321
10443TIP3    H231273   8.131   2.535   3.437
10444TIP3   OH231274   0.616   4.178   6.032
10444TIP3    H131275   0.578   4.160   5.946
10444TIP3    H231276   0.566   4.252   6.066
10445TIP3   OH231277   3.374   3.993   3.236
10445TIP3    H131278   3.293   4.043   3.248
10445TIP3    H231279   3.365   3.919   3.296
10446TIP3   OH231280   1.161   6.543   3.293
10446TIP3    H131281   1.124   6.631   3.292
10446TIP3    H231282   1.242   6.550   3.244
10447TIP3   OH231283   6.175   2.389   1.433
10447TIP3    H131284   6.212   2.303   1.456
10447TIP3    H231285   6.250   2.439   1.403
10448TIP3   OH231286   0.155   7.692   0.945
10448TIP3    H131287   0.154   7.670   1.038
10448TIP3    H231288   0.240   7.734   0.931
10449TIP3   OH231289   6.612   4.500   4.159
10449TIP3    H131290   6.536   4.475   4.212
10449TIP3    H231291   6.581   4.494   4.068
10450TIP3   OH231292   0.095   0.240   6.281
10450TIP3    H131293   0.016   0.292   6.299
10450TIP3    H231294   0.074   0.153   6.316
10451TIP3   OH231295   0.336   1.060   0.857
10451TIP3    H131296   0.420   1.016   0.842
10451TIP3    H231297   0.360   1.150   0.881
10452TIP3   OH231298   2.036   6.987   6.317
10452TIP3    H131299   2.060   6.901   6.353
10452TIP3    H231300   2.010   7.038   6.394
10453TIP3   OH231301   5.571   0.744   3.161
10453TIP3    H131302   5.479   0.718   3.164
10453TIP3    H231303   5.612   0.693   3.231
10454TIP3   OH231304   0.550   2.828   0.065
10454TIP3    H131305   0.518   2.739   0.049
10454TIP3    H231306   0.644   2.823   0.048
10455TIP3   OH231307   4.186   6.442   1.109
10455TIP3    H131308   4.239   6.444   1.189
10455TIP3    H231309   4.127   6.516   1.118
10456TIP3   OH231310   3.475   4.758   4.629
10456TIP3    H131311   3.566   4.730   4.614
10456TIP3    H231312   3.447   4.790   4.543
10457TIP3   OH231313   2.951   3.269   5.720
10457TIP3    H131314   2.984   3.339   5.777
10457TIP3    H231315   2.865   3.302   5.690
10458TIP3   OH231316   2.470   2.727   3.733
10458TIP3    H131317   2.438   2.637   3.731
10458TIP3    H231318   2.478   2.748   3.826
10459TIP3   OH231319   3.639   7.053   4.870
10459TIP3    H131320   3.645   7.060   4.774
10459TIP3    H231321   3.689   7.127   4.903
10460TIP3   OH231322   8.145   1.387   2.275
10460TIP3    H131323   8.240   1.386   2.264
10460TIP3    H231324   8.131   1.428   2.361
10461TIP3   OH231325   4.417   4.833   2.121
10461TIP3    H131326   4.466   4.772   2.177
10461TIP3    H231327   4.414   4.789   2.035
10462TIP3   OH231328   4.858   7.641   4.751
10462TIP3    H131329   4.952   7.658   4.752
10462TIP3    H231330   4.827   7.670   4.836
10463TIP3   OH231331   0.373   0.380   5.266
10463TIP3    H131332   0.334   0.467   5.280
10463TIP3    H231333   0.347   0.356   5.177
10464TIP3   OH231334   4.088   3.991   1.476
10464TIP3    H131335   4.045   4.013   1.558
10464TIP3    H231336   4.177   4.027   1.485
10465TIP3   OH231337   0.736   3.263   2.478
10465TIP3    H131338   0.777   3.288   2.395
10465TIP3    H231339   0.771   3.325   2.542
10466TIP3   OH231340   3.879   4.583   2.617
10466TIP3    H131341   3.910   4.644   2.550
10466TIP3    H231342   3.893   4.496   2.580
10467TIP3   OH231343   3.184   5.460   5.847
10467TIP3    H131344   3.173   5.538   5.793
10467TIP3    H231345   3.168   5.491   5.936
10468TIP3   OH231346   5.244   2.299   2.394
10468TIP3    H131347   5.157   2.299   2.433
10468TIP3    H231348   5.248   2.380   2.343
10469TIP3   OH231349   2.640   1.562   1.149
10469TIP3    H131350   2.717   1.613   1.125
10469TIP3    H231351   2.567   1.625   1.145
10470TIP3   OH231352   4.217   4.117   1.079
10470TIP3    H131353   4.261   4.191   1.037
10470TIP3    H231354   4.260   4.109   1.164
10471TIP3   OH231355   4.723   3.793   0.855
10471TIP3    H131356   4.757   3.717   0.902
10471TIP3    H231357   4.726   3.767   0.763
10472TIP3   OH231358   1.548   4.713   2.155
10472TIP3    H131359   1.501   4.793   2.180
10472TIP3    H231360   1.634   4.722   2.195
10473TIP3   OH231361   0.320   3.319   4.720
10473TIP3    H131362   0.317   3.338   4.627
10473TIP3    H231363   0.275   3.392   4.762
10474TIP3   OH231364   6.980   4.954   5.622
10474TIP3    H131365   7.053   4.991   5.573
10474TIP3    H231366   6.966   5.016   5.694
10475TIP3   OH231367   4.642   1.237   1.588
10475TIP3    H131368   4.661   1.269   1.499
10475TIP3    H231369   4.614   1.147   1.574
10476TIP3   OH231370   7.288   3.464   0.132
10476TIP3    H131371   7.212   3.520   0.119
10476TIP3    H231372   7.359   3.510   0.088
10477TIP3   OH231373   4.174   2.331   1.243
10477TIP3    H131374   4.164   2.284   1.160
10477TIP3    H231375   4.268   2.334   1.258
10478TIP3   OH231376   7.177   1.333   3.644
10478TIP3    H131377   7.178   1.345   3.549
10478TIP3    H231378   7.210   1.416   3.679
10479TIP3   OH231379   6.819   1.631   6.753
10479TIP3    H131380   6.758   1.564   6.723
10479TIP3    H231381   6.867   1.657   6.674
10480TIP3   OH231382   3.584   5.319   4.022
10480TIP3    H131383   3.659   5.324   4.082
10480TIP3    H231384   3.508   5.333   4.077
10481TIP3   OH231385   0.390   5.663   3.083
10481TIP3    H131386   0.396   5.647   2.989
10481TIP3    H231387   0.296   5.667   3.101
10482TIP3   OH231388   7.231   4.242   0.660
10482TIP3    H131389   7.300   4.251   0.726
10482TIP3    H231390   7.279   4.227   0.578
10483TIP3   OH231391   7.973   5.830   6.625
10483TIP3    H131392   8.026   5.752   6.639
10483TIP3    H231393   7.985   5.851   6.532
10484TIP3   OH231394   1.753   2.354   0.400
10484TIP3    H131395   1.662   2.332   0.418
10484TIP3    H231396   1.769   2.321   0.312
10485TIP3   OH231397   0.300   7.829   0.255
10485TIP3    H131398   0.330   7.799   0.341
10485TIP3    H231399   0.205   7.833   0.262
10486TIP3   OH231400   5.748   1.654   0.899
10486TIP3    H131401   5.796   1.588   0.848
10486TIP3    H231402   5.677   1.682   0.841
10487TIP3   OH231403   0.742   3.789   0.202
10487TIP3    H131404   0.650   3.814   0.212
10487TIP3    H231405   0.747   3.750   0.115
10488TIP3   OH231406   4.498   5.398   5.011
10488TIP3    H131407   4.423   5.338   5.002
10488TIP3    H231408   4.561   5.368   4.946
10489TIP3   OH231409   8.086   0.792   4.214
10489TIP3    H131410   8.021   0.859   4.234
10489TIP3    H231411   8.143   0.790   4.291
10490TIP3   OH231412   4.522   3.402   2.423
10490TIP3    H131413   4.561   3.406   2.336
10490TIP3    H231414   4.538   3.488   2.460
10491TIP3   OH231415   1.716   6.515   5.500
10491TIP3    H131416   1.759   6.585   5.548
10491TIP3    H231417   1.774   6.497   5.426
10492TIP3   OH231418   2.170   1.975   2.384
10492TIP3    H131419   2.143   1.956   2.294
10492TIP3    H231420   2.219   2.057   2.377
10493TIP3   OH231421   2.113   5.879   0.752
10493TIP3    H131422   2.108   5.872   0.656
10493TIP3    H231423   2.025   5.908   0.778
10494TIP3   OH231424   2.298   0.731   1.815
10494TIP3    H131425   2.325   0.639   1.823
10494TIP3    H231426   2.268   0.739   1.724
10495TIP3   OH231427   7.595   6.327   5.105
10495TIP3    H131428   7.614   6.332   5.198
10495TIP3    H231429   7.678   6.351   5.062
10496TIP3   OH231430   3.482   6.722   5.295
10496TIP3    H131431   3.497   6.628   5.304
10496TIP3    H231432   3.522   6.745   5.211
10497TIP3   OH231433   4.400   1.761   0.172
10497TIP3    H131434   4.352   1.721   0.099
10497TIP3    H231435   4.360   1.722   0.250
10498TIP3   OH231436   5.237   6.142   4.892
10498TIP3    H131437   5.179   6.069   4.873
10498TIP3    H231438   5.302   6.106   4.952
10499TIP3   OH231439   3.231   6.104   0.619
10499TIP3    H131440   3.302   6.051   0.654
10499TIP3    H231441   3.157   6.088   0.677
10500TIP3   OH231442   7.803   5.533   2.374
10500TIP3    H131443   7.817   5.439   2.369
10500TIP3    H231444   7.835   5.558   2.461
10501TIP3   OH231445   4.430   2.332   2.232
10501TIP3    H131446   4.400   2.423   2.236
10501TIP3    H231447   4.488   2.323   2.308
10502TIP3   OH231448   0.170   1.138   6.280
10502TIP3    H131449   0.214   1.208   6.233
10502TIP3    H231450   0.162   1.170   6.370
10503TIP3   OH231451   4.977   5.723   5.242
10503TIP3    H131452   5.001   5.771   5.321
10503TIP3    H231453   5.001   5.632   5.261
10504TIP3   OH231454   2.011   0.872   4.444
10504TIP3    H131455   1.958   0.896   4.368
10504TIP3    H231456   1.977   0.925   4.516
10505TIP3   OH231457   6.931   7.688   2.736
10505TIP3    H131458   6.889   7.674   2.821
10505TIP3    H231459   6.960   7.601   2.708
10506TIP3   OH231460   8.210   5.133   4.389
10506TIP3    H131461   8.130   5.106   4.345
10506TIP3    H231462   8.259   5.051   4.402
10507TIP3   OH231463   4.064   0.569   3.140
10507TIP3    H131464   4.122   0.572   3.217
10507TIP3    H231465   3.976   0.561   3.177
10508TIP3   OH231466   5.492   6.282   1.855
10508TIP3    H131467   5.582   6.276   1.824
10508TIP3    H231468   5.499   6.322   1.942
10509TIP3   OH231469   0.419   6.629   2.537
10509TIP3    H131470   0.374   6.585   2.465
10509TIP3    H231471   0.362   6.703   2.559
10510TIP3   OH231472   8.110   7.804   3.116
10510TIP3    H131473   8.055   7.871   3.159
10510TIP3    H231474   8.153   7.759   3.188
10511TIP3   OH231475   0.457   1.912   6.640
10511TIP3    H131476   0.411   1.995   6.626
10511TIP3    H231477   0.403   1.846   6.597
10512TIP3   OH231478   6.997   0.082   4.909
10512TIP3    H131479   6.964   0.162   4.867
10512TIP3    H231480   7.066   0.113   4.968
10513TIP3   OH231481   4.704   2.454   6.038
10513TIP3    H131482   4.618   2.475   6.001
10513TIP3    H231483   4.759   2.528   6.014
10514TIP3   OH231484   3.146   3.882   2.869
10514TIP3    H131485   3.199   3.855   2.794
10514TIP3    H231486   3.206   3.877   2.943
10515TIP3   OH231487   8.006   0.844   5.581
10515TIP3    H131488   8.004   0.754   5.550
10515TIP3    H231489   7.958   0.893   5.514
10516TIP3   OH231490   1.688   6.416   4.867
10516TIP3    H131491   1.713   6.365   4.944
10516TIP3    H231492   1.668   6.503   4.901
10517TIP3   OH231493   6.712   6.447   4.693
10517TIP3    H131494   6.728   6.540   4.705
10517TIP3    H231495   6.778   6.404   4.748
10518TIP3   OH231496   0.961   4.273   2.379
10518TIP3    H131497   0.880   4.278   2.328
10518TIP3    H231498   1.027   4.245   2.315
10519TIP3   OH231499   0.094   7.538   3.215
10519TIP3    H131500   0.028   7.581   3.269
10519TIP3    H231501   0.051   7.459   3.182
10520TIP3   OH231502   2.573   1.726   3.298
10520TIP3    H131503   2.523   1.681   3.229
10520TIP3    H231504   2.545   1.817   3.292
10521TIP3   OH231505   7.883   5.388   2.800
10521TIP3    H131506   7.924   5.304   2.777
10521TIP3    H231507   7.842   5.418   2.720
10522TIP3   OH231508   7.763   6.529   4.800
10522TIP3    H131509   7.803   6.522   4.714
10522TIP3    H231510   7.686   6.472   4.796
10523TIP3   OH231511   1.858   0.342   3.183
10523TIP3    H131512   1.831   0.427   3.149
10523TIP3    H231513   1.952   0.338   3.167
10524TIP3   OH231514   2.998   6.113   5.574
10524TIP3    H131515   2.963   6.127   5.486
10524TIP3    H231516   2.945   6.169   5.630
10525TIP3   OH231517   7.391   2.674   5.551
10525TIP3    H131518   7.361   2.583   5.558
10525TIP3    H231519   7.480   2.667   5.517
10526TIP3   OH231520   8.009   5.211   5.132
10526TIP3    H131521   8.091   5.260   5.124
10526TIP3    H231522   7.970   5.216   5.045
10527TIP3   OH231523   3.448   3.166   5.696
10527TIP3    H131524   3.506   3.180   5.770
10527TIP3    H231525   3.363   3.146   5.735
10528TIP3   OH231526   2.911   6.871   2.084
10528TIP3    H131527   2.928   6.792   2.135
10528TIP3    H231528   2.893   6.840   1.995
10529TIP3   OH231529   7.955   1.958   2.520
10529TIP3    H131530   7.904   2.018   2.574
10529TIP3    H231531   7.891   1.893   2.489
10530TIP3   OH231532   2.880   5.753   3.216
10530TIP3    H131533   2.841   5.670   3.242
10530TIP3    H231534   2.894   5.744   3.122
10531TIP3   OH231535   2.200   2.960   6.534
10531TIP3    H131536   2.213   2.892   6.600
10531TIP3    H231537   2.207   2.915   6.450
10532TIP3   OH231538   6.426   7.291   5.773
10532TIP3    H131539   6.436   7.201   5.743
10532TIP3    H231540   6.332   7.308   5.767
10533TIP3   OH231541   8.110   0.829   1.626
10533TIP3    H131542   8.183   0.804   1.569
10533TIP3    H231543   8.037   0.776   1.596
10534TIP3   OH231544   0.400   4.730   5.180
10534TIP3    H131545   0.417   4.820   5.154
10534TIP3    H231546   0.366   4.736   5.269
10535TIP3   OH231547   7.116   5.925   1.319
10535TIP3    H131548   7.169   5.970   1.252
10535TIP3    H231549   7.112   5.834   1.289
10536TIP3   OH231550   5.161   1.107   6.750
10536TIP3    H131551   5.212   1.113   6.670
10536TIP3    H231552   5.225   1.087   6.818
10537TIP3   OH231553   3.737   3.737   6.778
10537TIP3    H131554   3.711   3.662   6.831
10537TIP3    H231555   3.683   3.731   6.700
10538TIP3   OH231556   4.294   1.260   1.590
10538TIP3    H131557   4.362   1.210   1.546
10538TIP3    H231558   4.309   1.351   1.563
10539TIP3   OH231559   0.893   4.245   0.936
10539TIP3    H131560   0.962   4.183   0.959
10539TIP3    H231561   0.825   4.192   0.894
10540TIP3   OH231562   7.531   5.966   2.763
10540TIP3    H131563   7.505   5.888   2.712
10540TIP3    H231564   7.552   5.931   2.849
10541TIP3   OH231565   8.210   0.088   5.648
10541TIP3    H131566   8.274   0.147   5.688
10541TIP3    H231567   8.125   0.127   5.668
10542TIP3   OH231568   3.797   4.592   1.096
10542TIP3    H131569   3.753   4.632   1.021
10542TIP3    H231570   3.883   4.634   1.098
10543TIP3   OH231571   1.796   2.524   6.682
10543TIP3    H131572   1.856   2.573   6.739
10543TIP3    H231573   1.820   2.553   6.593
10544TIP3   OH231574   5.762   5.220   5.520
10544TIP3    H131575   5.854   5.237   5.499
10544TIP3    H231576   5.714   5.252   5.444
10545TIP3   OH231577   0.696   4.422   1.029
10545TIP3    H131578   0.636   4.380   0.968
10545TIP3    H231579   0.748   4.351   1.065
10546TIP3   OH231580   2.485   2.288   0.403
10546TIP3    H131581   2.506   2.332   0.486
10546TIP3    H231582   2.567   2.247   0.377
10547TIP3   OH231583   0.377   6.579   6.796
10547TIP3    H131584   0.388   6.510   6.862
10547TIP3    H231585   0.406   6.538   6.714
10548TIP3   OH231586   1.809   2.450   1.056
10548TIP3    H131587   1.835   2.529   1.104
10548TIP3    H231588   1.811   2.380   1.121
10549TIP3   OH231589   3.728   0.417   6.582
10549TIP3    H131590   3.779   0.347   6.623
10549TIP3    H231591   3.753   0.413   6.489
10550TIP3   OH231592   6.158   7.396   3.284
10550TIP3    H131593   6.091   7.380   3.350
10550TIP3    H231594   6.117   7.454   3.220
10551TIP3   OH231595   7.617   4.142   0.383
10551TIP3    H131596   7.663   4.091   0.316
10551TIP3    H231597   7.687   4.185   0.433
10552TIP3   OH231598   4.358   3.121   1.957
10552TIP3    H131599   4.292   3.188   1.940
10552TIP3    H231600   4.398   3.105   1.871
10553TIP3   OH231601   6.291   7.628   6.440
10553TIP3    H131602   6.213   7.653   6.389
10553TIP3    H231603   6.261   7.557   6.496
10554TIP3   OH231604   4.052   1.813   0.670
10554TIP3    H131605   3.964   1.833   0.641
10554TIP3    H231606   4.101   1.895   0.660
10555TIP3   OH231607   6.146   5.368   5.859
10555TIP3    H131608   6.112   5.355   5.948
10555TIP3    H231609   6.070   5.401   5.810
10556TIP3   OH231610   2.183   6.677   2.916
10556TIP3    H131611   2.154   6.629   2.993
10556TIP3    H231612   2.236   6.614   2.867
10557TIP3   OH231613   8.124   6.910   4.138
10557TIP3    H131614   8.048   6.968   4.141
10557TIP3    H231615   8.087   6.821   4.142
10558TIP3   OH231616   6.464   6.836   6.411
10558TIP3    H131617   6.459   6.875   6.324
10558TIP3    H231618   6.473   6.911   6.470
10559TIP3   OH231619   6.945   4.624   2.587
10559TIP3    H131620   6.874   4.611   2.523
10559TIP3    H231621   6.901   4.623   2.672
10560TIP3   OH231622   3.312   2.014   6.354
10560TIP3    H131623   3.232   1.962   6.344
10560TIP3    H231624   3.382   1.949   6.358
10561TIP3   OH231625   4.123   4.752   4.276
10561TIP3    H131626   4.178   4.702   4.216
10561TIP3    H231627   4.090   4.825   4.224
10562TIP3   OH231628   8.213   0.632   4.499
10562TIP3    H131629   8.284   0.596   4.553
10562TIP3    H231630   8.255   0.699   4.446
10563TIP3   OH231631   6.845   7.457   4.046
10563TIP3    H131632   6.776   7.501   3.996
10563TIP3    H231633   6.799   7.419   4.121
10564TIP3   OH231634   7.260   2.364   5.519
10564TIP3    H131635   7.212   2.338   5.440
10564TIP3    H231636   7.308   2.285   5.545
10565TIP3   OH231637   6.889   2.871   2.556
10565TIP3    H131638   6.924   2.938   2.497
10565TIP3    H231639   6.795   2.871   2.539
10566TIP3   OH231640   7.735   7.080   3.036
10566TIP3    H131641   7.754   7.025   2.960
10566TIP3    H231642   7.790   7.158   3.023
10567TIP3   OH231643   1.699   4.338   6.536
10567TIP3    H131644   1.719   4.419   6.488
10567TIP3    H231645   1.614   4.310   6.501
10568TIP3   OH231646   7.820   6.591   3.958
10568TIP3    H131647   7.801   6.541   4.038
10568TIP3    H231648   7.781   6.539   3.888
10569TIP3   OH231649   2.436   5.194   5.716
10569TIP3    H131650   2.513   5.201   5.659
10569TIP3    H231651   2.472   5.186   5.804
10570TIP3   OH231652   6.676   2.909   3.674
10570TIP3    H131653   6.690   3.003   3.663
10570TIP3    H231654   6.685   2.894   3.768
10571TIP3   OH231655   5.044   7.652   2.542
10571TIP3    H131656   5.140   7.655   2.536
10571TIP3    H231657   5.019   7.574   2.492
10572TIP3   OH231658   6.989   5.678   3.803
10572TIP3    H131659   6.999   5.742   3.874
10572TIP3    H231660   6.959   5.599   3.846
10573TIP3   OH231661   1.778   0.439   4.721
10573TIP3    H131662   1.850   0.502   4.723
10573TIP3    H231663   1.720   0.471   4.652
10574TIP3   OH231664   2.202   3.061   1.471
10574TIP3    H131665   2.133   3.126   1.456
10574TIP3    H231666   2.194   3.039   1.564
10575TIP3   OH231667   2.874   4.539   3.912
10575TIP3    H131668   2.932   4.555   3.837
10575TIP3    H231669   2.933   4.517   3.984
10576TIP3   OH231670   6.720   6.731   0.454
10576TIP3    H131671   6.637   6.763   0.489
10576TIP3    H231672   6.710   6.636   0.450
10577TIP3   OH231673   1.921   7.690   5.688
10577TIP3    H131674   1.957   7.744   5.618
10577TIP3    H231675   1.943   7.737   5.768
10578TIP3   OH231676   6.871   4.439   0.760
10578TIP3    H131677   6.835   4.513   0.712
10578TIP3    H231678   6.866   4.466   0.852
10579TIP3   OH231679   0.640   5.347   2.685
10579TIP3    H131680   0.681   5.415   2.738
10579TIP3    H231681   0.552   5.339   2.721
10580TIP3   OH231682   4.923   2.326   5.378
10580TIP3    H131683   5.018   2.334   5.368
10580TIP3    H231684   4.908   2.338   5.472
10581TIP3   OH231685   2.023   1.240   5.186
10581TIP3    H131686   1.969   1.173   5.145
10581TIP3    H231687   2.021   1.314   5.124
10582TIP3   OH231688   3.296   7.277   1.761
10582TIP3    H131689   3.268   7.194   1.724
10582TIP3    H231690   3.219   7.333   1.756
10583TIP3   OH231691   1.099   3.875   2.879
10583TIP3    H131692   1.087   3.954   2.933
10583TIP3    H231693   1.049   3.893   2.800
10584TIP3   OH231694   6.599   6.793   5.036
10584TIP3    H131695   6.662   6.720   5.040
10584TIP3    H231696   6.617   6.835   4.952
10585TIP3   OH231697   6.827   5.491   3.481
10585TIP3    H131698   6.801   5.532   3.398
10585TIP3    H231699   6.892   5.551   3.518
10586TIP3   OH231700   3.192   6.957   0.835
10586TIP3    H131701   3.263   7.021   0.829
10586TIP3    H231702   3.114   7.007   0.810
10587TIP3   OH231703   2.572   5.630   1.101
10587TIP3    H131704   2.666   5.625   1.118
10587TIP3    H231705   2.554   5.724   1.094
10588TIP3   OH231706   7.494   2.265   1.041
10588TIP3    H131707   7.520   2.314   1.119
10588TIP3    H231708   7.433   2.199   1.073
10589TIP3   OH231709   2.215   4.386   0.482
10589TIP3    H131710   2.171   4.308   0.514
10589TIP3    H231711   2.217   4.376   0.387
10590TIP3   OH231712   5.729   2.868   4.889
10590TIP3    H131713   5.722   2.810   4.965
10590TIP3    H231714   5.647   2.855   4.841
10591TIP3   OH231715   1.584   7.460   2.641
10591TIP3    H131716   1.604   7.450   2.735
10591TIP3    H231717   1.654   7.518   2.609
10592TIP3   OH231718   4.226   1.448   6.702
10592TIP3    H131719   4.162   1.380   6.719
10592TIP3    H231720   4.283   1.447   6.779
10593TIP3   OH231721   2.904   0.091   2.688
10593TIP3    H131722   2.895   0.129   2.601
10593TIP3    H231723   2.827   0.123   2.736
10594TIP3   OH231724   5.874   2.975   0.601
10594TIP3    H131725   5.816   2.966   0.677
10594TIP3    H231726   5.821   2.944   0.527
10595TIP3   OH231727   7.312   1.390   2.713
10595TIP3    H131728   7.319   1.480   2.681
10595TIP3    H231729   7.393   1.348   2.683
10596TIP3   OH231730   4.848   7.304   6.787
10596TIP3    H131731   4.852   7.209   6.771
10596TIP3    H231732   4.940   7.331   6.793
10597TIP3   OH231733   2.221   4.444   3.100
10597TIP3    H131734   2.258   4.407   3.020
10597TIP3    H231735   2.267   4.527   3.111
10598TIP3   OH231736   4.451   0.663   4.037
10598TIP3    H131737   4.431   0.598   4.104
10598TIP3    H231738   4.496   0.614   3.968
10599TIP3   OH231739   2.503   2.775   3.985
10599TIP3    H131740   2.593   2.749   3.964
10599TIP3    H231741   2.497   2.767   4.080
10600TIP3   OH231742   5.108   2.045   2.603
10600TIP3    H131743   5.105   1.956   2.639
10600TIP3    H231744   5.017   2.074   2.601
10601TIP3   OH231745   2.119   1.813   5.363
10601TIP3    H131746   2.028   1.844   5.358
10601TIP3    H231747   2.142   1.791   5.273
10602TIP3   OH231748   6.835   1.123   0.647
10602TIP3    H131749   6.843   1.212   0.612
10602TIP3    H231750   6.790   1.074   0.579
10603TIP3   OH231751   4.985   2.407   4.179
10603TIP3    H131752   4.917   2.376   4.239
10603TIP3    H231753   4.940   2.472   4.124
10604TIP3   OH231754   7.215   3.580   4.984
10604TIP3    H131755   7.137   3.603   5.035
10604TIP3    H231756   7.185   3.576   4.893
10605TIP3   OH231757   0.685   5.723   5.299
10605TIP3    H131758   0.760   5.765   5.257
10605TIP3    H231759   0.622   5.794   5.312
10606TIP3   OH231760   3.289   5.777   3.296
10606TIP3    H131761   3.211   5.747   3.248
10606TIP3    H231762   3.361   5.727   3.257
10607TIP3   OH231763   8.162   3.299   6.588
10607TIP3    H131764   8.211   3.371   6.547
10607TIP3    H231765   8.181   3.308   6.682
10608TIP3   OH231766   2.653   7.285   6.749
10608TIP3    H131767   2.620   7.226   6.816
10608TIP3    H231768   2.647   7.235   6.668
10609TIP3   OH231769   4.616   3.053   6.584
10609TIP3    H131770   4.551   3.033   6.652
10609TIP3    H231771   4.700   3.038   6.626
10610TIP3   OH231772   2.155   3.738   2.227
10610TIP3    H131773   2.120   3.825   2.209
10610TIP3    H231774   2.234   3.754   2.279
10611TIP3   OH231775   7.697   1.889   5.739
10611TIP3    H131776   7.700   1.908   5.833
10611TIP3    H231777   7.747   1.808   5.730
10612TIP3   OH231778   2.910   0.615   3.684
10612TIP3    H131779   2.954   0.532   3.665
10612TIP3    H231780   2.877   0.644   3.599
10613TIP3   OH231781   3.280   3.150   6.559
10613TIP3    H131782   3.191   3.120   6.540
10613TIP3    H231783   3.286   3.237   6.521
10614TIP3   OH231784   4.802   5.131   4.627
10614TIP3    H131785   4.810   5.064   4.694
10614TIP3    H231786   4.716   5.115   4.588
10615TIP3   OH231787   8.180   1.100   3.013
10615TIP3    H131788   8.202   1.010   2.987
10615TIP3    H231789   8.121   1.090   3.088
10616TIP3   OH231790   6.393   3.715   5.905
10616TIP3    H131791   6.373   3.623   5.921
10616TIP3    H231792   6.485   3.715   5.880
10617TIP3   OH231793   6.598   6.411   4.967
10617TIP3    H131794   6.651   6.457   4.901
10617TIP3    H231795   6.651   6.413   5.046
10618TIP3   OH231796   0.213   3.690   1.328
10618TIP3    H131797   0.158   3.724   1.399
10618TIP3    H231798   0.207   3.595   1.337
10619TIP3   OH231799   1.625   2.703   3.441
10619TIP3    H131800   1.719   2.709   3.422
10619TIP3    H231801   1.583   2.735   3.362
10620TIP3   OH231802   0.595   4.411   3.727
10620TIP3    H131803   0.541   4.333   3.711
10620TIP3    H231804   0.576   4.469   3.654
10621TIP3   OH231805   2.171   3.291   2.651
10621TIP3    H131806   2.248   3.342   2.627
10621TIP3    H231807   2.110   3.356   2.687
10622TIP3   OH231808   0.280   1.355   6.130
10622TIP3    H131809   0.321   1.381   6.212
10622TIP3    H231810   0.275   1.435   6.078
10623TIP3   OH231811   5.187   5.099   3.110
10623TIP3    H131812   5.241   5.076   3.185
10623TIP3    H231813   5.202   5.028   3.047
10624TIP3   OH231814   6.905   0.133   3.852
10624TIP3    H131815   6.813   0.145   3.826
10624TIP3    H231816   6.955   0.157   3.775
10625TIP3   OH231817   2.840   0.351   2.067
10625TIP3    H131818   2.771   0.340   2.001
10625TIP3    H231819   2.792   0.362   2.149
10626TIP3   OH231820   8.095   1.644   3.770
10626TIP3    H131821   8.091   1.651   3.865
10626TIP3    H231822   8.105   1.734   3.739
10627TIP3   OH231823   3.055   4.986   1.945
10627TIP3    H131824   3.129   5.037   1.912
10627TIP3    H231825   2.982   5.047   1.945
10628TIP3   OH231826   5.567   7.565   5.145
10628TIP3    H131827   5.561   7.472   5.168
10628TIP3    H231828   5.485   7.603   5.179
10629TIP3   OH231829   8.188   6.744   4.634
10629TIP3    H131830   8.148   6.742   4.721
10629TIP3    H231831   8.183   6.836   4.608
10630TIP3   OH231832   3.617   1.160   0.676
10630TIP3    H131833   3.542   1.159   0.736
10630TIP3    H231834   3.623   1.251   0.646
10631TIP3   OH231835   7.714   6.278   0.714
10631TIP3    H131836   7.724   6.310   0.804
10631TIP3    H231837   7.796   6.303   0.671
10632TIP3   OH231838   2.828   5.169   1.893
10632TIP3    H131839   2.843   5.177   1.798
10632TIP3    H231840   2.734   5.158   1.901
10633TIP3   OH231841   4.157   4.483   5.621
10633TIP3    H131842   4.232   4.428   5.644
10633TIP3    H231843   4.090   4.460   5.685
10634TIP3   OH231844   3.036   6.925   5.952
10634TIP3    H131845   3.051   6.830   5.947
10634TIP3    H231846   2.941   6.934   5.943
10635TIP3   OH231847   6.655   7.685   4.268
10635TIP3    H131848   6.712   7.750   4.228
10635TIP3    H231849   6.571   7.695   4.223
10636TIP3   OH231850   1.952   7.113   0.515
10636TIP3    H131851   1.970   7.022   0.538
10636TIP3    H231852   2.029   7.141   0.465
10637TIP3   OH231853   6.320   0.145   2.294
10637TIP3    H131854   6.326   0.058   2.334
10637TIP3    H231855   6.226   0.165   2.295
10638TIP3   OH231856   0.509   1.859   6.364
10638TIP3    H131857   0.596   1.896   6.376
10638TIP3    H231858   0.523   1.765   6.355
10639TIP3   OH231859   3.524   2.946   3.606
10639TIP3    H131860   3.555   2.959   3.517
10639TIP3    H231861   3.528   2.851   3.620
10640TIP3   OH231862   2.447   5.408   0.538
10640TIP3    H131863   2.386   5.343   0.504
10640TIP3    H231864   2.531   5.388   0.496
10641TIP3   OH231865   8.286   4.121   6.531
10641TIP3    H131866   8.326   4.100   6.615
10641TIP3    H231867   8.197   4.149   6.553
10642TIP3   OH231868   2.040   1.389   0.660
10642TIP3    H131869   2.112   1.373   0.599
10642TIP3    H231870   1.967   1.339   0.625
10643TIP3   OH231871   7.949   3.280   1.275
10643TIP3    H131872   7.876   3.296   1.215
10643TIP3    H231873   7.938   3.189   1.303
10644TIP3   OH231874   3.363   2.019   1.529
10644TIP3    H131875   3.419   1.988   1.458
10644TIP3    H231876   3.424   2.063   1.589
10645TIP3   OH231877   7.389   1.012   6.538
10645TIP3    H131878   7.316   1.024   6.599
10645TIP3    H231879   7.381   0.922   6.508
10646TIP3   OH231880   3.546   4.233   2.274
10646TIP3    H131881   3.498   4.153   2.296
10646TIP3    H231882   3.521   4.295   2.343
10647TIP3   OH231883   4.002   1.148   2.249
10647TIP3    H131884   4.084   1.179   2.209
10647TIP3    H231885   3.950   1.227   2.260
10648TIP3   OH231886   5.908   3.563   3.379
10648TIP3    H131887   5.902   3.474   3.344
10648TIP3    H231888   5.835   3.569   3.442
10649TIP3   OH231889   1.557   3.810   3.736
10649TIP3    H131890   1.612   3.885   3.714
10649TIP3    H231891   1.573   3.747   3.665
10650TIP3   OH231892   2.332   0.803   0.937
10650TIP3    H131893   2.361   0.711   0.933
10650TIP3    H231894   2.377   0.839   1.013
10651TIP3   OH231895   0.815   0.868   3.077
10651TIP3    H131896   0.774   0.830   3.155
10651TIP3    H231897   0.852   0.951   3.107
10652TIP3   OH231898   4.753   1.937   2.318
10652TIP3    H131899   4.707   1.985   2.249
10652TIP3    H231900   4.687   1.925   2.387
10653TIP3   OH231901   1.460   0.911   0.688
10653TIP3    H131902   1.389   0.912   0.624
10653TIP3    H231903   1.515   0.986   0.665
10654TIP3   OH231904   5.003   4.230   2.633
10654TIP3    H131905   5.017   4.324   2.626
10654TIP3    H231906   4.950   4.219   2.712
10655TIP3   OH231907   2.898   1.088   4.503
10655TIP3    H131908   2.847   1.167   4.484
10655TIP3    H231909   2.946   1.110   4.583
10656TIP3   OH231910   6.604   4.636   3.049
10656TIP3    H131911   6.644   4.552   3.070
10656TIP3    H231912   6.665   4.701   3.085
10657TIP3   OH231913   0.541   5.360   5.304
10657TIP3    H131914   0.543   5.292   5.372
10657TIP3    H231915   0.607   5.423   5.330
10658TIP3   OH231916   8.056   3.020   5.861
10658TIP3    H131917   8.106   3.102   5.861
10658TIP3    H231918   8.063   2.988   5.771
10659TIP3   OH231919   7.435   1.293   4.072
10659TIP3    H131920   7.441   1.270   4.165
10659TIP3    H231921   7.377   1.227   4.035
10660TIP3   OH231922   2.859   2.593   5.653
10660TIP3    H131923   2.824   2.630   5.571
10660TIP3    H231924   2.893   2.669   5.700
10661TIP3   OH231925   5.998   4.095   2.181
10661TIP3    H131926   6.025   4.052   2.100
10661TIP3    H231927   6.075   4.090   2.238
10662TIP3   OH231928   3.799   4.477   3.488
10662TIP3    H131929   3.754   4.411   3.434
10662TIP3    H231930   3.889   4.476   3.458
10663TIP3   OH231931   4.665   2.133   6.505
10663TIP3    H131932   4.598   2.188   6.463
10663TIP3    H231933   4.625   2.106   6.587
10664TIP3   OH231934   3.872   5.037   6.095
10664TIP3    H131935   3.819   5.009   6.169
10664TIP3    H231936   3.915   4.957   6.065
10665TIP3   OH231937   7.876   6.080   6.723
10665TIP3    H131938   7.870   5.993   6.684
10665TIP3    H231939   7.958   6.078   6.774
10666TIP3   OH231940   7.975   1.432   6.442
10666TIP3    H131941   7.945   1.523   6.444
10666TIP3    H231942   8.037   1.430   6.369
10667TIP3   OH231943   2.814   1.073   2.584
10667TIP3    H131944   2.777   1.070   2.672
10667TIP3    H231945   2.866   0.993   2.577
10668TIP3   OH231946   0.969   4.439   6.398
10668TIP3    H131947   1.063   4.433   6.419
10668TIP3    H231948   0.966   4.489   6.317
10669TIP3   OH231949   3.972   7.673   3.020
10669TIP3    H131950   3.894   7.619   3.014
10669TIP3    H231951   4.011   7.650   3.105
10670TIP3   OH231952   4.476   6.070   5.716
10670TIP3    H131953   4.393   6.089   5.760
10670TIP3    H231954   4.508   6.156   5.688
10671TIP3   OH231955   5.859   5.513   0.434
10671TIP3    H131956   5.774   5.552   0.453
10671TIP3    H231957   5.916   5.546   0.503
10672TIP3   OH231958   7.737   3.835   3.146
10672TIP3    H131959   7.745   3.898   3.218
10672TIP3    H231960   7.827   3.805   3.131
10673TIP3   OH231961   2.910   1.975   3.277
10673TIP3    H131962   2.985   1.917   3.290
10673TIP3    H231963   2.860   1.933   3.207
10674TIP3   OH231964   7.724   5.476   1.376
10674TIP3    H131965   7.758   5.558   1.410
10674TIP3    H231966   7.683   5.499   1.292
10675TIP3   OH231967   1.532   5.675   3.565
10675TIP3    H131968   1.537   5.581   3.549
10675TIP3    H231969   1.483   5.710   3.490
10676TIP3   OH231970   4.260   5.152   3.132
10676TIP3    H131971   4.237   5.244   3.120
10676TIP3    H231972   4.183   5.104   3.099
10677TIP3   OH231973   2.304   6.699   6.592
10677TIP3    H131974   2.249   6.762   6.639
10677TIP3    H231975   2.255   6.617   6.597
10678TIP3   OH231976   1.836   7.305   3.132
10678TIP3    H131977   1.794   7.373   3.185
10678TIP3    H231978   1.928   7.331   3.129
10679TIP3   OH231979   5.420   7.516   1.035
10679TIP3    H131980   5.490   7.452   1.023
10679TIP3    H231981   5.422   7.568   0.954
10680TIP3   OH231982   5.734   1.890   3.771
10680TIP3    H131983   5.696   1.912   3.686
10680TIP3    H231984   5.703   1.959   3.829
10681TIP3   OH231985   6.874   2.712   5.988
10681TIP3    H131986   6.825   2.794   6.000
10681TIP3    H231987   6.940   2.713   6.057
10682TIP3   OH231988   5.215   2.344   2.043
10682TIP3    H131989   5.265   2.285   2.100
10682TIP3    H231990   5.269   2.423   2.037
10683TIP3   OH231991   1.897   5.301   0.028
10683TIP3    H131992   1.921   5.253  -0.051
10683TIP3    H231993   1.866   5.234   0.089
10684TIP3   OH231994   6.951   3.057   0.910
10684TIP3    H131995   6.978   3.134   0.959
10684TIP3    H231996   6.856   3.060   0.911
10685TIP3   OH231997   7.775   2.230   1.732
10685TIP3    H131998   7.701   2.290   1.729
10685TIP3    H231999   7.830   2.265   1.803
10686TIP3   OH232000   2.272   0.701   0.600
10686TIP3    H132001   2.232   0.758   0.665
10686TIP3    H232002   2.197   0.667   0.549
10687TIP3   OH232003   0.052   7.823   2.259
10687TIP3    H132004   0.062   7.839   2.165
10687TIP3    H232005  -0.033   7.781   2.267
10688TIP3   OH232006   1.250   6.975   4.561
10688TIP3    H132007   1.275   7.045   4.621
10688TIP3    H232008   1.230   7.020   4.478
10689TIP3   OH232009   8.143   0.410   2.567
10689TIP3    H132010   8.207   0.421   2.637
10689TIP3    H232011   8.070   0.467   2.593
10690TIP3   OH232012  -0.003   0.719   0.366
10690TIP3    H132013   0.011   0.645   0.426
10690TIP3    H232014   0.047   0.697   0.288
10691TIP3   OH232015   1.071   3.365   6.301
10691TIP3    H132016   1.096   3.338   6.390
10691TIP3    H232017   1.074   3.284   6.250
10692TIP3   OH232018   2.995   1.480   5.009
10692TIP3    H132019   3.061   1.499   5.075
10692TIP3    H232020   2.921   1.444   5.059
10693TIP3   OH232021   3.636   7.067   1.212
10693TIP3    H132022   3.559   7.117   1.183
10693TIP3    H232023   3.676   7.035   1.132
10694TIP3   OH232024   6.776   3.678   5.358
10694TIP3    H132025   6.721   3.626   5.299
10694TIP3    H232026   6.809   3.749   5.303
10695TIP3   OH232027   4.427   2.553   6.030
10695TIP3    H132028   4.336   2.543   6.000
10695TIP3    H232029   4.474   2.588   5.955
10696TIP3   OH232030   5.448   5.150   5.389
10696TIP3    H132031   5.473   5.078   5.447
10696TIP3    H232032   5.529   5.200   5.377
10697TIP3   OH232033   6.867   6.075   4.244
10697TIP3    H132034   6.880   6.120   4.160
10697TIP3    H232035   6.838   6.144   4.303
10698TIP3   OH232036   0.210   1.803   0.738
10698TIP3    H132037   0.246   1.782   0.652
10698TIP3    H232038   0.157   1.881   0.723
10699TIP3   OH232039   6.796   4.543   5.929
10699TIP3    H132040   6.757   4.629   5.946
10699TIP3    H232041   6.875   4.561   5.879
10700TIP3   OH232042   5.089   1.900   2.029
10700TIP3    H132043   5.101   1.959   2.104
10700TIP3    H232044   5.164   1.917   1.973
10701TIP3   OH232045   3.236   6.893   4.828
10701TIP3    H132046   3.294   6.894   4.904
10701TIP3    H232047   3.204   6.983   4.821
10702TIP3   OH232048   0.665   2.485   6.622
10702TIP3    H132049   0.671   2.447   6.710
10702TIP3    H232050   0.751   2.472   6.584
10703TIP3   OH232051   4.150   6.034   1.668
10703TIP3    H132052   4.102   5.957   1.639
10703TIP3    H232053   4.122   6.104   1.609
10704TIP3   OH232054   2.596   5.085   3.107
10704TIP3    H132055   2.619   5.075   3.200
10704TIP3    H232056   2.662   5.034   3.060
10705TIP3   OH232057   6.115   5.093   4.282
10705TIP3    H132058   6.121   5.043   4.364
10705TIP3    H232059   6.200   5.135   4.272
10706TIP3   OH232060   7.139   2.418   1.460
10706TIP3    H132061   7.152   2.471   1.381
10706TIP3    H232062   7.170   2.473   1.532
10707TIP3   OH232063   7.878   2.710   0.125
10707TIP3    H132064   7.883   2.618   0.100
10707TIP3    H232065   7.795   2.718   0.171
10708TIP3   OH232066   5.825   4.222   3.421
10708TIP3    H132067   5.896   4.162   3.443
10708TIP3    H232068   5.780   4.236   3.505
10709TIP3   OH232069   3.420   4.572   4.816
10709TIP3    H132070   3.418   4.658   4.776
10709TIP3    H232071   3.332   4.537   4.803
10710TIP3   OH232072   4.535   5.054   1.080
10710TIP3    H132073   4.492   5.135   1.052
10710TIP3    H232074   4.621   5.081   1.110
10711TIP3   OH232075   3.981   2.432   2.734
10711TIP3    H132076   3.957   2.374   2.806
10711TIP3    H232077   3.999   2.516   2.776
10712TIP3   OH232078   5.429   6.735   3.285
10712TIP3    H132079   5.389   6.657   3.248
10712TIP3    H232080   5.368   6.806   3.264
10713TIP3   OH232081   4.457   0.983   1.859
10713TIP3    H132082   4.387   1.038   1.825
10713TIP3    H232083   4.507   0.955   1.782
10714TIP3   OH232084   6.535   6.429   1.806
10714TIP3    H132085   6.582   6.347   1.795
10714TIP3    H232086   6.597   6.496   1.777
10715TIP3   OH232087   3.109   1.619   6.517
10715TIP3    H132088   3.146   1.546   6.568
10715TIP3    H232089   3.147   1.697   6.557
10716TIP3   OH232090   3.421   0.036   5.233
10716TIP3    H132091   3.340   0.022   5.282
10716TIP3    H232092   3.429  -0.041   5.177
10717TIP3   OH232093   7.914   7.422   6.174
10717TIP3    H132094   7.850   7.376   6.229
10717TIP3    H232095   7.982   7.449   6.235
10718TIP3   OH232096   2.918   4.144   6.396
10718TIP3    H132097   2.826   4.135   6.372
10718TIP3    H232098   2.927   4.236   6.422
10719TIP3   OH232099   1.756   4.012   3.448
10719TIP3    H132100   1.752   4.106   3.464
10719TIP3    H232101   1.780   3.974   3.533
10720TIP3   OH232102   3.418   5.992   0.298
10720TIP3    H132103   3.468   6.049   0.356
10720TIP3    H232104   3.480   5.967   0.230
10721TIP3   OH232105   4.099   7.291   0.837
10721TIP3    H132106   4.037   7.302   0.908
10721TIP3    H232107   4.099   7.376   0.792
10722TIP3   OH232108   5.564   4.794   3.938
10722TIP3    H132109   5.649   4.837   3.952
10722TIP3    H232110   5.526   4.787   4.025
10723TIP3   OH232111   0.215   3.551   2.538
10723TIP3    H132112   0.230   3.486   2.606
10723TIP3    H232113   0.194   3.500   2.460
10724TIP3   OH232114   4.339   1.435   2.595
10724TIP3    H132115   4.360   1.373   2.664
10724TIP3    H232116   4.376   1.397   2.515
10725TIP3   OH232117   6.965   4.242   0.603
10725TIP3    H132118   7.054   4.228   0.637
10725TIP3    H232119   6.922   4.295   0.670
10726TIP3   OH232120   1.182   4.368   3.960
10726TIP3    H132121   1.262   4.350   4.009
10726TIP3    H232122   1.111   4.357   4.023
10727TIP3   OH232123   5.468   2.374   3.732
10727TIP3    H132124   5.384   2.362   3.776
10727TIP3    H232125   5.532   2.337   3.792
10728TIP3   OH232126   6.682   2.503   0.471
10728TIP3    H132127   6.745   2.507   0.399
10728TIP3    H232128   6.654   2.594   0.483
10729TIP3   OH232129   2.620   3.570   6.279
10729TIP3    H132130   2.700   3.567   6.225
10729TIP3    H232131   2.552   3.599   6.218
10730TIP3   OH232132   7.016   0.026   6.001
10730TIP3    H132133   6.922   0.044   6.014
10730TIP3    H232134   7.052   0.023   6.090
10731TIP3   OH232135   0.175   1.599   4.126
10731TIP3    H132136   0.157   1.681   4.173
10731TIP3    H232137   0.218   1.628   4.045
10732TIP3   OH232138   8.059   4.423   1.710
10732TIP3    H132139   8.016   4.345   1.674
10732TIP3    H232140   8.045   4.490   1.643
10733TIP3   OH232141   6.648   0.123   6.427
10733TIP3    H132142   6.563   0.149   6.390
10733TIP3    H232143   6.712   0.174   6.377
10734TIP3   OH232144   3.327   4.047   4.608
10734TIP3    H132145   3.407   4.095   4.587
10734TIP3    H232146   3.325   4.044   4.703
10735TIP3   OH232147   6.136   5.003   2.953
10735TIP3    H132148   6.061   4.964   2.997
10735TIP3    H232149   6.177   5.058   3.020
10736TIP3   OH232150   1.990   4.332   0.211
10736TIP3    H132151   2.082   4.303   0.213
10736TIP3    H232152   1.967   4.331   0.118
10737TIP3   OH232153   4.734   6.376   1.412
10737TIP3    H132154   4.827   6.385   1.390
10737TIP3    H232155   4.732   6.306   1.477
10738TIP3   OH232156   1.463   0.130   1.704
10738TIP3    H132157   1.553   0.158   1.691
10738TIP3    H232158   1.459   0.041   1.670
10739TIP3   OH232159   6.624   4.654   3.653
10739TIP3    H132160   6.696   4.696   3.605
10739TIP3    H232161   6.664   4.576   3.692
10740TIP3   OH232162   0.462   5.358   4.228
10740TIP3    H132163   0.452   5.364   4.323
10740TIP3    H232164   0.461   5.450   4.199
10741TIP3   OH232165   5.875   7.116   6.064
10741TIP3    H132166   5.855   7.098   6.155
10741TIP3    H232167   5.871   7.211   6.056
10742TIP3   OH232168   3.878   7.347   0.595
10742TIP3    H132169   3.847   7.401   0.667
10742TIP3    H232170   3.969   7.374   0.582
10743TIP3   OH232171   3.093   7.603   2.406
10743TIP3    H132172   3.013   7.598   2.457
10743TIP3    H232173   3.158   7.639   2.467
10744TIP3   OH232174   3.494   5.217   3.144
10744TIP3    H132175   3.432   5.147   3.163
10744TIP3    H232176   3.449   5.297   3.171
10745TIP3   OH232177   4.706   2.274   5.050
10745TIP3    H132178   4.669   2.235   5.129
10745TIP3    H232179   4.791   2.308   5.077
10746TIP3   OH232180   6.409   7.255   2.977
10746TIP3    H132181   6.337   7.222   3.032
10746TIP3    H232182   6.404   7.202   2.897
10747TIP3   OH232183   1.157   5.601   0.816
10747TIP3    H132184   1.188   5.514   0.792
10747TIP3    H232185   1.193   5.659   0.749
10748TIP3   OH232186   7.176   3.463   4.087
10748TIP3    H132187   7.229   3.506   4.020
10748TIP3    H232188   7.240   3.423   4.146
10749TIP3   OH232189   2.520   4.475   3.762
10749TIP3    H132190   2.513   4.523   3.845
10749TIP3    H232191   2.583   4.525   3.710
10750TIP3   OH232192   4.706   0.239   0.318
10750TIP3    H132193   4.664   0.312   0.363
10750TIP3    H232194   4.634   0.193   0.274
10751TIP3   OH232195   1.868   6.198   0.588
10751TIP3    H132196   1.834   6.217   0.676
10751TIP3    H232197   1.957   6.233   0.589
10752TIP3   OH232198   0.139   4.566   6.011
10752TIP3    H132199   0.227   4.548   6.044
10752TIP3    H232200   0.132   4.662   6.011
10753TIP3   OH232201   7.511   3.947   5.031
10753TIP3    H132202   7.535   3.896   5.109
10753TIP3    H232203   7.452   3.890   4.982
10754TIP3   OH232204   5.110   4.397   2.412
10754TIP3    H132205   5.088   4.304   2.402
10754TIP3    H232206   5.198   4.405   2.374
10755TIP3   OH232207   5.382   7.377   2.429
10755TIP3    H132208   5.451   7.333   2.479
10755TIP3    H232209   5.397   7.351   2.339
10756TIP3   OH232210   1.288   1.209   5.097
10756TIP3    H132211   1.240   1.253   5.026
10756TIP3    H232212   1.259   1.118   5.094
10757TIP3   OH232213   5.138   1.259   2.800
10757TIP3    H132214   5.161   1.185   2.745
10757TIP3    H232215   5.180   1.241   2.885
10758TIP3   OH232216   3.981   6.447   0.063
10758TIP3    H132217   3.922   6.516   0.095
10758TIP3    H232218   3.970   6.448  -0.032
10759TIP3   OH232219   4.891   2.937   2.559
10759TIP3    H132220   4.896   2.842   2.568
10759TIP3    H232221   4.854   2.950   2.471
10760TIP3   OH232222   4.747   5.496   2.353
10760TIP3    H132223   4.802   5.506   2.430
10760TIP3    H232224   4.670   5.449   2.385
10761TIP3   OH232225   2.691   3.181   3.846
10761TIP3    H132226   2.610   3.140   3.876
10761TIP3    H232227   2.715   3.242   3.916
10762TIP3   OH232228   3.969   0.047   0.773
10762TIP3    H132229   4.062   0.032   0.790
10762TIP3    H232230   3.962   0.051   0.678
10763TIP3   OH232231   4.200   2.651   5.411
10763TIP3    H132232   4.228   2.729   5.460
10763TIP3    H232233   4.107   2.643   5.430
10764TIP3   OH232234   1.906   5.845   4.704
10764TIP3    H132235   1.977   5.785   4.725
10764TIP3    H232236   1.911   5.912   4.772
10765TIP3   OH232237   1.260   6.507   6.399
10765TIP3    H132238   1.272   6.412   6.401
10765TIP3    H232239   1.176   6.522   6.441
10766TIP3   OH232240   1.428   7.165   2.488
10766TIP3    H132241   1.518   7.163   2.456
10766TIP3    H232242   1.433   7.210   2.572
10767TIP3   OH232243   6.924   0.517   4.643
10767TIP3    H132244   6.933   0.612   4.650
10767TIP3    H232245   6.856   0.503   4.577
10768TIP3   OH232246   2.306   3.505   0.404
10768TIP3    H132247   2.363   3.428   0.399
10768TIP3    H232248   2.350   3.571   0.350
10769TIP3   OH232249   0.895   5.076   4.355
10769TIP3    H132250   0.861   5.150   4.306
10769TIP3    H232251   0.921   5.013   4.289
10770TIP3   OH232252   6.189   2.045   6.581
10770TIP3    H132253   6.167   1.952   6.579
10770TIP3    H232254   6.170   2.072   6.670
10771TIP3   OH232255   3.109   3.244   1.250
10771TIP3    H132256   3.064   3.238   1.166
10771TIP3    H232257   3.144   3.333   1.253
10772TIP3   OH232258   3.269   3.966   0.418
10772TIP3    H132259   3.321   3.958   0.337
10772TIP3    H232260   3.235   3.877   0.433
10773TIP3   OH232261   1.894   5.415   0.552
10773TIP3    H132262   1.955   5.450   0.617
10773TIP3    H232263   1.933   5.331   0.527
10774TIP3   OH232264   0.191   3.647   5.560
10774TIP3    H132265   0.149   3.700   5.628
10774TIP3    H232266   0.126   3.642   5.490
10775TIP3   OH232267   7.739   4.291   1.771
10775TIP3    H132268   7.794   4.254   1.840
10775TIP3    H232269   7.659   4.239   1.775
10776TIP3   OH232270   1.603   3.486   0.230
10776TIP3    H132271   1.571   3.481   0.140
10776TIP3    H232272   1.544   3.429   0.279
10777TIP3   OH232273   2.047   4.979   5.502
10777TIP3    H132274   2.095   5.048   5.457
10777TIP3    H232275   2.110   4.940   5.562
10778TIP3   OH232276   2.227   2.890   3.808
10778TIP3    H132277   2.213   2.904   3.714
10778TIP3    H232278   2.284   2.813   3.813
10779TIP3   OH232279   2.156   7.109   0.304
10779TIP3    H132280   2.078   7.064   0.270
10779TIP3    H232281   2.220   7.099   0.234
10780TIP3   OH232282   7.082   0.433   6.672
10780TIP3    H132283   7.006   0.383   6.702
10780TIP3    H232284   7.158   0.379   6.696
10781TIP3   OH232285   3.483   5.652   6.244
10781TIP3    H132286   3.422   5.617   6.309
10781TIP3    H232287   3.524   5.575   6.205
10782TIP3   OH232288   7.147   2.896   1.801
10782TIP3    H132289   7.102   2.847   1.870
10782TIP3    H232290   7.092   2.973   1.786
10783TIP3   OH232291   1.917   5.478   1.184
10783TIP3    H132292   1.909   5.383   1.192
10783TIP3    H232293   1.842   5.504   1.130
10784TIP3   OH232294   4.282   5.444   5.579
10784TIP3    H132295   4.267   5.359   5.538
10784TIP3    H232296   4.367   5.436   5.622
10785TIP3   OH232297   7.123   0.403   5.518
10785TIP3    H132298   7.030   0.378   5.523
10785TIP3    H232299   7.151   0.409   5.609
10786TIP3   OH232300   0.798   0.601   4.289
10786TIP3    H132301   0.798   0.583   4.195
10786TIP3    H232302   0.884   0.572   4.319
10787TIP3   OH232303   6.606   1.478   2.416
10787TIP3    H132304   6.674   1.501   2.479
10787TIP3    H232305   6.643   1.404   2.367
10788TIP3   OH232306   2.377   4.895   2.670
10788TIP3    H132307   2.427   4.963   2.714
10788TIP3    H232308   2.301   4.881   2.726
10789TIP3   OH232309   1.345   1.033   0.965
10789TIP3    H132310   1.379   1.121   0.951
10789TIP3    H232311   1.312   1.005   0.880
10790TIP3   OH232312   6.318   0.357   3.432
10790TIP3    H132313   6.394   0.350   3.373
10790TIP3    H232314   6.325   0.280   3.489
10791TIP3   OH232315   0.692   0.732   2.706
10791TIP3    H132316   0.615   0.753   2.759
10791TIP3    H232317   0.658   0.723   2.617
10792TIP3   OH232318   7.465   5.265   2.335
10792TIP3    H132319   7.558   5.255   2.356
10792TIP3    H232320   7.425   5.183   2.363
10793TIP3   OH232321   6.098   1.888   5.852
10793TIP3    H132322   6.169   1.826   5.842
10793TIP3    H232323   6.030   1.840   5.899
10794TIP3   OH232324   7.098   4.312   4.540
10794TIP3    H132325   7.154   4.243   4.575
10794TIP3    H232326   7.160   4.374   4.500
10795TIP3   OH232327   7.286   5.138   3.966
10795TIP3    H132328   7.244   5.182   3.891
10795TIP3    H232329   7.219   5.078   3.999
10796TIP3   OH232330   5.160   5.998   6.637
10796TIP3    H132331   5.250   5.995   6.602
10796TIP3    H232332   5.122   6.076   6.597
10797TIP3   OH232333   5.182   2.830   3.562
10797TIP3    H132334   5.093   2.859   3.581
10797TIP3    H232335   5.238   2.890   3.612
10798TIP3   OH232336   4.752   2.114   5.275
10798TIP3    H132337   4.706   2.090   5.356
10798TIP3    H232338   4.816   2.179   5.302
10799TIP3   OH232339   0.756   0.693   3.279
10799TIP3    H132340   0.835   0.643   3.257
10799TIP3    H232341   0.684   0.630   3.270
10800TIP3   OH232342   2.884   2.210   4.455
10800TIP3    H132343   2.924   2.157   4.523
10800TIP3    H232344   2.940   2.288   4.449
10801TIP3   OH232345   2.108   0.947   2.403
10801TIP3    H132346   2.163   0.873   2.431
10801TIP3    H232347   2.098   1.001   2.481
10802TIP3   OH232348   7.669   5.848   4.143
10802TIP3    H132349   7.715   5.856   4.227
10802TIP3    H232350   7.577   5.840   4.167
10803TIP3   OH232351   4.900   6.417   1.061
10803TIP3    H132352   4.886   6.396   0.968
10803TIP3    H232353   4.953   6.344   1.093
10804TIP3   OH232354   7.779   3.529   3.181
10804TIP3    H132355   7.754   3.621   3.170
10804TIP3    H232356   7.803   3.500   3.094
10805TIP3   OH232357   4.500   5.351   5.308
10805TIP3    H132358   4.491   5.335   5.214
10805TIP3    H232359   4.468   5.271   5.349
10806TIP3   OH232360   4.652   7.318   2.666
10806TIP3    H132361   4.737   7.276   2.682
10806TIP3    H232362   4.674   7.409   2.645
10807TIP3   OH232363   7.526   5.808   6.304
10807TIP3    H132364   7.619   5.824   6.318
10807TIP3    H232365   7.506   5.732   6.359
10808TIP3   OH232366   5.993   2.838   2.306
10808TIP3    H132367   6.078   2.793   2.304
10808TIP3    H232368   5.965   2.833   2.398
10809TIP3   OH232369   6.833   6.807   3.942
10809TIP3    H132370   6.762   6.870   3.955
10809TIP3    H232371   6.847   6.807   3.847
10810TIP3   OH232372   1.112   0.783   6.661
10810TIP3    H132373   1.031   0.765   6.613
10810TIP3    H232374   1.174   0.810   6.595
10811TIP3   OH232375   1.287   6.165   0.429
10811TIP3    H132376   1.253   6.128   0.348
10811TIP3    H232377   1.378   6.135   0.432
10812TIP3   OH232378   7.259   5.170   4.575
10812TIP3    H132379   7.267   5.109   4.501
10812TIP3    H232380   7.318   5.242   4.553
10813TIP3   OH232381   4.339   3.448   2.161
10813TIP3    H132382   4.356   3.530   2.207
10813TIP3    H232383   4.244   3.436   2.169
10814TIP3   OH232384   4.339   5.376   2.864
10814TIP3    H132385   4.275   5.447   2.866
10814TIP3    H232386   4.424   5.421   2.864
10815TIP3   OH232387   2.088   2.040   3.449
10815TIP3    H132388   2.102   2.123   3.494
10815TIP3    H232389   2.124   1.974   3.508
10816TIP3   OH232390   7.560   7.524   3.776
10816TIP3    H132391   7.565   7.619   3.787
10816TIP3    H232392   7.636   7.502   3.722
10817TIP3   OH232393   4.571   7.320   4.801
10817TIP3    H132394   4.666   7.326   4.808
10817TIP3    H232395   4.538   7.399   4.844
10818TIP3   OH232396   5.072   6.027   4.118
10818TIP3    H132397   5.024   6.001   4.196
10818TIP3    H232398   5.005   6.034   4.049
10819TIP3   OH232399   6.453   6.614   3.644
10819TIP3    H132400   6.422   6.618   3.554
10819TIP3    H232401   6.409   6.686   3.688
10820TIP3   OH232402   0.552   1.596   6.328
10820TIP3    H132403   0.612   1.532   6.365
10820TIP3    H232404   0.554   1.579   6.234
10821TIP3   OH232405   7.248   5.048   3.041
10821TIP3    H132406   7.309   5.045   3.114
10821TIP3    H232407   7.279   5.120   2.986
10822TIP3   OH232408   2.373   3.704   1.748
10822TIP3    H132409   2.290   3.710   1.701
10822TIP3    H232410   2.428   3.648   1.694
10823TIP3   OH232411   0.092   2.205   4.773
10823TIP3    H132412   0.008   2.171   4.803
10823TIP3    H232413   0.142   2.128   4.748
10824TIP3   OH232414   0.668   5.926   1.537
10824TIP3    H132415   0.692   6.004   1.589
10824TIP3    H232416   0.647   5.860   1.603
10825TIP3   OH232417   0.379   0.588   1.848
10825TIP3    H132418   0.420   0.530   1.784
10825TIP3    H232419   0.293   0.608   1.810
10826TIP3   OH232420   8.020   2.829   2.250
10826TIP3    H132421   7.952   2.797   2.190
10826TIP3    H232422   8.060   2.749   2.285
10827TIP3   OH232423   5.952   3.797   6.060
10827TIP3    H132424   5.889   3.866   6.038
10827TIP3    H232425   6.036   3.843   6.066
10828TIP3   OH232426   4.100   2.062   3.524
10828TIP3    H132427   4.189   2.028   3.512
10828TIP3    H232428   4.107   2.155   3.500
10829TIP3   OH232429   0.178   4.422   2.932
10829TIP3    H132430   0.085   4.418   2.910
10829TIP3    H232431   0.179   4.438   3.027
10830TIP3   OH232432   2.010   6.823   0.531
10830TIP3    H132433   1.999   6.731   0.508
10830TIP3    H232434   1.922   6.854   0.551
10831TIP3   OH232435   4.142   2.121   3.231
10831TIP3    H132436   4.172   2.035   3.202
10831TIP3    H232437   4.221   2.167   3.257
10832TIP3   OH232438   4.514   6.569   1.443
10832TIP3    H132439   4.557   6.484   1.450
10832TIP3    H232440   4.583   6.629   1.414
10833TIP3   OH232441   4.337   6.688   6.656
10833TIP3    H132442   4.338   6.783   6.670
10833TIP3    H232443   4.290   6.653   6.731
10834TIP3   OH232444   3.784   1.455   1.363
10834TIP3    H132445   3.770   1.495   1.277
10834TIP3    H232446   3.726   1.379   1.364
10835TIP3   OH232447   8.143   4.494   4.417
10835TIP3    H132448   8.188   4.553   4.477
10835TIP3    H232449   8.107   4.551   4.349
10836TIP3   OH232450   6.146   0.688   3.707
10836TIP3    H132451   6.214   0.677   3.641
10836TIP3    H232452   6.156   0.778   3.737
10837TIP3   OH232453   0.066   5.962   6.060
10837TIP3    H132454   0.087   5.875   6.095
10837TIP3    H232455   0.041   5.945   5.969
10838TIP3   OH232456   2.712   4.988   3.379
10838TIP3    H132457   2.765   5.035   3.443
10838TIP3    H232458   2.761   4.908   3.361
10839TIP3   OH232459   0.075   2.483   0.239
10839TIP3    H132460   0.120   2.404   0.269
10839TIP3    H232461  -0.011   2.479   0.282
10840TIP3   OH232462   3.321   0.506   1.023
10840TIP3    H132463   3.388   0.575   1.022
10840TIP3    H232464   3.300   0.492   0.931
10841TIP3   OH232465   7.276   0.150   2.092
10841TIP3    H132466   7.290   0.096   2.014
10841TIP3    H232467   7.181   0.153   2.101
10842TIP3   OH232468   1.540   3.441   3.165
10842TIP3    H132469   1.538   3.373   3.098
10842TIP3    H232470   1.533   3.523   3.116
10843TIP3   OH232471   0.412   6.194   5.241
10843TIP3    H132472   0.451   6.248   5.172
10843TIP3    H232473   0.323   6.227   5.249
10844TIP3   OH232474   8.301   1.248   5.529
10844TIP3    H132475   8.391   1.251   5.496
10844TIP3    H232476   8.309   1.263   5.623
10845TIP3   OH232477   1.654   1.804   6.461
10845TIP3    H132478   1.698   1.741   6.519
10845TIP3    H232479   1.620   1.751   6.390
10846TIP3   OH232480   5.365   1.209   1.405
10846TIP3    H132481   5.285   1.232   1.451
10846TIP3    H232482   5.345   1.226   1.313
10847TIP3   OH232483   3.926   2.557   0.108
10847TIP3    H132484   3.914   2.541   0.015
10847TIP3    H232485   4.015   2.526   0.126
10848TIP3   OH232486   1.014   2.777   3.121
10848TIP3    H132487   1.107   2.763   3.104
10848TIP3    H232488   0.993   2.859   3.076
10849TIP3   OH232489   0.397   0.191   1.959
10849TIP3    H132490   0.354   0.188   2.044
10849TIP3    H232491   0.367   0.273   1.920
10850TIP3   OH232492   1.739   4.982   3.072
10850TIP3    H132493   1.756   4.973   2.978
10850TIP3    H232494   1.808   5.039   3.104
10851TIP3   OH232495   4.472   1.432   0.884
10851TIP3    H132496   4.482   1.523   0.910
10851TIP3    H232497   4.409   1.395   0.946
10852TIP3   OH232498   5.397   1.466   1.514
10852TIP3    H132499   5.421   1.375   1.494
10852TIP3    H232500   5.379   1.506   1.429
10853TIP3   OH232501   2.750   2.118   3.843
10853TIP3    H132502   2.754   2.106   3.748
10853TIP3    H232503   2.668   2.165   3.858
10854TIP3   OH232504   1.195   6.077   0.195
10854TIP3    H132505   1.118   6.052   0.144
10854TIP3    H232506   1.251   5.999   0.194
10855TIP3   OH232507   2.968   4.618   3.116
10855TIP3    H132508   2.966   4.626   3.020
10855TIP3    H232509   3.058   4.593   3.136
10856TIP3   OH232510   3.942   5.502   1.249
10856TIP3    H132511   3.895   5.443   1.190
10856TIP3    H232512   3.978   5.570   1.191
10857TIP3   OH232513   4.788   6.904   0.094
10857TIP3    H132514   4.785   6.960   0.017
10857TIP3    H232515   4.700   6.866   0.100
10858TIP3   OH232516   3.038   5.110   0.958
10858TIP3    H132517   3.024   5.021   0.926
10858TIP3    H232518   2.985   5.116   1.038
10859TIP3   OH232519   7.999   0.590   1.282
10859TIP3    H132520   7.986   0.597   1.187
10859TIP3    H232521   7.964   0.504   1.305
10860TIP3   OH232522   7.935   0.741   3.679
10860TIP3    H132523   7.936   0.646   3.684
10860TIP3    H232524   8.027   0.767   3.689
10861TIP3   OH232525   6.095   7.658   4.198
10861TIP3    H132526   6.066   7.725   4.135
10861TIP3    H232527   6.187   7.679   4.214
10862TIP3   OH232528   4.971   7.414   2.856
10862TIP3    H132529   4.933   7.373   2.779
10862TIP3    H232530   5.035   7.476   2.821
10863TIP3   OH232531   5.840   2.182   5.130
10863TIP3    H132532   5.774   2.251   5.123
10863TIP3    H232533   5.801   2.117   5.188
10864TIP3   OH232534   5.911   0.063   4.984
10864TIP3    H132535   5.865   0.124   5.042
10864TIP3    H232536   5.950  -0.002   5.044
10865TIP3   OH232537   6.783   2.471   1.070
10865TIP3    H132538   6.735   2.511   0.998
10865TIP3    H232539   6.870   2.454   1.034
10866TIP3   OH232540   0.122   0.923   1.008
10866TIP3    H132541   0.126   0.950   0.916
10866TIP3    H232542   0.213   0.926   1.038
10867TIP3   OH232543   1.047   0.276   4.608
10867TIP3    H132544   1.078   0.201   4.557
10867TIP3    H232545   1.049   0.246   4.699
10868TIP3   OH232546  -0.044   2.245   0.871
10868TIP3    H132547  -0.015   2.327   0.910
10868TIP3    H232548  -0.073   2.192   0.946
10869TIP3   OH232549   5.537   0.383   1.613
10869TIP3    H132550   5.456   0.382   1.663
10869TIP3    H232551   5.524   0.319   1.543
10870TIP3   OH232552   6.377   3.452   3.554
10870TIP3    H132553   6.313   3.441   3.483
10870TIP3    H232554   6.395   3.363   3.584
10871TIP3   OH232555   1.177   6.818   5.718
10871TIP3    H132556   1.202   6.735   5.676
10871TIP3    H232557   1.233   6.884   5.677
10872TIP3   OH232558   4.446   1.628   3.970
10872TIP3    H132559   4.425   1.569   4.042
10872TIP3    H232560   4.510   1.689   4.007
10873TIP3   OH232561   1.988   5.141   3.518
10873TIP3    H132562   1.916   5.083   3.542
10873TIP3    H232563   2.023   5.171   3.602
10874TIP3   OH232564   4.122   1.927   0.206
10874TIP3    H132565   4.162   1.861   0.150
10874TIP3    H232566   4.045   1.884   0.243
10875TIP3   OH232567   7.468   3.842   3.417
10875TIP3    H132568   7.397   3.895   3.381
10875TIP3    H232569   7.496   3.788   3.343
10876TIP3   OH232570   4.860   6.350   4.617
10876TIP3    H132571   4.898   6.344   4.704
10876TIP3    H232572   4.930   6.320   4.558
10877TIP3   OH232573   6.201   6.982   6.490
10877TIP3    H132574   6.234   7.026   6.412
10877TIP3    H232575   6.179   6.894   6.461
10878TIP3   OH232576   0.638   0.627   2.184
10878TIP3    H132577   0.650   0.549   2.238
10878TIP3    H232578   0.549   0.621   2.151
10879TIP3   OH232579   7.248   1.221   4.646
10879TIP3    H132580   7.176   1.172   4.684
10879TIP3    H232581   7.207   1.281   4.584
10880TIP3   OH232582   7.360   2.067   1.789
10880TIP3    H132583   7.428   2.014   1.748
10880TIP3    H232584   7.326   2.012   1.860
10881TIP3   OH232585   7.381   2.534   1.977
10881TIP3    H132586   7.340   2.486   1.905
10881TIP3    H232587   7.310   2.549   2.040
10882TIP3   OH232588   4.554   0.074   3.407
10882TIP3    H132589   4.490   0.087   3.337
10882TIP3    H232590   4.552   0.156   3.456
10883TIP3   OH232591   8.192   5.650   0.026
10883TIP3    H132592   8.155   5.679  -0.057
10883TIP3    H232593   8.168   5.718   0.088
10884TIP3   OH232594   6.893   6.520   2.375
10884TIP3    H132595   6.863   6.596   2.326
10884TIP3    H232596   6.915   6.554   2.461
10885TIP3   OH232597   4.747   7.226   3.813
10885TIP3    H132598   4.832   7.246   3.773
10885TIP3    H232599   4.684   7.275   3.760
10886TIP3   OH232600   1.887   5.230   4.606
10886TIP3    H132601   1.860   5.320   4.586
10886TIP3    H232602   1.893   5.188   4.520
10887TIP3   OH232603   4.754   2.472   6.336
10887TIP3    H132604   4.766   2.466   6.242
10887TIP3    H232605   4.667   2.434   6.351
10888TIP3   OH232606   6.964   3.119   5.059
10888TIP3    H132607   7.047   3.078   5.033
10888TIP3    H232608   6.899   3.049   5.053
10889TIP3   OH232609   8.292   6.695   3.311
10889TIP3    H132610   8.222   6.707   3.247
10889TIP3    H232611   8.275   6.610   3.350
10890TIP3   OH232612   4.084   6.267   3.293
10890TIP3    H132613   4.134   6.327   3.349
10890TIP3    H232614   4.129   6.183   3.302
10891TIP3   OH232615   8.301   3.696   4.669
10891TIP3    H132616   8.297   3.771   4.610
10891TIP3    H232617   8.210   3.667   4.678
10892TIP3   OH232618   7.517   3.153   2.050
10892TIP3    H132619   7.479   3.236   2.023
10892TIP3    H232620   7.557   3.170   2.135
10893TIP3   OH232621   1.260   7.119   5.011
10893TIP3    H132622   1.256   7.048   5.075
10893TIP3    H232623   1.183   7.106   4.956
10894TIP3   OH232624   4.802   6.529   2.334
10894TIP3    H132625   4.729   6.467   2.334
10894TIP3    H232626   4.858   6.500   2.262
10895TIP3   OH232627   0.126   3.190   6.216
10895TIP3    H132628   0.068   3.135   6.164
10895TIP3    H232629   0.138   3.142   6.298
10896TIP3   OH232630   1.070   0.739   1.910
10896TIP3    H132631   1.137   0.698   1.966
10896TIP3    H232632   0.990   0.690   1.930
10897TIP3   OH232633   7.972   3.089   3.399
10897TIP3    H132634   8.033   3.018   3.418
10897TIP3    H232635   7.973   3.096   3.303
10898TIP3   OH232636   6.027   6.917   1.104
10898TIP3    H132637   6.032   6.965   1.021
10898TIP3    H232638   6.064   6.831   1.085
10899TIP3   OH232639   7.154   0.467   1.658
10899TIP3    H132640   7.198   0.389   1.626
10899TIP3    H232641   7.196   0.486   1.742
10900TIP3   OH232642   3.902   6.973   5.768
10900TIP3    H132643   3.962   7.042   5.795
10900TIP3    H232644   3.921   6.900   5.827
10901TIP3   OH232645   4.048   0.215   1.023
10901TIP3    H132646   3.958   0.242   1.001
10901TIP3    H232647   4.088   0.197   0.938
10902TIP3   OH232648   7.820   0.425   2.542
10902TIP3    H132649   7.817   0.477   2.461
10902TIP3    H232650   7.867   0.480   2.604
10903TIP3   OH232651   1.607   7.651   1.520
10903TIP3    H132652   1.533   7.673   1.576
10903TIP3    H232653   1.660   7.590   1.572
10904TIP3   OH232654   5.567   7.337   2.695
10904TIP3    H132655   5.593   7.275   2.762
10904TIP3    H232656   5.510   7.399   2.741
10905TIP3   OH232657   1.940   0.239   2.933
10905TIP3    H132658   1.881   0.245   3.008
10905TIP3    H232659   1.947   0.145   2.915
10906TIP3   OH232660   0.228   4.525   0.246
10906TIP3    H132661   0.286   4.561   0.313
10906TIP3    H232662   0.287   4.497   0.177
10907TIP3   OH232663   3.114   3.330   1.730
10907TIP3    H132664   3.120   3.381   1.649
10907TIP3    H232665   3.073   3.247   1.703
10908TIP3   OH232666   1.366   4.528   3.113
10908TIP3    H132667   1.386   4.613   3.151
10908TIP3    H232668   1.450   4.497   3.079
10909TIP3   OH232669   2.597   4.366   1.209
10909TIP3    H132670   2.659   4.301   1.177
10909TIP3    H232671   2.620   4.446   1.161
10910TIP3   OH232672   2.452   5.974   2.787
10910TIP3    H132673   2.497   5.956   2.704
10910TIP3    H232674   2.367   6.009   2.761
10911TIP3   OH232675   3.846   7.059   4.145
10911TIP3    H132676   3.765   7.025   4.184
10911TIP3    H232677   3.896   6.980   4.122
10912TIP3   OH232678   3.766   0.537   5.768
10912TIP3    H132679   3.822   0.462   5.746
10912TIP3    H232680   3.755   0.584   5.685
10913TIP3   OH232681   7.313   4.576   2.849
10913TIP3    H132682   7.365   4.589   2.928
10913TIP3    H232683   7.243   4.641   2.854
10914TIP3   OH232684   3.244   6.559   3.321
10914TIP3    H132685   3.263   6.653   3.323
10914TIP3    H232686   3.316   6.521   3.271
10915TIP3   OH232687   7.479   7.193   6.483
10915TIP3    H132688   7.573   7.203   6.498
10915TIP3    H232689   7.458   7.106   6.516
10916TIP3   OH232690   5.047   4.507   0.429
10916TIP3    H132691   5.102   4.490   0.353
10916TIP3    H232692   5.105   4.492   0.504
10917TIP3   OH232693   6.154   4.767   6.038
10917TIP3    H132694   6.177   4.739   6.126
10917TIP3    H232695   6.236   4.762   5.989
10918TIP3   OH232696   3.344   1.253   6.401
10918TIP3    H132697   3.282   1.219   6.466
10918TIP3    H232698   3.421   1.196   6.411
10919TIP3   OH232699   3.610   6.554   2.922
10919TIP3    H132700   3.672   6.616   2.882
10919TIP3    H232701   3.658   6.471   2.923
10920TIP3   OH232702   1.769   5.452   3.559
10920TIP3    H132703   1.676   5.430   3.566
10920TIP3    H232704   1.799   5.458   3.650
10921TIP3   OH232705   0.727   3.851   5.098
10921TIP3    H132706   0.741   3.885   5.010
10921TIP3    H232707   0.810   3.866   5.143
10922TIP3   OH232708   7.072   2.284   3.607
10922TIP3    H132709   7.157   2.275   3.564
10922TIP3    H232710   7.009   2.293   3.535
10923TIP3   OH232711   4.386   3.934   0.398
10923TIP3    H132712   4.362   3.870   0.332
10923TIP3    H232713   4.305   3.948   0.448
10924TIP3   OH232714   6.784   1.819   4.382
10924TIP3    H132715   6.772   1.851   4.293
10924TIP3    H232716   6.803   1.726   4.372
10925TIP3   OH232717   2.530   7.440   5.531
10925TIP3    H132718   2.519   7.514   5.592
10925TIP3    H232719   2.515   7.478   5.445
10926TIP3   OH232720   2.502   6.320   3.634
10926TIP3    H132721   2.516   6.381   3.706
10926TIP3    H232722   2.531   6.235   3.668
10927TIP3   OH232723   8.167   2.784   5.986
10927TIP3    H132724   8.177   2.866   5.939
10927TIP3    H232725   8.230   2.789   6.058
10928TIP3   OH232726   7.484   4.276   4.644
10928TIP3    H132727   7.490   4.252   4.736
10928TIP3    H232728   7.572   4.306   4.621
10929TIP3   OH232729   8.131   3.078   6.352
10929TIP3    H132730   8.150   3.170   6.371
10929TIP3    H232731   8.058   3.080   6.290
10930TIP3   OH232732   8.258   7.534   2.507
10930TIP3    H132733   8.243   7.439   2.510
10930TIP3    H232734   8.301   7.553   2.591
10931TIP3   OH232735   2.684   4.886   4.844
10931TIP3    H132736   2.608   4.871   4.899
10931TIP3    H232737   2.685   4.980   4.829
10932TIP3   OH232738   4.286   6.088   1.164
10932TIP3    H132739   4.224   6.055   1.229
10932TIP3    H232740   4.372   6.079   1.207
10933TIP3   OH232741   1.098   5.966   4.418
10933TIP3    H132742   1.055   6.009   4.492
10933TIP3    H232743   1.130   6.039   4.364
10934TIP3   OH232744   6.796   5.832   4.303
10934TIP3    H132745   6.835   5.917   4.284
10934TIP3    H232746   6.708   5.837   4.266
10935TIP3   OH232747   1.821   1.465   4.525
10935TIP3    H132748   1.725   1.461   4.521
10935TIP3    H232749   1.850   1.428   4.441
10936TIP3   OH232750   6.860   4.225   3.506
10936TIP3    H132751   6.856   4.142   3.554
10936TIP3    H232752   6.948   4.227   3.469
10937TIP3   OH232753   7.647   7.057   3.848
10937TIP3    H132754   7.705   6.987   3.878
10937TIP3    H232755   7.626   7.035   3.758
10938TIP3   OH232756   6.232   1.338   6.695
10938TIP3    H132757   6.327   1.336   6.684
10938TIP3    H232758   6.213   1.426   6.728
10939TIP3   OH232759   4.768   6.731   2.540
10939TIP3    H132760   4.782   6.661   2.476
10939TIP3    H232761   4.799   6.810   2.496
10940TIP3   OH232762   6.568   4.990   0.907
10940TIP3    H132763   6.493   4.931   0.919
10940TIP3    H232764   6.569   5.008   0.813
10941TIP3   OH232765   7.436   6.577   4.797
10941TIP3    H132766   7.387   6.583   4.715
10941TIP3    H232767   7.373   6.603   4.864
10942TIP3   OH232768   7.737   0.616   4.317
10942TIP3    H132769   7.642   0.606   4.313
10942TIP3    H232770   7.759   0.671   4.243
10943TIP3   OH232771   5.126   2.936   5.508
10943TIP3    H132772   5.040   2.972   5.527
10943TIP3    H232773   5.186   3.009   5.518
10944TIP3   OH232774   5.283   3.312   3.994
10944TIP3    H132775   5.305   3.405   3.992
10944TIP3    H232776   5.322   3.276   3.914
10945TIP3   OH232777   7.788   1.719   1.406
10945TIP3    H132778   7.822   1.631   1.388
10945TIP3    H232779   7.806   1.769   1.327
10946TIP3   OH232780   0.545   1.718   5.729
10946TIP3    H132781   0.587   1.754   5.807
10946TIP3    H232782   0.482   1.785   5.702
10947TIP3   OH232783   6.716   4.824   2.061
10947TIP3    H132784   6.697   4.741   2.105
10947TIP3    H232785   6.689   4.891   2.123
10948TIP3   OH232786   2.295   4.027   4.165
10948TIP3    H132787   2.211   4.064   4.138
10948TIP3    H232788   2.360   4.085   4.126
10949TIP3   OH232789   5.607   1.855   4.746
10949TIP3    H132790   5.651   1.850   4.831
10949TIP3    H232791   5.540   1.923   4.758
10950TIP3   OH232792   7.323   3.363   1.944
10950TIP3    H132793   7.387   3.411   1.996
10950TIP3    H232794   7.238   3.395   1.975
10951TIP3   OH232795   6.499   4.850   0.322
10951TIP3    H132796   6.442   4.774   0.307
10951TIP3    H232797   6.575   4.814   0.368
10952TIP3   OH232798   7.922   4.920   3.004
10952TIP3    H132799   7.911   4.911   2.909
10952TIP3    H232800   7.849   4.975   3.032
10953TIP3   OH232801   6.690   5.108   0.089
10953TIP3    H132802   6.710   5.200   0.072
10953TIP3    H232803   6.607   5.093   0.044
10954TIP3   OH232804   0.215   1.388   0.656
10954TIP3    H132805   0.139   1.437   0.688
10954TIP3    H232806   0.219   1.407   0.563
10955TIP3   OH232807   5.566   7.650   2.949
10955TIP3    H132808   5.580   7.584   3.018
10955TIP3    H232809   5.476   7.634   2.919
10956TIP3   OH232810   4.736   5.577   5.511
10956TIP3    H132811   4.645   5.602   5.526
10956TIP3    H232812   4.761   5.623   5.430
10957TIP3   OH232813   0.783   6.365   4.689
10957TIP3    H132814   0.863   6.374   4.741
10957TIP3    H232815   0.719   6.419   4.734
10958TIP3   OH232816   6.887   1.698   4.722
10958TIP3    H132817   6.791   1.705   4.716
10958TIP3    H232818   6.903   1.609   4.751
10959TIP3   OH232819   5.333   7.745   5.377
10959TIP3    H132820   5.295   7.809   5.437
10959TIP3    H232821   5.312   7.778   5.290
10960TIP3   OH232822   0.752   4.847   4.449
10960TIP3    H132823   0.782   4.933   4.417
10960TIP3    H232824   0.678   4.826   4.393
10961TIP3   OH232825   6.828   6.774   2.985
10961TIP3    H132826   6.863   6.689   2.957
10961TIP3    H232827   6.733   6.766   2.974
10962TIP3   OH232828   0.331   7.394   6.347
10962TIP3    H132829   0.262   7.342   6.388
10962TIP3    H232830   0.331   7.366   6.255
10963TIP3   OH232831   8.039   1.932   5.914
10963TIP3    H132832   8.091   2.009   5.936
10963TIP3    H232833   8.075   1.902   5.831
10964TIP3   OH232834   6.150   3.698   3.251
10964TIP3    H132835   6.069   3.661   3.285
10964TIP3    H232836   6.127   3.788   3.226
10965TIP3   OH232837   3.672   4.992   4.528
10965TIP3    H132838   3.754   5.038   4.508
10965TIP3    H232839   3.700   4.906   4.559
10966TIP3   OH232840   1.092   5.122   6.314
10966TIP3    H132841   1.123   5.038   6.282
10966TIP3    H232842   1.133   5.187   6.257
10967TIP3   OH232843   7.706   7.303   2.004
10967TIP3    H132844   7.781   7.352   2.038
10967TIP3    H232845   7.694   7.336   1.915
10968TIP3   OH232846   7.508   5.765   4.532
10968TIP3    H132847   7.493   5.718   4.450
10968TIP3    H232848   7.470   5.709   4.599
10969TIP3   OH232849   6.723   1.927   5.563
10969TIP3    H132850   6.637   1.946   5.599
10969TIP3    H232851   6.746   2.005   5.513
10970TIP3   OH232852   3.810   4.056   2.516
10970TIP3    H132853   3.890   4.107   2.530
10970TIP3    H232854   3.742   4.106   2.560
10971TIP3   OH232855   2.871   1.384   4.769
10971TIP3    H132856   2.787   1.353   4.805
10971TIP3    H232857   2.919   1.417   4.845
10972TIP3   OH232858   7.017   2.708   2.365
10972TIP3    H132859   6.998   2.740   2.453
10972TIP3    H232860   7.047   2.786   2.317
10973TIP3   OH232861   1.946   5.934   2.630
10973TIP3    H132862   1.961   5.917   2.537
10973TIP3    H232863   1.887   5.864   2.658
10974TIP3   OH232864   0.553   2.102   1.465
10974TIP3    H132865   0.602   2.021   1.482
10974TIP3    H232866   0.601   2.170   1.513
10975TIP3   OH232867   6.940   1.051   5.129
10975TIP3    H132868   6.852   1.086   5.115
10975TIP3    H232869   6.927   0.970   5.178
10976TIP3   OH232870   1.831   3.956   0.963
10976TIP3    H132871   1.849   4.033   0.910
10976TIP3    H232872   1.910   3.942   1.015
10977TIP3   OH232873   2.775   0.598   0.908
10977TIP3    H132874   2.712   0.586   0.978
10977TIP3    H232875   2.724   0.631   0.834
10978TIP3   OH232876   2.498   5.597   6.215
10978TIP3    H132877   2.592   5.591   6.194
10978TIP3    H232878   2.475   5.509   6.245
10979TIP3   OH232879   0.745   7.592   0.474
10979TIP3    H132880   0.797   7.555   0.402
10979TIP3    H232881   0.799   7.663   0.509
10980TIP3   OH232882   6.053   3.034   6.180
10980TIP3    H132883   6.016   3.037   6.092
10980TIP3    H232884   5.988   3.079   6.235
10981TIP3   OH232885   6.251   1.876   1.150
10981TIP3    H132886   6.310   1.803   1.167
10981TIP3    H232887   6.228   1.867   1.058
10982TIP3   OH232888   6.325   1.706   2.744
10982TIP3    H132889   6.382   1.656   2.801
10982TIP3    H232890   6.237   1.693   2.779
10983TIP3   OH232891   6.848   4.655   6.346
10983TIP3    H132892   6.905   4.584   6.317
10983TIP3    H232893   6.908   4.718   6.387
10984TIP3   OH232894   5.846   6.629   4.749
10984TIP3    H132895   5.758   6.606   4.778
10984TIP3    H232896   5.840   6.721   4.725
10985TIP3   OH232897   4.688   5.229   3.833
10985TIP3    H132898   4.647   5.245   3.748
10985TIP3    H232899   4.628   5.267   3.896
10986TIP3   OH232900   6.955   4.676   1.479
10986TIP3    H132901   6.933   4.750   1.534
10986TIP3    H232902   7.038   4.644   1.513
10987TIP3   OH232903   5.735   5.042   5.721
10987TIP3    H132904   5.824   5.028   5.752
10987TIP3    H232905   5.745   5.097   5.643
10988TIP3   OH232906   7.478   5.946   1.695
10988TIP3    H132907   7.495   6.032   1.658
10988TIP3    H232908   7.396   5.918   1.655
10989TIP3   OH232909   7.947   7.029   2.740
10989TIP3    H132910   7.995   6.971   2.681
10989TIP3    H232911   7.913   6.971   2.808
10990TIP3   OH232912   6.569   2.272   0.583
10990TIP3    H132913   6.636   2.332   0.552
10990TIP3    H232914   6.566   2.285   0.678
10991TIP3   OH232915   2.912   3.662   0.333
10991TIP3    H132916   2.860   3.696   0.405
10991TIP3    H232917   2.857   3.593   0.294
10992TIP3   OH232918   4.020   4.220   2.589
10992TIP3    H132919   4.070   4.272   2.527
10992TIP3    H232920   4.072   4.222   2.670
10993TIP3   OH232921   7.288   0.506   6.453
10993TIP3    H132922   7.334   0.421   6.450
10993TIP3    H232923   7.199   0.484   6.482
10994TIP3   OH232924   6.854   0.851   4.561
10994TIP3    H132925   6.775   0.810   4.527
10994TIP3    H232926   6.821   0.914   4.626
10995TIP3   OH232927   5.291   1.517   1.917
10995TIP3    H132928   5.285   1.594   1.860
10995TIP3    H232929   5.201   1.503   1.947
10996TIP3   OH232930   5.208   2.555   3.712
10996TIP3    H132931   5.235   2.647   3.706
10996TIP3    H232932   5.162   2.549   3.795
10997TIP3   OH232933   1.271   7.548   5.761
10997TIP3    H132934   1.261   7.597   5.680
10997TIP3    H232935   1.334   7.598   5.812
10998TIP3   OH232936   7.938   6.875   2.249
10998TIP3    H132937   7.931   6.784   2.219
10998TIP3    H232938   8.026   6.902   2.221
10999TIP3   OH232939   7.901   4.845   3.674
10999TIP3    H132940   7.869   4.935   3.676
10999TIP3    H232941   7.936   4.830   3.762
11000TIP3   OH232942   6.840   2.832   5.618
11000TIP3    H132943   6.765   2.776   5.595
11000TIP3    H232944   6.905   2.771   5.653
11001TIP3   OH232945   0.284   6.528   1.361
11001TIP3    H132946   0.310   6.484   1.280
11001TIP3    H232947   0.311   6.468   1.430
11002TIP3   OH232948   4.083   4.660   1.149
11002TIP3    H132949   4.125   4.743   1.127
11002TIP3    H232950   4.046   4.674   1.236
11003TIP3   OH232951   0.452   4.815   6.694
11003TIP3    H132952   0.451   4.727   6.656
11003TIP3    H232953   0.483   4.803   6.784
11004TIP3   OH232954   0.898   4.451   5.407
11004TIP3    H132955   0.841   4.525   5.429
11004TIP3    H232956   0.986   4.489   5.401
11005TIP3   OH232957   3.372   6.185   4.522
11005TIP3    H132958   3.447   6.243   4.536
11005TIP3    H232959   3.309   6.238   4.473
11006TIP3   OH232960   6.287   0.177   0.705
11006TIP3    H132961   6.286   0.231   0.626
11006TIP3    H232962   6.245   0.095   0.678
11007TIP3   OH232963   4.015   6.308   0.758
11007TIP3    H132964   3.952   6.238   0.774
11007TIP3    H232965   4.096   6.263   0.734
11008TIP3   OH232966   7.918   1.473   1.375
11008TIP3    H132967   7.852   1.413   1.341
11008TIP3    H232968   7.984   1.415   1.415
11009TIP3   OH232969   4.378   3.152   6.471
11009TIP3    H132970   4.461   3.147   6.519
11009TIP3    H232971   4.348   3.061   6.468
11010TIP3   OH232972   1.457   2.215   6.297
11010TIP3    H132973   1.534   2.253   6.339
11010TIP3    H232974   1.388   2.222   6.363
11011TIP3   OH232975   2.130   4.935   2.819
11011TIP3    H132976   2.035   4.929   2.820
11011TIP3    H232977   2.155   4.943   2.911
11012TIP3   OH232978   0.955   3.743   4.515
11012TIP3    H132979   0.988   3.654   4.500
11012TIP3    H232980   1.029   3.799   4.493
11013TIP3   OH232981   4.950   0.538   6.804
11013TIP3    H132982   4.968   0.542   6.898
11013TIP3    H232983   4.994   0.614   6.767
11014TIP3   OH232984   7.565   3.386   3.648
11014TIP3    H132985   7.626   3.458   3.631
11014TIP3    H232986   7.565   3.334   3.568
11015TIP3   OH232987   6.488   2.260   6.142
11015TIP3    H132988   6.502   2.320   6.215
11015TIP3    H232989   6.394   2.265   6.125
11016TIP3   OH232990   7.002   1.220   1.052
11016TIP3    H132991   6.974   1.182   0.968
11016TIP3    H232992   7.091   1.187   1.063
11017TIP3   OH232993   3.773   1.378   5.009
11017TIP3    H132994   3.755   1.375   4.915
11017TIP3    H232995   3.818   1.462   5.021
11018TIP3   OH232996   2.358   4.552   5.593
11018TIP3    H132997   2.444   4.518   5.568
11018TIP3    H232998   2.320   4.585   5.512
11019TIP3   OH232999   4.644   4.428   2.191
11019TIP3    H133000   4.648   4.372   2.268
11019TIP3    H233001   4.647   4.517   2.225
11020TIP3   OH233002   4.187   6.615   5.215
11020TIP3    H133003   4.242   6.550   5.172
11020TIP3    H233004   4.125   6.563   5.267
11021TIP3   OH233005   8.215   5.306   0.359
11021TIP3    H133006   8.244   5.393   0.332
11021TIP3    H233007   8.292   5.250   0.344
11022TIP3   OH233008   4.332   1.024   5.608
11022TIP3    H133009   4.375   0.989   5.530
11022TIP3    H233010   4.404   1.044   5.668
11023TIP3   OH233011   2.323   3.046   2.102
11023TIP3    H133012   2.271   3.034   2.181
11023TIP3    H233013   2.261   3.034   2.030
11024TIP3   OH233014   2.429   7.602   2.552
11024TIP3    H133015   2.473   7.607   2.637
11024TIP3    H233016   2.437   7.509   2.527
11025TIP3   OH233017   3.333   0.735   2.577
11025TIP3    H133018   3.311   0.695   2.493
11025TIP3    H233019   3.298   0.824   2.571
11026TIP3   OH233020   5.968   1.834   6.749
11026TIP3    H133021   5.962   1.914   6.801
11026TIP3    H233022   5.907   1.848   6.677
11027TIP3   OH233023   2.440   5.768   2.141
11027TIP3    H133024   2.370   5.827   2.171
11027TIP3    H233025   2.403   5.680   2.151
11028TIP3   OH233026   6.639   1.146   1.397
11028TIP3    H133027   6.686   1.076   1.442
11028TIP3    H233028   6.553   1.108   1.378
11029TIP3   OH233029   1.576   5.248   3.959
11029TIP3    H133030   1.514   5.305   4.005
11029TIP3    H233031   1.646   5.232   4.022
11030TIP3   OH233032   0.256   6.757   6.185
11030TIP3    H133033   0.169   6.793   6.201
11030TIP3    H233034   0.253   6.727   6.093
11031TIP3   OH233035   4.216   4.622   3.967
11031TIP3    H133036   4.165   4.676   3.907
11031TIP3    H233037   4.278   4.683   4.007
11032TIP3   OH233038   4.189   3.444   3.395
11032TIP3    H133039   4.226   3.430   3.482
11032TIP3    H233040   4.133   3.522   3.404
11033TIP3   OH233041   3.000   1.534   5.808
11033TIP3    H133042   3.058   1.565   5.878
11033TIP3    H233043   2.934   1.602   5.799
11034TIP3   OH233044   3.724   1.192   2.794
11034TIP3    H133045   3.788   1.247   2.840
11034TIP3    H233046   3.766   1.106   2.789
11035TIP3   OH233047   4.182   6.273   4.565
11035TIP3    H133048   4.238   6.289   4.641
11035TIP3    H233049   4.243   6.251   4.495
11036TIP3   OH233050   1.646   4.938   5.124
11036TIP3    H133051   1.639   4.853   5.081
11036TIP3    H233052   1.697   4.991   5.063
11037TIP3   OH233053   3.752   5.459   1.445
11037TIP3    H133054   3.823   5.501   1.395
11037TIP3    H233055   3.771   5.482   1.536
11038TIP3   OH233056   2.633   0.792   5.507
11038TIP3    H133057   2.561   0.854   5.499
11038TIP3    H233058   2.707   0.845   5.539
11039TIP3   OH233059   4.622   0.720   1.597
11039TIP3    H133060   4.668   0.638   1.578
11039TIP3    H233061   4.535   0.707   1.561
11040TIP3   OH233062   4.512   7.511   3.160
11040TIP3    H133063   4.601   7.482   3.184
11040TIP3    H233064   4.489   7.456   3.085
11041TIP3   OH233065   0.963   3.752   2.259
11041TIP3    H133066   0.896   3.818   2.278
11041TIP3    H233067   1.015   3.747   2.339
11042TIP3   OH233068   6.916   6.668   2.588
11042TIP3    H133069   6.829   6.702   2.612
11042TIP3    H233070   6.976   6.715   2.645
11043TIP3   OH233071   2.974  -0.012   4.596
11043TIP3    H133072   2.957   0.041   4.674
11043TIP3    H233073   2.968   0.049   4.523
11044TIP3   OH233074   3.542   4.207   0.460
11044TIP3    H133075   3.507   4.135   0.408
11044TIP3    H233076   3.507   4.192   0.548
11045TIP3   OH233077   6.555   4.039   4.602
11045TIP3    H133078   6.517   4.125   4.585
11045TIP3    H233079   6.648   4.049   4.583
11046TIP3   OH233080   6.298   6.156   0.688
11046TIP3    H133081   6.303   6.097   0.764
11046TIP3    H233082   6.360   6.226   0.707
11047TIP3   OH233083   4.419   4.810   6.401
11047TIP3    H133084   4.379   4.774   6.322
11047TIP3    H233085   4.512   4.820   6.378
11048TIP3   OH233086   4.442   2.139   2.717
11048TIP3    H133087   4.357   2.140   2.761
11048TIP3    H233088   4.499   2.191   2.773
11049TIP3   OH233089   1.511   6.885   6.569
11049TIP3    H133090   1.471   6.909   6.653
11049TIP3    H233091   1.511   6.966   6.518
11050TIP3   OH233092   5.258   3.374   1.500
11050TIP3    H133093   5.173   3.332   1.489
11050TIP3    H233094   5.243   3.444   1.563
11051TIP3   OH233095   4.529   7.307   5.570
11051TIP3    H133096   4.508   7.214   5.580
11051TIP3    H233097   4.503   7.328   5.480
11052TIP3   OH233098   1.802   0.265   0.236
11052TIP3    H133099   1.802   0.178   0.276
11052TIP3    H233100   1.733   0.312   0.283
11053TIP3   OH233101   1.621   3.966   1.401
11053TIP3    H133102   1.550   3.922   1.447
11053TIP3    H233103   1.645   4.039   1.459
11054TIP3   OH233104   7.865   3.672   0.587
11054TIP3    H133105   7.842   3.727   0.512
11054TIP3    H233106   7.947   3.710   0.620
11055TIP3   OH233107   2.316   1.013   1.278
11055TIP3    H133108   2.269   1.094   1.259
11055TIP3    H233109   2.254   0.943   1.254
11056TIP3   OH233110   2.396   5.032   1.402
11056TIP3    H133111   2.406   5.126   1.386
11056TIP3    H233112   2.301   5.018   1.404
11057TIP3   OH233113   7.101   7.435   2.768
11057TIP3    H133114   7.078   7.368   2.833
11057TIP3    H233115   7.150   7.500   2.818
11058TIP3   OH233116   8.026   5.148   6.254
11058TIP3    H133117   7.986   5.098   6.325
11058TIP3    H233118   8.116   5.165   6.284
11059TIP3   OH233119   2.860   6.420   0.642
11059TIP3    H133120   2.821   6.333   0.644
11059TIP3    H233121   2.847   6.454   0.730
11060TIP3   OH233122   2.850   5.458   5.599
11060TIP3    H133123   2.819   5.526   5.540
11060TIP3    H233124   2.937   5.486   5.626
11061TIP3   OH233125   8.212   2.607   2.960
11061TIP3    H133126   8.258   2.542   3.013
11061TIP3    H233127   8.172   2.666   3.023
11062TIP3   OH233128   6.755   6.906   2.075
11062TIP3    H133129   6.703   6.827   2.065
11062TIP3    H233130   6.739   6.955   1.994
11063TIP3   OH233131   3.282   4.172   2.745
11063TIP3    H133132   3.337   4.235   2.792
11063TIP3    H233133   3.281   4.094   2.802
11064TIP3   OH233134   4.568   0.239   2.824
11064TIP3    H133135   4.510   0.306   2.786
11064TIP3    H233136   4.541   0.158   2.781
11065TIP3   OH233137   4.530   1.938   3.651
11065TIP3    H133138   4.569   2.016   3.612
11065TIP3    H233139   4.455   1.918   3.594
11066TIP3   OH233140   5.097   7.322   3.365
11066TIP3    H133141   5.057   7.362   3.288
11066TIP3    H233142   5.026   7.270   3.404
11067TIP3   OH233143   3.318   5.008   5.538
11067TIP3    H133144   3.408   4.996   5.566
11067TIP3    H233145   3.321   5.082   5.477
11068TIP3   OH233146   1.809   5.343   6.630
11068TIP3    H133147   1.788   5.383   6.715
11068TIP3    H233148   1.725   5.340   6.584
11069TIP3   OH233149   0.236   5.782   2.453
11069TIP3    H133150   0.291   5.817   2.523
11069TIP3    H233151   0.205   5.859   2.406
11070TIP3   OH233152   4.765   5.163   1.142
11070TIP3    H133153   4.848   5.155   1.188
11070TIP3    H233154   4.785   5.210   1.061
11071TIP3   OH233155   6.586   7.296   5.156
11071TIP3    H133156   6.673   7.257   5.159
11071TIP3    H233157   6.536   7.247   5.221
11072TIP3   OH233158   4.357   2.056   4.909
11072TIP3    H133159   4.271   2.065   4.867
11072TIP3    H233160   4.364   1.963   4.930
11073TIP3   OH233161   0.438   3.392   2.414
11073TIP3    H133162   0.485   3.318   2.450
11073TIP3    H233163   0.402   3.360   2.331
11074TIP3   OH233164   3.017   1.617   3.915
11074TIP3    H133165   2.922   1.616   3.929
11074TIP3    H233166   3.028   1.585   3.825
11075TIP3   OH233167   1.203   7.606   0.773
11075TIP3    H133168   1.179   7.698   0.783
11075TIP3    H233169   1.163   7.562   0.848
11076TIP3   OH233170   5.609   4.770   3.287
11076TIP3    H133171   5.516   4.756   3.267
11076TIP3    H233172   5.640   4.684   3.316
11077TIP3   OH233173   0.720   7.602   4.042
11077TIP3    H133174   0.643   7.613   3.986
11077TIP3    H233175   0.684   7.591   4.130
11078TIP3   OH233176   6.563   7.400   6.649
11078TIP3    H133177   6.543   7.485   6.688
11078TIP3    H233178   6.482   7.350   6.658
11079TIP3   OH233179   7.885   0.357   6.065
11079TIP3    H133180   7.832   0.401   5.999
11079TIP3    H233181   7.881   0.414   6.142
11080TIP3   OH233182   0.745   4.269   2.227
11080TIP3    H133183   0.737   4.325   2.150
11080TIP3    H233184   0.803   4.197   2.199
11081TIP3   OH233185   4.209   0.892   0.376
11081TIP3    H133186   4.296   0.895   0.336
11081TIP3    H233187   4.220   0.929   0.463
11082TIP3   OH233188   1.783   1.248   0.302
11082TIP3    H133189   1.731   1.255   0.382
11082TIP3    H233190   1.768   1.330   0.256
11083TIP3   OH233191   7.733   3.696   6.342
11083TIP3    H133192   7.658   3.684   6.284
11083TIP3    H233193   7.809   3.676   6.287
11084TIP3   OH233194   2.336   3.134   5.484
11084TIP3    H133195   2.354   3.179   5.401
11084TIP3    H233196   2.248   3.097   5.472
11085TIP3   OH233197   2.416   2.125   6.608
11085TIP3    H133198   2.356   2.084   6.545
11085TIP3    H233199   2.359   2.180   6.662
11086TIP3   OH233200   4.331   0.423   1.976
11086TIP3    H133201   4.412   0.403   1.929
11086TIP3    H233202   4.285   0.486   1.920
11087TIP3   OH233203   5.509   4.117   1.492
11087TIP3    H133204   5.525   4.086   1.581
11087TIP3    H233205   5.452   4.193   1.503
11088TIP3   OH233206   6.922   5.738   2.801
11088TIP3    H133207   6.897   5.794   2.874
11088TIP3    H233208   7.017   5.746   2.795
11089TIP3   OH233209   1.005   3.269   3.441
11089TIP3    H133210   0.911   3.254   3.449
11089TIP3    H233211   1.013   3.358   3.407
11090TIP3   OH233212   7.249   6.329   0.335
11090TIP3    H133213   7.227   6.382   0.258
11090TIP3    H233214   7.260   6.240   0.300
11091TIP3   OH233215   2.035   7.666   0.440
11091TIP3    H133216   1.981   7.710   0.375
11091TIP3    H233217   2.058   7.734   0.503
11092TIP3   OH233218   5.365   5.195   0.447
11092TIP3    H133219   5.382   5.119   0.503
11092TIP3    H233220   5.402   5.269   0.495
11093TIP3   OH233221   7.931   7.117   4.252
11093TIP3    H133222   8.012   7.141   4.296
11093TIP3    H233223   7.872   7.092   4.323
11094TIP3   OH233224   0.426   4.387   1.583
11094TIP3    H133225   0.510   4.433   1.577
11094TIP3    H233226   0.449   4.294   1.580
11095TIP3   OH233227   6.015   7.130   2.972
11095TIP3    H133228   5.996   7.088   3.055
11095TIP3    H233229   6.087   7.079   2.935
11096TIP3   OH233230   6.153   7.313   5.724
11096TIP3    H133231   6.098   7.237   5.743
11096TIP3    H233232   6.098   7.389   5.747
11097TIP3   OH233233   7.086   1.231   2.697
11097TIP3    H133234   7.099   1.186   2.613
11097TIP3    H233235   7.169   1.275   2.713
11098TIP3   OH233236   3.747   7.349   2.443
11098TIP3    H133237   3.653   7.355   2.424
11098TIP3    H233238   3.755   7.277   2.505
11099TIP3   OH233239   7.750   4.348   4.659
11099TIP3    H133240   7.808   4.301   4.600
11099TIP3    H233241   7.803   4.368   4.736
11100TIP3   OH233242   3.739   4.445   3.191
11100TIP3    H133243   3.819   4.405   3.157
11100TIP3    H233244   3.673   4.426   3.125
11101TIP3   OH233245   5.866   1.478   2.607
11101TIP3    H133246   5.873   1.397   2.558
11101TIP3    H233247   5.786   1.467   2.659
11102TIP3   OH233248   3.191   2.947   4.475
11102TIP3    H133249   3.209   2.858   4.445
11102TIP3    H233250   3.226   2.949   4.564
11103TIP3   OH233251   2.530   1.262   0.498
11103TIP3    H133252   2.587   1.294   0.569
11103TIP3    H233253   2.509   1.340   0.447
11104TIP3   OH233254   0.716   6.387   4.219
11104TIP3    H133255   0.737   6.427   4.303
11104TIP3    H233256   0.783   6.320   4.206
11105TIP3   OH233257   5.374   3.384   2.588
11105TIP3    H133258   5.319   3.343   2.654
11105TIP3    H233259   5.315   3.442   2.540
11106TIP3   OH233260   3.369   1.683   5.408
11106TIP3    H133261   3.416   1.762   5.434
11106TIP3    H233262   3.313   1.662   5.483
11107TIP3   OH233263   1.884   0.261   5.038
11107TIP3    H133264   1.960   0.317   5.021
11107TIP3    H233265   1.890   0.240   5.132
11108TIP3   OH233266   0.944   6.500   1.000
11108TIP3    H133267   0.911   6.425   0.950
11108TIP3    H233268   1.026   6.524   0.955
11109TIP3   OH233269   4.068   6.642   1.409
11109TIP3    H133270   4.123   6.603   1.341
11109TIP3    H233271   4.064   6.735   1.386
11110TIP3   OH233272   1.435   3.259   6.536
11110TIP3    H133273   1.341   3.252   6.552
11110TIP3    H233274   1.442   3.322   6.464
11111TIP3   OH233275   4.811   2.938   5.458
11111TIP3    H133276   4.716   2.943   5.471
11111TIP3    H233277   4.836   3.027   5.431
11112TIP3   OH233278   7.090   6.895   2.967
11112TIP3    H133279   7.000   6.874   2.992
11112TIP3    H233280   7.108   6.838   2.892
11113TIP3   OH233281   6.771   0.248   4.731
11113TIP3    H133282   6.686   0.281   4.760
11113TIP3    H233283   6.834   0.314   4.759
11114TIP3   OH233284   2.437   1.197   4.110
11114TIP3    H133285   2.350   1.163   4.127
11114TIP3    H233286   2.437   1.285   4.149
11115TIP3   OH233287   3.630  -0.012   0.560
11115TIP3    H133288   3.651  -0.023   0.653
11115TIP3    H233289   3.616   0.082   0.549
11116TIP3   OH233290   6.492   1.372   6.497
11116TIP3    H133291   6.413   1.418   6.525
11116TIP3    H233292   6.516   1.414   6.414
11117TIP3   OH233293   5.774   7.579   6.351
11117TIP3    H133294   5.754   7.573   6.444
11117TIP3    H233295   5.696   7.619   6.312
11118TIP3   OH233296   2.845   2.894   3.374
11118TIP3    H133297   2.815   2.853   3.293
11118TIP3    H233298   2.874   2.822   3.429
11119TIP3   OH233299   5.882   7.511   5.113
11119TIP3    H133300   5.935   7.473   5.183
11119TIP3    H233301   5.827   7.440   5.083
11120TIP3   OH233302   2.420   1.135   2.822
11120TIP3    H133303   2.406   1.043   2.798
11120TIP3    H233304   2.414   1.182   2.740
11121TIP3   OH233305   6.146   7.692   0.013
11121TIP3    H133306   6.202   7.650   0.079
11121TIP3    H233307   6.083   7.624  -0.011
11122TIP3   OH233308   1.502   3.018   3.578
11122TIP3    H133309   1.572   3.031   3.514
11122TIP3    H233310   1.430   3.071   3.544
11123TIP3   OH233311   4.538   0.353   2.181
11123TIP3    H133312   4.585   0.418   2.234
11123TIP3    H233313   4.466   0.402   2.142
11124TIP3   OH233314   5.961   3.136   1.323
11124TIP3    H133315   5.942   3.211   1.266
11124TIP3    H233316   5.901   3.067   1.294
11125TIP3   OH233317   2.860   5.213   1.593
11125TIP3    H133318   2.772   5.234   1.625
11125TIP3    H233319   2.870   5.265   1.513
11126TIP3   OH233320   7.424   6.171   6.152
11126TIP3    H133321   7.470   6.157   6.234
11126TIP3    H233322   7.487   6.145   6.084
11127TIP3   OH233323   0.378   0.902   2.455
11127TIP3    H133324   0.305   0.955   2.426
11127TIP3    H233325   0.404   0.940   2.539
11128TIP3   OH233326   0.308   2.734   0.363
11128TIP3    H133327   0.384   2.684   0.334
11128TIP3    H233328   0.233   2.689   0.326
11129TIP3   OH233329   4.142   1.866   5.118
11129TIP3    H133330   4.148   1.790   5.060
11129TIP3    H233331   4.188   1.838   5.198
11130TIP3   OH233332   3.378   0.640   1.783
11130TIP3    H133333   3.358   0.662   1.692
11130TIP3    H233334   3.302   0.671   1.832
11131TIP3   OH233335   5.940   7.694   0.886
11131TIP3    H133336   5.864   7.688   0.828
11131TIP3    H233337   5.956   7.788   0.895
11132TIP3   OH233338   1.421   2.767   2.628
11132TIP3    H133339   1.391   2.778   2.719
11132TIP3    H233340   1.490   2.701   2.634
11133TIP3   OH233341   7.912   2.348   2.320
11133TIP3    H133342   7.842   2.381   2.376
11133TIP3    H233343   7.874   2.272   2.276
11134TIP3   OH233344   7.120   5.425   6.786
11134TIP3    H133345   7.176   5.348   6.789
11134TIP3    H233346   7.157   5.478   6.715
11135TIP3   OH233347   4.590   5.397   3.648
11135TIP3    H133348   4.513   5.439   3.687
11135TIP3    H233349   4.640   5.469   3.610
11136TIP3   OH233350   2.683   5.817   2.915
11136TIP3    H133351   2.647   5.750   2.973
11136TIP3    H233352   2.614   5.834   2.852
11137TIP3   OH233353   2.188   5.977   4.476
11137TIP3    H133354   2.128   6.013   4.411
11137TIP3    H233355   2.211   5.890   4.442
11138TIP3   OH233356   4.710   5.364   2.637
11138TIP3    H133357   4.685   5.435   2.696
11138TIP3    H233358   4.794   5.334   2.672
11139TIP3   OH233359   2.140   1.631   2.645
11139TIP3    H133360   2.161   1.724   2.642
11139TIP3    H233361   2.069   1.621   2.581
11140TIP3   OH233362   0.754   4.326   6.541
11140TIP3    H133363   0.811   4.373   6.480
11140TIP3    H233364   0.780   4.235   6.534
11141TIP3   OH233365   0.620   4.880   3.562
11141TIP3    H133366   0.578   4.961   3.592
11141TIP3    H233367   0.613   4.883   3.467
11142TIP3   OH233368   8.131   4.996   1.621
11142TIP3    H133369   8.194   5.049   1.670
11142TIP3    H233370   8.183   4.922   1.588
11143TIP3   OH233371   6.426   4.389   1.260
11143TIP3    H133372   6.414   4.450   1.333
11143TIP3    H233373   6.340   4.384   1.219
11144TIP3   OH233374   2.087   1.040   3.581
11144TIP3    H133375   2.083   1.120   3.530
11144TIP3    H233376   2.165   0.995   3.549
11145TIP3   OH233377   7.204   2.676   2.687
11145TIP3    H133378   7.254   2.650   2.610
11145TIP3    H233379   7.221   2.770   2.696
11146TIP3   OH233380   3.428   7.310   4.704
11146TIP3    H133381   3.461   7.389   4.660
11146TIP3    H233382   3.484   7.240   4.673
11147TIP3   OH233383   3.856   4.270   4.383
11147TIP3    H133384   3.842   4.358   4.349
11147TIP3    H233385   3.780   4.254   4.440
11148TIP3   OH233386   1.583   3.389   2.291
11148TIP3    H133387   1.505   3.442   2.308
11148TIP3    H233388   1.647   3.419   2.355
11149TIP3   OH233389   8.361   2.080   3.440
11149TIP3    H133390   8.306   2.025   3.384
11149TIP3    H233391   8.326   2.068   3.528
11150TIP3   OH233392   0.011   3.775   1.491
11150TIP3    H133393   0.055   3.835   1.552
11150TIP3    H233394  -0.049   3.725   1.546
11151TIP3   OH233395   6.014   6.534   2.782
11151TIP3    H133396   5.978   6.476   2.715
11151TIP3    H233397   6.080   6.481   2.826
11152TIP3   OH233398   5.033   7.173   5.182
11152TIP3    H133399   5.013   7.086   5.146
11152TIP3    H233400   5.077   7.156   5.265
11153TIP3   OH233401   7.283   0.109   4.251
11153TIP3    H133402   7.325   0.029   4.219
11153TIP3    H233403   7.277   0.165   4.173
11154TIP3   OH233404   7.488   6.187   3.355
11154TIP3    H133405   7.398   6.211   3.333
11154TIP3    H233406   7.531   6.176   3.271
11155TIP3   OH233407   7.443   4.835   3.363
11155TIP3    H133408   7.381   4.902   3.335
11155TIP3    H233409   7.497   4.818   3.286
11156TIP3   OH233410   4.520   3.907  -0.006
11156TIP3    H133411   4.565   3.860   0.064
11156TIP3    H233412   4.474   3.838  -0.055
11157TIP3   OH233413   5.280   0.856   0.518
11157TIP3    H133414   5.311   0.942   0.491
11157TIP3    H233415   5.339   0.830   0.589
11158TIP3   OH233416   0.796   5.834   1.034
11158TIP3    H133417   0.759   5.857   0.949
11158TIP3    H233418   0.886   5.808   1.015
11159TIP3   OH233419   3.004   6.474   3.448
11159TIP3    H133420   3.047   6.430   3.521
11159TIP3    H233421   3.075   6.503   3.391
11160TIP3   OH233422   0.284   3.311   4.088
11160TIP3    H133423   0.259   3.398   4.055
11160TIP3    H233424   0.212   3.285   4.145
11161TIP3   OH233425   1.046   2.871   5.919
11161TIP3    H133426   1.045   2.837   5.829
11161TIP3    H233427   0.991   2.810   5.968
11162TIP3   OH233428   7.032   6.725   1.466
11162TIP3    H133429   7.080   6.788   1.520
11162TIP3    H233430   7.085   6.645   1.470
11163TIP3   OH233431   7.644   2.126   2.640
11163TIP3    H133432   7.721   2.174   2.671
11163TIP3    H233433   7.614   2.077   2.717
11164TIP3   OH233434   3.604   5.161   1.120
11164TIP3    H133435   3.559   5.095   1.174
11164TIP3    H233436   3.556   5.159   1.037
11165TIP3   OH233437   2.085   6.855   1.055
11165TIP3    H133438   2.174   6.875   1.084
11165TIP3    H233439   2.080   6.760   1.060
11166TIP3   OH233440   3.087   5.278   4.062
11166TIP3    H133441   3.074   5.366   4.029
11166TIP3    H233442   3.058   5.221   3.990
11167TIP3   OH233443   3.078   1.546   0.145
11167TIP3    H133444   3.015   1.581   0.207
11167TIP3    H233445   3.045   1.573   0.059
11168TIP3   OH233446   0.572   7.496   6.120
11168TIP3    H133447   0.559   7.407   6.153
11168TIP3    H233448   0.486   7.522   6.086
11169TIP3   OH233449   6.967   7.094   5.640
11169TIP3    H133450   7.048   7.045   5.627
11169TIP3    H233451   6.913   7.037   5.695
11170TIP3   OH233452   6.454   5.707   4.527
11170TIP3    H133453   6.463   5.784   4.583
11170TIP3    H233454   6.537   5.702   4.479
11171TIP3   OH233455   0.240   4.324   6.563
11171TIP3    H133456   0.221   4.235   6.534
11171TIP3    H233457   0.262   4.371   6.483
11172TIP3   OH233458   4.626   6.976   3.850
11172TIP3    H133459   4.660   7.065   3.840
11172TIP3    H233460   4.632   6.958   3.943
11173TIP3   OH233461   1.827   7.401   4.271
11173TIP3    H133462   1.876   7.432   4.347
11173TIP3    H233463   1.742   7.375   4.306
11174TIP3   OH233464   4.857   7.337   4.095
11174TIP3    H133465   4.882   7.424   4.063
11174TIP3    H233466   4.805   7.300   4.023
11175TIP3   OH233467   5.251   7.296   0.805
11175TIP3    H133468   5.227   7.387   0.822
11175TIP3    H233469   5.201   7.271   0.728
11176TIP3   OH233470   6.990   4.331   2.722
11176TIP3    H133471   6.973   4.322   2.628
11176TIP3    H233472   6.947   4.413   2.746
11177TIP3   OH233473   2.213   3.324   2.161
11177TIP3    H133474   2.253   3.294   2.079
11177TIP3    H233475   2.153   3.254   2.186
11178TIP3   OH233476   3.807   4.917   1.933
11178TIP3    H133477   3.863   4.880   2.001
11178TIP3    H233478   3.841   5.006   1.920
11179TIP3   OH233479   1.001   4.417   1.531
11179TIP3    H133480   0.956   4.437   1.449
11179TIP3    H233481   1.012   4.322   1.530
11180TIP3   OH233482   7.186   4.839   2.842
11180TIP3    H133483   7.215   4.906   2.903
11180TIP3    H233484   7.232   4.859   2.760
11181TIP3   OH233485   2.370   6.053   4.105
11181TIP3    H133486   2.356   5.960   4.119
11181TIP3    H233487   2.287   6.085   4.071
11182TIP3   OH233488   4.821   6.468   6.608
11182TIP3    H133489   4.807   6.541   6.667
11182TIP3    H233490   4.853   6.507   6.527
11183TIP3   OH233491   1.762   0.852   5.071
11183TIP3    H133492   1.744   0.934   5.117
11183TIP3    H233493   1.777   0.879   4.980
11184TIP3   OH233494   0.498   3.166   6.707
11184TIP3    H133495   0.515   3.191   6.616
11184TIP3    H233496   0.452   3.083   6.701
11185TIP3   OH233497   3.769   4.943   4.164
11185TIP3    H133498   3.837   4.985   4.216
11185TIP3    H233499   3.800   4.953   4.073
11186TIP3   OH233500   3.544   4.740   3.423
11186TIP3    H133501   3.565   4.832   3.412
11186TIP3    H233502   3.572   4.720   3.513
11187TIP3   OH233503   3.077   3.157   2.967
11187TIP3    H133504   3.023   3.235   2.975
11187TIP3    H233505   3.094   3.150   2.873
11188TIP3   OH233506   2.447   5.627   2.536
11188TIP3    H133507   2.494   5.710   2.529
11188TIP3    H233508   2.488   5.582   2.610
11189TIP3   OH233509   6.612   6.628   5.780
11189TIP3    H133510   6.634   6.645   5.871
11189TIP3    H233511   6.528   6.671   5.767
11190TIP3   OH233512   4.424   6.688   0.607
11190TIP3    H133513   4.348   6.629   0.608
11190TIP3    H233514   4.387   6.775   0.624
11191TIP3   OH233515   3.974   5.652   3.155
11191TIP3    H133516   3.959   5.746   3.150
11191TIP3    H233517   3.996   5.636   3.246
11192TIP3   OH233518   3.446   3.611   6.068
11192TIP3    H133519   3.455   3.676   5.998
11192TIP3    H233520   3.497   3.536   6.038
11193TIP3   OH233521   2.365   7.199   1.293
11193TIP3    H133522   2.270   7.212   1.296
11193TIP3    H233523   2.394   7.214   1.383
11194TIP3   OH233524   1.307   3.754   3.162
11194TIP3    H133525   1.218   3.746   3.196
11194TIP3    H233526   1.352   3.810   3.224
11195TIP3   OH233527   0.118   3.567   0.874
11195TIP3    H133528   0.160   3.554   0.789
11195TIP3    H233529   0.024   3.565   0.855
11196TIP3   OH233530   6.410   6.213   3.710
11196TIP3    H133531   6.408   6.280   3.778
11196TIP3    H233532   6.333   6.232   3.656
11197TIP3   OH233533   6.322   4.009   2.290
11197TIP3    H133534   6.372   4.079   2.249
11197TIP3    H233535   6.383   3.966   2.349
11198TIP3   OH233536   5.982   4.208   1.058
11198TIP3    H133537   5.997   4.284   1.114
11198TIP3    H233538   6.003   4.237   0.970
11199TIP3   OH233539   5.306   7.705   4.953
11199TIP3    H133540   5.239   7.722   4.887
11199TIP3    H233541   5.375   7.659   4.907
11200TIP3   OH233542   4.306   0.610   0.225
11200TIP3    H133543   4.381   0.604   0.166
11200TIP3    H233544   4.248   0.673   0.183
11201TIP3   OH233545   3.318   4.122   5.669
11201TIP3    H133546   3.342   4.209   5.701
11201TIP3    H233547   3.238   4.100   5.717
11202TIP3   OH233548   1.539   7.325   4.425
11202TIP3    H133549   1.449   7.354   4.438
11202TIP3    H233550   1.533   7.255   4.361
11203TIP3   OH233551   5.994   3.763   1.425
11203TIP3    H133552   5.968   3.851   1.396
11203TIP3    H233553   5.970   3.706   1.353
11204TIP3   OH233554   6.035   2.285   0.400
11204TIP3    H133555   5.965   2.228   0.433
11204TIP3    H233556   6.106   2.275   0.463
11205TIP3   OH233557   3.918   1.313   0.443
11205TIP3    H133558   3.911   1.231   0.395
11205TIP3    H233559   3.949   1.288   0.530
11206TIP3   OH233560   4.215   0.430   3.907
11206TIP3    H133561   4.272   0.377   3.851
11206TIP3    H233562   4.261   0.433   3.991
11207TIP3   OH233563   0.716   4.847   5.721
11207TIP3    H133564   0.739   4.806   5.638
11207TIP3    H233565   0.626   4.820   5.739
11208TIP3   OH233566   7.536   4.777   0.138
11208TIP3    H133567   7.553   4.719   0.212
11208TIP3    H233568   7.588   4.855   0.158
11209TIP3   OH233569   3.406   3.093   3.866
11209TIP3    H133570   3.323   3.112   3.909
11209TIP3    H233571   3.391   3.117   3.774
11210TIP3   OH233572   4.784   2.659   0.762
11210TIP3    H133573   4.774   2.653   0.856
11210TIP3    H233574   4.740   2.582   0.727
11211TIP3   OH233575   8.198   4.167   0.334
11211TIP3    H133576   8.141   4.236   0.301
11211TIP3    H233577   8.270   4.164   0.272
11212TIP3   OH233578   4.569   5.331   0.175
11212TIP3    H133579   4.556   5.376   0.258
11212TIP3    H233580   4.617   5.251   0.198
11213TIP3   OH233581   1.526   7.106   5.329
11213TIP3    H133582   1.496   7.015   5.325
11213TIP3    H233583   1.583   7.110   5.406
11214TIP3   OH233584   5.110   6.311   4.471
11214TIP3    H133585   5.175   6.334   4.538
11214TIP3    H233586   5.152   6.244   4.419
11215TIP3   OH233587   5.877   7.608   1.466
11215TIP3    H133588   5.972   7.597   1.471
11215TIP3    H233589   5.851   7.636   1.554
11216TIP3   OH233590   0.056   0.709   2.360
11216TIP3    H133591   0.023   0.799   2.348
11216TIP3    H233592   0.089   0.684   2.274
11217TIP3   OH233593   5.714   1.809   4.392
11217TIP3    H133594   5.713   1.746   4.463
11217TIP3    H233595   5.725   1.894   4.435
11218TIP3   OH233596   6.458   7.324   2.184
11218TIP3    H133597   6.437   7.315   2.091
11218TIP3    H233598   6.374   7.345   2.226
11219TIP3   OH233599   7.164   6.922  -0.024
11219TIP3    H133600   7.142   6.840   0.021
11219TIP3    H233601   7.082   6.950  -0.065
11220TIP3   OH233602   3.823   4.785   5.925
11220TIP3    H133603   3.742   4.817   5.964
11220TIP3    H233604   3.837   4.700   5.968
11221TIP3   OH233605   2.649   4.206   6.318
11221TIP3    H133606   2.594   4.133   6.287
11221TIP3    H233607   2.647   4.269   6.247
11222TIP3   OH233608   2.396   3.202   4.861
11222TIP3    H133609   2.383   3.251   4.780
11222TIP3    H233610   2.349   3.120   4.847
11223TIP3   OH233611   3.464   5.750   0.662
11223TIP3    H133612   3.556   5.740   0.688
11223TIP3    H233613   3.463   5.734   0.568
11224TIP3   OH233614   6.387   0.443   5.981
11224TIP3    H133615   6.405   0.360   6.024
11224TIP3    H233616   6.294   0.440   5.960
11225TIP3   OH233617   5.785   6.797  -0.017
11225TIP3    H133618   5.847   6.750   0.038
11225TIP3    H233619   5.773   6.881   0.027
11226TIP3   OH233620   3.847   0.793   3.151
11226TIP3    H133621   3.753   0.808   3.159
11226TIP3    H233622   3.855   0.698   3.140
11227TIP3   OH233623   4.741   5.608   3.573
11227TIP3    H133624   4.748   5.704   3.568
11227TIP3    H233625   4.793   5.576   3.499
11228TIP3   OH233626   7.605   4.577   2.706
11228TIP3    H133627   7.667   4.531   2.762
11228TIP3    H233628   7.520   4.538   2.727
11229TIP3   OH233629   5.471   1.489   4.459
11229TIP3    H133630   5.411   1.417   4.439
11229TIP3    H233631   5.517   1.461   4.538
11230TIP3   OH233632   4.530   5.780   2.433
11230TIP3    H133633   4.462   5.775   2.366
11230TIP3    H233634   4.611   5.757   2.386
11231TIP3   OH233635   4.959   6.258   1.668
11231TIP3    H133636   4.896   6.264   1.740
11231TIP3    H233637   4.913   6.208   1.600
11232TIP3   OH233638   0.673   6.501   6.649
11232TIP3    H133639   0.691   6.411   6.623
11232TIP3    H233640   0.752   6.529   6.695
11233TIP3   OH233641   1.645   2.538   5.771
11233TIP3    H133642   1.735   2.510   5.788
11233TIP3    H233643   1.602   2.535   5.856
11234TIP3   OH233644   0.384   7.311   1.460
11234TIP3    H133645   0.477   7.332   1.464
11234TIP3    H233646   0.341   7.396   1.450
11235TIP3   OH233647   0.960   6.372   4.910
11235TIP3    H133648   0.992   6.454   4.874
11235TIP3    H233649   1.023   6.349   4.978
11236TIP3   OH233650   1.769   5.161   4.135
11236TIP3    H133651   1.827   5.237   4.124
11236TIP3    H233652   1.826   5.092   4.170
11237TIP3   OH233653   2.803   7.494   3.003
11237TIP3    H133654   2.868   7.555   2.968
11237TIP3    H233655   2.826   7.485   3.095
11238TIP3   OH233656   3.257   0.467   2.036
11238TIP3    H133657   3.199   0.541   2.053
11238TIP3    H233658   3.273   0.429   2.123
11239TIP3   OH233659   5.193   7.709   0.216
11239TIP3    H133660   5.124   7.651   0.247
11239TIP3    H233661   5.175   7.793   0.258
11240TIP3   OH233662   3.997   0.009   1.875
11240TIP3    H133663   4.091  -0.012   1.882
11240TIP3    H233664   3.995   0.102   1.853
11241TIP3   OH233665   7.030   2.015   0.764
11241TIP3    H133666   6.942   2.047   0.783
11241TIP3    H233667   7.019   1.921   0.750
11242TIP3   OH233668   7.894   7.212   0.682
11242TIP3    H133669   7.836   7.286   0.666
11242TIP3    H233670   7.845   7.155   0.742
11243TIP3   OH233671   2.566   2.497   5.031
11243TIP3    H133672   2.509   2.421   5.047
11243TIP3    H233673   2.517   2.571   5.067
11244TIP3   OH233674   0.815   6.959   1.878
11244TIP3    H133675   0.905   6.926   1.878
11244TIP3    H233676   0.823   7.051   1.900
11245TIP3   OH233677   8.120   0.438   6.222
11245TIP3    H133678   8.114   0.527   6.187
11245TIP3    H233679   8.126   0.383   6.144
11246TIP3   OH233680   4.991   2.582   3.565
11246TIP3    H133681   5.079   2.582   3.601
11246TIP3    H233682   4.974   2.490   3.542
11247TIP3   OH233683   2.052   7.489   2.590
11247TIP3    H133684   2.139   7.465   2.622
11247TIP3    H233685   2.001   7.508   2.669
11248TIP3   OH233686   2.696   6.621   4.997
11248TIP3    H133687   2.774   6.675   5.012
11248TIP3    H233688   2.726   6.554   4.936
11249TIP3   OH233689   4.029   4.340   4.636
11249TIP3    H133690   4.021   4.400   4.562
11249TIP3    H233691   4.068   4.261   4.598
11250TIP3   OH233692   2.332   6.663   4.815
11250TIP3    H133693   2.413   6.663   4.764
11250TIP3    H233694   2.267   6.701   4.756
11251TIP3   OH233695   3.202   6.607   5.281
11251TIP3    H133696   3.284   6.566   5.254
11251TIP3    H233697   3.207   6.696   5.247
11252TIP3   OH233698   4.716   3.712   0.592
11252TIP3    H133699   4.623   3.687   0.595
11252TIP3    H233700   4.717   3.795   0.544
11253TIP3   OH233701   5.600   1.285   0.223
11253TIP3    H133702   5.649   1.356   0.264
11253TIP3    H233703   5.656   1.257   0.151
11254TIP3   OH233704   4.184   5.294   1.941
11254TIP3    H133705   4.234   5.258   2.014
11254TIP3    H233706   4.164   5.218   1.886
11255TIP3   OH233707   7.640   7.266   5.073
11255TIP3    H133708   7.589   7.298   5.147
11255TIP3    H233709   7.731   7.287   5.095
11256TIP3   OH233710   3.893   2.344   4.076
11256TIP3    H133711   3.967   2.377   4.026
11256TIP3    H233712   3.817   2.361   4.020
11257TIP3   OH233713   0.239   7.652   2.381
11257TIP3    H133714   0.176   7.712   2.339
11257TIP3    H233715   0.216   7.655   2.474
11258TIP3   OH233716   2.320   2.793   1.189
11258TIP3    H133717   2.301   2.755   1.275
11258TIP3    H233718   2.251   2.859   1.176
11259TIP3   OH233719   1.193   3.246   2.332
11259TIP3    H133720   1.162   3.156   2.335
11259TIP3    H233721   1.158   3.282   2.251
11260TIP3   OH233722   6.474   3.497   5.631
11260TIP3    H133723   6.510   3.500   5.720
11260TIP3    H233724   6.536   3.443   5.583
11261TIP3   OH233725   3.420   0.293   5.041
11261TIP3    H133726   3.438   0.205   5.076
11261TIP3    H233727   3.483   0.350   5.084
11262TIP3   OH233728   8.088   3.517   5.721
11262TIP3    H133729   8.031   3.441   5.738
11262TIP3    H233730   8.034   3.593   5.744
11263TIP3   OH233731   5.239   3.564   0.498
11263TIP3    H133732   5.159   3.616   0.490
11263TIP3    H233733   5.286   3.580   0.417
11264TIP3   OH233734   5.573   1.921   2.677
11264TIP3    H133735   5.553   1.883   2.763
11264TIP3    H233736   5.511   1.994   2.668
11265TIP3   OH233737   5.397   6.991   2.560
11265TIP3    H133738   5.381   6.898   2.544
11265TIP3    H233739   5.311   7.027   2.582
11266TIP3   OH233740   1.173   0.965   1.537
11266TIP3    H133741   1.151   1.008   1.455
11266TIP3    H233742   1.264   0.988   1.552
11267TIP3   OH233743   4.214   6.618   0.130
11267TIP3    H133744   4.258   6.533   0.135
11267TIP3    H233745   4.201   6.632   0.037
11268TIP3   OH233746   7.147   3.497   4.719
11268TIP3    H133747   7.127   3.484   4.626
11268TIP3    H233748   7.093   3.433   4.764
11269TIP3   OH233749   7.930   5.439   6.291
11269TIP3    H133750   7.857   5.433   6.229
11269TIP3    H233751   8.007   5.412   6.241
11270TIP3   OH233752   7.993   4.517   1.994
11270TIP3    H133753   7.929   4.464   2.043
11270TIP3    H233754   7.995   4.476   1.907
11271TIP3   OH233755   6.280   2.414   5.875
11271TIP3    H133756   6.288   2.503   5.909
11271TIP3    H233757   6.296   2.422   5.781
11272TIP3   OH233758   1.959   5.551   4.461
11272TIP3    H133759   1.921   5.520   4.544
11272TIP3    H233760   2.031   5.490   4.443
11273TIP3   OH233761   7.003   1.408   2.903
11273TIP3    H133762   7.034   1.341   2.843
11273TIP3    H233763   7.006   1.366   2.989
11274TIP3   OH233764   6.481   5.214   4.665
11274TIP3    H133765   6.502   5.132   4.619
11274TIP3    H233766   6.412   5.254   4.612
11275TIP3   OH233767   6.196   6.786   5.303
11275TIP3    H133768   6.105   6.812   5.295
11275TIP3    H233769   6.236   6.813   5.220
11276TIP3   OH233770   1.914   5.967   1.532
11276TIP3    H133771   1.838   5.999   1.484
11276TIP3    H233772   1.963   5.916   1.467
11277TIP3   OH233773   1.247   0.194   1.071
11277TIP3    H133774   1.258   0.137   0.995
11277TIP3    H233775   1.247   0.283   1.035
11278TIP3   OH233776   1.034   1.181   1.374
11278TIP3    H133777   1.078   1.208   1.455
11278TIP3    H233778   1.040   1.258   1.317
11279TIP3   OH233779   4.567   7.019   2.118
11279TIP3    H133780   4.555   7.027   2.213
11279TIP3    H233781   4.511   6.946   2.093
11280TIP3   OH233782   2.232   5.173   3.862
11280TIP3    H133783   2.138   5.157   3.865
11280TIP3    H233784   2.254   5.174   3.769
11281TIP3   OH233785   1.368   3.032   4.285
11281TIP3    H133786   1.281   3.058   4.316
11281TIP3    H233787   1.358   3.022   4.191
11282TIP3   OH233788   1.656   7.118   5.593
11282TIP3    H133789   1.618   7.200   5.625
11282TIP3    H233790   1.704   7.083   5.668
11283TIP3   OH233791   6.408   4.162   6.763
11283TIP3    H133792   6.362   4.222   6.822
11283TIP3    H233793   6.340   4.127   6.706
11284TIP3   OH233794   5.889   0.056   4.698
11284TIP3    H133795   5.794   0.065   4.699
11284TIP3    H233796   5.914   0.052   4.790
11285TIP3   OH233797   0.994   1.725   0.700
11285TIP3    H133798   1.037   1.807   0.719
11285TIP3    H233799   0.901   1.747   0.694
11286TIP3   OH233800   0.550   1.110   6.232
11286TIP3    H133801   0.526   1.201   6.251
11286TIP3    H233802   0.477   1.058   6.265
11287TIP3   OH233803   5.940   2.080   3.437
11287TIP3    H133804   5.858   2.092   3.485
11287TIP3    H233805   5.927   2.125   3.354
11288TIP3   OH233806   0.281   2.968   3.916
11288TIP3    H133807   0.210   2.904   3.910
11288TIP3    H233808   0.360   2.915   3.928
11289TIP3   OH233809   0.470   4.716   5.711
11289TIP3    H133810   0.501   4.630   5.683
11289TIP3    H233811   0.441   4.759   5.630
11290TIP3   OH233812   5.592   7.306   1.296
11290TIP3    H133813   5.671   7.259   1.271
11290TIP3    H233814   5.603   7.393   1.257
11291TIP3   OH233815   5.627   4.024   4.517
11291TIP3    H133816   5.711   4.023   4.473
11291TIP3    H233817   5.636   4.092   4.585
11292TIP3   OH233818   0.585   1.686   4.760
11292TIP3    H133819   0.539   1.602   4.765
11292TIP3    H233820   0.638   1.679   4.681
11293TIP3   OH233821   4.510   1.339   2.396
11293TIP3    H133822   4.524   1.252   2.434
11293TIP3    H233823   4.509   1.324   2.301
11294TIP3   OH233824   3.644   3.648   0.142
11294TIP3    H133825   3.713   3.587   0.113
11294TIP3    H233826   3.580   3.593   0.186
11295TIP3   OH233827   7.493   0.456   1.512
11295TIP3    H133828   7.424   0.394   1.537
11295TIP3    H233829   7.508   0.439   1.419
11296TIP3   OH233830   5.466   1.868   3.532
11296TIP3    H133831   5.458   1.933   3.602
11296TIP3    H233832   5.387   1.880   3.479
11297TIP3   OH233833   0.695   0.391   5.590
11297TIP3    H133834   0.613   0.391   5.638
11297TIP3    H233835   0.688   0.465   5.529
11298TIP3   OH233836   0.220   7.473   0.593
11298TIP3    H133837   0.229   7.568   0.588
11298TIP3    H233838   0.224   7.444   0.502
11299TIP3   OH233839   3.077   4.454   0.278
11299TIP3    H133840   3.117   4.409   0.204
11299TIP3    H233841   3.099   4.546   0.265
11300TIP3   OH233842   3.971   3.464   0.217
11300TIP3    H133843   4.003   3.504   0.136
11300TIP3    H233844   4.039   3.402   0.242
11301TIP3   OH233845   1.085   0.108   1.802
11301TIP3    H133846   1.019   0.152   1.749
11301TIP3    H233847   1.129   0.048   1.742
11302TIP3   OH233848   3.470   6.575   0.225
11302TIP3    H133849   3.561   6.593   0.202
11302TIP3    H233850   3.424   6.657   0.208
11303TIP3   OH233851   0.369   3.548   6.729
11303TIP3    H133852   0.304   3.571   6.663
11303TIP3    H233853   0.449   3.591   6.700
11304TIP3   OH233854   3.094   4.200   3.969
11304TIP3    H133855   3.028   4.258   4.006
11304TIP3    H233856   3.123   4.146   4.042
11305TIP3   OH233857   5.010   2.284   3.721
11305TIP3    H133858   5.023   2.189   3.721
11305TIP3    H233859   4.936   2.298   3.780
11306TIP3   OH233860   3.682   4.750   3.167
11306TIP3    H133861   3.712   4.668   3.206
11306TIP3    H233862   3.588   4.738   3.154
11307TIP3   OH233863   4.011   7.207   1.381
11307TIP3    H133864   4.100   7.172   1.379
11307TIP3    H233865   3.981   7.189   1.470
11308TIP3   OH233866   7.943   3.749   5.787
11308TIP3    H133867   7.993   3.767   5.867
11308TIP3    H233868   7.854   3.732   5.819
11309TIP3   OH233869   7.791   6.647   1.723
11309TIP3    H133870   7.742   6.567   1.744
11309TIP3    H233871   7.859   6.618   1.662
11310TIP3   OH233872   6.488   3.001   1.204
11310TIP3    H133873   6.451   3.022   1.119
11310TIP3    H233874   6.553   3.069   1.220
11311TIP3   OH233875   4.940   5.597   3.362
11311TIP3    H133876   4.922   5.532   3.295
11311TIP3    H233877   4.897   5.677   3.330
11312TIP3   OH233878   6.611   6.383   6.370
11312TIP3    H133879   6.652   6.346   6.292
11312TIP3    H233880   6.578   6.468   6.342
11313TIP3   OH233881   3.494   1.893   0.755
11313TIP3    H133882   3.452   1.978   0.765
11313TIP3    H233883   3.495   1.856   0.844
11314TIP3   OH233884   1.333   0.308   6.655
11314TIP3    H133885   1.287   0.390   6.674
11314TIP3    H233886   1.419   0.336   6.623
11315TIP3   OH233887   7.129   2.814   5.748
11315TIP3    H133888   7.167   2.879   5.690
11315TIP3    H233889   7.167   2.833   5.834
11316TIP3   OH233890   0.408   6.981   1.688
11316TIP3    H133891   0.396   6.900   1.639
11316TIP3    H233892   0.334   6.984   1.749
11317TIP3   OH233893   4.061   3.395   3.921
11317TIP3    H133894   4.064   3.439   4.006
11317TIP3    H233895   4.107   3.455   3.862
11318TIP3   OH233896   4.945   3.960   1.544
11318TIP3    H133897   4.854   3.961   1.516
11318TIP3    H233898   4.996   3.977   1.465
11319TIP3   OH233899   4.898   5.151   3.494
11319TIP3    H133900   4.890   5.219   3.561
11319TIP3    H233901   4.978   5.103   3.518
11320TIP3   OH233902   2.537   0.276   1.648
11320TIP3    H133903   2.475   0.313   1.711
11320TIP3    H233904   2.623   0.305   1.680
11321TIP3   OH233905   6.171   4.653   5.416
11321TIP3    H133906   6.169   4.747   5.399
11321TIP3    H233907   6.263   4.633   5.432
11322TIP3   OH233908   5.776   2.852   0.368
11322TIP3    H133909   5.715   2.877   0.298
11322TIP3    H233910   5.863   2.859   0.328
11323TIP3   OH233911   7.274   7.238   3.371
11323TIP3    H133912   7.298   7.301   3.438
11323TIP3    H233913   7.307   7.154   3.403
11324TIP3   OH233914   2.900   7.167   6.205
11324TIP3    H133915   2.872   7.077   6.189
11324TIP3    H233916   2.983   7.159   6.251
11325TIP3   OH233917   7.086   6.711   0.129
11325TIP3    H133918   7.086   6.759   0.212
11325TIP3    H233919   7.096   6.619   0.154
11326TIP3   OH233920   5.122   0.782   3.357
11326TIP3    H133921   5.061   0.842   3.315
11326TIP3    H233922   5.111   0.797   3.450
11327TIP3   OH233923   8.234   2.134   5.957
11327TIP3    H133924   8.286   2.131   6.037
11327TIP3    H233925   8.188   2.217   5.962
11328TIP3   OH233926   3.314   6.898   1.096
11328TIP3    H133927   3.262   6.917   1.018
11328TIP3    H233928   3.317   6.982   1.143
11329TIP3   OH233929   7.343   0.335   3.794
11329TIP3    H133930   7.360   0.381   3.876
11329TIP3    H233931   7.407   0.371   3.732
11330TIP3   OH233932   3.838   7.626   0.356
11330TIP3    H133933   3.823   7.539   0.395
11330TIP3    H233934   3.883   7.607   0.273
11331TIP3   OH233935   6.605   7.673   2.634
11331TIP3    H133936   6.561   7.604   2.584
11331TIP3    H233937   6.692   7.679   2.593
11332TIP3   OH233938   4.187   5.087   0.160
11332TIP3    H133939   4.201   5.105   0.067
11332TIP3    H233940   4.255   5.022   0.182
11333TIP3   OH233941   5.599   0.990   0.225
11333TIP3    H133942   5.576   1.083   0.232
11333TIP3    H233943   5.569   0.965   0.138
11334TIP3   OH233944   3.506   1.775   6.292
11334TIP3    H133945   3.510   1.683   6.320
11334TIP3    H233946   3.594   1.809   6.308
11335TIP3   OH233947   0.302   6.403   5.377
11335TIP3    H133948   0.387   6.410   5.419
11335TIP3    H233949   0.239   6.407   5.449
11336TIP3   OH233950   7.835   1.366   2.267
11336TIP3    H133951   7.915   1.315   2.283
11336TIP3    H233952   7.773   1.302   2.231
11337TIP3   OH233953   0.979   7.340   3.647
11337TIP3    H133954   1.030   7.404   3.696
11337TIP3    H233955   0.891   7.345   3.686
11338TIP3   OH233956   3.417   3.371   5.522
11338TIP3    H133957   3.502   3.414   5.516
11338TIP3    H233958   3.433   3.292   5.572
11339TIP3   OH233959   7.518   3.796   1.144
11339TIP3    H133960   7.470   3.796   1.228
11339TIP3    H233961   7.450   3.779   1.078
11340TIP3   OH233962   6.965   3.781   0.336
11340TIP3    H133963   6.939   3.858   0.388
11340TIP3    H233964   6.918   3.791   0.253
11341TIP3   OH233965   5.805   1.911   2.536
11341TIP3    H133966   5.829   1.988   2.588
11341TIP3    H233967   5.715   1.891   2.562
11342TIP3   OH233968   4.004   4.152   1.254
11342TIP3    H133969   4.051   4.138   1.171
11342TIP3    H233970   4.036   4.082   1.311
11343TIP3   OH233971   8.145   6.558   1.142
11343TIP3    H133972   8.211   6.541   1.075
11343TIP3    H233973   8.069   6.590   1.092
11344TIP3   OH233974   7.191   2.473   3.967
11344TIP3    H133975   7.243   2.417   3.908
11344TIP3    H233976   7.140   2.411   4.020
11345TIP3   OH233977   0.272   7.767   0.554
11345TIP3    H133978   0.214   7.842   0.548
11345TIP3    H233979   0.325   7.783   0.632
11346TIP3   OH233980   5.388   6.651   1.008
11346TIP3    H133981   5.430   6.735   0.989
11346TIP3    H233982   5.391   6.604   0.924
11347TIP3   OH233983   5.550   5.804   1.462
11347TIP3    H133984   5.518   5.724   1.503
11347TIP3    H233985   5.529   5.873   1.524
11348TIP3   OH233986   0.067   6.688   1.294
11348TIP3    H133987  -0.022   6.654   1.299
11348TIP3    H233988   0.123   6.612   1.304
11349TIP3   OH233989   2.764   3.553   1.256
11349TIP3    H133990   2.846   3.585   1.294
11349TIP3    H233991   2.709   3.631   1.252
11350TIP3   OH233992   2.225   4.616   5.373
11350TIP3    H133993   2.199   4.647   5.286
11350TIP3    H233994   2.176   4.672   5.434
11351TIP3   OH233995   2.687   2.609   0.705
11351TIP3    H133996   2.751   2.667   0.663
11351TIP3    H233997   2.650   2.662   0.776
11352TIP3   OH233998   5.692   6.143   5.122
11352TIP3    H133999   5.715   6.111   5.209
11352TIP3    H234000   5.775   6.149   5.076
11353TIP3   OH234001   0.463   5.514   1.208
11353TIP3    H134002   0.485   5.422   1.195
11353TIP3    H234003   0.443   5.521   1.302
11354TIP3   OH234004   2.293   2.603   3.118
11354TIP3    H134005   2.330   2.523   3.080
11354TIP3    H234006   2.292   2.666   3.045
11355TIP3   OH234007   5.458   2.351   0.951
11355TIP3    H134008   5.424   2.339   0.862
11355TIP3    H234009   5.539   2.299   0.953
11356TIP3   OH234010   5.230   7.171   1.052
11356TIP3    H134011   5.236   7.204   0.963
11356TIP3    H234012   5.214   7.249   1.105
11357TIP3   OH234013   2.265   0.493   6.229
11357TIP3    H134014   2.262   0.560   6.160
11357TIP3    H234015   2.357   0.485   6.251
11358TIP3   OH234016   6.824   4.880   0.491
11358TIP3    H134017   6.834   4.882   0.396
11358TIP3    H234018   6.904   4.921   0.525
11359TIP3   OH234019   4.185   1.171   1.256
11359TIP3    H134020   4.270   1.127   1.248
11359TIP3    H234021   4.147   1.136   1.336
11360TIP3   OH234022   6.546   3.997   5.456
11360TIP3    H134023   6.586   4.014   5.371
11360TIP3    H234024   6.619   3.970   5.512
11361TIP3   OH234025   2.656   3.726   0.440
11361TIP3    H134026   2.632   3.816   0.416
11361TIP3    H234027   2.599   3.671   0.386
11362TIP3   OH234028   6.792   4.999   3.869
11362TIP3    H134029   6.710   4.969   3.830
11362TIP3    H234030   6.769   5.023   3.959
11363TIP3   OH234031   3.905   5.557   6.101
11363TIP3    H134032   3.979   5.547   6.040
11363TIP3    H234033   3.899   5.473   6.145
11364TIP3   OH234034   2.843   7.630   2.030
11364TIP3    H134035   2.781   7.703   2.025
11364TIP3    H234036   2.925   7.665   1.994
11365TIP3   OH234037   7.333   6.724   5.004
11365TIP3    H134038   7.276   6.778   5.059
11365TIP3    H234039   7.405   6.700   5.062
11366TIP3   OH234040   1.609   1.850   2.351
11366TIP3    H134041   1.549   1.778   2.369
11366TIP3    H234042   1.641   1.834   2.263
11367TIP3   OH234043   0.037   6.901   3.969
11367TIP3    H134044  -0.030   6.891   4.037
11367TIP3    H234045   0.031   6.820   3.918
11368TIP3   OH234046   5.900   4.928   1.565
11368TIP3    H134047   5.984   4.882   1.564
11368TIP3    H234048   5.918   5.014   1.526
11369TIP3   OH234049   7.700   7.509   5.763
11369TIP3    H134050   7.783   7.499   5.810
11369TIP3    H234051   7.672   7.598   5.782
11370TIP3   OH234052   6.539   2.599   6.193
11370TIP3    H134053   6.612   2.544   6.223
11370TIP3    H234054   6.571   2.689   6.201
11371TIP3   OH234055   7.639   5.475   5.758
11371TIP3    H134056   7.732   5.466   5.776
11371TIP3    H234057   7.632   5.553   5.703
11372TIP3   OH234058   1.886   0.757   1.276
11372TIP3    H134059   1.898   0.712   1.192
11372TIP3    H234060   1.907   0.691   1.342
11373TIP3   OH234061   7.356   3.332   5.492
11373TIP3    H134062   7.435   3.345   5.440
11373TIP3    H234063   7.381   3.267   5.558
11374TIP3   OH234064   6.218   1.042   4.893
11374TIP3    H134065   6.232   0.949   4.875
11374TIP3    H234066   6.124   1.050   4.910
11375TIP3   OH234067   0.724   5.692   5.783
11375TIP3    H134068   0.740   5.617   5.841
11375TIP3    H234069   0.776   5.673   5.705
11376TIP3   OH234070   0.939   2.301   5.361
11376TIP3    H134071   0.857   2.256   5.341
11376TIP3    H234072   0.937   2.314   5.456
11377TIP3   OH234073   5.853   5.930   1.617
11377TIP3    H134074   5.847   5.863   1.549
11377TIP3    H234075   5.853   6.013   1.569
11378TIP3   OH234076   5.679   7.620   6.620
11378TIP3    H134077   5.701   7.676   6.695
11378TIP3    H234078   5.683   7.531   6.654
11379TIP3   OH234079   7.813   3.392   1.940
11379TIP3    H134080   7.842   3.404   1.849
11379TIP3    H234081   7.843   3.304   1.964
11380TIP3   OH234082   3.552   6.121   3.167
11380TIP3    H134083   3.516   6.205   3.197
11380TIP3    H234084   3.556   6.067   3.246
11381TIP3   OH234085   3.236   4.084   0.659
11381TIP3    H134086   3.245   4.045   0.573
11381TIP3    H234087   3.312   4.053   0.708
11382TIP3   OH234088   6.607   7.383   6.385
11382TIP3    H134089   6.615   7.402   6.479
11382TIP3    H234090   6.531   7.325   6.379
11383TIP3   OH234091   5.177   1.077   5.070
11383TIP3    H134092   5.157   1.059   5.162
11383TIP3    H234093   5.167   0.992   5.026
11384TIP3   OH234094   4.727   5.937   0.455
11384TIP3    H134095   4.769   5.855   0.481
11384TIP3    H234096   4.755   6.000   0.522
11385TIP3   OH234097   0.020   2.403   4.067
11385TIP3    H134098   0.014   2.457   4.146
11385TIP3    H234099   0.110   2.372   4.066
11386TIP3   OH234100   5.706   6.113   3.237
11386TIP3    H134101   5.692   6.124   3.143
11386TIP3    H234102   5.660   6.187   3.276
11387TIP3   OH234103   7.109   2.717   3.679
11387TIP3    H134104   7.025   2.741   3.639
11387TIP3    H234105   7.119   2.778   3.751
11388TIP3   OH234106   1.868   7.144   2.620
11388TIP3    H134107   1.850   7.050   2.621
11388TIP3    H234108   1.852   7.173   2.710
11389TIP3   OH234109   7.712   4.150   6.321
11389TIP3    H134110   7.657   4.169   6.397
11389TIP3    H234111   7.774   4.085   6.353
11390TIP3   OH234112   1.082   6.391   3.811
11390TIP3    H134113   1.075   6.326   3.741
11390TIP3    H234114   1.102   6.473   3.765
11391TIP3   OH234115   6.822   6.478   5.704
11391TIP3    H134116   6.896   6.513   5.753
11391TIP3    H234117   6.769   6.555   5.684
11392TIP3   OH234118   3.974   6.259   5.091
11392TIP3    H134119   3.938   6.346   5.079
11392TIP3    H234120   3.983   6.224   5.002
11393TIP3   OH234121   1.218   1.961   1.217
11393TIP3    H134122   1.173   1.879   1.241
11393TIP3    H234123   1.182   2.026   1.277
11394TIP3   OH234124   3.464   7.368   3.590
11394TIP3    H134125   3.454   7.462   3.607
11394TIP3    H234126   3.546   7.345   3.634
11395TIP3   OH234127   5.919   4.457   2.219
11395TIP3    H134128   6.013   4.468   2.225
11395TIP3    H234129   5.898   4.472   2.127
11396TIP3   OH234130   6.153   3.850   5.220
11396TIP3    H134131   6.157   3.911   5.294
11396TIP3    H234132   6.245   3.830   5.201
11397TIP3   OH234133   3.560   0.273   3.802
11397TIP3    H134134   3.502   0.252   3.875
11397TIP3    H234135   3.505   0.262   3.724
11398TIP3   OH234136   2.461   6.525   0.613
11398TIP3    H134137   2.387   6.566   0.569
11398TIP3    H234138   2.509   6.480   0.544
11399TIP3   OH234139   8.251   5.147   0.051
11399TIP3    H134140   8.223   5.231   0.090
11399TIP3    H234141   8.242   5.084   0.123
11400TIP3   OH234142   2.384   0.188   3.731
11400TIP3    H134143   2.435   0.248   3.785
11400TIP3    H234144   2.296   0.191   3.769
11401TIP3   OH234145   3.369   3.602   0.275
11401TIP3    H134146   3.365   3.510   0.300
11401TIP3    H234147   3.316   3.647   0.341
11402TIP3   OH234148   1.246   0.281   2.823
11402TIP3    H134149   1.293   0.304   2.903
11402TIP3    H234150   1.200   0.200   2.845
11403TIP3   OH234151   1.476   4.216   0.248
11403TIP3    H134152   1.450   4.191   0.337
11403TIP3    H234153   1.547   4.279   0.261
11404TIP3   OH234154   1.749   0.132   1.724
11404TIP3    H134155   1.756   0.211   1.671
11404TIP3    H234156   1.837   0.096   1.726
11405TIP3   OH234157   0.705   0.075   3.190
11405TIP3    H134158   0.705   0.052   3.283
11405TIP3    H234159   0.794   0.106   3.173
11406TIP3   OH234160   3.350   0.777   3.455
11406TIP3    H134161   3.336   0.713   3.385
11406TIP3    H234162   3.310   0.858   3.422
11407TIP3   OH234163   1.358   1.534   4.560
11407TIP3    H134164   1.314   1.476   4.622
11407TIP3    H234165   1.314   1.618   4.571
11408TIP3   OH234166   0.405   0.757   0.826
11408TIP3    H134167   0.460   0.833   0.844
11408TIP3    H234168   0.327   0.793   0.784
11409TIP3   OH234169   7.203   1.524   6.196
11409TIP3    H134170   7.153   1.455   6.239
11409TIP3    H234171   7.159   1.605   6.221
11410TIP3   OH234172   2.775   7.095   1.398
11410TIP3    H134173   2.809   7.094   1.488
11410TIP3    H234174   2.713   7.168   1.397
11411TIP3   OH234175   7.738   5.238   0.387
11411TIP3    H134176   7.811   5.297   0.405
11411TIP3    H234177   7.727   5.242   0.292
11412TIP3   OH234178   4.846   0.317   5.647
11412TIP3    H134179   4.862   0.230   5.609
11412TIP3    H234180   4.788   0.360   5.585
11413TIP3   OH234181   1.029   6.956   5.923
11413TIP3    H134182   1.084   7.032   5.942
11413TIP3    H234183   1.087   6.895   5.878
11414TIP3   OH234184   1.289   7.320   2.849
11414TIP3    H134185   1.344   7.334   2.926
11414TIP3    H234186   1.319   7.237   2.813
11415TIP3   OH234187   2.450   5.407   4.610
11415TIP3    H134188   2.439   5.404   4.515
11415TIP3    H234189   2.373   5.454   4.642
11416TIP3   OH234190   3.235   1.617   1.744
11416TIP3    H134191   3.254   1.675   1.671
11416TIP3    H234192   3.145   1.639   1.770
11417TIP3   OH234193   2.869   1.434   1.527
11417TIP3    H134194   2.781   1.430   1.489
11417TIP3    H234195   2.917   1.492   1.468
11418TIP3   OH234196   7.228   4.663   5.092
11418TIP3    H134197   7.225   4.588   5.033
11418TIP3    H234198   7.153   4.652   5.150
11419TIP3   OH234199   3.797   3.165   6.556
11419TIP3    H134200   3.857   3.092   6.569
11419TIP3    H234201   3.714   3.125   6.535
11420TIP3   OH234202   4.284   0.860   3.922
11420TIP3    H134203   4.257   0.816   3.842
11420TIP3    H234204   4.359   0.809   3.954
11421TIP3   OH234205   2.879   4.288   5.966
11421TIP3    H134206   2.845   4.222   6.026
11421TIP3    H234207   2.926   4.349   6.022
11422TIP3   OH234208   4.542   2.906   0.443
11422TIP3    H134209   4.525   2.812   0.435
11422TIP3    H234210   4.633   2.911   0.473
11423TIP3   OH234211   3.933   0.741   3.693
11423TIP3    H134212   4.028   0.739   3.706
11423TIP3    H234213   3.902   0.656   3.725
11424TIP3   OH234214   0.091   2.164   1.717
11424TIP3    H134215   0.010   2.207   1.692
11424TIP3    H234216   0.066   2.105   1.789
11425TIP3   OH234217   3.596   4.882   5.330
11425TIP3    H134218   3.568   4.798   5.365
11425TIP3    H234219   3.528   4.906   5.267
11426TIP3   OH234220   0.986   2.541   0.233
11426TIP3    H134221   0.969   2.625   0.190
11426TIP3    H234222   1.078   2.522   0.213
11427TIP3   OH234223   6.057   0.476   1.348
11427TIP3    H134224   6.077   0.407   1.411
11427TIP3    H234225   6.002   0.434   1.283
11428TIP3   OH234226   4.823   4.832   0.952
11428TIP3    H134227   4.850   4.888   0.878
11428TIP3    H234228   4.894   4.841   1.015
11429TIP3   OH234229   0.344   0.137   0.039
11429TIP3    H134230   0.404   0.070   0.070
11429TIP3    H234231   0.394   0.218   0.044
11430TIP3   OH234232   0.496   4.167   4.209
11430TIP3    H134233   0.431   4.165   4.278
11430TIP3    H234234   0.565   4.107   4.239
11431TIP3   OH234235   1.435   3.431   6.296
11431TIP3    H134236   1.381   3.501   6.333
11431TIP3    H234237   1.487   3.475   6.229
11432TIP3   OH234238   3.943   5.620   2.343
11432TIP3    H134239   4.012   5.681   2.317
11432TIP3    H234240   3.937   5.557   2.271
11433TIP3   OH234241   3.004   0.556   2.201
11433TIP3    H134242   2.950   0.634   2.184
11433TIP3    H234243   2.956   0.485   2.158
11434TIP3   OH234244   6.547   4.296   2.540
11434TIP3    H134245   6.591   4.246   2.471
11434TIP3    H234246   6.506   4.229   2.596
11435TIP3   OH234247   2.439   0.165   0.595
11435TIP3    H134248   2.399   0.223   0.660
11435TIP3    H234249   2.370   0.102   0.574
11436TIP3   OH234250   6.487   1.840   4.407
11436TIP3    H134251   6.448   1.877   4.486
11436TIP3    H234252   6.578   1.822   4.432
11437TIP3   OH234253   0.554   0.758   4.687
11437TIP3    H134254   0.534   0.746   4.779
11437TIP3    H234255   0.514   0.843   4.664
11438TIP3   OH234256   5.488   3.282   1.628
11438TIP3    H134257   5.467   3.291   1.721
11438TIP3    H234258   5.474   3.370   1.592
11439TIP3   OH234259   1.926   0.748   0.095
11439TIP3    H134260   1.934   0.653   0.107
11439TIP3    H234261   1.832   0.764   0.100
11440TIP3   OH234262   1.661   0.000   0.728
11440TIP3    H134263   1.572  -0.021   0.699
11440TIP3    H234264   1.648   0.055   0.806
11441TIP3   OH234265   1.512   1.806   2.734
11441TIP3    H134266   1.523   1.873   2.802
11441TIP3    H234267   1.599   1.794   2.698
11442TIP3   OH234268   1.583   4.549   5.831
11442TIP3    H134269   1.540   4.563   5.915
11442TIP3    H234270   1.646   4.621   5.823
11443TIP3   OH234271   8.119   4.696   0.063
11443TIP3    H134272   8.024   4.695   0.075
11443TIP3    H234273   8.152   4.751   0.134
11444TIP3   OH234274   2.941   2.592   3.741
11444TIP3    H134275   2.850   2.606   3.770
11444TIP3    H234276   2.952   2.653   3.668
11445TIP3   OH234277   6.059   1.575   3.829
11445TIP3    H134278   6.085   1.632   3.901
11445TIP3    H234279   5.967   1.555   3.846
11446TIP3   OH234280   4.309   2.798   5.649
11446TIP3    H134281   4.405   2.792   5.641
11446TIP3    H234282   4.293   2.885   5.685
11447TIP3   OH234283   7.027   7.465   0.173
11447TIP3    H134284   6.997   7.552   0.198
11447TIP3    H234285   6.958   7.430   0.117
11448TIP3   OH234286   0.315   4.227   2.752
11448TIP3    H134287   0.234   4.203   2.707
11448TIP3    H234288   0.286   4.269   2.833
11449TIP3   OH234289   6.707   0.982   4.245
11449TIP3    H134290   6.653   1.054   4.277
11449TIP3    H234291   6.788   1.023   4.215
11450TIP3   OH234292   0.830   6.522   6.061
11450TIP3    H134293   0.875   6.438   6.072
11450TIP3    H234294   0.755   6.517   6.120
11451TIP3   OH234295   5.002   6.998   3.244
11451TIP3    H134296   4.946   7.049   3.302
11451TIP3    H234297   5.019   7.055   3.169
11452TIP3   OH234298   1.048   3.404   2.529
11452TIP3    H134299   1.124   3.453   2.559
11452TIP3    H234300   1.067   3.382   2.438
11453TIP3   OH234301   4.778   6.686   1.896
11453TIP3    H134302   4.800   6.763   1.844
11453TIP3    H234303   4.861   6.643   1.913
11454TIP3   OH234304   5.228   5.699   4.882
11454TIP3    H134305   5.315   5.680   4.917
11454TIP3    H234306   5.194   5.614   4.855
11455TIP3   OH234307   1.371   2.793   6.418
11455TIP3    H134308   1.429   2.755   6.352
11455TIP3    H234309   1.332   2.869   6.376
11456TIP3   OH234310   3.872   1.910   2.283
11456TIP3    H134311   3.946   1.969   2.268
11456TIP3    H234312   3.796   1.959   2.253
11457TIP3   OH234313   2.052   5.201   0.855
11457TIP3    H134314   2.032   5.142   0.927
11457TIP3    H234315   1.971   5.251   0.840
11458TIP3   OH234316   0.465   4.848   2.825
11458TIP3    H134317   0.484   4.807   2.909
11458TIP3    H234318   0.408   4.785   2.780
11459TIP3   OH234319   0.142   4.094   1.201
11459TIP3    H134320   0.135   4.015   1.147
11459TIP3    H234321   0.052   4.109   1.232
11460TIP3   OH234322   0.840   7.339   0.817
11460TIP3    H134323   0.824   7.250   0.785
11460TIP3    H234324   0.785   7.347   0.895
11461TIP3   OH234325   4.906   1.226   0.366
11461TIP3    H134326   4.874   1.275   0.442
11461TIP3    H234327   4.987   1.270   0.341
11462TIP3   OH234328   4.558   3.260   2.148
11462TIP3    H134329   4.478   3.312   2.148
11462TIP3    H234330   4.528   3.169   2.149
11463TIP3   OH234331   0.319   2.348   1.651
11463TIP3    H134332   0.244   2.295   1.679
11463TIP3    H234333   0.282   2.409   1.586
11464TIP3   OH234334   7.584   6.943   3.219
11464TIP3    H134335   7.622   6.974   3.136
11464TIP3    H234336   7.500   6.906   3.194
11465TIP3   OH234337   4.985   3.389   1.417
11465TIP3    H134338   4.892   3.371   1.406
11465TIP3    H234339   5.024   3.366   1.332
11466TIP3   OH234340   3.818   6.200   6.016
11466TIP3    H134341   3.826   6.236   6.104
11466TIP3    H234342   3.727   6.172   6.009
11467TIP3   OH234343   6.462   4.557   1.919
11467TIP3    H134344   6.410   4.605   1.854
11467TIP3    H234345   6.396   4.513   1.973
11468TIP3   OH234346   0.983   2.878   4.819
11468TIP3    H134347   0.912   2.821   4.789
11468TIP3    H234348   0.973   2.881   4.914
11469TIP3   OH234349   7.708   4.156   5.067
11469TIP3    H134350   7.677   4.244   5.090
11469TIP3    H234351   7.628   4.108   5.045
11470TIP3   OH234352   4.846   2.669   3.781
11470TIP3    H134353   4.904   2.624   3.718
11470TIP3    H234354   4.788   2.722   3.727
11471TIP3   OH234355   4.594   5.097   5.889
11471TIP3    H134356   4.602   5.007   5.857
11471TIP3    H234357   4.561   5.088   5.979
11472TIP3   OH234358   0.788   1.925   0.683
11472TIP3    H134359   0.725   1.960   0.746
11472TIP3    H234360   0.869   1.972   0.701
11473TIP3   OH234361   8.238   6.469   6.112
11473TIP3    H134362   8.242   6.519   6.193
11473TIP3    H234363   8.299   6.397   6.125
11474TIP3   OH234364   3.591   7.140   2.941
11474TIP3    H134365   3.509   7.163   2.984
11474TIP3    H234366   3.585   7.045   2.929
11475TIP3   OH234367   4.472   2.719   6.255
11475TIP3    H134368   4.470   2.623   6.252
11475TIP3    H234369   4.464   2.745   6.163
11476TIP3   OH234370   4.149   0.418   6.632
11476TIP3    H134371   4.201   0.491   6.599
11476TIP3    H234372   4.096   0.391   6.558
11477TIP3   OH234373   7.485   1.290   0.953
11477TIP3    H134374   7.477   1.368   1.009
11477TIP3    H234375   7.506   1.324   0.867
11478TIP3   OH234376   1.952   4.213   2.482
11478TIP3    H134377   1.960   4.281   2.415
11478TIP3    H234378   2.027   4.226   2.539
11479TIP3   OH234379   5.179   4.485   5.786
11479TIP3    H134380   5.255   4.447   5.831
11479TIP3    H234381   5.110   4.420   5.795
11480TIP3   OH234382   0.693   4.621   4.600
11480TIP3    H134383   0.715   4.699   4.550
11480TIP3    H234384   0.715   4.644   4.691
11481TIP3   OH234385   1.920   2.397   1.427
11481TIP3    H134386   1.867   2.336   1.376
11481TIP3    H234387   1.935   2.471   1.367
11482TIP3   OH234388   0.358   6.634   4.922
11482TIP3    H134389   0.363   6.601   4.832
11482TIP3    H234390   0.329   6.725   4.912
11483TIP3   OH234391   6.580   0.495   4.177
11483TIP3    H134392   6.569   0.492   4.081
11483TIP3    H234393   6.498   0.462   4.211
11484TIP3   OH234394   8.185   2.856   4.280
11484TIP3    H134395   8.101   2.847   4.235
11484TIP3    H234396   8.244   2.893   4.214
11485TIP3   OH234397   7.546   0.400   5.177
11485TIP3    H134398   7.490   0.392   5.100
11485TIP3    H234399   7.486   0.400   5.251
11486TIP3   OH234400   3.553   6.906   1.624
11486TIP3    H134401   3.471   6.955   1.632
11486TIP3    H234402   3.599   6.949   1.552
11487TIP3   OH234403   2.778   2.456   3.512
11487TIP3    H134404   2.712   2.405   3.559
11487TIP3    H234405   2.766   2.545   3.543
11488TIP3   OH234406   5.194   0.656   6.121
11488TIP3    H134407   5.132   0.724   6.096
11488TIP3    H234408   5.143   0.575   6.122
11489TIP3   OH234409   7.660   1.673   0.300
11489TIP3    H134410   7.712   1.658   0.221
11489TIP3    H234411   7.601   1.598   0.306
11490TIP3   OH234412   2.551   6.685   1.087
11490TIP3    H134413   2.624   6.744   1.105
11490TIP3    H234414   2.555   6.619   1.157
11491TIP3   OH234415   6.286   1.833   5.091
11491TIP3    H134416   6.363   1.866   5.137
11491TIP3    H234417   6.220   1.823   5.160
11492TIP3   OH234418   8.146   4.404   2.564
11492TIP3    H134419   8.058   4.399   2.527
11492TIP3    H234420   8.200   4.443   2.495
11493TIP3   OH234421   7.183   4.573   1.548
11493TIP3    H134422   7.234   4.628   1.607
11493TIP3    H234423   7.244   4.504   1.521
11494TIP3   OH234424   2.741   1.767   1.631
11494TIP3    H134425   2.755   1.806   1.544
11494TIP3    H234426   2.717   1.676   1.613
11495TIP3   OH234427   3.984   2.706   4.849
11495TIP3    H134428   4.075   2.680   4.866
11495TIP3    H234429   3.978   2.714   4.754
11496TIP3   OH234430   4.164   4.877   0.883
11496TIP3    H134431   4.192   4.967   0.867
11496TIP3    H234432   4.083   4.885   0.933
11497TIP3   OH234433   6.833   2.915   3.047
11497TIP3    H134434   6.897   2.981   3.020
11497TIP3    H234435   6.769   2.912   2.976
11498TIP3   OH234436   1.775   0.041   1.397
11498TIP3    H134437   1.723  -0.004   1.464
11498TIP3    H234438   1.865   0.012   1.413
11499TIP3   OH234439   7.821   0.788   2.575
11499TIP3    H134440   7.726   0.775   2.579
11499TIP3    H234441   7.841   0.788   2.482
11500TIP3   OH234442   0.387   6.521   2.817
11500TIP3    H134443   0.354   6.532   2.728
11500TIP3    H234444   0.352   6.596   2.866
11501TIP3   OH234445   3.870   6.900   3.478
11501TIP3    H134446   3.806   6.858   3.536
11501TIP3    H234447   3.922   6.956   3.536
11502TIP3   OH234448   1.781   5.549   6.296
11502TIP3    H134449   1.828   5.630   6.278
11502TIP3    H234450   1.812   5.487   6.230
11503TIP3   OH234451   1.835   5.951   2.177
11503TIP3    H134452   1.769   5.942   2.107
11503TIP3    H234453   1.907   5.895   2.148
11504TIP3   OH234454   7.176   4.529   0.638
11504TIP3    H134455   7.165   4.444   0.682
11504TIP3    H234456   7.263   4.524   0.599
11505TIP3   OH234457   6.482   4.080   4.273
11505TIP3    H134458   6.509   4.160   4.318
11505TIP3    H234459   6.465   4.107   4.183
11506TIP3   OH234460   3.311   3.634   3.285
11506TIP3    H134461   3.348   3.596   3.365
11506TIP3    H234462   3.381   3.628   3.220
11507TIP3   OH234463   5.185   7.216   4.626
11507TIP3    H134464   5.216   7.271   4.554
11507TIP3    H234465   5.206   7.127   4.599
11508TIP3   OH234466   0.194   7.049   4.627
11508TIP3    H134467   0.121   7.042   4.690
11508TIP3    H234468   0.262   7.095   4.676
11509TIP3   OH234469   2.914   5.665   2.960
11509TIP3    H134470   2.868   5.743   2.929
11509TIP3    H234471   2.877   5.593   2.908
11510TIP3   OH234472   6.090   4.379   0.440
11510TIP3    H134473   6.024   4.359   0.506
11510TIP3    H234474   6.133   4.296   0.423
11511TIP3   OH234475   6.598   3.779   6.493
11511TIP3    H134476   6.603   3.697   6.542
11511TIP3    H234477   6.583   3.845   6.560
11512TIP3   OH234478   2.440   4.809   2.430
11512TIP3    H134479   2.498   4.739   2.458
11512TIP3    H234480   2.388   4.830   2.508
11513TIP3   OH234481   6.433   7.229   4.430
11513TIP3    H134482   6.465   7.283   4.502
11513TIP3    H234483   6.412   7.145   4.471
11514TIP3   OH234484   1.992   0.493   1.410
11514TIP3    H134485   1.955   0.438   1.341
11514TIP3    H234486   2.053   0.435   1.456
11515TIP3   OH234487   1.211   7.205   3.268
11515TIP3    H134488   1.269   7.130   3.264
11515TIP3    H234489   1.153   7.195   3.192
11516TIP3   OH234490   4.247   6.849   4.064
11516TIP3    H134491   4.170   6.792   4.060
11516TIP3    H234492   4.321   6.789   4.072
11517TIP3   OH234493   2.004   6.740   2.671
11517TIP3    H134494   2.088   6.702   2.700
11517TIP3    H234495   2.006   6.829   2.706
11518TIP3   OH234496   2.794   0.103   1.656
11518TIP3    H134497   2.779   0.011   1.681
11518TIP3    H234498   2.784   0.103   1.561
11519TIP3   OH234499   3.552   3.592   1.302
11519TIP3    H134500   3.592   3.639   1.375
11519TIP3    H234501   3.612   3.519   1.285
11520TIP3   OH234502   0.847   7.352   5.459
11520TIP3    H134503   0.768   7.362   5.511
11520TIP3    H234504   0.919   7.350   5.522
11521TIP3   OH234505   2.436   6.409   4.647
11521TIP3    H134506   2.524   6.409   4.686
11521TIP3    H234507   2.426   6.321   4.611
11522TIP3   OH234508   5.001   3.645   4.824
11522TIP3    H134509   4.955   3.640   4.740
11522TIP3    H234510   4.962   3.577   4.877
11523TIP3   OH234511   0.050   4.793   6.129
11523TIP3    H134512   0.128   4.835   6.166
11523TIP3    H234513  -0.023   4.828   6.181
11524TIP3   OH234514   3.403   7.614  -0.002
11524TIP3    H134515   3.332   7.623   0.062
11524TIP3    H234516   3.453   7.538   0.028
11525TIP3   OH234517   7.494   6.489   5.544
11525TIP3    H134518   7.468   6.565   5.596
11525TIP3    H234519   7.573   6.455   5.587
11526TIP3   OH234520   1.220   6.739   1.117
11526TIP3    H134521   1.278   6.796   1.168
11526TIP3    H234522   1.169   6.692   1.183
11527TIP3   OH234523   7.476   6.658   0.046
11527TIP3    H134524   7.494   6.569   0.074
11527TIP3    H234525   7.410   6.649  -0.023
11528TIP3   OH234526   7.944   1.294   1.128
11528TIP3    H134527   8.002   1.238   1.179
11528TIP3    H234528   7.983   1.296   1.040
11529TIP3   OH234529   5.732   7.047   4.176
11529TIP3    H134530   5.820   7.030   4.141
11529TIP3    H234531   5.685   7.086   4.102
11530TIP3   OH234532   2.500   6.966   3.703
11530TIP3    H134533   2.499   6.904   3.631
11530TIP3    H234534   2.569   7.029   3.680
11531TIP3   OH234535   4.761   6.221   4.377
11531TIP3    H134536   4.773   6.265   4.461
11531TIP3    H234537   4.666   6.210   4.369
11532TIP3   OH234538   3.199   5.006   1.224
11532TIP3    H134539   3.165   5.094   1.239
11532TIP3    H234540   3.279   5.001   1.276
11533TIP3   OH234541   5.828   1.511   5.325
11533TIP3    H134542   5.743   1.473   5.300
11533TIP3    H234543   5.829   1.508   5.420
11534TIP3   OH234544   1.722   3.612   1.810
11534TIP3    H134545   1.645   3.661   1.782
11534TIP3    H234546   1.719   3.616   1.906
11535TIP3   OH234547   3.408   2.525   0.975
11535TIP3    H134548   3.330   2.518   1.031
11535TIP3    H234549   3.377   2.566   0.895
11536TIP3   OH234550   0.045   7.250   6.389
11536TIP3    H134551  -0.035   7.203   6.412
11536TIP3    H234552   0.038   7.263   6.294
11537TIP3   OH234553   0.771   5.035   4.855
11537TIP3    H134554   0.856   5.026   4.812
11537TIP3    H234555   0.787   5.098   4.926
11538TIP3   OH234556   1.824   0.873   0.813
11538TIP3    H134557   1.852   0.946   0.758
11538TIP3    H234558   1.750   0.908   0.863
11539TIP3   OH234559   5.683   0.382   5.031
11539TIP3    H134560   5.642   0.312   5.083
11539TIP3    H234561   5.616   0.404   4.965
11540TIP3   OH234562   1.537   0.640   4.899
11540TIP3    H134563   1.587   0.714   4.864
11540TIP3    H234564   1.498   0.599   4.822
11541TIP3   OH234565   0.017   0.245   3.315
11541TIP3    H134566   0.049   0.158   3.289
11541TIP3    H234567   0.097   0.296   3.328
11542TIP3   OH234568   2.050   1.941   0.200
11542TIP3    H134569   1.974   1.885   0.189
11542TIP3    H234570   2.067   1.976   0.112
11543TIP3   OH234571   5.292   3.193   4.508
11543TIP3    H134572   5.198   3.180   4.491
11543TIP3    H234573   5.295   3.258   4.577
11544TIP3   OH234574   2.510   4.121   4.006
11544TIP3    H134575   2.564   4.065   3.950
11544TIP3    H234576   2.554   4.206   4.005
11545TIP3   OH234577   5.583   1.091   1.511
11545TIP3    H134578   5.638   1.159   1.472
11545TIP3    H234579   5.497   1.104   1.470
11546TIP3   OH234580   7.637   2.872   1.576
11546TIP3    H134581   7.561   2.865   1.635
11546TIP3    H234582   7.639   2.965   1.551
11547TIP3   OH234583   5.214   6.565   5.876
11547TIP3    H134584   5.169   6.481   5.882
11547TIP3    H234585   5.175   6.608   5.800
11548TIP3   OH234586   7.150   0.089   1.852
11548TIP3    H134587   7.096   0.145   1.908
11548TIP3    H234588   7.087   0.033   1.807
11549TIP3   OH234589   0.286   7.001   3.916
11549TIP3    H134590   0.323   7.009   4.004
11549TIP3    H234591   0.211   6.942   3.927
11550TIP3   OH234592   7.525   7.476   6.631
11550TIP3    H134593   7.574   7.490   6.550
11550TIP3    H234594   7.513   7.564   6.667
11551TIP3   OH234595   0.532   5.064   5.165
11551TIP3    H134596   0.575   5.149   5.159
11551TIP3    H234597   0.577   5.019   5.237
11552TIP3   OH234598   6.667   6.144   2.252
11552TIP3    H134599   6.687   6.194   2.331
11552TIP3    H234600   6.640   6.057   2.284
11553TIP3   OH234601   3.643   4.586   6.418
11553TIP3    H134602   3.570   4.597   6.358
11553TIP3    H234603   3.622   4.643   6.492
11554TIP3   OH234604   0.880   6.481   5.510
11554TIP3    H134605   0.929   6.457   5.589
11554TIP3    H234606   0.807   6.420   5.507
11555TIP3   OH234607   4.104   0.623   1.686
11555TIP3    H134608   4.141   0.710   1.699
11555TIP3    H234609   4.181   0.566   1.676
11556TIP3   OH234610   4.943   7.521   0.977
11556TIP3    H134611   4.856   7.506   1.013
11556TIP3    H234612   5.003   7.491   1.045
11557TIP3   OH234613   6.449   1.502   4.459
11557TIP3    H134614   6.357   1.476   4.470
11557TIP3    H234615   6.450   1.552   4.377
11558TIP3   OH234616   3.478   0.924   3.691
11558TIP3    H134617   3.404   0.984   3.681
11558TIP3    H234618   3.550   0.978   3.723
11559TIP3   OH234619   5.852   0.215   4.032
11559TIP3    H134620   5.782   0.162   4.070
11559TIP3    H234621   5.814   0.303   4.025
11560TIP3   OH234622   3.897   3.643   2.813
11560TIP3    H134623   3.980   3.643   2.765
11560TIP3    H234624   3.913   3.586   2.888
11561TIP3   OH234625   6.542   0.594   2.752
11561TIP3    H134626   6.523   0.675   2.800
11561TIP3    H234627   6.638   0.594   2.744
11562TIP3   OH234628   6.806   5.642   1.259
11562TIP3    H134629   6.718   5.606   1.248
11562TIP3    H234630   6.838   5.605   1.341
11563TIP3   OH234631   0.342   3.467   3.057
11563TIP3    H134632   0.384   3.397   3.106
11563TIP3    H234633   0.333   3.433   2.969
11564TIP3   OH234634   3.393   6.403   6.138
11564TIP3    H134635   3.422   6.353   6.062
11564TIP3    H234636   3.385   6.493   6.106
11565TIP3   OH234637   0.542   4.747   0.829
11565TIP3    H134638   0.636   4.747   0.811
11565TIP3    H234639   0.501   4.744   0.743
11566TIP3   OH234640   2.741   6.001   5.367
11566TIP3    H134641   2.654   6.039   5.364
11566TIP3    H234642   2.762   5.997   5.461
11567TIP3   OH234643   3.112   6.656   4.762
11567TIP3    H134644   3.023   6.690   4.748
11567TIP3    H234645   3.167   6.734   4.767
11568TIP3   OH234646   2.284   1.094   5.660
11568TIP3    H134647   2.338   1.050   5.595
11568TIP3    H234648   2.319   1.183   5.664
11569TIP3   OH234649   5.461   6.806   2.955
11569TIP3    H134650   5.481   6.856   3.034
11569TIP3    H234651   5.510   6.724   2.965
11570TIP3   OH234652   5.630   3.483   5.566
11570TIP3    H134653   5.704   3.451   5.617
11570TIP3    H234654   5.669   3.514   5.484
11571TIP3   OH234655   2.842   1.880   5.520
11571TIP3    H134656   2.911   1.878   5.453
11571TIP3    H234657   2.778   1.942   5.485
11572TIP3   OH234658   1.322   3.271   1.661
11572TIP3    H134659   1.287   3.350   1.620
11572TIP3    H234660   1.360   3.221   1.588
11573TIP3   OH234661   2.862   5.451   3.272
11573TIP3    H134662   2.803   5.412   3.336
11573TIP3    H234663   2.834   5.413   3.188
11574TIP3   OH234664   4.010   5.822   6.805
11574TIP3    H134665   3.931   5.814   6.859
11574TIP3    H234666   4.018   5.737   6.761
11575TIP3   OH234667   8.095   5.662   5.293
11575TIP3    H134668   8.164   5.600   5.316
11575TIP3    H234669   8.013   5.615   5.312
11576TIP3   OH234670   0.759   2.941   1.144
11576TIP3    H134671   0.811   2.867   1.174
11576TIP3    H234672   0.815   3.017   1.158
11577TIP3   OH234673   5.838   7.729   2.291
11577TIP3    H134674   5.907   7.663   2.283
11577TIP3    H234675   5.806   7.720   2.381
11578TIP3   OH234676   0.685   6.634   5.033
11578TIP3    H134677   0.641   6.601   4.955
11578TIP3    H234678   0.735   6.559   5.066
11579TIP3   OH234679   7.164   1.419   4.249
11579TIP3    H134680   7.083   1.408   4.199
11579TIP3    H234681   7.229   1.445   4.184
11580TIP3   OH234682   1.425   4.676   2.673
11580TIP3    H134683   1.335   4.698   2.647
11580TIP3    H234684   1.414   4.607   2.738
11581TIP3   OH234685   2.576   2.307   4.431
11581TIP3    H134686   2.648   2.285   4.373
11581TIP3    H234687   2.550   2.224   4.470
11582TIP3   OH234688   2.899   1.393   6.603
11582TIP3    H134689   2.934   1.433   6.683
11582TIP3    H234690   2.881   1.467   6.545
11583TIP3   OH234691   2.768   2.872   4.259
11583TIP3    H134692   2.825   2.829   4.323
11583TIP3    H234693   2.699   2.807   4.243
11584TIP3   OH234694   6.440   4.139   1.896
11584TIP3    H134695   6.433   4.121   1.802
11584TIP3    H234696   6.410   4.059   1.939
11585TIP3   OH234697   3.723   0.270   0.532
11585TIP3    H134698   3.772   0.244   0.453
11585TIP3    H234699   3.768   0.348   0.563
11586TIP3   OH234700   5.921   6.259   6.477
11586TIP3    H134701   5.931   6.349   6.509
11586TIP3    H234702   5.982   6.208   6.530
11587TIP3   OH234703   3.993   1.794   3.203
11587TIP3    H134704   3.941   1.855   3.151
11587TIP3    H234705   3.961   1.806   3.293
11588TIP3   OH234706   5.191   5.857   4.359
11588TIP3    H134707   5.111   5.909   4.353
11588TIP3    H234708   5.164   5.769   4.330
11589TIP3   OH234709   3.386   3.893   2.965
11589TIP3    H134710   3.475   3.886   2.929
11589TIP3    H234711   3.399   3.895   3.060
11590TIP3   OH234712   0.191   7.638   2.668
11590TIP3    H134713   0.148   7.722   2.680
11590TIP3    H234714   0.182   7.594   2.753
11591TIP3   OH234715  -0.005   5.405   0.947
11591TIP3    H134716   0.054   5.350   0.999
11591TIP3    H234717  -0.015   5.485   1.000
11592TIP3   OH234718   5.620   7.087   3.200
11592TIP3    H134719   5.529   7.082   3.172
11592TIP3    H234720   5.664   7.017   3.151
11593TIP3   OH234721   8.253   7.671   0.748
11593TIP3    H134722   8.326   7.675   0.809
11593TIP3    H234723   8.258   7.754   0.700
11594TIP3   OH234724   8.004   5.243   2.454
11594TIP3    H134725   8.004   5.311   2.386
11594TIP3    H234726   8.097   5.234   2.479
11595TIP3   OH234727   3.331   0.061   2.774
11595TIP3    H134728   3.388   0.000   2.821
11595TIP3    H234729   3.244   0.046   2.811
11596TIP3   OH234730   2.489   0.352   6.652
11596TIP3    H134731   2.527   0.264   6.652
11596TIP3    H234732   2.562   0.409   6.628
11597TIP3   OH234733   6.280   6.434   6.460
11597TIP3    H134734   6.245   6.517   6.428
11597TIP3    H234735   6.352   6.414   6.400
11598TIP3   OH234736   8.059   2.507   1.788
11598TIP3    H134737   8.034   2.594   1.757
11598TIP3    H234738   7.987   2.480   1.846
11599TIP3   OH234739   0.912   1.077   3.211
11599TIP3    H134740   0.895   1.041   3.298
11599TIP3    H234741   1.006   1.066   3.199
11600TIP3   OH234742   7.675   6.791   5.960
11600TIP3    H134743   7.623   6.711   5.970
11600TIP3    H234744   7.636   6.853   6.021
11601TIP3   OH234745   7.571   5.283   6.384
11601TIP3    H134746   7.491   5.239   6.412
11601TIP3    H234747   7.599   5.236   6.305
11602TIP3   OH234748   0.765   7.725   5.681
11602TIP3    H134749   0.826   7.799   5.684
11602TIP3    H234750   0.715   7.732   5.762
11603TIP3   OH234751   0.448   1.012   4.710
11603TIP3    H134752   0.405   1.070   4.773
11603TIP3    H234753   0.522   1.062   4.677
11604TIP3   OH234754   1.134   7.827   0.493
11604TIP3    H134755   1.178   7.750   0.457
11604TIP3    H234756   1.041   7.804   0.492
11605TIP3   OH234757   5.419   0.283   4.873
11605TIP3    H134758   5.332   0.245   4.883
11605TIP3    H234759   5.403   0.366   4.828
11606TIP3   OH234760   6.987   0.123   0.205
11606TIP3    H134761   7.049   0.057   0.173
11606TIP3    H234762   7.040   0.182   0.258
11607TIP3   OH234763   3.290   1.399   3.396
11607TIP3    H134764   3.251   1.484   3.415
11607TIP3    H234765   3.288   1.391   3.301
11608TIP3   OH234766   2.139   1.278   6.445
11608TIP3    H134767   2.096   1.203   6.405
11608TIP3    H234768   2.232   1.255   6.446
11609TIP3   OH234769   7.318   7.464   0.171
11609TIP3    H134770   7.224   7.480   0.164
11609TIP3    H234771   7.329   7.375   0.136
11610TIP3   OH234772   0.030   1.672   6.214
11610TIP3    H134773   0.044   1.682   6.308
11610TIP3    H234774   0.118   1.670   6.176
11611TIP3   OH234775   2.994   3.085   6.556
11611TIP3    H134776   2.985   3.036   6.637
11611TIP3    H234777   2.956   3.028   6.489
11612TIP3   OH234778   2.707   1.092   5.085
11612TIP3    H134779   2.684   1.009   5.044
11612TIP3    H234780   2.722   1.070   5.177
11613TIP3   OH234781   0.288   5.797   4.233
11613TIP3    H134782   0.294   5.826   4.324
11613TIP3    H234783   0.338   5.715   4.231
11614TIP3   OH234784   0.640   7.410   1.576
11614TIP3    H134785   0.686   7.458   1.645
11614TIP3    H234786   0.616   7.327   1.617
11615TIP3   OH234787   4.951   6.210   0.343
11615TIP3    H134788   5.002   6.159   0.406
11615TIP3    H234789   4.951   6.299   0.379
11616TIP3   OH234790   3.034   5.044   3.912
11616TIP3    H134791   3.073   5.018   3.828
11616TIP3    H234792   3.033   4.964   3.964
11617TIP3   OH234793   7.720   2.840   4.030
11617TIP3    H134794   7.724   2.878   3.942
11617TIP3    H234795   7.652   2.890   4.075
11618TIP3   OH234796   5.146   4.485  -0.015
11618TIP3    H134797   5.215   4.423  -0.039
11618TIP3    H234798   5.067   4.432  -0.006
11619TIP3   OH234799   0.457   2.311   5.134
11619TIP3    H134800   0.434   2.307   5.042
11619TIP3    H234801   0.373   2.308   5.180
11620TIP3   OH234802   8.226   5.843   1.800
11620TIP3    H134803   8.221   5.912   1.733
11620TIP3    H234804   8.135   5.823   1.822
11621TIP3   OH234805   2.874   3.867   0.154
11621TIP3    H134806   2.885   3.782   0.196
11621TIP3    H234807   2.874   3.930   0.226
11622TIP3   OH234808   0.688   5.067   1.896
11622TIP3    H134809   0.690   4.994   1.958
11622TIP3    H234810   0.610   5.116   1.921
11623TIP3   OH234811   3.572   6.777   5.696
11623TIP3    H134812   3.599   6.778   5.788
11623TIP3    H234813   3.525   6.860   5.684
11624TIP3   OH234814   7.625   2.654   0.815
11624TIP3    H134815   7.693   2.588   0.797
11624TIP3    H234816   7.564   2.610   0.874
11625TIP3   OH234817   2.561   0.091   5.108
11625TIP3    H134818   2.597   0.097   5.019
11625TIP3    H234819   2.477   0.046   5.097
11626TIP3   OH234820   3.784   5.805   6.513
11626TIP3    H134821   3.712   5.743   6.525
11626TIP3    H234822   3.862   5.750   6.501
11627TIP3   OH234823   2.008   5.703   6.666
11627TIP3    H134824   2.069   5.769   6.700
11627TIP3    H234825   2.063   5.642   6.617
11628TIP3   OH234826   0.121   0.571   5.569
11628TIP3    H134827   0.107   0.618   5.486
11628TIP3    H234828   0.067   0.618   5.632
11629TIP3   OH234829   8.256   5.547   3.563
11629TIP3    H134830   8.301   5.491   3.627
11629TIP3    H234831   8.276   5.636   3.591
11630TIP3   OH234832   4.029   1.529   3.135
11630TIP3    H134833   4.021   1.624   3.145
11630TIP3    H234834   3.954   1.493   3.183
11631TIP3   OH234835   7.520   4.655   1.965
11631TIP3    H134836   7.549   4.724   2.025
11631TIP3    H234837   7.425   4.668   1.959
11632TIP3   OH234838   3.927   2.949   6.504
11632TIP3    H134839   3.997   2.920   6.562
11632TIP3    H234840   3.957   2.926   6.417
11633TIP3   OH234841   0.368   6.019   0.896
11633TIP3    H134842   0.343   6.012   0.804
11633TIP3    H234843   0.313   5.955   0.941
11634TIP3   OH234844   8.117   1.679   2.127
11634TIP3    H134845   8.077   1.677   2.040
11634TIP3    H234846   8.211   1.672   2.111
11635TIP3   OH234847   4.581   5.612   6.679
11635TIP3    H134848   4.624   5.640   6.760
11635TIP3    H234849   4.510   5.675   6.666
11636TIP3   OH234850   2.521   2.260   3.874
11636TIP3    H134851   2.531   2.342   3.922
11636TIP3    H234852   2.427   2.241   3.879
11637TIP3   OH234853   8.054   2.729   6.770
11637TIP3    H134854   7.963   2.727   6.798
11637TIP3    H234855   8.070   2.643   6.733
11638TIP3   OH234856   4.075   2.029   1.994
11638TIP3    H134857   4.091   2.092   2.065
11638TIP3    H234858   3.995   2.060   1.952
11639TIP3   OH234859   0.942   6.085   3.475
11639TIP3    H134860   0.938   6.111   3.568
11639TIP3    H234861   1.026   6.041   3.467
11640TIP3   OH234862   5.136   0.563   2.944
11640TIP3    H134863   5.223   0.597   2.966
11640TIP3    H234864   5.078   0.602   3.009
11641TIP3   OH234865   6.503   3.290   1.306
11641TIP3    H134866   6.407   3.286   1.301
11641TIP3    H234867   6.530   3.323   1.221
11642TIP3   OH234868   4.665   3.884   4.740
11642TIP3    H134869   4.707   3.832   4.672
11642TIP3    H234870   4.679   3.834   4.821
11643TIP3   OH234871   0.881   5.214   1.389
11643TIP3    H134872   0.816   5.267   1.436
11643TIP3    H234873   0.872   5.126   1.427
11644TIP3   OH234874   1.115   7.129   0.962
11644TIP3    H134875   1.170   7.208   0.964
11644TIP3    H234876   1.029   7.160   0.932
11645TIP3   OH234877   1.866   2.315   3.019
11645TIP3    H134878   1.909   2.390   2.979
11645TIP3    H234879   1.903   2.311   3.108
11646TIP3   OH234880   3.178   6.733   1.263
11646TIP3    H134881   3.207   6.801   1.202
11646TIP3    H234882   3.238   6.660   1.246
11647TIP3   OH234883   5.502   4.524   4.738
11647TIP3    H134884   5.536   4.609   4.710
11647TIP3    H234885   5.465   4.485   4.659
11648TIP3   OH234886   3.178   3.012   2.094
11648TIP3    H134887   3.146   2.960   2.021
11648TIP3    H234888   3.169   3.103   2.065
11649TIP3   OH234889   0.447   1.698   5.400
11649TIP3    H134890   0.514   1.660   5.343
11649TIP3    H234891   0.485   1.782   5.427
11650TIP3   OH234892   3.757   3.401   1.284
11650TIP3    H134893   3.803   3.381   1.202
11650TIP3    H234894   3.743   3.316   1.325
11651TIP3   OH234895   7.654   3.484   5.028
11651TIP3    H134896   7.585   3.506   4.965
11651TIP3    H234897   7.731   3.469   4.974
11652TIP3   OH234898   0.258   4.866   4.859
11652TIP3    H134899   0.316   4.941   4.842
11652TIP3    H234900   0.310   4.790   4.834
11653TIP3   OH234901   2.861   5.994   3.036
11653TIP3    H134902   2.807   6.025   3.108
11653TIP3    H234903   2.798   5.962   2.970
11654TIP3   OH234904   8.260   0.803   2.882
11654TIP3    H134905   8.328   0.794   2.949
11654TIP3    H234906   8.188   0.749   2.914
11655TIP3   OH234907   7.881   6.440   1.571
11655TIP3    H134908   7.909   6.439   1.479
11655TIP3    H234909   7.831   6.360   1.582
11656TIP3   OH234910   7.357   5.767   2.561
11656TIP3    H134911   7.349   5.737   2.471
11656TIP3    H234912   7.423   5.710   2.600
11657TIP3   OH234913   5.686  -0.025   3.025
11657TIP3    H134914   5.739   0.039   3.073
11657TIP3    H234915   5.605  -0.032   3.076
11658TIP3   OH234916   4.772   6.226   2.600
11658TIP3    H134917   4.768   6.321   2.592
11658TIP3    H234918   4.775   6.194   2.510
11659TIP3   OH234919   2.009   2.343   3.268
11659TIP3    H134920   2.023   2.387   3.351
11659TIP3    H234921   1.917   2.318   3.269
11660TIP3   OH234922   4.709   1.483   5.004
11660TIP3    H134923   4.717   1.424   4.929
11660TIP3    H234924   4.633   1.450   5.053
11661TIP3   OH234925   6.421   7.230   1.119
11661TIP3    H134926   6.448   7.144   1.152
11661TIP3    H234927   6.361   7.263   1.186
11662TIP3   OH234928   2.348   0.103   5.698
11662TIP3    H134929   2.440   0.083   5.714
11662TIP3    H234930   2.331   0.180   5.752
11663TIP3   OH234931   8.183   1.037   6.381
11663TIP3    H134932   8.102   0.986   6.373
11663TIP3    H234933   8.201   1.067   6.291
11664TIP3   OH234934   3.972   0.271   1.783
11664TIP3    H134935   4.000   0.322   1.859
11664TIP3    H234936   3.882   0.300   1.766
11665TIP3   OH234937   4.675   6.160   0.233
11665TIP3    H134938   4.722   6.085   0.270
11665TIP3    H234939   4.708   6.168   0.144
11666TIP3   OH234940   2.755   7.092   2.176
11666TIP3    H134941   2.678   7.041   2.150
11666TIP3    H234942   2.829   7.035   2.154
11667TIP3   OH234943   6.324   1.139   5.126
11667TIP3    H134944   6.400   1.084   5.143
11667TIP3    H234945   6.289   1.106   5.043
11668TIP3   OH234946   1.795   0.465   0.458
11668TIP3    H134947   1.787   0.515   0.539
11668TIP3    H234948   1.736   0.509   0.397
11669TIP3   OH234949   7.397   5.138   3.266
11669TIP3    H134950   7.385   5.232   3.274
11669TIP3    H234951   7.478   5.120   3.313
11670TIP3   OH234952   2.835   1.065   1.172
11670TIP3    H134953   2.773   1.133   1.146
11670TIP3    H234954   2.779   0.992   1.200
11671TIP3   OH234955   0.325   0.087   4.875
11671TIP3    H134956   0.267   0.023   4.917
11671TIP3    H234957   0.314   0.167   4.926
11672TIP3   OH234958   4.094   5.599   1.641
11672TIP3    H134959   4.090   5.516   1.593
11672TIP3    H234960   4.130   5.575   1.726
11673TIP3   OH234961   7.587   0.242   6.751
11673TIP3    H134962   7.607   0.242   6.658
11673TIP3    H234963   7.578   0.149   6.774
11674TIP3   OH234964   4.951   2.553   2.851
11674TIP3    H134965   4.949   2.642   2.887
11674TIP3    H234966   4.924   2.498   2.924
11675TIP3   OH234967   1.680   0.300   1.946
11675TIP3    H134968   1.596   0.258   1.966
11675TIP3    H234969   1.710   0.257   1.866
11676TIP3   OH234970   2.643   1.956   2.492
11676TIP3    H134971   2.598   1.878   2.458
11676TIP3    H234972   2.655   1.938   2.585
11677TIP3   OH234973   5.964   4.420   3.748
11677TIP3    H134974   5.936   4.431   3.657
11677TIP3    H234975   5.883   4.411   3.798
11678TIP3   OH234976   7.745   1.171   6.715
11678TIP3    H134977   7.743   1.234   6.643
11678TIP3    H234978   7.681   1.104   6.690
11679TIP3   OH234979   7.645   2.063   4.023
11679TIP3    H134980   7.588   1.987   4.011
11679TIP3    H234981   7.705   2.037   4.093
11680TIP3   OH234982   5.565   6.904   4.927
11680TIP3    H134983   5.545   6.873   5.016
11680TIP3    H234984   5.658   6.926   4.930
11681TIP3   OH234985   8.066   2.301   4.352
11681TIP3    H134986   8.066   2.397   4.359
11681TIP3    H234987   7.973   2.278   4.341
11682TIP3   OH234988   6.565   1.681   5.792
11682TIP3    H134989   6.478   1.720   5.798
11682TIP3    H234990   6.582   1.674   5.698
11683TIP3   OH234991   4.490   4.498   2.614
11683TIP3    H134992   4.451   4.549   2.543
11683TIP3    H234993   4.575   4.469   2.580
11684TIP3   OH234994   2.657   7.293   1.940
11684TIP3    H134995   2.629   7.204   1.963
11684TIP3    H234996   2.713   7.320   2.013
11685TIP3   OH234997   6.260   3.042   5.008
11685TIP3    H134998   6.171   3.009   5.023
11685TIP3    H234999   6.261   3.070   4.917
11686TIP3   OH235000   2.922   4.140   4.796
11686TIP3    H135001   2.839   4.187   4.802
11686TIP3    H235002   2.899   4.048   4.805
11687TIP3   OH235003   5.434   3.408   2.999
11687TIP3    H135004   5.422   3.317   3.024
11687TIP3    H235005   5.527   3.425   3.013
11688TIP3   OH235006   7.991   6.329   2.206
11688TIP3    H135007   8.045   6.258   2.172
11688TIP3    H235008   7.982   6.310   2.300
11689TIP3   OH235009   6.063   3.359   6.321
11689TIP3    H135010   6.137   3.420   6.318
11689TIP3    H235011   6.082   3.296   6.252
11690TIP3   OH235012   3.171   5.173   3.406
11690TIP3    H135013   3.239   5.126   3.454
11690TIP3    H235014   3.188   5.266   3.425
11691TIP3   OH235015   4.343   3.662   6.676
11691TIP3    H135016   4.361   3.737   6.619
11691TIP3    H235017   4.395   3.678   6.755
11692TIP3   OH235018   1.163   6.738   5.387
11692TIP3    H135019   1.110   6.705   5.314
11692TIP3    H235020   1.108   6.806   5.428
11693TIP3   OH235021   6.948   3.122   1.766
11693TIP3    H135022   6.998   3.200   1.741
11693TIP3    H235023   6.866   3.130   1.717
11694TIP3   OH235024   6.510   1.993   5.768
11694TIP3    H135025   6.540   1.991   5.859
11694TIP3    H235026   6.429   2.045   5.771
11695TIP3   OH235027   0.769   1.515   5.386
11695TIP3    H135028   0.758   1.528   5.480
11695TIP3    H235029   0.750   1.422   5.372
11696TIP3   OH235030   2.002   7.346   5.316
11696TIP3    H135031   2.069   7.293   5.358
11696TIP3    H235032   1.921   7.296   5.326
11697TIP3   OH235033   4.580   1.919   0.045
11697TIP3    H135034   4.534   1.874   0.116
11697TIP3    H235035   4.618   1.996   0.085
11698TIP3   OH235036   2.703   1.961   3.539
11698TIP3    H135037   2.705   1.870   3.567
11698TIP3    H235038   2.753   1.963   3.458
11699TIP3   OH235039   0.171   7.665   1.210
11699TIP3    H135040   0.220   7.628   1.284
11699TIP3    H235041   0.136   7.747   1.243
11700TIP3   OH235042   7.288   5.522   6.083
11700TIP3    H135043   7.223   5.542   6.016
11700TIP3    H235044   7.238   5.483   6.155
11701TIP3   OH235045   0.117   6.969   4.237
11701TIP3    H135046   0.173   6.898   4.206
11701TIP3    H235047   0.028   6.942   4.212
11702TIP3   OH235048   3.816   6.084   0.802
11702TIP3    H135049   3.757   6.021   0.845
11702TIP3    H235050   3.759   6.158   0.779
11703TIP3   OH235051   0.309   0.374   4.296
11703TIP3    H135052   0.243   0.420   4.244
11703TIP3    H235053   0.304   0.414   4.383
11704TIP3   OH235054   5.752   1.069   0.864
11704TIP3    H135055   5.846   1.085   0.866
11704TIP3    H235056   5.719   1.111   0.943
11705TIP3   OH235057   5.588   7.645   5.669
11705TIP3    H135058   5.512   7.701   5.656
11705TIP3    H235059   5.553   7.556   5.666
11706TIP3   OH235060   7.760   6.006   1.068
11706TIP3    H135061   7.824   5.972   1.006
11706TIP3    H235062   7.745   6.096   1.040
11707TIP3   OH235063   5.080   2.444   0.362
11707TIP3    H135064   4.995   2.472   0.396
11707TIP3    H235065   5.103   2.511   0.298
11708TIP3   OH235066   7.948   1.872   3.709
11708TIP3    H135067   7.939   1.958   3.667
11708TIP3    H235068   7.947   1.810   3.636
11709TIP3   OH235069   2.875   1.858   5.166
11709TIP3    H135070   2.925   1.931   5.201
11709TIP3    H235071   2.916   1.780   5.204
11710TIP3   OH235072   6.277   4.469   5.196
11710TIP3    H135073   6.293   4.391   5.249
11710TIP3    H235074   6.193   4.452   5.152
11711TIP3   OH235075   3.239   1.244   5.451
11711TIP3    H135076   3.150   1.222   5.478
11711TIP3    H235077   3.232   1.257   5.356
11712TIP3   OH235078   4.814   5.633   2.947
11712TIP3    H135079   4.856   5.714   2.978
11712TIP3    H235080   4.883   5.567   2.955
11713TIP3   OH235081   1.415   5.633   3.811
11713TIP3    H135082   1.432   5.651   3.719
11713TIP3    H235083   1.354   5.701   3.838
11714TIP3   OH235084   6.502   3.092   4.110
11714TIP3    H135085   6.415   3.069   4.145
11714TIP3    H235086   6.484   3.161   4.046
11715TIP3   OH235087   5.315   2.045   1.928
11715TIP3    H135088   5.341   2.104   1.857
11715TIP3    H235089   5.343   2.090   2.008
11716TIP3   OH235090   8.267   4.959   5.936
11716TIP3    H135091   8.308   4.882   5.974
11716TIP3    H235092   8.184   4.926   5.900
11717TIP3   OH235093   0.472   4.453   5.648
11717TIP3    H135094   0.378   4.467   5.646
11717TIP3    H235095   0.486   4.378   5.589
11718TIP3   OH235096   5.245   3.854   5.545
11718TIP3    H135097   5.154   3.825   5.550
11718TIP3    H235098   5.242   3.936   5.496
11719TIP3   OH235099   3.878   3.725   1.922
11719TIP3    H135100   3.815   3.785   1.882
11719TIP3    H235101   3.935   3.781   1.974
11720TIP3   OH235102   5.576   4.630   5.058
11720TIP3    H135103   5.668   4.621   5.080
11720TIP3    H235104   5.569   4.592   4.970
11721TIP3   OH235105   1.382   6.585   6.656
11721TIP3    H135106   1.359   6.591   6.563
11721TIP3    H235107   1.449   6.517   6.659
11722TIP3   OH235108   2.508   2.191   0.854
11722TIP3    H135109   2.535   2.120   0.796
11722TIP3    H235110   2.494   2.150   0.939
11723TIP3   OH235111   4.521   5.049   6.160
11723TIP3    H135112   4.578   4.994   6.213
11723TIP3    H235113   4.535   5.138   6.194
11724TIP3   OH235114   4.186   1.371   3.919
11724TIP3    H135115   4.178   1.455   3.874
11724TIP3    H235116   4.227   1.391   4.002
11725TIP3   OH235117   1.487   5.744   0.500
11725TIP3    H135118   1.559   5.680   0.500
11725TIP3    H235119   1.494   5.787   0.415
11726TIP3   OH235120   8.054   5.242   5.816
11726TIP3    H135121   8.075   5.317   5.872
11726TIP3    H235122   7.965   5.259   5.785
11727TIP3   OH235123   5.421   0.574   5.031
11727TIP3    H135124   5.336   0.556   4.991
11727TIP3    H235125   5.426   0.512   5.104
11728TIP3   OH235126   2.264   0.827   4.583
11728TIP3    H135127   2.280   0.915   4.549
11728TIP3    H235128   2.192   0.793   4.530
11729TIP3   OH235129   0.426   5.385   6.596
11729TIP3    H135130   0.491   5.315   6.604
11729TIP3    H235131   0.472   5.457   6.553
11730TIP3   OH235132   2.890   7.221   5.925
11730TIP3    H135133   2.911   7.236   6.017
11730TIP3    H235134   2.949   7.279   5.877
11731TIP3   OH235135   6.010   5.849   3.493
11731TIP3    H135136   5.984   5.941   3.493
11731TIP3    H235137   6.083   5.844   3.431
11732TIP3   OH235138   7.646   2.078   2.365
11732TIP3    H135139   7.659   2.110   2.455
11732TIP3    H235140   7.592   2.145   2.323
11733TIP3   OH235141   5.085   4.672   1.703
11733TIP3    H135142   4.996   4.684   1.738
11733TIP3    H235143   5.122   4.760   1.700
11734TIP3   OH235144   8.076   1.399   6.761
11734TIP3    H135145   8.122   1.361   6.835
11734TIP3    H235146   8.108   1.351   6.684
11735TIP3   OH235147   1.862   4.538   3.588
11735TIP3    H135148   1.887   4.587   3.666
11735TIP3    H235149   1.934   4.551   3.526
11736TIP3   OH235150   4.324   1.450   4.812
11736TIP3    H135151   4.347   1.543   4.803
11736TIP3    H235152   4.229   1.447   4.801
11737TIP3   OH235153   3.947   1.493   6.556
11737TIP3    H135154   3.950   1.397   6.548
11737TIP3    H235155   3.976   1.525   6.471
11738TIP3   OH235156   4.896   4.713   4.196
11738TIP3    H135157   4.892   4.771   4.120
11738TIP3    H235158   4.952   4.759   4.258
11739TIP3   OH235159   7.852   2.620   3.389
11739TIP3    H135160   7.869   2.656   3.301
11739TIP3    H235161   7.805   2.689   3.434
11740TIP3   OH235162   1.740   3.836   2.328
11740TIP3    H135163   1.746   3.920   2.374
11740TIP3    H235164   1.755   3.771   2.396
11741TIP3   OH235165   6.147   4.705   2.923
11741TIP3    H135166   6.152   4.801   2.925
11741TIP3    H235167   6.202   4.680   2.849
11742TIP3   OH235168   5.810   5.716   1.436
11742TIP3    H135169   5.844   5.627   1.442
11742TIP3    H235170   5.717   5.709   1.453
11743TIP3   OH235171   5.169   5.595   2.689
11743TIP3    H135172   5.113   5.528   2.727
11743TIP3    H235173   5.131   5.613   2.603
11744TIP3   OH235174   6.421   1.477   2.107
11744TIP3    H135175   6.327   1.463   2.115
11744TIP3    H235176   6.460   1.403   2.155
11745TIP3   OH235177   4.964   4.042   5.819
11745TIP3    H135178   5.026   4.034   5.892
11745TIP3    H235179   5.004   3.991   5.748
11746TIP3   OH235180   2.897   2.431   0.502
11746TIP3    H135181   2.947   2.456   0.579
11746TIP3    H235182   2.806   2.444   0.527
11747TIP3   OH235183   1.866   5.497   5.019
11747TIP3    H135184   1.860   5.589   5.044
11747TIP3    H235185   1.787   5.457   5.055
11748TIP3   OH235186   0.973   0.444   0.327
11748TIP3    H135187   0.981   0.530   0.283
11748TIP3    H235188   0.916   0.394   0.269
11749TIP3   OH235189   6.411   2.257   3.171
11749TIP3    H135190   6.506   2.266   3.163
11749TIP3    H235191   6.393   2.171   3.134
11750TIP3   OH235192   6.863   3.848   0.100
11750TIP3    H135193   6.789   3.908   0.111
11750TIP3    H235194   6.875   3.842   0.006
11751TIP3   OH235195   6.584   7.556   2.903
11751TIP3    H135196   6.597   7.629   2.843
11751TIP3    H235197   6.492   7.565   2.931
11752TIP3   OH235198   3.160   6.221   6.567
11752TIP3    H135199   3.139   6.145   6.621
11752TIP3    H235200   3.249   6.204   6.534
11753TIP3   OH235201   4.824   2.167   1.236
11753TIP3    H135202   4.913   2.194   1.260
11753TIP3    H235203   4.768   2.211   1.300
11754TIP3   OH235204   1.721   1.374   2.469
11754TIP3    H135205   1.773   1.335   2.538
11754TIP3    H235206   1.673   1.301   2.430
11755TIP3   OH235207   0.383   1.249   4.451
11755TIP3    H135208   0.475   1.250   4.477
11755TIP3    H235209   0.384   1.265   4.357
11756TIP3   OH235210   0.123   7.768   4.983
11756TIP3    H135211   0.192   7.826   4.952
11756TIP3    H235212   0.046   7.793   4.933
11757TIP3   OH235213   5.757   7.273   5.818
11757TIP3    H135214   5.810   7.199   5.787
11757TIP3    H235215   5.810   7.350   5.796
11758TIP3   OH235216   7.372   4.648   6.181
11758TIP3    H135217   7.460   4.612   6.173
11758TIP3    H235218   7.355   4.687   6.095
11759TIP3   OH235219   1.270   5.179   3.115
11759TIP3    H135220   1.206   5.193   3.046
11759TIP3    H235221   1.353   5.165   3.068
11760TIP3   OH235222   5.318   0.646   3.200
11760TIP3    H135223   5.261   0.706   3.249
11760TIP3    H235224   5.305   0.561   3.242
11761TIP3   OH235225   2.363   7.624   1.304
11761TIP3    H135226   2.278   7.592   1.271
11761TIP3    H235227   2.342   7.705   1.349
11762TIP3   OH235228   3.149   3.361   5.488
11762TIP3    H135229   3.103   3.414   5.554
11762TIP3    H235230   3.241   3.363   5.517
11763TIP3   OH235231   4.772   1.150   4.357
11763TIP3    H135232   4.697   1.121   4.409
11763TIP3    H235233   4.812   1.069   4.325
11764TIP3   OH235234   6.330   6.802   1.626
11764TIP3    H135235   6.288   6.880   1.589
11764TIP3    H235236   6.261   6.760   1.678
11765TIP3   OH235237   5.091   7.567   5.271
11765TIP3    H135238   5.073   7.502   5.340
11765TIP3    H235239   5.177   7.603   5.295
11766TIP3   OH235240   8.074   5.877   2.036
11766TIP3    H135241   8.110   5.789   2.051
11766TIP3    H235242   8.151   5.933   2.027
11767TIP3   OH235243   0.723   6.588   2.313
11767TIP3    H135244   0.722   6.644   2.236
11767TIP3    H235245   0.799   6.531   2.301
11768TIP3   OH235246   3.315   4.420   5.737
11768TIP3    H135247   3.247   4.437   5.802
11768TIP3    H235248   3.278   4.454   5.655
11769TIP3   OH235249   1.015   2.745   2.021
11769TIP3    H135250   0.979   2.806   2.085
11769TIP3    H235251   1.102   2.779   2.000
11770TIP3   OH235252   1.681   1.732   3.034
11770TIP3    H135253   1.658   1.688   3.116
11770TIP3    H235254   1.628   1.688   2.968
11771TIP3   OH235255   6.754   0.641   0.412
11771TIP3    H135256   6.832   0.586   0.421
11771TIP3    H235257   6.707   0.605   0.337
11772TIP3   OH235258   4.663   7.094   4.982
11772TIP3    H135259   4.595   7.136   4.929
11772TIP3    H235260   4.722   7.166   5.007
11773TIP3   OH235261   3.930   4.675   6.475
11773TIP3    H135262   3.921   4.580   6.460
11773TIP3    H235263   3.918   4.686   6.569
11774TIP3   OH235264   2.896   6.656   3.909
11774TIP3    H135265   2.899   6.570   3.950
11774TIP3    H235266   2.979   6.697   3.932
11775TIP3   OH235267   1.071   6.833   2.641
11775TIP3    H135268   0.992   6.837   2.586
11775TIP3    H235269   1.088   6.924   2.665
11776TIP3   OH235270   3.960   3.839   6.646
11776TIP3    H135271   3.897   3.809   6.712
11776TIP3    H235272   3.985   3.926   6.675
11777TIP3   OH235273   4.977   6.033   5.797
11777TIP3    H135274   4.963   6.127   5.797
11777TIP3    H235275   4.889   5.995   5.796
11778TIP3   OH235276   8.053   2.351   5.570
11778TIP3    H135277   8.110   2.332   5.495
11778TIP3    H235278   8.067   2.278   5.630
11779TIP3   OH235279   1.966   3.739   3.874
11779TIP3    H135280   2.020   3.718   3.798
11779TIP3    H235281   1.893   3.677   3.870
11780TIP3   OH235282   7.368   2.913   3.193
11780TIP3    H135283   7.301   2.920   3.262
11780TIP3    H235284   7.348   2.986   3.134
11781TIP3   OH235285   6.475   7.324   0.641
11781TIP3    H135286   6.499   7.282   0.724
11781TIP3    H235287   6.559   7.354   0.606
11782TIP3   OH235288   5.759   1.631   4.591
11782TIP3    H135289   5.742   1.538   4.606
11782TIP3    H235290   5.738   1.673   4.674
11783TIP3   OH235291   3.081   1.013   3.105
11783TIP3    H135292   3.038   0.928   3.096
11783TIP3    H235293   3.009   1.076   3.112
11784TIP3   OH235294   6.727   6.360   6.020
11784TIP3    H135295   6.737   6.323   5.933
11784TIP3    H235296   6.696   6.287   6.074
11785TIP3   OH235297   3.256   0.738   0.340
11785TIP3    H135298   3.303   0.745   0.257
11785TIP3    H235299   3.293   0.661   0.382
11786TIP3   OH235300   1.543   4.010   5.579
11786TIP3    H135301   1.552   3.928   5.627
11786TIP3    H235302   1.475   3.994   5.515
11787TIP3   OH235303   2.043   2.757   4.342
11787TIP3    H135304   2.069   2.794   4.257
11787TIP3    H235305   2.082   2.816   4.407
11788TIP3   OH235306   2.159   4.246   6.137
11788TIP3    H135307   2.065   4.259   6.123
11788TIP3    H235308   2.199   4.330   6.114
11789TIP3   OH235309   7.015   1.789   1.020
11789TIP3    H135310   7.041   1.759   0.933
11789TIP3    H235311   7.007   1.709   1.072
11790TIP3   OH235312   7.952   6.272   1.085
11790TIP3    H135313   8.021   6.205   1.087
11790TIP3    H235314   7.975   6.328   1.011
11791TIP3   OH235315   2.443   5.846   0.613
11791TIP3    H135316   2.515   5.806   0.566
11791TIP3    H235317   2.372   5.782   0.608
11792TIP3   OH235318   7.694   4.075   5.723
11792TIP3    H135319   7.612   4.028   5.709
11792TIP3    H235320   7.757   4.031   5.666
11793TIP3   OH235321   1.076   4.566   5.134
11793TIP3    H135322   1.112   4.483   5.102
11793TIP3    H235323   1.067   4.553   5.228
11794TIP3   OH235324   3.287   1.966   0.309
11794TIP3    H135325   3.200   1.989   0.342
11794TIP3    H235326   3.313   1.891   0.362
11795TIP3   OH235327   2.396   3.096   5.736
11795TIP3    H135328   2.368   3.102   5.645
11795TIP3    H235329   2.463   3.163   5.745
11796TIP3   OH235330   1.720   6.502   6.472
11796TIP3    H135331   1.706   6.584   6.425
11796TIP3    H235332   1.672   6.436   6.422
11797TIP3   OH235333   4.575   4.390   5.800
11797TIP3    H135334   4.567   4.395   5.895
11797TIP3    H235335   4.555   4.300   5.777
11798TIP3   OH235336   2.033   3.225   4.960
11798TIP3    H135337   1.960   3.183   4.915
11798TIP3    H235338   2.088   3.258   4.889
11799TIP3   OH235339   8.057   3.374   2.559
11799TIP3    H135340   8.018   3.287   2.556
11799TIP3    H235341   7.985   3.433   2.535
11800TIP3   OH235342   2.411   2.583   5.829
11800TIP3    H135343   2.426   2.586   5.735
11800TIP3    H235344   2.324   2.543   5.839
11801TIP3   OH235345   7.018   5.218   0.593
11801TIP3    H135346   6.946   5.219   0.656
11801TIP3    H235347   7.055   5.130   0.601
11802TIP3   OH235348   1.948   4.503   0.617
11802TIP3    H135349   1.939   4.580   0.673
11802TIP3    H235350   2.042   4.494   0.604
11803TIP3   OH235351   4.052   7.605   2.458
11803TIP3    H135352   3.973   7.597   2.405
11803TIP3    H235353   4.037   7.546   2.532
11804TIP3   OH235354   0.809   1.821   6.177
11804TIP3    H135355   0.821   1.779   6.091
11804TIP3    H235356   0.766   1.904   6.157
11805TIP3   OH235357   7.244   0.565   5.038
11805TIP3    H135358   7.284   0.645   5.003
11805TIP3    H235359   7.166   0.596   5.085
11806TIP3   OH235360   7.885   3.909   2.107
11806TIP3    H135361   7.920   3.870   2.026
11806TIP3    H235362   7.794   3.879   2.110
11807TIP3   OH235363   3.902   6.494   1.889
11807TIP3    H135364   3.844   6.553   1.841
11807TIP3    H235365   3.990   6.520   1.863
11808TIP3   OH235366   0.953   5.364   0.160
11808TIP3    H135367   0.884   5.415   0.116
11808TIP3    H235368   0.914   5.339   0.244
11809TIP3   OH235369   3.442   0.300   2.783
11809TIP3    H135370   3.377   0.364   2.753
11809TIP3    H235371   3.392   0.219   2.794
11810TIP3   OH235372   1.065   5.693   0.175
11810TIP3    H135373   1.082   5.634   0.101
11810TIP3    H235374   1.152   5.714   0.208
11811TIP3   OH235375   5.298   6.448   0.421
11811TIP3    H135376   5.203   6.437   0.417
11811TIP3    H235377   5.325   6.462   0.331
11812TIP3   OH235378   0.416   4.999   4.489
11812TIP3    H135379   0.452   4.967   4.406
11812TIP3    H235380   0.368   4.925   4.525
11813TIP3   OH235381   6.877   6.495   2.894
11813TIP3    H135382   6.802   6.474   2.838
11813TIP3    H235383   6.939   6.424   2.878
11814TIP3   OH235384   8.003   7.523   3.972
11814TIP3    H135385   7.964   7.605   4.001
11814TIP3    H235386   7.962   7.456   4.027
11815TIP3   OH235387   5.820   5.582   5.285
11815TIP3    H135388   5.747   5.643   5.290
11815TIP3    H235389   5.822   5.540   5.371
11816TIP3   OH235390   0.830   4.671   1.399
11816TIP3    H135391   0.783   4.630   1.327
11816TIP3    H235392   0.786   4.756   1.411
11817TIP3   OH235393   2.851   0.128   3.059
11817TIP3    H135394   2.762   0.143   3.028
11817TIP3    H235395   2.905   0.187   3.007
11818TIP3   OH235396   0.529   0.422   3.594
11818TIP3    H135397   0.553   0.495   3.652
11818TIP3    H235398   0.541   0.344   3.648
11819TIP3   OH235399   3.526   4.795   1.031
11819TIP3    H135400   3.582   4.757   0.963
11819TIP3    H235401   3.478   4.865   0.986
11820TIP3   OH235402   6.653   6.938   4.767
11820TIP3    H135403   6.582   6.983   4.814
11820TIP3    H235404   6.636   6.958   4.675
11821TIP3   OH235405   0.800   6.158   2.151
11821TIP3    H135406   0.852   6.104   2.092
11821TIP3    H235407   0.711   6.154   2.115
11822TIP3   OH235408   3.887   1.773   0.298
11822TIP3    H135409   3.822   1.800   0.233
11822TIP3    H235410   3.932   1.699   0.258
11823TIP3   OH235411   6.227   7.584   0.253
11823TIP3    H135412   6.317   7.561   0.274
11823TIP3    H235413   6.182   7.587   0.338
11824TIP3   OH235414   5.292   2.780   5.009
11824TIP3    H135415   5.246   2.719   5.067
11824TIP3    H235416   5.279   2.866   5.049
11825TIP3   OH235417   7.314   7.135   0.186
11825TIP3    H135418   7.225   7.103   0.200
11825TIP3    H235419   7.369   7.057   0.195
11826TIP3   OH235420   2.010   3.513   4.408
11826TIP3    H135421   2.000   3.605   4.431
11826TIP3    H235422   1.942   3.498   4.342
11827TIP3   OH235423   6.232   4.934   5.790
11827TIP3    H135424   6.263   4.843   5.790
11827TIP3    H235425   6.287   4.978   5.855
11828TIP3   OH235426   4.802   1.027   6.644
11828TIP3    H135427   4.884   1.072   6.661
11828TIP3    H235428   4.769   1.065   6.563
11829TIP3   OH235429   2.893   4.062   0.831
11829TIP3    H135430   2.936   4.143   0.803
11829TIP3    H235431   2.800   4.085   0.837
11830TIP3   OH235432   3.868   2.368   0.629
11830TIP3    H135433   3.865   2.383   0.534
11830TIP3    H235434   3.785   2.323   0.648
11831TIP3   OH235435   2.598   2.742   1.187
11831TIP3    H135436   2.628   2.672   1.128
11831TIP3    H235437   2.506   2.753   1.166
11832TIP3   OH235438   0.151   5.336   6.624
11832TIP3    H135439   0.241   5.364   6.612
11832TIP3    H235440   0.154   5.241   6.613
11833TIP3   OH235441   7.942   5.916   0.576
11833TIP3    H135442   7.937   5.955   0.488
11833TIP3    H235443   7.867   5.951   0.623
11834TIP3   OH235444   5.744   3.875   4.077
11834TIP3    H135445   5.683   3.824   4.025
11834TIP3    H235446   5.828   3.863   4.034
11835TIP3   OH235447   1.531   2.514   1.049
11835TIP3    H135448   1.507   2.601   1.017
11835TIP3    H235449   1.625   2.508   1.033
11836TIP3   OH235450   1.060   0.599   1.652
11836TIP3    H135451   0.964   0.598   1.650
11836TIP3    H235452   1.082   0.645   1.733
11837TIP3   OH235453   5.858   0.769   4.813
11837TIP3    H135454   5.926   0.804   4.754
11837TIP3    H235455   5.886   0.679   4.830
11838TIP3   OH235456   5.338   6.077   0.149
11838TIP3    H135457   5.384   6.036   0.076
11838TIP3    H235458   5.246   6.051   0.137
11839TIP3   OH235459   4.331   4.218   0.378
11839TIP3    H135460   4.281   4.255   0.305
11839TIP3    H235461   4.372   4.139   0.343
11840TIP3   OH235462   6.521   0.786   5.962
11840TIP3    H135463   6.571   0.708   5.987
11840TIP3    H235464   6.486   0.818   6.045
11841TIP3   OH235465   1.040   2.120   4.663
11841TIP3    H135466   1.128   2.085   4.678
11841TIP3    H235467   0.995   2.052   4.615
11842TIP3   OH235468   1.326   6.183   1.961
11842TIP3    H135469   1.317   6.091   1.936
11842TIP3    H235470   1.400   6.184   2.021
11843TIP3   OH235471   0.883   7.238   5.151
11843TIP3    H135472   0.900   7.144   5.154
11843TIP3    H235473   0.955   7.277   5.200
11844TIP3   OH235474   4.164   6.698   3.260
11844TIP3    H135475   4.130   6.768   3.203
11844TIP3    H235476   4.094   6.633   3.261
11845TIP3   OH235477   3.057   3.929   2.339
11845TIP3    H135478   3.020   3.884   2.263
11845TIP3    H235479   3.114   3.864   2.380
11846TIP3   OH235480   7.274   6.936   2.585
11846TIP3    H135481   7.252   6.958   2.495
11846TIP3    H235482   7.347   6.875   2.578
11847TIP3   OH235483   8.086   2.547   0.303
11847TIP3    H135484   8.035   2.468   0.319
11847TIP3    H235485   8.070   2.567   0.211
11848TIP3   OH235486   6.801   3.654   2.772
11848TIP3    H135487   6.887   3.636   2.809
11848TIP3    H235488   6.812   3.736   2.723
11849TIP3   OH235489   7.193   4.160   6.585
11849TIP3    H135490   7.148   4.231   6.631
11849TIP3    H235491   7.273   4.147   6.636
11850TIP3   OH235492   0.064   6.225   0.837
11850TIP3    H135493   0.143   6.221   0.784
11850TIP3    H235494   0.095   6.212   0.927
11851TIP3   OH235495   0.667   2.139   6.375
11851TIP3    H135496   0.645   2.090   6.455
11851TIP3    H235497   0.622   2.223   6.386
11852TIP3   OH235498   3.153   4.200   3.392
11852TIP3    H135499   3.125   4.151   3.470
11852TIP3    H235500   3.093   4.173   3.323
11853TIP3   OH235501   0.295   3.776   4.941
11853TIP3    H135502   0.238   3.700   4.929
11853TIP3    H235503   0.383   3.740   4.945
11854TIP3   OH235504   1.997   1.123   2.193
11854TIP3    H135505   2.080   1.095   2.155
11854TIP3    H235506   1.966   1.048   2.243
11855TIP3   OH235507   8.092   5.766   1.511
11855TIP3    H135508   8.036   5.784   1.435
11855TIP3    H235509   8.031   5.735   1.578
11856TIP3   OH235510   3.768   6.179   2.680
11856TIP3    H135511   3.713   6.233   2.624
11856TIP3    H235512   3.707   6.137   2.741
11857TIP3   OH235513   2.018   4.235   1.547
11857TIP3    H135514   2.035   4.217   1.455
11857TIP3    H235515   1.928   4.207   1.561
11858TIP3   OH235516   2.946   3.099   1.757
11858TIP3    H135517   2.895   3.064   1.684
11858TIP3    H235518   3.025   3.044   1.759
11859TIP3   OH235519   5.893   5.954   4.280
11859TIP3    H135520   5.937   5.929   4.198
11859TIP3    H235521   5.878   6.048   4.272
11860TIP3   OH235522   6.399   2.914   0.597
11860TIP3    H135523   6.473   2.874   0.551
11860TIP3    H235524   6.329   2.918   0.532
11861TIP3   OH235525   3.260   5.227   0.676
11861TIP3    H135526   3.348   5.215   0.639
11861TIP3    H235527   3.275   5.256   0.766
11862TIP3   OH235528   0.357   5.151   4.078
11862TIP3    H135529   0.368   5.224   4.139
11862TIP3    H235530   0.263   5.143   4.066
11863TIP3   OH235531   1.074   1.441   2.016
11863TIP3    H135532   1.150   1.386   1.998
11863TIP3    H235533   1.031   1.398   2.091
11864TIP3   OH235534   8.206   7.304   5.177
11864TIP3    H135535   8.189   7.300   5.271
11864TIP3    H235536   8.271   7.374   5.168
11865TIP3   OH235537   6.853   4.157   4.701
11865TIP3    H135538   6.900   4.078   4.674
11865TIP3    H235539   6.908   4.229   4.672
11866TIP3   OH235540   2.353   7.539   2.975
11866TIP3    H135541   2.424   7.510   3.033
11866TIP3    H235542   2.321   7.620   3.016
11867TIP3   OH235543   5.351   7.490   2.871
11867TIP3    H135544   5.268   7.539   2.866
11867TIP3    H235545   5.325   7.399   2.860
11868TIP3   OH235546   0.930   0.298   2.643
11868TIP3    H135547   0.887   0.216   2.617
11868TIP3    H235548   0.993   0.271   2.711
11869TIP3   OH235549   0.147   6.330   2.668
11869TIP3    H135550   0.213   6.264   2.689
11869TIP3    H235551   0.064   6.283   2.671
11870TIP3   OH235552   5.271   3.807   1.451
11870TIP3    H135553   5.235   3.829   1.537
11870TIP3    H235554   5.195   3.804   1.393
11871TIP3   OH235555   3.491   6.359   3.626
11871TIP3    H135556   3.537   6.279   3.598
11871TIP3    H235557   3.457   6.397   3.545
11872TIP3   OH235558   7.371   3.780   4.871
11872TIP3    H135559   7.446   3.737   4.830
11872TIP3    H235560   7.311   3.709   4.892
11873TIP3   OH235561   1.396   7.446   2.446
11873TIP3    H135562   1.408   7.352   2.432
11873TIP3    H235563   1.425   7.460   2.536
11874TIP3   OH235564   3.897   4.210   4.048
11874TIP3    H135565   3.820   4.264   4.067
11874TIP3    H235566   3.968   4.274   4.036
11875TIP3   OH235567   2.131   2.991   4.452
11875TIP3    H135568   2.212   2.996   4.503
11875TIP3    H235569   2.146   3.049   4.378
11876TIP3   OH235570   4.211   3.085   1.106
11876TIP3    H135571   4.189   3.014   1.045
11876TIP3    H235572   4.171   3.163   1.067
11877TIP3   OH235573   2.752   1.597   6.454
11877TIP3    H135574   2.685   1.582   6.388
11877TIP3    H235575   2.725   1.678   6.498
11878TIP3   OH235576   6.042   4.777   4.949
11878TIP3    H135577   6.129   4.802   4.981
11878TIP3    H235578   5.983   4.796   5.021
11879TIP3   OH235579   7.094   3.362   3.612
11879TIP3    H135580   7.093   3.370   3.517
11879TIP3    H235581   7.090   3.452   3.644
11880TIP3   OH235582   1.320   5.513   5.662
11880TIP3    H135583   1.266   5.437   5.638
11880TIP3    H235584   1.356   5.489   5.748
11881TIP3   OH235585   6.262   3.555   3.033
11881TIP3    H135586   6.338   3.606   3.005
11881TIP3    H235587   6.250   3.578   3.125
11882TIP3   OH235588   7.224   1.220   0.618
11882TIP3    H135589   7.258   1.196   0.532
11882TIP3    H235590   7.169   1.146   0.644
11883TIP3   OH235591   5.075   5.295   0.177
11883TIP3    H135592   5.166   5.281   0.150
11883TIP3    H235593   5.026   5.293   0.095
11884TIP3   OH235594   6.228   2.359   6.139
11884TIP3    H135595   6.223   2.399   6.052
11884TIP3    H235596   6.139   2.366   6.173
11885TIP3   OH235597   3.605   7.746   2.893
11885TIP3    H135598   3.673   7.678   2.895
11885TIP3    H235599   3.524   7.699   2.913
11886TIP3   OH235600   8.051   2.273   4.734
11886TIP3    H135601   8.044   2.184   4.698
11886TIP3    H235602   8.064   2.259   4.828
11887TIP3   OH235603   3.615   6.572   5.525
11887TIP3    H135604   3.550   6.539   5.588
11887TIP3    H235605   3.615   6.666   5.539
11888TIP3   OH235606   0.882   7.577   3.055
11888TIP3    H135607   0.956   7.522   3.030
11888TIP3    H235608   0.861   7.626   2.976
11889TIP3   OH235609   0.310   5.103   6.480
11889TIP3    H135610   0.299   5.176   6.419
11889TIP3    H235611   0.405   5.088   6.482
11890TIP3   OH235612   4.366   3.045   3.806
11890TIP3    H135613   4.303   2.988   3.762
11890TIP3    H235614   4.374   3.121   3.749
11891TIP3   OH235615   7.224   6.577   5.690
11891TIP3    H135616   7.277   6.646   5.652
11891TIP3    H235617   7.172   6.544   5.617
11892TIP3   OH235618   6.354   6.300   3.332
11892TIP3    H135619   6.383   6.330   3.246
11892TIP3    H235620   6.435   6.281   3.379
11893TIP3   OH235621   1.998   6.076   4.290
11893TIP3    H135622   2.008   6.142   4.221
11893TIP3    H235623   1.923   6.106   4.341
11894TIP3   OH235624   2.029   7.197   3.897
11894TIP3    H135625   2.019   7.126   3.960
11894TIP3    H235626   1.970   7.265   3.929
11895TIP3   OH235627   2.586   2.459   4.043
11895TIP3    H135628   2.632   2.399   4.101
11895TIP3    H235629   2.585   2.542   4.090
11896TIP3   OH235630   4.015   2.098   3.995
11896TIP3    H135631   3.957   2.157   4.043
11896TIP3    H235632   4.060   2.154   3.931
11897TIP3   OH235633   1.604   2.364   5.239
11897TIP3    H135634   1.517   2.347   5.204
11897TIP3    H235635   1.590   2.389   5.330
11898TIP3   OH235636   5.452   3.616   4.486
11898TIP3    H135637   5.484   3.536   4.527
11898TIP3    H235638   5.393   3.655   4.550
11899TIP3   OH235639   5.837   3.126   2.571
11899TIP3    H135640   5.906   3.192   2.578
11899TIP3    H235641   5.803   3.117   2.660
11900TIP3   OH235642   1.825   3.724   5.551
11900TIP3    H135643   1.729   3.724   5.556
11900TIP3    H235644   1.846   3.799   5.495
11901TIP3   OH235645   8.162   7.058   3.492
11901TIP3    H135646   8.224   7.073   3.420
11901TIP3    H235647   8.218   7.036   3.567
11902TIP3   OH235648   5.288   1.291   4.943
11902TIP3    H135649   5.370   1.247   4.923
11902TIP3    H235650   5.237   1.225   4.992
11903TIP3   OH235651   7.639   2.871   3.308
11903TIP3    H135652   7.702   2.868   3.236
11903TIP3    H235653   7.555   2.889   3.267
11904TIP3   OH235654   7.845   1.964   4.422
11904TIP3    H135655   7.777   1.920   4.372
11904TIP3    H235656   7.907   1.997   4.356
11905TIP3   OH235657   2.700   7.532   0.999
11905TIP3    H135658   2.648   7.601   0.959
11905TIP3    H235659   2.761   7.578   1.056
11906TIP3   OH235660   2.885   4.910   0.598
11906TIP3    H135661   2.968   4.893   0.643
11906TIP3    H235662   2.848   4.823   0.581
11907TIP3   OH235663   7.190   1.920   1.937
11907TIP3    H135664   7.139   1.901   1.858
11907TIP3    H235665   7.137   1.886   2.009
11908TIP3   OH235666   8.029   0.867   1.325
11908TIP3    H135667   8.020   0.904   1.237
11908TIP3    H235668   8.025   0.772   1.311
11909TIP3   OH235669   3.878   7.146   3.864
11909TIP3    H135670   3.917   7.216   3.917
11909TIP3    H235671   3.880   7.069   3.921
11910TIP3   OH235672   3.333   1.285   4.644
11910TIP3    H135673   3.366   1.375   4.643
11910TIP3    H235674   3.344   1.255   4.554
11911TIP3   OH235675   3.055   4.097   3.727
11911TIP3    H135676   3.080   4.159   3.795
11911TIP3    H235677   3.137   4.051   3.706
11912TIP3   OH235678   6.146   3.920   0.148
11912TIP3    H135679   6.103   4.002   0.124
11912TIP3    H235680   6.197   3.895   0.070
11913TIP3   OH235681   7.207   6.973   4.519
11913TIP3    H135682   7.132   7.032   4.528
11913TIP3    H235683   7.268   7.020   4.463
11914TIP3   OH235684   1.157   3.702   3.678
11914TIP3    H135685   1.063   3.691   3.692
11914TIP3    H235686   1.197   3.630   3.726
11915TIP3   OH235687   1.102   1.474   6.662
11915TIP3    H135688   1.196   1.490   6.667
11915TIP3    H235689   1.088   1.399   6.721
11916TIP3   OH235690   1.399   0.945   2.803
11916TIP3    H135691   1.405   1.003   2.878
11916TIP3    H235692   1.308   0.950   2.775
11917TIP3   OH235693   5.426   3.384   2.259
11917TIP3    H135694   5.502   3.421   2.305
11917TIP3    H235695   5.456   3.298   2.229
11918TIP3   OH235696   1.597   1.553   5.237
11918TIP3    H135697   1.620   1.461   5.247
11918TIP3    H235698   1.669   1.590   5.185
11919TIP3   OH235699  -0.041   3.772   0.446
11919TIP3    H135700   0.005   3.715   0.383
11919TIP3    H235701   0.024   3.789   0.514
11920TIP3   OH235702   1.043   0.550   2.498
11920TIP3    H135703   1.056   0.546   2.403
11920TIP3    H235704   0.965   0.496   2.514
11921TIP3   OH235705   3.944   4.451   2.206
11921TIP3    H135706   3.874   4.489   2.153
11921TIP3    H235707   3.936   4.357   2.193
11922TIP3   OH235708   1.209   2.093   6.643
11922TIP3    H135709   1.255   2.123   6.721
11922TIP3    H235710   1.241   2.004   6.630
11923TIP3   OH235711   1.271   3.234   3.864
11923TIP3    H135712   1.220   3.308   3.898
11923TIP3    H235713   1.205   3.169   3.839
11924TIP3   OH235714   2.095   1.582   0.256
11924TIP3    H135715   2.006   1.616   0.247
11924TIP3    H235716   2.084   1.487   0.262
11925TIP3   OH235717   5.270   4.282   5.043
11925TIP3    H135718   5.208   4.349   5.016
11925TIP3    H235719   5.319   4.323   5.115
11926TIP3   OH235720   5.302   1.093   0.144
11926TIP3    H135721   5.315   1.162   0.079
11926TIP3    H235722   5.291   1.014   0.093
11927TIP3   OH235723   7.135   0.970   0.573
11927TIP3    H135724   7.176   0.912   0.509
11927TIP3    H235725   7.043   0.974   0.546
11928TIP3   OH235726   1.086   3.990   3.857
11928TIP3    H135727   1.084   4.057   3.789
11928TIP3    H235728   1.177   3.958   3.857
11929TIP3   OH235729   3.116   4.312   2.595
11929TIP3    H135730   3.188   4.273   2.644
11929TIP3    H235731   3.110   4.402   2.629
11930TIP3   OH235732   7.438   0.493   4.004
11930TIP3    H135733   7.528   0.510   4.031
11930TIP3    H235734   7.394   0.465   4.085
11931TIP3   OH235735   7.528   1.014   3.461
11931TIP3    H135736   7.440   0.980   3.472
11931TIP3    H235737   7.584   0.950   3.505
11932TIP3   OH235738   3.971   5.118   3.091
11932TIP3    H135739   3.900   5.129   3.154
11932TIP3    H235740   3.937   5.056   3.027
11933TIP3   OH235741   5.567   2.330  -0.003
11933TIP3    H135742   5.615   2.316  -0.085
11933TIP3    H235743   5.635   2.346   0.062
11934TIP3   OH235744   6.643   5.462   4.583
11934TIP3    H135745   6.673   5.541   4.630
11934TIP3    H235746   6.564   5.435   4.628
11935TIP3   OH235747   7.634   2.157   0.142
11935TIP3    H135748   7.555   2.111   0.168
11935TIP3    H235749   7.603   2.233   0.092
11936TIP3   OH235750   4.267   5.524   1.107
11936TIP3    H135751   4.264   5.605   1.158
11936TIP3    H235752   4.237   5.457   1.168
11937TIP3   OH235753   1.382   1.054   3.063
11937TIP3    H135754   1.303   1.109   3.056
11937TIP3    H235755   1.404   1.055   3.156
11938TIP3   OH235756   1.977   1.446   4.020
11938TIP3    H135757   2.064   1.408   4.008
11938TIP3    H235758   1.951   1.419   4.108
11939TIP3   OH235759   1.960   2.863   2.674
11939TIP3    H135760   2.044   2.909   2.677
11939TIP3    H235761   1.983   2.774   2.646
11940TIP3   OH235762   0.200   4.602   2.072
11940TIP3    H135763   0.118   4.590   2.024
11940TIP3    H235764   0.214   4.518   2.117
11941TIP3   OH235765   5.538   7.798   2.689
11941TIP3    H135766   5.467   7.861   2.671
11941TIP3    H235767   5.515   7.761   2.774
11942TIP3   OH235768   5.777   3.875   0.101
11942TIP3    H135769   5.731   3.911   0.178
11942TIP3    H235770   5.847   3.938   0.085
11943TIP3   OH235771   5.699   7.558   3.961
11943TIP3    H135772   5.644   7.631   3.933
11943TIP3    H235773   5.788   7.583   3.936
11944TIP3   OH235774   1.043   3.312   5.768
11944TIP3    H135775   0.954   3.308   5.804
11944TIP3    H235776   1.072   3.401   5.784
11945TIP3   OH235777   8.103   1.490   5.947
11945TIP3    H135778   8.029   1.430   5.942
11945TIP3    H235779   8.071   1.564   5.999
11946TIP3   OH235780   6.352   1.364   2.397
11946TIP3    H135781   6.433   1.414   2.406
11946TIP3    H235782   6.283   1.426   2.419
11947TIP3   OH235783   2.542   2.336   1.195
11947TIP3    H135784   2.471   2.386   1.234
11947TIP3    H235785   2.561   2.381   1.112
11948TIP3   OH235786   5.145   0.722   3.708
11948TIP3    H135787   5.142   0.634   3.670
11948TIP3    H235788   5.087   0.717   3.783
11949TIP3   OH235789   3.119   0.678   4.013
11949TIP3    H135790   3.119   0.591   4.054
11949TIP3    H235791   3.030   0.689   3.979
11950TIP3   OH235792   5.623   6.704   6.595
11950TIP3    H135793   5.561   6.631   6.589
11950TIP3    H235794   5.686   6.688   6.525
11951TIP3   OH235795   3.439   3.612   3.783
11951TIP3    H135796   3.496   3.679   3.822
11951TIP3    H235797   3.485   3.585   3.704
11952TIP3   OH235798   1.516   3.711   2.078
11952TIP3    H135799   1.600   3.683   2.116
11952TIP3    H235800   1.460   3.634   2.083
11953TIP3   OH235801   7.254   4.638   1.914
11953TIP3    H135802   7.170   4.599   1.889
11953TIP3    H235803   7.279   4.690   1.838
11954TIP3   OH235804   3.287   0.389   0.191
11954TIP3    H135805   3.373   0.411   0.153
11954TIP3    H235806   3.248   0.330   0.127
11955TIP3   OH235807   5.722   1.700   5.133
11955TIP3    H135808   5.644   1.670   5.087
11955TIP3    H235809   5.743   1.629   5.193
11956TIP3   OH235810   6.798   0.949   2.572
11956TIP3    H135811   6.887   0.921   2.553
11956TIP3    H235812   6.783   0.921   2.663
11957TIP3   OH235813   0.784   0.540   1.749
11957TIP3    H135814   0.722   0.600   1.708
11957TIP3    H235815   0.747   0.453   1.735
11958TIP3   OH235816   7.739   5.887   0.276
11958TIP3    H135817   7.825   5.918   0.305
11958TIP3    H235818   7.753   5.795   0.254
11959TIP3   OH235819   0.892   5.058   6.115
11959TIP3    H135820   0.917   5.033   6.204
11959TIP3    H235821   0.883   4.976   6.068
11960TIP3   OH235822   3.762   6.509   0.337
11960TIP3    H135823   3.857   6.521   0.340
11960TIP3    H235824   3.735   6.547   0.254
11961TIP3   OH235825   7.087   0.972   1.671
11961TIP3    H135826   7.018   0.920   1.712
11961TIP3    H235827   7.040   1.040   1.623
11962TIP3   OH235828   3.174   4.424   4.623
11962TIP3    H135829   3.185   4.339   4.580
11962TIP3    H235830   3.182   4.488   4.553
11963TIP3   OH235831   1.966   7.567   2.850
11963TIP3    H135832   1.914   7.618   2.912
11963TIP3    H235833   1.974   7.480   2.890
11964TIP3   OH235834   7.597   4.526   6.758
11964TIP3    H135835   7.613   4.564   6.672
11964TIP3    H235836   7.647   4.445   6.759
11965TIP3   OH235837   2.622   6.682   2.689
11965TIP3    H135838   2.716   6.664   2.688
11965TIP3    H235839   2.599   6.691   2.596
11966TIP3   OH235840   4.699   4.465   3.501
11966TIP3    H135841   4.740   4.454   3.586
11966TIP3    H235842   4.664   4.554   3.502
11967TIP3   OH235843   4.427   6.336   6.140
11967TIP3    H135844   4.412   6.358   6.232
11967TIP3    H235845   4.453   6.418   6.099
11968TIP3   OH235846   4.644   2.013   5.755
11968TIP3    H135847   4.725   2.035   5.802
11968TIP3    H235848   4.586   1.978   5.822
11969TIP3   OH235849   4.018   5.139   2.250
11969TIP3    H135850   3.952   5.206   2.234
11969TIP3    H235851   4.082   5.181   2.306
11970TIP3   OH235852   6.207   3.370   5.629
11970TIP3    H135853   6.143   3.441   5.630
11970TIP3    H235854   6.282   3.406   5.582
11971TIP3   OH235855   4.466   1.753   2.346
11971TIP3    H135856   4.512   1.689   2.291
11971TIP3    H235857   4.448   1.706   2.427
11972TIP3   OH235858   6.651   5.937   0.074
11972TIP3    H135859   6.577   5.987   0.110
11972TIP3    H235860   6.694   5.900   0.151
11973TIP3   OH235861   5.720   7.345   2.315
11973TIP3    H135862   5.794   7.291   2.288
11973TIP3    H235863   5.749   7.387   2.396
11974TIP3   OH235864   1.751   4.557   1.189
11974TIP3    H135865   1.708   4.483   1.232
11974TIP3    H235866   1.808   4.517   1.124
11975TIP3   OH235867   2.871   2.364   1.814
11975TIP3    H135868   2.911   2.382   1.729
11975TIP3    H235869   2.944   2.350   1.874
11976TIP3   OH235870   2.420   1.992   0.370
11976TIP3    H135871   2.468   2.016   0.450
11976TIP3    H235872   2.368   1.916   0.395
11977TIP3   OH235873   4.405   7.619   3.735
11977TIP3    H135874   4.356   7.665   3.666
11977TIP3    H235875   4.374   7.659   3.817
11978TIP3   OH235876   5.204   5.659   0.998
11978TIP3    H135877   5.294   5.651   0.968
11978TIP3    H235878   5.174   5.742   0.959
11979TIP3   OH235879   1.570   5.038   6.246
11979TIP3    H135880   1.603   4.965   6.193
11979TIP3    H235881   1.620   5.113   6.217
11980TIP3   OH235882   1.137   0.722   5.512
11980TIP3    H135883   1.136   0.697   5.419
11980TIP3    H235884   1.065   0.784   5.521
11981TIP3   OH235885   1.119   7.521   6.632
11981TIP3    H135886   1.086   7.510   6.721
11981TIP3    H235887   1.060   7.469   6.578
11982TIP3   OH235888   0.837   1.692   6.420
11982TIP3    H135889   0.796   1.720   6.338
11982TIP3    H235890   0.795   1.608   6.440
11983TIP3   OH235891   5.699   0.455   2.059
11983TIP3    H135892   5.734   0.375   2.099
11983TIP3    H235893   5.607   0.456   2.084
11984TIP3   OH235894   0.792   5.063   2.470
11984TIP3    H135895   0.716   5.006   2.477
11984TIP3    H235896   0.762   5.136   2.415
11985TIP3   OH235897   4.346   4.045   1.501
11985TIP3    H135898   4.349   3.968   1.558
11985TIP3    H235899   4.416   4.030   1.437
11986TIP3   OH235900   0.491   2.887   2.772
11986TIP3    H135901   0.487   2.903   2.678
11986TIP3    H235902   0.445   2.804   2.785
11987TIP3   OH235903   7.395   2.498   0.962
11987TIP3    H135904   7.340   2.489   0.884
11987TIP3    H235905   7.425   2.410   0.980
11988TIP3   OH235906   3.366   1.715   2.821
11988TIP3    H135907   3.429   1.780   2.854
11988TIP3    H235908   3.319   1.761   2.752
11989TIP3   OH235909   6.837   0.956   2.053
11989TIP3    H135910   6.793   0.889   2.106
11989TIP3    H235911   6.889   1.006   2.116
11990TIP3   OH235912   5.464   5.031   3.802
11990TIP3    H135913   5.494   4.952   3.849
11990TIP3    H235914   5.512   5.029   3.719
11991TIP3   OH235915   3.577   0.666   3.639
11991TIP3    H135916   3.637   0.733   3.672
11991TIP3    H235917   3.631   0.586   3.636
11992TIP3   OH235918   8.223   3.985   2.521
11992TIP3    H135919   8.218   3.953   2.611
11992TIP3    H235920   8.134   4.013   2.501
11993TIP3   OH235921   5.292   0.860   1.558
11993TIP3    H135922   5.274   0.798   1.629
11993TIP3    H235923   5.278   0.946   1.597
11994TIP3   OH235924   4.282   4.878   2.840
11994TIP3    H135925   4.356   4.936   2.854
11994TIP3    H235926   4.238   4.912   2.762
11995TIP3   OH235927   8.003   6.581   2.938
11995TIP3    H135928   7.976   6.535   2.859
11995TIP3    H235929   8.046   6.513   2.991
11996TIP3   OH235930   2.483   5.584   4.885
11996TIP3    H135931   2.537   5.510   4.910
11996TIP3    H235932   2.414   5.547   4.830
11997TIP3   OH235933   5.848   4.583   6.765
11997TIP3    H135934   5.829   4.598   6.858
11997TIP3    H235935   5.854   4.671   6.727
11998TIP3   OH235936   7.667   2.954  -0.002
11998TIP3    H135937   7.584   2.931  -0.044
11998TIP3    H235938   7.669   2.900   0.077
11999TIP3   OH235939   3.672   3.463   5.562
11999TIP3    H135940   3.724   3.383   5.558
11999TIP3    H235941   3.710   3.520   5.495
12000TIP3   OH235942   7.013   5.293   1.256
12000TIP3    H135943   7.053   5.377   1.235
12000TIP3    H235944   6.926   5.297   1.216
12001TIP3   OH235945   3.723   0.193   1.482
12001TIP3    H135946   3.719   0.114   1.536
12001TIP3    H235947   3.739   0.159   1.393
12002TIP3   OH235948   5.432   2.717   0.816
12002TIP3    H135949   5.519   2.685   0.792
12002TIP3    H235950   5.427   2.703   0.911
12003TIP3   OH235951   6.597   1.795   4.724
12003TIP3    H135952   6.619   1.733   4.654
12003TIP3    H235953   6.539   1.747   4.782
12004TIP3   OH235954   7.605   1.681   1.085
12004TIP3    H135955   7.646   1.598   1.111
12004TIP3    H235956   7.607   1.681   0.990
12005TIP3   OH235957   2.469   4.874   3.916
12005TIP3    H135958   2.467   4.955   3.864
12005TIP3    H235959   2.552   4.832   3.892
12006TIP3   OH235960   5.001   0.803   0.344
12006TIP3    H135961   4.970   0.714   0.324
12006TIP3    H235962   5.024   0.840   0.259
12007TIP3   OH235963   0.554   4.711   1.622
12007TIP3    H135964   0.632   4.755   1.657
12007TIP3    H235965   0.481   4.760   1.658
12008TIP3   OH235966   6.403   6.400   4.289
12008TIP3    H135967   6.495   6.426   4.301
12008TIP3    H235968   6.364   6.409   4.375
12009TIP3   OH235969   1.392   6.498   4.772
12009TIP3    H135970   1.422   6.467   4.686
12009TIP3    H235971   1.348   6.581   4.754
12010TIP3   OH235972   7.956   6.789   1.267
12010TIP3    H135973   7.981   6.833   1.185
12010TIP3    H235974   7.951   6.697   1.243
12011TIP3   OH235975   6.853   4.234   5.349
12011TIP3    H135976   6.827   4.144   5.329
12011TIP3    H235977   6.908   4.260   5.275
12012TIP3   OH235978   7.932   7.017   1.387
12012TIP3    H135979   7.901   6.997   1.475
12012TIP3    H235980   7.924   6.935   1.339
12013TIP3   OH235981   6.211   1.296   2.108
12013TIP3    H135982   6.220   1.289   2.013
12013TIP3    H235983   6.237   1.210   2.141
12014TIP3   OH235984   7.507   6.366   2.358
12014TIP3    H135985   7.575   6.318   2.311
12014TIP3    H235986   7.449   6.400   2.290
12015TIP3   OH235987   6.359   5.924   3.427
12015TIP3    H135988   6.396   6.011   3.413
12015TIP3    H235989   6.391   5.897   3.513
12016TIP3   OH235990   3.738   3.339   3.103
12016TIP3    H135991   3.790   3.398   3.048
12016TIP3    H235992   3.710   3.393   3.176
12017TIP3   OH235993   2.993   2.428   3.940
12017TIP3    H135994   2.987   2.511   3.893
12017TIP3    H235995   2.969   2.362   3.874
12018TIP3   OH235996   2.851   5.762   5.578
12018TIP3    H135997   2.783   5.730   5.519
12018TIP3    H235998   2.819   5.847   5.607
12019TIP3   OH235999   7.213   0.006   1.276
12019TIP3    H136000   7.263   0.079   1.239
12019TIP3    H236001   7.167   0.044   1.350
12020TIP3   OH236002   5.796   3.601   6.269
12020TIP3    H136003   5.859   3.615   6.197
12020TIP3    H236004   5.806   3.509   6.292
12021TIP3   OH236005   3.223   3.629   3.973
12021TIP3    H136006   3.295   3.661   3.919
12021TIP3    H236007   3.211   3.538   3.945
12022TIP3   OH236008   8.015   6.836   6.237
12022TIP3    H136009   7.949   6.861   6.302
12022TIP3    H236010   7.963   6.810   6.160
12023TIP3   OH236011   8.307   6.955   1.132
12023TIP3    H136012   8.268   6.985   1.214
12023TIP3    H236013   8.237   6.905   1.089
12024TIP3   OH236014   4.752   6.428   3.845
12024TIP3    H136015   4.766   6.523   3.852
12024TIP3    H236016   4.771   6.395   3.932
12025TIP3   OH236017   4.056   5.432   2.188
12025TIP3    H136018   4.115   5.437   2.263
12025TIP3    H236019   4.108   5.462   2.114
12026TIP3   OH236020   1.954   1.820   2.850
12026TIP3    H136021   1.993   1.779   2.927
12026TIP3    H236022   1.861   1.798   2.856
12027TIP3   OH236023   7.231   1.402   5.820
12027TIP3    H136024   7.273   1.484   5.844
12027TIP3    H236025   7.248   1.343   5.894
12028TIP3   OH236026   8.088   7.683   0.435
12028TIP3    H136027   8.108   7.614   0.373
12028TIP3    H236028   7.992   7.685   0.439
12029TIP3   OH236029   3.919   2.171   6.611
12029TIP3    H136030   3.924   2.253   6.660
12029TIP3    H236031   3.889   2.107   6.676
12030TIP3   OH236032   5.188   4.851   0.433
12030TIP3    H136033   5.260   4.887   0.485
12030TIP3    H236034   5.130   4.810   0.498
12031TIP3   OH236035   5.829   3.654   3.094
12031TIP3    H136036   5.758   3.662   3.030
12031TIP3    H236037   5.804   3.712   3.165
12032TIP3   OH236038   0.332   3.516   5.985
12032TIP3    H136039   0.416   3.471   5.987
12032TIP3    H236040   0.345   3.589   5.923
12033TIP3   OH236041   4.909   3.470   0.638
12033TIP3    H136042   4.948   3.419   0.566
12033TIP3    H236043   4.868   3.544   0.594
12034TIP3   OH236044   6.552   2.922   5.928
12034TIP3    H136045   6.548   2.978   6.006
12034TIP3    H236046   6.638   2.941   5.890
12035TIP3   OH236047   0.556   2.044   1.824
12035TIP3    H136048   0.511   2.000   1.751
12035TIP3    H236049   0.582   2.129   1.789
12036TIP3   OH236050   7.363   0.089   4.872
12036TIP3    H136051   7.338   0.182   4.876
12036TIP3    H236052   7.299   0.045   4.927
12037TIP3   OH236053   1.922   2.261   6.717
12037TIP3    H136054   1.991   2.256   6.650
12037TIP3    H236055   1.889   2.351   6.710
12038TIP3   OH236056   0.179   1.826   5.378
12038TIP3    H136057   0.208   1.830   5.287
12038TIP3    H236058   0.247   1.774   5.422
12039TIP3   OH236059   0.958   3.111   1.244
12039TIP3    H136060   0.976   3.183   1.304
12039TIP3    H236061   1.017   3.041   1.272
12040TIP3   OH236062   5.559   7.328   1.819
12040TIP3    H136063   5.626   7.362   1.759
12040TIP3    H236064   5.525   7.406   1.862
12041TIP3   OH236065   1.363   7.235   0.663
12041TIP3    H136066   1.413   7.239   0.581
12041TIP3    H236067   1.274   7.259   0.637
12042TIP3   OH236068   3.945   6.902   1.338
12042TIP3    H136069   3.961   6.980   1.285
12042TIP3    H236070   3.905   6.840   1.277
12043TIP3   OH236071   1.818   2.111   6.476
12043TIP3    H136072   1.727   2.108   6.505
12043TIP3    H236073   1.868   2.070   6.547
12044TIP3   OH236074   2.532   5.028   3.642
12044TIP3    H136075   2.613   5.033   3.591
12044TIP3    H236076   2.487   4.951   3.607
12045TIP3   OH236077   3.304   7.647   1.612
12045TIP3    H136078   3.279   7.560   1.582
12045TIP3    H236079   3.255   7.660   1.693
12046TIP3   OH236080   5.189   0.160   1.554
12046TIP3    H136081   5.190   0.102   1.629
12046TIP3    H236082   5.187   0.248   1.592
12047TIP3   OH236083   0.357   4.504   1.338
12047TIP3    H136084   0.408   4.441   1.287
12047TIP3    H236085   0.348   4.464   1.425
12048TIP3   OH236086   6.679   7.430   3.431
12048TIP3    H136087   6.624   7.362   3.394
12048TIP3    H236088   6.767   7.412   3.397
12049TIP3   OH236089   3.940   7.345   4.499
12049TIP3    H136090   3.936   7.257   4.462
12049TIP3    H236091   3.950   7.402   4.424
12050TIP3   OH236092   1.430   3.285   5.647
12050TIP3    H136093   1.520   3.314   5.633
12050TIP3    H236094   1.436   3.190   5.650
12051TIP3   OH236095   7.539   7.824   2.847
12051TIP3    H136096   7.507   7.767   2.777
12051TIP3    H236097   7.634   7.809   2.848
12052TIP3   OH236098   3.658   7.710   1.968
12052TIP3    H136099   3.651   7.763   1.888
12052TIP3    H236100   3.575   7.662   1.972
12053TIP3   OH236101   6.214   1.808   0.890
12053TIP3    H136102   6.306   1.813   0.865
12053TIP3    H236103   6.195   1.715   0.894
12054TIP3   OH236104   7.425   3.843   4.336
12054TIP3    H136105   7.470   3.800   4.263
12054TIP3    H236106   7.495   3.874   4.393
12055TIP3   OH236107   3.895   2.494   5.288
12055TIP3    H136108   3.927   2.575   5.249
12055TIP3    H236109   3.807   2.484   5.252
12056TIP3   OH236110   7.194   2.558   1.198
12056TIP3    H136111   7.112   2.604   1.176
12056TIP3    H236112   7.208   2.498   1.124
12057TIP3   OH236113   7.997   4.154   3.497
12057TIP3    H136114   8.070   4.175   3.438
12057TIP3    H236115   7.976   4.237   3.540
12058TIP3   OH236116   6.001   1.862   3.733
12058TIP3    H136117   5.907   1.846   3.734
12058TIP3    H236118   6.028   1.856   3.824
12059TIP3   OH236119   1.003   5.712   3.422
12059TIP3    H136120   1.001   5.748   3.334
12059TIP3    H236121   0.951   5.632   3.417
12060TIP3   OH236122   2.046   2.734   0.655
12060TIP3    H136123   2.018   2.790   0.727
12060TIP3    H236124   1.975   2.671   0.645
12061TIP3   OH236125   5.927   3.111   6.457
12061TIP3    H136126   5.851   3.167   6.472
12061TIP3    H236127   5.890   3.026   6.432
12062TIP3   OH236128   8.079   3.192   3.617
12062TIP3    H136129   8.031   3.164   3.540
12062TIP3    H236130   8.065   3.286   3.623
12063TIP3   OH236131   5.762   6.029   5.387
12063TIP3    H136132   5.678   6.037   5.431
12063TIP3    H236133   5.815   5.975   5.446
12064TIP3   OH236134   0.089   7.507   5.096
12064TIP3    H136135   0.142   7.496   5.175
12064TIP3    H236136   0.112   7.594   5.063
12065TIP3   OH236137   0.503   5.829   1.264
12065TIP3    H136138   0.535   5.905   1.312
12065TIP3    H236139   0.474   5.768   1.333
12066TIP3   OH236140   0.490   3.087   3.362
12066TIP3    H136141   0.455   2.998   3.374
12066TIP3    H236142   0.480   3.128   3.448
12067TIP3   OH236143   3.734   5.727   0.670
12067TIP3    H136144   3.791   5.786   0.620
12067TIP3    H236145   3.714   5.656   0.608
12068TIP3   OH236146   2.396   1.402   5.096
12068TIP3    H136147   2.364   1.314   5.078
12068TIP3    H236148   2.469   1.389   5.157
12069TIP3   OH236149   2.469   4.996   6.695
12069TIP3    H136150   2.389   5.026   6.739
12069TIP3    H236151   2.530   4.977   6.767
12070TIP3   OH236152   5.493   1.921   1.020
12070TIP3    H136153   5.525   1.836   1.051
12070TIP3    H236154   5.441   1.955   1.093
12071TIP3   OH236155   1.047   4.804   3.772
12071TIP3    H136156   1.069   4.872   3.836
12071TIP3    H236157   1.092   4.726   3.803
12072TIP3   OH236158   6.876   2.565   5.734
12072TIP3    H136159   6.866   2.488   5.677
12072TIP3    H236160   6.970   2.577   5.743
12073TIP3   OH236161   1.072   1.980   3.051
12073TIP3    H136162   1.018   1.950   3.124
12073TIP3    H236163   1.028   2.061   3.021
12074TIP3   OH236164   0.117   6.281   4.433
12074TIP3    H136165   0.051   6.350   4.445
12074TIP3    H236166   0.071   6.200   4.452
12075TIP3   OH236167   7.342   1.606   1.119
12075TIP3    H136168   7.437   1.620   1.118
12075TIP3    H236169   7.312   1.647   1.199
12076TIP3   OH236170   0.691   4.946   6.566
12076TIP3    H136171   0.772   4.895   6.569
12076TIP3    H236172   0.623   4.884   6.594
12077TIP3   OH236173   5.385   1.070   3.501
12077TIP3    H136174   5.463   1.034   3.458
12077TIP3    H236175   5.388   1.034   3.590
12078TIP3   OH236176   1.817   0.913   3.322
12078TIP3    H136177   1.757   0.981   3.351
12078TIP3    H236178   1.883   0.959   3.271
12079TIP3   OH236179   2.483   7.041   4.490
12079TIP3    H136180   2.552   7.042   4.423
12079TIP3    H236181   2.530   7.020   4.571
12080TIP3   OH236182   8.294   1.850   1.309
12080TIP3    H136183   8.226   1.828   1.373
12080TIP3    H236184   8.258   1.821   1.225
12081TIP3   OH236185   0.754   5.028   5.366
12081TIP3    H136186   0.771   4.934   5.365
12081TIP3    H236187   0.764   5.053   5.458
12082TIP3   OH236188   2.840   7.422   2.465
12082TIP3    H136189   2.762   7.428   2.410
12082TIP3    H236190   2.840   7.504   2.515
12083TIP3   OH236191   4.455   4.310   3.607
12083TIP3    H136192   4.523   4.253   3.570
12083TIP3    H236193   4.432   4.369   3.535
12084TIP3   OH236194   0.168   4.430   5.309
12084TIP3    H136195   0.255   4.405   5.276
12084TIP3    H236196   0.143   4.505   5.255
12085TIP3   OH236197   5.591   4.015   5.534
12085TIP3    H136198   5.576   3.931   5.578
12085TIP3    H236199   5.590   4.079   5.605
12086TIP3   OH236200   8.127   0.382   2.893
12086TIP3    H136201   8.102   0.475   2.891
12086TIP3    H236202   8.075   0.341   2.825
12087TIP3   OH236203   0.831   4.444   2.018
12087TIP3    H136204   0.919   4.406   2.013
12087TIP3    H236205   0.802   4.448   1.927
12088TIP3   OH236206   7.147   3.732   4.268
12088TIP3    H136207   7.169   3.639   4.269
12088TIP3    H236208   7.134   3.754   4.361
12089TIP3   OH236209   3.535   6.561   1.840
12089TIP3    H136210   3.572   6.540   1.754
12089TIP3    H236211   3.503   6.651   1.831
12090TIP3   OH236212   5.441   3.104   0.915
12090TIP3    H136213   5.433   3.085   1.009
12090TIP3    H236214   5.522   3.060   0.889
12091TIP3   OH236215   4.859   3.729   3.011
12091TIP3    H136216   4.926   3.665   2.987
12091TIP3    H236217   4.909   3.805   3.041
12092TIP3   OH236218   0.402   2.651   5.622
12092TIP3    H136219   0.485   2.643   5.670
12092TIP3    H236220   0.403   2.578   5.560
12093TIP3   OH236221   3.088   4.088   6.161
12093TIP3    H136222   3.040   4.089   6.244
12093TIP3    H236223   3.176   4.119   6.183
12094TIP3   OH236224   7.021   6.152   5.054
12094TIP3    H136225   6.973   6.071   5.074
12094TIP3    H236226   7.108   6.121   5.027
12095TIP3   OH236227   0.098   3.143   0.998
12095TIP3    H136228   0.089   3.209   0.930
12095TIP3    H236229   0.145   3.071   0.956
12096TIP3   OH236230   6.023   1.060   2.434
12096TIP3    H136231   6.102   1.079   2.384
12096TIP3    H236232   6.054   1.031   2.519
12097TIP3   OH236233   2.397   5.255   2.264
12097TIP3    H136234   2.325   5.193   2.277
12097TIP3    H236235   2.475   5.199   2.257
12098TIP3   OH236236   0.580   0.359   6.132
12098TIP3    H136237   0.485   0.365   6.117
12098TIP3    H236238   0.589   0.355   6.227
12099TIP3   OH236239   4.226   0.618   2.729
12099TIP3    H136240   4.310   0.598   2.770
12099TIP3    H236241   4.168   0.639   2.803
12100TIP3   OH236242   8.153   4.096   3.941
12100TIP3    H136243   8.084   4.102   4.007
12100TIP3    H236244   8.111   4.056   3.865
12101TIP3   OH236245   5.226   6.582   0.175
12101TIP3    H136246   5.289   6.599   0.104
12101TIP3    H236247   5.154   6.536   0.132
12102TIP3   OH236248   6.252   2.857   1.302
12102TIP3    H136249   6.332   2.900   1.274
12102TIP3    H236250   6.211   2.828   1.221
12103TIP3   OH236251   2.834   4.381   0.188
12103TIP3    H136252   2.909   4.410   0.239
12103TIP3    H236253   2.809   4.457   0.136
12104TIP3   OH236254   4.458   5.681   0.598
12104TIP3    H136255   4.372   5.644   0.616
12104TIP3    H236256   4.497   5.621   0.534
12105TIP3   OH236257   2.322   0.845   0.377
12105TIP3    H136258   2.300   0.785   0.306
12105TIP3    H236259   2.330   0.788   0.454
12106TIP3   OH236260   5.338   0.140   2.238
12106TIP3    H136261   5.365   0.111   2.325
12106TIP3    H236262   5.254   0.183   2.252
12107TIP3   OH236263   0.774   3.956   1.363
12107TIP3    H136264   0.782   3.935   1.456
12107TIP3    H236265   0.696   3.908   1.334
12108TIP3   OH236266   5.436   0.129   6.214
12108TIP3    H136267   5.489   0.191   6.164
12108TIP3    H236268   5.490   0.049   6.217
12109TIP3   OH236269   4.100   3.517   6.583
12109TIP3    H136270   4.081   3.566   6.503
12109TIP3    H236271   4.186   3.548   6.611
12110TIP3   OH236272   1.007   7.365   1.847
12110TIP3    H136273   1.057   7.361   1.928
12110TIP3    H236274   0.924   7.323   1.868
12111TIP3   OH236275   7.776   5.755   4.507
12111TIP3    H136276   7.687   5.732   4.535
12111TIP3    H236277   7.810   5.810   4.578
12112TIP3   OH236278   4.799   1.912   6.655
12112TIP3    H136279   4.766   1.954   6.575
12112TIP3    H236280   4.859   1.975   6.692
12113TIP3   OH236281   1.582   3.368   3.433
12113TIP3    H136282   1.647   3.301   3.414
12113TIP3    H236283   1.561   3.405   3.347
12114TIP3   OH236284   4.555   7.034   2.990
12114TIP3    H136285   4.618   7.098   3.022
12114TIP3    H236286   4.515   6.997   3.069
12115TIP3   OH236287   5.362   1.918   0.478
12115TIP3    H136288   5.374   1.991   0.417
12115TIP3    H236289   5.396   1.951   0.561
12116TIP3   OH236290   4.974   0.979   2.681
12116TIP3    H136291   4.940   0.900   2.725
12116TIP3    H236292   4.908   1.046   2.699
12117TIP3   OH236293   4.476   1.262   3.294
12117TIP3    H136294   4.397   1.211   3.313
12117TIP3    H236295   4.443   1.351   3.280
12118TIP3   OH236296   6.088   2.416   2.570
12118TIP3    H136297   6.082   2.439   2.662
12118TIP3    H236298   6.161   2.354   2.566
12119TIP3   OH236299   5.609   4.575   5.911
12119TIP3    H136300   5.619   4.668   5.890
12119TIP3    H236301   5.604   4.532   5.826
12120TIP3   OH236302   0.837   3.812   5.418
12120TIP3    H136303   0.853   3.748   5.349
12120TIP3    H236304   0.774   3.768   5.476
12121TIP3   OH236305   1.599   3.833   4.551
12121TIP3    H136306   1.516   3.792   4.579
12121TIP3    H236307   1.589   3.925   4.576
12122TIP3   OH236308   5.387   1.646   0.499
12122TIP3    H136309   5.364   1.731   0.460
12122TIP3    H236310   5.386   1.585   0.425
12123TIP3   OH236311   6.292   1.948   0.238
12123TIP3    H136312   6.270   1.983   0.324
12123TIP3    H236313   6.333   2.021   0.192
12124TIP3   OH236314   7.002   6.216   0.519
12124TIP3    H136315   7.033   6.177   0.438
12124TIP3    H236316   7.081   6.241   0.566
12125TIP3   OH236317   6.869   0.078   1.343
12125TIP3    H136318   6.839   0.081   1.434
12125TIP3    H236319   6.791   0.097   1.291
12126TIP3   OH236320   7.964   3.111   2.563
12126TIP3    H136321   7.880   3.092   2.522
12126TIP3    H236322   8.013   3.029   2.555
12127TIP3   OH236323   1.339   7.492   0.181
12127TIP3    H136324   1.434   7.504   0.186
12127TIP3    H236325   1.324   7.458   0.093
12128TIP3   OH236326   3.698   1.224   1.468
12128TIP3    H136327   3.711   1.129   1.467
12128TIP3    H236328   3.646   1.240   1.546
12129TIP3   OH236329   8.011   1.232   0.371
12129TIP3    H136330   8.014   1.325   0.391
12129TIP3    H236331   7.918   1.210   0.371
12130TIP3   OH236332   2.922   6.075   0.144
12130TIP3    H136333   2.875   6.004   0.187
12130TIP3    H236334   3.014   6.051   0.151
12131TIP3   OH236335   0.169   5.293   5.329
12131TIP3    H136336   0.221   5.374   5.331
12131TIP3    H236337   0.182   5.258   5.241
12132TIP3   OH236338   6.434   6.039   0.198
12132TIP3    H136339   6.369   5.976   0.228
12132TIP3    H236340   6.382   6.111   0.162
12133TIP3   OH236341   6.580   3.824   1.947
12133TIP3    H136342   6.489   3.846   1.964
12133TIP3    H236343   6.593   3.843   1.854
12134TIP3   OH236344   5.424   0.421   6.536
12134TIP3    H136345   5.507   0.372   6.542
12134TIP3    H236346   5.437   0.479   6.461
12135TIP3   OH236347   0.316   5.500   5.239
12135TIP3    H136348   0.393   5.444   5.248
12135TIP3    H236349   0.339   5.579   5.288
12136TIP3   OH236350   6.448   0.279   6.342
12136TIP3    H136351   6.412   0.237   6.263
12136TIP3    H236352   6.373   0.322   6.382
12137TIP3   OH236353   4.658   5.294   1.589
12137TIP3    H136354   4.615   5.250   1.515
12137TIP3    H236355   4.726   5.233   1.616
12138TIP3   OH236356   4.996   3.901   4.938
12138TIP3    H136357   5.042   3.948   4.868
12138TIP3    H236358   4.997   3.809   4.909
12139TIP3   OH236359   1.044   7.731   2.095
12139TIP3    H136360   1.103   7.766   2.162
12139TIP3    H236361   1.073   7.773   2.014
12140TIP3   OH236362   7.323   2.746   0.413
12140TIP3    H136363   7.356   2.665   0.374
12140TIP3    H236364   7.377   2.759   0.491
12141TIP3   OH236365   7.607   3.006   6.060
12141TIP3    H136366   7.676   3.024   5.995
12141TIP3    H236367   7.595   2.911   6.055
12142TIP3   OH236368   5.099   0.317   1.975
12142TIP3    H136369   5.100   0.319   2.071
12142TIP3    H236370   5.006   0.313   1.953
12143TIP3   OH236371   7.096   3.018   2.430
12143TIP3    H136372   7.139   3.090   2.476
12143TIP3    H236373   7.103   3.040   2.338
12144TIP3   OH236374   2.824   4.740   5.499
12144TIP3    H136375   2.863   4.653   5.499
12144TIP3    H236376   2.893   4.797   5.463
12145TIP3   OH236377   5.684   2.636   3.059
12145TIP3    H136378   5.595   2.607   3.080
12145TIP3    H236379   5.694   2.719   3.105
12146TIP3   OH236380   7.855   4.249   2.674
12146TIP3    H136381   7.854   4.179   2.740
12146TIP3    H236382   7.899   4.210   2.598
12147TIP3   OH236383   7.071   6.722   0.718
12147TIP3    H136384   7.032   6.726   0.631
12147TIP3    H236385   7.037   6.641   0.756
12148TIP3   OH236386   3.547   1.902   2.928
12148TIP3    H136387   3.482   1.972   2.936
12148TIP3    H236388   3.602   1.929   2.855
12149TIP3   OH236389   5.037   2.969   1.291
12149TIP3    H136390   5.000   2.887   1.259
12149TIP3    H236391   5.016   2.969   1.385
12150TIP3   OH236392   7.291   7.543   1.250
12150TIP3    H136393   7.336   7.506   1.326
12150TIP3    H236394   7.354   7.534   1.178
12151TIP3   OH236395   6.356   4.841   2.589
12151TIP3    H136396   6.312   4.786   2.524
12151TIP3    H236397   6.286   4.894   2.627
12152TIP3   OH236398   1.162   4.175   2.135
12152TIP3    H136399   1.157   4.210   2.046
12152TIP3    H236400   1.204   4.090   2.125
12153TIP3   OH236401   7.443   5.424   4.923
12153TIP3    H136402   7.450   5.478   4.844
12153TIP3    H236403   7.442   5.334   4.891
12154TIP3   OH236404   4.235  -0.009   4.799
12154TIP3    H136405   4.231   0.086   4.806
12154TIP3    H236406   4.153  -0.034   4.758
12155TIP3   OH236407   0.229   0.467   3.245
12155TIP3    H136408   0.287   0.518   3.189
12155TIP3    H236409   0.277   0.386   3.263
12156TIP3   OH236410   3.213   2.643   2.699
12156TIP3    H136411   3.130   2.691   2.697
12156TIP3    H236412   3.268   2.694   2.759
12157TIP3   OH236413   6.050   4.463   5.036
12157TIP3    H136414   6.037   4.516   5.115
12157TIP3    H236415   5.975   4.403   5.035
12158TIP3   OH236416   2.544   2.763   4.739
12158TIP3    H136417   2.604   2.837   4.747
12158TIP3    H236418   2.582   2.709   4.670
12159TIP3   OH236419   6.032   4.306   5.297
12159TIP3    H136420   6.036   4.275   5.387
12159TIP3    H236421   6.075   4.237   5.246
12160TIP3   OH236422   0.779   0.062   4.868
12160TIP3    H136423   0.739   0.132   4.919
12160TIP3    H236424   0.705   0.015   4.830
12161TIP3   OH236425   0.444   4.423   0.118
12161TIP3    H136426   0.475   4.334   0.133
12161TIP3    H236427   0.500   4.457   0.048
12162TIP3   OH236428   7.359   1.045   1.560
12162TIP3    H136429   7.349   1.064   1.467
12162TIP3    H236430   7.418   1.113   1.593
12163TIP3   OH236431   6.109   4.062   2.662
12163TIP3    H136432   6.083   4.124   2.593
12163TIP3    H236433   6.204   4.066   2.663
12164TIP3   OH236434   0.489   6.935   2.611
12164TIP3    H136435   0.498   7.030   2.617
12164TIP3    H236436   0.573   6.900   2.642
12165TIP3   OH236437   4.594   2.371   4.050
12165TIP3    H136438   4.574   2.447   3.995
12165TIP3    H236439   4.508   2.340   4.080
12166TIP3   OH236440   3.090   5.209   5.744
12166TIP3    H136441   3.102   5.286   5.800
12166TIP3    H236442   3.175   5.165   5.746
12167TIP3   OH236443   1.979   5.279   2.089
12167TIP3    H136444   1.938   5.342   2.147
12167TIP3    H236445   2.021   5.216   2.147
12168TIP3   OH236446   0.643   1.844   1.559
12168TIP3    H136447   0.637   1.797   1.642
12168TIP3    H236448   0.601   1.786   1.495
12169TIP3   OH236449   4.568   6.876   2.370
12169TIP3    H136450   4.596   6.899   2.459
12169TIP3    H236451   4.648   6.848   2.326
12170TIP3   OH236452   2.383   4.221   3.403
12170TIP3    H136453   2.413   4.226   3.312
12170TIP3    H236454   2.317   4.152   3.403
12171TIP3   OH236455   1.522   2.872   5.165
12171TIP3    H136456   1.555   2.786   5.138
12171TIP3    H236457   1.448   2.889   5.107
12172TIP3   OH236458   0.892   4.485   3.188
12172TIP3    H136459   0.895   4.523   3.275
12172TIP3    H236460   0.809   4.436   3.186
12173TIP3   OH236461   8.155   4.976   3.168
12173TIP3    H136462   8.215   4.937   3.104
12173TIP3    H236463   8.068   4.949   3.138
12174TIP3   OH236464   2.900   4.586   5.807
12174TIP3    H136465   2.811   4.551   5.816
12174TIP3    H236466   2.895   4.675   5.842
12175TIP3   OH236467   2.833   6.705   5.851
12175TIP3    H136468   2.863   6.631   5.905
12175TIP3    H236469   2.754   6.737   5.896
12176TIP3   OH236470   2.725   7.651   4.598
12176TIP3    H136471   2.645   7.689   4.634
12176TIP3    H236472   2.780   7.726   4.577
12177TIP3   OH236473   8.043   1.121   0.782
12177TIP3    H136474   7.989   1.192   0.816
12177TIP3    H236475   8.116   1.164   0.738
12178TIP3   OH236476   4.088   3.923   3.083
12178TIP3    H136477   4.027   3.923   3.010
12178TIP3    H236478   4.092   3.831   3.110
12179TIP3   OH236479   6.789   1.627   1.617
12179TIP3    H136480   6.764   1.601   1.527
12179TIP3    H236481   6.757   1.555   1.671
12180TIP3   OH236482   4.629   4.553   0.775
12180TIP3    H136483   4.720   4.579   0.762
12180TIP3    H236484   4.611   4.491   0.705
12181TIP3   OH236485   6.141   5.414   1.253
12181TIP3    H136486   6.230   5.442   1.231
12181TIP3    H236487   6.090   5.433   1.174
12182TIP3   OH236488   7.949   6.715   5.976
12182TIP3    H136489   7.859   6.745   5.983
12182TIP3    H236490   7.946   6.621   5.994
12183TIP3   OH236491   6.129   4.223   4.888
12183TIP3    H136492   6.081   4.145   4.917
12183TIP3    H236493   6.111   4.289   4.955
12184TIP3   OH236494   7.886   2.639   2.532
12184TIP3    H136495   7.852   2.550   2.526
12184TIP3    H236496   7.949   2.636   2.604
12185TIP3   OH236497   1.606   0.866   5.731
12185TIP3    H136498   1.538   0.819   5.682
12185TIP3    H236499   1.606   0.825   5.817
12186TIP3   OH236500   5.152   0.908   1.065
12186TIP3    H136501   5.111   0.991   1.089
12186TIP3    H236502   5.159   0.859   1.147
12187TIP3   OH236503   1.934   1.733   3.157
12187TIP3    H136504   1.935   1.651   3.206
12187TIP3    H236505   1.842   1.746   3.133
12188TIP3   OH236506   4.241   6.674   4.839
12188TIP3    H136507   4.279   6.645   4.756
12188TIP3    H236508   4.276   6.613   4.904
12189TIP3   OH236509   0.277   0.354   1.100
12189TIP3    H136510   0.260   0.441   1.064
12189TIP3    H236511   0.203   0.336   1.157
12190TIP3   OH236512   5.292   6.021   2.364
12190TIP3    H136513   5.325   5.941   2.322
12190TIP3    H236514   5.218   5.992   2.417
12191TIP3   OH236515   4.782   3.409   5.555
12191TIP3    H136516   4.699   3.422   5.602
12191TIP3    H236517   4.760   3.429   5.464
12192TIP3   OH236518   2.428   6.225   4.377
12192TIP3    H136519   2.481   6.236   4.298
12192TIP3    H236520   2.339   6.246   4.350
12193TIP3   OH236521   7.083   0.421   5.793
12193TIP3    H136522   6.998   0.452   5.824
12193TIP3    H236523   7.145   0.489   5.823
12194TIP3   OH236524   0.378   5.907   3.422
12194TIP3    H136525   0.400   5.815   3.435
12194TIP3    H236526   0.284   5.908   3.404
12195TIP3   OH236527   6.231   3.171   1.316
12195TIP3    H136528   6.260   3.087   1.349
12195TIP3    H236529   6.136   3.162   1.307
12196TIP3   OH236530   5.893   4.828   5.181
12196TIP3    H136531   5.800   4.834   5.201
12196TIP3    H236532   5.934   4.805   5.265
12197TIP3   OH236533   5.601   3.124   0.454
12197TIP3    H136534   5.571   3.097   0.367
12197TIP3    H236535   5.695   3.138   0.443
12198TIP3   OH236536   7.038   3.352   5.654
12198TIP3    H136537   7.094   3.367   5.730
12198TIP3    H236538   7.098   3.348   5.579
12199TIP3   OH236539   4.737   1.915   6.347
12199TIP3    H136540   4.802   1.969   6.301
12199TIP3    H236541   4.661   1.972   6.358
12200TIP3   OH236542   4.223   6.330   1.805
12200TIP3    H136543   4.283   6.339   1.730
12200TIP3    H236544   4.217   6.419   1.841
12201TIP3   OH236545   1.355   4.142   2.827
12201TIP3    H136546   1.265   4.128   2.856
12201TIP3    H236547   1.367   4.081   2.754
12202TIP3   OH236548   2.419   0.215   3.239
12202TIP3    H136549   2.409   0.306   3.213
12202TIP3    H236550   2.478   0.218   3.315
12203TIP3   OH236551   7.314   3.337   2.889
12203TIP3    H136552   7.226   3.320   2.921
12203TIP3    H236553   7.346   3.410   2.942
12204TIP3   OH236554   6.010   5.330   3.149
12204TIP3    H136555   5.980   5.314   3.059
12204TIP3    H236556   6.006   5.425   3.159
12205TIP3   OH236557   0.849   5.800   1.354
12205TIP3    H136558   0.791   5.724   1.350
12205TIP3    H236559   0.808   5.858   1.418
12206TIP3   OH236560   0.269   2.277   5.326
12206TIP3    H136561   0.210   2.203   5.343
12206TIP3    H236562   0.212   2.353   5.323
12207TIP3   OH236563   6.301   4.544   0.439
12207TIP3    H136564   6.287   4.569   0.348
12207TIP3    H236565   6.228   4.486   0.460
12208TIP3   OH236566   5.612   4.570   1.650
12208TIP3    H136567   5.590   4.647   1.598
12208TIP3    H236568   5.707   4.573   1.658
12209TIP3   OH236569   2.044   4.783   4.470
12209TIP3    H136570   2.120   4.782   4.527
12209TIP3    H236571   2.080   4.784   4.381
12210TIP3   OH236572   2.105   1.022   0.307
12210TIP3    H136573   2.170   0.976   0.361
12210TIP3    H236574   2.021   0.982   0.331
12211TIP3   OH236575   7.273   3.439   6.182
12211TIP3    H136576   7.215   3.508   6.150
12211TIP3    H236577   7.215   3.365   6.198
12212TIP3   OH236578   1.432   0.012   3.641
12212TIP3    H136579   1.442   0.106   3.627
12212TIP3    H236580   1.454  -0.028   3.556
12213TIP3   OH236581   5.271   7.676   6.746
12213TIP3    H136582   5.291   7.604   6.686
12213TIP3    H236583   5.250   7.750   6.688
12214TIP3   OH236584   4.327   5.851   3.635
12214TIP3    H136585   4.290   5.816   3.554
12214TIP3    H236586   4.421   5.858   3.616
12215TIP3   OH236587   4.303   7.340   3.257
12215TIP3    H136588   4.335   7.272   3.317
12215TIP3    H236589   4.376   7.402   3.252
12216TIP3   OH236590   5.870   6.165   1.474
12216TIP3    H136591   5.785   6.199   1.499
12216TIP3    H236592   5.925   6.243   1.463
12217TIP3   OH236593   1.877   6.276   4.640
12217TIP3    H136594   1.826   6.196   4.655
12217TIP3    H236595   1.813   6.347   4.647
12218TIP3   OH236596   7.519   2.393   4.971
12218TIP3    H136597   7.530   2.446   4.892
12218TIP3    H236598   7.536   2.303   4.943
12219TIP3   OH236599   0.099   5.380   4.378
12219TIP3    H136600   0.050   5.352   4.300
12219TIP3    H236601   0.050   5.345   4.452
12220TIP3   OH236602   1.276   0.661   1.480
12220TIP3    H136603   1.206   0.627   1.536
12220TIP3    H236604   1.278   0.602   1.405
12221TIP3   OH236605   6.138   0.849   2.160
12221TIP3    H136606   6.203   0.915   2.138
12221TIP3    H236607   6.189   0.769   2.174
12222TIP3   OH236608   5.469   4.053   4.287
12222TIP3    H136609   5.403   3.983   4.297
12222TIP3    H236610   5.534   4.034   4.354
12223TIP3   OH236611   2.165   6.660   5.625
12223TIP3    H136612   2.248   6.655   5.576
12223TIP3    H236613   2.162   6.577   5.674
12224TIP3   OH236614   6.852   5.888   3.017
12224TIP3    H136615   6.779   5.906   3.077
12224TIP3    H236616   6.851   5.961   2.955
12225TIP3   OH236617   2.151   7.650   6.065
12225TIP3    H136618   2.243   7.637   6.042
12225TIP3    H236619   2.146   7.634   6.159
12226TIP3   OH236620   0.135   4.676   2.522
12226TIP3    H136621   0.180   4.618   2.584
12226TIP3    H236622   0.129   4.625   2.442
12227TIP3   OH236623   6.353   2.105   4.922
12227TIP3    H136624   6.296   2.171   4.960
12227TIP3    H236625   6.311   2.022   4.944
12228TIP3   OH236626   2.240   6.760   0.745
12228TIP3    H136627   2.315   6.807   0.781
12228TIP3    H236628   2.199   6.823   0.685
12229TIP3   OH236629   2.822   6.162   3.570
12229TIP3    H136630   2.777   6.096   3.518
12229TIP3    H236631   2.915   6.151   3.548
12230TIP3   OH236632   5.047   3.154   6.646
12230TIP3    H136633   5.018   3.072   6.685
12230TIP3    H236634   5.138   3.163   6.674
12231TIP3   OH236635   1.726   4.173   1.614
12231TIP3    H136636   1.680   4.258   1.610
12231TIP3    H236637   1.691   4.131   1.692
12232TIP3   OH236638   5.680   1.352   1.383
12232TIP3    H136639   5.660   1.325   1.293
12232TIP3    H236640   5.755   1.411   1.374
12233TIP3   OH236641   0.337   3.263   2.204
12233TIP3    H136642   0.288   3.219   2.134
12233TIP3    H236643   0.415   3.209   2.215
12234TIP3   OH236644   0.512   1.921   5.133
12234TIP3    H136645   0.450   1.853   5.160
12234TIP3    H236646   0.504   1.924   5.038
12235TIP3   OH236647   5.842   4.871   5.489
12235TIP3    H136648   5.777   4.821   5.439
12235TIP3    H236649   5.797   4.894   5.571
12236TIP3   OH236650   6.396   4.444   0.689
12236TIP3    H136651   6.388   4.493   0.607
12236TIP3    H236652   6.468   4.486   0.736
12237TIP3   OH236653   7.569   4.839   1.124
12237TIP3    H136654   7.598   4.928   1.108
12237TIP3    H236655   7.528   4.841   1.210
12238TIP3   OH236656   7.059   1.254   3.876
12238TIP3    H136657   7.047   1.273   3.783
12238TIP3    H236658   7.006   1.319   3.921
12239TIP3   OH236659   2.620   1.731   6.165
12239TIP3    H136660   2.554   1.781   6.213
12239TIP3    H236661   2.686   1.796   6.140
12240TIP3   OH236662   3.167   2.178   5.653
12240TIP3    H136663   3.222   2.240   5.604
12240TIP3    H236664   3.217   2.096   5.652
12241TIP3   OH236665   6.943   3.557   5.057
12241TIP3    H136666   6.891   3.519   5.127
12241TIP3    H236667   6.901   3.529   4.976
12242TIP3   OH236668   1.183   3.940   0.428
12242TIP3    H136669   1.277   3.940   0.447
12242TIP3    H236670   1.141   3.946   0.513
12243TIP3   OH236671   6.684   0.173   5.864
12243TIP3    H136672   6.684   0.114   5.789
12243TIP3    H236673   6.628   0.246   5.837
12244TIP3   OH236674   6.621   5.554   3.883
12244TIP3    H136675   6.553   5.619   3.868
12244TIP3    H236676   6.622   5.543   3.978
12245TIP3   OH236677   6.305   3.278   0.327
12245TIP3    H136678   6.305   3.269   0.422
12245TIP3    H236679   6.248   3.354   0.311
12246TIP3   OH236680   7.057   2.889   2.818
12246TIP3    H136681   7.008   2.924   2.744
12246TIP3    H236682   7.024   2.800   2.828
12247TIP3   OH236683   3.506   5.317   5.558
12247TIP3    H136684   3.414   5.317   5.530
12247TIP3    H236685   3.532   5.409   5.554
12248TIP3   OH236686   2.016   5.841   0.042
12248TIP3    H136687   1.966   5.776   0.092
12248TIP3    H236688   1.981   5.835  -0.047
12249TIP3   OH236689   0.462   2.612   4.962
12249TIP3    H136690   0.454   2.704   4.937
12249TIP3    H236691   0.501   2.570   4.885
12250TIP3   OH236692   5.220   3.328   4.734
12250TIP3    H136693   5.127   3.317   4.717
12250TIP3    H236694   5.242   3.256   4.794
12251TIP3   OH236695   1.915   1.427   5.878
12251TIP3    H136696   1.939   1.370   5.950
12251TIP3    H236697   1.998   1.458   5.843
12252TIP3   OH236698   6.983   3.210   0.640
12252TIP3    H136699   6.992   3.132   0.694
12252TIP3    H236700   7.014   3.282   0.695
12253TIP3   OH236701   1.526   1.559   2.381
12253TIP3    H136702   1.609   1.536   2.423
12253TIP3    H236703   1.462   1.558   2.453
12254TIP3   OH236704   3.959   5.806   4.360
12254TIP3    H136705   4.052   5.828   4.363
12254TIP3    H236706   3.956   5.719   4.321
12255TIP3   OH236707   2.347   0.756   5.509
12255TIP3    H136708   2.370   0.839   5.468
12255TIP3    H236709   2.261   0.734   5.473
12256TIP3   OH236710   1.589   0.051   6.500
12256TIP3    H136711   1.502   0.078   6.472
12256TIP3    H236712   1.575   0.002   6.581
12257TIP3   OH236713   7.658   7.730   1.138
12257TIP3    H136714   7.672   7.642   1.173
12257TIP3    H236715   7.712   7.733   1.059
12258TIP3   OH236716   0.795   5.389   3.451
12258TIP3    H136717   0.872   5.387   3.394
12258TIP3    H236718   0.728   5.339   3.403
12259TIP3   OH236719   4.324   6.404   1.342
12259TIP3    H136720   4.383   6.465   1.387
12259TIP3    H236721   4.370   6.320   1.345
12260TIP3   OH236722   8.292   4.346   2.096
12260TIP3    H136723   8.382   4.316   2.106
12260TIP3    H236724   8.266   4.315   2.009
12261TIP3   OH236725   6.453   2.716   4.838
12261TIP3    H136726   6.538   2.756   4.859
12261TIP3    H236727   6.460   2.626   4.870
12262TIP3   OH236728   0.347   1.341   3.471
12262TIP3    H136729   0.271   1.326   3.528
12262TIP3    H236730   0.315   1.402   3.405
12263TIP3   OH236731   6.096   6.718   1.828
12263TIP3    H136732   6.124   6.639   1.874
12263TIP3    H236733   6.025   6.689   1.771
12264TIP3   OH236734   1.262   2.454   0.228
12264TIP3    H136735   1.288   2.537   0.269
12264TIP3    H236736   1.342   2.422   0.185
12265TIP3   OH236737   7.410   6.745   1.496
12265TIP3    H136738   7.337   6.805   1.482
12265TIP3    H236739   7.368   6.661   1.518
12266TIP3   OH236740   4.508   1.734   0.750
12266TIP3    H136741   4.562   1.700   0.679
12266TIP3    H236742   4.435   1.673   0.757
12267TIP3   OH236743   6.936   7.210   2.869
12267TIP3    H136744   6.887   7.145   2.920
12267TIP3    H236745   6.872   7.278   2.849
12268TIP3   OH236746   7.920   3.128   1.837
12268TIP3    H136747   7.987   3.060   1.846
12268TIP3    H236748   7.837   3.081   1.848
12269TIP3   OH236749   1.383   4.894   5.070
12269TIP3    H136750   1.369   4.943   4.989
12269TIP3    H236751   1.466   4.927   5.104
12270TIP3   OH236752   0.822   1.959   4.558
12270TIP3    H136753   0.746   1.916   4.518
12270TIP3    H236754   0.788   2.044   4.587
12271TIP3   OH236755   0.621   0.669   6.253
12271TIP3    H136756   0.712   0.685   6.276
12271TIP3    H236757   0.595   0.745   6.202
12272TIP3   OH236758   4.089   1.495   0.670
12272TIP3    H136759   4.068   1.402   0.674
12272TIP3    H236760   4.011   1.535   0.630
12273TIP3   OH236761   7.532   6.600   3.027
12273TIP3    H136762   7.461   6.639   3.079
12273TIP3    H236763   7.606   6.596   3.088
12274TIP3   OH236764   1.334   2.546   6.537
12274TIP3    H136765   1.371   2.490   6.469
12274TIP3    H236766   1.358   2.634   6.511
12275TIP3   OH236767   2.316   7.214   0.785
12275TIP3    H136768   2.243   7.153   0.785
12275TIP3    H236769   2.338   7.226   0.693
12276TIP3   OH236770   3.299   3.165   2.627
12276TIP3    H136771   3.323   3.214   2.549
12276TIP3    H236772   3.205   3.183   2.639
12277TIP3   OH236773   4.888   0.447   5.155
12277TIP3    H136774   4.874   0.538   5.180
12277TIP3    H236775   4.841   0.437   5.072
12278TIP3   OH236776   4.547   7.564   6.434
12278TIP3    H136777   4.588   7.633   6.382
12278TIP3    H236778   4.493   7.516   6.372
12279TIP3   OH236779   3.888   1.026   2.499
12279TIP3    H136780   3.795   1.012   2.513
12279TIP3    H236781   3.895   1.112   2.458
12280TIP3   OH236782   1.445   7.395   3.102
12280TIP3    H136783   1.384   7.452   3.150
12280TIP3    H236784   1.459   7.320   3.160
12281TIP3   OH236785   3.898   2.409   0.340
12281TIP3    H136786   3.849   2.327   0.338
12281TIP3    H236787   3.844   2.470   0.289
12282TIP3   OH236788   6.409   2.667   3.832
12282TIP3    H136789   6.456   2.679   3.749
12282TIP3    H236790   6.323   2.706   3.816
12283TIP3   OH236791   8.012   4.882   0.716
12283TIP3    H136792   7.949   4.941   0.676
12283TIP3    H236793   8.097   4.914   0.687
12284TIP3   OH236794   0.680   7.807   4.933
12284TIP3    H136795   0.592   7.832   4.960
12284TIP3    H236796   0.697   7.725   4.979
12285TIP3   OH236797   5.998   0.220   2.670
12285TIP3    H136798   6.084   0.253   2.695
12285TIP3    H236799   5.994   0.132   2.707
12286TIP3   OH236800   5.022   6.208  -0.009
12286TIP3    H136801   5.007   6.292   0.034
12286TIP3    H236802   4.996   6.143   0.057
12287TIP3   OH236803   4.542   5.468   1.882
12287TIP3    H136804   4.509   5.558   1.881
12287TIP3    H236805   4.634   5.476   1.859
12288TIP3   OH236806   7.812   1.891   2.847
12288TIP3    H136807   7.834   1.984   2.845
12288TIP3    H236808   7.876   1.850   2.790
12289TIP3   OH236809   2.225   1.029   3.353
12289TIP3    H136810   2.257   1.112   3.319
12289TIP3    H236811   2.155   1.004   3.293
12290TIP3   OH236812   6.669   5.819   5.089
12290TIP3    H136813   6.750   5.768   5.101
12290TIP3    H236814   6.668   5.880   5.163
12291TIP3   OH236815   6.603   6.103   3.099
12291TIP3    H136816   6.570   6.061   3.019
12291TIP3    H236817   6.572   6.193   3.093
12292TIP3   OH236818   1.623   0.106   5.999
12292TIP3    H136819   1.564   0.108   6.074
12292TIP3    H236820   1.711   0.110   6.038
12293TIP3   OH236821   4.843   2.683   6.101
12293TIP3    H136822   4.791   2.761   6.121
12293TIP3    H236823   4.919   2.716   6.054
12294TIP3   OH236824   6.057   0.684   3.420
12294TIP3    H136825   6.069   0.679   3.515
12294TIP3    H236826   6.115   0.616   3.385
12295TIP3   OH236827   0.711   1.089   1.131
12295TIP3    H136828   0.730   1.053   1.218
12295TIP3    H236829   0.795   1.091   1.086
12296TIP3   OH236830   3.098   1.963   1.516
12296TIP3    H136831   3.189   1.984   1.536
12296TIP3    H236832   3.052   1.972   1.600
12297TIP3   OH236833   5.783   3.051   2.303
12297TIP3    H136834   5.793   3.143   2.279
12297TIP3    H236835   5.795   3.049   2.398
12298TIP3   OH236836   6.726   4.325   1.666
12298TIP3    H136837   6.767   4.336   1.581
12298TIP3    H236838   6.741   4.408   1.711
12299TIP3   OH236839   7.070   2.877   1.098
12299TIP3    H136840   7.003   2.811   1.118
12299TIP3    H236841   7.052   2.904   1.009
12300TIP3   OH236842   7.541   1.234   2.652
12300TIP3    H136843   7.584   1.293   2.589
12300TIP3    H236844   7.534   1.150   2.605
12301TIP3   OH236845   1.510   6.452   1.473
12301TIP3    H136846   1.478   6.542   1.462
12301TIP3    H236847   1.476   6.426   1.559
12302TIP3   OH236848   0.765   5.303   5.050
12302TIP3    H136849   0.740   5.390   5.080
12302TIP3    H236850   0.803   5.261   5.128
12303TIP3   OH236851   5.001   3.784   2.367
12303TIP3    H136852   4.956   3.802   2.284
12303TIP3    H236853   4.971   3.853   2.425
12304TIP3   OH236854   0.993   0.043   0.210
12304TIP3    H136855   0.968  -0.036   0.161
12304TIP3    H236856   1.012   0.108   0.142
12305TIP3   OH236857   0.101   1.556   3.537
12305TIP3    H136858   0.168   1.595   3.593
12305TIP3    H236859   0.053   1.496   3.594
12306TIP3   OH236860   3.376   0.872   0.622
12306TIP3    H136861   3.415   0.910   0.543
12306TIP3    H236862   3.330   0.946   0.663
12307TIP3   OH236863   0.572   5.399   4.609
12307TIP3    H136864   0.537   5.342   4.540
12307TIP3    H236865   0.540   5.359   4.690
12308TIP3   OH236866   0.478   3.297   3.581
12308TIP3    H136867   0.427   3.318   3.659
12308TIP3    H236868   0.474   3.375   3.527
12309TIP3   OH236869   6.748   6.317   0.737
12309TIP3    H136870   6.673   6.344   0.684
12309TIP3    H236871   6.712   6.252   0.798
12310TIP3   OH236872   5.929   2.809   2.568
12310TIP3    H136873   5.939   2.895   2.608
12310TIP3    H236874   5.876   2.759   2.630
12311TIP3   OH236875   4.029   4.373   5.386
12311TIP3    H136876   4.052   4.410   5.472
12311TIP3    H236877   3.995   4.286   5.406
12312TIP3   OH236878   0.434   1.419   0.168
12312TIP3    H136879   0.522   1.383   0.170
12312TIP3    H236880   0.435   1.484   0.098
12313TIP3   OH236881   3.107   2.146   2.988
12313TIP3    H136882   3.032   2.201   3.011
12313TIP3    H236883   3.069   2.063   2.962
12314TIP3   OH236884   2.485   3.770   5.811
12314TIP3    H136885   2.412   3.753   5.752
12314TIP3    H236886   2.497   3.865   5.807
12315TIP3   OH236887   0.914   3.031   5.072
12315TIP3    H136888   1.003   3.043   5.104
12315TIP3    H236889   0.858   3.047   5.147
12316TIP3   OH236890   0.692   0.985   5.253
12316TIP3    H136891   0.705   0.917   5.187
12316TIP3    H236892   0.692   0.938   5.337
12317TIP3   OH236893   4.605   5.476   2.889
12317TIP3    H136894   4.585   5.439   2.974
12317TIP3    H236895   4.672   5.542   2.907
12318TIP3   OH236896   6.526   3.422   1.059
12318TIP3    H136897   6.552   3.508   1.025
12318TIP3    H236898   6.431   3.421   1.051
12319TIP3   OH236899   1.399   5.307   1.267
12319TIP3    H136900   1.307   5.279   1.271
12319TIP3    H236901   1.445   5.248   1.327
12320TIP3   OH236902   4.685   3.543   0.302
12320TIP3    H136903   4.696   3.475   0.236
12320TIP3    H236904   4.683   3.496   0.385
12321TIP3   OH236905   3.881   0.751   2.550
12321TIP3    H136906   3.936   0.682   2.512
12321TIP3    H236907   3.927   0.832   2.526
12322TIP3   OH236908   1.396   1.978   2.049
12322TIP3    H136909   1.444   1.896   2.057
12322TIP3    H236910   1.306   1.952   2.031
12323TIP3   OH236911   6.694   5.543   6.425
12323TIP3    H136912   6.627   5.531   6.358
12323TIP3    H236913   6.775   5.556   6.376
12324TIP3   OH236914   3.646  -0.018   0.198
12324TIP3    H136915   3.645   0.039   0.120
12324TIP3    H236916   3.664   0.042   0.270
12325TIP3   OH236917   3.889   3.622   5.353
12325TIP3    H136918   3.965   3.587   5.306
12325TIP3    H236919   3.832   3.655   5.283
12326TIP3   OH236920   5.760   3.996   5.974
12326TIP3    H136921   5.811   3.984   5.894
12326TIP3    H236922   5.687   3.934   5.966
12327TIP3   OH236923   0.574   1.517   6.071
12327TIP3    H136924   0.542   1.460   6.002
12327TIP3    H236925   0.669   1.506   6.069
12328TIP3   OH236926   5.399   3.304   0.444
12328TIP3    H136927   5.474   3.244   0.443
12328TIP3    H236928   5.364   3.297   0.533
12329TIP3   OH236929   6.837   2.204   2.349
12329TIP3    H136930   6.916   2.173   2.304
12329TIP3    H236931   6.856   2.296   2.369
12330TIP3   OH236932   2.872   7.451   3.590
12330TIP3    H136933   2.808   7.382   3.574
12330TIP3    H236934   2.957   7.408   3.578
12331TIP3   OH236935   7.304   2.936   2.611
12331TIP3    H136936   7.320   3.029   2.626
12331TIP3    H236937   7.236   2.934   2.544
12332TIP3   OH236938   3.958   0.095   5.401
12332TIP3    H136939   3.883   0.082   5.343
12332TIP3    H236940   4.029   0.120   5.341
12333TIP3   OH236941   5.794   7.464   0.120
12333TIP3    H136942   5.809   7.536   0.181
12333TIP3    H236943   5.742   7.502   0.050
12334TIP3   OH236944   1.096   3.167   2.646
12334TIP3    H136945   1.044   3.103   2.597
12334TIP3    H236946   1.064   3.252   2.615
12335TIP3   OH236947   3.744   6.769   4.874
12335TIP3    H136948   3.826   6.752   4.922
12335TIP3    H236949   3.695   6.827   4.932
12336TIP3   OH236950   3.297   7.744   0.893
12336TIP3    H136951   3.340   7.743   0.979
12336TIP3    H236952   3.266   7.655   0.881
12337TIP3   OH236953   0.261   5.012   2.013
12337TIP3    H136954   0.295   4.926   1.987
12337TIP3    H236955   0.338   5.069   2.013
12338TIP3   OH236956   3.408   5.052   3.833
12338TIP3    H136957   3.350   5.076   3.906
12338TIP3    H236958   3.490   5.097   3.852
12339TIP3   OH236959   1.715   4.241   5.404
12339TIP3    H136960   1.640   4.292   5.375
12339TIP3    H236961   1.777   4.305   5.438
12340TIP3   OH236962   5.390   0.779   5.570
12340TIP3    H136963   5.351   0.801   5.485
12340TIP3    H236964   5.316   0.747   5.622
12341TIP3   OH236965   4.496   1.188   4.044
12341TIP3    H136966   4.445   1.258   4.084
12341TIP3    H236967   4.513   1.126   4.115
12342TIP3   OH236968   1.340   5.879   2.292
12342TIP3    H136969   1.405   5.811   2.311
12342TIP3    H236970   1.380   5.933   2.225
12343TIP3   OH236971   1.076   4.145   1.569
12343TIP3    H136972   1.048   4.071   1.622
12343TIP3    H236973   1.138   4.192   1.624
12344TIP3   OH236974   1.451   5.863   6.503
12344TIP3    H136975   1.365   5.832   6.472
12344TIP3    H236976   1.503   5.873   6.423
12345TIP3   OH236977   2.913   4.787   3.324
12345TIP3    H136978   2.947   4.759   3.409
12345TIP3    H236979   2.911   4.707   3.271
12346TIP3   OH236980   5.465   4.842   2.594
12346TIP3    H136981   5.491   4.919   2.645
12346TIP3    H236982   5.548   4.800   2.570
12347TIP3   OH236983   0.045   0.316   5.706
12347TIP3    H136984   0.096   0.384   5.662
12347TIP3    H236985  -0.032   0.363   5.740
12348TIP3   OH236986   4.028   0.914   6.297
12348TIP3    H136987   4.027   0.978   6.368
12348TIP3    H236988   4.117   0.879   6.298
12349TIP3   OH236989   4.392   1.415   1.927
12349TIP3    H136990   4.455   1.476   1.888
12349TIP3    H236991   4.314   1.468   1.941
12350TIP3   OH236992   0.486   4.116   1.696
12350TIP3    H136993   0.499   4.025   1.668
12350TIP3    H236994   0.419   4.111   1.765
12351TIP3   OH236995   0.599   2.791   2.288
12351TIP3    H136996   0.575   2.882   2.269
12351TIP3    H236997   0.527   2.740   2.252
12352TIP3   OH236998   6.511   3.620   2.506
12352TIP3    H136999   6.497   3.564   2.583
12352TIP3    H237000   6.424   3.630   2.467
12353TIP3   OH237001   4.830   4.851   2.081
12353TIP3    H137002   4.846   4.816   1.994
12353TIP3    H237003   4.786   4.780   2.128
12354TIP3   OH237004   6.657   1.648   3.878
12354TIP3    H137005   6.655   1.564   3.926
12354TIP3    H237006   6.581   1.644   3.820
12355TIP3   OH237007   6.721   7.299   3.686
12355TIP3    H137008   6.679   7.334   3.607
12355TIP3    H237009   6.649   7.282   3.746
12356TIP3   OH237010   6.226   0.417   6.389
12356TIP3    H137011   6.142   0.379   6.366
12356TIP3    H237012   6.204   0.496   6.439
12357TIP3   OH237013   2.271   4.395   6.702
12357TIP3    H137014   2.216   4.371   6.777
12357TIP3    H237015   2.308   4.312   6.672
12358TIP3   OH237016   5.060   1.473   5.722
12358TIP3    H137017   4.970   1.450   5.746
12358TIP3    H237018   5.050   1.544   5.659
12359TIP3   OH237019   0.390   6.257   3.889
12359TIP3    H137020   0.425   6.178   3.848
12359TIP3    H237021   0.296   6.242   3.894
12360TIP3   OH237022   0.306   2.877   2.435
12360TIP3    H137023   0.348   2.815   2.375
12360TIP3    H237024   0.379   2.923   2.478
12361TIP3   OH237025   3.269   0.040   1.239
12361TIP3    H137026   3.359   0.013   1.258
12361TIP3    H237027   3.219   0.015   1.317
12362TIP3   OH237028   5.784   4.393   0.944
12362TIP3    H137029   5.763   4.380   0.851
12362TIP3    H237030   5.701   4.420   0.984
12363TIP3   OH237031   5.093   5.901   3.568
12363TIP3    H137032   5.148   5.979   3.569
12363TIP3    H237033   5.150   5.831   3.599
12364TIP3   OH237034   3.175   5.310   0.295
12364TIP3    H137035   3.091   5.267   0.313
12364TIP3    H237036   3.188   5.371   0.367
12365TIP3   OH237037   1.728   3.334   5.979
12365TIP3    H137038   1.686   3.249   5.965
12365TIP3    H237039   1.820   3.313   5.996
12366TIP3   OH237040   8.047   6.438   4.712
12366TIP3    H137041   8.042   6.453   4.807
12366TIP3    H237042   8.079   6.348   4.704
12367TIP3   OH237043   7.802   4.500   4.172
12367TIP3    H137044   7.736   4.484   4.104
12367TIP3    H237045   7.885   4.479   4.129
12368TIP3   OH237046   4.919   4.173   2.892
12368TIP3    H137047   4.975   4.096   2.901
12368TIP3    H237048   4.974   4.246   2.920
12369TIP3   OH237049   0.048   4.625   4.935
12369TIP3    H137050   0.058   4.667   5.020
12369TIP3    H237051   0.043   4.532   4.954
12370TIP3   OH237052   5.891   4.742   0.413
12370TIP3    H137053   5.797   4.724   0.424
12370TIP3    H237054   5.916   4.691   0.335
12371TIP3   OH237055   1.558   1.551   2.837
12371TIP3    H137056   1.498   1.622   2.814
12371TIP3    H237057   1.642   1.576   2.799
12372TIP3   OH237058   3.810   5.958   3.350
12372TIP3    H137059   3.785   5.964   3.258
12372TIP3    H237060   3.894   6.002   3.355
12373TIP3   OH237061   6.222   5.485   5.537
12373TIP3    H137062   6.304   5.534   5.542
12373TIP3    H237063   6.249   5.397   5.512
12374TIP3   OH237064   5.795   7.034   2.647
12374TIP3    H137065   5.780   7.032   2.553
12374TIP3    H237066   5.707   7.036   2.685
12375TIP3   OH237067   5.398   2.030   3.747
12375TIP3    H137068   5.343   2.108   3.752
12375TIP3    H237069   5.422   2.012   3.838
12376TIP3   OH237070   0.830   3.156   0.233
12376TIP3    H137071   0.768   3.103   0.183
12376TIP3    H237072   0.801   3.246   0.219
12377TIP3   OH237073   0.104   7.780   5.304
12377TIP3    H137074   0.198   7.768   5.313
12377TIP3    H237075   0.085   7.753   5.214
12378TIP3   OH237076   7.558   3.290   1.497
12378TIP3    H137077   7.505   3.272   1.574
12378TIP3    H237078   7.646   3.259   1.521
12379TIP3   OH237079   1.562   7.001   4.541
12379TIP3    H137080   1.490   6.963   4.592
12379TIP3    H237081   1.638   6.995   4.599
12380TIP3   OH237082   0.768   3.957   2.444
12380TIP3    H137083   0.678   3.948   2.475
12380TIP3    H237084   0.763   4.020   2.372
12381TIP3   OH237085   6.802   6.694   4.821
12381TIP3    H137086   6.884   6.743   4.813
12381TIP3    H237087   6.733   6.760   4.807
12382TIP3   OH237088   3.424   6.634   1.570
12382TIP3    H137089   3.441   6.707   1.511
12382TIP3    H237090   3.506   6.585   1.573
12383TIP3   OH237091   5.642   1.404   3.126
12383TIP3    H137092   5.603   1.324   3.093
12383TIP3    H237093   5.615   1.409   3.217
12384TIP3   OH237094   1.808   4.055   5.834
12384TIP3    H137095   1.738   4.004   5.874
12384TIP3    H237096   1.888   4.007   5.854
12385TIP3   OH237097   3.028   4.843   4.868
12385TIP3    H137098   2.973   4.778   4.825
12385TIP3    H237099   2.970   4.888   4.929
12386TIP3   OH237100   2.993   1.626   2.465
12386TIP3    H137101   2.958   1.573   2.393
12386TIP3    H237102   2.976   1.717   2.439
12387TIP3   OH237103   2.514   7.010   5.195
12387TIP3    H137104   2.541   7.093   5.156
12387TIP3    H237105   2.551   7.011   5.284
12388TIP3   OH237106   7.017   5.456   0.919
12388TIP3    H137107   7.108   5.463   0.945
12388TIP3    H237108   7.003   5.363   0.902
12389TIP3   OH237109   7.419   2.628  -0.016
12389TIP3    H137110   7.338   2.679  -0.023
12389TIP3    H237111   7.396   2.555   0.042
12390TIP3   OH237112   8.064   5.079   4.134
12390TIP3    H137113   8.003   5.152   4.122
12390TIP3    H237114   8.110   5.072   4.051
12391TIP3   OH237115   3.410   3.111   2.857
12391TIP3    H137116   3.382   3.143   2.771
12391TIP3    H237117   3.387   3.181   2.917
12392TIP3   OH237118   0.227   6.377   0.620
12392TIP3    H137119   0.250   6.396   0.711
12392TIP3    H237120   0.309   6.384   0.572
12393TIP3   OH237121   3.752   5.990   1.284
12393TIP3    H137122   3.662   6.012   1.308
12393TIP3    H237123   3.746   5.904   1.243
12394TIP3   OH237124   1.805   3.360   3.262
12394TIP3    H137125   1.712   3.375   3.249
12394TIP3    H237126   1.841   3.447   3.278
12395TIP3   OH237127   6.729   1.392   5.405
12395TIP3    H137128   6.648   1.374   5.358
12395TIP3    H237129   6.709   1.466   5.462
12396TIP3   OH237130   5.460   6.918   5.232
12396TIP3    H137131   5.406   6.970   5.172
12396TIP3    H237132   5.401   6.848   5.261
12397TIP3   OH237133   1.098   2.541   3.652
12397TIP3    H137134   1.008   2.563   3.677
12397TIP3    H237135   1.139   2.513   3.734
12398TIP3   OH237136   3.821   4.847   0.907
12398TIP3    H137137   3.811   4.882   0.995
12398TIP3    H237138   3.734   4.855   0.868
12399TIP3   OH237139   1.288   5.295   0.664
12399TIP3    H137140   1.297   5.205   0.695
12399TIP3    H237141   1.209   5.295   0.610
12400TIP3   OH237142   4.012   2.093   5.120
12400TIP3    H137143   4.047   2.158   5.059
12400TIP3    H237144   4.076   2.022   5.119
12401TIP3   OH237145   1.314   6.040   2.911
12401TIP3    H137146   1.229   6.071   2.880
12401TIP3    H237147   1.371   6.116   2.907
12402TIP3   OH237148   7.721   1.384   3.185
12402TIP3    H137149   7.692   1.474   3.197
12402TIP3    H237150   7.641   1.333   3.174
12403TIP3   OH237151   2.964   6.819   5.343
12403TIP3    H137152   3.002   6.753   5.401
12403TIP3    H237153   3.038   6.852   5.292
12404TIP3   OH237154   3.280   2.770   3.866
12404TIP3    H137155   3.232   2.819   3.800
12404TIP3    H237156   3.278   2.825   3.944
12405TIP3   OH237157   3.611   3.915   1.215
12405TIP3    H137158   3.668   3.870   1.278
12405TIP3    H237159   3.644   3.887   1.129
12406TIP3   OH237160   3.956   2.822   5.878
12406TIP3    H137161   3.954   2.874   5.959
12406TIP3    H237162   4.033   2.767   5.886
12407TIP3   OH237163   3.481   0.692   4.367
12407TIP3    H137164   3.402   0.738   4.338
12407TIP3    H237165   3.491   0.716   4.459
12408TIP3   OH237166   0.855   7.029   0.773
12408TIP3    H137167   0.842   6.986   0.688
12408TIP3    H237168   0.934   6.988   0.809
12409TIP3   OH237169   6.888   5.585   1.496
12409TIP3    H137170   6.958   5.521   1.507
12409TIP3    H237171   6.829   5.569   1.570
12410TIP3   OH237172   0.828   0.662   0.704
12410TIP3    H137173   0.836   0.663   0.608
12410TIP3    H237174   0.862   0.576   0.729
12411TIP3   OH237175   6.489   1.465   0.774
12411TIP3    H137176   6.451   1.453   0.861
12411TIP3    H237177   6.484   1.559   0.757
12412TIP3   OH237178   1.960   6.189   2.750
12412TIP3    H137179   1.979   6.115   2.692
12412TIP3    H237180   1.967   6.152   2.838
12413TIP3   OH237181   8.076   1.732   4.747
12413TIP3    H137182   8.128   1.660   4.783
12413TIP3    H237183   8.083   1.722   4.652
12414TIP3   OH237184   2.552   7.640   2.822
12414TIP3    H137185   2.476   7.615   2.875
12414TIP3    H237186   2.618   7.572   2.840
12415TIP3   OH237187   7.969   2.817   4.996
12415TIP3    H137188   7.935   2.886   4.939
12415TIP3    H237189   7.994   2.747   4.936
12416TIP3   OH237190   6.040   6.803   3.818
12416TIP3    H137191   5.969   6.866   3.812
12416TIP3    H237192   6.024   6.756   3.899
12417TIP3   OH237193   5.286   4.149   2.669
12417TIP3    H137194   5.290   4.244   2.658
12417TIP3    H237195   5.195   4.126   2.653
12418TIP3   OH237196   5.973   5.027   5.830
12418TIP3    H137197   6.064   5.001   5.818
12418TIP3    H237198   5.976   5.096   5.897
12419TIP3   OH237199   4.267   2.962   6.035
12419TIP3    H137200   4.359   2.987   6.031
12419TIP3    H237201   4.219   3.041   6.010
12420TIP3   OH237202   7.836   4.117   4.018
12420TIP3    H137203   7.832   4.161   4.104
12420TIP3    H237204   7.747   4.087   4.003
12421TIP3   OH237205   6.767   4.702   4.722
12421TIP3    H137206   6.820   4.761   4.669
12421TIP3    H237207   6.717   4.759   4.780
12422TIP3   OH237208   7.704   0.190   4.537
12422TIP3    H137209   7.724   0.283   4.527
12422TIP3    H237210   7.628   0.175   4.481
12423TIP3   OH237211   3.104   5.849   4.112
12423TIP3    H137212   3.009   5.843   4.099
12423TIP3    H237213   3.116   5.929   4.163
12424TIP3   OH237214   2.457   6.884   3.969
12424TIP3    H137215   2.416   6.901   3.885
12424TIP3    H237216   2.527   6.949   3.976
12425TIP3   OH237217   2.576   3.385   0.420
12425TIP3    H137218   2.538   3.307   0.380
12425TIP3    H237219   2.671   3.371   0.416
12426TIP3   OH237220   4.431   1.544   5.170
12426TIP3    H137221   4.458   1.631   5.197
12426TIP3    H237222   4.339   1.538   5.196
12427TIP3   OH237223   4.295   3.135   3.551
12427TIP3    H137224   4.336   3.181   3.478
12427TIP3    H237225   4.210   3.178   3.562
12428TIP3   OH237226   3.437   3.380   6.411
12428TIP3    H137227   3.380   3.457   6.403
12428TIP3    H237228   3.400   3.316   6.351
12429TIP3   OH237229   4.409   6.530   5.045
12429TIP3    H137230   4.397   6.436   5.059
12429TIP3    H237231   4.486   6.535   4.989
12430TIP3   OH237232   1.988   4.392   5.555
12430TIP3    H137233   2.065   4.385   5.611
12430TIP3    H237234   1.914   4.387   5.615
12431TIP3   OH237235   7.204   3.066   4.400
12431TIP3    H137236   7.190   3.136   4.337
12431TIP3    H237237   7.123   3.014   4.396
12432TIP3   OH237238   3.373   6.476   1.171
12432TIP3    H137239   3.460   6.436   1.158
12432TIP3    H237240   3.335   6.478   1.083
12433TIP3   OH237241   6.189   0.928   3.791
12433TIP3    H137242   6.138   0.979   3.853
12433TIP3    H237243   6.188   0.980   3.710
12434TIP3   OH237244   7.728   6.674   6.714
12434TIP3    H137245   7.746   6.604   6.776
12434TIP3    H237246   7.731   6.631   6.628
12435TIP3   OH237247   7.580   5.610   4.040
12435TIP3    H137248   7.607   5.687   4.090
12435TIP3    H237249   7.489   5.628   4.015
12436TIP3   OH237250   6.537   2.407   4.688
12436TIP3    H137251   6.597   2.416   4.762
12436TIP3    H237252   6.566   2.326   4.644
12437TIP3   OH237253   4.005   2.984   1.468
12437TIP3    H137254   4.020   2.985   1.374
12437TIP3    H237255   4.089   2.956   1.505
12438TIP3   OH237256   5.704   1.975   5.266
12438TIP3    H137257   5.698   1.883   5.238
12438TIP3    H237258   5.619   1.992   5.308
12439TIP3   OH237259   6.274   4.194   4.439
12439TIP3    H137260   6.286   4.222   4.530
12439TIP3    H237261   6.288   4.099   4.442
12440TIP3   OH237262   6.386   0.375   4.354
12440TIP3    H137263   6.357   0.288   4.326
12440TIP3    H237264   6.384   0.372   4.449
12441TIP3   OH237265   1.248   0.047   4.119
12441TIP3    H137266   1.293   0.127   4.147
12441TIP3    H237267   1.284   0.029   4.032
12442TIP3   OH237268   6.746   1.708   2.637
12442TIP3    H137269   6.820   1.753   2.679
12442TIP3    H237270   6.773   1.617   2.631
12443TIP3   OH237271   2.026   3.533   1.507
12443TIP3    H137272   1.932   3.516   1.514
12443TIP3    H237273   2.056   3.541   1.597
12444TIP3   OH237274   3.322   5.048   1.623
12444TIP3    H137275   3.336   5.125   1.568
12444TIP3    H237276   3.228   5.030   1.616
12445TIP3   OH237277   1.164   4.311   2.562
12445TIP3    H137278   1.069   4.299   2.572
12445TIP3    H237279   1.190   4.364   2.637
12446TIP3   OH237280   3.572   3.075   2.578
12446TIP3    H137281   3.483   3.098   2.607
12446TIP3    H237282   3.602   3.152   2.530
12447TIP3   OH237283   7.596   1.209   2.185
12447TIP3    H137284   7.632   1.136   2.235
12447TIP3    H237285   7.521   1.172   2.138
12448TIP3   OH237286   7.907   5.792   1.727
12448TIP3    H137287   7.832   5.780   1.668
12448TIP3    H237288   7.935   5.882   1.712
12449TIP3   OH237289   5.063   0.384   0.076
12449TIP3    H137290   5.124   0.337   0.133
12449TIP3    H237291   5.032   0.318   0.015
12450TIP3   OH237292   5.864   4.713   6.418
12450TIP3    H137293   5.911   4.767   6.355
12450TIP3    H237294   5.774   4.743   6.414
12451TIP3   OH237295   3.722   2.173   1.415
12451TIP3    H137296   3.685   2.093   1.378
12451TIP3    H237297   3.691   2.173   1.506
12452TIP3   OH237298   1.629   0.833   4.100
12452TIP3    H137299   1.685   0.756   4.109
12452TIP3    H237300   1.649   0.868   4.014
12453TIP3   OH237301   3.249   0.409   6.224
12453TIP3    H137302   3.297   0.485   6.257
12453TIP3    H237303   3.318   0.349   6.194
12454TIP3   OH237304   0.155   7.204   1.144
12454TIP3    H137305   0.079   7.147   1.138
12454TIP3    H237306   0.118   7.292   1.152
12455TIP3   OH237307   6.376   4.883   0.043
12455TIP3    H137308   6.335   4.958  -0.001
12455TIP3    H237309   6.336   4.881   0.130
12456TIP3   OH237310   3.631   3.462   0.621
12456TIP3    H137311   3.710   3.497   0.663
12456TIP3    H237312   3.561   3.521   0.648
12457TIP3   OH237313   3.277   3.481   4.883
12457TIP3    H137314   3.319   3.500   4.800
12457TIP3    H237315   3.286   3.563   4.933
12458TIP3   OH237316   4.579   4.250   4.455
12458TIP3    H137317   4.598   4.315   4.522
12458TIP3    H237318   4.544   4.301   4.382
12459TIP3   OH237319   1.544   0.189   3.329
12459TIP3    H137320   1.595   0.244   3.388
12459TIP3    H237321   1.492   0.251   3.277
12460TIP3   OH237322   6.322   6.501   5.898
12460TIP3    H137323   6.304   6.518   5.806
12460TIP3    H237324   6.376   6.422   5.898
12461TIP3   OH237325   1.622   1.311   4.250
12461TIP3    H137326   1.598   1.364   4.325
12461TIP3    H237327   1.718   1.306   4.253
12462TIP3   OH237328   3.897   0.025   2.748
12462TIP3    H137329   3.887   0.100   2.807
12462TIP3    H237330   3.815  -0.023   2.755
12463TIP3   OH237331   2.076   4.018   0.780
12463TIP3    H137332   2.072   4.094   0.839
12463TIP3    H237333   2.122   3.951   0.831
12464TIP3   OH237334   6.013   1.742   2.489
12464TIP3    H137335   5.982   1.663   2.534
12464TIP3    H237336   5.952   1.811   2.515
12465TIP3   OH237337   4.200   2.201   3.771
12465TIP3    H137338   4.250   2.136   3.821
12465TIP3    H237339   4.265   2.261   3.737
12466TIP3   OH237340   0.693   7.130   2.329
12466TIP3    H137341   0.667   7.160   2.417
12466TIP3    H237342   0.633   7.058   2.310
12467TIP3   OH237343   7.293   4.989   3.698
12467TIP3    H137344   7.251   4.921   3.751
12467TIP3    H237345   7.291   4.955   3.609
12468TIP3   OH237346   2.828   5.846   1.652
12468TIP3    H137347   2.737   5.875   1.648
12468TIP3    H237348   2.864   5.868   1.565
12469TIP3   OH237349   2.474   5.558   4.071
12469TIP3    H137350   2.510   5.643   4.096
12469TIP3    H237351   2.490   5.502   4.147
12470TIP3   OH237352   6.742   0.900   3.645
12470TIP3    H137353   6.667   0.860   3.688
12470TIP3    H237354   6.746   0.859   3.559
12471TIP3   OH237355   2.207   1.330   6.708
12471TIP3    H137356   2.246   1.243   6.715
12471TIP3    H237357   2.160   1.329   6.624
12472TIP3   OH237358   4.369   3.983   5.743
12472TIP3    H137359   4.341   4.008   5.655
12472TIP3    H237360   4.463   3.970   5.735
12473TIP3   OH237361   0.040   2.531   4.305
12473TIP3    H137362  -0.005   2.596   4.358
12473TIP3    H237363   0.111   2.499   4.362
12474TIP3   OH237364   3.857   3.695   3.833
12474TIP3    H137365   3.883   3.681   3.924
12474TIP3    H237366   3.850   3.790   3.825
12475TIP3   OH237367   5.252   4.684   2.543
12475TIP3    H137368   5.218   4.703   2.455
12475TIP3    H237369   5.327   4.742   2.552
12476TIP3   OH237370   7.043   1.550   1.110
12476TIP3    H137371   7.037   1.476   1.049
12476TIP3    H237372   7.137   1.555   1.130
12477TIP3   OH237373   1.791   7.135   5.856
12477TIP3    H137374   1.737   7.104   5.929
12477TIP3    H237375   1.834   7.213   5.890
12478TIP3   OH237376   3.068   0.323   2.560
12478TIP3    H137377   2.999   0.288   2.504
12478TIP3    H237378   3.147   0.277   2.532
12479TIP3   OH237379   3.369   6.766   0.769
12479TIP3    H137380   3.443   6.779   0.829
12479TIP3    H237381   3.304   6.829   0.799
12480TIP3   OH237382   1.683   2.075   0.827
12480TIP3    H137383   1.659   2.116   0.744
12480TIP3    H237384   1.643   2.130   0.893
12481TIP3   OH237385   5.907   4.894   4.508
12481TIP3    H137386   5.998   4.908   4.482
12481TIP3    H237387   5.903   4.927   4.598
12482TIP3   OH237388   7.256   1.598   3.384
12482TIP3    H137389   7.259   1.663   3.314
12482TIP3    H237390   7.183   1.541   3.361
12483TIP3   OH237391   3.914   2.968   6.122
12483TIP3    H137392   3.828   2.934   6.147
12483TIP3    H237393   3.906   3.063   6.133
12484TIP3   OH237394   2.310   1.280   3.250
12484TIP3    H137395   2.305   1.376   3.250
12484TIP3    H237396   2.372   1.259   3.180
12485TIP3   OH237397   1.594   2.793   2.161
12485TIP3    H137398   1.504   2.769   2.138
12485TIP3    H237399   1.639   2.709   2.173
12486TIP3   OH237400   2.661   0.299   3.409
12486TIP3    H137401   2.643   0.317   3.501
12486TIP3    H237402   2.651   0.383   3.364
12487TIP3   OH237403   6.094   5.217   5.594
12487TIP3    H137404   6.082   5.300   5.640
12487TIP3    H237405   6.083   5.150   5.661
12488TIP3   OH237406   7.984   1.342   0.110
12488TIP3    H137407   8.063   1.372   0.065
12488TIP3    H237408   8.013   1.325   0.199
12489TIP3   OH237409   6.426   4.603   5.476
12489TIP3    H137410   6.435   4.523   5.424
12489TIP3    H237411   6.475   4.586   5.556
12490TIP3   OH237412   7.555   6.866   4.758
12490TIP3    H137413   7.635   6.843   4.805
12490TIP3    H237414   7.485   6.831   4.813
12491TIP3   OH237415   6.890   5.221   0.358
12491TIP3    H137416   6.969   5.193   0.312
12491TIP3    H237417   6.916   5.224   0.450
12492TIP3   OH237418   2.712   2.223   2.915
12492TIP3    H137419   2.647   2.198   2.980
12492TIP3    H237420   2.775   2.277   2.963
12493TIP3   OH237421   0.489   1.223   1.182
12493TIP3    H137422   0.461   1.266   1.101
12493TIP3    H237423   0.580   1.200   1.167
12494TIP3   OH237424   1.399   2.617   1.893
12494TIP3    H137425   1.340   2.544   1.915
12494TIP3    H237426   1.342   2.694   1.891
12495TIP3   OH237427   3.952   0.818   1.093
12495TIP3    H137428   4.024   0.852   1.040
12495TIP3    H237429   3.873   0.840   1.044
12496TIP3   OH237430   1.531   3.947   4.935
12496TIP3    H137431   1.558   3.980   5.021
12496TIP3    H237432   1.482   4.020   4.896
12497TIP3   OH237433   6.067   0.322   5.542
12497TIP3    H137434   5.990   0.354   5.588
12497TIP3    H237435   6.043   0.234   5.513
12498TIP3   OH237436   4.513   2.637   1.370
12498TIP3    H137437   4.532   2.672   1.284
12498TIP3    H237438   4.425   2.599   1.361
12499TIP3   OH237439   7.709   7.498   5.253
12499TIP3    H137440   7.622   7.493   5.291
12499TIP3    H237441   7.762   7.439   5.306
12500TIP3   OH237442   3.944   3.385   1.604
12500TIP3    H137443   3.923   3.471   1.567
12500TIP3    H237444   3.948   3.400   1.699
12501TIP3   OH237445   2.700   6.374   4.838
12501TIP3    H137446   2.646   6.302   4.868
12501TIP3    H237447   2.768   6.333   4.785
12502TIP3   OH237448   4.291   1.706   0.413
12502TIP3    H137449   4.334   1.644   0.472
12502TIP3    H237450   4.201   1.677   0.407
12503TIP3   OH237451   5.942   0.062   1.189
12503TIP3    H137452   5.931   0.150   1.154
12503TIP3    H237453   5.854   0.034   1.214
12504TIP3   OH237454   6.566   5.451   2.774
12504TIP3    H137455   6.638   5.421   2.828
12504TIP3    H237456   6.606   5.511   2.711
12505TIP3   OH237457   2.272   5.786   5.315
12505TIP3    H137458   2.346   5.774   5.375
12505TIP3    H237459   2.201   5.735   5.354
12506TIP3   OH237460   6.277   2.045   0.489
12506TIP3    H137461   6.230   2.127   0.502
12506TIP3    H237462   6.233   1.983   0.548
12507TIP3   OH237463   3.187   3.696   0.448
12507TIP3    H137464   3.092   3.687   0.443
12507TIP3    H237465   3.209   3.663   0.536
12508TIP3   OH237466   1.785   6.765   5.281
12508TIP3    H137467   1.824   6.849   5.256
12508TIP3    H237468   1.860   6.705   5.284
12509TIP3   OH237469   6.626   5.309   0.341
12509TIP3    H137470   6.647   5.388   0.291
12509TIP3    H237471   6.702   5.252   0.331
12510TIP3   OH237472   1.487   0.379   1.014
12510TIP3    H137473   1.563   0.431   0.990
12510TIP3    H237474   1.510   0.290   0.988
12511TIP3   OH237475   0.683   0.308   1.697
12511TIP3    H137476   0.620   0.290   1.628
12511TIP3    H237477   0.674   0.235   1.758
12512TIP3   OH237478   8.199   2.895   4.545
12512TIP3    H137479   8.190   2.886   4.450
12512TIP3    H237480   8.259   2.968   4.557
12513TIP3   OH237481   2.950   5.634   4.744
12513TIP3    H137482   2.913   5.720   4.760
12513TIP3    H237483   3.043   5.643   4.767
12514TIP3   OH237484   3.028   2.849   3.052
12514TIP3    H137485   3.123   2.843   3.044
12514TIP3    H237486   3.009   2.813   3.139
12515TIP3   OH237487   0.751   5.519   5.977
12515TIP3    H137488   0.657   5.537   5.985
12515TIP3    H237489   0.768   5.451   6.043
12516TIP3   OH237490   2.331   6.703   5.408
12516TIP3    H137491   2.421   6.722   5.432
12516TIP3    H237492   2.303   6.778   5.356
12517TIP3   OH237493   6.152   6.653   3.006
12517TIP3    H137494   6.215   6.585   2.980
12517TIP3    H237495   6.084   6.606   3.054
12518TIP3   OH237496   4.569   0.922   2.363
12518TIP3    H137497   4.554   0.834   2.397
12518TIP3    H237498   4.528   0.921   2.276
12519TIP3   OH237499   8.200   3.792   3.338
12519TIP3    H137500   8.265   3.862   3.327
12519TIP3    H237501   8.252   3.712   3.344
12520TIP3   OH237502   6.302   4.152   1.081
12520TIP3    H137503   6.289   4.217   1.012
12520TIP3    H237504   6.275   4.196   1.161
12521TIP3   OH237505   0.463   4.015   4.857
12521TIP3    H137506   0.409   3.938   4.878
12521TIP3    H237507   0.404   4.073   4.808
12522TIP3   OH237508   2.550   4.831   6.011
12522TIP3    H137509   2.607   4.817   6.086
12522TIP3    H237510   2.609   4.832   5.935
12523TIP3   OH237511   0.505   2.348   6.409
12523TIP3    H137512   0.552   2.406   6.349
12523TIP3    H237513   0.509   2.393   6.494
12524TIP3   OH237514   1.081   3.204   1.020
12524TIP3    H137515   1.020   3.159   1.078
12524TIP3    H237516   1.027   3.237   0.949
12525TIP3   OH237517   0.688   1.604   4.496
12525TIP3    H137518   0.753   1.534   4.483
12525TIP3    H237519   0.720   1.676   4.442
12526TIP3   OH237520   3.069   3.604   5.581
12526TIP3    H137521   3.130   3.624   5.510
12526TIP3    H237522   3.012   3.680   5.587
12527TIP3   OH237523   1.637   4.556   6.317
12527TIP3    H137524   1.582   4.629   6.289
12527TIP3    H237525   1.683   4.528   6.238
12528TIP3   OH237526   3.481   0.435   4.326
12528TIP3    H137527   3.487   0.529   4.344
12528TIP3    H237528   3.571   0.403   4.336
12529TIP3   OH237529   0.974   6.300   6.553
12529TIP3    H137530   0.985   6.298   6.648
12529TIP3    H237531   1.020   6.222   6.522
12530TIP3   OH237532   1.305   7.703   6.594
12530TIP3    H137533   1.278   7.767   6.528
12530TIP3    H237534   1.230   7.643   6.601
12531TIP3   OH237535   2.215   4.535   2.268
12531TIP3    H137536   2.283   4.564   2.206
12531TIP3    H237537   2.133   4.562   2.227
12532TIP3   OH237538   3.492   5.675   0.392
12532TIP3    H137539   3.420   5.698   0.332
12532TIP3    H237540   3.564   5.732   0.366
12533TIP3   OH237541   0.107   5.040   1.786
12533TIP3    H137542   0.153   5.017   1.866
12533TIP3    H237543   0.090   4.956   1.743
12534TIP3   OH237544   4.010   0.646   0.039
12534TIP3    H137545   3.916   0.654   0.021
12534TIP3    H237546   4.047   0.620  -0.045
12535TIP3   OH237547   6.951   7.478   3.424
12535TIP3    H137548   6.942   7.574   3.421
12535TIP3    H237549   7.039   7.464   3.459
12536TIP3   OH237550   2.791   3.341   2.239
12536TIP3    H137551   2.735   3.287   2.184
12536TIP3    H237552   2.753   3.429   2.233
12537TIP3   OH237553   2.600   5.313   1.672
12537TIP3    H137554   2.519   5.298   1.721
12537TIP3    H237555   2.645   5.381   1.721
12538TIP3   OH237556   5.544   6.679   5.811
12538TIP3    H137557   5.589   6.672   5.895
12538TIP3    H237558   5.460   6.721   5.833
12539TIP3   OH237559   8.069   7.010   4.663
12539TIP3    H137560   8.051   7.010   4.757
12539TIP3    H237561   8.124   7.088   4.650
12540TIP3   OH237562   0.548   4.064   5.152
12540TIP3    H137563   0.495   4.073   5.072
12540TIP3    H237564   0.624   4.013   5.125
12541TIP3   OH237565   3.617   2.558   6.253
12541TIP3    H137566   3.658   2.516   6.178
12541TIP3    H237567   3.542   2.503   6.273
12542TIP3   OH237568   3.686   2.087   0.329
12542TIP3    H137569   3.727   2.022   0.272
12542TIP3    H237570   3.604   2.109   0.284
12543TIP3   OH237571   3.996   3.641   1.226
12543TIP3    H137572   4.000   3.633   1.130
12543TIP3    H237573   3.928   3.579   1.252
12544TIP3   OH237574   1.794   3.689   0.018
12544TIP3    H137575   1.782   3.656   0.107
12544TIP3    H237576   1.826   3.779   0.030
12545TIP3   OH237577   8.094   0.953   1.882
12545TIP3    H137578   8.064   1.044   1.880
12545TIP3    H237579   8.104   0.928   1.790
12546TIP3   OH237580   5.194   5.140   6.675
12546TIP3    H137581   5.220   5.211   6.616
12546TIP3    H237582   5.244   5.064   6.644
12547TIP3   OH237583   2.146   3.609   4.057
12547TIP3    H137584   2.133   3.665   3.981
12547TIP3    H237585   2.058   3.582   4.084
12548TIP3   OH237586   4.872   4.472   5.244
12548TIP3    H137587   4.866   4.563   5.218
12548TIP3    H237588   4.813   4.426   5.183
12549TIP3   OH237589   7.327   0.927   5.561
12549TIP3    H137590   7.281   0.946   5.480
12549TIP3    H237591   7.413   0.896   5.533
12550TIP3   OH237592   8.101   4.926   5.013
12550TIP3    H137593   8.076   4.968   5.096
12550TIP3    H237594   8.178   4.874   5.036
12551TIP3   OH237595   0.263   4.934   6.234
12551TIP3    H137596   0.292   4.988   6.161
12551TIP3    H237597   0.327   4.950   6.303
12552TIP3   OH237598   1.785   5.487   3.847
12552TIP3    H137599   1.730   5.415   3.879
12552TIP3    H237600   1.805   5.538   3.925
12553TIP3   OH237601   4.864   5.271   0.905
12553TIP3    H137602   4.864   5.303   0.815
12553TIP3    H237603   4.871   5.350   0.958
12554TIP3   OH237604   1.368   5.658   0.229
12554TIP3    H137605   1.321   5.612   0.299
12554TIP3    H237606   1.386   5.591   0.164
12555TIP3   OH237607   5.727   6.199   2.975
12555TIP3    H137608   5.676   6.157   2.906
12555TIP3    H237609   5.797   6.244   2.929
12556TIP3   OH237610   7.846   5.618   2.633
12556TIP3    H137611   7.762   5.653   2.662
12556TIP3    H237612   7.910   5.658   2.692
12557TIP3   OH237613   2.744   4.008   6.024
12557TIP3    H137614   2.654   3.997   6.054
12557TIP3    H237615   2.789   3.928   6.053
12558TIP3   OH237616   3.805   1.005   5.378
12558TIP3    H137617   3.737   1.062   5.343
12558TIP3    H237618   3.812   1.029   5.470
12559TIP3   OH237619   5.765   2.719   5.745
12559TIP3    H137620   5.859   2.734   5.741
12559TIP3    H237621   5.752   2.667   5.824
12560TIP3   OH237622   8.200   2.266   5.356
12560TIP3    H137623   8.244   2.181   5.369
12560TIP3    H237624   8.255   2.312   5.293
12561TIP3   OH237625   5.552   5.405   1.342
12561TIP3    H137626   5.625   5.458   1.309
12561TIP3    H237627   5.474   5.447   1.306
12562TIP3   OH237628   4.532   2.690   6.621
12562TIP3    H137629   4.497   2.602   6.607
12562TIP3    H237630   4.506   2.739   6.543
12563TIP3   OH237631   4.504   6.376   2.776
12563TIP3    H137632   4.481   6.345   2.689
12563TIP3    H237633   4.581   6.432   2.763
12564TIP3   OH237634   6.241   4.911   2.208
12564TIP3    H137635   6.148   4.933   2.207
12564TIP3    H237636   6.258   4.872   2.123
12565TIP3   OH237637   4.779   6.973   1.430
12565TIP3    H137638   4.762   7.060   1.467
12565TIP3    H237639   4.872   6.958   1.446
12566TIP3   OH237640   0.947   5.751   6.005
12566TIP3    H137641   1.026   5.698   6.018
12566TIP3    H237642   0.881   5.688   5.975
12567TIP3   OH237643   4.707   6.359   5.345
12567TIP3    H137644   4.755   6.364   5.263
12567TIP3    H237645   4.626   6.313   5.323
12568TIP3   OH237646   0.270   4.178   0.353
12568TIP3    H137647   0.203   4.181   0.285
12568TIP3    H237648   0.352   4.199   0.307
12569TIP3   OH237649   3.556   2.195   6.172
12569TIP3    H137650   3.633   2.212   6.227
12569TIP3    H237651   3.567   2.254   6.097
12570TIP3   OH237652   6.851   4.355   3.849
12570TIP3    H137653   6.815   4.330   3.764
12570TIP3    H237654   6.911   4.427   3.829
12571TIP3   OH237655   7.801   4.449   2.846
12571TIP3    H137656   7.883   4.477   2.886
12571TIP3    H237657   7.826   4.377   2.788
12572TIP3   OH237658   7.353   6.018   5.292
12572TIP3    H137659   7.411   6.015   5.216
12572TIP3    H237660   7.331   5.926   5.309
12573TIP3   OH237661   5.813   7.647   5.497
12573TIP3    H137662   5.740   7.652   5.558
12573TIP3    H237663   5.785   7.698   5.421
12574TIP3   OH237664   0.907   4.046   2.178
12574TIP3    H137665   0.870   3.974   2.128
12574TIP3    H237666   0.999   4.049   2.151
12575TIP3   OH237667   3.695   5.784   1.528
12575TIP3    H137668   3.624   5.753   1.584
12575TIP3    H237669   3.680   5.741   1.444
12576TIP3   OH237670   7.153   6.413   4.312
12576TIP3    H137671   7.203   6.340   4.275
12576TIP3    H237672   7.189   6.424   4.400
12577TIP3   OH237673   5.684   3.367   3.114
12577TIP3    H137674   5.757   3.417   3.079
12577TIP3    H237675   5.644   3.424   3.179
12578TIP3   OH237676   3.813   7.636   1.388
12578TIP3    H137677   3.764   7.563   1.350
12578TIP3    H237678   3.837   7.691   1.313
12579TIP3   OH237679   1.567   2.798   6.669
12579TIP3    H137680   1.593   2.890   6.662
12579TIP3    H237681   1.597   2.759   6.587
12580TIP3   OH237682   5.114   1.409   0.358
12580TIP3    H137683   5.195   1.446   0.323
12580TIP3    H237684   5.044   1.459   0.317
12581TIP3   OH237685   1.636   2.488   2.040
12581TIP3    H137686   1.588   2.491   2.123
12581TIP3    H237687   1.568   2.490   1.973
12582TIP3   OH237688   2.785   3.935   5.063
12582TIP3    H137689   2.749   3.859   5.110
12582TIP3    H237690   2.880   3.924   5.069
12583TIP3   OH237691   6.033   7.393   4.200
12583TIP3    H137692   6.054   7.486   4.188
12583TIP3    H237693   6.119   7.351   4.208
12584TIP3   OH237694   4.123   4.587   0.302
12584TIP3    H137695   4.187   4.605   0.371
12584TIP3    H237696   4.083   4.504   0.328
12585TIP3   OH237697   4.215   6.529   2.294
12585TIP3    H137698   4.154   6.474   2.343
12585TIP3    H237699   4.302   6.501   2.325
12586TIP3   OH237700   2.298   4.134   2.413
12586TIP3    H137701   2.314   4.048   2.372
12586TIP3    H237702   2.250   4.183   2.347
12587TIP3   OH237703   4.918   6.406   5.835
12587TIP3    H137704   4.891   6.485   5.881
12587TIP3    H237705   4.904   6.426   5.742
12588TIP3   OH237706   6.998   0.556   1.997
12588TIP3    H137707   7.049   0.581   1.920
12588TIP3    H237708   7.046   0.595   2.071
12589TIP3   OH237709   5.501   2.664   4.427
12589TIP3    H137710   5.579   2.719   4.429
12589TIP3    H237711   5.456   2.689   4.346
12590TIP3   OH237712   5.335   4.828   0.997
12590TIP3    H137713   5.298   4.759   0.942
12590TIP3    H237714   5.262   4.855   1.053
12591TIP3   OH237715   4.115   2.805   6.212
12591TIP3    H137716   4.030   2.841   6.188
12591TIP3    H237717   4.177   2.846   6.151
12592TIP3   OH237718   4.889   5.716   2.052
12592TIP3    H137719   4.968   5.674   2.086
12592TIP3    H237720   4.919   5.798   2.014
12593TIP3   OH237721   5.460   2.769   0.245
12593TIP3    H137722   5.376   2.816   0.250
12593TIP3    H237723   5.520   2.832   0.205
12594TIP3   OH237724   4.820   5.246   0.335
12594TIP3    H137725   4.907   5.242   0.294
12594TIP3    H237726   4.789   5.155   0.334
12595TIP3   OH237727   7.671   6.187   4.180
12595TIP3    H137728   7.616   6.138   4.241
12595TIP3    H237729   7.760   6.177   4.216
12596TIP3   OH237730   5.819   3.001   3.921
12596TIP3    H137731   5.831   3.056   3.844
12596TIP3    H237732   5.749   2.941   3.897
12597TIP3   OH237733   7.632   0.573   3.548
12597TIP3    H137734   7.674   0.529   3.622
12597TIP3    H237735   7.644   0.666   3.566
12598TIP3   OH237736   3.247   0.794   4.240
12598TIP3    H137737   3.160   0.793   4.279
12598TIP3    H237738   3.234   0.766   4.150
12599TIP3   OH237739   6.317   3.575   6.536
12599TIP3    H137740   6.362   3.622   6.606
12599TIP3    H237741   6.281   3.497   6.579
12600TIP3   OH237742   2.759   3.451   5.449
12600TIP3    H137743   2.683   3.407   5.411
12600TIP3    H237744   2.722   3.520   5.504
12601TIP3   OH237745   7.473   5.343   0.102
12601TIP3    H137746   7.473   5.416   0.164
12601TIP3    H237747   7.563   5.311   0.103
12602TIP3   OH237748   7.174   2.114   6.807
12602TIP3    H137749   7.196   2.207   6.818
12602TIP3    H237750   7.243   2.079   6.752
12603TIP3   OH237751   0.044   1.155   0.267
12603TIP3    H137752   0.090   1.190   0.191
12603TIP3    H237753  -0.048   1.147   0.239
12604TIP3   OH237754   3.086   0.267   6.786
12604TIP3    H137755   3.067   0.299   6.697
12604TIP3    H237756   3.057   0.338   6.843
12605TIP3   OH237757   6.827   1.129   6.522
12605TIP3    H137758   6.785   1.176   6.450
12605TIP3    H237759   6.907   1.178   6.539
12606TIP3   OH237760   0.568   0.429   3.306
12606TIP3    H137761   0.547   0.460   3.394
12606TIP3    H237762   0.513   0.352   3.293
12607TIP3   OH237763   0.065   3.582   0.035
12607TIP3    H137764   0.083   3.611  -0.055
12607TIP3    H237765   0.004   3.508   0.024
12608TIP3   OH237766   2.094   0.494   2.938
12608TIP3    H137767   2.027   0.426   2.928
12608TIP3    H237768   2.086   0.547   2.858
12609TIP3   OH237769   2.173   4.892   3.999
12609TIP3    H137770   2.164   4.944   3.919
12609TIP3    H237771   2.233   4.821   3.974
12610TIP3   OH237772   7.793   1.074   3.236
12610TIP3    H137773   7.805   1.152   3.180
12610TIP3    H237774   7.720   1.098   3.294
12611TIP3   OH237775   7.530   0.003   2.342
12611TIP3    H137776   7.529   0.074   2.406
12611TIP3    H237777   7.454  -0.051   2.365
12612TIP3   OH237778   0.889   4.111   6.630
12612TIP3    H137779   0.893   4.022   6.665
12612TIP3    H237780   0.968   4.118   6.575
12613TIP3   OH237781   6.941   6.819   6.150
12613TIP3    H137782   7.026   6.775   6.142
12613TIP3    H237783   6.877   6.747   6.147
12614TIP3   OH237784   2.630   6.755   5.435
12614TIP3    H137785   2.706   6.813   5.444
12614TIP3    H237786   2.606   6.732   5.525
12615TIP3   OH237787   1.002   5.941   2.800
12615TIP3    H137788   0.934   5.906   2.857
12615TIP3    H237789   1.044   5.863   2.763
12616TIP3   OH237790   7.125   0.105   1.515
12616TIP3    H137791   7.169   0.020   1.522
12616TIP3    H237792   7.054   0.101   1.578
12617TIP3   OH237793   3.526   0.401   1.995
12617TIP3    H137794   3.432   0.396   1.979
12617TIP3    H237795   3.537   0.367   2.084
12618TIP3   OH237796   5.418   5.773   5.671
12618TIP3    H137797   5.323   5.787   5.674
12618TIP3    H237798   5.455   5.860   5.684
12619TIP3   OH237799   1.613   1.199   2.867
12619TIP3    H137800   1.521   1.212   2.888
12619TIP3    H237801   1.651   1.287   2.867
12620TIP3   OH237802   7.621   1.486   1.600
12620TIP3    H137803   7.655   1.530   1.522
12620TIP3    H237804   7.698   1.444   1.639
12621TIP3   OH237805   4.423   6.804   3.747
12621TIP3    H137806   4.491   6.861   3.783
12621TIP3    H237807   4.347   6.861   3.736
12622TIP3   OH237808   1.250   2.257   0.431
12622TIP3    H137809   1.178   2.194   0.422
12622TIP3    H237810   1.230   2.325   0.368
12623TIP3   OH237811   4.474   5.618   4.827
12623TIP3    H137812   4.492   5.641   4.918
12623TIP3    H237813   4.401   5.556   4.832
12624TIP3   OH237814   6.513   2.099   6.812
12624TIP3    H137815   6.529   2.173   6.753
12624TIP3    H237816   6.524   2.021   6.757
12625TIP3   OH237817   2.117   5.954   6.313
12625TIP3    H137818   2.136   6.017   6.383
12625TIP3    H237819   2.176   5.881   6.330
12626TIP3   OH237820   1.613   1.650   4.893
12626TIP3    H137821   1.632   1.651   4.799
12626TIP3    H237822   1.518   1.636   4.898
12627TIP3   OH237823   6.766   0.575   2.248
12627TIP3    H137824   6.758   0.516   2.172
12627TIP3    H237825   6.742   0.521   2.323
12628TIP3   OH237826   0.598   6.734   6.539
12628TIP3    H137827   0.644   6.659   6.576
12628TIP3    H237828   0.522   6.696   6.495
12629TIP3   OH237829   6.922   4.510   4.816
12629TIP3    H137830   6.879   4.584   4.774
12629TIP3    H237831   6.867   4.490   4.892
12630TIP3   OH237832   4.546   2.213   4.655
12630TIP3    H137833   4.627   2.216   4.605
12630TIP3    H237834   4.481   2.255   4.598
12631TIP3   OH237835   3.515   4.288   4.827
12631TIP3    H137836   3.552   4.274   4.739
12631TIP3    H237837   3.453   4.360   4.816
12632TIP3   OH237838   2.132   1.160   2.801
12632TIP3    H137839   2.189   1.226   2.840
12632TIP3    H237840   2.184   1.123   2.730
12633TIP3   OH237841   3.712   6.544   6.138
12633TIP3    H137842   3.678   6.464   6.099
12633TIP3    H237843   3.778   6.514   6.201
12634TIP3   OH237844   7.032   3.894   6.190
12634TIP3    H137845   6.946   3.912   6.227
12634TIP3    H237846   7.092   3.947   6.244
12635TIP3   OH237847   5.389   0.542   4.710
12635TIP3    H137848   5.484   0.534   4.704
12635TIP3    H237849   5.370   0.627   4.670
12636TIP3   OH237850   2.687   1.575   1.845
12636TIP3    H137851   2.681   1.516   1.771
12636TIP3    H237852   2.596   1.598   1.864
12637TIP3   OH237853   7.131   2.117   1.465
12637TIP3    H137854   7.041   2.101   1.436
12637TIP3    H237855   7.136   2.212   1.476
12638TIP3   OH237856   1.703   4.091   2.443
12638TIP3    H137857   1.642   4.154   2.405
12638TIP3    H237858   1.783   4.141   2.458
12639TIP3   OH237859   3.594   7.790   5.163
12639TIP3    H137860   3.595   7.824   5.074
12639TIP3    H237861   3.541   7.852   5.212
12640TIP3   OH237862   2.767   1.344   5.098
12640TIP3    H137863   2.735   1.253   5.094
12640TIP3    H237864   2.800   1.353   5.188
12641TIP3   OH237865   5.529   1.644   0.720
12641TIP3    H137866   5.458   1.681   0.669
12641TIP3    H237867   5.493   1.562   0.755
12642TIP3   OH237868   2.710   5.927   0.300
12642TIP3    H137869   2.649   5.860   0.331
12642TIP3    H237870   2.655   6.005   0.286
12643TIP3   OH237871   1.938   6.982   0.202
12643TIP3    H137872   1.887   6.912   0.242
12643TIP3    H237873   1.889   7.005   0.123
12644TIP3   OH237874   4.456   1.950   6.187
12644TIP3    H137875   4.447   1.967   6.280
12644TIP3    H237876   4.466   2.037   6.147
12645TIP3   OH237877   3.439   3.203   1.653
12645TIP3    H137878   3.504   3.203   1.724
12645TIP3    H237879   3.378   3.134   1.678
12646TIP3   OH237880   5.635   7.727   2.079
12646TIP3    H137881   5.662   7.744   2.169
12646TIP3    H237882   5.622   7.814   2.041
12647TIP3   OH237883   6.264   6.442   4.066
12647TIP3    H137884   6.258   6.348   4.050
12647TIP3    H237885   6.321   6.451   4.142
12648TIP3   OH237886   4.529   1.083   6.225
12648TIP3    H137887   4.487   1.158   6.182
12648TIP3    H237888   4.584   1.044   6.157
12649TIP3   OH237889   2.425   7.608   4.938
12649TIP3    H137890   2.377   7.663   4.877
12649TIP3    H237891   2.358   7.567   4.993
12650TIP3   OH237892   7.821   0.166   3.476
12650TIP3    H137893   7.740   0.159   3.426
12650TIP3    H237894   7.817   0.093   3.538
12651TIP3   OH237895   2.158   6.259   0.552
12651TIP3    H137896   2.167   6.341   0.600
12651TIP3    H237897   2.200   6.194   0.608
12652TIP3   OH237898   7.417   6.671   1.018
12652TIP3    H137899   7.344   6.718   1.057
12652TIP3    H237900   7.400   6.673   0.924
12653TIP3   OH237901   3.927   2.169   5.632
12653TIP3    H137902   4.021   2.170   5.616
12653TIP3    H237903   3.888   2.196   5.549
12654TIP3   OH237904   2.997   0.900   6.681
12654TIP3    H137905   3.047   0.938   6.753
12654TIP3    H237906   2.969   0.975   6.629
12655TIP3   OH237907   5.781   6.310   2.214
12655TIP3    H137908   5.695   6.296   2.173
12655TIP3    H237909   5.765   6.300   2.308
12656TIP3   OH237910   3.065   7.301   0.952
12656TIP3    H137911   3.060   7.260   0.865
12656TIP3    H237912   2.975   7.327   0.971
12657TIP3   OH237913   0.438   2.674   1.561
12657TIP3    H137914   0.417   2.730   1.636
12657TIP3    H237915   0.355   2.631   1.540
12658TIP3   OH237916   4.908   3.083   2.950
12658TIP3    H137917   4.861   3.115   3.027
12658TIP3    H237918   4.941   3.162   2.908
12659TIP3   OH237919   7.203   0.063   2.611
12659TIP3    H137920   7.268   0.006   2.653
12659TIP3    H237921   7.254   0.114   2.548
12660TIP3   OH237922   5.776   1.066   6.028
12660TIP3    H137923   5.693   1.093   6.066
12660TIP3    H237924   5.810   1.145   5.986
12661TIP3   OH237925   1.686   2.053   3.215
12661TIP3    H137926   1.661   2.146   3.212
12661TIP3    H237927   1.781   2.054   3.222
12662TIP3   OH237928   7.802   2.403   4.825
12662TIP3    H137929   7.762   2.485   4.796
12662TIP3    H237930   7.877   2.391   4.767
12663TIP3   OH237931   5.905   3.897   4.460
12663TIP3    H137932   5.954   3.907   4.542
12663TIP3    H237933   5.838   3.832   4.481
12664TIP3   OH237934   4.273   3.704   0.933
12664TIP3    H137935   4.231   3.720   0.848
12664TIP3    H237936   4.286   3.610   0.935
12665TIP3   OH237937   3.104   1.811   3.372
12665TIP3    H137938   3.154   1.891   3.389
12665TIP3    H237939   3.146   1.745   3.427
12666TIP3   OH237940   0.529   7.224   6.145
12666TIP3    H137941   0.594   7.154   6.138
12666TIP3    H237942   0.446   7.181   6.124
12667TIP3   OH237943   8.143   2.888   2.508
12667TIP3    H137944   8.093   2.842   2.441
12667TIP3    H237945   8.217   2.831   2.526
12668TIP3   OH237946   2.170   0.538   2.115
12668TIP3    H137947   2.193   0.477   2.186
12668TIP3    H237948   2.193   0.624   2.149
12669TIP3   OH237949   2.480   0.507   5.589
12669TIP3    H137950   2.407   0.480   5.532
12669TIP3    H237951   2.484   0.603   5.578
12670TIP3   OH237952   5.596   1.368   5.222
12670TIP3    H137953   5.504   1.348   5.237
12670TIP3    H237954   5.609   1.353   5.128
12671TIP3   OH237955   1.574   2.798   5.988
12671TIP3    H137956   1.488   2.817   5.950
12671TIP3    H237957   1.632   2.790   5.913
12672TIP3   OH237958   7.495   7.131   2.104
12672TIP3    H137959   7.561   7.181   2.055
12672TIP3    H237960   7.412   7.170   2.076
12673TIP3   OH237961   4.318   3.485   1.224
12673TIP3    H137962   4.375   3.561   1.239
12673TIP3    H237963   4.308   3.482   1.129
12674TIP3   OH237964   1.772   6.217   6.347
12674TIP3    H137965   1.705   6.230   6.281
12674TIP3    H237966   1.850   6.189   6.299
12675TIP3   OH237967   1.404   3.274   4.701
12675TIP3    H137968   1.464   3.225   4.757
12675TIP3    H237969   1.436   3.364   4.705
12676TIP3   OH237970   3.527   2.995   6.764
12676TIP3    H137971   3.436   3.021   6.777
12676TIP3    H237972   3.552   3.036   6.681
12677TIP3   OH237973   7.318   5.952   3.430
12677TIP3    H137974   7.281   5.901   3.501
12677TIP3    H237975   7.351   6.032   3.473
12678TIP3   OH237976   7.994   3.256   5.673
12678TIP3    H137977   8.041   3.179   5.643
12678TIP3    H237978   7.935   3.278   5.601
12679TIP3   OH237979   5.349   1.562   4.043
12679TIP3    H137980   5.328   1.612   4.122
12679TIP3    H237981   5.408   1.619   3.994
12680TIP3   OH237982   6.262   4.190   5.251
12680TIP3    H137983   6.307   4.142   5.182
12680TIP3    H237984   6.254   4.127   5.323
12681TIP3   OH237985   4.740   6.509   2.715
12681TIP3    H137986   4.829   6.493   2.746
12681TIP3    H237987   4.746   6.591   2.667
12682TIP3   OH237988   2.783   7.561   1.297
12682TIP3    H137989   2.704   7.508   1.311
12682TIP3    H237990   2.774   7.633   1.359
12683TIP3   OH237991   4.099   4.702   3.253
12683TIP3    H137992   4.018   4.739   3.287
12683TIP3    H237993   4.108   4.740   3.165
12684TIP3   OH237994   6.912   4.301   2.459
12684TIP3    H137995   6.846   4.368   2.440
12684TIP3    H237996   6.869   4.218   2.437
12685TIP3   OH237997   5.130   3.539   2.599
12685TIP3    H137998   5.098   3.624   2.569
12685TIP3    H237999   5.171   3.557   2.683
12686TIP3   OH238000   5.516   2.148   5.932
12686TIP3    H138001   5.561   2.072   5.971
12686TIP3    H238002   5.497   2.121   5.842
12687TIP3   OH238003   2.736   6.543   6.611
12687TIP3    H138004   2.775   6.592   6.538
12687TIP3    H238005   2.807   6.487   6.643
12688TIP3   OH238006   4.048   4.472   4.103
12688TIP3    H138007   4.110   4.518   4.045
12688TIP3    H238008   3.987   4.540   4.130
12689TIP3   OH238009   7.795   6.360   6.733
12689TIP3    H138010   7.767   6.355   6.642
12689TIP3    H238011   7.830   6.273   6.752
12690TIP3   OH238012   6.944   5.733   5.727
12690TIP3    H138013   7.007   5.680   5.776
12690TIP3    H238014   6.938   5.692   5.642
12691TIP3   OH238015   1.404   4.512   1.471
12691TIP3    H138016   1.421   4.587   1.415
12691TIP3    H238017   1.379   4.442   1.410
12692TIP3   OH238018   7.754   0.748   6.484
12692TIP3    H138019   7.737   0.658   6.512
12692TIP3    H238020   7.700   0.801   6.542
12693TIP3   OH238021   2.753   5.180   5.126
12693TIP3    H138022   2.748   5.250   5.060
12693TIP3    H238023   2.787   5.224   5.204
12694TIP3   OH238024   3.792   6.748   2.263
12694TIP3    H138025   3.843   6.668   2.255
12694TIP3    H238026   3.701   6.718   2.266
12695TIP3   OH238027   4.835   0.114   5.454
12695TIP3    H138028   4.910   0.058   5.475
12695TIP3    H238029   4.827   0.107   5.359
12696TIP3   OH238030   5.807   1.292   5.834
12696TIP3    H138031   5.725   1.295   5.784
12696TIP3    H238032   5.875   1.315   5.770
12697TIP3   OH238033   6.906   7.482   0.561
12697TIP3    H138034   6.950   7.399   0.542
12697TIP3    H238035   6.976   7.548   0.553
12698TIP3   OH238036   1.904   2.395   4.236
12698TIP3    H138037   1.971   2.326   4.240
12698TIP3    H238038   1.918   2.446   4.316
12699TIP3   OH238039   3.978   4.959   0.491
12699TIP3    H138040   3.941   4.922   0.411
12699TIP3    H238041   4.000   4.882   0.544
12700TIP3   OH238042   5.718   2.286   2.523
12700TIP3    H138043   5.722   2.306   2.430
12700TIP3    H238044   5.810   2.275   2.549
12701TIP3   OH238045   0.894   0.925   4.772
12701TIP3    H138046   0.902   1.014   4.737
12701TIP3    H238047   0.922   0.868   4.701
12702TIP3   OH238048   1.802   0.890   6.192
12702TIP3    H138049   1.738   0.942   6.240
12702TIP3    H238050   1.831   0.947   6.121
12703TIP3   OH238051   4.961   7.197   4.323
12703TIP3    H138052   4.907   7.235   4.392
12703TIP3    H238053   4.938   7.247   4.245
12704TIP3   OH238054   6.635   4.723   1.058
12704TIP3    H138055   6.570   4.733   1.128
12704TIP3    H238056   6.718   4.742   1.100
12705TIP3   OH238057   0.655   1.424   1.691
12705TIP3    H138058   0.640   1.363   1.763
12705TIP3    H238059   0.747   1.410   1.666
12706TIP3   OH238060   7.894   1.548   4.849
12706TIP3    H138061   7.896   1.638   4.815
12706TIP3    H238062   7.897   1.493   4.770
12707TIP3   OH238063   7.956   2.477   3.584
12707TIP3    H138064   7.947   2.527   3.503
12707TIP3    H238065   7.884   2.508   3.639
12708TIP3   OH238066   0.808   5.637   0.241
12708TIP3    H138067   0.896   5.652   0.207
12708TIP3    H238068   0.814   5.658   0.334
12709TIP3   OH238069   2.382   0.047   2.049
12709TIP3    H138070   2.415   0.137   2.043
12709TIP3    H238071   2.408   0.018   2.136
12710TIP3   OH238072   7.424   5.255   3.685
12710TIP3    H138073   7.415   5.160   3.688
12710TIP3    H238074   7.464   5.278   3.768
12711TIP3   OH238075   6.807   4.256   5.824
12711TIP3    H138076   6.823   4.291   5.736
12711TIP3    H238077   6.759   4.325   5.869
12712TIP3   OH238078   2.400   1.187   3.799
12712TIP3    H138079   2.488   1.170   3.831
12712TIP3    H238080   2.412   1.222   3.711
12713TIP3   OH238081   7.579   4.692   1.531
12713TIP3    H138082   7.618   4.648   1.456
12713TIP3    H238083   7.606   4.639   1.606
12714TIP3   OH238084   2.426   5.096   3.327
12714TIP3    H138085   2.455   5.186   3.313
12714TIP3    H238086   2.504   5.050   3.358
12715TIP3   OH238087   8.008   0.782   4.583
12715TIP3    H138088   8.061   0.712   4.544
12715TIP3    H238089   8.061   0.861   4.570
12716TIP3   OH238090   7.520   1.563   5.565
12716TIP3    H138091   7.521   1.523   5.652
12716TIP3    H238092   7.610   1.552   5.533
12717TIP3   OH238093   3.759   1.428   6.145
12717TIP3    H138094   3.750   1.477   6.063
12717TIP3    H238095   3.777   1.496   6.210
12718TIP3   OH238096   0.240   6.825   2.629
12718TIP3    H138097   0.189   6.872   2.695
12718TIP3    H238098   0.328   6.863   2.635
12719TIP3   OH238099   0.393   5.420   5.631
12719TIP3    H138100   0.451   5.345   5.617
12719TIP3    H238101   0.315   5.382   5.672
12720TIP3   OH238102   2.165   4.186   5.762
12720TIP3    H138103   2.082   4.141   5.747
12720TIP3    H238104   2.227   4.116   5.783
12721TIP3   OH238105   1.866   1.839   4.897
12721TIP3    H138106   1.909   1.924   4.909
12721TIP3    H238107   1.873   1.822   4.803
12722TIP3   OH238108   1.520   4.142   4.262
12722TIP3    H138109   1.561   4.214   4.311
12722TIP3    H238110   1.579   4.068   4.276
12723TIP3   OH238111   4.258   0.629   0.534
12723TIP3    H138112   4.351   0.651   0.530
12723TIP3    H238113   4.225   0.651   0.447
12724TIP3   OH238114   6.795   3.343   6.305
12724TIP3    H138115   6.801   3.406   6.234
12724TIP3    H238116   6.879   3.351   6.351
12725TIP3   OH238117   2.860   5.990   2.435
12725TIP3    H138118   2.914   5.942   2.498
12725TIP3    H238119   2.782   5.936   2.423
12726TIP3   OH238120   6.600   3.099   4.837
12726TIP3    H138121   6.676   3.123   4.785
12726TIP3    H238122   6.548   3.042   4.780
12727TIP3   OH238123   1.981   0.419   2.476
12727TIP3    H138124   1.904   0.396   2.424
12727TIP3    H238125   2.050   0.431   2.411
12728TIP3   OH238126   6.721   7.363   5.408
12728TIP3    H138127   6.709   7.448   5.365
12728TIP3    H238128   6.759   7.385   5.493
12729TIP3   OH238129   1.555   5.929   2.874
12729TIP3    H138130   1.471   5.963   2.905
12729TIP3    H238131   1.542   5.835   2.868
12730TIP3   OH238132   2.429   4.601   4.928
12730TIP3    H138133   2.517   4.594   4.891
12730TIP3    H238134   2.431   4.684   4.977
12731TIP3   OH238135   4.296   2.412   2.540
12731TIP3    H138136   4.291   2.431   2.633
12731TIP3    H238137   4.216   2.449   2.503
12732TIP3   OH238138   1.075   7.329   0.576
12732TIP3    H138139   1.008   7.342   0.644
12732TIP3    H238140   1.129   7.408   0.581
12733TIP3   OH238141   2.433   6.299   2.617
12733TIP3    H138142   2.404   6.251   2.540
12733TIP3    H238143   2.392   6.253   2.691
12734TIP3   OH238144   6.293   2.825   6.597
12734TIP3    H138145   6.283   2.784   6.511
12734TIP3    H238146   6.375   2.791   6.632
12735TIP3   OH238147   5.099   6.025   3.262
12735TIP3    H138148   5.111   5.970   3.339
12735TIP3    H238149   5.069   6.109   3.296
12736TIP3   OH238150   1.248   7.038   4.206
12736TIP3    H138151   1.213   7.124   4.185
12736TIP3    H238152   1.237   6.987   4.126
12737TIP3   OH238153   7.795   4.839   5.262
12737TIP3    H138154   7.839   4.766   5.306
12737TIP3    H238155   7.862   4.907   5.256
12738TIP3   OH238156   2.751   7.189   3.504
12738TIP3    H138157   2.790   7.124   3.562
12738TIP3    H238158   2.746   7.145   3.419
12739TIP3   OH238159   1.673   5.479   3.215
12739TIP3    H138160   1.707   5.492   3.127
12739TIP3    H238161   1.578   5.481   3.205
12740TIP3   OH238162   2.474   1.961   5.852
12740TIP3    H138163   2.399   2.017   5.874
12740TIP3    H238164   2.516   2.005   5.778
12741TIP3   OH238165   0.230   7.314   3.442
12741TIP3    H138166   0.321   7.338   3.458
12741TIP3    H238167   0.188   7.322   3.528
12742TIP3   OH238168   2.899   7.485   1.586
12742TIP3    H138169   2.841   7.559   1.569
12742TIP3    H238170   2.967   7.492   1.520
12743TIP3   OH238171   1.916   3.328   0.594
12743TIP3    H138172   1.963   3.388   0.651
12743TIP3    H238173   1.824   3.354   0.601
12744TIP3   OH238174   1.553   6.617   0.993
12744TIP3    H138175   1.568   6.677   0.920
12744TIP3    H238176   1.472   6.571   0.970
12745TIP3   OH238177   0.505   6.933   0.415
12745TIP3    H138178   0.528   6.887   0.495
12745TIP3    H238179   0.441   6.999   0.443
12746TIP3   OH238180   0.875   6.474   5.241
12746TIP3    H138181   0.878   6.381   5.220
12746TIP3    H238182   0.902   6.479   5.333
12747TIP3   OH238183   5.238   3.815   0.049
12747TIP3    H138184   5.262   3.789  -0.040
12747TIP3    H238185   5.185   3.894   0.038
12748TIP3   OH238186   6.988   1.440   1.809
12748TIP3    H138187   6.893   1.433   1.823
12748TIP3    H238188   7.022   1.475   1.891
12749TIP3   OH238189   5.935   4.682   1.723
12749TIP3    H138190   6.003   4.703   1.659
12749TIP3    H238191   5.935   4.756   1.784
12750TIP3   OH238192   3.704   0.929   6.184
12750TIP3    H138193   3.763   1.003   6.170
12750TIP3    H238194   3.617   0.966   6.175
12751TIP3   OH238195   1.188   2.274   2.179
12751TIP3    H138196   1.236   2.204   2.224
12751TIP3    H238197   1.235   2.354   2.200
12752TIP3   OH238198   0.594   5.309   2.408
12752TIP3    H138199   0.596   5.326   2.502
12752TIP3    H238200   0.515   5.354   2.377
12753TIP3   OH238201   5.073   6.579   3.537
12753TIP3    H138202   5.004   6.529   3.581
12753TIP3    H238203   5.109   6.636   3.604
12754TIP3   OH238204   1.531   6.611   0.351
12754TIP3    H138205   1.463   6.675   0.328
12754TIP3    H238206   1.488   6.553   0.414
12755TIP3   OH238207   0.294   0.779   6.103
12755TIP3    H138208   0.235   0.841   6.061
12755TIP3    H238209   0.261   0.693   6.078
12756TIP3   OH238210   2.290   2.664   0.852
12756TIP3    H138211   2.373   2.709   0.870
12756TIP3    H238212   2.230   2.734   0.828
12757TIP3   OH238213   3.863   0.547   1.570
12757TIP3    H138214   3.946   0.569   1.613
12757TIP3    H238215   3.822   0.483   1.628
12758TIP3   OH238216   6.310   2.492   4.324
12758TIP3    H138217   6.334   2.578   4.357
12758TIP3    H238218   6.332   2.495   4.230
12759TIP3   OH238219   5.286   6.909   6.291
12759TIP3    H138220   5.261   6.990   6.246
12759TIP3    H238221   5.270   6.927   6.384
12760TIP3   OH238222   5.299   7.436   6.602
12760TIP3    H138223   5.366   7.381   6.643
12760TIP3    H238224   5.302   7.413   6.510
12761TIP3   OH238225   2.493   5.797   4.584
12761TIP3    H138226   2.497   5.846   4.502
12761TIP3    H238227   2.404   5.763   4.588
12762TIP3   OH238228   2.190   4.101   1.942
12762TIP3    H138229   2.189   4.154   1.863
12762TIP3    H238230   2.261   4.038   1.928
12763TIP3   OH238231   7.716   5.112   4.282
12763TIP3    H138232   7.772   5.152   4.215
12763TIP3    H238233   7.638   5.085   4.234
12764TIP3   OH238234   8.038   7.151   0.982
12764TIP3    H138235   8.114   7.184   0.935
12764TIP3    H238236   8.031   7.205   1.060
12765TIP3   OH238237   4.651   2.221   2.390
12765TIP3    H138238   4.633   2.133   2.423
12765TIP3    H238239   4.640   2.278   2.466
12766TIP3   OH238240   6.426   7.299   3.943
12766TIP3    H138241   6.408   7.270   4.032
12766TIP3    H238242   6.496   7.242   3.913
12767TIP3   OH238243   4.415   4.647   0.237
12767TIP3    H138244   4.361   4.716   0.199
12767TIP3    H238245   4.353   4.590   0.281
12768TIP3   OH238246   3.645   5.493   4.930
12768TIP3    H138247   3.603   5.419   4.887
12768TIP3    H238248   3.604   5.497   5.017
12769TIP3   OH238249   2.888   4.949   5.082
12769TIP3    H138250   2.843   4.865   5.090
12769TIP3    H238251   2.818   5.014   5.095
12770TIP3   OH238252   7.236   3.128   5.257
12770TIP3    H138253   7.324   3.094   5.243
12770TIP3    H238254   7.202   3.145   5.169
12771TIP3   OH238255   1.816   1.340   5.609
12771TIP3    H138256   1.730   1.382   5.601
12771TIP3    H238257   1.837   1.345   5.702
12772TIP3   OH238258   7.907   2.680   1.124
12772TIP3    H138259   7.900   2.706   1.215
12772TIP3    H238260   7.996   2.646   1.115
12773TIP3   OH238261   6.877   1.976   6.206
12773TIP3    H138262   6.931   2.045   6.168
12773TIP3    H238263   6.801   1.970   6.147
12774TIP3   OH238264   3.615   2.375   3.334
12774TIP3    H138265   3.673   2.439   3.292
12774TIP3    H238266   3.671   2.298   3.348
12775TIP3   OH238267   3.513   5.030   4.260
12775TIP3    H138268   3.582   5.006   4.198
12775TIP3    H238269   3.433   5.026   4.208
12776TIP3   OH238270   5.188   5.695   3.054
12776TIP3    H138271   5.106   5.744   3.058
12776TIP3    H238272   5.170   5.622   2.995
12777TIP3   OH238273   5.692   4.197   3.113
12777TIP3    H138274   5.650   4.258   3.052
12777TIP3    H238275   5.755   4.250   3.161
12778TIP3   OH238276   1.379   3.902   6.041
12778TIP3    H138277   1.332   3.893   5.958
12778TIP3    H238278   1.366   3.994   6.065
12779TIP3   OH238279   7.710   2.448   0.226
12779TIP3    H138280   7.713   2.522   0.287
12779TIP3    H238281   7.661   2.380   0.272
12780TIP3   OH238282   8.026   6.976   3.236
12780TIP3    H138283   8.061   7.003   3.321
12780TIP3    H238284   7.942   7.021   3.230
12781TIP3   OH238285   4.974   2.027   5.694
12781TIP3    H138286   5.049   2.013   5.635
12781TIP3    H238287   4.994   2.110   5.738
12782TIP3   OH238288   0.457   5.925   3.067
12782TIP3    H138289   0.400   5.967   3.131
12782TIP3    H238290   0.433   5.832   3.070
12783TIP3   OH238291  -0.008   1.248   0.953
12783TIP3    H138292   0.001   1.195   0.874
12783TIP3    H238293  -0.001   1.185   1.025
12784TIP3   OH238294   5.855   5.179   0.782
12784TIP3    H138295   5.764   5.183   0.751
12784TIP3    H238296   5.876   5.086   0.784
12785TIP3   OH238297   0.706   4.989   1.124
12785TIP3    H138298   0.781   4.940   1.088
12785TIP3    H238299   0.723   4.992   1.218
12786TIP3   OH238300   1.845   6.951   0.965
12786TIP3    H138301   1.809   6.956   1.054
12786TIP3    H238302   1.923   6.896   0.974
12787TIP3   OH238303   8.274   1.436   1.269
12787TIP3    H138304   8.267   1.466   1.360
12787TIP3    H238305   8.195   1.470   1.226
12788TIP3   OH238306   6.006   0.067   5.805
12788TIP3    H138307   5.925   0.118   5.804
12788TIP3    H238308   5.980  -0.019   5.839
12789TIP3   OH238309   4.034   2.627   3.386
12789TIP3    H138310   4.073   2.714   3.374
12789TIP3    H238311   3.965   2.623   3.319
12790TIP3   OH238312   5.292   5.167   4.252
12790TIP3    H138313   5.295   5.178   4.157
12790TIP3    H238314   5.207   5.204   4.278
12791TIP3   OH238315   0.299   4.515   3.446
12791TIP3    H138316   0.251   4.500   3.528
12791TIP3    H238317   0.391   4.517   3.471
12792TIP3   OH238318   2.861   3.939   3.823
12792TIP3    H138319   2.918   4.008   3.791
12792TIP3    H238320   2.890   3.924   3.913
12793TIP3   OH238321   4.757   5.429   0.013
12793TIP3    H138322   4.757   5.356  -0.049
12793TIP3    H238323   4.690   5.407   0.077
12794TIP3   OH238324   3.526  -0.020   1.328
12794TIP3    H138325   3.566  -0.070   1.400
12794TIP3    H238326   3.600   0.023   1.285
12795TIP3   OH238327   0.402   0.284   1.433
12795TIP3    H138328   0.494   0.308   1.426
12795TIP3    H238329   0.368   0.341   1.503
12796TIP3   OH238330   7.103   2.034   0.185
12796TIP3    H138331   7.079   2.019   0.277
12796TIP3    H238332   7.139   1.950   0.156
12797TIP3   OH238333   6.228   1.021   5.670
12797TIP3    H138334   6.287   1.042   5.743
12797TIP3    H238335   6.208   1.106   5.631
12798TIP3   OH238336   4.733   3.695   6.128
12798TIP3    H138337   4.803   3.687   6.193
12798TIP3    H238338   4.665   3.634   6.157
12799TIP3   OH238339   7.159   2.108   4.559
12799TIP3    H138340   7.179   2.042   4.493
12799TIP3    H238341   7.066   2.126   4.547
12800TIP3   OH238342   7.816   0.076   6.311
12800TIP3    H138343   7.762  -0.001   6.328
12800TIP3    H238344   7.809   0.091   6.217
12801TIP3   OH238345   5.537   0.864   1.090
12801TIP3    H138346   5.580   0.920   1.155
12801TIP3    H238347   5.444   0.867   1.114
12802TIP3   OH238348   7.445   6.531   4.204
12802TIP3    H138349   7.410   6.510   4.118
12802TIP3    H238350   7.382   6.592   4.242
12803TIP3   OH238351   2.431   4.394   6.352
12803TIP3    H138352   2.515   4.395   6.398
12803TIP3    H238353   2.410   4.486   6.339
12804TIP3   OH238354   5.348   5.999   4.525
12804TIP3    H138355   5.388   5.958   4.602
12804TIP3    H238356   5.309   5.926   4.477
12805TIP3   OH238357   8.265   4.526   6.278
12805TIP3    H138358   8.214   4.476   6.214
12805TIP3    H238359   8.344   4.552   6.230
12806TIP3   OH238360   3.191   4.083   4.875
12806TIP3    H138361   3.107   4.102   4.833
12806TIP3    H238362   3.229   4.169   4.893
12807TIP3   OH238363   5.712   7.236   3.409
12807TIP3    H138364   5.679   7.190   3.331
12807TIP3    H238365   5.637   7.243   3.467
12808TIP3   OH238366   4.966   4.333   1.657
12808TIP3    H138367   4.914   4.414   1.662
12808TIP3    H238368   4.917   4.270   1.710
12809TIP3   OH238369   6.346   3.179   5.794
12809TIP3    H138370   6.278   3.223   5.742
12809TIP3    H238371   6.412   3.153   5.730
12810TIP3   OH238372   2.630   3.270   5.731
12810TIP3    H138373   2.685   3.261   5.809
12810TIP3    H238374   2.659   3.199   5.674
12811TIP3   OH238375   3.462   4.580   5.932
12811TIP3    H138376   3.416   4.607   5.853
12811TIP3    H238377   3.507   4.499   5.907
12812TIP3   OH238378   2.278   4.665   0.418
12812TIP3    H138379   2.371   4.661   0.394
12812TIP3    H238380   2.257   4.577   0.448
12813TIP3   OH238381   0.051   3.595   6.144
12813TIP3    H138382   0.010   3.509   6.131
12813TIP3    H238383   0.104   3.608   6.066
12814TIP3   OH238384   0.450   3.664   4.081
12814TIP3    H138385   0.444   3.701   4.169
12814TIP3    H238386   0.510   3.590   4.091
12815TIP3   OH238387   1.254   0.231   0.672
12815TIP3    H138388   1.232   0.286   0.748
12815TIP3    H238389   1.207   0.271   0.599
12816TIP3   OH238390   7.693   1.792   4.267
12816TIP3    H138391   7.716   1.728   4.334
12816TIP3    H238392   7.705   1.745   4.184
12817TIP3   OH238393   6.931   3.675   5.604
12817TIP3    H138394   7.013   3.671   5.554
12817TIP3    H238395   6.865   3.696   5.539
12818TIP3   OH238396   3.725   7.002   1.448
12818TIP3    H138397   3.692   7.024   1.361
12818TIP3    H238398   3.815   6.974   1.433
12819TIP3   OH238399   0.798   7.588   3.706
12819TIP3    H138400   0.834   7.609   3.620
12819TIP3    H238401   0.855   7.633   3.768
12820TIP3   OH238402   7.130   6.790   5.337
12820TIP3    H138403   7.183   6.837   5.272
12820TIP3    H238404   7.045   6.832   5.334
12821TIP3   OH238405   4.215   7.155   4.045
12821TIP3    H138406   4.212   7.061   4.065
12821TIP3    H238407   4.273   7.191   4.113
12822TIP3   OH238408   0.713   4.666   4.113
12822TIP3    H138409   0.711   4.682   4.019
12822TIP3    H238410   0.680   4.577   4.123
12823TIP3   OH238411   7.963   4.059   2.851
12823TIP3    H138412   7.932   3.971   2.830
12823TIP3    H238413   8.051   4.045   2.886
12824TIP3   OH238414   7.398   5.417   4.582
12824TIP3    H138415   7.350   5.468   4.516
12824TIP3    H238416   7.409   5.478   4.655
12825TIP3   OH238417   0.287   1.043   2.897
12825TIP3    H138418   0.250   1.110   2.954
12825TIP3    H238419   0.268   0.960   2.941
12826TIP3   OH238420   4.167   2.847   6.642
12826TIP3    H138421   4.247   2.843   6.589
12826TIP3    H238422   4.196   2.821   6.729
12827TIP3   OH238423   0.677   2.394   3.522
12827TIP3    H138424   0.692   2.412   3.615
12827TIP3    H238425   0.675   2.299   3.515
12828TIP3   OH238426   2.885   1.020   5.282
12828TIP3    H138427   2.946   1.066   5.224
12828TIP3    H238428   2.917   1.040   5.370
12829TIP3   OH238429   2.922   2.208   5.571
12829TIP3    H138430   2.870   2.219   5.651
12829TIP3    H238431   3.011   2.194   5.602
12830TIP3   OH238432   5.317   0.122   5.347
12830TIP3    H138433   5.325   0.123   5.443
12830TIP3    H238434   5.239   0.174   5.329
12831TIP3   OH238435   6.508   2.598   1.624
12831TIP3    H138436   6.478   2.575   1.712
12831TIP3    H238437   6.573   2.531   1.602
12832TIP3   OH238438   7.071   7.243   1.132
12832TIP3    H138439   7.000   7.291   1.176
12832TIP3    H238440   7.034   7.156   1.116
12833TIP3   OH238441   5.486   6.853   5.597
12833TIP3    H138442   5.501   6.780   5.656
12833TIP3    H238443   5.574   6.889   5.580
12834TIP3   OH238444   6.081   6.030   5.520
12834TIP3    H138445   6.164   6.064   5.552
12834TIP3    H238446   6.074   6.064   5.431
12835TIP3   OH238447   7.347   1.475   3.097
12835TIP3    H138448   7.306   1.395   3.130
12835TIP3    H238449   7.402   1.505   3.169
12836TIP3   OH238450   2.646   3.616   1.877
12836TIP3    H138451   2.733   3.627   1.839
12836TIP3    H238452   2.593   3.685   1.835
12837TIP3   OH238453   6.716   4.388   3.078
12837TIP3    H138454   6.699   4.310   3.027
12837TIP3    H238455   6.804   4.374   3.115
12838TIP3   OH238456   2.877   2.265   5.301
12838TIP3    H138457   2.810   2.209   5.263
12838TIP3    H238458   2.879   2.241   5.394
12839TIP3   OH238459   2.486   1.491   3.446
12839TIP3    H138460   2.435   1.539   3.381
12839TIP3    H238461   2.511   1.557   3.510
12840TIP3   OH238462   7.693   5.508   3.169
12840TIP3    H138463   7.603   5.531   3.190
12840TIP3    H238464   7.731   5.483   3.254
12841TIP3   OH238465   6.787   3.228   0.229
12841TIP3    H138466   6.773   3.258   0.139
12841TIP3    H238467   6.701   3.237   0.271
12842TIP3   OH238468   0.737   3.768   4.127
12842TIP3    H138469   0.788   3.687   4.133
12842TIP3    H238470   0.801   3.835   4.105
12843TIP3   OH238471   2.115   6.257   3.415
12843TIP3    H138472   2.123   6.316   3.490
12843TIP3    H238473   2.115   6.169   3.454
12844TIP3   OH238474   2.278   0.502   2.374
12844TIP3    H138475   2.282   0.584   2.423
12844TIP3    H238476   2.353   0.452   2.405
12845TIP3   OH238477   1.759   5.141   5.405
12845TIP3    H138478   1.747   5.165   5.313
12845TIP3    H238479   1.673   5.157   5.445
12846TIP3   OH238480   7.241   3.808   1.204
12846TIP3    H138481   7.167   3.792   1.146
12846TIP3    H238482   7.201   3.832   1.288
12847TIP3   OH238483   1.789   6.120   0.338
12847TIP3    H138484   1.871   6.102   0.291
12847TIP3    H238485   1.816   6.128   0.430
12848TIP3   OH238486   7.203   7.002   5.528
12848TIP3    H138487   7.291   7.031   5.552
12848TIP3    H238488   7.215   6.956   5.445
12849TIP3   OH238489   5.482   2.605   3.589
12849TIP3    H138490   5.572   2.634   3.603
12849TIP3    H238491   5.477   2.520   3.634
12850TIP3   OH238492   3.818   3.138   1.596
12850TIP3    H138493   3.880   3.080   1.552
12850TIP3    H238494   3.859   3.224   1.592
12851TIP3   OH238495   6.027   2.898   4.891
12851TIP3    H138496   5.992   2.915   4.804
12851TIP3    H238497   5.960   2.845   4.934
12852TIP3   OH238498   1.170   0.520   2.079
12852TIP3    H138499   1.124   0.437   2.086
12852TIP3    H238500   1.262   0.496   2.073
12853TIP3   OH238501   7.152   4.193   0.225
12853TIP3    H138502   7.146   4.180   0.130
12853TIP3    H238503   7.065   4.221   0.251
12854TIP3   OH238504   6.656   0.908   3.049
12854TIP3    H138505   6.684   0.819   3.069
12854TIP3    H238506   6.596   0.898   2.976
12855TIP3   OH238507   1.390   2.280   3.223
12855TIP3    H138508   1.350   2.335   3.290
12855TIP3    H238509   1.454   2.336   3.180
12856TIP3   OH238510   7.156   1.853   4.138
12856TIP3    H138511   7.095   1.926   4.144
12856TIP3    H238512   7.134   1.810   4.055
12857TIP3   OH238513   5.661   6.288   3.840
12857TIP3    H138514   5.668   6.234   3.919
12857TIP3    H238515   5.674   6.227   3.768
12858TIP3   OH238516   6.379   1.927   4.157
12858TIP3    H138517   6.424   1.937   4.241
12858TIP3    H238518   6.450   1.918   4.093
12859TIP3   OH238519   6.632   6.547   4.341
12859TIP3    H138520   6.645   6.575   4.250
12859TIP3    H238521   6.610   6.627   4.388
12860TIP3   OH238522   0.196   6.196   3.150
12860TIP3    H138523   0.245   6.274   3.124
12860TIP3    H238524   0.178   6.209   3.243
12861TIP3   OH238525   0.791   1.669   2.711
12861TIP3    H138526   0.870   1.694   2.759
12861TIP3    H238527   0.810   1.580   2.681
12862TIP3   OH238528   2.402   6.948   3.336
12862TIP3    H138529   2.370   6.950   3.246
12862TIP3    H238530   2.326   6.976   3.388
12863TIP3   OH238531   2.784   2.802   0.977
12863TIP3    H138532   2.835   2.870   0.932
12863TIP3    H238533   2.793   2.824   1.070
12864TIP3   OH238534   2.688   5.988   6.615
12864TIP3    H138535   2.767   5.986   6.561
12864TIP3    H238536   2.664   6.081   6.618
12865TIP3   OH238537   1.642   3.521   0.930
12865TIP3    H138538   1.620   3.458   0.998
12865TIP3    H238539   1.577   3.591   0.940
12866TIP3   OH238540   4.772   3.262   2.336
12866TIP3    H138541   4.798   3.171   2.344
12866TIP3    H238542   4.699   3.261   2.274
12867TIP3   OH238543   1.100   4.742   1.539
12867TIP3    H138544   1.094   4.722   1.633
12867TIP3    H238545   1.024   4.701   1.500
12868TIP3   OH238546   3.624   2.869   4.258
12868TIP3    H138547   3.645   2.893   4.167
12868TIP3    H238548   3.530   2.885   4.266
12869TIP3   OH238549   6.374   4.488   3.060
12869TIP3    H138550   6.320   4.499   2.983
12869TIP3    H238551   6.456   4.532   3.039
12870TIP3   OH238552   4.155   2.732   4.267
12870TIP3    H138553   4.185   2.784   4.192
12870TIP3    H238554   4.068   2.700   4.240
12871TIP3   OH238555   0.631   2.247   2.763
12871TIP3    H138556   0.647   2.189   2.688
12871TIP3    H238557   0.567   2.310   2.730
12872TIP3   OH238558   2.039   7.429   3.393
12872TIP3    H138559   2.078   7.371   3.328
12872TIP3    H238560   2.093   7.418   3.471
12873TIP3   OH238561   5.485   1.998   0.716
12873TIP3    H138562   5.572   1.993   0.678
12873TIP3    H238563   5.486   1.935   0.788
12874TIP3   OH238564   3.231   1.015   6.270
12874TIP3    H138565   3.157   1.075   6.281
12874TIP3    H238566   3.251   0.986   6.359
12875TIP3   OH238567   7.752   6.199   1.559
12875TIP3    H138568   7.659   6.179   1.571
12875TIP3    H238569   7.774   6.159   1.474
12876TIP3   OH238570   2.714   0.405   4.956
12876TIP3    H138571   2.796   0.358   4.970
12876TIP3    H238572   2.653   0.368   5.020
12877TIP3   OH238573   1.652  -0.025   1.924
12877TIP3    H138574   1.727  -0.048   1.979
12877TIP3    H238575   1.691   0.018   1.847
12878TIP3   OH238576   3.409   5.818   5.510
12878TIP3    H138577   3.403   5.868   5.592
12878TIP3    H238578   3.319   5.814   5.477
12879TIP3   OH238579   3.055   2.918   1.328
12879TIP3    H138580   3.117   2.938   1.398
12879TIP3    H238581   2.983   2.980   1.341
12880TIP3   OH238582   5.291   1.208   3.041
12880TIP3    H138583   5.386   1.199   3.032
12880TIP3    H238584   5.277   1.217   3.135
12881TIP3   OH238585   4.521   2.811   2.512
12881TIP3    H138586   4.506   2.906   2.513
12881TIP3    H238587   4.436   2.774   2.486
12882TIP3   OH238588   7.719   0.890   0.001
12882TIP3    H138589   7.736   0.981   0.027
12882TIP3    H238590   7.628   0.874   0.026
12883TIP3   OH238591   3.460   5.475   0.003
12883TIP3    H138592   3.429   5.564   0.016
12883TIP3    H238593   3.538   5.468   0.059
12884TIP3   OH238594   1.256   7.402   4.409
12884TIP3    H138595   1.188   7.348   4.448
12884TIP3    H238596   1.252   7.382   4.316
12885TIP3   OH238597   7.153   2.522   3.179
12885TIP3    H138598   7.070   2.551   3.141
12885TIP3    H238599   7.152   2.556   3.268
12886TIP3   OH238600   3.706   1.925   3.794
12886TIP3    H138601   3.727   1.896   3.883
12886TIP3    H238602   3.707   1.845   3.741
12887TIP3   OH238603   6.692   5.436   6.686
12887TIP3    H138604   6.663   5.467   6.600
12887TIP3    H238605   6.619   5.383   6.718
12888TIP3   OH238606   0.359   3.365   4.455
12888TIP3    H138607   0.409   3.432   4.409
12888TIP3    H238608   0.268   3.387   4.438
12889TIP3   OH238609   5.140   7.379   0.317
12889TIP3    H138610   5.215   7.391   0.375
12889TIP3    H238611   5.077   7.445   0.344
12890TIP3   OH238612   4.491   0.844   2.083
12890TIP3    H138613   4.480   0.909   2.015
12890TIP3    H238614   4.536   0.771   2.041
12891TIP3   OH238615   5.588   7.515   0.339
12891TIP3    H138616   5.527   7.525   0.266
12891TIP3    H238617   5.642   7.594   0.337
12892TIP3   OH238618   2.511   7.780   3.899
12892TIP3    H138619   2.572   7.714   3.930
12892TIP3    H238620   2.426   7.754   3.935
12893TIP3   OH238621   6.763   1.476   2.780
12893TIP3    H138622   6.823   1.413   2.740
12893TIP3    H238623   6.817   1.523   2.843
12894TIP3   OH238624   2.517   7.100   0.544
12894TIP3    H138625   2.437   7.140   0.510
12894TIP3    H238626   2.524   7.016   0.498
12895TIP3   OH238627   6.758   4.506   0.319
12895TIP3    H138628   6.703   4.569   0.271
12895TIP3    H238629   6.833   4.558   0.349
12896TIP3   OH238630   3.469   4.985   5.861
12896TIP3    H138631   3.443   5.075   5.842
12896TIP3    H238632   3.521   4.959   5.785
12897TIP3   OH238633   5.488   1.861   2.925
12897TIP3    H138634   5.398   1.890   2.936
12897TIP3    H238635   5.488   1.770   2.956
12898TIP3   OH238636   5.357   0.323   5.872
12898TIP3    H138637   5.264   0.325   5.894
12898TIP3    H238638   5.362   0.363   5.786
12899TIP3   OH238639   0.744   4.007   4.843
12899TIP3    H138640   0.779   4.082   4.893
12899TIP3    H238641   0.650   4.024   4.838
12900TIP3   OH238642   7.392   5.275   2.963
12900TIP3    H138643   7.385   5.369   2.975
12900TIP3    H238644   7.485   5.260   2.944
12901TIP3   OH238645   3.154   5.279   1.280
12901TIP3    H138646   3.090   5.330   1.331
12901TIP3    H238647   3.233   5.333   1.281
12902TIP3   OH238648   1.323   6.236   6.444
12902TIP3    H138649   1.413   6.204   6.433
12902TIP3    H238650   1.293   6.193   6.524
12903TIP3   OH238651   4.966   6.565   3.264
12903TIP3    H138652   4.872   6.554   3.277
12903TIP3    H238653   5.006   6.524   3.341
12904TIP3   OH238654   2.984   6.522   6.158
12904TIP3    H138655   3.019   6.457   6.220
12904TIP3    H238656   2.957   6.595   6.213
12905TIP3   OH238657   0.231   1.372   1.136
12905TIP3    H138658   0.151   1.420   1.158
12905TIP3    H238659   0.227   1.293   1.190
12906TIP3   OH238660   3.119   0.702   1.036
12906TIP3    H138661   3.191   0.760   1.061
12906TIP3    H238662   3.161   0.620   1.010
12907TIP3   OH238663   5.502   3.032   4.002
12907TIP3    H138664   5.516   3.096   4.071
12907TIP3    H238665   5.487   3.085   3.923
12908TIP3   OH238666   1.710   5.803   5.459
12908TIP3    H138667   1.789   5.828   5.412
12908TIP3    H238668   1.656   5.883   5.459
12909TIP3   OH238669   7.976   6.609   2.225
12909TIP3    H138670   7.966   6.605   2.320
12909TIP3    H238671   7.998   6.519   2.199
12910TIP3   OH238672   2.935   3.656   2.502
12910TIP3    H138673   2.912   3.575   2.456
12910TIP3    H238674   2.939   3.631   2.594
12911TIP3   OH238675   6.684   1.698   6.036
12911TIP3    H138676   6.621   1.747   6.089
12911TIP3    H238677   6.650   1.703   5.947
12912TIP3   OH238678   6.302   6.163   2.186
12912TIP3    H138679   6.219   6.203   2.212
12912TIP3    H238680   6.343   6.230   2.131
12913TIP3   OH238681   6.067   5.018   6.141
12913TIP3    H138682   6.008   5.010   6.216
12913TIP3    H238683   6.082   4.928   6.112
12914TIP3   OH238684   3.819   4.617   0.282
12914TIP3    H138685   3.879   4.675   0.329
12914TIP3    H238686   3.774   4.567   0.350
12915TIP3   OH238687   8.232   4.224   3.386
12915TIP3    H138688   8.324   4.222   3.415
12915TIP3    H238689   8.238   4.231   3.291
12916TIP3   OH238690   8.269   5.935   3.972
12916TIP3    H138691   8.286   5.998   4.042
12916TIP3    H238692   8.342   5.944   3.912
12917TIP3   OH238693   0.279   5.810   1.654
12917TIP3    H138694   0.193   5.806   1.613
12917TIP3    H238695   0.282   5.731   1.709
12918TIP3   OH238696   7.307   3.601   1.656
12918TIP3    H138697   7.342   3.616   1.568
12918TIP3    H238698   7.234   3.540   1.642
12919TIP3   OH238699   3.307   3.663   5.117
12919TIP3    H138700   3.282   3.606   5.190
12919TIP3    H238701   3.402   3.669   5.122
12920TIP3   OH238702   6.823   7.115   4.062
12920TIP3    H138703   6.800   7.184   4.124
12920TIP3    H238704   6.869   7.049   4.115
12921TIP3   OH238705   5.899   5.457   1.406
12921TIP3    H138706   5.994   5.457   1.395
12921TIP3    H238707   5.883   5.398   1.480
12922TIP3   OH238708   1.313   6.723   2.049
12922TIP3    H138709   1.337   6.742   1.958
12922TIP3    H238710   1.375   6.775   2.101
12923TIP3   OH238711   4.021   3.537   4.553
12923TIP3    H138712   3.994   3.626   4.577
12923TIP3    H238713   4.107   3.548   4.512
12924TIP3   OH238714   6.853   5.836   6.645
12924TIP3    H138715   6.777   5.839   6.587
12924TIP3    H238716   6.848   5.750   6.687
12925TIP3   OH238717   1.632   7.122   3.530
12925TIP3    H138718   1.625   7.148   3.621
12925TIP3    H238719   1.656   7.202   3.484
12926TIP3   OH238720   4.722   2.906   1.411
12926TIP3    H138721   4.783   2.856   1.357
12926TIP3    H238722   4.722   2.994   1.372
12927TIP3   OH238723   6.031   0.822   4.347
12927TIP3    H138724   5.989   0.811   4.432
12927TIP3    H238725   5.975   0.883   4.300
12928TIP3   OH238726   6.479   4.976   2.861
12928TIP3    H138727   6.538   5.051   2.855
12928TIP3    H238728   6.392   5.013   2.845
12929TIP3   OH238729   7.052   3.717   0.798
12929TIP3    H138730   7.045   3.680   0.886
12929TIP3    H238731   7.010   3.803   0.804
12930TIP3   OH238732   6.881   7.602   5.326
12930TIP3    H138733   6.880   7.641   5.239
12930TIP3    H238734   6.967   7.560   5.332
12931TIP3   OH238735   5.649   3.932   0.333
12931TIP3    H138736   5.610   3.994   0.395
12931TIP3    H238737   5.574   3.889   0.292
12932TIP3   OH238738   0.320   0.391   1.671
12932TIP3    H138739   0.229   0.365   1.682
12932TIP3    H238740   0.315   0.476   1.627
12933TIP3   OH238741   6.867   3.628   6.169
12933TIP3    H138742   6.929   3.600   6.237
12933TIP3    H238743   6.922   3.665   6.100
12934TIP3   OH238744   5.446   3.195   3.784
12934TIP3    H138745   5.421   3.272   3.734
12934TIP3    H238746   5.514   3.153   3.730
12935TIP3   OH238747   1.376   1.162   0.342
12935TIP3    H138748   1.450   1.185   0.399
12935TIP3    H238749   1.410   1.174   0.253
12936TIP3   OH238750   4.941   3.621   6.309
12936TIP3    H138751   4.955   3.544   6.364
12936TIP3    H238752   5.028   3.657   6.295
12937TIP3   OH238753   0.028   3.336   4.526
12937TIP3    H138754  -0.053   3.330   4.577
12937TIP3    H238755   0.080   3.261   4.555
12938TIP3   OH238756   5.736   2.353   3.021
12938TIP3    H138757   5.755   2.447   3.026
12938TIP3    H238758   5.686   2.343   2.941
12939TIP3   OH238759   4.698   5.102   6.569
12939TIP3    H138760   4.749   5.138   6.497
12939TIP3    H238761   4.763   5.074   6.634
12940TIP3   OH238762   0.980   5.360   2.621
12940TIP3    H138763   1.065   5.329   2.653
12940TIP3    H238764   0.917   5.318   2.680
12941TIP3   OH238765   5.337   0.130   5.642
12941TIP3    H138766   5.348   0.092   5.730
12941TIP3    H238767   5.357   0.223   5.654
12942TIP3   OH238768   1.665   4.406   3.299
12942TIP3    H138769   1.586   4.353   3.313
12942TIP3    H238770   1.636   4.480   3.248
12943TIP3   OH238771   0.147   7.756   3.947
12943TIP3    H138772   0.055   7.777   3.931
12943TIP3    H238773   0.151   7.734   4.040
12944TIP3   OH238774   4.076   7.239   5.695
12944TIP3    H138775   4.100   7.304   5.761
12944TIP3    H238776   4.001   7.277   5.650
12945TIP3   OH238777   1.986   1.337   2.368
12945TIP3    H138778   1.981   1.259   2.313
12945TIP3    H238779   1.983   1.302   2.458
12946TIP3   OH238780   0.633   2.837   6.599
12946TIP3    H138781   0.606   2.865   6.686
12946TIP3    H238782   0.728   2.825   6.605
12947TIP3   OH238783   0.025   1.272   4.443
12947TIP3    H138784  -0.016   1.186   4.432
12947TIP3    H238785   0.070   1.267   4.527
12948TIP3   OH238786   0.506   1.941   4.846
12948TIP3    H138787   0.524   1.848   4.839
12948TIP3    H238788   0.427   1.955   4.793
12949TIP3   OH238789   6.513   0.842   6.257
12949TIP3    H138790   6.419   0.841   6.276
12949TIP3    H238791   6.551   0.787   6.325
12950TIP3   OH238792   3.394   1.991   5.602
12950TIP3    H138793   3.403   1.901   5.636
12950TIP3    H238794   3.414   2.047   5.677
12951TIP3   OH238795   2.430   0.641   2.774
12951TIP3    H138796   2.489   0.619   2.846
12951TIP3    H238797   2.381   0.561   2.758
12952TIP3   OH238798   4.245   6.511   2.716
12952TIP3    H138799   4.190   6.434   2.720
12952TIP3    H238800   4.334   6.477   2.703
12953TIP3   OH238801   0.065   1.601   2.058
12953TIP3    H138802   0.035   1.562   1.976
12953TIP3    H238803   0.098   1.526   2.109
12954TIP3   OH238804   4.978   1.817   1.092
12954TIP3    H138805   4.950   1.831   1.183
12954TIP3    H238806   4.967   1.723   1.078
12955TIP3   OH238807   4.835   4.865   3.755
12955TIP3    H138808   4.830   4.908   3.840
12955TIP3    H238809   4.766   4.907   3.703
12956TIP3   OH238810   3.111   7.671   3.384
12956TIP3    H138811   3.079   7.737   3.323
12956TIP3    H238812   3.161   7.611   3.330
12957TIP3   OH238813   0.894   3.211   0.536
12957TIP3    H138814   0.986   3.236   0.548
12957TIP3    H238815   0.886   3.196   0.441
12958TIP3   OH238816   1.519   1.230   0.869
12958TIP3    H138817   1.517   1.215   0.774
12958TIP3    H238818   1.612   1.236   0.890
12959TIP3   OH238819   6.562   3.107   5.577
12959TIP3    H138820   6.508   3.091   5.499
12959TIP3    H238821   6.610   3.187   5.557
12960TIP3   OH238822   7.277   3.841   2.199
12960TIP3    H138823   7.342   3.863   2.132
12960TIP3    H238824   7.251   3.925   2.236
12961TIP3   OH238825   6.336   7.774   1.651
12961TIP3    H138826   6.394   7.843   1.618
12961TIP3    H238827   6.307   7.806   1.736
12962TIP3   OH238828   3.100   7.726   6.753
12962TIP3    H138829   3.043   7.735   6.830
12962TIP3    H238830   3.053   7.666   6.695
12963TIP3   OH238831   7.671   3.854   6.581
12963TIP3    H138832   7.581   3.823   6.590
12963TIP3    H238833   7.712   3.792   6.521
12964TIP3   OH238834   2.902   0.783   3.075
12964TIP3    H138835   2.836   0.779   3.144
12964TIP3    H238836   2.933   0.693   3.066
12965TIP3   OH238837   4.786   7.108   5.364
12965TIP3    H138838   4.708   7.055   5.348
12965TIP3    H238839   4.786   7.172   5.293
12966TIP3   OH238840   7.195   6.365   0.683
12966TIP3    H138841   7.278   6.316   0.681
12966TIP3    H238842   7.212   6.442   0.629
12967TIP3   OH238843   8.272   2.326   1.347
12967TIP3    H138844   8.227   2.274   1.414
12967TIP3    H238845   8.332   2.383   1.397
12968TIP3   OH238846   3.724   7.335   3.312
12968TIP3    H138847   3.718   7.421   3.355
12968TIP3    H238848   3.784   7.285   3.367
12969TIP3   OH238849   7.950   1.016   6.793
12969TIP3    H138850   7.883   1.080   6.769
12969TIP3    H238851   8.023   1.035   6.733
12970TIP3   OH238852   4.441   0.029   2.677
12970TIP3    H138853   4.477  -0.046   2.630
12970TIP3    H238854   4.370   0.060   2.621
12971TIP3   OH238855   0.820   4.601   0.524
12971TIP3    H138856   0.806   4.507   0.529
12971TIP3    H238857   0.906   4.611   0.483
12972TIP3   OH238858   1.959   0.613   4.618
12972TIP3    H138859   1.914   0.672   4.557
12972TIP3    H238860   2.021   0.564   4.563
12973TIP3   OH238861   7.855   7.218   5.271
12973TIP3    H138862   7.785   7.153   5.275
12973TIP3    H238863   7.932   7.168   5.242
12974TIP3   OH238864   4.668   3.287   2.644
12974TIP3    H138865   4.726   3.214   2.620
12974TIP3    H238866   4.646   3.328   2.560
12975TIP3   OH238867   2.805   7.244   4.195
12975TIP3    H138868   2.810   7.325   4.245
12975TIP3    H238869   2.895   7.229   4.165
12976TIP3   OH238870   3.689   1.628   2.571
12976TIP3    H138871   3.718   1.635   2.480
12976TIP3    H238872   3.605   1.583   2.566
12977TIP3   OH238873   2.270   3.251   3.409
12977TIP3    H138874   2.177   3.231   3.402
12977TIP3    H238875   2.300   3.204   3.487
12978TIP3   OH238876   7.132   6.924   6.414
12978TIP3    H138877   7.122   6.994   6.479
12978TIP3    H238878   7.133   6.969   6.330
12979TIP3   OH238879   2.803   3.913   2.442
12979TIP3    H138880   2.897   3.932   2.433
12979TIP3    H238881   2.798   3.817   2.439
12980TIP3   OH238882   7.557   3.833   0.263
12980TIP3    H138883   7.633   3.794   0.307
12980TIP3    H238884   7.503   3.867   0.334
12981TIP3   OH238885   3.951   4.481   5.799
12981TIP3    H138886   3.889   4.408   5.788
12981TIP3    H238887   3.943   4.506   5.891
12982TIP3   OH238888   2.140   0.407   5.713
12982TIP3    H138889   2.183   0.351   5.778
12982TIP3    H238890   2.180   0.381   5.630
12983TIP3   OH238891   6.158   3.304   1.683
12983TIP3    H138892   6.186   3.352   1.605
12983TIP3    H238893   6.079   3.258   1.655
12984TIP3   OH238894   3.359   4.774   3.767
12984TIP3    H138895   3.452   4.761   3.748
12984TIP3    H238896   3.354   4.860   3.809
12985TIP3   OH238897   6.236   3.575   6.279
12985TIP3    H138898   6.276   3.571   6.365
12985TIP3    H238899   6.283   3.645   6.233
12986TIP3   OH238900   5.935   5.009   1.084
12986TIP3    H138901   6.000   5.077   1.068
12986TIP3    H238902   5.974   4.955   1.153
12987TIP3   OH238903   4.561   6.806   1.117
12987TIP3    H138904   4.653   6.832   1.127
12987TIP3    H238905   4.558   6.717   1.150
12988TIP3   OH238906   2.550   6.691   2.082
12988TIP3    H138907   2.506   6.616   2.122
12988TIP3    H238908   2.537   6.679   1.988
12989TIP3   OH238909   3.017   5.935   6.239
12989TIP3    H138910   2.965   6.013   6.219
12989TIP3    H238911   3.095   5.944   6.183
12990TIP3   OH238912   6.716   4.176   6.471
12990TIP3    H138913   6.754   4.155   6.386
12990TIP3    H238914   6.728   4.098   6.524
12991TIP3   OH238915   2.245   1.611   6.695
12991TIP3    H138916   2.196   1.641   6.772
12991TIP3    H238917   2.232   1.516   6.693
12992TIP3   OH238918   4.174   6.118   6.311
12992TIP3    H138919   4.200   6.036   6.353
12992TIP3    H238920   4.210   6.111   6.223
12993TIP3   OH238921   6.903   4.400   1.458
12993TIP3    H138922   6.924   4.491   1.479
12993TIP3    H238923   6.871   4.402   1.368
12994TIP3   OH238924   5.405   1.221   2.161
12994TIP3    H138925   5.452   1.137   2.169
12994TIP3    H238926   5.443   1.276   2.229
12995TIP3   OH238927   7.238   7.551   3.400
12995TIP3    H138928   7.284   7.496   3.463
12995TIP3    H238929   7.307   7.582   3.340
12996TIP3   OH238930   6.819   1.172   0.237
12996TIP3    H138931   6.832   1.080   0.216
12996TIP3    H238932   6.832   1.218   0.153
12997TIP3   OH238933   4.835   1.681   1.456
12997TIP3    H138934   4.837   1.762   1.405
12997TIP3    H238935   4.922   1.673   1.494
12998TIP3   OH238936   0.491   3.884   0.181
12998TIP3    H138937   0.432   3.870   0.255
12998TIP3    H238938   0.442   3.853   0.105
12999TIP3   OH238939   0.125   2.863   1.480
12999TIP3    H138940   0.143   2.861   1.386
12999TIP3    H238941   0.117   2.771   1.505
13000TIP3   OH238942   6.080   3.643   2.171
13000TIP3    H138943   5.985   3.642   2.184
13000TIP3    H238944   6.094   3.588   2.094
13001TIP3   OH238945  -0.013   6.734   1.670
13001TIP3    H138946   0.023   6.796   1.607
13001TIP3    H238947   0.061   6.682   1.699
13002TIP3   OH238948   3.785   5.693   4.642
13002TIP3    H138949   3.878   5.697   4.663
13002TIP3    H238950   3.741   5.728   4.719
13003TIP3   OH238951   7.962   6.046   1.676
13003TIP3    H138952   8.027   6.103   1.717
13003TIP3    H238953   7.888   6.103   1.657
13004TIP3   OH238954   0.931   1.624   4.696
13004TIP3    H138955   0.982   1.651   4.773
13004TIP3    H238956   0.988   1.645   4.622
13005TIP3   OH238957   2.163   0.317   4.669
13005TIP3    H138958   2.213   0.285   4.744
13005TIP3    H238959   2.227   0.321   4.598
13006TIP3   OH238960   0.635   7.657   0.843
13006TIP3    H138961   0.591   7.696   0.918
13006TIP3    H238962   0.614   7.715   0.770
13007TIP3   OH238963   5.608   0.107   4.761
13007TIP3    H138964   5.579   0.016   4.771
13007TIP3    H238965   5.557   0.156   4.825
13008TIP3   OH238966   2.288   1.860   2.611
13008TIP3    H138967   2.218   1.906   2.565
13008TIP3    H238968   2.334   1.928   2.659
13009TIP3   OH238969   7.885   5.720   6.225
13009TIP3    H138970   7.852   5.705   6.136
13009TIP3    H238971   7.904   5.633   6.258
13010TIP3   OH238972   1.780   4.194  -0.028
13010TIP3    H138973   1.865   4.151  -0.034
13010TIP3    H238974   1.722   4.127   0.008
13011TIP3   OH238975   1.981   6.375   6.453
13011TIP3    H138976   1.886   6.367   6.451
13011TIP3    H238977   2.007   6.372   6.361
13012TIP3   OH238978   2.233   0.477   1.217
13012TIP3    H138979   2.323   0.498   1.192
13012TIP3    H238980   2.240   0.432   1.301
13013TIP3   OH238981   3.411   3.313   3.101
13013TIP3    H138982   3.468   3.365   3.044
13013TIP3    H238983   3.323   3.342   3.080
13014TIP3   OH238984   4.857   6.922   6.137
13014TIP3    H138985   4.907   7.003   6.148
13014TIP3    H238986   4.828   6.924   6.046
13015TIP3   OH238987   5.365   6.056   6.325
13015TIP3    H138988   5.417   6.088   6.251
13015TIP3    H238989   5.274   6.056   6.293
13016TIP3   OH238990   7.041   0.080   2.829
13016TIP3    H138991   7.106   0.060   2.762
13016TIP3    H238992   6.957   0.079   2.782
13017TIP3   OH238993   6.945   2.557   4.801
13017TIP3    H138994   6.978   2.477   4.842
13017TIP3    H238995   6.900   2.527   4.722
13018TIP3   OH238996   6.383   1.699   4.883
13018TIP3    H138997   6.306   1.670   4.834
13018TIP3    H238998   6.347   1.761   4.948
13019TIP3   OH238999   3.686   4.166   6.377
13019TIP3    H139000   3.777   4.190   6.361
13019TIP3    H239001   3.678   4.165   6.472
13020TIP3   OH239002   5.572   1.125   4.560
13020TIP3    H139003   5.485   1.109   4.524
13020TIP3    H239004   5.596   1.043   4.602
13021TIP3   OH239005   1.638   3.901   6.746
13021TIP3    H139006   1.729   3.885   6.721
13021TIP3    H239007   1.588   3.836   6.697
13022TIP3   OH239008   2.029   6.376   1.959
13022TIP3    H139009   2.031   6.440   2.031
13022TIP3    H239010   2.008   6.428   1.882
13023TIP3   OH239011   2.903   1.454   6.260
13023TIP3    H139012   2.903   1.508   6.339
13023TIP3    H239013   2.867   1.511   6.192
13024TIP3   OH239014   8.196   2.432   2.122
13024TIP3    H139015   8.179   2.345   2.087
13024TIP3    H239016   8.191   2.490   2.046
13025TIP3   OH239017   2.051   6.728   3.441
13025TIP3    H139018   1.977   6.672   3.416
13025TIP3    H239019   2.053   6.797   3.375
13026TIP3   OH239020   4.155   0.927   2.411
13026TIP3    H139021   4.200   0.952   2.331
13026TIP3    H239022   4.073   0.976   2.410
13027TIP3   OH239023   4.079   1.789   1.859
13027TIP3    H139024   3.992   1.787   1.819
13027TIP3    H239025   4.073   1.858   1.925
13028TIP3   OH239026   5.397   6.586   2.245
13028TIP3    H139027   5.339   6.551   2.313
13028TIP3    H239028   5.346   6.654   2.203
13029TIP3   OH239029   3.650   2.365   2.266
13029TIP3    H139030   3.707   2.355   2.342
13029TIP3    H239031   3.701   2.420   2.206
13030TIP3   OH239032   0.337   0.304   0.323
13030TIP3    H139033   0.271   0.373   0.317
13030TIP3    H239034   0.290   0.223   0.304
13031TIP3   OH239035   2.475   2.138   3.073
13031TIP3    H139036   2.425   2.057   3.079
13031TIP3    H239037   2.409   2.207   3.080
13032TIP3   OH239038   3.607   4.609   5.022
13032TIP3    H139039   3.545   4.599   4.950
13032TIP3    H239040   3.573   4.682   5.074
13033TIP3   OH239041   7.572   5.222   5.480
13033TIP3    H139042   7.640   5.216   5.414
13033TIP3    H239043   7.517   5.145   5.466
13034TIP3   OH239044   7.411   3.041   1.437
13034TIP3    H139045   7.474   2.977   1.405
13034TIP3    H239046   7.459   3.124   1.436
13035TIP3   OH239047   3.268   1.687   2.363
13035TIP3    H139048   3.193   1.657   2.415
13035TIP3    H239049   3.230   1.712   2.279
13036TIP3   OH239050   1.024   7.051   3.487
13036TIP3    H139051   1.015   7.117   3.419
13036TIP3    H239052   1.052   7.100   3.564
13037TIP3   OH239053   7.938   6.286   5.404
13037TIP3    H139054   7.958   6.242   5.321
13037TIP3    H239055   7.989   6.237   5.469
13038TIP3   OH239056   6.866   3.875   2.608
13038TIP3    H139057   6.927   3.877   2.534
13038TIP3    H239058   6.883   3.956   2.656
13039TIP3   OH239059   5.294   0.813   0.833
13039TIP3    H139060   5.357   0.743   0.845
13039TIP3    H239061   5.248   0.819   0.917
13040TIP3   OH239062   1.026   2.092   6.083
13040TIP3    H139063   0.939   2.072   6.118
13040TIP3    H239064   1.086   2.045   6.140
13041TIP3   OH239065   1.141   7.766   3.411
13041TIP3    H139066   1.168   7.728   3.494
13041TIP3    H239067   1.142   7.861   3.426
13042TIP3   OH239068   6.503   7.594   6.237
13042TIP3    H139069   6.542   7.512   6.269
13042TIP3    H239070   6.433   7.613   6.300
13043TIP3   OH239071   1.600   4.975   4.308
13043TIP3    H139072   1.640   4.987   4.222
13043TIP3    H239073   1.550   5.055   4.323
13044TIP3   OH239074   7.668   2.860   5.472
13044TIP3    H139075   7.710   2.857   5.558
13044TIP3    H239076   7.647   2.769   5.451
13045TIP3   OH239077   1.290   1.282   4.425
13045TIP3    H139078   1.212   1.256   4.474
13045TIP3    H239079   1.288   1.378   4.423
13046TIP3   OH239080   3.782   5.244   6.737
13046TIP3    H139081   3.754   5.332   6.761
13046TIP3    H239082   3.820   5.208   6.817
13047TIP3   OH239083   0.954   2.468   2.035
13047TIP3    H139084   0.982   2.550   1.996
13047TIP3    H239085   1.028   2.408   2.022
13048TIP3   OH239086   5.032   0.903   5.794
13048TIP3    H139087   5.080   0.945   5.866
13048TIP3    H239088   4.985   0.974   5.751
13049TIP3   OH239089   2.059   2.966   1.986
13049TIP3    H139090   1.982   3.005   2.027
13049TIP3    H239091   2.058   2.875   2.015
13050TIP3   OH239092   5.705   5.147   2.134
13050TIP3    H139093   5.695   5.060   2.171
13050TIP3    H239094   5.700   5.206   2.209
13051TIP3   OH239095   7.572   0.512   5.596
13051TIP3    H139096   7.522   0.461   5.661
13051TIP3    H239097   7.573   0.456   5.518
13052TIP3   OH239098   6.118   4.291   5.579
13052TIP3    H139099   6.121   4.380   5.613
13052TIP3    H239100   6.207   4.274   5.548
13053TIP3   OH239101   3.987   1.100   2.824
13053TIP3    H139102   4.063   1.138   2.780
13053TIP3    H239103   3.961   1.026   2.769
13054TIP3   OH239104   2.857   0.526   5.402
13054TIP3    H139105   2.868   0.610   5.359
13054TIP3    H239106   2.940   0.481   5.388
13055TIP3   OH239107   1.033   0.824   2.547
13055TIP3    H139108   1.040   0.736   2.512
13055TIP3    H239109   0.938   0.838   2.559
13056TIP3   OH239110   7.637   6.049   5.575
13056TIP3    H139111   7.557   5.997   5.565
13056TIP3    H239112   7.702   6.001   5.523
13057TIP3   OH239113   0.704   6.153   1.883
13057TIP3    H139114   0.610   6.139   1.876
13057TIP3    H239115   0.731   6.183   1.796
13058TIP3   OH239116   7.915   1.812   0.425
13058TIP3    H139117   7.904   1.769   0.509
13058TIP3    H239118   7.828   1.848   0.405
13059TIP3   OH239119   0.751   4.010   0.858
13059TIP3    H139120   0.672   4.009   0.911
13059TIP3    H239121   0.807   3.943   0.897
13060TIP3   OH239122   3.848   2.635   3.188
13060TIP3    H139123   3.834   2.553   3.141
13060TIP3    H239124   3.885   2.695   3.123
13061TIP3   OH239125   2.514   0.391   0.409
13061TIP3    H139126   2.485   0.306   0.440
13061TIP3    H239127   2.559   0.372   0.326
13062TIP3   OH239128   5.643   4.517   5.359
13062TIP3    H139129   5.653   4.424   5.381
13062TIP3    H239130   5.731   4.546   5.337
13063TIP3   OH239131   7.403   6.957   6.602
13063TIP3    H139132   7.338   6.952   6.672
13063TIP3    H239133   7.465   6.886   6.622
13064TIP3   OH239134   4.868   4.880   2.545
13064TIP3    H139135   4.916   4.800   2.522
13064TIP3    H239136   4.902   4.905   2.631
13065TIP3   OH239137   6.462   3.797   3.284
13065TIP3    H139138   6.410   3.791   3.364
13065TIP3    H239139   6.459   3.708   3.248
13066TIP3   OH239140   7.942   6.585   2.488
13066TIP3    H139141   7.985   6.514   2.536
13066TIP3    H239142   7.993   6.663   2.509
13067TIP3   OH239143   6.493   4.249   5.957
13067TIP3    H139144   6.428   4.318   5.940
13067TIP3    H239145   6.563   4.293   6.006
13068TIP3   OH239146   6.754   6.939   6.697
13068TIP3    H139147   6.690   6.873   6.722
13068TIP3    H239148   6.838   6.902   6.726
13069TIP3   OH239149   7.753   5.496   4.341
13069TIP3    H139150   7.736   5.433   4.410
13069TIP3    H239151   7.784   5.574   4.386
13070TIP3   OH239152   6.327   7.240   5.066
13070TIP3    H139153   6.342   7.167   5.006
13070TIP3    H239154   6.413   7.282   5.075
13071TIP3   OH239155   4.550   6.038   2.719
13071TIP3    H139156   4.592   6.124   2.722
13071TIP3    H239157   4.520   6.028   2.628
13072TIP3   OH239158   1.143   7.579   1.704
13072TIP3    H139159   1.157   7.649   1.768
13072TIP3    H239160   1.101   7.509   1.754
13073TIP3   OH239161   2.296   1.589   3.268
13073TIP3    H139162   2.224   1.648   3.293
13073TIP3    H239163   2.269   1.554   3.183
13074TIP3   OH239164   3.076   6.579   5.679
13074TIP3    H139165   2.988   6.541   5.677
13074TIP3    H239166   3.093   6.596   5.771
13075TIP3   OH239167   7.934   3.746   3.405
13075TIP3    H139168   8.020   3.720   3.371
13075TIP3    H239169   7.920   3.834   3.371
13076TIP3   OH239170   2.235   0.794   4.226
13076TIP3    H139171   2.231   0.797   4.130
13076TIP3    H239172   2.146   0.814   4.254
13077TIP3   OH239173   8.328   7.416   1.264
13077TIP3    H139174   8.331   7.398   1.358
13077TIP3    H239175   8.351   7.508   1.256
13078TIP3   OH239176   0.347   2.129   6.547
13078TIP3    H139177   0.354   2.217   6.582
13078TIP3    H239178   0.378   2.136   6.457
13079TIP3   OH239179   3.440   7.111   2.676
13079TIP3    H139180   3.536   7.109   2.674
13079TIP3    H239181   3.416   7.049   2.744
13080TIP3   OH239182   1.953   5.010   0.621
13080TIP3    H139183   1.985   4.993   0.710
13080TIP3    H239184   2.008   4.956   0.565
13081TIP3   OH239185   1.224   5.437   2.434
13081TIP3    H139186   1.150   5.434   2.494
13081TIP3    H239187   1.241   5.345   2.413
13082TIP3   OH239188   4.070   6.867   2.490
13082TIP3    H139189   4.063   6.772   2.494
13082TIP3    H239190   3.988   6.900   2.526
13083TIP3   OH239191   3.553   1.831   1.785
13083TIP3    H139192   3.592   1.806   1.869
13083TIP3    H239193   3.486   1.895   1.808
13084TIP3   OH239194   6.809   0.192   0.831
13084TIP3    H139195   6.857   0.262   0.786
13084TIP3    H239196   6.727   0.184   0.783
13085TIP3   OH239197   3.119   3.232   0.537
13085TIP3    H139198   3.168   3.151   0.551
13085TIP3    H239199   3.084   3.253   0.624
13086TIP3   OH239200   3.054   3.924   5.094
13086TIP3    H139201   3.093   3.919   5.181
13086TIP3    H239202   3.107   3.989   5.047
13087TIP3   OH239203   5.366   2.879   5.776
13087TIP3    H139204   5.282   2.898   5.733
13087TIP3    H239205   5.359   2.921   5.861
13088TIP3   OH239206   2.386   0.923   1.997
13088TIP3    H139207   2.475   0.955   1.981
13088TIP3    H239208   2.368   0.864   1.923
13089TIP3   OH239209   3.060   7.504   4.198
13089TIP3    H139210   3.013   7.532   4.120
13089TIP3    H239211   3.137   7.561   4.202
13090TIP3   OH239212   6.829   4.565   2.823
13090TIP3    H139213   6.872   4.597   2.902
13090TIP3    H239214   6.737   4.591   2.834
13091TIP3   OH239215   3.717   2.732   3.762
13091TIP3    H139216   3.694   2.669   3.694
13091TIP3    H239217   3.759   2.804   3.715
13092TIP3   OH239218   5.921   7.820   3.485
13092TIP3    H139219   5.897   7.853   3.572
13092TIP3    H239220   5.999   7.767   3.500
13093TIP3   OH239221   3.088   0.408   6.536
13093TIP3    H139222   3.053   0.493   6.563
13093TIP3    H239223   3.053   0.394   6.448
13094TIP3   OH239224   6.937   1.204   1.604
13094TIP3    H139225   6.926   1.284   1.655
13094TIP3    H239226   6.933   1.232   1.513
13095TIP3   OH239227   2.149   7.500   4.051
13095TIP3    H139228   2.065   7.455   4.044
13095TIP3    H239229   2.139   7.559   4.126
13096TIP3   OH239230   3.090   6.075   4.296
13096TIP3    H139231   3.006   6.030   4.290
13096TIP3    H239232   3.092   6.112   4.385
13097TIP3   OH239233   6.583   6.886   3.693
13097TIP3    H139234   6.651   6.923   3.637
13097TIP3    H239235   6.501   6.917   3.655
13098TIP3   OH239236   6.173   5.117   3.246
13098TIP3    H139237   6.122   5.198   3.249
13098TIP3    H239238   6.261   5.144   3.220
13099TIP3   OH239239   5.392   1.482   0.285
13099TIP3    H139240   5.444   1.402   0.286
13099TIP3    H239241   5.332   1.471   0.211
13100TIP3   OH239242   0.875   3.629   5.220
13100TIP3    H139243   0.929   3.576   5.279
13100TIP3    H239244   0.921   3.626   5.136
13101TIP3   OH239245   1.442   6.002   4.257
13101TIP3    H139246   1.482   5.956   4.183
13101TIP3    H239247   1.439   5.937   4.327
13102TIP3   OH239248   3.198   0.241   3.081
13102TIP3    H139249   3.140   0.276   3.148
13102TIP3    H239250   3.140   0.209   3.012
13103TIP3   OH239251   5.929   2.536   2.377
13103TIP3    H139252   5.972   2.505   2.297
13103TIP3    H239253   5.979   2.496   2.448
13104TIP3   OH239254   1.634   5.255   2.692
13104TIP3    H139255   1.682   5.177   2.721
13104TIP3    H239256   1.589   5.286   2.770
13105TIP3   OH239257   6.547   0.822   0.439
13105TIP3    H139258   6.562   0.902   0.489
13105TIP3    H239259   6.630   0.775   0.444
13106TIP3   OH239260   2.666   0.996   6.002
13106TIP3    H139261   2.686   1.089   6.004
13106TIP3    H239262   2.572   0.991   5.988
13107TIP3   OH239263   0.829   5.208   2.821
13107TIP3    H139264   0.771   5.201   2.897
13107TIP3    H239265   0.770   5.212   2.746
13108TIP3   OH239266   0.108   5.713   6.143
13108TIP3    H139267   0.185   5.726   6.198
13108TIP3    H239268   0.143   5.682   6.059
13109TIP3   OH239269   5.602   0.207   4.161
13109TIP3    H139270   5.649   0.268   4.217
13109TIP3    H239271   5.512   0.207   4.194
13110TIP3   OH239272   2.776   5.546   6.547
13110TIP3    H139273   2.857   5.510   6.583
13110TIP3    H239274   2.793   5.641   6.542
13111TIP3   OH239275   3.378   2.504   6.749
13111TIP3    H139276   3.378   2.586   6.699
13111TIP3    H239277   3.291   2.467   6.734
13112TIP3   OH239278   6.339   5.793   5.353
13112TIP3    H139279   6.310   5.874   5.312
13112TIP3    H239280   6.263   5.734   5.346
13113TIP3   OH239281   0.306   2.740   0.673
13113TIP3    H139282   0.395   2.765   0.695
13113TIP3    H239283   0.293   2.771   0.583
13114TIP3   OH239284   3.490   2.669   3.527
13114TIP3    H139285   3.447   2.584   3.537
13114TIP3    H239286   3.495   2.683   3.433
13115TIP3   OH239287   6.544   6.422   0.194
13115TIP3    H139288   6.459   6.378   0.196
13115TIP3    H239289   6.525   6.512   0.170
13116TIP3   OH239290   0.474   2.134   2.975
13116TIP3    H139291   0.496   2.156   3.065
13116TIP3    H239292   0.525   2.195   2.922
13117TIP3   OH239293   4.908   1.547   1.015
13117TIP3    H139294   4.826   1.512   1.049
13117TIP3    H239295   4.884   1.600   0.940
13118TIP3   OH239296   5.621   4.957   4.754
13118TIP3    H139297   5.588   4.904   4.681
13118TIP3    H239298   5.716   4.953   4.746
13119TIP3   OH239299   7.351   3.738   5.195
13119TIP3    H139300   7.447   3.736   5.186
13119TIP3    H239301   7.320   3.669   5.137
13120TIP3   OH239302   6.779   1.595   1.318
13120TIP3    H139303   6.688   1.608   1.291
13120TIP3    H239304   6.808   1.517   1.270
13121TIP3   OH239305   3.623   1.883   5.347
13121TIP3    H139306   3.669   1.861   5.427
13121TIP3    H239307   3.645   1.974   5.331
13122TIP3   OH239308   2.946   1.702   2.760
13122TIP3    H139309   2.961   1.611   2.787
13122TIP3    H239310   2.940   1.698   2.665
13123TIP3   OH239311   8.213   5.024   6.670
13123TIP3    H139312   8.299   5.066   6.671
13123TIP3    H239313   8.231   4.932   6.691
13124TIP3   OH239314   3.018   0.249   6.284
13124TIP3    H139315   3.106   0.287   6.280
13124TIP3    H239316   2.962   0.313   6.240
13125TIP3   OH239317   5.291   4.644   4.836
13125TIP3    H139318   5.293   4.718   4.775
13125TIP3    H239319   5.375   4.600   4.823
13126TIP3   OH239320   5.945   3.551   4.040
13126TIP3    H139321   6.016   3.569   3.978
13126TIP3    H239322   5.911   3.466   4.013
13127TIP3   OH239323   1.819   5.943   3.553
13127TIP3    H139324   1.779   5.915   3.471
13127TIP3    H239325   1.782   5.885   3.619
13128TIP3   OH239326   7.919   3.759   5.004
13128TIP3    H139327   7.845   3.785   4.950
13128TIP3    H239328   7.962   3.841   5.027
13129TIP3   OH239329   1.660   6.273   1.212
13129TIP3    H139330   1.629   6.363   1.202
13129TIP3    H239331   1.594   6.220   1.169
13130TIP3   OH239332   0.070   2.994   1.821
13130TIP3    H139333  -0.009   2.947   1.846
13130TIP3    H239334   0.073   2.989   1.726
13131TIP3   OH239335   4.712   0.395   5.415
13131TIP3    H139336   4.682   0.304   5.414
13131TIP3    H239337   4.655   0.440   5.353
13132TIP3   OH239338   5.161   4.454   6.259
13132TIP3    H139339   5.231   4.519   6.265
13132TIP3    H239340   5.085   4.497   6.298
13133TIP3   OH239341   1.776   1.935   6.237
13133TIP3    H139342   1.750   1.896   6.321
13133TIP3    H239343   1.693   1.959   6.196
13134TIP3   OH239344   0.453   1.039   2.697
13134TIP3    H139345   0.389   1.021   2.766
13134TIP3    H239346   0.527   1.079   2.743
13135TIP3   OH239347   1.054   6.168   3.019
13135TIP3    H139348   1.006   6.133   3.094
13135TIP3    H239349   1.030   6.110   2.946
13136TIP3   OH239350   4.524   5.317   6.551
13136TIP3    H139351   4.553   5.407   6.567
13136TIP3    H239352   4.595   5.263   6.585
13137TIP3   OH239353   6.895   5.591   4.279
13137TIP3    H139354   6.855   5.677   4.293
13137TIP3    H239355   6.987   5.610   4.265
13138TIP3   OH239356   4.314   5.853   2.264
13138TIP3    H139357   4.284   5.834   2.175
13138TIP3    H239358   4.244   5.904   2.303
13139TIP3   OH239359   1.276   0.714   3.846
13139TIP3    H139360   1.268   0.809   3.858
13139TIP3    H239361   1.370   0.699   3.837
13140TIP3   OH239362   5.928   5.949   3.999
13140TIP3    H139363   5.891   5.984   3.918
13140TIP3    H239364   5.996   5.889   3.969
13141TIP3   OH239365   1.445   5.839   4.468
13141TIP3    H139366   1.367   5.783   4.457
13141TIP3    H239367   1.500   5.791   4.530
13142TIP3   OH239368   1.145   5.952   0.552
13142TIP3    H139369   1.146   6.047   0.539
13142TIP3    H239370   1.121   5.916   0.467
13143TIP3   OH239371   3.884   4.749   3.422
13143TIP3    H139372   3.795   4.781   3.407
13143TIP3    H239373   3.872   4.667   3.470
13144TIP3   OH239374   8.118   5.815   5.974
13144TIP3    H139375   8.139   5.725   6.000
13144TIP3    H239376   8.191   5.840   5.917
13145TIP3   OH239377   2.156   5.347   3.154
13145TIP3    H139378   2.062   5.334   3.162
13145TIP3    H239379   2.188   5.348   3.244
13146TIP3   OH239380   1.286   7.704   5.075
13146TIP3    H139381   1.366   7.652   5.089
13146TIP3    H239382   1.312   7.794   5.096
13147TIP3   OH239383   7.519   0.352   1.838
13147TIP3    H139384   7.569   0.279   1.875
13147TIP3    H239385   7.472   0.314   1.764
13148TIP3   OH239386   4.067   5.746   0.791
13148TIP3    H139387   4.041   5.749   0.699
13148TIP3    H239388   4.100   5.833   0.810
13149TIP3   OH239389   5.807   0.082   2.512
13149TIP3    H139390   5.754   0.148   2.467
13149TIP3    H239391   5.886   0.130   2.540
13150TIP3   OH239392   0.268   5.561   0.193
13150TIP3    H139393   0.276   5.569   0.288
13150TIP3    H239394   0.354   5.586   0.159
13151TIP3   OH239395   3.325   2.058   5.366
13151TIP3    H139396   3.367   2.002   5.301
13151TIP3    H239397   3.371   2.039   5.447
13152TIP3   OH239398   0.721   6.323   2.618
13152TIP3    H139399   0.681   6.409   2.605
13152TIP3    H239400   0.710   6.279   2.534
13153TIP3   OH239401   3.003   1.364   1.778
13153TIP3    H139402   2.948   1.380   1.701
13153TIP3    H239403   3.091   1.386   1.750
13154TIP3   OH239404   0.811   1.598   1.134
13154TIP3    H139405   0.898   1.585   1.094
13154TIP3    H239406   0.753   1.610   1.059
13155TIP3   OH239407   2.637   0.410   3.653
13155TIP3    H139408   2.625   0.417   3.748
13155TIP3    H239409   2.610   0.495   3.619
13156TIP3   OH239410   7.716   1.023   4.734
13156TIP3    H139411   7.712   1.033   4.639
13156TIP3    H239412   7.735   0.930   4.747
13157TIP3   OH239413   5.552   0.405   5.434
13157TIP3    H139414   5.602   0.334   5.395
13157TIP3    H239415   5.618   0.470   5.460
13158TIP3   OH239416   5.217   1.691   5.844
13158TIP3    H139417   5.220   1.686   5.940
13158TIP3    H239418   5.159   1.620   5.819
13159TIP3   OH239419   6.933   0.440   0.756
13159TIP3    H139420   6.873   0.457   0.829
13159TIP3    H239421   7.000   0.507   0.765
13160TIP3   OH239422   4.663   1.421   1.380
13160TIP3    H139423   4.702   1.422   1.293
13160TIP3    H239424   4.704   1.494   1.426
13161TIP3   OH239425   3.646   6.473   1.612
13161TIP3    H139426   3.720   6.524   1.577
13161TIP3    H239427   3.666   6.382   1.588
13162TIP3   OH239428   2.650   7.134   5.787
13162TIP3    H139429   2.622   7.225   5.784
13162TIP3    H239430   2.729   7.135   5.842
13163TIP3   OH239431   7.046   6.118   2.300
13163TIP3    H139432   7.129   6.072   2.289
13163TIP3    H239433   7.059   6.173   2.377
13164TIP3   OH239434   3.314   5.030   0.408
13164TIP3    H139435   3.254   5.005   0.337
13164TIP3    H239436   3.337   5.121   0.388
13165TIP3   OH239437   4.840   2.005   2.676
13165TIP3    H139438   4.770   2.000   2.611
13165TIP3    H239439   4.824   1.931   2.734
13166TIP3   OH239440   0.747   7.027   5.832
13166TIP3    H139441   0.693   7.100   5.861
13166TIP3    H239442   0.837   7.055   5.849
13167TIP3   OH239443   5.237   5.582   1.311
13167TIP3    H139444   5.296   5.583   1.236
13167TIP3    H239445   5.177   5.509   1.293
13168TIP3   OH239446   2.113   4.331   3.717
13168TIP3    H139447   2.177   4.280   3.768
13168TIP3    H239448   2.162   4.408   3.688
13169TIP3   OH239449   7.163   4.524   1.244
13169TIP3    H139450   7.130   4.562   1.326
13169TIP3    H239451   7.200   4.599   1.197
13170TIP3   OH239452   3.895   5.640   1.923
13170TIP3    H139453   3.966   5.579   1.943
13170TIP3    H239454   3.864   5.615   1.836
13171TIP3   OH239455   1.778   6.063   2.425
13171TIP3    H139456   1.780   6.031   2.335
13171TIP3    H239457   1.740   5.991   2.476
13172TIP3   OH239458   0.261   6.742   4.238
13172TIP3    H139459   0.252   6.726   4.332
13172TIP3    H239460   0.255   6.655   4.198
13173TIP3   OH239461   5.822   3.652   0.283
13173TIP3    H139462   5.915   3.675   0.286
13173TIP3    H239463   5.782   3.722   0.232
13174TIP3   OH239464   3.696   4.362   6.650
13174TIP3    H139465   3.605   4.391   6.639
13174TIP3    H239466   3.741   4.438   6.687
13175TIP3   OH239467   3.035   4.884   2.949
13175TIP3    H139468   3.109   4.824   2.951
13175TIP3    H239469   2.998   4.881   3.037
13176TIP3   OH239470   0.437   0.523   6.386
13176TIP3    H139471   0.508   0.549   6.326
13176TIP3    H239472   0.481   0.511   6.470
13177TIP3   OH239473   7.637   2.365   2.113
13177TIP3    H139474   7.700   2.293   2.116
13177TIP3    H239475   7.556   2.328   2.148
13178TIP3   OH239476   3.562   2.097   3.191
13178TIP3    H139477   3.542   2.060   3.277
13178TIP3    H239478   3.479   2.094   3.143
13179TIP3   OH239479   7.514   6.001   5.923
13179TIP3    H139480   7.487   5.918   5.961
13179TIP3    H239481   7.453   6.016   5.851
13180TIP3   OH239482   4.431   4.691   4.366
13180TIP3    H139483   4.515   4.664   4.330
13180TIP3    H239484   4.427   4.785   4.350
13181TIP3   OH239485   7.198   6.031   2.726
13181TIP3    H139486   7.201   5.944   2.765
13181TIP3    H239487   7.258   6.083   2.780
13182TIP3   OH239488   6.504   7.560   1.738
13182TIP3    H139489   6.437   7.626   1.716
13182TIP3    H239490   6.488   7.488   1.677
13183TIP3   OH239491   4.743   2.271   3.819
13183TIP3    H139492   4.690   2.335   3.867
13183TIP3    H239493   4.738   2.192   3.871
13184TIP3   OH239494   4.671   4.848   6.306
13184TIP3    H139495   4.698   4.798   6.383
13184TIP3    H239496   4.730   4.817   6.237
13185TIP3   OH239497   3.007   5.175   0.482
13185TIP3    H139498   2.978   5.095   0.524
13185TIP3    H239499   3.094   5.192   0.521
13186TIP3   OH239500   6.152   0.748   5.875
13186TIP3    H139501   6.073   0.782   5.917
13186TIP3    H239502   6.149   0.783   5.786
13187TIP3   OH239503   3.035   1.163   5.109
13187TIP3    H139504   2.961   1.160   5.048
13187TIP3    H239505   3.020   1.241   5.161
13188TIP3   OH239506   0.186   7.611   5.596
13188TIP3    H139507   0.252   7.541   5.590
13188TIP3    H239508   0.230   7.681   5.644
13189TIP3   OH239509   4.353   0.168   3.603
13189TIP3    H139510   4.305   0.119   3.535
13189TIP3    H239511   4.349   0.111   3.680
13190TIP3   OH239512   2.561   5.965   2.521
13190TIP3    H139513   2.537   6.046   2.477
13190TIP3    H239514   2.597   5.910   2.452
13191TIP3   OH239515   7.583   5.845   2.187
13191TIP3    H139516   7.544   5.779   2.245
13191TIP3    H239517   7.656   5.799   2.145
13192TIP3   OH239518   1.137   6.370   1.831
13192TIP3    H139519   1.179   6.316   1.898
13192TIP3    H239520   1.050   6.388   1.866
13193TIP3   OH239521   3.623   2.127   4.846
13193TIP3    H139522   3.603   2.152   4.936
13193TIP3    H239523   3.542   2.090   4.813
13194TIP3   OH239524   7.229   5.731   3.168
13194TIP3    H139525   7.139   5.711   3.140
13194TIP3    H239526   7.220   5.811   3.220
13195TIP3   OH239527   2.570   5.370   6.526
13195TIP3    H139528   2.641   5.432   6.510
13195TIP3    H239529   2.493   5.424   6.536
13196TIP3   OH239530   8.086   5.850   4.347
13196TIP3    H139531   8.090   5.935   4.390
13196TIP3    H239532   8.164   5.804   4.380
13197TIP3   OH239533   0.989   7.369   3.389
13197TIP3    H139534   0.961   7.382   3.480
13197TIP3    H239535   1.070   7.320   3.395
13198TIP3   OH239536   1.932   1.871   4.052
13198TIP3    H139537   2.026   1.886   4.057
13198TIP3    H239538   1.924   1.776   4.037
13199TIP3   OH239539   2.077   3.999   1.099
13199TIP3    H139540   2.023   4.054   1.155
13199TIP3    H239541   2.094   3.920   1.152
13200TIP3   OH239542   4.997   3.980   3.124
13200TIP3    H139543   5.033   4.054   3.174
13200TIP3    H239544   5.063   3.960   3.059
13201TIP3   OH239545   0.570   7.178   4.885
13201TIP3    H139546   0.587   7.160   4.793
13201TIP3    H239547   0.585   7.272   4.894
13202TIP3   OH239548   3.082   0.694   5.920
13202TIP3    H139549   2.989   0.688   5.943
13202TIP3    H239550   3.084   0.726   5.830
13203TIP3   OH239551   6.626   3.998   6.682
13203TIP3    H139552   6.668   3.936   6.742
13203TIP3    H239553   6.587   4.064   6.739
13204TIP3   OH239554   2.803   3.160   4.283
13204TIP3    H139555   2.870   3.166   4.351
13204TIP3    H239556   2.773   3.069   4.286
13205TIP3   OH239557   2.077   3.991   2.169
13205TIP3    H139558   2.082   4.082   2.197
13205TIP3    H239559   2.137   3.986   2.094
13206TIP3   OH239560   3.645   5.161   2.864
13206TIP3    H139561   3.665   5.095   2.930
13206TIP3    H239562   3.613   5.111   2.789
13207TIP3   OH239563   4.602   2.087   4.011
13207TIP3    H139564   4.665   2.032   4.059
13207TIP3    H239565   4.595   2.167   4.063
13208TIP3   OH239566   2.851   0.196   3.703
13208TIP3    H139567   2.885   0.188   3.614
13208TIP3    H239568   2.771   0.248   3.693
13209TIP3   OH239569   6.493   3.145   2.198
13209TIP3    H139570   6.464   3.073   2.254
13209TIP3    H239571   6.415   3.171   2.149
13210TIP3   OH239572   1.180   2.937   5.252
13210TIP3    H139573   1.199   3.030   5.257
13210TIP3    H239574   1.193   2.915   5.159
13211TIP3   OH239575   0.184   6.884   0.098
13211TIP3    H139576   0.269   6.927   0.094
13211TIP3    H239577   0.196   6.803   0.049
13212TIP3   OH239578   7.553   5.636   2.742
13212TIP3    H139579   7.544   5.543   2.719
13212TIP3    H239580   7.599   5.636   2.826
13213TIP3   OH239581   0.115   7.398   2.191
13213TIP3    H139582   0.058   7.457   2.142
13213TIP3    H239583   0.153   7.452   2.260
13214TIP3   OH239584   4.017   6.440   1.575
13214TIP3    H139585   4.041   6.509   1.513
13214TIP3    H239586   3.936   6.404   1.540
13215TIP3   OH239587   5.750   2.944   1.275
13215TIP3    H139588   5.801   2.888   1.333
13215TIP3    H239589   5.659   2.932   1.303
13216TIP3   OH239590   4.319   3.619   6.054
13216TIP3    H139591   4.351   3.704   6.022
13216TIP3    H239592   4.260   3.588   5.986
13217TIP3   OH239593   8.177   6.318   1.511
13217TIP3    H139594   8.155   6.326   1.604
13217TIP3    H239595   8.106   6.364   1.466
13218TIP3   OH239596   5.839   3.300   4.062
13218TIP3    H139597   5.881   3.219   4.034
13218TIP3    H239598   5.848   3.300   4.157
13219TIP3   OH239599   4.890   3.012   1.799
13219TIP3    H139600   4.898   3.075   1.871
13219TIP3    H239601   4.824   2.950   1.828
13220TIP3   OH239602   5.922   5.708   5.900
13220TIP3    H139603   5.832   5.720   5.871
13220TIP3    H239604   5.917   5.639   5.966
13221TIP3   OH239605   0.982   3.828   0.899
13221TIP3    H139606   0.981   3.815   0.994
13221TIP3    H239607   0.976   3.739   0.863
13222TIP3   OH239608   5.520   6.009   2.550
13222TIP3    H139609   5.597   5.979   2.503
13222TIP3    H239610   5.451   6.011   2.484
13223TIP3   OH239611   5.716   7.686   4.203
13223TIP3    H139612   5.806   7.703   4.177
13223TIP3    H239613   5.691   7.608   4.154
13224TIP3   OH239614   0.568   7.170   5.475
13224TIP3    H139615   0.538   7.157   5.565
13224TIP3    H239616   0.500   7.131   5.421
13225TIP3   OH239617   4.404   1.955   0.477
13225TIP3    H139618   4.364   1.868   0.464
13225TIP3    H239619   4.337   2.016   0.447
13226TIP3   OH239620   5.443   7.398   5.716
13226TIP3    H139621   5.424   7.315   5.760
13226TIP3    H239622   5.373   7.457   5.743
13227TIP3   OH239623   2.105   7.726   0.775
13227TIP3    H139624   2.131   7.809   0.733
13227TIP3    H239625   2.175   7.665   0.752
13228TIP3   OH239626   1.794   6.921   0.711
13228TIP3    H139627   1.815   6.945   0.801
13228TIP3    H239628   1.701   6.943   0.701
13229TIP3   OH239629   2.705   7.859   0.461
13229TIP3    H139630   2.667   7.819   0.383
13229TIP3    H239631   2.674   7.805   0.533
13230TIP3   OH239632   4.631   5.760   2.686
13230TIP3    H139633   4.617   5.853   2.702
13230TIP3    H239634   4.595   5.744   2.599
13231TIP3   OH239635   1.337   1.552   5.457
13231TIP3    H139636   1.295   1.566   5.372
13231TIP3    H239637   1.430   1.558   5.439
13232TIP3   OH239638   5.545   3.195   2.093
13232TIP3    H139639   5.475   3.222   2.034
13232TIP3    H239640   5.611   3.157   2.036
13233TIP3   OH239641   6.435   6.943   1.117
13233TIP3    H139642   6.498   6.884   1.075
13233TIP3    H239643   6.351   6.920   1.077
13234TIP3   OH239644   0.003   5.688   5.565
13234TIP3    H139645   0.083   5.728   5.532
13234TIP3    H239646  -0.022   5.625   5.498
13235TIP3   OH239647   3.100   7.658   5.698
13235TIP3    H139648   3.156   7.672   5.622
13235TIP3    H239649   3.032   7.599   5.668
13236TIP3   OH239650   4.150   7.667   2.024
13236TIP3    H139651   4.185   7.590   1.979
13236TIP3    H239652   4.144   7.734   1.955
13237TIP3   OH239653   3.095   5.368   6.226
13237TIP3    H139654   3.145   5.382   6.307
13237TIP3    H239655   3.114   5.445   6.172
13238TIP3   OH239656   6.533   5.257   4.033
13238TIP3    H139657   6.533   5.174   4.081
13238TIP3    H239658   6.575   5.319   4.092
13239TIP3   OH239659   5.918   0.201   4.362
13239TIP3    H139660   5.902   0.295   4.353
13239TIP3    H239661   5.914   0.185   4.456
13240TIP3   OH239662   1.877   5.301   3.313
13240TIP3    H139663   1.901   5.284   3.404
13240TIP3    H239664   1.815   5.374   3.317
13241TIP3   OH239665   4.646   1.198   3.064
13241TIP3    H139666   4.605   1.233   3.143
13241TIP3    H239667   4.664   1.275   3.009
13242TIP3   OH239668   1.307   6.622   5.575
13242TIP3    H139669   1.266   6.677   5.508
13242TIP3    H239670   1.348   6.551   5.527
13243TIP3   OH239671   1.045   1.247   2.869
13243TIP3    H139672   0.976   1.307   2.900
13243TIP3    H239673   1.111   1.249   2.938
13244TIP3   OH239674   4.439   0.864   1.182
13244TIP3    H139675   4.351   0.903   1.180
13244TIP3    H239676   4.423   0.771   1.200
13245TIP3   OH239677   1.055   4.686   2.167
13245TIP3    H139678   1.105   4.624   2.221
13245TIP3    H239679   0.965   4.676   2.197
13246TIP3   OH239680   7.114   7.080   3.156
13246TIP3    H139681   7.112   7.021   3.231
13246TIP3    H239682   7.115   7.023   3.080
13247TIP3   OH239683   1.602   5.322   0.572
13247TIP3    H139684   1.684   5.351   0.532
13247TIP3    H239685   1.584   5.386   0.640
13248TIP3   OH239686   8.251   3.279   0.756
13248TIP3    H139687   8.203   3.305   0.835
13248TIP3    H239688   8.198   3.315   0.684
13249TIP3   OH239689   6.871   4.447   5.611
13249TIP3    H139690   6.953   4.491   5.593
13249TIP3    H239691   6.865   4.379   5.544
13250TIP3   OH239692   7.836   6.856   5.659
13250TIP3    H139693   7.857   6.795   5.729
13250TIP3    H239694   7.920   6.894   5.634
13251TIP3   OH239695   6.010   6.410   1.503
13251TIP3    H139696   6.065   6.443   1.574
13251TIP3    H239697   5.934   6.468   1.503
13252TIP3   OH239698   6.688   1.158   5.167
13252TIP3    H139699   6.649   1.231   5.216
13252TIP3    H239700   6.624   1.088   5.173
13253TIP3   OH239701   3.113   4.833   4.139
13253TIP3    H139702   3.021   4.811   4.154
13253TIP3    H239703   3.154   4.749   4.120
13254TIP3   OH239704   5.526   5.279   5.033
13254TIP3    H139705   5.446   5.279   4.981
13254TIP3    H239706   5.565   5.193   5.018
13255TIP3   OH239707   6.246   3.903   4.907
13255TIP3    H139708   6.279   3.963   4.972
13255TIP3    H239709   6.159   3.877   4.939
13256TIP3   OH239710   1.043   1.764   1.286
13256TIP3    H139711   1.017   1.687   1.337
13256TIP3    H239712   0.962   1.797   1.249
13257TIP3   OH239713   4.705   4.327   1.780
13257TIP3    H139714   4.691   4.331   1.685
13257TIP3    H239715   4.683   4.415   1.810
13258TIP3   OH239716   1.929   0.275   4.459
13258TIP3    H139717   1.985   0.279   4.536
13258TIP3    H239718   1.840   0.285   4.492
13259TIP3   OH239719   1.544   6.356   6.265
13259TIP3    H139720   1.548   6.374   6.171
13259TIP3    H239721   1.496   6.273   6.271
13260TIP3   OH239722   3.054   1.887   4.462
13260TIP3    H139723   3.007   1.936   4.530
13260TIP3    H239724   3.003   1.902   4.382
13261TIP3   OH239725   1.304   1.855   0.819
13261TIP3    H139726   1.339   1.830   0.904
13261TIP3    H239727   1.373   1.834   0.757
13262TIP3   OH239728   1.970   5.646   3.517
13262TIP3    H139729   2.043   5.611   3.466
13262TIP3    H239730   1.910   5.572   3.527
13263TIP3   OH239731   6.005   5.492   5.692
13263TIP3    H139732   6.064   5.514   5.620
13263TIP3    H239733   5.992   5.574   5.739
13264TIP3   OH239734   7.465   1.440   0.687
13264TIP3    H139735   7.391   1.385   0.662
13264TIP3    H239736   7.424   1.523   0.715
13265TIP3   OH239737   6.803   1.925   3.694
13265TIP3    H139738   6.708   1.915   3.683
13265TIP3    H239739   6.840   1.841   3.668
13266TIP3   OH239740   1.088   6.075   2.370
13266TIP3    H139741   1.011   6.071   2.427
13266TIP3    H239742   1.081   5.996   2.316
13267TIP3   OH239743   8.241   7.310   1.540
13267TIP3    H139744   8.328   7.345   1.557
13267TIP3    H239745   8.214   7.268   1.622
13268TIP3   OH239746   3.044   2.601   2.363
13268TIP3    H139747   3.016   2.649   2.285
13268TIP3    H239748   2.985   2.632   2.433
13269TIP3   OH239749   2.782   7.486   3.944
13269TIP3    H139750   2.855   7.464   3.886
13269TIP3    H239751   2.705   7.452   3.900
13270TIP3   OH239752   6.797   0.667   4.092
13270TIP3    H139753   6.807   0.759   4.070
13270TIP3    H239754   6.720   0.663   4.148
13271TIP3   OH239755   0.819   0.604   6.476
13271TIP3    H139756   0.880   0.652   6.421
13271TIP3    H239757   0.760   0.670   6.511
13272TIP3   OH239758   7.529   4.188   2.579
13272TIP3    H139759   7.571   4.221   2.659
13272TIP3    H239760   7.467   4.257   2.554
13273TIP3   OH239761   7.776   4.958   4.642
13273TIP3    H139762   7.708   4.959   4.709
13273TIP3    H239763   7.858   4.945   4.690
13274TIP3   OH239764   8.001   1.976   6.686
13274TIP3    H139765   8.072   1.954   6.746
13274TIP3    H239766   7.928   1.922   6.714
13275TIP3   OH239767   3.083   5.901   1.227
13275TIP3    H139768   3.132   5.852   1.160
13275TIP3    H239769   3.102   5.992   1.207
13276TIP3   OH239770   0.812   3.522   2.632
13276TIP3    H139771   0.849   3.559   2.712
13276TIP3    H239772   0.887   3.486   2.585
13277TIP3   OH239773   3.285   1.384   3.991
13277TIP3    H139774   3.201   1.355   4.027
13277TIP3    H239775   3.328   1.303   3.963
13278TIP3   OH239776   1.964   5.005   1.040
13278TIP3    H139777   1.889   4.962   1.000
13278TIP3    H239778   2.019   4.933   1.071
13279TIP3   OH239779   6.477   6.602   2.189
13279TIP3    H139780   6.503   6.663   2.258
13279TIP3    H239781   6.508   6.643   2.108
13280TIP3   OH239782   1.839   1.024   2.519
13280TIP3    H139783   1.817   0.980   2.437
13280TIP3    H239784   1.764   1.006   2.577
13281TIP3   OH239785   3.347   2.680   2.181
13281TIP3    H139786   3.339   2.587   2.202
13281TIP3    H239787   3.344   2.724   2.266
13282TIP3   OH239788   7.585   2.586   2.589
13282TIP3    H139789   7.526   2.610   2.517
13282TIP3    H239790   7.606   2.669   2.632
13283TIP3   OH239791   1.361   4.792   1.689
13283TIP3    H139792   1.325   4.794   1.778
13283TIP3    H239793   1.300   4.738   1.639
13284TIP3   OH239794   6.738   7.205   4.584
13284TIP3    H139795   6.792   7.284   4.592
13284TIP3    H239796   6.648   7.237   4.587
13285TIP3   OH239797   5.401   4.506   1.479
13285TIP3    H139798   5.368   4.594   1.460
13285TIP3    H239799   5.461   4.518   1.553
13286TIP3   OH239800   6.905   0.212   5.272
13286TIP3    H139801   6.893   0.256   5.356
13286TIP3    H239802   6.823   0.166   5.256
13287TIP3   OH239803   7.670   2.632   0.463
13287TIP3    H139804   7.649   2.615   0.555
13287TIP3    H239805   7.757   2.672   0.466
13288TIP3   OH239806   5.839   0.483   4.325
13288TIP3    H139807   5.756   0.511   4.287
13288TIP3    H239808   5.900   0.481   4.251
13289TIP3   OH239809   0.094   6.750   2.190
13289TIP3    H139810   0.005   6.720   2.173
13289TIP3    H239811   0.086   6.807   2.267
13290TIP3   OH239812   8.250   7.314   2.681
13290TIP3    H139813   8.335   7.279   2.709
13290TIP3    H239814   8.239   7.280   2.592
13291TIP3   OH239815   3.390   1.606   0.721
13291TIP3    H139816   3.396   1.673   0.788
13291TIP3    H239817   3.314   1.552   0.747
13292TIP3   OH239818   0.049   5.698   1.553
13292TIP3    H139819  -0.035   5.737   1.532
13292TIP3    H239820   0.094   5.688   1.469
13293TIP3   OH239821   6.687   3.553   1.328
13293TIP3    H139822   6.636   3.509   1.396
13293TIP3    H239823   6.630   3.624   1.298
13294TIP3   OH239824   7.270   7.521   4.526
13294TIP3    H139825   7.243   7.447   4.579
13294TIP3    H239826   7.267   7.596   4.586
13295TIP3   OH239827   2.824   7.380   0.825
13295TIP3    H139828   2.787   7.420   0.903
13295TIP3    H239829   2.749   7.361   0.769
13296TIP3   OH239830   1.940   6.827   1.426
13296TIP3    H139831   1.932   6.813   1.331
13296TIP3    H239832   1.898   6.912   1.441
13297TIP3   OH239833   8.238   0.808   6.085
13297TIP3    H139834   8.273   0.828   6.172
13297TIP3    H239835   8.243   0.891   6.038
13298TIP3   OH239836   3.908   7.121   4.686
13298TIP3    H139837   3.919   7.184   4.615
13298TIP3    H239838   3.918   7.173   4.766
13299TIP3   OH239839   2.666   0.958   4.685
13299TIP3    H139840   2.747   0.921   4.650
13299TIP3    H239841   2.599   0.932   4.622
13300TIP3   OH239842   4.273   4.943   6.077
13300TIP3    H139843   4.234   4.986   6.001
13300TIP3    H239844   4.357   4.986   6.089
13301TIP3   OH239845   0.595  -0.045   5.148
13301TIP3    H139846   0.613   0.036   5.196
13301TIP3    H239847   0.499  -0.047   5.140
13302TIP3   OH239848   8.035   5.397   6.560
13302TIP3    H139849   7.973   5.422   6.492
13302TIP3    H239850   8.114   5.446   6.540
13303TIP3   OH239851   7.884   2.290   3.068
13303TIP3    H139852   7.858   2.380   3.085
13303TIP3    H239853   7.812   2.237   3.102
13304TIP3   OH239854   6.919   5.127   2.351
13304TIP3    H139855   6.989   5.166   2.299
13304TIP3    H239856   6.932   5.032   2.341
13305TIP3   OH239857   3.071   0.957   2.213
13305TIP3    H139858   3.085   0.986   2.123
13305TIP3    H239859   3.142   0.997   2.262
13306TIP3   OH239860   2.182   4.975   3.443
13306TIP3    H139861   2.265   5.006   3.407
13306TIP3    H239862   2.130   5.054   3.457
13307TIP3   OH239863   0.692   2.596   2.498
13307TIP3    H139864   0.667   2.627   2.411
13307TIP3    H239865   0.638   2.518   2.513
13308TIP3   OH239866   3.275   2.635   0.716
13308TIP3    H139867   3.272   2.617   0.622
13308TIP3    H239868   3.190   2.606   0.749
13309TIP3   OH239869   0.261   0.483   3.936
13309TIP3    H139870   0.256   0.489   3.841
13309TIP3    H239871   0.199   0.415   3.960
13310TIP3   OH239872   2.594   3.024   3.424
13310TIP3    H139873   2.676   2.976   3.424
13310TIP3    H239874   2.593   3.071   3.341
13311TIP3   OH239875   6.191   6.556   6.114
13311TIP3    H139876   6.260   6.583   6.174
13311TIP3    H239877   6.239   6.519   6.039
13312TIP3   OH239878   7.466   2.989   4.860
13312TIP3    H139879   7.479   2.906   4.814
13312TIP3    H239880   7.483   3.056   4.794
13313TIP3   OH239881   6.915   4.804   3.715
13313TIP3    H139882   6.878   4.853   3.788
13313TIP3    H239883   6.849   4.810   3.646
13314TIP3   OH239884   0.230   3.330   6.591
13314TIP3    H139885   0.177   3.384   6.533
13314TIP3    H239886   0.281   3.392   6.643
13315TIP3   OH239887   6.241   7.570   5.975
13315TIP3    H139888   6.307   7.511   5.941
13315TIP3    H239889   6.285   7.655   5.982
13316TIP3   OH239890   6.071   7.556   0.472
13316TIP3    H139891   5.993   7.522   0.516
13316TIP3    H239892   6.115   7.608   0.539
13317TIP3   OH239893   6.265   3.620   2.356
13317TIP3    H139894   6.186   3.639   2.306
13317TIP3    H239895   6.250   3.663   2.441
13318TIP3   OH239896   7.360   3.193   3.371
13318TIP3    H139897   7.406   3.191   3.287
13318TIP3    H239898   7.424   3.158   3.433
13319TIP3   OH239899   5.718   5.748   0.005
13319TIP3    H139900   5.733   5.732   0.098
13319TIP3    H239901   5.802   5.778  -0.028
13320TIP3   OH239902   5.826   5.702   3.339
13320TIP3    H139903   5.872   5.736   3.416
13320TIP3    H239904   5.734   5.721   3.355
13321TIP3   OH239905   4.898   5.945   1.888
13321TIP3    H139906   4.925   5.888   1.815
13321TIP3    H239907   4.823   5.994   1.854
13322TIP3   OH239908   3.366   6.246   1.368
13322TIP3    H139909   3.396   6.335   1.351
13322TIP3    H239910   3.400   6.195   1.295
13323TIP3   OH239911   4.367   7.249   2.206
13323TIP3    H139912   4.349   7.213   2.119
13323TIP3    H239913   4.451   7.295   2.196
13324TIP3   OH239914   4.861   6.701   5.465
13324TIP3    H139915   4.893   6.654   5.388
13324TIP3    H239916   4.856   6.792   5.436
13325TIP3   OH239917   3.526   7.223   5.624
13325TIP3    H139918   3.565   7.257   5.704
13325TIP3    H239919   3.466   7.154   5.654
13326TIP3   OH239920   3.183   0.303   1.141
13326TIP3    H139921   3.259   0.360   1.131
13326TIP3    H239922   3.216   0.226   1.186
13327TIP3   OH239923   2.181   6.815   5.866
13327TIP3    H139924   2.210   6.774   5.785
13327TIP3    H239925   2.145   6.899   5.838
13328TIP3   OH239926   0.401   1.705   0.548
13328TIP3    H139927   0.482   1.741   0.512
13328TIP3    H239928   0.372   1.641   0.483
13329TIP3   OH239929   6.384   3.192   0.580
13329TIP3    H139930   6.450   3.199   0.512
13329TIP3    H239931   6.375   3.098   0.596
13330TIP3   OH239932   7.919   6.306   4.315
13330TIP3    H139933   7.942   6.218   4.286
13330TIP3    H239934   7.997   6.359   4.295
13331TIP3   OH239935   2.668   5.556   1.791
13331TIP3    H139936   2.597   5.612   1.761
13331TIP3    H239937   2.683   5.583   1.881
13332TIP3   OH239938   8.251   0.765   4.771
13332TIP3    H139939   8.328   0.815   4.798
13332TIP3    H239940   8.179   0.828   4.773
13333TIP3   OH239941   4.162   5.644   4.909
13333TIP3    H139942   4.134   5.686   4.828
13333TIP3    H239943   4.105   5.681   4.977
13334TIP3   OH239944   2.537   3.210   4.208
13334TIP3    H139945   2.626   3.185   4.233
13334TIP3    H239946   2.529   3.300   4.238
13335TIP3   OH239947   1.205   4.598   0.665
13335TIP3    H139948   1.176   4.682   0.631
13335TIP3    H239949   1.209   4.610   0.760
13336TIP3   OH239950   6.275   0.849   6.705
13336TIP3    H139951   6.262   0.819   6.795
13336TIP3    H239952   6.369   0.839   6.690
13337TIP3   OH239953   7.038   4.248   5.133
13337TIP3    H139954   7.024   4.243   5.039
13337TIP3    H239955   7.109   4.185   5.151
13338TIP3   OH239956   5.180   3.665   2.142
13338TIP3    H139957   5.110   3.678   2.206
13338TIP3    H239958   5.261   3.679   2.191
13339TIP3   OH239959   4.874   6.328   6.195
13339TIP3    H139960   4.855   6.253   6.139
13339TIP3    H239961   4.910   6.290   6.275
13340TIP3   OH239962   3.370   6.221   1.627
13340TIP3    H139963   3.382   6.315   1.637
13340TIP3    H239964   3.427   6.197   1.554
13341TIP3   OH239965   6.703   7.590   0.739
13341TIP3    H139966   6.771   7.548   0.686
13341TIP3    H239967   6.692   7.530   0.813
13342TIP3   OH239968   5.607   5.454   3.565
13342TIP3    H139969   5.599   5.549   3.571
13342TIP3    H239970   5.520   5.422   3.590
13343TIP3   OH239971   1.899   5.067   6.050
13343TIP3    H139972   1.899   5.054   5.955
13343TIP3    H239973   1.826   5.127   6.065
13344TIP3   OH239974   5.416   0.514   2.355
13344TIP3    H139975   5.323   0.517   2.377
13344TIP3    H239976   5.420   0.471   2.270
13345TIP3   OH239977   7.881   0.597   1.877
13345TIP3    H139978   7.795   0.608   1.836
13345TIP3    H239979   7.937   0.565   1.807
13346TIP3   OH239980   2.642   4.691   2.717
13346TIP3    H139981   2.558   4.736   2.727
13346TIP3    H239982   2.638   4.653   2.629
13347TIP3   OH239983   6.948   3.529   1.575
13347TIP3    H139984   7.023   3.473   1.593
13347TIP3    H239985   6.882   3.504   1.640
13348TIP3   OH239986   0.896   2.097   1.394
13348TIP3    H139987   0.879   2.130   1.306
13348TIP3    H239988   0.837   2.146   1.451
13349TIP3   OH239989   5.008   0.170   0.780
13349TIP3    H139990   5.047   0.177   0.867
13349TIP3    H239991   5.078   0.192   0.719
13350TIP3   OH239992   3.473   5.264   4.862
13350TIP3    H139993   3.481   5.239   4.954
13350TIP3    H239994   3.540   5.212   4.817
13351TIP3   OH239995   2.752   4.720   2.148
13351TIP3    H139996   2.783   4.809   2.160
13351TIP3    H239997   2.773   4.699   2.057
13352TIP3   OH239998   8.245   7.275   2.388
13352TIP3    H139999   8.155   7.259   2.362
13352TIP3    H240000   8.282   7.329   2.318
13353TIP3   OH240001   7.728   0.842   0.851
13353TIP3    H140002   7.678   0.840   0.932
13353TIP3    H240003   7.782   0.921   0.857
13354TIP3   OH240004   5.676   5.419   6.481
13354TIP3    H140005   5.660   5.412   6.575
13354TIP3    H240006   5.621   5.493   6.453
13355TIP3   OH240007   7.187   4.160   3.109
13355TIP3    H140008   7.267   4.176   3.160
13355TIP3    H240009   7.216   4.168   3.018
13356TIP3   OH240010   5.157   6.746   0.706
13356TIP3    H140011   5.212   6.814   0.745
13356TIP3    H240012   5.174   6.753   0.612
13357TIP3   OH240013   4.904   6.504   4.369
13357TIP3    H140014   4.890   6.527   4.277
13357TIP3    H240015   4.952   6.421   4.367
13358TIP3   OH240016   0.578   3.866   6.566
13358TIP3    H140017   0.610   3.791   6.616
13358TIP3    H240018   0.653   3.894   6.513
13359TIP3   OH240019   3.385   5.438   4.274
13359TIP3    H140020   3.447   5.450   4.346
13359TIP3    H240021   3.351   5.526   4.257
13360TIP3   OH240022   3.259   7.316   1.464
13360TIP3    H140023   3.293   7.261   1.534
13360TIP3    H240024   3.273   7.265   1.384
13361TIP3   OH240025   1.957   7.151   1.746
13361TIP3    H140026   2.021   7.154   1.817
13361TIP3    H240027   1.875   7.126   1.788
13362TIP3   OH240028   2.002   5.794   2.009
13362TIP3    H140029   2.066   5.862   2.027
13362TIP3    H240030   2.011   5.777   1.915
13363TIP3   OH240031   0.718   1.078   6.002
13363TIP3    H140032   0.785   1.119   6.056
13363TIP3    H240033   0.687   1.004   6.056
13364TIP3   OH240034   6.864   4.600   3.285
13364TIP3    H140035   6.842   4.687   3.252
13364TIP3    H240036   6.899   4.553   3.209
13365TIP3   OH240037   5.185   1.642   4.359
13365TIP3    H140038   5.266   1.681   4.394
13365TIP3    H240039   5.203   1.548   4.357
13366TIP3   OH240040   0.849   1.371   4.432
13366TIP3    H140041   0.883   1.325   4.355
13366TIP3    H240042   0.886   1.324   4.507
13367TIP3   OH240043   0.764   5.337   0.425
13367TIP3    H140044   0.809   5.416   0.454
13367TIP3    H240045   0.792   5.269   0.486
13368TIP3   OH240046   2.326   5.940   1.920
13368TIP3    H140047   2.230   5.948   1.924
13368TIP3    H240048   2.355   5.957   2.009
13369TIP3   OH240049   4.397   0.599   5.418
13369TIP3    H140050   4.367   0.521   5.465
13369TIP3    H240051   4.327   0.617   5.355
13370TIP3   OH240052   4.907   5.796   4.621
13370TIP3    H140053   4.907   5.701   4.610
13370TIP3    H240054   4.841   5.813   4.689
13371TIP3   OH240055   4.091   2.045   6.459
13371TIP3    H140056   4.075   2.084   6.373
13371TIP3    H240057   4.042   2.099   6.520
13372TIP3   OH240058   2.514   3.434   4.383
13372TIP3    H140059   2.467   3.509   4.347
13372TIP3    H240060   2.606   3.462   4.386
13373TIP3   OH240061   8.142   2.842   0.207
13373TIP3    H140062   8.060   2.804   0.174
13373TIP3    H240063   8.116   2.889   0.286
13374TIP3   OH240064   5.859   1.969   4.636
13374TIP3    H140065   5.867   1.903   4.705
13374TIP3    H240066   5.765   1.972   4.617
13375TIP3   OH240067   5.429   5.351   0.901
13375TIP3    H140068   5.396   5.368   0.813
13375TIP3    H240069   5.525   5.354   0.891
13376TIP3   OH240070   8.167   3.927   1.028
13376TIP3    H140071   8.235   3.901   0.966
13376TIP3    H240072   8.164   4.023   1.022
13377TIP3   OH240073   6.878   6.178   2.097
13377TIP3    H140074   6.937   6.141   2.163
13377TIP3    H240075   6.793   6.183   2.142
13378TIP3   OH240076   5.997   4.023   0.503
13378TIP3    H140077   5.912   3.989   0.530
13378TIP3    H240078   5.991   4.118   0.515
13379TIP3   OH240079   7.924   1.748   1.639
13379TIP3    H140080   8.009   1.766   1.598
13379TIP3    H240081   7.866   1.726   1.567
13380TIP3   OH240082   2.623   6.215   4.112
13380TIP3    H140083   2.558   6.282   4.091
13380TIP3    H240084   2.576   6.132   4.102
13381TIP3   OH240085   1.848   2.282   5.159
13381TIP3    H140086   1.754   2.279   5.178
13381TIP3    H240087   1.890   2.252   5.239
13382TIP3   OH240088   6.236   6.603   0.718
13382TIP3    H140089   6.267   6.690   0.743
13382TIP3    H240090   6.147   6.598   0.753
13383TIP3   OH240091   4.856   1.504   3.245
13383TIP3    H140092   4.781   1.533   3.297
13383TIP3    H240093   4.856   1.562   3.170
13384TIP3   OH240094   3.355   4.918   5.166
13384TIP3    H140095   3.359   4.911   5.071
13384TIP3    H240096   3.276   4.869   5.191
13385TIP3   OH240097   7.743   4.014   5.365
13385TIP3    H140098   7.755   3.958   5.442
13385TIP3    H240099   7.652   4.044   5.372
13386TIP3   OH240100   5.211   2.430   6.457
13386TIP3    H140101   5.134   2.474   6.421
13386TIP3    H240102   5.282   2.451   6.395
13387TIP3   OH240103   5.441   3.275   6.339
13387TIP3    H140104   5.360   3.323   6.324
13387TIP3    H240105   5.476   3.258   6.252
13388TIP3   OH240106   3.189   3.858   4.123
13388TIP3    H140107   3.280   3.887   4.126
13388TIP3    H240108   3.193   3.772   4.080
13389TIP3   OH240109   4.403   0.096   0.129
13389TIP3    H140110   4.369   0.185   0.116
13389TIP3    H240111   4.353   0.062   0.203
13390TIP3   OH240112   5.030   5.228   4.917
13390TIP3    H140113   4.963   5.209   4.983
13390TIP3    H240114   5.037   5.148   4.866
13391TIP3   OH240115   5.412   7.071   4.381
13391TIP3    H140116   5.427   7.165   4.391
13391TIP3    H240117   5.319   7.064   4.358
13392TIP3   OH240118   2.598   2.032   5.439
13392TIP3    H140119   2.517   1.984   5.450
13392TIP3    H240120   2.579   2.097   5.371
13393TIP3   OH240121   0.450   2.469   4.295
13393TIP3    H140122   0.460   2.564   4.304
13393TIP3    H240123   0.453   2.436   4.384
13394TIP3   OH240124   7.807   5.193   5.315
13394TIP3    H140125   7.873   5.230   5.255
13394TIP3    H240126   7.753   5.136   5.259
13395TIP3   OH240127   2.866   3.977   1.643
13395TIP3    H140128   2.771   3.969   1.646
13395TIP3    H240129   2.890   3.947   1.555
13396TIP3   OH240130   1.807   7.180   6.137
13396TIP3    H140131   1.834   7.263   6.175
13396TIP3    H240132   1.884   7.148   6.090
13397TIP3   OH240133   5.648   5.069   1.086
13397TIP3    H140134   5.738   5.037   1.088
13397TIP3    H240135   5.656   5.164   1.094
13398TIP3   OH240136   5.712   7.403   1.597
13398TIP3    H140137   5.754   7.474   1.549
13398TIP3    H240138   5.682   7.343   1.529
13399TIP3   OH240139   7.685   2.993   0.629
13399TIP3    H140140   7.717   2.904   0.643
13399TIP3    H240141   7.632   2.987   0.549
13400TIP3   OH240142   0.910   2.623   5.130
13400TIP3    H140143   0.872   2.542   5.163
13400TIP3    H240144   0.943   2.668   5.208
13401TIP3   OH240145   8.013   2.262   1.464
13401TIP3    H140146   7.973   2.349   1.461
13401TIP3    H240147   7.942   2.202   1.438
13402TIP3   OH240148   4.538   4.044   2.912
13402TIP3    H140149   4.591   4.033   2.990
13402TIP3    H240150   4.449   4.023   2.940
13403TIP3   OH240151   2.233   5.134   2.614
13403TIP3    H140152   2.189   5.054   2.644
13403TIP3    H240153   2.326   5.113   2.617
13404TIP3   OH240154   2.627   0.749   3.005
13404TIP3    H140155   2.645   0.689   3.077
13404TIP3    H240156   2.712   0.762   2.963
13405TIP3   OH240157   2.432   1.294   1.014
13405TIP3    H140158   2.526   1.274   1.006
13405TIP3    H240159   2.405   1.317   0.925
13406TIP3   OH240160   7.498   3.687   1.409
13406TIP3    H140161   7.569   3.623   1.406
13406TIP3    H240162   7.541   3.769   1.433
13407TIP3   OH240163   8.022   3.939   5.336
13407TIP3    H140164   8.091   3.915   5.274
13407TIP3    H240165   7.952   3.976   5.281
13408TIP3   OH240166   6.323   0.659   2.241
13408TIP3    H140167   6.340   0.631   2.151
13408TIP3    H240168   6.407   0.651   2.285
13409TIP3   OH240169   7.440   3.931   1.969
13409TIP3    H140170   7.383   3.974   1.905
13409TIP3    H240171   7.464   3.848   1.927
13410TIP3   OH240172   2.623   1.750   4.420
13410TIP3    H140173   2.673   1.686   4.370
13410TIP3    H240174   2.638   1.726   4.512
13411TIP3   OH240175   6.580   6.888   4.411
13411TIP3    H140176   6.571   6.903   4.317
13411TIP3    H240177   6.495   6.912   4.447
13412TIP3   OH240178   7.362   6.592   6.299
13412TIP3    H140179   7.395   6.682   6.292
13412TIP3    H240180   7.406   6.556   6.375
13413TIP3   OH240181   1.036   0.413   5.978
13413TIP3    H140182   1.114   0.377   5.936
13413TIP3    H240183   0.998   0.339   6.025
13414TIP3   OH240184   6.602   4.487   3.380
13414TIP3    H140185   6.669   4.498   3.311
13414TIP3    H240186   6.547   4.566   3.372
13415TIP3   OH240187   4.831   6.229   3.056
13415TIP3    H140188   4.820   6.197   3.145
13415TIP3    H240189   4.757   6.289   3.043
13416TIP3   OH240190   4.428   5.937   0.720
13416TIP3    H140191   4.381   5.919   0.802
13416TIP3    H240192   4.464   5.852   0.694
13417TIP3   OH240193   1.891   5.211   1.217
13417TIP3    H140194   1.800   5.203   1.190
13417TIP3    H240195   1.939   5.153   1.157
13418TIP3   OH240196   3.159   2.485   4.178
13418TIP3    H140197   3.096   2.448   4.116
13418TIP3    H240198   3.231   2.517   4.122
13419TIP3   OH240199   8.306   2.388   3.672
13419TIP3    H140200   8.326   2.350   3.586
13419TIP3    H240201   8.221   2.352   3.695
13420TIP3   OH240202   5.497   4.413   3.289
13420TIP3    H140203   5.481   4.396   3.196
13420TIP3    H240204   5.410   4.436   3.323
13421TIP3   OH240205   0.633   1.888   4.313
13421TIP3    H140206   0.708   1.942   4.289
13421TIP3    H240207   0.565   1.914   4.251
13422TIP3   OH240208   1.077   4.105   4.622
13422TIP3    H140209   0.995   4.146   4.648
13422TIP3    H240210   1.063   4.082   4.530
13423TIP3   OH240211   6.629   0.682   5.280
13423TIP3    H140212   6.695   0.701   5.347
13423TIP3    H240213   6.548   0.719   5.314
13424TIP3   OH240214   2.504   3.393   3.292
13424TIP3    H140215   2.530   3.326   3.227
13424TIP3    H240216   2.439   3.349   3.347
13425TIP3   OH240217   1.890   7.365   0.780
13425TIP3    H140218   1.831   7.300   0.743
13425TIP3    H240219   1.845   7.448   0.767
13426TIP3   OH240220   2.264   2.914   4.896
13426TIP3    H140221   2.219   2.952   4.971
13426TIP3    H240222   2.347   2.882   4.932
13427TIP3   OH240223   2.887   6.559   0.413
13427TIP3    H140224   2.901   6.487   0.352
13427TIP3    H240225   2.877   6.517   0.498
13428TIP3   OH240226   2.421   1.598   5.543
13428TIP3    H140227   2.379   1.591   5.457
13428TIP3    H240228   2.515   1.590   5.526
13429TIP3   OH240229   0.174   6.897   3.462
13429TIP3    H140230   0.252   6.867   3.508
13429TIP3    H240231   0.101   6.857   3.510
13430TIP3   OH240232   4.814   6.815   5.034
13430TIP3    H140233   4.820   6.724   5.007
13430TIP3    H240234   4.725   6.841   5.010
13431TIP3   OH240235   6.040   6.861   5.796
13431TIP3    H140236   6.093   6.809   5.856
13431TIP3    H240237   6.021   6.802   5.723
13432TIP3   OH240238   7.046   3.256   2.894
13432TIP3    H140239   7.030   3.337   2.942
13432TIP3    H240240   6.958   3.221   2.876
13433TIP3   OH240241   0.305   4.188   4.680
13433TIP3    H140242   0.269   4.103   4.652
13433TIP3    H240243   0.295   4.244   4.604
13434TIP3   OH240244   7.199   1.084   2.943
13434TIP3    H140245   7.105   1.101   2.932
13434TIP3    H240246   7.203   1.021   3.015
13435TIP3   OH240247   3.506   7.094   0.074
13435TIP3    H140248   3.416   7.118   0.055
13435TIP3    H240249   3.504   7.062   0.165
13436TIP3   OH240250   1.566   3.432   3.692
13436TIP3    H140251   1.596   3.386   3.613
13436TIP3    H240252   1.546   3.362   3.754
13437TIP3   OH240253   5.189   7.459   2.024
13437TIP3    H140254   5.186   7.551   2.051
13437TIP3    H240255   5.104   7.442   1.984
13438TIP3   OH240256   6.549   6.130   6.505
13438TIP3    H140257   6.610   6.140   6.579
13438TIP3    H240258   6.557   6.211   6.456
13439TIP3   OH240259   2.599   4.213   3.619
13439TIP3    H140260   2.509   4.212   3.587
13439TIP3    H240261   2.606   4.296   3.667
13440TIP3   OH240262   1.650   0.468   2.657
13440TIP3    H140263   1.649   0.473   2.561
13440TIP3    H240264   1.592   0.395   2.678
13441TIP3   OH240265   4.279   3.463   3.655
13441TIP3    H140266   4.311   3.382   3.696
13441TIP3    H240267   4.277   3.526   3.727
13442TIP3   OH240268   6.211   4.487   1.125
13442TIP3    H140269   6.115   4.487   1.124
13442TIP3    H240270   6.235   4.574   1.158
13443TIP3   OH240271   4.020   2.426   4.717
13443TIP3    H140272   4.079   2.433   4.642
13443TIP3    H240273   3.948   2.486   4.695
13444TIP3   OH240274   5.883   3.502   6.559
13444TIP3    H140275   5.894   3.581   6.506
13444TIP3    H240276   5.940   3.437   6.517
13445TIP3   OH240277   5.294   2.956   6.252
13445TIP3    H140278   5.343   2.921   6.326
13445TIP3    H240279   5.210   2.984   6.290
13446TIP3   OH240280   6.242   1.426   5.132
13446TIP3    H140281   6.246   1.331   5.144
13446TIP3    H240282   6.330   1.451   5.105
13447TIP3   OH240283   6.379   3.148   2.769
13447TIP3    H140284   6.468   3.182   2.774
13447TIP3    H240285   6.323   3.224   2.787
13448TIP3   OH240286   3.004   6.192   5.956
13448TIP3    H140287   2.970   6.180   6.044
13448TIP3    H240288   2.937   6.245   5.911
13449TIP3   OH240289   6.283   3.570   1.497
13449TIP3    H140290   6.277   3.651   1.446
13449TIP3    H240291   6.196   3.531   1.491
13450TIP3   OH240292   1.796   6.569   3.432
13450TIP3    H140293   1.852   6.502   3.392
13450TIP3    H240294   1.721   6.520   3.467
13451TIP3   OH240295   6.470   6.387   0.746
13451TIP3    H140296   6.418   6.467   0.746
13451TIP3    H240297   6.495   6.375   0.837
13452TIP3   OH240298   1.312   3.417   2.856
13452TIP3    H140299   1.323   3.322   2.861
13452TIP3    H240300   1.384   3.447   2.801
13453TIP3   OH240301   4.441   7.128   3.368
13453TIP3    H140302   4.457   7.054   3.309
13453TIP3    H240303   4.529   7.161   3.390
13454TIP3   OH240304   0.244   3.850   1.067
13454TIP3    H140305   0.250   3.804   1.151
13454TIP3    H240306   0.228   3.780   1.003
13455TIP3   OH240307   8.223   2.084   4.453
13455TIP3    H140308   8.167   2.011   4.477
13455TIP3    H240309   8.163   2.154   4.428
13456TIP3   OH240310   0.752   4.969   1.446
13456TIP3    H140311   0.661   4.996   1.434
13456TIP3    H240312   0.761   4.960   1.541
13457TIP3   OH240313   2.502   4.000   1.067
13457TIP3    H140314   2.454   4.082   1.078
13457TIP3    H240315   2.558   4.015   0.991
13458TIP3   OH240316   6.027   4.594   3.962
13458TIP3    H140317   6.021   4.554   3.875
13458TIP3    H240318   6.024   4.521   4.023
13459TIP3   OH240319   6.978   5.144   4.683
13459TIP3    H140320   6.969   5.183   4.770
13459TIP3    H240321   7.070   5.159   4.660
13460TIP3   OH240322   3.994   4.689   5.414
13460TIP3    H140323   3.974   4.762   5.472
13460TIP3    H240324   4.058   4.637   5.462
13461TIP3   OH240325   8.312   3.551   3.334
13461TIP3    H140326   8.239   3.501   3.299
13461TIP3    H240327   8.387   3.492   3.328
13462TIP3   OH240328   7.425   4.559   3.661
13462TIP3    H140329   7.391   4.506   3.733
13462TIP3    H240330   7.363   4.546   3.590
13463TIP3   OH240331   4.425   6.540   1.027
13463TIP3    H140332   4.481   6.488   1.086
13463TIP3    H240333   4.338   6.536   1.066
13464TIP3   OH240334   8.088   2.931   3.724
13464TIP3    H140335   8.098   3.024   3.701
13464TIP3    H240336   8.086   2.885   3.640
13465TIP3   OH240337   7.789   2.661   6.755
13465TIP3    H140338   7.729   2.649   6.828
13465TIP3    H240339   7.740   2.713   6.691
13466TIP3   OH240340   1.196   5.243   5.606
13466TIP3    H140341   1.160   5.180   5.544
13466TIP3    H240342   1.162   5.215   5.691
13467TIP3   OH240343   5.538   6.883   1.004
13467TIP3    H140344   5.624   6.852   1.031
13467TIP3    H240345   5.498   6.916   1.084
13468TIP3   OH240346   1.818   5.775   5.042
13468TIP3    H140347   1.861   5.853   5.007
13468TIP3    H240348   1.746   5.809   5.095
13469TIP3   OH240349   1.708   1.488   0.194
13469TIP3    H140350   1.698   1.550   0.266
13469TIP3    H240351   1.618   1.472   0.164
13470TIP3   OH240352   0.991   0.999   4.048
13470TIP3    H140353   0.993   0.941   3.972
13470TIP3    H240354   0.901   0.994   4.079
13471TIP3   OH240355   3.131   6.063   5.009
13471TIP3    H140356   3.142   6.064   5.104
13471TIP3    H240357   3.090   6.147   4.988
13472TIP3   OH240358   6.691   3.419   0.642
13472TIP3    H140359   6.785   3.431   0.628
13472TIP3    H240360   6.677   3.445   0.733
13473TIP3   OH240361   5.746   1.304   1.987
13473TIP3    H140362   5.823   1.249   2.000
13473TIP3    H240363   5.673   1.242   1.987
13474TIP3   OH240364   7.443   4.348   6.001
13474TIP3    H140365   7.366   4.303   6.037
13474TIP3    H240366   7.489   4.382   6.078
13475TIP3   OH240367   4.778   6.974   1.738
13475TIP3    H140368   4.859   6.939   1.700
13475TIP3    H240369   4.754   7.046   1.679
13476TIP3   OH240370   1.552   3.269   3.923
13476TIP3    H140371   1.562   3.308   4.010
13476TIP3    H240372   1.458   3.256   3.913
13477TIP3   OH240373   8.205   7.235   4.600
13477TIP3    H140374   8.297   7.219   4.623
13477TIP3    H240375   8.207   7.253   4.506
13478TIP3   OH240376   4.356   3.884   5.270
13478TIP3    H140377   4.305   3.854   5.195
13478TIP3    H240378   4.423   3.941   5.233
13479TIP3   OH240379   7.228   2.643   1.580
13479TIP3    H140380   7.314   2.606   1.601
13479TIP3    H240381   7.222   2.722   1.634
13480TIP3   OH240382   8.122   3.038   5.577
13480TIP3    H140383   8.192   2.975   5.597
13480TIP3    H240384   8.113   3.034   5.482
13481TIP3   OH240385   4.963   6.431   2.136
13481TIP3    H140386   5.043   6.388   2.165
13481TIP3    H240387   4.988   6.475   2.055
13482TIP3   OH240388   0.666   1.153   5.026
13482TIP3    H140389   0.605   1.153   5.099
13482TIP3    H240390   0.680   1.061   5.006
13483TIP3   OH240391   1.927   3.966   0.379
13483TIP3    H140392   1.873   3.887   0.387
13483TIP3    H240393   1.995   3.955   0.445
13484TIP3   OH240394   3.747   3.989   4.971
13484TIP3    H140395   3.818   3.988   5.035
13484TIP3    H240396   3.672   4.025   5.019
13485TIP3   OH240397   8.043   1.517   0.486
13485TIP3    H140398   8.001   1.584   0.539
13485TIP3    H240399   8.071   1.562   0.407
13486TIP3   OH240400   0.849   4.330   6.022
13486TIP3    H140401   0.905   4.254   6.009
13486TIP3    H240402   0.761   4.294   6.038
13487TIP3   OH240403   1.560   0.399   6.502
13487TIP3    H140404   1.527   0.417   6.414
13487TIP3    H240405   1.649   0.367   6.488
13488TIP3   OH240406   4.969   4.308   5.790
13488TIP3    H140407   4.899   4.316   5.725
13488TIP3    H240408   4.974   4.214   5.810
13489TIP3   OH240409   1.268   2.795   0.612
13489TIP3    H140410   1.304   2.835   0.533
13489TIP3    H240411   1.182   2.835   0.622
13490TIP3   OH240412   2.347   0.451   3.075
13490TIP3    H140413   2.284   0.436   3.005
13490TIP3    H240414   2.310   0.522   3.127
13491TIP3   OH240415   5.356   2.686   1.709
13491TIP3    H140416   5.426   2.721   1.654
13491TIP3    H240417   5.300   2.638   1.648
13492TIP3   OH240418   7.070   4.363   6.746
13492TIP3    H140419   7.041   4.447   6.711
13492TIP3    H240420   7.158   4.382   6.781
13493TIP3   OH240421   5.359   7.266   4.097
13493TIP3    H140422   5.279   7.300   4.057
13493TIP3    H240423   5.346   7.278   4.191
13494TIP3   OH240424   3.289   5.052   4.078
13494TIP3    H140425   3.228   5.122   4.100
13494TIP3    H240426   3.239   4.971   4.090
13495TIP3   OH240427   3.195   3.666   2.397
13495TIP3    H140428   3.109   3.660   2.439
13495TIP3    H240429   3.187   3.613   2.317
13496TIP3   OH240430   5.111   3.592   1.101
13496TIP3    H140431   5.180   3.525   1.095
13496TIP3    H240432   5.142   3.663   1.045
13497TIP3   OH240433   2.896   5.330   0.853
13497TIP3    H140434   2.815   5.310   0.901
13497TIP3    H240435   2.964   5.283   0.901
13498TIP3   OH240436   7.129   7.518   4.051
13498TIP3    H140437   7.045   7.478   4.075
13498TIP3    H240438   7.108   7.571   3.974
13499TIP3   OH240439   1.104   5.792   4.190
13499TIP3    H140440   1.036   5.819   4.128
13499TIP3    H240441   1.086   5.840   4.270
13500TIP3   OH240442   4.388   0.677   1.828
13500TIP3    H140443   4.357   0.766   1.844
13500TIP3    H240444   4.478   0.677   1.859
13501TIP3   OH240445   4.084   0.993   4.595
13501TIP3    H140446   4.152   1.061   4.595
13501TIP3    H240447   4.111   0.932   4.663
13502TIP3   OH240448   6.312   1.990   3.129
13502TIP3    H140449   6.242   1.933   3.098
13502TIP3    H240450   6.393   1.943   3.109
13503TIP3   OH240451   1.791   3.532   3.849
13503TIP3    H140452   1.817   3.443   3.872
13503TIP3    H240453   1.711   3.521   3.797
13504TIP3   OH240454   0.172   4.337   1.041
13504TIP3    H140455   0.132   4.389   1.111
13504TIP3    H240456   0.196   4.254   1.084
13505TIP3   OH240457   2.021   2.508   3.499
13505TIP3    H140458   2.084   2.563   3.453
13505TIP3    H240459   1.936   2.544   3.475
13506TIP3   OH240460   2.867   3.369   2.493
13506TIP3    H140461   2.829   3.356   2.406
13506TIP3    H240462   2.794   3.356   2.553
13507TIP3   OH240463   2.687   0.841   1.276
13507TIP3    H140464   2.755   0.775   1.265
13507TIP3    H240465   2.643   0.817   1.357
13508TIP3   OH240466   2.399   1.457   4.168
13508TIP3    H140467   2.313   1.460   4.211
13508TIP3    H240468   2.423   1.549   4.157
13509TIP3   OH240469   2.104   0.672   5.450
13509TIP3    H140470   2.053   0.692   5.372
13509TIP3    H240471   2.041   0.678   5.522
13510TIP3   OH240472   1.017   0.791   3.809
13510TIP3    H140473   1.103   0.792   3.851
13510TIP3    H240474   1.017   0.710   3.757
13511TIP3   OH240475   7.075   0.754   3.370
13511TIP3    H140476   7.077   0.672   3.320
13511TIP3    H240477   7.113   0.731   3.455
13512TIP3   OH240478   3.599   0.724   5.587
13512TIP3    H140479   3.579   0.774   5.666
13512TIP3    H240480   3.583   0.785   5.515
13513TIP3   OH240481   5.103   4.462   6.617
13513TIP3    H140482   5.008   4.472   6.628
13513TIP3    H240483   5.115   4.371   6.590
13514TIP3   OH240484   4.198   6.916   1.118
13514TIP3    H140485   4.233   6.906   1.029
13514TIP3    H240486   4.128   6.980   1.109
13515TIP3   OH240487   5.545   7.108   2.080
13515TIP3    H140488   5.568   7.187   2.031
13515TIP3    H240489   5.489   7.140   2.151
13516TIP3   OH240490   2.471   2.576   0.419
13516TIP3    H140491   2.525   2.504   0.387
13516TIP3    H240492   2.411   2.535   0.481
13517TIP3   OH240493   5.826   1.828   4.912
13517TIP3    H140494   5.793   1.790   4.993
13517TIP3    H240495   5.889   1.894   4.940
13518TIP3   OH240496   2.074   5.335   1.649
13518TIP3    H140497   2.069   5.303   1.558
13518TIP3    H240498   2.027   5.269   1.700
13519TIP3   OH240499   6.320   2.811   4.189
13519TIP3    H140500   6.397   2.775   4.145
13519TIP3    H240501   6.326   2.779   4.279
13520TIP3   OH240502   8.154   6.218   0.497
13520TIP3    H140503   8.103   6.194   0.420
13520TIP3    H240504   8.232   6.162   0.493
13521TIP3   OH240505   4.375   2.091   5.375
13521TIP3    H140506   4.370   2.158   5.306
13521TIP3    H240507   4.456   2.113   5.422
13522TIP3   OH240508   0.778   5.258   1.703
13522TIP3    H140509   0.873   5.263   1.704
13522TIP3    H240510   0.755   5.206   1.779
13523TIP3   OH240511   3.631   1.216   6.432
13523TIP3    H140512   3.720   1.203   6.464
13523TIP3    H240513   3.641   1.265   6.351
13524TIP3   OH240514   5.026   4.790   0.657
13524TIP3    H140515   4.957   4.724   0.646
13524TIP3    H240516   4.981   4.866   0.695
13525TIP3   OH240517   1.935   3.582   6.099
13525TIP3    H140518   1.989   3.504   6.116
13525TIP3    H240519   1.916   3.578   6.006
13526TIP3   OH240520   0.286   5.575   1.818
13526TIP3    H140521   0.380   5.561   1.808
13526TIP3    H240522   0.247   5.491   1.793
13527TIP3   OH240523   3.533   5.338   1.777
13527TIP3    H140524   3.464   5.316   1.714
13527TIP3    H240525   3.487   5.388   1.845
13528TIP3   OH240526   1.561   4.304   5.130
13528TIP3    H140527   1.650   4.288   5.099
13528TIP3    H240528   1.529   4.218   5.159
13529TIP3   OH240529   7.829   4.505   0.267
13529TIP3    H140530   7.888   4.550   0.328
13529TIP3    H240531   7.741   4.525   0.299
13530TIP3   OH240532   3.059   0.528   0.799
13530TIP3    H140533   3.068   0.592   0.728
13530TIP3    H240534   2.972   0.545   0.834
13531TIP3   OH240535   0.707   6.133   2.416
13531TIP3    H140536   0.734   6.127   2.324
13531TIP3    H240537   0.632   6.074   2.423
13532TIP3   OH240538   5.336   5.390   3.621
13532TIP3    H140539   5.261   5.450   3.614
13532TIP3    H240540   5.298   5.308   3.654
13533TIP3   OH240541   1.030   1.108   5.531
13533TIP3    H140542   0.958   1.113   5.593
13533TIP3    H240543   1.089   1.179   5.557
13534TIP3   OH240544   2.234   3.442   5.300
13534TIP3    H140545   2.180   3.488   5.363
13534TIP3    H240546   2.173   3.387   5.251
13535TIP3   OH240547   6.792   2.901   5.149
13535TIP3    H140548   6.844   2.850   5.211
13535TIP3    H240549   6.705   2.905   5.188
13536TIP3   OH240550   7.492   3.686   1.845
13536TIP3    H140551   7.437   3.650   1.775
13536TIP3    H240552   7.517   3.610   1.897
13537TIP3   OH240553   5.414   6.287   2.944
13537TIP3    H140554   5.391   6.255   3.031
13537TIP3    H240555   5.450   6.211   2.898
13538TIP3   OH240556   6.956   6.709   6.475
13538TIP3    H140557   6.999   6.647   6.417
13538TIP3    H240558   7.004   6.791   6.463
13539TIP3   OH240559   7.333   7.252   1.268
13539TIP3    H140560   7.390   7.297   1.206
13539TIP3    H240561   7.245   7.265   1.233
13540TIP3   OH240562   3.171   1.325   6.621
13540TIP3    H140563   3.078   1.343   6.611
13540TIP3    H240564   3.176   1.243   6.670
13541TIP3   OH240565   2.982   2.158   1.986
13541TIP3    H140566   3.074   2.187   1.986
13541TIP3    H240567   2.959   2.155   2.079
13542TIP3   OH240568   2.809   2.341   4.187
13542TIP3    H140569   2.850   2.256   4.205
13542TIP3    H240570   2.851   2.370   4.106
13543TIP3   OH240571   6.309   6.341   2.627
13543TIP3    H140572   6.342   6.317   2.540
13543TIP3    H240573   6.365   6.292   2.688
13544TIP3   OH240574   2.439   2.090   3.610
13544TIP3    H140575   2.387   2.069   3.533
13544TIP3    H240576   2.528   2.061   3.588
13545TIP3   OH240577   3.470   0.110   4.310
13545TIP3    H140578   3.469   0.065   4.394
13545TIP3    H240579   3.420   0.190   4.324
13546TIP3   OH240580   6.709   5.013   5.471
13546TIP3    H140581   6.799   5.025   5.501
13546TIP3    H240582   6.674   4.943   5.526
13547TIP3   OH240583   4.637   0.896   1.018
13547TIP3    H140584   4.556   0.877   1.065
13547TIP3    H240585   4.692   0.819   1.031
13548TIP3   OH240586   5.631   0.616   1.406
13548TIP3    H140587   5.591   0.544   1.454
13548TIP3    H240588   5.628   0.691   1.465
13549TIP3   OH240589   7.513   7.135   4.676
13549TIP3    H140590   7.428   7.106   4.708
13549TIP3    H240591   7.577   7.090   4.732
13550TIP3   OH240592   5.701   2.049   0.175
13550TIP3    H140593   5.719   2.130   0.127
13550TIP3    H240594   5.785   2.003   0.177
13551TIP3   OH240595   3.328   2.658   6.522
13551TIP3    H140596   3.382   2.733   6.497
13551TIP3    H240597   3.354   2.589   6.461
13552TIP3   OH240598   8.181   5.916   5.369
13552TIP3    H140599   8.153   5.833   5.332
13552TIP3    H240600   8.132   5.924   5.451
13553TIP3   OH240601   6.013   3.640   0.604
13553TIP3    H140602   6.108   3.649   0.598
13553TIP3    H240603   5.979   3.687   0.527
13554TIP3   OH240604   3.827   0.678   2.012
13554TIP3    H140605   3.731   0.672   2.013
13554TIP3    H240606   3.848   0.744   2.078
13555TIP3   OH240607   0.707   6.788   1.009
13555TIP3    H140608   0.681   6.832   1.090
13555TIP3    H240609   0.688   6.852   0.940
13556TIP3   OH240610   4.842   3.915   6.330
13556TIP3    H140611   4.883   3.830   6.345
13556TIP3    H240612   4.751   3.904   6.358
13557TIP3   OH240613   2.475   4.897   5.546
13557TIP3    H140614   2.393   4.914   5.593
13557TIP3    H240615   2.449   4.842   5.472
13558TIP3   OH240616   5.669   3.363   0.103
13558TIP3    H140617   5.743   3.314   0.066
13558TIP3    H240618   5.671   3.342   0.196
13559TIP3   OH240619   7.339   1.114   2.078
13559TIP3    H140620   7.254   1.129   2.037
13559TIP3    H240621   7.374   1.037   2.032
13560TIP3   OH240622   6.041   3.437   1.421
13560TIP3    H140623   6.008   3.503   1.360
13560TIP3    H240624   5.975   3.368   1.419
13561TIP3   OH240625   3.251   1.109   3.683
13561TIP3    H140626   3.162   1.099   3.651
13561TIP3    H240627   3.243   1.107   3.778
13562TIP3   OH240628   1.166   6.652   2.855
13562TIP3    H140629   1.111   6.633   2.778
13562TIP3    H240630   1.149   6.579   2.915
13563TIP3   OH240631   0.160   1.612   5.631
13563TIP3    H140632   0.069   1.602   5.602
13563TIP3    H240633   0.202   1.529   5.608
13564TIP3   OH240634   3.325   6.768   3.023
13564TIP3    H140635   3.277   6.848   3.002
13564TIP3    H240636   3.269   6.697   2.991
13565TIP3   OH240637   4.044   7.434   2.666
13565TIP3    H140638   4.112   7.489   2.705
13565TIP3    H240639   4.063   7.346   2.699
13566TIP3   OH240640   0.848   4.234   4.605
13566TIP3    H140641   0.761   4.230   4.645
13566TIP3    H240642   0.878   4.323   4.622
13567TIP3   OH240643   8.194   1.650   3.351
13567TIP3    H140644   8.230   1.604   3.427
13567TIP3    H240645   8.264   1.710   3.324
13568TIP3   OH240646   6.122   3.540   1.862
13568TIP3    H140647   6.173   3.470   1.820
13568TIP3    H240648   6.063   3.571   1.793
13569TIP3   OH240649   6.339   6.520   4.881
13569TIP3    H140650   6.415   6.486   4.928
13569TIP3    H240651   6.359   6.505   4.789
13570TIP3   OH240652   1.779   3.811   3.282
13570TIP3    H140653   1.714   3.836   3.217
13570TIP3    H240654   1.780   3.884   3.344
13571TIP3   OH240655   2.156   3.397   6.405
13571TIP3    H140656   2.158   3.377   6.311
13571TIP3    H240657   2.210   3.329   6.445
13572TIP3   OH240658   0.535   6.908   1.934
13572TIP3    H140659   0.485   6.953   1.866
13572TIP3    H240660   0.626   6.921   1.909
13573TIP3   OH240661   0.816   6.991   0.511
13573TIP3    H140662   0.758   7.066   0.500
13573TIP3    H240663   0.884   7.003   0.444
13574TIP3   OH240664   1.168   2.633   4.990
13574TIP3    H140665   1.153   2.576   4.914
13574TIP3    H240666   1.095   2.613   5.049
13575TIP3   OH240667   3.084   0.504   4.209
13575TIP3    H140668   3.011   0.550   4.250
13575TIP3    H240669   3.141   0.479   4.282
13576TIP3   OH240670   7.062   0.324   2.957
13576TIP3    H140671   7.120   0.317   3.033
13576TIP3    H240672   7.061   0.236   2.919
13577TIP3   OH240673   1.589   3.931   3.094
13577TIP3    H140674   1.597   4.026   3.084
13577TIP3    H240675   1.513   3.907   3.041
13578TIP3   OH240676   3.627   1.714   3.971
13578TIP3    H140677   3.712   1.739   4.006
13578TIP3    H240678   3.573   1.694   4.048
13579TIP3   OH240679   3.307   2.026   2.208
13579TIP3    H140680   3.335   2.006   2.298
13579TIP3    H240681   3.260   2.109   2.217
13580TIP3   OH240682   7.792   1.876   6.015
13580TIP3    H140683   7.788   1.827   6.097
13580TIP3    H240684   7.886   1.878   5.993
13581TIP3   OH240685   2.058   7.405   6.015
13581TIP3    H140686   2.126   7.342   6.041
13581TIP3    H240687   2.092   7.489   6.044
13582TIP3   OH240688   4.621   1.631   0.293
13582TIP3    H140689   4.576   1.683   0.225
13582TIP3    H240690   4.560   1.560   0.313
13583TIP3   OH240691   6.277   7.509   1.953
13583TIP3    H140692   6.364   7.482   1.922
13583TIP3    H240693   6.223   7.431   1.944
13584TIP3   OH240694   3.436   5.362   0.323
13584TIP3    H140695   3.478   5.424   0.382
13584TIP3    H240696   3.354   5.405   0.298
13585TIP3   OH240697   2.159   5.373   2.771
13585TIP3    H140698   2.197   5.300   2.723
13585TIP3    H240699   2.069   5.345   2.790
13586TIP3   OH240700   6.279   7.158   5.344
13586TIP3    H140701   6.358   7.159   5.398
13586TIP3    H240702   6.309   7.127   5.258
13587TIP3   OH240703   5.175   4.769   0.166
13587TIP3    H140704   5.168   4.817   0.249
13587TIP3    H240705   5.125   4.689   0.180
13588TIP3   OH240706   5.107   1.817   4.695
13588TIP3    H140707   5.079   1.888   4.753
13588TIP3    H240708   5.028   1.766   4.679
13589TIP3   OH240709   8.234   0.398   1.333
13589TIP3    H140710   8.279   0.436   1.408
13589TIP3    H240711   8.300   0.342   1.292
13590TIP3   OH240712   7.010   6.279   3.207
13590TIP3    H140713   6.927   6.321   3.182
13590TIP3    H240714   6.984   6.193   3.238
13591TIP3   OH240715   2.550   5.140   5.954
13591TIP3    H140716   2.579   5.057   5.993
13591TIP3    H240717   2.601   5.207   5.999
13592TIP3   OH240718   7.493   1.443   0.272
13592TIP3    H140719   7.454   1.356   0.287
13592TIP3    H240720   7.424   1.504   0.299
13593TIP3   OH240721   7.867   7.421   0.217
13593TIP3    H140722   7.960   7.433   0.197
13593TIP3    H240723   7.822   7.438   0.134
13594TIP3   OH240724   0.279   5.289   2.127
13594TIP3    H140725   0.248   5.379   2.133
13594TIP3    H240726   0.199   5.236   2.123
13595TIP3   OH240727   6.949   3.053   0.046
13595TIP3    H140728   7.001   3.052   0.126
13595TIP3    H240729   6.912   3.141   0.043
13596TIP3   OH240730   2.549   2.870   2.313
13596TIP3    H140731   2.560   2.808   2.241
13596TIP3    H240732   2.625   2.928   2.306
13597TIP3   OH240733   3.876   4.566   6.737
13597TIP3    H140734   3.938   4.515   6.789
13597TIP3    H240735   3.872   4.651   6.782
13598TIP3   OH240736   6.380   7.708   5.075
13598TIP3    H140737   6.382   7.760   4.995
13598TIP3    H240738   6.288   7.708   5.101
13599TIP3   OH240739   5.917   5.121   5.288
13599TIP3    H140740   5.964   5.061   5.346
13599TIP3    H240741   5.867   5.064   5.229
13600TIP3   OH240742   5.437   2.867   2.025
13600TIP3    H140743   5.366   2.929   2.011
13600TIP3    H240744   5.402   2.783   1.992
13601TIP3   OH240745   4.107   7.049   3.318
13601TIP3    H140746   4.125   6.979   3.380
13601TIP3    H240747   4.012   7.048   3.306
13602TIP3   OH240748   1.362   1.266   5.771
13602TIP3    H140749   1.433   1.313   5.815
13602TIP3    H240750   1.406   1.204   5.714
13603TIP3   OH240751   0.567   7.429   0.650
13603TIP3    H140752   0.490   7.471   0.690
13603TIP3    H240753   0.640   7.486   0.673
13604TIP3   OH240754   7.362   3.366   4.317
13604TIP3    H140755   7.351   3.456   4.348
13604TIP3    H240756   7.455   3.347   4.330
13605TIP3   OH240757   1.559   0.277   3.679
13605TIP3    H140758   1.526   0.363   3.652
13605TIP3    H240759   1.629   0.257   3.617
13606TIP3   OH240760   6.725   0.514   4.421
13606TIP3    H140761   6.683   0.476   4.344
13606TIP3    H240762   6.699   0.607   4.419
13607TIP3   OH240763   6.729   6.103   0.922
13607TIP3    H140764   6.794   6.035   0.941
13607TIP3    H240765   6.652   6.078   0.972
13608TIP3   OH240766   0.683   2.189   5.264
13608TIP3    H140767   0.592   2.199   5.234
13608TIP3    H240768   0.712   2.106   5.226
13609TIP3   OH240769   7.299   5.656   0.643
13609TIP3    H140770   7.285   5.563   0.628
13609TIP3    H240771   7.219   5.698   0.611
13610TIP3   OH240772   6.789   3.177   4.664
13610TIP3    H140773   6.830   3.263   4.663
13610TIP3    H240774   6.751   3.167   4.577
13611TIP3   OH240775   7.406   3.621   5.621
13611TIP3    H140776   7.486   3.603   5.573
13611TIP3    H240777   7.343   3.557   5.586
13612TIP3   OH240778   3.334   7.411   5.932
13612TIP3    H140779   3.423   7.392   5.960
13612TIP3    H240780   3.280   7.347   5.978
13613TIP3   OH240781   3.072   4.116   3.093
13613TIP3    H140782   3.047   4.024   3.090
13613TIP3    H240783   2.997   4.161   3.132
13614TIP3   OH240784   7.034   4.932   1.172
13614TIP3    H140785   7.077   4.994   1.231
13614TIP3    H240786   6.963   4.982   1.132
13615TIP3   OH240787   5.706   1.174   3.542
13615TIP3    H140788   5.784   1.120   3.559
13615TIP3    H240789   5.660   1.128   3.472
13616TIP3   OH240790   5.388   0.924   1.990
13616TIP3    H140791   5.379   0.956   2.079
13616TIP3    H240792   5.423   0.835   2.000
13617TIP3   OH240793   7.861   1.423   4.086
13617TIP3    H140794   7.943   1.469   4.104
13617TIP3    H240795   7.798   1.463   4.146
13618TIP3   OH240796   8.184   1.164   6.139
13618TIP3    H140797   8.249   1.167   6.068
13618TIP3    H240798   8.194   1.248   6.184
13619TIP3   OH240799   0.633   4.339   3.203
13619TIP3    H140800   0.664   4.311   3.289
13619TIP3    H240801   0.555   4.285   3.187
13620TIP3   OH240802   0.624   3.884   0.461
13620TIP3    H140803   0.533   3.890   0.433
13620TIP3    H240804   0.664   3.823   0.400
13621TIP3   OH240805   7.866   2.992   4.806
13621TIP3    H140806   7.856   2.972   4.713
13621TIP3    H240807   7.822   3.076   4.818
13622TIP3   OH240808   5.190   2.912   2.796
13622TIP3    H140809   5.103   2.952   2.792
13622TIP3    H240810   5.176   2.821   2.771
13623TIP3   OH240811   7.092   5.562   5.895
13623TIP3    H140812   7.071   5.633   5.956
13623TIP3    H240813   7.021   5.499   5.907
13624TIP3   OH240814   7.423   3.877   0.496
13624TIP3    H140815   7.342   3.872   0.546
13624TIP3    H240816   7.420   3.963   0.453
13625TIP3   OH240817   2.178   7.734   3.089
13625TIP3    H140818   2.189   7.704   3.179
13625TIP3    H240819   2.084   7.729   3.073
13626TIP3   OH240820   5.020   6.151   6.410
13626TIP3    H140821   4.937   6.106   6.419
13626TIP3    H240822   5.054   6.123   6.325
13627TIP3   OH240823   5.141   5.568   4.323
13627TIP3    H140824   5.091   5.506   4.269
13627TIP3    H240825   5.231   5.561   4.290
13628TIP3   OH240826   0.359   6.585   0.246
13628TIP3    H140827   0.288   6.537   0.205
13628TIP3    H240828   0.319   6.625   0.324
13629TIP3   OH240829   2.647   4.464   6.575
13629TIP3    H140830   2.734   4.435   6.549
13629TIP3    H240831   2.648   4.559   6.559
13630TIP3   OH240832   1.120   5.111   6.682
13630TIP3    H140833   1.092   5.159   6.760
13630TIP3    H240834   1.183   5.169   6.640
13631TIP3   OH240835   7.505   4.155   5.439
13631TIP3    H140836   7.503   4.163   5.535
13631TIP3    H240837   7.466   4.237   5.407
13632TIP3   OH240838   7.243   2.164   5.309
13632TIP3    H140839   7.251   2.150   5.215
13632TIP3    H240840   7.153   2.195   5.322
13633TIP3   OH240841   7.106   6.630   1.084
13633TIP3    H140842   7.026   6.619   1.032
13633TIP3    H240843   7.111   6.551   1.138
13634TIP3   OH240844   6.353   4.245   4.706
13634TIP3    H140845   6.293   4.212   4.773
13634TIP3    H240846   6.348   4.340   4.713
13635TIP3   OH240847   2.001   2.656   3.885
13635TIP3    H140848   2.079   2.712   3.894
13635TIP3    H240849   1.967   2.675   3.798
13636TIP3   OH240850   6.684   4.381   6.115
13636TIP3    H140851   6.630   4.436   6.172
13636TIP3    H240852   6.751   4.441   6.081
13637TIP3   OH240853   1.568   1.950   1.666
13637TIP3    H140854   1.592   2.027   1.615
13637TIP3    H240855   1.578   1.977   1.757
13638TIP3   OH240856   7.838   7.266   4.001
13638TIP3    H140857   7.743   7.254   4.000
13638TIP3    H240858   7.872   7.191   4.049
13639TIP3   OH240859   6.684   0.967   0.946
13639TIP3    H140860   6.590   0.967   0.963
13639TIP3    H240861   6.704   1.057   0.921
13640TIP3   OH240862   1.442   7.803   3.498
13640TIP3    H140863   1.375   7.763   3.554
13640TIP3    H240864   1.406   7.797   3.410
13641TIP3   OH240865   0.112   3.403   2.327
13641TIP3    H140866   0.175   3.340   2.293
13641TIP3    H240867   0.042   3.348   2.364
13642TIP3   OH240868   2.985   0.337   2.888
13642TIP3    H140869   3.049   0.306   2.824
13642TIP3    H240870   2.901   0.308   2.855
13643TIP3   OH240871   7.594   4.160   2.116
13643TIP3    H140872   7.534   4.134   2.046
13643TIP3    H240873   7.680   4.164   2.074
13644TIP3   OH240874   6.245   2.494   5.145
13644TIP3    H140875   6.241   2.563   5.211
13644TIP3    H240876   6.203   2.532   5.068
13645TIP3   OH240877   7.773   5.277   2.061
13645TIP3    H140878   7.711   5.205   2.050
13645TIP3    H240879   7.830   5.272   1.985
13646TIP3   OH240880   5.074   1.057   0.509
13646TIP3    H140881   5.003   1.113   0.477
13646TIP3    H240882   5.102   1.098   0.591
13647TIP3   OH240883   1.501   6.633   5.767
13647TIP3    H140884   1.528   6.725   5.757
13647TIP3    H240885   1.426   6.624   5.708
13648TIP3   OH240886   7.418   6.235   0.934
13648TIP3    H140887   7.439   6.281   0.853
13648TIP3    H240888   7.503   6.220   0.976
13649TIP3   OH240889   6.835   5.498   0.529
13649TIP3    H140890   6.771   5.527   0.464
13649TIP3    H240891   6.812   5.407   0.547
13650TIP3   OH240892   2.669   0.087   1.075
13650TIP3    H140893   2.700   0.059   1.162
13650TIP3    H240894   2.748   0.117   1.030
13651TIP3   OH240895   3.080   4.151   4.567
13651TIP3    H140896   3.170   4.134   4.594
13651TIP3    H240897   3.028   4.137   4.646
13652TIP3   OH240898   0.209   0.544   5.986
13652TIP3    H140899   0.115   0.533   5.976
13652TIP3    H240900   0.238   0.467   6.034
13653TIP3   OH240901   5.969   6.097   3.367
13653TIP3    H140902   6.008   6.156   3.303
13653TIP3    H240903   5.879   6.084   3.336
13654TIP3   OH240904   2.741   2.872   2.969
13654TIP3    H140905   2.763   2.802   3.031
13654TIP3    H240906   2.797   2.945   2.994
13655TIP3   OH240907   4.944   7.632   6.380
13655TIP3    H140908   4.889   7.582   6.441
13655TIP3    H240909   4.931   7.589   6.295
13656TIP3   OH240910   0.384   6.601   6.357
13656TIP3    H140911   0.324   6.579   6.427
13656TIP3    H240912   0.335   6.660   6.300
13657TIP3   OH240913   6.715   5.703   6.116
13657TIP3    H140914   6.718   5.672   6.025
13657TIP3    H240915   6.650   5.647   6.158
13658TIP3   OH240916   4.019   3.280   3.593
13658TIP3    H140917   3.946   3.271   3.531
13658TIP3    H240918   4.031   3.375   3.602
13659TIP3   OH240919   2.133   1.435   5.009
13659TIP3    H140920   2.124   1.529   5.025
13659TIP3    H240921   2.225   1.417   5.025
13660TIP3   OH240922   4.714   2.179   1.755
13660TIP3    H140923   4.735   2.272   1.760
13660TIP3    H240924   4.620   2.177   1.737
13661TIP3   OH240925   1.231   0.506   3.112
13661TIP3    H140926   1.262   0.580   3.163
13661TIP3    H240927   1.168   0.544   3.051
13662TIP3   OH240928   6.199   3.898   5.766
13662TIP3    H140929   6.232   3.979   5.805
13662TIP3    H240930   6.259   3.830   5.798
13663TIP3   OH240931   7.751   0.437   2.051
13663TIP3    H140932   7.779   0.513   2.001
13663TIP3    H240933   7.829   0.381   2.057
13664TIP3   OH240934   6.516   0.340   0.371
13664TIP3    H140935   6.559   0.404   0.314
13664TIP3    H240936   6.490   0.269   0.311
13665TIP3   OH240937   2.435   2.029   4.216
13665TIP3    H140938   2.501   2.020   4.147
13665TIP3    H240939   2.482   2.068   4.289
13666TIP3   OH240940   2.144   0.825   6.409
13666TIP3    H140941   2.141   0.797   6.500
13666TIP3    H240942   2.074   0.775   6.366
13667TIP3   OH240943   1.653   7.001   6.274
13667TIP3    H140944   1.619   7.062   6.339
13667TIP3    H240945   1.720   7.051   6.228
13668TIP3   OH240946   6.114   6.144   5.998
13668TIP3    H140947   6.103   6.049   5.990
13668TIP3    H240948   6.206   6.159   5.975
13669TIP3   OH240949   1.481   1.693   1.551
13669TIP3    H140950   1.507   1.640   1.626
13669TIP3    H240951   1.461   1.779   1.588
13670TIP3   OH240952   6.881   7.631   3.025
13670TIP3    H140953   6.976   7.641   3.034
13670TIP3    H240954   6.866   7.538   3.037
13671TIP3   OH240955   7.521   4.096   1.254
13671TIP3    H140956   7.522   4.084   1.159
13671TIP3    H240957   7.448   4.156   1.270
13672TIP3   OH240958   3.424   4.750   0.414
13672TIP3    H140959   3.439   4.711   0.327
13672TIP3    H240960   3.353   4.812   0.399
13673TIP3   OH240961   5.073   2.002   0.859
13673TIP3    H140962   4.988   2.040   0.880
13673TIP3    H240963   5.069   1.985   0.765
13674TIP3   OH240964   2.239   5.079   5.104
13674TIP3    H140965   2.330   5.099   5.084
13674TIP3    H240966   2.192   5.100   5.023
13675TIP3   OH240967   1.893   1.145   0.607
13675TIP3    H140968   1.813   1.160   0.556
13675TIP3    H240969   1.915   1.053   0.590
13676TIP3   OH240970   1.472   6.579   2.863
13676TIP3    H140971   1.478   6.628   2.781
13676TIP3    H240972   1.380   6.587   2.888
13677TIP3   OH240973   6.653   2.279   5.679
13677TIP3    H140974   6.705   2.225   5.738
13677TIP3    H240975   6.574   2.228   5.662
13678TIP3   OH240976   0.247   0.826   5.616
13678TIP3    H140977   0.152   0.830   5.631
13678TIP3    H240978   0.263   0.737   5.587
13679TIP3   OH240979   7.357   6.407   5.858
13679TIP3    H140980   7.315   6.466   5.795
13679TIP3    H240981   7.418   6.355   5.806
13680TIP3   OH240982   4.224   2.704   5.105
13680TIP3    H140983   4.162   2.771   5.135
13680TIP3    H240984   4.273   2.680   5.184
13681TIP3   OH240985   3.389   2.163   0.753
13681TIP3    H140986   3.341   2.178   0.835
13681TIP3    H240987   3.412   2.250   0.722
13682TIP3   OH240988   2.117   0.869   3.134
13682TIP3    H140989   2.210   0.892   3.139
13682TIP3    H240990   2.107   0.827   3.049
13683TIP3   OH240991   7.424   1.454   4.333
13683TIP3    H140992   7.412   1.517   4.261
13683TIP3    H240993   7.337   1.443   4.370
13684TIP3   OH240994   6.968   3.959   6.565
13684TIP3    H140995   7.038   3.903   6.599
13684TIP3    H240996   7.007   4.046   6.561
13685TIP3   OH240997   4.754   0.272   1.994
13685TIP3    H140998   4.760   0.181   2.022
13685TIP3    H240999   4.716   0.318   2.069
13686TIP3   OH241000   0.289   2.063   2.415
13686TIP3    H141001   0.211   2.009   2.419
13686TIP3    H241002   0.328   2.044   2.330
13687TIP3   OH241003   1.971   1.617   2.439
13687TIP3    H141004   1.980   1.522   2.425
13687TIP3    H241005   1.899   1.642   2.380
13688TIP3   OH241006   3.641   5.776   2.579
13688TIP3    H141007   3.668   5.690   2.545
13688TIP3    H241008   3.680   5.779   2.667
13689TIP3   OH241009   2.124   5.182   0.472
13689TIP3    H141010   2.082   5.122   0.533
13689TIP3    H241011   2.212   5.148   0.460
13690TIP3   OH241012   7.988   5.068   2.139
13690TIP3    H141013   8.034   5.031   2.065
13690TIP3    H241014   7.967   4.993   2.195
13691TIP3   OH241015   4.902   7.545   0.571
13691TIP3    H141016   4.854   7.576   0.648
13691TIP3    H241017   4.865   7.459   0.553
13692TIP3   OH241018   7.154   3.078   1.282
13692TIP3    H141019   7.122   3.004   1.231
13692TIP3    H241020   7.247   3.060   1.295
13693TIP3   OH241021   7.142   4.155   3.705
13693TIP3    H141022   7.207   4.186   3.768
13693TIP3    H241023   7.075   4.112   3.758
13694TIP3   OH241024   1.665   0.850   4.786
13694TIP3    H141025   1.738   0.909   4.765
13694TIP3    H241026   1.591   0.908   4.803
13695TIP3   OH241027   4.773   1.124   0.095
13695TIP3    H141028   4.759   1.063   0.023
13695TIP3    H241029   4.797   1.069   0.169
13696TIP3   OH241030   2.851   0.221   2.444
13696TIP3    H141031   2.822   0.286   2.380
13696TIP3    H241032   2.815   0.138   2.412
13697TIP3   OH241033   4.482   4.167   0.754
13697TIP3    H141034   4.464   4.081   0.793
13697TIP3    H241035   4.403   4.187   0.704
13698TIP3   OH241036   4.056   7.479   6.582
13698TIP3    H141037   4.024   7.554   6.531
13698TIP3    H241038   4.146   7.501   6.605
13699TIP3   OH241039   6.060   7.732   5.528
13699TIP3    H141040   5.980   7.683   5.546
13699TIP3    H241041   6.038   7.787   5.452
13700TIP3   OH241042   7.003   4.624   3.035
13700TIP3    H141043   7.016   4.716   3.060
13700TIP3    H241044   7.073   4.577   3.079
13701TIP3   OH241045   2.154   1.354   3.517
13701TIP3    H141046   2.212   1.328   3.445
13701TIP3    H241047   2.213   1.376   3.588
13702TIP3   OH241048   1.771   3.721   0.349
13702TIP3    H141049   1.715   3.653   0.311
13702TIP3    H241050   1.731   3.738   0.435
13703TIP3   OH241051   3.480   2.526   5.765
13703TIP3    H141052   3.487   2.619   5.787
13703TIP3    H241053   3.406   2.495   5.818
13704TIP3   OH241054   2.132   3.919   2.805
13704TIP3    H141055   2.116   3.885   2.893
13704TIP3    H241056   2.052   3.966   2.782
13705TIP3   OH241057   7.303   2.037   5.044
13705TIP3    H141058   7.253   2.003   4.970
13705TIP3    H241059   7.372   2.090   5.004
13706TIP3   OH241060   6.748   6.850   0.846
13706TIP3    H141061   6.717   6.775   0.897
13706TIP3    H241062   6.772   6.812   0.761
13707TIP3   OH241063   3.828   6.878   4.621
13707TIP3    H141064   3.808   6.839   4.707
13707TIP3    H241065   3.863   6.964   4.642
13708TIP3   OH241066   3.430   6.246   6.384
13708TIP3    H141067   3.515   6.241   6.427
13708TIP3    H241068   3.443   6.309   6.313
13709TIP3   OH241069   1.211   4.864   5.716
13709TIP3    H141070   1.295   4.873   5.672
13709TIP3    H241071   1.180   4.953   5.729
13710TIP3   OH241072   3.406   3.873   0.208
13710TIP3    H141073   3.381   3.781   0.218
13710TIP3    H241074   3.462   3.874   0.130
13711TIP3   OH241075   2.826   0.631   5.956
13711TIP3    H141076   2.741   0.652   5.994
13711TIP3    H241077   2.809   0.616   5.863
13712TIP3   OH241078   7.022   4.899   3.104
13712TIP3    H141079   7.101   4.952   3.101
13712TIP3    H241080   6.990   4.899   3.013
13713TIP3   OH241081   5.959   3.651   1.677
13713TIP3    H141082   5.865   3.638   1.686
13713TIP3    H241083   5.969   3.703   1.597
13714TIP3   OH241084   3.933   7.346   1.050
13714TIP3    H141085   3.865   7.354   1.116
13714TIP3    H241086   4.007   7.396   1.085
13715TIP3   OH241087   5.486   2.995   2.288
13715TIP3    H141088   5.485   2.992   2.193
13715TIP3    H241089   5.572   3.031   2.310
13716TIP3   OH241090   3.235   4.855   5.950
13716TIP3    H141091   3.221   4.913   6.024
13716TIP3    H241092   3.314   4.889   5.908
13717TIP3   OH241093   4.887   2.909   6.436
13717TIP3    H141094   4.965   2.903   6.491
13717TIP3    H241095   4.865   2.819   6.415
13718TIP3   OH241096   3.241   3.454   2.857
13718TIP3    H141097   3.185   3.434   2.783
13718TIP3    H241098   3.312   3.507   2.821
13719TIP3   OH241099   0.116   3.533   0.397
13719TIP3    H141100   0.165   3.501   0.473
13719TIP3    H241101   0.106   3.456   0.341
13720TIP3   OH241102   5.742   0.998   1.224
13720TIP3    H141103   5.796   0.952   1.160
13720TIP3    H241104   5.753   0.949   1.305
13721TIP3   OH241105   1.911   4.288   3.876
13721TIP3    H141106   1.990   4.270   3.826
13721TIP3    H241107   1.885   4.203   3.912
13722TIP3   OH241108   6.698   7.044   2.534
13722TIP3    H141109   6.786   7.080   2.517
13722TIP3    H241110   6.644   7.081   2.464
13723TIP3   OH241111   8.148   0.698   6.475
13723TIP3    H141112   8.100   0.713   6.556
13723TIP3    H241113   8.165   0.603   6.475
13724TIP3   OH241114   1.791   2.907   6.445
13724TIP3    H141115   1.724   2.963   6.486
13724TIP3    H241116   1.772   2.912   6.351
13725TIP3   OH241117   0.351   5.923   3.988
13725TIP3    H141118   0.431   5.968   4.016
13725TIP3    H241119   0.313   5.887   4.068
13726TIP3   OH241120   2.657   1.645   4.678
13726TIP3    H141121   2.603   1.651   4.757
13726TIP3    H241122   2.744   1.619   4.710
13727TIP3   OH241123   2.134   5.681   3.144
13727TIP3    H141124   2.062   5.721   3.095
13727TIP3    H241125   2.144   5.594   3.104
13728TIP3   OH241126   7.649   5.874   3.032
13728TIP3    H141127   7.668   5.781   3.029
13728TIP3    H241128   7.574   5.882   3.090
13729TIP3   OH241129   3.751   5.218   3.240
13729TIP3    H141130   3.661   5.235   3.212
13729TIP3    H241131   3.756   5.255   3.328
13730TIP3   OH241132   1.785   2.027   3.805
13730TIP3    H141133   1.788   2.048   3.712
13730TIP3    H241134   1.870   2.057   3.839
13731TIP3   OH241135   3.900   2.069   0.516
13731TIP3    H141136   3.820   2.086   0.466
13731TIP3    H241137   3.871   2.065   0.607
13732TIP3   OH241138   4.080   4.796   3.012
13732TIP3    H141139   4.005   4.768   2.960
13732TIP3    H241140   4.142   4.830   2.947
13733TIP3   OH241141   4.076   6.111   0.492
13733TIP3    H141142   4.091   6.194   0.446
13733TIP3    H241143   4.123   6.120   0.575
13734TIP3   OH241144   3.666   2.088   4.321
13734TIP3    H141145   3.621   2.135   4.391
13734TIP3    H241146   3.636   1.997   4.331
13735TIP3   OH241147   1.269   2.512   2.360
13735TIP3    H141148   1.302   2.461   2.434
13735TIP3    H241149   1.186   2.549   2.390
13736TIP3   OH241150   0.450   4.016   0.675
13736TIP3    H141151   0.439   4.039   0.767
13736TIP3    H241152   0.530   4.060   0.648
13737TIP3   OH241153   6.299   1.693   5.828
13737TIP3    H141154   6.301   1.604   5.863
13737TIP3    H241155   6.280   1.681   5.735
13738TIP3   OH241156   8.069   1.282   1.487
13738TIP3    H141157   8.154   1.273   1.532
13738TIP3    H241158   8.016   1.210   1.521
13739TIP3   OH241159   2.218   5.229   5.988
13739TIP3    H141160   2.238   5.168   5.917
13739TIP3    H241161   2.235   5.180   6.068
13740TIP3   OH241162   3.358   3.313   0.930
13740TIP3    H141163   3.415   3.236   0.928
13740TIP3    H241164   3.398   3.370   0.995
13741TIP3   OH241165   6.274   3.961   5.470
13741TIP3    H141166   6.364   3.944   5.495
13741TIP3    H241167   6.223   3.940   5.548
13742TIP3   OH241168   7.923   0.074   5.884
13742TIP3    H141169   7.843   0.075   5.936
13742TIP3    H241170   7.893   0.067   5.793
13743TIP3   OH241171   0.677   1.992   2.184
13743TIP3    H141172   0.729   1.953   2.255
13743TIP3    H241173   0.702   1.941   2.107
13744TIP3   OH241174   8.007   3.452   5.228
13744TIP3    H141175   8.061   3.502   5.289
13744TIP3    H241176   7.918   3.482   5.245
13745TIP3   OH241177   2.738   3.042   0.774
13745TIP3    H141178   2.668   3.054   0.709
13745TIP3    H241179   2.704   3.084   0.853
13746TIP3   OH241180   4.093   2.236   0.722
13746TIP3    H141181   4.034   2.306   0.692
13746TIP3    H241182   4.168   2.241   0.662
13747TIP3   OH241183   6.713   6.552   6.583
13747TIP3    H141184   6.717   6.469   6.534
13747TIP3    H241185   6.781   6.606   6.544
13748TIP3   OH241186   3.836   5.538   4.425
13748TIP3    H141187   3.791   5.583   4.353
13748TIP3    H241188   3.814   5.590   4.502
13749TIP3   OH241189   2.412   2.822   3.497
13749TIP3    H141190   2.465   2.900   3.479
13749TIP3    H241191   2.422   2.808   3.591
13750TIP3   OH241192   4.344   5.159   5.467
13750TIP3    H141193   4.249   5.172   5.473
13750TIP3    H241194   4.365   5.100   5.539
13751TIP3   OH241195   7.375   7.721   4.023
13751TIP3    H141196   7.355   7.774   3.946
13751TIP3    H241197   7.451   7.763   4.062
13752TIP3   OH241198   1.381   5.547   6.762
13752TIP3    H141199   1.300   5.591   6.735
13752TIP3    H241200   1.451   5.609   6.739
13753TIP3   OH241201   2.344   2.339   4.249
13753TIP3    H141202   2.320   2.431   4.259
13753TIP3    H241203   2.411   2.325   4.317
13754TIP3   OH241204   8.078   1.744   4.468
13754TIP3    H141205   8.114   1.656   4.461
13754TIP3    H241206   8.125   1.795   4.402
13755TIP3   OH241207   1.429   5.721   1.906
13755TIP3    H141208   1.392   5.697   1.821
13755TIP3    H241209   1.489   5.649   1.926
13756TIP3   OH241210   4.539   4.832   4.727
13756TIP3    H141211   4.444   4.833   4.721
13756TIP3    H241212   4.563   4.919   4.760
13757TIP3   OH241213   4.105   6.385   0.421
13757TIP3    H141214   4.090   6.461   0.365
13757TIP3    H241215   4.199   6.368   0.415
13758TIP3   OH241216   4.332   0.806   3.505
13758TIP3    H141217   4.325   0.856   3.423
13758TIP3    H241218   4.417   0.832   3.542
13759TIP3   OH241219   5.834   5.087   3.741
13759TIP3    H141220   5.866   5.176   3.728
13759TIP3    H241221   5.767   5.076   3.674
13760TIP3   OH241222   6.375   4.734   3.800
13760TIP3    H141223   6.446   4.677   3.828
13760TIP3    H241224   6.333   4.686   3.729
13761TIP3   OH241225   0.058   0.674   6.739
13761TIP3    H141226  -0.017   0.713   6.693
13761TIP3    H241227   0.080   0.598   6.686
13762TIP3   OH241228   4.646   3.390   3.287
13762TIP3    H141229   4.677   3.478   3.267
13762TIP3    H241230   4.675   3.374   3.376
13763TIP3   OH241231   6.807   2.415   5.458
13763TIP3    H141232   6.763   2.395   5.540
13763TIP3    H241233   6.743   2.464   5.407
13764TIP3   OH241234   1.102   6.817   6.316
13764TIP3    H141235   1.142   6.786   6.235
13764TIP3    H241236   1.083   6.738   6.366
13765TIP3   OH241237   0.900   1.366   0.475
13765TIP3    H141238   0.808   1.366   0.500
13765TIP3    H241239   0.915   1.452   0.437
13766TIP3   OH241240   7.923   4.768   2.071
13766TIP3    H141241   7.937   4.674   2.059
13766TIP3    H241242   7.832   4.776   2.097
13767TIP3   OH241243   3.851   5.943   0.548
13767TIP3    H141244   3.929   5.988   0.515
13767TIP3    H241245   3.809   6.007   0.605
13768TIP3   OH241246   4.098   3.372   2.703
13768TIP3    H141247   4.191   3.349   2.706
13768TIP3    H241248   4.076   3.368   2.610
13769TIP3   OH241249   6.964   4.462   6.213
13769TIP3    H141250   6.988   4.464   6.120
13769TIP3    H241251   6.952   4.369   6.233
13770TIP3   OH241252   2.834   5.357   5.316
13770TIP3    H141253   2.874   5.442   5.295
13770TIP3    H241254   2.840   5.352   5.412
13771TIP3   OH241255   0.142   3.656   2.876
13771TIP3    H141256   0.116   3.568   2.849
13771TIP3    H241257   0.159   3.649   2.970
13772TIP3   OH241258   4.201   5.577   0.228
13772TIP3    H141259   4.291   5.592   0.200
13772TIP3    H241260   4.150   5.576   0.146
13773TIP3   OH241261   7.246   6.401   6.110
13773TIP3    H141262   7.282   6.425   6.024
13773TIP3    H241263   7.298   6.326   6.137
13774TIP3   OH241264   7.090   6.601   5.097
13774TIP3    H141265   7.120   6.633   5.182
13774TIP3    H241266   7.169   6.594   5.044
13775TIP3   OH241267   2.574   1.563   1.543
13775TIP3    H141268   2.536   1.630   1.487
13775TIP3    H241269   2.522   1.485   1.527
13776TIP3   OH241270   4.490   3.621   6.283
13776TIP3    H141271   4.423   3.613   6.216
13776TIP3    H241272   4.466   3.555   6.348
13777TIP3   OH241273   2.866   7.021   0.926
13777TIP3    H141274   2.930   6.991   0.990
13777TIP3    H241275   2.797   7.062   0.978
13778TIP3   OH241276   0.407   0.403   5.608
13778TIP3    H141277   0.402   0.467   5.679
13778TIP3    H241278   0.323   0.411   5.562
13779TIP3   OH241279   6.219   2.085   3.422
13779TIP3    H141280   6.237   2.042   3.338
13779TIP3    H241281   6.123   2.093   3.424
13780TIP3   OH241282   5.097   1.522   2.693
13780TIP3    H141283   5.005   1.516   2.669
13780TIP3    H241284   5.125   1.430   2.700
13781TIP3   OH241285   6.393   6.698   2.718
13781TIP3    H141286   6.325   6.762   2.696
13781TIP3    H241287   6.397   6.641   2.641
13782TIP3   OH241288   6.842   3.952   3.639
13782TIP3    H141289   6.780   3.883   3.615
13782TIP3    H241290   6.814   3.981   3.726
13783TIP3   OH241291   8.298   6.453   5.008
13783TIP3    H141292   8.302   6.540   5.047
13783TIP3    H241293   8.205   6.433   5.004
13784TIP3   OH241294   0.906   2.515   0.499
13784TIP3    H141295   0.872   2.596   0.462
13784TIP3    H241296   0.971   2.485   0.436
13785TIP3   OH241297   5.958   6.572   3.234
13785TIP3    H141298   5.869   6.599   3.212
13785TIP3    H241299   5.947   6.500   3.295
13786TIP3   OH241300   7.189   5.795   0.966
13786TIP3    H141301   7.223   5.868   0.915
13786TIP3    H241302   7.253   5.725   0.954
13787TIP3   OH241303   3.277   7.644   5.198
13787TIP3    H141304   3.234   7.676   5.277
13787TIP3    H241305   3.371   7.646   5.218
13788TIP3   OH241306   6.693   2.055   3.121
13788TIP3    H141307   6.762   2.102   3.075
13788TIP3    H241308   6.677   2.107   3.200
13789TIP3   OH241309   4.273   3.730   2.005
13789TIP3    H141310   4.280   3.698   2.095
13789TIP3    H241311   4.260   3.824   2.013
13790TIP3   OH241312   4.729   6.255   3.351
13790TIP3    H141313   4.684   6.242   3.435
13790TIP3    H241314   4.673   6.314   3.302
13791TIP3   OH241315   2.774   4.655   0.543
13791TIP3    H141316   2.840   4.588   0.525
13791TIP3    H241317   2.720   4.658   0.464
13792TIP3   OH241318   0.074   1.063   6.770
13792TIP3    H141319   0.069   0.991   6.833
13792TIP3    H241320   0.110   1.023   6.691
13793TIP3   OH241321   3.498   1.636   5.043
13793TIP3    H141322   3.527   1.585   4.968
13793TIP3    H241323   3.543   1.596   5.118
13794TIP3   OH241324   1.851   7.785   0.291
13794TIP3    H141325   1.755   7.792   0.288
13794TIP3    H241326   1.880   7.829   0.211
13795TIP3   OH241327   4.692   6.230   4.936
13795TIP3    H141328   4.767   6.231   4.996
13795TIP3    H241329   4.651   6.316   4.947
13796TIP3   OH241330   0.380   1.878   2.932
13796TIP3    H141331   0.464   1.834   2.917
13796TIP3    H241332   0.402   1.971   2.937
13797TIP3   OH241333   2.205   6.757   5.022
13797TIP3    H141334   2.250   6.831   5.063
13797TIP3    H241335   2.263   6.729   4.952
13798TIP3   OH241336   0.632   1.347   0.537
13798TIP3    H141337   0.559   1.285   0.534
13798TIP3    H241338   0.620   1.395   0.619
13799TIP3   OH241339   4.711   2.629   2.409
13799TIP3    H141340   4.674   2.554   2.455
13799TIP3    H241341   4.665   2.705   2.446
13800TIP3   OH241342   4.362   0.625   4.696
13800TIP3    H141343   4.321   0.618   4.783
13800TIP3    H241344   4.330   0.547   4.649
13801TIP3   OH241345   5.270   7.695   3.556
13801TIP3    H141346   5.211   7.741   3.615
13801TIP3    H241347   5.343   7.756   3.544
13802TIP3   OH241348   8.135   2.533   3.939
13802TIP3    H141349   8.218   2.518   3.985
13802TIP3    H241350   8.131   2.628   3.929
13803TIP3   OH241351   0.529   5.081   0.938
13803TIP3    H141352   0.533   5.016   0.868
13803TIP3    H241353   0.601   5.057   0.997
13804TIP3   OH241354   5.607   4.565   5.637
13804TIP3    H141355   5.680   4.564   5.575
13804TIP3    H241356   5.537   4.611   5.591
13805TIP3   OH241357   0.993   3.457   4.480
13805TIP3    H141358   0.925   3.397   4.450
13805TIP3    H241359   1.066   3.399   4.503
13806TIP3   OH241360   5.104   6.770   6.011
13806TIP3    H141361   5.028   6.711   6.021
13806TIP3    H241362   5.170   6.715   5.969
13807TIP3   OH241363   0.696   2.676   5.407
13807TIP3    H141364   0.789   2.684   5.425
13807TIP3    H241365   0.692   2.640   5.318
13808TIP3   OH241366   5.903   3.266   5.395
13808TIP3    H141367   5.868   3.181   5.369
13808TIP3    H241368   5.873   3.278   5.485
13809TIP3   OH241369   0.209   3.090   6.470
13809TIP3    H141370   0.159   3.064   6.547
13809TIP3    H241371   0.263   3.163   6.500
13810TIP3   OH241372   4.741   1.166   3.393
13810TIP3    H141373   4.660   1.202   3.358
13810TIP3    H241374   4.729   1.166   3.487
13811TIP3   OH241375   6.148   4.574   2.613
13811TIP3    H141376   6.226   4.559   2.667
13811TIP3    H241377   6.176   4.636   2.546
13812TIP3   OH241378   2.289   6.280   2.182
13812TIP3    H141379   2.262   6.339   2.112
13812TIP3    H241380   2.209   6.264   2.233
13813TIP3   OH241381   2.405   5.184   1.068
13813TIP3    H141382   2.413   5.275   1.042
13813TIP3    H241383   2.380   5.187   1.161
13814TIP3   OH241384   6.050   1.659   5.210
13814TIP3    H141385   6.107   1.591   5.174
13814TIP3    H241386   6.001   1.615   5.280
13815TIP3   OH241387   2.812   5.912   4.847
13815TIP3    H141388   2.725   5.872   4.856
13815TIP3    H241389   2.855   5.894   4.931
13816TIP3   OH241390   0.117   2.526   6.677
13816TIP3    H141391   0.133   2.492   6.589
13816TIP3    H241392   0.157   2.462   6.735
13817TIP3   OH241393   1.513   4.585   3.852
13817TIP3    H141394   1.531   4.548   3.766
13817TIP3    H241395   1.582   4.551   3.909
13818TIP3   OH241396   2.125   0.136   3.250
13818TIP3    H141397   2.118   0.058   3.193
13818TIP3    H241398   2.201   0.182   3.217
13819TIP3   OH241399   4.353   2.309   4.146
13819TIP3    H141400   4.303   2.244   4.196
13819TIP3    H241401   4.290   2.343   4.082
13820TIP3   OH241402   4.985   6.991   4.918
13820TIP3    H141403   4.922   6.925   4.948
13820TIP3    H241404   5.008   6.964   4.829
13821TIP3   OH241405   2.354   2.339   6.313
13821TIP3    H141406   2.384   2.360   6.224
13821TIP3    H241407   2.382   2.414   6.365
13822TIP3   OH241408   1.044   7.091   3.091
13822TIP3    H141409   1.107   7.034   3.048
13822TIP3    H241410   0.962   7.041   3.093
13823TIP3   OH241411   2.012   7.000   5.737
13823TIP3    H141412   1.978   6.969   5.653
13823TIP3    H241413   1.937   7.040   5.780
13824TIP3   OH241414   4.486   0.282   1.038
13824TIP3    H141415   4.510   0.192   1.062
13824TIP3    H241416   4.395   0.291   1.065
13825TIP3   OH241417   2.306   0.271   5.905
13825TIP3    H141418   2.388   0.292   5.949
13825TIP3    H241419   2.258   0.218   5.968
13826TIP3   OH241420   6.681   4.053   5.220
13826TIP3    H141421   6.677   4.096   5.134
13826TIP3    H241422   6.689   3.960   5.199
13827TIP3   OH241423   4.949   3.280   2.789
13827TIP3    H141424   5.019   3.247   2.733
13827TIP3    H241425   4.879   3.306   2.729
13828TIP3   OH241426   6.590   1.153   0.421
13828TIP3    H141427   6.666   1.163   0.364
13828TIP3    H241428   6.576   1.239   0.459
13829TIP3   OH241429   4.130   2.609   1.742
13829TIP3    H141430   4.064   2.611   1.672
13829TIP3    H241431   4.193   2.543   1.714
13830TIP3   OH241432   0.645   5.619   3.573
13830TIP3    H141433   0.566   5.623   3.517
13830TIP3    H241434   0.705   5.562   3.525
13831TIP3   OH241435   1.599   7.713   2.901
13831TIP3    H141436   1.628   7.622   2.894
13831TIP3    H241437   1.622   7.752   2.818
13832TIP3   OH241438   1.447   2.929   2.919
13832TIP3    H141439   1.398   3.011   2.920
13832TIP3    H241440   1.535   2.953   2.890
13833TIP3   OH241441   2.696   6.349   2.670
13833TIP3    H141442   2.603   6.328   2.668
13833TIP3    H241443   2.707   6.415   2.601
13834TIP3   OH241444   6.770   0.592   3.681
13834TIP3    H141445   6.702   0.639   3.729
13834TIP3    H241446   6.849   0.602   3.735
13835TIP3   OH241447   7.009   1.800   5.204
13835TIP3    H141448   6.963   1.880   5.178
13835TIP3    H241449   7.083   1.831   5.256
13836TIP3   OH241450   6.227   3.277   0.816
13836TIP3    H141451   6.140   3.262   0.779
13836TIP3    H241452   6.287   3.269   0.741
13837TIP3   OH241453   0.461   5.356   0.075
13837TIP3    H141454   0.446   5.353   0.170
13837TIP3    H241455   0.549   5.392   0.066
13838TIP3   OH241456   7.323   2.082   2.784
13838TIP3    H141457   7.280   2.158   2.746
13838TIP3    H241458   7.301   2.010   2.725
13839TIP3   OH241459   4.868   2.250   5.894
13839TIP3    H141460   4.796   2.306   5.922
13839TIP3    H241461   4.939   2.272   5.954
13840TIP3   OH241462   3.630   2.441   0.204
13840TIP3    H141463   3.568   2.380   0.164
13840TIP3    H241464   3.642   2.509   0.137
13841TIP3   OH241465   1.228   7.723   4.783
13841TIP3    H141466   1.224   7.721   4.879
13841TIP3    H241467   1.160   7.785   4.758
13842TIP3   OH241468   5.465   1.073   5.867
13842TIP3    H141469   5.394   1.017   5.900
13842TIP3    H241470   5.504   1.110   5.946
13843TIP3   OH241471   7.990   5.886   0.936
13843TIP3    H141472   8.003   5.952   0.867
13843TIP3    H241473   8.077   5.869   0.970
13844TIP3   OH241474   4.195   3.347   6.251
13844TIP3    H141475   4.220   3.429   6.294
13844TIP3    H241476   4.247   3.280   6.294
13845TIP3   OH241477   0.349   3.428   2.754
13845TIP3    H141478   0.377   3.509   2.710
13845TIP3    H241479   0.423   3.368   2.741
13846TIP3   OH241480   0.256   4.942   1.015
13846TIP3    H141481   0.333   4.980   0.973
13846TIP3    H241482   0.214   5.016   1.059
13847TIP3   OH241483   0.046   4.112   2.899
13847TIP3    H141484   0.037   4.184   2.836
13847TIP3    H241485   0.058   4.034   2.845
13848TIP3   OH241486   3.642   0.949   1.421
13848TIP3    H141487   3.637   0.965   1.515
13848TIP3    H241488   3.652   0.855   1.412
13849TIP3   OH241489   3.945   2.439   1.418
13849TIP3    H141490   3.958   2.417   1.325
13849TIP3    H241491   3.948   2.355   1.463
13850TIP3   OH241492   6.901   5.838   4.565
13850TIP3    H141493   6.878   5.852   4.473
13850TIP3    H241494   6.940   5.922   4.593
13851TIP3   OH241495   6.825   7.321   5.751
13851TIP3    H141496   6.899   7.284   5.703
13851TIP3    H241497   6.810   7.260   5.823
13852TIP3   OH241498   5.786   6.062   0.765
13852TIP3    H141499   5.724   6.076   0.693
13852TIP3    H241500   5.842   6.140   0.764
13853TIP3   OH241501   3.411   7.564   2.956
13853TIP3    H141502   3.396   7.620   3.032
13853TIP3    H241503   3.329   7.515   2.946
13854TIP3   OH241504   6.300   0.872   6.429
13854TIP3    H141505   6.275   0.890   6.520
13854TIP3    H241506   6.228   0.818   6.394
13855TIP3   OH241507   6.159   0.932   1.448
13855TIP3    H141508   6.136   0.869   1.516
13855TIP3    H241509   6.124   0.893   1.367
13856TIP3   OH241510   6.465   6.150   1.593
13856TIP3    H141511   6.524   6.115   1.660
13856TIP3    H241512   6.377   6.129   1.625
13857TIP3   OH241513   5.721   0.845   0.407
13857TIP3    H141514   5.658   0.877   0.342
13857TIP3    H241515   5.806   0.847   0.362
13858TIP3   OH241516   3.607   1.106   1.193
13858TIP3    H141517   3.631   1.058   1.272
13858TIP3    H241518   3.613   1.198   1.218
13859TIP3   OH241519   3.658   3.172   4.120
13859TIP3    H141520   3.651   3.096   4.061
13859TIP3    H241521   3.587   3.159   4.183
13860TIP3   OH241522   7.062   6.456   3.934
13860TIP3    H141523   7.153   6.435   3.915
13860TIP3    H241524   7.023   6.476   3.849
13861TIP3   OH241525   6.590   4.883   2.443
13861TIP3    H141526   6.514   4.884   2.502
13861TIP3    H241527   6.665   4.900   2.500
13862TIP3   OH241528   2.230   1.161   5.391
13862TIP3    H141529   2.164   1.197   5.333
13862TIP3    H241530   2.208   1.195   5.478
13863TIP3   OH241531   5.443   1.241   4.202
13863TIP3    H141532   5.363   1.267   4.155
13863TIP3    H241533   5.417   1.237   4.294
13864TIP3   OH241534   1.253   0.253   3.630
13864TIP3    H141535   1.217   0.192   3.566
13864TIP3    H241536   1.237   0.340   3.593
13865TIP3   OH241537   3.894   2.980   1.198
13865TIP3    H141538   3.914   3.062   1.152
13865TIP3    H241539   3.808   2.996   1.237
13866TIP3   OH241540   2.745   6.523   5.650
13866TIP3    H141541   2.667   6.538   5.597
13866TIP3    H241542   2.735   6.583   5.724
13867TIP3   OH241543   6.103   6.567   4.636
13867TIP3    H141544   6.130   6.514   4.711
13867TIP3    H241545   6.019   6.605   4.662
13868TIP3   OH241546   0.502   0.879   1.941
13868TIP3    H141547   0.450   0.866   2.020
13868TIP3    H241548   0.438   0.892   1.872
13869TIP3   OH241549   0.065   2.724   2.524
13869TIP3    H141550   0.156   2.749   2.509
13869TIP3    H241551   0.071   2.634   2.559
13870TIP3   OH241552   5.405   4.328   0.787
13870TIP3    H141553   5.434   4.388   0.857
13870TIP3    H241554   5.332   4.280   0.827
13871TIP3   OH241555   2.341   0.836   3.524
13871TIP3    H141556   2.335   0.905   3.458
13871TIP3    H241557   2.366   0.757   3.475
13872TIP3   OH241558   4.393   3.695   2.265
13872TIP3    H141559   4.487   3.680   2.271
13872TIP3    H241560   4.377   3.770   2.323
13873TIP3   OH241561   2.487   3.776   3.516
13873TIP3    H141562   2.465   3.792   3.424
13873TIP3    H241563   2.509   3.683   3.519
13874TIP3   OH241564   7.179   6.393   4.831
13874TIP3    H141565   7.187   6.303   4.863
13874TIP3    H241566   7.249   6.402   4.766
13875TIP3   OH241567   0.962   4.642   2.980
13875TIP3    H141568   0.933   4.733   2.990
13875TIP3    H241569   0.917   4.595   3.050
13876TIP3   OH241570   0.983   6.253   4.225
13876TIP3    H141571   1.073   6.221   4.225
13876TIP3    H241572   0.970   6.288   4.313
13877TIP3   OH241573   7.368  -0.022   1.017
13877TIP3    H141574   7.463  -0.010   1.022
13877TIP3    H241575   7.332   0.061   1.048
13878TIP3   OH241576   8.273   2.079   3.699
13878TIP3    H141577   8.198   2.128   3.734
13878TIP3    H241578   8.300   2.022   3.771
13879TIP3   OH241579   4.997   6.812   4.313
13879TIP3    H141580   4.910   6.848   4.333
13879TIP3    H241581   4.980   6.744   4.247
13880TIP3   OH241582   0.533   4.839   4.281
13880TIP3    H141583   0.608   4.867   4.227
13880TIP3    H241584   0.519   4.748   4.257
13881TIP3   OH241585   4.246   3.874   3.781
13881TIP3    H141586   4.276   3.952   3.828
13881TIP3    H241587   4.188   3.908   3.712
13882TIP3   OH241588   7.168   2.484   6.613
13882TIP3    H141589   7.139   2.533   6.690
13882TIP3    H241590   7.199   2.551   6.552
13883TIP3   OH241591   2.458   6.513   0.879
13883TIP3    H141592   2.517   6.570   0.927
13883TIP3    H241593   2.477   6.530   0.787
13884TIP3   OH241594   4.960   1.906   4.412
13884TIP3    H141595   5.005   1.855   4.345
13884TIP3    H241596   4.937   1.842   4.480
13885TIP3   OH241597   7.797   7.472   4.542
13885TIP3    H141598   7.850   7.451   4.618
13885TIP3    H241599   7.757   7.389   4.516
13886TIP3   OH241600   7.955   1.707   3.490
13886TIP3    H141601   8.030   1.728   3.434
13886TIP3    H241602   7.942   1.613   3.478
13887TIP3   OH241603   3.686   7.342   2.111
13887TIP3    H141604   3.775   7.307   2.106
13887TIP3    H241605   3.692   7.427   2.068
13888TIP3   OH241606   0.388   2.111   0.619
13888TIP3    H141607   0.415   2.053   0.548
13888TIP3    H241608   0.295   2.089   0.634
13889TIP3   OH241609   1.353   5.346   5.201
13889TIP3    H141610   1.305   5.427   5.220
13889TIP3    H241611   1.289   5.277   5.216
13890TIP3   OH241612   2.607   5.973   3.168
13890TIP3    H141613   2.622   5.884   3.200
13890TIP3    H241614   2.512   5.983   3.169
13891TIP3   OH241615   1.524   2.527   2.285
13891TIP3    H141616   1.430   2.539   2.295
13891TIP3    H241617   1.551   2.483   2.365
13892TIP3   OH241618   6.556   2.287   1.771
13892TIP3    H141619   6.556   2.303   1.676
13892TIP3    H241620   6.648   2.295   1.797
13893TIP3   OH241621   2.282   7.251   0.501
13893TIP3    H141622   2.222   7.325   0.510
13893TIP3    H241623   2.255   7.207   0.421
13894TIP3   OH241624   4.735   1.422   5.539
13894TIP3    H141625   4.779   1.389   5.460
13894TIP3    H241626   4.650   1.452   5.509
13895TIP3   OH241627   0.713   6.741   4.763
13895TIP3    H141628   0.726   6.730   4.857
13895TIP3    H241629   0.796   6.774   4.731
13896TIP3   OH241630   5.859   7.009   5.027
13896TIP3    H141631   5.792   7.043   5.087
13896TIP3    H241632   5.896   6.934   5.073
13897TIP3   OH241633   0.273   4.255   3.995
13897TIP3    H141634   0.316   4.210   4.068
13897TIP3    H241635   0.324   4.335   3.982
13898TIP3   OH241636   7.060   5.956   3.231
13898TIP3    H141637   7.010   5.906   3.296
13898TIP3    H241638   7.016   5.939   3.148
13899TIP3   OH241639   3.492   4.151   5.077
13899TIP3    H141640   3.404   4.152   5.114
13899TIP3    H241641   3.484   4.196   4.993
13900TIP3   OH241642   4.816   5.075   1.639
13900TIP3    H141643   4.781   5.036   1.719
13900TIP3    H241644   4.796   5.011   1.571
13901TIP3   OH241645   1.367   1.392   6.124
13901TIP3    H141646   1.344   1.383   6.217
13901TIP3    H241647   1.456   1.356   6.118
13902TIP3   OH241648   7.810   7.632   3.407
13902TIP3    H141649   7.849   7.710   3.448
13902TIP3    H241650   7.867   7.560   3.433
13903TIP3   OH241651   0.718   3.069   2.789
13903TIP3    H141652   0.714   3.161   2.764
13903TIP3    H241653   0.636   3.032   2.757
13904TIP3   OH241654   3.991   0.442   0.341
13904TIP3    H141655   3.915   0.447   0.399
13904TIP3    H241656   4.000   0.530   0.306
13905TIP3   OH241657   2.143   1.461   4.297
13905TIP3    H141658   2.087   1.383   4.298
13905TIP3    H241659   2.171   1.471   4.388
13906TIP3   OH241660   5.352   3.668   0.953
13906TIP3    H141661   5.398   3.701   1.030
13906TIP3    H241662   5.316   3.746   0.911
13907TIP3   OH241663   1.652   2.626   2.701
13907TIP3    H141664   1.718   2.638   2.633
13907TIP3    H241665   1.656   2.706   2.753
13908TIP3   OH241666   2.175   4.614   6.571
13908TIP3    H141667   2.214   4.532   6.601
13908TIP3    H241668   2.202   4.678   6.636
13909TIP3   OH241669   2.562   2.320   3.611
13909TIP3    H141670   2.496   2.255   3.588
13909TIP3    H241671   2.561   2.322   3.707
13910TIP3   OH241672   1.046   7.461   4.721
13910TIP3    H141673   1.059   7.548   4.756
13910TIP3    H241674   1.011   7.410   4.794
13911TIP3   OH241675   3.252   0.498   2.755
13911TIP3    H141676   3.272   0.570   2.695
13911TIP3    H241677   3.169   0.463   2.724
13912TIP3   OH241678   1.462   3.611   3.926
13912TIP3    H141679   1.462   3.665   3.846
13912TIP3    H241680   1.508   3.531   3.901
13913TIP3   OH241681   3.242   5.579   6.747
13913TIP3    H141682   3.259   5.552   6.656
13913TIP3    H241683   3.175   5.646   6.740
13914TIP3   OH241684   3.786   4.928   2.550
13914TIP3    H141685   3.803   5.021   2.538
13914TIP3    H241686   3.781   4.892   2.461
13915TIP3   OH241687   1.922   1.256   2.647
13915TIP3    H141688   1.888   1.177   2.604
13915TIP3    H241689   2.000   1.225   2.694
13916TIP3   OH241690   6.217   5.006   3.535
13916TIP3    H141691   6.193   5.010   3.443
13916TIP3    H241692   6.174   4.927   3.568
13917TIP3   OH241693   2.953   1.103   1.428
13917TIP3    H141694   2.884   1.106   1.495
13917TIP3    H241695   2.906   1.107   1.345
13918TIP3   OH241696   6.737   1.765   1.009
13918TIP3    H141697   6.763   1.700   1.075
13918TIP3    H241698   6.819   1.805   0.982
13919TIP3   OH241699   2.468   6.933   6.428
13919TIP3    H141700   2.425   6.886   6.357
13919TIP3    H241701   2.442   6.886   6.507
13920TIP3   OH241702   7.053   3.238   0.371
13920TIP3    H141703   6.972   3.248   0.321
13920TIP3    H241704   7.029   3.262   0.461
13921TIP3   OH241705   4.894   5.835   2.684
13921TIP3    H141706   4.887   5.920   2.728
13921TIP3    H241707   4.806   5.799   2.687
13922TIP3   OH241708   2.248   1.114   2.117
13922TIP3    H141709   2.319   1.068   2.072
13922TIP3    H241710   2.292   1.175   2.176
13923TIP3   OH241711   4.942   4.897   6.435
13923TIP3    H141712   4.932   4.980   6.390
13923TIP3    H241713   4.925   4.917   6.527
13924TIP3   OH241714   8.063   0.939   4.890
13924TIP3    H141715   8.030   1.026   4.866
13924TIP3    H241716   8.080   0.945   4.984
13925TIP3   OH241717   7.408   3.777   6.569
13925TIP3    H141718   7.313   3.779   6.570
13925TIP3    H241719   7.431   3.741   6.483
13926TIP3   OH241720   7.737   2.985   6.325
13926TIP3    H141721   7.703   2.896   6.335
13926TIP3    H241722   7.718   3.008   6.234
13927TIP3   OH241723   4.287   6.116   1.967
13927TIP3    H141724   4.270   6.179   1.896
13927TIP3    H241725   4.232   6.147   2.039
13928TIP3   OH241726   6.357   5.241   3.072
13928TIP3    H141727   6.443   5.228   3.033
13928TIP3    H241728   6.310   5.296   3.009
13929TIP3   OH241729   2.748   2.530   2.351
13929TIP3    H141730   2.751   2.553   2.444
13929TIP3    H241731   2.840   2.519   2.326
13930TIP3   OH241732   6.592   4.744   2.815
13930TIP3    H141733   6.574   4.698   2.896
13930TIP3    H241734   6.569   4.835   2.834
13931TIP3   OH241735   0.807   7.837   3.177
13931TIP3    H141736   0.729   7.803   3.133
13931TIP3    H241737   0.877   7.776   3.152
13932TIP3   OH241738   2.711   6.127   1.316
13932TIP3    H141739   2.720   6.089   1.228
13932TIP3    H241740   2.624   6.167   1.315
13933TIP3   OH241741   5.116   6.550   6.667
13933TIP3    H141742   5.093   6.462   6.697
13933TIP3    H241743   5.135   6.539   6.574
13934TIP3   OH241744   8.195   4.572   3.393
13934TIP3    H141745   8.268   4.539   3.340
13934TIP3    H241746   8.222   4.556   3.484
13935TIP3   OH241747   6.168   3.414   0.049
13935TIP3    H141748   6.192   3.464  -0.029
13935TIP3    H241749   6.189   3.472   0.122
13936TIP3   OH241750   3.855   7.225   3.014
13936TIP3    H141751   3.765   7.200   2.993
13936TIP3    H241752   3.862   7.210   3.108
13937TIP3   OH241753   2.044   0.018   1.414
13937TIP3    H141754   2.128   0.049   1.447
13937TIP3    H241755   2.057   0.011   1.319
13938TIP3   OH241756   5.695   3.256   6.455
13938TIP3    H141757   5.675   3.349   6.442
13938TIP3    H241758   5.615   3.210   6.430
13939TIP3   OH241759   4.789   0.403   4.908
13939TIP3    H141760   4.746   0.321   4.883
13939TIP3    H241761   4.761   0.466   4.841
13940TIP3   OH241762   1.428   7.022   2.749
13940TIP3    H141763   1.402   6.990   2.662
13940TIP3    H241764   1.513   6.980   2.765
13941TIP3   OH241765   1.792   6.647   4.025
13941TIP3    H141766   1.809   6.713   3.958
13941TIP3    H241767   1.700   6.624   4.014
13942TIP3   OH241768   5.756   4.985   4.275
13942TIP3    H141769   5.778   4.959   4.185
13942TIP3    H241770   5.748   5.080   4.271
13943TIP3   OH241771   0.130   1.629   0.068
13943TIP3    H141772   0.094   1.707   0.027
13943TIP3    H241773   0.221   1.625   0.037
13944TIP3   OH241774   1.361   5.681   1.646
13944TIP3    H141775   1.384   5.595   1.613
13944TIP3    H241776   1.293   5.713   1.586
13945TIP3   OH241777   1.461   3.713   0.875
13945TIP3    H141778   1.402   3.641   0.897
13945TIP3    H241779   1.404   3.783   0.844
13946TIP3   OH241780   0.169   4.213   3.592
13946TIP3    H141781   0.143   4.130   3.633
13946TIP3    H241782   0.263   4.219   3.609
13947TIP3   OH241783   3.748   4.292   0.099
13947TIP3    H141784   3.662   4.303   0.060
13947TIP3    H241785   3.741   4.211   0.150
13948TIP3   OH241786   1.706   5.070   6.787
13948TIP3    H141787   1.647   5.095   6.858
13948TIP3    H241788   1.673   5.117   6.711
13949TIP3   OH241789   4.084   5.207   5.507
13949TIP3    H141790   4.034   5.159   5.441
13949TIP3    H241791   4.017   5.250   5.561
13950TIP3   OH241792   6.753   4.278   4.074
13950TIP3    H141793   6.798   4.317   3.999
13950TIP3    H241794   6.740   4.351   4.135
13951TIP3   OH241795   2.115   0.110   1.693
13951TIP3    H141796   2.186   0.068   1.644
13951TIP3    H241797   2.070   0.038   1.737
13952TIP3   OH241798   4.597   7.024   6.218
13952TIP3    H141799   4.591   7.059   6.307
13952TIP3    H241800   4.690   7.005   6.206
13953TIP3   OH241801   3.581   5.014   3.395
13953TIP3    H141802   3.609   5.098   3.432
13953TIP3    H241803   3.586   5.027   3.300
13954TIP3   OH241804   6.033   1.506   5.959
13954TIP3    H141805   6.087   1.465   5.891
13954TIP3    H241806   6.012   1.434   6.018
13955TIP3   OH241807   2.747   2.184   0.408
13955TIP3    H141808   2.754   2.090   0.389
13955TIP3    H241809   2.728   2.188   0.502
13956TIP3   OH241810   3.593   5.989   2.196
13956TIP3    H141811   3.580   6.081   2.218
13956TIP3    H241812   3.591   5.944   2.280
13957TIP3   OH241813   6.153   3.994   6.720
13957TIP3    H141814   6.139   3.913   6.770
13957TIP3    H241815   6.078   4.049   6.743
13958TIP3   OH241816   6.768   3.049   5.776
13958TIP3    H141817   6.691   3.074   5.726
13958TIP3    H241818   6.797   2.967   5.736
13959TIP3   OH241819   3.382   3.544   0.772
13959TIP3    H141820   3.293   3.553   0.739
13959TIP3    H241821   3.387   3.453   0.802
13960TIP3   OH241822   0.655   5.893   5.544
13960TIP3    H141823   0.650   5.940   5.627
13960TIP3    H241824   0.595   5.819   5.555
13961TIP3   OH241825   0.984   4.960   0.746
13961TIP3    H141826   0.979   4.887   0.808
13961TIP3    H241827   1.024   5.031   0.795
13962TIP3   OH241828   8.236   0.599   5.858
13962TIP3    H141829   8.250   0.666   5.924
13962TIP3    H241830   8.145   0.571   5.870
13963TIP3   OH241831   1.925   5.363   5.422
13963TIP3    H141832   1.878   5.280   5.431
13963TIP3    H241833   1.988   5.362   5.493
13964TIP3   OH241834   3.091   6.786   0.509
13964TIP3    H141835   3.043   6.867   0.527
13964TIP3    H241836   3.088   6.737   0.591
13965TIP3   OH241837   6.445   3.498   2.198
13965TIP3    H141838   6.522   3.554   2.185
13965TIP3    H241839   6.389   3.547   2.257
13966TIP3   OH241840   4.269   2.546   4.530
13966TIP3    H141841   4.281   2.592   4.447
13966TIP3    H241842   4.274   2.614   4.597
13967TIP3   OH241843   7.223   7.383   3.612
13967TIP3    H141844   7.275   7.368   3.692
13967TIP3    H241845   7.133   7.363   3.638
13968TIP3   OH241846   3.575   3.643   6.534
13968TIP3    H141847   3.486   3.608   6.539
13968TIP3    H241848   3.631   3.567   6.522
13969TIP3   OH241849   4.370   7.048   2.729
13969TIP3    H141850   4.333   6.960   2.723
13969TIP3    H241851   4.401   7.055   2.819
13970TIP3   OH241852   0.703   3.874   2.878
13970TIP3    H141853   0.660   3.955   2.906
13970TIP3    H241854   0.633   3.808   2.880
13971TIP3   OH241855   0.597   1.954   3.388
13971TIP3    H141856   0.605   1.970   3.294
13971TIP3    H241857   0.654   1.878   3.404
13972TIP3   OH241858   4.978   0.225   3.708
13972TIP3    H141859   4.990   0.304   3.656
13972TIP3    H241860   5.008   0.154   3.650
13973TIP3   OH241861   7.320   5.294   0.863
13973TIP3    H141862   7.350   5.312   0.774
13973TIP3    H241863   7.358   5.363   0.917
13974TIP3   OH241864   7.581   3.950   1.493
13974TIP3    H141865   7.556   4.003   1.417
13974TIP3    H241866   7.498   3.921   1.531
13975TIP3   OH241867   4.487   5.132   4.217
13975TIP3    H141868   4.423   5.066   4.191
13975TIP3    H241869   4.497   5.187   4.139
13976TIP3   OH241870   4.846   0.101   6.378
13976TIP3    H141871   4.801   0.018   6.368
13976TIP3    H241872   4.784   0.166   6.346
13977TIP3   OH241873   7.446   0.388   2.119
13977TIP3    H141874   7.533   0.370   2.083
13977TIP3    H241875   7.389   0.323   2.078
13978TIP3   OH241876   7.710   3.716   1.703
13978TIP3    H141877   7.736   3.625   1.715
13978TIP3    H241878   7.627   3.724   1.750
13979TIP3   OH241879   8.055   3.020   1.342
13979TIP3    H141880   8.039   2.931   1.311
13979TIP3    H241881   8.087   3.067   1.264
13980TIP3   OH241882   3.390   1.296   4.910
13980TIP3    H141883   3.331   1.290   4.835
13980TIP3    H241884   3.463   1.350   4.878
13981TIP3   OH241885   4.113   4.899   3.802
13981TIP3    H141886   4.121   4.886   3.707
13981TIP3    H241887   4.019   4.907   3.817
13982TIP3   OH241888   7.724   4.457   3.613
13982TIP3    H141889   7.732   4.398   3.687
13982TIP3    H241890   7.634   4.490   3.618
13983TIP3   OH241891   8.160   0.291   1.757
13983TIP3    H141892   8.100   0.223   1.727
13983TIP3    H241893   8.110   0.373   1.751
13984TIP3   OH241894   0.895   2.474   6.011
13984TIP3    H141895   0.896   2.569   6.014
13984TIP3    H241896   0.973   2.450   5.960
13985TIP3   OH241897   0.962   5.385   4.447
13985TIP3    H141898   0.894   5.337   4.399
13985TIP3    H241899   1.007   5.436   4.380
13986TIP3   OH241900   2.385   3.609   4.226
13986TIP3    H141901   2.387   3.705   4.226
13986TIP3    H241902   2.302   3.586   4.185
13987TIP3   OH241903   0.056   0.311   3.971
13987TIP3    H141904  -0.004   0.268   3.910
13987TIP3    H241905   0.105   0.240   4.012
13988TIP3   OH241906   2.521   6.440   2.241
13988TIP3    H141907   2.589   6.430   2.308
13988TIP3    H241908   2.486   6.352   2.230
13989TIP3   OH241909   2.183   6.473   2.582
13989TIP3    H141910   2.097   6.487   2.542
13989TIP3    H241911   2.165   6.413   2.655
13990TIP3   OH241912   6.030   4.323   1.685
13990TIP3    H141913   6.051   4.332   1.778
13990TIP3    H241914   6.061   4.235   1.662
13991TIP3   OH241915   4.352   7.171   5.931
13991TIP3    H141916   4.374   7.134   5.845
13991TIP3    H241917   4.275   7.122   5.960
13992TIP3   OH241918   7.318   2.084   1.111
13992TIP3    H141919   7.309   2.040   1.195
13992TIP3    H241920   7.228   2.098   1.081
13993TIP3   OH241921   0.153   5.664   3.952
13993TIP3    H141922   0.150   5.692   4.043
13993TIP3    H241923   0.237   5.697   3.919
13994TIP3   OH241924   2.102   1.349   4.721
13994TIP3    H141925   2.039   1.294   4.673
13994TIP3    H241926   2.052   1.383   4.795
13995TIP3   OH241927   2.008   6.332   0.891
13995TIP3    H141928   2.052   6.378   0.820
13995TIP3    H241929   2.046   6.245   0.891
13996TIP3   OH241930   5.846   2.162   3.200
13996TIP3    H141931   5.798   2.090   3.161
13996TIP3    H241932   5.816   2.240   3.152
13997TIP3   OH241933   2.491   0.895   2.720
13997TIP3    H141934   2.476   0.802   2.736
13997TIP3    H241935   2.580   0.900   2.686
13998TIP3   OH241936   1.681   5.047  -0.038
13998TIP3    H141937   1.722   5.052   0.048
13998TIP3    H241938   1.614   5.116  -0.037
13999TIP3   OH241939   1.105   5.108   5.843
13999TIP3    H141940   1.040   5.080   5.908
13999TIP3    H241941   1.188   5.107   5.892
14000TIP3   OH241942   3.011   1.265   0.127
14000TIP3    H141943   3.052   1.352   0.127
14000TIP3    H241944   2.921   1.281   0.097
14001TIP3   OH241945   6.712   0.366   1.107
14001TIP3    H141946   6.739   0.452   1.076
14001TIP3    H241947   6.638   0.342   1.052
14002TIP3   OH241948   5.155   5.813   5.738
14002TIP3    H141949   5.085   5.769   5.690
14002TIP3    H241950   5.112   5.888   5.779
14003TIP3   OH241951   2.050   3.219   0.366
14003TIP3    H141952   1.963   3.244   0.334
14003TIP3    H241953   2.046   3.232   0.460
14004TIP3   OH241954   4.258   7.060   1.340
14004TIP3    H141955   4.250   7.005   1.418
14004TIP3    H241956   4.246   7.000   1.267
14005TIP3   OH241957   2.595   6.451   3.006
14005TIP3    H141958   2.596   6.355   3.005
14005TIP3    H241959   2.521   6.475   2.949
14006TIP3   OH241960   1.400   3.839   2.914
14006TIP3    H141961   1.339   3.887   2.858
14006TIP3    H241962   1.347   3.810   2.988
14007TIP3   OH241963   5.460   0.082   3.116
14007TIP3    H141964   5.491   0.171   3.136
14007TIP3    H241965   5.366   0.085   3.134
14008TIP3   OH241966   1.518   6.891   3.379
14008TIP3    H141967   1.449   6.939   3.333
14008TIP3    H241968   1.563   6.958   3.431
14009TIP3   OH241969   3.278   7.071   5.745
14009TIP3    H141970   3.201   7.105   5.700
14009TIP3    H241971   3.298   6.988   5.701
14010TIP3   OH241972   1.855   7.150   2.904
14010TIP3    H141973   1.901   7.067   2.913
14010TIP3    H241974   1.867   7.194   2.989
14011TIP3   OH241975   4.591   4.801   2.514
14011TIP3    H141976   4.672   4.837   2.550
14011TIP3    H241977   4.523   4.864   2.539
14012TIP3   OH241978   5.943   1.690   0.458
14012TIP3    H141979   5.943   1.617   0.395
14012TIP3    H241980   5.850   1.714   0.467
14013TIP3   OH241981   2.780   3.814   1.001
14013TIP3    H141982   2.868   3.847   1.023
14013TIP3    H241983   2.775   3.821   0.906
14014TIP3   OH241984   3.256   0.754   3.785
14014TIP3    H141985   3.231   0.830   3.836
14014TIP3    H241986   3.220   0.679   3.834
14015TIP3   OH241987   6.101   7.331   0.254
14015TIP3    H141988   6.122   7.284   0.335
14015TIP3    H241989   6.113   7.423   0.275
14016TIP3   OH241990   3.807   1.057   0.847
14016TIP3    H141991   3.748   1.094   0.781
14016TIP3    H241992   3.766   0.974   0.871
14017TIP3   OH241993   2.588   4.074   5.239
14017TIP3    H141994   2.649   4.101   5.307
14017TIP3    H241995   2.509   4.049   5.286
14018TIP3   OH241996   3.843   2.107   1.957
14018TIP3    H141997   3.762   2.113   2.007
14018TIP3    H241998   3.869   2.198   1.942
14019TIP3   OH241999   4.029   3.481   5.550
14019TIP3    H142000   3.966   3.537   5.504
14019TIP3    H242001   3.992   3.393   5.544
14020TIP3   OH242002   6.631   6.297   5.766
14020TIP3    H142003   6.662   6.257   5.685
14020TIP3    H242004   6.685   6.376   5.776
14021TIP3   OH242005   1.591   4.420   1.622
14021TIP3    H142006   1.576   4.456   1.709
14021TIP3    H242007   1.532   4.470   1.565
14022TIP3   OH242008   7.718   0.130   6.051
14022TIP3    H142009   7.624   0.139   6.068
14022TIP3    H242010   7.750   0.220   6.046
14023TIP3   OH242011   3.732   3.742   5.155
14023TIP3    H142012   3.791   3.795   5.102
14023TIP3    H242013   3.661   3.803   5.178
14024TIP3   OH242014   3.715   2.388   1.235
14024TIP3    H142015   3.721   2.304   1.281
14024TIP3    H242016   3.674   2.447   1.297
14025TIP3   OH242017   3.432   2.347   1.450
14025TIP3    H142018   3.499   2.414   1.465
14025TIP3    H242019   3.463   2.271   1.499
14026TIP3   OH242020   1.342   0.336   4.906
14026TIP3    H142021   1.284   0.301   4.974
14026TIP3    H242022   1.426   0.295   4.923
14027TIP3   OH242023   0.203   1.181   0.028
14027TIP3    H142024   0.232   1.229  -0.051
14027TIP3    H242025   0.282   1.174   0.081
14028TIP3   OH242026   5.667   4.584   3.793
14028TIP3    H142027   5.612   4.656   3.825
14028TIP3    H242028   5.695   4.538   3.872
14029TIP3   OH242029   7.046   5.366   3.273
14029TIP3    H142030   6.992   5.338   3.347
14029TIP3    H242031   7.012   5.317   3.199
14030TIP3   OH242032   0.916   0.850   2.808
14030TIP3    H142033   0.845   0.803   2.766
14030TIP3    H242034   0.892   0.854   2.901
14031TIP3   OH242035   7.968   7.803   3.548
14031TIP3    H142036   7.923   7.870   3.600
14031TIP3    H242037   8.047   7.783   3.598
14032TIP3   OH242038   7.034   2.711   0.410
14032TIP3    H142039   6.983   2.792   0.412
14032TIP3    H242040   7.121   2.738   0.441
14033TIP3   OH242041   7.581   3.116   2.447
14033TIP3    H142042   7.646   3.046   2.444
14033TIP3    H242043   7.502   3.078   2.409
14034TIP3   OH242044   7.728   7.639   6.219
14034TIP3    H142045   7.787   7.712   6.241
14034TIP3    H242046   7.786   7.567   6.196
14035TIP3   OH242047   5.738   6.879   3.059
14035TIP3    H142048   5.737   6.820   3.134
14035TIP3    H242049   5.794   6.836   2.994
14036TIP3   OH242050   0.191   1.173   3.176
14036TIP3    H142051   0.144   1.163   3.258
14036TIP3    H242052   0.243   1.253   3.187
14037TIP3   OH242053   4.218   3.944   1.773
14037TIP3    H142054   4.251   3.964   1.861
14037TIP3    H242055   4.148   4.007   1.759
14038TIP3   OH242056   0.935   5.875   4.869
14038TIP3    H142057   1.001   5.941   4.849
14038TIP3    H242058   0.954   5.803   4.808
14039TIP3   OH242059   7.090   1.241   5.620
14039TIP3    H142060   7.096   1.276   5.709
14039TIP3    H242061   6.999   1.211   5.613
14040TIP3   OH242062   0.171   0.441   2.961
14040TIP3    H142063   0.265   0.456   2.945
14040TIP3    H242064   0.168   0.398   3.046
14041TIP3   OH242065   1.511   3.528   4.717
14041TIP3    H142066   1.561   3.568   4.789
14041TIP3    H242067   1.460   3.601   4.681
14042TIP3   OH242068   4.696   5.481   5.166
14042TIP3    H142069   4.651   5.459   5.247
14042TIP3    H242070   4.632   5.464   5.097
14043TIP3   OH242071   4.202   5.633   2.764
14043TIP3    H142072   4.229   5.665   2.678
14043TIP3    H242073   4.107   5.640   2.763
14044TIP3   OH242074   4.331   6.969   6.726
14044TIP3    H142075   4.395   7.039   6.739
14044TIP3    H242076   4.254   7.014   6.690
14045TIP3   OH242077   5.708   7.385   5.448
14045TIP3    H142078   5.737   7.474   5.468
14045TIP3    H242079   5.643   7.396   5.379
14046TIP3   OH242080   6.172   2.881   3.421
14046TIP3    H142081   6.164   2.934   3.342
14046TIP3    H242082   6.162   2.791   3.391
14047TIP3   OH242083   4.401   3.660   3.197
14047TIP3    H142084   4.362   3.592   3.141
14047TIP3    H242085   4.494   3.661   3.171
14048TIP3   OH242086   0.159   6.064   1.814
14048TIP3    H142087   0.115   6.116   1.746
14048TIP3    H242088   0.139   5.973   1.792
14049TIP3   OH242089   0.046   3.586   5.221
14049TIP3    H142090   0.051   3.678   5.195
14049TIP3    H242091  -0.035   3.581   5.272
14050TIP3   OH242092   7.189   3.115   1.559
14050TIP3    H142093   7.111   3.092   1.510
14050TIP3    H242094   7.262   3.083   1.506
14051TIP3   OH242095   3.705   1.944   6.442
14051TIP3    H142096   3.772   1.937   6.511
14051TIP3    H242097   3.709   2.035   6.413
14052TIP3   OH242098  -0.010   3.386   5.039
14052TIP3    H142099  -0.043   3.451   5.101
14052TIP3    H242100   0.065   3.346   5.082
14053TIP3   OH242101   2.741   0.701   2.618
14053TIP3    H142102   2.822   0.663   2.584
14053TIP3    H242103   2.766   0.744   2.699
14054TIP3   OH242104   2.450   3.046   3.899
14054TIP3    H142105   2.371   2.994   3.885
14054TIP3    H242106   2.501   2.995   3.962
14055TIP3   OH242107   3.016   2.794   5.814
14055TIP3    H142108   2.989   2.872   5.766
14055TIP3    H242109   3.111   2.796   5.812
14056TIP3   OH242110   5.232   3.497   5.544
14056TIP3    H142111   5.150   3.543   5.562
14056TIP3    H242112   5.230   3.420   5.602
14057TIP3   OH242113   0.356   0.630   1.558
14057TIP3    H142114   0.321   0.684   1.487
14057TIP3    H242115   0.421   0.686   1.601
14058TIP3   OH242116   1.117   2.081   5.034
14058TIP3    H142117   1.169   2.024   5.091
14058TIP3    H242118   1.174   2.098   4.959
14059TIP3   OH242119   7.954   7.182   5.864
14059TIP3    H142120   7.909   7.224   5.790
14059TIP3    H242121   8.043   7.217   5.861
14060TIP3   OH242122   4.323   2.886   6.402
14060TIP3    H142123   4.243   2.866   6.354
14060TIP3    H242124   4.390   2.830   6.363
14061TIP3   OH242125   3.020   7.118   0.700
14061TIP3    H142126   2.991   7.087   0.613
14061TIP3    H242127   2.957   7.079   0.761
14062TIP3   OH242128   1.593   5.116   1.376
14062TIP3    H142129   1.663   5.163   1.423
14062TIP3    H242130   1.593   5.029   1.415
14063TIP3   OH242131   6.278   4.459   5.890
14063TIP3    H142132   6.255   4.483   5.801
14063TIP3    H242133   6.198   4.476   5.941
14064TIP3   OH242134   3.919   3.993   2.791
14064TIP3    H142135   3.932   4.000   2.697
14064TIP3    H242136   3.858   4.063   2.813
14065TIP3   OH242137   4.191   2.212   2.827
14065TIP3    H142138   4.100   2.239   2.816
14065TIP3    H242139   4.240   2.293   2.829
14066TIP3   OH242140   4.340   3.163   5.322
14066TIP3    H142141   4.332   3.159   5.227
14066TIP3    H242142   4.250   3.161   5.354
14067TIP3   OH242143   7.251   0.474   6.155
14067TIP3    H142144   7.334   0.521   6.154
14067TIP3    H242145   7.230   0.465   6.248
14068TIP3   OH242146   2.628   7.776   5.095
14068TIP3    H142147   2.711   7.781   5.048
14068TIP3    H242148   2.562   7.775   5.026
14069TIP3   OH242149   4.394   6.633   2.961
14069TIP3    H142150   4.407   6.551   3.008
14069TIP3    H242151   4.420   6.701   3.023
14070TIP3   OH242152   1.976   7.114   3.641
14070TIP3    H142153   1.976   7.171   3.717
14070TIP3    H242154   1.885   7.083   3.634
14071TIP3   OH242155   3.761   6.872   2.516
14071TIP3    H142156   3.696   6.808   2.545
14071TIP3    H242157   3.792   6.838   2.432
14072TIP3   OH242158   4.489   6.664   2.597
14072TIP3    H142159   4.428   6.670   2.671
14072TIP3    H242160   4.576   6.672   2.638
14073TIP3   OH242161   6.322   3.311   2.029
14073TIP3    H142162   6.357   3.328   1.942
14073TIP3    H242163   6.362   3.378   2.084
14074TIP3   OH242164   7.229   7.193   5.803
14074TIP3    H142165   7.158   7.217   5.743
14074TIP3    H242166   7.192   7.209   5.890
14075TIP3   OH242167   2.228   6.441   3.887
14075TIP3    H142168   2.228   6.537   3.890
14075TIP3    H242169   2.151   6.416   3.939
14076TIP3   OH242170   3.932   3.664   1.632
14076TIP3    H142171   4.023   3.652   1.655
14076TIP3    H242172   3.890   3.696   1.712
14077TIP3   OH242173   7.934   6.825   5.120
14077TIP3    H142174   7.954   6.918   5.125
14077TIP3    H242175   7.957   6.791   5.207
14078TIP3   OH242176   8.240   2.727   1.892
14078TIP3    H142177   8.243   2.642   1.848
14078TIP3    H242178   8.274   2.709   1.980
14079TIP3   OH242179   5.237   2.069   5.572
14079TIP3    H142180   5.271   2.008   5.637
14079TIP3    H242181   5.265   2.155   5.603
14080TIP3   OH242182   2.115   1.923   2.128
14080TIP3    H142183   2.138   1.850   2.072
14080TIP3    H242184   2.045   1.969   2.081
14081TIP3   OH242185   5.176   3.332   2.196
14081TIP3    H142186   5.137   3.360   2.278
14081TIP3    H242187   5.270   3.329   2.214
14082TIP3   OH242188   4.936   0.402   3.909
14082TIP3    H142189   4.851   0.445   3.902
14082TIP3    H242190   4.930   0.325   3.853
14083TIP3   OH242191   2.939   4.232   5.644
14083TIP3    H142192   2.964   4.208   5.733
14083TIP3    H242193   2.957   4.155   5.591
14084TIP3   OH242194   0.675   1.682   1.795
14084TIP3    H142195   0.766   1.662   1.816
14084TIP3    H242196   0.639   1.599   1.763
14085TIP3   OH242197   2.844   5.769   6.064
14085TIP3    H142198   2.925   5.787   6.111
14085TIP3    H242199   2.789   5.723   6.127
14086TIP3   OH242200   8.254   6.712   2.857
14086TIP3    H142201   8.224   6.769   2.927
14086TIP3    H242202   8.175   6.683   2.813
14087TIP3   OH242203   3.225   0.132   1.799
14087TIP3    H142204   3.178   0.198   1.748
14087TIP3    H242205   3.213   0.159   1.890
14088TIP3   OH242206   3.988   1.078   0.313
14088TIP3    H142207   4.076   1.041   0.325
14088TIP3    H242208   3.965   1.055   0.223
14089TIP3   OH242209   4.971   7.186   6.153
14089TIP3    H142210   4.938   7.206   6.241
14089TIP3    H242211   4.999   7.271   6.119
14090TIP3   OH242212   2.926   3.899   4.645
14090TIP3    H142213   2.844   3.901   4.595
14090TIP3    H242214   2.929   3.811   4.681
14091TIP3   OH242215   2.467   6.446   6.203
14091TIP3    H142216   2.376   6.466   6.181
14091TIP3    H242217   2.479   6.484   6.290
14092TIP3   OH242218   8.218   0.681   1.425
14092TIP3    H142219   8.277   0.672   1.351
14092TIP3    H242220   8.139   0.633   1.399
14093TIP3   OH242221   1.348   0.257   1.926
14093TIP3    H142222   1.387   0.212   1.851
14093TIP3    H242223   1.254   0.245   1.915
14094TIP3   OH242224   6.480   2.435   4.983
14094TIP3    H142225   6.566   2.405   5.011
14094TIP3    H242226   6.431   2.449   5.064
14095TIP3   OH242227   7.975   1.095   4.247
14095TIP3    H142228   7.978   1.140   4.162
14095TIP3    H242229   7.883   1.070   4.257
14096TIP3   OH242230   2.527   4.981   0.260
14096TIP3    H142231   2.531   4.898   0.307
14096TIP3    H242232   2.500   4.956   0.171
14097TIP3   OH242233   3.358   5.936   1.735
14097TIP3    H142234   3.334   6.011   1.790
14097TIP3    H242235   3.338   5.965   1.645
14098TIP3   OH242236   1.580   3.659   3.501
14098TIP3    H142237   1.639   3.662   3.426
14098TIP3    H242238   1.567   3.566   3.517
14099TIP3   OH242239   7.575   6.844   0.680
14099TIP3    H142240   7.529   6.861   0.598
14099TIP3    H242241   7.508   6.807   0.737
14100TIP3   OH242242   2.008   6.323   6.168
14100TIP3    H142243   2.047   6.236   6.174
14100TIP3    H242244   1.962   6.324   6.084
14101TIP3   OH242245   6.979   0.510   0.474
14101TIP3    H142246   6.981   0.476   0.564
14101TIP3    H242247   7.056   0.471   0.433
14102TIP3   OH242248   1.570   0.317   0.681
14102TIP3    H142249   1.546   0.398   0.727
14102TIP3    H242250   1.486   0.278   0.657
14103TIP3   OH242251   4.615   7.134   0.946
14103TIP3    H142252   4.525   7.166   0.953
14103TIP3    H242253   4.608   7.054   0.895
14104TIP3   OH242254   2.035   4.073   4.372
14104TIP3    H142255   1.987   3.989   4.373
14104TIP3    H242256   2.038   4.097   4.279
14105TIP3   OH242257   6.232   1.841   6.229
14105TIP3    H142258   6.226   1.936   6.220
14105TIP3    H242259   6.158   1.808   6.178
14106TIP3   OH242260   3.587   1.932   1.340
14106TIP3    H142261   3.547   1.992   1.277
14106TIP3    H242262   3.598   1.850   1.291
14107TIP3   OH242263   0.602   7.621   3.355
14107TIP3    H142264   0.683   7.594   3.312
14107TIP3    H242265   0.606   7.717   3.358
14108TIP3   OH242266   0.355   6.437   5.774
14108TIP3    H142267   0.268   6.399   5.758
14108TIP3    H242268   0.351   6.470   5.864
14109TIP3   OH242269   3.084   5.578   4.322
14109TIP3    H142270   3.135   5.571   4.402
14109TIP3    H242271   3.039   5.494   4.314
14110TIP3   OH242272   6.708   5.855   0.349
14110TIP3    H142273   6.659   5.917   0.403
14110TIP3    H242274   6.800   5.879   0.360
14111TIP3   OH242275   5.974   2.031   0.880
14111TIP3    H142276   5.950   1.980   0.958
14111TIP3    H242277   5.943   1.978   0.807
14112TIP3   OH242278   4.125   2.267   4.956
14112TIP3    H142279   4.042   2.315   4.959
14112TIP3    H242280   4.159   2.283   4.867
14113TIP3   OH242281   8.140   3.381   0.480
14113TIP3    H142282   8.071   3.362   0.543
14113TIP3    H242283   8.158   3.475   0.491
14114TIP3   OH242284   1.341   4.169   0.015
14114TIP3    H142285   1.307   4.085   0.044
14114TIP3    H242286   1.378   4.209   0.094
14115TIP3   OH242287   0.620   1.466   0.777
14115TIP3    H142288   0.651   1.381   0.808
14115TIP3    H242289   0.533   1.475   0.815
14116TIP3   OH242290   3.558   3.675   1.018
14116TIP3    H142291   3.464   3.665   1.001
14116TIP3    H242292   3.567   3.665   1.113
14117TIP3   OH242293   8.210   1.401   6.281
14117TIP3    H142294   8.246   1.482   6.244
14117TIP3    H242295   8.266   1.383   6.356
14118TIP3   OH242296   4.949   4.878   5.180
14118TIP3    H142297   5.023   4.820   5.167
14118TIP3    H242298   4.945   4.890   5.275
14119TIP3   OH242299   4.476   1.699   5.532
14119TIP3    H142300   4.531   1.712   5.455
14119TIP3    H242301   4.535   1.712   5.606
14120TIP3   OH242302   1.218   5.272   3.954
14120TIP3    H142303   1.264   5.290   4.036
14120TIP3    H242304   1.197   5.179   3.959
14121TIP3   OH242305   5.325   6.064   1.808
14121TIP3    H142306   5.406   6.114   1.797
14121TIP3    H242307   5.262   6.109   1.751
14122TIP3   OH242308   8.026   7.510   0.646
14122TIP3    H142309   8.096   7.574   0.637
14122TIP3    H242310   8.070   7.431   0.679
14123TIP3   OH242311   8.153   3.587   5.434
14123TIP3    H142312   8.174   3.666   5.485
14123TIP3    H242313   8.094   3.537   5.491
14124TIP3   OH242314   6.872   4.030   2.095
14124TIP3    H142315   6.879   3.947   2.049
14124TIP3    H242316   6.813   4.083   2.041
14125TIP3   OH242317   3.269   1.879   2.633
14125TIP3    H142318   3.182   1.843   2.616
14125TIP3    H242319   3.267   1.967   2.595
14126TIP3   OH242320   7.832   2.420  -0.027
14126TIP3    H142321   7.778   2.478  -0.082
14126TIP3    H242322   7.774   2.396   0.046
14127TIP3   OH242323   2.622   5.330   4.864
14127TIP3    H142324   2.589   5.353   4.777
14127TIP3    H242325   2.717   5.337   4.856
14128TIP3   OH242326   8.198   4.227   3.089
14128TIP3    H142327   8.223   4.182   3.008
14128TIP3    H242328   8.106   4.206   3.100
14129TIP3   OH242329   2.954   4.434   0.527
14129TIP3    H142330   2.977   4.346   0.555
14129TIP3    H242331   3.015   4.454   0.456
14130TIP3   OH242332   4.065   2.532   2.475
14130TIP3    H142333   4.015   2.478   2.414
14130TIP3    H242334   4.020   2.522   2.559
14131TIP3   OH242335   7.607   0.714   0.564
14131TIP3    H142336   7.618   0.777   0.492
14131TIP3    H242337   7.657   0.637   0.536
14132TIP3   OH242338   4.010   7.334   0.061
14132TIP3    H142339   4.097   7.318   0.099
14132TIP3    H242340   3.998   7.429   0.066
14133TIP3   OH242341   6.115   3.227   3.977
14133TIP3    H142342   6.139   3.216   4.069
14133TIP3    H242343   6.142   3.144   3.936
14134TIP3   OH242344   5.686   6.587   2.251
14134TIP3    H142345   5.709   6.494   2.250
14134TIP3    H242346   5.591   6.589   2.242
14135TIP3   OH242347   3.963   3.010   4.039
14135TIP3    H142348   4.056   3.028   4.058
14135TIP3    H242349   3.925   2.988   4.124
14136TIP3   OH242350   2.518   5.092   2.818
14136TIP3    H142351   2.610   5.070   2.830
14136TIP3    H242352   2.476   5.066   2.900
14137TIP3   OH242353   7.575   3.093   3.501
14137TIP3    H142354   7.633   3.024   3.533
14137TIP3    H242355   7.632   3.154   3.455
14138TIP3   OH242356   5.020   6.468   0.415
14138TIP3    H142357   4.975   6.526   0.353
14138TIP3    H242358   4.988   6.495   0.501
14139TIP3   OH242359   2.693   0.514   1.250
14139TIP3    H142360   2.761   0.572   1.216
14139TIP3    H242361   2.740   0.437   1.282
14140TIP3   OH242362   4.198   7.472   5.458
14140TIP3    H142363   4.228   7.544   5.402
14140TIP3    H242364   4.224   7.498   5.546
14141TIP3   OH242365   6.408   5.642   2.504
14141TIP3    H142366   6.457   5.639   2.423
14141TIP3    H242367   6.328   5.690   2.483
14142TIP3   OH242368   0.561   5.680   2.429
14142TIP3    H142369   0.634   5.709   2.483
14142TIP3    H242370   0.576   5.722   2.344
14143TIP3   OH242371   3.230   6.549   0.386
14143TIP3    H142372   3.318   6.573   0.357
14143TIP3    H242373   3.192   6.631   0.417
14144TIP3   OH242374   2.693   3.155   1.036
14144TIP3    H142375   2.597   3.161   1.032
14144TIP3    H242376   2.711   3.130   1.127
14145TIP3   OH242377   5.563   6.827   1.313
14145TIP3    H142378   5.508   6.762   1.356
14145TIP3    H242379   5.501   6.886   1.269
14146TIP3   OH242380   0.574   6.077   4.093
14146TIP3    H142381   0.665   6.102   4.080
14146TIP3    H242382   0.556   6.095   4.185
14147TIP3   OH242383   7.967   0.484   3.643
14147TIP3    H142384   7.951   0.477   3.549
14147TIP3    H242385   8.054   0.446   3.656
14148TIP3   OH242386   2.617   7.767   6.693
14148TIP3    H142387   2.541   7.818   6.720
14148TIP3    H242388   2.687   7.832   6.684
14149TIP3   OH242389   1.536   2.501   1.371
14149TIP3    H142390   1.544   2.510   1.276
14149TIP3    H242391   1.483   2.423   1.384
14150TIP3   OH242392   7.667   5.604   4.894
14150TIP3    H142393   7.760   5.619   4.909
14150TIP3    H242394   7.663   5.561   4.808
14151TIP3   OH242395   1.851   4.588   5.261
14151TIP3    H142396   1.908   4.624   5.328
14151TIP3    H242397   1.776   4.553   5.309
14152TIP3   OH242398   6.454   5.741   1.801
14152TIP3    H142399   6.399   5.770   1.874
14152TIP3    H242400   6.525   5.804   1.798
14153TIP3   OH242401   1.811   5.604   2.091
14153TIP3    H142402   1.883   5.667   2.083
14153TIP3    H242403   1.821   5.567   2.179
14154TIP3   OH242404   1.063   5.940   5.824
14154TIP3    H142405   1.006   5.865   5.841
14154TIP3    H242406   1.145   5.902   5.791
14155TIP3   OH242407   4.474   2.915   1.533
14155TIP3    H142408   4.498   2.952   1.618
14155TIP3    H242409   4.554   2.922   1.480
14156TIP3   OH242410   1.058   1.888   6.289
14156TIP3    H142411   1.104   1.810   6.257
14156TIP3    H242412   0.965   1.866   6.280
14157TIP3   OH242413   1.228   0.332   0.423
14157TIP3    H142414   1.145   0.381   0.421
14157TIP3    H242415   1.294   0.397   0.443
14158TIP3   OH242416   4.773   5.063   4.027
14158TIP3    H142417   4.823   5.109   4.094
14158TIP3    H242418   4.743   5.132   3.968
14159TIP3   OH242419   8.255   6.340   4.086
14159TIP3    H142420   8.247   6.252   4.049
14159TIP3    H242421   8.201   6.394   4.028
14160TIP3   OH242422   6.930   2.723   1.480
14160TIP3    H142423   7.018   2.754   1.503
14160TIP3    H242424   6.925   2.636   1.518
14161TIP3   OH242425   4.262   5.647   3.880
14161TIP3    H142426   4.203   5.713   3.844
14161TIP3    H242427   4.332   5.698   3.921
14162TIP3   OH242428   4.659   2.110   3.220
14162TIP3    H142429   4.678   2.072   3.305
14162TIP3    H242430   4.722   2.182   3.210
14163TIP3   OH242431   2.304   4.341   4.195
14163TIP3    H142432   2.394   4.334   4.226
14163TIP3    H242433   2.251   4.315   4.271
14164TIP3   OH242434   2.062   3.986   5.330
14164TIP3    H142435   2.072   4.066   5.280
14164TIP3    H242436   2.009   4.010   5.405
14165TIP3   OH242437   4.484   4.680   4.980
14165TIP3    H142438   4.393   4.688   5.011
14165TIP3    H242439   4.485   4.725   4.896
14166TIP3   OH242440   2.997   2.696   1.794
14166TIP3    H142441   2.998   2.602   1.815
14166TIP3    H242442   2.911   2.726   1.821
14167TIP3   OH242443   0.535   6.142   2.930
14167TIP3    H142444   0.512   6.068   2.987
14167TIP3    H242445   0.497   6.218   2.974
14168TIP3   OH242446   3.553   0.195   2.205
14168TIP3    H142447   3.591   0.248   2.275
14168TIP3    H242448   3.572   0.105   2.231
14169TIP3   OH242449   1.635   7.263   1.453
14169TIP3    H142450   1.570   7.261   1.524
14169TIP3    H242451   1.600   7.327   1.391
14170TIP3   OH242452   4.325   1.169   4.677
14170TIP3    H142453   4.385   1.172   4.603
14170TIP3    H242454   4.336   1.253   4.721
14171TIP3   OH242455   2.268   2.707   1.701
14171TIP3    H142456   2.289   2.682   1.791
14171TIP3    H242457   2.219   2.788   1.710
14172TIP3   OH242458   2.750   6.169   0.658
14172TIP3    H142459   2.670   6.204   0.620
14172TIP3    H242460   2.750   6.077   0.632
14173TIP3   OH242461   4.686   0.362   3.452
14173TIP3    H142462   4.761   0.302   3.444
14173TIP3    H242463   4.654   0.372   3.362
14174TIP3   OH242464   5.577   5.710   2.843
14174TIP3    H142465   5.539   5.694   2.757
14174TIP3    H242466   5.515   5.768   2.886
14175TIP3   OH242467   0.863   7.071   3.874
14175TIP3    H142468   0.809   7.038   3.945
14175TIP3    H242469   0.851   7.166   3.877
14176TIP3   OH242470   4.554   2.309   0.635
14176TIP3    H142471   4.557   2.218   0.665
14176TIP3    H242472   4.465   2.321   0.603
14177TIP3   OH242473   1.356   5.482   4.401
14177TIP3    H142474   1.284   5.493   4.339
14177TIP3    H242475   1.335   5.541   4.474
14178TIP3   OH242476   2.517   5.941   5.134
14178TIP3    H142477   2.495   6.002   5.205
14178TIP3    H242478   2.459   5.967   5.062
14179TIP3   OH242479   4.772   4.914   1.437
14179TIP3    H142480   4.703   4.866   1.390
14179TIP3    H242481   4.851   4.900   1.385
14180TIP3   OH242482   3.685   1.445   0.307
14180TIP3    H142483   3.645   1.417   0.389
14180TIP3    H242484   3.776   1.416   0.313
14181TIP3   OH242485   6.074   0.149   1.955
14181TIP3    H142486   6.058   0.145   2.050
14181TIP3    H242487   6.023   0.076   1.919
14182TIP3   OH242488   3.928   2.524   6.181
14182TIP3    H142489   3.850   2.529   6.125
14182TIP3    H242490   3.907   2.458   6.246
14183TIP3   OH242491   5.177   2.629   0.186
14183TIP3    H142492   5.266   2.629   0.151
14183TIP3    H242493   5.158   2.721   0.204
14184TIP3   OH242494   0.507   7.736   2.409
14184TIP3    H142495   0.577   7.688   2.366
14184TIP3    H242496   0.426   7.699   2.371
14185TIP3   OH242497   3.097   5.109   6.121
14185TIP3    H142498   3.161   5.109   6.193
14185TIP3    H242499   3.057   5.196   6.124
14186TIP3   OH242500   1.984   3.247   1.430
14186TIP3    H142501   2.032   3.330   1.438
14186TIP3    H242502   1.952   3.230   1.518
14187TIP3   OH242503   2.652   1.218   5.539
14187TIP3    H142504   2.680   1.309   5.546
14187TIP3    H242505   2.712   1.171   5.597
14188TIP3   OH242506   3.045   7.345   4.853
14188TIP3    H142507   3.057   7.256   4.820
14188TIP3    H242508   2.997   7.390   4.784
14189TIP3   OH242509   4.437   7.121   4.662
14189TIP3    H142510   4.438   7.033   4.699
14189TIP3    H242511   4.494   7.172   4.721
14190TIP3   OH242512   5.335   4.042   2.265
14190TIP3    H142513   5.328   4.060   2.171
14190TIP3    H242514   5.399   4.105   2.297
14191TIP3   OH242515   7.771   0.673   5.059
14191TIP3    H142516   7.819   0.742   5.013
14191TIP3    H242517   7.760   0.604   4.993
14192TIP3   OH242518   8.168   6.515   5.582
14192TIP3    H142519   8.177   6.589   5.642
14192TIP3    H242520   8.099   6.541   5.521
14193TIP3   OH242521   5.640   1.074   0.548
14193TIP3    H142522   5.580   1.102   0.479
14193TIP3    H242523   5.678   0.992   0.514
14194TIP3   OH242524   3.113   2.373   2.479
14194TIP3    H142525   3.081   2.379   2.569
14194TIP3    H242526   3.095   2.459   2.441
14195TIP3   OH242527   5.465   3.965   3.838
14195TIP3    H142528   5.525   3.892   3.821
14195TIP3    H242529   5.387   3.924   3.874
14196TIP3   OH242530   4.231   3.952   2.375
14196TIP3    H142531   4.306   3.981   2.427
14196TIP3    H242532   4.201   4.031   2.330
14197TIP3   OH242533   1.496   6.465   5.983
14197TIP3    H142534   1.507   6.529   6.053
14197TIP3    H242535   1.518   6.513   5.903
14198TIP3   OH242536   5.057   5.359   1.891
14198TIP3    H142537   4.995   5.385   1.960
14198TIP3    H242538   5.013   5.383   1.809
14199TIP3   OH242539   2.977   4.013   5.515
14199TIP3    H142540   2.892   3.972   5.499
14199TIP3    H242541   3.032   3.980   5.444
14200TIP3   OH242542   7.537   6.794   2.847
14200TIP3    H142543   7.559   6.715   2.896
14200TIP3    H242544   7.492   6.761   2.769
14201TIP3   OH242545   8.082   7.705   2.301
14201TIP3    H142546   8.049   7.616   2.307
14201TIP3    H242547   8.074   7.740   2.390
14202TIP3   OH242548   3.111   6.930   3.187
14202TIP3    H142549   3.195   6.898   3.222
14202TIP3    H242550   3.046   6.868   3.219
14203TIP3   OH242551   3.040   6.129   1.665
14203TIP3    H142552   2.986   6.068   1.613
14203TIP3    H242553   3.120   6.080   1.684
14204TIP3   OH242554   6.029   3.716   2.867
14204TIP3    H142555   6.097   3.652   2.888
14204TIP3    H242556   5.958   3.695   2.929
14205TIP3   OH242557   7.220   3.751   0.294
14205TIP3    H142558   7.225   3.823   0.231
14205TIP3    H242559   7.130   3.755   0.328
14206TIP3   OH242560   2.690   6.774   2.420
14206TIP3    H142561   2.629   6.847   2.427
14206TIP3    H242562   2.714   6.771   2.328
14207TIP3   OH242563   4.640   3.925   1.740
14207TIP3    H142564   4.628   3.869   1.816
14207TIP3    H242565   4.633   3.866   1.665
14208TIP3   OH242566   4.846   3.730   3.929
14208TIP3    H142567   4.874   3.805   3.982
14208TIP3    H242568   4.770   3.695   3.975
14209TIP3   OH242569   1.125   2.257   0.738
14209TIP3    H142570   1.139   2.328   0.800
14209TIP3    H242571   1.167   2.286   0.657
14210TIP3   OH242572   2.649   0.074   4.861
14210TIP3    H142573   2.670   0.153   4.811
14210TIP3    H242574   2.639   0.006   4.795
14211TIP3   OH242575   7.629   3.973   5.991
14211TIP3    H142576   7.679   4.026   5.929
14211TIP3    H242577   7.692   3.946   6.057
14212TIP3   OH242578   7.618   7.271   5.883
14212TIP3    H142579   7.611   7.193   5.826
14212TIP3    H242580   7.649   7.340   5.825
14213TIP3   OH242581   1.196   1.487   0.211
14213TIP3    H142582   1.111   1.526   0.190
14213TIP3    H242583   1.211   1.510   0.303
14214TIP3   OH242584   0.901   1.220   1.665
14214TIP3    H142585   0.981   1.262   1.634
14214TIP3    H242586   0.932   1.154   1.728
14215TIP3   OH242587   0.902   1.054   3.495
14215TIP3    H142588   0.925   1.145   3.514
14215TIP3    H242589   0.871   1.018   3.578
14216TIP3   OH242590   4.809   0.732   3.776
14216TIP3    H142591   4.859   0.798   3.824
14216TIP3    H242592   4.723   0.731   3.818
14217TIP3   OH242593   5.169   0.092   0.427
14217TIP3    H142594   5.221   0.126   0.500
14217TIP3    H242595   5.118   0.020   0.465
14218TIP3   OH242596   2.418   2.991   4.567
14218TIP3    H142597   2.478   3.004   4.494
14218TIP3    H242598   2.438   2.904   4.600
14219TIP3   OH242599   3.848   5.205   2.533
14219TIP3    H142600   3.928   5.241   2.572
14219TIP3    H242601   3.777   5.252   2.577
14220TIP3   OH242602   3.798   1.863   1.104
14220TIP3    H142603   3.801   1.956   1.083
14220TIP3    H242604   3.883   1.845   1.146
14221TIP3   OH242605   7.354   2.683   2.424
14221TIP3    H142606   7.366   2.777   2.412
14221TIP3    H242607   7.380   2.645   2.339
14222TIP3   OH242608   3.144   6.607   4.457
14222TIP3    H142609   3.059   6.573   4.485
14222TIP3    H242610   3.157   6.686   4.510
14223TIP3   OH242611   6.499   1.022   2.629
14223TIP3    H142612   6.434   0.960   2.596
14223TIP3    H242613   6.575   1.011   2.572
14224TIP3   OH242614   3.391   3.498   2.158
14224TIP3    H142615   3.336   3.561   2.110
14224TIP3    H242616   3.424   3.439   2.090
14225TIP3   OH242617   4.376   7.388   0.881
14225TIP3    H142618   4.420   7.470   0.855
14225TIP3    H242619   4.302   7.381   0.820
14226TIP3   OH242620   2.215   6.601   1.742
14226TIP3    H142621   2.221   6.647   1.658
14226TIP3    H242622   2.150   6.533   1.727
14227TIP3   OH242623   1.582   3.145   3.151
14227TIP3    H142624   1.657   3.124   3.206
14227TIP3    H242625   1.619   3.177   3.069
14228TIP3   OH242626   6.873   6.449   4.218
14228TIP3    H142627   6.832   6.384   4.276
14228TIP3    H242628   6.803   6.475   4.158
14229TIP3   OH242629   7.847   4.158   0.954
14229TIP3    H142630   7.866   4.245   0.920
14229TIP3    H242631   7.880   4.098   0.887
14230TIP3   OH242632   1.593   3.096   2.708
14230TIP3    H142633   1.629   3.051   2.632
14230TIP3    H242634   1.514   3.138   2.676
14231TIP3   OH242635   6.743   2.306   1.267
14231TIP3    H142636   6.678   2.244   1.234
14231TIP3    H242637   6.752   2.372   1.199
14232TIP3   OH242638   1.702   5.540   5.397
14232TIP3    H142639   1.794   5.517   5.384
14232TIP3    H242640   1.701   5.635   5.403
14233TIP3   OH242641   3.319   6.281   3.191
14233TIP3    H142642   3.292   6.217   3.257
14233TIP3    H242643   3.256   6.270   3.120
14234TIP3   OH242644   8.274   1.023   1.440
14234TIP3    H142645   8.268   1.024   1.536
14234TIP3    H242646   8.201   0.966   1.412
14235TIP3   OH242647   5.411   4.978   6.067
14235TIP3    H142648   5.321   4.959   6.091
14235TIP3    H242649   5.428   5.065   6.104
14236TIP3   OH242650   0.238   2.429   3.487
14236TIP3    H142651   0.263   2.337   3.498
14236TIP3    H242652   0.280   2.456   3.406
14237TIP3   OH242653   0.258   7.434   4.225
14237TIP3    H142654   0.342   7.437   4.271
14237TIP3    H242655   0.196   7.398   4.288
14238TIP3   OH242656   7.269   3.506   0.424
14238TIP3    H142657   7.262   3.597   0.394
14238TIP3    H242658   7.253   3.454   0.345
14239TIP3   OH242659   3.757   7.332   1.287
14239TIP3    H142660   3.840   7.298   1.321
14239TIP3    H242661   3.690   7.273   1.323
14240TIP3   OH242662   2.047   0.351   0.391
14240TIP3    H142663   1.953   0.360   0.406
14240TIP3    H242664   2.071   0.274   0.443
14241TIP3   OH242665   1.913   6.474   5.318
14241TIP3    H142666   1.976   6.413   5.355
14241TIP3    H242667   1.967   6.540   5.273
14242TIP3   OH242668   7.688   2.720   6.302
14242TIP3    H142669   7.732   2.646   6.345
14242TIP3    H242670   7.731   2.728   6.217
14243TIP3   OH242671   5.759   3.896   2.840
14243TIP3    H142672   5.725   3.971   2.793
14243TIP3    H242673   5.793   3.838   2.772
14244TIP3   OH242674   7.712   4.565   1.328
14244TIP3    H142675   7.665   4.532   1.251
14244TIP3    H242676   7.710   4.493   1.391
14245TIP3   OH242677   5.627   6.080   6.645
14245TIP3    H142678   5.586   6.166   6.631
14245TIP3    H242679   5.667   6.087   6.731
14246TIP3   OH242680   4.569   3.920   2.454
14246TIP3    H142681   4.512   3.971   2.511
14246TIP3    H242682   4.657   3.940   2.483
14247TIP3   OH242683   5.367   1.644   3.735
14247TIP3    H142684   5.353   1.726   3.687
14247TIP3    H242685   5.452   1.656   3.777
14248TIP3   OH242686   3.628   7.523   6.388
14248TIP3    H142687   3.686   7.451   6.416
14248TIP3    H242688   3.544   7.502   6.429
14249TIP3   OH242689   3.735   5.391   1.102
14249TIP3    H142690   3.683   5.322   1.144
14249TIP3    H242691   3.721   5.376   1.008
14250TIP3   OH242692   0.811   1.928   1.911
14250TIP3    H142693   0.729   1.952   1.869
14250TIP3    H242694   0.812   1.833   1.911
14251TIP3   OH242695   8.106   2.250   3.242
14251TIP3    H142696   8.135   2.159   3.242
14251TIP3    H242697   8.018   2.248   3.203
14252TIP3   OH242698   3.824   6.519   4.157
14252TIP3    H142699   3.735   6.552   4.159
14252TIP3    H242700   3.824   6.446   4.219
14253TIP3   OH242701   3.600   7.726   3.973
14253TIP3    H142702   3.612   7.640   3.933
14253TIP3    H242703   3.516   7.719   4.020
14254TIP3   OH242704   5.984   1.403   5.666
14254TIP3    H142705   6.070   1.363   5.655
14254TIP3    H242706   5.994   1.491   5.631
14255TIP3   OH242707   2.678   1.689   4.049
14255TIP3    H142708   2.685   1.604   4.005
14255TIP3    H242709   2.592   1.687   4.090
14256TIP3   OH242710   6.851   2.225   0.530
14256TIP3    H142711   6.797   2.154   0.566
14256TIP3    H242712   6.798   2.304   0.541
14257TIP3   OH242713   3.197   6.004   0.954
14257TIP3    H142714   3.210   6.066   1.025
14257TIP3    H242715   3.105   6.015   0.929
14258TIP3   OH242716   5.637   0.917   4.338
14258TIP3    H142717   5.645   0.940   4.246
14258TIP3    H242718   5.543   0.926   4.357
14259TIP3   OH242719   7.012   2.058   4.071
14259TIP3    H142720   7.023   2.147   4.105
14259TIP3    H242721   7.035   2.064   3.979
14260TIP3   OH242722   1.598   2.339   6.501
14260TIP3    H142723   1.664   2.405   6.522
14260TIP3    H242724   1.548   2.327   6.581
14261TIP3   OH242725   1.713   4.705   2.816
14261TIP3    H142726   1.750   4.793   2.817
14261TIP3    H242727   1.626   4.715   2.856
14262TIP3   OH242728   6.236   0.895   1.760
14262TIP3    H142729   6.290   0.965   1.796
14262TIP3    H242730   6.290   0.857   1.690
14263TIP3   OH242731   3.842   4.050   0.723
14263TIP3    H142732   3.916   4.046   0.663
14263TIP3    H242733   3.882   4.051   0.810
14264TIP3   OH242734   6.492   5.065   1.322
14264TIP3    H142735   6.540   5.012   1.386
14264TIP3    H242736   6.408   5.020   1.313
14265TIP3   OH242737   8.159   7.723   5.473
14265TIP3    H142738   8.251   7.729   5.447
14265TIP3    H242739   8.124   7.810   5.459
14266TIP3   OH242740   0.366   5.174   4.841
14266TIP3    H142741   0.422   5.100   4.816
14266TIP3    H242742   0.427   5.242   4.868
14267TIP3   OH242743   1.134   3.362   6.586
14267TIP3    H142744   1.051   3.339   6.626
14267TIP3    H242745   1.189   3.392   6.659
14268TIP3   OH242746   0.566   3.075   4.010
14268TIP3    H142747   0.598   2.989   3.981
14268TIP3    H242748   0.475   3.078   3.980
14269TIP3   OH242749   3.243   6.880   1.841
14269TIP3    H142750   3.339   6.875   1.846
14269TIP3    H242751   3.216   6.907   1.928
14270TIP3   OH242752   7.688   0.575   6.802
14270TIP3    H142753   7.593   0.577   6.791
14270TIP3    H242754   7.710   0.662   6.835
14271TIP3   OH242755   5.782   2.165   6.632
14271TIP3    H142756   5.746   2.081   6.660
14271TIP3    H242757   5.711   2.206   6.582
14272TIP3   OH242758   6.591   2.835   2.583
14272TIP3    H142759   6.552   2.865   2.666
14272TIP3    H242760   6.536   2.875   2.516
14273TIP3   OH242761   7.557   2.609   1.216
14273TIP3    H142762   7.504   2.612   1.137
14273TIP3    H242763   7.517   2.540   1.269
14274TIP3   OH242764   7.861   2.860   5.683
14274TIP3    H142765   7.920   2.817   5.621
14274TIP3    H242766   7.855   2.800   5.757
14275TIP3   OH242767   5.675   2.950   0.884
14275TIP3    H142768   5.633   2.870   0.854
14275TIP3    H242769   5.745   2.920   0.942
14276TIP3   OH242770   2.171   5.231   5.606
14276TIP3    H142771   2.246   5.262   5.656
14276TIP3    H242772   2.209   5.198   5.524
14277TIP3   OH242773   0.913   0.555   3.592
14277TIP3    H142774   0.923   0.583   3.501
14277TIP3    H242775   0.970   0.478   3.600
14278TIP3   OH242776   4.630   3.538   3.782
14278TIP3    H142777   4.722   3.548   3.755
14278TIP3    H242778   4.615   3.610   3.843
14279TIP3   OH242779   6.287   3.664   0.650
14279TIP3    H142780   6.362   3.685   0.595
14279TIP3    H242781   6.316   3.684   0.739
14280TIP3   OH242782   6.667   5.075   5.869
14280TIP3    H142783   6.577   5.106   5.857
14280TIP3    H242784   6.719   5.155   5.875
14281TIP3   OH242785   4.359   6.116   3.600
14281TIP3    H142786   4.285   6.147   3.550
14281TIP3    H242787   4.336   6.026   3.624
14282TIP3   OH242788   6.757   5.084   6.317
14282TIP3    H142789   6.694   5.117   6.252
14282TIP3    H242790   6.769   5.157   6.378
14283TIP3   OH242791   5.686   1.709   0.483
14283TIP3    H142792   5.630   1.687   0.409
14283TIP3    H242793   5.645   1.667   0.558
14284TIP3   OH242794   2.042   6.195   2.299
14284TIP3    H142795   2.005   6.252   2.366
14284TIP3    H242796   1.987   6.117   2.300
14285TIP3   OH242797   0.467   6.326   4.178
14285TIP3    H142798   0.481   6.261   4.109
14285TIP3    H242799   0.553   6.366   4.191
14286TIP3   OH242800   2.271   2.131   4.506
14286TIP3    H142801   2.323   2.057   4.537
14286TIP3    H242802   2.232   2.100   4.424
14287TIP3   OH242803   2.479   7.427   0.496
14287TIP3    H142804   2.424   7.352   0.477
14287TIP3    H242805   2.544   7.394   0.558
14288TIP3   OH242806   4.598   1.688   6.272
14288TIP3    H142807   4.645   1.770   6.286
14288TIP3    H242808   4.651   1.640   6.209
14289TIP3   OH242809   0.414   0.339   5.001
14289TIP3    H142810   0.401   0.366   4.910
14289TIP3    H242811   0.507   0.317   5.006
14290TIP3   OH242812   2.390   7.351   4.043
14290TIP3    H142813   2.378   7.283   4.110
14290TIP3    H242814   2.308   7.401   4.045
14291TIP3   OH242815   1.562   7.798   1.133
14291TIP3    H142816   1.634   7.742   1.104
14291TIP3    H242817   1.602   7.860   1.194
14292TIP3   OH242818   8.110   6.176   5.588
14292TIP3    H142819   8.196   6.155   5.552
14292TIP3    H242820   8.122   6.262   5.629
14293TIP3   OH242821   7.205   2.631   4.983
14293TIP3    H142822   7.270   2.689   5.021
14293TIP3    H242823   7.206   2.651   4.890
14294TIP3   OH242824   6.392   3.111   6.065
14294TIP3    H142825   6.409   3.196   6.107
14294TIP3    H242826   6.367   3.133   5.976
14295TIP3   OH242827   6.910   2.238   0.254
14295TIP3    H142828   6.895   2.205   0.343
14295TIP3    H242829   6.976   2.178   0.217
14296TIP3   OH242830   2.425   4.585   1.588
14296TIP3    H142831   2.452   4.515   1.529
14296TIP3    H242832   2.455   4.557   1.675
14297TIP3   OH242833   6.694   5.551   1.717
14297TIP3    H142834   6.628   5.599   1.766
14297TIP3    H242835   6.655   5.466   1.699
14298TIP3   OH242836   2.117   4.049   3.848
14298TIP3    H142837   2.131   4.095   3.931
14298TIP3    H242838   2.078   3.965   3.873
14299TIP3   OH242839   8.073   0.937   5.196
14299TIP3    H142840   8.001   0.892   5.240
14299TIP3    H242841   8.068   1.027   5.229
14300TIP3   OH242842   8.278   7.229   4.202
14300TIP3    H142843   8.339   7.155   4.206
14300TIP3    H242844   8.227   7.214   4.122
14301TIP3   OH242845   6.907   0.907   0.808
14301TIP3    H142846   6.831   0.909   0.865
14301TIP3    H242847   6.896   0.981   0.749
14302TIP3   OH242848   6.353   3.846   6.163
14302TIP3    H142849   6.325   3.829   6.073
14302TIP3    H242850   6.446   3.867   6.156
14303TIP3   OH242851   8.100   7.218   2.144
14303TIP3    H142852   8.193   7.195   2.144
14303TIP3    H242853   8.054   7.134   2.150
14304TIP3   OH242854   4.496   1.624   1.100
14304TIP3    H142855   4.552   1.679   1.155
14304TIP3    H242856   4.424   1.599   1.158
14305TIP3   OH242857   4.546   4.790   5.938
14305TIP3    H142858   4.578   4.749   6.018
14305TIP3    H242859   4.617   4.779   5.875
14306TIP3   OH242860   1.817   5.598   4.107
14306TIP3    H142861   1.857   5.684   4.115
14306TIP3    H242862   1.761   5.591   4.184
14307TIP3   OH242863   1.077   3.690   0.106
14307TIP3    H142864   1.057   3.664   0.196
14307TIP3    H242865   0.995   3.729   0.074
14308TIP3   OH242866   1.088   6.165   6.307
14308TIP3    H142867   1.170   6.192   6.347
14308TIP3    H242868   1.113   6.101   6.241
14309TIP3   OH242869   3.071   3.169   6.232
14309TIP3    H142870   3.012   3.107   6.189
14309TIP3    H242871   3.018   3.208   6.302
14310TIP3   OH242872   5.156   6.784   3.344
14310TIP3    H142873   5.118   6.696   3.336
14310TIP3    H242874   5.098   6.840   3.293
14311TIP3   OH242875   8.149   5.798   5.014
14311TIP3    H142876   8.148   5.766   5.104
14311TIP3    H242877   8.184   5.725   4.962
14312TIP3   OH242878   3.682   2.400   0.870
14312TIP3    H142879   3.609   2.429   0.925
14312TIP3    H242880   3.641   2.357   0.796
14313TIP3   OH242881   8.181   1.176   3.618
14313TIP3    H142882   8.176   1.272   3.613
14313TIP3    H242883   8.265   1.158   3.660
14314TIP3   OH242884   2.348   0.638   4.799
14314TIP3    H142885   2.352   0.698   4.873
14314TIP3    H242886   2.329   0.694   4.724
14315TIP3   OH242887   5.238   7.260   2.796
14315TIP3    H142888   5.266   7.169   2.803
14315TIP3    H242889   5.184   7.262   2.716
14316TIP3   OH242890   1.042   5.452   5.852
14316TIP3    H142891   0.997   5.395   5.914
14316TIP3    H242892   1.121   5.404   5.828
14317TIP3   OH242893   1.510   2.382   0.108
14317TIP3    H142894   1.477   2.292   0.108
14317TIP3    H242895   1.604   2.373   0.126
14318TIP3   OH242896   1.201   0.323   3.328
14318TIP3    H142897   1.244   0.380   3.264
14318TIP3    H242898   1.110   0.318   3.299
14319TIP3   OH242899   2.096   1.050   6.210
14319TIP3    H142900   2.168   1.005   6.253
14319TIP3    H242901   2.044   0.980   6.170
14320TIP3   OH242902   6.232   7.049   1.553
14320TIP3    H142903   6.197   7.034   1.465
14320TIP3    H242904   6.155   7.057   1.608
14321TIP3   OH242905   5.509   2.874   3.499
14321TIP3    H142906   5.487   2.781   3.493
14321TIP3    H242907   5.442   2.918   3.446
14322TIP3   OH242908   7.801   2.921   3.777
14322TIP3    H142909   7.893   2.942   3.759
14322TIP3    H242910   7.768   2.886   3.694
14323TIP3   OH242911   2.179   7.792   6.754
14323TIP3    H142912   2.249   7.820   6.694
14323TIP3    H242913   2.219   7.721   6.805
14324TIP3   OH242914   7.363   1.116   1.300
14324TIP3    H142915   7.381   1.210   1.312
14324TIP3    H242916   7.305   1.113   1.224
14325TIP3   OH242917   6.955   2.462   3.774
14325TIP3    H142918   7.017   2.518   3.821
14325TIP3    H242919   7.010   2.397   3.730
14326TIP3   OH242920   7.485   4.704   5.061
14326TIP3    H142921   7.526   4.700   5.148
14326TIP3    H242922   7.391   4.707   5.079
14327TIP3   OH242923   7.741   2.153   6.088
14327TIP3    H142924   7.822   2.172   6.135
14327TIP3    H242925   7.756   2.069   6.046
14328TIP3   OH242926   3.531   2.791   0.329
14328TIP3    H142927   3.557   2.883   0.327
14328TIP3    H242928   3.612   2.745   0.351
14329TIP3   OH242929   0.180   7.227   2.811
14329TIP3    H142930   0.257   7.191   2.768
14329TIP3    H242931   0.181   7.189   2.899
14330TIP3   OH242932   0.261   2.392   5.980
14330TIP3    H142933   0.204   2.377   6.056
14330TIP3    H242934   0.202   2.385   5.905
14331TIP3   OH242935   6.715   7.591   2.347
14331TIP3    H142936   6.626   7.574   2.314
14331TIP3    H242937   6.747   7.505   2.373
14332TIP3   OH242938   3.293   6.131   6.031
14332TIP3    H142939   3.202   6.155   6.012
14332TIP3    H242940   3.287   6.075   6.108
14333TIP3   OH242941   6.632   1.794   2.403
14333TIP3    H142942   6.672   1.760   2.483
14333TIP3    H242943   6.540   1.769   2.410
14334TIP3   OH242944   7.609   0.809   1.117
14334TIP3    H142945   7.518   0.779   1.108
14334TIP3    H242946   7.606   0.876   1.185
14335TIP3   OH242947   6.839   6.766   3.420
14335TIP3    H142948   6.837   6.684   3.469
14335TIP3    H242949   6.826   6.834   3.487
14336TIP3   OH242950   2.503   1.748   1.335
14336TIP3    H142951   2.436   1.700   1.287
14336TIP3    H242952   2.463   1.833   1.354
14337TIP3   OH242953   6.257   7.410   4.755
14337TIP3    H142954   6.206   7.430   4.833
14337TIP3    H242955   6.270   7.495   4.713
14338TIP3   OH242956   4.979   3.207   5.570
14338TIP3    H142957   4.954   3.158   5.649
14338TIP3    H242958   4.901   3.260   5.549
14339TIP3   OH242959   1.495   6.712   3.584
14339TIP3    H142960   1.536   6.773   3.522
14339TIP3    H242961   1.509   6.626   3.545
14340TIP3   OH242962   7.764   1.256   6.440
14340TIP3    H142963   7.787   1.182   6.383
14340TIP3    H242964   7.843   1.311   6.440
14341TIP3   OH242965   2.717   5.569   2.103
14341TIP3    H142966   2.633   5.523   2.099
14341TIP3    H242967   2.695   5.655   2.141
14342TIP3   OH242968   2.197   3.693   0.093
14342TIP3    H142969   2.125   3.675   0.153
14342TIP3    H242970   2.254   3.617   0.101
14343TIP3   OH242971   1.507   1.587   0.715
14343TIP3    H142972   1.562   1.541   0.778
14343TIP3    H242973   1.552   1.669   0.699
14344TIP3   OH242974   8.215   1.764   5.124
14344TIP3    H142975   8.133   1.813   5.113
14344TIP3    H242976   8.196   1.677   5.090
14345TIP3   OH242977   5.030   6.475   4.005
14345TIP3    H142978   5.045   6.411   3.936
14345TIP3    H242979   5.084   6.446   4.078
14346TIP3   OH242980   0.172   5.738   1.304
14346TIP3    H142981   0.145   5.823   1.338
14346TIP3    H242982   0.257   5.754   1.264
14347TIP3   OH242983   7.654   6.488   3.716
14347TIP3    H142984   7.687   6.402   3.742
14347TIP3    H242985   7.620   6.476   3.628
14348TIP3   OH242986   2.993   1.080   1.744
14348TIP3    H142987   2.978   1.175   1.752
14348TIP3    H242988   2.924   1.051   1.684
14349TIP3   OH242989   6.048   1.166   0.802
14349TIP3    H142990   6.067   1.073   0.793
14349TIP3    H242991   6.124   1.210   0.763
14350TIP3   OH242992   3.853   2.872   2.509
14350TIP3    H142993   3.878   2.848   2.598
14350TIP3    H242994   3.926   2.927   2.479
14351TIP3   OH242995   5.888   2.461   4.375
14351TIP3    H142996   5.972   2.455   4.330
14351TIP3    H242997   5.911   2.486   4.465
14352TIP3   OH242998   3.717   1.579   5.936
14352TIP3    H142999   3.737   1.563   5.844
14352TIP3    H243000   3.746   1.669   5.952
14353TIP3   OH243001   4.049   2.539   3.674
14353TIP3    H143002   4.040   2.557   3.580
14353TIP3    H243003   4.139   2.562   3.695
14354TIP3   OH243004   5.521   3.794   5.117
14354TIP3    H143005   5.579   3.796   5.040
14354TIP3    H243006   5.575   3.827   5.188
14355TIP3   OH243007   3.347   4.251   1.614
14355TIP3    H143008   3.438   4.254   1.586
14355TIP3    H243009   3.324   4.342   1.631
14356TIP3   OH243010   1.376   0.775   1.730
14356TIP3    H143011   1.373   0.684   1.701
14356TIP3    H243012   1.286   0.805   1.725
14357TIP3   OH243013   8.261   0.975   0.474
14357TIP3    H143014   8.299   1.028   0.404
14357TIP3    H243015   8.276   0.884   0.446
14358TIP3   OH243016   1.751   0.761   1.606
14358TIP3    H143017   1.680   0.703   1.577
14358TIP3    H243018   1.814   0.703   1.648
14359TIP3   OH243019   2.883   2.684   6.253
14359TIP3    H143020   2.924   2.642   6.177
14359TIP3    H243021   2.834   2.613   6.296
14360TIP3   OH243022   4.470   1.054   5.129
14360TIP3    H143023   4.493   1.018   5.043
14360TIP3    H243024   4.478   1.149   5.119
14361TIP3   OH243025   1.174   7.330   1.522
14361TIP3    H143026   1.080   7.320   1.506
14361TIP3    H243027   1.180   7.404   1.582
14362TIP3   OH243028   7.510   2.786   3.004
14362TIP3    H143029   7.467   2.701   2.996
14362TIP3    H243030   7.456   2.834   3.066
14363TIP3   OH243031   1.806   4.728   4.138
14363TIP3    H143032   1.771   4.650   4.095
14363TIP3    H243033   1.875   4.694   4.196
14364TIP3   OH243034   6.651   7.043   5.651
14364TIP3    H143035   6.575   6.996   5.687
14364TIP3    H243036   6.719   7.032   5.716
14365TIP3   OH243037   7.420   2.250   2.259
14365TIP3    H143038   7.328   2.233   2.237
14365TIP3    H243039   7.418   2.283   2.349
14366TIP3   OH243040   0.956   2.830   2.632
14366TIP3    H143041   0.978   2.879   2.712
14366TIP3    H243042   0.917   2.895   2.574
14367TIP3   OH243043   1.738   7.487   6.620
14367TIP3    H143044   1.823   7.444   6.613
14367TIP3    H243045   1.758   7.575   6.651
14368TIP3   OH243046   5.809   5.207   4.061
14368TIP3    H143047   5.717   5.212   4.084
14368TIP3    H243048   5.817   5.129   4.007
14369TIP3   OH243049   1.876   5.200   4.874
14369TIP3    H143050   1.916   5.285   4.891
14369TIP3    H243051   1.870   5.195   4.778
14370TIP3   OH243052   2.442   7.719   2.323
14370TIP3    H143053   2.466   7.712   2.415
14370TIP3    H243054   2.382   7.646   2.308
14371TIP3   OH243055   4.398   3.011   4.316
14371TIP3    H143056   4.460   2.945   4.345
14371TIP3    H243057   4.432   3.093   4.353
14372TIP3   OH243058   5.900   7.316   3.875
14372TIP3    H143059   5.964   7.266   3.925
14372TIP3    H243060   5.847   7.361   3.942
14373TIP3   OH243061   4.303   4.342   5.037
14373TIP3    H143062   4.210   4.355   5.059
14373TIP3    H243063   4.309   4.365   4.945
14374TIP3   OH243064   1.042   1.465   4.998
14374TIP3    H143065   0.951   1.437   4.989
14374TIP3    H243066   1.044   1.511   5.082
14375TIP3   OH243067   6.463   2.852   2.100
14375TIP3    H143068   6.460   2.865   2.195
14375TIP3    H243069   6.494   2.762   2.089
14376TIP3   OH243070   7.890   3.909   6.098
14376TIP3    H143071   7.923   3.912   6.188
14376TIP3    H243072   7.951   3.850   6.053
14377TIP3   OH243073   5.049   6.606   1.914
14377TIP3    H143074   5.051   6.538   1.847
14377TIP3    H243075   5.140   6.635   1.921
14378TIP3   OH243076   7.011   5.626   0.691
14378TIP3    H143077   7.041   5.562   0.755
14378TIP3    H243078   6.955   5.577   0.631
14379TIP3   OH243079   2.479   1.668   6.547
14379TIP3    H143080   2.399   1.643   6.593
14379TIP3    H243081   2.547   1.616   6.587
14380TIP3   OH243082   3.696   7.450   1.604
14380TIP3    H143083   3.741   7.458   1.519
14380TIP3    H243084   3.677   7.540   1.630
14381TIP3   OH243085   1.357   3.944   2.341
14381TIP3    H143086   1.295   3.975   2.407
14381TIP3    H243087   1.430   3.908   2.392
14382TIP3   OH243088   4.862   4.597   5.489
14382TIP3    H143089   4.771   4.597   5.518
14382TIP3    H243090   4.869   4.522   5.431
14383TIP3   OH243091   3.265   0.681   5.670
14383TIP3    H143092   3.294   0.607   5.617
14383TIP3    H243093   3.332   0.692   5.737
14384TIP3   OH243094   3.975   7.035   1.055
14384TIP3    H143095   3.959   7.125   1.085
14384TIP3    H243096   3.897   7.013   1.004
14385TIP3   OH243097   6.784   2.122   5.848
14385TIP3    H143098   6.824   2.039   5.822
14385TIP3    H243099   6.858   2.176   5.875
14386TIP3   OH243100   0.566   4.345   6.285
14386TIP3    H143101   0.542   4.252   6.293
14386TIP3    H243102   0.615   4.364   6.365
14387TIP3   OH243103   4.316   1.837   5.355
14387TIP3    H143104   4.335   1.930   5.366
14387TIP3    H243105   4.374   1.793   5.418
14388TIP3   OH243106   5.352   0.649   0.274
14388TIP3    H143107   5.351   0.651   0.179
14388TIP3    H243108   5.344   0.741   0.300
14389TIP3   OH243109   0.215   5.947   5.011
14389TIP3    H143110   0.233   6.029   4.965
14389TIP3    H243111   0.149   5.970   5.076
14390TIP3   OH243112   4.717   7.802   5.808
14390TIP3    H143113   4.746   7.823   5.719
14390TIP3    H243114   4.627   7.835   5.812
14391TIP3   OH243115   4.042   5.566   5.410
14391TIP3    H143116   4.090   5.623   5.470
14391TIP3    H243117   4.092   5.570   5.328
14392TIP3   OH243118   0.537   3.221   6.442
14392TIP3    H143119   0.518   3.276   6.366
14392TIP3    H243120   0.497   3.136   6.421
14393TIP3   OH243121   6.403   4.173   2.971
14393TIP3    H143122   6.419   4.267   2.960
14393TIP3    H243123   6.314   4.168   3.004
14394TIP3   OH243124   4.076   4.129   2.188
14394TIP3    H143125   4.058   4.158   2.098
14394TIP3    H243126   3.989   4.110   2.224
14395TIP3   OH243127   5.014   5.520   5.452
14395TIP3    H143128   5.065   5.459   5.398
14395TIP3    H243129   4.964   5.463   5.510
14396TIP3   OH243130   1.603   4.732   0.709
14396TIP3    H143131   1.526   4.749   0.763
14396TIP3    H243132   1.655   4.812   0.716
14397TIP3   OH243133   7.521   0.018   2.741
14397TIP3    H143134   7.492   0.107   2.722
14397TIP3    H243135   7.526   0.014   2.837
14398TIP3   OH243136   0.107   6.209   0.206
14398TIP3    H143137   0.085   6.183   0.295
14398TIP3    H243138   0.199   6.184   0.196
14399TIP3   OH243139   1.164   6.370   1.176
14399TIP3    H143140   1.167   6.367   1.272
14399TIP3    H243141   1.095   6.432   1.157
14400TIP3   OH243142   7.489   4.561   3.075
14400TIP3    H143143   7.552   4.494   3.103
14400TIP3    H243144   7.534   4.644   3.090
14401TIP3   OH243145   3.412   0.797   0.133
14401TIP3    H143146   3.431   0.876   0.082
14401TIP3    H243147   3.408   0.727   0.069
14402TIP3   OH243148   0.144   3.176   0.035
14402TIP3    H143149   0.115   3.228   0.110
14402TIP3    H243150   0.074   3.113   0.020
14403TIP3   OH243151   7.262   0.144   0.252
14403TIP3    H143152   7.281   0.111   0.164
14403TIP3    H243153   7.294   0.077   0.311
14404TIP3   OH243154   7.912   2.735   6.132
14404TIP3    H143155   7.986   2.734   6.071
14404TIP3    H243156   7.950   2.712   6.217
14405TIP3   OH243157   5.991   2.148   3.753
14405TIP3    H143158   5.979   2.081   3.686
14405TIP3    H243159   5.972   2.103   3.836
14406TIP3   OH243160   1.359   0.806   4.551
14406TIP3    H143161   1.322   0.729   4.509
14406TIP3    H243162   1.402   0.854   4.480
14407TIP3   OH243163   1.794   4.895   5.564
14407TIP3    H143164   1.885   4.912   5.540
14407TIP3    H243165   1.742   4.946   5.501
14408TIP3   OH243166   2.902   6.941   1.235
14408TIP3    H143167   2.931   6.878   1.300
14408TIP3    H243168   2.869   7.015   1.286
14409TIP3   OH243169   5.362   7.139   1.691
14409TIP3    H143170   5.394   7.207   1.750
14409TIP3    H243171   5.397   7.058   1.727
14410TIP3   OH243172   5.859   6.851   6.282
14410TIP3    H143173   5.772   6.814   6.271
14410TIP3    H243174   5.843   6.945   6.297
14411TIP3   OH243175   4.362   7.780   4.479
14411TIP3    H143176   4.432   7.827   4.523
14411TIP3    H243177   4.282   7.822   4.510
14412TIP3   OH243178   0.633   6.617   5.369
14412TIP3    H143179   0.681   6.543   5.404
14412TIP3    H243180   0.582   6.580   5.297
14413TIP3   OH243181   3.134   6.259  -0.063
14413TIP3    H143182   3.116   6.327   0.002
14413TIP3    H243183   3.151   6.180  -0.012
14414TIP3   OH243184   6.566   2.386   0.043
14414TIP3    H143185   6.578   2.344   0.128
14414TIP3    H243186   6.655   2.405   0.013
14415TIP3   OH243187   1.617   3.782   5.237
14415TIP3    H143188   1.543   3.731   5.205
14415TIP3    H243189   1.681   3.717   5.266
14416TIP3   OH243190   6.743   6.616   3.619
14416TIP3    H143191   6.666   6.669   3.643
14416TIP3    H243192   6.707   6.545   3.567
14417TIP3   OH243193   1.021   5.755   5.457
14417TIP3    H143194   1.073   5.829   5.488
14417TIP3    H243195   0.957   5.794   5.397
14418TIP3   OH243196   5.537   2.782   5.574
14418TIP3    H143197   5.585   2.717   5.626
14418TIP3    H243198   5.449   2.783   5.611
14419TIP3   OH243199   3.204   3.817   3.448
14419TIP3    H143200   3.240   3.748   3.393
14419TIP3    H243201   3.177   3.771   3.528
14420TIP3   OH243202   2.782   4.943   2.819
14420TIP3    H143203   2.748   4.862   2.780
14420TIP3    H243204   2.866   4.918   2.856
14421TIP3   OH243205   8.130   0.237   5.286
14421TIP3    H143206   8.190   0.288   5.232
14421TIP3    H243207   8.083   0.182   5.223
14422TIP3   OH243208   0.113   1.419   2.277
14422TIP3    H143209   0.150   1.338   2.312
14422TIP3    H243210   0.124   1.483   2.347
14423TIP3   OH243211   2.195   1.032   1.550
14423TIP3    H143212   2.152   0.968   1.607
14423TIP3    H243213   2.287   1.007   1.551
14424TIP3   OH243214   5.950   5.031   2.448
14424TIP3    H143215   6.038   5.003   2.475
14424TIP3    H243216   5.916   5.078   2.523
14425TIP3   OH243217   5.997   6.833   2.638
14425TIP3    H143218   6.018   6.759   2.694
14425TIP3    H243219   5.924   6.877   2.682
14426TIP3   OH243220   7.818   4.884   6.262
14426TIP3    H143221   7.820   4.813   6.198
14426TIP3    H243222   7.895   4.868   6.318
14427TIP3   OH243223   1.988   5.330   6.168
14427TIP3    H143224   1.978   5.239   6.197
14427TIP3    H243225   2.046   5.324   6.092
14428TIP3   OH243226   0.424   7.274   5.210
14428TIP3    H143227   0.519   7.289   5.207
14428TIP3    H243228   0.415   7.180   5.222
14429TIP3   OH243229   5.759   4.900   6.090
14429TIP3    H143230   5.672   4.871   6.119
14429TIP3    H243231   5.802   4.820   6.060
14430TIP3   OH243232   0.852   4.634   3.453
14430TIP3    H143233   0.913   4.706   3.468
14430TIP3    H243234   0.885   4.562   3.507
14431TIP3   OH243235   6.772   1.012   6.217
14431TIP3    H143236   6.706   0.999   6.286
14431TIP3    H243237   6.737   1.084   6.165
14432TIP3   OH243238   2.201   1.656   2.283
14432TIP3    H143239   2.139   1.636   2.353
14432TIP3    H243240   2.190   1.750   2.267
14433TIP3   OH243241   7.391   3.064  -0.009
14433TIP3    H143242   7.354   3.138   0.041
14433TIP3    H243243   7.315   3.010  -0.030
14434TIP3   OH243244   1.342   3.408   2.514
14434TIP3    H143245   1.365   3.486   2.463
14434TIP3    H243246   1.307   3.347   2.450
14435TIP3   OH243247   5.833   1.692   1.284
14435TIP3    H143248   5.901   1.635   1.319
14435TIP3    H243249   5.806   1.745   1.359
14436TIP3   OH243250   8.140   3.754   3.666
14436TIP3    H143251   8.098   3.837   3.686
14436TIP3    H243252   8.164   3.760   3.573
14437TIP3   OH243253   4.919   0.975   3.277
14437TIP3    H143254   4.872   1.052   3.306
14437TIP3    H243255   4.855   0.904   3.282
14438TIP3   OH243256   5.759   0.411   3.679
14438TIP3    H143257   5.836   0.422   3.735
14438TIP3    H243258   5.727   0.500   3.664
14439TIP3   OH243259   7.024   3.579   0.149
14439TIP3    H143260   7.022   3.577   0.245
14439TIP3    H243261   6.963   3.648   0.125
14440TIP3   OH243262   5.625   2.597   0.416
14440TIP3    H143263   5.566   2.642   0.355
14440TIP3    H243264   5.711   2.636   0.400
14441TIP3   OH243265   3.848   5.610   5.767
14441TIP3    H143266   3.923   5.620   5.826
14441TIP3    H243267   3.849   5.690   5.714
14442TIP3   OH243268   1.990   6.431   0.107
14442TIP3    H143269   1.990   6.376   0.029
14442TIP3    H243270   2.068   6.404   0.155
14443TIP3   OH243271   4.354   3.901   6.030
14443TIP3    H143272   4.444   3.896   6.062
14443TIP3    H243273   4.355   3.973   5.966
14444TIP3   OH243274   6.821   4.443   6.566
14444TIP3    H143275   6.791   4.356   6.542
14444TIP3    H243276   6.823   4.491   6.483
14445TIP3   OH243277   2.117   0.150   2.345
14445TIP3    H143278   2.129   0.056   2.355
14445TIP3    H243279   2.090   0.180   2.431
14446TIP3   OH243280   1.516   5.105   3.497
14446TIP3    H143281   1.428   5.094   3.459
14446TIP3    H243282   1.563   5.025   3.472
14447TIP3   OH243283   6.232   0.989   5.335
14447TIP3    H143284   6.246   1.003   5.428
14447TIP3    H243285   6.227   1.078   5.298
14448TIP3   OH243286   4.107   1.628   4.134
14448TIP3    H143287   4.149   1.709   4.106
14448TIP3    H243288   4.179   1.568   4.152
14449TIP3   OH243289   7.777   1.893   2.201
14449TIP3    H143290   7.808   1.812   2.241
14449TIP3    H243291   7.746   1.946   2.275
14450TIP3   OH243292   1.340   6.435   2.209
14450TIP3    H143293   1.395   6.417   2.133
14450TIP3    H243294   1.252   6.410   2.181
14451TIP3   OH243295   8.241   4.400   2.821
14451TIP3    H143296   8.175   4.447   2.872
14451TIP3    H243297   8.194   4.368   2.744
14452TIP3   OH243298   4.160   1.966   4.747
14452TIP3    H143299   4.083   2.007   4.708
14452TIP3    H243300   4.138   1.873   4.751
14453TIP3   OH243301   1.590   1.317   1.911
14453TIP3    H143302   1.658   1.352   1.969
14453TIP3    H243303   1.626   1.234   1.880
14454TIP3   OH243304   3.092   4.995   3.642
14454TIP3    H143305   3.090   5.051   3.565
14454TIP3    H243306   3.148   4.922   3.618
14455TIP3   OH243307   0.296   4.116   4.387
14455TIP3    H143308   0.372   4.086   4.437
14455TIP3    H243309   0.239   4.040   4.383
14456TIP3   OH243310   2.316   2.174   2.081
14456TIP3    H143311   2.286   2.215   2.162
14456TIP3    H243312   2.259   2.097   2.071
14457TIP3   OH243313   5.687   3.066   5.294
14457TIP3    H143314   5.603   3.075   5.248
14457TIP3    H243315   5.684   3.133   5.362
14458TIP3   OH243316   0.547   4.333   1.276
14458TIP3    H143317   0.640   4.313   1.279
14458TIP3    H243318   0.505   4.250   1.255
14459TIP3   OH243319   4.281   0.851   1.511
14459TIP3    H143320   4.221   0.803   1.454
14459TIP3    H243321   4.230   0.870   1.589
14460TIP3   OH243322   3.358   6.680   6.072
14460TIP3    H143323   3.355   6.700   6.165
14460TIP3    H243324   3.391   6.760   6.031
14461TIP3   OH243325   5.216   1.090   0.787
14461TIP3    H143326   5.302   1.133   0.788
14461TIP3    H243327   5.230   1.009   0.837
14462TIP3   OH243328   1.162   5.767   1.520
14462TIP3    H143329   1.086   5.728   1.563
14462TIP3    H243330   1.143   5.860   1.516
14463TIP3   OH243331   5.491   1.241   5.639
14463TIP3    H143332   5.464   1.172   5.699
14463TIP3    H243333   5.555   1.199   5.581
14464TIP3   OH243334   4.458   6.189   1.429
14464TIP3    H143335   4.535   6.143   1.397
14464TIP3    H243336   4.470   6.193   1.524
14465TIP3   OH243337   5.997   3.999   1.282
14465TIP3    H143338   6.011   3.934   1.214
14465TIP3    H243339   5.938   4.063   1.242
14466TIP3   OH243340   5.602   7.307   3.979
14466TIP3    H143341   5.618   7.401   3.976
14466TIP3    H243342   5.513   7.299   4.014
14467TIP3   OH243343   2.570   5.679   5.197
14467TIP3    H143344   2.558   5.628   5.117
14467TIP3    H243345   2.520   5.759   5.182
14468TIP3   OH243346   1.781   4.000   5.178
14468TIP3    H143347   1.813   4.046   5.256
14468TIP3    H243348   1.731   3.926   5.213
14469TIP3   OH243349   4.053   4.473   0.698
14469TIP3    H143350   4.132   4.447   0.650
14469TIP3    H243351   4.074   4.457   0.790
14470TIP3   OH243352   3.830   6.466   2.164
14470TIP3    H143353   3.788   6.381   2.180
14470TIP3    H243354   3.853   6.464   2.071
14471TIP3   OH243355   4.887   1.738   3.675
14471TIP3    H143356   4.920   1.821   3.711
14471TIP3    H243357   4.953   1.712   3.611
14472TIP3   OH243358   5.383   0.674   2.853
14472TIP3    H143359   5.360   0.755   2.807
14472TIP3    H243360   5.447   0.701   2.919
14473TIP3   OH243361   1.778   1.997   2.156
14473TIP3    H143362   1.708   2.016   2.092
14473TIP3    H243363   1.768   2.064   2.223
14474TIP3   OH243364   3.184   6.902   5.224
14474TIP3    H143365   3.198   6.978   5.281
14474TIP3    H243366   3.236   6.921   5.145
14475TIP3   OH243367   4.413   5.258   3.452
14475TIP3    H143368   4.460   5.284   3.531
14475TIP3    H243369   4.453   5.175   3.427
14476TIP3   OH243370   4.590   7.398   2.301
14476TIP3    H143371   4.511   7.427   2.346
14476TIP3    H243372   4.640   7.478   2.285
14477TIP3   OH243373   6.766   3.472   4.847
14477TIP3    H143374   6.761   3.567   4.854
14477TIP3    H243375   6.675   3.443   4.846
14478TIP3   OH243376   2.630   7.395   5.808
14478TIP3    H143377   2.543   7.435   5.802
14478TIP3    H243378   2.651   7.397   5.901
14479TIP3   OH243379   6.241   7.468   3.833
14479TIP3    H143380   6.209   7.393   3.783
14479TIP3    H243381   6.296   7.430   3.901
14480TIP3   OH243382   8.087   6.850   0.654
14480TIP3    H143383   8.068   6.943   0.666
14480TIP3    H243384   8.158   6.831   0.716
14481TIP3   OH243385   3.538   6.809   4.422
14481TIP3    H143386   3.449   6.791   4.451
14481TIP3    H243387   3.591   6.741   4.462
14482TIP3   OH243388   6.907   5.265   5.228
14482TIP3    H143389   6.946   5.235   5.310
14482TIP3    H243390   6.861   5.346   5.252
14483TIP3   OH243391   2.005   2.100   1.266
14483TIP3    H143392   1.941   2.030   1.277
14483TIP3    H243393   1.952   2.179   1.256
14484TIP3   OH243394   4.149   0.169   1.577
14484TIP3    H143395   4.085   0.219   1.626
14484TIP3    H243396   4.120   0.175   1.486
14485TIP3   OH243397   0.681   4.036   5.409
14485TIP3    H143398   0.711   3.945   5.400
14485TIP3    H243399   0.632   4.052   5.328
14486TIP3   OH243400   4.222   5.567   4.474
14486TIP3    H143401   4.285   5.495   4.482
14486TIP3    H243402   4.200   5.571   4.381
14487TIP3   OH243403   0.877   2.336   2.636
14487TIP3    H143404   0.843   2.293   2.714
14487TIP3    H243405   0.807   2.396   2.609
14488TIP3   OH243406   6.274   2.275   0.175
14488TIP3    H143407   6.198   2.329   0.152
14488TIP3    H243408   6.309   2.315   0.254
14489TIP3   OH243409   6.488   5.180   6.459
14489TIP3    H143410   6.394   5.168   6.474
14489TIP3    H243411   6.530   5.145   6.538
14490TIP3   OH243412   3.285   0.290   2.249
14490TIP3    H143413   3.267   0.316   2.339
14490TIP3    H243414   3.345   0.216   2.257
14491TIP3   OH243415   1.364   7.064   4.775
14491TIP3    H143416   1.426   7.137   4.782
14491TIP3    H243417   1.323   7.060   4.862
14492TIP3   OH243418   3.718   0.935   2.893
14492TIP3    H143419   3.665   0.908   2.818
14492TIP3    H243420   3.673   1.011   2.928
14493TIP3   OH243421   6.587   2.088   2.389
14493TIP3    H143422   6.654   2.155   2.381
14493TIP3    H243423   6.632   2.013   2.427
14494TIP3   OH243424   5.155   3.671   5.869
14494TIP3    H143425   5.062   3.690   5.856
14494TIP3    H243426   5.162   3.577   5.857
14495TIP3   OH243427   7.876   0.715   1.546
14495TIP3    H143428   7.909   0.703   1.456
14495TIP3    H243429   7.788   0.751   1.534
14496TIP3   OH243430   4.958   2.984   5.014
14496TIP3    H143431   5.005   2.971   5.096
14496TIP3    H243432   5.002   3.058   4.972
14497TIP3   OH243433   8.156   7.467   2.882
14497TIP3    H143434   8.188   7.430   2.800
14497TIP3    H243435   8.211   7.428   2.949
14498TIP3   OH243436   3.712   7.111   6.682
14498TIP3    H143437   3.623   7.141   6.666
14498TIP3    H243438   3.744   7.166   6.753
14499TIP3   OH243439   0.338   1.909   3.487
14499TIP3    H143440   0.287   1.988   3.474
14499TIP3    H243441   0.429   1.938   3.483
14500TIP3   OH243442   5.654   3.106   6.200
14500TIP3    H143443   5.693   3.067   6.278
14500TIP3    H243444   5.647   3.034   6.138
14501TIP3   OH243445   3.154   3.200   4.275
14501TIP3    H143446   3.199   3.277   4.311
14501TIP3    H243447   3.076   3.190   4.330
14502TIP3   OH243448   1.904   5.982   3.245
14502TIP3    H143449   1.999   5.984   3.241
14502TIP3    H243450   1.878   5.917   3.181
14503TIP3   OH243451   6.166   0.417   0.846
14503TIP3    H143452   6.070   0.416   0.851
14503TIP3    H243453   6.187   0.350   0.781
14504TIP3   OH243454   7.412   4.231   3.279
14504TIP3    H143455   7.446   4.179   3.351
14504TIP3    H243456   7.488   4.278   3.244
14505TIP3   OH243457   5.362   2.287   5.697
14505TIP3    H143458   5.446   2.284   5.651
14505TIP3    H243459   5.339   2.380   5.699
14506TIP3   OH243460   3.692   5.681   4.229
14506TIP3    H143461   3.621   5.681   4.294
14506TIP3    H243462   3.669   5.752   4.169
14507TIP3   OH243463   0.038   4.737   1.484
14507TIP3    H143464   0.067   4.646   1.488
14507TIP3    H243465   0.049   4.762   1.392
14508TIP3   OH243466   5.275   3.178   2.748
14508TIP3    H143467   5.331   3.140   2.680
14508TIP3    H243468   5.227   3.103   2.783
14509TIP3   OH243469   5.335   4.472   2.290
14509TIP3    H143470   5.364   4.562   2.274
14509TIP3    H243471   5.317   4.436   2.203
14510TIP3   OH243472   0.901   3.891   2.684
14510TIP3    H143473   0.854   3.885   2.600
14510TIP3    H243474   0.835   3.871   2.750
14511TIP3   OH243475   6.696   0.503   5.060
14511TIP3    H143476   6.786   0.471   5.072
14511TIP3    H243477   6.685   0.570   5.128
14512TIP3   OH243478   0.959   5.657   4.554
14512TIP3    H143479   0.952   5.613   4.469
14512TIP3    H243480   0.884   5.717   4.557
14513TIP3   OH243481   1.643   5.834   0.772
14513TIP3    H143482   1.670   5.864   0.686
14513TIP3    H243483   1.628   5.740   0.761
14514TIP3   OH243484   0.716   1.744   3.496
14514TIP3    H143485   0.811   1.748   3.500
14514TIP3    H243486   0.687   1.772   3.583
14515TIP3   OH243487   2.403   3.437   3.981
14515TIP3    H143488   2.380   3.527   4.004
14515TIP3    H243489   2.494   3.427   4.009
14516TIP3   OH243490   1.475   5.257   5.655
14516TIP3    H143491   1.383   5.239   5.637
14516TIP3    H243492   1.511   5.284   5.570
14517TIP3   OH243493   0.751   4.860   1.718
14517TIP3    H143494   0.828   4.819   1.757
14517TIP3    H243495   0.733   4.935   1.775
14518TIP3   OH243496   3.994   0.313   2.419
14518TIP3    H143497   3.997   0.315   2.515
14518TIP3    H243498   4.016   0.403   2.392
14519TIP3   OH243499   6.623   7.411   1.144
14519TIP3    H143500   6.571   7.340   1.105
14519TIP3    H243501   6.562   7.484   1.152
14520TIP3   OH243502   4.792   2.939   2.307
14520TIP3    H143503   4.864   2.899   2.258
14520TIP3    H243504   4.714   2.917   2.255
14521TIP3   OH243505   5.137   1.208   5.719
14521TIP3    H143506   5.162   1.168   5.803
14521TIP3    H243507   5.090   1.287   5.743
14522TIP3   OH243508   7.896   2.122   0.196
14522TIP3    H143509   7.921   2.195   0.252
14522TIP3    H243510   7.801   2.130   0.186
14523TIP3   OH243511   0.668   4.276   2.610
14523TIP3    H143512   0.608   4.210   2.576
14523TIP3    H243513   0.675   4.341   2.539
14524TIP3   OH243514   7.959   1.863   0.837
14524TIP3    H143515   8.047   1.901   0.844
14524TIP3    H243516   7.900   1.934   0.863
14525TIP3   OH243517   5.145   5.422   0.785
14525TIP3    H143518   5.180   5.442   0.698
14525TIP3    H243519   5.150   5.504   0.833
14526TIP3   OH243520   0.426   7.217   1.990
14526TIP3    H143521   0.431   7.279   2.063
14526TIP3    H243522   0.418   7.272   1.912
14527TIP3   OH243523   1.298   1.232   2.325
14527TIP3    H143524   1.282   1.252   2.233
14527TIP3    H243525   1.212   1.231   2.365
14528TIP3   OH243526   1.331   3.805   3.502
14528TIP3    H143527   1.259   3.771   3.555
14528TIP3    H243528   1.401   3.740   3.512
14529TIP3   OH243529   4.924   1.620   5.950
14529TIP3    H143530   4.889   1.531   5.941
14529TIP3    H243531   4.936   1.632   6.044
14530TIP3   OH243532   1.069   2.027   3.876
14530TIP3    H143533   1.081   2.052   3.785
14530TIP3    H243534   1.022   1.943   3.872
14531TIP3   OH243535   5.990   4.543   0.214
14531TIP3    H143536   6.054   4.531   0.144
14531TIP3    H243537   6.031   4.503   0.291
14532TIP3   OH243538   3.612   5.915   5.100
14532TIP3    H143539   3.600   5.999   5.055
14532TIP3    H243540   3.607   5.937   5.193
14533TIP3   OH243541   5.419   4.126   4.748
14533TIP3    H143542   5.514   4.137   4.749
14533TIP3    H243543   5.388   4.183   4.678
14534TIP3   OH243544   5.717   7.057   5.265
14534TIP3    H143545   5.769   7.001   5.324
14534TIP3    H243546   5.626   7.032   5.282
14535TIP3   OH243547   7.768   6.504   6.203
14535TIP3    H143548   7.693   6.509   6.143
14535TIP3    H243549   7.843   6.490   6.145
14536TIP3   OH243550   3.304   7.747   3.989
14536TIP3    H143551   3.260   7.785   3.913
14536TIP3    H243552   3.255   7.780   4.064
14537TIP3   OH243553   5.481   4.950   1.305
14537TIP3    H143554   5.421   5.025   1.310
14537TIP3    H243555   5.539   4.970   1.233
14538TIP3   OH243556   2.232   7.395   5.115
14538TIP3    H143557   2.163   7.417   5.053
14538TIP3    H243558   2.186   7.373   5.196
14539TIP3   OH243559   1.685   4.443   4.914
14539TIP3    H143560   1.726   4.360   4.939
14539TIP3    H243561   1.651   4.427   4.826
14540TIP3   OH243562   6.855   6.935   5.822
14540TIP3    H143563   6.886   6.848   5.847
14540TIP3    H243564   6.814   6.969   5.901
14541TIP3   OH243565   0.486   0.183   4.221
14541TIP3    H143566   0.576   0.210   4.240
14541TIP3    H243567   0.432   0.256   4.252
14542TIP3   OH243568   8.068   1.896   0.187
14542TIP3    H143569   8.030   1.857   0.266
14542TIP3    H243570   8.017   1.976   0.174
14543TIP3   OH243571   5.111   7.178   5.494
14543TIP3    H143572   5.195   7.161   5.451
14543TIP3    H243573   5.104   7.109   5.560
14544TIP3   OH243574   3.905   7.795   2.596
14544TIP3    H143575   3.998   7.789   2.577
14544TIP3    H243576   3.878   7.879   2.559
14545TIP3   OH243577   7.457   6.698   2.616
14545TIP3    H143578   7.544   6.689   2.577
14545TIP3    H243579   7.399   6.653   2.554
14546TIP3   OH243580   5.909   5.820   2.753
14546TIP3    H143581   5.850   5.841   2.825
14546TIP3    H243582   5.852   5.784   2.685
14547TIP3   OH243583   6.268   0.680   6.092
14547TIP3    H143584   6.225   0.718   6.016
14547TIP3    H243585   6.314   0.603   6.057
14548TIP3   OH243586   1.530   1.256   4.645
14548TIP3    H143587   1.566   1.186   4.590
14548TIP3    H243588   1.462   1.296   4.590
14549TIP3   OH243589   0.180   6.339   1.691
14549TIP3    H143590   0.146   6.295   1.614
14549TIP3    H243591   0.258   6.385   1.660
14550TIP3   OH243592   7.436   2.994   3.899
14550TIP3    H143593   7.459   3.087   3.896
14550TIP3    H243594   7.461   2.965   3.986
14551TIP3   OH243595   6.580   5.949   6.168
14551TIP3    H143596   6.486   5.932   6.167
14551TIP3    H243597   6.620   5.866   6.144
14552TIP3   OH243598   1.714   4.639   4.717
14552TIP3    H143599   1.681   4.711   4.771
14552TIP3    H243600   1.743   4.574   4.781
14553TIP3   OH243601   5.348   5.681   0.202
14553TIP3    H143602   5.322   5.754   0.145
14553TIP3    H243603   5.378   5.613   0.142
14554TIP3   OH243604   5.570   0.568   4.282
14554TIP3    H143605   5.505   0.518   4.232
14554TIP3    H243606   5.572   0.653   4.239
14555TIP3   OH243607   4.286   5.621   4.210
14555TIP3    H143608   4.206   5.640   4.162
14555TIP3    H243609   4.356   5.657   4.155
14556TIP3   OH243610   1.495   3.600   6.071
14556TIP3    H143611   1.434   3.674   6.079
14556TIP3    H243612   1.578   3.633   6.106
14557TIP3   OH243613   6.860   2.422   4.311
14557TIP3    H143614   6.851   2.509   4.273
14557TIP3    H243615   6.797   2.368   4.264
14558TIP3   OH243616   2.377   3.810   2.826
14558TIP3    H143617   2.421   3.791   2.743
14558TIP3    H243618   2.284   3.819   2.801
14559TIP3   OH243619   4.351   5.143   2.105
14559TIP3    H143620   4.339   5.067   2.048
14559TIP3    H243621   4.385   5.107   2.186
14560TIP3   OH243622   2.172   4.315   2.635
14560TIP3    H143623   2.229   4.287   2.564
14560TIP3    H243624   2.208   4.274   2.714
14561TIP3   OH243625   5.894   1.892   5.612
14561TIP3    H143626   5.966   1.897   5.675
14561TIP3    H243627   5.887   1.799   5.590
14562TIP3   OH243628   8.070   6.196   2.490
14562TIP3    H143629   7.999   6.237   2.538
14562TIP3    H243630   8.142   6.191   2.553
14563TIP3   OH243631   4.420   1.259   2.780
14563TIP3    H143632   4.451   1.193   2.719
14563TIP3    H243633   4.354   1.213   2.833
14564TIP3   OH243634   8.106   5.975   2.876
14564TIP3    H143635   8.186   5.983   2.928
14564TIP3    H243636   8.036   5.992   2.938
14565TIP3   OH243637   3.077   6.810   0.238
14565TIP3    H143638   3.083   6.780   0.328
14565TIP3    H243639   3.095   6.904   0.243
14566TIP3   OH243640   0.633   6.422   2.096
14566TIP3    H143641   0.570   6.356   2.126
14566TIP3    H243642   0.640   6.483   2.169
14567TIP3   OH243643   8.254   0.042   2.403
14567TIP3    H143644   8.251   0.137   2.388
14567TIP3    H243645   8.347   0.022   2.413
14568TIP3   OH243646   4.311   0.463   1.649
14568TIP3    H143647   4.358   0.517   1.712
14568TIP3    H243648   4.355   0.378   1.652
14569TIP3   OH243649   1.162   4.891   4.234
14569TIP3    H143650   1.126   4.806   4.206
14569TIP3    H243651   1.256   4.882   4.225
14570TIP3   OH243652   0.600   7.751   3.023
14570TIP3    H143653   0.518   7.799   3.038
14570TIP3    H243654   0.572   7.662   3.003
14571TIP3   OH243655   5.133   0.291   2.922
14571TIP3    H143656   5.124   0.385   2.912
14571TIP3    H243657   5.049   0.255   2.893
14572TIP3   OH243658   7.405   0.626   3.769
14572TIP3    H143659   7.495   0.650   3.749
14572TIP3    H243660   7.413   0.559   3.838
14573TIP3   OH243661   3.698   6.544   2.604
14573TIP3    H143662   3.660   6.548   2.516
14573TIP3    H243663   3.628   6.572   2.663
14574TIP3   OH243664   7.214   5.393   2.422
14574TIP3    H143665   7.274   5.381   2.348
14574TIP3    H243666   7.146   5.452   2.389
14575TIP3   OH243667   3.217   0.471   4.436
14575TIP3    H143668   3.202   0.424   4.518
14575TIP3    H243669   3.302   0.438   4.406
14576TIP3   OH243670   4.522   7.700   2.375
14576TIP3    H143671   4.479   7.785   2.387
14576TIP3    H243672   4.454   7.636   2.397
14577TIP3   OH243673   0.967   3.747   6.093
14577TIP3    H143674   0.886   3.796   6.083
14577TIP3    H243675   1.031   3.794   6.040
14578TIP3   OH243676   3.423   2.626   4.107
14578TIP3    H143677   3.504   2.576   4.108
14578TIP3    H243678   3.389   2.615   4.018
14579TIP3   OH243679   5.035   6.728  -0.007
14579TIP3    H143680   4.970   6.765   0.053
14579TIP3    H243681   5.119   6.765   0.022
14580TIP3   OH243682   8.051   6.408   3.912
14580TIP3    H143683   8.000   6.489   3.916
14580TIP3    H243684   7.985   6.340   3.898
14581TIP3   OH243685   4.256   5.460   2.390
14581TIP3    H143686   4.312   5.417   2.455
14581TIP3    H243687   4.205   5.524   2.439
14582TIP3   OH243688   1.471   5.965   1.556
14582TIP3    H143689   1.411   5.902   1.595
14582TIP3    H243690   1.502   5.923   1.476
14583TIP3   OH243691   1.472   2.320   0.760
14583TIP3    H143692   1.408   2.391   0.757
14583TIP3    H243693   1.549   2.359   0.800
14584TIP3   OH243694   2.642   2.845   6.690
14584TIP3    H143695   2.588   2.904   6.742
14584TIP3    H243696   2.660   2.894   6.610
14585TIP3   OH243697   1.730   4.127   6.159
14585TIP3    H143698   1.819   4.134   6.195
14585TIP3    H243699   1.697   4.044   6.192
14586TIP3   OH243700   6.171   7.358   2.238
14586TIP3    H143701   6.186   7.452   2.249
14586TIP3    H243702   6.150   7.326   2.326
14587TIP3   OH243703   1.161   2.800   4.163
14587TIP3    H143704   1.205   2.748   4.095
14587TIP3    H243705   1.230   2.860   4.194
14588TIP3   OH243706   5.950   7.639   1.167
14588TIP3    H143707   5.906   7.649   1.083
14588TIP3    H243708   5.920   7.714   1.219
14589TIP3   OH243709   0.055   7.260   0.126
14589TIP3    H143710   0.089   7.224   0.207
14589TIP3    H243711   0.063   7.190   0.062
14590TIP3   OH243712   3.944   0.259   2.873
14590TIP3    H143713   3.870   0.305   2.834
14590TIP3    H243714   4.019   0.284   2.819
14591TIP3   OH243715   8.290   4.521   2.326
14591TIP3    H143716   8.296   4.462   2.251
14591TIP3    H243717   8.241   4.597   2.294
14592TIP3   OH243718   7.245   5.942   1.560
14592TIP3    H143719   7.222   5.920   1.470
14592TIP3    H243720   7.196   5.880   1.614
14593TIP3   OH243721   4.749   5.925   5.855
14593TIP3    H143722   4.697   5.885   5.924
14593TIP3    H243723   4.714   5.887   5.774
14594TIP3   OH243724   8.086   0.437   2.133
14594TIP3    H143725   8.044   0.364   2.087
14594TIP3    H243726   8.018   0.504   2.137
14595TIP3   OH243727   3.157   1.292   1.355
14595TIP3    H143728   3.109   1.374   1.357
14595TIP3    H243729   3.089   1.225   1.365
14596TIP3   OH243730   5.856   5.172   4.979
14596TIP3    H143731   5.948   5.196   4.974
14596TIP3    H243732   5.815   5.244   5.027
14597TIP3   OH243733   0.897   7.391   4.919
14597TIP3    H143734   0.805   7.415   4.904
14597TIP3    H243735   0.893   7.319   4.982
14598TIP3   OH243736   0.721   4.640   6.631
14598TIP3    H143737   0.804   4.616   6.590
14598TIP3    H243738   0.659   4.575   6.599
14599TIP3   OH243739   1.392   5.876   0.063
14599TIP3    H143740   1.404   5.790   0.104
14599TIP3    H243741   1.481   5.911   0.055
14600TIP3   OH243742   6.144   7.115   6.226
14600TIP3    H143743   6.145   7.205   6.193
14600TIP3    H243744   6.085   7.068   6.167
14601TIP3   OH243745   1.899   6.849   3.831
14601TIP3    H143746   1.945   6.875   3.911
14601TIP3    H243747   1.969   6.830   3.769
14602TIP3   OH243748   7.125   3.331   4.476
14602TIP3    H143749   7.190   3.347   4.408
14602TIP3    H243750   7.055   3.284   4.432
14603TIP3   OH243751   2.474   2.986   1.426
14603TIP3    H143752   2.384   3.007   1.452
14603TIP3    H243753   2.467   2.959   1.335
14604TIP3   OH243754   6.629   2.043   3.407
14604TIP3    H143755   6.575   1.977   3.450
14604TIP3    H243756   6.617   2.122   3.460
14605TIP3   OH243757   6.937   1.706   5.955
14605TIP3    H143758   6.849   1.692   5.989
14605TIP3    H243759   6.945   1.645   5.882
14606TIP3   OH243760   3.089   7.678   6.088
14606TIP3    H143761   3.146   7.731   6.143
14606TIP3    H243762   3.106   7.588   6.116
14607TIP3   OH243763   8.151   7.021   0.334
14607TIP3    H143764   8.246   7.007   0.339
14607TIP3    H243765   8.136   7.099   0.388
14608TIP3   OH243766   0.004   3.539   3.598
14608TIP3    H143767   0.078   3.591   3.632
14608TIP3    H243768   0.003   3.559   3.504
14609TIP3   OH243769   0.364   1.124   1.858
14609TIP3    H143770   0.327   1.212   1.860
14609TIP3    H243771   0.306   1.074   1.801
14610TIP3   OH243772   0.694   7.311   5.893
14610TIP3    H143773   0.641   7.352   5.961
14610TIP3    H243774   0.783   7.310   5.929
14611TIP3   OH243775   1.003   2.313   5.631
14611TIP3    H143776   0.983   2.398   5.671
14611TIP3    H243777   1.086   2.287   5.672
14612TIP3   OH243778   0.175   5.464   0.497
14612TIP3    H143779   0.129   5.381   0.505
14612TIP3    H243780   0.139   5.519   0.567
14613TIP3   OH243781   6.752   2.398   5.129
14613TIP3    H143782   6.804   2.475   5.108
14613TIP3    H243783   6.707   2.420   5.210
14614TIP3   OH243784   1.178   1.851   1.595
14614TIP3    H143785   1.085   1.859   1.575
14614TIP3    H243786   1.186   1.765   1.638
14615TIP3   OH243787   0.198   3.945   2.087
14615TIP3    H143788   0.106   3.947   2.113
14615TIP3    H243789   0.247   3.944   2.169
14616TIP3   OH243790   7.532   2.408   2.813
14616TIP3    H143791   7.497   2.475   2.872
14616TIP3    H243792   7.553   2.456   2.733
14617TIP3   OH243793   3.240   4.595   4.413
14617TIP3    H143794   3.266   4.682   4.385
14617TIP3    H243795   3.244   4.541   4.334
14618TIP3   OH243796   6.826   7.064   6.070
14618TIP3    H143797   6.882   6.993   6.098
14618TIP3    H243798   6.741   7.023   6.053
14619TIP3   OH243799   5.189   1.484   3.137
14619TIP3    H143800   5.123   1.446   3.078
14619TIP3    H243801   5.220   1.410   3.188
14620TIP3   OH243802   4.549   0.398   0.745
14620TIP3    H143803   4.500   0.387   0.826
14620TIP3    H243804   4.627   0.344   0.756
14621TIP3   OH243805   5.566   5.211   6.692
14621TIP3    H143806   5.494   5.183   6.635
14621TIP3    H243807   5.524   5.226   6.777
14622TIP3   OH243808   3.675   7.823   0.459
14622TIP3    H143809   3.614   7.753   0.481
14622TIP3    H243810   3.725   7.789   0.385
14623TIP3   OH243811   6.280   2.448   5.578
14623TIP3    H143812   6.333   2.374   5.551
14623TIP3    H243813   6.190   2.415   5.577
14624TIP3   OH243814   7.376   5.625   4.741
14624TIP3    H143815   7.422   5.694   4.789
14624TIP3    H243816   7.283   5.646   4.752
14625TIP3   OH243817   5.705   0.165   6.029
14625TIP3    H143818   5.708   0.092   5.968
14625TIP3    H243819   5.719   0.243   5.975
14626TIP3   OH243820   3.560   6.070   6.029
14626TIP3    H143821   3.543   6.047   6.120
14626TIP3    H243822   3.485   6.124   6.004
14627TIP3   OH243823   7.932   3.193   5.143
14627TIP3    H143824   7.856   3.183   5.200
14627TIP3    H243825   7.978   3.269   5.179
14628TIP3   OH243826   5.614   0.307   2.410
14628TIP3    H143827   5.554   0.381   2.410
14628TIP3    H243828   5.567   0.237   2.455
14629TIP3   OH243829   1.351   3.202   0.970
14629TIP3    H143830   1.258   3.192   0.990
14629TIP3    H243831   1.363   3.153   0.888
14630TIP3   OH243832   3.459   4.171   4.260
14630TIP3    H143833   3.366   4.191   4.261
14630TIP3    H243834   3.490   4.193   4.348
14631TIP3   OH243835   3.199   5.966   4.677
14631TIP3    H143836   3.209   6.001   4.765
14631TIP3    H243837   3.233   6.035   4.620
14632TIP3   OH243838   6.299   0.370   5.690
14632TIP3    H143839   6.240   0.336   5.623
14632TIP3    H243840   6.250   0.442   5.730
14633TIP3   OH243841   5.790   7.266   6.708
14633TIP3    H143842   5.834   7.332   6.762
14633TIP3    H243843   5.859   7.205   6.685
14634TIP3   OH243844   1.222   0.072   6.037
14634TIP3    H143845   1.214  -0.024   6.038
14634TIP3    H243846   1.158   0.102   6.101
14635TIP3   OH243847   4.792   1.849   3.342
14635TIP3    H143848   4.855   1.844   3.415
14635TIP3    H243849   4.721   1.791   3.368
14636TIP3   OH243850   0.667   1.255   2.790
14636TIP3    H143851   0.738   1.315   2.767
14636TIP3    H243852   0.670   1.251   2.886
14637TIP3   OH243853   7.849   4.334   3.827
14637TIP3    H143854   7.937   4.368   3.845
14637TIP3    H243855   7.854   4.241   3.848
14638TIP3   OH243856   2.963   0.936   3.676
14638TIP3    H143857   2.962   0.843   3.697
14638TIP3    H243858   2.993   0.940   3.585
14639TIP3   OH243859   2.949   6.090   1.913
14639TIP3    H143860   2.951   6.162   1.976
14639TIP3    H243861   2.952   6.134   1.828
14640TIP3   OH243862   2.904   0.202   1.020
14640TIP3    H143863   2.988   0.246   1.028
14640TIP3    H243864   2.859   0.248   0.950
14641TIP3   OH243865   0.804   0.166   3.832
14641TIP3    H143866   0.848   0.229   3.890
14641TIP3    H243867   0.845   0.179   3.747
14642TIP3   OH243868   6.350   2.090   4.620
14642TIP3    H143869   6.265   2.054   4.594
14642TIP3    H243870   6.355   2.074   4.714
14643TIP3   OH243871   1.445   4.443   6.482
14643TIP3    H143872   1.385   4.517   6.491
14643TIP3    H243873   1.523   4.481   6.442
14644TIP3   OH243874   4.722   4.639   4.650
14644TIP3    H143875   4.711   4.668   4.559
14644TIP3    H243876   4.685   4.710   4.702
14645TIP3   OH243877   4.388   0.385   0.396
14645TIP3    H143878   4.328   0.311   0.391
14645TIP3    H243879   4.349   0.452   0.341
14646TIP3   OH243880   6.636   0.275   6.656
14646TIP3    H143881   6.723   0.283   6.694
14646TIP3    H243882   6.648   0.225   6.576
14647TIP3   OH243883   3.213   2.700   5.018
14647TIP3    H143884   3.169   2.715   5.102
14647TIP3    H243885   3.265   2.779   5.003
14648TIP3   OH243886   4.535   5.310   6.282
14648TIP3    H143887   4.553   5.316   6.376
14648TIP3    H243888   4.447   5.344   6.272
14649TIP3   OH243889   4.460   7.543   4.602
14649TIP3    H143890   4.410   7.474   4.558
14649TIP3    H243891   4.419   7.625   4.573
14650TIP3   OH243892   5.258   6.875   1.543
14650TIP3    H143893   5.322   6.891   1.612
14650TIP3    H243894   5.286   6.793   1.503
14651TIP3   OH243895   4.294   7.000   3.601
14651TIP3    H143896   4.339   7.024   3.520
14651TIP3    H243897   4.307   7.075   3.659
14652TIP3   OH243898   3.534   3.941   5.549
14652TIP3    H143899   3.519   4.008   5.616
14652TIP3    H243900   3.596   3.982   5.488
14653TIP3   OH243901   3.852   4.027   1.986
14653TIP3    H143902   3.840   4.052   2.077
14653TIP3    H243903   3.782   4.071   1.939
14654TIP3   OH243904   7.147   6.245   2.544
14654TIP3    H143905   7.117   6.176   2.604
14654TIP3    H243906   7.242   6.248   2.557
14655TIP3   OH243907   1.114   1.964   4.339
14655TIP3    H143908   1.162   1.965   4.256
14655TIP3    H243909   1.182   1.955   4.406
14656TIP3   OH243910   4.332   0.107   4.149
14656TIP3    H143911   4.238   0.093   4.135
14656TIP3    H243912   4.366   0.021   4.173
14657TIP3   OH243913   0.643   2.506   3.993
14657TIP3    H143914   0.553   2.538   4.006
14657TIP3    H243915   0.691   2.537   4.069
14658TIP3   OH243916   4.528   5.545   6.167
14658TIP3    H143917   4.434   5.528   6.155
14658TIP3    H243918   4.561   5.467   6.210
14659TIP3   OH243919   0.989   1.789   6.794
14659TIP3    H143920   1.084   1.780   6.797
14659TIP3    H243921   0.956   1.703   6.822
14660TIP3   OH243922   0.547   0.580   5.193
14660TIP3    H143923   0.514   0.492   5.210
14660TIP3    H243924   0.618   0.592   5.256
14661TIP3   OH243925   2.748   2.985   1.305
14661TIP3    H143926   2.703   2.903   1.282
14661TIP3    H243927   2.683   3.034   1.355
14662TIP3   OH243928   6.932   0.256   2.310
14662TIP3    H143929   6.952   0.164   2.296
14662TIP3    H243930   6.838   0.259   2.324
14663TIP3   OH243931   6.364   3.823   2.730
14663TIP3    H143932   6.332   3.804   2.819
14663TIP3    H243933   6.445   3.774   2.722
14664TIP3   OH243934   4.070   0.117   6.384
14664TIP3    H143935   4.073   0.205   6.422
14664TIP3    H243936   4.158   0.102   6.350
14665TIP3   OH243937   0.482   0.253   2.273
14665TIP3    H143938   0.446   0.329   2.226
14665TIP3    H243939   0.411   0.226   2.332
14666TIP3   OH243940   1.142   4.098   6.529
14666TIP3    H143941   1.215   4.108   6.589
14666TIP3    H243942   1.163   4.155   6.455
14667TIP3   OH243943   4.983   0.654   3.150
14667TIP3    H143944   5.028   0.667   3.234
14667TIP3    H243945   4.911   0.594   3.171
14668TIP3   OH243946   5.357   5.337   6.106
14668TIP3    H143947   5.268   5.364   6.081
14668TIP3    H243948   5.395   5.305   6.024
14669TIP3   OH243949   0.824   4.714   0.209
14669TIP3    H143950   0.834   4.809   0.215
14669TIP3    H243951   0.883   4.679   0.276
14670TIP3   OH243952   1.049   3.162   6.026
14670TIP3    H143953   1.076   3.237   5.972
14670TIP3    H243954   1.071   3.085   5.972
14671TIP3   OH243955   7.031  -0.025   3.604
14671TIP3    H143956   6.977  -0.020   3.525
14671TIP3    H243957   7.073   0.060   3.610
14672TIP3   OH243958   0.899   3.622   3.725
14672TIP3    H143959   0.824   3.659   3.772
14672TIP3    H243960   0.915   3.538   3.768
14673TIP3   OH243961   3.478   1.090   2.169
14673TIP3    H143962   3.494   1.171   2.219
14673TIP3    H243963   3.542   1.028   2.204
14674TIP3   OH243964   4.212   5.269   4.113
14674TIP3    H143965   4.176   5.310   4.035
14674TIP3    H243966   4.185   5.326   4.185
14675TIP3   OH243967   1.658   3.544   5.849
14675TIP3    H143968   1.578   3.560   5.899
14675TIP3    H243969   1.686   3.456   5.874
14676TIP3   OH243970   6.575   5.762   6.627
14676TIP3    H143971   6.605   5.672   6.617
14676TIP3    H243972   6.498   5.768   6.570
14677TIP3   OH243973   6.050   7.185   4.941
14677TIP3    H143974   6.106   7.243   4.994
14677TIP3    H243975   6.020   7.119   5.003
14678TIP3   OH243976   6.107   0.779   4.656
14678TIP3    H143977   6.169   0.743   4.719
14678TIP3    H243978   6.142   0.865   4.634
14679TIP3   OH243979   3.747   1.854   0.665
14679TIP3    H143980   3.655   1.880   0.671
14679TIP3    H243981   3.791   1.912   0.727
14680TIP3   OH243982   5.792   2.731   1.728
14680TIP3    H143983   5.813   2.655   1.673
14680TIP3    H243984   5.878   2.761   1.759
14681TIP3   OH243985   7.956   1.347   4.404
14681TIP3    H143986   7.867   1.376   4.423
14681TIP3    H243987   7.946   1.286   4.330
14682TIP3   OH243988   7.533   1.521   3.340
14682TIP3    H143989   7.443   1.536   3.368
14682TIP3    H243990   7.571   1.467   3.409
14683TIP3   OH243991   1.619   2.871   0.509
14683TIP3    H143992   1.675   2.936   0.551
14683TIP3    H243993   1.611   2.901   0.419
14684TIP3   OH243994   1.489   6.680   4.053
14684TIP3    H143995   1.512   6.752   3.994
14684TIP3    H243996   1.500   6.716   4.141
14685TIP3   OH243997   7.184   6.774   3.776
14685TIP3    H143998   7.152   6.705   3.718
14685TIP3    H243999   7.244   6.729   3.836
14686TIP3   OH244000   2.923   2.966   6.160
14686TIP3    H144001   2.967   2.893   6.204
14686TIP3    H244002   2.847   2.926   6.118
14687TIP3   OH244003   1.846   5.464   5.935
14687TIP3    H144004   1.779   5.452   5.868
14687TIP3    H244005   1.835   5.388   5.993
14688TIP3   OH244006   3.573   3.021   1.191
14688TIP3    H144007   3.497   2.973   1.223
14688TIP3    H244008   3.590   3.087   1.258
14689TIP3   OH244009   7.484   7.763   0.801
14689TIP3    H144010   7.520   7.851   0.785
14689TIP3    H244011   7.549   7.721   0.857
14690TIP3   OH244012   7.452   4.568   4.712
14690TIP3    H144013   7.545   4.575   4.689
14690TIP3    H244014   7.452   4.521   4.796
14691TIP3   OH244015   1.736   0.656   0.654
14691TIP3    H144016   1.649   0.646   0.691
14691TIP3    H244017   1.770   0.736   0.694
14692TIP3   OH244018   7.022   4.916   6.385
14692TIP3    H144019   6.977   4.957   6.311
14692TIP3    H244020   7.113   4.907   6.357
14693TIP3   OH244021   0.509   5.609   4.926
14693TIP3    H144022   0.480   5.692   4.964
14693TIP3    H244023   0.585   5.633   4.873
14694TIP3   OH244024   3.608   3.489   5.843
14694TIP3    H144025   3.618   3.407   5.795
14694TIP3    H244026   3.660   3.553   5.794
14695TIP3   OH244027   2.653   0.281   6.279
14695TIP3    H144028   2.721   0.344   6.253
14695TIP3    H244029   2.678   0.255   6.368
14696TIP3   OH244030   4.070   0.819   5.652
14696TIP3    H144031   4.049   0.912   5.643
14696TIP3    H244032   4.046   0.797   5.742
14697TIP3   OH244033   5.516   3.503   1.954
14697TIP3    H144034   5.463   3.569   1.998
14697TIP3    H244035   5.454   3.433   1.933
14698TIP3   OH244036   5.661   5.331   5.275
14698TIP3    H144037   5.700   5.418   5.265
14698TIP3    H244038   5.594   5.327   5.207
14699TIP3   OH244039   5.671   2.203   2.004
14699TIP3    H144040   5.710   2.235   1.923
14699TIP3    H244041   5.644   2.113   1.984
14700TIP3   OH244042   5.315   4.294   6.713
14700TIP3    H144043   5.366   4.272   6.634
14700TIP3    H244044   5.275   4.378   6.692
14701TIP3   OH244045   2.075   4.198   3.159
14701TIP3    H144046   2.122   4.164   3.235
14701TIP3    H244047   2.103   4.290   3.153
14702TIP3   OH244048   5.917   1.010   3.596
14702TIP3    H144049   5.918   0.990   3.689
14702TIP3    H244050   6.009   1.020   3.572
14703TIP3   OH244051   0.740   6.796   6.816
14703TIP3    H144052   0.809   6.749   6.769
14703TIP3    H244053   0.718   6.869   6.759
14704TIP3   OH244054   5.192   6.360   3.795
14704TIP3    H144055   5.246   6.439   3.802
14704TIP3    H244056   5.254   6.288   3.806
14705TIP3   OH244057   2.674   0.134   0.716
14705TIP3    H144058   2.585   0.127   0.681
14705TIP3    H244059   2.708   0.216   0.680
14706TIP3   OH244060   1.860   3.915   4.517
14706TIP3    H144061   1.919   3.884   4.586
14706TIP3    H244062   1.774   3.881   4.541
14707TIP3   OH244063   5.181   4.009   4.104
14707TIP3    H144064   5.200   4.076   4.038
14707TIP3    H244065   5.086   4.013   4.116
14708TIP3   OH244066   8.177   1.514   4.397
14708TIP3    H144067   8.245   1.452   4.423
14708TIP3    H244068   8.100   1.459   4.382
14709TIP3   OH244069   3.488   6.012   0.711
14709TIP3    H144070   3.536   6.014   0.628
14709TIP3    H244071   3.466   5.920   0.723
14710TIP3   OH244072   2.120   6.499   6.633
14710TIP3    H144073   2.044   6.514   6.690
14710TIP3    H244074   2.084   6.453   6.557
14711TIP3   OH244075   3.435   7.233   1.136
14711TIP3    H144076   3.342   7.251   1.145
14711TIP3    H244077   3.454   7.252   1.044
14712TIP3   OH244078   7.858   3.718   4.361
14712TIP3    H144079   7.946   3.698   4.330
14712TIP3    H244080   7.871   3.774   4.437
14713TIP3   OH244081   3.775   5.647   0.922
14713TIP3    H144082   3.754   5.554   0.928
14713TIP3    H244083   3.761   5.669   0.829
14714TIP3   OH244084   6.705   0.918   1.570
14714TIP3    H144085   6.756   0.863   1.510
14714TIP3    H244086   6.735   0.893   1.657
14715TIP3   OH244087   5.211   6.297   6.059
14715TIP3    H144088   5.188   6.379   6.102
14715TIP3    H244089   5.305   6.303   6.044
14716TIP3   OH244090   4.323   5.975   5.455
14716TIP3    H144091   4.298   5.883   5.459
14716TIP3    H244092   4.265   6.013   5.389
14717TIP3   OH244093   0.418   6.057   1.533
14717TIP3    H144094   0.369   6.028   1.610
14717TIP3    H244095   0.488   5.993   1.523
14718TIP3   OH244096   0.727   1.025   6.426
14718TIP3    H144097   0.657   1.058   6.369
14718TIP3    H244098   0.696   0.938   6.453
14719TIP3   OH244099   6.346   0.443   1.059
14719TIP3    H144100   6.314   0.388   1.130
14719TIP3    H244101   6.277   0.440   0.993
14720TIP3   OH244102   1.266   0.247   2.379
14720TIP3    H144103   1.190   0.302   2.360
14720TIP3    H244104   1.228   0.168   2.418
14721TIP3   OH244105   3.884   7.129   2.067
14721TIP3    H144106   3.879   7.161   1.977
14721TIP3    H244107   3.803   7.080   2.079
14722TIP3   OH244108   0.735   4.395   5.193
14722TIP3    H144109   0.785   4.364   5.269
14722TIP3    H244110   0.764   4.485   5.181
14723TIP3   OH244111   6.298   2.364   2.259
14723TIP3    H144112   6.292   2.322   2.345
14723TIP3    H244113   6.213   2.348   2.218
14724TIP3   OH244114   1.451   5.481   1.065
14724TIP3    H144115   1.473   5.569   1.096
14724TIP3    H244116   1.434   5.431   1.145
14725TIP3   OH244117   1.229   3.331   4.488
14725TIP3    H144118   1.289   3.281   4.543
14725TIP3    H244119   1.194   3.267   4.426
14726TIP3   OH244120   2.981   1.552   4.590
14726TIP3    H144121   2.946   1.475   4.635
14726TIP3    H244122   2.994   1.616   4.660
14727TIP3   OH244123   1.852   4.232   0.407
14727TIP3    H144124   1.878   4.140   0.411
14727TIP3    H244125   1.909   4.270   0.340
14728TIP3   OH244126   3.291   6.172   2.390
14728TIP3    H144127   3.293   6.197   2.483
14728TIP3    H244128   3.376   6.131   2.374
14729TIP3   OH244129   2.044   7.743   5.237
14729TIP3    H144130   2.136   7.745   5.212
14729TIP3    H244131   2.044   7.704   5.325
14730TIP3   OH244132   6.366   2.726   4.458
14730TIP3    H144133   6.294   2.730   4.520
14730TIP3    H244134   6.440   2.694   4.509
14731TIP3   OH244135   6.966   7.507   6.090
14731TIP3    H144136   6.983   7.539   6.178
14731TIP3    H244137   7.035   7.443   6.073
14732TIP3   OH244138   6.224   4.945   6.398
14732TIP3    H144139   6.184   4.899   6.472
14732TIP3    H244140   6.178   5.029   6.395
14733TIP3   OH244141   4.501   4.549   6.575
14733TIP3    H144142   4.457   4.558   6.491
14733TIP3    H244143   4.437   4.580   6.639
14734TIP3   OH244144   2.156   6.673   4.630
14734TIP3    H144145   2.106   6.616   4.689
14734TIP3    H244146   2.157   6.626   4.547
14735TIP3   OH244147   4.541   2.431   5.595
14735TIP3    H144148   4.525   2.476   5.678
14735TIP3    H244149   4.454   2.408   5.562
14736TIP3   OH244150   7.460   6.909   0.188
14736TIP3    H144151   7.547   6.907   0.149
14736TIP3    H244152   7.411   6.840   0.142
14737TIP3   OH244153   5.769   3.711   0.813
14737TIP3    H144154   5.692   3.656   0.813
14737TIP3    H244155   5.828   3.670   0.749
14738TIP3   OH244156   1.044   3.691   1.726
14738TIP3    H144157   1.002   3.649   1.801
14738TIP3    H244158   1.120   3.735   1.763
14739TIP3   OH244159   2.247   5.623   0.630
14739TIP3    H144160   2.301   5.566   0.684
14739TIP3    H244161   2.265   5.596   0.540
14740TIP3   OH244162   6.108   0.920   0.782
14740TIP3    H144163   6.070   0.837   0.813
14740TIP3    H244164   6.194   0.895   0.747
14741TIP3   OH244165   3.960   4.575   6.052
14741TIP3    H144166   3.942   4.527   6.132
14741TIP3    H244167   4.038   4.628   6.072
14742TIP3   OH244168   1.714   5.307   1.545
14742TIP3    H144169   1.718   5.389   1.494
14742TIP3    H244170   1.730   5.334   1.635
14743TIP3   OH244171   5.303   1.065   6.501
14743TIP3    H144172   5.306   0.999   6.432
14743TIP3    H244173   5.392   1.070   6.535
14744TIP3   OH244174   6.646   5.491   4.184
14744TIP3    H144175   6.608   5.437   4.254
14744TIP3    H244176   6.722   5.532   4.224
14745TIP3   OH244177   3.553   0.297   0.861
14745TIP3    H144178   3.497   0.315   0.785
14745TIP3    H244179   3.595   0.213   0.840
14746TIP3   OH244180   0.919   5.633   0.483
14746TIP3    H144181   0.901   5.597   0.570
14746TIP3    H244182   1.014   5.628   0.474
14747TIP3   OH244183   1.182   7.709   0.068
14747TIP3    H144184   1.272   7.676   0.070
14747TIP3    H244185   1.130   7.635   0.036
14748TIP3   OH244186   4.184   1.248   5.484
14748TIP3    H144187   4.248   1.195   5.532
14748TIP3    H244188   4.127   1.184   5.442
14749TIP3   OH244189   6.148   6.084   2.861
14749TIP3    H144190   6.205   6.012   2.836
14749TIP3    H244191   6.083   6.044   2.918
14750TIP3   OH244192   0.159   6.998   6.753
14750TIP3    H144193   0.146   7.006   6.658
14750TIP3    H244194   0.251   7.022   6.766
14751TIP3   OH244195   1.362   2.687   4.598
14751TIP3    H144196   1.300   2.725   4.535
14751TIP3    H244197   1.410   2.621   4.548
14752TIP3   OH244198   3.099   6.025   2.864
14752TIP3    H144199   3.037   6.024   2.936
14752TIP3    H244200   3.177   5.979   2.897
14753TIP3   OH244201   1.939   3.601   3.356
14753TIP3    H144202   1.927   3.600   3.451
14753TIP3    H244203   1.899   3.683   3.327
14754TIP3   OH244204   5.879   0.147   5.239
14754TIP3    H144205   5.871   0.236   5.274
14754TIP3    H244206   5.915   0.096   5.312
14755TIP3   OH244207   2.159   6.749   3.675
14755TIP3    H144208   2.116   6.752   3.589
14755TIP3    H244209   2.203   6.833   3.683
14756TIP3   OH244210   6.928   6.524   6.106
14756TIP3    H144211   6.868   6.456   6.074
14756TIP3    H244212   7.001   6.523   6.044
14757TIP3   OH244213   2.587   7.181   6.495
14757TIP3    H144214   2.560   7.091   6.475
14757TIP3    H244215   2.527   7.236   6.445
14758TIP3   OH244216   5.757   2.594   1.309
14758TIP3    H144217   5.730   2.552   1.227
14758TIP3    H244218   5.853   2.589   1.307
14759TIP3   OH244219   4.667   1.354   6.619
14759TIP3    H144220   4.669   1.380   6.711
14759TIP3    H244221   4.595   1.290   6.614
14760TIP3   OH244222   1.819   1.114   1.962
14760TIP3    H144223   1.879   1.141   2.032
14760TIP3    H244224   1.829   1.019   1.958
14761TIP3   OH244225   0.893   3.246   0.840
14761TIP3    H144226   0.806   3.244   0.880
14761TIP3    H244227   0.879   3.225   0.748
14762TIP3   OH244228   8.224   2.019   2.185
14762TIP3    H144229   8.224   1.940   2.239
14762TIP3    H244230   8.213   2.091   2.247
14763TIP3   OH244231   6.838   5.196   0.811
14763TIP3    H144232   6.794   5.170   0.893
14763TIP3    H244233   6.769   5.235   0.758
14764TIP3   OH244234   3.696   0.308   2.441
14764TIP3    H144235   3.715   0.335   2.531
14764TIP3    H244236   3.780   0.313   2.396
14765TIP3   OH244237   7.083   2.162   0.977
14765TIP3    H144238   7.012   2.113   1.018
14765TIP3    H244239   7.088   2.129   0.888
14766TIP3   OH244240   1.101   4.126   2.959
14766TIP3    H144241   1.138   4.180   3.029
14766TIP3    H244242   1.066   4.188   2.896
14767TIP3   OH244243   1.516   5.956   3.701
14767TIP3    H144244   1.580   5.887   3.687
14767TIP3    H244245   1.519   6.009   3.621
14768TIP3   OH244246   2.682   1.929   1.951
14768TIP3    H144247   2.671   2.024   1.949
14768TIP3    H244248   2.669   1.901   1.860
14769TIP3   OH244249   4.624   2.843   0.045
14769TIP3    H144250   4.573   2.766   0.020
14769TIP3    H244251   4.708   2.807   0.074
14770TIP3   OH244252   7.242   1.916   6.261
14770TIP3    H144253   7.202   1.912   6.347
14770TIP3    H244254   7.182   1.868   6.204
14771TIP3   OH244255   3.669   6.292   5.143
14771TIP3    H144256   3.682   6.298   5.237
14771TIP3    H244257   3.758   6.296   5.107
14772TIP3   OH244258   4.665   5.835   0.205
14772TIP3    H144259   4.576   5.856   0.174
14772TIP3    H244260   4.672   5.878   0.289
14773TIP3   OH244261   5.856   6.382   4.491
14773TIP3    H144262   5.884   6.324   4.561
14773TIP3    H244263   5.934   6.393   4.436
14774TIP3   OH244264   7.737   5.721   5.987
14774TIP3    H144265   7.656   5.696   6.031
14774TIP3    H244266   7.709   5.759   5.904
14775TIP3   OH244267   7.527   0.441   1.246
14775TIP3    H144268   7.581   0.499   1.192
14775TIP3    H244269   7.533   0.356   1.203
14776TIP3   OH244270   3.718   1.891   0.124
14776TIP3    H144271   3.639   1.842   0.105
14776TIP3    H244272   3.771   1.884   0.045
14777TIP3   OH244273   7.290   3.333   0.718
14777TIP3    H144274   7.347   3.342   0.642
14777TIP3    H244275   7.301   3.242   0.747
14778TIP3   OH244276   3.613   0.858   2.217
14778TIP3    H144277   3.619   0.798   2.291
14778TIP3    H244278   3.563   0.810   2.151
14779TIP3   OH244279   2.230   1.331   0.496
14779TIP3    H144280   2.165   1.335   0.426
14779TIP3    H244281   2.266   1.242   0.490
14780TIP3   OH244282   2.519   0.082   4.227
14780TIP3    H144283   2.473   0.143   4.284
14780TIP3    H244284   2.450   0.033   4.183
14781TIP3   OH244285   7.998   0.502   1.642
14781TIP3    H144286   7.940   0.571   1.612
14781TIP3    H244287   7.974   0.426   1.590
14782TIP3   OH244288   3.810   1.965   4.745
14782TIP3    H144289   3.837   2.014   4.667
14782TIP3    H244290   3.743   2.020   4.785
14783TIP3   OH244291   1.358   2.836   0.035
14783TIP3    H144292   1.291   2.779  -0.004
14783TIP3    H244293   1.314   2.920   0.049
14784TIP3   OH244294   4.345   3.728   1.645
14784TIP3    H144295   4.309   3.806   1.687
14784TIP3    H244296   4.292   3.716   1.566
14785TIP3   OH244297   5.820   0.995   5.017
14785TIP3    H144298   5.827   0.901   5.002
14785TIP3    H244299   5.873   1.034   4.948
14786TIP3   OH244300   5.915   2.962   3.637
14786TIP3    H144301   5.922   2.871   3.665
14786TIP3    H244302   5.999   2.981   3.595
14787TIP3   OH244303   0.900   2.887   0.862
14787TIP3    H144304   0.815   2.924   0.839
14787TIP3    H244305   0.880   2.821   0.928
14788TIP3   OH244306   3.040   3.225   4.746
14788TIP3    H144307   3.057   3.302   4.800
14788TIP3    H244308   2.984   3.170   4.801
14789TIP3   OH244309   6.030   7.515   2.716
14789TIP3    H144310   6.122   7.509   2.689
14789TIP3    H244311   5.999   7.424   2.713
14790TIP3   OH244312   1.634   1.110   0.082
14790TIP3    H144313   1.567   1.155   0.030
14790TIP3    H244314   1.674   1.179   0.135
14791TIP3   OH244315   1.169   1.573   4.301
14791TIP3    H144316   1.224   1.624   4.243
14791TIP3    H244317   1.133   1.504   4.246
14792TIP3   OH244318   8.022   4.270   2.190
14792TIP3    H144319   8.116   4.280   2.183
14792TIP3    H244320   7.993   4.343   2.245
14793TIP3   OH244321   0.729   2.451   6.275
14793TIP3    H144322   0.782   2.473   6.198
14793TIP3    H244323   0.793   2.437   6.345
14794TIP3   OH244324   1.582   4.200   1.969
14794TIP3    H144325   1.547   4.157   2.047
14794TIP3    H244326   1.625   4.279   2.003
14795TIP3   OH244327   7.325   6.021   2.260
14795TIP3    H144328   7.350   6.060   2.344
14795TIP3    H244329   7.401   5.969   2.234
14796TIP3   OH244330   1.950   1.449   1.785
14796TIP3    H144331   2.016   1.519   1.787
14796TIP3    H244332   1.917   1.449   1.695
14797TIP3   OH244333   2.060   0.168   1.121
14797TIP3    H144334   2.086   0.076   1.118
14797TIP3    H244335   2.131   0.214   1.076
14798TIP3   OH244336   5.655   0.702   5.626
14798TIP3    H144337   5.676   0.728   5.715
14798TIP3    H244338   5.572   0.745   5.607
14799TIP3   OH244339   4.221   1.833   5.906
14799TIP3    H144340   4.248   1.741   5.916
14799TIP3    H244341   4.261   1.861   5.824
14800TIP3   OH244342   3.493   4.649   4.120
14800TIP3    H144343   3.581   4.667   4.088
14800TIP3    H244344   3.507   4.615   4.209
14801TIP3   OH244345   1.167   2.239   0.037
14801TIP3    H144346   1.244   2.236  -0.020
14801TIP3    H244347   1.190   2.304   0.104
14802TIP3   OH244348   5.458   3.629   1.542
14802TIP3    H144349   5.395   3.665   1.480
14802TIP3    H244350   5.407   3.612   1.621
14803TIP3   OH244351   1.832   7.648   0.745
14803TIP3    H144352   1.922   7.668   0.719
14803TIP3    H244353   1.825   7.681   0.835
14804TIP3   OH244354   2.217   4.817   6.242
14804TIP3    H144355   2.149   4.846   6.303
14804TIP3    H244356   2.284   4.885   6.248
14805TIP3   OH244357   2.127   2.991   1.190
14805TIP3    H144358   2.164   3.033   1.268
14805TIP3    H244359   2.065   3.055   1.155
14806TIP3   OH244360   7.170   7.582   0.540
14806TIP3    H144361   7.223   7.508   0.512
14806TIP3    H244362   7.184   7.648   0.472
14807TIP3   OH244363   4.633   6.551   4.886
14807TIP3    H144364   4.728   6.541   4.879
14807TIP3    H244365   4.614   6.634   4.842
14808TIP3   OH244366   5.603   6.653   6.083
14808TIP3    H144367   5.664   6.579   6.084
14808TIP3    H244368   5.550   6.640   6.162
14809TIP3   OH244369   5.818   6.945   3.889
14809TIP3    H144370   5.873   6.988   3.955
14809TIP3    H244371   5.794   7.015   3.829
14810TIP3   OH244372   7.135   3.345   1.702
14810TIP3    H144373   7.175   3.278   1.647
14810TIP3    H244374   7.190   3.348   1.780
14811TIP3   OH244375   3.579   0.198   4.820
14811TIP3    H144376   3.589   0.262   4.890
14811TIP3    H244377   3.541   0.122   4.863
14812TIP3   OH244378   3.456   3.381   4.020
14812TIP3    H144379   3.438   3.390   3.927
14812TIP3    H244380   3.512   3.304   4.027
14813TIP3   OH244381   7.435   3.224   1.716
14813TIP3    H144382   7.422   3.136   1.753
14813TIP3    H244383   7.391   3.283   1.778
14814TIP3   OH244384   0.924   7.342   2.555
14814TIP3    H144385   0.920   7.249   2.579
14814TIP3    H244386   0.845   7.356   2.503
14815TIP3   OH244387   0.906   7.079   2.575
14815TIP3    H144388   0.836   7.034   2.623
14815TIP3    H244389   0.912   7.034   2.491
14816TIP3   OH244390   6.954   0.707   4.999
14816TIP3    H144391   6.938   0.614   5.016
14816TIP3    H244392   6.936   0.750   5.083
14817TIP3   OH244393   8.312   6.983   4.827
14817TIP3    H144394   8.250   6.913   4.847
14817TIP3    H244395   8.278   7.059   4.874
14818TIP3   OH244396   3.627   3.229   3.651
14818TIP3    H144397   3.578   3.146   3.650
14818TIP3    H244398   3.673   3.228   3.735
14819TIP3   OH244399   3.318   0.372   4.793
14819TIP3    H144400   3.319   0.367   4.888
14819TIP3    H244401   3.390   0.430   4.771
14820TIP3   OH244402   2.620   4.193   0.875
14820TIP3    H144403   2.542   4.223   0.922
14820TIP3    H244404   2.619   4.241   0.792
14821TIP3   OH244405   3.201   5.246   4.297
14821TIP3    H144406   3.274   5.306   4.280
14821TIP3    H244407   3.144   5.255   4.221
14822TIP3   OH244408   3.053   6.312   3.674
14822TIP3    H144409   3.061   6.392   3.727
14822TIP3    H244410   2.998   6.255   3.727
14823TIP3   OH244411   0.413   6.375   1.523
14823TIP3    H144412   0.434   6.282   1.518
14823TIP3    H244413   0.489   6.415   1.565
14824TIP3   OH244414   0.960   0.816   4.526
14824TIP3    H144415   1.033   0.866   4.488
14824TIP3    H244416   0.967   0.730   4.486
14825TIP3   OH244417   0.770   6.933   4.095
14825TIP3    H144418   0.863   6.921   4.076
14825TIP3    H244419   0.735   6.844   4.099
14826TIP3   OH244420   6.956   0.439   5.096
14826TIP3    H144421   7.011   0.401   5.028
14826TIP3    H244422   6.962   0.378   5.170
14827TIP3   OH244423   6.085   2.313   1.872
14827TIP3    H144424   6.142   2.378   1.831
14827TIP3    H244425   6.145   2.244   1.899
14828TIP3   OH244426   2.123   0.587   4.387
14828TIP3    H144427   2.171   0.663   4.353
14828TIP3    H244428   2.192   0.521   4.402
14829TIP3   OH244429   4.612   1.604   2.151
14829TIP3    H144430   4.685   1.643   2.200
14829TIP3    H244431   4.651   1.533   2.102
14830TIP3   OH244432   7.206   6.236   3.495
14830TIP3    H144433   7.209   6.293   3.571
14830TIP3    H244434   7.124   6.260   3.450
   8.29898   7.82436   6.77609   0.00000   0.00000  -2.76632   0.00000  -2.76632  -3.91217
