* SET NIONTYPES = 1
* SET NPOSTOT = 36
* SET NNEGTOT = 34
* SET NIONTOT = 70
*  DATE:     6/13/26      7:57:52      CREATED BY USER: charmm-gui
*
        70  EXT
         1         1  LIT       LIT           -19.8583480668       -2.3425154632      -23.2258298232  IONS      1               1.0000000000
         2         2  LIT       LIT            26.2985898984      -14.9375069012       20.0618722021  IONS      2               1.0000000000
         3         3  LIT       LIT            -2.5913441369      -38.4951600069      -23.0854856272  IONS      3               1.0000000000
         4         4  LIT       LIT            26.2175455680       40.5898256933       -2.5646706782  IONS      4               1.0000000000
         5         5  LIT       LIT            23.3357702892       25.8179088826      -14.9254325815  IONS      5               1.0000000000
         6         6  LIT       LIT            17.0503470750      -14.1920077832       -9.4100555791  IONS      6               1.0000000000
         7         7  LIT       LIT            14.3167266790       31.2322966630       13.5747990219  IONS      7               1.0000000000
         8         8  LIT       LIT           -21.5926017564        4.3797854083      -12.9008594198  IONS      8               1.0000000000
         9         9  LIT       LIT           -16.0972137577        2.2701182171       21.6783196511  IONS      9               1.0000000000
        10        10  LIT       LIT            12.1095955695      -36.7555703633        3.3377521353  IONS      10              1.0000000000
        11        11  LIT       LIT           -32.9993493634       22.2395363695       16.0995238186  IONS      11              1.0000000000
        12        12  LIT       LIT            29.7960583288       10.8879081271       19.4457826487  IONS      12              1.0000000000
        13        13  LIT       LIT            -0.0662314689      -23.3411644872       12.5266039092  IONS      13              1.0000000000
        14        14  LIT       LIT           -22.8164273916      -37.4072974716       -2.8600830030  IONS      14              1.0000000000
        15        15  LIT       LIT            -7.2952603704       -5.4919369091        6.5755287793  IONS      15              1.0000000000
        16        16  LIT       LIT           -31.8630346950      -30.9695903187       10.6900202056  IONS      16              1.0000000000
        17        17  LIT       LIT           -28.7279975608      -15.5966230565       25.1330832073  IONS      17              1.0000000000
        18        18  LIT       LIT            36.5181411527       11.7348289110        2.7493731739  IONS      18              1.0000000000
        19        19  LIT       LIT            -5.1839276430       -9.5994139715      -21.1768678253  IONS      19              1.0000000000
        20        20  LIT       LIT            16.1387878139       14.9523147969       11.9142922836  IONS      20              1.0000000000
        21        21  LIT       LIT           -32.6675369635       17.5265760045       -4.9091456823  IONS      21              1.0000000000
        22        22  LIT       LIT            21.4768166951       -6.2880282216      -21.6709141511  IONS      22              1.0000000000
        23        23  LIT       LIT            16.0139119582        8.5310076587       14.8589484038  IONS      23              1.0000000000
        24        24  LIT       LIT            21.6072585556       -1.7889586984       11.3713121309  IONS      24              1.0000000000
        25        25  LIT       LIT            10.3180092268        0.0418115699      -17.8790909790  IONS      25              1.0000000000
        26        26  LIT       LIT            17.1301881970       -9.7879080837      -38.2828889344  IONS      26              1.0000000000
        27        27  LIT       LIT           -13.0238176825       19.4729998934      -10.4787801486  IONS      27              1.0000000000
        28        28  LIT       LIT             0.1296352831       27.7507282285       14.1058531475  IONS      28              1.0000000000
        29        29  LIT       LIT            10.4879143597      -28.6931599161      -27.8726097220  IONS      29              1.0000000000
        30        30  LIT       LIT             8.2886314145       38.0991817400        0.7130397661  IONS      30              1.0000000000
        31        31  LIT       LIT             1.0357673954       -6.7543367981        4.3649774564  IONS      31              1.0000000000
        32        32  LIT       LIT           -27.6845958096       -5.1996597311      -29.0242099554  IONS      32              1.0000000000
        33        33  LIT       LIT            21.8617354274        6.9066909673       29.6929386593  IONS      33              1.0000000000
        34        34  LIT       LIT           -38.4748472623       -5.7596208496      -20.2450829834  IONS      34              1.0000000000
        35        35  LIT       LIT           -25.8530542663      -33.0640181215       -2.5575350612  IONS      35              1.0000000000
        36        36  LIT       LIT            18.2535324062       -6.0021291270       39.7147289373  IONS      36              1.0000000000
        37        37  CLA       CLA            23.2448179933      -23.5524028716      -31.3399451623  IONS      37             -1.0000000000
        38        38  CLA       CLA            12.0171948794       19.5013035835      -22.9408256047  IONS      38             -1.0000000000
        39        39  CLA       CLA             9.6872377279       -6.8455767052      -23.4028706094  IONS      39             -1.0000000000
        40        40  CLA       CLA           -16.5077726195       14.8681914308      -29.3578306673  IONS      40             -1.0000000000
        41        41  CLA       CLA            -4.4350973237       -8.3340964198      -28.4915966066  IONS      41             -1.0000000000
        42        42  CLA       CLA           -22.5582883168      -41.1117711769        6.6881373676  IONS      42             -1.0000000000
        43        43  CLA       CLA           -28.7741399728      -32.8493927729       -0.9464906242  IONS      43             -1.0000000000
        44        44  CLA       CLA           -27.2965123975      -18.8294686607       -4.0648777213  IONS      44             -1.0000000000
        45        45  CLA       CLA            33.7134361517      -12.9373723854        4.2711820619  IONS      45             -1.0000000000
        46        46  CLA       CLA             8.6406548332       31.5236698906       10.6832205746  IONS      46             -1.0000000000
        47        47  CLA       CLA            12.6511070363      -30.6383020860       13.4514661966  IONS      47             -1.0000000000
        48        48  CLA       CLA             5.7843682335       13.8400136834       39.4851602971  IONS      48             -1.0000000000
        49        49  CLA       CLA             9.3571428525        9.4012502837      -15.4012686160  IONS      49             -1.0000000000
        50        50  CLA       CLA           -11.9116960247       -9.4329505137       18.9610319918  IONS      50             -1.0000000000
        51        51  CLA       CLA            25.0049339894      -14.1521059589       -5.4120623503  IONS      51             -1.0000000000
        52        52  CLA       CLA            41.3026902108        8.7041953568        9.7778585570  IONS      52             -1.0000000000
        53        53  CLA       CLA            32.4652066267      -13.1452180278       26.8182462196  IONS      53             -1.0000000000
        54        54  CLA       CLA           -33.7368752469       31.7844633938       -5.4612849914  IONS      54             -1.0000000000
        55        55  CLA       CLA            19.8556757592       20.6359778069       14.9765387679  IONS      55             -1.0000000000
        56        56  CLA       CLA            -8.1981466103       33.0320960208       21.8404166746  IONS      56             -1.0000000000
        57        57  CLA       CLA            11.5629491774      -26.9167045431      -19.8233336150  IONS      57             -1.0000000000
        58        58  CLA       CLA            -1.3876365100      -31.4972291138       16.3799413071  IONS      58             -1.0000000000
        59        59  CLA       CLA           -18.6597669714      -41.1522151414        0.4017717192  IONS      59             -1.0000000000
        60        60  CLA       CLA            -9.1764248956       -6.3114361213       13.7500527248  IONS      60             -1.0000000000
        61        61  CLA       CLA           -25.0443920399       -7.1551616293      -30.9648353288  IONS      61             -1.0000000000
        62        62  CLA       CLA            -5.8257566530       -8.7876552403      -16.0611267981  IONS      62             -1.0000000000
        63        63  CLA       CLA            24.3994635509        7.4347095292       26.7940338828  IONS      63             -1.0000000000
        64        64  CLA       CLA            -9.9213408198       28.2718965635       -9.7558640556  IONS      64             -1.0000000000
        65        65  CLA       CLA           -16.5676413328      -39.4656790713      -12.3398350418  IONS      65             -1.0000000000
        66        66  CLA       CLA            35.9564582122        9.2274193107      -25.4260697683  IONS      66             -1.0000000000
        67        67  CLA       CLA            10.0964001767      -18.9416361900      -42.7961588846  IONS      67             -1.0000000000
        68        68  CLA       CLA           -20.6777120658        7.4162461872       27.4121232925  IONS      68             -1.0000000000
        69        69  CLA       CLA            23.6676446778        7.0838566472       18.7859227003  IONS      69             -1.0000000000
        70        70  CLA       CLA           -12.2859362486        6.4672317402      -16.0481903986  IONS      70             -1.0000000000
