Title
51181
    1GLY      N    1   2.154   0.964   5.060  0.2637 -0.1929 -0.1395
    1GLY    HT1    2   2.181   1.063   5.043 -0.9112 -0.1167 -1.7235
    1GLY    HT2    3   2.121   0.949   5.158  0.1710  0.8418  0.0075
    1GLY    HT3    4   2.074   0.957   4.995 -1.4401  0.0092  1.8207
    1GLY     CA    5   2.249   0.858   5.031 -0.4221 -0.6083  0.1559
    1GLY    HA1    6   2.253   0.842   4.924 -1.9867  1.5925 -0.2888
    1GLY    HA2    7   2.206   0.775   5.085  0.9267 -2.4918 -1.5211
    1GLY      C    8   2.386   0.889   5.089 -0.6001  1.4345 -0.4367
    1GLY      O    9   2.407   0.999   5.136  0.0055 -0.2413  0.2729
    2PRO      N   10   2.478   0.792   5.077  0.5225  0.3497 -0.0089
    2PRO     CD   11   2.442   0.652   5.041 -0.7019 -0.0276  0.6762
    2PRO    HD1   12   2.461   0.637   4.933  3.2059  0.3330  1.1590
    2PRO    HD2   13   2.341   0.616   5.069 -1.0245  0.3492  0.0223
    2PRO     CA   14   2.616   0.804   5.130  0.8539 -0.0481  0.1479
    2PRO     HA   15   2.604   0.839   5.232  0.3083 -1.0222  0.4277
    2PRO     CB   16   2.669   0.662   5.106  0.1225 -0.2134  0.3812
    2PRO    HB1   17   2.757   0.642   5.171  0.2208  0.6378  0.5180
    2PRO    HB2   18   2.706   0.640   5.004 -0.9085  1.8154 -0.4826
    2PRO     CG   19   2.548   0.576   5.123  0.6834 -0.1533 -0.0274
    2PRO    HG1   20   2.560   0.478   5.073  1.0941 -0.8037  1.3353
    2PRO    HG2   21   2.541   0.572   5.233 -0.8952  2.2129  0.0416
    2PRO      C   22   2.713   0.896   5.062  0.4642  0.1661  0.4116
    2PRO      O   23   2.825   0.918   5.107 -0.2138  0.5174 -0.1096
    3GLY      N   24   2.679   0.957   4.945 -0.3237 -0.3959  0.5946
    3GLY     HN   25   2.594   0.947   4.893 -0.3753  1.7779  0.1770
    3GLY     CA   26   2.761   1.065   4.884  0.1397  0.0848  0.5996
    3GLY    HA1   27   2.710   1.092   4.793 -0.3198 -0.0182  0.8231
    3GLY    HA2   28   2.856   1.021   4.856 -0.2706 -0.6353  0.3102
    3GLY      C   29   2.782   1.189   4.965  0.0566 -0.0322 -0.1630
    3GLY      O   30   2.731   1.204   5.079 -0.5854 -0.2378  0.6579
    4ASP      N   31   2.862   1.289   4.910  0.0819  0.6188 -0.1721
    4ASP     HN   32   2.905   1.280   4.821  0.6344 -0.1821  0.1665
    4ASP     CA   33   2.891   1.410   4.987 -0.1456 -0.2587  0.2512
    4ASP     HA   34   2.927   1.368   5.079  0.6892 -0.3629 -0.1149
    4ASP     CB   35   3.008   1.487   4.919 -0.7544  0.7300 -0.1522
    4ASP    HB1   36   3.029   1.578   4.978 -1.5048 -0.4162  2.0243
    4ASP    HB2   37   2.971   1.507   4.816 -0.2004 -1.6678 -0.8775
    4ASP     CG   38   3.143   1.411   4.912  0.4537  0.1706  0.2809
    4ASP    OD1   39   3.227   1.451   4.829 -0.2575 -0.3641  0.9382
    4ASP    OD2   40   3.164   1.315   4.992 -0.0148 -0.3741  0.1592
    4ASP      C   41   2.764   1.501   5.005  0.4237 -0.9540 -0.0657
    4ASP      O   42   2.671   1.513   4.922 -0.0832 -0.0550 -0.0226
    5PRO      N   43   2.758   1.571   5.124  0.4253  0.5676  0.8338
    5PRO     CD   44   2.852   1.568   5.231  0.1375  0.0367  0.0399
    5PRO    HD1   45   2.959   1.569   5.201  1.0042 -1.8142  2.6852
    5PRO    HD2   46   2.825   1.477   5.289 -2.1168  1.2367  0.9943
    5PRO     CA   47   2.634   1.641   5.165 -0.0340  0.2130  0.0494
    5PRO     HA   48   2.557   1.565   5.167 -2.1872  2.3005  0.8472
    5PRO     CB   49   2.669   1.714   5.297 -0.8528 -0.6654 -0.8733
    5PRO    HB1   50   2.636   1.653   5.384  2.5355 -1.4988 -0.0529
    5PRO    HB2   51   2.635   1.819   5.305 -0.3700 -0.6027  0.9451
    5PRO     CG   52   2.819   1.688   5.309 -0.0704  0.2998 -0.7645
    5PRO    HG1   53   2.874   1.767   5.253  2.1981  0.0036  0.8756
    5PRO    HG2   54   2.853   1.683   5.415 -0.3700  1.5300 -0.5977
    5PRO      C   55   2.587   1.742   5.062 -0.0658  0.2735 -0.4654
    5PRO      O   56   2.667   1.826   5.015  0.7416  0.3482  0.0073
    6GLY      N   57   2.456   1.737   5.022 -0.5368  0.2393  0.7633
    6GLY     HN   58   2.398   1.663   5.056 -0.5867 -1.3551 -2.4091
    6GLY     CA   59   2.393   1.826   4.921  0.4391 -0.2687 -0.4122
    6GLY    HA1   60   2.297   1.778   4.906 -0.1741  0.7495  0.0830
    6GLY    HA2   61   2.461   1.845   4.840  0.2462 -0.1423 -0.5472
    6GLY      C   62   2.348   1.962   4.976 -0.3872 -0.0038  0.3843
    6GLY      O   63   2.366   2.000   5.092 -0.1761  0.8537  0.1867
    7SER      N   64   2.300   2.044   4.886 -0.3710  0.0470 -0.2508
    7SER     HN   65   2.272   2.009   4.797  0.2410  3.0071 -1.7545
    7SER     CA   66   2.292   2.184   4.902 -0.3834 -0.2334  0.4482
    7SER     HA   67   2.363   2.215   4.978  0.4661 -2.8660  0.8427
    7SER     CB   68   2.314   2.268   4.770 -0.8134  0.2358 -1.0001
    7SER    HB1   69   2.228   2.257   4.701 -2.4398  0.6721  0.8709
    7SER    HB2   70   2.397   2.226   4.709  1.2141  1.4052  0.7886
    7SER     OG   71   2.350   2.400   4.798  0.2486 -0.6388  0.0011
    7SER    HG1   72   2.395   2.396   4.883 -0.5487 -0.0151  0.4634
    7SER      C   73   2.151   2.209   4.953 -0.2933  0.0433  0.0214
    7SER      O   74   2.055   2.148   4.905  0.0143 -0.1268 -0.2856
    8ASP      N   75   2.137   2.300   5.046  0.1027 -0.6623 -0.1041
    8ASP     HN   76   2.215   2.341   5.092 -1.0255  0.7671  0.6440
    8ASP     CA   77   2.010   2.340   5.100  0.0108 -0.0464 -0.3821
    8ASP     HA   78   1.935   2.276   5.056  0.9736 -0.6807 -1.1396
    8ASP     CB   79   2.023   2.334   5.253  0.3275  1.0713  0.2033
    8ASP    HB1   80   1.936   2.382   5.302 -1.6026 -2.2738  0.4229
    8ASP    HB2   81   2.112   2.396   5.275  0.7002 -0.3594  3.2181
    8ASP     CG   82   2.025   2.193   5.311  0.0761  0.2522  0.6648
    8ASP    OD1   83   1.947   2.101   5.278 -0.4019  0.2048 -0.6563
    8ASP    OD2   84   2.122   2.168   5.385 -0.1131 -0.4519 -0.1933
    8ASP      C   85   1.972   2.485   5.057  0.2332 -0.6215 -0.4366
    8ASP      O   86   2.059   2.560   5.015 -0.0348  0.5708 -0.5468
    9GLY      N   87   1.841   2.512   5.055 -0.5211  0.0939  0.5085
    9GLY     HN   88   1.782   2.449   5.103 -1.6592 -1.1283 -2.2685
    9GLY     CA   89   1.781   2.631   4.994  0.2500 -0.0245 -0.2754
    9GLY    HA1   90   1.696   2.652   5.058  2.0006  0.2051  2.0872
    9GLY    HA2   91   1.752   2.601   4.894 -0.8375 -1.1964  0.3554
    9GLY      C   92   1.850   2.765   5.011  0.3226  0.4868  0.3901
    9GLY      O   93   1.879   2.805   5.126 -0.3556  0.8170  0.8074
   10PRO      N   94   1.869   2.844   4.904  0.3958  0.0944 -0.1200
   10PRO     CD   95   1.875   2.799   4.768 -0.5670  0.2166  0.1643
   10PRO    HD1   96   1.773   2.785   4.725  0.5159 -1.5902 -2.1193
   10PRO    HD2   97   1.929   2.701   4.763  1.0584  1.0441  0.9011
   10PRO     CA   98   1.894   2.986   4.918  0.0231  0.7816 -0.2478
   10PRO     HA   99   1.988   2.989   4.970 -1.1758  3.0109  2.0277
   10PRO     CB  100   1.898   3.031   4.773  0.4118 -0.0816 -0.2107
   10PRO    HB1  101   1.962   3.122   4.767  0.3615 -0.0682 -0.5619
   10PRO    HB2  102   1.796   3.049   4.732 -1.0066 -2.2994  2.0158
   10PRO     CG  103   1.944   2.909   4.695  0.1460 -0.0235 -0.2411
   10PRO    HG1  104   1.912   2.911   4.588 -1.0856 -0.8240  0.0908
   10PRO    HG2  105   2.053   2.888   4.704 -0.0810 -0.5629  1.5459
   10PRO      C  106   1.788   3.055   4.997 -0.0589  0.1035  0.4756
   10PRO      O  107   1.687   2.991   5.032 -0.4578  0.3131 -0.7058
   11GLY      N  108   1.812   3.174   5.051  0.3180 -0.2097 -0.4370
   11GLY     HN  109   1.902   3.217   5.043 -0.3364  1.1830 -0.6288
   11GLY     CA  110   1.712   3.263   5.115 -0.3375  0.0731 -0.7049
   11GLY    HA1  111   1.773   3.348   5.141 -0.2590  0.0442 -0.7935
   11GLY    HA2  112   1.673   3.219   5.205  1.1502  0.9830  0.4411
   11GLY      C  113   1.589   3.311   5.041  0.2085  0.5096 -1.0085
   11GLY      O  114   1.544   3.256   4.938 -0.6234  0.1930  0.5590
   12ASP      N  115   1.522   3.420   5.091 -0.5609 -0.7453 -0.0826
   12ASP     HN  116   1.545   3.451   5.183  1.1648 -0.0798 -0.6923
   12ASP     CA  117   1.404   3.491   5.041  0.4389 -0.4125  0.3292
   12ASP     HA  118   1.334   3.418   5.004 -1.8410  1.9694 -0.3453
   12ASP     CB  119   1.343   3.580   5.151 -0.0665  0.7474  0.3473
   12ASP    HB1  120   1.266   3.653   5.119 -0.8750 -0.6658 -1.0621
   12ASP    HB2  121   1.418   3.640   5.207 -1.7051  1.8811  1.4244
   12ASP     CG  122   1.287   3.495   5.261  0.6237 -0.7000 -0.3186
   12ASP    OD1  123   1.256   3.377   5.242 -0.0762  0.2372 -0.3648
   12ASP    OD2  124   1.265   3.558   5.368  0.4496 -0.9723 -0.2669
   12ASP      C  125   1.441   3.588   4.926 -0.0793  0.6282 -1.0099
   12ASP      O  126   1.543   3.659   4.941  0.4761  0.2873  0.3494
   13PRO      N  127   1.384   3.586   4.806  0.3679  0.2617  0.2418
   13PRO     CD  128   1.299   3.480   4.757 -0.3450 -0.0956 -0.8123
   13PRO    HD1  129   1.209   3.470   4.822  1.3647  1.4259  1.9593
   13PRO    HD2  130   1.348   3.381   4.757  0.0587  0.1003 -0.1954
   13PRO     CA  131   1.418   3.678   4.701  0.4553  0.6957  0.3235
   13PRO     HA  132   1.510   3.645   4.655 -0.4350 -1.2032 -0.1967
   13PRO     CB  133   1.292   3.669   4.612  0.1854 -0.8477 -0.5725
   13PRO    HB1  134   1.318   3.705   4.510  2.1470  4.1205  1.3550
   13PRO    HB2  135   1.210   3.735   4.648 -1.1384 -1.4180 -2.3898
   13PRO     CG  136   1.248   3.526   4.618 -0.4204  0.6318 -0.2954
   13PRO    HG1  137   1.141   3.501   4.602 -0.2763  0.2338 -0.6195
   13PRO    HG2  138   1.312   3.478   4.541  0.7564  3.0519 -0.9539
   13PRO      C  139   1.441   3.820   4.732 -0.7562  0.5523 -0.0528
   13PRO      O  140   1.358   3.877   4.797  0.1517  0.0315  0.0738
   14GLY      N  141   1.558   3.869   4.689 -0.1599  0.1317  0.2326
   14GLY     HN  142   1.605   3.830   4.610  0.5336 -1.1785  1.2396
   14GLY     CA  143   1.602   4.007   4.718 -0.3996  0.2441  0.1415
   14GLY    HA1  144   1.709   4.020   4.715 -0.2720 -0.4033  1.3337
   14GLY    HA2  145   1.562   4.034   4.814  0.0243  0.9309  0.1376
   14GLY      C  146   1.552   4.119   4.630  0.4444 -0.8954  0.2253
   14GLY      O  147   1.563   4.241   4.668  0.3175 -0.2056 -0.7737
   15SER      N  148   1.504   4.090   4.507 -0.5462 -0.1922 -0.0576
   15SER     HN  149   1.501   3.993   4.484  2.1718 -0.2963 -0.2522
   15SER     CA  150   1.435   4.195   4.423 -0.0769 -0.3385  0.0839
   15SER     HA  151   1.365   4.247   4.487 -0.7335 -0.3620 -0.5943
   15SER     CB  152   1.542   4.292   4.357 -0.3910  0.7392 -0.6910
   15SER    HB1  153   1.594   4.248   4.269  1.2463  1.9661 -0.3807
   15SER    HB2  154   1.626   4.314   4.426  0.3948  1.0830 -1.7342
   15SER     OG  155   1.474   4.420   4.333  0.2859 -0.1164 -0.1939
   15SER    HG1  156   1.537   4.467   4.278  0.8892  0.9817  1.3614
   15SER      C  157   1.346   4.133   4.320  0.0849  0.2965  0.2148
   15SER      O  158   1.321   4.012   4.318 -0.1020 -0.0427 -0.4586
   16ASP      N  159   1.295   4.213   4.228  0.0970  0.4808  0.0747
   16ASP     HN  160   1.341   4.301   4.226  0.5543  0.3539  2.2980
   16ASP     CA  161   1.200   4.168   4.122 -0.0125 -0.1105 -0.1295
   16ASP     HA  162   1.160   4.069   4.133 -2.2917  0.7596  0.0593
   16ASP     CB  163   1.071   4.265   4.124 -0.1511  0.1276  0.6101
   16ASP    HB1  164   1.096   4.372   4.110 -1.4714  0.2467 -1.3692
   16ASP    HB2  165   1.034   4.265   4.229 -1.0432  3.1170  0.3896
   16ASP     CG  166   0.966   4.220   4.026  0.2027  0.1663 -0.4485
   16ASP    OD1  167   0.862   4.287   4.005  0.3498 -0.3688 -0.6874
   16ASP    OD2  168   0.981   4.108   3.974  0.4074 -0.1800 -0.5507
   16ASP      C  169   1.273   4.171   3.989 -0.7291  0.4412 -0.2733
   16ASP    OT1  170   1.275   4.072   3.917  0.1179  0.2186 -0.1645
   16ASP    OT2  171   1.343   4.267   3.947 -0.0024  0.2562 -0.1406
   17LIT    LIT  172   5.791   1.443   3.924  0.4010  0.4195 -0.5355
   18LIT    LIT  173   8.320   1.691   0.886 -0.8410 -0.2067  0.3470
   19LIT    LIT  174   0.814   4.354   3.841  0.2376 -0.4064 -0.5485
   20LIT    LIT  175   5.288   1.615   0.052  0.3028  0.4607 -0.0643
   21LIT    LIT  176   6.290   5.927   0.476  0.6136  0.7881  1.0914
   22LIT    LIT  177   6.080   5.721   5.675 -0.5191 -0.4101 -0.1646
   23LIT    LIT  178   1.099   4.011   3.868 -0.6471  0.2808 -0.0719
   24LIT    LIT  179   1.099   3.560   5.457 -0.8116 -0.2172  0.3118
   25LIT    LIT  180   4.428   0.302   5.049  0.0743 -0.2161 -0.0720
   26LIT    LIT  181   3.354   3.998   6.139  0.2176  0.1467 -0.2554
   27LIT    LIT  182   7.919   7.869   4.816  0.2704  2.0745  0.4720
   28LIT    LIT  183   1.227   1.151   3.055 -0.2443 -1.2323  0.4608
   29LIT    LIT  184   8.104   6.450   0.771 -0.2549  0.9831  0.4057
   30LIT    LIT  185   1.418   4.179   3.808  0.7873 -0.7109  0.2753
   31LIT    LIT  186   0.192   5.430   3.869 -0.3521 -0.1582 -1.8061
   32LIT    LIT  187   1.372   5.723   4.002 -1.0170 -0.6514  0.6212
   33LIT    LIT  188   3.306   7.698   4.333  0.3118 -0.9710 -0.9643
   34LIT    LIT  189   6.775   1.123   5.930  1.2587 -0.4341  1.0351
   35LIT    LIT  190   5.396   1.072   1.623 -0.5527 -0.4259  0.8091
   36LIT    LIT  191   6.369   4.414   4.954 -0.2276 -0.6605 -0.7718
   37LIT    LIT  192   6.036   5.344   3.602 -0.3605  0.2144  0.4713
   38LIT    LIT  193   2.090   1.987   5.376 -0.3838 -0.0970  0.5659
   39LIT    LIT  194   8.400   1.686   1.544 -0.4175 -0.0813  0.3171
   40LIT    LIT  195   6.665   6.786   6.873  0.2714  0.7790  0.1776
   41LIT    LIT  196   5.430   3.890   3.028 -0.4885  0.2004  0.7711
   42LIT    LIT  197   4.228   0.254   3.787  0.5623 -0.1769 -1.3374
   43LIT    LIT  198   4.386   4.162   6.583  0.1870 -1.1059 -0.6825
   44LIT    LIT  199   0.087   3.274   5.843 -1.0888 -0.9458 -0.8594
   45LIT    LIT  200   3.796   5.015   2.324 -0.3853 -0.0121  0.4682
   46LIT    LIT  201   3.187   2.093   3.084 -0.5963  0.4890 -0.0406
   47LIT    LIT  202   5.681   7.108   3.801 -0.6189  0.0840  0.1458
   48LIT    LIT  203   4.844   4.621   1.597 -0.4587 -0.6579 -0.3077
   49LIT    LIT  204   8.473   2.406   1.935 -0.2177  0.2876 -0.5202
   50LIT    LIT  205   2.468   0.249   4.858 -0.0259  0.1247  0.0814
   51LIT    LIT  206   3.929   6.089   1.205  0.1968  0.4803 -0.1731
   52LIT    LIT  207   4.211   2.232   5.277 -1.2659  0.6078 -0.5534
   53LIT    LIT  208   2.823   1.674   0.404  0.7836  0.3757  0.0911
   54LIT    LIT  209   2.704   1.024   6.879 -0.0500  1.5692  0.0275
   55LIT    LIT  210   1.180   1.378   5.516 -0.6710  0.2160  0.4062
   56LIT    LIT  211   3.892   6.403   3.303  0.5787 -0.4034 -0.5697
   57LIT    LIT  212   6.925   1.578   3.894 -0.4113  0.3009  0.2098
   58LIT    LIT  213   8.189   4.915   1.814  0.2869  0.5855 -0.1863
   59LIT    LIT  214   5.758   1.496   3.129 -0.5248  0.9605 -0.1398
   60LIT    LIT  215   2.346   5.443   3.518  0.4212  0.0809  0.2637
   61LIT    LIT  216   1.334   6.735   5.390 -0.4823 -1.2267  0.5947
   62LIT    LIT  217   2.012   2.435   6.848  0.2901 -0.4553 -0.8551
   63LIT    LIT  218   1.122   5.524   3.362  0.2518  0.3157  0.8787
   64LIT    LIT  219   7.711   4.488   3.750 -0.4944  0.0886 -0.7068
   65LIT    LIT  220   7.597   4.021   6.547  0.5281  0.5954 -0.3826
   66LIT    LIT  221   3.358   1.336   4.922 -0.2723 -0.0254  0.7936
   67LIT    LIT  222   2.862   3.734   2.737  0.3074 -0.0308 -0.3188
   68LIT    LIT  223   8.646   1.808   6.772 -0.5901  0.1109 -1.1496
   69CLA    CLA  224   4.035   5.252   4.197  0.2312  0.0913 -0.0235
   70CLA    CLA  225   2.180   6.481   0.950 -0.0351 -0.0517 -0.0717
   71CLA    CLA  226   5.193   2.981   5.765  0.4474 -0.6426  0.3542
   72CLA    CLA  227   0.660   1.572   3.021 -0.1788  0.0672  0.2244
   73CLA    CLA  228   4.309   1.290   1.858 -0.0268 -0.2111  0.1622
   74CLA    CLA  229   3.614   3.802   5.157  0.2801  0.0955 -0.1590
   75CLA    CLA  230   5.532   4.963   0.999  0.7057 -0.3337  0.1520
   76CLA    CLA  231   7.658   2.764   1.561 -0.4163  0.0705  0.0674
   77CLA    CLA  232   1.408   2.179   7.019 -0.1780  0.0133 -0.5269
   78CLA    CLA  233   7.283   1.369   1.604  0.2275  0.1401  0.5414
   79CLA    CLA  234   1.791   2.243   3.309 -0.1235  0.2569 -0.1153
   80CLA    CLA  235   8.454   2.788   0.883  0.2689  0.1206 -0.0866
   81CLA    CLA  236   7.734   1.194   4.638  0.1882  0.2191 -0.6117
   82CLA    CLA  237   1.217   0.619   6.360 -0.1816  0.3474  0.3726
   83CLA    CLA  238   4.028   5.491   1.593 -0.1401 -0.0739 -0.1395
   84CLA    CLA  239   0.406   7.695   4.220 -0.2105  0.1366  0.0724
   85CLA    CLA  240   3.683   3.610   0.867 -0.1219  0.2282  0.1175
   86CLA    CLA  241   0.058   4.691   4.281 -0.0430  0.4601 -0.4173
   87CLA    CLA  242   3.558   6.671   2.058 -0.0590 -0.0301 -0.2553
   88CLA    CLA  243   3.055   3.605   2.712  0.2216 -0.0295  0.1446
   89CLA    CLA  244   2.864   2.843   1.328 -0.8413  0.2448  0.2084
   90CLA    CLA  245   5.729   1.890   4.854  0.0346  0.0607  0.0550
   91CLA    CLA  246   7.989   4.125   5.391 -0.1756 -0.3079 -0.1418
   92CLA    CLA  247   8.566   7.866   2.589 -0.1920 -0.3161 -0.0333
   93CLA    CLA  248   6.991   7.892   5.349  0.0591 -0.1891 -0.0951
   94CLA    CLA  249   4.332   7.898   0.801 -0.1292 -0.0639 -0.2977
   95CLA    CLA  250   3.123   1.193   6.096  0.0653  0.0844  0.0437
   96CLA    CLA  251   8.505   2.033   6.037  0.0187 -0.0994  0.6877
   97CLA    CLA  252   4.504   2.775   0.826  0.0035 -0.1770 -0.2250
   98CLA    CLA  253   3.977   4.532   6.395 -0.3604  0.0636 -0.3059
   99CLA    CLA  254   6.255   1.218   2.929 -0.0095  0.0711  0.3672
  100CLA    CLA  255   3.102   7.920   4.829 -0.0653 -0.1591 -0.1821
  101CLA    CLA  256   3.959   6.580   3.417 -0.0546  0.0047 -0.2194
  102CLA    CLA  257   5.698   7.114   0.778  0.1601 -0.3020  0.0883
  103CLA    CLA  258   3.086   3.011   0.043 -0.0638 -0.2281 -0.6145
  104CLA    CLA  259   5.211   4.341   4.046  0.0028 -0.4578  0.5891
  105CLA    CLA  260   1.340   0.026   4.354  0.3035  0.0422  0.1743
  106CLA    CLA  261   2.081   1.244   5.197 -0.1887 -0.1573  0.2373
  107CLA    CLA  262   0.671   6.581   6.702  0.0004  0.0255  0.1488
  108CLA    CLA  263   1.031   0.560   3.605 -0.0189  0.5411 -0.0273
  109CLA    CLA  264   1.483   8.130   0.152  0.0739  0.2060 -0.1599
  110CLA    CLA  265   5.823   2.845   4.337  0.1282 -0.0321  0.3505
  111CLA    CLA  266   2.965   0.638   2.959 -0.3073  0.1804 -0.5798
  112CLA    CLA  267   1.040   3.988   3.644  0.0867  0.0116 -0.2547
  113CLA    CLA  268   4.273   0.159   3.335  0.3437 -0.2280 -0.0449
  114CLA    CLA  269   3.146   4.585   3.219 -0.0485  0.1361  0.0628
  115CLA    CLA  270   2.380   7.056   2.297  0.2620  0.1165  0.3487
  116CLA    CLA  271   4.034   0.823   3.840 -0.0474  0.2901  0.3592
  117TIP3   OH2  272   5.364   6.197   5.255  0.0572  0.2822  0.1573
  117TIP3    H1  273   5.329   6.259   5.319  1.4769 -0.2360  1.5149
  117TIP3    H2  274   5.366   6.114   5.301 -0.2104 -0.4174 -1.0650
  118TIP3   OH2  275   3.131   6.701   1.831 -0.2732  0.0959  0.5356
  118TIP3    H1  276   3.073   6.635   1.870 -0.5230  1.0463  1.8583
  118TIP3    H2  277   3.092   6.721   1.746 -1.6122  0.3274  1.1804
  119TIP3   OH2  278   0.732   7.128   2.321 -0.4737  0.1268  0.5617
  119TIP3    H1  279   0.796   7.195   2.344  0.7642 -0.1361 -1.8217
  119TIP3    H2  280   0.647   7.170   2.337  0.2748  1.5011  1.0863
  120TIP3   OH2  281   4.010   1.689   4.248  0.4496 -0.1783  0.4250
  120TIP3    H1  282   3.984   1.654   4.333  0.2801  0.0807  0.4842
  120TIP3    H2  283   3.930   1.685   4.195  0.1496  1.0593  0.7542
  121TIP3   OH2  284   5.385   5.872   0.535 -0.6923  0.5652  0.1513
  121TIP3    H1  285   5.454   5.808   0.554 -0.2724  1.1150  0.4881
  121TIP3    H2  286   5.303   5.823   0.547 -0.4094  0.4496  1.7521
  122TIP3   OH2  287   6.179   3.989   5.387 -0.1561 -0.0276 -0.2846
  122TIP3    H1  288   6.145   3.926   5.450  0.1046  0.3512  0.2479
  122TIP3    H2  289   6.105   4.009   5.329 -0.3513 -0.5010 -0.1981
  123TIP3   OH2  290   8.191   1.315   0.382 -0.1593  0.3369  0.2365
  123TIP3    H1  291   8.172   1.324   0.288 -2.0123  1.0773  0.6363
  123TIP3    H2  292   8.151   1.231   0.406  1.8538 -0.7247  0.0483
  124TIP3   OH2  293   0.466   7.488   7.059  0.4671  0.0019 -0.0905
  124TIP3    H1  294   0.535   7.486   7.125 -0.1074  0.7827  0.5525
  124TIP3    H2  295   0.392   7.443   7.101  0.7146 -1.2585 -0.9500
  125TIP3   OH2  296   6.283   2.836   0.549  0.2117  0.4370  0.2221
  125TIP3    H1  297   6.278   2.924   0.511 -2.1215  0.3756  0.2592
  125TIP3    H2  298   6.262   2.777   0.477 -0.3049  0.0612  0.6715
  126TIP3   OH2  299   4.551   5.240   2.794  0.0796  0.3192  0.6369
  126TIP3    H1  300   4.576   5.195   2.713 -2.0418  1.4943 -0.7720
  126TIP3    H2  301   4.625   5.225   2.853  1.5083 -0.9892 -1.3326
  127TIP3   OH2  302   3.836   1.475   1.156  0.0976 -0.3642 -0.7888
  127TIP3    H1  303   3.896   1.545   1.183  0.0416 -0.6047 -0.0286
  127TIP3    H2  304   3.771   1.471   1.226  0.6811 -1.8770 -0.2933
  128TIP3   OH2  305   7.097   4.072   5.685  0.3794  0.5246  0.4200
  128TIP3    H1  306   7.133   3.994   5.727 -0.8229  0.0136  0.5358
  128TIP3    H2  307   7.172   4.110   5.639  1.0172 -0.6197  0.4604
  129TIP3   OH2  308   3.679   2.903   6.315 -0.1540  0.2059 -0.0356
  129TIP3    H1  309   3.613   2.932   6.252  0.0501  2.1195  0.5870
  129TIP3    H2  310   3.703   2.982   6.364  3.0126 -0.2802 -0.5843
  130TIP3   OH2  311   3.490   2.676   2.713  0.9247  0.2673  0.0231
  130TIP3    H1  312   3.559   2.739   2.696  0.2865  0.7077 -1.0635
  130TIP3    H2  313   3.459   2.651   2.626 -2.9917  3.1261  0.3430
  131TIP3   OH2  314   7.502   8.207   4.212  0.2941 -0.4876  0.0848
  131TIP3    H1  315   7.408   8.190   4.225 -0.5662  2.8499 -0.8404
  131TIP3    H2  316   7.544   8.167   4.289 -2.1714  0.0474  1.8461
  132TIP3   OH2  317   8.107   1.562   2.598 -0.2049 -0.2248 -0.1781
  132TIP3    H1  318   8.070   1.525   2.678  0.4481  0.5246  0.4788
  132TIP3    H2  319   8.131   1.486   2.545  0.0101 -0.7358  0.6397
  133TIP3   OH2  320   2.353   4.273   0.682  0.5523  0.8364  0.2413
  133TIP3    H1  321   2.421   4.214   0.715 -0.9577 -1.0777  0.1111
  133TIP3    H2  322   2.374   4.285   0.590  0.6439  0.1306  0.1660
  134TIP3   OH2  323   3.847   2.195   4.543 -0.3927  0.0487 -0.0066
  134TIP3    H1  324   3.922   2.175   4.600 -1.6000 -2.9768  0.7352
  134TIP3    H2  325   3.881   2.184   4.454  0.2547 -0.5101  0.2958
  135TIP3   OH2  326   8.323   1.436   4.024  0.3183 -0.0206  0.1925
  135TIP3    H1  327   8.273   1.506   4.066  1.4219  0.8895  0.0294
  135TIP3    H2  328   8.297   1.357   4.070 -0.2101  0.6357  1.0482
  136TIP3   OH2  329   4.104   0.937   2.475  0.2249 -0.0678 -0.5308
  136TIP3    H1  330   4.092   0.842   2.485  1.0081 -0.0018  1.5993
  136TIP3    H2  331   4.152   0.946   2.393  0.9243 -1.6012 -0.3292
  137TIP3   OH2  332   8.118   4.208   0.907  0.5621 -0.1085  1.2892
  137TIP3    H1  333   8.080   4.122   0.926  0.0305 -0.1563  0.1083
  137TIP3    H2  334   8.204   4.188   0.871  0.4130 -0.1628  0.9524
  138TIP3   OH2  335   3.832   1.014   6.384  0.1307 -0.8919  0.2708
  138TIP3    H1  336   3.785   1.060   6.453  0.8327  0.3601 -0.0504
  138TIP3    H2  337   3.810   1.061   6.304  1.6059 -0.5008  0.0655
  139TIP3   OH2  338   5.145   6.220   2.725 -0.2493  0.5533  0.0398
  139TIP3    H1  339   5.060   6.256   2.754  0.7110  1.6044  1.7186
  139TIP3    H2  340   5.171   6.161   2.796  1.6172  2.2686  0.8765
  140TIP3   OH2  341   2.216   2.342   3.150  0.1809 -0.7145  0.2621
  140TIP3    H1  342   2.251   2.305   3.231 -0.9255 -1.6283  0.3515
  140TIP3    H2  343   2.195   2.265   3.096  3.1370 -0.1507 -1.9456
  141TIP3   OH2  344   8.428   2.999   3.896  0.4725 -0.4398  0.1749
  141TIP3    H1  345   8.438   2.973   3.804  1.6113 -1.7868  0.6357
  141TIP3    H2  346   8.389   3.086   3.893 -0.7292 -0.9935 -1.5589
  142TIP3   OH2  347   7.008   7.279   0.687  0.5817 -0.0387  0.4531
  142TIP3    H1  348   7.038   7.204   0.635 -2.4776 -1.4574  0.5057
  142TIP3    H2  349   6.950   7.327   0.629 -0.5211  0.0517  1.5814
  143TIP3   OH2  350   1.377   1.832   0.908  0.0723 -0.3718 -0.1831
  143TIP3    H1  351   1.360   1.813   1.001 -0.7543 -1.0315 -0.4509
  143TIP3    H2  352   1.448   1.897   0.909 -0.0212 -0.2637  0.9120
  144TIP3   OH2  353   6.332   1.055   6.925  0.6992  0.0756  0.0543
  144TIP3    H1  354   6.323   1.008   7.008  1.3433  2.4549  1.5714
  144TIP3    H2  355   6.242   1.072   6.897  0.4179 -2.7979 -1.0764
  145TIP3   OH2  356   7.813   2.558   6.356  0.9562 -0.1715 -0.2036
  145TIP3    H1  357   7.740   2.562   6.417  0.4283  0.2205 -0.8365
  145TIP3    H2  358   7.849   2.470   6.366  0.2088 -0.4683 -0.0959
  146TIP3   OH2  359   8.250   0.238   5.588 -0.0716  0.5225  0.3892
  146TIP3    H1  360   8.312   0.168   5.609 -1.2043 -0.0960  1.9638
  146TIP3    H2  361   8.304   0.311   5.558  1.2895 -0.3919  0.5188
  147TIP3   OH2  362   8.631   1.422   6.463  0.4856 -0.6176 -0.6826
  147TIP3    H1  363   8.696   1.481   6.426 -1.2010 -0.0961 -2.9849
  147TIP3    H2  364   8.626   1.349   6.401 -2.1779  0.1105 -1.4545
  148TIP3   OH2  365   8.257   6.580   1.506 -0.5280 -0.0680 -0.0581
  148TIP3    H1  366   8.316   6.532   1.448 -0.8822 -0.0394 -0.4494
  148TIP3    H2  367   8.199   6.513   1.542 -1.2006  0.0919 -0.8192
  149TIP3   OH2  368   3.160   0.924   4.383  0.4563 -0.2531 -0.3283
  149TIP3    H1  369   3.236   0.878   4.348  1.2653 -0.6274  1.7289
  149TIP3    H2  370   3.099   0.854   4.408 -0.0285 -0.0115 -0.8278
  150TIP3   OH2  371   8.066   5.979   4.703 -0.3530 -0.2624 -0.1822
  150TIP3    H1  372   8.038   5.887   4.705  1.3564 -0.9515 -2.4778
  150TIP3    H2  373   8.089   5.994   4.611 -0.4855  2.4716  0.1593
  151TIP3   OH2  374   2.801   1.684   4.351 -0.2802 -0.0080  0.0196
  151TIP3    H1  375   2.819   1.655   4.441  2.4085  2.5306  0.4549
  151TIP3    H2  376   2.835   1.614   4.296  3.6746  0.8878  1.0268
  152TIP3   OH2  377   3.598   3.286   2.498  0.1583 -0.0060  0.1550
  152TIP3    H1  378   3.664   3.355   2.506  0.6860 -0.2847 -1.3703
  152TIP3    H2  379   3.616   3.246   2.413 -1.9496 -0.1451 -0.2855
  153TIP3   OH2  380   4.783   0.961   4.663  0.4543  0.3802  0.2905
  153TIP3    H1  381   4.742   1.020   4.600  0.9701  0.9736  0.4924
  153TIP3    H2  382   4.829   1.020   4.723  1.5191 -0.2556  0.1160
  154TIP3   OH2  383   6.259   4.753   4.510 -0.4337  0.7734  0.3372
  154TIP3    H1  384   6.193   4.732   4.576  1.4952 -1.9743  1.5892
  154TIP3    H2  385   6.227   4.712   4.429  0.4355 -2.2583  1.3739
  155TIP3   OH2  386   6.629   1.786   6.539  0.2027 -0.3232 -0.1051
  155TIP3    H1  387   6.625   1.818   6.449 -0.3142  0.0970  0.0612
  155TIP3    H2  388   6.549   1.819   6.579  1.8837  2.1962  1.4144
  156TIP3   OH2  389   5.695   3.277   0.638  0.5135 -0.2693  0.0818
  156TIP3    H1  390   5.726   3.256   0.550 -0.8255  1.4236 -0.8597
  156TIP3    H2  391   5.615   3.327   0.624 -0.3915 -0.9620  2.3099
  157TIP3   OH2  392   2.657   3.659   4.564 -0.1774  0.0737  0.1837
  157TIP3    H1  393   2.735   3.619   4.602 -0.1253 -0.0629 -0.0667
  157TIP3    H2  394   2.608   3.586   4.527 -0.0727  0.2423 -0.2930
  158TIP3   OH2  395   4.487   6.928   6.219 -0.2446  0.5641 -0.2517
  158TIP3    H1  396   4.525   6.874   6.288  1.1639  0.5735 -0.9961
  158TIP3    H2  397   4.452   7.004   6.265 -1.5725 -0.5792  0.7228
  159TIP3   OH2  398   4.971   2.415   1.415 -0.1220  0.3592 -0.1320
  159TIP3    H1  399   4.918   2.468   1.475 -2.0226 -0.5558 -0.9290
  159TIP3    H2  400   5.060   2.421   1.451 -1.0557  0.4262  2.3671
  160TIP3   OH2  401   1.296   2.460   2.077  0.1810  0.3481 -0.3902
  160TIP3    H1  402   1.300   2.420   2.164 -1.0292 -0.8516 -0.8490
  160TIP3    H2  403   1.372   2.519   2.075  1.7017 -1.4372  0.5666
  161TIP3   OH2  404   0.452   4.468   5.812  0.2609 -0.1686  0.5773
  161TIP3    H1  405   0.531   4.448   5.761  0.4177  1.5004  0.0779
  161TIP3    H2  406   0.478   4.456   5.903  0.7167 -0.8311  0.3646
  162TIP3   OH2  407   3.550   7.021   6.088 -0.4143 -0.4736  0.4668
  162TIP3    H1  408   3.473   6.966   6.105 -0.8304 -0.1268 -0.2630
  162TIP3    H2  409   3.515   7.097   6.043  0.3871 -0.3937 -0.0339
  163TIP3   OH2  410   2.817   6.246   5.935 -0.7464  0.3129  0.6387
  163TIP3    H1  411   2.855   6.165   5.899 -0.8968 -0.9111  2.9990
  163TIP3    H2  412   2.722   6.233   5.927 -0.8237 -0.4683  2.2967
  164TIP3   OH2  413   7.615   5.986   0.430 -0.3510  0.1779  0.0197
  164TIP3    H1  414   7.615   5.978   0.335  0.0956  0.0572  0.0273
  164TIP3    H2  415   7.522   5.986   0.454 -0.4663  0.1911 -0.4108
  165TIP3   OH2  416   1.570   4.515   6.888 -0.6921 -0.4586  0.1083
  165TIP3    H1  417   1.541   4.467   6.966 -0.4300 -1.1554 -0.2171
  165TIP3    H2  418   1.510   4.487   6.819  0.6007 -1.7793 -0.5322
  166TIP3   OH2  419   1.367   3.417   2.141  0.2027 -0.0638  0.4342
  166TIP3    H1  420   1.462   3.427   2.152  0.5003 -0.5822 -1.3524
  166TIP3    H2  421   1.347   3.465   2.061 -0.7930 -1.1370  0.0036
  167TIP3   OH2  422   0.696   1.232   4.082 -0.1150 -0.9283 -0.3736
  167TIP3    H1  423   0.624   1.246   4.021 -1.1497  0.6475  1.1319
  167TIP3    H2  424   0.685   1.299   4.149  3.2843 -0.0113 -0.5189
  168TIP3   OH2  425   3.192   1.208   1.521  0.3423 -0.3725  0.6021
  168TIP3    H1  426   3.135   1.239   1.450 -0.0374 -0.5715  0.8150
  168TIP3    H2  427   3.183   1.274   1.589  1.6197  0.4361  0.0282
  169TIP3   OH2  428   7.043   7.902   3.348  0.1107  0.1106 -0.0677
  169TIP3    H1  429   7.044   7.992   3.380  1.3996 -0.1464  0.7133
  169TIP3    H2  430   7.134   7.883   3.326 -0.2474 -0.7902 -0.8721
  170TIP3   OH2  431   7.559   4.310   6.683  0.3600  0.3202 -0.5787
  170TIP3    H1  432   7.607   4.362   6.619  0.9402 -0.6025 -0.9177
  170TIP3    H2  433   7.600   4.332   6.767  0.7489  0.2492 -0.7468
  171TIP3   OH2  434   1.234   4.036   0.699  0.3083  0.1051  0.3211
  171TIP3    H1  435   1.311   3.998   0.656  0.7135 -0.4346  1.4839
  171TIP3    H2  436   1.226   3.987   0.781 -0.7232  0.7965  0.6523
  172TIP3   OH2  437   3.640   5.181   1.865 -0.3760  0.3437 -0.1798
  172TIP3    H1  438   3.686   5.256   1.827 -0.0826 -0.4704 -1.5115
  172TIP3    H2  439   3.576   5.220   1.925 -0.4705  1.6792 -1.0967
  173TIP3   OH2  440   1.685   0.413   6.583 -0.3276  0.1166 -0.3867
  173TIP3    H1  441   1.735   0.443   6.659  0.9172  1.2304 -1.6009
  173TIP3    H2  442   1.748   0.363   6.531 -1.6840 -2.4620  0.2712
  174TIP3   OH2  443   6.422   8.148   4.357 -0.3695 -0.1742 -0.1176
  174TIP3    H1  444   6.432   8.221   4.297 -0.4866  1.2178  1.4760
  174TIP3    H2  445   6.510   8.135   4.393 -0.5546 -0.0955  0.3788
  175TIP3   OH2  446   3.155   3.809   5.862  0.1678  0.0687  0.5150
  175TIP3    H1  447   3.088   3.745   5.837 -0.7825  1.1399  0.2066
  175TIP3    H2  448   3.218   3.806   5.790 -0.3377  0.0990  0.0565
  176TIP3   OH2  449   4.408   6.072   2.431  0.5556  0.0220 -0.6428
  176TIP3    H1  450   4.422   5.979   2.416  1.5164  0.2849 -1.4335
  176TIP3    H2  451   4.491   6.105   2.465  0.2258  0.5895 -0.3647
  177TIP3   OH2  452   8.492   5.379   1.930 -0.2678  0.3024  0.2004
  177TIP3    H1  453   8.483   5.327   2.009 -2.1716 -0.1791 -0.2853
  177TIP3    H2  454   8.574   5.427   1.942  0.2284 -0.8683  1.7842
  178TIP3   OH2  455   1.617   5.702   0.671 -0.2776  0.0280  0.4371
  178TIP3    H1  456   1.546   5.729   0.730 -0.8935 -0.6008  0.0141
  178TIP3    H2  457   1.666   5.782   0.654 -1.6159  0.7384 -0.2273
  179TIP3   OH2  458   0.330   3.291   5.330  0.5045  0.0993  0.1684
  179TIP3    H1  459   0.419   3.266   5.303 -0.4518 -2.2731 -1.0992
  179TIP3    H2  460   0.318   3.247   5.414  1.4183  2.7180  1.7920
  180TIP3   OH2  461   6.971   2.055   1.948 -0.1034  0.2026  0.0943
  180TIP3    H1  462   6.940   1.966   1.963  1.0326 -0.3298 -0.6364
  180TIP3    H2  463   6.895   2.110   1.967 -1.1414 -0.9848 -0.4924
  181TIP3   OH2  464   0.364   5.585   0.144  0.2168  0.4792  0.5031
  181TIP3    H1  465   0.327   5.593   0.056 -0.5721 -0.5940  0.7127
  181TIP3    H2  466   0.289   5.591   0.203  0.6781  0.7134  1.0746
  182TIP3   OH2  467   5.778   6.651   5.731  0.0999  0.4783  0.1683
  182TIP3    H1  468   5.721   6.624   5.803  0.4119  0.3910  0.3870
  182TIP3    H2  469   5.840   6.712   5.772 -0.0984  0.9032 -0.1526
  183TIP3   OH2  470   6.524   1.926   0.141 -0.4770 -0.4389  0.2957
  183TIP3    H1  471   6.486   1.983   0.074 -2.2144 -0.5200  1.1526
  183TIP3    H2  472   6.527   1.979   0.220 -2.2265 -1.4864  1.1355
  184TIP3   OH2  473   3.828   4.863   3.801 -0.3653  0.4813  0.6435
  184TIP3    H1  474   3.806   4.812   3.722 -2.9290 -0.6786  1.9950
  184TIP3    H2  475   3.766   4.936   3.800 -0.2710  0.5737  1.4874
  185TIP3   OH2  476   7.427   3.656   0.679 -0.0832 -0.0584  0.4844
  185TIP3    H1  477   7.392   3.745   0.675 -0.6527 -0.2837  0.3359
  185TIP3    H2  478   7.381   3.616   0.752 -2.0315 -1.1357 -1.2186
  186TIP3   OH2  479   5.835   2.043   0.491 -0.6038 -0.3740 -0.0257
  186TIP3    H1  480   5.854   2.128   0.531 -0.4383  0.6637 -2.1583
  186TIP3    H2  481   5.914   2.022   0.441 -0.8554 -1.5407  0.0431
  187TIP3   OH2  482   2.850   0.610   5.517  0.9512 -0.1482 -0.0523
  187TIP3    H1  483   2.818   0.544   5.456 -1.2339 -0.6284  1.4983
  187TIP3    H2  484   2.825   0.693   5.478 -0.8053 -0.4635  0.3249
  188TIP3   OH2  485   4.894   0.728   4.542  0.5700 -0.0829 -0.1581
  188TIP3    H1  486   4.968   0.746   4.484 -0.7931  0.4102 -1.8225
  188TIP3    H2  487   4.864   0.815   4.571 -1.1803 -0.0150 -1.9426
  189TIP3   OH2  488   8.407   0.933   4.042  0.1985  0.0049 -0.4600
  189TIP3    H1  489   8.469   0.916   3.971  1.0531 -2.7879  0.8349
  189TIP3    H2  490   8.455   0.910   4.121 -1.2253  1.6062  0.9450
  190TIP3   OH2  491   3.769   0.576   6.452  0.2953  0.4597  0.0833
  190TIP3    H1  492   3.806   0.615   6.531 -1.3622  0.8126  0.7441
  190TIP3    H2  493   3.743   0.651   6.399  0.7085  0.2254 -0.4555
  191TIP3   OH2  494   2.288   6.650   2.841 -0.1510 -0.9447 -0.9266
  191TIP3    H1  495   2.290   6.565   2.796 -0.5512 -1.5406  0.1314
  191TIP3    H2  496   2.378   6.661   2.874 -0.6500 -2.1572  1.0102
  192TIP3   OH2  497   8.341   2.189   0.410  0.2963  0.2124 -0.5323
  192TIP3    H1  498   8.344   2.222   0.320 -0.2326 -1.0273 -1.0336
  192TIP3    H2  499   8.330   2.094   0.400 -0.4280  0.1289  0.8397
  193TIP3   OH2  500   7.134   6.581   0.984  0.5275 -0.6457 -0.0084
  193TIP3    H1  501   7.219   6.544   0.960  0.4426 -1.3897  0.7403
  193TIP3    H2  502   7.102   6.522   1.053 -0.4667 -0.2156 -0.0843
  194TIP3   OH2  503   1.808   3.202   1.330 -1.1249  0.1658  0.3943
  194TIP3    H1  504   1.773   3.134   1.274 -0.0858 -0.0574 -0.0196
  194TIP3    H2  505   1.857   3.260   1.271 -0.5571  0.2938  0.9701
  195TIP3   OH2  506   8.511   0.336   4.413  0.1433 -0.1757 -0.0631
  195TIP3    H1  507   8.452   0.296   4.478  1.3067  1.1095  1.9131
  195TIP3    H2  508   8.455   0.400   4.368 -0.2464  0.3137  1.0730
  196TIP3   OH2  509   3.381   2.720   1.742  0.0216  0.4127 -0.5363
  196TIP3    H1  510   3.462   2.759   1.776 -0.5800  2.1776 -1.0111
  196TIP3    H2  511   3.319   2.729   1.814  1.0129 -4.2368  1.2812
  197TIP3   OH2  512   5.916   0.151   1.792 -0.0489  0.9792  0.1641
  197TIP3    H1  513   5.958   0.142   1.706  2.3222 -0.0833  1.3353
  197TIP3    H2  514   5.877   0.065   1.808 -0.0259  1.0084  0.3737
  198TIP3   OH2  515   7.973   6.894   1.033  0.5216  0.2652  0.6965
  198TIP3    H1  516   7.902   6.841   1.072  1.9674 -1.2751  1.3700
  198TIP3    H2  517   7.989   6.962   1.098 -0.1879  0.5017  0.6384
  199TIP3   OH2  518   2.742   6.071   5.632  0.5761  0.4227 -0.1419
  199TIP3    H1  519   2.805   6.006   5.665  0.3419  0.1394 -0.2442
  199TIP3    H2  520   2.786   6.112   5.558  0.4125 -0.1974 -0.5901
  200TIP3   OH2  521   8.263   0.769   1.398  0.0703  0.3422  0.1166
  200TIP3    H1  522   8.309   0.853   1.393 -0.2441  0.4594 -2.1603
  200TIP3    H2  523   8.331   0.706   1.423  0.7054  1.0277  0.1522
  201TIP3   OH2  524   5.634   5.633   0.054  0.2888 -0.1303 -0.0173
  201TIP3    H1  525   5.707   5.613  -0.004  0.9443  1.3939  0.2278
  201TIP3    H2  526   5.560   5.583   0.018  1.4781 -1.9017 -0.1041
  202TIP3   OH2  527   6.632   0.440   6.979 -0.0717  0.2419  0.3881
  202TIP3    H1  528   6.540   0.467   6.971  0.6247  2.2243 -2.9406
  202TIP3    H2  529   6.628   0.351   7.014 -3.2557  0.2142  0.2471
  203TIP3   OH2  530   5.165   5.605   5.248 -0.0453 -0.9133  0.9018
  203TIP3    H1  531   5.193   5.526   5.202  1.2243 -0.9466  1.6785
  203TIP3    H2  532   5.078   5.584   5.283 -0.0186 -1.7096  0.5111
  204TIP3   OH2  533   3.679   7.853   0.489  0.3902 -0.1908 -0.8559
  204TIP3    H1  534   3.716   7.788   0.429  0.6790 -0.1699 -0.7039
  204TIP3    H2  535   3.716   7.830   0.574  0.2625 -0.0016 -0.7496
  205TIP3   OH2  536   8.020   0.796   3.068  0.3731 -0.3434 -0.2770
  205TIP3    H1  537   8.065   0.714   3.049  1.2369  0.1221 -0.2849
  205TIP3    H2  538   8.002   0.834   2.982  0.3996 -0.2990 -0.2630
  206TIP3   OH2  539   6.554   4.844   2.109  0.1864  0.1945 -0.0318
  206TIP3    H1  540   6.478   4.882   2.064  0.9196 -1.2886 -2.7349
  206TIP3    H2  541   6.606   4.804   2.039  1.2699 -2.6262  2.1795
  207TIP3   OH2  542   7.623   6.446   0.156 -0.3940  0.0288  0.7476
  207TIP3    H1  543   7.677   6.409   0.226 -0.2165 -0.3139  0.4281
  207TIP3    H2  544   7.612   6.374   0.094  2.0687  1.1746 -1.1737
  208TIP3   OH2  545   1.987   4.205   3.377  0.2628  0.2331 -0.2356
  208TIP3    H1  546   1.920   4.216   3.444  0.4197 -0.8942  0.1165
  208TIP3    H2  547   1.939   4.171   3.301  0.5769 -1.7940  0.4093
  209TIP3   OH2  548   3.774   5.973   1.165 -0.0677 -0.4468 -0.6435
  209TIP3    H1  549   3.782   5.880   1.186 -0.7450 -0.2233  0.7510
  209TIP3    H2  550   3.702   5.977   1.102  0.2343 -0.8935 -1.0255
  210TIP3   OH2  551   3.008   6.312   2.314  0.2022  0.5192  0.4223
  210TIP3    H1  552   2.917   6.285   2.309  0.5341 -0.5198 -0.4669
  210TIP3    H2  553   3.052   6.240   2.358  0.6628  0.8333  0.4849
  211TIP3   OH2  554   0.375   6.100   1.457 -0.5055  0.1750  0.4488
  211TIP3    H1  555   0.448   6.078   1.400 -1.5489  1.1613 -1.3494
  211TIP3    H2  556   0.298   6.068   1.412 -1.3827  1.1205  1.2106
  212TIP3   OH2  557   5.203   0.370   3.534  0.3156 -0.0143 -0.5079
  212TIP3    H1  558   5.144   0.302   3.505  0.6393  1.0399 -4.1004
  212TIP3    H2  559   5.290   0.342   3.505  1.2885 -0.2508  2.2671
  213TIP3   OH2  560   0.480   3.341   3.979 -0.0520 -0.3388  0.3180
  213TIP3    H1  561   0.452   3.433   3.972  1.3828  0.0808 -0.1284
  213TIP3    H2  562   0.399   3.294   4.000 -1.3100  0.6758 -1.8775
  214TIP3   OH2  563   7.004   5.031   5.535  0.4137  0.5581 -0.3062
  214TIP3    H1  564   6.941   5.047   5.605  0.5953  0.4060 -0.1063
  214TIP3    H2  565   7.069   5.100   5.546  0.0930  0.9350 -0.7369
  215TIP3   OH2  566   7.793   5.207   3.210 -0.7097 -0.8214  0.0995
  215TIP3    H1  567   7.808   5.302   3.216 -1.4115 -0.7459  0.7770
  215TIP3    H2  568   7.811   5.186   3.118 -1.2638  0.1029 -0.2348
  216TIP3   OH2  569   1.461   0.156   2.152  0.1036  0.2674  0.4621
  216TIP3    H1  570   1.439   0.097   2.081 -3.5279  0.6822  1.0599
  216TIP3    H2  571   1.526   0.109   2.205  0.8577 -1.1126 -1.6065
  217TIP3   OH2  572   6.254   1.444   2.691  0.1081 -0.0376  0.0454
  217TIP3    H1  573   6.166   1.453   2.655 -0.2266 -1.3190  0.4915
  217TIP3    H2  574   6.249   1.369   2.750  1.1543  0.7498  1.1977
  218TIP3   OH2  575   5.267   4.954   0.371 -0.3724  0.1059  0.4387
  218TIP3    H1  576   5.264   5.021   0.439  0.5716 -0.0099  0.5968
  218TIP3    H2  577   5.180   4.958   0.331 -1.1233 -0.1761  1.9690
  219TIP3   OH2  578   4.977   7.920   2.588 -0.2200 -0.1364  0.6117
  219TIP3    H1  579   4.945   7.831   2.605 -2.3802  0.6804  1.0244
  219TIP3    H2  580   5.070   7.907   2.567 -0.2584 -2.3946  1.5030
  220TIP3   OH2  581   6.086   4.267   5.236 -0.4294 -0.5189  0.7654
  220TIP3    H1  582   6.071   4.176   5.211  1.1880 -0.2198 -1.6135
  220TIP3    H2  583   5.998   4.303   5.250 -1.1514 -2.0933  0.4860
  221TIP3   OH2  584   4.345   2.505   1.719  0.3909  0.3374 -0.8719
  221TIP3    H1  585   4.379   2.568   1.783 -0.2517  0.3918 -0.5767
  221TIP3    H2  586   4.253   2.492   1.744  0.2162  0.1213 -1.5956
  222TIP3   OH2  587   7.226   7.019   1.001 -0.6786  0.2999  0.1563
  222TIP3    H1  588   7.164   6.959   0.960 -0.3786 -1.2541  1.8751
  222TIP3    H2  589   7.308   6.970   1.005 -0.4416  0.7735  1.6445
  223TIP3   OH2  590   6.496   1.168   1.388 -0.3611  0.3682 -0.7206
  223TIP3    H1  591   6.583   1.205   1.403  0.5015 -1.4791 -0.8213
  223TIP3    H2  592   6.449   1.185   1.470 -0.1888  2.0141 -0.9223
  224TIP3   OH2  593   4.529   5.015   6.828  0.4248  0.1294  0.0265
  224TIP3    H1  594   4.469   5.034   6.901  0.3335 -0.0214 -0.0085
  224TIP3    H2  595   4.616   5.036   6.862  0.3817  0.0652  0.1771
  225TIP3   OH2  596   1.449   2.581   5.870 -0.4443  0.0107  0.5238
  225TIP3    H1  597   1.385   2.651   5.857 -1.5290 -1.0421  0.0072
  225TIP3    H2  598   1.470   2.552   5.781 -2.9987 -2.9099  0.7155
  226TIP3   OH2  599   2.444   3.141   2.563  0.1934 -0.0488  0.3011
  226TIP3    H1  600   2.399   3.226   2.561  0.7382  0.2315 -1.1063
  226TIP3    H2  601   2.460   3.125   2.655 -0.8770  0.8705  0.6733
  227TIP3   OH2  602   8.571   4.817   4.576 -0.3227  0.1087  0.3462
  227TIP3    H1  603   8.539   4.744   4.629  0.1900 -1.3444 -1.2417
  227TIP3    H2  604   8.636   4.777   4.518  0.1853  1.9063 -0.3664
  228TIP3   OH2  605   1.726   7.091   2.408 -0.1620 -0.2734  0.4636
  228TIP3    H1  606   1.650   7.147   2.421  0.7233  1.5760 -1.6145
  228TIP3    H2  607   1.739   7.091   2.313  1.3484 -2.0470  0.6141
  229TIP3   OH2  608   6.277   7.814   4.004 -0.1248  0.1229 -0.0228
  229TIP3    H1  609   6.339   7.863   3.950 -2.0597  1.0350 -1.5078
  229TIP3    H2  610   6.276   7.860   4.087  0.0881  0.9918 -0.4911
  230TIP3   OH2  611   4.440   0.709   2.515 -0.0860  0.2570 -0.0809
  230TIP3    H1  612   4.375   0.707   2.445 -2.1687  0.0163  1.7202
  230TIP3    H2  613   4.507   0.646   2.488  0.1445  1.4724 -2.6145
  231TIP3   OH2  614   1.025   7.631   1.213 -1.0750 -0.3724  0.2277
  231TIP3    H1  615   1.024   7.547   1.167  0.0281 -0.5416  0.4819
  231TIP3    H2  616   1.086   7.685   1.162 -0.4650 -0.2955  1.0120
  232TIP3   OH2  617   0.784   7.818   0.184 -0.4335  0.1592 -0.2584
  232TIP3    H1  618   0.874   7.826   0.216 -0.4971 -1.8837  0.5611
  232TIP3    H2  619   0.795   7.797   0.091 -0.0420 -0.6562 -0.0336
  233TIP3   OH2  620   3.428   1.157   4.987  0.7594  0.2738 -0.2394
  233TIP3    H1  621   3.436   1.132   5.079 -0.2156 -0.7501 -0.4108
  233TIP3    H2  622   3.405   1.076   4.942 -0.7279  1.1096 -1.0791
  234TIP3   OH2  623   8.415   7.932   4.084  0.3834 -0.0432 -0.2094
  234TIP3    H1  624   8.462   7.968   4.009  0.3651 -1.1075 -0.7389
  234TIP3    H2  625   8.354   7.868   4.047 -0.1447 -0.0589  0.6477
  235TIP3   OH2  626   7.226   5.518   0.363  0.3043  0.0004  0.1794
  235TIP3    H1  627   7.304   5.574   0.367 -0.1944  0.6562  1.2486
  235TIP3    H2  628   7.154   5.579   0.344 -0.0370 -0.5136 -0.2177
  236TIP3   OH2  629   5.944   1.878   6.093  0.0574 -0.3311 -0.2511
  236TIP3    H1  630   5.887   1.864   6.168 -0.9208 -1.0640 -1.0932
  236TIP3    H2  631   5.971   1.970   6.100 -0.1355 -0.3450  0.8894
  237TIP3   OH2  632   8.446   3.566   6.480 -0.4051 -0.8551  0.4633
  237TIP3    H1  633   8.534   3.585   6.512  0.0845  3.1385 -2.3948
  237TIP3    H2  634   8.459   3.512   6.403 -0.1335  1.1077 -0.9516
  238TIP3   OH2  635   5.696   7.054   4.890 -0.2024  0.5838  0.3628
  238TIP3    H1  636   5.673   6.994   4.961  0.2578  0.7783  0.6728
  238TIP3    H2  637   5.789   7.072   4.902  0.2784 -0.6093 -1.2014
  239TIP3   OH2  638   1.524   2.340   4.696  0.0980  0.2677  0.1334
  239TIP3    H1  639   1.430   2.351   4.707 -0.0064  0.4958 -0.9269
  239TIP3    H2  640   1.559   2.346   4.785 -0.9966 -1.0237  0.6748
  240TIP3   OH2  641   8.112   5.102   3.796 -0.0113 -0.3388  0.2323
  240TIP3    H1  642   8.042   5.070   3.853  0.6887  0.0547  1.3377
  240TIP3    H2  643   8.066   5.133   3.718 -0.9938 -0.8803  0.5766
  241TIP3   OH2  644   6.952   7.039   3.913 -0.2039  0.0374 -0.2295
  241TIP3    H1  645   7.002   7.114   3.944  1.7652 -0.9811 -0.7513
  241TIP3    H2  646   6.958   7.045   3.817 -0.9153 -0.2378 -0.2992
  242TIP3   OH2  647   1.820   7.529   5.393  0.8801 -0.1525 -0.0267
  242TIP3    H1  648   1.730   7.506   5.371  0.7314  0.6789 -0.3184
  242TIP3    H2  649   1.864   7.537   5.308  1.4152 -1.2509  0.1346
  243TIP3   OH2  650   1.373   7.818   3.444  0.2917  0.1427  0.1097
  243TIP3    H1  651   1.414   7.801   3.360 -0.0302 -0.1890  0.0151
  243TIP3    H2  652   1.404   7.746   3.500 -0.3488 -0.2554 -0.0332
  244TIP3   OH2  653   1.783   1.962   0.080  0.2992  0.7722 -0.6410
  244TIP3    H1  654   1.776   1.877   0.124  2.8698  1.7705  2.0195
  244TIP3    H2  655   1.854   1.951   0.017 -1.2794  0.2622 -2.4578
  245TIP3   OH2  656   8.646   2.042   4.078 -0.3298 -0.5802  0.8397
  245TIP3    H1  657   8.685   2.042   4.166 -0.5749  0.6947  0.9659
  245TIP3    H2  658   8.554   2.017   4.093 -0.0105 -1.8667  0.7484
  246TIP3   OH2  659   2.262   5.790   5.973 -0.1625  0.6670 -0.0738
  246TIP3    H1  660   2.190   5.801   6.035 -0.7517 -1.0203 -0.4061
  246TIP3    H2  661   2.272   5.696   5.964  0.3780  0.8525 -1.9940
  247TIP3   OH2  662   2.535   1.939   4.599 -0.3597  0.1831  1.2631
  247TIP3    H1  663   2.562   1.847   4.593  0.7118  0.5188  0.6574
  247TIP3    H2  664   2.443   1.935   4.623 -1.1673 -1.1085 -1.6657
  248TIP3   OH2  665   5.654   6.429   3.732  0.6806 -0.3214  0.3145
  248TIP3    H1  666   5.697   6.494   3.788  0.6246 -0.5797  0.6571
  248TIP3    H2  667   5.684   6.450   3.644  2.3448 -1.1498  0.6530
  249TIP3   OH2  668   5.511   1.321   0.933  0.2056 -0.3092 -0.3617
  249TIP3    H1  669   5.554   1.394   0.887  0.6475  0.7832  1.6788
  249TIP3    H2  670   5.452   1.284   0.868  4.0554 -1.8923 -3.3973
  250TIP3   OH2  671   2.880   6.869   3.077  0.6550 -1.0110 -0.6521
  250TIP3    H1  672   2.830   6.798   3.117  0.1464 -0.3906 -0.1794
  250TIP3    H2  673   2.818   6.911   3.017  1.0112 -1.0797 -1.0778
  251TIP3   OH2  674   8.239   1.231   4.632 -0.1235  0.0218  0.5446
  251TIP3    H1  675   8.154   1.273   4.627 -1.1789 -1.9459  0.8757
  251TIP3    H2  676   8.257   1.224   4.726 -1.3573 -2.6952  0.7015
  252TIP3   OH2  677   5.206   3.540   6.240  0.2017 -0.3513  0.4341
  252TIP3    H1  678   5.112   3.559   6.246 -0.3156 -2.9025  1.9663
  252TIP3    H2  679   5.227   3.497   6.323  2.6209 -0.3536 -0.1170
  253TIP3   OH2  680   1.943   3.846   6.511  0.2349  0.0377 -0.6350
  253TIP3    H1  681   1.940   3.779   6.580 -1.5350  2.5743  1.9709
  253TIP3    H2  682   1.876   3.819   6.449 -1.9042  0.2968  1.4185
  254TIP3   OH2  683   2.480   4.869   3.720  0.2173 -0.1053  0.0991
  254TIP3    H1  684   2.488   4.921   3.800 -0.1892  0.2048 -0.0580
  254TIP3    H2  685   2.442   4.929   3.656 -0.7137 -0.7216  0.0458
  255TIP3   OH2  686   8.020   4.590   1.685 -0.0764 -0.1270  0.2129
  255TIP3    H1  687   8.066   4.625   1.609 -0.8680 -1.7064 -1.0430
  255TIP3    H2  688   7.951   4.654   1.702  0.3759  0.4606 -0.0947
  256TIP3   OH2  689   2.021   4.818   0.938 -0.4186  0.2882 -0.1445
  256TIP3    H1  690   2.010   4.821   0.843  0.1370  0.4990 -0.2044
  256TIP3    H2  691   2.015   4.725   0.959  1.6106 -0.0055 -0.6621
  257TIP3   OH2  692   5.467   1.711   3.735 -0.2243  0.6195  0.2765
  257TIP3    H1  693   5.505   1.717   3.648 -0.0043  0.4763  0.3634
  257TIP3    H2  694   5.413   1.632   3.733  1.5499 -0.6869  0.9513
  258TIP3   OH2  695   5.340   7.602   3.980  0.1530  0.0278 -0.2223
  258TIP3    H1  696   5.286   7.573   3.907 -1.2258  0.3091  0.6683
  258TIP3    H2  697   5.423   7.556   3.968 -0.9870 -2.0486 -0.4430
  259TIP3   OH2  698   1.730   3.691   3.507  0.2812 -0.4233 -0.5328
  259TIP3    H1  699   1.678   3.698   3.587  0.8313  0.1633 -0.2145
  259TIP3    H2  700   1.677   3.637   3.448 -0.6796  0.1647 -0.2202
  260TIP3   OH2  701   7.071   0.144   4.044  0.0982 -0.3181 -0.3486
  260TIP3    H1  702   6.997   0.201   4.020 -1.8596 -3.5726 -2.8551
  260TIP3    H2  703   7.118   0.130   3.962  2.0845 -0.3761  0.7301
  261TIP3   OH2  704   5.102   4.492   4.295 -0.0292 -0.5459 -0.0548
  261TIP3    H1  705   5.180   4.535   4.331  0.0548  1.2188 -2.1514
  261TIP3    H2  706   5.136   4.436   4.225 -0.5474 -0.6408 -0.2301
  262TIP3   OH2  707   3.391   5.701   6.538  0.1406  0.5965 -0.3181
  262TIP3    H1  708   3.437   5.649   6.472  0.8650  1.1155 -0.2407
  262TIP3    H2  709   3.312   5.732   6.493  1.0189  1.6171 -1.2383
  263TIP3   OH2  710   5.709   3.390   5.632  0.0476  0.1518 -0.0209
  263TIP3    H1  711   5.791   3.363   5.673  1.0599  1.5572 -1.0137
  263TIP3    H2  712   5.716   3.357   5.542  0.0342  1.2019 -0.4202
  264TIP3   OH2  713   5.415   6.653   5.583  0.7113 -0.0992 -0.7518
  264TIP3    H1  714   5.476   6.720   5.613 -0.7665  0.9626  0.0101
  264TIP3    H2  715   5.345   6.653   5.648  0.5606 -2.2709 -0.8334
  265TIP3   OH2  716   1.520   1.456   2.981 -0.4895  0.2589 -0.0164
  265TIP3    H1  717   1.442   1.477   2.931 -1.2226 -0.1348  0.9365
  265TIP3    H2  718   1.556   1.542   3.006 -0.2005  0.4522 -1.0562
  266TIP3   OH2  719   2.166   4.561   5.133  1.2534 -0.3162 -0.3948
  266TIP3    H1  720   2.153   4.652   5.160  2.7065  0.4142 -2.0008
  266TIP3    H2  721   2.124   4.555   5.047 -1.1924 -1.9544  0.7671
  267TIP3   OH2  722   2.713   4.031   1.745 -0.1962  0.0081  0.3387
  267TIP3    H1  723   2.760   4.071   1.672 -2.3211 -0.6082 -1.4923
  267TIP3    H2  724   2.681   4.105   1.796  1.8976  0.4448  1.1227
  268TIP3   OH2  725   8.361   5.815   0.189  0.0597  0.0012  0.1220
  268TIP3    H1  726   8.412   5.895   0.198  1.2787 -0.8401  1.0019
  268TIP3    H2  727   8.294   5.822   0.257 -0.4247  0.6818 -0.4160
  269TIP3   OH2  728   4.872   2.605   7.065 -0.0314  0.2332  0.0151
  269TIP3    H1  729   4.874   2.700   7.049 -0.1056  0.8082  2.8375
  269TIP3    H2  730   4.789   2.576   7.026 -0.6170  1.5883  0.1899
  270TIP3   OH2  731   7.268   0.837   6.099 -0.3336 -0.1276  0.1493
  270TIP3    H1  732   7.209   0.781   6.049  1.3501 -1.1055 -0.8279
  270TIP3    H2  733   7.221   0.920   6.107 -1.0404 -0.1896 -2.3684
  271TIP3   OH2  734   3.136   5.328   3.452  0.2466  0.2779 -0.5225
  271TIP3    H1  735   3.108   5.237   3.467  0.3752  0.2448 -0.4843
  271TIP3    H2  736   3.071   5.363   3.391  0.7370 -0.1397 -1.3057
  272TIP3   OH2  737   1.818   6.584   6.068  0.1289 -0.4665 -0.2864
  272TIP3    H1  738   1.872   6.522   6.019  2.4286  0.2331  1.2133
  272TIP3    H2  739   1.816   6.662   6.013  2.3553  0.1764  0.4584
  273TIP3   OH2  740   3.707   6.823   1.838  0.0706  0.4464 -0.3053
  273TIP3    H1  741   3.646   6.789   1.903  1.0645  1.3482  1.1445
  273TIP3    H2  742   3.658   6.820   1.756 -1.1139 -0.9973  0.4063
  274TIP3   OH2  743   7.748   5.132   5.276  0.5507 -0.1513  0.0238
  274TIP3    H1  744   7.784   5.221   5.281  0.6973 -0.0742 -1.7033
  274TIP3    H2  745   7.696   5.133   5.195  1.7814 -2.0609 -0.8451
  275TIP3   OH2  746   6.315   1.745   4.918 -0.2741 -0.4013 -0.3075
  275TIP3    H1  747   6.229   1.786   4.913 -0.5817 -1.0551 -0.5512
  275TIP3    H2  748   6.332   1.734   5.012 -1.0668 -1.4953 -0.2706
  276TIP3   OH2  749   4.824   7.531   1.250 -0.2195  0.4829 -0.3826
  276TIP3    H1  750   4.815   7.469   1.178  0.6704 -0.1660  0.0539
  276TIP3    H2  751   4.768   7.605   1.225  0.9839  0.8041 -2.3178
  277TIP3   OH2  752   2.962   7.739   2.462  0.0733 -0.0180  0.2868
  277TIP3    H1  753   3.006   7.670   2.412 -0.7201  0.9695 -1.9387
  277TIP3    H2  754   2.871   7.709   2.468 -0.5746  1.2847 -1.8034
  278TIP3   OH2  755   7.433   1.457   5.089 -0.1896 -0.5346  0.9315
  278TIP3    H1  756   7.389   1.400   5.025 -1.2836  0.3010  0.9028
  278TIP3    H2  757   7.466   1.530   5.036  2.0277 -1.5512  0.8279
  279TIP3   OH2  758   6.256   2.709   2.764  0.0960  0.2156  0.3283
  279TIP3    H1  759   6.282   2.623   2.798 -1.4707  0.1215  1.4034
  279TIP3    H2  760   6.162   2.701   2.747  0.1971  1.3068 -0.9102
  280TIP3   OH2  761   7.201   3.735   4.531  0.5150  0.1318 -0.2810
  280TIP3    H1  762   7.146   3.756   4.607  0.5128 -1.0924  0.0796
  280TIP3    H2  763   7.290   3.752   4.561  0.7475 -2.5251  0.8674
  281TIP3   OH2  764   5.502   2.454   6.472 -0.1984  0.1585  0.4251
  281TIP3    H1  765   5.461   2.535   6.441  1.0648  0.9450  0.7372
  281TIP3    H2  766   5.502   2.462   6.567  0.1930 -0.0783  0.4455
  282TIP3   OH2  767   4.421   0.131   4.230  0.0417 -0.0016 -0.0159
  282TIP3    H1  768   4.455   0.041   4.228  0.4675  0.1711 -1.0150
  282TIP3    H2  769   4.472   0.177   4.164  0.3531  1.1843  1.0287
  283TIP3   OH2  770   3.262   4.171   5.710 -0.1076  0.0167  0.0429
  283TIP3    H1  771   3.356   4.184   5.722  0.1551  0.9123 -2.3838
  283TIP3    H2  772   3.233   4.250   5.664 -1.4770 -1.4322 -1.7225
  284TIP3   OH2  773   7.907   1.059   4.275 -0.5997 -0.2909 -0.4447
  284TIP3    H1  774   7.941   1.040   4.363  0.3465  0.4939 -0.6407
  284TIP3    H2  775   7.967   1.123   4.238 -1.7518  0.4181 -1.1624
  285TIP3   OH2  776   7.908   7.507   3.943  0.0608  0.2471  0.0914
  285TIP3    H1  777   7.915   7.597   3.974 -0.9714  0.3122  0.1681
  285TIP3    H2  778   7.896   7.455   4.023 -0.6227  0.1928 -0.0404
  286TIP3   OH2  779   2.357   2.915   1.075  0.1253 -0.0794 -0.3277
  286TIP3    H1  780   2.449   2.917   1.099 -0.0843  2.0398  0.5190
  286TIP3    H2  781   2.357   2.908   0.980  1.1573 -0.3382 -0.3176
  287TIP3   OH2  782   4.989   2.755   1.374  0.1150  0.4205  0.4295
  287TIP3    H1  783   5.071   2.769   1.422  0.6602 -0.9059 -0.0482
  287TIP3    H2  784   4.943   2.688   1.425 -0.4279  0.7876  0.4159
  288TIP3   OH2  785   2.957   5.812   3.404  0.2212  0.2750  0.2157
  288TIP3    H1  786   2.963   5.907   3.413 -1.1019  0.4929 -0.8908
  288TIP3    H2  787   3.028   5.790   3.342  0.3305  0.5747  0.2328
  289TIP3   OH2  788   4.398   2.740   3.008  0.0446 -0.0455  0.0541
  289TIP3    H1  789   4.491   2.728   2.991  0.2417  0.6589  0.6035
  289TIP3    H2  790   4.394   2.809   3.074 -0.8433 -0.4357  0.4283
  290TIP3   OH2  791   2.472   4.318   1.111 -1.0911  0.1672  0.4958
  290TIP3    H1  792   2.401   4.351   1.054  0.4927 -1.1528 -2.4453
  290TIP3    H2  793   2.551   4.361   1.078  0.4239 -3.2942 -0.7709
  291TIP3   OH2  794   3.545   5.767   4.614 -0.7424 -0.1877 -0.0130
  291TIP3    H1  795   3.519   5.681   4.649 -0.9433 -0.4250 -0.7391
  291TIP3    H2  796   3.522   5.764   4.522  1.2304 -0.1414 -0.5494
  292TIP3   OH2  797   4.777   0.221   2.330 -0.8128  0.0446  0.3984
  292TIP3    H1  798   4.740   0.195   2.246  0.0609  2.3393 -0.7795
  292TIP3    H2  799   4.863   0.180   2.333 -0.1219  1.3522 -0.6803
  293TIP3   OH2  800   4.355   7.446   0.586 -0.0423  0.2132  0.4451
  293TIP3    H1  801   4.427   7.496   0.625 -0.4678  1.2173 -0.0229
  293TIP3    H2  802   4.298   7.423   0.659 -1.5419  3.2157  0.3532
  294TIP3   OH2  803   2.029   6.024   5.071 -0.3346  0.3956  0.4212
  294TIP3    H1  804   2.026   6.114   5.104  0.6316  0.9239 -0.8616
  294TIP3    H2  805   2.075   6.030   4.987  0.6815 -1.4591  0.7982
  295TIP3   OH2  806   5.102   3.027   6.542 -0.5120  0.2862  0.4775
  295TIP3    H1  807   5.113   3.025   6.447  1.2454 -0.0833  0.6485
  295TIP3    H2  808   5.169   3.089   6.572 -0.0150 -0.7332  1.5759
  296TIP3   OH2  809   2.881   2.577   2.358 -0.0587 -0.4417  0.1801
  296TIP3    H1  810   2.848   2.512   2.419 -0.3625  0.0473  0.5438
  296TIP3    H2  811   2.819   2.649   2.364  0.5690  0.1089  0.1955
  297TIP3   OH2  812   4.783   6.306   6.057  0.4391  0.4658  0.2474
  297TIP3    H1  813   4.772   6.283   5.965 -1.0338  0.2875  0.4328
  297TIP3    H2  814   4.816   6.396   6.056 -0.6937  0.9065 -0.4831
  298TIP3   OH2  815   4.750   7.186   6.508 -0.3196  0.1976 -0.6404
  298TIP3    H1  816   4.697   7.253   6.464 -0.6892  1.2030  1.2412
  298TIP3    H2  817   4.686   7.125   6.543 -0.1688  0.5569  0.2860
  299TIP3   OH2  818   6.718   0.712   6.030  0.1364  0.5917 -0.0987
  299TIP3    H1  819   6.669   0.690   5.951  0.5922 -3.1035  0.4599
  299TIP3    H2  820   6.668   0.671   6.101  0.8418  2.0487  1.2936
  300TIP3   OH2  821   0.226   0.508   6.211 -0.2306 -0.2471 -0.0082
  300TIP3    H1  822   0.305   0.479   6.256 -0.7111 -0.4339  0.7299
  300TIP3    H2  823   0.216   0.599   6.236 -2.6399 -1.2893  3.5700
  301TIP3   OH2  824   3.034   3.906   2.189  0.1783  0.0470 -0.0661
  301TIP3    H1  825   3.123   3.883   2.214 -0.6832 -0.4747  3.0222
  301TIP3    H2  826   3.044   3.979   2.129  2.6959  0.6080  0.8969
  302TIP3   OH2  827   0.720   1.540   2.392  0.0568 -0.6339 -0.3767
  302TIP3    H1  828   0.785   1.563   2.324  0.0544  0.7598  0.0560
  302TIP3    H2  829   0.731   1.608   2.459 -0.4551 -1.5683  0.6742
  303TIP3   OH2  830   5.442   7.758   3.624 -0.0464  0.0622  0.1909
  303TIP3    H1  831   5.422   7.673   3.662 -1.4939  0.4898  0.4700
  303TIP3    H2  832   5.381   7.818   3.667  1.7363  1.4654  0.8685
  304TIP3   OH2  833   0.630   5.580   4.017 -0.2915 -0.2282 -0.3465
  304TIP3    H1  834   0.570   5.597   4.090 -1.1844 -0.4737 -1.0037
  304TIP3    H2  835   0.622   5.486   4.001  1.2952 -0.5329  0.4052
  305TIP3   OH2  836   3.695   5.789   5.365 -0.0444  0.3400  0.1649
  305TIP3    H1  837   3.694   5.722   5.296 -0.5922 -0.7005  1.1566
  305TIP3    H2  838   3.781   5.780   5.406  0.6935  1.6489 -0.9886
  306TIP3   OH2  839   0.558   1.950   1.806 -0.1720  0.0597 -0.6203
  306TIP3    H1  840   0.530   2.009   1.876 -0.1517 -0.0543 -0.5160
  306TIP3    H2  841   0.482   1.895   1.788 -0.8438  1.3496 -2.0264
  307TIP3   OH2  842   8.408   3.958   5.306 -0.3995  0.2031 -0.1198
  307TIP3    H1  843   8.430   3.869   5.278 -0.2723  0.2097 -0.0448
  307TIP3    H2  844   8.466   3.974   5.381 -1.3944 -0.1735  0.7683
  308TIP3   OH2  845   0.693   5.134   6.098  0.2296  0.0669 -0.3592
  308TIP3    H1  846   0.786   5.130   6.076  0.3589 -0.0028  0.1834
  308TIP3    H2  847   0.648   5.139   6.013  0.6265 -1.6702 -0.7044
  309TIP3   OH2  848   3.185   0.673   3.770 -0.6458 -0.1781  0.4618
  309TIP3    H1  849   3.241   0.646   3.698 -2.2657  0.7422 -1.2348
  309TIP3    H2  850   3.225   0.754   3.802  0.2357 -0.7391  0.8193
  310TIP3   OH2  851   2.764   2.634   5.660 -0.1527  0.3809 -0.2098
  310TIP3    H1  852   2.822   2.598   5.593 -0.6751 -0.4596 -0.2303
  310TIP3    H2  853   2.682   2.584   5.650 -0.1559  0.0638  1.2058
  311TIP3   OH2  854   0.063   3.325   6.286 -0.1906  0.2606  0.2095
  311TIP3    H1  855  -0.014   3.269   6.296  0.4091 -1.1809 -2.3126
  311TIP3    H2  856   0.032   3.397   6.231  0.4196 -0.8919 -1.7446
  312TIP3   OH2  857   0.992   1.873   5.591 -0.2260 -0.4437  0.3878
  312TIP3    H1  858   1.025   1.828   5.513  0.3548  0.2375  0.2355
  312TIP3    H2  859   0.897   1.876   5.578 -0.4742 -2.8871  1.0862
  313TIP3   OH2  860   8.121   7.893   1.548 -0.0988  0.0550  0.1812
  313TIP3    H1  861   8.159   7.911   1.462  0.1607 -0.1534  0.2521
  313TIP3    H2  862   8.193   7.857   1.600 -0.3250 -0.0919  0.3979
  314TIP3   OH2  863   7.618   5.717   2.812  0.0085  0.0551  0.0176
  314TIP3    H1  864   7.610   5.747   2.721  1.0845  0.8679  0.1580
  314TIP3    H2  865   7.550   5.651   2.822 -1.1321  1.0299 -0.9373
  315TIP3   OH2  866   2.150   3.918   4.194 -0.8081 -0.2613  0.0593
  315TIP3    H1  867   2.235   3.873   4.192  0.6493  2.3108 -0.8308
  315TIP3    H2  868   2.113   3.904   4.107 -0.9050 -0.6519  0.1600
  316TIP3   OH2  869   8.225   1.312   0.104  0.0643 -0.2800 -0.0186
  316TIP3    H1  870   8.320   1.311   0.120 -0.0765 -0.4271  0.9003
  316TIP3    H2  871   8.217   1.309   0.009  0.9999  1.0281 -0.1835
  317TIP3   OH2  872   1.144   3.815   4.317 -0.4171 -0.0782 -0.1204
  317TIP3    H1  873   1.216   3.877   4.305  0.7007 -0.9971  1.3796
  317TIP3    H2  874   1.069   3.856   4.275  0.3541  2.1606  0.5499
  318TIP3   OH2  875   4.628   1.078   5.002 -0.2667  0.1768 -0.5894
  318TIP3    H1  876   4.722   1.082   4.986 -0.2068  2.4020 -0.0444
  318TIP3    H2  877   4.590   1.136   4.937 -1.0704  0.7526  0.3580
  319TIP3   OH2  878   2.026   3.116   1.671  0.1048  0.1272  0.2042
  319TIP3    H1  879   2.113   3.083   1.649  0.4776  1.5067 -0.4808
  319TIP3    H2  880   2.042   3.202   1.710 -0.9798  0.7126 -0.5894
  320TIP3   OH2  881   1.358   1.454   5.455 -0.2047  0.3117 -0.4997
  320TIP3    H1  882   1.362   1.408   5.371  0.7193  1.8212 -1.3314
  320TIP3    H2  883   1.439   1.505   5.458 -0.1732  0.2184  1.3741
  321TIP3   OH2  884   5.903   1.014   4.976 -0.7206 -0.0958 -0.0739
  321TIP3    H1  885   5.963   0.990   5.046  0.1925  0.6839 -0.5636
  321TIP3    H2  886   5.848   0.937   4.964  0.0933 -0.7838  0.4825
  322TIP3   OH2  887   4.372   7.565   1.635  0.0082  0.5763  0.2936
  322TIP3    H1  888   4.289   7.522   1.654 -0.5877  0.8966 -1.4417
  322TIP3    H2  889   4.438   7.497   1.650 -0.7867 -0.4795 -0.8199
  323TIP3   OH2  890   7.980   3.578   2.516  0.1340  0.7446 -0.4388
  323TIP3    H1  891   8.024   3.601   2.598  1.1930  0.5740 -0.9444
  323TIP3    H2  892   7.906   3.638   2.511 -0.2676  0.3898  0.9128
  324TIP3   OH2  893   2.394   5.540   5.964  0.0971 -0.2016  0.5375
  324TIP3    H1  894   2.442   5.469   6.007 -2.2241 -1.9578  0.3840
  324TIP3    H2  895   2.454   5.572   5.897  1.1350 -2.2059  0.4273
  325TIP3   OH2  896   5.018   2.496   1.100  0.2126 -0.5690 -0.1261
  325TIP3    H1  897   5.041   2.408   1.073  2.4891 -0.1452  0.2325
  325TIP3    H2  898   4.970   2.484   1.183  0.0846 -1.4650 -0.3238
  326TIP3   OH2  899   1.459   4.450   1.305 -0.4197 -0.1673  0.3535
  326TIP3    H1  900   1.506   4.373   1.272  2.2954  0.4724  2.3344
  326TIP3    H2  901   1.415   4.418   1.384 -0.7199 -0.0529  0.2347
  327TIP3   OH2  902   6.206   2.753   6.516 -0.2033  0.1721 -0.2800
  327TIP3    H1  903   6.152   2.770   6.593 -1.0781  0.7715 -1.0082
  327TIP3    H2  904   6.171   2.671   6.480  1.5446 -1.2692  1.0764
  328TIP3   OH2  905   6.712   6.528   2.568  0.1114 -0.5608 -0.0248
  328TIP3    H1  906   6.646   6.495   2.507 -1.1967  0.3945  0.8440
  328TIP3    H2  907   6.693   6.621   2.577  1.5757 -0.2566  0.2785
  329TIP3   OH2  908   1.957   1.020   2.012 -0.3012 -0.2427 -0.8873
  329TIP3    H1  909   1.935   1.002   2.104  0.4209 -2.3016 -1.0648
  329TIP3    H2  910   1.896   1.090   1.987 -0.1071  0.8231  1.3102
  330TIP3   OH2  911   1.651   4.897   5.537 -0.1673  0.7783 -0.1118
  330TIP3    H1  912   1.572   4.844   5.542  0.5394 -0.2126  1.2227
  330TIP3    H2  913   1.629   4.978   5.583  0.0475 -0.1584  1.7535
  331TIP3   OH2  914   0.048   6.336   6.814 -0.3978 -0.2030  0.2482
  331TIP3    H1  915   0.136   6.347   6.778 -0.1713  0.1565  0.8997
  331TIP3    H2  916   0.003   6.418   6.793 -0.8938 -0.7481 -0.9216
  332TIP3   OH2  917   0.519   1.568   1.794  0.0477  0.4459  0.1387
  332TIP3    H1  918   0.565   1.504   1.850  1.2408  0.1037 -1.1506
  332TIP3    H2  919   0.472   1.624   1.855  2.5061  1.0497  1.6155
  333TIP3   OH2  920   3.330   3.323   1.277  0.1597  0.0743  0.1869
  333TIP3    H1  921   3.284   3.403   1.302  0.9258  0.5285  0.1602
  333TIP3    H2  922   3.421   3.339   1.300  0.3118 -0.8300  0.2712
  334TIP3   OH2  923   3.850   7.817   4.470  0.0204  0.2575  0.7390
  334TIP3    H1  924   3.846   7.766   4.389  0.3097 -0.2830  1.0593
  334TIP3    H2  925   3.865   7.907   4.441  0.3020  0.0406  0.2041
  335TIP3   OH2  926   6.259   1.833   4.486 -0.5757  0.2594 -0.0488
  335TIP3    H1  927   6.318   1.792   4.549  0.7303 -0.1690 -1.4904
  335TIP3    H2  928   6.172   1.806   4.514  0.1335 -2.1008  0.0850
  336TIP3   OH2  929   3.160   6.719   6.104 -0.1672 -0.8400 -0.6396
  336TIP3    H1  930   3.146   6.648   6.167  1.4968 -0.5775  0.0750
  336TIP3    H2  931   3.246   6.700   6.066  0.2160  0.6679 -0.5860
  337TIP3   OH2  932   5.286   0.578   1.855 -0.1292  0.0033  0.5386
  337TIP3    H1  933   5.346   0.644   1.889 -1.1810  1.1585  0.2046
  337TIP3    H2  934   5.200   0.606   1.885 -0.7426 -0.5235 -0.6826
  338TIP3   OH2  935   4.758   2.158   1.713  0.3713 -0.0703  0.2491
  338TIP3    H1  936   4.852   2.178   1.713  0.2144  0.7238 -0.3186
  338TIP3    H2  937   4.716   2.243   1.697 -0.3803 -0.6372 -0.9681
  339TIP3   OH2  938   2.666   7.426   3.804  0.6452  0.0003  0.0555
  339TIP3    H1  939   2.622   7.374   3.871  1.5746  0.0947  0.7562
  339TIP3    H2  940   2.745   7.376   3.782  1.4447  0.9846  0.5881
  340TIP3   OH2  941   5.494   0.628   5.087 -0.5418  0.2726  0.0814
  340TIP3    H1  942   5.414   0.594   5.127 -0.4996 -2.0110 -1.5586
  340TIP3    H2  943   5.464   0.677   5.011 -0.4411 -0.1594 -0.2462
  341TIP3   OH2  944   6.354   2.509   0.544 -0.0894  0.5270  0.5066
  341TIP3    H1  945   6.355   2.446   0.472 -0.2355  1.1403 -0.0427
  341TIP3    H2  946   6.272   2.490   0.591  0.5829 -0.6680  1.2508
  342TIP3   OH2  947   2.507   3.193   5.216 -0.1390  1.1095  0.0576
  342TIP3    H1  948   2.515   3.104   5.183  2.8064  1.2185  0.2074
  342TIP3    H2  949   2.417   3.218   5.195 -0.4096 -1.1245 -1.9240
  343TIP3   OH2  950   1.041   2.932   6.461  0.4432 -0.1624  0.6375
  343TIP3    H1  951   1.056   3.026   6.464  0.9067 -0.2587  1.4845
  343TIP3    H2  952   1.091   2.902   6.386  0.7405  0.1863  0.6941
  344TIP3   OH2  953   3.018   5.159   3.729  0.1146  0.1702  0.7056
  344TIP3    H1  954   3.091   5.220   3.733  1.2357 -1.1387  1.2500
  344TIP3    H2  955   3.042   5.097   3.660 -1.2743  0.6666 -0.2531
  345TIP3   OH2  956   4.380   8.045   6.814  0.3168  0.0079 -0.0296
  345TIP3    H1  957   4.438   8.121   6.821  2.0675 -1.2177 -0.5185
  345TIP3    H2  958   4.381   8.023   6.720 -0.3047 -0.5215  0.0796
  346TIP3   OH2  959   6.632   7.545   2.768 -0.5124 -0.3933  0.4898
  346TIP3    H1  960   6.643   7.610   2.837 -1.4952  2.4633 -1.8594
  346TIP3    H2  961   6.702   7.481   2.784  0.5161  1.1811  2.9240
  347TIP3   OH2  962   2.937   4.887   0.387  0.5589 -0.0739 -0.3691
  347TIP3    H1  963   2.921   4.794   0.372  1.2919 -0.2606 -0.0429
  347TIP3    H2  964   3.032   4.897   0.382  0.4035  1.0324 -2.4823
  348TIP3   OH2  965   7.386   1.014   2.272 -0.1550  0.7511 -0.0009
  348TIP3    H1  966   7.352   1.104   2.266  0.0793  0.8028 -0.7019
  348TIP3    H2  967   7.313   0.959   2.244  0.3983  0.8855 -1.8904
  349TIP3   OH2  968   0.074   7.973  -0.019 -0.2143  0.3355 -0.2455
  349TIP3    H1  969   0.121   8.053   0.008 -0.6207 -0.4903  3.4729
  349TIP3    H2  970   0.128   7.902   0.014 -2.0681 -0.7529  0.5838
  350TIP3   OH2  971   2.524   4.984   2.429 -0.5441  0.2199  0.1883
  350TIP3    H1  972   2.443   5.024   2.400 -0.9876 -1.5059 -1.1702
  350TIP3    H2  973   2.553   5.038   2.502 -1.6100  2.3189 -0.8463
  351TIP3   OH2  974   4.782   0.246   2.733  0.1987  0.6797 -0.0196
  351TIP3    H1  975   4.794   0.197   2.814  0.5955  1.7729  0.6120
  351TIP3    H2  976   4.697   0.219   2.700 -0.1742  0.5484  1.0111
  352TIP3   OH2  977   2.448   5.190   6.318 -0.1740 -0.1808  0.0046
  352TIP3    H1  978   2.442   5.214   6.410  0.9885 -0.1304  0.0889
  352TIP3    H2  979   2.463   5.272   6.272 -0.8044 -0.1994 -0.2422
  353TIP3   OH2  980   0.443   1.978   3.452 -0.6689  0.0517  0.5015
  353TIP3    H1  981   0.434   1.970   3.547 -1.6135  0.0960  0.4263
  353TIP3    H2  982   0.363   2.024   3.425 -0.2330  0.3622 -0.2689
  354TIP3   OH2  983   0.467   2.963   1.520 -0.5669  0.3547 -0.8737
  354TIP3    H1  984   0.522   2.983   1.444  1.0024  1.0327  0.3865
  354TIP3    H2  985   0.454   3.047   1.563  1.2288 -0.3945  1.3140
  355TIP3   OH2  986   6.404   1.522   6.473 -0.3864 -0.7789  0.4305
  355TIP3    H1  987   6.421   1.451   6.411  0.6949  0.1464 -0.3584
  355TIP3    H2  988   6.382   1.597   6.419 -2.0098 -0.6015  1.2802
  356TIP3   OH2  989   5.025   5.420   4.915 -0.1293 -0.1337 -0.6702
  356TIP3    H1  990   5.030   5.325   4.925 -0.7079 -0.3776 -2.4249
  356TIP3    H2  991   5.101   5.453   4.963 -1.2124 -1.2761  2.0177
  357TIP3   OH2  992   3.372   0.560   5.408  0.3746  0.5197 -0.0037
  357TIP3    H1  993   3.304   0.614   5.448 -1.6372 -2.5557  1.1747
  357TIP3    H2  994   3.342   0.546   5.318  1.1173  1.6469 -0.4397
  358TIP3   OH2  995   4.083   3.471   5.310 -0.2538  0.0696 -0.0412
  358TIP3    H1  996   4.164   3.513   5.338 -0.4371 -0.4217  1.2729
  358TIP3    H2  997   4.017   3.541   5.313  0.0518  0.4163 -0.9041
  359TIP3   OH2  998   6.494   3.734   4.203 -0.0531  0.0831 -0.6883
  359TIP3    H1  999   6.432   3.682   4.254 -0.2111 -0.0939 -1.0513
  359TIP3    H2 1000   6.441   3.772   4.133  0.1296  0.4591 -0.6215
  360TIP3   OH2 1001   5.511   5.817   0.814 -0.2363 -0.7619  0.1983
  360TIP3    H1 1002   5.502   5.741   0.872  0.9542 -0.6706  0.5395
  360TIP3    H2 1003   5.534   5.780   0.729  1.6312 -0.7771  0.6589
  361TIP3   OH2 1004   8.068   5.178   5.829 -0.1890 -0.5788 -0.1049
  361TIP3    H1 1005   8.066   5.159   5.923 -0.5506  0.3693  0.0860
  361TIP3    H2 1006   8.158   5.204   5.811 -0.8299  2.6003  0.6985
  362TIP3   OH2 1007   2.386   8.216   6.871  0.0604  0.7216  0.9607
  362TIP3    H1 1008   2.434   8.162   6.809  1.0206  1.9573  0.5765
  362TIP3    H2 1009   2.397   8.171   6.955 -0.5659 -0.5271  0.4049
  363TIP3   OH2 1010   0.855   5.851   1.195 -0.7400 -0.5614  0.0280
  363TIP3    H1 1011   0.917   5.887   1.258 -1.4276  0.9972 -0.1385
  363TIP3    H2 1012   0.805   5.786   1.245  0.0310 -0.7704  0.5449
  364TIP3   OH2 1013   4.751   6.007   0.032  0.5616  0.6538  0.5236
  364TIP3    H1 1014   4.717   5.956  -0.041  1.5156  1.4625 -0.5167
  364TIP3    H2 1015   4.697   6.087   0.032  1.6810  1.4489 -0.4470
  365TIP3   OH2 1016   8.527   5.338   0.733 -0.1690  0.0004  0.0968
  365TIP3    H1 1017   8.487   5.262   0.775 -3.1657  0.4414 -1.6723
  365TIP3    H2 1018   8.606   5.303   0.692 -2.0196 -2.5340 -1.6179
  366TIP3   OH2 1019   0.175   1.831   4.733  0.2913  0.1871  0.5389
  366TIP3    H1 1020   0.189   1.824   4.639 -0.0621  0.6538  0.4446
  366TIP3    H2 1021   0.256   1.799   4.772  0.5541  0.2711  0.0684
  367TIP3   OH2 1022   4.288   5.936   6.592 -0.1122  0.5889 -0.1595
  367TIP3    H1 1023   4.360   5.939   6.655 -0.2786 -1.1450  0.1730
  367TIP3    H2 1024   4.210   5.958   6.643 -0.2163 -0.5945  0.2211
  368TIP3   OH2 1025   7.023   5.589   6.289 -0.1485  0.1264  0.1097
  368TIP3    H1 1026   6.939   5.548   6.312 -0.5240  0.2207 -1.0514
  368TIP3    H2 1027   7.032   5.660   6.352 -1.4665  0.7955 -0.4100
  369TIP3   OH2 1028   7.201   1.005   5.609 -0.3797 -0.1732  0.0683
  369TIP3    H1 1029   7.224   1.055   5.531 -2.4845 -1.8724 -1.7667
  369TIP3    H2 1030   7.279   0.952   5.628  0.1024  0.1318 -0.9909
  370TIP3   OH2 1031   5.422   0.374   2.956 -0.0641 -0.5531  0.3748
  370TIP3    H1 1032   5.397   0.312   2.888  2.9346 -1.8179  0.2580
  370TIP3    H2 1033   5.518   0.368   2.961  0.0662  1.4173  2.9039
  371TIP3   OH2 1034   6.322   6.966   2.254  0.2843  0.1789  0.2307
  371TIP3    H1 1035   6.318   6.976   2.349  1.7748  0.2844  0.3095
  371TIP3    H2 1036   6.263   7.032   2.219  0.5731  0.8798  1.0606
  372TIP3   OH2 1037   4.096   7.130   3.002 -1.0167 -0.6806  0.2606
  372TIP3    H1 1038   4.142   7.064   3.053 -1.7949 -0.3292  1.4631
  372TIP3    H2 1039   4.062   7.082   2.926  0.7030 -1.0777 -0.2951
  373TIP3   OH2 1040   3.914   1.570   0.774  0.3061 -0.0623 -0.1203
  373TIP3    H1 1041   3.969   1.570   0.852  0.0482 -0.5734  0.0645
  373TIP3    H2 1042   3.909   1.662   0.748 -0.6194  0.2746  1.1815
  374TIP3   OH2 1043   6.644   7.310   3.548 -0.1551  0.3141 -0.4501
  374TIP3    H1 1044   6.619   7.401   3.533  2.2489  1.2415  0.5748
  374TIP3    H2 1045   6.727   7.301   3.503 -0.5941 -1.5603 -0.9392
  375TIP3   OH2 1046   0.091   6.814   2.181  0.1798  0.8585  0.5275
  375TIP3    H1 1047   0.009   6.771   2.208  1.3844  0.6809  4.7292
  375TIP3    H2 1048   0.157   6.775   2.239  2.5733  3.4973 -0.2610
  376TIP3   OH2 1049   2.045   7.696   1.568 -0.0090 -0.7681 -0.2657
  376TIP3    H1 1050   2.087   7.612   1.587  0.1177 -0.7395 -0.4150
  376TIP3    H2 1051   2.023   7.732   1.653  0.2170 -0.8103 -0.1884
  377TIP3   OH2 1052   1.593   4.910   3.222 -0.2619 -0.4317 -0.2513
  377TIP3    H1 1053   1.635   4.941   3.302  0.7787 -2.1677 -0.0926
  377TIP3    H2 1054   1.665   4.899   3.160 -0.7240 -1.5520 -0.6056
  378TIP3   OH2 1055   8.000   1.019   4.553 -0.3194  0.1237  0.2150
  378TIP3    H1 1056   7.920   1.067   4.573 -0.6167 -0.8229  1.4452
  378TIP3    H2 1057   8.015   0.964   4.630  0.7300 -0.7745 -0.5898
  379TIP3   OH2 1058   4.962   8.136   2.803  0.0560  0.3690 -0.3486
  379TIP3    H1 1059   4.938   8.061   2.748 -0.0394  0.5273 -0.5236
  379TIP3    H2 1060   4.973   8.099   2.891  2.2206 -0.2594 -0.8416
  380TIP3   OH2 1061   0.079   4.791   1.207 -0.0964  0.2968  0.4410
  380TIP3    H1 1062   0.166   4.766   1.239 -0.1414 -0.0541  0.2867
  380TIP3    H2 1063   0.085   4.886   1.196  0.1943  0.3064  0.6578
  381TIP3   OH2 1064   5.589   4.857   6.770 -0.1055  0.2313  0.7586
  381TIP3    H1 1065   5.548   4.804   6.701  0.3499  1.4661 -0.5312
  381TIP3    H2 1066   5.520   4.918   6.797 -0.1973 -0.0661  1.2008
  382TIP3   OH2 1067   7.648   0.844   4.169  0.0896 -0.2360  0.3798
  382TIP3    H1 1068   7.731   0.802   4.142 -0.8018 -0.3958 -2.4699
  382TIP3    H2 1069   7.614   0.787   4.238  0.8148 -2.0835 -0.6952
  383TIP3   OH2 1070   1.368   4.723   4.139  0.0444  0.0174  0.1444
  383TIP3    H1 1071   1.308   4.722   4.213  0.2957  0.4585  0.3609
  383TIP3    H2 1072   1.314   4.749   4.064 -0.2978 -0.8337  0.0834
  384TIP3   OH2 1073   3.742   7.576   1.996 -0.2756  0.3363 -0.4088
  384TIP3    H1 1074   3.761   7.497   2.047 -0.7828  0.8772  0.6720
  384TIP3    H2 1075   3.810   7.579   1.929  0.9045 -0.0025  0.7266
  385TIP3   OH2 1076   3.054   6.673   0.966  0.2896 -0.5020 -0.8432
  385TIP3    H1 1077   3.128   6.617   0.991 -1.7724 -2.1376  2.2788
  385TIP3    H2 1078   3.095   6.755   0.939  3.2966 -1.9601 -1.1905
  386TIP3   OH2 1079   6.715   0.047   2.111 -0.0205 -0.1517  0.1150
  386TIP3    H1 1080   6.660  -0.031   2.105  0.9100 -0.8968  0.9146
  386TIP3    H2 1081   6.656   0.115   2.144 -1.1470 -0.1571 -1.7135
  387TIP3   OH2 1082   5.779   4.208   4.343 -0.0150 -0.0595  0.4144
  387TIP3    H1 1083   5.723   4.276   4.306  0.6590  0.8237  0.9590
  387TIP3    H2 1084   5.725   4.165   4.410  0.3286  1.6412  1.8492
  388TIP3   OH2 1085   5.899   8.033   6.948 -0.4267  0.0691 -0.1489
  388TIP3    H1 1086   5.984   8.067   6.921 -0.5256  0.4531  0.0243
  388TIP3    H2 1087   5.919   7.974   7.020 -0.4366  1.3092  0.9097
  389TIP3   OH2 1088   0.354   1.374   5.358  0.0762  0.1067  0.3367
  389TIP3    H1 1089   0.409   1.355   5.433 -0.8604 -1.3831  0.6855
  389TIP3    H2 1090   0.309   1.456   5.380  1.6669  1.0138  0.2955
  390TIP3   OH2 1091   8.209   5.826   5.827  0.3179  0.6200 -0.3632
  390TIP3    H1 1092   8.142   5.776   5.874  0.7647  0.3410 -0.0150
  390TIP3    H2 1093   8.166   5.855   5.747 -0.3158  0.7125  0.0096
  391TIP3   OH2 1094   0.673   2.511   1.776  0.2491  0.1463  0.1016
  391TIP3    H1 1095   0.637   2.581   1.722  2.2567  1.6291  0.5755
  391TIP3    H2 1096   0.678   2.435   1.717 -0.5850  0.8019 -0.8384
  392TIP3   OH2 1097   0.743   6.198   3.659 -0.1572  0.4537 -0.2265
  392TIP3    H1 1098   0.830   6.212   3.695 -0.3795  0.0604  0.4807
  392TIP3    H2 1099   0.745   6.242   3.574  0.3742  1.4034  0.2627
  393TIP3   OH2 1100   4.311   2.551   2.373  0.2625  0.0326  0.1892
  393TIP3    H1 1101   4.339   2.641   2.391 -1.0810  0.2061  1.6765
  393TIP3    H2 1102   4.253   2.558   2.297 -0.5777  0.5879  0.8643
  394TIP3   OH2 1103   8.318   3.593   1.994 -0.4457  0.2908  0.1467
  394TIP3    H1 1104   8.307   3.556   1.907 -2.4945  1.7185 -0.2730
  394TIP3    H2 1105   8.288   3.684   1.986  1.6921  1.2576  1.7670
  395TIP3   OH2 1106   0.022   1.725   0.161  0.3302  0.1372 -0.4577
  395TIP3    H1 1107  -0.031   1.645   0.159 -1.5343  1.3187 -1.8209
  395TIP3    H2 1108   0.027   1.752   0.069  1.2377  1.3940 -0.0634
  396TIP3   OH2 1109   4.337   3.016   6.631  0.3733  0.0049  0.5952
  396TIP3    H1 1110   4.315   2.931   6.670 -0.2473  0.8873  2.2711
  396TIP3    H2 1111   4.432   3.023   6.641  0.4229 -0.4586  0.4947
  397TIP3   OH2 1112   5.070   1.953   6.479 -0.4752  0.2850 -0.1223
  397TIP3    H1 1113   5.153   1.972   6.436 -0.4888 -0.2936 -0.4049
  397TIP3    H2 1114   5.051   1.862   6.457 -2.5923  1.1892 -2.4492
  398TIP3   OH2 1115   4.030   0.453   3.342 -0.0287  0.3763  0.1729
  398TIP3    H1 1116   4.102   0.515   3.356  1.0956 -0.4842 -1.4465
  398TIP3    H2 1117   4.024   0.444   3.247 -2.0167  0.0747  0.2781
  399TIP3   OH2 1118   0.809   6.017   6.731  0.1461 -0.2548 -0.2027
  399TIP3    H1 1119   0.842   6.054   6.812  3.4593 -1.9413 -0.5805
  399TIP3    H2 1120   0.874   6.042   6.665 -0.2503 -2.2646 -1.4626
  400TIP3   OH2 1121   7.934   7.892   1.290 -0.0377  0.7181  0.2767
  400TIP3    H1 1122   7.862   7.877   1.229 -1.3676 -0.6510  2.0614
  400TIP3    H2 1123   8.012   7.897   1.235 -1.5338  3.0993 -1.8032
  401TIP3   OH2 1124   1.436   2.989   5.721 -0.2242 -0.1583 -0.0494
  401TIP3    H1 1125   1.469   3.024   5.639  1.8952  0.0224  0.8342
  401TIP3    H2 1126   1.475   3.043   5.789  1.4242 -2.7597  1.2623
  402TIP3   OH2 1127   0.991   2.338   6.809  0.3771  0.1693 -0.1687
  402TIP3    H1 1128   1.080   2.344   6.842  0.3848 -1.1679  0.0928
  402TIP3    H2 1129   0.964   2.429   6.796  1.6924  0.5932 -0.0443
  403TIP3   OH2 1130   1.128   0.837   0.748 -0.0370  0.0241  0.4098
  403TIP3    H1 1131   1.222   0.838   0.766  0.1020  0.6362 -0.2840
  403TIP3    H2 1132   1.122   0.828   0.653 -0.5085  4.5476 -0.2456
  404TIP3   OH2 1133   7.265   6.846   4.445  0.0674 -0.7952 -0.8523
  404TIP3    H1 1134   7.186   6.900   4.446  0.6115  0.0280 -1.5459
  404TIP3    H2 1135   7.316   6.879   4.519 -0.0033 -0.9943 -0.7120
  405TIP3   OH2 1136   8.025   4.258   2.827  0.1451  0.3901 -0.1706
  405TIP3    H1 1137   8.051   4.284   2.916  2.0415  0.8915 -0.8371
  405TIP3    H2 1138   8.104   4.268   2.775 -0.7817 -0.5026 -1.8136
  406TIP3   OH2 1139   4.557   4.002   2.979 -0.3025 -0.8002 -0.1212
  406TIP3    H1 1140   4.576   3.976   3.069  0.5609 -2.9163 -0.8519
  406TIP3    H2 1141   4.496   4.076   2.988  0.4713 -0.3397  2.1840
  407TIP3   OH2 1142   0.997   3.187   3.795 -0.1159  0.4554  0.0004
  407TIP3    H1 1143   0.942   3.265   3.806 -0.0370  0.3969  0.8729
  407TIP3    H2 1144   1.087   3.222   3.794 -0.1560  0.6077 -1.9421
  408TIP3   OH2 1145   0.031   1.335   3.723 -0.5154 -0.7517  0.2472
  408TIP3    H1 1146   0.077   1.253   3.712 -1.0247 -1.1637  1.0801
  408TIP3    H2 1147  -0.013   1.350   3.639  0.1885 -0.9286 -0.1594
  409TIP3   OH2 1148   1.618   7.218   4.282  0.3408  0.2240 -0.2616
  409TIP3    H1 1149   1.558   7.271   4.229  0.4206  0.0887 -0.4890
  409TIP3    H2 1150   1.670   7.170   4.218  0.5534  0.1864 -0.0605
  410TIP3   OH2 1151   4.961   1.642   0.891 -0.2388 -0.1894  0.3614
  410TIP3    H1 1152   4.969   1.687   0.807  0.2299 -0.9309 -0.0025
  410TIP3    H2 1153   4.875   1.600   0.887  0.3054 -1.3013 -0.3123
  411TIP3   OH2 1154   0.869   5.969   0.446 -0.0883  0.3633 -0.3810
  411TIP3    H1 1155   0.837   5.925   0.368 -0.8280  0.3950 -0.0981
  411TIP3    H2 1156   0.929   6.037   0.413  1.1004 -0.8507 -0.8178
  412TIP3   OH2 1157   2.555   5.142   4.470 -0.1542  0.0851  0.4350
  412TIP3    H1 1158   2.574   5.185   4.554 -2.0261 -0.1131  0.9855
  412TIP3    H2 1159   2.640   5.108   4.441  0.8945  1.8357  1.2770
  413TIP3   OH2 1160   7.906   7.830   1.810 -0.0551 -1.1490 -0.0916
  413TIP3    H1 1161   7.889   7.842   1.903 -0.6344  0.2707 -0.3575
  413TIP3    H2 1162   7.982   7.771   1.807  0.5980 -0.4250  1.2859
  414TIP3   OH2 1163   0.498   3.012   5.093  0.1267 -0.2199 -0.4048
  414TIP3    H1 1164   0.490   3.087   5.035  2.3004  0.4477  0.0563
  414TIP3    H2 1165   0.531   3.048   5.175  0.3070 -1.5530  0.1469
  415TIP3   OH2 1166   3.686   2.710   5.332  0.2169 -0.1017 -0.2048
  415TIP3    H1 1167   3.633   2.631   5.343 -0.3287  0.1345 -0.9704
  415TIP3    H2 1168   3.631   2.780   5.368  0.4916 -0.0128  0.0358
  416TIP3   OH2 1169   2.152   2.523   2.587  0.5632 -0.2673  0.2176
  416TIP3    H1 1170   2.142   2.493   2.678  0.6153 -0.6602  0.0987
  416TIP3    H2 1171   2.231   2.577   2.589  0.7609 -0.5539  0.3443
  417TIP3   OH2 1172   7.175   0.291   4.971  0.0660 -0.2479 -0.0615
  417TIP3    H1 1173   7.113   0.245   5.028  1.2586 -2.9572 -0.7964
  417TIP3    H2 1174   7.143   0.381   4.969 -1.7332 -0.7190  2.4497
  418TIP3   OH2 1175   5.442   7.959   4.352  0.0464  0.0418 -0.0016
  418TIP3    H1 1176   5.433   7.963   4.257 -0.4123 -1.1666 -0.0206
  418TIP3    H2 1177   5.441   8.051   4.380 -1.1520  0.3742 -1.0456
  419TIP3   OH2 1178   8.606   3.817   6.275 -0.3223 -0.4433  0.1396
  419TIP3    H1 1179   8.649   3.894   6.238 -0.4018 -0.5370 -0.1479
  419TIP3    H2 1180   8.540   3.793   6.210 -0.2293 -0.8140  0.1840
  420TIP3   OH2 1181   4.166   5.243   2.175 -1.0547 -0.3087 -0.1295
  420TIP3    H1 1182   4.170   5.314   2.239 -1.5295 -0.5651  0.1905
  420TIP3    H2 1183   4.091   5.265   2.120 -0.0926  0.4095 -1.2155
  421TIP3   OH2 1184   8.333   5.064   6.749  0.1776 -0.2066  0.2460
  421TIP3    H1 1185   8.322   5.049   6.843  1.1375 -0.1948  0.3777
  421TIP3    H2 1186   8.426   5.045   6.733 -0.1492 -1.0137 -0.8495
  422TIP3   OH2 1187   5.220   1.526   3.822  0.4029  0.1007  0.0550
  422TIP3    H1 1188   5.202   1.531   3.916 -0.3798  1.0663 -0.1281
  422TIP3    H2 1189   5.292   1.463   3.815  0.6155  0.1671  1.3127
  423TIP3   OH2 1190   4.249   3.802   1.476  0.0989 -0.1892  0.5796
  423TIP3    H1 1191   4.266   3.878   1.531  1.6914 -0.1191  0.0198
  423TIP3    H2 1192   4.334   3.762   1.462 -0.1598  0.0159 -2.1430
  424TIP3   OH2 1193   6.585   6.224   4.430 -0.6610 -0.0808 -0.3515
  424TIP3    H1 1194   6.629   6.305   4.456 -0.6010  0.0509 -0.8393
  424TIP3    H2 1195   6.648   6.181   4.371 -1.0544 -0.0397 -0.8080
  425TIP3   OH2 1196   5.382   1.751   6.632  0.0187 -0.2131 -0.1696
  425TIP3    H1 1197   5.302   1.699   6.640  0.2141 -0.2398  2.6700
  425TIP3    H2 1198   5.350   1.842   6.630 -0.1217 -0.1828  1.7302
  426TIP3   OH2 1199   1.434   5.095   0.376 -0.4489 -0.1870  0.7467
  426TIP3    H1 1200   1.442   5.181   0.415  1.9047 -0.6223  1.3633
  426TIP3    H2 1201   1.455   5.108   0.284 -2.8808  0.3002  0.1848
  427TIP3   OH2 1202   0.112   6.440   4.809  0.1318  0.4522 -0.4873
  427TIP3    H1 1203   0.188   6.386   4.787 -0.6133 -1.6047  1.5851
  427TIP3    H2 1204   0.147   6.508   4.867  0.5893  0.2060 -0.4685
  428TIP3   OH2 1205   7.710   0.896   0.209 -0.2139 -0.1211  0.5560
  428TIP3    H1 1206   7.662   0.958   0.263  0.1495  0.1115  0.6166
  428TIP3    H2 1207   7.713   0.815   0.261  0.2431  0.1398  0.9336
  429TIP3   OH2 1208   7.351   0.420   5.344 -0.3382 -0.2048  0.4017
  429TIP3    H1 1209   7.311   0.363   5.278 -0.3259 -0.9553  1.0317
  429TIP3    H2 1210   7.387   0.360   5.409  1.4877  0.4515  0.0551
  430TIP3   OH2 1211   2.295   7.293   0.523  0.0466  0.2595 -0.3178
  430TIP3    H1 1212   2.335   7.311   0.608  0.3888  0.1523 -0.4567
  430TIP3    H2 1213   2.325   7.205   0.500  2.1881  1.3103 -1.8217
  431TIP3   OH2 1214   1.441   3.676   1.946 -0.0078 -0.3404  0.0528
  431TIP3    H1 1215   1.528   3.637   1.955  0.6048  1.2504  1.5852
  431TIP3    H2 1216   1.421   3.669   1.853  2.1486  0.0151 -0.4948
  432TIP3   OH2 1217   4.197   2.360   3.343  0.4105 -0.4803  0.4342
  432TIP3    H1 1218   4.154   2.284   3.382 -0.4891 -0.5353 -0.5893
  432TIP3    H2 1219   4.195   2.342   3.248 -0.2589  1.0161  0.1409
  433TIP3   OH2 1220   6.145   2.552   1.225  0.0008  0.1835  0.5953
  433TIP3    H1 1221   6.112   2.463   1.237 -0.9294  0.6435  1.5647
  433TIP3    H2 1222   6.112   2.579   1.139 -0.3807 -0.1185  0.6449
  434TIP3   OH2 1223   3.097   4.370   4.364 -0.4459  0.3168  0.4106
  434TIP3    H1 1224   3.188   4.391   4.346 -0.3585  0.4904  1.0471
  434TIP3    H2 1225   3.062   4.340   4.280 -0.4959  2.6501 -0.4734
  435TIP3   OH2 1226   0.262   3.336   0.044  1.0747 -0.0043 -0.4737
  435TIP3    H1 1227   0.340   3.290   0.077  2.2526  1.2208 -1.4604
  435TIP3    H2 1228   0.279   3.428   0.061  0.1761  0.3522 -1.4003
  436TIP3   OH2 1229   8.043   7.826   5.762  0.1996 -0.0055  0.0943
  436TIP3    H1 1230   8.037   7.878   5.681 -1.1167 -0.9320 -0.4253
  436TIP3    H2 1231   8.110   7.871   5.813  0.5876  0.9983 -1.2210
  437TIP3   OH2 1232   0.634   2.012   4.371  0.0767  0.3316 -0.5279
  437TIP3    H1 1233   0.727   1.994   4.365 -0.1536 -0.7260 -1.2305
  437TIP3    H2 1234   0.624   2.103   4.344  0.8858  0.4213 -0.5308
  438TIP3   OH2 1235   3.435   5.333   3.150  0.1820  0.1333 -0.3393
  438TIP3    H1 1236   3.449   5.415   3.104  2.3546  0.7212  1.2108
  438TIP3    H2 1237   3.431   5.358   3.243 -0.7409 -1.3551  0.0609
  439TIP3   OH2 1238   8.167   0.188   0.848 -0.2453 -0.1081  0.1126
  439TIP3    H1 1239   8.082   0.231   0.840 -0.1353  0.1134  0.1228
  439TIP3    H2 1240   8.224   0.235   0.787 -0.1631 -0.3382  0.0130
  440TIP3   OH2 1241   4.588   1.709   2.194  0.2016  0.4404 -0.0871
  440TIP3    H1 1242   4.625   1.662   2.120 -0.1215  0.2062 -0.1012
  440TIP3    H2 1243   4.603   1.652   2.269 -1.0558 -0.1477 -0.2563
  441TIP3   OH2 1244   6.987   0.507   0.276  0.2951  0.2520 -0.8508
  441TIP3    H1 1245   6.922   0.450   0.317  1.4145 -0.2981  0.2383
  441TIP3    H2 1246   6.939   0.587   0.254 -0.6527  0.0470  0.3595
  442TIP3   OH2 1247   4.839   0.925   3.422  0.4678 -0.6008  0.2672
  442TIP3    H1 1248   4.796   0.844   3.394 -0.2023  0.3658 -1.7129
  442TIP3    H2 1249   4.915   0.934   3.363 -0.1987  0.8163 -0.4347
  443TIP3   OH2 1250   6.560   7.186   2.639 -0.0096 -0.5757  0.1126
  443TIP3    H1 1251   6.569   7.162   2.546 -0.3559  1.1161 -0.3960
  443TIP3    H2 1252   6.486   7.246   2.640  0.5509  0.1194  1.3519
  444TIP3   OH2 1253   0.509   6.831   0.997  0.0265  0.7665  0.4465
  444TIP3    H1 1254   0.563   6.753   0.983 -0.6421  0.2601  0.6689
  444TIP3    H2 1255   0.525   6.855   1.088 -1.5735 -0.5121  1.0916
  445TIP3   OH2 1256   4.636   5.608   1.085  0.1141  0.1028 -0.0793
  445TIP3    H1 1257   4.729   5.589   1.094  0.1457  0.7824  1.2887
  445TIP3    H2 1258   4.625   5.631   0.993  1.2993  0.0384 -0.2539
  446TIP3   OH2 1259   1.117   6.232   2.737 -0.6780 -0.1915  0.4068
  446TIP3    H1 1260   1.120   6.293   2.663 -3.1655 -0.4358  0.0409
  446TIP3    H2 1261   1.136   6.146   2.698  0.1018 -0.0588  0.4604
  447TIP3   OH2 1262   7.152   4.311   7.052  0.3871  0.0851  0.8200
  447TIP3    H1 1263   7.161   4.386   6.992  1.1266  1.5040  2.6046
  447TIP3    H2 1264   7.229   4.257   7.034 -0.2951 -0.4550 -0.6866
  448TIP3   OH2 1265   0.824   2.461   1.457 -0.3608 -0.4101  0.0644
  448TIP3    H1 1266   0.863   2.373   1.460 -1.6024 -0.9576  1.2302
  448TIP3    H2 1267   0.897   2.520   1.477  0.2705 -1.2544  0.3268
  449TIP3   OH2 1268   6.605   2.492   3.763 -0.0852  0.3863  0.5601
  449TIP3    H1 1269   6.592   2.538   3.680 -1.1512 -0.9238 -0.0373
  449TIP3    H2 1270   6.637   2.559   3.823 -1.6571  1.9381 -0.2469
  450TIP3   OH2 1271   5.933   3.177   3.083  0.1799 -0.0461  0.1642
  450TIP3    H1 1272   6.018   3.181   3.128  0.6015  0.7075 -0.6649
  450TIP3    H2 1273   5.941   3.101   3.025  0.0278 -0.3730  0.5591
  451TIP3   OH2 1274   6.298   3.878   3.378  0.0325  0.5513 -0.7617
  451TIP3    H1 1275   6.320   3.895   3.286 -1.0981  0.0966 -1.1337
  451TIP3    H2 1276   6.381   3.892   3.425  0.4844  1.3802 -1.7591
  452TIP3   OH2 1277   1.312   1.760   3.983 -0.4248 -0.2336 -0.0365
  452TIP3    H1 1278   1.310   1.686   4.043  0.1832 -0.6787 -0.5524
  452TIP3    H2 1279   1.361   1.828   4.030  0.9309 -0.9301 -0.4025
  453TIP3   OH2 1280   6.906   6.122   6.930  0.1891  0.3941 -0.2308
  453TIP3    H1 1281   6.902   6.033   6.894 -0.0579 -0.3424  1.5528
  453TIP3    H2 1282   6.884   6.112   7.022  1.3680  2.1442  0.2881
  454TIP3   OH2 1283   0.507   1.973   2.131  0.4839  0.0075  0.3953
  454TIP3    H1 1284   0.472   2.047   2.081  0.0607  0.1582  0.9162
  454TIP3    H2 1285   0.508   2.003   2.221  0.9208 -0.3953  0.5299
  455TIP3   OH2 1286   2.988   3.990   1.293  0.3223 -0.5388  0.4908
  455TIP3    H1 1287   3.018   3.912   1.340  0.0360 -0.8709  0.1261
  455TIP3    H2 1288   3.059   4.010   1.232  0.8134  0.0511  1.2362
  456TIP3   OH2 1289   0.758   3.700   3.888  0.2067 -0.2698 -0.1873
  456TIP3    H1 1290   0.775   3.792   3.868  2.1495 -0.5195  0.0899
  456TIP3    H2 1291   0.756   3.657   3.803 -1.3557  0.0850 -0.3650
  457TIP3   OH2 1292   4.849   6.956   0.614 -0.0699  0.0376  0.1777
  457TIP3    H1 1293   4.789   6.892   0.653 -0.4441  0.1872 -0.1439
  457TIP3    H2 1294   4.792   7.018   0.569  0.3933 -1.1251 -2.1619
  458TIP3   OH2 1295   5.209   7.800   2.995  0.9017  0.4338  0.3414
  458TIP3    H1 1296   5.209   7.722   2.939 -0.4736 -0.3662  1.4029
  458TIP3    H2 1297   5.232   7.767   3.082  2.8641  1.6377  0.3358
  459TIP3   OH2 1298   4.515   1.004   6.137  0.5077 -0.7329 -0.2124
  459TIP3    H1 1299   4.450   0.952   6.186  0.7822 -1.2574 -0.3975
  459TIP3    H2 1300   4.555   1.060   6.204  0.6522 -1.2122  0.1067
  460TIP3   OH2 1301   1.051   4.763   0.972 -0.1125 -0.2319  0.2669
  460TIP3    H1 1302   1.085   4.745   1.059  0.7157  2.2053  0.5051
  460TIP3    H2 1303   1.106   4.833   0.938 -2.2625  0.9607 -1.0137
  461TIP3   OH2 1304   5.318   6.487   6.374  0.0562 -0.9064 -0.5169
  461TIP3    H1 1305   5.350   6.571   6.405 -0.7569 -0.9647  0.5200
  461TIP3    H2 1306   5.398   6.436   6.358  0.5198 -0.5047  0.4397
  462TIP3   OH2 1307   0.302   0.188   5.042  0.1443  0.1252 -0.1292
  462TIP3    H1 1308   0.379   0.142   5.009  1.1933  1.0520  0.9676
  462TIP3    H2 1309   0.298   0.167   5.135 -1.0452 -0.0560 -0.1988
  463TIP3   OH2 1310   3.075   5.315   4.171 -0.1367 -0.4631  0.2749
  463TIP3    H1 1311   3.093   5.393   4.223 -0.3063 -1.2613  1.5898
  463TIP3    H2 1312   2.990   5.284   4.203 -0.2833 -0.9421 -0.5432
  464TIP3   OH2 1313   6.793   5.442   6.356  0.0661 -0.5446  0.8355
  464TIP3    H1 1314   6.810   5.351   6.331  1.7773 -0.5010  1.7171
  464TIP3    H2 1315   6.708   5.439   6.401 -1.8587 -1.0154 -2.4984
  465TIP3   OH2 1316   8.322   4.439   3.337  0.2938 -0.4622  0.6321
  465TIP3    H1 1317   8.272   4.406   3.412 -0.2963 -0.3219  0.3037
  465TIP3    H2 1318   8.324   4.534   3.349 -1.0670 -0.2896 -0.2857
  466TIP3   OH2 1319   8.181   0.496   5.194 -0.2249 -0.6050 -0.5489
  466TIP3    H1 1320   8.106   0.545   5.160  0.4538  1.0022  0.1278
  466TIP3    H2 1321   8.212   0.443   5.120 -1.4307 -0.5561 -1.1059
  467TIP3   OH2 1322   3.373   7.035   5.674 -1.4208 -0.1510  0.1530
  467TIP3    H1 1323   3.451   7.043   5.618 -0.6856  1.9968  1.3967
  467TIP3    H2 1324   3.299   7.039   5.613 -0.6121 -0.7658 -0.9110
  468TIP3   OH2 1325   2.094   2.827   1.783  0.4515  0.3827  0.0087
  468TIP3    H1 1326   2.139   2.765   1.841  1.0212  1.9206  1.2700
  468TIP3    H2 1327   2.153   2.902   1.779 -0.4174  1.0249 -1.1610
  469TIP3   OH2 1328   6.284   5.968   0.278  0.4494 -0.2676 -0.1675
  469TIP3    H1 1329   6.367   5.951   0.232  0.3278 -1.6204  0.0723
  469TIP3    H2 1330   6.231   6.015   0.214  1.7441  1.5225  0.0157
  470TIP3   OH2 1331   0.990   2.689   6.576 -0.0370  0.4859 -0.4419
  470TIP3    H1 1332   1.005   2.774   6.534 -0.9852  0.1650 -1.5021
  470TIP3    H2 1333   0.983   2.627   6.503 -0.6849 -0.2779  0.2394
  471TIP3   OH2 1334   7.309   2.057   7.002  0.5679  0.1347  0.0619
  471TIP3    H1 1335   7.344   1.968   6.995  0.2669  0.0250 -0.0872
  471TIP3    H2 1336   7.233   2.057   6.944  1.2851  0.8502 -0.9273
  472TIP3   OH2 1337   0.340   1.662   6.691 -0.0974 -0.4158  0.0097
  472TIP3    H1 1338   0.336   1.670   6.596 -0.3482  0.0745  0.0594
  472TIP3    H2 1339   0.423   1.704   6.715  0.9445 -2.2679 -0.1589
  473TIP3   OH2 1340   1.430   5.450   6.104  0.5800 -0.6041 -0.2668
  473TIP3    H1 1341   1.381   5.410   6.033 -0.0066  0.1988 -0.3379
  473TIP3    H2 1342   1.402   5.542   6.103  2.1708 -0.0932 -0.3621
  474TIP3   OH2 1343   7.493   1.412   5.345  0.4870  0.2145  0.2070
  474TIP3    H1 1344   7.470   1.429   5.254 -2.5175 -1.0725  0.6160
  474TIP3    H2 1345   7.507   1.499   5.383 -0.1286  0.8835 -1.0312
  475TIP3   OH2 1346   4.247   3.384   3.859 -0.1687 -0.3529  0.2566
  475TIP3    H1 1347   4.267   3.375   3.766  0.1226 -0.8836  0.3682
  475TIP3    H2 1348   4.293   3.463   3.886  0.8775 -0.9493  0.2547
  476TIP3   OH2 1349   5.228   5.341   5.901 -0.4115  0.0197 -0.1929
  476TIP3    H1 1350   5.140   5.369   5.877 -0.1752  1.4909  0.5743
  476TIP3    H2 1351   5.262   5.300   5.821 -1.7134 -0.4212 -0.5444
  477TIP3   OH2 1352   5.181   6.737   1.892  0.6056  0.7713 -0.3369
  477TIP3    H1 1353   5.105   6.736   1.833  0.6256  0.3070 -0.3603
  477TIP3    H2 1354   5.218   6.649   1.884  0.0112  0.3671  1.1630
  478TIP3   OH2 1355   7.873   1.813   1.893  1.0023 -0.5168  0.0332
  478TIP3    H1 1356   7.824   1.853   1.964  0.8109  1.3938 -1.1193
  478TIP3    H2 1357   7.822   1.735   1.870  1.2520 -1.3713  2.1650
  479TIP3   OH2 1358   3.132   3.364   4.094 -0.5236 -0.3121  0.6540
  479TIP3    H1 1359   3.166   3.291   4.043 -1.1258 -0.2274  0.1088
  479TIP3    H2 1360   3.208   3.400   4.139  0.0475 -0.3154 -0.2919
  480TIP3   OH2 1361   6.654   3.871   5.481 -0.0665 -0.0678  0.2230
  480TIP3    H1 1362   6.731   3.883   5.537  0.3229 -1.0431 -0.0663
  480TIP3    H2 1363   6.612   3.956   5.478 -0.0445  0.0351  1.9160
  481TIP3   OH2 1364   5.372   3.681   5.633  0.2749  0.1383  0.0022
  481TIP3    H1 1365   5.330   3.594   5.633 -1.1979  0.7692  1.9576
  481TIP3    H2 1366   5.465   3.662   5.641  0.1208 -1.2645 -1.0514
  482TIP3   OH2 1367   2.711   5.152   2.602 -0.6729 -0.6755 -0.1836
  482TIP3    H1 1368   2.668   5.201   2.673 -0.2961 -1.6514  0.7521
  482TIP3    H2 1369   2.781   5.105   2.646  0.5880 -0.0698 -1.4930
  483TIP3   OH2 1370   6.149   7.186   3.781  0.9381  0.1125 -0.1417
  483TIP3    H1 1371   6.145   7.118   3.847 -0.2169  0.8554  0.5869
  483TIP3    H2 1372   6.144   7.139   3.697 -2.5226 -0.6369  0.3345
  484TIP3   OH2 1373   2.051   8.081   2.113 -0.1457  0.1662  0.3299
  484TIP3    H1 1374   2.135   8.127   2.123  0.6492 -1.0428 -0.4458
  484TIP3    H2 1375   1.997   8.141   2.062  1.3257 -0.2078 -1.8328
  485TIP3   OH2 1376   2.742   5.342   2.407  0.4544  0.1815  0.6233
  485TIP3    H1 1377   2.730   5.260   2.455 -0.3474 -0.3517 -0.4363
  485TIP3    H2 1378   2.809   5.389   2.456  0.0762 -0.5824  1.9293
  486TIP3   OH2 1379   2.177   5.884   3.465  0.5723 -0.4010 -0.0441
  486TIP3    H1 1380   2.228   5.936   3.527  0.8895 -0.6938 -0.0581
  486TIP3    H2 1381   2.238   5.817   3.433  0.2773 -0.5445 -0.3152
  487TIP3   OH2 1382   6.045   0.441   0.048 -0.5693 -0.2757 -0.5016
  487TIP3    H1 1383   6.108   0.369   0.058 -0.7318 -0.3111  0.4136
  487TIP3    H2 1384   5.961   0.403   0.075 -0.3103  0.7800  2.1067
  488TIP3   OH2 1385   4.692   5.988   5.326  0.2150  0.2093 -0.1419
  488TIP3    H1 1386   4.673   5.907   5.279  1.4217  0.3963 -1.0064
  488TIP3    H2 1387   4.779   6.015   5.294  0.4962  1.0538  1.2274
  489TIP3   OH2 1388   2.318   4.029   4.442 -0.4021  0.0821  0.2880
  489TIP3    H1 1389   2.345   4.037   4.533  1.5515  0.0699 -0.2486
  489TIP3    H2 1390   2.284   3.939   4.435  2.0132 -0.8990  0.4250
  490TIP3   OH2 1391   2.680   7.687   4.804 -0.1554 -0.4850 -0.7613
  490TIP3    H1 1392   2.749   7.641   4.756  0.1158  0.3709 -1.2087
  490TIP3    H2 1393   2.643   7.748   4.740 -0.4491 -0.0210 -0.1569
  491TIP3   OH2 1394   3.954   4.315   4.506  0.4119  0.0801  0.1565
  491TIP3    H1 1395   3.936   4.391   4.451 -0.3280 -0.2095 -0.0207
  491TIP3    H2 1396   3.948   4.241   4.445 -0.7615 -0.2768  0.6702
  492TIP3   OH2 1397   3.806   0.053   4.906 -0.5379  0.3298 -0.3742
  492TIP3    H1 1398   3.874   0.024   4.845  0.0398  2.1383 -0.6443
  492TIP3    H2 1399   3.757  -0.027   4.926 -0.0512 -0.5203 -2.3190
  493TIP3   OH2 1400   1.602   0.822   2.486 -0.5915 -0.3141  0.5838
  493TIP3    H1 1401   1.671   0.774   2.442 -0.9779 -0.3389 -0.0056
  493TIP3    H2 1402   1.562   0.876   2.417 -2.0749 -1.3401  0.5919
  494TIP3   OH2 1403   5.829   7.187   4.530  0.3904  0.2760 -0.1373
  494TIP3    H1 1404   5.913   7.194   4.485  0.3036 -1.3664 -0.6244
  494TIP3    H2 1405   5.791   7.274   4.523  1.0182  0.4456 -1.9957
  495TIP3   OH2 1406   6.755   7.380   1.636 -0.3028 -0.2755 -0.2845
  495TIP3    H1 1407   6.707   7.370   1.718 -2.4547  0.9606 -1.3196
  495TIP3    H2 1408   6.689   7.369   1.568  1.1647  0.0894 -1.8228
  496TIP3   OH2 1409   7.448   0.661   2.048 -0.0522 -0.0566 -0.1398
  496TIP3    H1 1410   7.424   0.657   1.955 -0.9916 -0.4776  0.1057
  496TIP3    H2 1411   7.369   0.632   2.094 -1.3082  4.5605  1.0784
  497TIP3   OH2 1412   8.079   7.211   2.964  0.1963 -0.1520 -0.2867
  497TIP3    H1 1413   8.051   7.139   2.909 -0.5337  0.0316 -0.1610
  497TIP3    H2 1414   8.170   7.190   2.987  0.0015 -1.0082 -0.2754
  498TIP3   OH2 1415   1.018   7.410   2.715  0.2199  0.1335 -0.5955
  498TIP3    H1 1416   1.087   7.357   2.756 -0.2493 -0.3817 -0.4615
  498TIP3    H2 1417   1.038   7.500   2.742 -1.2226 -0.3305  2.6096
  499TIP3   OH2 1418   5.859   0.617   3.302 -0.4902  0.4944 -0.0233
  499TIP3    H1 1419   5.774   0.660   3.297 -0.1305  1.4418  1.2922
  499TIP3    H2 1420   5.922   0.688   3.291  0.1437 -0.2082 -1.0641
  500TIP3   OH2 1421   2.004   0.003   2.620  0.1118  0.2748 -0.2170
  500TIP3    H1 1422   2.081  -0.032   2.663 -0.2405  0.8351  0.8925
  500TIP3    H2 1423   2.014   0.098   2.625 -0.7706  0.3548  0.1657
  501TIP3   OH2 1424   3.277   2.299   5.653  0.5457  0.3939 -0.1870
  501TIP3    H1 1425   3.314   2.271   5.737 -0.7525 -0.3075  0.1664
  501TIP3    H2 1426   3.243   2.386   5.669  0.6256  0.4082 -0.0956
  502TIP3   OH2 1427   5.316   1.989   5.538 -0.2165  0.3161  0.7057
  502TIP3    H1 1428   5.392   2.029   5.581  0.5427  1.4236 -1.4646
  502TIP3    H2 1429   5.240   2.023   5.586  0.5843  1.2875  1.3285
  503TIP3   OH2 1430   2.848   0.497   2.017 -0.0310  0.2643  0.0266
  503TIP3    H1 1431   2.795   0.491   2.097 -0.5555  0.0932 -0.3280
  503TIP3    H2 1432   2.790   0.464   1.948  1.1617 -1.7144 -0.1061
  504TIP3   OH2 1433   8.217   6.803   2.102  0.0779  0.2034 -0.4594
  504TIP3    H1 1434   8.237   6.749   2.179  0.2898 -1.5420 -1.6870
  504TIP3    H2 1435   8.257   6.887   2.121  0.5494 -0.3368  1.1262
  505TIP3   OH2 1436   7.331   4.442   6.878 -0.0457 -0.6811  0.1786
  505TIP3    H1 1437   7.389   4.384   6.926  1.0879  1.3780  1.4519
  505TIP3    H2 1438   7.344   4.528   6.918  0.2679  1.0296 -3.1855
  506TIP3   OH2 1439   5.253   7.816   1.348 -0.2122  0.2041 -0.4026
  506TIP3    H1 1440   5.302   7.735   1.364 -0.8574 -0.3798 -1.2805
  506TIP3    H2 1441   5.317   7.877   1.312  0.5799  0.5549  1.4512
  507TIP3   OH2 1442   3.062   0.280   4.198 -0.4527 -0.1384  0.7175
  507TIP3    H1 1443   3.035   0.256   4.109  0.8860  0.4717  0.1179
  507TIP3    H2 1444   3.125   0.212   4.223 -2.2041 -1.3709  1.9734
  508TIP3   OH2 1445   7.067   8.170   5.095 -0.0041 -0.1277 -0.0341
  508TIP3    H1 1446   7.138   8.232   5.111  0.1247 -0.0932 -0.6990
  508TIP3    H2 1447   7.066   8.115   5.173 -1.4598  1.9480  1.5180
  509TIP3   OH2 1448   3.987   2.385   1.220 -0.1391  0.6831 -0.0448
  509TIP3    H1 1449   4.048   2.455   1.200  0.4425  0.5829  1.3340
  509TIP3    H2 1450   3.952   2.359   1.134 -0.0237  2.3172 -0.6220
  510TIP3   OH2 1451   4.144   5.483   0.436 -0.1540  0.2366 -0.0406
  510TIP3    H1 1452   4.080   5.496   0.366  0.2758 -1.2597 -0.7516
  510TIP3    H2 1453   4.100   5.424   0.497  1.3991 -3.1136 -1.8962
  511TIP3   OH2 1454   6.441   3.000   5.134  0.2769  0.1670 -0.1988
  511TIP3    H1 1455   6.475   2.915   5.162 -0.0039 -0.0985 -0.6596
  511TIP3    H2 1456   6.346   2.991   5.139  0.1859  1.3596  2.5032
  512TIP3   OH2 1457   0.817   3.627   5.058  0.4734  0.5218 -0.8073
  512TIP3    H1 1458   0.913   3.618   5.053  0.5916  1.3286 -0.2705
  512TIP3    H2 1459   0.803   3.721   5.070 -0.4372  0.5361 -1.7900
  513TIP3   OH2 1460   3.719   3.921   1.555 -0.0351  0.8002  0.0884
  513TIP3    H1 1461   3.685   3.870   1.629 -1.1058  1.6334  0.1948
  513TIP3    H2 1462   3.810   3.893   1.547  0.3641  1.2908  2.2637
  514TIP3   OH2 1463   3.291   6.018   2.441 -0.8634 -0.5314  0.5916
  514TIP3    H1 1464   3.208   6.051   2.474 -1.5560 -0.9489 -0.6566
  514TIP3    H2 1465   3.318   6.082   2.375  1.3170  1.1732  2.9370
  515TIP3   OH2 1466   8.517   1.404   5.797 -0.6978 -0.2771  0.3207
  515TIP3    H1 1467   8.474   1.387   5.713  0.9407 -0.8995 -0.4341
  515TIP3    H2 1468   8.549   1.494   5.790 -0.5157 -0.3465  0.2490
  516TIP3   OH2 1469   0.791   5.797   4.287 -0.4990 -0.1093 -0.1524
  516TIP3    H1 1470   0.859   5.797   4.220 -0.5647 -0.0100 -0.2205
  516TIP3    H2 1471   0.773   5.705   4.305 -0.5086 -0.1356 -0.2996
  517TIP3   OH2 1472   7.279   4.254   6.597  0.4780 -0.2403  0.1119
  517TIP3    H1 1473   7.319   4.167   6.592  0.3652 -0.2275 -1.9461
  517TIP3    H2 1474   7.350   4.312   6.625  1.2660 -0.6120 -1.0339
  518TIP3   OH2 1475   2.935   8.122   6.280  0.1096  0.4406 -0.1017
  518TIP3    H1 1476   3.020   8.081   6.264 -0.5187 -0.7124 -0.5665
  518TIP3    H2 1477   2.895   8.127   6.194 -0.1097  1.4217  0.0521
  519TIP3   OH2 1478   1.055   2.228   6.275  0.4128 -0.3122  0.1293
  519TIP3    H1 1479   0.971   2.257   6.238  0.4305 -1.0359 -0.5001
  519TIP3    H2 1480   1.034   2.147   6.322  1.1270 -1.8226 -2.0195
  520TIP3   OH2 1481   3.501   6.902   1.171 -0.1474 -0.2108  0.1899
  520TIP3    H1 1482   3.478   6.937   1.084  1.2151  1.0732  0.3112
  520TIP3    H2 1483   3.437   6.942   1.230 -0.7749 -0.7018 -0.1450
  521TIP3   OH2 1484   8.023   3.896   2.096  0.4805 -0.1672  0.2044
  521TIP3    H1 1485   8.066   3.963   2.150 -0.8351  0.0765  0.9928
  521TIP3    H2 1486   8.030   3.815   2.147 -0.2098 -0.0658  0.4824
  522TIP3   OH2 1487   6.159   4.527   0.389 -0.4425 -0.2040 -0.0080
  522TIP3    H1 1488   6.135   4.435   0.380 -0.9796 -0.1174  0.5185
  522TIP3    H2 1489   6.204   4.548   0.307 -1.8659 -0.4616 -0.8870
  523TIP3   OH2 1490   6.965   0.736   0.535 -0.0444 -0.4672  0.1046
  523TIP3    H1 1491   6.985   0.647   0.562  2.1214  0.3618  1.5568
  523TIP3    H2 1492   6.920   0.727   0.451 -0.8549 -2.9234  0.7207
  524TIP3   OH2 1493   6.571   7.750   4.649  0.5838  0.2090 -0.2905
  524TIP3    H1 1494   6.486   7.786   4.676  0.9412  1.3921 -0.6813
  524TIP3    H2 1495   6.624   7.749   4.728  0.1080 -0.8814  0.0352
  525TIP3   OH2 1496   5.262   5.983   0.964  0.0915 -0.2165 -0.4086
  525TIP3    H1 1497   5.308   6.015   1.041 -0.6934 -2.3403  1.0409
  525TIP3    H2 1498   5.314   6.015   0.890  2.5023 -0.4578  1.0578
  526TIP3   OH2 1499   0.547   7.308   4.215  0.3093 -0.2543  0.0445
  526TIP3    H1 1500   0.580   7.380   4.161  2.3372 -0.3238  1.1004
  526TIP3    H2 1501   0.536   7.235   4.154  1.8984 -0.1299 -0.4367
  527TIP3   OH2 1502   1.219   7.968   1.607 -0.0717 -0.0540  0.7179
  527TIP3    H1 1503   1.247   7.991   1.696  1.1443  0.5644  0.2109
  527TIP3    H2 1504   1.220   8.051   1.560 -1.8208 -0.1901  0.3892
  528TIP3   OH2 1505   7.991   4.897   3.090 -0.0539  0.6046  0.0040
  528TIP3    H1 1506   7.901   4.905   3.058  0.1152 -0.0008 -0.6429
  528TIP3    H2 1507   7.982   4.865   3.180 -0.5557  2.9871  0.8660
  529TIP3   OH2 1508   5.817   7.637   4.112 -0.2919  0.0159  0.0329
  529TIP3    H1 1509   5.885   7.698   4.086 -0.1148 -0.8982 -1.7922
  529TIP3    H2 1510   5.757   7.689   4.166  0.7647  1.3248 -0.0079
  530TIP3   OH2 1511   3.739   0.274   0.403  0.0789 -0.4325  0.4180
  530TIP3    H1 1512   3.698   0.355   0.434 -0.3871 -0.9288  1.1390
  530TIP3    H2 1513   3.672   0.233   0.348 -0.7336 -1.6293  2.2287
  531TIP3   OH2 1514   8.496   3.992   2.063 -0.1336  0.1771  0.0645
  531TIP3    H1 1515   8.530   4.075   2.098  0.1960  0.0929 -0.0582
  531TIP3    H2 1516   8.547   3.924   2.107  1.5308  0.1037 -1.8502
  532TIP3   OH2 1517   1.625   1.130   7.099  0.3171  0.0095 -0.5653
  532TIP3    H1 1518   1.604   1.039   7.078  0.8411 -0.1218 -0.5354
  532TIP3    H2 1519   1.560   1.182   7.050  0.2793 -0.3636 -0.9135
  533TIP3   OH2 1520   4.828   0.619   6.702  0.4608  0.6809 -0.0119
  533TIP3    H1 1521   4.775   0.539   6.701  1.1852  0.1903 -0.7971
  533TIP3    H2 1522   4.768   0.687   6.732  0.3461 -0.4976  2.7631
  534TIP3   OH2 1523   0.502   4.081   3.692  0.5920 -0.4612 -0.1576
  534TIP3    H1 1524   0.557   4.095   3.770  0.8301 -0.0770 -0.3938
  534TIP3    H2 1525   0.446   4.008   3.716  0.0065  0.2603  0.7442
  535TIP3   OH2 1526   2.433   6.747   2.172  0.1741 -0.1266  0.4802
  535TIP3    H1 1527   2.342   6.778   2.167  0.5183  0.7095 -1.9877
  535TIP3    H2 1528   2.474   6.805   2.237 -0.9859 -0.4595  1.5670
  536TIP3   OH2 1529   4.346   1.499   0.897 -0.2106  0.5301 -0.0620
  536TIP3    H1 1530   4.378   1.574   0.847 -0.3734  0.6531  0.0171
  536TIP3    H2 1531   4.419   1.475   0.955  0.2043 -0.0073 -0.7962
  537TIP3   OH2 1532   7.659   5.484   1.165 -0.4826 -0.6398  0.0668
  537TIP3    H1 1533   7.634   5.415   1.226 -0.7512  0.2049  0.9445
  537TIP3    H2 1534   7.598   5.474   1.092 -1.0339 -0.8466  0.5422
  538TIP3   OH2 1535   8.467   4.971   0.776  0.1757  0.1050  0.1642
  538TIP3    H1 1536   8.411   5.046   0.797 -0.7974 -0.4413 -0.4405
  538TIP3    H2 1537   8.556   5.005   0.785 -0.2386  0.9803  1.1573
  539TIP3   OH2 1538   3.476   3.959   4.503  0.4803  0.1438  0.0963
  539TIP3    H1 1539   3.549   3.966   4.565  1.1053  1.3325 -0.7257
  539TIP3    H2 1540   3.519   3.945   4.418 -0.2359  1.0448 -0.4276
  540TIP3   OH2 1541   2.349   3.606   6.730 -0.3159  0.0818  0.2999
  540TIP3    H1 1542   2.308   3.680   6.685 -0.3477 -0.0230  0.1562
  540TIP3    H2 1543   2.438   3.637   6.750 -0.7891  0.6887  1.5540
  541TIP3   OH2 1544   1.347   7.168   0.440  0.3044 -0.6897 -0.6680
  541TIP3    H1 1545   1.280   7.099   0.436  0.2758 -0.6484 -0.9262
  541TIP3    H2 1546   1.369   7.185   0.348  0.4657 -0.5044 -0.5946
  542TIP3   OH2 1547   6.881   2.628   0.098 -0.1917 -0.2979  0.2811
  542TIP3    H1 1548   6.930   2.547   0.111 -0.0938 -0.1822  0.6357
  542TIP3    H2 1549   6.907   2.684   0.171 -0.1190  0.1203 -0.0624
  543TIP3   OH2 1550   4.086   1.046   5.864 -0.1388  0.2860  0.2145
  543TIP3    H1 1551   4.103   0.987   5.937 -0.8253 -1.2090 -0.7757
  543TIP3    H2 1552   4.106   1.133   5.898  1.7534 -0.5714  1.4809
  544TIP3   OH2 1553   5.725   1.045   3.512  0.3047 -0.3830  0.7088
  544TIP3    H1 1554   5.739   0.990   3.435 -1.9868  0.8507 -0.6898
  544TIP3    H2 1555   5.660   0.997   3.564 -0.2367  0.0678  0.4569
  545TIP3   OH2 1556   1.210   5.107   1.850  0.6681 -0.3764  0.0050
  545TIP3    H1 1557   1.115   5.117   1.853  0.5807 -1.2796  0.5885
  545TIP3    H2 1558   1.243   5.194   1.829 -0.1261  0.6993  2.8003
  546TIP3   OH2 1559   6.948   0.094   0.203 -0.3361 -0.0341 -0.3771
  546TIP3    H1 1560   7.027   0.041   0.214  0.1239  0.9552  1.3506
  546TIP3    H2 1561   6.945   0.112   0.109  0.2355 -1.9448 -0.8166
  547TIP3   OH2 1562   7.235   6.140   2.151  0.1666  0.1043  0.1200
  547TIP3    H1 1563   7.292   6.217   2.156 -0.2793  0.4953 -0.5446
  547TIP3    H2 1564   7.190   6.137   2.235  2.4198 -1.2462  1.3977
  548TIP3   OH2 1565   5.450   2.431   0.697 -0.4329  0.3366  0.0943
  548TIP3    H1 1566   5.459   2.446   0.602  0.1537 -0.6822 -0.0135
  548TIP3    H2 1567   5.455   2.519   0.735 -2.8455  1.0318 -0.9615
  549TIP3   OH2 1568   2.024   3.653   2.119 -0.1764  0.2370 -0.9337
  549TIP3    H1 1569   2.109   3.698   2.114 -0.3897  1.4252  2.9493
  549TIP3    H2 1570   2.045   3.564   2.148 -0.1904  0.0619 -1.4518
  550TIP3   OH2 1571   1.316   2.130   6.126 -0.2562  0.4915 -0.1993
  550TIP3    H1 1572   1.353   2.211   6.091 -0.7066  0.5277 -0.5968
  550TIP3    H2 1573   1.246   2.158   6.185  0.5777  0.4371  0.8689
  551TIP3   OH2 1574   0.570   5.343   1.374  0.3418  0.1777 -0.1760
  551TIP3    H1 1575   0.614   5.339   1.459  0.5749  2.0184 -0.1686
  551TIP3    H2 1576   0.627   5.293   1.315  0.6773 -0.3110  0.5521
  552TIP3   OH2 1577   1.214   0.087   3.021  0.1181  0.1643 -0.3139
  552TIP3    H1 1578   1.256   0.002   3.032  0.5324  0.5439  1.3563
  552TIP3    H2 1579   1.128   0.077   3.062  0.8128  0.9958  1.4388
  553TIP3   OH2 1580   8.379   0.885   5.986 -0.7114 -0.0320 -0.4136
  553TIP3    H1 1581   8.388   0.977   5.961 -1.6501 -0.0360 -0.7740
  553TIP3    H2 1582   8.294   0.858   5.951 -0.4488 -1.0372 -0.3094
  554TIP3   OH2 1583   4.395   7.504   6.626  0.0891  0.0030  0.4246
  554TIP3    H1 1584   4.419   7.467   6.711 -1.5190  0.6791  1.2115
  554TIP3    H2 1585   4.368   7.594   6.646  1.3385  0.7642 -1.0627
  555TIP3   OH2 1586   6.679   3.954   4.171 -0.1891  0.2233 -0.1119
  555TIP3    H1 1587   6.634   3.870   4.180 -0.3257  0.3360  0.2650
  555TIP3    H2 1588   6.616   4.011   4.128 -0.3266  0.3135  0.2051
  556TIP3   OH2 1589   7.094   8.058   6.610  0.3423 -0.4145 -0.1518
  556TIP3    H1 1590   7.131   8.124   6.669 -1.8856  1.3514 -0.5899
  556TIP3    H2 1591   7.047   7.997   6.668 -1.5367  1.1106  0.0277
  557TIP3   OH2 1592   4.778   7.047   5.785  0.1905  0.0407 -0.0438
  557TIP3    H1 1593   4.784   7.011   5.697  2.0523  0.3129 -0.0552
  557TIP3    H2 1594   4.742   6.976   5.838  1.9703 -1.2187 -0.4334
  558TIP3   OH2 1595   8.294   0.922   3.009  0.2546 -0.1270  0.0169
  558TIP3    H1 1596   8.367   0.983   3.014  1.5140 -1.6620  1.6483
  558TIP3    H2 1597   8.303   0.867   3.087 -2.8347 -0.2002  0.4643
  559TIP3   OH2 1598   1.070   6.681   4.996  0.4370 -0.0674 -0.1553
  559TIP3    H1 1599   1.008   6.666   4.925 -2.2983  1.9105  1.6041
  559TIP3    H2 1600   1.149   6.712   4.953  0.1421 -2.2869 -2.4962
  560TIP3   OH2 1601   5.857   7.270   2.131 -0.4142 -0.0208  0.2371
  560TIP3    H1 1602   5.778   7.216   2.136  0.5204 -1.3948  0.8733
  560TIP3    H2 1603   5.878   7.272   2.038 -0.6311 -0.5186  0.1723
  561TIP3   OH2 1604   4.392   2.210   2.910  0.1098 -0.1325 -0.0089
  561TIP3    H1 1605   4.410   2.244   2.822 -0.3331  0.6179  0.1816
  561TIP3    H2 1606   4.452   2.136   2.920 -0.3061 -0.6550 -1.2031
  562TIP3   OH2 1607   0.571   7.288   0.281  0.1267 -0.8071  0.4396
  562TIP3    H1 1608   0.666   7.292   0.285  0.1335  1.1162 -0.5115
  562TIP3    H2 1609   0.542   7.349   0.349 -0.4776 -1.7597  1.0767
  563TIP3   OH2 1610   7.377   5.801   5.206  0.0266  0.0851  0.4453
  563TIP3    H1 1611   7.468   5.777   5.191  0.6851  1.4747  1.8787
  563TIP3    H2 1612   7.355   5.859   5.133  0.6246  0.5132  0.5942
  564TIP3   OH2 1613   7.177   0.106   6.358 -0.6485  0.1254 -0.0162
  564TIP3    H1 1614   7.259   0.114   6.407  0.0593 -0.5774 -1.0373
  564TIP3    H2 1615   7.169   0.188   6.310 -0.5643  0.2088  0.1123
  565TIP3   OH2 1616   1.820   7.024   6.899  0.3171 -0.0808  0.4564
  565TIP3    H1 1617   1.861   6.942   6.871 -1.5800 -0.8746 -0.1867
  565TIP3    H2 1618   1.731   7.020   6.862  0.0709  2.1260  0.6947
  566TIP3   OH2 1619   6.227   0.444   1.372 -0.0666 -0.2770 -0.1024
  566TIP3    H1 1620   6.267   0.386   1.307 -0.3498 -0.1218 -0.4183
  566TIP3    H2 1621   6.250   0.405   1.457  0.2779 -0.4988 -0.2961
  567TIP3   OH2 1622   3.407   4.621   4.255  0.2161  0.2856 -0.3407
  567TIP3    H1 1623   3.328   4.672   4.275  0.8175  0.4681  1.7862
  567TIP3    H2 1624   3.377   4.530   4.254  0.0238  0.3131  0.9317
  568TIP3   OH2 1625   0.697   1.057   1.779 -0.0643  0.3971 -0.2383
  568TIP3    H1 1626   0.711   1.151   1.794 -0.0779  0.2702  0.6726
  568TIP3    H2 1627   0.785   1.019   1.784 -0.0637  0.3570 -0.5592
  569TIP3   OH2 1628   7.947   5.137   4.556  0.1345 -0.2036  0.3150
  569TIP3    H1 1629   7.995   5.089   4.489 -0.3729  1.9282 -1.6975
  569TIP3    H2 1630   8.009   5.148   4.628  1.1697 -1.2839 -0.3834
  570TIP3   OH2 1631   5.292   7.009   0.703  0.4070 -0.3065  0.2907
  570TIP3    H1 1632   5.220   6.957   0.739 -2.3119  3.2109  0.4409
  570TIP3    H2 1633   5.341   7.038   0.780  1.0654 -1.3676  0.2959
  571TIP3   OH2 1634   6.213   5.048   5.922 -0.0997 -0.3480 -0.1671
  571TIP3    H1 1635   6.184   4.991   5.993  1.0615  1.1242  1.5961
  571TIP3    H2 1636   6.151   5.032   5.851 -2.0244 -1.0645  1.5764
  572TIP3   OH2 1637   6.636   7.290   3.829  0.0453 -0.4096 -0.2674
  572TIP3    H1 1638   6.542   7.309   3.830  0.1023  0.1004 -1.6492
  572TIP3    H2 1639   6.659   7.292   3.736  1.6208  0.5510  0.1083
  573TIP3   OH2 1640   3.291   2.783   6.057  0.1272 -0.4541  0.2103
  573TIP3    H1 1641   3.245   2.699   6.057 -0.7620  0.0033 -0.8892
  573TIP3    H2 1642   3.222   2.848   6.051  0.8516  0.3258  0.1082
  574TIP3   OH2 1643   7.385   6.197   2.718  0.2216  0.1452 -0.4502
  574TIP3    H1 1644   7.391   6.103   2.700  0.9066 -0.0713  0.7877
  574TIP3    H2 1645   7.313   6.205   2.779 -0.1568  0.4979 -0.9375
  575TIP3   OH2 1646   4.167   2.197   2.612  0.1290  0.8011 -0.3782
  575TIP3    H1 1647   4.209   2.180   2.697  2.0503 -0.5733 -1.5392
  575TIP3    H2 1648   4.092   2.138   2.611  0.6751  0.0760 -0.0218
  576TIP3   OH2 1649   5.895   2.476   4.648 -0.2134 -0.0452 -0.7748
  576TIP3    H1 1650   5.926   2.461   4.558  1.6094 -0.4990 -0.1116
  576TIP3    H2 1651   5.967   2.447   4.703 -1.0790  0.7644  0.8469
  577TIP3   OH2 1652   5.403   0.590   4.427  0.2893  0.0566  0.0255
  577TIP3    H1 1653   5.336   0.651   4.394  2.2248  2.1955 -0.2063
  577TIP3    H2 1654   5.441   0.635   4.502  0.8103 -1.5686  0.7790
  578TIP3   OH2 1655   8.236   4.033   1.144  0.7517 -0.1430  0.3548
  578TIP3    H1 1656   8.190   4.117   1.135  0.1801 -0.3422  1.2743
  578TIP3    H2 1657   8.167   3.967   1.134  1.0278 -0.4731  0.5973
  579TIP3   OH2 1658   5.340   4.444   2.942  0.0307  0.4976 -0.0835
  579TIP3    H1 1659   5.249   4.447   2.971 -0.4419  1.0023 -1.4869
  579TIP3    H2 1660   5.390   4.479   3.015 -1.2306  3.0583 -0.3324
  580TIP3   OH2 1661   3.135   7.614   4.359  0.2360 -0.1064  0.2305
  580TIP3    H1 1662   3.055   7.631   4.408  0.0281  1.1197 -0.5098
  580TIP3    H2 1663   3.109   7.550   4.293  0.2274 -0.8050  0.8866
  581TIP3   OH2 1664   8.236   0.884   3.799 -0.0428 -0.1421 -0.8100
  581TIP3    H1 1665   8.204   0.900   3.888  0.5847  2.3325 -0.9523
  581TIP3    H2 1666   8.162   0.844   3.754 -0.6706 -0.6240  0.5906
  582TIP3   OH2 1667   3.595   0.225   2.592 -0.1636  0.9981 -0.2325
  582TIP3    H1 1668   3.537   0.301   2.582 -2.2095 -0.4412  0.1367
  582TIP3    H2 1669   3.616   0.198   2.503 -1.2666  0.6942 -0.4173
  583TIP3   OH2 1670   6.869   7.886   6.829 -0.3944 -0.3852  0.1855
  583TIP3    H1 1671   6.805   7.915   6.764  0.4148 -0.7747 -0.8078
  583TIP3    H2 1672   6.891   7.797   6.804  2.2152  0.4586 -0.8907
  584TIP3   OH2 1673   1.171   0.308   3.496 -0.2316 -0.0849  0.5555
  584TIP3    H1 1674   1.109   0.264   3.438  1.1969  1.7848 -2.6970
  584TIP3    H2 1675   1.128   0.390   3.520 -0.5094 -0.5078  1.5270
  585TIP3   OH2 1676   0.386   2.977   6.690  0.2648  0.7779  0.4659
  585TIP3    H1 1677   0.427   3.050   6.736  0.4628  0.8750  0.1414
  585TIP3    H2 1678   0.293   2.985   6.709  0.4643  0.0692  1.9113
  586TIP3   OH2 1679   1.844   1.915   3.643 -0.6170  0.8569 -0.6781
  586TIP3    H1 1680   1.826   1.846   3.706  2.0979  0.4662 -0.2177
  586TIP3    H2 1681   1.851   1.870   3.559 -0.8998  0.8841 -0.7170
  587TIP3   OH2 1682   8.716   4.879   4.986  0.2093  0.1435 -0.3688
  587TIP3    H1 1683   8.658   4.949   4.957  1.2618  0.2905 -2.2750
  587TIP3    H2 1684   8.659   4.803   4.997 -1.2505  1.5269  3.2654
  588TIP3   OH2 1685   8.222   5.507   5.813  0.1650  0.2159 -0.5861
  588TIP3    H1 1686   8.174   5.556   5.880 -1.2195  1.5217 -2.4139
  588TIP3    H2 1687   8.297   5.562   5.792 -1.4149  1.7553 -2.6717
  589TIP3   OH2 1688   3.086   0.417   3.828 -0.5039 -0.0513  0.4457
  589TIP3    H1 1689   3.098   0.511   3.811 -1.8966 -0.2448 -1.9530
  589TIP3    H2 1690   3.173   0.386   3.852  0.2963  1.5734 -0.2142
  590TIP3   OH2 1691   5.998   3.522   3.396  0.2501 -0.3055  0.3175
  590TIP3    H1 1692   6.031   3.433   3.400 -0.3001 -0.4885  1.3496
  590TIP3    H2 1693   6.071   3.574   3.361  1.0930 -0.9329  1.0871
  591TIP3   OH2 1694   5.723   0.457   3.616 -0.0492 -0.5972  0.1993
  591TIP3    H1 1695   5.757   0.401   3.545  0.1731 -0.5750  0.2872
  591TIP3    H2 1696   5.693   0.395   3.683 -1.4327 -0.6579 -0.4323
  592TIP3   OH2 1697   0.546   0.256   1.429  0.3140 -0.3189  0.1279
  592TIP3    H1 1698   0.476   0.191   1.433 -0.3503  0.3738 -0.0541
  592TIP3    H2 1699   0.624   0.206   1.403  0.0052 -1.1765  0.8075
  593TIP3   OH2 1700   1.489   7.798   6.906  0.1619 -0.0265  0.0380
  593TIP3    H1 1701   1.451   7.795   6.994  0.1091  0.0093  0.0166
  593TIP3    H2 1702   1.517   7.889   6.895 -0.6570  0.1931 -0.3256
  594TIP3   OH2 1703   6.036   4.840   0.859  0.4595  0.2521 -0.3874
  594TIP3    H1 1704   6.033   4.907   0.928 -0.6981 -1.3606  1.2235
  594TIP3    H2 1705   5.947   4.837   0.825  1.0771  1.2118 -2.2235
  595TIP3   OH2 1706   7.164   3.917   2.365 -0.1642 -0.1662 -0.0005
  595TIP3    H1 1707   7.243   3.955   2.404  0.1885 -1.5464  0.7011
  595TIP3    H2 1708   7.092   3.962   2.407  0.2446  0.4325  0.0696
  596TIP3   OH2 1709   1.307   6.872   3.856 -0.3078 -0.6426 -0.5765
  596TIP3    H1 1710   1.291   6.799   3.916 -1.3228  0.3142  0.3703
  596TIP3    H2 1711   1.365   6.931   3.905 -0.1555 -0.4212 -1.0184
  597TIP3   OH2 1712   7.212   5.843   6.777  0.1415  0.3087 -0.0939
  597TIP3    H1 1713   7.204   5.930   6.737 -1.2842 -0.6718 -2.1176
  597TIP3    H2 1714   7.294   5.808   6.741 -0.6163 -0.1634 -1.4483
  598TIP3   OH2 1715   3.623   1.086   3.195  0.0528 -0.1829  0.1013
  598TIP3    H1 1716   3.553   1.116   3.253  0.1688 -1.8576  1.1765
  598TIP3    H2 1717   3.692   1.055   3.254  1.3066  0.4923 -0.9403
  599TIP3   OH2 1718   3.424   0.129   7.053 -0.1258  0.5365  0.1865
  599TIP3    H1 1719   3.465   0.122   7.139 -0.4871  2.2562  0.5244
  599TIP3    H2 1720   3.362   0.056   7.050 -0.4228  0.7149  1.5765
  600TIP3   OH2 1721   1.871   5.968   3.992  0.3102 -0.0221 -0.3592
  600TIP3    H1 1722   1.813   6.031   4.035  0.0590 -0.2616 -0.3461
  600TIP3    H2 1723   1.946   5.961   4.051  0.1150 -0.1056 -0.1208
  601TIP3   OH2 1724   0.800   4.712   1.656 -0.2737  0.5659 -0.3338
  601TIP3    H1 1725   0.806   4.750   1.568  1.0937  0.9466 -0.1055
  601TIP3    H2 1726   0.884   4.667   1.668 -1.3917 -1.6061 -0.1559
  602TIP3   OH2 1727   1.132   7.298   4.909  0.0527 -0.2614 -0.4134
  602TIP3    H1 1728   1.227   7.289   4.919 -0.1375 -0.3530  1.5044
  602TIP3    H2 1729   1.108   7.230   4.846  1.1951 -0.5393 -0.5728
  603TIP3   OH2 1730   1.209   6.021   7.099 -0.1754 -0.0238 -0.1205
  603TIP3    H1 1731   1.207   5.929   7.124  0.8186  0.1685  0.7593
  603TIP3    H2 1732   1.261   6.023   7.018  0.2697 -0.1861  0.1577
  604TIP3   OH2 1733   0.505   4.141   0.390 -0.3693  0.4239 -0.0796
  604TIP3    H1 1734   0.589   4.141   0.436 -0.4781 -0.8925  0.1452
  604TIP3    H2 1735   0.454   4.073   0.433 -1.7013  1.4463  0.0145
  605TIP3   OH2 1736   1.720   4.261   3.528 -0.3033 -0.2883 -0.8767
  605TIP3    H1 1737   1.634   4.290   3.497 -0.5900  1.4448  1.2264
  605TIP3    H2 1738   1.710   4.167   3.543 -1.9149 -0.0806 -0.4698
  606TIP3   OH2 1739   6.396   6.297   0.509 -0.4481  0.3549  0.3129
  606TIP3    H1 1740   6.362   6.354   0.441 -1.7892  0.0020  0.6629
  606TIP3    H2 1741   6.468   6.249   0.467 -1.7818 -0.4676 -1.1130
  607TIP3   OH2 1742   4.020   0.498   0.913 -0.0567 -0.1902 -0.4448
  607TIP3    H1 1743   4.017   0.407   0.944  0.2251  0.5301  1.8649
  607TIP3    H2 1744   4.004   0.491   0.819  1.2641 -2.7490 -0.5791
  608TIP3   OH2 1745   0.351   7.438   4.916 -0.2967  0.2912  0.4911
  608TIP3    H1 1746   0.406   7.377   4.866 -0.1401  0.6892  0.1714
  608TIP3    H2 1747   0.406   7.515   4.928 -0.4578  0.3302  0.9851
  609TIP3   OH2 1748   6.959   1.587   0.965 -0.0844 -1.0324  0.3510
  609TIP3    H1 1749   7.044   1.578   1.008 -0.2409 -1.9313  0.4880
  609TIP3    H2 1750   6.934   1.498   0.943 -1.4726 -0.8823  1.2327
  610TIP3   OH2 1751   3.930   3.044   3.211  0.5805 -0.3208 -0.5704
  610TIP3    H1 1752   3.990   3.032   3.137 -0.0085 -0.5523 -1.0242
  610TIP3    H2 1753   3.914   2.955   3.242  1.4351 -0.1729  0.3492
  611TIP3   OH2 1754   7.958   0.765   1.426  0.2680 -0.1453  0.2333
  611TIP3    H1 1755   7.946   0.808   1.510  1.7656 -0.1459  0.4885
  611TIP3    H2 1756   8.050   0.782   1.404  0.1514 -0.9267 -0.9580
  612TIP3   OH2 1757   6.905   5.435   1.048 -0.0167  0.1906 -0.2699
  612TIP3    H1 1758   6.877   5.422   0.957 -2.3264  2.3617  0.0233
  612TIP3    H2 1759   6.930   5.527   1.052  1.1508 -0.1571  1.0702
  613TIP3   OH2 1760   1.337   4.046   3.074 -0.5790  0.3107 -0.3857
  613TIP3    H1 1761   1.293   4.123   3.036 -0.2685 -0.2694 -1.9983
  613TIP3    H2 1762   1.281   4.020   3.147  0.7493  3.7425  2.1250
  614TIP3   OH2 1763   4.934   2.677   0.324 -0.2968  0.2153  0.4359
  614TIP3    H1 1764   4.842   2.684   0.350 -0.1648  0.4748  0.8362
  614TIP3    H2 1765   4.981   2.732   0.386  0.3244 -1.1337  1.1980
  615TIP3   OH2 1766   4.030   7.937   1.268  0.7192  0.1234  0.3040
  615TIP3    H1 1767   3.968   8.010   1.260  0.2256 -0.3558 -0.4187
  615TIP3    H2 1768   4.115   7.978   1.282  0.1366  0.7906  2.1661
  616TIP3   OH2 1769   7.466   1.676   4.537  0.2772 -0.8646 -0.4678
  616TIP3    H1 1770   7.556   1.645   4.529  0.5087 -0.4732  0.4254
  616TIP3    H2 1771   7.423   1.610   4.592  0.2988 -0.5257 -0.0376
  617TIP3   OH2 1772   4.347   7.947   1.423  0.7628 -0.1804 -0.3362
  617TIP3    H1 1773   4.401   7.888   1.476  1.5250  0.2740 -0.5910
  617TIP3    H2 1774   4.323   8.017   1.482  2.7061  1.0201 -0.8628
  618TIP3   OH2 1775   4.838   5.596   5.057 -0.6961  0.2908 -0.0528
  618TIP3    H1 1776   4.762   5.576   5.003 -0.0179  0.3749 -1.0581
  618TIP3    H2 1777   4.902   5.528   5.035 -0.0713  0.8656 -0.0609
  619TIP3   OH2 1778   8.663   2.233   5.739  0.2154 -0.4727  0.3231
  619TIP3    H1 1779   8.695   2.144   5.747 -0.1155 -0.7459 -1.1771
  619TIP3    H2 1780   8.661   2.266   5.829 -2.2177 -2.8472  1.2408
  620TIP3   OH2 1781   6.624   5.442   3.682  0.0201 -0.0934 -0.2416
  620TIP3    H1 1782   6.605   5.536   3.676 -0.8428 -0.3403 -1.8918
  620TIP3    H2 1783   6.696   5.428   3.621 -0.0609 -0.5524 -0.2327
  621TIP3   OH2 1784   3.662   1.059   2.672 -0.0127 -0.6784  0.2213
  621TIP3    H1 1785   3.585   1.005   2.655 -0.5803  0.2462 -0.2365
  621TIP3    H2 1786   3.721   1.040   2.599 -0.9359  0.5661 -0.9059
  622TIP3   OH2 1787   5.543   0.693   6.534 -0.4720  0.4827 -0.1237
  622TIP3    H1 1788   5.543   0.777   6.580  0.3033  0.2546  0.3069
  622TIP3    H2 1789   5.621   0.697   6.479 -1.8943  1.1720 -2.2337
  623TIP3   OH2 1790   1.410   0.471   3.637  0.1350  0.2777  0.9854
  623TIP3    H1 1791   1.410   0.509   3.725  0.4060 -0.3387  1.2568
  623TIP3    H2 1792   1.322   0.434   3.627 -0.5998  2.1331  0.1961
  624TIP3   OH2 1793   5.686   5.164   0.648 -0.0805 -0.2222 -0.4577
  624TIP3    H1 1794   5.643   5.180   0.732 -0.7030  2.3875 -1.2073
  624TIP3    H2 1795   5.648   5.081   0.617 -1.5318 -0.0540  0.7770
  625TIP3   OH2 1796   3.318   3.291   0.941  1.1035  0.0345  0.1034
  625TIP3    H1 1797   3.342   3.318   1.030  0.4747 -1.4589  0.7591
  625TIP3    H2 1798   3.308   3.374   0.893 -3.5195  1.3725  2.7218
  626TIP3   OH2 1799   4.959   0.837   2.239  0.0574 -0.1096 -0.4693
  626TIP3    H1 1800   4.894   0.895   2.199 -1.2815 -0.5581  0.9735
  626TIP3    H2 1801   5.041   0.887   2.235 -0.7079  1.1630 -0.8205
  627TIP3   OH2 1802   8.593   3.706   6.749  0.6166  0.2722 -0.0160
  627TIP3    H1 1803   8.575   3.781   6.692  0.3605 -0.7720 -1.3289
  627TIP3    H2 1804   8.659   3.739   6.811  1.1294  1.3302 -1.0887
  628TIP3   OH2 1805   2.816   4.894   1.593 -0.1450  0.1516 -0.3262
  628TIP3    H1 1806   2.762   4.877   1.516 -1.1639 -1.2977  0.6466
  628TIP3    H2 1807   2.757   4.939   1.653  0.8623  1.9762 -0.6403
  629TIP3   OH2 1808   5.410   7.930   2.303 -0.3556  0.2599  0.3705
  629TIP3    H1 1809   5.440   8.008   2.255 -0.3524 -0.5849 -1.0697
  629TIP3    H2 1810   5.467   7.860   2.272 -1.3669 -0.6220  0.4615
  630TIP3   OH2 1811   2.370   4.843   6.782 -0.6015  0.3264 -0.3694
  630TIP3    H1 1812   2.333   4.854   6.695 -2.0341 -1.2015 -0.0078
  630TIP3    H2 1813   2.294   4.846   6.841  0.3335  1.3567  0.8606
  631TIP3   OH2 1814   4.169   5.458   3.321  0.4424 -0.6765 -0.0301
  631TIP3    H1 1815   4.193   5.366   3.310  0.7473 -0.4870 -1.0726
  631TIP3    H2 1816   4.240   5.494   3.375  1.8398 -0.4467 -1.9086
  632TIP3   OH2 1817   2.864   4.347   1.943 -0.2161 -0.1828  0.4823
  632TIP3    H1 1818   2.866   4.253   1.963  0.5753 -0.1522  0.5884
  632TIP3    H2 1819   2.859   4.351   1.848 -0.8762 -0.3267  0.5041
  633TIP3   OH2 1820   1.627   2.761   4.049  0.4895 -0.3850  0.1830
  633TIP3    H1 1821   1.634   2.685   4.107 -1.1257  0.3587  1.4164
  633TIP3    H2 1822   1.569   2.733   3.978 -1.1938  0.0441  1.3328
  634TIP3   OH2 1823   1.619   5.787   0.183  0.5661 -0.5034 -0.4572
  634TIP3    H1 1824   1.604   5.728   0.109  0.6202 -0.4107 -0.5418
  634TIP3    H2 1825   1.576   5.743   0.257 -0.8391  0.1372 -0.8565
  635TIP3   OH2 1826   8.599   6.877   6.977  0.2287 -0.2182 -0.0869
  635TIP3    H1 1827   8.658   6.940   7.018  0.6367 -1.3411  1.1477
  635TIP3    H2 1828   8.656   6.806   6.948 -0.3328 -0.5216 -0.4668
  636TIP3   OH2 1829   1.803   1.560   2.182 -0.5707  0.5727 -0.0217
  636TIP3    H1 1830   1.723   1.510   2.163  0.5418 -1.0458 -0.6715
  636TIP3    H2 1831   1.871   1.493   2.194  1.0474  1.9310 -1.0972
  637TIP3   OH2 1832   5.223   6.890   1.143 -0.0344  0.6564 -0.0595
  637TIP3    H1 1833   5.253   6.818   1.088  0.9778  1.2685 -0.3159
  637TIP3    H2 1834   5.186   6.954   1.082 -0.7099  0.4796  0.1487
  638TIP3   OH2 1835   6.699   3.566   2.361 -0.0630  0.1794 -0.7473
  638TIP3    H1 1836   6.727   3.476   2.380 -0.9544 -0.0406 -0.4232
  638TIP3    H2 1837   6.763   3.598   2.298  0.3210 -0.6579 -0.7986
  639TIP3   OH2 1838   6.675   4.552   4.338  0.1783  0.0758 -0.4053
  639TIP3    H1 1839   6.751   4.493   4.338 -0.9266 -1.4246 -1.0478
  639TIP3    H2 1840   6.614   4.511   4.277 -1.0458  1.4072 -0.1172
  640TIP3   OH2 1841   1.036   0.418   3.087 -0.2641 -0.2721  0.0854
  640TIP3    H1 1842   0.977   0.375   3.024 -0.5459  0.2746 -0.0304
  640TIP3    H2 1843   0.980   0.481   3.132  0.2494  0.3028 -0.0674
  641TIP3   OH2 1844   8.637   6.486   2.067 -0.3874 -0.0102 -0.0085
  641TIP3    H1 1845   8.618   6.524   1.981 -0.2272  1.2641  0.4946
  641TIP3    H2 1846   8.732   6.473   2.067 -0.5370 -1.1899 -0.4753
  642TIP3   OH2 1847   7.549   6.169   5.305 -0.5029  0.0268 -0.3601
  642TIP3    H1 1848   7.470   6.156   5.357 -0.2731 -0.0254 -0.0189
  642TIP3    H2 1849   7.612   6.106   5.341 -0.2664  0.1533 -0.5465
  643TIP3   OH2 1850   1.196   1.288   4.243 -0.2245 -0.0162  0.0449
  643TIP3    H1 1851   1.135   1.298   4.170 -0.1850  0.4212  0.0664
  643TIP3    H2 1852   1.139   1.278   4.320 -0.3035  1.5285  0.2242
  644TIP3   OH2 1853   5.860   7.304   1.550 -0.0689 -0.0140 -0.0103
  644TIP3    H1 1854   5.788   7.367   1.556 -0.0409 -0.0286  0.4872
  644TIP3    H2 1855   5.816   7.219   1.540 -0.1721 -0.2307  2.0008
  645TIP3   OH2 1856   2.884   3.867   4.792 -0.1629  0.1449  0.1802
  645TIP3    H1 1857   2.844   3.788   4.828  2.3157 -0.5791  1.5083
  645TIP3    H2 1858   2.883   3.930   4.864 -0.9423  0.9307 -0.4822
  646TIP3   OH2 1859   1.789   5.025   3.449 -0.1910 -0.9166 -0.7792
  646TIP3    H1 1860   1.703   5.018   3.491 -1.3685 -0.5524 -3.0044
  646TIP3    H2 1861   1.824   4.936   3.453 -0.1747 -0.8610  1.0797
  647TIP3   OH2 1862   4.026   6.227   2.126 -0.8349 -0.4895  0.0258
  647TIP3    H1 1863   4.115   6.235   2.161 -1.5646  1.0373  1.6632
  647TIP3    H2 1864   4.024   6.289   2.053 -1.6568  2.7845  2.5720
  648TIP3   OH2 1865   8.575   8.017   5.140 -0.2778  0.1456 -0.2382
  648TIP3    H1 1866   8.524   7.938   5.156  3.3770 -2.0735  1.7042
  648TIP3    H2 1867   8.570   8.066   5.222  0.5466 -0.0114 -0.0872
  649TIP3   OH2 1868   4.680   2.617   0.508  0.1542 -0.4386  0.9873
  649TIP3    H1 1869   4.612   2.678   0.480 -1.7821 -1.7841  2.4564
  649TIP3    H2 1870   4.707   2.648   0.594  0.3922 -0.6682  0.9964
  650TIP3   OH2 1871   6.211   5.351   6.181  0.3499 -0.0438  0.2517
  650TIP3    H1 1872   6.183   5.265   6.148  0.3230  0.2507 -0.5184
  650TIP3    H2 1873   6.298   5.336   6.218  0.7763 -0.2052 -0.7931
  651TIP3   OH2 1874   2.235   7.170   4.676  0.3942  0.4937 -0.0421
  651TIP3    H1 1875   2.299   7.101   4.661  1.1328  1.4469 -1.4335
  651TIP3    H2 1876   2.227   7.175   4.771  0.7721 -1.0779  0.0987
  652TIP3   OH2 1877   7.106   5.101   5.110  0.5923  0.1224  0.4867
  652TIP3    H1 1878   7.058   5.183   5.098 -0.0546 -0.5629 -2.3198
  652TIP3    H2 1879   7.056   5.053   5.176 -1.3528  0.3639 -0.7455
  653TIP3   OH2 1880   8.107   7.043   5.926  0.3085  0.3838  0.0878
  653TIP3    H1 1881   8.195   7.016   5.899  0.6392  0.2017  1.3161
  653TIP3    H2 1882   8.063   6.961   5.949  0.2552  0.5896  0.7355
  654TIP3   OH2 1883   1.006   1.001   4.595 -0.5939  0.3352 -0.2725
  654TIP3    H1 1884   1.085   1.003   4.649 -2.2096  0.8119  2.2719
  654TIP3    H2 1885   0.981   0.909   4.591  0.3611  0.1025 -1.6150
  655TIP3   OH2 1886   1.374   3.617   6.199 -0.8432  0.1803  0.5107
  655TIP3    H1 1887   1.422   3.602   6.281 -1.1367 -0.9785  0.4972
  655TIP3    H2 1888   1.438   3.599   6.130 -0.8794  0.1339  0.4891
  656TIP3   OH2 1889   3.438   1.885   6.037  0.2863 -0.1821  0.5470
  656TIP3    H1 1890   3.429   1.938   5.958 -1.1255 -0.0613  0.7486
  656TIP3    H2 1891   3.357   1.834   6.040  0.8111 -0.9877  1.3357
  657TIP3   OH2 1892   6.502   3.766   6.250 -0.7012  0.4886  0.1770
  657TIP3    H1 1893   6.531   3.857   6.239 -1.2986  1.0241  2.4689
  657TIP3    H2 1894   6.413   3.766   6.215 -0.1189  0.3306 -1.3748
  658TIP3   OH2 1895   1.272   5.020   5.159 -0.3181  0.1769 -0.0925
  658TIP3    H1 1896   1.252   5.095   5.216 -1.2439 -0.0700 -0.0841
  658TIP3    H2 1897   1.208   4.954   5.183 -0.1051 -0.2804 -0.7640
  659TIP3   OH2 1898   6.624   2.288   5.543  0.1496  0.1643  0.1447
  659TIP3    H1 1899   6.683   2.253   5.477 -0.0909 -2.0182  0.9990
  659TIP3    H2 1900   6.653   2.246   5.625  0.3952  2.7097  1.4597
  660TIP3   OH2 1901   2.699   7.978   2.313 -0.4084 -0.0468 -0.6122
  660TIP3    H1 1902   2.620   7.924   2.316 -0.1929 -0.3271  1.1732
  660TIP3    H2 1903   2.761   7.927   2.261 -0.8806 -0.5583 -0.6780
  661TIP3   OH2 1904   7.079   4.193   0.863  0.0898 -0.4539  0.1556
  661TIP3    H1 1905   7.128   4.114   0.885 -0.4288 -1.7407 -2.8076
  661TIP3    H2 1906   6.995   4.160   0.831 -0.7275  1.4168  0.2706
  662TIP3   OH2 1907   2.334   2.420   2.198  0.1990 -0.1180  0.5162
  662TIP3    H1 1908   2.261   2.375   2.241 -0.8901 -1.4371 -2.4369
  662TIP3    H2 1909   2.383   2.351   2.155  0.0975  1.1960 -1.8728
  663TIP3   OH2 1910   8.350   2.889   2.439  0.6195 -0.0938  0.1900
  663TIP3    H1 1911   8.356   2.903   2.534 -0.1346 -1.9521  0.5612
  663TIP3    H2 1912   8.338   2.794   2.430  1.6942 -0.0866 -1.8322
  664TIP3   OH2 1913   5.009   2.402   6.216  0.1640  0.0604  0.5839
  664TIP3    H1 1914   5.066   2.433   6.145 -0.1432 -3.3879 -1.4170
  664TIP3    H2 1915   5.039   2.449   6.294  2.9658  1.3866 -1.1317
  665TIP3   OH2 1916   8.478   1.933   7.060  0.3844 -0.5704 -0.0365
  665TIP3    H1 1917   8.448   2.016   7.098 -0.2765 -1.7925  2.2671
  665TIP3    H2 1918   8.440   1.933   6.972 -0.6842  1.0044  0.3728
  666TIP3   OH2 1919   6.862   2.257   4.921 -0.3350  0.2106  0.2346
  666TIP3    H1 1920   6.778   2.281   4.961 -0.5195 -1.0216  0.6202
  666TIP3    H2 1921   6.912   2.217   4.992 -0.1158 -0.7115 -0.4252
  667TIP3   OH2 1922   5.276   0.360   4.467  0.4234 -0.2835 -0.4615
  667TIP3    H1 1923   5.324   0.442   4.450  2.2328 -0.6371  2.3589
  667TIP3    H2 1924   5.333   0.292   4.433  1.1754 -0.6043  1.3554
  668TIP3   OH2 1925   3.832   6.620   3.730 -0.1321  0.0904  0.5674
  668TIP3    H1 1926   3.845   6.605   3.636  0.0618 -0.8544  0.7296
  668TIP3    H2 1927   3.806   6.712   3.737 -2.0901 -0.3212 -0.5977
  669TIP3   OH2 1928   0.896   0.024   4.524 -0.1898  0.3809 -0.2821
  669TIP3    H1 1929   0.960   0.092   4.503  1.2245 -1.1150 -1.0529
  669TIP3    H2 1930   0.925  -0.010   4.609 -1.1103  0.9725  0.2796
  670TIP3   OH2 1931   1.790   8.044   4.436  0.0273  0.3497 -0.1175
  670TIP3    H1 1932   1.775   7.964   4.486  4.6051 -1.6181 -1.3843
  670TIP3    H2 1933   1.871   8.079   4.471 -0.6944  3.2760 -1.1129
  671TIP3   OH2 1934   6.808   4.537   6.346 -0.3305 -0.0114  0.1283
  671TIP3    H1 1935   6.781   4.564   6.434 -0.3598 -0.1470  0.1616
  671TIP3    H2 1936   6.830   4.444   6.356  2.3481  0.6071  0.6031
  672TIP3   OH2 1937   6.080   5.812   4.000  0.1584 -0.1204  0.5548
  672TIP3    H1 1938   6.075   5.901   3.965  0.4607  0.7906  2.6753
  672TIP3    H2 1939   6.171   5.786   3.988  0.0022 -0.2826 -0.3408
  673TIP3   OH2 1940   4.401   2.146   4.746  0.0589 -0.0702 -1.0940
  673TIP3    H1 1941   4.390   2.239   4.732  1.1819  0.3980  0.7325
  673TIP3    H2 1942   4.318   2.117   4.785  0.1116  0.4038 -0.6286
  674TIP3   OH2 1943   4.950   6.409   7.018  0.1952  0.4364 -0.4842
  674TIP3    H1 1944   5.003   6.424   7.096 -0.7644  1.6100 -0.0279
  674TIP3    H2 1945   4.931   6.497   6.985 -1.6810  0.0704 -0.4643
  675TIP3   OH2 1946   0.518   0.692   4.317  0.5909 -0.7966  0.2208
  675TIP3    H1 1947   0.497   0.742   4.238 -1.7703  0.9020  1.7842
  675TIP3    H2 1948   0.490   0.603   4.296 -0.2529 -0.3237 -0.7868
  676TIP3   OH2 1949   6.242   4.192   4.461 -0.4830  0.3786  0.4664
  676TIP3    H1 1950   6.232   4.206   4.555 -1.1699  1.0397  0.3024
  676TIP3    H2 1951   6.331   4.158   4.451 -0.3444  0.4792  1.3343
  677TIP3   OH2 1952   0.027   1.085   1.741 -0.1363  0.4850 -0.2946
  677TIP3    H1 1953   0.122   1.088   1.732 -0.1169 -1.5257 -1.3631
  677TIP3    H2 1954   0.012   1.091   1.836  1.0300  0.9380 -0.1166
  678TIP3   OH2 1955   2.614   6.256   0.093 -0.2211  0.1097 -0.1760
  678TIP3    H1 1956   2.660   6.329   0.050  0.3316  0.2116  0.5681
  678TIP3    H2 1957   2.533   6.295   0.126 -0.5838  0.0643 -0.9828
  679TIP3   OH2 1958   2.142   6.105   5.808 -0.0504  0.1341 -0.0044
  679TIP3    H1 1959   2.117   6.175   5.868 -0.2244  1.4423 -1.5091
  679TIP3    H2 1960   2.111   6.025   5.849 -2.3070  1.1993  0.5530
  680TIP3   OH2 1961   3.666   1.697   3.201 -0.4032 -0.4020 -0.1931
  680TIP3    H1 1962   3.628   1.764   3.145  0.8528  0.4267 -0.0805
  680TIP3    H2 1963   3.691   1.626   3.141  1.4370  0.7070 -0.8104
  681TIP3   OH2 1964   5.438   6.771   0.592  0.7096 -0.1937 -0.1798
  681TIP3    H1 1965   5.358   6.720   0.606  0.5535  0.1560  0.1988
  681TIP3    H2 1966   5.408   6.854   0.557  0.9331 -0.1899 -0.3629
  682TIP3   OH2 1967   7.809   1.649  -0.028 -0.1134  0.2311  0.4121
  682TIP3    H1 1968   7.863   1.574  -0.003  0.1742  0.8794  1.9075
  682TIP3    H2 1969   7.743   1.654   0.041  0.2361  1.6851  0.6713
  683TIP3   OH2 1970   8.069   4.053   1.871  0.1270 -0.0139 -0.3911
  683TIP3    H1 1971   8.147   4.094   1.909  0.0058 -0.9451  0.9287
  683TIP3    H2 1972   8.033   4.001   1.942 -3.8735  3.2745  0.3890
  684TIP3   OH2 1973   1.434   3.937   6.625 -0.0437  0.1824  0.4760
  684TIP3    H1 1974   1.356   3.924   6.571 -0.8648 -0.9640  1.8605
  684TIP3    H2 1975   1.488   3.998   6.575 -1.4784  0.4104 -0.8751
  685TIP3   OH2 1976   0.885   1.972   6.061  0.3747 -0.0540 -0.1481
  685TIP3    H1 1977   0.829   2.026   6.005  1.5823  0.1096 -1.2301
  685TIP3    H2 1978   0.823   1.919   6.112 -0.7886  1.1723 -0.2366
  686TIP3   OH2 1979   2.624   2.150   5.396 -0.3325 -0.1285 -0.1586
  686TIP3    H1 1980   2.541   2.187   5.426 -2.1065 -2.7314 -1.5088
  686TIP3    H2 1981   2.675   2.139   5.477 -2.4390 -1.0669  1.1357
  687TIP3   OH2 1982   1.654   7.527   5.009  0.3469  0.4214  0.0922
  687TIP3    H1 1983   1.581   7.481   5.050  0.0094  0.8865  0.0322
  687TIP3    H2 1984   1.620   7.615   4.992 -0.5450 -0.4485 -3.7335
  688TIP3   OH2 1985   5.643   3.685   0.026  0.4539 -0.0757 -0.0291
  688TIP3    H1 1986   5.710   3.696  -0.041  0.6626 -1.7041 -0.1439
  688TIP3    H2 1987   5.685   3.715   0.107  0.8906  0.0956 -0.3148
  689TIP3   OH2 1988   3.246   4.979   0.110 -0.2105  0.0384 -0.1294
  689TIP3    H1 1989   3.326   5.018   0.144 -0.8557 -0.3487  1.9967
  689TIP3    H2 1990   3.266   4.887   0.099  0.1777  0.2682 -1.4303
  690TIP3   OH2 1991   5.011   7.416   3.849 -0.0501  0.6338  0.0429
  690TIP3    H1 1992   4.922   7.424   3.816 -0.0207  0.8711  0.0193
  690TIP3    H2 1993   5.008   7.458   3.935 -0.6300 -1.7920  1.2877
  691TIP3   OH2 1994   6.955   0.274   5.624 -0.1416  0.2298 -0.3034
  691TIP3    H1 1995   6.865   0.300   5.608 -0.1983  0.3844  0.2721
  691TIP3    H2 1996   7.000   0.354   5.651 -0.2090 -0.1414  0.9996
  692TIP3   OH2 1997   5.718   2.341   6.383 -1.0736 -0.2140 -0.8334
  692TIP3    H1 1998   5.741   2.420   6.335 -0.7983  1.0227  1.2012
  692TIP3    H2 1999   5.627   2.354   6.410 -1.5884 -1.3849 -1.8663
  693TIP3   OH2 2000   8.349   7.589   2.039  0.3894  0.0353  0.3724
  693TIP3    H1 2001   8.294   7.537   1.980 -0.4202  0.8291  0.4112
  693TIP3    H2 2002   8.288   7.630   2.100  0.9174  1.6369 -0.1134
  694TIP3   OH2 2003   8.589   1.081   1.511  0.2750  0.3014 -0.7964
  694TIP3    H1 2004   8.647   1.014   1.474 -0.0537 -0.9540  0.7904
  694TIP3    H2 2005   8.627   1.099   1.598 -0.8924  0.5158 -0.3147
  695TIP3   OH2 2006   1.031   2.268   4.817  0.2626 -0.4629  0.2653
  695TIP3    H1 2007   1.113   2.314   4.796  0.5844 -0.7441  0.8867
  695TIP3    H2 2008   0.992   2.319   4.888 -0.4864  0.0951 -0.5214
  696TIP3   OH2 2009   0.876   8.011   4.621  0.4476  0.1742 -0.0959
  696TIP3    H1 2010   0.960   8.049   4.646  0.2687  0.5035  0.0059
  696TIP3    H2 2011   0.832   8.079   4.571  1.2606 -0.8528 -2.3424
  697TIP3   OH2 2012   6.050   1.565   6.742  0.1235  0.2421  0.0417
  697TIP3    H1 2013   5.964   1.598   6.717 -0.0675 -1.3674 -1.6744
  697TIP3    H2 2014   6.112   1.617   6.690  0.1335  0.8432  0.6522
  698TIP3   OH2 2015   4.049   1.905   2.171  0.2340 -0.4253 -0.3881
  698TIP3    H1 2016   3.997   1.899   2.091  2.8220  0.8546 -2.3075
  698TIP3    H2 2017   4.138   1.883   2.144  1.1100 -0.5605  2.3037
  699TIP3   OH2 2018   2.441   3.596   5.860  0.2760  0.0592  0.5402
  699TIP3    H1 2019   2.508   3.659   5.832 -0.7946  0.7882 -0.4882
  699TIP3    H2 2020   2.488   3.513   5.865  1.3532  0.6246  0.2479
  700TIP3   OH2 2021   8.599   3.106   6.396  0.0969  0.4170 -0.0324
  700TIP3    H1 2022   8.619   3.164   6.470  0.1227  0.4414 -0.0584
  700TIP3    H2 2023   8.567   3.026   6.437 -0.9337  0.8176 -0.0162
  701TIP3   OH2 2024   3.251   1.454   0.550  0.0847 -0.4718 -0.2912
  701TIP3    H1 2025   3.314   1.387   0.577  1.5308  0.2260 -1.7886
  701TIP3    H2 2026   3.189   1.407   0.495 -0.3007 -1.0266  0.5981
  702TIP3   OH2 2027   0.702   3.930   3.597 -0.1472  0.7491  0.3017
  702TIP3    H1 2028   0.783   3.978   3.615  0.6297 -0.3024 -0.2598
  702TIP3    H2 2029   0.633   3.981   3.639  0.8856  1.3447  1.2988
  703TIP3   OH2 2030   7.810   0.284   3.651 -0.8096  0.1876 -0.5869
  703TIP3    H1 2031   7.804   0.379   3.649  0.1592  0.2554 -2.3654
  703TIP3    H2 2032   7.872   0.262   3.581  0.5639 -1.6453  1.0824
  704TIP3   OH2 2033   0.469   2.207   6.615  0.2214  0.2296 -0.2756
  704TIP3    H1 2034   0.383   2.165   6.618  0.9260 -1.1775  1.0430
  704TIP3    H2 2035   0.472   2.260   6.694  0.3894  0.6669 -0.5726
  705TIP3   OH2 2036   1.776   5.180   2.298  0.2147  0.1096 -0.2033
  705TIP3    H1 2037   1.853   5.187   2.356  0.7122 -0.9177 -0.7122
  705TIP3    H2 2038   1.702   5.171   2.357  0.3727  1.8300  0.3204
  706TIP3   OH2 2039   1.564   1.861   4.529 -0.0691  0.2470  0.1420
  706TIP3    H1 2040   1.598   1.942   4.492 -0.4900  0.5413  0.3920
  706TIP3    H2 2041   1.504   1.889   4.598 -0.6754 -0.2568 -0.1662
  707TIP3   OH2 2042   3.465   5.998   1.636 -0.0610  0.1045 -0.3071
  707TIP3    H1 2043   3.513   6.056   1.695 -1.1804  0.7272  0.0085
  707TIP3    H2 2044   3.484   6.031   1.549  0.2674  0.1948 -0.2036
  708TIP3   OH2 2045   7.877   4.307   6.552  1.0857 -0.3472 -0.0962
  708TIP3    H1 2046   7.959   4.319   6.505  0.7689 -1.2982 -0.9295
  708TIP3    H2 2047   7.815   4.363   6.506  1.2346  0.2777  0.4576
  709TIP3   OH2 2048   6.696   6.739   3.017  0.0279  0.3002  0.0249
  709TIP3    H1 2049   6.628   6.792   3.057  0.6488  1.2365 -0.1193
  709TIP3    H2 2050   6.729   6.684   3.088 -1.7756 -1.1600 -0.2027
  710TIP3   OH2 2051   3.567   3.212   6.153  0.3681  0.0347 -0.0939
  710TIP3    H1 2052   3.511   3.135   6.168  1.8782 -1.0584  0.2185
  710TIP3    H2 2053   3.581   3.248   6.240  0.3037  0.2082 -0.1551
  711TIP3   OH2 2054   5.684   1.423   0.177  0.0057 -0.2057  0.2722
  711TIP3    H1 2055   5.689   1.459   0.265  0.8029 -0.2716  0.2599
  711TIP3    H2 2056   5.636   1.340   0.187 -0.0531 -0.1297  0.6151
  712TIP3   OH2 2057   8.401   5.438   1.274 -0.2436 -0.5030 -0.5786
  712TIP3    H1 2058   8.426   5.462   1.185  2.5201  0.1215  0.2655
  712TIP3    H2 2059   8.364   5.518   1.311  0.3588 -0.2014 -0.6135
  713TIP3   OH2 2060   0.994   4.175   1.654 -0.8754  0.1425  0.0177
  713TIP3    H1 2061   0.987   4.245   1.720 -1.6128  1.5389 -1.4694
  713TIP3    H2 2062   0.925   4.113   1.678 -0.4537  0.0768  1.1486
  714TIP3   OH2 2063   6.850   7.536   5.823  0.0658  0.5342  0.0236
  714TIP3    H1 2064   6.903   7.596   5.770  1.9860  0.4560  1.7443
  714TIP3    H2 2065   6.836   7.582   5.905 -1.0329 -0.2023  0.2660
  715TIP3   OH2 2066   5.544   0.692   3.208 -0.7342  0.2334 -0.1094
  715TIP3    H1 2067   5.530   0.786   3.196  1.4430  0.7148  0.6971
  715TIP3    H2 2068   5.574   0.661   3.122  1.3875  0.9015  0.3483
  716TIP3   OH2 2069   1.830   5.802   0.958 -0.8160 -0.6678 -0.3681
  716TIP3    H1 2070   1.763   5.803   1.027  1.0023 -2.5364  1.6015
  716TIP3    H2 2071   1.861   5.711   0.957  0.5753 -0.2211 -2.3398
  717TIP3   OH2 2072   6.034   5.683   4.389  0.1016 -0.0615  0.7904
  717TIP3    H1 2073   6.008   5.756   4.445  1.2019 -0.6166  2.1091
  717TIP3    H2 2074   5.981   5.692   4.310 -2.4539  0.0284  2.4282
  718TIP3   OH2 2075   2.406   0.853   3.761 -0.5915 -0.6129 -0.4458
  718TIP3    H1 2076   2.415   0.948   3.760  1.5069 -0.7731 -1.0126
  718TIP3    H2 2077   2.455   0.822   3.685  2.3640 -2.3290  1.8856
  719TIP3   OH2 2078   5.955   2.162   4.509 -0.1363 -0.0999 -0.0057
  719TIP3    H1 2079   6.023   2.153   4.442  1.4203 -2.5604  1.7451
  719TIP3    H2 2080   5.877   2.124   4.469  0.2476  0.1682 -1.0512
  720TIP3   OH2 2081   6.365   2.825   1.830 -0.3742 -0.7110  0.1952
  720TIP3    H1 2082   6.272   2.822   1.854 -0.2164 -1.6444  0.7403
  720TIP3    H2 2083   6.365   2.830   1.734 -0.9962  1.4244  0.2574
  721TIP3   OH2 2084   2.231   6.830   6.456 -0.1729 -0.1925 -1.1503
  721TIP3    H1 2085   2.214   6.787   6.373 -0.0800  0.6374 -1.6167
  721TIP3    H2 2086   2.197   6.919   6.444  4.9151  1.9574 -2.5072
  722TIP3   OH2 2087   7.372   2.235   5.957  0.4591  0.2006  0.2602
  722TIP3    H1 2088   7.277   2.238   5.970  0.3722  1.1137 -0.5113
  722TIP3    H2 2089   7.407   2.302   6.015  0.5227  0.6958 -0.3430
  723TIP3   OH2 2090   0.958   7.252   6.631 -1.0092 -0.0089 -0.0478
  723TIP3    H1 2091   1.045   7.253   6.591 -0.4951 -0.4284  1.0106
  723TIP3    H2 2092   0.937   7.344   6.646  0.9653  0.0832  3.1685
  724TIP3   OH2 2093   2.860   4.505   3.136  0.0457  0.6937  0.5685
  724TIP3    H1 2094   2.801   4.501   3.212  0.8332  1.9489  1.2704
  724TIP3    H2 2095   2.945   4.528   3.172  1.1363 -1.5598 -0.3803
  725TIP3   OH2 2096   2.908   0.564   3.276 -0.0140 -0.1419 -0.0002
  725TIP3    H1 2097   2.972   0.512   3.325  0.6933  0.8643  0.1815
  725TIP3    H2 2098   2.933   0.551   3.184  0.9852  0.8848  0.1061
  726TIP3   OH2 2099   2.360   1.054   3.102  0.1689 -0.0702 -0.2485
  726TIP3    H1 2100   2.350   1.145   3.128  4.0156  0.5344 -0.3019
  726TIP3    H2 2101   2.374   1.056   3.008  3.3006 -0.1979  0.0898
  727TIP3   OH2 2102   3.739   3.270   6.744  0.0883  0.5355  0.2727
  727TIP3    H1 2103   3.701   3.261   6.656 -1.1643 -0.3278  0.8788
  727TIP3    H2 2104   3.797   3.346   6.737 -0.2638  0.7072 -1.2020
  728TIP3   OH2 2105   1.080   6.817   6.343 -0.1010  0.2315 -0.8115
  728TIP3    H1 2106   1.004   6.760   6.337  1.4097 -1.9986 -0.2897
  728TIP3    H2 2107   1.086   6.841   6.435 -0.2680  0.5439 -0.8817
  729TIP3   OH2 2108   4.094   4.574   6.909 -0.4092  0.2733  0.0412
  729TIP3    H1 2109   4.178   4.542   6.941 -0.7610 -0.7705 -0.0435
  729TIP3    H2 2110   4.037   4.572   6.985 -1.0200 -1.4159 -0.4192
  730TIP3   OH2 2111   1.522   1.281   4.083  0.3354  0.5871 -0.0016
  730TIP3    H1 2112   1.590   1.290   4.016  1.0608  0.3595  0.6868
  730TIP3    H2 2113   1.457   1.223   4.043  1.2971 -0.4538 -0.1012
  731TIP3   OH2 2114   2.565   1.836   0.761  0.0541 -0.2203 -0.6456
  731TIP3    H1 2115   2.581   1.783   0.683 -0.3426 -0.0938 -0.8132
  731TIP3    H2 2116   2.583   1.777   0.834  2.6613  0.2686 -0.7709
  732TIP3   OH2 2117   1.320   3.747   2.892  0.1339  0.3453  0.0783
  732TIP3    H1 2118   1.382   3.691   2.845 -0.5540  0.9427 -1.5931
  732TIP3    H2 2119   1.353   3.747   2.982  3.3678  1.6468 -0.9347
  733TIP3   OH2 2120   8.270   7.992   6.346  0.0959 -0.1170  0.0398
  733TIP3    H1 2121   8.235   7.930   6.410 -0.5546 -0.2106 -0.3873
  733TIP3    H2 2122   8.277   7.941   6.265  1.9559 -0.2997  0.2719
  734TIP3   OH2 2123   2.858   4.611   0.281  0.1161  0.2156  0.4515
  734TIP3    H1 2124   2.871   4.647   0.193  2.8450 -0.4726  0.4692
  734TIP3    H2 2125   2.922   4.539   0.286  0.0544  0.2729  3.0087
  735TIP3   OH2 2126   4.847   3.918   4.618 -0.1463 -0.1883 -0.2107
  735TIP3    H1 2127   4.795   3.838   4.609  1.1687 -0.9687 -1.1120
  735TIP3    H2 2128   4.807   3.979   4.557  0.0812 -0.8408 -1.0355
  736TIP3   OH2 2129   3.949   2.435   6.229 -0.1864 -0.1115 -0.2336
  736TIP3    H1 2130   3.937   2.498   6.159  0.3502  0.9986  0.6564
  736TIP3    H2 2131   4.042   2.412   6.227 -0.3672 -0.8691 -0.5284
  737TIP3   OH2 2132   1.880   0.407   0.286 -0.3539  0.0876  0.0619
  737TIP3    H1 2133   1.807   0.413   0.348  0.5369  1.6721  1.0428
  737TIP3    H2 2134   1.957   0.431   0.338  1.3350 -3.8903 -0.2865
  738TIP3   OH2 2135   8.016   4.503   3.280  0.2074 -0.0929  0.6903
  738TIP3    H1 2136   8.084   4.446   3.244  1.5140  1.4302  0.6474
  738TIP3    H2 2137   7.945   4.500   3.216  0.3827 -1.4048  0.5431
  739TIP3   OH2 2138   1.805   7.752   1.342  0.4320 -0.2463  0.2401
  739TIP3    H1 2139   1.859   7.832   1.341 -0.5986  0.4669 -0.1781
  739TIP3    H2 2140   1.801   7.728   1.435  0.0142  0.7288  0.4933
  740TIP3   OH2 2141   4.966   6.023   5.678 -0.6624  0.5081 -0.3049
  740TIP3    H1 2142   4.917   5.943   5.660 -2.5091  1.5802 -0.2483
  740TIP3    H2 2143   5.007   6.007   5.763  0.1819 -0.8957 -0.9453
  741TIP3   OH2 2144   0.120   5.971   3.882 -0.3836  0.4484  0.9686
  741TIP3    H1 2145   0.048   5.929   3.929 -1.5853  0.5268 -0.7129
  741TIP3    H2 2146   0.166   6.022   3.949 -0.2887 -1.6301  2.6031
  742TIP3   OH2 2147   3.316   3.691   2.897  0.0183  0.4194  0.5344
  742TIP3    H1 2148   3.303   3.640   2.977  2.4738  0.4964  1.0617
  742TIP3    H2 2149   3.246   3.661   2.838 -1.0473 -0.5959  2.2148
  743TIP3   OH2 2150   3.053   5.041   6.183  1.2102  0.0644  0.1785
  743TIP3    H1 2151   2.958   5.041   6.200  1.2960 -0.3337  0.6870
  743TIP3    H2 2152   3.075   4.949   6.171  1.8352 -0.0306  1.8402
  744TIP3   OH2 2153   2.544   1.805   4.250  0.1534  0.0506 -0.3167
  744TIP3    H1 2154   2.470   1.756   4.284 -0.1303 -0.0479 -1.0586
  744TIP3    H2 2155   2.621   1.756   4.280  0.3006  2.6471  4.6091
  745TIP3   OH2 2156   3.865   6.353   5.577 -0.1308 -0.2984  0.4182
  745TIP3    H1 2157   3.842   6.444   5.559  1.2104 -0.0779 -0.2517
  745TIP3    H2 2158   3.872   6.312   5.490 -2.2529 -1.4754  0.7199
  746TIP3   OH2 2159   5.907   5.609   5.073 -0.0213 -0.9592  0.1669
  746TIP3    H1 2160   5.991   5.604   5.117 -0.7032  1.1766  1.8732
  746TIP3    H2 2161   5.849   5.654   5.135 -1.0744  2.2327 -2.8087
  747TIP3   OH2 2162   3.170   7.113   2.422  0.6015 -0.0277  0.8432
  747TIP3    H1 2163   3.237   7.100   2.355  0.0641  0.7049  0.1436
  747TIP3    H2 2164   3.088   7.115   2.374 -0.1388 -2.6197  1.8630
  748TIP3   OH2 2165   8.639   0.669   1.022 -0.3995 -0.2546 -0.0437
  748TIP3    H1 2166   8.607   0.752   1.059  3.2004  1.2507  0.0945
  748TIP3    H2 2167   8.676   0.623   1.097  0.9736 -0.2505 -0.7042
  749TIP3   OH2 2168   4.188   4.352   6.243  0.1828  0.0532  0.0952
  749TIP3    H1 2169   4.113   4.400   6.278  0.1043  1.2462 -1.5976
  749TIP3    H2 2170   4.257   4.363   6.309 -0.6916  0.1571  0.9997
  750TIP3   OH2 2171   2.843   6.600   7.006  0.2343 -0.3810 -0.2368
  750TIP3    H1 2172   2.759   6.602   7.053 -1.1632  1.3932 -2.6328
  750TIP3    H2 2173   2.837   6.522   6.951 -1.3265  1.3291 -2.7070
  751TIP3   OH2 2174   4.713   1.299   0.680 -0.2914  0.0706  0.0789
  751TIP3    H1 2175   4.707   1.256   0.765 -0.4376 -0.3029 -0.1190
  751TIP3    H2 2176   4.740   1.230   0.620  0.1462  0.4089 -0.1166
  752TIP3   OH2 2177   4.568   0.634   3.232 -0.0802 -0.4846 -0.1394
  752TIP3    H1 2178   4.570   0.657   3.139 -0.0994 -0.6419 -0.1791
  752TIP3    H2 2179   4.492   0.578   3.242 -0.2178 -0.2729  0.0188
  753TIP3   OH2 2180   7.468   7.939   2.021 -0.7710  0.6308 -0.0845
  753TIP3    H1 2181   7.490   8.022   1.978 -1.1159  0.5862 -0.3534
  753TIP3    H2 2182   7.456   7.877   1.948  0.8254 -0.0027  0.1490
  754TIP3   OH2 2183   0.160   2.489   1.862  0.1530  0.0417  0.2544
  754TIP3    H1 2184   0.167   2.414   1.921  0.2254  0.3344  0.6215
  754TIP3    H2 2185   0.185   2.455   1.776  3.2605  0.3228  0.9333
  755TIP3   OH2 2186   7.177   3.722   1.327 -0.6867  0.4661  0.1277
  755TIP3    H1 2187   7.174   3.627   1.331 -0.5308  0.4850  1.2815
  755TIP3    H2 2188   7.117   3.746   1.256  1.3302 -0.5766 -2.0261
  756TIP3   OH2 2189   6.580   7.270   7.016  0.1686  0.4417  0.4597
  756TIP3    H1 2190   6.649   7.242   6.956  0.4678  1.8707  0.1038
  756TIP3    H2 2191   6.626   7.305   7.092  0.0245  3.7551 -0.8085
  757TIP3   OH2 2192   8.218   3.072   4.275 -0.0989  0.5816 -0.0369
  757TIP3    H1 2193   8.203   3.040   4.364 -2.2052 -0.3970 -0.6805
  757TIP3    H2 2194   8.157   3.145   4.265  0.4651  0.9943 -0.5290
  758TIP3   OH2 2195   2.117   6.307   0.657  0.2232  0.6373 -0.0546
  758TIP3    H1 2196   2.146   6.335   0.744  0.7327 -1.2278  0.4202
  758TIP3    H2 2197   2.034   6.352   0.643  1.2424  2.7702  0.3841
  759TIP3   OH2 2198   1.376   7.324   4.726 -0.3388 -0.0531 -0.0059
  759TIP3    H1 2199   1.378   7.420   4.717  0.4663 -0.0605 -0.0019
  759TIP3    H2 2200   1.450   7.304   4.783 -0.8062 -0.6446  0.3980
  760TIP3   OH2 2201   8.205   3.584   6.159 -1.0871  0.2649 -0.3817
  760TIP3    H1 2202   8.209   3.501   6.207 -1.7723 -0.4588 -1.5322
  760TIP3    H2 2203   8.131   3.574   6.100 -0.6334  1.3609 -1.1722
  761TIP3   OH2 2204   2.578   1.414   3.695 -0.3497  0.2137 -0.3086
  761TIP3    H1 2205   2.579   1.455   3.782 -0.8926  0.2265 -0.3049
  761TIP3    H2 2206   2.646   1.347   3.699  0.6183  1.1680 -0.3414
  762TIP3   OH2 2207   1.376   4.746   4.850  0.3910 -0.0206  0.0185
  762TIP3    H1 2208   1.342   4.703   4.929  2.2338  1.1299  1.5244
  762TIP3    H2 2209   1.445   4.804   4.882  1.0262  0.6983 -2.4389
  763TIP3   OH2 2210   7.957   6.072   5.214 -0.0107  0.3464  0.1274
  763TIP3    H1 2211   7.976   6.160   5.182 -0.6305  0.6363  0.5453
  763TIP3    H2 2212   7.988   6.014   5.144 -0.8574  0.9488 -0.7642
  764TIP3   OH2 2213   0.474   3.461   1.423 -0.1408 -0.0789 -0.2410
  764TIP3    H1 2214   0.483   3.451   1.328  1.1789  1.3496 -0.3229
  764TIP3    H2 2215   0.557   3.428   1.458 -1.0835 -1.7078  0.5543
  765TIP3   OH2 2216   6.123   7.990   3.317  0.4630  0.1300 -0.0203
  765TIP3    H1 2217   6.172   7.979   3.399  1.3619  1.3346 -0.3778
  765TIP3    H2 2218   6.061   7.917   3.317  1.2636 -0.5915  1.1557
  766TIP3   OH2 2219   7.549   0.896   5.030 -0.3606  0.4165  0.0193
  766TIP3    H1 2220   7.593   0.914   5.114 -0.9491  2.2821 -0.0219
  766TIP3    H2 2221   7.573   0.971   4.975  1.0056 -1.3614 -1.9438
  767TIP3   OH2 2222   2.301   2.928   6.814 -0.1088  0.3288  0.0856
  767TIP3    H1 2223   2.268   2.986   6.883  1.8048  0.8385  0.6510
  767TIP3    H2 2224   2.355   2.864   6.860  1.7529  1.0843 -0.9474
  768TIP3   OH2 2225   1.249   3.364   6.774  0.0866 -0.1518 -0.4321
  768TIP3    H1 2226   1.318   3.378   6.709  0.8683 -0.7317  0.2328
  768TIP3    H2 2227   1.177   3.419   6.746  0.8896  0.6051 -1.0753
  769TIP3   OH2 2228   0.212   3.432   3.161  0.3333  0.2719  0.5611
  769TIP3    H1 2229   0.194   3.523   3.140  0.7634  0.0456 -0.8977
  769TIP3    H2 2230   0.136   3.384   3.127 -1.1575  0.2581  3.5592
  770TIP3   OH2 2231   1.878   5.238   1.113 -0.1107  0.2323 -0.1043
  770TIP3    H1 2232   1.805   5.250   1.052  0.4942  0.2722 -0.8276
  770TIP3    H2 2233   1.925   5.161   1.080  0.7225  0.7698 -0.1887
  771TIP3   OH2 2234   6.064   2.702   0.650  0.2542  0.1845 -0.6158
  771TIP3    H1 2235   6.135   2.757   0.615  0.2562  1.1494  0.8148
  771TIP3    H2 2236   6.088   2.688   0.741 -0.7999 -0.5033 -0.4280
  772TIP3   OH2 2237   5.186   3.551   2.240  0.7562  0.4086 -0.1100
  772TIP3    H1 2238   5.272   3.579   2.208  1.3491 -0.5377  0.5727
  772TIP3    H2 2239   5.157   3.485   2.176  1.3697 -0.5660  0.5821
  773TIP3   OH2 2240   7.183   0.149   0.906  0.4181 -0.2808  0.3777
  773TIP3    H1 2241   7.163   0.111   0.821  0.8354  0.0024  0.1475
  773TIP3    H2 2242   7.244   0.087   0.946 -0.9671 -1.2094  1.1331
  774TIP3   OH2 2243   4.060   5.961   6.760 -0.3392  0.3443 -0.3390
  774TIP3    H1 2244   4.078   5.919   6.844 -0.6135 -3.0392 -1.8194
  774TIP3    H2 2245   3.978   5.922   6.730 -0.0454  1.1622 -2.3469
  775TIP3   OH2 2246   0.619   4.671   6.535  0.1086  0.3763 -0.2742
  775TIP3    H1 2247   0.580   4.723   6.465 -0.8763  0.1645  0.1042
  775TIP3    H2 2248   0.545   4.630   6.579  0.9095 -2.7815 -1.6309
  776TIP3   OH2 2249   0.321   5.979   0.289  0.2745 -0.4876  0.1416
  776TIP3    H1 2250   0.410   5.945   0.303 -0.0135 -0.9190  1.0164
  776TIP3    H2 2251   0.302   5.959   0.197  1.8294  1.4318 -0.6864
  777TIP3   OH2 2252   3.946   4.449   3.565 -0.0153  0.2676  0.5609
  777TIP3    H1 2253   4.017   4.473   3.506 -0.5819  0.3059 -0.1168
  777TIP3    H2 2254   3.912   4.367   3.529  1.4481 -1.2718  2.4400
  778TIP3   OH2 2255   7.495   2.485   0.122  0.1774 -0.0521 -0.0815
  778TIP3    H1 2256   7.469   2.499   0.213  0.0714  1.7557 -0.3436
  778TIP3    H2 2257   7.439   2.414   0.092 -0.7421  0.2347  0.8856
  779TIP3   OH2 2258   3.929   0.924   5.291  0.1593 -0.0955 -0.4492
  779TIP3    H1 2259   4.021   0.919   5.318 -0.0087  1.9918  0.7362
  779TIP3    H2 2260   3.887   0.850   5.334  0.6680  0.8986  1.9052
  780TIP3   OH2 2261   1.883   1.348   4.718 -0.5244  0.9378 -0.1296
  780TIP3    H1 2262   1.842   1.361   4.632  0.9332  0.6927 -0.9021
  780TIP3    H2 2263   1.916   1.434   4.743  1.2071  0.5923 -1.0172
  781TIP3   OH2 2264   0.137   4.267   1.074 -0.5294 -0.2406  0.1823
  781TIP3    H1 2265   0.116   4.289   0.984 -0.1230 -0.7185 -0.0398
  781TIP3    H2 2266   0.064   4.214   1.105 -1.7713  1.7784  0.8948
  782TIP3   OH2 2267   6.342   3.857   2.331 -0.3301 -0.1095  0.7446
  782TIP3    H1 2268   6.347   3.762   2.340  0.4548 -0.1368  0.2101
  782TIP3    H2 2269   6.319   3.871   2.239  3.2488  0.1938 -0.2822
  783TIP3   OH2 2270   3.300   2.108   4.437 -0.4321  0.5703 -0.4635
  783TIP3    H1 2271   3.241   2.122   4.512 -0.3607  2.0066 -0.6471
  783TIP3    H2 2272   3.388   2.118   4.474 -0.1847 -2.2186 -0.0517
  784TIP3   OH2 2273   1.638   2.488   0.653 -0.1822 -0.1339  0.7099
  784TIP3    H1 2274   1.726   2.516   0.679 -0.4527 -0.0344  1.5523
  784TIP3    H2 2275   1.580   2.533   0.714 -0.8980  0.5707 -0.4404
  785TIP3   OH2 2276   6.933   1.016   6.274  0.7170 -0.5303 -0.6366
  785TIP3    H1 2277   6.952   1.110   6.278  0.3694 -0.4824 -0.0593
  785TIP3    H2 2278   7.019   0.974   6.271  0.9999 -0.3357  2.1658
  786TIP3   OH2 2279   6.632   6.360   5.331 -0.2801 -0.0356 -0.0777
  786TIP3    H1 2280   6.719   6.397   5.347  0.5492 -1.3907 -1.2254
  786TIP3    H2 2281   6.624   6.359   5.236 -2.3501  1.7770  0.0113
  787TIP3   OH2 2282   6.741   3.935   0.132  0.2383 -0.4329  0.8357
  787TIP3    H1 2283   6.805   3.878   0.174 -0.3643 -0.4313  1.7776
  787TIP3    H2 2284   6.790   3.976   0.060  0.7683 -1.8625  0.3459
  788TIP3   OH2 2285   6.344   7.737   0.207  0.3288 -0.5892 -0.3317
  788TIP3    H1 2286   6.362   7.660   0.153  0.0104 -0.4630 -0.6140
  788TIP3    H2 2287   6.375   7.712   0.294 -0.2222 -1.2199 -0.3111
  789TIP3   OH2 2288   5.904   2.191   1.943  0.1769  0.3150 -0.3041
  789TIP3    H1 2289   5.850   2.223   1.870  0.7580 -0.6220 -1.1765
  789TIP3    H2 2290   5.991   2.178   1.904  0.0369 -2.1089  0.0015
  790TIP3   OH2 2291   7.137   3.701   6.365  0.1041  0.5635 -0.2028
  790TIP3    H1 2292   7.132   3.796   6.376 -0.9073  0.4998  0.0041
  790TIP3    H2 2293   7.081   3.666   6.435 -0.5852 -0.1250 -1.0687
  791TIP3   OH2 2294   7.269   5.233   0.310 -0.0960 -0.2038 -0.0569
  791TIP3    H1 2295   7.247   5.324   0.329  1.6383  0.0219  1.1133
  791TIP3    H2 2296   7.238   5.218   0.220  0.9623  2.0292 -0.8562
  792TIP3   OH2 2297   0.538   6.780   3.628  0.5909 -0.5288 -0.0395
  792TIP3    H1 2298   0.621   6.758   3.671 -0.1255  0.1388  1.8174
  792TIP3    H2 2299   0.471   6.751   3.690 -0.5583 -0.5305 -1.2402
  793TIP3   OH2 2300   2.661   5.863   6.233 -0.2664 -0.2968  0.7686
  793TIP3    H1 2301   2.591   5.908   6.186  2.0464  2.1995 -0.5508
  793TIP3    H2 2302   2.699   5.804   6.169  0.1418 -0.1038  0.8307
  794TIP3   OH2 2303   1.332   1.526   4.132 -0.0060 -0.0613  0.0979
  794TIP3    H1 2304   1.401   1.471   4.097 -1.3260 -1.2826 -0.6930
  794TIP3    H2 2305   1.269   1.465   4.170 -1.3659  0.8776 -0.5360
  795TIP3   OH2 2306   1.107   1.078   5.123  0.3614 -0.1683 -0.0051
  795TIP3    H1 2307   1.034   1.119   5.169  0.2393 -0.9517  0.5250
  795TIP3    H2 2308   1.139   1.011   5.183  1.4388  0.0716 -0.2854
  796TIP3   OH2 2309   1.024   7.628   3.802  0.0898  0.2611  0.7494
  796TIP3    H1 2310   1.049   7.690   3.733 -0.9188  0.6954  0.7495
  796TIP3    H2 2311   1.106   7.605   3.845  0.5532  1.1513  0.3652
  797TIP3   OH2 2312   5.782   1.485   6.165  0.0689  0.1313 -0.1363
  797TIP3    H1 2313   5.710   1.515   6.220  0.5434 -0.1287  0.6458
  797TIP3    H2 2314   5.740   1.435   6.095 -0.5331  0.3310  0.0760
  798TIP3   OH2 2315   8.001   7.167   5.269 -0.5793  0.2550 -0.0833
  798TIP3    H1 2316   7.953   7.172   5.352 -1.2077  1.2702 -0.4875
  798TIP3    H2 2317   7.975   7.247   5.222  0.9876  0.4868 -0.5989
  799TIP3   OH2 2318   2.526   6.949   0.295  0.4075 -0.1782  0.1798
  799TIP3    H1 2319   2.594   6.970   0.358  0.0726  0.0682  0.4634
  799TIP3    H2 2320   2.447   6.935   0.348  0.5453 -1.8628 -0.0197
  800TIP3   OH2 2321   3.999   1.437   3.094 -0.3669 -0.0806 -0.4333
  800TIP3    H1 2322   3.939   1.407   3.026 -1.2366  1.0881 -0.2024
  800TIP3    H2 2323   4.066   1.486   3.047 -1.0411  0.8414 -0.4428
  801TIP3   OH2 2324   2.726   6.306   1.740  0.0030 -0.2224  0.1061
  801TIP3    H1 2325   2.786   6.234   1.723 -1.4572 -1.6622  0.8139
  801TIP3    H2 2326   2.720   6.353   1.656  2.6764  0.4734  0.2171
  802TIP3   OH2 2327   3.128   5.535   1.653  0.0704 -0.0646 -0.6080
  802TIP3    H1 2328   3.110   5.628   1.664  0.4176 -0.1420  0.8378
  802TIP3    H2 2329   3.049   5.501   1.610  0.3395  1.0311 -2.0612
  803TIP3   OH2 2330   5.774   6.814   5.125  0.1515 -0.7841  0.4882
  803TIP3    H1 2331   5.688   6.853   5.139  0.4339  1.2599 -2.5295
  803TIP3    H2 2332   5.835   6.878   5.161  0.4894 -0.4130 -0.7001
  804TIP3   OH2 2333   3.339   0.777   2.179  0.3122  0.3887 -0.2283
  804TIP3    H1 2334   3.410   0.840   2.169  1.3464 -0.7821 -0.5522
  804TIP3    H2 2335   3.293   0.805   2.258  0.6571  1.6054 -0.4296
  805TIP3   OH2 2336   2.903   6.478   5.437  0.5624  0.2959  0.7685
  805TIP3    H1 2337   2.890   6.564   5.476  0.3465  1.0035 -0.7775
  805TIP3    H2 2338   2.861   6.417   5.497 -1.0394  1.4796  0.8977
  806TIP3   OH2 2339   0.087   6.976   5.578 -0.2990 -0.3381 -0.0835
  806TIP3    H1 2340   0.003   7.019   5.565 -1.0427 -0.2774  3.7595
  806TIP3    H2 2341   0.145   7.047   5.609  0.1288 -0.9856  0.6417
  807TIP3   OH2 2342   1.314   6.324   0.742 -0.5843 -0.8122 -0.3220
  807TIP3    H1 2343   1.255   6.353   0.811 -0.2300 -0.6368 -0.0950
  807TIP3    H2 2344   1.297   6.231   0.734 -0.7090 -0.8113 -0.0795
  808TIP3   OH2 2345   4.229   6.272   3.541 -0.1778 -0.0382 -0.3602
  808TIP3    H1 2346   4.256   6.345   3.486 -1.0446  0.6433  0.0949
  808TIP3    H2 2347   4.266   6.290   3.627  0.5359 -0.7135 -0.5110
  809TIP3   OH2 2348   7.397   0.842   1.396  0.2358 -0.1063 -0.0043
  809TIP3    H1 2349   7.377   0.910   1.460 -0.7781 -0.3304 -0.0678
  809TIP3    H2 2350   7.345   0.766   1.424 -0.7069 -0.0183 -1.4245
  810TIP3   OH2 2351   4.437   2.939   3.900 -0.0753  0.6782 -0.9131
  810TIP3    H1 2352   4.497   2.865   3.890  0.5396  1.0907 -0.4303
  810TIP3    H2 2353   4.467   2.982   3.981  0.1575  1.9664 -1.6658
  811TIP3   OH2 2354   8.452   6.322   5.877 -0.5018 -0.0457 -0.5103
  811TIP3    H1 2355   8.398   6.290   5.950  0.6421  0.3868  0.5600
  811TIP3    H2 2356   8.484   6.407   5.908  3.3362 -1.6002  0.2851
  812TIP3   OH2 2357   7.331   3.155   4.213  0.8374  0.1286 -0.1337
  812TIP3    H1 2358   7.300   3.211   4.284  1.3846  0.8264 -0.4295
  812TIP3    H2 2359   7.252   3.113   4.179  0.5218  0.1095  0.6142
  813TIP3   OH2 2360   6.175   4.685   5.227  0.2005  0.5872 -0.3031
  813TIP3    H1 2361   6.248   4.654   5.175  0.3662 -0.0362  0.2901
  813TIP3    H2 2362   6.160   4.774   5.196  0.8263  0.5173 -0.8324
  814TIP3   OH2 2363   4.976   4.959   2.408 -0.0542  0.0336 -0.5730
  814TIP3    H1 2364   4.900   4.999   2.363 -0.3493 -0.2744 -0.3490
  814TIP3    H2 2365   4.937   4.901   2.473  0.3620  0.9373  0.5147
  815TIP3   OH2 2366   0.160   2.290   4.151  0.1387  0.4105 -0.1397
  815TIP3    H1 2367   0.176   2.279   4.057  1.7729  0.8295  0.0520
  815TIP3    H2 2368   0.204   2.215   4.191  1.6886  1.5742  0.4297
  816TIP3   OH2 2369   7.946   3.366   0.542 -0.6666 -0.1037 -0.0980
  816TIP3    H1 2370   7.951   3.462   0.547  1.4301 -0.2177  0.9821
  816TIP3    H2 2371   7.927   3.348   0.450 -1.0551  1.3472 -0.3305
  817TIP3   OH2 2372   3.621   0.525   0.451  0.0597  0.2240  0.3040
  817TIP3    H1 2373   3.705   0.570   0.453  0.4762 -0.4028 -1.2908
  817TIP3    H2 2374   3.560   0.585   0.493  1.1741  0.9453  0.9406
  818TIP3   OH2 2375   3.498   2.384   1.687  0.3383 -0.4247  0.1334
  818TIP3    H1 2376   3.452   2.423   1.613 -0.6323 -0.1676  0.8570
  818TIP3    H2 2377   3.558   2.452   1.716  0.0823 -0.2039  0.1460
  819TIP3   OH2 2378   6.619   1.587   0.789 -0.1838 -0.4746  0.2547
  819TIP3    H1 2379   6.540   1.620   0.745 -1.6650 -2.8770  0.9332
  819TIP3    H2 2380   6.641   1.507   0.742  1.9972  0.2144  0.0105
  820TIP3   OH2 2381   1.269   0.199   5.655 -0.3543  0.2697 -0.5817
  820TIP3    H1 2382   1.355   0.210   5.616 -0.0385  0.2720  0.0999
  820TIP3    H2 2383   1.286   0.190   5.749 -0.9841 -1.0222 -0.5660
  821TIP3   OH2 2384   6.582   1.180   6.504 -0.2749 -1.0722  0.0121
  821TIP3    H1 2385   6.536   1.110   6.551 -2.5568 -0.9736 -1.8478
  821TIP3    H2 2386   6.604   1.244   6.571 -0.8100 -2.2173  1.3311
  822TIP3   OH2 2387   6.774   4.780   1.895  0.0081  0.4942 -0.1866
  822TIP3    H1 2388   6.837   4.719   1.932 -0.5933  0.9628  1.7363
  822TIP3    H2 2389   6.796   4.785   1.802  1.1582 -1.2898 -0.0514
  823TIP3   OH2 2390   0.574   7.479   6.526 -0.8351  0.0401 -0.6640
  823TIP3    H1 2391   0.478   7.474   6.519 -0.9536  1.2154 -0.1231
  823TIP3    H2 2392   0.596   7.416   6.595 -1.3402  0.5104 -0.0510
  824TIP3   OH2 2393   3.443   2.983   0.767  0.5192  0.1094  0.0517
  824TIP3    H1 2394   3.424   3.068   0.806  0.4655 -1.3039  3.4178
  824TIP3    H2 2395   3.536   2.986   0.745  0.2964  1.3252 -0.7962
  825TIP3   OH2 2396   3.180   4.102   6.598  0.9722  0.0416  0.0500
  825TIP3    H1 2397   3.125   4.025   6.586 -1.0272  1.8084 -4.9378
  825TIP3    H2 2398   3.263   4.079   6.556 -0.0169  0.7543 -2.4832
  826TIP3   OH2 2399   0.816   0.748   2.611 -0.3045 -0.0701 -0.4832
  826TIP3    H1 2400   0.753   0.783   2.548 -1.3007  0.0169  0.5441
  826TIP3    H2 2401   0.763   0.716   2.683  0.8537  0.4056  0.6132
  827TIP3   OH2 2402   6.337   5.407   2.327 -0.2709  0.4025  0.1343
  827TIP3    H1 2403   6.382   5.323   2.318  0.1453  0.7133 -0.9478
  827TIP3    H2 2404   6.244   5.384   2.331 -0.2045 -0.0877 -0.7806
  828TIP3   OH2 2405   0.631   5.213   5.031  0.0042  0.5136  0.4923
  828TIP3    H1 2406   0.616   5.288   4.974 -0.4198  0.4065  0.4596
  828TIP3    H2 2407   0.574   5.144   4.996 -0.7516  0.6439  1.4166
  829TIP3   OH2 2408   7.725   3.363   3.418 -0.1917 -0.2151 -0.0183
  829TIP3    H1 2409   7.770   3.339   3.337 -0.4520 -0.7287 -0.0163
  829TIP3    H2 2410   7.640   3.397   3.388 -1.1268 -2.3120  0.1070
  830TIP3   OH2 2411   5.752   4.828   3.697 -0.4603 -0.6936 -0.1568
  830TIP3    H1 2412   5.817   4.834   3.768  1.2893  0.7110 -1.7549
  830TIP3    H2 2413   5.702   4.749   3.716  0.5912 -0.8913  2.0988
  831TIP3   OH2 2414   2.889   3.235   4.129 -0.1196  0.6039  0.2762
  831TIP3    H1 2415   2.974   3.279   4.123 -0.4267  1.4737  1.8605
  831TIP3    H2 2416   2.857   3.256   4.217 -1.5431 -0.5152  0.0594
  832TIP3   OH2 2417   2.848   5.766   3.801  0.1653 -0.0042 -0.0011
  832TIP3    H1 2418   2.937   5.753   3.833 -0.3767 -0.3605  1.4650
  832TIP3    H2 2419   2.831   5.690   3.744  0.8723  0.2027 -0.4975
  833TIP3   OH2 2420   5.186   5.894   6.674 -0.6374 -0.1713 -0.2902
  833TIP3    H1 2421   5.183   5.984   6.707  0.1672 -0.4118  0.4897
  833TIP3    H2 2422   5.266   5.890   6.622 -0.2344 -0.6461  0.3510
  834TIP3   OH2 2423   4.319   6.297   1.020 -0.1892 -0.1731  0.1643
  834TIP3    H1 2424   4.305   6.249   0.938  0.1498 -1.5293  0.8706
  834TIP3    H2 2425   4.348   6.230   1.082  0.2067  0.9454  1.2208
  835TIP3   OH2 2426   1.383   4.443   2.447 -0.3418 -0.2068 -0.1896
  835TIP3    H1 2427   1.340   4.529   2.445  1.0460  0.5362  0.0999
  835TIP3    H2 2428   1.475   4.462   2.427  0.0063 -1.6230 -0.0646
  836TIP3   OH2 2429   2.078   3.517   6.669  0.0631  0.1909 -0.3012
  836TIP3    H1 2430   2.148   3.581   6.681  1.4205 -1.5546  2.3378
  836TIP3    H2 2431   1.997   3.567   6.679  1.0127  1.8081 -0.4078
  837TIP3   OH2 2432   8.157   4.809   3.928 -0.1397 -0.2022 -0.1303
  837TIP3    H1 2433   8.082   4.836   3.980 -0.2230  0.8723 -0.7780
  837TIP3    H2 2434   8.127   4.811   3.837  1.0236  1.6435 -0.5342
  838TIP3   OH2 2435   8.220   3.103   1.648 -0.9893  0.6924 -0.0915
  838TIP3    H1 2436   8.258   3.036   1.591 -1.5082  0.6796 -0.4331
  838TIP3    H2 2437   8.197   3.056   1.728  1.0944  0.9910  0.7515
  839TIP3   OH2 2438   4.641   7.533   0.591 -0.3827  0.1970 -0.5533
  839TIP3    H1 2439   4.661   7.578   0.672 -0.4276 -1.4335  0.4106
  839TIP3    H2 2440   4.669   7.442   0.606 -1.5257 -0.4207 -1.8883
  840TIP3   OH2 2441   4.877   4.592   4.938 -0.1655 -0.0503  0.2066
  840TIP3    H1 2442   4.905   4.501   4.935  1.9879  0.4733  1.6972
  840TIP3    H2 2443   4.878   4.621   4.847  0.7716 -1.0757 -0.1296
  841TIP3   OH2 2444   4.366   1.806   4.080 -0.3815  0.1911  0.0416
  841TIP3    H1 2445   4.303   1.864   4.122 -0.0540 -0.3358  1.3011
  841TIP3    H2 2446   4.421   1.864   4.027  0.3101  1.1235  1.7268
  842TIP3   OH2 2447   2.561   5.659   7.033 -0.1434 -0.8123  0.9739
  842TIP3    H1 2448   2.476   5.620   7.015 -1.7275  2.4560  0.6469
  842TIP3    H2 2449   2.605   5.662   6.948 -0.1033 -1.5764  0.9615
  843TIP3   OH2 2450   8.644   4.093   0.646  0.0390 -0.8055  0.5213
  843TIP3    H1 2451   8.676   4.149   0.576  0.3949 -2.1913 -0.4845
  843TIP3    H2 2452   8.722   4.051   0.681 -0.1872 -0.4797  1.4411
  844TIP3   OH2 2453   3.217   7.449   3.906  0.6559 -0.1683  0.2172
  844TIP3    H1 2454   3.171   7.463   3.823  1.4661 -0.5273 -0.3180
  844TIP3    H2 2455   3.282   7.519   3.909  3.1646 -2.2352 -1.3451
  845TIP3   OH2 2456   7.648   3.188   5.120  0.7701  0.1119 -0.0956
  845TIP3    H1 2457   7.638   3.265   5.177 -2.0059  0.7817 -1.3062
  845TIP3    H2 2458   7.617   3.115   5.173 -2.9994  0.9006 -0.8983
  846TIP3   OH2 2459   2.435   2.549   1.254 -0.3242 -0.7020 -0.0818
  846TIP3    H1 2460   2.378   2.609   1.301  2.4128  0.4490  2.0698
  846TIP3    H2 2461   2.474   2.602   1.185 -1.3730 -1.3379 -1.1990
  847TIP3   OH2 2462   4.259   5.730   3.619  0.4872 -0.0901  0.3203
  847TIP3    H1 2463   4.349   5.738   3.651  0.0908  0.3284  1.4020
  847TIP3    H2 2464   4.250   5.638   3.596  1.0281 -0.2578  0.7499
  848TIP3   OH2 2465   6.763   3.798   1.949 -0.2161  0.3871 -0.2954
  848TIP3    H1 2466   6.717   3.839   2.022  0.9256  2.5044 -0.6727
  848TIP3    H2 2467   6.694   3.767   1.891 -1.1320 -0.7196  1.3082
  849TIP3   OH2 2468   5.897   2.113   4.976 -0.5858 -0.1960  0.3220
  849TIP3    H1 2469   5.862   2.036   4.931  0.0588 -0.2571 -0.0815
  849TIP3    H2 2470   5.972   2.080   5.025 -1.3090 -0.1404  1.4953
  850TIP3   OH2 2471   3.174   5.459   6.661 -0.5713 -0.0053 -0.0156
  850TIP3    H1 2472   3.187   5.553   6.672 -2.8812  0.3265  0.4544
  850TIP3    H2 2473   3.197   5.421   6.746  1.6344 -0.0663 -0.6030
  851TIP3   OH2 2474   5.248   6.606   1.354 -0.4751  0.0003  0.2663
  851TIP3    H1 2475   5.281   6.696   1.359  0.6389 -0.2958 -1.1571
  851TIP3    H2 2476   5.180   6.609   1.286 -2.0991  0.1978  1.8193
  852TIP3   OH2 2477   2.173   1.053   3.456 -0.5155 -0.6719 -0.1570
  852TIP3    H1 2478   2.185   1.132   3.403  1.3623 -0.9775 -0.2620
  852TIP3    H2 2479   2.159   0.983   3.392 -0.8158 -0.6420 -0.1252
  853TIP3   OH2 2480   6.346   7.730   3.756 -0.1031 -0.1366  0.6330
  853TIP3    H1 2481   6.285   7.783   3.807  0.2787  2.7749 -1.6559
  853TIP3    H2 2482   6.429   7.737   3.803 -0.3043  0.4468  0.9123
  854TIP3   OH2 2483   3.316   5.482   6.903  0.2697 -0.0881 -0.0266
  854TIP3    H1 2484   3.398   5.474   6.951  0.6344  0.7986 -0.4734
  854TIP3    H2 2485   3.248   5.460   6.967  0.8134 -0.1289  0.5460
  855TIP3   OH2 2486   7.480   6.676   4.433 -0.3318  0.3384 -0.0138
  855TIP3    H1 2487   7.396   6.723   4.432  0.5313  2.0346 -2.2381
  855TIP3    H2 2488   7.546   6.744   4.428  1.2039 -0.9867  1.1925
  856TIP3   OH2 2489   2.716   7.044   3.745  0.1610 -0.6755  0.1935
  856TIP3    H1 2490   2.757   7.131   3.748 -0.8940  0.0056 -2.4084
  856TIP3    H2 2491   2.661   7.041   3.823 -0.5245  1.4140 -0.1487
  857TIP3   OH2 2492   6.485   8.022   6.617 -0.1737  0.2385  0.1062
  857TIP3    H1 2493   6.400   7.994   6.651 -0.5583  1.6180  0.3511
  857TIP3    H2 2494   6.517   8.085   6.682  0.0701  1.2954 -1.0039
  858TIP3   OH2 2495   6.278   5.758   1.626  0.4208  0.2506 -0.0466
  858TIP3    H1 2496   6.235   5.800   1.552  1.3727  0.0928 -0.7120
  858TIP3    H2 2497   6.371   5.776   1.613  0.5857  0.4448  1.2672
  859TIP3   OH2 2498   1.107   3.433   2.538 -0.6791 -0.0532  0.4168
  859TIP3    H1 2499   1.088   3.365   2.602 -0.7852 -1.1018 -0.6847
  859TIP3    H2 2500   1.052   3.507   2.564  0.7778  0.3133  2.6999
  860TIP3   OH2 2501   0.007   5.983   1.892 -0.4276  0.3463  0.3174
  860TIP3    H1 2502   0.051   5.958   1.974 -0.4456  0.6595  0.4235
  860TIP3    H2 2503  -0.030   6.069   1.910 -0.4309  0.4179 -0.0241
  861TIP3   OH2 2504   2.880   2.541   1.888  0.2975  0.7998 -0.1854
  861TIP3    H1 2505   2.852   2.456   1.852  1.1695 -0.3147  1.5966
  861TIP3    H2 2506   2.970   2.551   1.858  1.1920 -0.3635  1.9189
  862TIP3   OH2 2507   8.060   3.815   0.322 -0.1452 -0.1937 -0.6298
  862TIP3    H1 2508   7.993   3.865   0.275 -0.1732  1.7686  1.3474
  862TIP3    H2 2509   8.141   3.864   0.307  0.5102 -1.4445 -1.3539
  863TIP3   OH2 2510   7.013   2.162   3.945  0.5765  0.2656 -0.3542
  863TIP3    H1 2511   6.944   2.213   3.987  0.8015  1.0181 -0.8783
  863TIP3    H2 2512   7.094   2.212   3.962  0.7647  0.2098 -1.0777
  864TIP3   OH2 2513   4.293   0.899   0.232 -0.1139  0.4978 -0.0327
  864TIP3    H1 2514   4.213   0.879   0.282 -0.3224 -1.0003 -0.9020
  864TIP3    H2 2515   4.360   0.843   0.271  0.5450  1.7497  0.6893
  865TIP3   OH2 2516   5.554   7.193   2.121 -0.2407 -0.8015 -0.3298
  865TIP3    H1 2517   5.502   7.113   2.116 -1.9206  0.2197 -0.0185
  865TIP3    H2 2518   5.536   7.240   2.039  0.3069 -0.5004 -0.2841
  866TIP3   OH2 2519   6.078   7.217   5.358 -0.0845 -1.2724 -0.2567
  866TIP3    H1 2520   6.086   7.312   5.360 -1.1683 -1.1718  0.2066
  866TIP3    H2 2521   6.054   7.193   5.447  0.9052 -2.0612 -0.1961
  867TIP3   OH2 2522   6.775   4.884   0.856  0.2618 -0.3943  0.1358
  867TIP3    H1 2523   6.741   4.867   0.768  0.8638 -0.1458 -0.1469
  867TIP3    H2 2524   6.716   4.835   0.914  0.3904 -1.2877 -0.4708
  868TIP3   OH2 2525   4.365   0.038   5.985 -0.1984  0.3570  0.1109
  868TIP3    H1 2526   4.320   0.117   5.954 -0.9447  0.1024  0.5486
  868TIP3    H2 2527   4.413   0.007   5.908 -1.9112 -0.1783 -0.7960
  869TIP3   OH2 2528   3.491   8.125   2.747 -0.0738 -0.5532 -0.2522
  869TIP3    H1 2529   3.555   8.129   2.676  2.4833 -0.6949  1.8689
  869TIP3    H2 2530   3.489   8.214   2.782 -1.8665 -0.3054 -0.8663
  870TIP3   OH2 2531   1.427   4.291   6.462 -0.4825  0.0007  0.0776
  870TIP3    H1 2532   1.389   4.256   6.382 -1.5512 -0.4791  0.7669
  870TIP3    H2 2533   1.505   4.237   6.477 -0.4378 -0.0973 -0.4786
  871TIP3   OH2 2534   4.439   2.505   6.716  0.0590 -0.6168  0.0911
  871TIP3    H1 2535   4.514   2.464   6.674 -0.0711  0.1749 -0.9628
  871TIP3    H2 2536   4.368   2.496   6.652 -1.0856 -2.3230  1.4956
  872TIP3   OH2 2537   7.075   0.973   1.973  0.5301  0.0414  0.1971
  872TIP3    H1 2538   7.007   0.959   2.040  0.5440 -0.9501  0.0209
  872TIP3    H2 2539   7.098   1.066   1.981 -0.9628  0.4512  0.1554
  873TIP3   OH2 2540   8.006   5.230   7.093  0.2729  0.1619 -0.0272
  873TIP3    H1 2541   8.054   5.294   7.040 -1.7206  0.9154 -1.0319
  873TIP3    H2 2542   7.920   5.269   7.106  0.1590 -0.7455  2.4486
  874TIP3   OH2 2543   5.835   7.881   5.585 -0.0356  0.1430  0.0741
  874TIP3    H1 2544   5.819   7.883   5.490 -0.6144 -2.2982  0.0401
  874TIP3    H2 2545   5.801   7.964   5.617  0.0238  0.9557 -1.8405
  875TIP3   OH2 2546   1.648   8.052   0.390 -0.5676 -0.5879  0.5230
  875TIP3    H1 2547   1.591   8.093   0.324  1.1278  0.1489 -0.5514
  875TIP3    H2 2548   1.694   7.983   0.342 -0.2052 -0.8727  1.2707
  876TIP3   OH2 2549   2.819   5.364   4.501 -0.0683  0.0813 -0.2508
  876TIP3    H1 2550   2.865   5.429   4.449 -1.3535  2.5638  1.5063
  876TIP3    H2 2551   2.884   5.294   4.514  1.7864  1.5089 -1.2527
  877TIP3   OH2 2552   8.647   0.560   4.265  0.7466 -0.2509 -0.0351
  877TIP3    H1 2553   8.669   0.479   4.219 -3.8302 -2.3724  0.9035
  877TIP3    H2 2554   8.637   0.534   4.357  0.6394  1.7500  0.5831
  878TIP3   OH2 2555   5.224   0.276   0.352  0.4692 -0.0138 -0.1591
  878TIP3    H1 2556   5.168   0.327   0.294 -0.3613  0.8153  1.3194
  878TIP3    H2 2557   5.205   0.184   0.330  3.9317  0.0073 -4.7759
  879TIP3   OH2 2558   4.581   5.479   4.959  0.3605 -0.8760 -0.5145
  879TIP3    H1 2559   4.621   5.403   5.001 -0.7611 -0.9533  0.4761
  879TIP3    H2 2560   4.533   5.443   4.884 -0.3997 -1.2049  0.1147
  880TIP3   OH2 2561   4.848   6.617   4.281  0.4151 -0.2098 -0.3900
  880TIP3    H1 2562   4.792   6.665   4.219  0.7414 -0.9363 -1.2675
  880TIP3    H2 2563   4.824   6.652   4.367 -0.1130  0.7604 -0.9134
  881TIP3   OH2 2564   0.644   8.037   0.858  0.2968 -0.2670 -0.5635
  881TIP3    H1 2565   0.736   8.011   0.847  0.3778  0.1673 -0.9141
  881TIP3    H2 2566   0.624   8.013   0.948  0.9489  0.2233 -0.2780
  882TIP3   OH2 2567   3.978   0.204   3.414  0.0234  0.1931 -0.0781
  882TIP3    H1 2568   4.069   0.177   3.410 -0.0430 -0.1471  0.5298
  882TIP3    H2 2569   3.978   0.294   3.381  0.3252 -0.3487 -1.6322
  883TIP3   OH2 2570   5.416   6.019   4.407 -0.4157  0.7547 -0.1697
  883TIP3    H1 2571   5.405   6.088   4.342 -1.0174  0.0472 -0.8339
  883TIP3    H2 2572   5.483   6.052   4.467  0.5169  1.2091 -1.4301
  884TIP3   OH2 2573   0.295   1.130   6.933 -0.2993  0.4389 -0.5832
  884TIP3    H1 2574   0.343   1.098   7.009  1.0104  0.4458 -1.3807
  884TIP3    H2 2575   0.262   1.050   6.890 -1.0579  0.4363 -0.0253
  885TIP3   OH2 2576   8.206   8.179   2.326  0.6017 -0.8800 -0.0939
  885TIP3    H1 2577   8.139   8.112   2.316 -0.1203 -0.0513 -0.9469
  885TIP3    H2 2578   8.160   8.262   2.317  1.3395 -0.2145  1.7775
  886TIP3   OH2 2579   6.280   7.487   2.233  0.3710 -0.1876 -0.1038
  886TIP3    H1 2580   6.331   7.544   2.290  2.4723 -1.9192 -0.1016
  886TIP3    H2 2581   6.284   7.528   2.147  0.5349  0.4513  0.2036
  887TIP3   OH2 2582   4.060   2.034   0.984  0.3574  0.2786 -0.0849
  887TIP3    H1 2583   4.132   1.983   1.019  1.3018  0.7624 -1.2346
  887TIP3    H2 2584   4.010   1.972   0.931  0.6686  0.2055 -0.2989
  888TIP3   OH2 2585   4.188   4.619   4.080  0.6034 -0.0328  0.6399
  888TIP3    H1 2586   4.116   4.682   4.082 -0.6031 -1.3700  0.4046
  888TIP3    H2 2587   4.195   4.588   4.170 -0.7016 -1.6098  0.2390
  889TIP3   OH2 2588   7.862   6.007   4.147  0.4033 -0.2159 -0.5127
  889TIP3    H1 2589   7.949   5.970   4.133 -0.3785 -1.4135 -2.5318
  889TIP3    H2 2590   7.836   5.973   4.233  1.8414  0.0409  0.0577
  890TIP3   OH2 2591   2.041   3.026   5.233  0.0370 -0.1984 -0.4113
  890TIP3    H1 2592   2.023   3.107   5.281  1.1793  0.4228 -0.9749
  890TIP3    H2 2593   1.983   2.961   5.272 -0.4777  0.7557  0.4559
  891TIP3   OH2 2594   8.541   7.824   0.362 -0.1156 -0.5718 -0.3097
  891TIP3    H1 2595   8.484   7.898   0.381  0.5820 -0.2606  0.6595
  891TIP3    H2 2596   8.606   7.825   0.433  0.6790 -1.3214 -1.0003
  892TIP3   OH2 2597   4.319   1.881   1.000 -0.7382  0.0373  0.2224
  892TIP3    H1 2598   4.323   1.875   0.904  0.5006 -0.5886  0.2981
  892TIP3    H2 2599   4.390   1.941   1.023 -1.6687  0.9855  0.7036
  893TIP3   OH2 2600   5.966   5.023   1.039 -0.1255 -0.8201 -0.2088
  893TIP3    H1 2601   5.944   5.064   1.123 -2.4016  0.5285 -1.3612
  893TIP3    H2 2602   5.951   5.092   0.975 -0.6996 -2.4625 -1.9233
  894TIP3   OH2 2603   1.609   1.419   4.989  0.0091  0.0064 -0.1277
  894TIP3    H1 2604   1.701   1.419   5.014  0.4823 -0.1358 -1.7462
  894TIP3    H2 2605   1.585   1.327   4.986 -0.7124  0.0828  1.9845
  895TIP3   OH2 2606   4.997   7.305   0.646  0.1583 -0.3413 -0.0262
  895TIP3    H1 2607   4.995   7.325   0.553  0.0962  1.6429  0.3459
  895TIP3    H2 2608   5.088   7.283   0.665 -0.1662 -2.6374 -0.8570
  896TIP3   OH2 2609   6.912   2.664   4.275 -0.2783  0.0230  0.4683
  896TIP3    H1 2610   6.996   2.684   4.318 -0.1347  0.7592 -0.1256
  896TIP3    H2 2611   6.923   2.698   4.186 -0.7118 -1.1198 -0.0404
  897TIP3   OH2 2612   0.710   2.846   1.620  0.1289 -0.8872 -0.4628
  897TIP3    H1 2613   0.766   2.769   1.614  0.3088 -0.7420 -0.6617
  897TIP3    H2 2614   0.721   2.890   1.536 -0.1227 -0.7486 -0.4217
  898TIP3   OH2 2615   5.905   5.214   6.875  0.0706 -0.4531  0.0436
  898TIP3    H1 2616   5.990   5.190   6.910  1.1321  0.6910 -1.6181
  898TIP3    H2 2617   5.924   5.257   6.791 -2.0034  1.4932  0.4524
  899TIP3   OH2 2618   0.112   0.280   6.979  0.0099 -0.0056 -0.1664
  899TIP3    H1 2619   0.021   0.273   7.007 -0.5697  1.6309 -1.4983
  899TIP3    H2 2620   0.129   0.199   6.932  0.6041 -2.2412  3.4882
  900TIP3   OH2 2621   6.485   7.632   3.115 -0.3595 -0.1348 -0.1222
  900TIP3    H1 2622   6.453   7.695   3.180 -1.3615  0.1595 -0.8657
  900TIP3    H2 2623   6.545   7.682   3.061  0.5235 -0.3956  0.5929
  901TIP3   OH2 2624   8.369   8.113   2.553  0.2620  0.6943 -0.0904
  901TIP3    H1 2625   8.426   8.036   2.548 -1.2335 -0.4772  0.2272
  901TIP3    H2 2626   8.338   8.126   2.463  1.5454  1.7963 -0.4180
  902TIP3   OH2 2627   3.415   1.302   0.079  0.1268  0.6138 -0.2431
  902TIP3    H1 2628   3.331   1.347   0.086  0.5307  1.4275 -0.5227
  902TIP3    H2 2629   3.461   1.323   0.160  0.6258  1.3708 -0.7054
  903TIP3   OH2 2630   1.206   7.299   6.525  0.1534  0.1586 -0.3506
  903TIP3    H1 2631   1.282   7.348   6.492 -0.0531  0.7007 -0.0406
  903TIP3    H2 2632   1.224   7.208   6.502  1.1818  0.1960  0.2205
  904TIP3   OH2 2633   2.902   6.554   3.783  0.3803  0.3798 -0.6230
  904TIP3    H1 2634   2.927   6.637   3.824 -0.8626  0.5931 -0.2499
  904TIP3    H2 2635   2.866   6.579   3.698  0.3092  0.1936 -0.6479
  905TIP3   OH2 2636   0.267   4.345   5.264 -0.5799  0.1625  0.4679
  905TIP3    H1 2637   0.238   4.292   5.190  0.0397 -0.7066  0.8403
  905TIP3    H2 2638   0.206   4.419   5.265 -1.5967 -0.6409  0.0755
  906TIP3   OH2 2639   5.556   2.515   5.063 -0.5250  0.3182  0.2802
  906TIP3    H1 2640   5.465   2.489   5.058  0.0288 -1.7091 -3.9983
  906TIP3    H2 2641   5.602   2.439   5.099 -0.2311 -0.0427 -0.8003
  907TIP3   OH2 2642  -0.004   2.344   0.470  0.3585  0.3694 -0.5836
  907TIP3    H1 2643  -0.015   2.434   0.502  1.5738  0.2436  0.2666
  907TIP3    H2 2644   0.061   2.306   0.529 -0.2196 -1.1148 -0.8745
  908TIP3   OH2 2645   3.958   4.920   3.046 -0.5468 -0.1708 -0.0144
  908TIP3    H1 2646   4.024   4.944   2.981  0.1909 -0.1891  0.7183
  908TIP3    H2 2647   3.913   4.845   3.007  0.9257 -1.1846  0.1410
  909TIP3   OH2 2648   5.459   5.628   6.601 -0.2299 -0.1756 -0.0787
  909TIP3    H1 2649   5.374   5.583   6.593 -0.3938 -0.0731  0.8703
  909TIP3    H2 2650   5.439   5.719   6.583 -1.0319  0.4415  3.1601
  910TIP3   OH2 2651   8.676   2.843   3.456  0.0107  0.1927 -0.0165
  910TIP3    H1 2652   8.705   2.752   3.453 -1.4003 -0.4189  2.2126
  910TIP3    H2 2653   8.596   2.845   3.403 -1.1636 -0.4445  1.6398
  911TIP3   OH2 2654   4.981   3.521   1.072  0.4079  0.5164 -0.0137
  911TIP3    H1 2655   4.929   3.462   1.017  0.2773  1.7968 -1.3285
  911TIP3    H2 2656   4.950   3.504   1.161 -1.2117  0.1635 -0.6056
  912TIP3   OH2 2657   3.210   3.126   6.855  0.2132 -0.4631  0.2776
  912TIP3    H1 2658   3.166   3.190   6.799  0.1194 -0.7298  0.0375
  912TIP3    H2 2659   3.146   3.055   6.864  0.8088 -1.1405 -0.5886
  913TIP3   OH2 2660   4.185   5.640   5.788 -0.1003  0.0153  0.1663
  913TIP3    H1 2661   4.217   5.727   5.811 -1.2758  0.7286 -0.8026
  913TIP3    H2 2662   4.264   5.592   5.763  0.6397  0.5837  1.2913
  914TIP3   OH2 2663   1.619   1.503   7.002  0.2324 -0.1505  0.6711
  914TIP3    H1 2664   1.694   1.458   7.040  1.0645  0.8507  0.2678
  914TIP3    H2 2665   1.614   1.470   6.912  3.4338  3.3198 -1.1073
  915TIP3   OH2 2666   5.873   0.319   1.469 -0.5149  0.0677 -0.0984
  915TIP3    H1 2667   5.886   0.381   1.541  1.1208  0.5472 -0.7606
  915TIP3    H2 2668   5.946   0.257   1.477 -1.6650 -1.3333  0.0628
  916TIP3   OH2 2669   4.612   1.562   1.943  0.2161  0.1799  0.2766
  916TIP3    H1 2670   4.533   1.506   1.945 -1.7001  2.6990 -0.0736
  916TIP3    H2 2671   4.659   1.533   1.865 -0.8686 -0.7519 -0.0706
  917TIP3   OH2 2672   0.725   0.760   5.643 -0.5345 -0.0098 -0.0916
  917TIP3    H1 2673   0.771   0.832   5.686 -2.0395  0.2880  1.1442
  917TIP3    H2 2674   0.681   0.714   5.715 -0.1691 -1.7634 -0.9275
  918TIP3   OH2 2675   6.309   6.092   5.481 -0.2215 -0.0479  0.1042
  918TIP3    H1 2676   6.265   6.048   5.408  0.9644  0.4859 -0.9776
  918TIP3    H2 2677   6.291   6.185   5.468  0.9228  0.1451 -0.1630
  919TIP3   OH2 2678   1.735   2.005   5.911 -0.7372  0.5232  0.4166
  919TIP3    H1 2679   1.771   1.917   5.899  0.8673  1.4328 -2.2248
  919TIP3    H2 2680   1.643   1.990   5.934 -0.2854 -1.8297  0.9522
  920TIP3   OH2 2681   3.419   5.550   3.542  0.1897 -0.2225  0.1556
  920TIP3    H1 2682   3.327   5.547   3.569 -0.0770 -2.4677 -0.7535
  920TIP3    H2 2683   3.429   5.473   3.485  2.3423  0.6440 -0.7218
  921TIP3   OH2 2684   7.757   6.057   2.074  0.2012  0.0409 -0.1853
  921TIP3    H1 2685   7.690   6.123   2.091 -0.5027 -0.5215 -0.7095
  921TIP3    H2 2686   7.719   5.975   2.105  0.7687 -0.2423 -0.2136
  922TIP3   OH2 2687   7.627   1.144   4.341  0.5543 -0.3050  0.4062
  922TIP3    H1 2688   7.711   1.105   4.314  0.5405 -1.5063  1.9428
  922TIP3    H2 2689   7.638   1.163   4.434 -0.4920  0.6368  0.3568
  923TIP3   OH2 2690   7.594   7.287   1.167 -0.1416  0.0749 -0.2549
  923TIP3    H1 2691   7.584   7.259   1.076 -1.3779  1.4164 -0.5802
  923TIP3    H2 2692   7.608   7.381   1.161 -0.5857  0.2333  0.9496
  924TIP3   OH2 2693   3.329   5.915   3.019 -0.2517 -0.2857  0.1308
  924TIP3    H1 2694   3.346   5.974   2.946  0.4175 -0.6487 -0.0150
  924TIP3    H2 2695   3.407   5.859   3.024 -1.8042 -2.7420 -1.2403
  925TIP3   OH2 2696   4.889   5.232   5.396 -0.2270  0.2434 -0.2939
  925TIP3    H1 2697   4.874   5.228   5.302 -1.3025  1.1754 -0.1755
  925TIP3    H2 2698   4.822   5.174   5.433  1.4742 -1.8101 -0.1674
  926TIP3   OH2 2699   8.013   7.787   2.090 -0.7808 -0.5257  0.6916
  926TIP3    H1 2700   8.078   7.764   2.156 -0.5411 -0.7022  0.4000
  926TIP3    H2 2701   7.931   7.800   2.139 -0.7025 -1.0767  0.9705
  927TIP3   OH2 2702   1.635   5.053   0.870  0.1538  0.0307 -0.0962
  927TIP3    H1 2703   1.683   5.066   0.788  0.7743  0.3044  0.3064
  927TIP3    H2 2704   1.544   5.040   0.842 -0.0332  2.2283 -0.7352
  928TIP3   OH2 2705   0.458   3.612   2.398 -0.6287  0.5783 -0.5487
  928TIP3    H1 2706   0.387   3.576   2.345  1.0087  0.2032 -2.6169
  928TIP3    H2 2707   0.536   3.600   2.345  0.7904  2.3564  0.9941
  929TIP3   OH2 2708   2.153   7.456   5.865 -0.0997 -0.3462  0.1391
  929TIP3    H1 2709   2.188   7.483   5.950  1.5840  1.8978 -1.1707
  929TIP3    H2 2710   2.227   7.413   5.822  0.4142  2.1412 -1.6729
  930TIP3   OH2 2711   3.631   1.080   6.570 -0.5517 -0.6810  0.0039
  930TIP3    H1 2712   3.609   1.083   6.663 -1.3724 -0.3132 -0.1898
  930TIP3    H2 2713   3.629   1.171   6.542  0.1070 -0.7522 -0.2897
  931TIP3   OH2 2714   4.119   0.645   4.162  0.5671  0.5025  0.4374
  931TIP3    H1 2715   4.088   0.554   4.166  0.7572  0.4603  1.1071
  931TIP3    H2 2716   4.045   0.694   4.125  0.1350  0.2163  0.9120
  932TIP3   OH2 2717   6.678   1.738   3.410  0.1456 -0.4343 -0.4395
  932TIP3    H1 2718   6.746   1.768   3.470 -0.2561  1.2994 -0.8167
  932TIP3    H2 2719   6.716   1.749   3.323  0.0028 -1.0878 -0.5899
  933TIP3   OH2 2720   1.806   6.198   5.215 -0.2990 -0.4209 -0.0841
  933TIP3    H1 2721   1.769   6.285   5.226  0.7763 -0.2190  2.7581
  933TIP3    H2 2722   1.901   6.211   5.218 -0.0986 -1.5875 -0.6356
  934TIP3   OH2 2723   6.367   6.024   6.908  0.1863  0.1077 -0.4461
  934TIP3    H1 2724   6.450   6.024   6.957  1.4099 -1.7940 -2.3594
  934TIP3    H2 2725   6.381   6.087   6.838 -0.8887  1.4551  0.4882
  935TIP3   OH2 2726   3.279   6.895   4.679  0.3692  0.2404 -0.0669
  935TIP3    H1 2727   3.323   6.819   4.717  0.5079  0.7118  0.7370
  935TIP3    H2 2728   3.313   6.901   4.590 -0.6342 -1.4229 -0.5949
  936TIP3   OH2 2729   6.523   2.097   3.518 -0.0735  0.1062  0.1661
  936TIP3    H1 2730   6.525   2.014   3.566 -0.3594 -0.3661 -0.6272
  936TIP3    H2 2731   6.594   2.148   3.556  1.6353 -1.3802 -0.8844
  937TIP3   OH2 2732   5.719   3.251   6.486  0.9782 -0.2013  0.2817
  937TIP3    H1 2733   5.712   3.338   6.447 -2.0475 -0.2078  0.5788
  937TIP3    H2 2734   5.733   3.267   6.579  0.1711  0.0038  0.3751
  938TIP3   OH2 2735   6.716   4.070   3.532 -0.2335  0.0678 -0.0030
  938TIP3    H1 2736   6.650   4.039   3.594  0.3928 -0.1050  0.5881
  938TIP3    H2 2737   6.666   4.118   3.466 -1.3299 -2.6578 -1.2958
  939TIP3   OH2 2738   7.175   1.949   3.539  0.0926 -0.1426  0.4472
  939TIP3    H1 2739   7.222   1.912   3.614  0.2855  0.8713  0.8515
  939TIP3    H2 2740   7.231   1.930   3.464  0.6942  0.2242  0.7940
  940TIP3   OH2 2741   3.446   0.360   0.262  0.1467  0.0166 -0.1555
  940TIP3    H1 2742   3.508   0.341   0.191  1.2845  2.9147 -0.0814
  940TIP3    H2 2743   3.490   0.428   0.314 -2.7824  1.6953  0.3233
  941TIP3   OH2 2744   7.810   2.117   0.005  0.3092 -0.1044 -0.5963
  941TIP3    H1 2745   7.817   2.169   0.086 -1.6041 -0.4629 -0.1736
  941TIP3    H2 2746   7.896   2.076  -0.004 -0.0559 -1.8307  2.4934
  942TIP3   OH2 2747   5.316   1.033   4.873  0.7220 -0.2489  0.3233
  942TIP3    H1 2748   5.318   0.985   4.791 -1.2356 -2.3857  1.3904
  942TIP3    H2 2749   5.281   1.120   4.850  1.6190 -0.2870 -1.2604
  943TIP3   OH2 2750   1.179   6.779   0.247  0.3269  0.2946 -0.3096
  943TIP3    H1 2751   1.269   6.772   0.217  0.6053  1.1075  0.3053
  943TIP3    H2 2752   1.170   6.870   0.277 -0.6819  0.2180 -0.3353
  944TIP3   OH2 2753   8.243   3.992   0.001 -0.1512 -0.3809 -0.1480
  944TIP3    H1 2754   8.204   3.906   0.011 -1.3315  0.1783  0.3175
  944TIP3    H2 2755   8.208   4.043   0.075 -0.6447  0.9011 -1.2156
  945TIP3   OH2 2756   5.680   6.707   2.188 -0.1280  0.1515 -0.0850
  945TIP3    H1 2757   5.696   6.691   2.095  1.5448  0.1605  0.1667
  945TIP3    H2 2758   5.640   6.626   2.219 -1.3227  0.3873 -0.9265
  946TIP3   OH2 2759   1.501   7.807   1.684  0.0909 -0.6637  0.2355
  946TIP3    H1 2760   1.465   7.743   1.745 -0.2851 -1.0317 -0.3531
  946TIP3    H2 2761   1.542   7.753   1.616  2.7633 -0.2820  1.4216
  947TIP3   OH2 2762   6.244   1.031   5.041  0.2464 -0.1483 -0.5886
  947TIP3    H1 2763   6.177   0.985   5.092  0.3490 -1.6278 -1.7077
  947TIP3    H2 2764   6.230   1.123   5.060 -0.4899 -0.5804  1.1464
  948TIP3   OH2 2765   0.365   5.434   1.791 -0.1033 -0.1401 -0.1176
  948TIP3    H1 2766   0.327   5.414   1.705 -0.5088 -0.6148  0.1606
  948TIP3    H2 2767   0.328   5.367   1.849  2.7673 -1.9717 -0.2192
  949TIP3   OH2 2768   6.487   8.053   3.276  1.1959 -0.1909 -0.0116
  949TIP3    H1 2769   6.419   8.004   3.230  0.0173 -0.1476  1.6010
  949TIP3    H2 2770   6.518   8.117   3.212  0.7056 -1.1263 -1.2164
  950TIP3   OH2 2771   3.673   8.150   3.224  0.7236  0.5540  0.0037
  950TIP3    H1 2772   3.601   8.200   3.262  2.1295  2.0355  0.8660
  950TIP3    H2 2773   3.750   8.205   3.238  1.8052 -0.2436 -2.2841
  951TIP3   OH2 2774   6.192   2.932   2.376 -0.1847  0.2042 -0.6776
  951TIP3    H1 2775   6.212   2.838   2.382 -1.0525  0.0596  0.5303
  951TIP3    H2 2776   6.098   2.935   2.355 -0.3543  0.7724  0.0959
  952TIP3   OH2 2777   7.025   7.488   0.305  0.0626  0.0934  0.5681
  952TIP3    H1 2778   7.015   7.501   0.399 -1.2897 -0.3023  0.4985
  952TIP3    H2 2779   6.968   7.414   0.284 -1.1505  1.3663 -0.8584
  953TIP3   OH2 2780   8.150   5.350   6.865  0.3816  0.1041 -0.1459
  953TIP3    H1 2781   8.182   5.261   6.881  3.1311  1.1510  0.6114
  953TIP3    H2 2782   8.159   5.362   6.771 -0.6142 -0.6093 -0.3470
  954TIP3   OH2 2783   2.355   3.628   3.164  0.0077  0.1491  0.3231
  954TIP3    H1 2784   2.293   3.699   3.154 -2.2618 -2.0227 -2.5023
  954TIP3    H2 2785   2.414   3.636   3.089 -0.3658 -0.9591 -0.1145
  955TIP3   OH2 2786   6.285   1.808   6.014 -0.5215  0.0994 -0.2118
  955TIP3    H1 2787   6.362   1.861   5.992 -0.5910  0.7073  0.9407
  955TIP3    H2 2788   6.319   1.720   6.029 -0.4125 -0.2430 -2.2356
  956TIP3   OH2 2789   5.097   2.534   6.491 -0.0103  0.0467  0.1528
  956TIP3    H1 2790   5.119   2.626   6.505  1.7218 -0.3401  0.2486
  956TIP3    H2 2791   5.161   2.486   6.545 -1.9605 -1.2089  1.4803
  957TIP3   OH2 2792   5.263   7.290   0.723 -0.0034  0.5128 -0.1668
  957TIP3    H1 2793   5.302   7.234   0.790 -1.1956 -0.2933 -0.1075
  957TIP3    H2 2794   5.289   7.379   0.747 -0.4883  0.2528  1.4517
  958TIP3   OH2 2795   1.111   3.512   1.188  0.1941  0.1240  0.3914
  958TIP3    H1 2796   1.100   3.525   1.094  0.3398  0.2707  0.3949
  958TIP3    H2 2797   1.203   3.532   1.205  0.4249 -0.8673  0.4065
  959TIP3   OH2 2798   8.467   0.565   1.499  0.5211 -0.0976 -0.0782
  959TIP3    H1 2799   8.546   0.609   1.530 -0.4455  0.8599  1.0956
  959TIP3    H2 2800   8.407   0.568   1.573 -1.3702  1.0403 -1.5690
  960TIP3   OH2 2801   1.836   5.066   6.798  0.1717 -0.6739 -0.4761
  960TIP3    H1 2802   1.909   5.011   6.826  0.0100 -0.7892 -0.2773
  960TIP3    H2 2803   1.759   5.008   6.804 -0.0338 -0.3558 -0.0411
  961TIP3   OH2 2804   5.456   3.002   2.652  0.6170 -0.3359 -0.3310
  961TIP3    H1 2805   5.396   3.006   2.726  0.4200 -1.9486 -0.3619
  961TIP3    H2 2806   5.399   3.002   2.575  0.8124  1.1309 -0.5148
  962TIP3   OH2 2807   4.130   2.456   4.884  0.4791 -0.1460  0.0401
  962TIP3    H1 2808   4.103   2.503   4.963 -0.1266 -1.1608  0.4638
  962TIP3    H2 2809   4.225   2.456   4.888  0.4853  0.8337  0.1465
  963TIP3   OH2 2810   5.954   0.750   1.320  0.1471  0.0801  0.8067
  963TIP3    H1 2811   5.926   0.687   1.253  1.1628 -0.2725  0.7022
  963TIP3    H2 2812   6.049   0.750   1.314  0.1726  1.2671  1.1501
  964TIP3   OH2 2813   0.470   0.455   6.379  0.0618  0.0026  0.4579
  964TIP3    H1 2814   0.480   0.544   6.414  0.7787 -0.0433  0.3903
  964TIP3    H2 2815   0.406   0.414   6.436 -0.4974  0.6553  0.3141
  965TIP3   OH2 2816   1.000   6.674   4.699 -0.3246 -0.2629  0.0984
  965TIP3    H1 2817   1.091   6.655   4.720 -0.1579  1.7658  1.5060
  965TIP3    H2 2818   1.003   6.755   4.648 -1.3143 -0.5398 -0.4343
  966TIP3   OH2 2819   4.820   1.218   4.535  0.5150 -0.2410  0.0685
  966TIP3    H1 2820   4.806   1.212   4.441  2.3785 -0.3825 -0.2465
  966TIP3    H2 2821   4.885   1.288   4.545  0.9858 -0.7973  1.1625
  967TIP3   OH2 2822   1.080   7.638   0.459 -0.2745 -0.6303 -0.5050
  967TIP3    H1 2823   1.152   7.582   0.488 -0.7354 -1.2088 -0.4578
  967TIP3    H2 2824   1.106   7.667   0.372 -0.1344 -1.1176 -0.6315
  968TIP3   OH2 2825   3.487   2.870   5.791  0.4763  0.0878  0.3715
  968TIP3    H1 2826   3.554   2.933   5.818 -2.2827  2.0767  3.3041
  968TIP3    H2 2827   3.480   2.810   5.866 -0.6160 -0.4317 -0.1282
  969TIP3   OH2 2828   7.665   5.252   1.319 -0.0807  0.1669  0.6104
  969TIP3    H1 2829   7.747   5.227   1.276 -0.8295  0.0785 -0.8487
  969TIP3    H2 2830   7.613   5.172   1.321 -0.6028  0.4900  0.3866
  970TIP3   OH2 2831   1.754   3.549   4.761  0.0167 -0.1155 -0.0429
  970TIP3    H1 2832   1.675   3.588   4.799 -0.1357  0.8087 -1.2627
  970TIP3    H2 2833   1.812   3.535   4.836 -2.1948 -3.1749  1.3202
  971TIP3   OH2 2834   4.626   7.873   0.755  0.3121 -0.0114  0.3306
  971TIP3    H1 2835   4.663   7.960   0.769  0.4464  0.1243 -0.7507
  971TIP3    H2 2836   4.532   7.889   0.742  0.1865 -0.1348  1.0704
  972TIP3   OH2 2837   7.547   0.587   5.254  0.3651 -0.5734  0.5295
  972TIP3    H1 2838   7.500   0.523   5.307  0.8714 -1.8187 -0.4667
  972TIP3    H2 2839   7.490   0.603   5.179  0.3812 -0.1038  0.6185
  973TIP3   OH2 2840   4.480   1.526   5.413 -0.0725 -0.3839 -0.8816
  973TIP3    H1 2841   4.421   1.539   5.338  0.1291 -0.1169 -0.9931
  973TIP3    H2 2842   4.505   1.434   5.407 -1.5386 -0.8733 -0.0603
  974TIP3   OH2 2843   0.438   6.270   2.711 -0.0988 -0.2374 -0.1028
  974TIP3    H1 2844   0.435   6.358   2.673  1.4046 -0.1466 -0.0913
  974TIP3    H2 2845   0.487   6.280   2.792 -1.0175 -0.8874  0.5522
  975TIP3   OH2 2846   4.437   1.819   1.846  0.7885 -0.3744  0.2743
  975TIP3    H1 2847   4.518   1.856   1.812  0.6984 -0.3110  0.1279
  975TIP3    H2 2848   4.466   1.749   1.905  0.9913  0.5061  1.2615
  976TIP3   OH2 2849   2.515   5.314   3.194 -0.3202 -0.3013 -0.1347
  976TIP3    H1 2850   2.582   5.325   3.262 -1.3341 -0.7379  0.9721
  976TIP3    H2 2851   2.516   5.221   3.175 -0.1099 -0.1948 -0.6770
  977TIP3   OH2 2852   5.791   3.708   0.276  0.0194  0.3486  0.6118
  977TIP3    H1 2853   5.772   3.631   0.329  1.1523 -0.4671 -0.1399
  977TIP3    H2 2854   5.824   3.773   0.339  0.8953 -0.4433  0.9815
  978TIP3   OH2 2855   3.424   4.823   5.956  0.3282 -0.2382 -0.1026
  978TIP3    H1 2856   3.491   4.876   5.912  1.0417 -2.2406 -1.5663
  978TIP3    H2 2857   3.360   4.804   5.887 -1.1057  0.5671  0.9649
  979TIP3   OH2 2858   1.214   5.609   6.353  0.2962  0.2213  0.3330
  979TIP3    H1 2859   1.149   5.539   6.360 -0.2780  0.8288  1.2618
  979TIP3    H2 2860   1.163   5.687   6.332  0.7348  0.6910  1.0081
  980TIP3   OH2 2861   3.812   4.610   0.650 -0.4693  0.5370 -0.0295
  980TIP3    H1 2862   3.787   4.653   0.568  0.6086  1.9444  0.3452
  980TIP3    H2 2863   3.802   4.678   0.717 -0.4744 -0.3390  0.8804
  981TIP3   OH2 2864   4.274   6.878   2.887  0.2469 -0.1760  0.1897
  981TIP3    H1 2865   4.255   6.888   2.794 -0.2690  0.8824  0.3943
  981TIP3    H2 2866   4.331   6.952   2.908 -1.2659  0.7721  1.1283
  982TIP3   OH2 2867   6.729   1.404   1.705  0.2659  0.4935 -0.2104
  982TIP3    H1 2868   6.783   1.433   1.778  0.1205  0.7677 -0.2134
  982TIP3    H2 2869   6.792   1.366   1.643  0.3538 -0.0629  0.2095
  983TIP3   OH2 2870   7.073   4.626   4.740 -0.0076 -0.3894  0.4248
  983TIP3    H1 2871   7.055   4.573   4.818 -1.0377 -0.4422  0.1619
  983TIP3    H2 2872   7.158   4.667   4.759 -0.4530 -0.0230  1.7895
  984TIP3   OH2 2873   3.206   1.035   2.938  0.0107 -0.0023  0.5376
  984TIP3    H1 2874   3.231   0.995   3.022  0.8449  0.4588  0.5193
  984TIP3    H2 2875   3.137   1.098   2.962 -0.5361 -0.6526  0.7147
  985TIP3   OH2 2876   8.206   1.165   1.793 -0.5965 -0.2827 -0.2635
  985TIP3    H1 2877   8.294   1.202   1.802  1.3338 -3.8934 -1.8408
  985TIP3    H2 2878   8.181   1.183   1.702 -0.5249 -1.0103 -0.4366
  986TIP3   OH2 2879   1.316   6.372   1.728 -0.2756 -0.7570 -0.3440
  986TIP3    H1 2880   1.398   6.414   1.703 -0.0530 -1.5658 -1.0065
  986TIP3    H2 2881   1.338   6.280   1.741 -0.9840 -0.8975 -0.0553
  987TIP3   OH2 2882   6.760   4.699   2.870 -0.0616  0.3600 -0.4193
  987TIP3    H1 2883   6.725   4.767   2.812  2.6494  0.6608 -1.8758
  987TIP3    H2 2884   6.800   4.747   2.942 -0.5327  0.1287  0.0066
  988TIP3   OH2 2885   6.920   8.025   2.810 -0.7071  0.2362  0.2332
  988TIP3    H1 2886   6.997   8.077   2.789  0.8238 -2.0541 -0.2121
  988TIP3    H2 2887   6.943   7.936   2.784 -2.2997 -1.1358  3.0048
  989TIP3   OH2 2888   7.247   7.083   2.888 -0.6096  0.1534 -0.4356
  989TIP3    H1 2889   7.223   7.162   2.841  0.5173  0.4781 -0.4789
  989TIP3    H2 2890   7.172   7.066   2.947 -0.4192  1.8214  0.3270
  990TIP3   OH2 2891   2.524   0.714   2.229 -0.2427  0.6890 -0.2167
  990TIP3    H1 2892   2.444   0.673   2.262 -0.7257  0.5239 -1.5124
  990TIP3    H2 2893   2.592   0.649   2.244 -0.3075  0.8764  1.0041
  991TIP3   OH2 2894   6.032   3.247   1.775  0.1287  0.1385  0.1494
  991TIP3    H1 2895   6.046   3.328   1.726  0.3279 -0.4668 -0.8291
  991TIP3    H2 2896   5.936   3.240   1.782  0.0926  1.6019  2.2717
  992TIP3   OH2 2897   1.484   0.673   2.825 -0.2446 -0.0345  0.2444
  992TIP3    H1 2898   1.417   0.699   2.761  1.1409  0.2578 -1.1468
  992TIP3    H2 2899   1.483   0.577   2.823 -1.3449 -0.0682  1.0656
  993TIP3   OH2 2900   0.733   4.180   6.794  0.3444  0.1068  0.6551
  993TIP3    H1 2901   0.686   4.253   6.752  0.7776  0.3632  0.6135
  993TIP3    H2 2902   0.668   4.110   6.799 -0.4067  0.8524  1.7049
  994TIP3   OH2 2903   2.187   1.122   3.723  0.1812  0.6947  0.4454
  994TIP3    H1 2904   2.191   1.110   3.628 -0.2093  0.6075  0.4365
  994TIP3    H2 2905   2.278   1.118   3.752  0.1922 -0.8704  0.2649
  995TIP3   OH2 2906   1.804   4.461   3.250 -0.1548  0.4266 -0.0167
  995TIP3    H1 2907   1.788   4.367   3.253  1.6246  0.1103  1.0682
  995TIP3    H2 2908   1.849   4.480   3.332 -1.8684  2.5304  0.5244
  996TIP3   OH2 2909   5.910   5.911   0.652 -0.2054 -0.3075 -0.1788
  996TIP3    H1 2910   5.953   5.838   0.696  1.9276  0.9220 -0.0829
  996TIP3    H2 2911   5.870   5.962   0.722  1.8314  0.7891  0.2535
  997TIP3   OH2 2912   1.025   7.364   0.794  0.2932 -0.6770 -0.6624
  997TIP3    H1 2913   1.100   7.414   0.764 -0.4331  0.3978 -0.7328
  997TIP3    H2 2914   1.009   7.396   0.883 -1.2933  0.5805 -1.3538
  998TIP3   OH2 2915   1.287   1.639   6.153 -0.4212  0.4524  0.3601
  998TIP3    H1 2916   1.285   1.593   6.069 -1.8493  0.1450  0.5371
  998TIP3    H2 2917   1.265   1.730   6.130 -1.2333  0.2829  0.4363
  999TIP3   OH2 2918   8.075   6.583   3.789  0.9376 -0.4807  0.0624
  999TIP3    H1 2919   8.048   6.576   3.698  0.7476  0.3455  0.0491
  999TIP3    H2 2920   8.037   6.665   3.820 -1.3576 -2.0445  1.7080
 1000TIP3   OH2 2921   2.395   2.805   2.929  0.1188  0.1521 -0.1049
 1000TIP3    H1 2922   2.377   2.714   2.955 -0.4141  0.4148  0.4763
 1000TIP3    H2 2923   2.339   2.857   2.986  0.5012  0.8558 -0.3654
 1001TIP3   OH2 2924   4.511   5.403   6.295  0.0125 -0.1275 -0.0168
 1001TIP3    H1 2925   4.567   5.447   6.360 -1.2167 -0.0128  1.0291
 1001TIP3    H2 2926   4.427   5.448   6.304  0.0165  0.4277 -2.3010
 1002TIP3   OH2 2927   8.082   5.036   4.348 -0.7009 -0.1719  0.0965
 1002TIP3    H1 2928   8.106   5.054   4.257  0.4750 -0.7857  0.2652
 1002TIP3    H2 2929   8.148   4.974   4.379 -2.3266 -1.6827  0.7201
 1003TIP3   OH2 2930   1.577   7.608   4.058  0.4772  0.0956  0.2322
 1003TIP3    H1 2931   1.524   7.644   3.987 -0.7559 -1.3468  0.3802
 1003TIP3    H2 2932   1.570   7.673   4.129  0.1001  0.5948 -0.2535
 1004TIP3   OH2 2933   7.145   3.491   5.982  0.0681 -0.5207 -0.3637
 1004TIP3    H1 2934   7.099   3.450   6.055  0.6864 -1.0486 -0.2658
 1004TIP3    H2 2935   7.120   3.440   5.906 -0.0612 -0.3720 -0.4214
 1005TIP3   OH2 2936   8.143   0.485   6.935 -0.6217 -0.3313 -0.0971
 1005TIP3    H1 2937   8.066   0.444   6.973 -1.0824 -0.1916 -0.8570
 1005TIP3    H2 2938   8.159   0.562   6.989 -0.6486 -0.6941  0.4304
 1006TIP3   OH2 2939   5.020   1.245   0.797  0.1534 -0.3533 -0.0488
 1006TIP3    H1 2940   4.946   1.220   0.853  0.9892 -0.3094  1.1084
 1006TIP3    H2 2941   4.979   1.279   0.717 -1.0382 -2.6712 -0.4855
 1007TIP3   OH2 2942   5.383   0.419   1.191 -0.2971 -0.2218  0.6088
 1007TIP3    H1 2943   5.397   0.325   1.178 -0.2424 -0.2159  0.6278
 1007TIP3    H2 2944   5.387   0.456   1.103 -1.6427 -0.4205  0.4375
 1008TIP3   OH2 2945   1.334   2.197   4.994 -0.0886  0.3662 -0.2262
 1008TIP3    H1 2946   1.262   2.146   4.957 -0.1902  0.0868  0.3471
 1008TIP3    H2 2947   1.402   2.132   5.012  0.1236  0.5619 -0.3153
 1009TIP3   OH2 2948   6.781   0.636   5.019 -0.4496  0.1981  0.2862
 1009TIP3    H1 2949   6.846   0.705   5.030 -1.0797  0.8500  0.0537
 1009TIP3    H2 2950   6.777   0.622   4.925 -1.9857  1.5306  0.1029
 1010TIP3   OH2 2951   4.407   4.108   0.289 -0.6185  0.0142  0.1785
 1010TIP3    H1 2952   4.342   4.059   0.239  1.1582 -1.5288 -0.7642
 1010TIP3    H2 2953   4.445   4.169   0.225 -0.9849  0.7554  0.6618
 1011TIP3   OH2 2954   1.773   0.883   3.011 -0.3019  0.7115 -0.1008
 1011TIP3    H1 2955   1.829   0.806   3.012 -2.2086 -0.8199 -1.8252
 1011TIP3    H2 2956   1.710   0.869   3.081 -0.9071  0.4556 -0.6815
 1012TIP3   OH2 2957   5.159   0.893   1.983 -0.1494  0.1997 -0.2004
 1012TIP3    H1 2958   5.161   0.917   2.076  0.0955  2.4184 -0.7350
 1012TIP3    H2 2959   5.086   0.832   1.977 -1.1691  1.1902  1.2183
 1013TIP3   OH2 2960   6.145   7.712   0.512  0.1256  0.3451 -0.2183
 1013TIP3    H1 2961   6.240   7.720   0.506  0.1478  3.4230  2.1296
 1013TIP3    H2 2962   6.114   7.726   0.423  1.8356 -1.5319 -1.1797
 1014TIP3   OH2 2963   3.082   2.947   2.380 -0.1891  0.5989 -0.4101
 1014TIP3    H1 2964   3.050   2.926   2.292  1.8979 -0.8693 -0.8931
 1014TIP3    H2 2965   3.084   2.862   2.425 -1.9209  1.4199  1.3579
 1015TIP3   OH2 2966   7.388   6.926   2.410 -0.6255  0.3386  0.4103
 1015TIP3    H1 2967   7.349   6.854   2.360 -0.0739  0.1589  0.2258
 1015TIP3    H2 2968   7.314   6.976   2.443 -1.0199 -0.3670  0.6159
 1016TIP3   OH2 2969   2.935   6.362   0.265 -0.3740  0.0600  0.6377
 1016TIP3    H1 2970   2.886   6.298   0.214 -0.1701  1.1839 -1.0296
 1016TIP3    H2 2971   2.925   6.333   0.356 -2.1282 -1.0816  0.1242
 1017TIP3   OH2 2972   1.359   0.044   5.982 -0.1570 -0.1387 -0.1991
 1017TIP3    H1 2973   1.299   0.119   5.988  1.2915  1.0894 -0.2250
 1017TIP3    H2 2974   1.424   0.072   5.917  2.1658 -0.0905  2.0100
 1018TIP3   OH2 2975   4.249   2.264   0.387  0.2984  0.3968 -0.0615
 1018TIP3    H1 2976   4.209   2.180   0.410 -1.4364  1.2317  0.1086
 1018TIP3    H2 2977   4.210   2.327   0.448 -0.3293  1.7414 -1.7599
 1019TIP3   OH2 2978   2.389   4.363   1.643  0.3315 -0.2625 -0.4776
 1019TIP3    H1 2979   2.421   4.297   1.583  1.6536  0.1830 -0.2982
 1019TIP3    H2 2980   2.350   4.430   1.587 -0.6053 -0.9532 -0.6808
 1020TIP3   OH2 2981   4.144   2.325   2.388 -0.4696 -0.3608 -0.4377
 1020TIP3    H1 2982   4.204   2.400   2.394 -1.1085  0.3526 -2.3420
 1020TIP3    H2 2983   4.154   2.280   2.472  2.7674 -0.2942 -0.6627
 1021TIP3   OH2 2984   2.113   4.137   6.717 -0.9454 -0.4485 -0.1038
 1021TIP3    H1 2985   2.180   4.187   6.764 -2.5230  2.7647 -0.9735
 1021TIP3    H2 2986   2.053   4.107   6.786  0.1954 -1.4587  0.4720
 1022TIP3   OH2 2987   4.122   6.654   2.014  0.2213 -0.0862 -0.0707
 1022TIP3    H1 2988   4.180   6.585   1.981  1.6008  1.5898 -1.3668
 1022TIP3    H2 2989   4.042   6.645   1.964  0.9897  0.2060 -1.3875
 1023TIP3   OH2 2990   8.230   4.084   4.511 -0.3715  0.2661  0.1407
 1023TIP3    H1 2991   8.183   4.141   4.573 -0.6771 -0.0042  0.1615
 1023TIP3    H2 2992   8.321   4.086   4.541  0.1028  2.6211 -1.2406
 1024TIP3   OH2 2993   5.410   6.064   1.184 -0.7255 -0.1299  0.1874
 1024TIP3    H1 2994   5.498   6.098   1.201 -0.6339  0.2286 -0.9335
 1024TIP3    H2 2995   5.352   6.130   1.222 -0.5334 -0.7071  1.5588
 1025TIP3   OH2 2996   2.719   4.543   0.655  0.1564  0.5744 -0.7071
 1025TIP3    H1 2997   2.700   4.506   0.568  0.2220 -0.7601 -0.1738
 1025TIP3    H2 2998   2.632   4.558   0.693  0.0833  2.5527 -1.5282
 1026TIP3   OH2 2999   6.628   8.018   4.049 -0.2683  0.1313  0.0700
 1026TIP3    H1 3000   6.706   8.041   3.999 -0.3465 -0.3700 -0.2850
 1026TIP3    H2 3001   6.659   8.007   4.139 -0.3288  2.3241  0.4326
 1027TIP3   OH2 3002   4.743   2.258   5.343  0.5835 -0.1006 -0.0863
 1027TIP3    H1 3003   4.819   2.316   5.337 -0.0673  0.7639 -0.1431
 1027TIP3    H2 3004   4.765   2.184   5.287  0.7109  0.9098 -1.4186
 1028TIP3   OH2 3005   2.855   4.032   6.786 -0.0700  0.2668 -0.5262
 1028TIP3    H1 3006   2.898   4.008   6.868  0.1513  1.0450 -0.4069
 1028TIP3    H2 3007   2.801   4.108   6.808  0.1459  0.6053 -1.1497
 1029TIP3   OH2 3008   2.721   2.130   1.225 -0.1552 -0.4635  0.3474
 1029TIP3    H1 3009   2.703   2.039   1.203  2.8728 -0.9701 -0.4531
 1029TIP3    H2 3010   2.808   2.148   1.188 -0.2483  2.4845  1.2489
 1030TIP3   OH2 3011   7.114   7.453   5.582  0.3132 -0.4610 -0.5806
 1030TIP3    H1 3012   7.098   7.510   5.507 -1.0504  0.9917  0.7235
 1030TIP3    H2 3013   7.064   7.494   5.653  1.2348 -1.9969  1.0143
 1031TIP3   OH2 3014   2.706   2.476   6.938  0.4153 -0.2813 -0.0892
 1031TIP3    H1 3015   2.629   2.442   6.893  0.2743 -1.4955  0.9989
 1031TIP3    H2 3016   2.770   2.491   6.868 -0.2851 -0.7378 -0.8418
 1032TIP3   OH2 3017   4.516   4.325   3.897  0.0282 -0.0585 -0.0824
 1032TIP3    H1 3018   4.500   4.418   3.916 -0.1737 -0.2910  0.9367
 1032TIP3    H2 3019   4.465   4.278   3.963 -0.9132 -0.9256 -1.3821
 1033TIP3   OH2 3020   6.619   2.468   4.790  0.0807 -0.2638 -0.3449
 1033TIP3    H1 3021   6.612   2.381   4.829  1.3183 -0.1268  0.2535
 1033TIP3    H2 3022   6.711   2.475   4.763 -0.6470 -0.2514 -3.1457
 1034TIP3   OH2 3023   2.682   0.645   2.688  0.1428  0.0796 -0.0506
 1034TIP3    H1 3024   2.655   0.697   2.763 -0.8641 -0.5816  0.0639
 1034TIP3    H2 3025   2.649   0.694   2.612  1.0097  0.6584 -0.0655
 1035TIP3   OH2 3026   4.055   0.194   5.782  0.1879  0.4371 -0.2819
 1035TIP3    H1 3027   4.010   0.263   5.831 -0.8939 -0.4166 -0.0423
 1035TIP3    H2 3028   4.090   0.239   5.705 -0.4821  1.2720 -0.1193
 1036TIP3   OH2 3029   6.052   6.832   1.066  0.0446 -0.6178  0.0967
 1036TIP3    H1 3030   6.111   6.773   1.019  0.0178 -0.1909 -0.4886
 1036TIP3    H2 3031   5.990   6.862   0.999 -2.1538 -2.6181  1.0708
 1037TIP3   OH2 3032   6.190   1.511   2.992 -0.4802 -0.0147  0.3863
 1037TIP3    H1 3033   6.206   1.416   2.992  0.2357  0.0574  2.7683
 1037TIP3    H2 3034   6.244   1.544   2.920  0.1232 -1.2749  0.2296
 1038TIP3   OH2 3035   6.793   5.835   2.364  0.0038  0.3133 -0.3550
 1038TIP3    H1 3036   6.729   5.772   2.332 -1.5506  1.0745  1.0402
 1038TIP3    H2 3037   6.856   5.783   2.413 -0.3918 -0.3147 -0.5021
 1039TIP3   OH2 3038   2.709   7.346   4.700 -0.2453  0.1646 -0.0328
 1039TIP3    H1 3039   2.626   7.298   4.705 -1.1187  1.6721  0.3300
 1039TIP3    H2 3040   2.708   7.404   4.776  0.2165  1.6049 -1.0799
 1040TIP3   OH2 3041   0.022   7.656   4.623  0.9350 -0.1892  0.5545
 1040TIP3    H1 3042  -0.052   7.703   4.584  1.1248  0.3001  0.7796
 1040TIP3    H2 3043   0.099   7.704   4.592  1.2360 -1.3687 -0.6122
 1041TIP3   OH2 3044   5.687   4.024   5.162  0.2250 -0.4099 -0.1820
 1041TIP3    H1 3045   5.650   3.940   5.191 -2.2516  0.2210 -1.2335
 1041TIP3    H2 3046   5.657   4.032   5.071  0.3127  1.6646 -0.0599
 1042TIP3   OH2 3047   6.158   6.831   2.814  0.4313 -0.4276  0.1390
 1042TIP3    H1 3048   6.141   6.810   2.722 -0.8897 -0.4080  0.3588
 1042TIP3    H2 3049   6.145   6.926   2.819  1.7967 -0.2243  0.0917
 1043TIP3   OH2 3050   1.584   0.436   3.435  0.2149  0.1327  0.4148
 1043TIP3    H1 3051   1.636   0.513   3.456 -1.1449  0.7517  1.7398
 1043TIP3    H2 3052   1.525   0.426   3.510 -0.3859 -1.5562 -0.2326
 1044TIP3   OH2 3053   6.939   7.905   4.490 -0.9142 -0.4802  0.2915
 1044TIP3    H1 3054   6.952   7.823   4.538 -1.4773 -0.0623  1.2005
 1044TIP3    H2 3055   7.026   7.943   4.483 -0.6427 -1.1713 -0.1796
 1045TIP3   OH2 3056   2.878   1.490   4.544  1.1082  0.1657 -0.0082
 1045TIP3    H1 3057   2.859   1.414   4.599  2.9582  0.0043  0.4515
 1045TIP3    H2 3058   2.973   1.492   4.537  1.0303  1.6289 -1.1917
 1046TIP3   OH2 3059   1.070   7.260   1.959  0.1445 -0.0934  0.6883
 1046TIP3    H1 3060   1.072   7.164   1.957 -1.0948 -0.2146  2.9222
 1046TIP3    H2 3061   1.163   7.285   1.962  0.4717 -1.2771  1.1708
 1047TIP3   OH2 3062   3.577   5.191   5.955 -0.0410 -0.0543  0.1653
 1047TIP3    H1 3063   3.572   5.213   6.048  1.4859  0.6807  0.1069
 1047TIP3    H2 3064   3.512   5.249   5.914  1.6921  2.1964  0.4039
 1048TIP3   OH2 3065   2.440   1.114   4.619  0.5756 -0.0309  0.0293
 1048TIP3    H1 3066   2.530   1.147   4.613  0.6730 -0.3734 -0.5163
 1048TIP3    H2 3067   2.394   1.157   4.546  0.7893 -1.3283 -0.9163
 1049TIP3   OH2 3068   4.702   5.695   6.204 -0.7855  0.1606  0.2935
 1049TIP3    H1 3069   4.716   5.648   6.286 -1.4008 -0.8155 -0.1435
 1049TIP3    H2 3070   4.669   5.781   6.231  0.1198  0.2710  1.0990
 1050TIP3   OH2 3071   8.191   0.771   4.106 -0.1336 -0.3330  0.0107
 1050TIP3    H1 3072   8.276   0.804   4.077 -0.3168  0.6398  0.5334
 1050TIP3    H2 3073   8.191   0.784   4.200 -0.4357 -1.3623  0.1623
 1051TIP3   OH2 3074   4.874   1.049   0.257 -0.3746 -0.2592  0.0324
 1051TIP3    H1 3075   4.829   0.970   0.228  1.2617 -1.2082 -0.0825
 1051TIP3    H2 3076   4.967   1.025   0.256  0.1309  1.5113  0.4948
 1052TIP3   OH2 3077   7.672   4.877   6.408 -0.6427 -0.2233 -0.1599
 1052TIP3    H1 3078   7.609   4.867   6.336  0.9257  0.0986 -1.6337
 1052TIP3    H2 3079   7.724   4.797   6.406  2.0168  1.4174 -2.0615
 1053TIP3   OH2 3080   8.643   0.082   3.133  0.4474 -0.2592  0.7656
 1053TIP3    H1 3081   8.649  -0.013   3.144 -0.9174 -0.5851 -0.8096
 1053TIP3    H2 3082   8.681   0.098   3.046 -0.2076  0.4844  0.6060
 1054TIP3   OH2 3083   5.614   0.204   0.467  0.2368 -0.1297  0.1570
 1054TIP3    H1 3084   5.605   0.222   0.374  2.5126  1.3019  0.1275
 1054TIP3    H2 3085   5.669   0.126   0.471  0.0252 -0.2719  0.2996
 1055TIP3   OH2 3086   8.058   3.702   4.993  0.9233 -0.5084 -0.4583
 1055TIP3    H1 3087   8.034   3.611   4.976  0.8460 -0.5356 -0.1978
 1055TIP3    H2 3088   8.152   3.705   4.979  1.0596 -0.8159  0.3784
 1056TIP3   OH2 3089   5.197   4.991   1.376 -0.4607 -0.1752  0.3550
 1056TIP3    H1 3090   5.138   4.943   1.318  1.1444 -0.5366 -1.0467
 1056TIP3    H2 3091   5.174   4.961   1.464 -1.2826 -1.5049 -0.2857
 1057TIP3   OH2 3092   4.983   5.036   6.702  0.2858  0.2234 -0.0136
 1057TIP3    H1 3093   4.948   4.950   6.724  3.6357 -1.2103  0.2152
 1057TIP3    H2 3094   5.019   5.027   6.614  2.4156  0.7342  0.7410
 1058TIP3   OH2 3095   6.758   6.284   0.842 -0.0701 -0.1516  0.1113
 1058TIP3    H1 3096   6.799   6.337   0.910 -2.0078  0.5205  0.7976
 1058TIP3    H2 3097   6.694   6.342   0.801 -1.4318 -1.5939  0.1108
 1059TIP3   OH2 3098   1.095   5.733   0.553 -0.4933 -0.7197 -0.2021
 1059TIP3    H1 3099   1.146   5.789   0.494 -1.5683  0.7050  0.1546
 1059TIP3    H2 3100   1.053   5.670   0.496 -1.4975  0.6279 -1.0054
 1060TIP3   OH2 3101   3.464   1.454   5.022  0.1847  0.2114 -0.6956
 1060TIP3    H1 3102   3.548   1.431   5.061 -0.1816  0.9163  0.5401
 1060TIP3    H2 3103   3.464   1.549   5.016 -0.8067  0.2744 -0.0021
 1061TIP3   OH2 3104   3.305   7.622   0.176 -0.4950  0.0833 -0.1208
 1061TIP3    H1 3105   3.337   7.650   0.262 -0.4627 -1.2598  0.3356
 1061TIP3    H2 3106   3.378   7.574   0.138 -1.2162 -1.1521  0.0128
 1062TIP3   OH2 3107   3.451   4.644   6.187 -0.2398 -0.2749  0.0577
 1062TIP3    H1 3108   3.542   4.630   6.213 -0.3094 -1.6787 -0.3864
 1062TIP3    H2 3109   3.456   4.705   6.113  0.2328  0.6176  0.8048
 1063TIP3   OH2 3110   8.643   2.724   1.652  0.6087  0.1706 -0.3283
 1063TIP3    H1 3111   8.583   2.794   1.677 -1.0355 -1.4152  0.4277
 1063TIP3    H2 3112   8.648   2.729   1.556 -0.9373  0.2211 -0.4307
 1064TIP3   OH2 3113   6.145   0.740   0.054 -0.1500 -0.0235  0.5626
 1064TIP3    H1 3114   6.118   0.653   0.084  2.8708 -1.4699 -0.4735
 1064TIP3    H2 3115   6.185   0.724  -0.032 -2.0946  2.9021 -1.0477
 1065TIP3   OH2 3116   0.460   7.427   1.865  0.2681  0.3574  0.2434
 1065TIP3    H1 3117   0.497   7.435   1.777 -0.5154 -0.6245 -0.2017
 1065TIP3    H2 3118   0.450   7.517   1.896  2.4936  0.6803  0.1775
 1066TIP3   OH2 3119   0.601   7.252   5.310  0.2687  0.1074  0.0876
 1066TIP3    H1 3120   0.602   7.344   5.283 -0.0501  0.5417  1.4896
 1066TIP3    H2 3121   0.684   7.217   5.277 -1.0838 -0.1013 -3.5755
 1067TIP3   OH2 3122   8.127   6.775   4.773 -0.4081 -0.4611  0.4987
 1067TIP3    H1 3123   8.156   6.810   4.857 -0.4657  2.1483 -0.4832
 1067TIP3    H2 3124   8.208   6.766   4.722 -0.6967  1.9534 -0.5094
 1068TIP3   OH2 3125   1.078   6.668   5.953 -0.6876  0.3302 -0.5177
 1068TIP3    H1 3126   1.012   6.737   5.963 -0.3112  0.5168  1.0030
 1068TIP3    H2 3127   1.084   6.628   6.040  2.0159  1.1020 -0.2399
 1069TIP3   OH2 3128   1.785   2.628   3.000  0.5641  0.3806 -0.4674
 1069TIP3    H1 3129   1.720   2.648   3.068  0.3635  0.1562 -0.5939
 1069TIP3    H2 3130   1.810   2.537   3.017  1.2246  0.6260 -0.1042
 1070TIP3   OH2 3131   3.315   0.704   1.663 -0.5830 -0.3059  0.4413
 1070TIP3    H1 3132   3.226   0.719   1.629 -0.6364  1.0265  1.0815
 1070TIP3    H2 3133   3.301   0.678   1.754 -0.3130  0.9704  0.8702
 1071TIP3   OH2 3134   5.723   7.267   7.009 -0.3909  0.0970 -0.3361
 1071TIP3    H1 3135   5.728   7.356   7.042 -0.9959  0.0184 -0.0063
 1071TIP3    H2 3136   5.801   7.223   7.043 -0.0909  0.4968 -0.5054
 1072TIP3   OH2 3137   3.561   7.989   5.673  0.2781 -0.8178 -0.5520
 1072TIP3    H1 3138   3.593   8.057   5.614  1.0303  0.6965  1.5051
 1072TIP3    H2 3139   3.640   7.956   5.716 -0.3464 -1.2141  0.3152
 1073TIP3   OH2 3140   7.749   4.465   2.769 -0.3894  0.0495  0.5514
 1073TIP3    H1 3141   7.768   4.452   2.677 -0.3672 -1.1412  0.7165
 1073TIP3    H2 3142   7.653   4.467   2.775 -0.5523 -3.4904  0.9189
 1074TIP3   OH2 3143   4.613   1.901   6.178 -0.2792 -0.4497 -0.2898
 1074TIP3    H1 3144   4.565   1.832   6.225  0.0504 -0.4164  0.1036
 1074TIP3    H2 3145   4.597   1.883   6.085 -3.1698  1.0276 -0.1872
 1075TIP3   OH2 3146   5.423   5.470   4.594  0.0615  0.0802 -0.0586
 1075TIP3    H1 3147   5.340   5.517   4.591  0.8217  1.4028 -2.2694
 1075TIP3    H2 3148   5.468   5.505   4.671 -1.3606 -0.5932  1.1105
 1076TIP3   OH2 3149   2.699   1.025   1.670 -0.3325  0.3633 -0.2332
 1076TIP3    H1 3150   2.615   0.980   1.665  0.0205 -0.2565 -1.0165
 1076TIP3    H2 3151   2.678   1.118   1.671 -0.9969  0.2922 -2.3664
 1077TIP3   OH2 3152   8.361   6.972   3.792 -0.0621 -0.1626  0.1808
 1077TIP3    H1 3153   8.321   7.007   3.872 -0.2774  0.3668 -0.1504
 1077TIP3    H2 3154   8.412   6.896   3.821  0.5584  0.5324  0.9384
 1078TIP3   OH2 3155   0.130   1.414   4.633 -0.2504 -0.3108  0.0808
 1078TIP3    H1 3156   0.080   1.480   4.585  1.4352  0.7947 -0.2387
 1078TIP3    H2 3157   0.198   1.386   4.572  0.9173 -0.0952  1.2367
 1079TIP3   OH2 3158   0.752   0.661   0.955 -0.1987  0.4223  0.1620
 1079TIP3    H1 3159   0.709   0.730   1.007 -0.2801  1.7565 -1.5570
 1079TIP3    H2 3160   0.821   0.707   0.908 -1.1089 -0.3524 -2.0760
 1080TIP3   OH2 3161   5.165   7.794   6.092 -0.0409 -0.4657 -0.1494
 1080TIP3    H1 3162   5.187   7.876   6.135 -0.1158 -1.1756  1.3133
 1080TIP3    H2 3163   5.237   7.780   6.030  2.4249 -1.4172  2.6488
 1081TIP3   OH2 3164   4.884   2.512   6.755 -0.1884  0.1220  0.4980
 1081TIP3    H1 3165   4.898   2.461   6.674  0.9786 -0.5752  1.1016
 1081TIP3    H2 3166   4.939   2.468   6.820 -0.7988  0.9167  1.5804
 1082TIP3   OH2 3167   3.336   7.684   6.859 -0.2992  0.2887 -0.5499
 1082TIP3    H1 3168   3.399   7.691   6.788 -0.1637 -0.3117 -0.4935
 1082TIP3    H2 3169   3.288   7.604   6.841 -0.6121  0.4012 -0.2397
 1083TIP3   OH2 3170   0.069   6.105   3.640 -0.3258 -0.5021  0.3457
 1083TIP3    H1 3171   0.145   6.161   3.629 -1.5530  1.0489 -0.6155
 1083TIP3    H2 3172   0.089   6.052   3.718  1.7222 -0.1868  0.0806
 1084TIP3   OH2 3173   3.166   6.010   5.531 -0.0019  0.2692  0.1091
 1084TIP3    H1 3174   3.078   6.019   5.494 -0.7596  1.7983  2.1120
 1084TIP3    H2 3175   3.208   6.095   5.517  1.6529 -0.7823 -1.8404
 1085TIP3   OH2 3176   3.962   6.260   3.891  0.5814  0.2814  0.2912
 1085TIP3    H1 3177   4.034   6.292   3.945  0.6172 -0.6887  0.8439
 1085TIP3    H2 3178   3.969   6.309   3.809 -0.2899  2.7965  1.6033
 1086TIP3   OH2 3179   2.607   4.513   5.327  0.5079 -0.2267  0.1314
 1086TIP3    H1 3180   2.666   4.529   5.254  0.2271  0.7582  0.1080
 1086TIP3    H2 3181   2.537   4.458   5.289 -1.4873  3.0385 -1.3188
 1087TIP3   OH2 3182   6.764   0.788   3.945  0.0264 -0.5817 -0.0223
 1087TIP3    H1 3183   6.779   0.725   4.016 -0.9518 -0.2810  0.4795
 1087TIP3    H2 3184   6.671   0.776   3.923 -0.0492  0.3518 -0.2322
 1088TIP3   OH2 3185   3.137   6.882   6.350 -0.4684 -0.5263 -0.2244
 1088TIP3    H1 3186   3.177   6.842   6.273 -0.0804 -1.0437  0.2385
 1088TIP3    H2 3187   3.060   6.829   6.367 -0.1773 -0.8342  0.1481
 1089TIP3   OH2 3188   6.908   5.026   1.072 -0.0263 -0.7570  0.4361
 1089TIP3    H1 3189   6.859   4.987   0.999  2.0059  0.0329 -1.4628
 1089TIP3    H2 3190   6.840   5.053   1.134 -1.9008 -1.0298 -1.3646
 1090TIP3   OH2 3191   4.924   6.121   4.325  0.2039  0.1349 -0.3480
 1090TIP3    H1 3192   4.892   6.106   4.236  0.9949 -1.8850 -0.3449
 1090TIP3    H2 3193   4.919   6.216   4.336  1.4426  0.6237 -3.0865
 1091TIP3   OH2 3194   0.976   0.486   6.654 -0.2100  0.0078  0.2174
 1091TIP3    H1 3195   1.071   0.474   6.652 -0.1445  0.5069 -0.5163
 1091TIP3    H2 3196   0.961   0.549   6.724 -0.1737 -1.3119  1.4357
 1092TIP3   OH2 3197   5.899   5.361   1.368 -0.0433  0.0912  0.1198
 1092TIP3    H1 3198   5.916   5.370   1.462  0.6114  3.7865 -0.2106
 1092TIP3    H2 3199   5.816   5.407   1.354 -0.2844 -0.6631 -1.1033
 1093TIP3   OH2 3200   2.751   3.743   2.581 -0.2803  0.6404 -0.2340
 1093TIP3    H1 3201   2.779   3.722   2.491  2.6471 -0.2143  0.7702
 1093TIP3    H2 3202   2.690   3.816   2.570 -0.5425  0.1454 -2.9398
 1094TIP3   OH2 3203   5.124   3.003   0.267 -0.1150  0.2417  0.1869
 1094TIP3    H1 3204   5.203   3.014   0.215 -0.0660  1.9360  0.5862
 1094TIP3    H2 3205   5.150   2.943   0.337  0.8811  0.9766  0.4602
 1095TIP3   OH2 3206   1.237   4.233   0.166  0.0850 -0.2028 -0.2608
 1095TIP3    H1 3207   1.216   4.201   0.253 -1.3332 -0.2918 -0.6204
 1095TIP3    H2 3208   1.177   4.306   0.151 -0.6332 -1.0496 -1.6820
 1096TIP3   OH2 3209   3.653   0.460   5.033  0.1036 -0.1301  0.0587
 1096TIP3    H1 3210   3.596   0.396   4.991  1.0836 -2.2922  1.8213
 1096TIP3    H2 3211   3.739   0.445   4.994  0.4892 -0.3878  0.9909
 1097TIP3   OH2 3212   0.788   7.021   6.268 -0.2728 -0.0824  0.5670
 1097TIP3    H1 3213   0.882   7.025   6.288 -0.5973 -0.3665  2.2480
 1097TIP3    H2 3214   0.745   7.045   6.350 -1.6963 -0.7540  0.0436
 1098TIP3   OH2 3215   0.085   5.671   3.279  0.2742 -0.3091  0.4215
 1098TIP3    H1 3216   0.172   5.644   3.252  0.5109  1.6968 -1.0288
 1098TIP3    H2 3217   0.093   5.688   3.373  1.1456 -1.1280  0.5090
 1099TIP3   OH2 3218   1.327   4.247   5.678 -0.7170  0.1034 -0.4034
 1099TIP3    H1 3219   1.288   4.325   5.718  0.4944  0.6287 -0.2061
 1099TIP3    H2 3220   1.371   4.203   5.751 -0.1140  0.0538 -0.7930
 1100TIP3   OH2 3221   5.855   3.361   3.725  0.2000 -0.5002 -0.0089
 1100TIP3    H1 3222   5.898   3.366   3.640  1.1111 -0.2224  0.4557
 1100TIP3    H2 3223   5.898   3.428   3.778 -1.2296  0.2173  0.3018
 1101TIP3   OH2 3224   2.452   3.926   0.538 -0.2029 -0.3129 -0.1061
 1101TIP3    H1 3225   2.521   3.992   0.548 -0.1829 -0.3879  0.2943
 1101TIP3    H2 3226   2.444   3.887   0.626 -0.4595 -0.5967 -0.2535
 1102TIP3   OH2 3227   6.440   4.369   1.891  0.0235 -0.1353 -0.3895
 1102TIP3    H1 3228   6.397   4.439   1.841 -0.1969 -0.0263 -0.0574
 1102TIP3    H2 3229   6.530   4.400   1.904 -0.3556  0.6040  0.6766
 1103TIP3   OH2 3230   4.507   1.632   2.458  0.0760 -0.2699 -0.0441
 1103TIP3    H1 3231   4.439   1.605   2.520  0.3507 -2.3519 -0.5819
 1103TIP3    H2 3232   4.524   1.554   2.406  0.5375  1.1454 -2.1273
 1104TIP3   OH2 3233   0.028   6.613   0.349 -0.1683  0.0241  0.8964
 1104TIP3    H1 3234  -0.056   6.637   0.311 -0.5560 -0.4591  1.4205
 1104TIP3    H2 3235   0.045   6.681   0.414 -0.1452  0.1338  0.7747
 1105TIP3   OH2 3236   1.889   0.634   0.082  0.1596  0.1369 -0.2620
 1105TIP3    H1 3237   1.913   0.542   0.096 -0.2190 -0.0089 -0.5177
 1105TIP3    H2 3238   1.952   0.684   0.132 -0.1687 -0.2978  0.6100
 1106TIP3   OH2 3239   2.829   7.288   3.104 -0.2672  0.3680 -0.1146
 1106TIP3    H1 3240   2.841   7.331   3.020  1.8950 -1.9945 -1.1480
 1106TIP3    H2 3241   2.812   7.196   3.082 -1.6733  0.0331  2.0201
 1107TIP3   OH2 3242   5.099   1.678   0.043 -0.2018  0.9094 -0.0165
 1107TIP3    H1 3243   5.088   1.752  -0.017  0.3964 -1.1927 -2.9644
 1107TIP3    H2 3244   5.010   1.659   0.074 -0.4477  2.4137  0.2644
 1108TIP3   OH2 3245   2.323   2.216   5.820 -0.8393 -0.3241 -0.4584
 1108TIP3    H1 3246   2.291   2.214   5.910 -0.0787 -1.2269 -0.1957
 1108TIP3    H2 3247   2.347   2.308   5.805  2.6590 -0.7403  1.5975
 1109TIP3   OH2 3248   6.434   2.000   3.082  1.1947  0.0313 -0.5963
 1109TIP3    H1 3249   6.513   2.019   3.132 -0.5332  1.2390  1.8398
 1109TIP3    H2 3250   6.446   2.046   2.999  2.9320  0.3732 -0.1911
 1110TIP3   OH2 3251   5.506   7.023   3.865 -0.0646 -0.1019  0.7547
 1110TIP3    H1 3252   5.418   7.057   3.884 -0.5837 -1.4665  0.8944
 1110TIP3    H2 3253   5.506   6.935   3.903  1.0430 -0.4770 -0.0806
 1111TIP3   OH2 3254   5.097   2.367   0.846 -0.3232  0.3624 -0.4795
 1111TIP3    H1 3255   5.025   2.418   0.808 -1.4170 -0.5359  0.3020
 1111TIP3    H2 3256   5.074   2.276   0.826 -0.3234 -0.0489  1.2875
 1112TIP3   OH2 3257   3.280   0.806   6.832 -0.3593  0.0653 -0.1164
 1112TIP3    H1 3258   3.294   0.720   6.872 -3.1687 -0.0937  0.7217
 1112TIP3    H2 3259   3.365   0.829   6.794  0.3436 -3.3657 -0.9639
 1113TIP3   OH2 3260   3.631   6.166   6.719  0.1680  0.6188  0.1719
 1113TIP3    H1 3261   3.570   6.092   6.711  1.4055 -0.6009  1.3845
 1113TIP3    H2 3262   3.681   6.165   6.638 -0.4868  0.7731 -0.2456
 1114TIP3   OH2 3263   2.104   3.648   4.773 -0.0499 -0.4279 -0.2017
 1114TIP3    H1 3264   2.162   3.689   4.708  1.0393  0.4281  1.2518
 1114TIP3    H2 3265   2.127   3.555   4.771  1.3686 -0.1171  0.3011
 1115TIP3   OH2 3266   2.548   5.773   0.216 -0.1515 -0.2246  0.1994
 1115TIP3    H1 3267   2.547   5.706   0.147  2.0793 -0.4173  0.2794
 1115TIP3    H2 3268   2.507   5.731   0.291 -0.5541 -0.8055 -0.3349
 1116TIP3   OH2 3269   6.197   4.624   1.028 -0.2781 -0.4036  0.2592
 1116TIP3    H1 3270   6.124   4.678   0.997 -0.3524 -1.6597 -1.9600
 1116TIP3    H2 3271   6.155   4.550   1.070 -0.2717 -0.5141  0.0741
 1117TIP3   OH2 3272   8.070   7.115   2.198 -0.8834 -0.2609  0.1208
 1117TIP3    H1 3273   8.134   7.070   2.254 -1.2188  0.0301  0.7525
 1117TIP3    H2 3274   8.027   7.177   2.257 -1.5340 -0.2406 -0.3707
 1118TIP3   OH2 3275   0.870   5.697   6.560  0.1704  0.4210  0.2836
 1118TIP3    H1 3276   0.923   5.618   6.574 -1.0111 -0.5949 -0.7515
 1118TIP3    H2 3277   0.822   5.708   6.642 -0.2515 -0.4240  0.1657
 1119TIP3   OH2 3278   0.499   7.840   3.930 -0.4177 -0.0403  0.6769
 1119TIP3    H1 3279   0.507   7.788   4.010 -0.7248  0.4258  1.0145
 1119TIP3    H2 3280   0.444   7.788   3.872  0.6739 -0.8757  0.3479
 1120TIP3   OH2 3281   0.974   0.164   3.351 -0.3252  0.4371 -0.5190
 1120TIP3    H1 3282   0.956   0.119   3.268 -0.8720  0.4105 -0.3895
 1120TIP3    H2 3283   0.890   0.204   3.376 -0.2587  0.1400  0.2061
 1121TIP3   OH2 3284   3.669   7.113   0.191 -0.5894  0.1863 -0.0465
 1121TIP3    H1 3285   3.742   7.056   0.166 -1.2506  0.3374 -2.6388
 1121TIP3    H2 3286   3.593   7.054   0.197 -1.0277  0.5803 -1.4791
 1122TIP3   OH2 3287   5.425   6.247   6.190 -0.5219  0.4197 -0.2567
 1122TIP3    H1 3288   5.484   6.187   6.235 -1.3247 -1.5584 -1.6816
 1122TIP3    H2 3289   5.340   6.234   6.233 -0.7105  0.4987 -0.5992
 1123TIP3   OH2 3290   2.878   6.835   3.762  0.6100  0.5325 -0.2120
 1123TIP3    H1 3291   2.813   6.902   3.740 -0.4537 -0.2453  0.4908
 1123TIP3    H2 3292   2.940   6.837   3.688 -0.2783  1.1853 -0.9624
 1124TIP3   OH2 3293   6.638   0.099   5.442 -0.3924 -0.3274 -0.5395
 1124TIP3    H1 3294   6.585   0.157   5.388  1.6146 -0.5948 -2.9610
 1124TIP3    H2 3295   6.690   0.159   5.497 -2.6599 -0.0637  1.5019
 1125TIP3   OH2 3296   4.671   2.483   4.562  0.5288 -0.0428 -0.0470
 1125TIP3    H1 3297   4.612   2.436   4.503  1.3011  0.0640 -0.9116
 1125TIP3    H2 3298   4.612   2.527   4.623 -0.2343 -2.3040  0.9635
 1126TIP3   OH2 3299   0.878   0.649   5.211 -0.0535 -0.1552  0.8056
 1126TIP3    H1 3300   0.817   0.711   5.252 -1.9135 -1.2301 -0.1686
 1126TIP3    H2 3301   0.836   0.626   5.128  1.4744 -1.3488  0.3174
 1127TIP3   OH2 3302   8.171   3.375   5.616  0.0833 -0.2657 -0.2378
 1127TIP3    H1 3303   8.081   3.379   5.647 -0.2833 -0.8327 -1.2013
 1127TIP3    H2 3304   8.217   3.439   5.670 -0.6710 -0.6941  0.9570
 1128TIP3   OH2 3305   8.249   7.601   5.110 -0.0453 -0.4105 -0.0584
 1128TIP3    H1 3306   8.340   7.575   5.094  0.3884  1.6458 -1.3081
 1128TIP3    H2 3307   8.197   7.535   5.063  0.8773 -0.6263 -0.8127
 1129TIP3   OH2 3308   0.802   4.640   0.929  0.2285 -0.0107 -0.4382
 1129TIP3    H1 3309   0.880   4.679   0.969 -0.0265  0.2543 -0.1918
 1129TIP3    H2 3310   0.795   4.553   0.969 -0.0636  0.2765  0.1630
 1130TIP3   OH2 3311   3.649   1.509   0.712  0.7851  1.0238 -0.1052
 1130TIP3    H1 3312   3.739   1.510   0.743  0.5867 -1.3688  0.7609
 1130TIP3    H2 3313   3.654   1.468   0.625  0.4625  0.1437  0.2853
 1131TIP3   OH2 3314   4.192   3.693   3.241  0.2042  0.2270  0.0913
 1131TIP3    H1 3315   4.236   3.663   3.161  0.6131  1.1622 -0.0497
 1131TIP3    H2 3316   4.121   3.749   3.208 -0.6863 -0.7307  0.3385
 1132TIP3   OH2 3317   3.516   2.320   5.482 -0.0796  0.1413  0.0224
 1132TIP3    H1 3318   3.522   2.230   5.452 -0.7515  0.4002 -0.9492
 1132TIP3    H2 3319   3.438   2.322   5.537  0.6564 -0.1373  1.1095
 1133TIP3   OH2 3320   1.261   3.838   5.408 -0.3618  0.0430  0.0083
 1133TIP3    H1 3321   1.258   3.743   5.412 -3.7708  0.0401  0.9993
 1133TIP3    H2 3322   1.187   3.862   5.352  0.5048  2.1181 -0.3409
 1134TIP3   OH2 3323   0.818   1.855   1.941 -0.8831  0.0019 -0.1309
 1134TIP3    H1 3324   0.836   1.770   1.902 -0.1372  0.1809 -0.1943
 1134TIP3    H2 3325   0.735   1.882   1.902 -1.5055 -1.0250  0.4523
 1135TIP3   OH2 3326   5.653   4.894   1.765 -0.2035  0.5890  0.2609
 1135TIP3    H1 3327   5.670   4.983   1.797 -0.4575  0.9363 -0.5293
 1135TIP3    H2 3328   5.584   4.905   1.700 -1.6976 -0.4626  1.6022
 1136TIP3   OH2 3329   3.063   2.507   2.160 -0.5288 -1.2610  0.1550
 1136TIP3    H1 3330   3.005   2.549   2.223  0.4425 -0.0349  0.2779
 1136TIP3    H2 3331   3.013   2.504   2.079  0.5146  3.6063 -0.9314
 1137TIP3   OH2 3332   5.916   5.613   0.713  0.7349 -0.1942 -0.2865
 1137TIP3    H1 3333   5.832   5.567   0.717 -0.3938  1.7494 -0.3202
 1137TIP3    H2 3334   5.944   5.605   0.622 -0.1626  0.3494 -0.6259
 1138TIP3   OH2 3335   6.705   7.793   3.650 -0.1099 -0.0093 -0.1578
 1138TIP3    H1 3336   6.761   7.871   3.656 -0.7722  0.4896 -0.2313
 1138TIP3    H2 3337   6.674   7.779   3.740  1.1321 -1.0542  0.1206
 1139TIP3   OH2 3338   1.040   3.867   2.925  0.0847  0.0464  0.3722
 1139TIP3    H1 3339   1.125   3.826   2.907 -0.0406  0.0291 -0.2123
 1139TIP3    H2 3340   1.003   3.883   2.838 -1.0182 -1.0154  0.6126
 1140TIP3   OH2 3341   3.064   5.184   4.525 -0.3276 -0.8919 -0.4279
 1140TIP3    H1 3342   3.132   5.219   4.582  1.5975 -1.4641 -2.2331
 1140TIP3    H2 3343   3.023   5.115   4.576  0.5375 -0.6300  0.6622
 1141TIP3   OH2 3344   5.172   6.637   0.806 -0.0558  0.2538  0.2014
 1141TIP3    H1 3345   5.114   6.592   0.744 -0.0753 -0.5419  0.7788
 1141TIP3    H2 3346   5.159   6.730   0.789 -0.4429  0.0507 -0.6372
 1142TIP3   OH2 3347   6.596   3.381   3.742  0.6658 -0.8682  0.7699
 1142TIP3    H1 3348   6.677   3.379   3.794  0.2900  0.1008  1.4055
 1142TIP3    H2 3349   6.558   3.467   3.759 -0.4674 -1.2792  0.4000
 1143TIP3   OH2 3350   5.571   2.542   4.694  0.5983 -0.7921 -0.4294
 1143TIP3    H1 3351   5.648   2.596   4.679 -0.1166 -0.3645 -2.9703
 1143TIP3    H2 3352   5.596   2.454   4.664 -0.3528 -0.2853 -2.8922
 1144TIP3   OH2 3353   1.828   4.770   3.102 -0.2658  0.0253 -0.2958
 1144TIP3    H1 3354   1.875   4.700   3.147 -1.2932 -0.4294  0.1012
 1144TIP3    H2 3355   1.751   4.727   3.065 -0.4994  0.7957 -0.7205
 1145TIP3   OH2 3356   4.661   7.534   3.099  0.3037 -0.0350  0.2938
 1145TIP3    H1 3357   4.582   7.587   3.093  0.7699  0.6740  0.3034
 1145TIP3    H2 3358   4.732   7.597   3.108  0.8870 -0.6559  0.1665
 1146TIP3   OH2 3359   2.778   8.056   3.077 -0.2867 -0.6802  0.4643
 1146TIP3    H1 3360   2.780   8.041   2.983  0.0903 -1.4370  0.5845
 1146TIP3    H2 3361   2.728   7.983   3.113  1.8006 -1.8887  1.0874
 1147TIP3   OH2 3362   4.602   4.393   1.803 -0.2903  0.2124 -0.0990
 1147TIP3    H1 3363   4.569   4.454   1.737 -1.2472  1.8157  1.7278
 1147TIP3    H2 3364   4.534   4.325   1.810 -0.8935  0.8232  0.1905
 1148TIP3   OH2 3365   0.700   4.219   4.918  0.4394 -0.2213 -0.0551
 1148TIP3    H1 3366   0.664   4.244   5.003 -2.0239 -0.2133 -1.0328
 1148TIP3    H2 3367   0.795   4.217   4.932  0.1891  1.1691  2.2959
 1149TIP3   OH2 3368   3.658   1.728   5.493 -0.1513 -0.1856 -0.0700
 1149TIP3    H1 3369   3.750   1.751   5.505 -0.5138  1.1705  0.2068
 1149TIP3    H2 3370   3.627   1.788   5.425 -1.1942  0.3633  0.8615
 1150TIP3   OH2 3371   3.919   2.489   2.843  0.2262 -0.3072  0.1205
 1150TIP3    H1 3372   3.966   2.571   2.824 -0.1516 -0.1920 -0.3451
 1150TIP3    H2 3373   3.874   2.469   2.761 -1.0976 -0.0358  0.7680
 1151TIP3   OH2 3374   8.321   1.798   2.725  0.6584  0.2817  0.1486
 1151TIP3    H1 3375   8.249   1.767   2.781 -0.0959  1.3931 -0.1771
 1151TIP3    H2 3376   8.286   1.794   2.636  1.7386 -1.1603 -0.2415
 1152TIP3   OH2 3377   8.437   5.345   5.207  0.1419  0.2767 -0.1293
 1152TIP3    H1 3378   8.461   5.436   5.225 -0.4864  0.4405 -0.0776
 1152TIP3    H2 3379   8.405   5.312   5.291 -1.4564  0.6091 -0.5655
 1153TIP3   OH2 3380   4.274   2.394   6.925  1.1903 -0.4308 -0.0974
 1153TIP3    H1 3381   4.246   2.308   6.894 -0.2961 -0.4797  1.2562
 1153TIP3    H2 3382   4.341   2.422   6.862  0.3809 -1.7594 -1.6117
 1154TIP3   OH2 3383   5.061   6.663   6.422  0.6623 -0.1753  0.3144
 1154TIP3    H1 3384   5.147   6.624   6.440  0.7161  0.1447  0.7688
 1154TIP3    H2 3385   5.000   6.590   6.429  0.7253 -0.1344  1.4863
 1155TIP3   OH2 3386   8.343   6.287   3.042 -0.2483  0.6988  0.7626
 1155TIP3    H1 3387   8.272   6.222   3.046 -0.1455  0.3159 -1.8583
 1155TIP3    H2 3388   8.397   6.268   3.119 -1.6998 -0.5303  1.5393
 1156TIP3   OH2 3389   3.896   4.626   1.646  0.0092  0.3461 -0.1326
 1156TIP3    H1 3390   3.890   4.676   1.728 -1.6205 -0.1745  0.0974
 1156TIP3    H2 3391   3.848   4.546   1.664  2.0867 -1.1120 -0.6832
 1157TIP3   OH2 3392   5.390   2.169   0.711  0.1842  0.0326 -0.2978
 1157TIP3    H1 3393   5.438   2.251   0.702  0.2383 -0.0521 -0.8395
 1157TIP3    H2 3394   5.304   2.195   0.744  1.2997 -0.0231  2.9675
 1158TIP3   OH2 3395   4.641   3.373   2.295 -0.8510 -0.3276  0.3679
 1158TIP3    H1 3396   4.584   3.354   2.221  0.7029  1.1483 -1.3163
 1158TIP3    H2 3397   4.654   3.468   2.292  1.3627 -0.5427  0.8563
 1159TIP3   OH2 3398   3.172   3.643   5.601  0.3320  0.3850 -0.1147
 1159TIP3    H1 3399   3.244   3.630   5.540 -0.2362  2.1810 -1.2389
 1159TIP3    H2 3400   3.096   3.660   5.545 -1.3273 -2.5946  0.9632
 1160TIP3   OH2 3401   0.070   8.130   1.076 -0.3470 -0.1562 -0.1280
 1160TIP3    H1 3402   0.156   8.098   1.049 -0.5462  0.5696 -1.7125
 1160TIP3    H2 3403   0.042   8.068   1.143  1.2234 -0.6424  0.1369
 1161TIP3   OH2 3404   4.041   5.025   5.093 -0.1173  0.4142  0.2492
 1161TIP3    H1 3405   3.968   5.077   5.124  0.4307  2.0901 -1.1120
 1161TIP3    H2 3406   4.047   5.045   5.000  0.7095 -1.3962 -0.1261
 1162TIP3   OH2 3407   4.258   1.698   3.268 -0.4454  0.0925  0.0089
 1162TIP3    H1 3408   4.244   1.791   3.251 -0.4441  0.2184  0.6750
 1162TIP3    H2 3409   4.344   1.679   3.232  0.3676  0.7865  1.5160
 1163TIP3   OH2 3410   8.299   1.212   6.466  0.2038  0.0206 -0.1227
 1163TIP3    H1 3411   8.295   1.161   6.547 -1.3226 -0.3266 -0.3891
 1163TIP3    H2 3412   8.208   1.228   6.443  0.6314  1.9623 -0.6432
 1164TIP3   OH2 3413   8.512   1.162   2.324  0.3378 -0.0572 -0.4347
 1164TIP3    H1 3414   8.550   1.244   2.355 -0.0623 -0.0033 -0.0747
 1164TIP3    H2 3415   8.558   1.143   2.242  1.6631 -0.3792  0.3568
 1165TIP3   OH2 3416   8.405   3.427   2.735 -0.0130 -0.3870 -0.7448
 1165TIP3    H1 3417   8.456   3.376   2.671  0.1962  1.0895 -1.8219
 1165TIP3    H2 3418   8.400   3.515   2.696 -2.3739 -0.1702 -0.0982
 1166TIP3   OH2 3419   7.383   3.186   3.112  1.2649 -0.0066  0.1940
 1166TIP3    H1 3420   7.288   3.178   3.124  1.2178  0.5845  0.2481
 1166TIP3    H2 3421   7.415   3.096   3.112  0.6120 -0.2521 -0.5532
 1167TIP3   OH2 3422   5.052   0.364   4.125  0.6434  0.2282 -0.2204
 1167TIP3    H1 3423   5.020   0.390   4.211 -0.6520  1.7317 -1.0841
 1167TIP3    H2 3424   5.121   0.428   4.105  1.4632 -0.5751 -0.0071
 1168TIP3   OH2 3425   8.620   5.601   0.768 -0.0774 -0.6824 -0.1863
 1168TIP3    H1 3426   8.658   5.629   0.685 -1.8425  0.5486 -0.6435
 1168TIP3    H2 3427   8.592   5.511   0.753 -0.4615 -0.4408 -0.9811
 1169TIP3   OH2 3428   5.765   3.229   1.827 -0.4494  0.2181 -0.9080
 1169TIP3    H1 3429   5.728   3.151   1.868  1.6394  0.7369  2.3312
 1169TIP3    H2 3430   5.721   3.235   1.742 -3.4871 -2.2813  0.2903
 1170TIP3   OH2 3431   1.772   1.960   3.174 -0.1964 -0.1820  0.2680
 1170TIP3    H1 3432   1.813   1.993   3.094  1.1552 -0.6798  0.7307
 1170TIP3    H2 3433   1.759   2.038   3.227 -0.0917  0.0165  0.0072
 1171TIP3   OH2 3434   0.565   1.239   3.372 -0.3736  0.4614 -0.4283
 1171TIP3    H1 3435   0.477   1.274   3.388 -0.3949 -0.0523  0.6406
 1171TIP3    H2 3436   0.610   1.251   3.455  0.0465 -0.7968 -0.4648
 1172TIP3   OH2 3437   0.279   5.024   3.865 -0.3994  0.0277 -0.3576
 1172TIP3    H1 3438   0.375   5.027   3.864 -0.4179  0.6438 -0.3269
 1172TIP3    H2 3439   0.259   4.930   3.868  0.1804 -0.2943 -3.2473
 1173TIP3   OH2 3440   5.952   6.030   0.408 -0.5857 -0.2980 -0.2874
 1173TIP3    H1 3441   5.944   5.949   0.358 -3.3954  0.9825 -2.1555
 1173TIP3    H2 3442   5.923   6.007   0.496 -0.4165 -1.4989 -0.5224
 1174TIP3   OH2 3443   5.186   1.188   5.143 -0.3147 -0.3669 -0.2547
 1174TIP3    H1 3444   5.281   1.198   5.153 -0.5423  0.6059  1.2462
 1174TIP3    H2 3445   5.169   1.208   5.050  0.7886  0.8954 -0.2181
 1175TIP3   OH2 3446   6.781   8.159   1.342  0.1073 -0.3335  0.1846
 1175TIP3    H1 3447   6.726   8.198   1.275  0.4213  0.5415  0.4268
 1175TIP3    H2 3448   6.719   8.114   1.400 -0.1936 -0.7895 -0.4713
 1176TIP3   OH2 3449   3.234   6.281   1.453 -0.6368 -0.7007  0.3899
 1176TIP3    H1 3450   3.245   6.200   1.402 -1.0366 -0.5310  0.0389
 1176TIP3    H2 3451   3.307   6.336   1.426 -1.6980 -0.0026 -1.1534
 1177TIP3   OH2 3452   0.347   3.937   5.655 -0.3855  0.1566  0.5921
 1177TIP3    H1 3453   0.401   4.013   5.633 -0.4441 -0.0276 -0.1913
 1177TIP3    H2 3454   0.308   3.910   5.572  2.0198 -2.6096  0.2053
 1178TIP3   OH2 3455   1.567   5.676   2.432 -0.6204 -0.0023 -0.4868
 1178TIP3    H1 3456   1.542   5.755   2.384 -0.0855  0.1907 -0.4573
 1178TIP3    H2 3457   1.525   5.605   2.385 -1.1733  0.3059 -0.4696
 1179TIP3   OH2 3458   7.678   4.413   0.872 -0.0445 -0.0228  0.2814
 1179TIP3    H1 3459   7.644   4.494   0.911  1.0037 -0.1244  1.4498
 1179TIP3    H2 3460   7.765   4.402   0.912  0.3633 -1.0365 -0.8416
 1180TIP3   OH2 3461   6.205   3.977   6.771  0.4438  0.0120  0.2364
 1180TIP3    H1 3462   6.220   3.983   6.865 -0.5653  0.1795  0.3946
 1180TIP3    H2 3463   6.122   4.022   6.757  0.1568 -0.7558 -0.6189
 1181TIP3   OH2 3464   2.998   6.138   6.591 -0.5983  0.5644 -0.8203
 1181TIP3    H1 3465   2.917   6.154   6.640  0.0426  0.6796  0.2288
 1181TIP3    H2 3466   2.991   6.195   6.514 -0.6103  2.1462  0.3094
 1182TIP3   OH2 3467   5.123   0.142   1.068 -0.2235 -1.0919 -0.1099
 1182TIP3    H1 3468   5.069   0.150   0.988  1.4691  1.8562 -1.1215
 1182TIP3    H2 3469   5.213   0.148   1.036  0.6129 -2.5046  1.8437
 1183TIP3   OH2 3470   2.002   6.485   6.942  0.1795  0.3164 -0.3408
 1183TIP3    H1 3471   2.013   6.466   7.035 -0.0191 -2.7262 -0.8531
 1183TIP3    H2 3472   1.966   6.405   6.905 -0.5854  1.7398 -2.9257
 1184TIP3   OH2 3473   5.743   6.572   5.466  0.3438  0.1313 -0.0770
 1184TIP3    H1 3474   5.777   6.577   5.555  1.1264 -0.4331 -0.3306
 1184TIP3    H2 3475   5.682   6.645   5.459 -0.9610 -0.7644  1.4379
 1185TIP3   OH2 3476   1.417   6.135   1.027  0.2674 -0.6100  0.6162
 1185TIP3    H1 3477   1.349   6.078   1.062 -0.4101  0.1013  0.4741
 1185TIP3    H2 3478   1.402   6.220   1.068  0.4786 -0.2000 -0.1289
 1186TIP3   OH2 3479   6.123   4.377   1.896  0.2281 -0.6725  0.1762
 1186TIP3    H1 3480   6.199   4.371   1.954 -0.2242 -1.3864  0.7115
 1186TIP3    H2 3481   6.154   4.342   1.813  1.5088  2.2515 -0.7246
 1187TIP3   OH2 3482   6.346   3.155   5.404 -0.1350 -0.1384  0.2121
 1187TIP3    H1 3483   6.366   3.221   5.470 -0.9896  0.5268 -0.1736
 1187TIP3    H2 3484   6.421   3.096   5.406 -0.1509 -0.1355  1.7648
 1188TIP3   OH2 3485   7.746   0.717   3.826 -0.0895 -0.6982  0.2586
 1188TIP3    H1 3486   7.700   0.714   3.910  0.6578  0.4666  0.7485
 1188TIP3    H2 3487   7.689   0.769   3.770  0.1853 -0.0035  0.5985
 1189TIP3   OH2 3488   7.212   4.127   1.274  0.3300  0.6259 -0.7839
 1189TIP3    H1 3489   7.218   4.033   1.258  0.2173  0.7605 -1.6904
 1189TIP3    H2 3490   7.299   4.152   1.306  0.4616  0.2726 -0.8658
 1190TIP3   OH2 3491   8.487   2.884   5.190 -0.0057  0.3229 -0.0400
 1190TIP3    H1 3492   8.465   2.853   5.278 -2.3330  0.3598 -0.5336
 1190TIP3    H2 3493   8.478   2.980   5.196  0.5887  0.3822 -0.1266
 1191TIP3   OH2 3494   4.821   0.111   1.639 -0.1952  0.0381  0.1750
 1191TIP3    H1 3495   4.765   0.101   1.716  0.2820 -1.7456  0.3521
 1191TIP3    H2 3496   4.768   0.162   1.578 -0.7192  1.1950  1.5365
 1192TIP3   OH2 3497   5.937   6.332   5.595  0.1315  0.7313 -0.2835
 1192TIP3    H1 3498   5.980   6.385   5.662  1.0348  0.7749 -0.8674
 1192TIP3    H2 3499   5.975   6.363   5.512 -2.3370  2.0169 -1.0298
 1193TIP3   OH2 3500   0.830   7.128   5.256 -0.4227  0.3317  0.3237
 1193TIP3    H1 3501   0.834   7.033   5.258  0.2069  0.3691  1.0955
 1193TIP3    H2 3502   0.918   7.157   5.279 -0.6176  1.1009  0.1351
 1194TIP3   OH2 3503   0.423   6.906   7.005 -0.1901 -0.5774 -0.2146
 1194TIP3    H1 3504   0.391   6.828   7.049 -1.0782  0.5249  1.1350
 1194TIP3    H2 3505   0.515   6.885   6.984  0.2370 -1.1968  2.0473
 1195TIP3   OH2 3506   0.200   1.316   2.463 -0.5678 -0.0754  0.3333
 1195TIP3    H1 3507   0.125   1.277   2.507 -0.5003  0.8589  1.2952
 1195TIP3    H2 3508   0.263   1.334   2.533  0.6492 -1.0120 -0.4690
 1196TIP3   OH2 3509   7.059   0.314   2.221 -0.2480  0.0536 -0.0726
 1196TIP3    H1 3510   6.999   0.250   2.260  0.0095  0.4417  0.9818
 1196TIP3    H2 3511   7.141   0.300   2.267  0.5759 -0.6572 -1.6895
 1197TIP3   OH2 3512   6.793   1.285   0.427  0.9106  1.1833  0.1676
 1197TIP3    H1 3513   6.852   1.209   0.430 -0.7798 -0.2092  0.1417
 1197TIP3    H2 3514   6.833   1.344   0.364 -0.0153 -1.8177 -3.6552
 1198TIP3   OH2 3515   2.774   3.470   5.983 -0.0178  0.1510 -0.0458
 1198TIP3    H1 3516   2.818   3.531   6.043  3.7010 -0.6168 -1.7094
 1198TIP3    H2 3517   2.807   3.494   5.897 -0.4684 -2.5850 -1.0717
 1199TIP3   OH2 3518   5.079   5.658   1.599 -0.1078  0.0666 -0.5023
 1199TIP3    H1 3519   5.020   5.650   1.674 -0.4237  0.8494 -0.6591
 1199TIP3    H2 3520   5.027   5.626   1.525 -0.0601  0.0104 -0.5116
 1200TIP3   OH2 3521   6.649   7.262   0.277  0.0085 -0.9344  0.5352
 1200TIP3    H1 3522   6.572   7.212   0.252  0.2042 -0.8439 -0.2720
 1200TIP3    H2 3523   6.658   7.248   0.371 -1.4980 -0.2548  0.8091
 1201TIP3   OH2 3524   0.567   0.014   0.593 -0.1635 -0.1210 -0.2945
 1201TIP3    H1 3525   0.516   0.092   0.571 -0.0284 -0.1334 -0.6450
 1201TIP3    H2 3526   0.650   0.049   0.626  0.5850 -0.1220 -2.0692
 1202TIP3   OH2 3527   4.658   0.426   6.385 -0.1211 -0.2020 -0.1210
 1202TIP3    H1 3528   4.738   0.378   6.408 -0.3299 -0.7068 -0.4224
 1202TIP3    H2 3529   4.613   0.369   6.323 -0.3005  0.4568 -0.6118
 1203TIP3   OH2 3530   4.575   7.009   3.078 -0.8239 -0.1805 -0.1615
 1203TIP3    H1 3531   4.489   7.029   3.114 -0.5617  0.3544  0.1876
 1203TIP3    H2 3532   4.620   6.962   3.147 -1.1355 -1.2510 -0.6691
 1204TIP3   OH2 3533   8.005   2.664   1.127 -0.0749 -0.3606 -0.0196
 1204TIP3    H1 3534   8.010   2.571   1.106 -2.2439 -0.9259  1.6453
 1204TIP3    H2 3535   7.911   2.685   1.124  0.4784  2.4209 -2.7608
 1205TIP3   OH2 3536   6.283   2.729   3.912  0.0370  0.1827 -0.4338
 1205TIP3    H1 3537   6.222   2.797   3.941 -1.2164 -1.2058  0.3330
 1205TIP3    H2 3538   6.300   2.677   3.990  2.8207  0.9167 -0.4540
 1206TIP3   OH2 3539   4.490   5.567   6.081  0.1161 -0.5245  0.0459
 1206TIP3    H1 3540   4.574   5.591   6.122  0.1465 -1.3903  0.5105
 1206TIP3    H2 3541   4.447   5.513   6.146 -2.3837  2.6813  1.3271
 1207TIP3   OH2 3542   3.094   1.876   1.452  0.1764  0.2397 -0.3209
 1207TIP3    H1 3543   3.001   1.878   1.431  0.6171  0.1442 -2.4543
 1207TIP3    H2 3544   3.110   1.956   1.501 -1.5106 -1.0268  2.5261
 1208TIP3   OH2 3545   4.050   1.170   1.987 -0.2984 -0.9153 -0.3065
 1208TIP3    H1 3546   3.997   1.248   2.003 -0.5734 -1.1781  0.0865
 1208TIP3    H2 3547   4.125   1.202   1.937  0.1347 -0.2113  0.7539
 1209TIP3   OH2 3548   7.456   5.000   0.268 -0.5183  0.2052 -0.1259
 1209TIP3    H1 3549   7.396   4.948   0.214 -0.5633  0.3411 -0.2065
 1209TIP3    H2 3550   7.490   5.067   0.209 -1.3332  0.9805  0.2510
 1210TIP3   OH2 3551   0.886   3.232   6.088 -0.4904 -0.3667  0.3381
 1210TIP3    H1 3552   0.886   3.190   6.002  0.6664  0.3194 -0.0228
 1210TIP3    H2 3553   0.973   3.215   6.124 -0.9564 -0.6459  1.3923
 1211TIP3   OH2 3554   2.117   5.658   3.171 -0.0426  0.4039 -0.1122
 1211TIP3    H1 3555   2.173   5.713   3.116 -0.5342  1.6353  0.5952
 1211TIP3    H2 3556   2.162   5.573   3.173  0.2545  0.4754 -1.9704
 1212TIP3   OH2 3557   1.855   4.466   1.187 -0.0744 -0.5874 -0.1821
 1212TIP3    H1 3558   1.855   4.375   1.218  1.9181 -1.0022 -1.2272
 1212TIP3    H2 3559   1.765   4.480   1.157 -0.7273 -1.8100  1.0417
 1213TIP3   OH2 3560   4.614   7.838   6.842 -0.2873  0.3327  0.1907
 1213TIP3    H1 3561   4.650   7.764   6.891 -0.5379 -0.9564 -1.4707
 1213TIP3    H2 3562   4.606   7.908   6.907  0.0309 -1.0583  1.8109
 1214TIP3   OH2 3563   8.180   4.308   3.112  0.0988 -0.1606  0.2900
 1214TIP3    H1 3564   8.217   4.249   3.047  1.1537  0.2979  0.4426
 1214TIP3    H2 3565   8.244   4.308   3.184 -0.9083 -0.4596  1.2209
 1215TIP3   OH2 3566   3.075   5.097   5.204  0.2137  0.5536 -0.2384
 1215TIP3    H1 3567   3.039   5.133   5.285  1.1838  0.2919  0.3323
 1215TIP3    H2 3568   3.089   5.174   5.148 -0.5852  0.7230 -0.2194
 1216TIP3   OH2 3569   2.434   7.413   1.021  0.1274  0.1555  0.0613
 1216TIP3    H1 3570   2.431   7.421   1.116 -0.3798 -1.5429  0.2196
 1216TIP3    H2 3571   2.363   7.353   1.000  0.2530  0.4894 -1.4004
 1217TIP3   OH2 3572   0.057   7.445   2.993 -0.0865 -0.8135  0.0283
 1217TIP3    H1 3573   0.142   7.453   3.037  0.1775 -1.4054 -0.3622
 1217TIP3    H2 3574   0.026   7.535   2.985  0.1827 -0.6430  0.7938
 1218TIP3   OH2 3575   0.875   6.313   3.400  0.2869  0.3666  0.3852
 1218TIP3    H1 3576   0.925   6.366   3.462  0.6316  0.6051 -0.0904
 1218TIP3    H2 3577   0.839   6.377   3.337 -0.0387  0.1281  0.3253
 1219TIP3   OH2 3578   0.493   4.818   0.426 -0.0734  0.0418  0.2428
 1219TIP3    H1 3579   0.423   4.796   0.488  0.8554  0.5253  1.4975
 1219TIP3    H2 3580   0.458   4.793   0.340 -1.5965 -0.1590  0.8957
 1220TIP3   OH2 3581   2.126   5.041   1.070 -0.1454 -0.2660 -0.5389
 1220TIP3    H1 3582   2.210   5.023   1.027 -0.7545 -0.8945 -1.5172
 1220TIP3    H2 3583   2.066   4.976   1.032 -1.0244  0.0434  0.2926
 1221TIP3   OH2 3584   5.809   6.842  -0.007 -0.0052  0.0242  0.2082
 1221TIP3    H1 3585   5.814   6.792   0.075 -2.8769  0.7498  0.9654
 1221TIP3    H2 3586   5.807   6.934   0.021 -0.1206  0.3235 -0.7371
 1222TIP3   OH2 3587   2.847   5.578   0.697 -0.4599 -0.3399  0.4876
 1222TIP3    H1 3588   2.796   5.624   0.764 -1.5199 -2.1300  0.9848
 1222TIP3    H2 3589   2.833   5.485   0.716  0.7577 -0.8891 -1.0893
 1223TIP3   OH2 3590   4.788   8.064   3.053  0.0948  0.5322 -0.1979
 1223TIP3    H1 3591   4.732   8.017   3.115  0.1876 -0.2783 -0.7227
 1223TIP3    H2 3592   4.876   8.030   3.070  0.5401  2.1343  0.9463
 1224TIP3   OH2 3593   3.134   3.288   3.126  0.3056 -0.1514  0.0920
 1224TIP3    H1 3594   3.097   3.293   3.038  2.3543 -1.2756 -0.8906
 1224TIP3    H2 3595   3.114   3.199   3.156  1.2693 -0.4265 -0.0438
 1225TIP3   OH2 3596   1.892   0.806   6.578  0.4044  0.2902  1.0155
 1225TIP3    H1 3597   1.842   0.826   6.498  0.2454  2.3874  1.5601
 1225TIP3    H2 3598   1.940   0.726   6.558 -0.3988  0.2261 -0.8260
 1226TIP3   OH2 3599   0.956   0.361   4.903 -0.3287 -0.5707 -0.1703
 1226TIP3    H1 3600   1.041   0.398   4.926 -1.0588  1.2563 -0.2999
 1226TIP3    H2 3601   0.959   0.272   4.938  1.8309 -0.7491 -0.6456
 1227TIP3   OH2 3602   0.306   6.661   7.095  0.0385 -0.0843 -0.1525
 1227TIP3    H1 3603   0.230   6.612   7.125  0.6438 -0.7738  0.2800
 1227TIP3    H2 3604   0.368   6.594   7.065  0.5076  0.4610 -0.4236
 1228TIP3   OH2 3605   1.772   3.633   0.516 -0.0242  0.4143  0.0801
 1228TIP3    H1 3606   1.718   3.633   0.437 -1.5427  0.8795  1.0760
 1228TIP3    H2 3607   1.795   3.541   0.528 -1.0535  0.1119 -0.0844
 1229TIP3   OH2 3608   6.359   3.181   4.349  0.4519 -0.2825 -0.4120
 1229TIP3    H1 3609   6.325   3.169   4.261  2.0816  0.1005 -1.1299
 1229TIP3    H2 3610   6.362   3.093   4.387  0.7325 -0.5843 -1.1306
 1230TIP3   OH2 3611   7.708   3.002   6.532  0.0274  0.5871 -0.1883
 1230TIP3    H1 3612   7.713   2.980   6.625 -0.1118  0.6561 -0.1644
 1230TIP3    H2 3613   7.779   2.951   6.491 -0.7396 -0.4579 -0.2428
 1231TIP3   OH2 3614   7.828   1.980   1.089  0.0867 -0.4164  0.2587
 1231TIP3    H1 3615   7.831   2.038   1.164 -1.0631  0.9979 -0.7343
 1231TIP3    H2 3616   7.841   1.892   1.125  2.0813  0.4314  1.7708
 1232TIP3   OH2 3617   5.524   3.358   0.400 -0.2697 -0.3248 -0.7989
 1232TIP3    H1 3618   5.483   3.352   0.314  0.4074 -0.3941 -1.1244
 1232TIP3    H2 3619   5.468   3.307   0.457 -0.7491 -0.2431 -1.1903
 1233TIP3   OH2 3620   4.071   3.772   2.582 -0.6172  0.2942  0.2141
 1233TIP3    H1 3621   4.147   3.819   2.618 -0.6099  0.9805 -0.6601
 1233TIP3    H2 3622   4.063   3.695   2.637 -0.7315  1.3981  1.7996
 1234TIP3   OH2 3623   2.683   4.411   6.009 -0.4319  0.3757 -0.7220
 1234TIP3    H1 3624   2.777   4.413   6.026 -0.6028  0.9947  0.2133
 1234TIP3    H2 3625   2.645   4.466   6.078 -1.5024 -0.0881 -0.9290
 1235TIP3   OH2 3626   1.809   2.061   5.074 -0.6228 -0.0107 -0.2094
 1235TIP3    H1 3627   1.845   2.062   5.163 -1.7619 -0.0785  0.2712
 1235TIP3    H2 3628   1.884   2.044   5.018 -0.1954 -2.1481  0.8990
 1236TIP3   OH2 3629   5.282   5.447   3.601 -0.1533 -0.0599 -0.5934
 1236TIP3    H1 3630   5.326   5.453   3.686  0.0384 -0.7484 -0.6367
 1236TIP3    H2 3631   5.189   5.441   3.624 -0.3040  1.9047 -0.5215
 1237TIP3   OH2 3632   0.698   2.464   0.639  0.7349  0.0308  0.1678
 1237TIP3    H1 3633   0.713   2.386   0.692  0.6544  0.7181  1.2313
 1237TIP3    H2 3634   0.773   2.467   0.579  0.8465 -0.7341  0.2562
 1238TIP3   OH2 3635   5.030   7.054   4.102 -0.1141 -0.2255 -0.5920
 1238TIP3    H1 3636   5.084   7.118   4.148  1.8309 -0.7525 -2.0532
 1238TIP3    H2 3637   5.036   6.975   4.155 -0.0104 -0.0929 -0.4048
 1239TIP3   OH2 3638   7.907   0.614   6.205 -0.1040  0.4264 -0.0038
 1239TIP3    H1 3639   7.814   0.594   6.210  0.1404 -0.5188  0.8931
 1239TIP3    H2 3640   7.943   0.550   6.143  0.3484 -0.7736  1.4537
 1240TIP3   OH2 3641   1.655   1.884   1.682 -0.0811 -0.3463 -0.0712
 1240TIP3    H1 3642   1.704   1.910   1.760 -0.6178  3.0102 -0.7137
 1240TIP3    H2 3643   1.582   1.832   1.716  0.2559  0.1860  1.5495
 1241TIP3   OH2 3644   0.574   0.387   3.100  0.0329  0.5257  0.1891
 1241TIP3    H1 3645   0.569   0.322   3.170  2.3464  1.0781  0.9617
 1241TIP3    H2 3646   0.499   0.367   3.044 -0.8937 -1.0520  1.8502
 1242TIP3   OH2 3647   2.118   8.036   4.834  0.1467  0.6858  0.0404
 1242TIP3    H1 3648   2.093   8.055   4.744 -0.1852 -0.0265 -0.0258
 1242TIP3    H2 3649   2.117   8.121   4.878 -0.0059  0.9925 -0.5489
 1243TIP3   OH2 3650   8.490   6.970   4.734  0.6147 -0.2786 -0.1977
 1243TIP3    H1 3651   8.464   7.009   4.651 -1.4653 -0.5630  0.2550
 1243TIP3    H2 3652   8.464   6.878   4.726 -1.6441  0.1188  1.4628
 1244TIP3   OH2 3653   2.699   7.038   0.479 -0.6514  0.0106 -0.4852
 1244TIP3    H1 3654   2.726   7.123   0.445 -2.9154  1.4282  0.9312
 1244TIP3    H2 3655   2.725   7.040   0.571  0.2392 -1.3207 -0.6890
 1245TIP3   OH2 3656   1.252   4.725   5.779  0.3865 -0.7129  0.2490
 1245TIP3    H1 3657   1.308   4.715   5.702 -0.3330 -0.8123 -0.2742
 1245TIP3    H2 3658   1.292   4.796   5.829 -0.9295  1.7041 -1.8886
 1246TIP3   OH2 3659   5.863   0.572   2.429  0.4974  0.3898  0.3968
 1246TIP3    H1 3660   5.836   0.506   2.365 -1.0098 -0.0199  1.3998
 1246TIP3    H2 3661   5.853   0.655   2.383 -0.0176  0.0686 -0.0873
 1247TIP3   OH2 3662   5.430   4.929   3.608 -0.2550  0.2576 -0.2266
 1247TIP3    H1 3663   5.522   4.907   3.592 -0.0927  1.5014 -1.1418
 1247TIP3    H2 3664   5.380   4.866   3.557  0.0789 -0.5256  0.4016
 1248TIP3   OH2 3665   0.287   0.534   3.074 -0.5780 -0.5257 -0.1382
 1248TIP3    H1 3666   0.262   0.625   3.061  1.0940  0.2288  1.5077
 1248TIP3    H2 3667   0.237   0.507   3.152 -0.2115 -0.6536  0.0536
 1249TIP3   OH2 3668   7.979   7.175   7.036 -0.3945 -0.0218 -0.2216
 1249TIP3    H1 3669   8.043   7.227   7.084  1.2448 -0.3131 -1.9636
 1249TIP3    H2 3670   7.898   7.225   7.042  0.5915  1.6194 -0.0125
 1250TIP3   OH2 3671   4.016   6.266   2.561  0.8159  0.0251 -0.4410
 1250TIP3    H1 3672   4.064   6.331   2.511  1.2297  0.1194  0.0787
 1250TIP3    H2 3673   4.028   6.185   2.511 -0.6654  0.5405 -1.7279
 1251TIP3   OH2 3674   7.228   4.111   0.577 -0.2046  0.8799 -0.6707
 1251TIP3    H1 3675   7.308   4.061   0.591 -0.6178  0.2166 -0.6382
 1251TIP3    H2 3676   7.157   4.048   0.592 -0.7334  1.4690 -0.6463
 1252TIP3   OH2 3677   7.490   4.675   3.122 -0.2931  0.2864 -0.4738
 1252TIP3    H1 3678   7.438   4.602   3.156 -1.2169  1.3428  0.4870
 1252TIP3    H2 3679   7.429   4.748   3.118  0.8118  1.2410 -0.5431
 1253TIP3   OH2 3680   2.816   6.345   0.924  0.0471  0.1821  0.2466
 1253TIP3    H1 3681   2.861   6.261   0.927  0.4934  0.4036 -0.1892
 1253TIP3    H2 3682   2.824   6.374   0.834 -0.7945  0.3265  0.2062
 1254TIP3   OH2 3683   3.924   3.989   0.741  0.2528  0.2513  0.2601
 1254TIP3    H1 3684   3.974   4.054   0.692 -1.5842  0.7032 -1.1354
 1254TIP3    H2 3685   3.917   3.914   0.682 -1.3201  0.4984  0.0682
 1255TIP3   OH2 3686   6.702   7.846   5.847 -0.0980 -0.4443 -0.2765
 1255TIP3    H1 3687   6.709   7.764   5.798  1.7866 -0.9766  0.7859
 1255TIP3    H2 3688   6.787   7.889   5.833 -1.1510  1.4957 -1.0479
 1256TIP3   OH2 3689   1.121   0.874   5.377 -0.1763 -0.5416 -0.0249
 1256TIP3    H1 3690   1.182   0.842   5.310  2.9793 -0.5768  2.6420
 1256TIP3    H2 3691   1.053   0.807   5.381  0.1706 -1.1195 -2.3253
 1257TIP3   OH2 3692   5.832   6.057   4.389 -0.2060  0.1766 -0.0146
 1257TIP3    H1 3693   5.771   5.984   4.381  0.2310 -0.1356 -0.5103
 1257TIP3    H2 3694   5.904   6.036   4.329  1.3447 -0.4077  1.9513
 1258TIP3   OH2 3695   0.859   1.636   4.147 -0.2501 -0.1568 -0.5710
 1258TIP3    H1 3696   0.883   1.591   4.228  0.2220 -1.6647 -1.4970
 1258TIP3    H2 3697   0.930   1.699   4.133 -0.2693  0.0195  0.1279
 1259TIP3   OH2 3698   0.135   5.955   4.366 -0.1902 -0.0496 -0.2817
 1259TIP3    H1 3699   0.123   5.889   4.298  0.1804 -2.4179  1.8172
 1259TIP3    H2 3700   0.225   5.985   4.354 -0.1445 -0.3896 -0.8514
 1260TIP3   OH2 3701   2.919   2.569   6.491  0.0542  0.1188 -0.2090
 1260TIP3    H1 3702   3.010   2.597   6.489  0.4486 -1.0262  0.6558
 1260TIP3    H2 3703   2.919   2.483   6.450 -0.9400  0.8151 -1.7590
 1261TIP3   OH2 3704   1.901   4.261   0.921  0.7294 -0.0785 -0.2959
 1261TIP3    H1 3705   1.917   4.168   0.941 -1.3124 -0.4653 -0.2545
 1261TIP3    H2 3706   1.897   4.263   0.825 -1.9450 -0.6112 -0.2678
 1262TIP3   OH2 3707   1.077   6.403   5.502 -0.3720  0.1293  0.4286
 1262TIP3    H1 3708   1.096   6.317   5.539  0.5541  1.4267  3.1923
 1262TIP3    H2 3709   1.021   6.446   5.567  0.7491  2.3012  0.0399
 1263TIP3   OH2 3710   6.282   2.485   2.954  0.0248 -0.0105 -0.0590
 1263TIP3    H1 3711   6.336   2.415   2.990 -1.1467 -1.0650 -0.2765
 1263TIP3    H2 3712   6.301   2.561   3.010  1.2161 -0.5242  0.2653
 1264TIP3   OH2 3713   2.106   4.212   3.895  0.0875  0.0191 -0.2370
 1264TIP3    H1 3714   2.126   4.300   3.863  1.5137 -0.3635 -0.4374
 1264TIP3    H2 3715   2.126   4.216   3.989 -0.3203  0.0361 -0.1482
 1265TIP3   OH2 3716   3.294   6.111   3.201 -0.6345  0.3781  0.0565
 1265TIP3    H1 3717   3.287   6.033   3.146 -0.1787 -1.7278  2.7174
 1265TIP3    H2 3718   3.218   6.164   3.178  0.3658  0.4946 -3.6221
 1266TIP3   OH2 3719   6.399   6.881   2.597 -0.2493  0.3380 -0.2869
 1266TIP3    H1 3720   6.486   6.867   2.560  0.7270 -0.1457  2.0211
 1266TIP3    H2 3721   6.353   6.798   2.586 -0.4257  0.5729 -1.4426
 1267TIP3   OH2 3722   6.654   1.141   4.235  0.5881  0.1155 -0.5279
 1267TIP3    H1 3723   6.713   1.203   4.278 -1.1076  1.5969 -0.2445
 1267TIP3    H2 3724   6.667   1.059   4.283  2.0130  0.5325 -0.1404
 1268TIP3   OH2 3725   0.976   5.737   5.400  0.0869  0.5793  0.3251
 1268TIP3    H1 3726   1.029   5.702   5.472  1.3172  1.0092 -0.3439
 1268TIP3    H2 3727   1.019   5.819   5.376 -1.5517  1.5306  0.4898
 1269TIP3   OH2 3728   6.072   6.534   4.425  0.3595 -0.0132 -0.0101
 1269TIP3    H1 3729   6.005   6.466   4.425 -0.5643  0.8677  0.7866
 1269TIP3    H2 3730   6.135   6.507   4.492  0.6350 -0.6643 -0.5203
 1270TIP3   OH2 3731   2.638   7.982   5.600  0.6366  0.2113  0.1843
 1270TIP3    H1 3732   2.666   8.017   5.515  0.8694  0.3470  0.3173
 1270TIP3    H2 3733   2.694   7.904   5.612  1.6294  1.0044  0.8842
 1271TIP3   OH2 3734   4.435   8.137   1.006 -0.3928  0.0255 -0.1708
 1271TIP3    H1 3735   4.378   8.145   1.082 -0.3336  1.4814 -0.2591
 1271TIP3    H2 3736   4.403   8.059   0.960 -1.8465  0.4084  0.1586
 1272TIP3   OH2 3737   2.521   8.182   2.355  0.7279 -0.0578  0.5542
 1272TIP3    H1 3738   2.600   8.139   2.325  0.7012  0.0592  0.3168
 1272TIP3    H2 3739   2.464   8.186   2.278  0.2092 -0.7715  0.8912
 1273TIP3   OH2 3740   4.880   1.953   6.122  0.0607  0.1499  0.1660
 1273TIP3    H1 3741   4.788   1.926   6.117 -0.1646  0.9554 -0.2541
 1273TIP3    H2 3742   4.921   1.889   6.180 -0.7244 -0.3317  0.2016
 1274TIP3   OH2 3743   6.135   0.192   2.675  0.5335 -0.3265  0.5975
 1274TIP3    H1 3744   6.231   0.194   2.674  0.5782 -0.2652 -1.7528
 1274TIP3    H2 3745   6.110   0.212   2.584 -1.7878  1.8351  1.5933
 1275TIP3   OH2 3746   6.473   3.653   5.289 -0.2145  0.1013 -0.2971
 1275TIP3    H1 3747   6.422   3.588   5.239 -0.6436  1.2146 -1.3550
 1275TIP3    H2 3748   6.455   3.632   5.380 -0.9345 -0.8090 -0.6290
 1276TIP3   OH2 3749   1.439   7.866   5.929  0.1971  0.0193 -0.2303
 1276TIP3    H1 3750   1.391   7.892   5.850  0.9205  0.0395 -0.6710
 1276TIP3    H2 3751   1.531   7.877   5.906  0.4333 -0.4833  0.4422
 1277TIP3   OH2 3752   6.598   1.785   7.001 -0.2647  0.3558 -0.0840
 1277TIP3    H1 3753   6.530   1.760   6.939  0.3222  0.6641 -0.8812
 1277TIP3    H2 3754   6.637   1.702   7.029 -0.0588  0.2343 -0.7005
 1278TIP3   OH2 3755   0.504   6.552   1.286 -0.2380  0.0433 -0.1239
 1278TIP3    H1 3756   0.469   6.526   1.201  2.1164 -0.4304 -1.0157
 1278TIP3    H2 3757   0.433   6.534   1.347 -1.0062 -2.3494 -1.5814
 1279TIP3   OH2 3758   2.006   7.925   1.037  0.3491 -0.5707  0.1174
 1279TIP3    H1 3759   1.937   7.898   0.976  1.3118  0.4159 -1.4824
 1279TIP3    H2 3760   2.031   7.845   1.082 -0.9619 -1.1806 -0.1906
 1280TIP3   OH2 3761   8.480   2.571   4.460  0.1166 -0.1002 -0.2951
 1280TIP3    H1 3762   8.388   2.559   4.482  0.3432 -1.7208 -0.0846
 1280TIP3    H2 3763   8.521   2.487   4.482  2.1485  1.3789  2.1717
 1281TIP3   OH2 3764   6.362   1.336   5.886 -0.4480  0.9756 -0.2068
 1281TIP3    H1 3765   6.276   1.369   5.861 -0.6650  0.8258  0.3246
 1281TIP3    H2 3766   6.424   1.395   5.843 -0.8261  1.8622  0.4296
 1282TIP3   OH2 3767   0.815   0.975   4.092  0.4615  0.3202  0.1160
 1282TIP3    H1 3768   0.831   0.975   3.998 -0.9171 -0.7584 -0.1389
 1282TIP3    H2 3769   0.785   1.063   4.112 -0.6054  0.1538 -0.7130
 1283TIP3   OH2 3770   0.560   3.825   5.936 -0.1145  0.2634 -0.5672
 1283TIP3    H1 3771   0.587   3.805   5.846  1.5462  0.3539 -0.1291
 1283TIP3    H2 3772   0.574   3.919   5.944 -0.8187  0.3558 -0.3772
 1284TIP3   OH2 3773   7.971   0.569   0.108 -0.0591  0.2333 -0.2114
 1284TIP3    H1 3774   7.886   0.609   0.086 -0.0864  0.4897  0.3372
 1284TIP3    H2 3775   8.016   0.637   0.159 -0.6447 -0.8799  1.9491
 1285TIP3   OH2 3776   0.849   2.504   5.107  0.0329 -0.0497  0.2155
 1285TIP3    H1 3777   0.889   2.467   5.186 -2.0619  0.1960  1.4684
 1285TIP3    H2 3778   0.911   2.484   5.037 -0.5334 -5.4300  0.8360
 1286TIP3   OH2 3779   0.998   7.388   3.680 -0.3427  0.0661 -0.0629
 1286TIP3    H1 3780   1.002   7.451   3.752  0.1569 -0.2144  0.1581
 1286TIP3    H2 3781   0.998   7.442   3.601 -0.0031  0.3445  0.1272
 1287TIP3   OH2 3782   3.133   0.427   2.002  0.2392 -0.9626  0.5174
 1287TIP3    H1 3783   3.045   0.460   1.988 -0.1554 -1.9059  0.6969
 1287TIP3    H2 3784   3.142   0.424   2.097  0.7675 -0.1202  0.5082
 1288TIP3   OH2 3785   4.224   3.168   0.785 -0.0119 -0.2261 -0.0269
 1288TIP3    H1 3786   4.267   3.234   0.840 -0.5173 -0.2047  0.3505
 1288TIP3    H2 3787   4.177   3.219   0.719 -2.0723 -0.0749  1.4634
 1289TIP3   OH2 3788   1.554   0.461   1.343 -0.2607  0.4048  0.1927
 1289TIP3    H1 3789   1.478   0.413   1.310 -0.1653  1.1287 -1.1685
 1289TIP3    H2 3790   1.550   0.545   1.297  1.2021  0.5620  0.3189
 1290TIP3   OH2 3791   8.538   7.431   6.265  0.4098 -0.2702  0.5339
 1290TIP3    H1 3792   8.491   7.352   6.293  0.9781 -1.1009 -0.7395
 1290TIP3    H2 3793   8.631   7.407   6.273  0.7093  1.3067  2.9242
 1291TIP3   OH2 3794   3.861   6.012   4.680  0.4478  0.0848  0.1642
 1291TIP3    H1 3795   3.874   5.918   4.694  0.4407  0.0571 -0.0174
 1291TIP3    H2 3796   3.936   6.053   4.722  1.4240 -0.0970 -1.3268
 1292TIP3   OH2 3797   3.271   7.259   6.224 -0.2748 -0.9502  0.0652
 1292TIP3    H1 3798   3.338   7.252   6.292 -1.5933  0.9553  1.6730
 1292TIP3    H2 3799   3.292   7.341   6.178 -0.4009 -1.3428 -0.7138
 1293TIP3   OH2 3800   2.292   7.662   1.905 -0.6750 -0.5468  0.1080
 1293TIP3    H1 3801   2.222   7.724   1.885 -0.9733 -0.6288  0.8806
 1293TIP3    H2 3802   2.249   7.593   1.955  0.1577 -0.0558  1.5448
 1294TIP3   OH2 3803   5.947   0.593   5.526 -0.5684  0.0273 -0.0780
 1294TIP3    H1 3804   5.864   0.545   5.519 -0.1386 -0.7380 -0.0367
 1294TIP3    H2 3805   6.009   0.528   5.559  0.6624 -0.0984 -2.4811
 1295TIP3   OH2 3806   3.172   4.078   5.253 -0.8922 -0.3697 -0.7592
 1295TIP3    H1 3807   3.143   4.158   5.210 -1.8947 -1.3239 -1.9602
 1295TIP3    H2 3808   3.228   4.035   5.188  1.1024  0.1519  0.5242
 1296TIP3   OH2 3809   4.478   2.221   2.656 -0.2892 -0.4478  0.2165
 1296TIP3    H1 3810   4.531   2.141   2.660 -0.0935 -0.2704  1.6192
 1296TIP3    H2 3811   4.483   2.248   2.564  1.9522 -0.4916  0.2666
 1297TIP3   OH2 3812   5.567   3.109   0.045 -0.0060 -0.2830 -0.0397
 1297TIP3    H1 3813   5.598   3.199   0.034  0.1146  0.0192  2.2674
 1297TIP3    H2 3814   5.647   3.057   0.051 -0.0752 -0.6286 -1.5655
 1298TIP3   OH2 3815   8.164   4.350   1.266  0.2895 -0.6742  0.6201
 1298TIP3    H1 3816   8.085   4.394   1.297 -0.4547 -2.2145  1.0015
 1298TIP3    H2 3817   8.192   4.401   1.190 -1.1821 -0.2125  0.3661
 1299TIP3   OH2 3818   8.290   4.407   5.501 -0.2202 -0.6468 -0.5056
 1299TIP3    H1 3819   8.333   4.466   5.439  0.5108  0.1556  0.7211
 1299TIP3    H2 3820   8.346   4.330   5.504 -0.0813 -0.5490 -0.6079
 1300TIP3   OH2 3821   3.677   3.096   0.313 -0.1716 -0.7357 -0.7648
 1300TIP3    H1 3822   3.621   3.124   0.385  0.5288 -1.6455  0.1787
 1300TIP3    H2 3823   3.710   3.011   0.341  1.5343 -0.3047 -1.3472
 1301TIP3   OH2 3824   5.695   3.866   6.359  0.3296 -0.1950 -0.1458
 1301TIP3    H1 3825   5.660   3.941   6.311 -0.3650 -0.6717 -0.3951
 1301TIP3    H2 3826   5.723   3.902   6.443 -0.5533  0.2349 -0.0332
 1302TIP3   OH2 3827   5.115   7.728   7.129  0.2984  0.0328 -0.3837
 1302TIP3    H1 3828   5.062   7.794   7.084  1.0080  0.2859 -0.8589
 1302TIP3    H2 3829   5.153   7.675   7.059  0.7695 -0.0666 -0.0598
 1303TIP3   OH2 3830   2.558   4.840   1.477  0.4732  0.3834  0.2913
 1303TIP3    H1 3831   2.548   4.911   1.414  0.5488 -0.5745 -0.8249
 1303TIP3    H2 3832   2.510   4.766   1.439 -0.8877  0.2422  2.1267
 1304TIP3   OH2 3833   4.855   2.010   5.812  0.3598  0.1405  0.4657
 1304TIP3    H1 3834   4.882   2.034   5.724 -2.6363  0.6954 -0.4331
 1304TIP3    H2 3835   4.909   2.065   5.869  1.1666  1.0606 -1.1094
 1305TIP3   OH2 3836   7.539   2.397   0.646  0.0096  0.0461  0.0605
 1305TIP3    H1 3837   7.458   2.381   0.695  1.1598 -0.3381  1.9149
 1305TIP3    H2 3838   7.579   2.311   0.637 -0.7397 -0.1338 -2.7710
 1306TIP3   OH2 3839   2.870   4.023   3.238  0.0950 -0.1301  0.1681
 1306TIP3    H1 3840   2.921   4.080   3.295  0.0693 -0.1298  0.1904
 1306TIP3    H2 3841   2.868   3.939   3.284  1.9176 -0.7668 -0.8106
 1307TIP3   OH2 3842   7.729   0.466   0.596  0.2710 -0.3529 -0.1208
 1307TIP3    H1 3843   7.720   0.450   0.690  2.3843  0.1922  0.2313
 1307TIP3    H2 3844   7.680   0.395   0.555 -1.3454 -0.1598  1.3715
 1308TIP3   OH2 3845   7.345   5.404   1.179 -0.2841 -0.1202 -0.5860
 1308TIP3    H1 3846   7.301   5.487   1.201  0.6067  0.0322  0.7197
 1308TIP3    H2 3847   7.308   5.340   1.240  0.1237 -0.3505 -0.5791
 1309TIP3   OH2 3848   1.399   0.253   3.314  0.5568  0.3069  0.3307
 1309TIP3    H1 3849   1.427   0.345   3.308 -1.2972  1.0525  1.9298
 1309TIP3    H2 3850   1.325   0.255   3.374  0.8002 -2.3528  0.8132
 1310TIP3   OH2 3851   5.677   1.405   4.078  0.0632 -0.5105  0.4787
 1310TIP3    H1 3852   5.607   1.342   4.060  0.6489 -0.6573 -1.4395
 1310TIP3    H2 3853   5.657   1.437   4.166 -3.1922  0.4214 -0.4500
 1311TIP3   OH2 3854   7.085   7.232   5.964 -0.4484 -0.2636  0.2177
 1311TIP3    H1 3855   7.047   7.189   6.040 -0.2444 -0.6471  0.1049
 1311TIP3    H2 3856   7.074   7.170   5.893 -1.6796  0.5548 -0.3356
 1312TIP3   OH2 3857   7.041   1.419   3.862  0.2917  0.1274 -0.3056
 1312TIP3    H1 3858   7.107   1.402   3.795  0.0229 -3.0811  0.0779
 1312TIP3    H2 3859   7.056   1.350   3.927 -0.7939  1.8643  1.9203
 1313TIP3   OH2 3860   4.772   0.314   3.302  1.0760 -0.3980 -0.0067
 1313TIP3    H1 3861   4.689   0.328   3.257  0.0735 -1.3210  1.5017
 1313TIP3    H2 3862   4.831   0.379   3.263 -0.9638  1.9387  0.5503
 1314TIP3   OH2 3863   4.614   4.021   3.259  0.6862  0.8835  0.0407
 1314TIP3    H1 3864   4.704   3.987   3.267  0.2813 -1.0416 -2.5147
 1314TIP3    H2 3865   4.564   3.971   3.323  1.1836  1.0347  0.5583
 1315TIP3   OH2 3866   8.386   3.933   1.713  0.6464 -0.3081  0.3257
 1315TIP3    H1 3867   8.309   3.945   1.657  0.5573 -0.6759  0.3664
 1315TIP3    H2 3868   8.354   3.882   1.787  0.4976  1.1472  1.3081
 1316TIP3   OH2 3869   6.084   8.158   0.152 -0.1594  0.0717  0.4113
 1316TIP3    H1 3870   6.011   8.133   0.095 -0.1883  0.9562  0.0385
 1316TIP3    H2 3871   6.150   8.193   0.092 -0.1459  0.9167  0.8976
 1317TIP3   OH2 3872   2.865   7.045   1.996 -0.2251  0.3126 -0.6270
 1317TIP3    H1 3873   2.813   7.099   1.938 -0.1239  1.3604  0.2177
 1317TIP3    H2 3874   2.935   7.010   1.941  0.9375  2.7337 -0.8166
 1318TIP3   OH2 3875   7.166   0.393   6.544  1.1413  0.6894 -0.0366
 1318TIP3    H1 3876   7.092   0.450   6.523  1.5914  1.5608  0.6970
 1318TIP3    H2 3877   7.128   0.325   6.600  0.7272  0.5942 -0.4192
 1319TIP3   OH2 3878   5.452   3.816   5.878  0.0568  0.1010 -0.2041
 1319TIP3    H1 3879   5.407   3.786   5.799  1.0030 -2.2835  0.0662
 1319TIP3    H2 3880   5.412   3.765   5.948  0.3759  0.9687  0.6230
 1320TIP3   OH2 3881   4.408   2.824   5.416 -0.4733  0.7101  0.1299
 1320TIP3    H1 3882   4.470   2.811   5.488 -0.4009  1.0241  0.1285
 1320TIP3    H2 3883   4.363   2.740   5.407  0.0897  0.4149  0.0010
 1321TIP3   OH2 3884   5.998   3.284   2.450  0.3244 -0.1385  0.3711
 1321TIP3    H1 3885   5.940   3.360   2.454 -0.7504 -0.9582  0.9981
 1321TIP3    H2 3886   6.049   3.296   2.371 -1.5387  0.0390 -0.8579
 1322TIP3   OH2 3887   0.786   4.883   1.121  0.1787 -0.1772  0.0114
 1322TIP3    H1 3888   0.786   4.917   1.032 -0.8928  0.2823  0.1680
 1322TIP3    H2 3889   0.709   4.827   1.126  0.9575 -1.2625  0.2752
 1323TIP3   OH2 3890   7.804   7.971   4.206 -0.0861  0.2859  0.2533
 1323TIP3    H1 3891   7.746   7.978   4.281 -0.4048  1.2749 -0.0703
 1323TIP3    H2 3892   7.827   8.062   4.184  0.1594  0.0099 -0.7063
 1324TIP3   OH2 3893   3.068   6.655   3.011 -0.1170 -0.3624 -0.8540
 1324TIP3    H1 3894   3.032   6.735   3.049 -1.7459 -0.7501 -1.4693
 1324TIP3    H2 3895   3.148   6.683   2.968  0.0427  0.6772  0.0742
 1325TIP3   OH2 3896   7.064   1.359   0.661  0.2184  0.1178  0.3186
 1325TIP3    H1 3897   7.039   1.268   0.677  1.8764 -0.6077 -0.8807
 1325TIP3    H2 3898   6.993   1.411   0.699 -0.9817 -1.6766  0.6384
 1326TIP3   OH2 3899   4.068   7.033   6.620  0.0507  0.0188  0.1177
 1326TIP3    H1 3900   4.009   7.005   6.551  0.6525  0.2645 -0.5110
 1326TIP3    H2 3901   4.089   6.952   6.667 -0.2279 -0.1794 -0.0949
 1327TIP3   OH2 3902   3.882   0.700   6.658 -0.1194  0.0766  0.1806
 1327TIP3    H1 3903   3.950   0.754   6.619  0.5181  0.2125  1.4391
 1327TIP3    H2 3904   3.922   0.614   6.669 -0.1079  0.1863  1.0274
 1328TIP3   OH2 3905   8.146   1.668   2.345  0.3827  0.1468  0.4018
 1328TIP3    H1 3906   8.143   1.615   2.425 -0.0873 -0.8589 -0.2578
 1328TIP3    H2 3907   8.092   1.619   2.282  2.0253  0.0805 -1.0188
 1329TIP3   OH2 3908   7.214   7.988   4.509 -0.2471  0.3678  0.0020
 1329TIP3    H1 3909   7.305   8.006   4.532  0.0860 -0.5456 -0.5707
 1329TIP3    H2 3910   7.186   8.065   4.459 -0.0477  1.0081  0.8469
 1330TIP3   OH2 3911   6.944   4.398   4.303  0.5390 -0.1689 -0.1733
 1330TIP3    H1 3912   7.037   4.374   4.301  0.4491 -0.5927  0.6355
 1330TIP3    H2 3913   6.942   4.479   4.354  0.2718 -1.0697  1.2720
 1331TIP3   OH2 3914   1.661   4.885   6.412  0.5670  0.0069  0.3172
 1331TIP3    H1 3915   1.729   4.952   6.405 -0.8256  1.4667  0.1373
 1331TIP3    H2 3916   1.688   4.831   6.486  1.4136  1.1665  0.8946
 1332TIP3   OH2 3917   7.548   5.363   3.487  0.2205  0.2182  0.2957
 1332TIP3    H1 3918   7.530   5.290   3.547  1.3897  1.8238  2.7492
 1332TIP3    H2 3919   7.636   5.393   3.511 -0.7215  3.2806  0.3300
 1333TIP3   OH2 3920   6.072   8.112   5.943  0.1177  0.1579  0.5605
 1333TIP3    H1 3921   6.121   8.177   5.892  2.1541  0.0531  2.2468
 1333TIP3    H2 3922   6.114   8.029   5.924  0.1274 -0.0578  1.4808
 1334TIP3   OH2 3923   3.340   0.054   5.044 -0.0108 -0.2004 -0.1635
 1334TIP3    H1 3924   3.245   0.054   5.040 -0.1090 -0.6893  1.5078
 1334TIP3    H2 3925   3.361   0.040   5.137  1.6814 -1.3460 -0.6573
 1335TIP3   OH2 3926   8.634   6.679   5.063 -0.2813 -0.3164 -0.2463
 1335TIP3    H1 3927   8.647   6.757   5.010  0.0585 -0.4835 -0.4095
 1335TIP3    H2 3928   8.710   6.676   5.120 -0.3135 -0.5091 -0.2139
 1336TIP3   OH2 3929   0.404   8.096   6.247  0.0346  0.4546  0.4976
 1336TIP3    H1 3930   0.483   8.044   6.264  0.1912  0.7054  0.5589
 1336TIP3    H2 3931   0.434   8.187   6.256  0.0597  0.6023 -0.8794
 1337TIP3   OH2 3932   1.325   4.134   6.227 -0.2974  0.0285  0.3179
 1337TIP3    H1 3933   1.234   4.120   6.252 -0.4416 -0.4267 -0.4047
 1337TIP3    H2 3934   1.346   4.059   6.171  0.3282  0.4414 -0.0214
 1338TIP3   OH2 3935   6.611   1.741   2.446  0.0753 -0.2406  0.5493
 1338TIP3    H1 3936   6.518   1.766   2.441  0.0736 -0.4130 -0.5699
 1338TIP3    H2 3937   6.622   1.707   2.534 -0.4769  1.5419  1.3520
 1339TIP3   OH2 3938   1.154   6.326   4.572 -0.1319 -0.0109 -0.3982
 1339TIP3    H1 3939   1.095   6.401   4.577 -0.3207 -0.1071 -1.0413
 1339TIP3    H2 3940   1.166   6.312   4.478  2.3306  1.1334 -0.3279
 1340TIP3   OH2 3941   2.575   3.418   6.157  0.1572 -0.1882  0.8839
 1340TIP3    H1 3942   2.649   3.422   6.097  1.2800  2.6143  2.2656
 1340TIP3    H2 3943   2.614   3.430   6.244 -1.8005  0.3925  1.7475
 1341TIP3   OH2 3944   3.394   3.803   4.706 -0.3923 -0.3251  0.0440
 1341TIP3    H1 3945   3.380   3.867   4.637  0.4074 -2.2541 -2.0199
 1341TIP3    H2 3946   3.355   3.722   4.673  1.3712 -1.7097  1.1576
 1342TIP3   OH2 3947   2.569   5.387   6.188  0.1188  0.0405 -0.3772
 1342TIP3    H1 3948   2.569   5.456   6.255 -0.9591 -0.8624  0.5967
 1342TIP3    H2 3949   2.660   5.381   6.160  0.2671  1.7067 -0.3272
 1343TIP3   OH2 3950   8.122   0.853   3.327 -0.2206 -0.1411  0.0724
 1343TIP3    H1 3951   8.086   0.855   3.238  0.3163 -0.3036 -0.1517
 1343TIP3    H2 3952   8.190   0.920   3.327 -0.9331  0.6082  0.6838
 1344TIP3   OH2 3953   6.172   2.384   5.746  0.1067 -0.3524  0.2804
 1344TIP3    H1 3954   6.268   2.385   5.748  0.1227 -0.3488 -0.2694
 1344TIP3    H2 3955   6.150   2.408   5.656 -0.4369  1.4703  0.8570
 1345TIP3   OH2 3956   8.404   6.836   3.112 -0.5499 -0.2708  0.4279
 1345TIP3    H1 3957   8.320   6.864   3.148 -2.2961 -0.7760 -2.8477
 1345TIP3    H2 3958   8.431   6.764   3.168 -1.1083  1.2824  2.8681
 1346TIP3   OH2 3959   1.549   0.108   0.508  0.1411  0.5473  0.0515
 1346TIP3    H1 3960   1.482   0.081   0.571 -0.0390  0.1274 -0.3159
 1346TIP3    H2 3961   1.560   0.032   0.451  0.5089  0.8256 -0.2484
 1347TIP3   OH2 3962   5.303   2.759   5.373 -0.2332 -0.0953 -0.0783
 1347TIP3    H1 3963   5.270   2.685   5.323 -1.0712  0.0358  0.2759
 1347TIP3    H2 3964   5.225   2.801   5.409  0.2956  0.4071  0.5004
 1348TIP3   OH2 3965   0.932   1.713   6.339 -0.1646  0.0074 -0.1020
 1348TIP3    H1 3966   0.863   1.744   6.281  1.1146  1.6582 -0.8321
 1348TIP3    H2 3967   0.886   1.673   6.413 -1.8821 -2.4699 -2.2985
 1349TIP3   OH2 3968   6.973   7.363   6.944 -0.1069 -0.4321 -0.7989
 1349TIP3    H1 3969   7.027   7.439   6.966 -2.1224  0.2049  2.5715
 1349TIP3    H2 3970   7.015   7.290   6.988 -0.7327 -0.3548 -0.0593
 1350TIP3   OH2 3971   2.663   2.668   3.134  0.4038 -0.2536  0.5106
 1350TIP3    H1 3972   2.630   2.630   3.215 -0.4415 -0.3584  0.1215
 1350TIP3    H2 3973   2.631   2.611   3.064 -1.4335  1.4671 -0.1421
 1351TIP3   OH2 3974   2.865   0.059   6.331  0.1881  0.2016  0.1042
 1351TIP3    H1 3975   2.926  -0.015   6.326  1.1483  0.9694  0.2773
 1351TIP3    H2 3976   2.912   0.126   6.381 -0.3462  1.2446 -0.7557
 1352TIP3   OH2 3977   7.249   4.575   2.675 -0.1299 -0.2016 -0.0356
 1352TIP3    H1 3978   7.164   4.546   2.642 -1.0945  2.9898 -0.7789
 1352TIP3    H2 3979   7.232   4.600   2.766 -0.3936  1.6342 -0.5484
 1353TIP3   OH2 3980   2.800   2.433   4.212 -0.0736 -0.1418 -0.0677
 1353TIP3    H1 3981   2.796   2.508   4.272 -0.0277 -0.3536  0.2039
 1353TIP3    H2 3982   2.749   2.461   4.136  1.2383  0.7606 -0.6490
 1354TIP3   OH2 3983   7.559   1.917   6.023 -0.2188  0.2459  0.0700
 1354TIP3    H1 3984   7.608   1.850   6.071  0.7695  0.8706 -0.0549
 1354TIP3    H2 3985   7.617   1.993   6.020 -1.4646  1.2632  0.5366
 1355TIP3   OH2 3986   7.365   0.824   3.405  0.0534 -0.6717 -0.2409
 1355TIP3    H1 3987   7.333   0.879   3.333  0.6087 -0.8992 -0.6719
 1355TIP3    H2 3988   7.303   0.751   3.408  0.1442 -0.7720 -0.6379
 1356TIP3   OH2 3989   0.437   7.594   5.305 -0.6522 -0.1511  0.3447
 1356TIP3    H1 3990   0.396   7.568   5.223  1.3617  0.7690 -1.0300
 1356TIP3    H2 3991   0.528   7.564   5.298 -0.8134 -1.6266  3.0306
 1357TIP3   OH2 3992   8.209   6.789   3.975  0.1352  0.2156 -0.3695
 1357TIP3    H1 3993   8.245   6.766   3.889  0.3668 -1.1899  0.0631
 1357TIP3    H2 3994   8.131   6.734   3.983 -0.0890  0.6144  0.1671
 1358TIP3   OH2 3995   8.000   3.239   0.273  0.3798  0.9025 -0.2538
 1358TIP3    H1 3996   7.977   3.290   0.195 -1.2858  0.6961  0.0604
 1358TIP3    H2 3997   8.025   3.153   0.238  1.0363  1.2394 -0.6350
 1359TIP3   OH2 3998   5.923   4.752   6.539  0.3591 -0.1278  0.1546
 1359TIP3    H1 3999   5.910   4.677   6.598 -0.3546 -0.6074 -0.6004
 1359TIP3    H2 4000   5.843   4.805   6.550  0.1142 -0.3406 -0.5431
 1360TIP3   OH2 4001   0.839   5.171   1.808  0.2689  0.0184 -0.2543
 1360TIP3    H1 4002   0.826   5.090   1.858  2.7086  0.0078  0.4771
 1360TIP3    H2 4003   0.833   5.240   1.874 -1.7542  0.5017 -0.8700
 1361TIP3   OH2 4004   6.341   0.483   2.689 -0.2847  0.3559 -0.4908
 1361TIP3    H1 4005   6.308   0.507   2.603 -0.5066  3.2140  0.2965
 1361TIP3    H2 4006   6.263   0.481   2.745 -0.1855 -1.7579 -0.3535
 1362TIP3   OH2 4007   2.669   0.885   1.126 -0.0447  0.5222 -0.8952
 1362TIP3    H1 4008   2.714   0.829   1.190 -2.8000 -0.9180 -0.0116
 1362TIP3    H2 4009   2.647   0.825   1.054 -0.3612  1.2173 -1.3867
 1363TIP3   OH2 4010   7.331   4.600   4.456 -0.0097  0.5415  0.2398
 1363TIP3    H1 4011   7.347   4.531   4.521 -1.4557  0.4052  0.4729
 1363TIP3    H2 4012   7.419   4.633   4.435  0.8017 -1.7066 -0.2546
 1364TIP3   OH2 4013   5.623   0.063   1.118 -0.1529 -0.3841 -0.3240
 1364TIP3    H1 4014   5.600   0.035   1.206 -0.0923 -1.5261 -0.6621
 1364TIP3    H2 4015   5.715   0.039   1.107 -0.3136 -0.7710 -0.8963
 1365TIP3   OH2 4016   4.687   0.499   5.584  0.5662  0.2615 -0.5201
 1365TIP3    H1 4017   4.772   0.544   5.591  0.0533  1.2337 -0.3714
 1365TIP3    H2 4018   4.632   0.542   5.649 -0.3952  0.4650 -1.4473
 1366TIP3   OH2 4019   0.020   4.661   0.398 -0.5647  0.2324  0.2728
 1366TIP3    H1 4020   0.010   4.572   0.432  1.5082 -0.2699 -0.3217
 1366TIP3    H2 4021   0.023   4.716   0.476 -1.3428 -0.2587  0.6651
 1367TIP3   OH2 4022   4.942   3.605   6.330 -0.3610 -0.4197 -0.2442
 1367TIP3    H1 4023   4.910   3.630   6.243  0.8947 -1.7542 -1.1461
 1367TIP3    H2 4024   4.935   3.685   6.382 -0.4420  0.6346 -1.7997
 1368TIP3   OH2 4025   4.011   5.839   5.493 -0.0162  0.7697  0.1604
 1368TIP3    H1 4026   3.991   5.873   5.580 -1.4762 -0.0343  0.1659
 1368TIP3    H2 4027   3.956   5.891   5.434  1.0644  1.4030 -0.3250
 1369TIP3   OH2 4028   8.461   4.186   1.748 -0.3037 -0.6258  0.3284
 1369TIP3    H1 4029   8.394   4.174   1.681  1.3044  0.4736 -1.6318
 1369TIP3    H2 4030   8.508   4.103   1.750 -0.7611 -0.8814  0.5792
 1370TIP3   OH2 4031   4.493   6.747   4.621  0.4508 -0.4719  0.0113
 1370TIP3    H1 4032   4.482   6.683   4.691 -1.7523  0.1497  0.3149
 1370TIP3    H2 4033   4.509   6.693   4.543  0.0073 -1.3337  0.4923
 1371TIP3   OH2 4034   7.586   1.374   0.418  0.2778 -0.4281  0.3467
 1371TIP3    H1 4035   7.631   1.439   0.472 -0.2302 -0.4710  0.8253
 1371TIP3    H2 4036   7.494   1.400   0.420  0.2334 -0.5257 -0.3701
 1372TIP3   OH2 4037   7.632   6.195   6.419  0.6887  0.5502  0.0797
 1372TIP3    H1 4038   7.707   6.150   6.380  0.8504  0.3742  0.5900
 1372TIP3    H2 4039   7.666   6.281   6.443  1.1305 -0.0508  1.6676
 1373TIP3   OH2 4040   0.242   6.910   0.282 -0.3718 -0.6308 -0.4088
 1373TIP3    H1 4041   0.270   6.900   0.373 -0.8664 -1.7481 -0.3639
 1373TIP3    H2 4042   0.321   6.935   0.235 -0.3356  1.0690  0.5012
 1374TIP3   OH2 4043   3.404   4.529   5.671 -0.4157  0.3218 -0.1852
 1374TIP3    H1 4044   3.409   4.489   5.758 -0.6227 -1.3170 -0.8962
 1374TIP3    H2 4045   3.493   4.562   5.654 -0.0488 -0.5044  0.1155
 1375TIP3   OH2 4046   0.055   3.530   0.046  0.4148 -0.5984 -0.1567
 1375TIP3    H1 4047   0.094   3.453   0.006 -1.2939 -0.4531 -2.2985
 1375TIP3    H2 4048   0.116   3.601   0.026  1.0625 -1.0558  0.1742
 1376TIP3   OH2 4049   0.469   6.776   2.549 -0.0082 -0.3584  0.1536
 1376TIP3    H1 4050   0.545   6.807   2.502  1.0526 -2.3377  0.4538
 1376TIP3    H2 4051   0.396   6.826   2.513  1.3230  1.1552 -0.5582
 1377TIP3   OH2 4052   1.726   0.762   6.337  0.0788  0.2258  0.2599
 1377TIP3    H1 4053   1.784   0.779   6.263  0.9484  2.4689  1.3499
 1377TIP3    H2 4054   1.652   0.821   6.324  0.8760  1.6510  1.7710
 1378TIP3   OH2 4055   7.138   4.533   5.482 -0.8496 -0.0187 -0.2371
 1378TIP3    H1 4056   7.085   4.492   5.551 -0.1605  1.5008  1.2728
 1378TIP3    H2 4057   7.228   4.507   5.502 -0.3724  2.2387  0.8714
 1379TIP3   OH2 4058   2.986   5.859   1.969  0.0534  0.2638  0.0305
 1379TIP3    H1 4059   3.062   5.882   2.022 -0.4991 -0.3704  1.1421
 1379TIP3    H2 4060   2.927   5.934   1.977  0.4467  0.6608 -0.6517
 1380TIP3   OH2 4061   6.955   2.122   3.533  0.0527 -0.6168 -0.1934
 1380TIP3    H1 4062   7.028   2.075   3.494  0.3020 -1.4319  1.2038
 1380TIP3    H2 4063   6.903   2.055   3.577 -0.8336  0.1293 -0.0613
 1381TIP3   OH2 4064   0.190   1.616   4.030  0.9148 -0.1202  0.3522
 1381TIP3    H1 4065   0.111   1.571   4.001  0.0285 -0.1145  2.5379
 1381TIP3    H2 4066   0.195   1.693   3.973 -0.5350 -0.2311  0.0201
 1382TIP3   OH2 4067   0.925   3.968   4.554 -0.4154  0.0293  0.0333
 1382TIP3    H1 4068   0.931   3.879   4.518 -0.1086  0.8881 -2.2100
 1382TIP3    H2 4069   0.917   3.955   4.648  0.8556 -2.3375 -0.0996
 1383TIP3   OH2 4070   6.459   2.056   1.368 -0.4231  0.2550  0.3343
 1383TIP3    H1 4071   6.487   2.143   1.339  0.2181  0.1878  0.7196
 1383TIP3    H2 4072   6.414   2.019   1.293 -0.0626  0.6418 -0.0852
 1384TIP3   OH2 4073   3.544   2.136   4.526  0.1389 -0.6120  0.4564
 1384TIP3    H1 4074   3.611   2.162   4.589  0.1437 -1.1246  0.6728
 1384TIP3    H2 4075   3.548   2.202   4.457  1.2968 -0.9689  0.1572
 1385TIP3   OH2 4076   1.383   7.840   2.070  0.0322 -0.8254 -0.2134
 1385TIP3    H1 4077   1.406   7.933   2.071 -0.1317 -0.7862  0.1315
 1385TIP3    H2 4078   1.328   7.829   1.992  1.4433 -0.9780 -1.2115
 1386TIP3   OH2 4079   2.617   3.932   4.651  0.0698  0.2470  0.6448
 1386TIP3    H1 4080   2.691   3.973   4.605  0.3679  0.8350  1.6186
 1386TIP3    H2 4081   2.611   3.844   4.613 -0.0246  0.8765 -0.8653
 1387TIP3   OH2 4082   1.965   3.333   0.237  0.0672  0.1720 -0.5768
 1387TIP3    H1 4083   2.005   3.268   0.180  0.9831 -1.4153  1.6972
 1387TIP3    H2 4084   2.038   3.370   0.287 -0.6952  1.4176 -0.3347
 1388TIP3   OH2 4085   6.253   6.607   6.493  0.4023 -0.3202  0.0874
 1388TIP3    H1 4086   6.180   6.566   6.538  1.5824 -2.2458  0.3950
 1388TIP3    H2 4087   6.257   6.696   6.528 -1.5196 -0.2914  0.3277
 1389TIP3   OH2 4088   6.081   2.389   0.649  0.7316 -0.1765  0.1522
 1389TIP3    H1 4089   6.036   2.305   0.641 -0.3196  0.2846  0.9986
 1389TIP3    H2 4090   6.012   2.454   0.642  1.7266  0.7518 -2.3253
 1390TIP3   OH2 4091   1.026   5.596   3.222  0.3568 -0.0298  0.2662
 1390TIP3    H1 4092   1.051   5.688   3.218  1.2221 -0.2204  0.9563
 1390TIP3    H2 4093   0.950   5.589   3.164  0.1625  1.1487  0.3587
 1391TIP3   OH2 4094   7.606   1.979   3.105 -0.2551 -0.8757  0.5885
 1391TIP3    H1 4095   7.652   1.965   3.022  0.9946 -0.1932  1.1409
 1391TIP3    H2 4096   7.550   2.054   3.089  1.7520  0.8097  0.9898
 1392TIP3   OH2 4097   6.147   4.689   2.432 -0.3336  0.3299 -0.1207
 1392TIP3    H1 4098   6.204   4.734   2.370 -2.2542 -0.5357 -2.6803
 1392TIP3    H2 4099   6.142   4.599   2.399  0.3743 -0.8641  2.6878
 1393TIP3   OH2 4100   5.907   5.243   6.041  0.2706 -0.1849  0.3335
 1393TIP3    H1 4101   5.829   5.298   6.049  0.6498  0.2526  1.1530
 1393TIP3    H2 4102   5.878   5.156   6.072  0.4768  0.3372  2.1054
 1394TIP3   OH2 4103   1.686   5.316   7.093 -0.1029 -0.4937 -0.2096
 1394TIP3    H1 4104   1.776   5.311   7.061 -0.0427  0.1829 -0.1569
 1394TIP3    H2 4105   1.674   5.407   7.119 -1.2309 -0.2264 -1.5106
 1395TIP3   OH2 4106   4.838   3.213   3.039  0.3321 -0.1589  0.2664
 1395TIP3    H1 4107   4.875   3.293   3.075 -0.7971  0.7993 -0.6301
 1395TIP3    H2 4108   4.760   3.195   3.093 -0.2121  0.1469 -0.4061
 1396TIP3   OH2 4109   3.288   4.998   4.547 -0.1877  0.3917  0.1336
 1396TIP3    H1 4110   3.242   4.947   4.481  0.8534  1.6959 -1.6974
 1396TIP3    H2 4111   3.381   4.981   4.530  0.1317  1.6762  0.4717
 1397TIP3   OH2 4112   8.343   7.492   5.529 -0.2771 -0.1046  0.2466
 1397TIP3    H1 4113   8.258   7.516   5.492 -0.5344  0.1505  1.0050
 1397TIP3    H2 4114   8.377   7.573   5.566  0.0838 -0.3128  0.3757
 1398TIP3   OH2 4115   3.610   0.442   5.480 -0.0340  0.0068  0.3850
 1398TIP3    H1 4116   3.544   0.500   5.442 -0.6187 -0.3945  0.7632
 1398TIP3    H2 4117   3.588   0.355   5.446  1.0163  0.0392 -0.4155
 1399TIP3   OH2 4118   5.525   1.089   2.772  0.1690  0.1902  0.0436
 1399TIP3    H1 4119   5.574   1.129   2.700 -0.8080  0.5093 -0.4515
 1399TIP3    H2 4120   5.559   1.000   2.778  0.5084  0.2749 -0.5728
 1400TIP3   OH2 4121   0.246   2.624   6.130  0.1045  0.1293 -0.0172
 1400TIP3    H1 4122   0.237   2.584   6.043  2.9798 -1.7140  0.3822
 1400TIP3    H2 4123   0.157   2.647   6.155 -1.3540 -2.9495 -1.7888
 1401TIP3   OH2 4124   6.194   6.187   7.092  0.7636  0.5965  0.7770
 1401TIP3    H1 4125   6.276   6.142   7.075  1.0536  1.0855  0.8604
 1401TIP3    H2 4126   6.214   6.280   7.081 -0.3583  0.6235 -1.6201
 1402TIP3   OH2 4127   2.978   6.321   6.368  0.5936  0.0183  0.3943
 1402TIP3    H1 4128   2.895   6.353   6.403  0.2530 -0.6722  0.2378
 1402TIP3    H2 4129   2.993   6.373   6.290 -0.1970 -0.5129 -0.1281
 1403TIP3   OH2 4130   4.634   1.654   5.181 -0.2395  0.6117 -0.1939
 1403TIP3    H1 4131   4.640   1.625   5.089 -1.5989 -0.4351  0.0125
 1403TIP3    H2 4132   4.595   1.579   5.226 -1.0729  1.7049  0.9462
 1404TIP3   OH2 4133   2.047   0.611   1.207  0.1515  0.8959 -0.3295
 1404TIP3    H1 4134   1.990   0.539   1.180 -0.9644  0.8389  1.9874
 1404TIP3    H2 4135   2.119   0.569   1.254 -0.7748  1.2659  1.4881
 1405TIP3   OH2 4136   4.907   4.275   0.592  0.5140 -0.0204 -0.2085
 1405TIP3    H1 4137   4.861   4.353   0.623 -0.2258 -0.8010  0.7233
 1405TIP3    H2 4138   4.850   4.237   0.525  0.9114  0.2660 -0.7212
 1406TIP3   OH2 4139   0.686   3.633   0.857  0.8020 -0.5195 -0.3958
 1406TIP3    H1 4140   0.727   3.668   0.778 -0.1118 -0.0408 -0.6627
 1406TIP3    H2 4141   0.629   3.563   0.826 -0.3232  0.3214 -0.2915
 1407TIP3   OH2 4142   7.813   5.211   1.867  0.2477  0.5263 -0.0514
 1407TIP3    H1 4143   7.776   5.124   1.881  2.6887 -0.5143  0.3483
 1407TIP3    H2 4144   7.889   5.215   1.925 -0.1868  3.2220  0.4728
 1408TIP3   OH2 4145   2.587   3.621   5.016  0.5185 -0.3014 -0.5659
 1408TIP3    H1 4146   2.524   3.637   4.946 -0.2257 -1.2766 -0.1407
 1408TIP3    H2 4147   2.573   3.530   5.040 -0.0182  0.2992  1.6104
 1409TIP3   OH2 4148   5.875   4.482   6.376 -0.5932  0.6685  0.5170
 1409TIP3    H1 4149   5.930   4.490   6.454  0.6423 -0.7224 -0.1519
 1409TIP3    H2 4150   5.861   4.388   6.367 -1.1513  0.8498 -0.6594
 1410TIP3   OH2 4151   7.008   5.867   4.061 -0.1517  0.3660  0.4892
 1410TIP3    H1 4152   7.060   5.896   3.986  0.3378  0.3205  0.8087
 1410TIP3    H2 4153   7.070   5.864   4.134 -0.3841 -0.6344  0.6619
 1411TIP3   OH2 4154   6.562   0.790   0.833  0.0356 -0.6618  0.5243
 1411TIP3    H1 4155   6.529   0.729   0.898  1.6310 -1.0385  1.0216
 1411TIP3    H2 4156   6.546   0.747   0.749 -0.5589 -0.9050  0.7600
 1412TIP3   OH2 4157   7.770   4.426   0.586 -0.3739 -0.1617  0.1183
 1412TIP3    H1 4158   7.776   4.439   0.681  0.0017  2.3426 -0.1776
 1412TIP3    H2 4159   7.685   4.463   0.562 -0.4054 -0.6454 -0.5292
 1413TIP3   OH2 4160   7.599   1.675   4.139 -0.5438  0.7137 -0.4720
 1413TIP3    H1 4161   7.555   1.591   4.144 -0.7631  0.7571 -1.5098
 1413TIP3    H2 4162   7.657   1.668   4.063 -0.1197  1.2899 -0.2156
 1414TIP3   OH2 4163   5.015   2.311   5.091 -0.2732 -0.5633 -0.2489
 1414TIP3    H1 4164   5.018   2.227   5.046 -0.2218 -0.7354  0.0717
 1414TIP3    H2 4165   4.926   2.316   5.127 -0.3524 -0.3730 -0.4736
 1415TIP3   OH2 4166   6.902   6.556   3.915  0.2162  0.4588 -0.2075
 1415TIP3    H1 4167   6.842   6.618   3.874 -2.0836 -1.5850 -0.2220
 1415TIP3    H2 4168   6.900   6.579   4.008 -0.0573  0.8449 -0.3058
 1416TIP3   OH2 4169   5.682   6.741   6.102 -0.3979  0.1856  0.3454
 1416TIP3    H1 4170   5.745   6.708   6.166 -0.9170  0.6212  1.0872
 1416TIP3    H2 4171   5.668   6.833   6.127 -0.0714  0.5665 -0.8180
 1417TIP3   OH2 4172   7.868   2.103   1.334  0.2334  0.3392 -0.2591
 1417TIP3    H1 4173   7.910   2.188   1.321  0.4671  0.2495 -0.1163
 1417TIP3    H2 4174   7.876   2.087   1.428 -0.5178  0.5188 -0.1600
 1418TIP3   OH2 4175   2.148   1.322   6.678 -0.1127 -0.0641 -0.0947
 1418TIP3    H1 4176   2.165   1.247   6.622  0.9302 -0.1823  0.3638
 1418TIP3    H2 4177   2.224   1.327   6.736 -1.0043  0.2557  1.0868
 1419TIP3   OH2 4178   8.148   3.099   2.350  0.5522  0.0584 -0.5030
 1419TIP3    H1 4179   8.213   3.039   2.386 -0.8099 -1.2700 -0.1326
 1419TIP3    H2 4180   8.199   3.172   2.314  2.1517 -0.3298  0.8665
 1420TIP3   OH2 4181   5.416   7.775   6.797  0.2685 -0.3194  0.1239
 1420TIP3    H1 4182   5.335   7.726   6.793 -0.3849  0.8062 -2.7900
 1420TIP3    H2 4183   5.395   7.861   6.759  2.5238  0.4600  0.4390
 1421TIP3   OH2 4184   4.906   5.325   3.843 -0.4515  0.1158  0.5390
 1421TIP3    H1 4185   4.853   5.398   3.875 -0.1250  0.6215 -0.0365
 1421TIP3    H2 4186   4.846   5.273   3.790 -0.9274 -0.5808  1.7308
 1422TIP3   OH2 4187   6.143   5.373   1.043 -0.6823  0.0932 -0.5596
 1422TIP3    H1 4188   6.061   5.331   1.070  0.1937 -1.0271  0.5219
 1422TIP3    H2 4189   6.189   5.390   1.126  1.2777 -1.6939 -1.1797
 1423TIP3   OH2 4190   3.309   0.972   1.079 -0.3737 -0.0965 -0.1881
 1423TIP3    H1 4191   3.290   1.019   0.998 -1.8383 -0.4174 -0.0550
 1423TIP3    H2 4192   3.303   1.039   1.147 -0.7077 -0.1324 -0.1820
 1424TIP3   OH2 4193   4.591   3.180   4.531 -0.2477  0.7391 -0.1012
 1424TIP3    H1 4194   4.565   3.156   4.620  0.5431  0.5677  0.0955
 1424TIP3    H2 4195   4.509   3.191   4.484 -0.7085  1.7562  0.8907
 1425TIP3   OH2 4196   0.724   2.973   6.300  0.4256  0.2218  0.1274
 1425TIP3    H1 4197   0.697   3.038   6.364  3.9439  0.7306  1.3195
 1425TIP3    H2 4198   0.697   2.889   6.337 -0.6108  0.7269  0.5431
 1426TIP3   OH2 4199   5.602   8.196   4.660  0.2728  0.2234  0.3101
 1426TIP3    H1 4200   5.526   8.213   4.605  0.0833  1.3929  0.9051
 1426TIP3    H2 4201   5.623   8.104   4.644 -1.7983 -0.3865  0.7742
 1427TIP3   OH2 4202   2.895   2.857   3.525  0.6506  0.0171  0.0712
 1427TIP3    H1 4203   2.879   2.943   3.484  2.0367  0.2086 -0.1238
 1427TIP3    H2 4204   2.935   2.878   3.609 -0.0855 -0.4288  0.5404
 1428TIP3   OH2 4205   0.600   5.315   0.926  0.0685 -0.0736  0.1052
 1428TIP3    H1 4206   0.619   5.399   0.883  0.6717  0.0277  0.5472
 1428TIP3    H2 4207   0.595   5.252   0.854 -1.7833  0.5538 -0.3719
 1429TIP3   OH2 4208   5.034   4.035   3.426  0.1636 -0.2899 -0.5285
 1429TIP3    H1 4209   5.016   4.028   3.520  1.1440  1.7333 -0.1407
 1429TIP3    H2 4210   5.109   3.976   3.412  1.4644  1.0438  0.4670
 1430TIP3   OH2 4211   5.048   3.619   0.283  0.4214 -0.1906 -0.7131
 1430TIP3    H1 4212   5.118   3.648   0.341  1.8185 -1.4031 -1.7125
 1430TIP3    H2 4213   4.970   3.665   0.313  1.3171 -0.0091  1.4470
 1431TIP3   OH2 4214   3.082   5.001   0.891  0.0277  0.3864 -0.0004
 1431TIP3    H1 4215   3.098   4.948   0.813 -0.1996  1.8710 -1.1118
 1431TIP3    H2 4216   3.095   4.941   0.964 -0.3037 -1.2042 -1.1867
 1432TIP3   OH2 4217   6.309   7.025   0.255  0.5826 -0.4204  1.0227
 1432TIP3    H1 4218   6.279   6.936   0.234  1.9023 -0.6957  0.2265
 1432TIP3    H2 4219   6.404   7.017   0.264  0.9129  1.1982 -0.6103
 1433TIP3   OH2 4220   7.120   6.468   6.895  0.4783 -0.4321 -0.2339
 1433TIP3    H1 4221   7.115   6.411   6.972  0.1419 -0.5702 -0.3572
 1433TIP3    H2 4222   7.199   6.438   6.849  0.6003 -0.4439 -0.0187
 1434TIP3   OH2 4223   4.358   3.073   3.452  0.1853  0.3050 -0.6374
 1434TIP3    H1 4224   4.358   3.129   3.530  0.3823  1.1531 -1.2342
 1434TIP3    H2 4225   4.309   3.122   3.387 -1.1019 -0.9737 -0.6741
 1435TIP3   OH2 4226   5.322   1.242   2.673  0.4281  0.3704 -0.3854
 1435TIP3    H1 4227   5.396   1.191   2.706  0.1417  0.7284  0.8671
 1435TIP3    H2 4228   5.333   1.328   2.713  0.3060  0.9913 -1.6148
 1436TIP3   OH2 4229   6.213   7.592   1.132  0.2324 -0.3286  0.0229
 1436TIP3    H1 4230   6.192   7.606   1.039  0.8628 -0.1164 -0.0956
 1436TIP3    H2 4231   6.187   7.502   1.149 -2.4017  0.3928  0.3569
 1437TIP3   OH2 4232   6.226   2.438   5.408 -0.0057 -0.0649 -0.2907
 1437TIP3    H1 4233   6.247   2.526   5.439  1.0036 -0.8108  1.2990
 1437TIP3    H2 4234   6.137   2.422   5.440  0.2761 -0.0666  0.5222
 1438TIP3   OH2 4235   5.197   8.090   6.501 -0.5002 -0.1099 -0.0972
 1438TIP3    H1 4236   5.227   8.180   6.489  0.1330 -0.4753 -1.4053
 1438TIP3    H2 4237   5.121   8.097   6.558 -1.8015  1.4716 -1.9230
 1439TIP3   OH2 4238   3.555   5.738   1.514  0.3447  0.7815 -0.4357
 1439TIP3    H1 4239   3.648   5.734   1.536  0.1515  1.4748  0.5298
 1439TIP3    H2 4240   3.541   5.827   1.481 -0.0389  0.7692 -0.3160
 1440TIP3   OH2 4241   1.293   5.601   3.397 -0.0442 -0.1980  0.3960
 1440TIP3    H1 4242   1.296   5.684   3.446  0.7502 -1.1009  1.9617
 1440TIP3    H2 4243   1.383   5.588   3.367  0.5983 -1.9650  2.8357
 1441TIP3   OH2 4244   3.154   1.554   4.553  0.5735  1.1549 -0.2219
 1441TIP3    H1 4245   3.112   1.640   4.555 -1.3958  0.2427  1.2602
 1441TIP3    H2 4246   3.174   1.536   4.645  0.0659 -0.3583 -0.3908
 1442TIP3   OH2 4247   0.332   6.782   5.405 -0.2477  0.1680 -0.6615
 1442TIP3    H1 4248   0.251   6.749   5.368 -1.6958  0.7624  1.7461
 1442TIP3    H2 4249   0.387   6.705   5.415 -0.4853 -0.2433 -2.3262
 1443TIP3   OH2 4250   4.843   2.027   1.163 -0.2389  0.4235  0.0697
 1443TIP3    H1 4251   4.892   1.987   1.092 -0.4428  1.0713 -0.4475
 1443TIP3    H2 4252   4.884   1.994   1.243  0.0267 -0.2663 -0.3472
 1444TIP3   OH2 4253   4.581   6.119   1.546  0.1642  0.1165 -0.3257
 1444TIP3    H1 4254   4.551   6.034   1.578 -0.1742 -0.0479 -1.0552
 1444TIP3    H2 4255   4.676   6.116   1.556  0.2271 -0.6454 -1.0435
 1445TIP3   OH2 4256   4.587   6.836   6.504  0.5251  0.9912  0.6630
 1445TIP3    H1 4257   4.654   6.874   6.560  0.9674  0.5000  0.4778
 1445TIP3    H2 4258   4.550   6.765   6.556  0.1267  1.2807  0.7758
 1446TIP3   OH2 4259   4.019   3.459   3.274  0.2019  0.2555  0.3998
 1446TIP3    H1 4260   3.949   3.525   3.276  0.8850  0.9839  0.4703
 1446TIP3    H2 4261   4.097   3.505   3.304  1.3475  0.1869 -2.2443
 1447TIP3   OH2 4262   1.956   3.139   4.155  0.1845  0.2539 -0.2059
 1447TIP3    H1 4263   2.001   3.077   4.098 -0.8051 -2.0452  1.3714
 1447TIP3    H2 4264   1.905   3.084   4.215 -3.6228  2.5988 -0.9481
 1448TIP3   OH2 4265   5.095   4.469   4.673  0.3579 -0.8447 -0.1323
 1448TIP3    H1 4266   5.134   4.401   4.618  1.5720 -1.7095  1.7038
 1448TIP3    H2 4267   5.121   4.446   4.762 -1.7953  0.3216  0.8733
 1449TIP3   OH2 4268   3.180   5.014   5.630  0.4875  0.1678 -0.1802
 1449TIP3    H1 4269   3.117   5.081   5.603 -0.7794 -1.4913 -1.5174
 1449TIP3    H2 4270   3.253   5.023   5.569  1.3208  1.6222  0.9354
 1450TIP3   OH2 4271   7.041   4.245   1.465  0.3097 -0.1576 -0.4050
 1450TIP3    H1 4272   7.051   4.172   1.527 -2.3318 -0.7215 -0.4995
 1450TIP3    H2 4273   7.116   4.238   1.407  1.2298 -1.5203  0.8783
 1451TIP3   OH2 4274   3.540   2.730   0.369  0.1231 -0.4928  0.1701
 1451TIP3    H1 4275   3.563   2.688   0.452 -1.6110  1.0688  1.5452
 1451TIP3    H2 4276   3.461   2.781   0.390  0.7957  1.5708 -1.9482
 1452TIP3   OH2 4277   2.182   7.094   6.484  0.2269  0.0944 -0.0793
 1452TIP3    H1 4278   2.134   7.175   6.468 -2.3703 -1.3297 -0.1312
 1452TIP3    H2 4279   2.272   7.122   6.502 -0.0541  2.8153 -2.1588
 1453TIP3   OH2 4280   2.269   3.099   7.019 -0.0645  0.0462  0.0736
 1453TIP3    H1 4281   2.271   3.194   7.036 -0.9198  0.5261 -2.1201
 1453TIP3    H2 4282   2.354   3.068   7.048  0.0090  1.3680  1.4150
 1454TIP3   OH2 4283   8.432   6.973   2.005 -0.0257 -0.2318  0.1956
 1454TIP3    H1 4284   8.393   6.977   1.918  0.3454  0.7772  0.0696
 1454TIP3    H2 4285   8.509   6.917   1.994 -1.4635 -2.4009  0.4865
 1455TIP3   OH2 4286   3.709   1.437   5.160 -0.2489  0.3126  0.1589
 1455TIP3    H1 4287   3.745   1.349   5.175  0.1319  0.5117  0.4167
 1455TIP3    H2 4288   3.746   1.490   5.230 -0.8249  0.5859  0.2628
 1456TIP3   OH2 4289   6.470   5.617   6.351 -0.3654 -0.0738  0.4585
 1456TIP3    H1 4290   6.409   5.644   6.283 -0.5651  0.3434  0.7992
 1456TIP3    H2 4291   6.554   5.656   6.325  0.0701 -1.6564 -0.6665
 1457TIP3   OH2 4292   6.341   6.114   5.757 -0.3043  0.3906 -0.2414
 1457TIP3    H1 4293   6.372   6.079   5.674 -1.0625 -0.4818 -0.1670
 1457TIP3    H2 4294   6.415   6.165   5.790  1.1005 -1.6761 -0.0222
 1458TIP3   OH2 4295   2.314   5.618   2.009 -0.9504 -0.6212  0.8602
 1458TIP3    H1 4296   2.308   5.708   2.039 -0.9018  0.0016 -0.8684
 1458TIP3    H2 4297   2.393   5.583   2.052 -0.1629  0.6096  0.4571
 1459TIP3   OH2 4298   2.102   3.732   1.149 -0.0409 -0.7054 -0.0440
 1459TIP3    H1 4299   2.149   3.755   1.068 -0.4354  1.9274  0.3845
 1459TIP3    H2 4300   2.167   3.687   1.203  1.2802  0.6460 -0.4547
 1460TIP3   OH2 4301   3.355   7.992   1.605 -0.5715  0.0278  0.0513
 1460TIP3    H1 4302   3.377   8.020   1.517  0.3032  0.2134  0.3133
 1460TIP3    H2 4303   3.434   7.947   1.636  0.4816  2.9069  1.9545
 1461TIP3   OH2 4304   4.070   8.112   7.038  0.0565  0.2584 -0.2326
 1461TIP3    H1 4305   4.061   8.202   7.068  0.4593  0.2236 -0.0097
 1461TIP3    H2 4306   4.010   8.106   6.963 -1.8728  0.0154  1.2464
 1462TIP3   OH2 4307   5.465   7.531   4.311  0.2297 -0.4793 -0.4233
 1462TIP3    H1 4308   5.490   7.509   4.221  2.1299 -1.7457  0.3458
 1462TIP3    H2 4309   5.487   7.453   4.361 -1.5838 -0.0969  1.0462
 1463TIP3   OH2 4310   0.431   6.974   2.208  0.1739  0.2049 -0.4728
 1463TIP3    H1 4311   0.360   6.991   2.146  0.0051  0.3621 -0.2361
 1463TIP3    H2 4312   0.409   7.025   2.286  0.8918  0.8041 -0.6448
 1464TIP3   OH2 4313   8.312   5.322   2.659 -0.2326 -0.4524  0.3232
 1464TIP3    H1 4314   8.259   5.398   2.680  1.6797  0.1908  3.4499
 1464TIP3    H2 4315   8.280   5.254   2.718  0.8475 -0.7776  0.5447
 1465TIP3   OH2 4316   6.147   7.314   1.106 -1.0946  0.0198 -0.9742
 1465TIP3    H1 4317   6.156   7.315   1.011 -2.3493 -2.3579 -1.1801
 1465TIP3    H2 4318   6.055   7.332   1.122 -0.9814 -0.0286 -0.2481
 1466TIP3   OH2 4319   3.488   2.404   0.356  0.2118 -0.0684  0.2364
 1466TIP3    H1 4320   3.476   2.476   0.295 -0.4512 -0.3546  0.0255
 1466TIP3    H2 4321   3.507   2.446   0.440 -2.0563  0.4266  0.5582
 1467TIP3   OH2 4322   1.237   1.984   6.431  0.4031  0.0633 -0.1668
 1467TIP3    H1 4323   1.237   1.890   6.446 -0.2317 -0.0224 -0.6606
 1467TIP3    H2 4324   1.145   2.010   6.435  0.5417  0.6104 -0.3331
 1468TIP3   OH2 4325   0.638   3.656   1.123 -0.4340  0.0090  0.1344
 1468TIP3    H1 4326   0.585   3.578   1.136  1.4869 -1.7069 -1.5794
 1468TIP3    H2 4327   0.665   3.651   1.031  1.3380  1.6602  0.5064
 1469TIP3   OH2 4328   6.326   5.555   3.836  0.3309 -0.4050  0.0091
 1469TIP3    H1 4329   6.328   5.636   3.888  0.8582 -0.5191  0.1751
 1469TIP3    H2 4330   6.385   5.495   3.883 -0.4343 -1.0507  0.1577
 1470TIP3   OH2 4331   1.525   7.213   1.872  0.4618 -0.4054 -0.0466
 1470TIP3    H1 4332   1.504   7.261   1.952 -0.8834 -2.5319  0.9755
 1470TIP3    H2 4333   1.441   7.209   1.825  1.1093  0.3104 -1.3189
 1471TIP3   OH2 4334   5.509   2.614   4.009 -0.0398 -0.1786  0.8510
 1471TIP3    H1 4335   5.598   2.582   3.992 -0.2843 -0.5909  0.2872
 1471TIP3    H2 4336   5.496   2.598   4.102 -0.0735 -1.5822  0.6383
 1472TIP3   OH2 4337   5.381   2.079   1.815  0.2328 -0.2233  0.4183
 1472TIP3    H1 4338   5.323   2.003   1.812  0.6961 -0.5879  0.6493
 1472TIP3    H2 4339   5.459   2.049   1.862 -0.2000  0.8201  1.8860
 1473TIP3   OH2 4340   3.930   2.757   3.757 -0.5959 -0.2512  0.1135
 1473TIP3    H1 4341   3.871   2.770   3.831 -0.7690  0.6388 -0.1643
 1473TIP3    H2 4342   4.007   2.716   3.795 -0.5681  0.4446  0.8419
 1474TIP3   OH2 4343   0.629   1.845   2.412 -0.0663 -0.5879 -0.1396
 1474TIP3    H1 4344   0.603   1.829   2.321 -1.6480 -0.2346  0.2271
 1474TIP3    H2 4345   0.718   1.880   2.405 -0.4545  0.1888 -1.6041
 1475TIP3   OH2 4346   0.655   5.245   5.549  0.2803 -0.4410 -0.2401
 1475TIP3    H1 4347   0.592   5.173   5.559 -2.0603  1.6297  1.1313
 1475TIP3    H2 4348   0.658   5.262   5.455  0.5340 -1.9911 -0.5381
 1476TIP3   OH2 4349   5.539   4.533   0.433 -0.9352  0.0591  0.1420
 1476TIP3    H1 4350   5.508   4.443   0.423  1.9270 -1.2368  1.6941
 1476TIP3    H2 4351   5.590   4.532   0.514  0.6633  2.6347 -0.7224
 1477TIP3   OH2 4352   8.275   5.775   4.530 -0.4926  0.4072 -0.5033
 1477TIP3    H1 4353   8.210   5.738   4.470 -0.7405  1.6152 -1.0003
 1477TIP3    H2 4354   8.254   5.735   4.615 -2.4448  1.4083 -0.4676
 1478TIP3   OH2 4355   2.060   4.895   6.839 -0.0995  0.2231  0.1833
 1478TIP3    H1 4356   2.054   4.827   6.772 -1.1195  0.8097 -0.3454
 1478TIP3    H2 4357   2.062   4.847   6.921 -0.2022 -0.4630 -0.2065
 1479TIP3   OH2 4358   4.264   1.693   1.686  0.2257 -0.5707 -0.1421
 1479TIP3    H1 4359   4.326   1.735   1.745  0.0806 -0.4116 -0.1029
 1479TIP3    H2 4360   4.318   1.641   1.627  0.4504  0.2909 -0.6934
 1480TIP3   OH2 4361   3.987   5.539   2.432 -0.0657  0.0971 -1.1215
 1480TIP3    H1 4362   3.911   5.481   2.441 -0.0928  0.1682 -0.9038
 1480TIP3    H2 4363   3.951   5.622   2.403 -0.0616  0.1030 -1.1101
 1481TIP3   OH2 4364   2.769   0.083   1.457 -0.2100  0.4643  0.3342
 1481TIP3    H1 4365   2.835   0.098   1.390 -1.6125  0.4627 -1.1184
 1481TIP3    H2 4366   2.819   0.064   1.536  1.5056  0.1983 -0.7577
 1482TIP3   OH2 4367   4.786   4.029   0.927 -0.7052  0.3363  0.4691
 1482TIP3    H1 4368   4.786   3.963   0.997  1.1626  0.5937  0.7682
 1482TIP3    H2 4369   4.850   4.094   0.955 -2.0612  2.0143 -0.1146
 1483TIP3   OH2 4370   6.680   5.587   5.479  0.1645 -0.1175 -0.2052
 1483TIP3    H1 4371   6.708   5.495   5.473 -0.4704 -0.3714  0.5726
 1483TIP3    H2 4372   6.758   5.633   5.512 -0.3390 -0.8703  2.2214
 1484TIP3   OH2 4373   4.903   0.975   3.861 -0.3286  0.7951  0.2296
 1484TIP3    H1 4374   4.891   1.057   3.813  1.0394  1.3292  0.7291
 1484TIP3    H2 4375   4.996   0.975   3.885 -0.0932 -1.3106 -0.4632
 1485TIP3   OH2 4376   5.849   0.702   1.959 -0.0339  0.6500 -0.2343
 1485TIP3    H1 4377   5.793   0.625   1.966 -0.3347  0.9484  0.8359
 1485TIP3    H2 4378   5.804   0.760   1.898  0.9056 -0.5923 -2.2171
 1486TIP3   OH2 4379   8.165   4.087   2.192 -0.8509  0.0588  0.3962
 1486TIP3    H1 4380   8.196   4.152   2.128 -1.0489  0.2980  0.5429
 1486TIP3    H2 4381   8.214   4.107   2.272 -0.0516 -0.7105  0.1141
 1487TIP3   OH2 4382   1.594   6.993   3.466 -0.4394  0.0588  0.8360
 1487TIP3    H1 4383   1.682   6.958   3.458 -0.7468 -1.2652  2.5317
 1487TIP3    H2 4384   1.536   6.922   3.437 -0.9661  1.0202 -0.5540
 1488TIP3   OH2 4385   5.258   1.839   4.512 -0.3566 -0.6143  0.2247
 1488TIP3    H1 4386   5.296   1.862   4.427  1.4845 -2.6928  0.3818
 1488TIP3    H2 4387   5.301   1.897   4.574 -1.1559  0.3952 -0.1215
 1489TIP3   OH2 4388   6.659   4.902   2.362 -0.6892  0.1521  0.0428
 1489TIP3    H1 4389   6.742   4.919   2.318 -0.1394 -1.1624  0.5183
 1489TIP3    H2 4390   6.604   4.862   2.294 -0.0154 -1.4045  0.3697
 1490TIP3   OH2 4391   1.563   5.008   3.591  0.1263  0.4357 -0.0203
 1490TIP3    H1 4392   1.536   5.089   3.636  0.1355  1.7958 -2.3341
 1490TIP3    H2 4393   1.485   4.953   3.594 -0.3583  1.1157  0.3440
 1491TIP3   OH2 4394   7.890   1.659   3.309  0.0487 -0.0336 -0.3740
 1491TIP3    H1 4395   7.843   1.741   3.298  0.2319  0.7970  3.6239
 1491TIP3    H2 4396   7.830   1.603   3.357  0.8235 -1.4067 -0.9431
 1492TIP3   OH2 4397   8.092   6.926   3.648 -0.3162  0.3581  0.1715
 1492TIP3    H1 4398   8.084   6.940   3.554  3.2719  1.0907 -0.1333
 1492TIP3    H2 4399   8.185   6.938   3.667 -0.7056 -0.9585  3.6413
 1493TIP3   OH2 4400   1.103   0.609   5.074 -0.2166  0.2178 -0.3240
 1493TIP3    H1 4401   1.011   0.613   5.102  0.0978  0.7335  0.7009
 1493TIP3    H2 4402   1.141   0.540   5.128 -0.0045  0.0003 -0.7503
 1494TIP3   OH2 4403   0.032   0.238   5.471 -0.5927  0.2867 -0.0455
 1494TIP3    H1 4404  -0.040   0.284   5.429 -0.7037  0.3411  0.2029
 1494TIP3    H2 4405   0.056   0.293   5.545 -2.2521 -1.1466  1.6487
 1495TIP3   OH2 4406   2.770   1.351   4.066  0.7391  0.3735 -0.2651
 1495TIP3    H1 4407   2.709   1.373   4.136 -2.9053 -0.9751 -2.6831
 1495TIP3    H2 4408   2.809   1.435   4.040  0.6658  1.1619  1.9833
 1496TIP3   OH2 4409   0.801   2.826   2.565  0.0228 -0.5328  0.6324
 1496TIP3    H1 4410   0.803   2.753   2.627  0.0705 -0.4179  0.7694
 1496TIP3    H2 4411   0.869   2.886   2.597  0.7072 -0.9109 -0.0810
 1497TIP3   OH2 4412   0.406   4.571   4.902 -0.0592  0.0466 -0.3187
 1497TIP3    H1 4413   0.401   4.595   4.994  0.0748  0.5979 -0.4490
 1497TIP3    H2 4414   0.355   4.491   4.895 -2.2176  1.3196 -0.2088
 1498TIP3   OH2 4415   2.508   2.956   1.609 -0.2724 -0.1485 -0.1719
 1498TIP3    H1 4416   2.517   2.914   1.523  0.9969  0.0711 -0.1632
 1498TIP3    H2 4417   2.583   2.924   1.659  1.6360  3.1949 -0.6167
 1499TIP3   OH2 4418   4.884   5.679   2.905  0.2911  0.0508 -0.6178
 1499TIP3    H1 4419   4.845   5.593   2.890  0.1326 -0.0126  0.1099
 1499TIP3    H2 4420   4.897   5.715   2.817  0.7796 -0.9014 -0.9577
 1500TIP3   OH2 4421   7.529   1.159   6.125 -0.0337 -0.1946  0.1146
 1500TIP3    H1 4422   7.565   1.209   6.198 -0.6857 -1.5005  1.3609
 1500TIP3    H2 4423   7.605   1.140   6.069  0.5714  0.2732  0.7623
 1501TIP3   OH2 4424   5.650   1.201   0.442 -0.7012 -0.5778 -0.0336
 1501TIP3    H1 4425   5.690   1.191   0.356 -0.0194 -1.0873  0.3288
 1501TIP3    H2 4426   5.620   1.113   0.465 -0.0372 -0.6361  0.6408
 1502TIP3   OH2 4427   0.171   6.248   1.753  0.2885  0.4137 -0.3139
 1502TIP3    H1 4428   0.092   6.197   1.734 -1.6572  2.5800  1.3344
 1502TIP3    H2 4429   0.162   6.327   1.701  1.1414  0.9063  0.2550
 1503TIP3   OH2 4430   0.172   1.401   2.165 -0.2562  0.2540  0.0164
 1503TIP3    H1 4431   0.248   1.450   2.197  0.5807 -0.7046 -0.4441
 1503TIP3    H2 4432   0.178   1.316   2.210 -2.0037  0.7262  1.2413
 1504TIP3   OH2 4433   8.309   3.457   1.606 -0.4839  0.4173  0.3677
 1504TIP3    H1 4434   8.242   3.505   1.654 -0.8539 -0.9014  1.2156
 1504TIP3    H2 4435   8.260   3.406   1.541 -0.0442  1.6269 -0.9683
 1505TIP3   OH2 4436   6.548   1.417   3.011  0.2085  0.3887  0.1941
 1505TIP3    H1 4437   6.478   1.353   2.999 -0.4858  0.9560  1.0663
 1505TIP3    H2 4438   6.506   1.492   3.053  1.3496  0.7166  0.8197
 1506TIP3   OH2 4439   0.489   4.054   5.318 -0.4353  0.0158  0.0324
 1506TIP3    H1 4440   0.465   3.970   5.356 -0.7741  0.3118  0.4844
 1506TIP3    H2 4441   0.464   4.048   5.226 -0.3421 -0.4183  0.0354
 1507TIP3   OH2 4442   4.631   6.077   0.492  0.2444  0.3329 -0.1898
 1507TIP3    H1 4443   4.708   6.030   0.526  0.3674  0.4658 -0.2870
 1507TIP3    H2 4444   4.562   6.059   0.557  0.9776  2.1713  1.2010
 1508TIP3   OH2 4445   2.150   1.647   3.500  0.3863  0.2785  0.0995
 1508TIP3    H1 4446   2.239   1.613   3.517  0.5420  0.6154 -0.0358
 1508TIP3    H2 4447   2.164   1.721   3.442  0.1254  1.1176  1.0828
 1509TIP3   OH2 4448   2.136   8.085   6.699 -0.0007  0.0882 -0.1640
 1509TIP3    H1 4449   2.049   8.124   6.704 -0.4262 -0.9480  2.0456
 1509TIP3    H2 4450   2.181   8.118   6.777  0.0036 -2.7819  1.1592
 1510TIP3   OH2 4451   4.177   5.798   1.130 -0.0429  0.3810 -0.1215
 1510TIP3    H1 4452   4.120   5.776   1.057  0.3733  0.6776 -0.5435
 1510TIP3    H2 4453   4.245   5.731   1.128  0.4257  0.8534 -0.5231
 1511TIP3   OH2 4454   0.387   3.965   6.378  0.1085  0.0522 -0.0947
 1511TIP3    H1 4455   0.293   3.955   6.386 -0.0992  0.7855 -1.3400
 1511TIP3    H2 4456   0.422   3.932   6.461 -1.3699  1.6927  1.2646
 1512TIP3   OH2 4457   2.351   0.193   3.985  0.4433 -0.4177 -0.4868
 1512TIP3    H1 4458   2.420   0.138   4.021  1.3594  0.5082 -0.7897
 1512TIP3    H2 4459   2.359   0.181   3.890  1.0789  0.7297 -0.5877
 1513TIP3   OH2 4460   1.796   1.695   5.896  0.1379  0.2746  0.3660
 1513TIP3    H1 4461   1.776   1.664   5.984 -0.2605 -1.5807 -0.3438
 1513TIP3    H2 4462   1.731   1.655   5.840  1.5849 -0.2146 -1.0484
 1514TIP3   OH2 4463   4.787   7.427   2.873  0.3137  0.2747  0.4270
 1514TIP3    H1 4464   4.727   7.373   2.823  0.5588 -1.2446  1.7074
 1514TIP3    H2 4465   4.731   7.477   2.933  0.0516  1.8334 -1.0357
 1515TIP3   OH2 4466   5.057   3.618   5.063  0.6018  0.0935 -0.1059
 1515TIP3    H1 4467   5.068   3.684   5.132 -0.1282  1.2809 -1.0714
 1515TIP3    H2 4468   5.004   3.549   5.102 -2.7911  2.3181 -0.3715
 1516TIP3   OH2 4469   5.187   5.049   4.021  0.1123  0.1576 -0.3679
 1516TIP3    H1 4470   5.166   5.141   4.005  0.0047  0.1681 -0.1743
 1516TIP3    H2 4471   5.149   5.002   3.947 -0.6336  0.1720 -0.0045
 1517TIP3   OH2 4472   1.093   0.893   1.991 -0.1567 -0.1540  0.0425
 1517TIP3    H1 4473   1.122   0.849   1.911 -0.3334  0.7668 -0.5429
 1517TIP3    H2 4474   1.152   0.861   2.059 -0.4495 -1.4909 -0.3046
 1518TIP3   OH2 4475   1.476   2.614   0.824 -0.2183 -0.2885 -0.2186
 1518TIP3    H1 4476   1.459   2.558   0.900  0.4824  0.9149  0.8531
 1518TIP3    H2 4477   1.389   2.641   0.795 -0.4702 -0.2225  0.5742
 1519TIP3   OH2 4478   2.580   5.923   5.817 -0.2863 -0.1691  0.4858
 1519TIP3    H1 4479   2.622   5.984   5.757  2.5665 -0.8303  1.6736
 1519TIP3    H2 4480   2.524   5.978   5.872 -1.6396  0.6444 -1.5517
 1520TIP3   OH2 4481   6.544   4.267   0.139  0.2364  0.5518  0.0502
 1520TIP3    H1 4482   6.539   4.208   0.214  0.9655 -0.1283 -0.4274
 1520TIP3    H2 4483   6.593   4.343   0.171 -2.3867  1.8606  1.2543
 1521TIP3   OH2 4484   6.553   1.553   3.702  0.5263  0.0697 -0.0764
 1521TIP3    H1 4485   6.616   1.585   3.767  1.5083 -2.2535  0.2250
 1521TIP3    H2 4486   6.607   1.511   3.635 -0.6480 -1.9487  0.1552
 1522TIP3   OH2 4487   6.246   2.314   4.252  0.2967 -0.2934  0.7065
 1522TIP3    H1 4488   6.249   2.376   4.324 -1.8955 -1.7063  2.1284
 1522TIP3    H2 4489   6.212   2.364   4.178  0.9359  0.7544  1.1066
 1523TIP3   OH2 4490   6.008   1.601   5.378 -0.5647 -0.3039 -0.4527
 1523TIP3    H1 4491   5.950   1.666   5.416 -0.4706 -0.2909 -0.3306
 1523TIP3    H2 4492   5.960   1.518   5.386 -0.9741 -0.1459 -1.2354
 1524TIP3   OH2 4493   8.552   5.365   3.293  0.1153 -0.0520  0.2640
 1524TIP3    H1 4494   8.521   5.358   3.383 -0.5442 -0.0683  0.0425
 1524TIP3    H2 4495   8.522   5.284   3.251  0.0134  0.1676 -0.0894
 1525TIP3   OH2 4496   2.300   3.217   6.074  0.3622 -0.0288  0.1548
 1525TIP3    H1 4497   2.370   3.229   6.138 -0.4568 -0.8745  1.2627
 1525TIP3    H2 4498   2.311   3.128   6.042 -0.3179 -0.2404  0.4938
 1526TIP3   OH2 4499   6.185   4.348   3.044  0.1474  0.0651  0.5490
 1526TIP3    H1 4500   6.276   4.319   3.040  0.0545 -0.3559  1.2579
 1526TIP3    H2 4501   6.186   4.437   3.008  0.9266  0.2449  0.9939
 1527TIP3   OH2 4502   1.354   1.618   1.760 -0.4204 -0.0784  0.0631
 1527TIP3    H1 4503   1.305   1.697   1.780 -0.4433 -0.2033  0.5007
 1527TIP3    H2 4504   1.294   1.546   1.781 -0.3385 -0.2179 -0.1696
 1528TIP3   OH2 4505   3.186   3.015   1.445  0.1557  0.2996  0.3474
 1528TIP3    H1 4506   3.205   3.030   1.352  1.3262 -0.4218  0.4352
 1528TIP3    H2 4507   3.106   2.962   1.445  0.8729 -0.8294 -0.3375
 1529TIP3   OH2 4508   0.964   3.931   0.119 -0.3571  0.0248 -0.7825
 1529TIP3    H1 4509   1.035   3.955   0.060  0.1664 -1.6611 -0.9176
 1529TIP3    H2 4510   0.962   4.000   0.185 -0.4733  1.5628 -2.3329
 1530TIP3   OH2 4511   0.564   7.730   4.694 -0.0779  0.3298  0.1181
 1530TIP3    H1 4512   0.513   7.653   4.667 -0.4407  0.4541  0.4414
 1530TIP3    H2 4513   0.654   7.709   4.670  0.0677 -0.8137  1.5098
 1531TIP3   OH2 4514   3.431   4.484   2.284 -1.0588 -0.6502  0.3715
 1531TIP3    H1 4515   3.454   4.523   2.200  1.8056 -0.7167  1.0085
 1531TIP3    H2 4516   3.421   4.390   2.264  0.5120 -0.8081  0.2016
 1532TIP3   OH2 4517   5.850   1.587   4.881 -0.0829 -0.1154 -0.3572
 1532TIP3    H1 4518   5.789   1.660   4.867 -0.1947 -0.0738  0.2976
 1532TIP3    H2 4519   5.864   1.550   4.794  0.1992  0.8646 -0.7392
 1533TIP3   OH2 4520   3.826   3.645   2.937  0.6157  0.1222 -0.2263
 1533TIP3    H1 4521   3.772   3.659   2.858 -0.6356  0.5664  0.6769
 1533TIP3    H2 4522   3.766   3.607   3.000  1.7837 -0.8614  0.3197
 1534TIP3   OH2 4523   4.205   4.482   6.612 -0.9497 -0.3667  0.1507
 1534TIP3    H1 4524   4.164   4.464   6.696 -1.0878 -1.2750 -0.1024
 1534TIP3    H2 4525   4.133   4.510   6.555 -1.1121 -1.2396 -0.0855
 1535TIP3   OH2 4526   0.883   7.203   3.057 -0.1160  1.0631 -0.3712
 1535TIP3    H1 4527   0.834   7.260   3.116 -1.8434 -0.8931  0.1896
 1535TIP3    H2 4528   0.960   7.177   3.108 -0.1906  1.5177 -0.0147
 1536TIP3   OH2 4529   2.430   5.425   0.703  1.3438  0.0400 -0.4560
 1536TIP3    H1 4530   2.488   5.355   0.732  0.7292 -0.3605 -0.1509
 1536TIP3    H2 4531   2.348   5.408   0.750  1.5969  1.7598  0.7193
 1537TIP3   OH2 4532   7.274   6.644   3.518  0.5036 -0.3982 -0.1085
 1537TIP3    H1 4533   7.357   6.691   3.518  0.7099 -0.6953 -1.6816
 1537TIP3    H2 4534   7.277   6.587   3.594  0.4332  1.7764  1.6325
 1538TIP3   OH2 4535   6.664   0.444   0.150  0.1281  0.5230  0.1466
 1538TIP3    H1 4536   6.613   0.510   0.198 -0.7039  0.7304 -0.9761
 1538TIP3    H2 4537   6.679   0.483   0.064  2.3708  0.5312  0.4768
 1539TIP3   OH2 4538   3.538   5.456   0.178  0.3798 -1.1397  0.1917
 1539TIP3    H1 4539   3.604   5.391   0.154  0.7850 -0.4634 -0.5682
 1539TIP3    H2 4540   3.588   5.537   0.191 -0.1773 -0.8617  0.6464
 1540TIP3   OH2 4541   6.673   6.008   3.408 -0.3098 -0.3148  0.0288
 1540TIP3    H1 4542   6.593   6.033   3.362  0.5241  1.3164 -0.5864
 1540TIP3    H2 4543   6.684   6.074   3.476 -0.6607 -1.7940  1.6180
 1541TIP3   OH2 4544   4.602   6.203   6.198  0.2716  0.1325 -0.4967
 1541TIP3    H1 4545   4.527   6.263   6.204 -0.3024 -0.7012  1.4361
 1541TIP3    H2 4546   4.661   6.245   6.135 -1.0571  1.6430 -0.8047
 1542TIP3   OH2 4547   4.991   0.994   1.031 -0.0485 -0.2617  0.5470
 1542TIP3    H1 4548   5.086   0.998   1.021 -0.1386  1.4612 -0.0619
 1542TIP3    H2 4549   4.967   0.907   1.001  1.3054 -0.5863  0.3544
 1543TIP3   OH2 4550   2.321   0.286   2.601  0.0401  0.0262  0.0819
 1543TIP3    H1 4551   2.312   0.356   2.666  0.9153  0.2404 -0.0036
 1543TIP3    H2 4552   2.237   0.283   2.557 -0.6289 -0.2293  1.3201
 1544TIP3   OH2 4553   7.823   2.472   5.550  0.0947 -0.6767  0.0391
 1544TIP3    H1 4554   7.738   2.465   5.505  0.9540  0.8122 -2.0027
 1544TIP3    H2 4555   7.839   2.566   5.556  2.8412 -0.8541 -2.3206
 1545TIP3   OH2 4556   0.188   2.366   4.913 -0.4956 -0.3061  0.3776
 1545TIP3    H1 4557   0.221   2.358   4.823  0.6740  0.6022  0.7145
 1545TIP3    H2 4558   0.126   2.439   4.910 -0.7181 -0.4971  0.2490
 1546TIP3   OH2 4559   2.274   6.044   3.193 -0.1855  0.1600 -0.4974
 1546TIP3    H1 4560   2.327   5.983   3.142  1.5535  0.1015  1.2747
 1546TIP3    H2 4561   2.210   5.989   3.238 -0.4301 -0.0138 -1.0508
 1547TIP3   OH2 4562   6.688   1.424   0.139  0.1234 -0.1467  0.4798
 1547TIP3    H1 4563   6.771   1.438   0.184  0.2468 -0.2911  0.2958
 1547TIP3    H2 4564   6.636   1.371   0.200  0.5007 -0.8272  0.2167
 1548TIP3   OH2 4565   0.439   2.610   4.226 -0.3181  0.4787 -0.2454
 1548TIP3    H1 4566   0.353   2.604   4.184  0.1285  1.2368 -1.3260
 1548TIP3    H2 4567   0.500   2.585   4.157  0.2668 -1.4020  0.9126
 1549TIP3   OH2 4568   5.788   2.481   0.599 -0.0873 -0.2123  0.1550
 1549TIP3    H1 4569   5.774   2.453   0.508 -0.9282 -1.0880  0.5250
 1549TIP3    H2 4570   5.788   2.399   0.649  0.0569  0.2824  0.9799
 1550TIP3   OH2 4571   2.991   7.973   1.308  0.3027  0.0714 -0.2313
 1550TIP3    H1 4572   3.053   7.904   1.333 -0.9769 -0.8040  0.7202
 1550TIP3    H2 4573   3.012   7.992   1.217 -0.5535 -3.1055 -1.2530
 1551TIP3   OH2 4574   5.804   4.335   5.969 -0.1989 -0.0189 -0.8986
 1551TIP3    H1 4575   5.772   4.253   6.006  1.7011 -0.1009  0.7319
 1551TIP3    H2 4576   5.895   4.317   5.947 -0.2756  1.1381 -2.2505
 1552TIP3   OH2 4577   0.405   6.585   3.877  0.4649 -0.0794  0.2580
 1552TIP3    H1 4578   0.412   6.607   3.970  0.1859  0.2068  0.2102
 1552TIP3    H2 4579   0.495   6.593   3.844  0.5340 -0.0051  0.4633
 1553TIP3   OH2 4580   4.551   7.945   5.818  0.5003 -0.0049  0.1210
 1553TIP3    H1 4581   4.580   7.926   5.907  0.7848  1.0470  0.2565
 1553TIP3    H2 4582   4.511   8.031   5.823  0.6517  0.1295 -0.8007
 1554TIP3   OH2 4583   0.084   7.093   4.397 -0.5648 -0.3067 -0.0490
 1554TIP3    H1 4584   0.063   7.017   4.343 -0.7078  0.4157 -1.0512
 1554TIP3    H2 4585   0.176   7.113   4.375 -0.1016 -0.9592  1.1916
 1555TIP3   OH2 4586   3.548   1.624   6.476 -0.4530  0.3879  0.4644
 1555TIP3    H1 4587   3.562   1.578   6.394 -1.5448  0.9118 -0.0323
 1555TIP3    H2 4588   3.462   1.594   6.507 -0.8789  1.5575  0.4703
 1556TIP3   OH2 4589   5.288   2.213   2.787  0.0223 -0.0293  0.0597
 1556TIP3    H1 4590   5.219   2.160   2.828 -2.0040  2.8803  0.6795
 1556TIP3    H2 4591   5.270   2.302   2.814  2.0663  1.3237 -2.5424
 1557TIP3   OH2 4592   4.102   5.573   2.669  0.3431 -0.3054  0.0280
 1557TIP3    H1 4593   4.024   5.604   2.715 -1.0627 -1.7394 -1.3003
 1557TIP3    H2 4594   4.072   5.556   2.580  2.7656  1.4641 -1.2257
 1558TIP3   OH2 4595   2.490   7.254   3.928  0.2812  0.0194 -0.2157
 1558TIP3    H1 4596   2.407   7.301   3.931  0.1602  0.3100 -3.6478
 1558TIP3    H2 4597   2.465   7.161   3.924  0.1192  0.0751 -0.5880
 1559TIP3   OH2 4598   3.855   2.661   2.461 -0.1469  0.2161 -0.0464
 1559TIP3    H1 4599   3.867   2.577   2.417  0.2913  0.4964 -0.4658
 1559TIP3    H2 4600   3.937   2.708   2.446  0.4219 -0.0560  1.9015
 1560TIP3   OH2 4601   2.278   3.910   3.917 -0.0300 -0.3093 -0.2254
 1560TIP3    H1 4602   2.332   3.889   3.841  0.0329  0.1898 -0.3177
 1560TIP3    H2 4603   2.271   4.005   3.917 -0.1753 -0.3165  0.2968
 1561TIP3   OH2 4604   1.506   6.748   3.383  0.1380 -0.1346 -0.0767
 1561TIP3    H1 4605   1.509   6.743   3.287  0.2689  1.9212 -0.2185
 1561TIP3    H2 4606   1.414   6.733   3.405  0.1172 -0.6745 -0.5094
 1562TIP3   OH2 4607   4.541   0.295   4.030  0.1769 -0.2267  0.1058
 1562TIP3    H1 4608   4.530   0.387   4.005 -0.4350 -0.3034  0.0959
 1562TIP3    H2 4609   4.636   0.285   4.040  0.2801  0.3013 -0.2873
 1563TIP3   OH2 4610   3.724   7.890   0.165 -0.0474 -0.1320 -0.2850
 1563TIP3    H1 4611   3.721   7.828   0.237 -1.0951 -1.8404 -1.7055
 1563TIP3    H2 4612   3.670   7.850   0.097 -2.4387  3.2472 -0.6242
 1564TIP3   OH2 4613   7.252   3.334   1.712 -0.0279  0.0657 -0.8991
 1564TIP3    H1 4614   7.168   3.336   1.665  0.3848  0.0532 -1.6474
 1564TIP3    H2 4615   7.285   3.246   1.698  0.0456  0.0230 -0.4723
 1565TIP3   OH2 4616   7.458   3.790   2.092  0.0846 -0.4137 -0.3717
 1565TIP3    H1 4617   7.436   3.729   2.021 -2.0147  1.0504 -1.0650
 1565TIP3    H2 4618   7.470   3.874   2.049 -0.2373  0.3089  0.9051
 1566TIP3   OH2 4619   8.543   1.348   1.287  0.1745  0.1546  0.9502
 1566TIP3    H1 4620   8.618   1.354   1.228  1.1186  1.2580  2.2220
 1566TIP3    H2 4621   8.560   1.270   1.340 -1.5111 -1.8655 -1.2563
 1567TIP3   OH2 4622   5.458   6.578   1.784  0.1735 -0.4612  0.3812
 1567TIP3    H1 4623   5.490   6.655   1.737  2.7631 -1.2233  0.7859
 1567TIP3    H2 4624   5.458   6.605   1.876  1.0357 -0.9008  0.5186
 1568TIP3   OH2 4625   7.606   6.261   6.875  0.5022 -0.3119 -0.0312
 1568TIP3    H1 4626   7.652   6.316   6.812 -0.6875  0.8189  0.0398
 1568TIP3    H2 4627   7.606   6.174   6.835  2.5862 -0.3512 -0.0558
 1569TIP3   OH2 4628   0.208   1.522   6.068 -0.1967  0.4318 -0.3233
 1569TIP3    H1 4629   0.159   1.444   6.042  1.1831 -0.5403 -0.0943
 1569TIP3    H2 4630   0.170   1.548   6.151 -0.0499 -0.5721  0.0735
 1570TIP3   OH2 4631   7.329   2.141   4.789  0.4338 -0.2777 -0.1622
 1570TIP3    H1 4632   7.381   2.206   4.742  0.9389 -0.2717  0.4002
 1570TIP3    H2 4633   7.354   2.057   4.751 -1.0424 -0.0902 -1.6855
 1571TIP3   OH2 4634   2.770   8.144   1.373 -0.1674  0.2828  0.5933
 1571TIP3    H1 4635   2.856   8.104   1.378 -0.4473 -0.6753 -1.2734
 1571TIP3    H2 4636   2.712   8.081   1.418 -0.2468 -0.3090 -0.3069
 1572TIP3   OH2 4637   1.668   3.282   6.429 -0.1070 -0.1393 -0.4175
 1572TIP3    H1 4638   1.653   3.242   6.343  0.7097 -1.5162  0.0576
 1572TIP3    H2 4639   1.748   3.240   6.461  1.1458  2.2969 -0.1151
 1573TIP3   OH2 4640   5.443   3.873   2.423 -0.1547 -0.1256 -0.3770
 1573TIP3    H1 4641   5.482   3.885   2.337  0.7040 -1.9169 -0.2768
 1573TIP3    H2 4642   5.357   3.915   2.417  0.7219  1.6128 -1.4118
 1574TIP3   OH2 4643   5.706   2.028   4.581  0.4805 -0.0339 -0.2747
 1574TIP3    H1 4644   5.690   2.119   4.602  0.1737 -0.3520  0.9254
 1574TIP3    H2 4645   5.725   1.986   4.665  0.8245 -1.0290 -0.8300
 1575TIP3   OH2 4646   3.868   4.209   3.483 -0.3582 -0.1846 -0.1833
 1575TIP3    H1 4647   3.783   4.170   3.505  0.8010 -2.1030  1.1913
 1575TIP3    H2 4648   3.929   4.135   3.485  1.7059  1.4659  1.0191
 1576TIP3   OH2 4649   0.423   1.727   2.866  0.5652  0.8946  0.0791
 1576TIP3    H1 4650   0.507   1.685   2.884  0.2335  0.4021  0.4725
 1576TIP3    H2 4651   0.403   1.776   2.946  0.9223  1.7661 -0.3532
 1577TIP3   OH2 4652   1.451   7.709   4.286  0.1332 -0.0553 -0.4626
 1577TIP3    H1 4653   1.384   7.767   4.249 -0.1669 -0.2598 -0.2444
 1577TIP3    H2 4654   1.411   7.674   4.365 -0.2313 -1.6435 -1.3122
 1578TIP3   OH2 4655   5.522   4.956   0.601  0.2060  0.5137 -0.4148
 1578TIP3    H1 4656   5.482   4.882   0.646  1.0863  0.2440 -0.0620
 1578TIP3    H2 4657   5.539   4.924   0.513 -1.8238  1.1472 -1.0933
 1579TIP3   OH2 4658   7.311   0.541   0.507 -0.4358 -0.0077  0.3654
 1579TIP3    H1 4659   7.317   0.478   0.435  1.2773  0.8894 -0.3146
 1579TIP3    H2 4660   7.265   0.493   0.576 -1.0384 -1.2900 -0.8769
 1580TIP3   OH2 4661   4.292   2.441   1.133  0.3312  0.5886 -0.2942
 1580TIP3    H1 4662   4.368   2.441   1.191  0.7565  0.4421 -0.8448
 1580TIP3    H2 4663   4.301   2.522   1.083 -0.3203  0.9788  0.2094
 1581TIP3   OH2 4664   2.008   6.771   2.675  0.2638  0.5277 -0.1446
 1581TIP3    H1 4665   2.055   6.725   2.605  0.1408 -1.6639  1.1324
 1581TIP3    H2 4666   2.072   6.779   2.746 -0.6117 -0.6078  0.8252
 1582TIP3   OH2 4667   4.731   7.101   4.920 -0.1837  0.3522 -0.1710
 1582TIP3    H1 4668   4.690   7.027   4.964  1.2363  1.1705  2.8437
 1582TIP3    H2 4669   4.825   7.085   4.929  0.1406  1.8462 -0.6507
 1583TIP3   OH2 4670   6.331   7.366   0.391 -0.2752  0.3492  0.4670
 1583TIP3    H1 4671   6.304   7.290   0.443 -0.8637  0.6557  0.6208
 1583TIP3    H2 4672   6.345   7.331   0.303  3.6091 -0.7720  1.3607
 1584TIP3   OH2 4673   3.698   2.285   1.227 -0.6068  0.3535  0.2204
 1584TIP3    H1 4674   3.670   2.242   1.308  0.3524  0.8971  0.8592
 1584TIP3    H2 4675   3.696   2.215   1.161 -1.2988 -0.1166  0.7303
 1585TIP3   OH2 4676   7.311   1.575   6.601  0.2871 -0.1861 -0.1762
 1585TIP3    H1 4677   7.235   1.520   6.618 -0.8234  2.1523  3.5654
 1585TIP3    H2 4678   7.284   1.633   6.530 -0.3524 -1.1238 -0.7249
 1586TIP3   OH2 4679   1.302   8.036   2.438 -0.2155 -0.1191 -0.1847
 1586TIP3    H1 4680   1.252   8.082   2.370 -1.1397  0.8768  1.1133
 1586TIP3    H2 4681   1.380   8.091   2.451  0.7801 -1.1352 -1.4857
 1587TIP3   OH2 4682   6.815   5.401   4.168 -0.2422 -0.1620 -0.1916
 1587TIP3    H1 4683   6.861   5.483   4.151  1.5801 -0.9712  0.5456
 1587TIP3    H2 4684   6.810   5.358   4.082 -0.2172  0.2312 -0.3919
 1588TIP3   OH2 4685   3.521   7.912   4.102 -0.1918 -0.4966 -0.0037
 1588TIP3    H1 4686   3.570   7.872   4.030 -0.3110 -2.2715  0.8609
 1588TIP3    H2 4687   3.585   7.924   4.171 -0.3559  0.0107  0.0694
 1589TIP3   OH2 4688   5.619   5.565   2.413  0.2827  0.5216  0.3694
 1589TIP3    H1 4689   5.525   5.569   2.397  0.2653 -2.4251 -0.7905
 1589TIP3    H2 4690   5.628   5.515   2.494  0.8816 -0.0529 -0.0451
 1590TIP3   OH2 4691   0.037   0.276   4.255 -0.4349 -0.0760  0.2737
 1590TIP3    H1 4692  -0.027   0.286   4.326 -0.6089 -1.0655  0.2719
 1590TIP3    H2 4693  -0.008   0.221   4.190  0.0475  0.0777 -0.1921
 1591TIP3   OH2 4694   1.576   2.150   2.505  0.1054  0.1374  0.3237
 1591TIP3    H1 4695   1.596   2.120   2.594 -1.0028  0.7973  0.8266
 1591TIP3    H2 4696   1.642   2.217   2.487  0.4774 -0.1622  0.5695
 1592TIP3   OH2 4697   7.122   1.767   7.059  0.0033  0.2623  0.0832
 1592TIP3    H1 4698   7.109   1.764   7.154 -2.5878  1.8885 -0.1286
 1592TIP3    H2 4699   7.034   1.778   7.023  0.4851 -3.2280 -2.7689
 1593TIP3   OH2 4700   1.464   3.392   4.362 -0.7618 -0.5031 -0.2867
 1593TIP3    H1 4701   1.412   3.454   4.312 -0.4703 -0.3620 -0.4184
 1593TIP3    H2 4702   1.538   3.443   4.394 -0.6279 -0.7342 -0.2220
 1594TIP3   OH2 4703   6.995   4.126   3.482  0.0664  0.1431 -0.0766
 1594TIP3    H1 4704   7.040   4.076   3.550  1.7474  1.6901  0.0359
 1594TIP3    H2 4705   6.905   4.092   3.482  0.6815 -1.6240  1.1519
 1595TIP3   OH2 4706   7.244   0.652   2.774 -0.1800 -0.4246 -0.0451
 1595TIP3    H1 4707   7.325   0.602   2.769  0.9873  1.4486 -1.1239
 1595TIP3    H2 4708   7.238   0.697   2.689 -1.4254  0.8158  0.6505
 1596TIP3   OH2 4709   7.690   7.844   5.908  0.0305  0.3603  0.2378
 1596TIP3    H1 4710   7.601   7.811   5.924  0.8130 -1.3289  1.3204
 1596TIP3    H2 4711   7.740   7.767   5.881  1.1565  1.3156 -0.4932
 1597TIP3   OH2 4712   0.222   5.144   5.835  0.0790 -0.2876 -0.2675
 1597TIP3    H1 4713   0.270   5.227   5.822  0.4464 -0.4396  0.0947
 1597TIP3    H2 4714   0.178   5.129   5.751 -1.4704  1.1981  0.2277
 1598TIP3   OH2 4715   2.136   5.338   4.250 -0.3186  0.4500  0.6052
 1598TIP3    H1 4716   2.065   5.349   4.313 -0.3334 -0.0609  0.6829
 1598TIP3    H2 4717   2.185   5.262   4.281 -1.1199 -0.6651 -0.7269
 1599TIP3   OH2 4718   1.368   1.989   0.256  0.2221  0.1166 -0.2077
 1599TIP3    H1 4719   1.410   1.906   0.280 -0.1397  0.2273  0.8403
 1599TIP3    H2 4720   1.280   1.984   0.293 -0.5634  0.0915 -1.9768
 1600TIP3   OH2 4721   0.538   6.189   0.081 -0.2528  0.4493 -0.2887
 1600TIP3    H1 4722   0.569   6.195   0.171 -1.6930  2.1365  0.1356
 1600TIP3    H2 4723   0.549   6.278   0.046  0.2088 -0.1593 -1.7650
 1601TIP3   OH2 4724   6.717   7.038   5.926 -0.3241 -0.1429  0.6572
 1601TIP3    H1 4725   6.657   7.097   5.879 -0.7670  0.2121  1.6495
 1601TIP3    H2 4726   6.666   6.958   5.938 -0.1479 -0.2977  0.3961
 1602TIP3   OH2 4727   5.291   4.022   2.706 -0.1560 -0.2987  0.2018
 1602TIP3    H1 4728   5.278   4.116   2.721  3.0239  0.3744 -0.6525
 1602TIP3    H2 4729   5.272   4.010   2.613  2.6506  0.2685 -0.5282
 1603TIP3   OH2 4730   3.854   3.634   1.823 -0.3824  0.3036 -0.2122
 1603TIP3    H1 4731   3.897   3.719   1.832 -1.6208  0.8670  0.5835
 1603TIP3    H2 4732   3.854   3.618   1.728 -1.3456  1.8405 -0.5007
 1604TIP3   OH2 4733   3.611   6.682   1.329 -0.0808 -0.1443  1.1695
 1604TIP3    H1 4734   3.685   6.636   1.288  0.3485  0.9606  0.6774
 1604TIP3    H2 4735   3.590   6.753   1.268 -0.8005  0.2541  1.8666
 1605TIP3   OH2 4736   6.543   6.913   3.153  0.6037 -0.3265  0.6881
 1605TIP3    H1 4737   6.542   6.993   3.206  1.4719 -0.1506  0.4412
 1605TIP3    H2 4738   6.513   6.941   3.067  0.5043 -0.3522  0.7137
 1606TIP3   OH2 4739   3.516   3.422   6.871 -0.4245 -0.3947  0.5270
 1606TIP3    H1 4740   3.606   3.432   6.839 -0.7138 -1.9084 -0.8844
 1606TIP3    H2 4741   3.508   3.328   6.892 -2.2180 -0.6959 -1.2087
 1607TIP3   OH2 4742   7.621   3.606   1.322  0.0449  0.4472  0.1856
 1607TIP3    H1 4743   7.683   3.586   1.392  0.1497  0.3803  0.0750
 1607TIP3    H2 4744   7.549   3.544   1.336 -0.8325  1.6692  1.3593
 1608TIP3   OH2 4745   7.700   4.257   5.440 -0.6757 -0.0475  0.1111
 1608TIP3    H1 4746   7.687   4.328   5.376 -1.1211  1.4938  1.8345
 1608TIP3    H2 4747   7.792   4.234   5.432  0.0392  2.2271  0.9272
 1609TIP3   OH2 4748   4.391   2.392   5.075  0.6331  0.0305  0.2113
 1609TIP3    H1 4749   4.374   2.383   5.168  2.0042 -0.1528  0.4663
 1609TIP3    H2 4750   4.374   2.484   5.055 -1.4676 -0.2951  0.2104
 1610TIP3   OH2 4751   0.916   7.762   4.031  0.7499  0.4420  0.5263
 1610TIP3    H1 4752   0.973   7.701   3.983  3.2479  2.2432  1.0114
 1610TIP3    H2 4753   0.879   7.818   3.963 -1.6627 -1.5041  0.0610
 1611TIP3   OH2 4754   8.529   6.503   1.777  0.5508 -0.6595 -0.4254
 1611TIP3    H1 4755   8.489   6.587   1.752 -0.1107 -1.0671 -0.7546
 1611TIP3    H2 4756   8.467   6.437   1.747  0.1543 -1.2045  1.4467
 1612TIP3   OH2 4757   5.168   2.269   3.868  0.0009 -0.0614  0.3588
 1612TIP3    H1 4758   5.153   2.205   3.798  0.2044  0.8324 -0.5373
 1612TIP3    H2 4759   5.170   2.217   3.948  2.4855 -1.4910 -0.5355
 1613TIP3   OH2 4760   1.153   5.459   5.543  0.3035 -0.7319 -0.3488
 1613TIP3    H1 4761   1.236   5.418   5.570  0.0599 -0.8590  0.2374
 1613TIP3    H2 4762   1.161   5.550   5.570 -0.3273 -1.0702  1.1237
 1614TIP3   OH2 4763   4.257   6.941   5.276  0.3433 -0.2736 -0.2348
 1614TIP3    H1 4764   4.213   6.939   5.361 -1.0883  3.2401 -0.7438
 1614TIP3    H2 4765   4.315   7.017   5.280 -0.4941  0.6023 -2.6860
 1615TIP3   OH2 4766   7.574   4.667   0.956 -0.2659 -0.2837 -0.2729
 1615TIP3    H1 4767   7.494   4.717   0.944  0.8115  1.8525  0.9232
 1615TIP3    H2 4768   7.640   4.732   0.980  1.9612 -1.8949 -1.6595
 1616TIP3   OH2 4769   1.517   2.314   2.827 -0.1192 -0.2399 -0.4670
 1616TIP3    H1 4770   1.575   2.246   2.862 -2.2123 -1.1417  1.4938
 1616TIP3    H2 4771   1.435   2.269   2.809 -1.2346  1.5548 -0.1624
 1617TIP3   OH2 4772   8.505   3.218   1.667 -0.4846  0.2854  0.2774
 1617TIP3    H1 4773   8.508   3.189   1.576  0.1803  1.1237  0.0201
 1617TIP3    H2 4774   8.456   3.300   1.665 -1.1667 -0.0977  0.8001
 1618TIP3   OH2 4775   7.934   2.910   1.675 -0.6542 -0.1046  0.0358
 1618TIP3    H1 4776   8.008   2.863   1.714 -1.1933  1.1432  2.8454
 1618TIP3    H2 4777   7.871   2.841   1.653  0.5967 -1.0413 -0.7518
 1619TIP3   OH2 4778   4.919   6.504   3.039 -0.2089 -0.4787 -0.2229
 1619TIP3    H1 4779   4.864   6.506   3.117  2.4275  0.6656  1.8139
 1619TIP3    H2 4780   4.927   6.596   3.014 -0.7377 -0.8068 -1.6736
 1620TIP3   OH2 4781   7.316   1.449   5.734 -0.0517 -0.1602 -0.2121
 1620TIP3    H1 4782   7.295   1.506   5.808  1.6778 -0.2033  0.3748
 1620TIP3    H2 4783   7.406   1.420   5.752  1.9436  2.6894 -4.0599
 1621TIP3   OH2 4784   6.254   1.095   3.766  0.4621  0.4269 -0.0018
 1621TIP3    H1 4785   6.325   1.034   3.782 -1.3049 -2.2891 -1.6157
 1621TIP3    H2 4786   6.276   1.137   3.683  1.6241  2.0289  1.0559
 1622TIP3   OH2 4787   3.484   1.119   5.640  0.3736 -0.4608 -0.1621
 1622TIP3    H1 4788   3.512   1.207   5.664 -3.1309  0.1287  2.7248
 1622TIP3    H2 4789   3.546   1.061   5.684  0.1549  0.6825  1.8086
 1623TIP3   OH2 4790   7.628   2.222   0.960  0.2056  0.1299  0.0937
 1623TIP3    H1 4791   7.680   2.224   0.880  0.7749 -0.4248  0.4441
 1623TIP3    H2 4792   7.673   2.281   1.020  0.6988 -0.6894  0.5481
 1624TIP3   OH2 4793   0.769   5.393   3.392 -0.0337 -0.2373  0.1739
 1624TIP3    H1 4794   0.755   5.430   3.479 -0.1486  1.3558 -0.4727
 1624TIP3    H2 4795   0.787   5.301   3.407 -1.8859 -0.4049  1.7490
 1625TIP3   OH2 4796   0.251   1.830   4.183 -0.3916 -0.3087 -0.1411
 1625TIP3    H1 4797   0.326   1.854   4.129  0.5718 -2.1701  0.2671
 1625TIP3    H2 4798   0.220   1.747   4.145 -2.4493  0.5681 -0.4779
 1626TIP3   OH2 4799   6.169   6.797   0.179 -0.8768  0.6446 -0.1316
 1626TIP3    H1 4800   6.191   6.786   0.087  1.1451 -2.3757  0.5503
 1626TIP3    H2 4801   6.122   6.716   0.202  1.5759 -0.2779  2.1460
 1627TIP3   OH2 4802   7.436   2.606   4.054  0.0404  0.0416 -0.5966
 1627TIP3    H1 4803   7.423   2.625   3.962  2.0379  1.1859 -0.7115
 1627TIP3    H2 4804   7.466   2.689   4.092  2.0400 -1.0729  0.4522
 1628TIP3   OH2 4805   3.788   1.643   1.527 -0.2619 -0.4555  0.4161
 1628TIP3    H1 4806   3.808   1.707   1.458  0.5998 -0.4127  0.6917
 1628TIP3    H2 4807   3.716   1.682   1.576 -1.2381 -0.7210 -0.7636
 1629TIP3   OH2 4808   4.171   4.575   2.110  0.1445 -0.3635  0.5202
 1629TIP3    H1 4809   4.101   4.623   2.065  0.1313  1.1675  2.0545
 1629TIP3    H2 4810   4.202   4.636   2.178  1.9727 -1.5587  0.8367
 1630TIP3   OH2 4811   6.540   3.053   4.791 -0.6243  0.2785  0.5354
 1630TIP3    H1 4812   6.570   3.101   4.868  0.5722  2.2548 -1.0688
 1630TIP3    H2 4813   6.555   2.961   4.812 -0.5166  0.7442  2.7000
 1631TIP3   OH2 4814   2.512   0.438   3.083  0.0904 -0.2223 -0.5612
 1631TIP3    H1 4815   2.517   0.529   3.114  0.7211 -0.0722 -1.0857
 1631TIP3    H2 4816   2.599   0.402   3.099 -0.8626 -1.5644  2.0475
 1632TIP3   OH2 4817   3.993   2.702   4.340  0.9404 -0.1634 -0.3506
 1632TIP3    H1 4818   4.077   2.656   4.342  1.3887  0.6662  0.7407
 1632TIP3    H2 4819   3.931   2.642   4.382  1.5063  0.1698  0.9960
 1633TIP3   OH2 4820   2.173   6.703   7.046 -0.2993 -0.1730  0.2771
 1633TIP3    H1 4821   2.109   6.684   6.978  0.5484  3.5270 -1.8375
 1633TIP3    H2 4822   2.122   6.747   7.114 -0.5954 -0.6841  0.3896
 1634TIP3   OH2 4823   1.483   5.162   4.694  0.2919 -0.3630  0.0415
 1634TIP3    H1 4824   1.405   5.153   4.748 -0.9507 -0.7203 -1.7260
 1634TIP3    H2 4825   1.553   5.184   4.756 -0.8751 -1.5549  1.8568
 1635TIP3   OH2 4826   6.062   0.736   4.670  0.6524  0.5878 -0.2886
 1635TIP3    H1 4827   6.061   0.717   4.576  0.8325  1.0544 -0.3842
 1635TIP3    H2 4828   6.117   0.667   4.707 -0.8317 -0.6436 -0.2923
 1636TIP3   OH2 4829   7.826   1.216   2.992 -0.1638  0.1484  0.2555
 1636TIP3    H1 4830   7.841   1.234   3.085 -2.0225 -1.4477  0.9204
 1636TIP3    H2 4831   7.910   1.183   2.960 -0.0608 -1.2954  1.9193
 1637TIP3   OH2 4832   6.169   5.408   0.300  0.1506  0.0510  0.2334
 1637TIP3    H1 4833   6.264   5.398   0.312  0.1614  0.0726  0.1646
 1637TIP3    H2 4834   6.155   5.398   0.206 -0.1230 -1.6549  0.4208
 1638TIP3   OH2 4835   4.611   2.166   3.411  0.2586  0.3598  0.2806
 1638TIP3    H1 4836   4.648   2.248   3.378  1.0988  0.2388  0.9043
 1638TIP3    H2 4837   4.670   2.140   3.481 -0.2930 -0.5203  0.4231
 1639TIP3   OH2 4838   4.904   2.359   2.199  1.0108 -0.1062 -0.2496
 1639TIP3    H1 4839   4.849   2.286   2.228  1.8701 -0.4514  0.5536
 1639TIP3    H2 4840   4.976   2.317   2.152  1.2555  0.2562 -0.2033
 1640TIP3   OH2 4841   0.695   6.856   2.144  0.1422 -0.2100  0.2750
 1640TIP3    H1 4842   0.630   6.922   2.169 -0.1605 -0.6148  0.5692
 1640TIP3    H2 4843   0.649   6.799   2.082 -0.1160 -1.1058  1.2617
 1641TIP3   OH2 4844   7.547   0.944   4.608  0.0658  0.6581  0.0324
 1641TIP3    H1 4845   7.476   1.007   4.621  0.5394  0.8109  2.3064
 1641TIP3    H2 4846   7.627   0.996   4.618  0.4769  0.0540 -0.0421
 1642TIP3   OH2 4847   8.262   3.171   4.716  0.2474 -0.6692 -0.4856
 1642TIP3    H1 4848   8.264   3.256   4.670 -3.1828 -0.5981 -0.8274
 1642TIP3    H2 4849   8.331   3.120   4.675  1.1314  1.3247 -1.6457
 1643TIP3   OH2 4850   4.705   5.253   2.430  0.3595 -0.7455 -0.5965
 1643TIP3    H1 4851   4.613   5.281   2.432  0.0404 -1.7292 -0.6645
 1643TIP3    H2 4852   4.707   5.175   2.487  1.1923 -0.6202 -0.4416
 1644TIP3   OH2 4853   7.825   4.535   3.076 -0.2456 -0.2900  0.0213
 1644TIP3    H1 4854   7.741   4.580   3.064 -1.1268 -1.3222  1.9948
 1644TIP3    H2 4855   7.858   4.523   2.987 -1.9803  0.5124 -0.7803
 1645TIP3   OH2 4856   3.280   4.415   3.708  0.1419  0.2503  0.2600
 1645TIP3    H1 4857   3.348   4.478   3.682  1.1609 -0.7140  0.4731
 1645TIP3    H2 4858   3.221   4.464   3.765  1.3424  0.8229  1.0494
 1646TIP3   OH2 4859   8.643   7.373   4.270  0.2707  0.0163  0.1480
 1646TIP3    H1 4860   8.716   7.434   4.262 -0.4476  0.9583  0.5882
 1646TIP3    H2 4861   8.684   7.291   4.299  0.9783  0.9849  2.0310
 1647TIP3   OH2 4862   7.832   6.410   4.358  0.3334 -0.1081  0.5186
 1647TIP3    H1 4863   7.820   6.358   4.279 -0.1235 -1.5170  1.4670
 1647TIP3    H2 4864   7.841   6.345   4.428  0.8008  1.0915  1.6159
 1648TIP3   OH2 4865   8.181   3.880   6.192  0.0362 -0.1815  0.1788
 1648TIP3    H1 4866   8.204   3.828   6.269 -1.5974 -3.2099 -1.1935
 1648TIP3    H2 4867   8.246   3.854   6.126  0.2515  0.9174 -0.0668
 1649TIP3   OH2 4868   5.495   1.427   0.406  0.0970 -0.1252  0.0625
 1649TIP3    H1 4869   5.549   1.485   0.460 -1.2492  0.3645  0.9494
 1649TIP3    H2 4870   5.507   1.341   0.445 -0.7811  0.2082  1.1215
 1650TIP3   OH2 4871   1.188   1.424   2.672 -0.2014  0.0726  0.3813
 1650TIP3    H1 4872   1.154   1.407   2.760 -2.5532 -2.3208 -0.8662
 1650TIP3    H2 4873   1.112   1.454   2.623  1.0968  1.4409 -0.8959
 1651TIP3   OH2 4874   4.944   2.998   2.875 -0.2798  0.6624 -0.4154
 1651TIP3    H1 4875   4.930   3.072   2.934 -1.1993  1.7237 -1.8911
 1651TIP3    H2 4876   4.869   3.000   2.816 -1.2890 -2.5834  0.5765
 1652TIP3   OH2 4877   8.492   2.122   4.627  0.6295 -0.3041 -0.6093
 1652TIP3    H1 4878   8.529   2.164   4.705  0.5066 -0.5528 -0.4144
 1652TIP3    H2 4879   8.518   2.030   4.635 -0.3679 -0.5675 -0.2539
 1653TIP3   OH2 4880   6.099   2.935   3.921  0.1015 -0.3416  0.1117
 1653TIP3    H1 4881   6.011   2.971   3.929  0.5386  1.1828 -1.4024
 1653TIP3    H2 4882   6.116   2.933   3.827  1.1458 -2.0196  0.2911
 1654TIP3   OH2 4883   1.996   7.400   3.879  0.1009  0.0772 -0.2654
 1654TIP3    H1 4884   1.921   7.372   3.931 -0.6475  1.5798 -0.4793
 1654TIP3    H2 4885   1.970   7.485   3.843  1.2698 -0.1275 -1.6895
 1655TIP3   OH2 4886   5.148   6.097   1.995 -0.2778 -0.0800 -0.2423
 1655TIP3    H1 4887   5.162   6.132   1.907 -1.9578 -1.7910 -1.2548
 1655TIP3    H2 4888   5.090   6.161   2.037  1.1516  1.1493 -0.0202
 1656TIP3   OH2 4889   7.216   8.027   1.726 -0.2366  0.0180  0.0865
 1656TIP3    H1 4890   7.251   7.944   1.758  0.4923  0.5103  0.5967
 1656TIP3    H2 4891   7.291   8.071   1.685 -0.0632  1.3209  1.6635
 1657TIP3   OH2 4892   0.372   6.937   3.121 -0.5628 -0.1328  0.3574
 1657TIP3    H1 4893   0.382   6.863   3.181 -2.8593 -0.8539 -0.0699
 1657TIP3    H2 4894   0.424   6.913   3.045  1.7849  0.4598  1.6752
 1658TIP3   OH2 4895   4.860   3.521   1.744 -0.3438  0.3735 -0.0048
 1658TIP3    H1 4896   4.831   3.609   1.769 -1.4526 -0.6864  2.8291
 1658TIP3    H2 4897   4.951   3.517   1.772 -0.3598  0.5132  0.0682
 1659TIP3   OH2 4898   4.272   7.017   2.649 -0.3350  0.2657  0.1311
 1659TIP3    H1 4899   4.329   7.071   2.704 -1.2610  0.9901  0.3945
 1659TIP3    H2 4900   4.251   7.073   2.574  1.7863 -1.0646 -1.5820
 1660TIP3   OH2 4901   1.940   7.629   0.518  0.9177  0.0630  0.4017
 1660TIP3    H1 4902   1.948   7.545   0.473  0.7228 -0.0983  0.6633
 1660TIP3    H2 4903   1.979   7.614   0.604 -0.2341 -0.1382  0.9186
 1661TIP3   OH2 4904   0.576   5.920   1.338 -0.3111 -0.3018  0.5552
 1661TIP3    H1 4905   0.627   6.000   1.331 -0.5454 -0.2612 -1.1543
 1661TIP3    H2 4906   0.603   5.881   1.422  2.1494 -0.0265 -0.0193
 1662TIP3   OH2 4907   7.340   0.019   5.883  0.3671  0.2857  0.2436
 1662TIP3    H1 4908   7.261   0.072   5.887 -1.1348 -1.8549  0.7675
 1662TIP3    H2 4909   7.363   0.004   5.975  0.5292 -0.2719  0.1182
 1663TIP3   OH2 4910   2.379   3.090   3.224  0.3203  0.4967  0.6502
 1663TIP3    H1 4911   2.404   3.005   3.259 -2.3757 -1.2193 -1.1554
 1663TIP3    H2 4912   2.364   3.145   3.301  2.1489 -0.6206  1.8573
 1664TIP3   OH2 4913   0.558   2.436   1.351  0.6915  0.2764 -0.1717
 1664TIP3    H1 4914   0.634   2.457   1.404  1.1927 -1.5795 -0.1115
 1664TIP3    H2 4915   0.592   2.387   1.276 -0.3249  0.3402 -0.7066
 1665TIP3   OH2 4916   7.915   1.828   3.004 -0.0793 -0.3750  0.2244
 1665TIP3    H1 4917   7.961   1.804   3.084 -1.4769 -0.5226  1.0214
 1665TIP3    H2 4918   7.984   1.856   2.944  1.1064 -1.2771  1.1017
 1666TIP3   OH2 4919   1.495   6.163   5.760  0.1094 -0.1661  0.2016
 1666TIP3    H1 4920   1.567   6.117   5.717  0.3443  1.3939 -1.1874
 1666TIP3    H2 4921   1.428   6.096   5.775  2.0764 -1.8422  2.2268
 1667TIP3   OH2 4922   8.521   1.960   0.871 -0.4631  0.0728  0.2206
 1667TIP3    H1 4923   8.563   2.025   0.815 -1.5772  0.3704 -0.2996
 1667TIP3    H2 4924   8.589   1.895   0.888  0.7175  1.4059  0.8272
 1668TIP3   OH2 4925   8.277   7.893   0.555  0.2005 -0.6297 -0.5960
 1668TIP3    H1 4926   8.209   7.932   0.611 -0.9484  0.4775 -2.6677
 1668TIP3    H2 4927   8.329   7.967   0.526  1.9289 -1.3946  0.3691
 1669TIP3   OH2 4928   3.575   1.068   1.708 -0.3188 -0.0400  0.3852
 1669TIP3    H1 4929   3.577   1.128   1.634 -0.6490  0.3020  0.6531
 1669TIP3    H2 4930   3.645   1.098   1.766  0.2912 -0.6260 -0.0266
 1670TIP3   OH2 4931   0.240   1.773   4.462  0.8632 -0.2154  0.3918
 1670TIP3    H1 4932   0.333   1.794   4.471  1.4153 -1.6930 -1.2207
 1670TIP3    H2 4933   0.221   1.789   4.369  0.1322 -2.1156  0.1715
 1671TIP3   OH2 4934   3.450   3.511   2.575 -0.0095  0.2259 -0.5779
 1671TIP3    H1 4935   3.405   3.528   2.493 -1.0886 -1.6636 -0.4421
 1671TIP3    H2 4936   3.491   3.425   2.562 -0.2565 -0.1326  0.8681
 1672TIP3   OH2 4937   3.054   0.256   7.076  0.0354 -0.2693 -0.4924
 1672TIP3    H1 4938   3.084   0.230   6.989  0.4975 -0.5815 -0.2409
 1672TIP3    H2 4939   3.125   0.311   7.111  0.5930 -1.4827  0.3322
 1673TIP3   OH2 4940   1.660   1.055   4.265  0.1486 -0.5884  0.3995
 1673TIP3    H1 4941   1.616   1.111   4.201  0.1465  0.1464  1.0332
 1673TIP3    H2 4942   1.753   1.062   4.244  0.0545 -1.3211 -0.2885
 1674TIP3   OH2 4943   3.061   2.710   0.215 -0.2433 -0.3107 -0.3936
 1674TIP3    H1 4944   3.074   2.656   0.136  0.6427  0.0883 -0.5313
 1674TIP3    H2 4945   3.086   2.798   0.188  0.0217 -0.1604  0.3194
 1675TIP3   OH2 4946   0.727   6.523   5.641  0.5733 -0.0083  0.6690
 1675TIP3    H1 4947   0.749   6.533   5.548  2.0355  1.8548  1.1434
 1675TIP3    H2 4948   0.631   6.525   5.643  0.5265  0.5349 -0.7494
 1676TIP3   OH2 4949   5.221   4.308   6.611 -0.7729 -0.3994  0.3982
 1676TIP3    H1 4950   5.161   4.356   6.554 -2.4063 -0.5747  1.9073
 1676TIP3    H2 4951   5.261   4.242   6.553 -0.1729  1.2507 -1.1777
 1677TIP3   OH2 4952   0.363   0.748   6.945  0.9221 -0.4005  0.8770
 1677TIP3    H1 4953   0.351   0.656   6.966 -2.5989  0.0446  1.3708
 1677TIP3    H2 4954   0.276   0.779   6.920  2.6047  1.9678 -2.9883
 1678TIP3   OH2 4955   5.737   3.130   3.288 -0.1339 -0.0727 -0.1010
 1678TIP3    H1 4956   5.652   3.150   3.249  0.0234  0.2067 -0.3038
 1678TIP3    H2 4957   5.801   3.155   3.221  0.1004 -0.5111 -0.0492
 1679TIP3   OH2 4958   5.698   4.541   3.581 -0.1654  0.2072  0.1675
 1679TIP3    H1 4959   5.752   4.470   3.545  0.6532 -0.0803  1.8950
 1679TIP3    H2 4960   5.726   4.549   3.672 -3.1129 -0.0579  1.2196
 1680TIP3   OH2 4961   7.143   4.662   5.796  0.4278 -0.6045  0.1199
 1680TIP3    H1 4962   7.153   4.629   5.885 -0.5973  0.7544  0.7781
 1680TIP3    H2 4963   7.064   4.618   5.764 -0.5389  0.6103  0.7483
 1681TIP3   OH2 4964   0.915   1.983   4.468  0.8763  0.5529 -0.0130
 1681TIP3    H1 4965   0.899   2.073   4.496  3.1562  0.3530  2.3719
 1681TIP3    H2 4966   1.001   1.987   4.426  1.7687 -0.6763  1.5800
 1682TIP3   OH2 4967   0.111   7.868   6.407  0.2432 -0.4421 -0.2393
 1682TIP3    H1 4968   0.059   7.833   6.479  1.1384 -1.0633  0.1341
 1682TIP3    H2 4969   0.107   7.799   6.340  0.5982 -0.5105 -0.1933
 1683TIP3   OH2 4970   5.371   6.315   5.918  0.5394 -0.1484 -0.2018
 1683TIP3    H1 4971   5.385   6.302   6.012  0.7982  1.3989  0.0012
 1683TIP3    H2 4972   5.405   6.235   5.877  2.5914  0.1086  0.8700
 1684TIP3   OH2 4973   2.079   7.023   2.561 -0.0200 -0.3526  0.4180
 1684TIP3    H1 4974   2.161   7.055   2.523 -1.0477  0.7374 -0.9853
 1684TIP3    H2 4975   2.107   6.974   2.638  2.2116 -2.4640 -1.5266
 1685TIP3   OH2 4976   7.269   1.766   1.930  0.2850  0.3622  0.2735
 1685TIP3    H1 4977   7.339   1.709   1.961  0.1034 -0.4261 -0.7066
 1685TIP3    H2 4978   7.258   1.742   1.838  0.1310  1.9158 -0.1500
 1686TIP3   OH2 4979   3.214   7.364   0.603  0.4673  0.3231  0.0397
 1686TIP3    H1 4980   3.179   7.314   0.677  2.0973 -0.4054  0.3735
 1686TIP3    H2 4981   3.139   7.410   0.566 -0.8470 -1.3136  0.5806
 1687TIP3   OH2 4982   4.598   3.734   5.922 -0.2366 -0.1029 -0.2760
 1687TIP3    H1 4983   4.613   3.796   5.851 -0.9731  0.8689  0.3841
 1687TIP3    H2 4984   4.534   3.672   5.886  2.4683 -2.1929 -1.8842
 1688TIP3   OH2 4985   3.353   7.743   6.284 -0.0462  0.3809  0.2689
 1688TIP3    H1 4986   3.368   7.669   6.343 -1.2249  1.4667  2.0000
 1688TIP3    H2 4987   3.423   7.805   6.304 -0.6034  0.8677  0.7639
 1689TIP3   OH2 4988   4.359   5.285   5.553  0.3153  0.0290  0.4112
 1689TIP3    H1 4989   4.376   5.197   5.584  1.3216 -0.8205 -2.2696
 1689TIP3    H2 4990   4.363   5.279   5.457  0.0558  2.9073  0.1058
 1690TIP3   OH2 4991   7.059   4.872   4.981 -0.1026  0.7732 -0.4107
 1690TIP3    H1 4992   7.147   4.868   4.942  0.1712  3.1834 -0.2426
 1690TIP3    H2 4993   7.066   4.941   5.047 -1.1029 -1.7352  2.5578
 1691TIP3   OH2 4994   2.025   0.661   2.074 -0.1703 -0.1957  0.4312
 1691TIP3    H1 4995   2.025   0.731   2.008 -0.1400  0.7609  1.4171
 1691TIP3    H2 4996   2.117   0.636   2.082 -0.0757  0.2094  0.6440
 1692TIP3   OH2 4997   0.950   4.335   1.916 -0.0477 -0.0436 -0.2406
 1692TIP3    H1 4998   0.979   4.244   1.922 -1.7808 -0.5487  1.7745
 1692TIP3    H2 4999   1.031   4.386   1.920  0.8527 -1.4551  0.6153
 1693TIP3   OH2 5000   4.709   6.278   4.950 -0.3130 -0.1968 -0.2735
 1693TIP3    H1 5001   4.687   6.258   5.041 -0.0421 -1.5236 -0.4818
 1693TIP3    H2 5002   4.662   6.211   4.899  1.3803 -0.9132 -0.9471
 1694TIP3   OH2 5003   0.606   5.852   3.898  0.0364 -0.0952 -0.2723
 1694TIP3    H1 5004   0.668   5.877   3.830  2.4283 -0.7764  1.5154
 1694TIP3    H2 5005   0.607   5.756   3.897 -2.3280 -0.1728 -1.2780
 1695TIP3   OH2 5006   0.035   8.040   0.762  0.3657  0.6553 -0.4515
 1695TIP3    H1 5007   0.038   7.995   0.846  2.0424  0.0988 -0.7686
 1695TIP3    H2 5008   0.126   8.061   0.742 -0.1783  2.4977 -1.2396
 1696TIP3   OH2 5009   6.336   5.220   3.898  0.3982  0.4892  0.3457
 1696TIP3    H1 5010   6.414   5.267   3.925  0.1585  1.0421  0.0905
 1696TIP3    H2 5011   6.314   5.164   3.973  1.4120 -0.1764  0.1719
 1697TIP3   OH2 5012   5.711   7.968   2.267  0.1545 -0.1270  0.4735
 1697TIP3    H1 5013   5.671   7.889   2.302  0.2582 -0.8304 -0.9412
 1697TIP3    H2 5014   5.714   7.954   2.173 -1.3150  2.2186 -0.0308
 1698TIP3   OH2 5015   2.026   6.871   6.702  0.1000 -0.7472  0.0731
 1698TIP3    H1 5016   1.947   6.876   6.647 -0.8701  1.1050  1.5130
 1698TIP3    H2 5017   2.096   6.847   6.641 -1.3513 -1.3207 -1.4724
 1699TIP3   OH2 5018   1.264   0.214   4.641 -0.0032 -0.0382 -0.9921
 1699TIP3    H1 5019   1.270   0.151   4.713  0.4757  0.2084 -0.8092
 1699TIP3    H2 5020   1.286   0.163   4.563  0.4739 -0.0889 -0.8354
 1700TIP3   OH2 5021   0.575   2.366   3.073 -0.0311 -0.0854 -0.0801
 1700TIP3    H1 5022   0.632   2.437   3.101  0.8318 -1.2867  1.3611
 1700TIP3    H2 5023   0.616   2.331   2.994  1.9297 -1.6246  1.5230
 1701TIP3   OH2 5024   1.932   4.245   4.189 -0.2183 -0.0368  0.2352
 1701TIP3    H1 5025   1.896   4.161   4.162  0.2472  0.2577 -1.3848
 1701TIP3    H2 5026   1.870   4.310   4.156 -0.1507  0.2953  0.7553
 1702TIP3   OH2 5027   6.056   3.895   2.355 -0.4075 -0.7994 -0.4985
 1702TIP3    H1 5028   6.050   3.800   2.361  1.1205 -0.8293  1.3292
 1702TIP3    H2 5029   6.149   3.912   2.339 -0.7370  0.3874 -1.2534
 1703TIP3   OH2 5030   5.282   3.179   4.858  0.4722  0.1859 -0.3077
 1703TIP3    H1 5031   5.198   3.150   4.822  0.4898 -0.3436  0.0616
 1703TIP3    H2 5032   5.271   3.273   4.873 -0.0855  0.1058 -0.1863
 1704TIP3   OH2 5033   1.194   7.806   1.862 -0.2612 -0.3604 -0.5956
 1704TIP3    H1 5034   1.190   7.755   1.780 -0.1106  1.6888 -1.9581
 1704TIP3    H2 5035   1.110   7.790   1.904 -0.0589 -2.0346 -0.7593
 1705TIP3   OH2 5036   2.626   4.048   3.068  0.5126 -0.4659 -0.0206
 1705TIP3    H1 5037   2.629   4.122   3.007 -1.4874 -0.3879 -0.1174
 1705TIP3    H2 5038   2.712   4.047   3.110  1.4979  0.2572 -1.9131
 1706TIP3   OH2 5039   2.382   7.455   4.584  0.0071 -0.3394 -0.4036
 1706TIP3    H1 5040   2.413   7.437   4.672 -0.1199 -1.6212 -0.6043
 1706TIP3    H2 5041   2.291   7.422   4.583 -0.0111 -0.2943 -0.9870
 1707TIP3   OH2 5042   3.307   5.667   2.516  0.3695 -0.5863  0.0098
 1707TIP3    H1 5043   3.326   5.739   2.575 -2.0195 -0.1613  0.3677
 1707TIP3    H2 5044   3.311   5.589   2.571  2.4553 -0.7151 -0.2688
 1708TIP3   OH2 5045   7.534   4.960   4.234  0.3149  0.5465 -0.0497
 1708TIP3    H1 5046   7.621   5.000   4.225 -0.3507  1.8105 -1.2799
 1708TIP3    H2 5047   7.473   5.033   4.225 -0.8968 -0.3291  0.7259
 1709TIP3   OH2 5048   2.098   7.379   2.311  0.0375  0.2488  0.4955
 1709TIP3    H1 5049   2.068   7.293   2.284  1.7148 -0.3588  0.4587
 1709TIP3    H2 5050   2.045   7.400   2.387 -2.0091  0.2478 -0.8530
 1710TIP3   OH2 5051   3.735   2.117   5.430  0.2255 -0.0571 -0.2412
 1710TIP3    H1 5052   3.822   2.138   5.463  0.1999 -0.6181  0.2115
 1710TIP3    H2 5053   3.731   2.158   5.344  1.3904 -1.0108 -0.7941
 1711TIP3   OH2 5054   7.996   6.241   2.412  0.1099 -0.2205 -0.6672
 1711TIP3    H1 5055   7.996   6.328   2.451 -0.6891 -1.0157  1.2334
 1711TIP3    H2 5056   7.978   6.256   2.319 -0.0120  1.6244 -0.3797
 1712TIP3   OH2 5057   2.547   7.538   5.246  0.1899 -0.3369 -0.0212
 1712TIP3    H1 5058   2.608   7.595   5.293 -1.1613  0.7639  0.4616
 1712TIP3    H2 5059   2.602   7.467   5.212  2.0611  1.5975 -1.2723
 1713TIP3   OH2 5060   8.180   3.893   3.704 -0.2414 -0.4337  0.1040
 1713TIP3    H1 5061   8.250   3.865   3.763  0.6567  0.4249 -0.5395
 1713TIP3    H2 5062   8.214   3.971   3.661 -1.4422 -0.2337 -0.5184
 1714TIP3   OH2 5063   5.565   4.891   2.383 -0.0491  0.1037 -0.2140
 1714TIP3    H1 5064   5.516   4.819   2.422  0.9452  0.1307  1.1663
 1714TIP3    H2 5065   5.547   4.884   2.289 -0.3152 -1.6866 -0.0691
 1715TIP3   OH2 5066   5.264   7.351   3.792 -0.9424 -0.0506 -0.0249
 1715TIP3    H1 5067   5.172   7.364   3.812 -1.0256 -0.2368 -0.2808
 1715TIP3    H2 5068   5.273   7.256   3.781 -0.5887 -0.1001  0.6503
 1716TIP3   OH2 5069   2.262   3.030   1.719  0.8292  0.8738  0.4756
 1716TIP3    H1 5070   2.282   3.111   1.766  0.5543  0.5345  1.1873
 1716TIP3    H2 5071   2.348   2.994   1.696  0.9671  1.0448  0.7159
 1717TIP3   OH2 5072   1.478   2.107   1.747  0.1521 -0.2406  0.0211
 1717TIP3    H1 5073   1.527   2.119   1.829 -0.8394 -0.1158  0.6125
 1717TIP3    H2 5074   1.492   2.188   1.698 -0.9038  0.5335  0.9663
 1718TIP3   OH2 5075   8.288   0.873   6.257  0.2088  0.1746  0.0921
 1718TIP3    H1 5076   8.298   0.788   6.300 -0.4126 -0.5501 -1.1511
 1718TIP3    H2 5077   8.339   0.865   6.176 -1.2843  0.3598 -0.8903
 1719TIP3   OH2 5078   8.128   2.325   1.346  0.0017 -0.1664 -0.0762
 1719TIP3    H1 5079   8.099   2.407   1.306 -0.8136 -0.3808  0.0726
 1719TIP3    H2 5080   8.124   2.342   1.440 -1.2398 -0.7292 -0.0137
 1720TIP3   OH2 5081   5.375   6.711   1.014  0.3291  0.3038  0.0209
 1720TIP3    H1 5082   5.321   6.693   0.936 -1.5192  0.9131  1.0858
 1720TIP3    H2 5083   5.414   6.627   1.036  1.9373  0.3761 -2.2741
 1721TIP3   OH2 5084   7.780   2.553   0.659  0.5943 -0.1546 -0.2568
 1721TIP3    H1 5085   7.772   2.646   0.680  0.1226  0.1688 -1.7022
 1721TIP3    H2 5086   7.718   2.509   0.717 -2.2140  0.9059 -2.1926
 1722TIP3   OH2 5087   5.264   5.422   5.058 -0.3057  0.6474 -0.0210
 1722TIP3    H1 5088   5.320   5.483   5.010 -1.6702  2.3251  0.4513
 1722TIP3    H2 5089   5.315   5.341   5.061  1.3988  1.6237 -1.0040
 1723TIP3   OH2 5090   6.320   0.075   1.516  0.2809  0.2556  0.4551
 1723TIP3    H1 5091   6.356   0.164   1.515  1.2480 -0.1202 -0.1203
 1723TIP3    H2 5092   6.355   0.036   1.596  5.2163 -1.6153 -2.2035
 1724TIP3   OH2 5093   2.212   6.618   5.317 -0.2392 -0.1431  0.3303
 1724TIP3    H1 5094   2.304   6.624   5.344  0.4621 -0.1502 -1.8794
 1724TIP3    H2 5095   2.190   6.526   5.327  0.1439 -0.2230  0.4357
 1725TIP3   OH2 5096   5.234   3.632   1.920 -0.5637 -0.3973 -0.6973
 1725TIP3    H1 5097   5.270   3.545   1.904 -2.1120 -0.8054 -2.2318
 1725TIP3    H2 5098   5.299   3.692   1.884  1.5308 -0.7055  2.2077
 1726TIP3   OH2 5099   6.940   0.055   6.009  0.1607  0.0990 -0.8661
 1726TIP3    H1 5100   6.999   0.095   5.946  0.5652  1.3827  0.2889
 1726TIP3    H2 5101   6.852   0.070   5.973  0.4036  0.4636 -1.3087
 1727TIP3   OH2 5102   5.777   2.215   1.152  0.1632 -0.3082  0.1115
 1727TIP3    H1 5103   5.867   2.235   1.178 -0.3854  0.7743  1.3250
 1727TIP3    H2 5104   5.777   2.225   1.057  1.5442 -1.3177 -0.0209
 1728TIP3   OH2 5105   7.739   6.385   2.356  0.6620 -0.2304 -0.2417
 1728TIP3    H1 5106   7.772   6.350   2.438 -0.0411  1.3338  0.7547
 1728TIP3    H2 5107   7.814   6.430   2.317  0.3752  1.2312  0.8278
 1729TIP3   OH2 5108   5.135   2.653   0.797 -0.3049 -0.1224  0.0048
 1729TIP3    H1 5109   5.083   2.692   0.867  0.7257  0.7612  0.3037
 1729TIP3    H2 5110   5.149   2.562   0.825  2.2131  0.8365  2.2546
 1730TIP3   OH2 5111   2.138   3.365   4.741  0.5437  0.1258 -0.3354
 1730TIP3    H1 5112   2.157   3.271   4.740  2.1623  0.4304 -1.4112
 1730TIP3    H2 5113   2.082   3.377   4.818  2.5374 -1.3084  1.4455
 1731TIP3   OH2 5114   1.207   2.770   6.978 -0.7771  0.6224 -0.3225
 1731TIP3    H1 5115   1.229   2.798   6.890 -2.8208  0.9056 -0.8000
 1731TIP3    H2 5116   1.146   2.697   6.966 -1.6418  1.1220  0.8074
 1732TIP3   OH2 5117   1.290   2.618   4.877 -0.0442  0.1977 -0.5757
 1732TIP3    H1 5118   1.340   2.568   4.812 -1.5204 -1.6661 -0.3512
 1732TIP3    H2 5119   1.351   2.632   4.949  0.8761  0.1669 -1.3273
 1733TIP3   OH2 5120   2.138   7.923   2.393 -0.4928  0.2066  0.7648
 1733TIP3    H1 5121   2.071   7.941   2.327 -0.9073  1.1406  1.4236
 1733TIP3    H2 5122   2.213   7.893   2.342 -1.8911 -2.5462  0.1045
 1734TIP3   OH2 5123   4.363   5.216   4.470 -0.3735 -0.0321 -0.3049
 1734TIP3    H1 5124   4.452   5.226   4.436 -0.1093  0.2562  0.4366
 1734TIP3    H2 5125   4.308   5.208   4.393  0.3378 -0.5641 -0.7653
 1735TIP3   OH2 5126   0.182   6.455   5.731  0.2149 -0.0970 -0.3478
 1735TIP3    H1 5127   0.168   6.418   5.818 -0.3983 -0.4548 -0.5969
 1735TIP3    H2 5128   0.138   6.395   5.671  1.7308 -0.5810 -1.0439
 1736TIP3   OH2 5129   7.320   8.046   0.408 -0.0699 -0.1247 -0.1332
 1736TIP3    H1 5130   7.348   7.985   0.339 -0.0360 -0.1136 -0.1293
 1736TIP3    H2 5131   7.265   7.994   0.465 -2.4651  0.5276 -1.7008
 1737TIP3   OH2 5132   2.207   2.173   4.038  0.4031 -0.4162  0.7334
 1737TIP3    H1 5133   2.211   2.214   3.952  0.7022 -1.5602  0.1754
 1737TIP3    H2 5134   2.209   2.246   4.100 -1.5490  0.5219 -0.2257
 1738TIP3   OH2 5135   6.460   6.822   0.551  0.3448 -0.0877 -0.2874
 1738TIP3    H1 5136   6.372   6.788   0.534  0.6778 -1.2923  0.2829
 1738TIP3    H2 5137   6.447   6.916   0.564 -1.0130 -0.3812  0.7702
 1739TIP3   OH2 5138   4.581   8.112   5.310  0.5147  0.1453 -0.4560
 1739TIP3    H1 5139   4.534   8.160   5.378  0.1850 -1.0083  0.1486
 1739TIP3    H2 5140   4.650   8.065   5.356 -0.2192 -1.3103 -0.7681
 1740TIP3   OH2 5141   6.338   7.979   1.266  0.1614  0.1019 -0.6159
 1740TIP3    H1 5142   6.288   7.993   1.186  0.3833  0.5102 -0.6871
 1740TIP3    H2 5143   6.384   7.896   1.252  2.7850  1.7203 -2.2923
 1741TIP3   OH2 5144   3.212   7.422   2.796  0.0756  0.5605 -0.2392
 1741TIP3    H1 5145   3.152   7.489   2.763  0.2778  0.9041  0.0772
 1741TIP3    H2 5146   3.198   7.422   2.891 -0.2104 -0.1307 -0.2739
 1742TIP3   OH2 5147   8.271   2.952   2.054 -0.2824 -0.8232 -0.6018
 1742TIP3    H1 5148   8.279   2.897   2.133  2.3594 -0.0961 -0.2596
 1742TIP3    H2 5149   8.251   3.039   2.087  2.1238 -0.2253 -0.5220
 1743TIP3   OH2 5150   7.101   5.581   4.756 -0.0016  0.1761  0.0089
 1743TIP3    H1 5151   7.158   5.549   4.826  2.3264  0.6197 -1.5525
 1743TIP3    H2 5152   7.085   5.504   4.701  1.6740  0.6409 -1.1886
 1744TIP3   OH2 5153   4.909   7.803   1.944  0.4476 -0.6263  0.6446
 1744TIP3    H1 5154   4.899   7.748   1.865  0.4479 -1.0030  0.9021
 1744TIP3    H2 5155   4.834   7.779   1.998  1.0207 -1.1598  1.2236
 1745TIP3   OH2 5156   3.374   3.603   5.214 -0.1185  0.6905  0.6065
 1745TIP3    H1 5157   3.314   3.625   5.143 -2.2448  1.3681  2.4646
 1745TIP3    H2 5158   3.453   3.654   5.196 -0.5209  0.6821 -1.3358
 1746TIP3   OH2 5159   5.879   4.169   0.167 -0.2545  0.2945 -0.4100
 1746TIP3    H1 5160   5.792   4.196   0.194  0.0400  0.1540  0.7250
 1746TIP3    H2 5161   5.906   4.235   0.102 -1.0215  0.5782 -0.4462
 1747TIP3   OH2 5162   3.144   3.547   1.895 -0.3161  0.1460  0.2650
 1747TIP3    H1 5163   3.117   3.569   1.806 -0.9068  0.2787  0.4688
 1747TIP3    H2 5164   3.236   3.572   1.900 -0.7487  1.8706  0.2395
 1748TIP3   OH2 5165   4.343   0.862   1.400 -0.1239  0.0300  0.4444
 1748TIP3    H1 5166   4.402   0.880   1.474  0.6934  1.4750 -0.5081
 1748TIP3    H2 5167   4.330   0.948   1.359 -2.0823 -0.4411  0.0130
 1749TIP3   OH2 5168   5.127   1.511   2.484  0.1370  0.9018 -0.2836
 1749TIP3    H1 5169   5.125   1.416   2.477  0.3269  0.8266  0.6611
 1749TIP3    H2 5170   5.040   1.539   2.453 -0.3878  0.3356  0.6467
 1750TIP3   OH2 5171   8.475   3.710   5.322 -0.0460  0.3284 -0.4412
 1750TIP3    H1 5172   8.534   3.714   5.398  0.2897 -2.2603 -0.4497
 1750TIP3    H2 5173   8.414   3.639   5.343 -0.4004  0.0368 -2.2675
 1751TIP3   OH2 5174   7.701   4.366   4.367  0.5546  0.2688  0.4120
 1751TIP3    H1 5175   7.776   4.307   4.377 -0.0264 -0.3002  1.6087
 1751TIP3    H2 5176   7.637   4.335   4.432 -0.5151  1.0540 -0.2305
 1752TIP3   OH2 5177   4.867   3.092   3.461  0.0854  0.4676 -0.2037
 1752TIP3    H1 5178   4.925   3.023   3.431 -0.2326  0.1423 -0.0789
 1752TIP3    H2 5179   4.791   3.046   3.496  0.1194  0.8664  0.4035
 1753TIP3   OH2 5180   5.999   0.066   3.850  0.3165 -0.3044 -0.1993
 1753TIP3    H1 5181   6.052   0.145   3.846  0.0839 -0.0156  1.5370
 1753TIP3    H2 5182   5.917   0.089   3.806 -0.4794  1.0836  1.8383
 1754TIP3   OH2 5183   7.932   1.574   4.347 -0.0625 -0.3569  0.3071
 1754TIP3    H1 5184   8.004   1.512   4.330  0.1061  0.1229 -0.8140
 1754TIP3    H2 5185   7.964   1.629   4.418  0.4402 -0.5304  0.2202
 1755TIP3   OH2 5186   0.578   5.927   6.639  0.2502  0.1634 -0.5197
 1755TIP3    H1 5187   0.564   5.971   6.555  0.1101  3.5112  1.0924
 1755TIP3    H2 5188   0.670   5.942   6.659 -0.0427  0.6889  0.5321
 1756TIP3   OH2 5189   7.214   2.326   3.951  0.4866  0.1247 -0.4086
 1756TIP3    H1 5190   7.236   2.352   4.041  1.1735 -0.7771 -0.3144
 1756TIP3    H2 5191   7.291   2.349   3.899  0.3001  0.1422 -0.6805
 1757TIP3   OH2 5192   6.491   1.463   5.463 -0.3153  0.1167  1.1552
 1757TIP3    H1 5193   6.425   1.397   5.483  0.4218 -0.6985  0.9770
 1757TIP3    H2 5194   6.441   1.542   5.443 -1.4170 -1.1726 -1.7891
 1758TIP3   OH2 5195   1.740   0.963   4.514 -0.3029  0.1115  0.1404
 1758TIP3    H1 5196   1.829   0.930   4.505 -0.1817  0.8172 -1.9278
 1758TIP3    H2 5197   1.703   0.956   4.426 -2.5855 -0.8943  1.1063
 1759TIP3   OH2 5198   2.007   2.212   0.654  0.3311 -0.9503  0.2481
 1759TIP3    H1 5199   2.037   2.276   0.718 -0.0134 -0.5575  0.0163
 1759TIP3    H2 5200   1.927   2.176   0.692 -0.8081  0.4707 -0.6933
 1760TIP3   OH2 5201   6.661   8.186   5.632 -0.4984 -0.6464 -1.0280
 1760TIP3    H1 5202   6.606   8.210   5.558  1.0358  0.4535 -1.8612
 1760TIP3    H2 5203   6.712   8.111   5.601 -1.4187 -1.6167 -0.2849
 1761TIP3   OH2 5204   6.154   0.263   2.234 -0.2369 -0.2840 -0.2460
 1761TIP3    H1 5205   6.109   0.198   2.179 -1.3665  1.5456 -1.6200
 1761TIP3    H2 5206   6.086   0.296   2.292  0.6680 -1.2907  1.4905
 1762TIP3   OH2 5207   0.919   7.506   1.865  0.4232  0.2828 -1.0266
 1762TIP3    H1 5208   0.899   7.412   1.869  0.7045  0.2550 -0.1029
 1762TIP3    H2 5209   0.866   7.538   1.791 -3.6518  0.3367  1.5986
 1763TIP3   OH2 5210   3.096   1.040   6.489 -0.2712  0.1415 -0.1443
 1763TIP3    H1 5211   3.022   1.012   6.434 -0.0210  1.5921 -1.2907
 1763TIP3    H2 5212   3.173   1.031   6.433  0.2101  0.1799  0.4973
 1764TIP3   OH2 5213   2.713   6.905   1.002 -0.1609  0.1109  0.8082
 1764TIP3    H1 5214   2.745   6.815   1.011  0.7951  0.3873  0.3109
 1764TIP3    H2 5215   2.645   6.913   1.069  0.3294 -0.7238  1.4274
 1765TIP3   OH2 5216   3.548   1.349   2.705  0.3182 -0.9545  0.1630
 1765TIP3    H1 5217   3.535   1.273   2.762  1.2014 -0.5490  0.9461
 1765TIP3    H2 5218   3.462   1.389   2.698  0.3807 -0.3286  2.2532
 1766TIP3   OH2 5219   2.779   6.775   1.301 -0.2118 -0.1224  0.5223
 1766TIP3    H1 5220   2.699   6.733   1.331 -1.6445  2.2994  0.3495
 1766TIP3    H2 5221   2.791   6.742   1.212 -0.9860 -0.5497  0.5625
 1767TIP3   OH2 5222   0.627   6.886   4.119  0.2297 -0.5049  0.6099
 1767TIP3    H1 5223   0.675   6.924   4.193 -0.2697  1.9158 -0.2084
 1767TIP3    H2 5224   0.535   6.899   4.142  0.0503 -0.8275  0.0843
 1768TIP3   OH2 5225   5.844   1.433   3.291  0.1531  0.4446 -0.4211
 1768TIP3    H1 5226   5.934   1.453   3.316  0.3562 -1.3412  0.4039
 1768TIP3    H2 5227   5.796   1.433   3.374 -0.7603  1.9195 -0.9050
 1769TIP3   OH2 5228   2.567   6.694   3.487  0.3420 -0.1695 -0.2126
 1769TIP3    H1 5229   2.566   6.657   3.575  1.9595 -1.7512 -0.7977
 1769TIP3    H2 5230   2.504   6.641   3.438 -1.4843  1.4877  0.2116
 1770TIP3   OH2 5231   1.901   4.657   1.388  0.2804  0.1234 -0.3623
 1770TIP3    H1 5232   1.911   4.729   1.326  4.0093 -0.2247 -0.4338
 1770TIP3    H2 5233   1.920   4.579   1.335 -2.9964 -0.9625 -0.1323
 1771TIP3   OH2 5234   0.416   6.068   1.732 -0.1730 -0.0802 -0.5659
 1771TIP3    H1 5235   0.330   6.087   1.771  0.7426  1.6537  0.7514
 1771TIP3    H2 5236   0.402   6.077   1.638 -1.3383  0.6637 -0.3412
 1772TIP3   OH2 5237   1.569   2.929   0.596  0.4899 -0.5120 -0.0913
 1772TIP3    H1 5238   1.574   2.846   0.549 -1.1795 -0.5387 -0.2606
 1772TIP3    H2 5239   1.658   2.943   0.629  1.2212 -1.4771 -1.5541
 1773TIP3   OH2 5240   7.699   5.029   5.979  0.2727 -0.1393 -0.1531
 1773TIP3    H1 5241   7.720   5.122   5.974  0.3566 -0.2253 -2.8342
 1773TIP3    H2 5242   7.768   4.991   6.033  0.1094  1.3292  1.1761
 1774TIP3   OH2 5243   8.281   6.223   4.402  0.0606 -0.0983  0.3698
 1774TIP3    H1 5244   8.211   6.158   4.401 -0.8467  0.8636  0.1925
 1774TIP3    H2 5245   8.268   6.274   4.322  0.6548  0.4152  0.5911
 1775TIP3   OH2 5246   6.080   4.671   5.957 -0.1471  0.6948 -0.1913
 1775TIP3    H1 5247   6.051   4.691   6.046 -0.0709 -0.2921  0.0615
 1775TIP3    H2 5248   5.999   4.668   5.906 -0.5320 -1.6959  0.4441
 1776TIP3   OH2 5249   2.584   2.556   2.901  0.3905  0.4368 -0.3455
 1776TIP3    H1 5250   2.595   2.620   2.831  2.9020 -0.1383 -0.5695
 1776TIP3    H2 5251   2.498   2.516   2.884 -0.7043  2.8409 -0.8879
 1777TIP3   OH2 5252   3.123   7.730   6.553 -0.3836 -0.3333 -0.1874
 1777TIP3    H1 5253   3.097   7.653   6.502  1.0481 -0.0430 -1.4560
 1777TIP3    H2 5254   3.165   7.695   6.631 -1.1630 -0.8073  0.0291
 1778TIP3   OH2 5255   2.064   0.849   1.832  0.1298 -0.3748 -0.2495
 1778TIP3    H1 5256   2.056   0.906   1.755  0.4560 -2.0181 -1.5734
 1778TIP3    H2 5257   2.040   0.904   1.906 -1.7622  0.8641 -1.6814
 1779TIP3   OH2 5258   5.295   3.202   7.071  0.0271  0.4781 -0.1829
 1779TIP3    H1 5259   5.321   3.197   6.979 -0.3914  2.4668 -0.4680
 1779TIP3    H2 5260   5.296   3.296   7.091  1.0987  0.0561  2.1474
 1780TIP3   OH2 5261   8.382   2.894   1.471 -0.3054 -0.3585 -0.0666
 1780TIP3    H1 5262   8.349   2.930   1.389  0.4527  0.2074 -0.1383
 1780TIP3    H2 5263   8.339   2.809   1.480  0.0664 -0.6858 -1.3466
 1781TIP3   OH2 5264   5.036   1.315   3.602 -0.2792  0.4141 -0.0666
 1781TIP3    H1 5265   5.086   1.275   3.530 -1.9788  0.6004 -1.4160
 1781TIP3    H2 5266   4.951   1.271   3.599 -0.5902  0.8793  1.4492
 1782TIP3   OH2 5267   8.194   4.424   6.668 -0.5173  0.4771 -0.2082
 1782TIP3    H1 5268   8.214   4.515   6.643  0.6750  0.2369 -0.1685
 1782TIP3    H2 5269   8.266   4.398   6.725  1.3176 -1.7205 -3.1984
 1783TIP3   OH2 5270   2.427   2.146   4.447 -0.1401 -0.6297  0.3266
 1783TIP3    H1 5271   2.336   2.129   4.420  0.3675 -0.9079 -1.2965
 1783TIP3    H2 5272   2.456   2.063   4.485  0.6797 -1.9503 -2.8738
 1784TIP3   OH2 5273   1.449   7.035   4.030  0.3729  0.1468 -0.4174
 1784TIP3    H1 5274   1.525   7.075   4.073 -1.1010  2.9637 -0.1942
 1784TIP3    H2 5275   1.373   7.069   4.079 -1.0944 -2.3128 -0.8178
 1785TIP3   OH2 5276   2.015   3.931   1.992  0.3610  0.2845 -0.2021
 1785TIP3    H1 5277   2.059   3.846   1.990  0.4559  0.2322  2.1452
 1785TIP3    H2 5278   1.985   3.944   1.902  2.5345 -1.0604 -1.1893
 1786TIP3   OH2 5279   7.710   3.816   3.448  0.0305  0.4485 -0.2746
 1786TIP3    H1 5280   7.792   3.830   3.401  1.0452 -3.2717  0.0935
 1786TIP3    H2 5281   7.731   3.836   3.540  0.2658  0.3444 -0.3067
 1787TIP3   OH2 5282   6.577   7.027   1.770  0.0012 -0.2522 -0.0345
 1787TIP3    H1 5283   6.534   7.013   1.854  0.0532 -3.1302 -0.3618
 1787TIP3    H2 5284   6.655   7.078   1.791 -0.6892  0.2437  1.4393
 1788TIP3   OH2 5285   5.502   6.121   2.029 -0.4063  0.1495  0.4477
 1788TIP3    H1 5286   5.481   6.043   2.081  0.1399 -0.3969 -0.1295
 1788TIP3    H2 5287   5.576   6.094   1.975 -1.5038  0.4203 -1.2542
 1789TIP3   OH2 5288   5.081   5.329   0.719 -0.5295 -0.0813 -0.2987
 1789TIP3    H1 5289   5.137   5.362   0.649 -2.3959  0.7705 -1.4502
 1789TIP3    H2 5290   4.998   5.309   0.676 -0.8070 -2.4295  1.1302
 1790TIP3   OH2 5291   0.085   2.090   4.749  0.7531  0.3393 -0.3314
 1790TIP3    H1 5292   0.143   2.124   4.818  0.4740  2.1482 -0.9362
 1790TIP3    H2 5293   0.103   1.996   4.747  1.0338  0.2831  1.9619
 1791TIP3   OH2 5294   5.201   7.063   4.693  0.5200  0.5242  0.2575
 1791TIP3    H1 5295   5.220   7.117   4.769  0.5654  0.0175  0.6132
 1791TIP3    H2 5296   5.139   7.115   4.641 -0.1858  0.5206  1.0669
 1792TIP3   OH2 5297   6.349   4.153   1.582  0.1960  0.2970 -0.0003
 1792TIP3    H1 5298   6.310   4.241   1.584  0.6404  0.5036 -0.3917
 1792TIP3    H2 5299   6.277   4.096   1.555 -0.5802  0.2712  1.9433
 1793TIP3   OH2 5300   1.227   5.898   3.326  0.5622  0.3427 -0.5880
 1793TIP3    H1 5301   1.210   5.895   3.231  1.4373 -0.1276 -0.7410
 1793TIP3    H2 5302   1.174   5.971   3.357 -0.9568 -0.4380 -1.1870
 1794TIP3   OH2 5303   6.706   0.847   3.086  0.5129 -0.4933 -0.2575
 1794TIP3    H1 5304   6.761   0.874   3.013  0.2842 -3.2719 -1.5703
 1794TIP3    H2 5305   6.766   0.802   3.146  0.3835  0.2422  0.4472
 1795TIP3   OH2 5306   8.431   0.914   2.045  0.0116  0.0080 -0.0966
 1795TIP3    H1 5307   8.348   0.925   2.091 -0.3991  0.6662 -0.9538
 1795TIP3    H2 5308   8.463   0.829   2.073 -1.2579 -0.5316 -0.2159
 1796TIP3   OH2 5309   2.408   1.082   1.723  0.2733  0.3239 -0.2524
 1796TIP3    H1 5310   2.356   1.004   1.742  1.6284 -0.6899 -0.5517
 1796TIP3    H2 5311   2.432   1.116   1.809 -1.0199  0.9259 -0.1071
 1797TIP3   OH2 5312   6.689   3.686   2.621  0.0434  0.8384  0.5762
 1797TIP3    H1 5313   6.650   3.773   2.620 -0.7734  0.4805 -0.7870
 1797TIP3    H2 5314   6.698   3.662   2.529  0.2278 -0.5173  0.9207
 1798TIP3   OH2 5315   0.607   3.981   4.784  0.2046 -0.0875 -0.5687
 1798TIP3    H1 5316   0.539   3.988   4.717  0.2557 -1.4144 -0.7832
 1798TIP3    H2 5317   0.615   4.070   4.819 -0.3709  0.4688 -1.7731
 1799TIP3   OH2 5318   6.086   0.089   5.642 -0.4950 -0.3627 -0.2894
 1799TIP3    H1 5319   6.077  -0.004   5.620  1.0957 -0.4177 -0.8706
 1799TIP3    H2 5320   6.054   0.095   5.732 -0.3894 -1.5314 -0.1555
 1800TIP3   OH2 5321   3.028   2.193   5.924 -0.8867 -0.0788  0.0650
 1800TIP3    H1 5322   2.963   2.257   5.894 -2.4973 -1.5872  0.1654
 1800TIP3    H2 5323   3.042   2.136   5.849  0.3120  0.1640  0.0726
 1801TIP3   OH2 5324   2.786   3.845   5.789  0.1429 -0.0553  0.1491
 1801TIP3    H1 5325   2.783   3.864   5.882  0.7107 -0.2578  0.2119
 1801TIP3    H2 5326   2.700   3.871   5.756  0.6957  2.1143  0.3144
 1802TIP3   OH2 5327   6.717   0.338   4.298 -0.6406 -0.2977  0.3306
 1802TIP3    H1 5328   6.712   0.395   4.221  1.0156  0.9241  1.0703
 1802TIP3    H2 5329   6.729   0.250   4.262  0.9005  0.3480 -0.8295
 1803TIP3   OH2 5330   7.205   4.717   3.794  0.3002 -0.2093  0.3971
 1803TIP3    H1 5331   7.217   4.651   3.862 -0.8762 -1.6762 -0.7392
 1803TIP3    H2 5332   7.139   4.680   3.736 -0.7265  2.1616 -0.0923
 1804TIP3   OH2 5333   5.975   2.875   3.203  0.5360  0.0755  0.0995
 1804TIP3    H1 5334   5.984   2.931   3.280  1.1992 -0.3994  0.3752
 1804TIP3    H2 5335   5.931   2.797   3.236 -2.4159  1.2603 -0.7032
 1805TIP3   OH2 5336   3.275   3.710   4.972  0.0881 -0.5208  0.2162
 1805TIP3    H1 5337   3.228   3.628   4.957 -2.7092  1.4424 -3.2041
 1805TIP3    H2 5338   3.327   3.722   4.892  1.3736  0.5358  1.1646
 1806TIP3   OH2 5339   5.952   6.664   7.074  0.1004  0.7248 -0.0039
 1806TIP3    H1 5340   5.954   6.569   7.084 -0.4162  0.6978 -0.1044
 1806TIP3    H2 5341   6.024   6.684   7.014 -0.3652  0.2944 -0.7239
 1807TIP3   OH2 5342   2.298   5.156   2.415  0.5918  0.0432 -0.2996
 1807TIP3    H1 5343   2.214   5.163   2.371 -0.4442  0.9084  1.6903
 1807TIP3    H2 5344   2.277   5.163   2.508  3.0189  2.3023  0.2075
 1808TIP3   OH2 5345   5.524   4.965   2.780  0.0137  0.6365  0.2711
 1808TIP3    H1 5346   5.593   4.941   2.718  2.1198 -0.1288  2.6945
 1808TIP3    H2 5347   5.524   4.893   2.844 -2.6111  0.9708  0.7691
 1809TIP3   OH2 5348   0.050   2.095   6.423 -0.0557 -0.0204 -0.7311
 1809TIP3    H1 5349   0.051   2.095   6.519 -0.2829  0.5967 -0.7270
 1809TIP3    H2 5350  -0.041   2.112   6.400 -0.5396 -2.6033 -1.0749
 1810TIP3   OH2 5351   2.432   6.145   6.306 -0.1170 -0.6834  0.3650
 1810TIP3    H1 5352   2.463   6.096   6.230  0.5971 -0.2298  0.3553
 1810TIP3    H2 5353   2.351   6.101   6.331 -0.4156 -0.7817 -0.7153
 1811TIP3   OH2 5354   0.683   0.262   3.395 -0.0195  0.7796  0.0058
 1811TIP3    H1 5355   0.598   0.226   3.368  0.7230 -0.6488 -0.5337
 1811TIP3    H2 5356   0.667   0.355   3.406 -1.3592  0.7533 -1.3779
 1812TIP3   OH2 5357   6.402   6.648   3.536 -0.7012 -0.1410 -0.2497
 1812TIP3    H1 5358   6.444   6.663   3.451 -1.5608 -0.8111 -0.7920
 1812TIP3    H2 5359   6.411   6.733   3.581 -0.6627  0.3660 -1.1819
 1813TIP3   OH2 5360   4.966   1.874   3.334 -0.2249 -0.2893  0.0329
 1813TIP3    H1 5361   4.899   1.812   3.360  0.8921 -1.3546  0.4398
 1813TIP3    H2 5362   5.046   1.822   3.325  0.7409  1.0758  0.3440
 1814TIP3   OH2 5363   5.006   4.304   5.406 -0.3040  0.6100  0.3425
 1814TIP3    H1 5364   4.996   4.216   5.440  0.3662 -0.1053 -1.2194
 1814TIP3    H2 5365   5.041   4.355   5.479  1.5335 -0.9633  0.6414
 1815TIP3   OH2 5366   4.132   5.830   3.388 -0.2723 -0.2098  0.7746
 1815TIP3    H1 5367   4.039   5.813   3.406 -0.1045  0.4333  2.4885
 1815TIP3    H2 5368   4.177   5.802   3.468  0.8851  0.4783  0.3905
 1816TIP3   OH2 5369   3.580   2.582   4.729 -0.1896 -0.0805  0.0403
 1816TIP3    H1 5370   3.594   2.674   4.751  1.2557  0.1996 -1.7850
 1816TIP3    H2 5371   3.485   2.572   4.723 -0.3688  1.2254  0.5219
 1817TIP3   OH2 5372   7.486   2.910   5.641 -0.8095 -0.0383 -0.3322
 1817TIP3    H1 5373   7.435   2.884   5.565 -0.5349 -3.3914  0.4602
 1817TIP3    H2 5374   7.422   2.911   5.713 -0.4262 -0.6190  0.0226
 1818TIP3   OH2 5375   8.680   1.587   4.477 -0.3448 -0.3365  0.4962
 1818TIP3    H1 5376   8.622   1.644   4.427  2.3346  2.2716  0.0529
 1818TIP3    H2 5377   8.764   1.634   4.478  0.6893 -1.8192  4.5948
 1819TIP3   OH2 5378   6.347   1.266   1.656  0.7374 -0.2699  0.4297
 1819TIP3    H1 5379   6.398   1.304   1.728 -0.1243  3.0452 -0.5058
 1819TIP3    H2 5380   6.258   1.259   1.690  0.4919  0.5446 -0.0007
 1820TIP3   OH2 5381   8.552   1.495   3.095 -1.1682 -0.7463  0.5192
 1820TIP3    H1 5382   8.474   1.549   3.105 -0.0007  1.2536 -0.4394
 1820TIP3    H2 5383   8.606   1.517   3.171 -0.3363  0.1205 -0.2916
 1821TIP3   OH2 5384   8.646   6.635   2.987  0.1700 -0.4926  0.5205
 1821TIP3    H1 5385   8.674   6.727   2.990  1.2760 -0.7513 -0.8575
 1821TIP3    H2 5386   8.551   6.640   2.980 -0.0241  0.4736  2.8621
 1822TIP3   OH2 5387   3.156   6.449   4.749  0.6159  0.1728 -0.0178
 1822TIP3    H1 5388   3.203   6.374   4.714  1.8866  1.5899 -1.4957
 1822TIP3    H2 5389   3.108   6.414   4.824 -0.2992 -2.4974 -1.7030
 1823TIP3   OH2 5390   8.467   0.581   4.032  0.0860 -0.3750  0.4434
 1823TIP3    H1 5391   8.408   0.526   3.979  0.2819 -0.6882  0.5455
 1823TIP3    H2 5392   8.554   0.541   4.019  0.2286 -0.0923  0.5262
 1824TIP3   OH2 5393   1.546   4.437   5.824 -0.2040 -0.2468  0.4379
 1824TIP3    H1 5394   1.586   4.397   5.747  0.4441  1.2516 -0.0440
 1824TIP3    H2 5395   1.570   4.529   5.818 -1.7971  0.2726  1.3864
 1825TIP3   OH2 5396   0.352   7.951   2.805 -0.3354  0.0470 -0.5626
 1825TIP3    H1 5397   0.382   8.034   2.843 -0.6050  0.0439 -0.3440
 1825TIP3    H2 5398   0.397   7.946   2.720  0.1216  0.1417 -0.3268
 1826TIP3   OH2 5399   3.040   6.652   3.318  0.2763 -0.1412 -0.5366
 1826TIP3    H1 5400   2.958   6.622   3.280 -1.1387  2.1395  0.5445
 1826TIP3    H2 5401   3.074   6.575   3.364 -1.9494 -0.7909  0.1379
 1827TIP3   OH2 5402   4.140   6.037   3.644  0.2777  0.2991 -0.5534
 1827TIP3    H1 5403   4.204   5.969   3.664  0.3533  0.1926 -1.1462
 1827TIP3    H2 5404   4.192   6.112   3.615  0.0983 -0.4748 -3.1391
 1828TIP3   OH2 5405   8.005   7.055   6.619  0.4473  0.2983  0.3322
 1828TIP3    H1 5406   7.925   7.002   6.621  0.8819 -0.4330 -1.0014
 1828TIP3    H2 5407   7.976   7.140   6.586  0.4687 -0.5127 -1.9458
 1829TIP3   OH2 5408   5.354   5.570   1.053  0.1053  0.3100 -0.0166
 1829TIP3    H1 5409   5.272   5.522   1.043  0.5964 -0.6657  0.4631
 1829TIP3    H2 5410   5.369   5.572   1.148  1.0010 -0.1975 -0.1284
 1830TIP3   OH2 5411   4.070   1.888   6.860 -0.1999 -0.1474 -0.0414
 1830TIP3    H1 5412   4.002   1.956   6.857 -0.9597 -0.9308 -2.1777
 1830TIP3    H2 5413   4.067   1.857   6.950 -2.3244  0.2260  0.0877
 1831TIP3   OH2 5414   7.493   2.660   2.959 -0.0591  0.6672 -0.0308
 1831TIP3    H1 5415   7.556   2.695   2.896  1.3152 -1.2006  0.2207
 1831TIP3    H2 5416   7.520   2.698   3.043  0.1707  0.5828 -0.0655
 1832TIP3   OH2 5417   4.048   6.717   1.061  0.1647  0.5209  0.6164
 1832TIP3    H1 5418   4.000   6.759   1.133  0.0586  0.3090  0.6687
 1832TIP3    H2 5419   4.139   6.716   1.090 -0.0141 -0.4456  1.1692
 1833TIP3   OH2 5420   1.834   0.361   0.769  0.1982 -0.0020 -0.6672
 1833TIP3    H1 5421   1.819   0.275   0.729 -0.5440  0.0244 -0.4733
 1833TIP3    H2 5422   1.836   0.422   0.695 -0.8912  0.0115 -0.7076
 1834TIP3   OH2 5423   3.682   1.438   3.418  0.3793  0.6105 -0.2981
 1834TIP3    H1 5424   3.631   1.386   3.356 -0.2778 -0.9723  1.4900
 1834TIP3    H2 5425   3.622   1.507   3.447 -0.4692 -0.6199  1.0036
 1835TIP3   OH2 5426   6.508   3.797   0.496  0.3746  0.2039 -0.5307
 1835TIP3    H1 5427   6.597   3.762   0.503  1.9291  3.4754 -1.5177
 1835TIP3    H2 5428   6.480   3.809   0.587  0.0890 -2.5290 -0.1758
 1836TIP3   OH2 5429   0.718   5.360   3.677 -0.2259 -0.0336 -0.2587
 1836TIP3    H1 5430   0.627   5.333   3.690 -0.0339 -0.5900 -0.0702
 1836TIP3    H2 5431   0.768   5.308   3.740  0.0278  1.5797  0.9499
 1837TIP3   OH2 5432   3.495   0.304   4.129 -0.3924  0.2325 -0.2069
 1837TIP3    H1 5433   3.491   0.215   4.165 -0.6038 -0.2391 -1.3382
 1837TIP3    H2 5434   3.533   0.357   4.199 -0.1442 -0.7772  0.4414
 1838TIP3   OH2 5435   4.856   2.413   4.814  0.3842 -0.4232 -0.4041
 1838TIP3    H1 5436   4.781   2.391   4.870 -0.1910  0.5382 -0.7683
 1838TIP3    H2 5437   4.850   2.351   4.741  0.8477 -1.3531  0.3136
 1839TIP3   OH2 5438   6.035   0.569   6.444  0.1722 -0.6481  0.2745
 1839TIP3    H1 5439   6.067   0.539   6.529  0.0213  0.1585  0.6284
 1839TIP3    H2 5440   6.100   0.538   6.381  0.7761 -0.4616  0.7967
 1840TIP3   OH2 5441   8.105   2.519   3.300 -0.1326  0.2473 -0.4314
 1840TIP3    H1 5442   8.046   2.587   3.332 -0.5806 -1.0587  1.7163
 1840TIP3    H2 5443   8.190   2.564   3.290 -0.8648  1.5486 -1.0255
 1841TIP3   OH2 5444   0.686   8.054   4.833 -0.2749 -0.0316  0.0181
 1841TIP3    H1 5445   0.758   8.072   4.774  0.2034 -1.5143  0.1169
 1841TIP3    H2 5446   0.610   8.098   4.793  0.1552 -0.5255 -1.3813
 1842TIP3   OH2 5447   5.042   4.446   2.746 -0.1563 -0.1901 -0.3778
 1842TIP3    H1 5448   5.021   4.430   2.838 -0.7518  0.3206 -0.4211
 1842TIP3    H2 5449   5.110   4.381   2.726  0.2770 -0.0418  0.5302
 1843TIP3   OH2 5450   5.208   3.411   5.863  0.1463  0.4155 -0.0651
 1843TIP3    H1 5451   5.267   3.390   5.936  0.1566 -1.4961 -0.5815
 1843TIP3    H2 5452   5.263   3.405   5.785 -0.3771  0.1918 -0.4178
 1844TIP3   OH2 5453   0.831   2.786   0.338 -0.6386 -0.4672  0.2574
 1844TIP3    H1 5454   0.826   2.705   0.288  1.5209  0.0595 -0.9304
 1844TIP3    H2 5455   0.897   2.769   0.406 -0.4125  0.1792  0.2080
 1845TIP3   OH2 5456   0.235   2.253   3.879 -0.3615  0.6203  0.7256
 1845TIP3    H1 5457   0.276   2.313   3.817 -0.1331 -0.5663 -0.3391
 1845TIP3    H2 5458   0.149   2.290   3.895 -0.4318  0.9575 -0.3371
 1846TIP3   OH2 5459   7.972   3.535   6.982 -0.2177 -0.1568 -0.3737
 1846TIP3    H1 5460   8.004   3.624   6.968  0.0730  0.1850  2.0374
 1846TIP3    H2 5461   7.911   3.520   6.910 -1.4259  2.5845 -0.0458
 1847TIP3   OH2 5462   0.130   0.459   3.746  0.0054 -0.3215 -0.1783
 1847TIP3    H1 5463   0.188   0.413   3.685 -0.2651  0.9625 -1.4678
 1847TIP3    H2 5464   0.098   0.534   3.696 -1.4931 -0.1034  1.0508
 1848TIP3   OH2 5465   4.829   1.187   1.897  0.1948  0.3480 -0.5309
 1848TIP3    H1 5466   4.794   1.098   1.896 -2.3057  1.1033  2.9053
 1848TIP3    H2 5467   4.771   1.236   1.839  0.9844  0.0019 -1.6565
 1849TIP3   OH2 5468   4.925   6.375   1.335 -0.3715  0.6684  0.8126
 1849TIP3    H1 5469   5.006   6.353   1.381 -1.0804  0.4080  1.9920
 1849TIP3    H2 5470   4.945   6.455   1.287  0.8387  0.1158  0.3530
 1850TIP3   OH2 5471   6.495   5.044   3.503 -0.8344 -0.4708  0.1599
 1850TIP3    H1 5472   6.482   5.139   3.514  0.6606 -0.2202 -0.0679
 1850TIP3    H2 5473   6.494   5.031   3.409  1.0688 -0.3376  0.0967
 1851TIP3   OH2 5474   1.123   7.017   2.318  0.4895  0.4271 -0.5703
 1851TIP3    H1 5475   1.079   7.081   2.374 -1.4620  0.2632 -1.8413
 1851TIP3    H2 5476   1.205   7.060   2.292 -0.5100  2.2011 -0.9328
 1852TIP3   OH2 5477   3.159   1.852   5.117  0.4157 -0.0679  0.2332
 1852TIP3    H1 5478   3.152   1.901   5.199 -1.3318 -2.0631  1.3880
 1852TIP3    H2 5479   3.089   1.887   5.062 -0.8266 -1.1779  1.0532
 1853TIP3   OH2 5480   7.045   0.710   6.829  0.4524 -0.3669  0.4420
 1853TIP3    H1 5481   7.094   0.746   6.903 -0.7488  1.3471  0.4500
 1853TIP3    H2 5482   7.074   0.762   6.754 -1.2423  0.6288  0.4386
 1854TIP3   OH2 5483   1.726   4.428   0.329 -0.1330  0.0089  0.0107
 1854TIP3    H1 5484   1.713   4.522   0.342 -0.2013  0.0984 -0.6441
 1854TIP3    H2 5485   1.650   4.388   0.371  0.6500  0.1410  1.6086
 1855TIP3   OH2 5486   3.173   5.712   5.557 -0.0318 -0.3621  0.5571
 1855TIP3    H1 5487   3.177   5.804   5.532  1.1844 -0.5909 -0.1886
 1855TIP3    H2 5488   3.255   5.675   5.524 -0.3036 -1.6165  1.2278
 1856TIP3   OH2 5489   7.363   5.090   5.221  0.1519  0.1301 -0.1096
 1856TIP3    H1 5490   7.369   5.134   5.306  1.2275  0.1706 -0.1937
 1856TIP3    H2 5491   7.275   5.110   5.190 -1.9894 -3.3128  2.8601
 1857TIP3   OH2 5492   0.584   2.170   5.353  0.2471 -0.2544  0.7682
 1857TIP3    H1 5493   0.548   2.257   5.371  0.3780 -0.0239 -0.0811
 1857TIP3    H2 5494   0.639   2.181   5.276  0.8266 -0.9496  1.0656
 1858TIP3   OH2 5495   7.549   2.713   0.002 -0.0664 -0.0264  0.4055
 1858TIP3    H1 5496   7.490   2.761   0.060 -0.6685 -0.6480  0.3175
 1858TIP3    H2 5497   7.540   2.622   0.029 -0.9438 -0.4347 -1.1566
 1859TIP3   OH2 5498   3.365   5.027   3.375 -0.7638  0.2342  0.0807
 1859TIP3    H1 5499   3.418   5.029   3.296 -0.0652  1.3718  0.5642
 1859TIP3    H2 5500   3.416   4.976   3.437 -0.6640  0.5266  0.2414
 1860TIP3   OH2 5501   0.300   3.260   4.447 -0.5522  0.3696 -0.4205
 1860TIP3    H1 5502   0.274   3.347   4.417  0.0031  0.9916  0.8354
 1860TIP3    H2 5503   0.299   3.266   4.543 -0.0791 -0.8748 -0.3154
 1861TIP3   OH2 5504   3.358   0.553   4.422 -0.3807  0.5787 -0.5349
 1861TIP3    H1 5505   3.405   0.584   4.344  0.6006 -0.6444 -0.4490
 1861TIP3    H2 5506   3.266   0.549   4.395 -0.2683  1.6650 -1.1341
 1862TIP3   OH2 5507   5.280   3.438   5.554 -0.0797 -0.0275 -0.2520
 1862TIP3    H1 5508   5.315   3.440   5.465 -0.9359 -0.2022 -0.6024
 1862TIP3    H2 5509   5.316   3.357   5.592  0.5535  0.2180 -0.3222
 1863TIP3   OH2 5510   3.953   0.493   5.678 -0.3077  0.0469  0.2886
 1863TIP3    H1 5511   3.889   0.555   5.714 -0.4079  0.0129  0.1704
 1863TIP3    H2 5512   3.901   0.416   5.655 -0.3321  0.2746 -0.4341
 1864TIP3   OH2 5513   5.300   1.050   1.796 -0.2529  0.7772 -0.1851
 1864TIP3    H1 5514   5.269   1.126   1.845  1.4710 -0.2003  2.6397
 1864TIP3    H2 5515   5.261   0.975   1.840  1.9285 -0.1918  0.2127
 1865TIP3   OH2 5516   6.296   2.893   3.290 -0.1799  0.5057 -0.2655
 1865TIP3    H1 5517   6.364   2.839   3.330 -1.4869 -1.3275 -0.4036
 1865TIP3    H2 5518   6.275   2.849   3.208 -1.6060  0.9399 -0.1591
 1866TIP3   OH2 5519   5.017   5.418   6.375  0.5970  0.0888 -0.5692
 1866TIP3    H1 5520   4.983   5.409   6.464  2.3370  1.4733  0.2984
 1866TIP3    H2 5521   4.942   5.450   6.324  0.7651  4.8748  1.6499
 1867TIP3   OH2 5522   5.102   7.981   0.515 -0.5131 -0.6549  0.3092
 1867TIP3    H1 5523   5.102   7.901   0.567  2.0092 -0.6392  0.4482
 1867TIP3    H2 5524   5.181   8.028   0.543 -0.8916  0.9531 -1.1526
 1868TIP3   OH2 5525   0.970   3.850   3.380 -0.1922  0.0349 -0.2859
 1868TIP3    H1 5526   0.927   3.917   3.327  0.2656  0.1926 -0.4671
 1868TIP3    H2 5527   0.980   3.891   3.466  0.6976  0.4708 -0.5778
 1869TIP3   OH2 5528   8.545   8.151   5.373 -0.1008 -0.5640  0.1648
 1869TIP3    H1 5529   8.622   8.152   5.429 -0.3699  2.9649  0.6626
 1869TIP3    H2 5530   8.472   8.140   5.434 -0.1607 -1.5822 -0.0690
 1870TIP3   OH2 5531   5.043   5.416   5.578  0.1764  0.2765  0.6468
 1870TIP3    H1 5532   5.005   5.371   5.654  0.5311  1.2277  1.4157
 1870TIP3    H2 5533   5.001   5.375   5.502  0.4295 -1.2861  1.3065
 1871TIP3   OH2 5534   8.663   3.575   1.195  0.0855 -0.1924  0.4174
 1871TIP3    H1 5535   8.647   3.658   1.240  1.1303 -0.5505  1.4958
 1871TIP3    H2 5536   8.753   3.552   1.218  0.6380 -0.4425 -1.8187
 1872TIP3   OH2 5537   2.932   3.004   0.607  0.6577 -0.4706  1.0826
 1872TIP3    H1 5538   2.984   3.057   0.667  1.2996 -1.2940  1.2717
 1872TIP3    H2 5539   2.996   2.955   0.556  0.0855 -0.8379  0.7080
 1873TIP3   OH2 5540   2.471   4.431   6.331 -0.2232 -0.0792  0.4872
 1873TIP3    H1 5541   2.542   4.493   6.311 -1.9667  1.7096 -0.5681
 1873TIP3    H2 5542   2.515   4.358   6.375  2.1772  1.1804  0.3845
 1874TIP3   OH2 5543   8.292   5.638   2.466  0.3080 -0.2808  0.4662
 1874TIP3    H1 5544   8.372   5.627   2.518  1.0865 -2.0683 -1.0279
 1874TIP3    H2 5545   8.285   5.558   2.414 -0.0140  1.6446 -2.7377
 1875TIP3   OH2 5546   5.871   5.445   4.153 -0.0604  0.4183  0.2753
 1875TIP3    H1 5547   5.858   5.537   4.132  0.2203  0.2162 -0.8281
 1875TIP3    H2 5548   5.958   5.425   4.119  0.0555 -0.1497  0.8906
 1876TIP3   OH2 5549   6.237   4.008   0.611  0.9520  0.0090  0.2820
 1876TIP3    H1 5550   6.224   3.936   0.673  0.8392 -0.4481 -0.2682
 1876TIP3    H2 5551   6.317   4.051   0.642  0.4703  0.2861  1.2124
 1877TIP3   OH2 5552   1.657   6.087   6.133 -0.3419  0.0813 -0.3828
 1877TIP3    H1 5553   1.708   6.013   6.168 -0.5481 -0.1864 -0.6419
 1877TIP3    H2 5554   1.716   6.128   6.070 -0.5857 -0.4952 -1.0117
 1878TIP3   OH2 5555   2.907   2.212   4.784  0.1761 -0.0528 -0.1554
 1878TIP3    H1 5556   2.834   2.155   4.808 -0.9655  1.1283 -0.7089
 1878TIP3    H2 5557   2.890   2.236   4.693  1.3155  0.1754 -0.3241
 1879TIP3   OH2 5558   4.373   3.335   6.222 -0.7283 -0.6196  0.0771
 1879TIP3    H1 5559   4.321   3.387   6.282 -2.0070 -2.3017  0.5292
 1879TIP3    H2 5560   4.422   3.274   6.277 -1.7318 -2.0235 -0.5085
 1880TIP3   OH2 5561   5.187   6.428   1.892 -0.0707  0.5134  0.1887
 1880TIP3    H1 5562   5.213   6.385   1.810 -0.6675 -1.2605  0.8674
 1880TIP3    H2 5563   5.092   6.436   1.885 -0.3526 -1.2688  1.3845
 1881TIP3   OH2 5564   2.797   5.870   4.536  0.5195  0.8302  0.2269
 1881TIP3    H1 5565   2.742   5.894   4.461  0.3042 -1.9538 -0.6215
 1881TIP3    H2 5566   2.745   5.804   4.583  1.7010  0.7116  1.4008
 1882TIP3   OH2 5567   2.840   4.122   6.522  0.1262 -0.4742  0.2612
 1882TIP3    H1 5568   2.917   4.088   6.477  1.4321 -0.4712  2.3912
 1882TIP3    H2 5569   2.838   4.075   6.606 -3.5408 -2.2011 -0.5717
 1883TIP3   OH2 5570   2.267   7.504   1.654 -0.4198 -0.2509  0.0768
 1883TIP3    H1 5571   2.225   7.429   1.696  1.5720 -0.6586  1.4776
 1883TIP3    H2 5572   2.292   7.561   1.727 -1.8914  1.8425 -0.9445
 1884TIP3   OH2 5573   4.292   4.951   1.015 -0.2245  0.4043  0.0475
 1884TIP3    H1 5574   4.232   4.979   0.946 -1.1041  0.2364  0.7239
 1884TIP3    H2 5575   4.276   5.012   1.087 -0.4343 -0.3574  0.6595
 1885TIP3   OH2 5576   6.408   0.812   3.507  0.4598  0.1170 -0.1454
 1885TIP3    H1 5577   6.475   0.859   3.457 -1.1042  1.2535 -1.2754
 1885TIP3    H2 5578   6.435   0.720   3.502  2.5072  0.6471  0.3952
 1886TIP3   OH2 5579   2.538   5.129   5.232 -0.2054 -0.2525  0.2759
 1886TIP3    H1 5580   2.454   5.089   5.254 -0.1687 -0.4072  0.1348
 1886TIP3    H2 5581   2.525   5.222   5.246  0.1244 -0.4261  2.0067
 1887TIP3   OH2 5582   7.668   4.714   5.585  0.2129 -0.2920  0.0285
 1887TIP3    H1 5583   7.678   4.739   5.676 -0.9410 -0.2442  0.1553
 1887TIP3    H2 5584   7.662   4.797   5.537 -2.3344 -0.2395  0.3031
 1888TIP3   OH2 5585   3.220   1.694   6.004 -0.3949  0.3332 -0.6581
 1888TIP3    H1 5586   3.238   1.715   5.913  0.5887  1.2885 -0.2596
 1888TIP3    H2 5587   3.129   1.722   6.018 -0.6502 -0.0929 -1.4052
 1889TIP3   OH2 5588   2.107   1.666   5.030  0.0737  0.0536  0.8146
 1889TIP3    H1 5589   2.108   1.729   5.103 -0.0509  1.8776 -0.6971
 1889TIP3    H2 5590   2.189   1.618   5.040  1.0147  1.6124  1.0868
 1890TIP3   OH2 5591   3.745   3.945   5.748 -0.6168  0.2945 -0.1230
 1890TIP3    H1 5592   3.831   3.987   5.749 -1.1867  1.5425 -0.8405
 1890TIP3    H2 5593   3.756   3.865   5.800  0.1818  1.9845  2.4916
 1891TIP3   OH2 5594   1.095   7.403   1.089  0.0192 -0.2904 -0.1465
 1891TIP3    H1 5595   1.184   7.366   1.091  0.1740  0.0945  1.1061
 1891TIP3    H2 5596   1.038   7.327   1.100  0.1724 -0.5632 -1.1470
 1892TIP3   OH2 5597   0.380   2.583   1.023  0.0056  0.6623  0.1236
 1892TIP3    H1 5598   0.341   2.566   1.109 -0.3861 -1.1655 -0.3740
 1892TIP3    H2 5599   0.321   2.647   0.983 -0.7948  0.2143  0.5511
 1893TIP3   OH2 5600   1.190   2.712   2.677  0.3545  0.4625 -0.3989
 1893TIP3    H1 5601   1.165   2.804   2.674 -0.1135  0.3157 -1.0741
 1893TIP3    H2 5602   1.195   2.691   2.771 -0.6785  0.8666 -0.2494
 1894TIP3   OH2 5603   0.164   8.079   4.763 -0.0027  0.3015 -0.3624
 1894TIP3    H1 5604   0.199   7.990   4.764  1.3599  0.8126 -0.3133
 1894TIP3    H2 5605   0.238   8.134   4.789 -1.3640  1.2963  1.6375
 1895TIP3   OH2 5606   3.757   1.033   5.827 -0.2723  0.3013 -0.2011
 1895TIP3    H1 5607   3.798   1.111   5.790 -1.0619  0.8076 -0.0438
 1895TIP3    H2 5608   3.762   0.968   5.757  1.4461  0.0999  0.0691
 1896TIP3   OH2 5609   1.449   1.053   1.515 -0.2669  0.3610 -0.1002
 1896TIP3    H1 5610   1.498   0.997   1.454 -1.6201 -2.6742  1.3810
 1896TIP3    H2 5611   1.507   1.128   1.530  1.4734 -0.3543 -2.5917
 1897TIP3   OH2 5612   5.403   5.444   1.881  0.1640  0.6037 -0.4296
 1897TIP3    H1 5613   5.430   5.522   1.930  0.1498  1.4366 -1.6802
 1897TIP3    H2 5614   5.351   5.479   1.808  1.8213 -0.3966 -2.1821
 1898TIP3   OH2 5615   5.687   4.573   0.186 -0.0644  0.2089 -0.2182
 1898TIP3    H1 5616   5.647   4.562   0.272 -1.5957  0.6731 -0.8470
 1898TIP3    H2 5617   5.710   4.484   0.158 -1.4092 -0.1609 -0.1790
 1899TIP3   OH2 5618   0.085   0.342   6.029  0.4459 -0.1322  0.0007
 1899TIP3    H1 5619   0.022   0.407   5.998 -0.3254 -0.7491  0.2238
 1899TIP3    H2 5620   0.121   0.379   6.109 -0.9476 -0.5054  0.8471
 1900TIP3   OH2 5621   4.572   1.818   4.830 -0.1010  0.3280 -0.4361
 1900TIP3    H1 5622   4.579   1.782   4.742 -0.7250  0.5369 -0.5789
 1900TIP3    H2 5623   4.538   1.746   4.883 -2.4322  0.9806 -0.9490
 1901TIP3   OH2 5624   4.362   7.463   5.911 -0.9425  0.4791 -0.2696
 1901TIP3    H1 5625   4.433   7.414   5.870 -1.7163  0.6135 -1.8536
 1901TIP3    H2 5626   4.395   7.486   5.997  0.8260  0.3063 -0.8616
 1902TIP3   OH2 5627   5.931   5.796   6.118 -0.2193  0.2818  0.0498
 1902TIP3    H1 5628   5.946   5.703   6.131  0.5071  0.0107 -2.3106
 1902TIP3    H2 5629   5.928   5.832   6.207 -0.3880 -1.9392  1.0119
 1903TIP3   OH2 5630   5.104   4.943   1.625  0.5156 -0.7048  0.4620
 1903TIP3    H1 5631   5.066   5.018   1.671  0.4923 -0.7954  0.5910
 1903TIP3    H2 5632   5.196   4.942   1.650  1.4463  1.4548 -2.3477
 1904TIP3   OH2 5633   3.959   3.861   1.459  0.3558  0.0825  0.2980
 1904TIP3    H1 5634   4.038   3.810   1.437  0.6659  0.5072  0.4178
 1904TIP3    H2 5635   3.935   3.905   1.378  1.3683  1.4702  0.7254
 1905TIP3   OH2 5636   1.714   6.690   0.936  0.0414  0.2320  0.9850
 1905TIP3    H1 5637   1.734   6.669   1.027 -0.5254 -0.3778  0.9834
 1905TIP3    H2 5638   1.669   6.611   0.903  0.0350  0.5332  0.2511
 1906TIP3   OH2 5639   4.039   8.055   6.204  0.1458 -0.7578  0.7982
 1906TIP3    H1 5640   4.045   8.113   6.281 -0.5368 -0.5363  0.6912
 1906TIP3    H2 5641   4.062   8.111   6.130  0.3320 -0.8481  0.7870
 1907TIP3   OH2 5642   6.098   2.917   6.013  0.0427 -0.1022  0.4127
 1907TIP3    H1 5643   6.043   2.969   6.071 -0.2049 -0.5233  0.5653
 1907TIP3    H2 5644   6.132   2.979   5.949 -1.3213  0.0324 -0.2227
 1908TIP3   OH2 5645   8.306   3.145   2.973 -0.3840 -0.0201 -0.0206
 1908TIP3    H1 5646   8.402   3.151   2.969 -0.2517  0.2663  2.2033
 1908TIP3    H2 5647   8.275   3.204   2.905  1.0248  0.1343 -0.5609
 1909TIP3   OH2 5648   2.067   5.578   6.785 -0.0602  0.3624 -0.0804
 1909TIP3    H1 5649   2.005   5.507   6.799 -0.4153  0.2527 -1.9698
 1909TIP3    H2 5650   2.022   5.638   6.725  1.3842  0.6003 -0.9769
 1910TIP3   OH2 5651   0.749   2.545   5.979 -0.4988  0.0047  0.0030
 1910TIP3    H1 5652   0.694   2.624   5.985  0.6493  0.8376 -0.1318
 1910TIP3    H2 5653   0.838   2.577   5.994  0.0095 -1.2463 -0.2627
 1911TIP3   OH2 5654   1.556   2.379   4.981  0.2035 -0.0776  0.0140
 1911TIP3    H1 5655   1.479   2.322   4.982  1.3694 -1.7726 -0.4172
 1911TIP3    H2 5656   1.534   2.451   5.039 -2.3632  0.4509 -1.4442
 1912TIP3   OH2 5657   3.605   0.697   5.190  0.2981  0.1424 -0.0778
 1912TIP3    H1 5658   3.634   0.606   5.183  1.0733  0.4087 -0.3564
 1912TIP3    H2 5659   3.511   0.693   5.175  0.5472 -0.4297 -1.6508
 1913TIP3   OH2 5660   3.994   0.879   5.022  0.2069 -0.0974  0.2823
 1913TIP3    H1 5661   3.926   0.853   4.960 -0.0031  1.5487 -0.2446
 1913TIP3    H2 5662   3.949   0.886   5.106  0.0306 -0.3162  0.2061
 1914TIP3   OH2 5663   8.219   0.419   6.588 -0.2486  0.0724 -0.3430
 1914TIP3    H1 5664   8.160   0.393   6.659  0.8687 -0.8269  0.2969
 1914TIP3    H2 5665   8.304   0.383   6.614 -0.2272 -2.3543 -3.1947
 1915TIP3   OH2 5666   2.953   6.526   2.509  0.5282 -0.2012  0.3401
 1915TIP3    H1 5667   2.956   6.611   2.464 -0.4020  0.9882  2.3907
 1915TIP3    H2 5668   3.003   6.468   2.452  0.3941  1.4713 -1.6198
 1916TIP3   OH2 5669   3.871   7.236   5.317 -0.4804 -0.4961 -0.1651
 1916TIP3    H1 5670   3.960   7.224   5.286  0.0882 -3.7305  2.1049
 1916TIP3    H2 5671   3.816   7.193   5.251  0.0633 -1.6444  0.0987
 1917TIP3   OH2 5672   6.681   6.943   3.719 -0.3598  0.5889  0.1827
 1917TIP3    H1 5673   6.674   6.924   3.812  1.0123  1.9893  0.6165
 1917TIP3    H2 5674   6.769   6.979   3.708 -1.3157  2.7812 -1.1728
 1918TIP3   OH2 5675   2.472   3.932   1.908  0.3360  0.5096 -0.0880
 1918TIP3    H1 5676   2.420   4.011   1.920  0.0942  0.4290 -0.6208
 1918TIP3    H2 5677   2.504   3.937   1.818  1.0038  0.4096  0.1338
 1919TIP3   OH2 5678   7.431   0.848   3.666  0.3207 -0.2714 -0.4791
 1919TIP3    H1 5679   7.396   0.829   3.579 -1.0466  0.1063 -0.0489
 1919TIP3    H2 5680   7.396   0.778   3.721 -0.2968  0.4444  0.0788
 1920TIP3   OH2 5681   4.981   3.242   0.662 -0.8962  0.6818 -0.5845
 1920TIP3    H1 5682   5.025   3.303   0.603  2.1835  1.4032  2.1450
 1920TIP3    H2 5683   5.018   3.156   0.639 -0.7691  0.7427 -0.6074
 1921TIP3   OH2 5684   1.174   1.857   0.447 -0.2765 -0.6429 -0.0609
 1921TIP3    H1 5685   1.239   1.863   0.516  0.1533  2.2325 -0.5837
 1921TIP3    H2 5686   1.095   1.895   0.485 -1.4035 -2.9794  0.1606
 1922TIP3   OH2 5687   3.849   6.903   6.518  0.2015 -0.2666  0.1685
 1922TIP3    H1 5688   3.874   6.863   6.435 -1.8169 -0.3764 -0.4467
 1922TIP3    H2 5689   3.799   6.835   6.563  0.3756  0.1562  1.0240
 1923TIP3   OH2 5690   5.943   0.474   4.261  0.2974 -0.0927 -0.3821
 1923TIP3    H1 5691   5.919   0.420   4.336 -1.3216  0.8349 -0.1829
 1923TIP3    H2 5692   5.982   0.413   4.199 -0.8421 -1.3707  0.1181
 1924TIP3   OH2 5693   3.222   3.438   7.008  0.1617  0.4288  0.5445
 1924TIP3    H1 5694   3.213   3.373   7.078  1.8232 -0.2697  0.1609
 1924TIP3    H2 5695   3.262   3.390   6.936  0.1456  1.5670 -0.2543
 1925TIP3   OH2 5696   1.333   3.155   2.380 -0.2910  0.7935 -0.1188
 1925TIP3    H1 5697   1.346   3.100   2.303  0.8231  0.3221  0.3881
 1925TIP3    H2 5698   1.329   3.093   2.453  2.3187  1.4121  0.6262
 1926TIP3   OH2 5699   4.286   6.190   6.111  0.1946  0.0622  0.3900
 1926TIP3    H1 5700   4.359   6.153   6.061 -0.3830 -0.5691 -0.0021
 1926TIP3    H2 5701   4.297   6.156   6.199 -0.2917 -1.0216  0.0496
 1927TIP3   OH2 5702   3.588   6.305   6.382  0.2783 -0.0072 -0.1832
 1927TIP3    H1 5703   3.641   6.238   6.426 -1.3918 -1.7544 -0.6521
 1927TIP3    H2 5704   3.622   6.306   6.292  0.2989 -0.2487 -0.1791
 1928TIP3   OH2 5705   4.567   1.076   4.147  0.1156  0.3061  0.1541
 1928TIP3    H1 5706   4.630   1.005   4.154  1.1062  0.9549 -1.5189
 1928TIP3    H2 5707   4.585   1.116   4.062 -0.8692  2.1223  0.7385
 1929TIP3   OH2 5708   5.749   3.770   3.747  0.0935 -0.3420 -0.1376
 1929TIP3    H1 5709   5.721   3.693   3.698 -0.6668 -0.3599  0.3127
 1929TIP3    H2 5710   5.686   3.838   3.724  0.0144 -0.2158  0.4431
 1930TIP3   OH2 5711   5.024   6.287   0.876 -0.0169 -0.2391  0.1538
 1930TIP3    H1 5712   5.072   6.303   0.958 -1.0407  2.4688  0.3349
 1930TIP3    H2 5713   5.076   6.331   0.809 -0.8674  0.4859 -0.0584
 1931TIP3   OH2 5714   4.547   0.998   3.724 -0.4051  0.2096  0.2291
 1931TIP3    H1 5715   4.458   0.976   3.753  0.1814 -1.0678  1.1595
 1931TIP3    H2 5716   4.581   0.916   3.688  0.7445  0.4331  0.7923
 1932TIP3   OH2 5717   0.750   3.716   0.270  0.1108  0.0944  0.0735
 1932TIP3    H1 5718   0.769   3.712   0.176 -0.4404 -2.1528  0.0035
 1932TIP3    H2 5719   0.743   3.810   0.289  1.1855  0.6420 -1.9123
 1933TIP3   OH2 5720   1.465   0.596   6.055  0.1162  0.0282  0.2558
 1933TIP3    H1 5721   1.544   0.630   6.014  0.0761  0.1514  0.2799
 1933TIP3    H2 5722   1.494   0.521   6.107  0.0698 -0.5426 -0.5312
 1934TIP3   OH2 5723   8.085   7.947   3.171 -0.5728 -0.2458  0.3927
 1934TIP3    H1 5724   8.117   8.024   3.217 -2.7219 -0.3958  2.3436
 1934TIP3    H2 5725   8.164   7.902   3.141  0.8839  0.8709  2.3357
 1935TIP3   OH2 5726   0.291   3.222   1.834 -0.3085 -0.3398  0.1902
 1935TIP3    H1 5727   0.276   3.194   1.924 -0.3197  0.0959  0.3224
 1935TIP3    H2 5728   0.240   3.302   1.824 -0.7555 -0.6861 -0.3764
 1936TIP3   OH2 5729   0.096   0.428   4.492  0.3615 -0.8113  0.2070
 1936TIP3    H1 5730   0.020   0.380   4.526  0.9788 -0.2483  2.5503
 1936TIP3    H2 5731   0.161   0.360   4.472 -0.4570 -1.2404 -1.1518
 1937TIP3   OH2 5732   2.337   0.882   6.556 -0.4844  0.0692  0.5813
 1937TIP3    H1 5733   2.301   0.829   6.485  1.9995 -1.4172  0.3185
 1937TIP3    H2 5734   2.288   0.964   6.551 -1.4645 -0.5593 -1.8482
 1938TIP3   OH2 5735   7.756   8.058   6.209  0.8328 -0.2152  0.3898
 1938TIP3    H1 5736   7.813   8.117   6.258 -0.4634  0.9918  0.5104
 1938TIP3    H2 5737   7.675   8.055   6.260 -0.4521  0.8573 -1.4734
 1939TIP3   OH2 5738   0.130   3.976   3.666 -0.0641 -0.1745 -0.6216
 1939TIP3    H1 5739   0.077   3.912   3.714 -1.1335  1.4098  0.4360
 1939TIP3    H2 5740   0.163   4.035   3.734 -0.1935  1.1334 -1.6487
 1940TIP3   OH2 5741   5.887   4.954   5.420  0.3473 -0.3334  0.4924
 1940TIP3    H1 5742   5.869   4.864   5.447 -0.4768 -0.5685 -0.7900
 1940TIP3    H2 5743   5.900   4.949   5.326 -1.0470  1.0687  0.1856
 1941TIP3   OH2 5744   1.043   3.973   1.183  0.7030  0.3060 -0.6070
 1941TIP3    H1 5745   1.021   4.030   1.257 -1.0535  0.8528 -1.4859
 1941TIP3    H2 5746   0.988   3.896   1.195  2.2907 -0.7762 -0.0037
 1942TIP3   OH2 5747   3.704   4.022   2.276 -0.7418  0.0950  0.1348
 1942TIP3    H1 5748   3.624   3.981   2.309 -0.0818 -1.3286  0.0407
 1942TIP3    H2 5749   3.774   3.982   2.327 -0.1479  2.1995  1.0611
 1943TIP3   OH2 5750   1.522   3.083   5.462  0.1466 -0.3137 -0.0559
 1943TIP3    H1 5751   1.476   3.125   5.389 -0.8608  1.1136  1.3337
 1943TIP3    H2 5752   1.604   3.051   5.424 -0.6973 -0.3153 -1.9677
 1944TIP3   OH2 5753   4.212   3.486   2.413 -1.2885 -0.2036  0.3049
 1944TIP3    H1 5754   4.230   3.393   2.429 -2.2975 -0.4767 -0.0486
 1944TIP3    H2 5755   4.140   3.486   2.349 -1.0340  0.8267 -0.0105
 1945TIP3   OH2 5756   3.142   2.059   5.294  0.0805  0.1757  0.3579
 1945TIP3    H1 5757   3.052   2.046   5.264  0.4171 -0.5185 -0.3811
 1945TIP3    H2 5758   3.159   2.152   5.281 -0.2316  0.1334 -0.3436
 1946TIP3   OH2 5759   1.795   0.331   3.259  0.3454 -0.0041  0.0253
 1946TIP3    H1 5760   1.735   0.368   3.323  1.6943  2.5664 -0.0782
 1946TIP3    H2 5761   1.739   0.298   3.190 -1.0041  0.5975  0.7944
 1947TIP3   OH2 5762   3.285   2.170   6.516  0.1909  0.2867  0.4541
 1947TIP3    H1 5763   3.312   2.256   6.481 -1.0965 -0.2497 -2.1111
 1947TIP3    H2 5764   3.275   2.115   6.438 -0.2704 -1.8489  1.9479
 1948TIP3   OH2 5765   4.045   1.921   5.749  0.0358 -0.2833  0.5146
 1948TIP3    H1 5766   4.002   1.891   5.829 -0.1674 -1.1872  0.0822
 1948TIP3    H2 5767   4.077   1.841   5.708  1.2508  0.2767  0.3169
 1949TIP3   OH2 5768   2.440   0.837   0.538  0.1121 -0.1488  0.2060
 1949TIP3    H1 5769   2.414   0.824   0.629 -0.4185 -0.5713  0.0021
 1949TIP3    H2 5770   2.412   0.926   0.517  1.1395  0.3249  0.7450
 1950TIP3   OH2 5771   0.454   1.786   3.840  0.3937  0.1742  0.0609
 1950TIP3    H1 5772   0.488   1.710   3.792 -0.0219 -0.9695  1.4961
 1950TIP3    H2 5773   0.359   1.783   3.827 -0.0278 -1.5019  2.6463
 1951TIP3   OH2 5774   0.970   8.143   4.211  0.1792 -0.0369 -0.2081
 1951TIP3    H1 5775   0.911   8.079   4.252 -1.0510  2.1027  1.5663
 1951TIP3    H2 5776   0.914   8.218   4.191  1.9919  1.4338  0.0039
 1952TIP3   OH2 5777   6.152   3.324   4.450  1.0059  0.4303  0.1322
 1952TIP3    H1 5778   6.114   3.239   4.474  3.0326 -0.9355 -1.1853
 1952TIP3    H2 5779   6.237   3.302   4.412  2.9160  3.2581  2.4061
 1953TIP3   OH2 5780   2.970   1.753   0.036  0.4263  0.0927  0.0624
 1953TIP3    H1 5781   2.929   1.699   0.103 -0.0724  0.5035  0.0932
 1953TIP3    H2 5782   3.010   1.825   0.084  1.0802 -0.2267  0.0189
 1954TIP3   OH2 5783   6.669   5.875   3.671 -0.4237  0.0105 -0.6873
 1954TIP3    H1 5784   6.588   5.851   3.626 -1.3294  0.5635  0.5675
 1954TIP3    H2 5785   6.707   5.944   3.617 -1.2366  0.3215 -0.8886
 1955TIP3   OH2 5786   8.230   3.568   5.393 -0.3331 -0.2921  0.0432
 1955TIP3    H1 5787   8.206   3.660   5.403  1.4664  0.3875 -1.3065
 1955TIP3    H2 5788   8.178   3.522   5.459 -1.3974  1.6506  0.6350
 1956TIP3   OH2 5789   0.952   6.179   4.402  0.3929  0.5710 -0.1541
 1956TIP3    H1 5790   1.004   6.259   4.396  2.5523 -0.8420 -1.3213
 1956TIP3    H2 5791   1.016   6.108   4.404 -1.4545 -1.1857  0.6834
 1957TIP3   OH2 5792   6.528   2.489   0.925 -0.7870 -0.3692  0.0280
 1957TIP3    H1 5793   6.495   2.570   0.887 -1.3871 -0.7551 -0.2848
 1957TIP3    H2 5794   6.547   2.512   1.017  0.5843  0.5351 -0.4467
 1958TIP3   OH2 5795   6.185   1.440   0.832  0.0653 -0.4772 -0.1291
 1958TIP3    H1 5796   6.167   1.382   0.906  1.6451  0.2606  0.9043
 1958TIP3    H2 5797   6.121   1.510   0.841  0.3263 -0.3199  0.6684
 1959TIP3   OH2 5798   1.053   1.903   1.097  0.0528  0.3674  0.1450
 1959TIP3    H1 5799   1.080   1.905   1.188 -2.2847 -0.3881  0.9348
 1959TIP3    H2 5800   1.000   1.823   1.090 -1.1581  1.2510 -1.4491
 1960TIP3   OH2 5801   0.083   3.135   0.556  0.1580 -0.2162  0.4262
 1960TIP3    H1 5802   0.115   3.137   0.646  1.5917  1.8992 -0.0501
 1960TIP3    H2 5803  -0.000   3.182   0.559  0.2420 -0.0798  0.6434
 1961TIP3   OH2 5804   5.573   2.104   6.800  0.2666 -0.1533 -0.4808
 1961TIP3    H1 5805   5.586   2.133   6.890  1.2147 -0.3034 -0.5626
 1961TIP3    H2 5806   5.650   2.136   6.753 -0.1912 -0.1212 -1.2355
 1962TIP3   OH2 5807   3.101   4.632   6.433 -0.1199  0.3391  0.4850
 1962TIP3    H1 5808   3.048   4.556   6.456 -3.5439  2.3618 -0.1645
 1962TIP3    H2 5809   3.122   4.673   6.517 -0.3581  0.0310  0.6968
 1963TIP3   OH2 5810   8.323   2.939   2.709 -0.0448 -0.3811  0.0779
 1963TIP3    H1 5811   8.364   2.923   2.794  0.7409  2.1028  0.2566
 1963TIP3    H2 5812   8.237   2.976   2.730 -0.2485 -0.6833 -0.2184
 1964TIP3   OH2 5813   0.456   5.518   4.212  0.1730 -0.6309  0.0672
 1964TIP3    H1 5814   0.368   5.553   4.199  0.6409  0.5257 -0.0933
 1964TIP3    H2 5815   0.443   5.424   4.223 -0.9512 -0.6831 -1.4039
 1965TIP3   OH2 5816   8.119   4.981   1.653 -0.1456  0.1127  0.0093
 1965TIP3    H1 5817   8.161   4.979   1.567  0.1868 -4.1778  0.0776
 1965TIP3    H2 5818   8.027   5.003   1.634 -0.0806 -0.7457 -1.4549
 1966TIP3   OH2 5819   4.121   3.461   1.005 -0.6885  0.6593 -0.1499
 1966TIP3    H1 5820   4.079   3.545   0.989 -2.4078 -0.0969  0.1192
 1966TIP3    H2 5821   4.048   3.398   1.007  0.2644 -0.4741  2.1616
 1967TIP3   OH2 5822   1.311   7.713   0.924  0.3179 -0.2874 -0.5967
 1967TIP3    H1 5823   1.303   7.779   0.856 -0.8825  0.2377  0.0349
 1967TIP3    H2 5824   1.302   7.630   0.878 -1.3338  0.0800 -0.9833
 1968TIP3   OH2 5825   0.286   1.776   2.327  0.5355  0.2797 -0.2297
 1968TIP3    H1 5826   0.259   1.853   2.277 -1.6757 -0.8089 -0.8301
 1968TIP3    H2 5827   0.243   1.786   2.412 -2.5882 -1.7500 -1.3867
 1969TIP3   OH2 5828   5.951   3.458   0.574 -0.1557  0.8264 -0.0256
 1969TIP3    H1 5829   5.876   3.472   0.632  1.5469  0.2662  2.4619
 1969TIP3    H2 5830   5.969   3.545   0.538 -0.9014  1.3082  0.7315
 1970TIP3   OH2 5831   2.698   2.348   0.906  0.2417 -0.3713  0.4018
 1970TIP3    H1 5832   2.724   2.440   0.894  1.5489 -0.7106  0.5510
 1970TIP3    H2 5833   2.714   2.307   0.821  0.7461 -0.7140  0.6594
 1971TIP3   OH2 5834   0.284   7.707   6.694 -0.4115  0.1667 -0.1888
 1971TIP3    H1 5835   0.335   7.656   6.757  1.7904  2.2472 -0.1183
 1971TIP3    H2 5836   0.299   7.663   6.610  0.3173 -0.1119  0.0771
 1972TIP3   OH2 5837   1.821   1.254   1.970  0.0559  0.3777  0.1713
 1972TIP3    H1 5838   1.839   1.229   1.880  0.9353  1.5370  0.0122
 1972TIP3    H2 5839   1.739   1.210   1.991  1.1891 -2.1265 -0.2866
 1973TIP3   OH2 5840   3.561   5.293   1.517  0.3456  0.0370  0.0622
 1973TIP3    H1 5841   3.594   5.323   1.433  1.3537 -0.2613  0.3373
 1973TIP3    H2 5842   3.552   5.373   1.569 -2.2924  0.4918 -0.9609
 1974TIP3   OH2 5843   3.327   2.174   4.162 -0.3414  0.4047 -0.1259
 1974TIP3    H1 5844   3.339   2.117   4.238 -0.5415  0.5191 -0.0059
 1974TIP3    H2 5845   3.274   2.247   4.196  0.6997  1.1420 -0.0422
 1975TIP3   OH2 5846   4.673   5.744   6.826 -0.4968 -0.6448 -0.1158
 1975TIP3    H1 5847   4.763   5.747   6.793 -1.0207  2.3025 -1.6023
 1975TIP3    H2 5848   4.682   5.741   6.921  1.2455  1.2556 -0.1564
 1976TIP3   OH2 5849   1.787   0.099   1.204  0.2587  0.6246 -0.3344
 1976TIP3    H1 5850   1.792   0.055   1.119  1.0349  1.5903 -0.8140
 1976TIP3    H2 5851   1.862   0.066   1.253 -0.6660 -0.5733  0.3153
 1977TIP3   OH2 5852   6.264   1.524   0.526  0.0606 -0.7365 -0.0482
 1977TIP3    H1 5853   6.267   1.599   0.586 -1.2255 -0.6447 -0.0677
 1977TIP3    H2 5854   6.205   1.552   0.456  0.5263 -1.3249 -0.6828
 1978TIP3   OH2 5855   0.879   0.618   3.888 -0.2649  0.0401  0.2695
 1978TIP3    H1 5856   0.901   0.655   3.802 -0.4934  0.8929  0.5594
 1978TIP3    H2 5857   0.880   0.694   3.947 -1.5661 -0.2832  0.7435
 1979TIP3   OH2 5858   8.198   0.753   0.516  0.0067 -0.2482 -0.7147
 1979TIP3    H1 5859   8.108   0.723   0.503 -0.0569  0.1414 -1.2114
 1979TIP3    H2 5860   8.251   0.673   0.514 -0.2120 -0.3805 -1.5282
 1980TIP3   OH2 5861   8.103   6.137   1.782 -0.6032  0.2828 -0.4675
 1980TIP3    H1 5862   8.022   6.086   1.775 -1.1709  0.9104  1.0356
 1980TIP3    H2 5863   8.164   6.079   1.828 -0.9908  0.6333  0.5241
 1981TIP3   OH2 5864   1.725   0.886   0.452 -0.1630 -0.3772  0.1296
 1981TIP3    H1 5865   1.735   0.855   0.362 -0.7977  0.8092 -0.3755
 1981TIP3    H2 5866   1.633   0.869   0.473 -0.3287  0.4276  0.1052
 1982TIP3   OH2 5867   3.474   1.479   5.796  0.6358  0.1572 -0.1980
 1982TIP3    H1 5868   3.464   1.485   5.701 -0.1505 -1.5737 -0.2720
 1982TIP3    H2 5869   3.385   1.464   5.828  0.5113  3.0801  1.0898
 1983TIP3   OH2 5870   2.626   1.462   6.305  0.0219  0.0210  0.4683
 1983TIP3    H1 5871   2.713   1.423   6.319 -0.3636 -1.7095 -1.4564
 1983TIP3    H2 5872   2.642   1.537   6.249  0.1869 -1.1987 -1.1910
 1984TIP3   OH2 5873   1.438   6.950   3.014  0.3684  0.4630  0.3889
 1984TIP3    H1 5874   1.392   7.034   3.013 -1.3169 -0.3975 -1.4394
 1984TIP3    H2 5875   1.493   6.952   2.936  0.0120 -0.2853  0.1174
 1985TIP3   OH2 5876   2.489   8.059   0.824  0.8045  0.1011  0.0225
 1985TIP3    H1 5877   2.489   8.142   0.776  0.3341  0.9739  1.4883
 1985TIP3    H2 5878   2.418   8.067   0.887  0.7783 -1.4107  0.2272
 1986TIP3   OH2 5879   4.906   3.025   1.506  0.2257  0.2879 -0.1254
 1986TIP3    H1 5880   4.931   2.947   1.458 -0.4514 -0.8700  1.3230
 1986TIP3    H2 5881   4.916   3.096   1.443  1.8424 -0.8023 -1.1918
 1987TIP3   OH2 5882   5.409   5.125   3.780 -0.0155 -0.3251  0.4576
 1987TIP3    H1 5883   5.320   5.145   3.811  0.2723 -0.3350  1.3143
 1987TIP3    H2 5884   5.397   5.052   3.719 -0.5803 -0.4278  0.6854
 1988TIP3   OH2 5885   6.195   4.435   5.027 -0.4104  0.1858 -0.2466
 1988TIP3    H1 5886   6.124   4.472   4.975  0.0353 -0.0686 -1.0389
 1988TIP3    H2 5887   6.151   4.380   5.092 -0.8705 -1.4642 -1.9074
 1989TIP3   OH2 5888   4.633   0.420   6.651 -0.4555  0.1088  0.7212
 1989TIP3    H1 5889   4.653   0.327   6.644  1.4824  0.5832 -0.9005
 1989TIP3    H2 5890   4.607   0.446   6.563 -2.0775  0.9103  1.3949
 1990TIP3   OH2 5891   2.306   4.141   1.823  0.0910 -0.2413  0.6049
 1990TIP3    H1 5892   2.238   4.167   1.885  1.2245  2.4654  0.8777
 1990TIP3    H2 5893   2.337   4.224   1.786 -0.0315 -1.6669 -3.0973
 1991TIP3   OH2 5894   3.466   2.978   6.964 -0.0929 -0.1230  0.3952
 1991TIP3    H1 5895   3.529   3.022   7.020  2.5195 -0.8113 -1.7667
 1991TIP3    H2 5896   3.393   3.040   6.957  0.1617  0.6264  3.1552
 1992TIP3   OH2 5897   8.450   7.532   5.855 -0.4360  0.0790  0.2894
 1992TIP3    H1 5898   8.399   7.452   5.848 -0.4135 -0.0564  1.5715
 1992TIP3    H2 5899   8.502   7.535   5.774 -0.8637 -0.8941 -0.0224
 1993TIP3   OH2 5900   2.414   0.518   5.448 -0.0897  0.1423  0.0886
 1993TIP3    H1 5901   2.448   0.602   5.419 -2.9302  1.2393 -0.3300
 1993TIP3    H2 5902   2.464   0.498   5.527  2.8735  0.5617 -1.5252
 1994TIP3   OH2 5903   2.590   0.274   6.587 -0.0025 -0.3497  0.1706
 1994TIP3    H1 5904   2.634   0.234   6.512 -0.1060 -1.6413  0.7660
 1994TIP3    H2 5905   2.536   0.343   6.550  0.8934 -0.1599 -0.8043
 1995TIP3   OH2 5906   8.020   7.080   4.968  0.5827  0.0254  0.4719
 1995TIP3    H1 5907   8.062   7.114   4.889  0.6149 -0.4835  0.2664
 1995TIP3    H2 5908   8.092   7.049   5.022  0.7419  2.2465  1.6327
 1996TIP3   OH2 5909   8.355   4.443   1.447  0.6251 -0.7236 -0.0184
 1996TIP3    H1 5910   8.364   4.491   1.364  0.4910 -1.5494 -0.5315
 1996TIP3    H2 5911   8.306   4.364   1.423  1.6479 -1.5739  0.6023
 1997TIP3   OH2 5912   6.308   4.663   6.914  0.3325 -0.1774  0.2419
 1997TIP3    H1 5913   6.233   4.716   6.888  0.6559  0.1267 -0.0778
 1997TIP3    H2 5914   6.275   4.573   6.912 -0.5879  0.0723  2.0260
 1998TIP3   OH2 5915   5.798   4.230   1.724 -0.2291  0.3190 -0.4202
 1998TIP3    H1 5916   5.712   4.201   1.755 -0.3757 -0.9259 -1.8781
 1998TIP3    H2 5917   5.841   4.150   1.694  2.4009  0.5189  2.3554
 1999TIP3   OH2 5918   7.683   5.157   5.694  0.0550  0.1649 -0.1430
 1999TIP3    H1 5919   7.644   5.244   5.700 -2.5570 -0.9824  0.8362
 1999TIP3    H2 5920   7.710   5.136   5.783  1.1015  0.1391 -0.4574
 2000TIP3   OH2 5921   2.735   4.948   2.903 -0.2664  0.0664  0.2827
 2000TIP3    H1 5922   2.733   4.877   2.967  1.4000  0.5833  0.9610
 2000TIP3    H2 5923   2.771   4.908   2.823  1.1202  0.2125  0.8052
 2001TIP3   OH2 5924   8.388   2.606   4.845  0.0838  1.2823 -0.1442
 2001TIP3    H1 5925   8.444   2.556   4.904 -1.0432  2.2513  1.8900
 2001TIP3    H2 5926   8.303   2.564   4.851 -0.1111  1.5609 -0.8802
 2002TIP3   OH2 5927   6.457   1.155  -0.025  0.5293  0.6363  0.3426
 2002TIP3    H1 5928   6.532   1.111   0.015  0.4862 -1.2835 -1.4666
 2002TIP3    H2 5929   6.403   1.184   0.048  1.5727 -0.6389  1.6717
 2003TIP3   OH2 5930   7.197   3.112   5.110 -0.0254  0.3210 -0.1635
 2003TIP3    H1 5931   7.110   3.079   5.131  0.4809  0.7011  3.0306
 2003TIP3    H2 5932   7.183   3.166   5.032 -2.3605 -0.7245 -0.5654
 2004TIP3   OH2 5933   0.684   3.926   4.377  0.0843 -0.7270  0.4185
 2004TIP3    H1 5934   0.702   3.835   4.400  2.1766  0.1570  2.8572
 2004TIP3    H2 5935   0.705   3.975   4.457  2.2225  2.2029 -1.7295
 2005TIP3   OH2 5936   3.620   3.194   1.073 -0.2173  0.4926 -0.4177
 2005TIP3    H1 5937   3.527   3.172   1.064 -0.1914  0.4113 -0.4810
 2005TIP3    H2 5938   3.648   3.146   1.151 -0.1354  0.2184 -0.6142
 2006TIP3   OH2 5939   4.729   0.340   1.495  0.1350 -0.0880 -0.3536
 2006TIP3    H1 5940   4.670   0.391   1.552 -0.6641 -1.0278 -0.3157
 2006TIP3    H2 5941   4.736   0.392   1.415 -1.1829 -0.2005 -0.5617
 2007TIP3   OH2 5942   0.896   6.679   6.523  0.2318 -0.6029  0.5165
 2007TIP3    H1 5943   0.831   6.646   6.585  2.3042 -2.0881  2.0230
 2007TIP3    H2 5944   0.934   6.756   6.565 -0.3882  0.1758 -0.2955
 2008TIP3   OH2 5945   4.359   2.234   3.522 -0.3099  1.0377 -0.0486
 2008TIP3    H1 5946   4.303   2.295   3.473 -0.0459  0.4907 -1.0549
 2008TIP3    H2 5947   4.439   2.229   3.470 -0.1488  0.1890  0.2706
 2009TIP3   OH2 5948   2.824   0.931   3.879  0.1275  0.2106  0.3959
 2009TIP3    H1 5949   2.892   0.993   3.853 -0.7031  0.3719 -1.5303
 2009TIP3    H2 5950   2.845   0.851   3.832  0.7490 -0.8115  2.2737
 2010TIP3   OH2 5951   8.020   6.276   6.666 -0.2624  0.4573 -0.0053
 2010TIP3    H1 5952   7.957   6.321   6.610  0.6895  0.9860 -0.6906
 2010TIP3    H2 5953   8.035   6.336   6.739 -2.5137 -0.7976  1.6051
 2011TIP3   OH2 5954   1.073   3.286   3.460 -0.0125  0.3142 -0.0604
 2011TIP3    H1 5955   1.022   3.217   3.418 -2.8315  2.4927 -0.5075
 2011TIP3    H2 5956   1.074   3.357   3.396 -0.5570  2.0760  1.7958
 2012TIP3   OH2 5957   5.103   7.372   1.179  0.3531 -0.4732 -0.0350
 2012TIP3    H1 5958   5.077   7.415   1.097  0.6231  0.6221  0.4307
 2012TIP3    H2 5959   5.066   7.428   1.247  2.6944  0.3621  0.6352
 2013TIP3   OH2 5960   7.983   7.102   1.312 -0.0650 -0.7339 -0.3626
 2013TIP3    H1 5961   8.029   7.023   1.341  1.0229 -0.2100 -0.5800
 2013TIP3    H2 5962   7.990   7.163   1.386 -0.1828 -0.5574 -0.4951
 2014TIP3   OH2 5963   2.789   0.920   5.598 -0.4414 -0.4455 -0.3950
 2014TIP3    H1 5964   2.852   0.908   5.670 -0.2396  1.8037 -0.1369
 2014TIP3    H2 5965   2.836   0.889   5.521  0.1906 -0.7581  0.0970
 2015TIP3   OH2 5966   3.299   0.682   1.927 -0.6078 -0.3327 -0.8633
 2015TIP3    H1 5967   3.233   0.614   1.942  1.2305 -1.9412  0.4820
 2015TIP3    H2 5968   3.312   0.723   2.012  0.6366 -0.5825 -0.9018
 2016TIP3   OH2 5969   2.664   8.121   4.922  0.2893 -0.1918 -0.5562
 2016TIP3    H1 5970   2.697   8.201   4.962 -1.0981  0.7056 -1.1551
 2016TIP3    H2 5971   2.731   8.096   4.859  0.1292  1.2608 -1.3343
 2017TIP3   OH2 5972   5.288   6.819   3.822  0.0164  0.0969  0.0674
 2017TIP3    H1 5973   5.341   6.739   3.823  1.0734  0.7696 -0.7477
 2017TIP3    H2 5974   5.266   6.834   3.914  2.7755  0.7780  0.6915
 2018TIP3   OH2 5975   7.747   5.958   3.308 -0.4439 -0.7056 -0.4546
 2018TIP3    H1 5976   7.768   5.910   3.388  1.4536  0.7276 -0.0273
 2018TIP3    H2 5977   7.682   6.023   3.335  1.0855  0.5813  0.2450
 2019TIP3   OH2 5978   8.496   8.088   0.895  0.1718 -0.2723 -0.3813
 2019TIP3    H1 5979   8.555   8.109   0.967  0.8196  1.8326 -1.4264
 2019TIP3    H2 5980   8.554   8.077   0.820 -0.6363  3.4337 -1.8019
 2020TIP3   OH2 5981   4.829   2.952   1.889  0.1138  0.3023 -0.0642
 2020TIP3    H1 5982   4.896   3.017   1.870  0.2109  0.3928  0.5767
 2020TIP3    H2 5983   4.746   2.999   1.880  0.2046  0.7038  1.0812
 2021TIP3   OH2 5984   8.457   1.911   5.759 -0.1220  0.5022 -0.1091
 2021TIP3    H1 5985   8.371   1.873   5.772 -1.0270  1.4774 -2.5311
 2021TIP3    H2 5986   8.464   1.980   5.825 -0.7912 -0.2285  0.7276
 2022TIP3   OH2 5987   5.412   0.639   5.895  1.0488  0.3365  0.0872
 2022TIP3    H1 5988   5.322   0.609   5.886  1.2310  0.0938 -0.9956
 2022TIP3    H2 5989   5.410   0.731   5.867  1.0618  0.4567  0.4746
 2023TIP3   OH2 5990   1.634   5.323   0.958  0.4438  0.6178  0.3569
 2023TIP3    H1 5991   1.637   5.237   0.916  1.8398  0.3678  0.9192
 2023TIP3    H2 5992   1.540   5.340   0.971  0.0648 -0.0249 -1.3225
 2024TIP3   OH2 5993   0.026   3.591   3.880  0.0305 -0.2297  0.2417
 2024TIP3    H1 5994  -0.061   3.553   3.885 -0.3411  0.0577 -2.5117
 2024TIP3    H2 5995   0.083   3.525   3.920 -1.1555 -1.4993 -0.0858
 2025TIP3   OH2 5996   6.569   2.810   3.395  0.0734 -0.4183 -0.7155
 2025TIP3    H1 5997   6.613   2.840   3.316  1.3937  3.0249  1.1314
 2025TIP3    H2 5998   6.635   2.819   3.464 -2.1771  0.7247  1.4513
 2026TIP3   OH2 5999   0.323   7.697   2.926  0.0185 -0.3382  0.4512
 2026TIP3    H1 6000   0.235   7.676   2.960 -0.2978 -0.6400 -0.5078
 2026TIP3    H2 6001   0.313   7.783   2.885  1.0831  1.3989  3.5086
 2027TIP3   OH2 6002   8.002   5.088   6.344  0.5570 -0.2371  0.1761
 2027TIP3    H1 6003   8.019   5.026   6.272  0.9570 -0.3433  0.3627
 2027TIP3    H2 6004   7.968   5.166   6.300 -0.1139 -0.6408 -0.0499
 2028TIP3   OH2 6005   8.336   0.693   4.941 -0.3673  0.3381  0.0591
 2028TIP3    H1 6006   8.351   0.601   4.960 -1.7479 -0.2546 -1.5125
 2028TIP3    H2 6007   8.416   0.723   4.898  0.0512 -0.1148  0.5063
 2029TIP3   OH2 6008   1.248   6.310   3.697  0.8725 -0.4181 -0.4729
 2029TIP3    H1 6009   1.287   6.396   3.713 -0.0869 -0.0900  0.1617
 2029TIP3    H2 6010   1.322   6.250   3.699  1.3751  0.2011  0.6419
 2030TIP3   OH2 6011   3.252   6.493   0.451  0.2108  0.2330 -0.5815
 2030TIP3    H1 6012   3.203   6.561   0.497 -0.5240 -1.1034  0.6663
 2030TIP3    H2 6013   3.288   6.538   0.374 -1.2731  1.7339 -0.4549
 2031TIP3   OH2 6014   5.586   4.819   5.195 -0.0963  0.7770 -0.1694
 2031TIP3    H1 6015   5.520   4.866   5.146  1.0312 -0.1709 -2.7835
 2031TIP3    H2 6016   5.537   4.756   5.248 -1.3461 -1.0328 -3.2662
 2032TIP3   OH2 6017   3.377   6.628   4.718  0.8824  0.0513 -0.1068
 2032TIP3    H1 6018   3.325   6.553   4.746  2.1297  0.2398  3.1159
 2032TIP3    H2 6019   3.451   6.589   4.671  0.6595 -0.6051  0.0798
 2033TIP3   OH2 6020   2.789   5.303   1.033  0.0101 -0.0635  0.3526
 2033TIP3    H1 6021   2.701   5.266   1.041 -0.5191  1.4818  2.5968
 2033TIP3    H2 6022   2.827   5.258   0.957 -2.9289 -0.3140 -1.1293
 2034TIP3   OH2 6023   0.621   6.235   5.662  0.2705  0.0734 -0.0174
 2034TIP3    H1 6024   0.603   6.194   5.746 -1.1490  1.1166  0.2202
 2034TIP3    H2 6025   0.668   6.316   5.684  0.1831  0.1880 -0.2477
 2035TIP3   OH2 6026   1.099   4.872   3.688 -0.4014  0.3146 -0.6879
 2035TIP3    H1 6027   1.059   4.935   3.747  1.0086  1.4187 -0.8463
 2035TIP3    H2 6028   1.063   4.893   3.602 -1.6525 -0.6150 -0.4314
 2036TIP3   OH2 6029   2.948   5.590   0.364 -0.2973  0.0847  0.0183
 2036TIP3    H1 6030   2.902   5.508   0.378 -2.2532  1.3589  1.5394
 2036TIP3    H2 6031   2.951   5.600   0.269  0.4048 -1.9172 -0.2214
 2037TIP3   OH2 6032   4.061   5.016   3.820 -0.0292  0.5656 -0.3774
 2037TIP3    H1 6033   4.124   4.945   3.807  1.2310  1.5899 -0.0989
 2037TIP3    H2 6034   3.976   4.973   3.828  0.6773 -0.8766 -0.4858
 2038TIP3   OH2 6035   8.646   2.831   1.398 -0.0007  0.1374 -0.2571
 2038TIP3    H1 6036   8.559   2.864   1.423  0.1318 -0.2840  0.8137
 2038TIP3    H2 6037   8.636   2.804   1.307 -0.6994  1.0983 -0.4791
 2039TIP3   OH2 6038   8.233   2.583   0.897 -0.4759  0.4899 -0.0472
 2039TIP3    H1 6039   8.294   2.509   0.900 -0.9930  0.0889  1.3437
 2039TIP3    H2 6040   8.288   2.660   0.888  0.0908 -0.0274 -1.1682
 2040TIP3   OH2 6041   1.894   3.537   3.709  0.6164 -0.3701  0.1979
 2040TIP3    H1 6042   1.958   3.602   3.737 -0.9820  0.9115  1.0719
 2040TIP3    H2 6043   1.870   3.564   3.620  0.5966 -0.2590  0.2357
 2041TIP3   OH2 6044   8.467   1.229   0.328  0.2872 -0.5347  0.2681
 2041TIP3    H1 6045   8.449   1.312   0.372  0.8207 -0.7323  0.8783
 2041TIP3    H2 6046   8.382   1.200   0.295  0.3026  0.9280 -1.1743
 2042TIP3   OH2 6047   5.874   5.346   4.948  0.2281  0.0368  0.5372
 2042TIP3    H1 6048   5.885   5.430   4.992 -1.9703  0.0772  1.1119
 2042TIP3    H2 6049   5.883   5.281   5.017 -1.0696 -0.0097  0.6929
 2043TIP3   OH2 6050   7.432   0.294   0.744 -0.4992  0.3118 -0.3332
 2043TIP3    H1 6051   7.341   0.284   0.716 -0.2774 -0.7838 -0.7440
 2043TIP3    H2 6052   7.483   0.287   0.663 -0.0385  0.6492 -0.0738
 2044TIP3   OH2 6053   3.355   3.278   4.909 -0.5460  0.5175 -0.1965
 2044TIP3    H1 6054   3.312   3.222   4.845 -3.0455 -0.7117  2.3229
 2044TIP3    H2 6055   3.309   3.362   4.902 -0.7612  0.4093 -0.1089
 2045TIP3   OH2 6056   3.809   4.063   1.945  0.3471 -0.8821  0.1253
 2045TIP3    H1 6057   3.825   4.044   2.038 -1.0975 -0.7674  0.4275
 2045TIP3    H2 6058   3.846   3.989   1.898 -0.4746 -1.8310  0.9253
 2046TIP3   OH2 6059   8.621   6.316   3.865  0.6076 -0.2675  0.3967
 2046TIP3    H1 6060   8.592   6.403   3.893  0.2048 -0.0927 -0.5000
 2046TIP3    H2 6061   8.714   6.327   3.847  0.3021  0.3556 -0.9878
 2047TIP3   OH2 6062   3.528   6.669   4.975 -0.0510  0.9940 -0.6461
 2047TIP3    H1 6063   3.550   6.577   4.991 -0.6209  1.1002  0.9815
 2047TIP3    H2 6064   3.473   6.668   4.897  1.1445  0.1320 -1.5117
 2048TIP3   OH2 6065   3.622   6.417   4.947  0.0168  0.3210 -0.0044
 2048TIP3    H1 6066   3.617   6.429   4.852  0.1915  1.2485  0.0909
 2048TIP3    H2 6067   3.712   6.388   4.963  0.6918  2.2845  0.0550
 2049TIP3   OH2 6068   5.969   7.410   3.883  0.0348 -0.2932 -0.3206
 2049TIP3    H1 6069   6.024   7.335   3.863  0.6885  0.1302 -0.1206
 2049TIP3    H2 6070   5.981   7.469   3.808  0.2164  0.0081 -0.0524
 2050TIP3   OH2 6071   0.307   2.602   5.223  0.0604  0.1645 -0.5480
 2050TIP3    H1 6072   0.395   2.565   5.228  0.0123 -0.2558 -2.3346
 2050TIP3    H2 6073   0.296   2.647   5.307  1.6808 -0.3923  0.0122
 2051TIP3   OH2 6074   6.495   0.692   2.992  0.3824  0.4184 -0.2077
 2051TIP3    H1 6075   6.475   0.616   3.046 -0.8715  0.9471  0.1210
 2051TIP3    H2 6076   6.552   0.746   3.047 -1.6132  1.3883  1.0460
 2052TIP3   OH2 6077   5.887   6.944   5.744 -0.0116 -0.1906 -0.0018
 2052TIP3    H1 6078   5.927   6.925   5.829 -0.2908  1.3776  0.5138
 2052TIP3    H2 6079   5.793   6.943   5.761 -0.0966 -0.8163 -0.5082
 2053TIP3   OH2 6080   1.003   1.268   5.887  0.3250  0.3484  0.6597
 2053TIP3    H1 6081   0.942   1.194   5.895  0.7150 -0.0903 -0.2602
 2053TIP3    H2 6082   1.043   1.276   5.973 -0.8707  0.5057  1.2220
 2054TIP3   OH2 6083   3.858   7.674   6.444 -0.0101 -0.5162 -0.4753
 2054TIP3    H1 6084   3.829   7.762   6.469 -1.6685 -1.3605  0.7719
 2054TIP3    H2 6085   3.805   7.651   6.368 -1.3279 -1.3132  0.6376
 2055TIP3   OH2 6086   0.248   4.945   5.502 -0.4569 -0.0286  0.4882
 2055TIP3    H1 6087   0.224   5.030   5.465 -0.4199  0.2836  1.1765
 2055TIP3    H2 6088   0.193   4.936   5.580 -2.2709 -1.7230 -0.8803
 2056TIP3   OH2 6089   5.545   6.858  -0.001 -0.6693 -0.1753 -0.3268
 2056TIP3    H1 6090   5.638   6.851  -0.022 -0.9259 -1.4689 -1.1529
 2056TIP3    H2 6091   5.528   6.787   0.061 -0.9552  0.5593  0.4653
 2057TIP3   OH2 6092   8.495   4.791   0.248  0.2088  0.1463 -0.5941
 2057TIP3    H1 6093   8.575   4.751   0.281 -0.1522  0.3262  0.5580
 2057TIP3    H2 6094   8.456   4.724   0.192 -0.6119 -1.3734  1.6503
 2058TIP3   OH2 6095   5.471   0.059   3.105  0.4035 -0.0453  0.3980
 2058TIP3    H1 6096   5.497   0.131   3.047 -2.4584  0.1527 -0.7994
 2058TIP3    H2 6097   5.549   0.004   3.112  1.4091  0.9110 -2.1668
 2059TIP3   OH2 6098   4.332   0.716   6.813  0.1254 -0.3159 -0.3451
 2059TIP3    H1 6099   4.374   0.802   6.825  0.6848 -0.4880 -1.0373
 2059TIP3    H2 6100   4.371   0.681   6.733 -1.2753 -0.5303 -0.9507
 2060TIP3   OH2 6101   8.033   1.776   6.738 -0.8609 -0.4643 -0.0609
 2060TIP3    H1 6102   8.010   1.719   6.811 -0.0328  0.5079  0.9905
 2060TIP3    H2 6103   8.128   1.784   6.743 -0.7805 -0.4351 -1.3055
 2061TIP3   OH2 6104   3.660   2.852   3.288 -0.0774  0.2530  0.0615
 2061TIP3    H1 6105   3.737   2.801   3.263  0.1533  1.2914 -1.4712
 2061TIP3    H2 6106   3.594   2.787   3.308  0.0115 -0.7134 -2.4609
 2062TIP3   OH2 6107   0.097   2.806   6.406 -0.1028  0.2869 -0.3238
 2062TIP3    H1 6108   0.161   2.868   6.373  0.4587  0.1403  0.4616
 2062TIP3    H2 6109   0.115   2.801   6.500 -0.7314 -0.3775 -0.2307
 2063TIP3   OH2 6110   0.912   1.481   1.386 -0.2879  0.0845 -0.3323
 2063TIP3    H1 6111   0.847   1.551   1.379 -1.0602 -0.6542 -0.7079
 2063TIP3    H2 6112   0.898   1.445   1.473 -1.9661 -1.5634 -1.2264
 2064TIP3   OH2 6113   2.690   1.961   5.828  0.4990 -0.2868 -0.2423
 2064TIP3    H1 6114   2.679   1.871   5.797  1.0531  0.1702 -1.8811
 2064TIP3    H2 6115   2.600   1.994   5.839  0.2513 -0.2652 -2.0935
 2065TIP3   OH2 6116   3.530   6.865   0.211  0.3994  0.5009  0.0606
 2065TIP3    H1 6117   3.597   6.834   0.272  0.0652  0.9626  0.6725
 2065TIP3    H2 6118   3.453   6.880   0.266  0.0724  0.8619 -0.4881
 2066TIP3   OH2 6119   8.565   1.715   6.924 -0.6083 -0.1572 -0.1948
 2066TIP3    H1 6120   8.522   1.749   7.003 -1.1570  0.6287 -0.8219
 2066TIP3    H2 6121   8.569   1.620   6.938 -3.6352 -0.4391 -0.6228
 2067TIP3   OH2 6122   1.471   1.786   6.670  0.2592 -0.0239 -0.3529
 2067TIP3    H1 6123   1.505   1.876   6.673 -1.1192  0.4943  1.8267
 2067TIP3    H2 6124   1.387   1.794   6.624  1.2467 -0.6784 -2.3893
 2068TIP3   OH2 6125   3.526   0.150   1.268 -0.0046 -0.0924 -0.5139
 2068TIP3    H1 6126   3.557   0.225   1.218  1.3311  0.7650  1.4816
 2068TIP3    H2 6127   3.589   0.081   1.250 -0.5646 -0.3953 -1.4051
 2069TIP3   OH2 6128   0.656   3.941   6.507  0.1437 -0.4621 -0.3985
 2069TIP3    H1 6129   0.633   3.886   6.432  2.8855 -1.0820 -0.9093
 2069TIP3    H2 6130   0.733   3.897   6.545  0.9539  1.7258  0.6233
 2070TIP3   OH2 6131   5.268   3.489   1.502 -0.5037  0.3746  0.2009
 2070TIP3    H1 6132   5.200   3.555   1.513 -1.8772 -0.7344 -1.1002
 2070TIP3    H2 6133   5.288   3.491   1.408 -0.5988 -1.0237  0.1252
 2071TIP3   OH2 6134   3.556   8.040   6.967 -0.1495 -0.1820  0.3475
 2071TIP3    H1 6135   3.463   8.060   6.958 -0.3730 -1.1851  0.2743
 2071TIP3    H2 6136   3.579   7.996   6.885  0.4815  0.3712  0.2188
 2072TIP3   OH2 6137   4.679   1.442   6.646  0.2662 -0.1801  0.4287
 2072TIP3    H1 6138   4.690   1.484   6.731 -3.1955 -1.1768  1.5189
 2072TIP3    H2 6139   4.616   1.497   6.600  0.1869 -1.0189 -0.4848
 2073TIP3   OH2 6140   1.685   3.927   5.345  0.4539 -0.1492 -0.5438
 2073TIP3    H1 6141   1.600   3.922   5.302  1.2669 -1.7548 -2.1034
 2073TIP3    H2 6142   1.727   4.004   5.308  0.8386 -1.0820 -2.1721
 2074TIP3   OH2 6143   6.273   7.535   6.198  0.2934  0.3534  0.4269
 2074TIP3    H1 6144   6.334   7.590   6.247  1.4482 -0.6699  0.1764
 2074TIP3    H2 6145   6.260   7.582   6.115  0.9248  0.4548  0.3846
 2075TIP3   OH2 6146   4.368   5.123   5.248  0.5165  0.0243  0.0136
 2075TIP3    H1 6147   4.427   5.074   5.191  1.7512  0.0976  1.1684
 2075TIP3    H2 6148   4.390   5.215   5.231 -0.5005  0.1273 -0.8095
 2076TIP3   OH2 6149   7.391   6.542   3.306  0.1579  0.7068 -0.3790
 2076TIP3    H1 6150   7.359   6.574   3.390  0.9260 -0.9016  0.5907
 2076TIP3    H2 6151   7.313   6.514   3.259 -0.1588 -0.1058  0.5931
 2077TIP3   OH2 6152   7.765   3.914   0.433  0.1350 -0.4605 -0.3790
 2077TIP3    H1 6153   7.762   3.887   0.525  0.6354 -0.6047 -0.4034
 2077TIP3    H2 6154   7.678   3.892   0.399  0.2646 -1.3340 -0.1905
 2078TIP3   OH2 6155   2.730   2.916   3.093 -0.4133  0.5450  0.0771
 2078TIP3    H1 6156   2.724   2.822   3.109  1.9584  0.3107 -0.0084
 2078TIP3    H2 6157   2.756   2.923   3.001 -2.5668  1.4186 -0.5297
 2079TIP3   OH2 6158   7.557   3.629   4.127  0.3750 -0.2785 -0.2668
 2079TIP3    H1 6159   7.509   3.547   4.118 -2.8278  1.2167  1.4470
 2079TIP3    H2 6160   7.517   3.688   4.064  0.9450  0.6153  0.1866
 2080TIP3   OH2 6161   1.545   6.100   0.778  0.2339  0.4546 -0.6150
 2080TIP3    H1 6162   1.622   6.044   0.786 -0.9975 -1.1491  0.4708
 2080TIP3    H2 6163   1.522   6.123   0.868 -0.9159  0.4115 -0.8878
 2081TIP3   OH2 6164   8.177   6.495   0.086  0.6296  0.5481 -0.0511
 2081TIP3    H1 6165   8.161   6.556   0.158 -0.1656 -0.0837  0.3264
 2081TIP3    H2 6166   8.200   6.412   0.128  1.3385  0.4759 -0.5530
 2082TIP3   OH2 6167   0.562   6.339   4.773 -0.4042 -0.5244 -0.2773
 2082TIP3    H1 6168   0.493   6.403   4.756 -0.5371 -0.7433 -0.5788
 2082TIP3    H2 6169   0.630   6.360   4.709 -0.5482 -0.8266 -0.5349
 2083TIP3   OH2 6170   6.326   2.011   6.924  0.5867  0.5731 -0.2586
 2083TIP3    H1 6171   6.334   2.012   7.019 -2.8862 -0.4557  0.1815
 2083TIP3    H2 6172   6.273   2.088   6.904 -1.1964 -0.7724 -0.9665
 2084TIP3   OH2 6173   2.823   1.751   6.231 -0.0081 -0.2499  0.2495
 2084TIP3    H1 6174   2.759   1.822   6.223 -0.2638 -0.5555 -0.6029
 2084TIP3    H2 6175   2.790   1.684   6.171  1.0146 -0.4914 -0.0448
 2085TIP3   OH2 6176   3.855   3.487   6.588 -0.1319  0.4370  0.7245
 2085TIP3    H1 6177   3.880   3.576   6.564 -2.1097  0.9532  0.4501
 2085TIP3    H2 6178   3.937   3.448   6.619  0.6439  2.5751  1.6127
 2086TIP3   OH2 6179   0.601   0.398   6.682  0.4272  0.0754 -0.4093
 2086TIP3    H1 6180   0.663   0.425   6.614 -0.2153 -0.2208 -1.1138
 2086TIP3    H2 6181   0.592   0.303   6.671 -0.0884  0.1033 -0.2523
 2087TIP3   OH2 6182   6.894   4.455   0.226  0.0415  0.3965  0.6846
 2087TIP3    H1 6183   6.967   4.400   0.253  0.6661  0.5896 -0.5525
 2087TIP3    H2 6184   6.919   4.488   0.140  0.2307  3.5441  1.8015
 2088TIP3   OH2 6185   6.538   2.367   2.364 -0.2201 -0.0691 -0.5009
 2088TIP3    H1 6186   6.600   2.297   2.387 -1.4861 -1.1777 -0.3310
 2088TIP3    H2 6187   6.540   2.426   2.439 -2.1780 -2.1498  1.3516
 2089TIP3   OH2 6188   7.470   3.455   3.321 -0.4800 -0.4535 -0.1822
 2089TIP3    H1 6189   7.470   3.550   3.328 -0.5489 -0.5273  0.9843
 2089TIP3    H2 6190   7.448   3.438   3.229  0.1277  0.6508 -0.5533
 2090TIP3   OH2 6191   8.716   8.069   3.105 -0.2019  0.2294  0.2088
 2090TIP3    H1 6192   8.669   8.094   3.184 -0.7090  0.5580 -0.1831
 2090TIP3    H2 6193   8.648   8.066   3.037 -0.2846 -2.6864  0.2930
 2091TIP3   OH2 6194   6.141   7.011   3.096 -0.4354 -0.1264 -0.6155
 2091TIP3    H1 6195   6.136   7.026   3.001 -2.6625 -1.1309 -0.7381
 2091TIP3    H2 6196   6.180   6.924   3.104  0.9276  0.4754 -0.5206
 2092TIP3   OH2 6197   6.304   2.944   6.357 -0.2163 -0.2668 -0.1197
 2092TIP3    H1 6198   6.306   2.910   6.268  0.1098  0.6732 -0.4831
 2092TIP3    H2 6199   6.300   2.866   6.412  1.7479 -0.9848 -0.8843
 2093TIP3   OH2 6200   0.340   5.552   3.199  0.3347  0.1323  0.1150
 2093TIP3    H1 6201   0.296   5.489   3.142 -0.2687  0.5708  0.0834
 2093TIP3    H2 6202   0.428   5.518   3.209  0.3371 -0.1586 -0.7737
 2094TIP3   OH2 6203   7.832   5.733   6.205 -0.8524  0.2172  0.0182
 2094TIP3    H1 6204   7.780   5.738   6.285 -1.7095 -0.7976 -0.4511
 2094TIP3    H2 6205   7.775   5.769   6.137 -0.2207  0.8464 -0.1860
 2095TIP3   OH2 6206   6.387   7.176   4.986 -0.0342  0.5704 -0.0542
 2095TIP3    H1 6207   6.348   7.168   5.074  0.2278  0.6684  0.0707
 2095TIP3    H2 6208   6.423   7.089   4.969  0.3293  0.6795  0.1341
 2096TIP3   OH2 6209   0.786   0.859   0.537 -0.8090  0.7244 -0.1859
 2096TIP3    H1 6210   0.707   0.911   0.552 -0.6585  0.9888 -0.3023
 2096TIP3    H2 6211   0.821   0.842   0.624 -1.2587  0.1908 -0.1043
 2097TIP3   OH2 6212   2.767   2.892   1.678 -0.6971  0.0474  0.2375
 2097TIP3    H1 6213   2.753   2.802   1.646  1.1225 -0.7808  1.6210
 2097TIP3    H2 6214   2.862   2.898   1.692 -1.0626  1.3182  2.6411
 2098TIP3   OH2 6215   7.353   7.088   4.907  0.6905  0.3789  0.6355
 2098TIP3    H1 6216   7.405   7.162   4.874  1.3694  0.0760  1.0129
 2098TIP3    H2 6217   7.397   7.063   4.989  1.2138 -1.2270 -0.0969
 2099TIP3   OH2 6218   3.694   4.182   0.212 -0.0173  0.0880 -0.1172
 2099TIP3    H1 6219   3.672   4.127   0.137  1.7628  0.5783 -1.0291
 2099TIP3    H2 6220   3.787   4.167   0.227 -0.0089  1.1360  1.0493
 2100TIP3   OH2 6221   2.914   7.117   1.038  0.1410  0.0024  0.2208
 2100TIP3    H1 6222   2.824   7.092   1.057  0.8238 -1.3449  1.8445
 2100TIP3    H2 6223   2.968   7.054   1.086  1.9902 -0.3864 -2.1778
 2101TIP3   OH2 6224   7.415   4.681   1.500  0.2610 -0.0495 -0.0721
 2101TIP3    H1 6225   7.361   4.758   1.484 -1.6435 -0.7597  2.4090
 2101TIP3    H2 6226   7.444   4.690   1.591  0.1677 -2.1519  0.2154
 2102TIP3   OH2 6227   0.671   3.920   3.096  0.0069  0.4752 -0.1438
 2102TIP3    H1 6228   0.750   3.954   3.138 -1.3602 -0.6921  3.9052
 2102TIP3    H2 6229   0.599   3.962   3.143 -1.7583 -1.1182 -1.2813
 2103TIP3   OH2 6230   3.189   4.340   2.595  0.9042  0.3134 -0.3262
 2103TIP3    H1 6231   3.183   4.418   2.540  0.7516  0.2371 -0.4186
 2103TIP3    H2 6232   3.197   4.268   2.532  0.6949  0.2229 -0.2494
 2104TIP3   OH2 6233   2.752   6.969   4.764 -0.0977 -0.4471  0.3944
 2104TIP3    H1 6234   2.821   6.918   4.723  0.3283  0.0264  0.5144
 2104TIP3    H2 6235   2.796   7.018   4.834 -0.5864 -0.2991  0.6073
 2105TIP3   OH2 6236   3.394   1.922   6.678  0.1239 -0.3087 -0.0115
 2105TIP3    H1 6237   3.349   1.873   6.609  1.5566 -0.5500 -0.8064
 2105TIP3    H2 6238   3.329   1.929   6.748 -1.8292  1.0606 -1.8339
 2106TIP3   OH2 6239   5.186   5.293   4.228 -0.1514  0.0696  0.1396
 2106TIP3    H1 6240   5.103   5.248   4.239 -0.0355 -0.4677 -1.0457
 2106TIP3    H2 6241   5.181   5.333   4.141  0.9886 -0.3399 -0.1340
 2107TIP3   OH2 6242   4.522   5.871   1.623  0.0986 -0.2337  0.2412
 2107TIP3    H1 6243   4.500   5.797   1.681  0.4335 -2.0348 -1.7970
 2107TIP3    H2 6244   4.545   5.830   1.540 -1.2542  2.2704 -1.4964
 2108TIP3   OH2 6245   5.604   3.007   3.031 -0.0322 -0.0659 -0.2408
 2108TIP3    H1 6246   5.638   2.964   2.952 -1.8245  0.2090 -1.2158
 2108TIP3    H2 6247   5.553   3.081   2.997  1.1359  1.5157  1.2947
 2109TIP3   OH2 6248   4.714   6.399   4.157  0.1313  0.7154 -0.0813
 2109TIP3    H1 6249   4.778   6.467   4.182 -0.2811  1.3546 -0.7321
 2109TIP3    H2 6250   4.632   6.447   4.147 -0.6231 -0.2006  1.3824
 2110TIP3   OH2 6251   1.129   0.273   2.039 -0.0985  0.5410  1.0435
 2110TIP3    H1 6252   1.177   0.287   2.121  0.0672 -0.3448  1.1058
 2110TIP3    H2 6253   1.044   0.238   2.066 -0.1295  0.4633  0.8448
 2111TIP3   OH2 6254   6.352   3.917   6.565 -0.0118 -0.0604  0.1485
 2111TIP3    H1 6255   6.275   3.922   6.622  0.4744  1.0869  0.7602
 2111TIP3    H2 6256   6.331   3.851   6.500 -0.7356 -1.1520  1.4558
 2112TIP3   OH2 6257   8.528   0.418   5.393  0.0630  0.2819  0.3373
 2112TIP3    H1 6258   8.600   0.481   5.388  0.2654  0.0880  0.7619
 2112TIP3    H2 6259   8.475   0.448   5.467 -0.4968  0.6259 -0.1865
 2113TIP3   OH2 6260   4.611   2.608   1.842 -0.3858 -0.2208  0.3319
 2113TIP3    H1 6261   4.658   2.683   1.806  1.5875 -2.2812 -1.7250
 2113TIP3    H2 6262   4.660   2.585   1.921  0.7121 -0.9318 -0.5256
 2114TIP3   OH2 6263   5.453   5.925   3.462 -0.8041 -0.1215 -0.5878
 2114TIP3    H1 6264   5.421   5.904   3.550 -1.2467 -0.3834 -0.8056
 2114TIP3    H2 6265   5.483   5.841   3.427  1.2591  0.3037  0.0476
 2115TIP3   OH2 6266   1.640   4.081   2.220  0.5533  0.2208 -0.5167
 2115TIP3    H1 6267   1.570   4.080   2.286  0.9348 -0.4883 -0.1179
 2115TIP3    H2 6268   1.669   4.172   2.218  0.7507  0.1985  0.5353
 2116TIP3   OH2 6269   5.222   2.458   2.912 -0.0249 -0.0345 -0.4201
 2116TIP3    H1 6270   5.265   2.540   2.937  1.1731 -0.2661 -1.6490
 2116TIP3    H2 6271   5.226   2.404   2.992  2.3800 -0.2012 -0.5694
 2117TIP3   OH2 6272   6.174   5.369   2.070 -1.0878 -0.3235  0.9576
 2117TIP3    H1 6273   6.141   5.336   2.154  0.0080  0.3065  1.6544
 2117TIP3    H2 6274   6.125   5.450   2.056 -2.7677 -1.4481 -0.0677
 2118TIP3   OH2 6275   4.725   3.999   5.438  0.0373 -0.1264  0.3014
 2118TIP3    H1 6276   4.804   4.027   5.484  0.0659  0.5035 -0.1115
 2118TIP3    H2 6277   4.723   4.053   5.359 -1.3896  0.6948  0.8470
 2119TIP3   OH2 6278   8.640   6.583   2.533  0.3765  0.4718 -0.3424
 2119TIP3    H1 6279   8.605   6.595   2.445 -0.5914 -0.1333 -0.0558
 2119TIP3    H2 6280   8.653   6.488   2.541 -2.8407  0.0296  1.3354
 2120TIP3   OH2 6281   2.811   4.827   3.831  0.4703 -0.3592 -0.7777
 2120TIP3    H1 6282   2.790   4.860   3.744 -1.6163  0.3451 -0.0691
 2120TIP3    H2 6283   2.744   4.761   3.848  1.8348 -1.6930 -0.3194
 2121TIP3   OH2 6284   4.821   3.104   0.034  0.5835 -0.2735 -0.6471
 2121TIP3    H1 6285   4.815   3.196   0.060 -1.7526 -0.5999  0.2412
 2121TIP3    H2 6286   4.804   3.056   0.115  1.0913 -1.4862 -1.2427
 2122TIP3   OH2 6287   7.433   2.301   2.424  0.0933 -0.9320  0.4688
 2122TIP3    H1 6288   7.445   2.383   2.473  1.4767 -0.7166 -0.1624
 2122TIP3    H2 6289   7.520   2.283   2.387 -0.2525 -2.5603  0.3811
 2123TIP3   OH2 6290   1.044   6.519   3.542  0.5942 -0.4449  0.7649
 2123TIP3    H1 6291   1.012   6.550   3.626  1.1302  0.0955  0.7680
 2123TIP3    H2 6292   1.138   6.509   3.553  0.8230  0.6016 -0.0627
 2124TIP3   OH2 6293   2.712   4.758   5.465  0.2430 -0.2057 -0.2438
 2124TIP3    H1 6294   2.617   4.754   5.452  0.0449  0.5998  0.8894
 2124TIP3    H2 6295   2.736   4.846   5.439  0.6777 -0.3769 -0.4301
 2125TIP3   OH2 6296   1.576   3.197   6.057  0.1344 -0.0752 -0.2606
 2125TIP3    H1 6297   1.564   3.102   6.069 -1.5034 -0.2253 -2.3767
 2125TIP3    H2 6298   1.659   3.205   6.010  0.3441 -0.4378  0.0409
 2126TIP3   OH2 6299   2.264   0.976   0.705  0.8529  0.1143 -0.0091
 2126TIP3    H1 6300   2.177   0.999   0.673 -0.2002 -2.1370  1.0349
 2126TIP3    H2 6301   2.260   0.994   0.799  1.5077 -0.0202  0.0471
 2127TIP3   OH2 6302   0.389   5.068   2.310 -0.3018  0.3368  0.2127
 2127TIP3    H1 6303   0.346   5.138   2.261  0.3862 -0.0383 -0.9605
 2127TIP3    H2 6304   0.330   4.993   2.300 -0.5348  0.4678  0.6016
 2128TIP3   OH2 6305   2.619   5.243   6.953  0.2768 -0.1969  0.1932
 2128TIP3    H1 6306   2.680   5.302   6.999 -0.0212 -0.9663  1.6386
 2128TIP3    H2 6307   2.556   5.302   6.912  1.2704  0.5694 -0.2934
 2129TIP3   OH2 6308   5.817   4.795   1.964  0.1193  0.2249 -0.1113
 2129TIP3    H1 6309   5.902   4.750   1.959  0.3276  0.6149 -0.0880
 2129TIP3    H2 6310   5.781   4.788   1.876 -0.5228 -1.2796  0.2255
 2130TIP3   OH2 6311   7.991   0.531   2.218 -0.2677 -0.3625  0.1396
 2130TIP3    H1 6312   8.009   0.441   2.191 -0.1213 -0.4436  0.4871
 2130TIP3    H2 6313   7.937   0.568   2.149  0.4987 -0.4083 -0.4978
 2131TIP3   OH2 6314   1.592   0.904   5.205 -0.4440 -0.0609 -0.6318
 2131TIP3    H1 6315   1.575   0.882   5.114 -0.1994 -0.7586 -0.5177
 2131TIP3    H2 6316   1.676   0.951   5.203 -1.1009  1.1426 -0.9078
 2132TIP3   OH2 6317   0.570   2.457   4.432 -0.0139 -0.0376  0.4837
 2132TIP3    H1 6318   0.558   2.491   4.521 -1.4628 -0.0445  0.3193
 2132TIP3    H2 6319   0.514   2.512   4.378  0.9437  0.0401 -0.4662
 2133TIP3   OH2 6320   6.327   6.373   5.376  0.9217 -0.0205  0.0179
 2133TIP3    H1 6321   6.409   6.392   5.421  0.3922  0.3096  0.8790
 2133TIP3    H2 6322   6.338   6.410   5.289  1.3261  0.8843  0.4447
 2134TIP3   OH2 6323   7.981   6.693   3.135  0.2093  0.5742  0.2109
 2134TIP3    H1 6324   7.974   6.689   3.040 -1.2310 -1.4241  0.3300
 2134TIP3    H2 6325   7.950   6.780   3.158 -0.9041  0.5424 -1.0666
 2135TIP3   OH2 6326   0.639   7.889   6.395 -0.3546 -0.0179 -0.2980
 2135TIP3    H1 6327   0.724   7.917   6.361  0.3585 -0.8031  0.7917
 2135TIP3    H2 6328   0.655   7.804   6.435 -1.7707 -0.4340 -0.5346
 2136TIP3   OH2 6329   7.369   2.540   3.316  0.2125 -0.2240 -0.6737
 2136TIP3    H1 6330   7.326   2.525   3.231 -2.0118  0.5145  0.2470
 2136TIP3    H2 6331   7.365   2.635   3.327  1.0013 -0.2660  0.0307
 2137TIP3   OH2 6332   7.077   4.061   2.929  0.0396  0.3160 -0.0824
 2137TIP3    H1 6333   7.088   4.064   3.024  1.4277 -0.7286 -0.1902
 2137TIP3    H2 6334   6.993   4.017   2.916 -0.6504  1.3490  0.6486
 2138TIP3   OH2 6335   2.592   0.799   5.846 -0.0923  0.6262 -0.2573
 2138TIP3    H1 6336   2.645   0.829   5.921 -0.0699 -1.5401  0.6580
 2138TIP3    H2 6337   2.650   0.807   5.771 -0.2573  3.2824 -0.2031
 2139TIP3   OH2 6338   5.708   5.467   1.929  0.1140 -0.0897 -0.3001
 2139TIP3    H1 6339   5.705   5.450   2.023 -0.0292  0.2355 -0.2431
 2139TIP3    H2 6340   5.639   5.412   1.893 -0.3516  0.3604 -0.1175
 2140TIP3   OH2 6341   0.109   5.976   3.364  0.4933  0.2705  0.4275
 2140TIP3    H1 6342   0.108   6.052   3.422  0.7759  0.1426  0.6023
 2140TIP3    H2 6343   0.116   5.901   3.423  1.5568  0.1772  0.2020
 2141TIP3   OH2 6344   6.368   1.536   5.143  0.1517 -0.2893  0.2559
 2141TIP3    H1 6345   6.351   1.548   5.236  0.6912  0.3162  0.2818
 2141TIP3    H2 6346   6.447   1.587   5.126 -0.9815  1.1542 -0.9268
 2142TIP3   OH2 6347   6.801   5.793   2.089 -0.6448  0.3707  0.7014
 2142TIP3    H1 6348   6.844   5.708   2.087 -1.0425  0.1696 -0.4000
 2142TIP3    H2 6349   6.790   5.813   2.182  0.1670 -0.4077  0.9744
 2143TIP3   OH2 6350   4.189   4.344   4.711  0.0007 -0.5608  0.2952
 2143TIP3    H1 6351   4.125   4.303   4.653  1.2923 -2.1014 -0.0949
 2143TIP3    H2 6352   4.197   4.284   4.785 -1.6281  1.3813  2.1820
 2144TIP3   OH2 6353   4.515   3.962   4.595 -0.7848  0.6144  0.3028
 2144TIP3    H1 6354   4.433   4.011   4.599 -0.2880  1.4625  0.3912
 2144TIP3    H2 6355   4.566   3.994   4.670 -1.1916 -1.4449  1.5530
 2145TIP3   OH2 6356   2.027   4.523   0.992 -0.3243 -0.2460  1.0215
 2145TIP3    H1 6357   2.011   4.472   0.912 -1.8415  2.2124 -0.3822
 2145TIP3    H2 6358   1.967   4.486   1.056 -0.5555 -0.9938  0.3912
 2146TIP3   OH2 6359   8.292   3.982   0.315  0.1716  0.7229 -0.0989
 2146TIP3    H1 6360   8.371   3.960   0.265  1.5428 -1.0442  2.6351
 2146TIP3    H2 6361   8.320   4.049   0.377 -0.7572  0.8522  0.1986
 2147TIP3   OH2 6362   4.600   7.167   3.833 -0.0687 -0.0602  0.3948
 2147TIP3    H1 6363   4.672   7.120   3.875 -0.0083  0.3094  0.7100
 2147TIP3    H2 6364   4.551   7.099   3.787 -0.1076 -0.4695  1.0211
 2148TIP3   OH2 6365   2.132   8.013   2.672 -0.0925 -0.2774 -0.1141
 2148TIP3    H1 6366   2.065   8.074   2.640  0.5574  0.1962 -0.6083
 2148TIP3    H2 6367   2.164   7.970   2.592  1.3548  0.7085 -0.0889
 2149TIP3   OH2 6368   4.339   7.647   1.970  0.4121  0.3356  0.2059
 2149TIP3    H1 6369   4.361   7.740   1.960  1.5942  0.4116  2.6546
 2149TIP3    H2 6370   4.248   7.641   1.941  0.1555  2.3672  0.3928
 2150TIP3   OH2 6371   2.802   7.489   2.217  0.0405  0.3598 -0.0895
 2150TIP3    H1 6372   2.761   7.459   2.135 -0.2044  1.3841 -0.3531
 2150TIP3    H2 6373   2.737   7.547   2.256  0.8436  1.2610 -0.0432
 2151TIP3   OH2 6374   0.628   7.626   6.136 -0.3543 -0.7194  0.0345
 2151TIP3    H1 6375   0.673   7.608   6.218 -0.2976 -1.0327 -0.0630
 2151TIP3    H2 6376   0.550   7.675   6.161  0.4304  0.5264  0.1388
 2152TIP3   OH2 6377   3.248   3.996   0.849 -0.4227 -0.5490 -0.8622
 2152TIP3    H1 6378   3.255   4.083   0.889 -1.7032 -0.9223  0.2457
 2152TIP3    H2 6379   3.333   3.982   0.807 -0.0618  1.0745 -0.7446
 2153TIP3   OH2 6380   0.963   2.129   5.696  0.1960  0.1247  0.2165
 2153TIP3    H1 6381   0.981   2.051   5.643  2.0908  0.7438 -0.1403
 2153TIP3    H2 6382   1.021   2.120   5.772  0.9806  1.4855 -0.1781
 2154TIP3   OH2 6383   2.277   1.201   2.849 -0.1109  0.2524 -0.6726
 2154TIP3    H1 6384   2.283   1.267   2.919 -2.2994  1.1847 -1.2712
 2154TIP3    H2 6385   2.294   1.249   2.769  1.4600 -0.6263 -0.9037
 2155TIP3   OH2 6386   8.261   7.948   5.852  0.2268 -0.0329 -0.7889
 2155TIP3    H1 6387   8.286   8.041   5.849  0.2429 -0.0583 -1.5556
 2155TIP3    H2 6388   8.238   7.933   5.944 -0.4395  0.9037 -0.7804
 2156TIP3   OH2 6389   2.230   6.202   0.309 -0.1130 -0.6500  0.1020
 2156TIP3    H1 6390   2.279   6.210   0.391  0.6438 -0.4725 -0.3533
 2156TIP3    H2 6391   2.233   6.290   0.271  0.6898 -1.0143 -0.7395
 2157TIP3   OH2 6392   1.434   2.779   1.292 -0.0722  0.2935 -0.0265
 2157TIP3    H1 6393   1.482   2.861   1.280  1.0040 -0.0130  1.8132
 2157TIP3    H2 6394   1.442   2.735   1.207  0.4501  1.4954 -0.6404
 2158TIP3   OH2 6395   8.419   1.815   1.860 -0.5713  0.0535  0.2923
 2158TIP3    H1 6396   8.448   1.757   1.930 -1.2796  0.8118  1.2410
 2158TIP3    H2 6397   8.379   1.890   1.905  1.6833  2.0651 -0.8298
 2159TIP3   OH2 6398   1.875   3.653   6.746 -0.3661  0.2871  0.5812
 2159TIP3    H1 6399   1.793   3.702   6.746 -1.6551 -1.7827  0.5853
 2159TIP3    H2 6400   1.875   3.605   6.829  1.2343  0.7797  0.9187
 2160TIP3   OH2 6401   6.885   3.881   1.299  0.4979 -0.0455  0.6029
 2160TIP3    H1 6402   6.876   3.976   1.304  0.3505  0.0458 -0.9562
 2160TIP3    H2 6403   6.935   3.866   1.218  0.8883 -1.2745  1.0489
 2161TIP3   OH2 6404   8.240   5.028   4.982  0.3609 -0.1157  0.0895
 2161TIP3    H1 6405   8.204   4.940   4.974  3.2896 -1.2241 -3.5046
 2161TIP3    H2 6406   8.260   5.037   5.075 -2.7023 -1.9324  1.0989
 2162TIP3   OH2 6407   1.466   6.567   0.043 -0.4535 -0.5029  0.1649
 2162TIP3    H1 6408   1.508   6.531  -0.035 -2.9184 -0.1819 -1.4208
 2162TIP3    H2 6409   1.458   6.492   0.102  0.6111 -0.9628 -0.2525
 2163TIP3   OH2 6410   1.252   0.916   4.685  0.2758  0.7867  0.0109
 2163TIP3    H1 6411   1.247   0.891   4.593  0.5829  2.2032 -0.4014
 2163TIP3    H2 6412   1.236   0.834   4.732 -0.0148  0.0665 -1.2888
 2164TIP3   OH2 6413   6.563   0.723   0.585  0.5759 -0.1532  0.0884
 2164TIP3    H1 6414   6.562   0.769   0.501 -0.2613 -0.0061  0.1721
 2164TIP3    H2 6415   6.569   0.630   0.562 -0.0255 -0.1341 -0.1471
 2165TIP3   OH2 6416   1.266   6.052   0.734 -0.1839 -0.4207 -0.0052
 2165TIP3    H1 6417   1.196   6.015   0.788 -0.4197  1.7682  1.3195
 2165TIP3    H2 6418   1.347   6.026   0.777 -0.1519 -2.2597 -1.0750
 2166TIP3   OH2 6419   3.103   1.604   4.139  0.2077 -0.2980  0.5331
 2166TIP3    H1 6420   3.166   1.549   4.185 -0.9363 -0.6873  1.7249
 2166TIP3    H2 6421   3.156   1.661   4.084  1.4463 -2.8840 -1.1516
 2167TIP3   OH2 6422   2.847   3.562   5.168  0.2403  0.3966  0.3829
 2167TIP3    H1 6423   2.804   3.477   5.167  0.6565  0.0636 -3.1027
 2167TIP3    H2 6424   2.779   3.623   5.140  0.7586  0.6437 -0.3781
 2168TIP3   OH2 6425   2.947   2.600   3.194  0.5544  0.0997 -0.1665
 2168TIP3    H1 6426   2.884   2.667   3.221  0.2873  0.9455 -2.5633
 2168TIP3    H2 6427   2.916   2.519   3.235 -1.1700  0.8059  0.0035
 2169TIP3   OH2 6428   3.134   4.787   4.963 -0.1805  0.0283  0.1540
 2169TIP3    H1 6429   3.179   4.774   4.880 -1.4322 -0.4154 -0.4769
 2169TIP3    H2 6430   3.051   4.827   4.939 -0.7169 -0.4485  1.1536
 2170TIP3   OH2 6431   2.931   6.081   4.673 -0.2344  0.0069 -0.1449
 2170TIP3    H1 6432   2.901   5.994   4.700 -1.4761  0.3765 -0.2813
 2170TIP3    H2 6433   2.853   6.122   4.635  0.5556  0.8579 -0.8922
 2171TIP3   OH2 6434   8.588   6.344   0.225  0.6942 -0.1763  0.1240
 2171TIP3    H1 6435   8.528   6.417   0.243  0.8478 -0.2252  0.8541
 2171TIP3    H2 6436   8.622   6.319   0.311 -0.0027 -1.6633 -0.0042
 2172TIP3   OH2 6437   3.427   7.442   4.891 -0.2533 -0.1698 -0.1280
 2172TIP3    H1 6438   3.483   7.367   4.912 -2.3225 -1.8587 -0.3586
 2172TIP3    H2 6439   3.342   7.404   4.872 -1.2109  2.2085 -0.9761
 2173TIP3   OH2 6440   6.899   8.205   1.843 -0.4294  0.0988 -0.0217
 2173TIP3    H1 6441   6.941   8.215   1.757  1.6072 -0.3956  0.8418
 2173TIP3    H2 6442   6.828   8.142   1.828 -0.0619 -0.0426 -1.3352
 2174TIP3   OH2 6443   0.129   1.611   6.329 -0.6183 -0.1196 -0.4940
 2174TIP3    H1 6444   0.220   1.637   6.344 -0.6588 -0.8968  1.3889
 2174TIP3    H2 6445   0.083   1.694   6.314  0.1198  0.4466  0.2426
 2175TIP3   OH2 6446   6.137   1.660   0.300  0.1278  0.3453  0.3204
 2175TIP3    H1 6447   6.104   1.616   0.221 -0.0837 -2.4152  1.8114
 2175TIP3    H2 6448   6.229   1.677   0.281 -0.0622  0.2797 -0.7363
 2176TIP3   OH2 6449   3.537   4.072   4.934 -0.1876 -0.4970  0.2628
 2176TIP3    H1 6450   3.454   4.066   4.981 -0.1306 -0.2570  0.3953
 2176TIP3    H2 6451   3.604   4.056   5.000 -0.1321 -0.8165  0.1308
 2177TIP3   OH2 6452   8.497   2.600   5.953 -0.6654 -0.0411 -0.6060
 2177TIP3    H1 6453   8.403   2.602   5.968 -0.6163 -0.8639 -0.1303
 2177TIP3    H2 6454   8.521   2.507   5.961  0.7577  0.4765  3.0542
 2178TIP3   OH2 6455   8.297   1.608   3.010 -0.4418  0.2584 -0.3639
 2178TIP3    H1 6456   8.205   1.584   3.016 -0.1537 -0.7651  0.5337
 2178TIP3    H2 6457   8.325   1.576   2.924 -0.5926 -0.7576 -0.0509
 2179TIP3   OH2 6458   0.527   2.119   3.814  0.3397  0.0192  0.1212
 2179TIP3    H1 6459   0.487   2.188   3.867  0.5630  1.2990 -1.2766
 2179TIP3    H2 6460   0.461   2.098   3.749  1.3338  1.1509 -1.3415
 2180TIP3   OH2 6461   6.292   0.268   6.277  0.5876  0.2229 -0.2484
 2180TIP3    H1 6462   6.268   0.322   6.352  0.1233 -2.7553  1.9282
 2180TIP3    H2 6463   6.209   0.244   6.236  0.4929 -1.4267  0.8200
 2181TIP3   OH2 6464   0.698   0.604   5.011  0.3261 -0.2306  0.5703
 2181TIP3    H1 6465   0.672   0.528   4.958  0.7600 -0.6510  0.9428
 2181TIP3    H2 6466   0.646   0.676   4.976 -0.0568 -0.6858  0.1675
 2182TIP3   OH2 6467   4.802   0.943   4.114  0.5956  0.4180 -0.8475
 2182TIP3    H1 6468   4.813   0.853   4.146 -0.7003  0.1507 -1.0971
 2182TIP3    H2 6469   4.831   0.939   4.023  0.7054  0.2967 -0.8082
 2183TIP3   OH2 6470   3.324   7.155   0.006  0.2407  0.2089  0.3054
 2183TIP3    H1 6471   3.316   7.173   0.100  1.8331  1.5239  0.2362
 2183TIP3    H2 6472   3.234   7.154  -0.026 -0.4869 -2.0671  2.1094
 2184TIP3   OH2 6473   8.511   0.192   6.469 -0.1090 -0.2175  0.2200
 2184TIP3    H1 6474   8.522   0.223   6.559 -0.7431  1.3998 -0.2224
 2184TIP3    H2 6475   8.557   0.257   6.416 -0.1891 -0.8722 -0.6662
 2185TIP3   OH2 6476   3.634   7.951   3.520 -0.7652  0.0750 -0.4373
 2185TIP3    H1 6477   3.554   7.995   3.493 -0.6290  0.1564 -0.7189
 2185TIP3    H2 6478   3.699   7.977   3.454 -0.0264  1.4950  0.7939
 2186TIP3   OH2 6479   1.012   8.029   1.186 -0.2313 -0.3155 -0.5407
 2186TIP3    H1 6480   1.054   7.950   1.151 -0.9817 -1.5618  1.2703
 2186TIP3    H2 6481   1.084   8.092   1.193  0.8461 -1.5538  0.0475
 2187TIP3   OH2 6482   2.744   7.638   3.416 -0.3104 -0.4034  0.0122
 2187TIP3    H1 6483   2.660   7.680   3.437 -0.7498 -1.1594 -0.1747
 2187TIP3    H2 6484   2.808   7.708   3.422 -1.0029  0.2551 -0.1392
 2188TIP3   OH2 6485   3.963   7.030   5.664  0.0709  0.4005  0.1120
 2188TIP3    H1 6486   3.954   6.961   5.730  0.0336  0.8652  0.5994
 2188TIP3    H2 6487   4.015   6.990   5.595  1.7109  0.4674  1.2516
 2189TIP3   OH2 6488   5.679   6.185   2.279 -0.6181 -0.0605  0.5058
 2189TIP3    H1 6489   5.761   6.141   2.302 -1.6506 -1.3804  1.8780
 2189TIP3    H2 6490   5.642   6.131   2.209 -0.7723 -0.0409  0.5710
 2190TIP3   OH2 6491   5.370   2.497   0.435  0.6389 -0.0651 -0.2238
 2190TIP3    H1 6492   5.306   2.430   0.412  0.0326 -0.1778  1.6004
 2190TIP3    H2 6493   5.337   2.577   0.393 -0.1602 -0.3320 -0.1268
 2191TIP3   OH2 6494   6.341   6.811   3.826 -0.4972 -0.4596 -0.2995
 2191TIP3    H1 6495   6.274   6.874   3.851 -0.9019 -1.0758  0.2123
 2191TIP3    H2 6496   6.372   6.774   3.909  0.5819 -0.0846 -0.5220
 2192TIP3   OH2 6497   4.372   1.458   2.133  0.4210 -0.1731 -0.3092
 2192TIP3    H1 6498   4.368   1.394   2.062  1.9033 -0.0160 -0.5770
 2192TIP3    H2 6499   4.458   1.442   2.173  0.2248  0.7393  0.4950
 2193TIP3   OH2 6500   3.091   4.351   1.551  0.0062  0.3100  0.0981
 2193TIP3    H1 6501   3.112   4.440   1.579  1.1996 -0.8109  3.2253
 2193TIP3    H2 6502   3.160   4.328   1.489  0.8730  0.8939  0.8294
 2194TIP3   OH2 6503   5.663   1.497   3.507  0.0183 -0.5332  0.7125
 2194TIP3    H1 6504   5.757   1.513   3.516  0.2561 -1.1752 -0.4465
 2194TIP3    H2 6505   5.623   1.583   3.516  0.9906  0.2918 -1.8508
 2195TIP3   OH2 6506   6.519   7.020   1.510 -0.2563  0.2379  0.0628
 2195TIP3    H1 6507   6.543   7.046   1.599  1.4890  0.1859 -0.3547
 2195TIP3    H2 6508   6.504   7.103   1.464 -2.2558  0.2440  0.6473
 2196TIP3   OH2 6509   7.680   3.626   4.933  0.1656  0.8677 -0.3485
 2196TIP3    H1 6510   7.623   3.551   4.915 -0.7639  1.9205 -2.0561
 2196TIP3    H2 6511   7.637   3.672   5.005  1.1728 -0.6187  1.2748
 2197TIP3   OH2 6512   6.717   5.850   1.801 -0.4771  0.3502 -0.3103
 2197TIP3    H1 6513   6.768   5.824   1.878 -1.0678  0.0667 -0.0119
 2197TIP3    H2 6514   6.777   5.837   1.727  0.0200  0.4185  0.0774
 2198TIP3   OH2 6515   4.951   3.082   1.010  0.2769  0.2530  0.0128
 2198TIP3    H1 6516   4.921   3.005   1.059  0.3844 -0.2785 -0.7261
 2198TIP3    H2 6517   4.911   3.073   0.924  0.7592  0.7167 -0.2691
 2199TIP3   OH2 6518   4.913   8.100   6.662  0.0764 -0.2684 -0.0256
 2199TIP3    H1 6519   4.884   8.077   6.573  0.7445  0.0789 -0.3446
 2199TIP3    H2 6520   4.874   8.186   6.678 -0.0580 -0.3383  0.0218
 2200TIP3   OH2 6521   6.788   4.215   2.954 -0.0963  0.3444  0.2331
 2200TIP3    H1 6522   6.801   4.120   2.953  0.4354  0.4094 -1.3034
 2200TIP3    H2 6523   6.833   4.244   3.033 -1.5666 -0.8284  1.5821
 2201TIP3   OH2 6524   8.085   1.099   1.457 -0.0237  0.1449 -0.5781
 2201TIP3    H1 6525   8.024   1.061   1.393  1.0356  0.0352 -1.5643
 2201TIP3    H2 6526   8.171   1.069   1.428  0.3787 -1.2937  1.8786
 2202TIP3   OH2 6527   5.238   7.869   0.132 -0.2563 -0.1715 -0.1036
 2202TIP3    H1 6528   5.224   7.826   0.217 -0.5564  0.7410  0.3177
 2202TIP3    H2 6529   5.321   7.832   0.101 -0.4431 -0.9690  0.2943
 2203TIP3   OH2 6530   2.532   6.321   4.994  0.5743 -0.1376  0.1906
 2203TIP3    H1 6531   2.554   6.325   4.901  1.0441  0.6141  0.3277
 2203TIP3    H2 6532   2.608   6.282   5.035  0.1314 -1.0234  0.1972
 2204TIP3   OH2 6533   6.345   1.490   4.339  0.3802 -0.0874  0.2411
 2204TIP3    H1 6534   6.348   1.586   4.338 -0.7938 -0.0265  0.8067
 2204TIP3    H2 6535   6.377   1.464   4.253 -1.1390  0.8922 -0.6535
 2205TIP3   OH2 6536   8.646   7.792   4.864  0.0995  0.5101  0.4596
 2205TIP3    H1 6537   8.721   7.783   4.922 -0.1794 -0.0572  0.7410
 2205TIP3    H2 6538   8.669   7.740   4.787 -0.0946  0.1469  0.6432
 2206TIP3   OH2 6539   7.414   1.092   0.769 -0.4303 -0.2698 -0.1080
 2206TIP3    H1 6540   7.370   1.029   0.712  1.6809 -0.5671 -1.4952
 2206TIP3    H2 6541   7.468   1.037   0.827  0.0301  0.1676 -0.1156
 2207TIP3   OH2 6542   3.088   0.356   3.015  0.0784  0.3630 -0.0588
 2207TIP3    H1 6543   3.065   0.448   2.999 -1.5648 -0.1474 -0.7943
 2207TIP3    H2 6544   3.076   0.313   2.931 -0.7827 -0.8277  0.6415
 2208TIP3   OH2 6545   5.371   4.102   1.476 -0.3828 -0.2503  0.1034
 2208TIP3    H1 6546   5.380   4.053   1.394  1.1056  1.5022 -0.8622
 2208TIP3    H2 6547   5.321   4.044   1.533 -1.6382 -1.4725 -2.0904
 2209TIP3   OH2 6548   6.397   6.225   0.792 -0.4457 -0.2843 -0.3782
 2209TIP3    H1 6549   6.431   6.283   0.723  0.5087  0.8298  0.9683
 2209TIP3    H2 6550   6.308   6.256   0.808 -0.6187 -0.4512 -0.9849
 2210TIP3   OH2 6551   3.710   4.123   3.178  0.5267 -0.7467  0.3820
 2210TIP3    H1 6552   3.725   4.217   3.165  0.1208 -0.6090  0.8673
 2210TIP3    H2 6553   3.676   4.117   3.267  1.8033 -1.4963  0.8473
 2211TIP3   OH2 6554   3.926   6.281   0.776 -0.2585  0.0893 -0.2135
 2211TIP3    H1 6555   3.904   6.353   0.835 -1.0844  0.0429 -0.4476
 2211TIP3    H2 6556   3.934   6.323   0.690  1.1301  0.1890 -0.0630
 2212TIP3   OH2 6557   3.652   7.861   1.117 -0.2831  0.2813 -0.4064
 2212TIP3    H1 6558   3.642   7.859   1.213 -1.9415  0.3549 -0.5572
 2212TIP3    H2 6559   3.687   7.774   1.096 -3.1015 -1.0593 -0.0011
 2213TIP3   OH2 6560   4.786   8.216   6.934  0.3450 -0.4530 -0.3639
 2213TIP3    H1 6561   4.761   8.219   7.027  2.9136  2.2680  0.3973
 2213TIP3    H2 6562   4.847   8.143   6.928 -0.9525 -1.5898 -0.3196
 2214TIP3   OH2 6563   6.731   6.815   0.550  0.5161 -0.0960 -0.1988
 2214TIP3    H1 6564   6.644   6.854   0.545  0.4560 -0.1712  0.2429
 2214TIP3    H2 6565   6.716   6.721   0.547  0.6588 -0.1049 -1.2170
 2215TIP3   OH2 6566   8.354   6.660   5.091  0.2603  0.0700  0.1894
 2215TIP3    H1 6567   8.341   6.566   5.099  1.2260 -0.0471  0.5164
 2215TIP3    H2 6568   8.440   6.669   5.050  1.1605  0.7921  2.0842
 2216TIP3   OH2 6569   4.821   7.506   4.177  0.0674  0.0730 -0.0907
 2216TIP3    H1 6570   4.813   7.581   4.236  3.6038 -0.8294  1.8453
 2216TIP3    H2 6571   4.890   7.531   4.116 -0.9949 -0.4455 -1.5777
 2217TIP3   OH2 6572   5.019   1.193   4.088  0.1843  0.5510 -0.1039
 2217TIP3    H1 6573   4.946   1.229   4.037  0.0261 -0.8509 -0.9131
 2217TIP3    H2 6574   5.083   1.165   4.023  0.2561 -0.6959  0.4710
 2218TIP3   OH2 6575   2.795   7.896   1.755  0.1429  0.5766 -0.3154
 2218TIP3    H1 6576   2.839   7.813   1.739 -1.1255 -0.3911  0.9147
 2218TIP3    H2 6577   2.751   7.917   1.672 -0.8911 -0.8732 -0.1760
 2219TIP3   OH2 6578   3.775   2.048   6.067 -0.2853 -0.4628 -0.0889
 2219TIP3    H1 6579   3.683   2.062   6.087 -0.8171 -2.4068 -0.8824
 2219TIP3    H2 6580   3.806   1.988   6.135  0.5371  0.5376  0.4412
 2220TIP3   OH2 6581   6.059   5.620   0.940 -0.3602  0.4302  0.0099
 2220TIP3    H1 6582   6.079   5.526   0.942  1.0083  0.7114  0.7700
 2220TIP3    H2 6583   6.005   5.631   0.862  0.7161 -0.7585 -0.9552
 2221TIP3   OH2 6584   2.893   4.330   0.567 -0.0613  0.5288  0.9093
 2221TIP3    H1 6585   2.862   4.405   0.619  1.3281  0.8656  1.2842
 2221TIP3    H2 6586   2.949   4.369   0.500 -0.6454 -0.0482  0.0714
 2222TIP3   OH2 6587   5.857   1.251   6.741  0.1245  0.6425 -0.2802
 2222TIP3    H1 6588   5.910   1.243   6.661  1.4699  4.2237  0.0978
 2222TIP3    H2 6589   5.803   1.328   6.726 -1.7964 -0.3428  1.1754
 2223TIP3   OH2 6590   7.646   2.082   5.165 -0.2258 -0.0595 -0.1446
 2223TIP3    H1 6591   7.669   2.163   5.210  2.0616  0.2387 -1.6376
 2223TIP3    H2 6592   7.730   2.050   5.130 -1.3316 -2.1472 -1.0733
 2224TIP3   OH2 6593   1.422   2.838   0.284 -0.1999 -0.1454  0.3119
 2224TIP3    H1 6594   1.456   2.769   0.341 -0.9207  0.0133  0.9638
 2224TIP3    H2 6595   1.382   2.901   0.345  0.8052  1.0611 -0.2416
 2225TIP3   OH2 6596   5.503   1.594   4.794  0.2353 -0.1458  0.0599
 2225TIP3    H1 6597   5.522   1.604   4.700  0.3671 -0.8782  0.0030
 2225TIP3    H2 6598   5.533   1.506   4.815 -0.5883 -0.3021  0.6006
 2226TIP3   OH2 6599   4.179   4.903   5.627 -0.3103 -0.2705 -0.5579
 2226TIP3    H1 6600   4.107   4.938   5.680 -0.1827 -0.7230 -0.0742
 2226TIP3    H2 6601   4.156   4.926   5.537 -1.0761 -0.4312 -0.4147
 2227TIP3   OH2 6602   0.410   3.858   4.550  0.2138  0.3429  0.1040
 2227TIP3    H1 6603   0.483   3.796   4.557  0.8364  0.9386 -0.8755
 2227TIP3    H2 6604   0.403   3.876   4.456  0.0989  1.8052  0.3727
 2228TIP3   OH2 6605   3.452   1.394   6.871  0.3247 -0.2189 -0.4655
 2228TIP3    H1 6606   3.456   1.411   6.965 -1.9088 -0.2819 -0.3215
 2228TIP3    H2 6607   3.404   1.312   6.864 -1.2974  0.7904 -1.7223
 2229TIP3   OH2 6608   3.138   0.466   3.482 -0.5219 -0.1274 -0.1847
 2229TIP3    H1 6609   3.203   0.508   3.538  0.4625 -0.4820 -1.0383
 2229TIP3    H2 6610   3.189   0.414   3.421 -1.6455 -0.9077 -0.4807
 2230TIP3   OH2 6611   1.067   4.433   0.178  0.6787  0.1444  0.2880
 2230TIP3    H1 6612   1.053   4.512   0.126  0.3483 -0.7330 -0.9920
 2230TIP3    H2 6613   1.008   4.442   0.252  1.2760  1.4952  0.6284
 2231TIP3   OH2 6614   2.384   3.370   2.158 -0.2323 -0.9325 -0.7561
 2231TIP3    H1 6615   2.415   3.284   2.131 -1.6944 -1.6668 -0.1657
 2231TIP3    H2 6616   2.295   3.376   2.123 -0.7116 -0.2872  0.5239
 2232TIP3   OH2 6617   7.965   2.684   4.632  0.2021 -0.1050  0.4799
 2232TIP3    H1 6618   8.019   2.731   4.694  1.4127  0.0605 -0.6593
 2232TIP3    H2 6619   7.916   2.621   4.685 -0.3792  1.4388  1.8380
 2233TIP3   OH2 6620   0.578   7.706   0.319  0.4922 -0.0607 -0.5412
 2233TIP3    H1 6621   0.615   7.741   0.238 -0.5651  0.5916 -0.7655
 2233TIP3    H2 6622   0.653   7.697   0.378  1.0717  0.7738 -1.1289
 2234TIP3   OH2 6623   8.343   7.274   1.571 -0.1384  0.7075 -0.2945
 2234TIP3    H1 6624   8.250   7.256   1.556  0.0484 -0.9913  0.3415
 2234TIP3    H2 6625   8.368   7.334   1.500 -1.3163 -0.1343 -1.4686
 2235TIP3   OH2 6626   7.317   2.906   5.878 -0.2426 -0.3716  0.5459
 2235TIP3    H1 6627   7.284   2.817   5.869  1.6811 -1.4227  2.6560
 2235TIP3    H2 6628   7.348   2.911   5.969  0.7989  2.0600  0.1458
 2236TIP3   OH2 6629   5.073   6.209   3.824  0.3331 -0.7287  1.0824
 2236TIP3    H1 6630   5.097   6.116   3.832  0.8024 -0.6918  0.2006
 2236TIP3    H2 6631   5.141   6.255   3.873  1.0696 -0.7514  0.1141
 2237TIP3   OH2 6632   7.917   3.948   1.365 -0.8270 -0.5894  0.2859
 2237TIP3    H1 6633   7.890   4.039   1.350 -1.5981 -0.5958  1.4915
 2237TIP3    H2 6634   7.837   3.897   1.353 -0.3265 -1.1766 -0.7361
 2238TIP3   OH2 6635   8.302   0.414   5.886 -0.5216  0.2707 -0.1631
 2238TIP3    H1 6636   8.370   0.348   5.896 -1.1408 -0.6705 -1.7778
 2238TIP3    H2 6637   8.221   0.364   5.874 -1.2722  1.3434  0.2472
 2239TIP3   OH2 6638   7.200   1.718   0.386 -0.0974  0.5653 -0.3627
 2239TIP3    H1 6639   7.110   1.719   0.419 -0.1163 -0.7743 -0.3136
 2239TIP3    H2 6640   7.251   1.677   0.457  0.2027 -0.4682 -1.1498
 2240TIP3   OH2 6641   7.981   0.272   5.686  0.0402 -0.6200  0.4960
 2240TIP3    H1 6642   7.980   0.356   5.732 -1.7836 -0.4659  0.2403
 2240TIP3    H2 6643   8.074   0.252   5.675  0.5441 -0.0566  3.0993
 2241TIP3   OH2 6644   0.409   2.046   4.649  0.2785 -0.0864 -0.7087
 2241TIP3    H1 6645   0.350   2.080   4.581 -0.6989 -1.4171 -0.5693
 2241TIP3    H2 6646   0.469   1.989   4.601  0.1396 -0.3450 -0.5747
 2242TIP3   OH2 6647   3.710   1.232   0.624 -0.3495 -0.0862  0.3126
 2242TIP3    H1 6648   3.800   1.262   0.631 -0.1889 -0.2418 -0.8492
 2242TIP3    H2 6649   3.718   1.136   0.622 -0.5874 -0.1157  0.7531
 2243TIP3   OH2 6650   4.850   0.168   0.410  0.1000 -0.1986 -0.2114
 2243TIP3    H1 6651   4.847   0.073   0.416  1.5669 -0.1635  1.8442
 2243TIP3    H2 6652   4.903   0.196   0.484 -0.6128  2.2644 -0.5254
 2244TIP3   OH2 6653   5.591   2.776   6.754 -0.0390 -0.4482 -0.0281
 2244TIP3    H1 6654   5.634   2.859   6.777  1.3470 -1.3495  0.7807
 2244TIP3    H2 6655   5.502   2.785   6.788  0.5907  0.0944  1.5839
 2245TIP3   OH2 6656   3.650   7.730   7.089 -0.1335 -0.2238  0.1320
 2245TIP3    H1 6657   3.579   7.777   7.047 -0.6534 -0.2578  0.9498
 2245TIP3    H2 6658   3.643   7.640   7.056 -0.8343 -0.3625  0.6492
 2246TIP3   OH2 6659   0.307   7.848   4.864 -0.1553 -0.2937 -0.2788
 2246TIP3    H1 6660   0.382   7.853   4.805  0.5162 -0.0911  0.5646
 2246TIP3    H2 6661   0.318   7.765   4.910 -0.5224 -0.3277 -0.2485
 2247TIP3   OH2 6662   7.606   4.120   0.770 -0.3820  0.1845 -0.3358
 2247TIP3    H1 6663   7.698   4.115   0.743 -0.6851  1.5292 -1.7130
 2247TIP3    H2 6664   7.593   4.211   0.794 -1.3504 -0.0184 -0.0588
 2248TIP3   OH2 6665   3.767   2.771   6.783  0.4886 -0.6278  0.0561
 2248TIP3    H1 6666   3.756   2.860   6.750  1.7508  0.0961  1.4532
 2248TIP3    H2 6667   3.722   2.716   6.719  1.3911  0.8175 -1.9434
 2249TIP3   OH2 6668   4.287   7.495   6.360 -0.4928 -0.2916  0.3453
 2249TIP3    H1 6669   4.252   7.455   6.440 -1.6847  0.7045  0.3523
 2249TIP3    H2 6670   4.268   7.588   6.370 -0.5589 -0.1409 -1.0538
 2250TIP3   OH2 6671   7.844   6.677   4.392  0.0971 -0.4178 -0.1288
 2250TIP3    H1 6672   7.767   6.731   4.379  0.7854  0.2345 -1.9010
 2250TIP3    H2 6673   7.810   6.588   4.403 -1.0245  0.2654  2.4484
 2251TIP3   OH2 6674   0.216   0.364   2.676 -0.2219 -0.0578 -0.1407
 2251TIP3    H1 6675   0.273   0.319   2.614 -0.5065 -1.5354  0.6233
 2251TIP3    H2 6676   0.127   0.335   2.653 -0.5681  1.2916 -0.5687
 2252TIP3   OH2 6677   6.419   7.695   5.810 -0.6704  0.0845 -0.2488
 2252TIP3    H1 6678   6.350   7.704   5.876  1.9359 -2.0122  3.1385
 2252TIP3    H2 6679   6.481   7.766   5.829  0.1987 -0.6430 -0.2797
 2253TIP3   OH2 6680   3.926   5.240   1.424  0.1184  0.2417 -0.2339
 2253TIP3    H1 6681   3.905   5.321   1.470 -3.3136 -1.0596  0.7769
 2253TIP3    H2 6682   3.958   5.268   1.338  0.5522  2.6292  0.6248
 2254TIP3   OH2 6683   0.052   5.466   1.969 -0.8829 -0.2433  0.0577
 2254TIP3    H1 6684   0.024   5.554   1.993 -0.7234 -0.1439 -0.1187
 2254TIP3    H2 6685   0.121   5.480   1.904  0.3940 -0.4452  1.3219
 2255TIP3   OH2 6686   3.709   4.379   3.069 -0.4082  0.1133 -0.0881
 2255TIP3    H1 6687   3.752   4.453   3.111 -0.5510 -0.4370  1.0666
 2255TIP3    H2 6688   3.648   4.418   3.007 -2.3040  1.0971  2.2225
 2256TIP3   OH2 6689   8.145   6.588   5.703 -0.4184  0.0612 -0.2396
 2256TIP3    H1 6690   8.194   6.510   5.678 -0.6218 -0.1983  0.1583
 2256TIP3    H2 6691   8.200   6.661   5.676  0.6940 -0.2236  1.2072
 2257TIP3   OH2 6692   6.649   6.818   2.486 -0.5273  0.7475  0.2443
 2257TIP3    H1 6693   6.705   6.867   2.426  0.2326 -0.4189 -0.0414
 2257TIP3    H2 6694   6.668   6.854   2.573  0.3021  0.6991  0.0854
 2258TIP3   OH2 6695   6.607   0.228   1.769 -0.7460 -0.2253 -0.8078
 2258TIP3    H1 6696   6.621   0.279   1.849 -1.1724 -1.4801  0.1026
 2258TIP3    H2 6697   6.526   0.263   1.732 -0.2255  0.7714 -1.0415
 2259TIP3   OH2 6698   8.031   2.699   5.048  0.0779 -0.2254 -0.0435
 2259TIP3    H1 6699   7.978   2.778   5.045 -1.1495 -0.9642  1.0078
 2259TIP3    H2 6700   8.121   2.730   5.063 -0.6124  0.9387  2.2248
 2260TIP3   OH2 6701   0.573   4.098   5.934  0.1927 -0.4278 -0.0923
 2260TIP3    H1 6702   0.532   4.156   5.870 -0.1551  1.7565  1.9559
 2260TIP3    H2 6703   0.667   4.106   5.918  0.1024 -0.0135 -0.4260
 2261TIP3   OH2 6704   0.900   6.128   0.054  0.5350 -0.2990 -0.0020
 2261TIP3    H1 6705   0.841   6.055   0.035 -0.7715  0.9731 -1.1283
 2261TIP3    H2 6706   0.919   6.121   0.147 -1.4712 -0.7356  0.4051
 2262TIP3   OH2 6707   0.749   2.264   2.856 -0.0555 -0.3324  0.3349
 2262TIP3    H1 6708   0.706   2.224   2.780  0.9121 -0.4758 -0.1658
 2262TIP3    H2 6709   0.828   2.304   2.819  0.0092  0.3126  1.1498
 2263TIP3   OH2 6710   5.352   2.129   3.549  0.7156 -0.5912 -0.1408
 2263TIP3    H1 6711   5.327   2.102   3.461 -1.8818 -1.2058  0.6757
 2263TIP3    H2 6712   5.378   2.220   3.539 -1.2428 -0.0830 -1.3561
 2264TIP3   OH2 6713   7.152   7.038   2.479 -0.0513  0.1882  0.1703
 2264TIP3    H1 6714   7.147   7.130   2.503 -0.9559 -0.1324  1.3223
 2264TIP3    H2 6715   7.085   6.995   2.533 -0.6710 -0.9257 -1.3858
 2265TIP3   OH2 6716   3.387   0.310   2.002 -0.4556  0.1411 -0.1265
 2265TIP3    H1 6717   3.427   0.348   2.081 -0.4351  0.6038 -0.3555
 2265TIP3    H2 6718   3.305   0.358   1.992 -0.6716 -0.2317 -0.1319
 2266TIP3   OH2 6719   6.530   5.789   5.588 -0.5173 -0.1273 -0.6253
 2266TIP3    H1 6720   6.601   5.725   5.590  0.1586  0.6265  0.9077
 2266TIP3    H2 6721   6.559   5.854   5.523  0.9071  0.8864  0.9262
 2267TIP3   OH2 6722   0.778   5.245   0.683  0.0440 -0.0690 -0.1779
 2267TIP3    H1 6723   0.797   5.337   0.699 -0.3086  0.2696 -1.5886
 2267TIP3    H2 6724   0.785   5.234   0.588 -1.5910 -1.0976 -0.2319
 2268TIP3   OH2 6725   1.245   1.724   6.488  0.4322  0.3350  0.0902
 2268TIP3    H1 6726   1.203   1.664   6.427 -0.6911  2.1484 -1.0423
 2268TIP3    H2 6727   1.213   1.697   6.575 -0.3120 -0.4708 -0.4209
 2269TIP3   OH2 6728   7.014   2.045   6.821  0.2488  0.1713 -0.2428
 2269TIP3    H1 6729   6.965   1.991   6.884  0.2665  0.9094  0.4219
 2269TIP3    H2 6730   6.985   2.135   6.840  0.8620  0.4773 -0.7494
 2270TIP3   OH2 6731   2.015   1.793   3.989 -0.0132 -0.5730 -0.2527
 2270TIP3    H1 6732   2.093   1.792   3.934  0.5628 -1.1709  0.5436
 2270TIP3    H2 6733   1.943   1.774   3.929  0.5788 -1.0467 -0.8268
 2271TIP3   OH2 6734   5.177   3.198   3.876  0.1849 -0.2679 -0.5045
 2271TIP3    H1 6735   5.111   3.188   3.946 -0.9311 -0.2776 -1.5272
 2271TIP3    H2 6736   5.255   3.227   3.922  0.1081 -2.2649  1.0497
 2272TIP3   OH2 6737   8.557   1.728   6.044 -0.2114 -0.2891 -0.0250
 2272TIP3    H1 6738   8.636   1.762   6.085 -0.3711 -0.1018  0.1296
 2272TIP3    H2 6739   8.509   1.806   6.016 -1.1037 -0.3214  1.3042
 2273TIP3   OH2 6740   2.029   7.401   4.928 -0.5003  0.1950 -0.2235
 2273TIP3    H1 6741   2.000   7.368   4.843  0.0026  1.3265 -0.8544
 2273TIP3    H2 6742   2.075   7.327   4.968 -1.0144 -0.4476 -0.7966
 2274TIP3   OH2 6743   6.403   3.588   5.568 -0.4917 -0.0711 -0.0039
 2274TIP3    H1 6744   6.421   3.658   5.631 -0.2878  0.1476 -0.3025
 2274TIP3    H2 6745   6.313   3.606   5.538  0.1870  1.1822 -1.4700
 2275TIP3   OH2 6746   0.486   7.973   0.454 -0.5536 -0.1913 -0.0928
 2275TIP3    H1 6747   0.558   8.001   0.398 -1.3280  0.6612 -0.6871
 2275TIP3    H2 6748   0.449   7.897   0.410  0.0489 -0.7136  0.2823
 2276TIP3   OH2 6749   5.919   5.183   3.130 -0.0092  0.4559  0.5451
 2276TIP3    H1 6750   5.995   5.135   3.163  0.4891  0.9610  0.1476
 2276TIP3    H2 6751   5.923   5.267   3.176 -1.4313 -0.2046  1.9844
 2277TIP3   OH2 6752   2.009   7.715   4.504 -0.3028  0.0833 -0.7032
 2277TIP3    H1 6753   2.063   7.650   4.550 -1.5818 -1.6820 -1.5843
 2277TIP3    H2 6754   1.919   7.682   4.512 -1.0852  2.0579 -0.7193
 2278TIP3   OH2 6755   0.393   3.374   3.608  0.2089 -0.5769  0.2541
 2278TIP3    H1 6756   0.406   3.357   3.515  0.3395 -4.0962  0.7802
 2278TIP3    H2 6757   0.372   3.467   3.613  0.6907 -0.1650 -3.2104
 2279TIP3   OH2 6758   5.876   5.155   1.638  0.8458 -0.4880  0.1638
 2279TIP3    H1 6759   5.911   5.113   1.716 -0.1960  0.3557  1.1215
 2279TIP3    H2 6760   5.783   5.165   1.656  0.8755  1.2797 -0.4553
 2280TIP3   OH2 6761   1.318   5.200   6.006 -0.3347 -0.3540 -0.1028
 2280TIP3    H1 6762   1.253   5.198   6.076  0.7329 -0.4988  0.9009
 2280TIP3    H2 6763   1.386   5.139   6.034 -0.4271 -1.3300 -1.8247
 2281TIP3   OH2 6764   7.078   6.191   2.696 -0.1103 -0.1494  0.0486
 2281TIP3    H1 6765   6.992   6.212   2.733  0.7127 -0.1842  2.0700
 2281TIP3    H2 6766   7.130   6.161   2.770  1.8930  0.5860 -0.9876
 2282TIP3   OH2 6767   6.019   5.455   3.239 -0.3198  0.1186  0.0634
 2282TIP3    H1 6768   5.957   5.511   3.287 -0.5490  1.3950 -1.6504
 2282TIP3    H2 6769   6.007   5.478   3.147  3.9957  1.8490 -0.3002
 2283TIP3   OH2 6770   3.241   6.443   4.434 -0.3297  0.2144  0.1511
 2283TIP3    H1 6771   3.166   6.464   4.378 -0.7700  0.2330  0.7399
 2283TIP3    H2 6772   3.202   6.411   4.516  0.3154 -2.1523 -0.4024
 2284TIP3   OH2 6773   2.400   3.416   2.421 -0.5033  0.3541  0.3910
 2284TIP3    H1 6774   2.491   3.386   2.412 -0.5259  0.7442 -1.6289
 2284TIP3    H2 6775   2.366   3.414   2.332 -3.0079 -1.2872  1.2950
 2285TIP3   OH2 6776   6.871   7.778   2.709  0.0282 -0.4286  0.2292
 2285TIP3    H1 6777   6.797   7.796   2.650 -0.6752 -1.3983  0.7867
 2285TIP3    H2 6778   6.945   7.767   2.650 -0.2399  0.5935 -0.3441
 2286TIP3   OH2 6779   4.926   1.803   4.594 -0.7035 -0.8272 -0.2825
 2286TIP3    H1 6780   4.909   1.838   4.681 -2.4088 -0.4721 -0.7222
 2286TIP3    H2 6781   5.021   1.795   4.589 -0.3268  2.1667  0.4565
 2287TIP3   OH2 6782   5.958   3.791   4.992 -0.0825 -0.2882 -0.3092
 2287TIP3    H1 6783   6.050   3.767   4.996  0.0202 -0.2604 -1.9064
 2287TIP3    H2 6784   5.910   3.708   4.999  0.0844 -0.3835 -0.3023
 2288TIP3   OH2 6785   4.020   3.774   5.664  0.0300 -0.5598 -0.3569
 2288TIP3    H1 6786   4.024   3.685   5.700 -0.8770 -1.0810 -1.4975
 2288TIP3    H2 6787   3.930   3.784   5.636  0.0008  0.9330  0.2148
 2289TIP3   OH2 6788   7.695   2.605   7.071  0.6699 -0.3553 -0.2232
 2289TIP3    H1 6789   7.610   2.648   7.059  0.4492 -0.9847 -0.9970
 2289TIP3    H2 6790   7.674   2.512   7.074  1.0894 -0.4265  1.8632
 2290TIP3   OH2 6791   3.103   8.046   4.035  0.0355 -0.9232 -0.5173
 2290TIP3    H1 6792   3.102   7.976   3.969 -2.2968 -0.5571 -0.9614
 2290TIP3    H2 6793   3.121   8.126   3.986  0.8842 -0.9692 -0.2918
 2291TIP3   OH2 6794   7.287   7.136   3.669  0.0061 -0.2553 -0.1186
 2291TIP3    H1 6795   7.303   7.125   3.575  0.7932  1.0181 -0.1500
 2291TIP3    H2 6796   7.243   7.221   3.676  1.4151  0.4269  0.8006
 2292TIP3   OH2 6797   2.202   1.441   6.421 -0.2446 -0.2578  0.0048
 2292TIP3    H1 6798   2.152   1.429   6.502 -1.7377  0.7022 -0.7462
 2292TIP3    H2 6799   2.293   1.450   6.451 -0.5640 -1.3603  1.4497
 2293TIP3   OH2 6800   7.111   7.997   5.770 -0.1828  0.9047 -0.0181
 2293TIP3    H1 6801   7.174   8.026   5.837 -0.8659  1.1885  0.5115
 2293TIP3    H2 6802   7.027   8.033   5.799 -1.0516 -1.3939  0.5532
 2294TIP3   OH2 6803   0.044   8.171   5.571  0.9046  0.1088  0.2020
 2294TIP3    H1 6804   0.083   8.105   5.629 -0.4105 -0.2560  0.6919
 2294TIP3    H2 6805   0.090   8.252   5.593  1.4677 -0.3258  0.6723
 2295TIP3   OH2 6806   4.941   3.395   4.625  0.2486 -0.4977  0.7375
 2295TIP3    H1 6807   4.867   3.426   4.573 -0.4979 -1.6060  1.1034
 2295TIP3    H2 6808   4.999   3.470   4.631 -0.6930  0.2984  0.1687
 2296TIP3   OH2 6809   5.020   4.548   1.640 -0.7765  0.2523  1.0295
 2296TIP3    H1 6810   5.109   4.573   1.665  0.1146  0.7301 -2.1386
 2296TIP3    H2 6811   5.020   4.453   1.642  0.4384  0.1669 -0.5638
 2297TIP3   OH2 6812   7.455   2.970   5.206 -0.2494  0.1561  0.6597
 2297TIP3    H1 6813   7.430   2.922   5.285 -0.7719  1.1533  1.1234
 2297TIP3    H2 6814   7.374   3.013   5.178 -0.4193 -1.2260 -1.2027
 2298TIP3   OH2 6815   6.479   1.408   6.702  0.4218  0.5151  0.6408
 2298TIP3    H1 6816   6.467   1.471   6.631  0.7579 -0.1362 -0.0093
 2298TIP3    H2 6817   6.572   1.387   6.700  0.2321 -0.3610  0.5304
 2299TIP3   OH2 6818   6.157   6.835   4.797 -0.4625  0.5980  0.0473
 2299TIP3    H1 6819   6.200   6.920   4.802 -0.0015  0.3043  2.7342
 2299TIP3    H2 6820   6.064   6.855   4.808 -0.7290  0.9329 -2.2899
 2300TIP3   OH2 6821   3.836   7.078   6.021  0.5586  0.3071 -0.3890
 2300TIP3    H1 6822   3.859   7.023   5.947  0.3143 -2.3655  1.3832
 2300TIP3    H2 6823   3.740   7.074   6.025  0.5291  0.9589 -0.2758
 2301TIP3   OH2 6824   0.500   4.502   0.424  0.8141 -0.3943 -0.3638
 2301TIP3    H1 6825   0.541   4.429   0.470  0.0266 -1.2579 -1.0049
 2301TIP3    H2 6826   0.515   4.577   0.481  1.8442 -1.0052  0.1922
 2302TIP3   OH2 6827   5.452   0.338   4.733  0.5349 -0.0162  0.2561
 2302TIP3    H1 6828   5.448   0.422   4.688 -0.3569  0.8827  1.9329
 2302TIP3    H2 6829   5.536   0.341   4.780  1.0347 -0.5647 -0.5794
 2303TIP3   OH2 6830   8.229   5.588   6.999  0.1965  0.3914 -0.1921
 2303TIP3    H1 6831   8.298   5.609   6.936  0.7477  0.7190  0.4964
 2303TIP3    H2 6832   8.204   5.498   6.979 -0.1490  0.7282 -1.3331
 2304TIP3   OH2 6833   4.059   4.796   4.589 -0.0698  0.7806  0.2123
 2304TIP3    H1 6834   4.092   4.763   4.672 -0.1509  0.9098  0.2966
 2304TIP3    H2 6835   4.092   4.886   4.583 -0.8132  1.0915  0.5382
 2305TIP3   OH2 6836   3.150   6.448   2.691 -0.6473 -0.2878 -0.2328
 2305TIP3    H1 6837   3.078   6.493   2.646 -1.3126 -1.7907 -0.7479
 2305TIP3    H2 6838   3.109   6.371   2.731  0.3853 -0.2744  0.9060
 2306TIP3   OH2 6839   5.015   3.650   5.847  0.3247  0.1765  0.5454
 2306TIP3    H1 6840   5.082   3.583   5.860 -0.4357 -0.7464 -0.1197
 2306TIP3    H2 6841   4.988   3.640   5.756  0.9677  2.1529  0.0863
 2307TIP3   OH2 6842   2.381   7.189   6.786 -0.0352  0.1847  0.2601
 2307TIP3    H1 6843   2.441   7.179   6.711 -0.6338 -1.0156 -0.0842
 2307TIP3    H2 6844   2.415   7.128   6.851 -0.3578  0.1668  0.4113
 2308TIP3   OH2 6845   4.354   0.397   4.879  0.0785  0.5912 -0.4600
 2308TIP3    H1 6846   4.278   0.455   4.870 -0.1963  0.3839  0.4192
 2308TIP3    H2 6847   4.415   0.426   4.812 -1.1713  0.1429 -1.8458
 2309TIP3   OH2 6848   3.821   1.487   5.446  0.2008  0.1352 -0.3728
 2309TIP3    H1 6849   3.872   1.564   5.471  0.6468 -0.5274  0.8239
 2309TIP3    H2 6850   3.730   1.513   5.462  0.3009  0.6223 -0.5744
 2310TIP3   OH2 6851   2.234   4.745   1.161 -0.2292 -0.1817  0.2665
 2310TIP3    H1 6852   2.205   4.657   1.136 -0.5468 -0.3614  1.2169
 2310TIP3    H2 6853   2.154   4.788   1.192 -0.2300  0.7210 -0.9305
 2311TIP3   OH2 6854   1.755   6.545   5.408 -0.1607  0.4126 -0.1982
 2311TIP3    H1 6855   1.725   6.515   5.322  0.6720  2.9691 -1.4783
 2311TIP3    H2 6856   1.782   6.636   5.394  0.9770  0.6024  2.5662
 2312TIP3   OH2 6857   7.803   4.115   1.954 -0.1188  0.1900 -0.4573
 2312TIP3    H1 6858   7.768   4.029   1.931  0.7826 -0.4078  0.3116
 2312TIP3    H2 6859   7.890   4.118   1.913 -0.8268  1.4743 -1.9712
 2313TIP3   OH2 6860   2.529   2.276   2.725 -0.5454  0.0967 -0.7485
 2313TIP3    H1 6861   2.434   2.281   2.740 -0.5542 -0.8001 -0.4474
 2313TIP3    H2 6862   2.541   2.197   2.672  0.2772 -1.4782  1.6067
 2314TIP3   OH2 6863   3.624   3.556   3.539  0.7556 -0.1332 -0.1218
 2314TIP3    H1 6864   3.670   3.476   3.513  0.3952  0.0355 -1.3454
 2314TIP3    H2 6865   3.535   3.544   3.505  0.4235  0.3743  0.5436
 2315TIP3   OH2 6866   6.017   4.768   3.057  0.1784  0.2249 -0.3124
 2315TIP3    H1 6867   5.950   4.836   3.057 -1.7981 -1.5485 -2.1668
 2315TIP3    H2 6868   6.030   4.747   3.150 -0.7764  1.6133  0.1603
 2316TIP3   OH2 6869   0.990   2.414   5.895  0.1574 -0.2073 -0.6355
 2316TIP3    H1 6870   0.895   2.410   5.900 -0.0025  0.1815 -2.5950
 2316TIP3    H2 6871   1.016   2.461   5.974 -1.0645 -2.1360  1.0189
 2317TIP3   OH2 6872   1.001   6.086   6.947  0.1221 -0.1158  0.0878
 2317TIP3    H1 6873   0.970   6.165   6.992 -0.9255  0.0536 -0.8950
 2317TIP3    H2 6874   1.061   6.045   7.010  0.2423  1.1518  0.8438
 2318TIP3   OH2 6875   5.563   7.696   2.289  0.0304  0.0142  0.2814
 2318TIP3    H1 6876   5.613   7.666   2.213 -0.1379 -0.4283  0.3414
 2318TIP3    H2 6877   5.582   7.631   2.356  1.3732  1.1824  1.1050
 2319TIP3   OH2 6878   4.769   5.507   4.011  0.3554  0.0600 -0.4988
 2319TIP3    H1 6879   4.805   5.525   4.097  3.1312 -0.4790 -1.4477
 2319TIP3    H2 6880   4.707   5.578   3.995 -0.1782  0.2001  1.8539
 2320TIP3   OH2 6881   3.417   7.305   5.644 -0.2246 -0.5859 -0.4109
 2320TIP3    H1 6882   3.412   7.262   5.558  0.2794 -1.2114 -0.1374
 2320TIP3    H2 6883   3.505   7.344   5.646 -0.8582  0.9461 -0.8658
 2321TIP3   OH2 6884   1.653   0.523   4.206  0.1004  0.4261 -0.2717
 2321TIP3    H1 6885   1.655   0.440   4.252  0.7286  1.4307  1.6285
 2321TIP3    H2 6886   1.582   0.572   4.248 -0.3303  0.8455 -1.4216
 2322TIP3   OH2 6887   4.475   1.146   4.410 -0.4414  0.2917  0.5283
 2322TIP3    H1 6888   4.501   1.137   4.319 -0.2763  1.5658  0.4378
 2322TIP3    H2 6889   4.445   1.058   4.435 -0.3432 -0.1067 -0.6937
 2323TIP3   OH2 6890   2.935   0.226   2.214  0.4553  0.0128 -0.4267
 2323TIP3    H1 6891   2.982   0.159   2.164  2.1082  0.2665  0.6915
 2323TIP3    H2 6892   2.908   0.181   2.294 -0.5004  0.0946 -0.6985
 2324TIP3   OH2 6893   0.233   3.865   3.127  0.0775  0.0526  0.2746
 2324TIP3    H1 6894   0.138   3.851   3.127  0.0018  0.5195  1.0318
 2324TIP3    H2 6895   0.265   3.805   3.195  0.2316  0.4909  0.5880
 2325TIP3   OH2 6896   2.624   2.322   4.877 -0.5355  0.3427  0.3817
 2325TIP3    H1 6897   2.655   2.236   4.903  1.1359  0.7425 -0.2082
 2325TIP3    H2 6898   2.661   2.381   4.943 -0.9630  0.7083  0.2988
 2326TIP3   OH2 6899   8.586   3.193   6.884  0.3446  0.0057 -0.3241
 2326TIP3    H1 6900   8.569   3.199   6.978 -3.6126 -0.2963 -0.8430
 2326TIP3    H2 6901   8.537   3.266   6.846  1.3365 -0.2473 -2.2153
 2327TIP3   OH2 6902   5.557   3.444   1.564 -0.3248 -0.1767 -0.4990
 2327TIP3    H1 6903   5.553   3.358   1.606 -1.7921 -1.1107 -2.4001
 2327TIP3    H2 6904   5.466   3.463   1.541  0.3514  0.3962 -2.9295
 2328TIP3   OH2 6905   8.097   6.586   1.208 -0.3474 -0.5113 -0.3507
 2328TIP3    H1 6906   8.075   6.542   1.290  0.2294  0.2925  0.2478
 2328TIP3    H2 6907   8.191   6.602   1.213 -0.2834 -0.5249 -1.2116
 2329TIP3   OH2 6908   5.170   0.379   6.428 -0.7026  0.0659  0.5401
 2329TIP3    H1 6909   5.169   0.338   6.342  0.5437  1.5689 -0.2428
 2329TIP3    H2 6910   5.178   0.306   6.490  2.9251 -0.9237 -0.8421
 2330TIP3   OH2 6911   3.335   2.812   5.101 -0.4229  0.2835 -0.0044
 2330TIP3    H1 6912   3.326   2.744   5.168  2.5683  0.2311  0.4860
 2330TIP3    H2 6913   3.395   2.774   5.037  0.3916  2.0111 -0.3241
 2331TIP3   OH2 6914   5.813   7.211   6.731 -0.4215 -0.2874 -0.2336
 2331TIP3    H1 6915   5.747   7.229   6.798 -0.2720 -0.2357 -0.0987
 2331TIP3    H2 6916   5.880   7.159   6.776 -1.1838 -1.8169 -0.7903
 2332TIP3   OH2 6917   1.690   4.646   5.246 -0.1610 -0.5010  0.3954
 2332TIP3    H1 6918   1.597   4.631   5.264 -0.8419 -0.6287 -2.6838
 2332TIP3    H2 6919   1.732   4.563   5.270 -1.1675 -1.1542 -0.0076
 2333TIP3   OH2 6920   6.463   0.212   2.768  0.4904 -0.3656 -0.0669
 2333TIP3    H1 6921   6.401   0.263   2.820  0.6131 -0.1363 -0.1456
 2333TIP3    H2 6922   6.493   0.272   2.700  1.5397 -0.1719  0.5436
 2334TIP3   OH2 6923   3.779   6.321   2.699  0.1681  0.1091  0.0281
 2334TIP3    H1 6924   3.703   6.267   2.679 -0.3640 -0.7035  3.6410
 2334TIP3    H2 6925   3.849   6.285   2.644 -1.0387 -1.9048 -0.2833
 2335TIP3   OH2 6926   8.011   7.726   3.538 -0.6418 -0.4365  0.0959
 2335TIP3    H1 6927   7.971   7.740   3.453  0.2982 -1.2995 -0.5135
 2335TIP3    H2 6928   7.947   7.760   3.601 -1.1350  0.6383 -0.9614
 2336TIP3   OH2 6929   2.723   7.698   5.397 -0.6199 -0.9707 -0.0932
 2336TIP3    H1 6930   2.814   7.687   5.368 -0.5985  1.0241 -0.9776
 2336TIP3    H2 6931   2.730   7.722   5.489 -0.0186  1.5458 -0.7211
 2337TIP3   OH2 6932   1.907   1.666   3.000  0.1593 -0.0132  0.0273
 2337TIP3    H1 6933   1.981   1.727   3.001  0.4588 -0.3764  0.3689
 2337TIP3    H2 6934   1.939   1.590   2.952 -1.8631  2.0630 -5.3741
 2338TIP3   OH2 6935   0.892   7.913   0.864  0.0470 -0.8915  0.4492
 2338TIP3    H1 6936   0.907   7.831   0.818 -0.7595  0.1320 -1.7660
 2338TIP3    H2 6937   0.978   7.954   0.869 -0.1759  0.2922 -2.9251
 2339TIP3   OH2 6938   0.844   5.659   0.028  0.3373  0.4452 -0.1546
 2339TIP3    H1 6939   0.927   5.627  -0.008 -0.2954 -0.3527 -0.9654
 2339TIP3    H2 6940   0.791   5.580   0.037  0.0366  0.7977  1.4012
 2340TIP3   OH2 6941   2.994   1.239   4.663  0.1910 -0.7502  0.0793
 2340TIP3    H1 6942   2.956   1.159   4.627  0.5638 -0.3320 -1.2955
 2340TIP3    H2 6943   3.087   1.233   4.642  0.3947 -0.4137  0.8499
 2341TIP3   OH2 6944   4.701   2.227   4.392  0.2803 -0.5157  0.2692
 2341TIP3    H1 6945   4.772   2.176   4.353  0.6480 -1.7948  2.4762
 2341TIP3    H2 6946   4.623   2.174   4.376  0.1692 -0.2433 -0.1138
 2342TIP3   OH2 6947   7.376   3.074   1.930  0.3641  0.5074 -0.1001
 2342TIP3    H1 6948   7.406   3.026   2.008  0.6575  0.9769  0.0834
 2342TIP3    H2 6949   7.315   3.014   1.887  2.2106 -0.8375 -0.9583
 2343TIP3   OH2 6950   1.400   4.207   6.848 -0.0530  0.0195 -0.0803
 2343TIP3    H1 6951   1.389   4.239   6.938  1.0185  0.5348 -0.1149
 2343TIP3    H2 6952   1.413   4.286   6.796  0.2069 -0.3260 -0.5483
 2344TIP3   OH2 6953   1.827   7.914   4.720 -0.0551  0.1227  0.6769
 2344TIP3    H1 6954   1.917   7.914   4.685  0.3058  1.6181  1.5043
 2344TIP3    H2 6955   1.817   7.827   4.759  0.3248 -0.7771 -1.1008
 2345TIP3   OH2 6956   4.735   5.343   2.108 -0.0747  0.2684  0.0068
 2345TIP3    H1 6957   4.800   5.407   2.137  0.0381 -0.4592  1.4062
 2345TIP3    H2 6958   4.655   5.367   2.156 -0.1986 -0.2686  0.0742
 2346TIP3   OH2 6959   2.247   0.500   3.386 -0.6832  0.1015  0.4553
 2346TIP3    H1 6960   2.174   0.444   3.410 -2.4423  1.5010 -1.3432
 2346TIP3    H2 6961   2.223   0.586   3.422  0.9290  0.2452  1.2974
 2347TIP3   OH2 6962   1.308   1.020   2.552 -0.0978 -0.9769  0.4820
 2347TIP3    H1 6963   1.240   1.034   2.486 -0.7252 -2.3252  0.8075
 2347TIP3    H2 6964   1.312   0.925   2.562 -0.0992 -0.7988  2.4690
 2348TIP3   OH2 6965   7.729   5.872   3.696  0.5444 -0.0876 -0.5975
 2348TIP3    H1 6966   7.748   5.926   3.772 -1.1205 -1.1344  0.6426
 2348TIP3    H2 6967   7.815   5.851   3.659  1.3511  1.0676  0.5362
 2349TIP3   OH2 6968   2.641   0.720   3.051  0.3744  0.0632 -0.1809
 2349TIP3    H1 6969   2.643   0.715   3.147 -0.8531 -0.1441 -0.1512
 2349TIP3    H2 6970   2.722   0.676   3.024 -0.6621 -2.5839  0.7059
 2350TIP3   OH2 6971   0.435   0.433   4.725 -0.5366  0.1649  0.2891
 2350TIP3    H1 6972   0.457   0.512   4.676  1.8002 -0.4074  0.3128
 2350TIP3    H2 6973   0.509   0.374   4.711 -1.4625 -1.4090  1.5935
 2351TIP3   OH2 6974   0.386   0.087   5.760  0.0512 -0.4529 -0.0387
 2351TIP3    H1 6975   0.377   0.146   5.685  0.0875 -1.7005 -1.0686
 2351TIP3    H2 6976   0.464   0.035   5.739 -0.5126 -1.4855  0.3727
 2352TIP3   OH2 6977   4.173   7.510   0.914 -0.5126  0.0064 -0.3723
 2352TIP3    H1 6978   4.177   7.432   0.859  2.2732 -0.1515 -0.0830
 2352TIP3    H2 6979   4.250   7.561   0.888  0.1514  0.5514  2.4282
 2353TIP3   OH2 6980   4.250   2.478   2.674 -0.0017  0.4434  0.1061
 2353TIP3    H1 6981   4.231   2.392   2.637  2.2839 -0.3572  0.6802
 2353TIP3    H2 6982   4.227   2.470   2.767 -2.2986  1.3409 -0.3104
 2354TIP3   OH2 6983   8.431   7.194   1.182 -0.0597 -1.0130  0.8618
 2354TIP3    H1 6984   8.526   7.197   1.187  0.0638 -3.5918  1.6385
 2354TIP3    H2 6985   8.405   7.147   1.261 -1.9786 -0.4939  0.5810
 2355TIP3   OH2 6986   0.438   2.946   3.161  0.1902  0.0878 -0.2503
 2355TIP3    H1 6987   0.374   2.947   3.233 -0.9183  0.2451 -1.2161
 2355TIP3    H2 6988   0.483   2.862   3.171 -1.3485 -0.8140 -0.5446
 2356TIP3   OH2 6989   6.828   2.855   1.394  0.2642 -0.0867 -0.1083
 2356TIP3    H1 6990   6.779   2.777   1.420  0.7430  0.0795  1.3901
 2356TIP3    H2 6991   6.909   2.821   1.358  1.4545 -0.3389  2.5484
 2357TIP3   OH2 6992   0.674   2.990   6.041  0.4373 -0.2521 -0.4030
 2357TIP3    H1 6993   0.660   2.987   6.136  0.6368 -0.5251 -0.3808
 2357TIP3    H2 6994   0.770   2.986   6.031  0.3756 -2.0097 -0.6689
 2358TIP3   OH2 6995   7.061   4.647   3.480  0.7244  0.3478 -0.1344
 2358TIP3    H1 6996   7.036   4.718   3.421 -0.3734  0.8654  0.9183
 2358TIP3    H2 6997   6.980   4.598   3.494  0.8918  0.4141  1.1830
 2359TIP3   OH2 6998   6.127   3.432   1.572 -0.1481  0.0766  0.1751
 2359TIP3    H1 6999   6.159   3.489   1.502 -0.9102 -0.6941 -0.8361
 2359TIP3    H2 7000   6.042   3.401   1.541 -1.2642  0.9399  2.1381
 2360TIP3   OH2 7001   4.748   2.511   6.138  0.5363  0.4495  0.4332
 2360TIP3    H1 7002   4.822   2.464   6.177 -2.0759 -1.0555  4.2154
 2360TIP3    H2 7003   4.749   2.597   6.180 -0.6730 -0.1603  1.7981
 2361TIP3   OH2 7004   3.566   4.002   6.738 -0.2129  0.3380  0.0705
 2361TIP3    H1 7005   3.659   4.008   6.760 -0.3668 -1.0083  1.1643
 2361TIP3    H2 7006   3.554   3.912   6.709 -1.0683  0.6773 -0.6767
 2362TIP3   OH2 7007   5.493   2.678   2.833  0.0472 -0.2729  0.0745
 2362TIP3    H1 7008   5.527   2.747   2.890 -1.5308 -0.3127  1.1229
 2362TIP3    H2 7009   5.558   2.608   2.839 -0.4605 -0.6173  2.5334
 2363TIP3   OH2 7010   0.915   2.475   2.504  0.2167 -0.0233  0.3152
 2363TIP3    H1 7011   0.944   2.435   2.586 -0.1977  0.3149  0.6309
 2363TIP3    H2 7012   0.933   2.568   2.514  1.9120 -0.1883 -0.7359
 2364TIP3   OH2 7013   5.928   2.972   1.596  0.0092 -0.1641  0.6690
 2364TIP3    H1 7014   6.017   2.996   1.569 -0.1439 -0.3330  0.0011
 2364TIP3    H2 7015   5.872   3.004   1.525 -0.4638 -0.0483  1.0926
 2365TIP3   OH2 7016   1.587   0.332   5.593 -0.1187  0.3557 -0.2609
 2365TIP3    H1 7017   1.620   0.301   5.677 -1.5576  1.9550  0.9777
 2365TIP3    H2 7018   1.583   0.254   5.539 -1.6986 -1.3153  2.0463
 2366TIP3   OH2 7019   4.279   0.239   6.403  0.7365  0.4350 -0.2788
 2366TIP3    H1 7020   4.353   0.183   6.379  0.8271  0.6761 -0.5656
 2366TIP3    H2 7021   4.231   0.188   6.468  0.8329  0.0356 -0.5159
 2367TIP3   OH2 7022   4.716   4.298   2.823  0.2255  0.1084  0.3553
 2367TIP3    H1 7023   4.724   4.364   2.891 -0.2592  1.1511 -0.5707
 2367TIP3    H2 7024   4.655   4.233   2.859 -1.4384  1.5532  0.2764
 2368TIP3   OH2 7025   5.105   5.391   4.467  0.2436 -0.0055  0.1467
 2368TIP3    H1 7026   5.178   5.395   4.405 -0.7169 -0.8559 -1.0982
 2368TIP3    H2 7027   5.127   5.454   4.535  2.1673 -0.3160 -0.1508
 2369TIP3   OH2 7028   6.499   5.286   3.123  0.3173 -0.0201  0.1129
 2369TIP3    H1 7029   6.571   5.314   3.180  1.6667 -1.9328 -0.5186
 2369TIP3    H2 7030   6.456   5.367   3.096  1.3114  1.0910  1.7040
 2370TIP3   OH2 7031   5.545   7.277   5.848  0.3411  0.5306  0.1057
 2370TIP3    H1 7032   5.610   7.248   5.783 -0.2857 -0.7200  0.0177
 2370TIP3    H2 7033   5.507   7.356   5.809  2.2033  1.6551  0.4324
 2371TIP3   OH2 7034   3.414   4.746   0.125 -0.4521 -0.2492  0.4258
 2371TIP3    H1 7035   3.342   4.696   0.088  0.4032  0.1739 -1.9583
 2371TIP3    H2 7036   3.399   4.743   0.220 -2.4372 -1.8695  0.1222
 2372TIP3   OH2 7037   3.460   5.312   4.207 -0.4005  0.2773 -0.3295
 2372TIP3    H1 7038   3.531   5.334   4.146  0.3064  1.8558  0.9808
 2372TIP3    H2 7039   3.445   5.218   4.195  2.5050 -0.2956 -0.0335
 2373TIP3   OH2 7040   6.582   2.866   4.224  0.8759 -0.7422 -0.4526
 2373TIP3    H1 7041   6.588   2.771   4.235  0.2831 -0.9121 -1.4207
 2373TIP3    H2 7042   6.509   2.892   4.281  1.9208 -0.6457  0.8848
 2374TIP3   OH2 7043   0.258   6.946   0.550 -0.3738  0.1873  0.0230
 2374TIP3    H1 7044   0.198   6.943   0.625  1.4659 -1.5783  1.5545
 2374TIP3    H2 7045   0.267   7.039   0.531 -2.5051  0.5681  0.6089
 2375TIP3   OH2 7046   3.836   5.496   4.142  0.2238  0.9146 -0.4993
 2375TIP3    H1 7047   3.851   5.550   4.220 -1.6774 -1.1158  1.4333
 2375TIP3    H2 7048   3.889   5.418   4.157 -2.2567 -0.7643  0.3092
 2376TIP3   OH2 7049   2.324   7.904   3.614  0.3406  0.4236 -0.3900
 2376TIP3    H1 7050   2.365   7.984   3.646  1.7574 -0.9722  1.4877
 2376TIP3    H2 7051   2.239   7.901   3.657  1.3753 -0.3749  1.6981
 2377TIP3   OH2 7052   1.763   1.086   0.129 -0.6746 -0.4702  0.1915
 2377TIP3    H1 7053   1.684   1.096   0.077 -1.0571 -0.4050  0.7739
 2377TIP3    H2 7054   1.824   1.039   0.072 -0.3081  1.4585 -1.1140
 2378TIP3   OH2 7055   5.716   0.340   2.366 -0.1429 -0.1787  0.5095
 2378TIP3    H1 7056   5.630   0.373   2.392  0.4133  1.3030  0.5653
 2378TIP3    H2 7057   5.699   0.284   2.290 -1.4007 -1.8057  1.9062
 2379TIP3   OH2 7058   0.648   5.581   0.831 -0.3442  0.9238 -0.2171
 2379TIP3    H1 7059   0.699   5.569   0.750  0.4518  1.1980  0.2252
 2379TIP3    H2 7060   0.709   5.626   0.890 -0.0689 -1.3332  1.3459
 2380TIP3   OH2 7061   2.414   5.111   1.956 -0.4465 -0.1760 -0.1430
 2380TIP3    H1 7062   2.411   5.206   1.943 -0.2376 -0.3747 -1.8435
 2380TIP3    H2 7063   2.497   5.095   2.001 -0.3454  0.4186 -0.1113
 2381TIP3   OH2 7064   6.952   2.996   0.159  0.0006  0.2216 -0.0642
 2381TIP3    H1 7065   6.921   2.914   0.197  1.7228 -1.2135 -1.5462
 2381TIP3    H2 7066   6.978   3.049   0.235  0.3570 -1.2651  0.9076
 2382TIP3   OH2 7067   3.324   3.314   2.054 -0.4702  0.4544  0.0780
 2382TIP3    H1 7068   3.239   3.281   2.026  0.2285 -0.7186 -0.7149
 2382TIP3    H2 7069   3.310   3.408   2.067 -1.3079  0.7242 -2.3972
 2383TIP3   OH2 7070   3.889   0.899   1.775  0.0432 -0.7056 -0.0716
 2383TIP3    H1 7071   3.926   0.960   1.711 -0.1884 -0.6218 -0.1278
 2383TIP3    H2 7072   3.851   0.955   1.843 -0.7373 -0.7638 -0.4414
 2384TIP3   OH2 7073   8.310   0.117   6.745  0.2275  0.1086 -0.2945
 2384TIP3    H1 7074   8.255   0.110   6.823  0.7813  1.5869  0.2707
 2384TIP3    H2 7075   8.248   0.120   6.672 -0.2833 -1.6781  0.0383
 2385TIP3   OH2 7076   8.017   7.210   5.737 -0.0862 -0.0524  0.3892
 2385TIP3    H1 7077   8.016   7.145   5.807 -0.6433 -0.9515 -0.4239
 2385TIP3    H2 7078   8.107   7.213   5.707 -0.1844 -0.9831 -0.0313
 2386TIP3   OH2 7079   4.771   0.741   1.200  1.0593 -0.4064  0.5837
 2386TIP3    H1 7080   4.735   0.826   1.175 -0.7630 -0.4214  2.7488
 2386TIP3    H2 7081   4.811   0.757   1.286  0.4234 -1.7596  1.1597
 2387TIP3   OH2 7082   2.617   7.483   6.263  0.2206 -0.0855 -0.7688
 2387TIP3    H1 7083   2.598   7.468   6.355 -0.4171  0.1348 -0.8575
 2387TIP3    H2 7084   2.671   7.562   6.262  1.4441 -0.9060 -0.4887
 2388TIP3   OH2 7085   8.712   7.711   2.947 -0.1683 -0.1044 -0.1345
 2388TIP3    H1 7086   8.730   7.730   3.039  2.5990 -1.5404 -0.2614
 2388TIP3    H2 7087   8.637   7.765   2.926  1.0593  2.7639  2.1063
 2389TIP3   OH2 7088   7.960   4.401   4.074 -0.7236  0.3065  0.3642
 2389TIP3    H1 7089   7.958   4.315   4.030  2.2644  0.1856  0.3154
 2389TIP3    H2 7090   7.970   4.380   4.167 -0.2589  0.6047  0.3812
 2390TIP3   OH2 7091   6.092   5.010   3.508  0.2116  0.2820  0.1146
 2390TIP3    H1 7092   6.120   5.093   3.546  1.4676  0.6372 -1.4803
 2390TIP3    H2 7093   6.157   4.946   3.536 -0.4015 -0.0581  0.8134
 2391TIP3   OH2 7094   6.029   6.352   1.194 -0.6159 -0.2629 -0.2555
 2391TIP3    H1 7095   6.098   6.413   1.221 -0.4870  0.3145 -1.7835
 2391TIP3    H2 7096   5.975   6.341   1.272  1.7587 -1.5894  1.3669
 2392TIP3   OH2 7097   2.649   0.253   6.315  0.1193 -0.0987  0.3017
 2392TIP3    H1 7098   2.709   0.305   6.261  3.5705 -1.5262  2.4345
 2392TIP3    H2 7099   2.637   0.172   6.265 -0.7311  0.4786 -0.4735
 2393TIP3   OH2 7100   8.544   1.888   2.376  0.1116  1.1856  0.2310
 2393TIP3    H1 7101   8.494   1.834   2.314  0.3089  0.9513  0.2747
 2393TIP3    H2 7102   8.482   1.955   2.405  0.1656  1.6099 -0.6046
 2394TIP3   OH2 7103   3.068   2.360   5.266 -0.9501  0.2647 -0.1573
 2394TIP3    H1 7104   3.000   2.313   5.216 -3.0417  1.7218  1.1609
 2394TIP3    H2 7105   3.097   2.429   5.207 -0.5136 -0.4198 -0.7648
 2395TIP3   OH2 7106   8.633   6.849   3.642  0.2446 -0.1514  0.3763
 2395TIP3    H1 7107   8.544   6.850   3.608 -0.0180 -0.1978  1.0443
 2395TIP3    H2 7108   8.688   6.826   3.567 -0.3425 -0.5252  0.0595
 2396TIP3   OH2 7109   7.630   3.669   3.083  0.3693 -0.1893  0.0341
 2396TIP3    H1 7110   7.696   3.651   3.016 -0.6173  1.8182 -1.5900
 2396TIP3    H2 7111   7.567   3.598   3.073 -0.0365  0.3416 -1.6230
 2397TIP3   OH2 7112   6.086   5.737   5.873 -0.2448  0.5820  0.5024
 2397TIP3    H1 7113   6.037   5.776   5.946 -0.0466  0.3818  0.7425
 2397TIP3    H2 7114   6.156   5.688   5.915 -0.7523 -0.4105  0.2209
 2398TIP3   OH2 7115   3.759   3.926   7.116  0.1748  0.2593  0.2325
 2398TIP3    H1 7116   3.766   3.931   7.021  0.9657  0.9435  0.3155
 2398TIP3    H2 7117   3.666   3.915   7.133 -0.0198  0.5751 -0.6072
 2399TIP3   OH2 7118   6.967   0.851   5.041 -0.4494 -0.1782  0.2400
 2399TIP3    H1 7119   7.062   0.866   5.049 -0.2521 -0.4728 -1.2535
 2399TIP3    H2 7120   6.936   0.923   4.986 -1.1158 -0.0685  0.7460
 2400TIP3   OH2 7121   8.103   2.590   5.350  0.4398 -0.4517  1.0402
 2400TIP3    H1 7122   8.021   2.637   5.360  0.2282  0.4404 -3.0397
 2400TIP3    H2 7123   8.085   2.502   5.384 -3.1113 -1.0403 -1.7741
 2401TIP3   OH2 7124   3.896   7.180   3.163 -0.2858 -0.4472 -0.1773
 2401TIP3    H1 7125   3.974   7.151   3.117  0.0816  1.0675 -0.5359
 2401TIP3    H2 7126   3.830   7.114   3.141  0.0156 -0.0500 -2.4755
 2402TIP3   OH2 7127   6.250   6.926   4.450  0.1512  0.0863  0.0903
 2402TIP3    H1 7128   6.310   6.968   4.512  0.3949  0.2675 -0.2609
 2402TIP3    H2 7129   6.174   6.901   4.502  1.3741 -2.0122  0.9850
 2403TIP3   OH2 7130   7.950   4.489   1.363 -0.2396  0.4789  0.4609
 2403TIP3    H1 7131   8.010   4.552   1.405  0.9963  0.7797 -1.6041
 2403TIP3    H2 7132   7.866   4.535   1.359  0.6397  2.0878 -1.0192
 2404TIP3   OH2 7133   1.000   0.912   4.900 -0.1203  0.6416  0.2197
 2404TIP3    H1 7134   1.052   0.838   4.869 -1.6585 -0.3489 -0.1274
 2404TIP3    H2 7135   1.032   0.929   4.988  0.7926  0.0768  0.0074
 2405TIP3   OH2 7136   5.629   5.896   3.992  0.2304  0.4511 -0.2569
 2405TIP3    H1 7137   5.535   5.879   4.001  0.5482 -2.0905 -0.8525
 2405TIP3    H2 7138   5.636   5.991   3.986 -2.1692  0.8051  1.0918
 2406TIP3   OH2 7139   3.167   6.946   0.962  0.0520 -0.3592 -0.3292
 2406TIP3    H1 7140   3.170   6.988   1.048 -2.0032  0.6123 -0.6650
 2406TIP3    H2 7141   3.257   6.951   0.930  0.3763  1.6384  0.6926
 2407TIP3   OH2 7142   0.049   3.148   0.062  0.3923 -0.4079 -0.1744
 2407TIP3    H1 7143   0.085   3.231   0.093 -0.6948 -0.1624  0.4894
 2407TIP3    H2 7144   0.066   3.086   0.133  0.3495 -0.5140 -0.2560
 2408TIP3   OH2 7145   0.732   7.642   4.284  0.5396 -0.0078 -0.4798
 2408TIP3    H1 7146   0.762   7.733   4.282  3.2068 -0.7805 -0.3396
 2408TIP3    H2 7147   0.642   7.645   4.252 -0.3668  2.9538  1.8882
 2409TIP3   OH2 7148   3.512   1.755   0.737  0.2152  0.3736 -0.4018
 2409TIP3    H1 7149   3.552   1.671   0.758 -1.8554  0.1985  4.2078
 2409TIP3    H2 7150   3.434   1.733   0.686  1.1894 -0.1247 -1.7282
 2410TIP3   OH2 7151   6.507   4.995   4.915 -0.1492  0.5823  0.3830
 2410TIP3    H1 7152   6.434   5.050   4.888  0.1751  0.9559  0.2584
 2410TIP3    H2 7153   6.524   4.938   4.840 -0.9777 -0.2249  0.7872
 2411TIP3   OH2 7154   1.410   6.524   2.061 -0.1866  0.2557  0.6571
 2411TIP3    H1 7155   1.371   6.607   2.089  0.3718  0.5326  0.6349
 2411TIP3    H2 7156   1.450   6.543   1.977 -2.8976 -0.8752 -1.0195
 2412TIP3   OH2 7157   7.879   3.858   6.701 -0.0443  0.4580 -0.3323
 2412TIP3    H1 7158   7.865   3.931   6.640  0.7140  0.5313 -0.4284
 2412TIP3    H2 7159   7.812   3.870   6.768  1.4229  2.5740  0.8751
 2413TIP3   OH2 7160   0.901   6.713   0.738  0.3203  0.2212  0.7398
 2413TIP3    H1 7161   0.954   6.773   0.791 -0.7395  2.5530 -0.7138
 2413TIP3    H2 7162   0.914   6.742   0.648 -0.5291 -1.5437 -0.0057
 2414TIP3   OH2 7163   2.017   1.694   4.417 -0.0343  0.1527 -0.2524
 2414TIP3    H1 7164   1.926   1.700   4.387  0.2461  0.8549 -0.9892
 2414TIP3    H2 7165   2.009   1.685   4.513 -0.8861 -0.4018 -0.3600
 2415TIP3   OH2 7166   7.751   4.024   5.242  0.5089 -0.1632  0.1798
 2415TIP3    H1 7167   7.734   3.955   5.306  1.4619 -1.1766 -0.6191
 2415TIP3    H2 7168   7.825   4.072   5.279  2.2528 -1.8538 -0.9305
 2416TIP3   OH2 7169   0.726   1.175   5.004 -0.3475 -0.0371  0.0437
 2416TIP3    H1 7170   0.678   1.211   4.929  1.7015  0.0276 -1.3076
 2416TIP3    H2 7171   0.762   1.092   4.972 -1.4243 -1.2307  1.7665
 2417TIP3   OH2 7172   2.546   1.571   3.937  0.8107  0.1772  0.2429
 2417TIP3    H1 7173   2.558   1.554   4.030  1.7672  0.4869  0.1831
 2417TIP3    H2 7174   2.533   1.666   3.932 -0.6931  0.0000  0.1888
 2418TIP3   OH2 7175   0.140   4.789   5.299  0.5171  0.1947 -0.1171
 2418TIP3    H1 7176   0.131   4.783   5.394 -0.1303  0.9354 -0.1247
 2418TIP3    H2 7177   0.075   4.728   5.265  0.1484  0.5680 -0.0895
 2419TIP3   OH2 7178   6.663   3.447   1.068 -0.4796 -0.1840 -0.2369
 2419TIP3    H1 7179   6.721   3.371   1.065 -0.0581  0.1351 -0.3696
 2419TIP3    H2 7180   6.695   3.498   1.143 -2.3917 -1.4093  1.4973
 2420TIP3   OH2 7181   4.687   5.932   2.960 -0.3346 -0.0527 -0.1506
 2420TIP3    H1 7182   4.659   5.959   3.047  0.2984 -0.1330  0.0802
 2420TIP3    H2 7183   4.709   5.839   2.970 -3.4275 -1.0294 -1.1447
 2421TIP3   OH2 7184   4.084   0.385   4.141 -0.5651 -0.2020 -0.1971
 2421TIP3    H1 7185   4.149   0.373   4.072 -0.2222  0.9480 -0.0870
 2421TIP3    H2 7186   4.053   0.296   4.160  1.5238 -0.8966  0.2979
 2422TIP3   OH2 7187   7.712   7.153   5.900 -0.2688  0.0173 -0.2676
 2422TIP3    H1 7188   7.722   7.059   5.880 -0.9467 -0.2296  0.4727
 2422TIP3    H2 7189   7.778   7.170   5.967 -2.0092 -0.6592  1.7259
 2423TIP3   OH2 7190   1.252   7.874   0.722 -0.2406  0.0726  0.7677
 2423TIP3    H1 7191   1.295   7.960   0.715  0.5954 -0.4287 -0.9468
 2423TIP3    H2 7192   1.181   7.879   0.658 -1.4695  0.1607  2.1080
 2424TIP3   OH2 7193   1.653   7.121   0.020  0.0931 -0.0354  0.3311
 2424TIP3    H1 7194   1.668   7.077   0.103  2.8249  2.1842  1.1909
 2424TIP3    H2 7195   1.572   7.170   0.032  0.7752  0.7512  1.9623
 2425TIP3   OH2 7196   5.656   5.622   6.405  0.0347 -0.0453 -0.2461
 2425TIP3    H1 7197   5.590   5.615   6.475  2.2035  0.2653  1.9659
 2425TIP3    H2 7198   5.636   5.705   6.361  0.7411  1.6648  2.4443
 2426TIP3   OH2 7199   1.389   3.805   0.667 -0.2656 -0.2654  0.1963
 2426TIP3    H1 7200   1.359   3.734   0.723  1.2433 -1.3656 -0.3059
 2426TIP3    H2 7201   1.477   3.778   0.640  0.0235  1.4216 -0.6690
 2427TIP3   OH2 7202   8.051   7.495   1.170  0.4103 -0.0803  0.0135
 2427TIP3    H1 7203   8.021   7.543   1.247  2.2337 -0.4983  1.0437
 2427TIP3    H2 7204   7.995   7.526   1.099 -1.5867  0.0268  1.5683
 2428TIP3   OH2 7205   7.026   4.261   5.928  0.2171 -0.0811  0.2124
 2428TIP3    H1 7206   6.934   4.284   5.913  0.3250 -0.0237 -0.3699
 2428TIP3    H2 7207   7.071   4.290   5.849  0.6153 -0.8149  0.1668
 2429TIP3   OH2 7208   6.550   6.349   3.026  0.5193 -0.3860 -0.2034
 2429TIP3    H1 7209   6.637   6.375   2.997  0.4855 -0.2237 -0.1607
 2429TIP3    H2 7210   6.564   6.265   3.071  0.4475 -1.0699 -1.4177
 2430TIP3   OH2 7211   6.891   5.242   3.864 -0.3761  0.0281 -0.1138
 2430TIP3    H1 7212   6.904   5.187   3.787 -2.6966 -1.0275  0.1472
 2430TIP3    H2 7213   6.972   5.291   3.873  0.8975 -1.6359 -1.7658
 2431TIP3   OH2 7214   7.264   6.133   6.932 -0.4144 -0.3779 -0.4109
 2431TIP3    H1 7215   7.178   6.145   6.973 -0.8709  0.8489 -1.6603
 2431TIP3    H2 7216   7.269   6.202   6.866  0.8351 -1.4764 -1.5296
 2432TIP3   OH2 7217   3.444   0.859   4.844  0.1132  0.1720  0.0838
 2432TIP3    H1 7218   3.493   0.777   4.835  0.3964  0.5508 -3.1820
 2432TIP3    H2 7219   3.359   0.841   4.805  0.2725  1.4359 -0.9402
 2433TIP3   OH2 7220   5.263   1.915   4.890  0.2711  0.2556 -0.2245
 2433TIP3    H1 7221   5.348   1.919   4.933 -0.3738  2.0617  1.0340
 2433TIP3    H2 7222   5.256   1.825   4.858  1.9610 -0.3856  1.0548
 2434TIP3   OH2 7223   6.894   1.002   4.067  0.0312  0.0624  0.7148
 2434TIP3    H1 7224   6.846   0.984   4.148 -1.2717 -1.2338 -0.2904
 2434TIP3    H2 7225   6.864   0.934   4.006  3.6202 -1.2197  0.1715
 2435TIP3   OH2 7226   3.053   4.348   6.606 -1.0966  0.1985  0.4886
 2435TIP3    H1 7227   3.005   4.338   6.688 -0.3302  1.4683  1.1161
 2435TIP3    H2 7228   3.086   4.260   6.587 -1.9333 -0.2608  1.1303
 2436TIP3   OH2 7229   2.155   2.063   4.411 -0.1038 -0.1387  0.2692
 2436TIP3    H1 7230   2.070   2.103   4.430  0.9470  2.4758 -0.0080
 2436TIP3    H2 7231   2.142   2.015   4.330 -1.3957 -0.0467  0.4049
 2437TIP3   OH2 7232   2.458   7.925   0.572 -0.1287  0.4289  0.1100
 2437TIP3    H1 7233   2.509   7.909   0.652  2.4964 -0.9442 -1.7178
 2437TIP3    H2 7234   2.456   8.021   0.564  0.0446  0.5741  1.5084
 2438TIP3   OH2 7235   6.572   4.108   6.787 -0.4155  0.0929  0.0243
 2438TIP3    H1 7236   6.624   4.046   6.736 -0.3188  0.1114  0.0986
 2438TIP3    H2 7237   6.597   4.090   6.878  1.4270  1.8239 -0.0632
 2439TIP3   OH2 7238   1.265   0.464   4.317 -0.2650  0.0008 -0.5959
 2439TIP3    H1 7239   1.222   0.385   4.283  0.2602 -0.8682  0.7060
 2439TIP3    H2 7240   1.199   0.506   4.371 -0.1096 -0.3136 -0.1512
 2440TIP3   OH2 7241   0.772   3.335   5.722 -0.3633  0.4072  0.5205
 2440TIP3    H1 7242   0.797   3.264   5.780 -3.8359 -0.1638  1.5464
 2440TIP3    H2 7243   0.780   3.414   5.775  0.3415  0.3761  0.4596
 2441TIP3   OH2 7244   5.866   7.422   6.566 -0.0920 -0.4498 -0.3279
 2441TIP3    H1 7245   5.823   7.385   6.489 -0.3866 -1.1371  0.1541
 2441TIP3    H2 7246   5.846   7.360   6.636  0.6883 -0.1545  0.1636
 2442TIP3   OH2 7247   6.310   6.849   5.365  0.1650 -0.2184  0.0651
 2442TIP3    H1 7248   6.398   6.817   5.384 -0.2910 -1.4176  0.2599
 2442TIP3    H2 7249   6.267   6.853   5.451  0.0821  0.5160 -0.0105
 2443TIP3   OH2 7250   3.190   4.403   2.973  0.2687  0.3263 -0.4033
 2443TIP3    H1 7251   3.170   4.461   3.046  1.6113 -1.1118  1.1803
 2443TIP3    H2 7252   3.286   4.399   2.971  0.2286 -0.6141 -1.4913
 2444TIP3   OH2 7253   7.307   3.245   3.414 -0.2115  0.5069  0.3235
 2444TIP3    H1 7254   7.351   3.160   3.410 -1.7723 -0.4776  2.2148
 2444TIP3    H2 7255   7.375   3.309   3.395  1.1770 -1.1216 -0.3906
 2445TIP3   OH2 7256   2.978   4.179   3.472  0.6269 -0.2025  0.3878
 2445TIP3    H1 7257   3.045   4.113   3.457 -0.5773 -1.6718  1.2219
 2445TIP3    H2 7258   2.965   4.180   3.567  0.9530  1.5998  0.4454
 2446TIP3   OH2 7259   7.057   6.742   3.669  0.0761  0.2025 -0.3484
 2446TIP3    H1 7260   7.085   6.779   3.753 -1.0509 -1.5366  0.8445
 2446TIP3    H2 7261   7.131   6.687   3.641  0.9746  1.7535 -1.1904
 2447TIP3   OH2 7262   3.425   7.804   0.959 -0.4465  0.0896  0.4318
 2447TIP3    H1 7263   3.493   7.815   1.026 -0.6582  0.3754  0.5978
 2447TIP3    H2 7264   3.408   7.892   0.927  0.1502 -0.1122 -0.4970
 2448TIP3   OH2 7265   2.936   2.607   3.784 -0.3485  0.3311 -0.0685
 2448TIP3    H1 7266   2.966   2.612   3.875 -0.7083  0.1244  0.0639
 2448TIP3    H2 7267   2.979   2.681   3.741 -0.3243  0.5432  0.3123
 2449TIP3   OH2 7268   8.514   0.942   6.393 -0.0467  0.7103 -0.4151
 2449TIP3    H1 7269   8.444   0.909   6.337 -1.7204  1.2157  1.2746
 2449TIP3    H2 7270   8.471   1.005   6.450  1.4414 -0.1407  1.7822
 2450TIP3   OH2 7271   0.674   1.011   2.878  0.8847 -0.1201 -0.4304
 2450TIP3    H1 7272   0.619   1.084   2.851 -0.3132 -1.2177 -1.0751
 2450TIP3    H2 7273   0.637   0.982   2.961  0.7385 -0.6003 -0.6585
 2451TIP3   OH2 7274   7.253   5.439   6.244  0.1041  0.4419 -0.1063
 2451TIP3    H1 7275   7.175   5.493   6.258 -0.7468 -0.6186 -0.5520
 2451TIP3    H2 7276   7.235   5.359   6.293  1.2253  0.4403  0.3359
 2452TIP3   OH2 7277   6.421   1.609   1.340 -0.0050 -0.3453 -0.4024
 2452TIP3    H1 7278   6.428   1.685   1.398 -2.1482 -0.8547  0.6057
 2452TIP3    H2 7279   6.470   1.635   1.262  0.1120  1.7002  0.2847
 2453TIP3   OH2 7280   4.810   4.727   3.304  0.4471 -0.0583 -0.0444
 2453TIP3    H1 7281   4.732   4.783   3.298  1.0948  0.8867  0.0648
 2453TIP3    H2 7282   4.857   4.743   3.223  0.8175 -0.1690  0.1470
 2454TIP3   OH2 7283   2.265   7.084   1.844 -0.0608  0.0404  0.2767
 2454TIP3    H1 7284   2.221   7.167   1.825 -0.1028  0.5097  2.1994
 2454TIP3    H2 7285   2.197   7.029   1.884  0.4149 -0.2292  0.7324
 2455TIP3   OH2 7286   6.118   2.145   2.745 -0.3836 -0.4704  1.0560
 2455TIP3    H1 7287   6.100   2.235   2.717 -2.8906 -1.3144 -0.4087
 2455TIP3    H2 7288   6.171   2.109   2.674  1.3439  0.0477  2.0470
 2456TIP3   OH2 7289   5.682   3.836   4.780 -0.2904  0.3025  0.2891
 2456TIP3    H1 7290   5.648   3.812   4.693  1.6772 -1.9763  0.0569
 2456TIP3    H2 7291   5.765   3.880   4.762  1.1771 -2.0428  0.9872
 2457TIP3   OH2 7292   3.605   7.250   5.008 -0.2478 -0.2723  0.5657
 2457TIP3    H1 7293   3.691   7.290   5.021 -0.8765  0.7347  1.9167
 2457TIP3    H2 7294   3.615   7.159   5.036  0.7564 -0.6035 -0.8114
 2458TIP3   OH2 7295   3.594   1.166   0.884  0.2838  0.2959 -0.1951
 2458TIP3    H1 7296   3.581   1.250   0.928  0.9354 -0.2856  1.1517
 2458TIP3    H2 7297   3.650   1.187   0.809 -0.5676  1.2497 -0.5723
 2459TIP3   OH2 7298   5.822   1.903   4.111  0.2891 -0.2430 -0.1934
 2459TIP3    H1 7299   5.812   1.986   4.065 -0.4979 -1.1789 -1.8086
 2459TIP3    H2 7300   5.740   1.891   4.158  0.1645 -0.3534 -0.4323
 2460TIP3   OH2 7301   4.741   1.535   5.965  0.6005 -0.1071 -0.0876
 2460TIP3    H1 7302   4.769   1.616   5.921 -0.9517  0.1535 -0.6577
 2460TIP3    H2 7303   4.822   1.487   5.980  1.4318  0.9693 -0.9225
 2461TIP3   OH2 7304   5.498   2.357   1.807 -0.6200  0.3658  0.0009
 2461TIP3    H1 7305   5.496   2.312   1.891  0.3237  1.4513  0.6309
 2461TIP3    H2 7306   5.429   2.314   1.755 -0.3540 -1.1784  0.8625
 2462TIP3   OH2 7307   1.468   1.663   4.768  0.5031 -0.7167 -0.3158
 2462TIP3    H1 7308   1.421   1.579   4.777 -1.7074  0.6549  2.7442
 2462TIP3    H2 7309   1.405   1.721   4.725  0.7844  0.1806  0.4559
 2463TIP3   OH2 7310   6.359   0.369   2.367 -0.0495 -0.3666 -0.4490
 2463TIP3    H1 7311   6.311   0.431   2.423  1.5561 -1.2164  2.0163
 2463TIP3    H2 7312   6.291   0.313   2.330 -1.2869  1.0723 -0.4757
 2464TIP3   OH2 7313   3.337   1.617   2.345 -0.0235 -0.3576  0.1906
 2464TIP3    H1 7314   3.331   1.552   2.275 -2.5712  0.5487 -0.5406
 2464TIP3    H2 7315   3.398   1.683   2.311 -0.9211 -0.1300 -1.0489
 2465TIP3   OH2 7316   6.604   3.888   3.000  0.7652 -0.1715  0.4379
 2465TIP3    H1 7317   6.690   3.846   3.010  1.4754  1.2754  0.7072
 2465TIP3    H2 7318   6.599   3.910   2.907  0.9103  0.1810  0.5111
 2466TIP3   OH2 7319   8.201   3.536   6.786 -0.0371 -0.0068  0.3239
 2466TIP3    H1 7320   8.216   3.628   6.805  0.0276  0.2351 -0.8397
 2466TIP3    H2 7321   8.157   3.535   6.701 -1.0189 -1.0039  0.8165
 2467TIP3   OH2 7322   2.131   2.200   6.163  0.6612  0.4793 -0.0533
 2467TIP3    H1 7323   2.042   2.207   6.129 -0.0540 -1.5010  1.2293
 2467TIP3    H2 7324   2.123   2.144   6.240  2.6755  2.1464  1.5033
 2468TIP3   OH2 7325   2.123   1.204   4.032  0.1178  0.3778  0.0165
 2468TIP3    H1 7326   2.126   1.218   3.938 -2.6714 -1.2193 -0.4301
 2468TIP3    H2 7327   2.099   1.289   4.069  2.0059  1.2146 -0.5626
 2469TIP3   OH2 7328   4.808   1.670   0.145 -0.4226  0.6594  1.0554
 2469TIP3    H1 7329   4.824   1.745   0.087 -0.0762 -0.3399 -0.1871
 2469TIP3    H2 7330   4.818   1.706   0.233  0.5453  1.9120  0.4763
 2470TIP3   OH2 7331   0.263   1.496   4.918 -0.1749 -0.1860  0.5389
 2470TIP3    H1 7332   0.212   1.483   4.839  2.8062 -0.7744 -1.4672
 2470TIP3    H2 7333   0.310   1.578   4.904 -0.2869  0.2022  2.1625
 2471TIP3   OH2 7334   4.204   3.918   4.921 -0.3174 -0.8400  0.1412
 2471TIP3    H1 7335   4.210   3.936   4.827 -0.7930 -2.2426 -0.1828
 2471TIP3    H2 7336   4.110   3.921   4.940 -0.2308 -0.6617  0.5544
 2472TIP3   OH2 7337   6.246   8.177   4.912  0.3809  0.1745  0.0815
 2472TIP3    H1 7338   6.274   8.117   4.981 -0.3538 -1.0419 -0.6380
 2472TIP3    H2 7339   6.315   8.172   4.846 -0.9241 -2.1169 -1.2668
 2473TIP3   OH2 7340   1.045   1.360   5.000 -0.6077  0.2585 -0.1650
 2473TIP3    H1 7341   1.029   1.270   5.030 -4.5079  0.4014 -1.2643
 2473TIP3    H2 7342   1.035   1.414   5.078 -1.0113 -0.0661  0.0088
 2474TIP3   OH2 7343   7.005   7.323   0.965 -0.1442  0.1013 -0.5621
 2474TIP3    H1 7344   7.061   7.259   1.008 -1.8577 -0.0889  1.5530
 2474TIP3    H2 7345   7.029   7.318   0.872  2.5867 -0.6271  0.1064
 2475TIP3   OH2 7346   3.580   2.056   1.364  0.3626  0.0446 -0.6622
 2475TIP3    H1 7347   3.489   2.033   1.348  0.4580 -1.4586  0.6579
 2475TIP3    H2 7348   3.579   2.097   1.451  1.0777 -1.3101  0.0289
 2476TIP3   OH2 7349   4.677   5.877   2.643 -0.0305  0.1346 -0.2153
 2476TIP3    H1 7350   4.607   5.933   2.610 -0.1363 -0.4285 -0.9716
 2476TIP3    H2 7351   4.650   5.855   2.732  0.5809  2.2050  0.5353
 2477TIP3   OH2 7352   0.572   3.707   2.033  0.0991  0.2425  0.1622
 2477TIP3    H1 7353   0.618   3.663   2.104 -0.8187 -0.7216  0.1730
 2477TIP3    H2 7354   0.541   3.789   2.072 -1.3489 -0.7577  1.2391
 2478TIP3   OH2 7355   4.606   0.719   6.406 -0.2981 -0.2592 -0.4703
 2478TIP3    H1 7356   4.636   0.630   6.423  1.8231  0.6882  1.2292
 2478TIP3    H2 7357   4.650   0.745   6.325 -0.7409 -0.6748 -0.8446
 2479TIP3   OH2 7358   0.574   0.053   2.704  0.2250  0.0343  0.1924
 2479TIP3    H1 7359   0.619   0.128   2.745  0.2993  0.6425 -0.9556
 2479TIP3    H2 7360   0.520   0.016   2.774  0.5963  0.8366  0.9230
 2480TIP3   OH2 7361   6.771   3.627   5.334  0.1239 -0.3053 -0.0668
 2480TIP3    H1 7362   6.849   3.682   5.330 -1.5202  2.1030 -2.1121
 2480TIP3    H2 7363   6.707   3.679   5.381 -1.3114 -0.6499 -1.5403
 2481TIP3   OH2 7364   5.528   5.648   2.846  0.0917  0.3141  0.3635
 2481TIP3    H1 7365   5.458   5.708   2.870 -0.2054  0.5116 -0.8957
 2481TIP3    H2 7366   5.488   5.588   2.783  0.8415 -0.0943  0.2575
 2482TIP3   OH2 7367   2.475   6.641   5.376 -0.1951  1.0873 -0.0036
 2482TIP3    H1 7368   2.527   6.598   5.308 -0.5141  1.7772 -0.6983
 2482TIP3    H2 7369   2.535   6.704   5.417 -0.2701  1.3573 -0.3051
 2483TIP3   OH2 7370   2.828   7.508   4.440  0.4810 -0.1508  0.2483
 2483TIP3    H1 7371   2.851   7.596   4.470  0.6295 -0.0210 -0.2310
 2483TIP3    H2 7372   2.820   7.456   4.520  0.0635  0.3788  0.5557
 2484TIP3   OH2 7373   6.500   8.191   0.354 -0.4047 -0.8176 -0.0690
 2484TIP3    H1 7374   6.447   8.177   0.433  1.2581  1.8240  1.6923
 2484TIP3    H2 7375   6.556   8.114   0.349 -0.4343 -0.9750  1.4692
 2485TIP3   OH2 7376   8.471   5.258   2.197  0.0913 -0.2525  0.1412
 2485TIP3    H1 7377   8.480   5.167   2.226  1.3864 -0.9268 -2.0915
 2485TIP3    H2 7378   8.510   5.310   2.267  1.3460 -1.5956  0.4927
 2486TIP3   OH2 7379   3.973   0.978   4.155 -0.3323  0.3913 -0.1032
 2486TIP3    H1 7380   3.883   1.008   4.155 -0.3027  0.4835  0.6717
 2486TIP3    H2 7381   3.983   0.932   4.071 -1.0185  0.6002 -0.2999
 2487TIP3   OH2 7382   4.338   5.302   4.184 -0.1180 -0.1839  0.3442
 2487TIP3    H1 7383   4.244   5.284   4.182  0.2691 -2.4202 -0.7356
 2487TIP3    H2 7384   4.379   5.218   4.164  2.0969  1.0190 -0.4978
 2488TIP3   OH2 7385   4.250   6.316   4.956  0.4340 -0.4035  0.4195
 2488TIP3    H1 7386   4.200   6.398   4.957 -0.2787 -0.7671 -1.3674
 2488TIP3    H2 7387   4.293   6.313   5.041  0.4792  1.8255  0.5304
 2489TIP3   OH2 7388   2.546   7.117   6.230 -0.1935 -0.6462 -0.7084
 2489TIP3    H1 7389   2.593   7.175   6.290 -0.3104 -0.3544 -0.8969
 2489TIP3    H2 7390   2.462   7.160   6.215  0.0788 -0.3927 -1.5799
 2490TIP3   OH2 7391   7.416   5.114   0.529 -0.3351 -0.3504  0.0722
 2490TIP3    H1 7392   7.334   5.163   0.517 -1.0629 -1.5407 -0.0438
 2490TIP3    H2 7393   7.438   5.082   0.442  0.6823  0.5667 -0.0311
 2491TIP3   OH2 7394   2.391   1.670   2.191  0.0918  0.3189 -0.6701
 2491TIP3    H1 7395   2.300   1.669   2.163 -0.2097 -1.7256  0.2313
 2491TIP3    H2 7396   2.404   1.758   2.227 -1.7956  0.3618 -0.0030
 2492TIP3   OH2 7397   4.558   3.465   2.884 -0.3090  0.5109 -1.0004
 2492TIP3    H1 7398   4.537   3.399   2.819 -0.9216 -0.0755 -0.2265
 2492TIP3    H2 7399   4.625   3.519   2.843 -1.7009  1.0482 -2.6856
 2493TIP3   OH2 7400   5.809   1.707   6.719 -0.0711 -0.0106 -0.4042
 2493TIP3    H1 7401   5.765   1.752   6.792 -2.4981 -0.5292 -1.4440
 2493TIP3    H2 7402   5.830   1.776   6.657  1.3874  0.3424  0.4296
 2494TIP3   OH2 7403   4.477   2.466   0.788  0.1176 -0.1983 -0.0762
 2494TIP3    H1 7404   4.548   2.453   0.851  0.0020 -1.5253 -0.1908
 2494TIP3    H2 7405   4.460   2.560   0.790  0.4475 -0.1539  1.4991
 2495TIP3   OH2 7406   5.911   1.018   5.794 -0.2003  0.6227  0.3322
 2495TIP3    H1 7407   5.927   0.969   5.713 -0.2049  0.8617  0.1847
 2495TIP3    H2 7408   5.904   1.110   5.765 -1.3357  0.5851  0.4539
 2496TIP3   OH2 7409   7.125   1.465   2.651  0.8371  0.5996  0.3047
 2496TIP3    H1 7410   7.154   1.554   2.673  0.0143  0.7971  0.6212
 2496TIP3    H2 7411   7.102   1.469   2.558  2.8868  0.1442 -0.2741
 2497TIP3   OH2 7412   5.355   4.897   4.152  0.7030  0.4369  0.0363
 2497TIP3    H1 7413   5.280   4.927   4.100  0.2187 -2.6910 -1.2495
 2497TIP3    H2 7414   5.427   4.955   4.126  0.0043  0.1693 -2.7604
 2498TIP3   OH2 7415   4.749   3.795   1.388  0.3429 -0.0498 -0.8763
 2498TIP3    H1 7416   4.756   3.774   1.481 -0.0712 -1.4554 -1.1364
 2498TIP3    H2 7417   4.655   3.790   1.369  0.4937 -0.5354 -1.5319
 2499TIP3   OH2 7418   5.107   0.931   0.229 -0.1592  0.5798  0.2977
 2499TIP3    H1 7419   5.198   0.960   0.229 -0.6193  2.1815  2.1239
 2499TIP3    H2 7420   5.110   0.843   0.267  0.6191  0.5186  0.1154
 2500TIP3   OH2 7421   0.927   1.760   2.488 -0.2474  0.1208  0.4055
 2500TIP3    H1 7422   0.992   1.692   2.470 -0.2311 -0.0105  0.9552
 2500TIP3    H2 7423   0.972   1.842   2.466 -0.3263 -0.0470 -0.4305
 2501TIP3   OH2 7424   3.580   7.413   0.516  0.2752  0.4846 -0.4217
 2501TIP3    H1 7425   3.627   7.373   0.443 -0.2505 -0.1378 -0.4305
 2501TIP3    H2 7426   3.647   7.459   0.566  1.0585 -1.1081  0.0513
 2502TIP3   OH2 7427   4.968   0.493   5.149  0.2673  0.1686 -0.1849
 2502TIP3    H1 7428   4.923   0.490   5.233 -1.6197 -0.5042 -1.1563
 2502TIP3    H2 7429   4.912   0.548   5.094  1.0638 -0.0147 -1.2116
 2503TIP3   OH2 7430   7.673   5.222   3.782 -0.2902 -0.3378  0.2629
 2503TIP3    H1 7431   7.586   5.199   3.815 -0.4503  0.4845  0.4137
 2503TIP3    H2 7432   7.702   5.294   3.838 -0.4422  0.8922 -1.1978
 2504TIP3   OH2 7433   5.569   6.186   0.566  0.6222 -0.5233  0.5497
 2504TIP3    H1 7434   5.591   6.117   0.504 -0.4569  0.0728 -0.5233
 2504TIP3    H2 7435   5.597   6.267   0.522  1.3744 -0.2056  1.5609
 2505TIP3   OH2 7436   4.811   8.043   4.711 -0.3850  0.4155 -0.4067
 2505TIP3    H1 7437   4.838   7.969   4.656  2.1834 -0.2111  1.5361
 2505TIP3    H2 7438   4.751   8.006   4.774  0.3357  0.1141  0.1120
 2506TIP3   OH2 7439   2.484   2.434   1.784 -0.3531 -0.1166 -0.0509
 2506TIP3    H1 7440   2.406   2.432   1.840 -1.5031 -0.6233 -1.6055
 2506TIP3    H2 7441   2.480   2.351   1.735 -0.6930  1.2588 -2.5311
 2507TIP3   OH2 7442   7.505   4.510   0.573  0.0751  0.4718 -0.0148
 2507TIP3    H1 7443   7.483   4.483   0.662  0.9032 -0.1008  0.0316
 2507TIP3    H2 7444   7.434   4.569   0.547 -0.7694 -0.2400  0.6020
 2508TIP3   OH2 7445   1.693   6.997   3.765  0.7577 -0.4338  0.0999
 2508TIP3    H1 7446   1.646   6.919   3.795  0.1920 -0.5839 -1.1323
 2508TIP3    H2 7447   1.627   7.049   3.719  1.3439  0.3255  0.0959
 2509TIP3   OH2 7448   0.639   3.932   0.817 -0.1953  0.4218 -0.0185
 2509TIP3    H1 7449   0.600   3.845   0.820 -0.3659  0.4831 -0.3975
 2509TIP3    H2 7450   0.692   3.938   0.897  0.2062 -0.2106 -0.2326
 2510TIP3   OH2 7451   3.664   0.045   6.656  0.1072 -0.0212 -0.7661
 2510TIP3    H1 7452   3.593   0.001   6.609  2.2391 -2.3771 -2.0304
 2510TIP3    H2 7453   3.683  -0.012   6.730 -1.0158  1.9919  1.1968
 2511TIP3   OH2 7454   3.715   6.711   5.405  0.7828  0.6955  0.1352
 2511TIP3    H1 7455   3.753   6.746   5.486  1.1490 -1.2333  0.8590
 2511TIP3    H2 7456   3.655   6.643   5.435  1.1598 -0.2741 -1.2168
 2512TIP3   OH2 7457   3.466   3.955   3.043 -0.0868  0.7438 -0.0136
 2512TIP3    H1 7458   3.538   3.961   2.980 -0.3034  0.4433 -0.2951
 2512TIP3    H2 7459   3.436   3.865   3.036 -2.4583  1.5711 -2.1276
 2513TIP3   OH2 7460   5.557   4.307   4.652  0.1628 -0.2154  0.6573
 2513TIP3    H1 7461   5.603   4.230   4.618  1.0648  0.0645  1.2014
 2513TIP3    H2 7462   5.600   4.325   4.736 -0.1296  0.8020  0.5990
 2514TIP3   OH2 7463   8.269   2.502   4.207 -0.1223  0.7723  0.5009
 2514TIP3    H1 7464   8.280   2.597   4.220 -0.9708  0.7119  1.9643
 2514TIP3    H2 7465   8.174   2.488   4.215 -0.0027 -0.2134  0.3215
 2515TIP3   OH2 7466   7.688   7.571   4.603 -0.3429  0.3911 -0.1950
 2515TIP3    H1 7467   7.603   7.531   4.619 -0.0126 -0.4895 -0.5999
 2515TIP3    H2 7468   7.669   7.644   4.544 -0.6700 -0.5993 -1.3635
 2516TIP3   OH2 7469   2.727   2.463   5.108 -0.4184 -0.2066 -0.3986
 2516TIP3    H1 7470   2.735   2.559   5.108 -3.6299  0.1954 -1.6599
 2516TIP3    H2 7471   2.693   2.442   5.195 -1.1078  0.0314 -0.5954
 2517TIP3   OH2 7472   4.918   0.240   5.286 -0.6247  0.5440  0.3919
 2517TIP3    H1 7473   4.892   0.148   5.283  0.0200  0.3703 -0.0583
 2517TIP3    H2 7474   4.873   0.280   5.211  1.1632  0.0248 -1.0235
 2518TIP3   OH2 7475   1.316   2.489   6.822  0.5655  0.6670  0.6103
 2518TIP3    H1 7476   1.299   2.568   6.771  2.6324  1.2917  0.7865
 2518TIP3    H2 7477   1.286   2.509   6.910  0.8856  1.2027  0.6041
 2519TIP3   OH2 7478   8.251   2.470   3.741 -0.1420 -0.0665  0.2853
 2519TIP3    H1 7479   8.274   2.545   3.797 -0.3176  0.7716 -0.7401
 2519TIP3    H2 7480   8.324   2.409   3.753 -0.8010 -0.5134  2.4478
 2520TIP3   OH2 7481   5.348   7.267   5.577  0.0232  0.3519 -0.2407
 2520TIP3    H1 7482   5.305   7.232   5.654 -1.2092 -0.2441 -1.1674
 2520TIP3    H2 7483   5.374   7.356   5.602  0.0955 -0.0049  0.9990
 2521TIP3   OH2 7484   5.881   5.465   3.525 -0.2032 -0.5117  0.0079
 2521TIP3    H1 7485   5.852   5.508   3.445 -0.2017 -1.4322 -0.5047
 2521TIP3    H2 7486   5.858   5.526   3.595 -1.1973 -0.1664 -0.5971
 2522TIP3   OH2 7487   2.599   6.372   1.462 -0.7758  0.2018 -0.4470
 2522TIP3    H1 7488   2.589   6.465   1.480 -1.7795 -0.3081  2.0047
 2522TIP3    H2 7489   2.511   6.336   1.467 -0.1255 -1.3288  1.9060
 2523TIP3   OH2 7490   1.652   0.623   1.053 -0.1736  0.0490 -0.3211
 2523TIP3    H1 7491   1.660   0.707   1.097  2.4963  0.1079 -0.7582
 2523TIP3    H2 7492   1.558   0.613   1.037 -0.6395  2.5704  0.4201
 2524TIP3   OH2 7493   0.612   2.838   7.004  0.0597  0.0979  0.1148
 2524TIP3    H1 7494   0.550   2.911   7.004  2.6736  2.4439  0.5258
 2524TIP3    H2 7495   0.617   2.810   7.095  1.2277  1.4375  0.4928
 2525TIP3   OH2 7496   3.923   2.765   6.346  0.5036 -0.4409  0.8012
 2525TIP3    H1 7497   3.841   2.814   6.343 -0.5747 -2.1021  1.7987
 2525TIP3    H2 7498   3.979   2.816   6.406  0.4646  1.0039 -0.3264
 2526TIP3   OH2 7499   0.312   3.627   6.080  0.0662 -0.5863  0.6211
 2526TIP3    H1 7500   0.390   3.625   6.024 -1.0482 -1.3521 -0.9742
 2526TIP3    H2 7501   0.278   3.716   6.070 -0.9009 -1.1037 -1.1053
 2527TIP3   OH2 7502   3.305   1.768   5.762  0.0259  0.3168 -0.2896
 2527TIP3    H1 7503   3.300   1.738   5.671 -1.4578 -2.2762  0.5571
 2527TIP3    H2 7504   3.399   1.783   5.776  0.1573  2.5129 -2.6746
 2528TIP3   OH2 7505   1.570   3.333   3.017 -0.2351 -0.2869  0.7531
 2528TIP3    H1 7506   1.641   3.376   3.065  0.8189  1.0652 -1.8381
 2528TIP3    H2 7507   1.615   3.277   2.954 -1.5573 -1.4495  0.8045
 2529TIP3   OH2 7508   2.437   6.311   0.797 -0.5062 -0.3128  0.0125
 2529TIP3    H1 7509   2.402   6.337   0.883 -1.9382 -2.0393  0.0358
 2529TIP3    H2 7510   2.449   6.216   0.805 -1.9292 -0.7324 -2.0813
 2530TIP3   OH2 7511   0.983   6.457   0.183  0.0319 -1.1549 -0.3562
 2530TIP3    H1 7512   0.966   6.410   0.102 -0.5353 -0.5408 -0.6082
 2530TIP3    H2 7513   0.930   6.536   0.176 -0.0879 -1.1330  0.6540
 2531TIP3   OH2 7514   4.847   4.333   2.487 -0.3535  0.4103 -0.1524
 2531TIP3    H1 7515   4.894   4.378   2.557 -2.6729  0.9994  1.1285
 2531TIP3    H2 7516   4.901   4.346   2.409 -0.0634  4.0125  0.4933
 2532TIP3   OH2 7517   6.505   2.118   4.195  0.9392 -0.2599  0.1193
 2532TIP3    H1 7518   6.414   2.114   4.165  0.8940 -0.5246  0.2854
 2532TIP3    H2 7519   6.541   2.195   4.152  1.3182 -1.4621 -1.8066
 2533TIP3   OH2 7520   6.908   2.543   4.721 -0.1794 -0.3529  0.6400
 2533TIP3    H1 7521   6.963   2.479   4.677 -0.2214 -0.0440  0.1290
 2533TIP3    H2 7522   6.861   2.587   4.650  0.8743  1.2017  0.8468
 2534TIP3   OH2 7523   4.725   1.233   3.108  0.0542 -0.5621 -0.1723
 2534TIP3    H1 7524   4.710   1.179   3.186  0.0487  0.2151  0.3694
 2534TIP3    H2 7525   4.723   1.170   3.036 -3.7026 -0.8480 -0.0008
 2535TIP3   OH2 7526   0.784   5.621   3.734 -0.2496 -0.0445  0.0134
 2535TIP3    H1 7527   0.732   5.688   3.690 -1.2270 -1.4171 -0.9791
 2535TIP3    H2 7528   0.737   5.539   3.718  1.4763 -1.1326  0.2759
 2536TIP3   OH2 7529   2.511   3.103   0.119  0.0781  0.5682  0.2840
 2536TIP3    H1 7530   2.521   3.119   0.025 -0.8171 -1.2033 -0.1567
 2536TIP3    H2 7531   2.421   3.129   0.138  1.0555  3.6914  1.3538
 2537TIP3   OH2 7532   0.108   1.001   4.316  0.2172  0.3312 -0.2179
 2537TIP3    H1 7533   0.040   0.946   4.276 -1.3545 -0.5345  3.2756
 2537TIP3    H2 7534   0.173   1.012   4.247 -1.8114 -1.7100 -2.6747
 2538TIP3   OH2 7535   5.091   3.519   3.876 -0.4262 -0.2887  0.2558
 2538TIP3    H1 7536   5.089   3.540   3.969 -2.2617  0.2452  0.1263
 2538TIP3    H2 7537   5.079   3.424   3.872 -1.8631 -0.1312  0.5313
 2539TIP3   OH2 7538   4.107   6.743   1.646 -0.3212 -0.1135 -0.3835
 2539TIP3    H1 7539   4.083   6.710   1.732 -1.9851 -0.3665 -0.9046
 2539TIP3    H2 7540   4.051   6.820   1.634  0.3335  0.2774 -0.9906
 2540TIP3   OH2 7541   6.257   6.237   6.111  0.0386  0.3620  0.0710
 2540TIP3    H1 7542   6.254   6.163   6.051  0.4308  1.0658 -0.8459
 2540TIP3    H2 7543   6.298   6.308   6.060  0.6038  0.9120  1.2368
 2541TIP3   OH2 7544   4.258   2.000   1.976  0.0368  0.2644  0.1082
 2541TIP3    H1 7545   4.246   2.073   1.915  0.1318  0.6431  0.5372
 2541TIP3    H2 7546   4.299   1.931   1.924  0.6771  0.8035 -0.1043
 2542TIP3   OH2 7547   8.419   3.092   1.263  0.5041  0.0779  0.5250
 2542TIP3    H1 7548   8.359   3.160   1.231  0.4569  0.3950  1.2720
 2542TIP3    H2 7549   8.473   3.137   1.328 -0.0644 -0.7935  1.6339
 2543TIP3   OH2 7550   2.201   2.894   3.471 -0.8211 -0.1885  0.1709
 2543TIP3    H1 7551   2.125   2.878   3.527 -1.5301  0.1389 -0.6756
 2543TIP3    H2 7552   2.212   2.989   3.471 -0.0918 -0.2681  0.6941
 2544TIP3   OH2 7553   7.658   2.311   7.108  0.1765 -0.3183 -0.4404
 2544TIP3    H1 7554   7.574   2.278   7.077 -0.3002  1.6124 -1.3321
 2544TIP3    H2 7555   7.718   2.295   7.035 -0.3486  1.7943 -1.4304
 2545TIP3   OH2 7556   6.180   8.075   4.473  0.3084  0.7801 -0.2213
 2545TIP3    H1 7557   6.182   8.017   4.549  0.7320  2.3740  1.0227
 2545TIP3    H2 7558   6.266   8.116   4.471 -0.6913  3.0991  0.3750
 2546TIP3   OH2 7559   0.513   2.891   3.469  0.6974  0.3700  0.3038
 2546TIP3    H1 7560   0.433   2.905   3.418  1.1560  0.3250 -0.4531
 2546TIP3    H2 7561   0.520   2.969   3.525 -0.1539  0.1177  0.7747
 2547TIP3   OH2 7562   3.535   1.879   3.772 -0.3803  0.2499 -0.6655
 2547TIP3    H1 7563   3.527   1.889   3.867 -1.4921  1.6127 -0.8651
 2547TIP3    H2 7564   3.629   1.882   3.755 -0.0926 -1.1809  0.4812
 2548TIP3   OH2 7565   4.632   6.673   5.599  0.0508  0.4355 -0.2804
 2548TIP3    H1 7566   4.712   6.638   5.559  0.2533 -0.0502  0.5362
 2548TIP3    H2 7567   4.652   6.680   5.692 -1.2958 -1.0210  0.1680
 2549TIP3   OH2 7568   0.477   1.220   4.350  0.1844 -0.0859 -0.3203
 2549TIP3    H1 7569   0.402   1.240   4.407  0.9825 -0.8450  1.0508
 2549TIP3    H2 7570   0.496   1.302   4.306  0.3107  0.9060  1.4601
 2550TIP3   OH2 7571   8.251   5.696   1.211  0.3885 -0.1073 -0.0801
 2550TIP3    H1 7572   8.156   5.712   1.209  0.3583 -0.2680 -1.5013
 2550TIP3    H2 7573   8.283   5.736   1.130  1.0778 -2.7001 -1.1991
 2551TIP3   OH2 7574   8.170   1.833   0.200 -1.0957  0.1793 -0.6073
 2551TIP3    H1 7575   8.077   1.810   0.209 -0.8470 -0.4644  0.5207
 2551TIP3    H2 7576   8.185   1.838   0.106 -1.4836 -3.0177 -0.9214
 2552TIP3   OH2 7577   1.299   6.127   0.181  0.1532  0.1322 -0.5051
 2552TIP3    H1 7578   1.388   6.096   0.201  0.2621  0.0491 -1.0746
 2552TIP3    H2 7579   1.286   6.101   0.090 -0.6874 -0.3836 -0.2436
 2553TIP3   OH2 7580   8.197   1.638   4.153 -0.1048  0.0768 -0.8226
 2553TIP3    H1 7581   8.148   1.689   4.089  2.2756  1.6780 -1.5017
 2553TIP3    H2 7582   8.166   1.668   4.238 -1.5661 -0.2968 -1.2006
 2554TIP3   OH2 7583   1.928   2.246   4.379  0.0021 -0.1773  0.1691
 2554TIP3    H1 7584   1.962   2.299   4.307 -1.0891 -0.4364 -0.5620
 2554TIP3    H2 7585   1.842   2.284   4.398 -0.6827 -1.4813 -0.1972
 2555TIP3   OH2 7586   7.092   6.541   6.109 -0.2071  0.0465 -0.6411
 2555TIP3    H1 7587   7.177   6.543   6.152  0.1964 -0.5967 -1.3801
 2555TIP3    H2 7588   7.030   6.568   6.177  0.4093 -0.9286  0.3515
 2556TIP3   OH2 7589   6.061   0.026   0.559  0.5291  0.0997  0.5174
 2556TIP3    H1 7590   5.973   0.062   0.568  1.2809  2.3216 -0.3645
 2556TIP3    H2 7591   6.120   0.101   0.571  2.2897 -1.1647  0.3000
 2557TIP3   OH2 7592   6.889   3.639   2.788 -0.5154  0.5161  0.2594
 2557TIP3    H1 7593   6.816   3.639   2.727 -0.4679  0.6845  0.2041
 2557TIP3    H2 7594   6.964   3.669   2.736 -0.4847  0.7008  0.4113
 2558TIP3   OH2 7595   8.551   5.964   6.974 -0.2553  0.3676  0.0940
 2558TIP3    H1 7596   8.562   5.996   6.884 -1.6680  0.1792 -0.1632
 2558TIP3    H2 7597   8.482   6.018   7.011  1.4607  1.6056  1.6887
 2559TIP3   OH2 7598   5.814   7.560   3.677  0.5146  0.1631  0.1064
 2559TIP3    H1 7599   5.737   7.508   3.699  0.6678 -0.5053 -0.8582
 2559TIP3    H2 7600   5.788   7.650   3.694 -1.1060  0.1264 -1.7981
 2560TIP3   OH2 7601   0.847   5.579   3.017  0.5710  0.3083  0.0954
 2560TIP3    H1 7602   0.859   5.497   2.968 -1.6606 -0.1522  0.2522
 2560TIP3    H2 7603   0.855   5.647   2.951  1.2434 -0.0802 -0.2419
 2561TIP3   OH2 7604   1.561   3.293   4.115  0.0051 -0.2453  0.1651
 2561TIP3    H1 7605   1.588   3.204   4.136  1.4227  0.1902  0.3028
 2561TIP3    H2 7606   1.531   3.330   4.198 -1.5483 -0.8800 -0.0751
 2562TIP3   OH2 7607   0.311   5.533   3.744 -0.1387 -0.0869 -0.0064
 2562TIP3    H1 7608   0.331   5.617   3.786  1.8149 -1.0524  1.1381
 2562TIP3    H2 7609   0.343   5.543   3.655  0.5862  0.2449  0.2779
 2563TIP3   OH2 7610   7.097   2.873   3.380 -0.7215 -0.1879  0.1355
 2563TIP3    H1 7611   7.032   2.940   3.358  0.6759  1.6272  1.2706
 2563TIP3    H2 7612   7.181   2.917   3.370  0.3562 -2.2195 -0.4508
 2564TIP3   OH2 7613   5.732   4.950   1.479 -0.2798 -0.7622 -0.5303
 2564TIP3    H1 7614   5.643   4.983   1.470 -0.6776 -1.4089  0.6680
 2564TIP3    H2 7615   5.789   5.023   1.453 -1.0595  1.5154  3.3106
 2565TIP3   OH2 7616   0.405   4.148   2.727  0.2006  0.3007 -0.1456
 2565TIP3    H1 7617   0.413   4.228   2.677  1.4387  0.6839  0.6210
 2565TIP3    H2 7618   0.320   4.154   2.770  0.9871  2.0684  1.2995
 2566TIP3   OH2 7619   7.839   7.731   0.742 -0.0278 -0.1112  0.0405
 2566TIP3    H1 7620   7.803   7.672   0.676  1.1705 -0.2597 -0.4951
 2566TIP3    H2 7621   7.889   7.795   0.693  0.8271 -0.1758  0.8018
 2567TIP3   OH2 7622   2.847   5.368   3.080 -0.2236 -0.6106  0.3424
 2567TIP3    H1 7623   2.827   5.274   3.081 -1.2876 -0.4279 -0.9624
 2567TIP3    H2 7624   2.849   5.391   2.987 -2.0504  1.0583  0.6507
 2568TIP3   OH2 7625   4.293   4.800   2.234  0.2309 -0.6592  0.0709
 2568TIP3    H1 7626   4.377   4.846   2.232  0.9746 -1.9487 -0.0351
 2568TIP3    H2 7627   4.263   4.808   2.324  1.6189 -2.0736  0.7172
 2569TIP3   OH2 7628   8.037   1.922   3.552  0.0304 -0.3940 -0.3523
 2569TIP3    H1 7629   7.946   1.892   3.561  0.2321 -0.5709  1.4428
 2569TIP3    H2 7630   8.087   1.862   3.608  0.8888  1.2927  0.7480
 2570TIP3   OH2 7631   5.247   3.024   5.082 -0.2201  0.2345  0.1573
 2570TIP3    H1 7632   5.260   3.101   5.027  0.1545 -1.4993 -2.3419
 2570TIP3    H2 7633   5.333   2.981   5.085 -0.3575  0.0069  1.7065
 2571TIP3   OH2 7634   2.711   2.378   0.625 -0.8981  0.0731  0.1437
 2571TIP3    H1 7635   2.791   2.429   0.615 -0.0744 -0.8313  1.8339
 2571TIP3    H2 7636   2.690   2.349   0.536  2.0439 -1.7458 -0.0778
 2572TIP3   OH2 7637   4.923   5.208   4.237 -0.5415  0.2497  0.0436
 2572TIP3    H1 7638   4.846   5.205   4.181 -0.7772  0.0517  0.3741
 2572TIP3    H2 7639   4.906   5.279   4.298  0.2688  1.2916 -0.9159
 2573TIP3   OH2 7640   6.642   0.225   3.102  0.2251  0.4395 -0.2617
 2573TIP3    H1 7641   6.680   0.220   3.015  1.3889 -0.8499  0.2803
 2573TIP3    H2 7642   6.710   0.190   3.160 -1.0276 -0.0272  0.9934
 2574TIP3   OH2 7643   2.004   7.000   5.096 -0.5506 -0.0168 -0.0659
 2574TIP3    H1 7644   2.038   6.912   5.113  1.6579  1.0184  1.3992
 2574TIP3    H2 7645   2.018   7.013   5.002  0.7748 -0.6181  0.0145
 2575TIP3   OH2 7646   8.080   2.044   6.261 -0.1315 -0.3643 -0.2857
 2575TIP3    H1 7647   8.143   2.095   6.211 -0.5590  0.5816  0.1195
 2575TIP3    H2 7648   8.086   2.079   6.350  0.0543 -1.4834  0.1566
 2576TIP3   OH2 7649   4.600   1.288   1.758  0.0687  0.2043 -0.6505
 2576TIP3    H1 7650   4.519   1.282   1.809 -1.6854  1.2386 -3.1128
 2576TIP3    H2 7651   4.581   1.241   1.677  1.8437  0.6834 -1.4010
 2577TIP3   OH2 7652   6.400   6.739   4.105  0.5915  0.2507  0.0595
 2577TIP3    H1 7653   6.392   6.829   4.138  0.5316  0.5089 -0.6426
 2577TIP3    H2 7654   6.374   6.684   4.179  1.9482  0.7518  0.9588
 2578TIP3   OH2 7655   2.930   2.215   4.164  0.2479  0.3114  0.4607
 2578TIP3    H1 7656   2.865   2.284   4.176 -0.1368  0.3396 -1.4889
 2578TIP3    H2 7657   2.879   2.134   4.166  0.5576  0.1279  1.6876
 2579TIP3   OH2 7658   0.474   5.574   5.957 -0.6205  0.5329  0.3292
 2579TIP3    H1 7659   0.557   5.550   5.916 -0.1214  2.1777  0.3090
 2579TIP3    H2 7660   0.466   5.515   6.032  0.4538  0.2007  0.1996
 2580TIP3   OH2 7661   7.964   5.950   1.522 -0.2878  0.1131  0.0982
 2580TIP3    H1 7662   7.964   5.931   1.428  2.2825 -0.3483  0.1098
 2580TIP3    H2 7663   7.926   6.037   1.529 -1.7010 -0.3686 -1.2203
 2581TIP3   OH2 7664   4.155   1.739   5.592  0.4206 -0.1227 -0.1044
 2581TIP3    H1 7665   4.217   1.773   5.528  1.0228 -1.2032 -0.1188
 2581TIP3    H2 7666   4.201   1.666   5.634 -0.5148 -0.3814  0.5106
 2582TIP3   OH2 7667   5.140   0.848   3.079 -0.6280 -0.2782  0.2328
 2582TIP3    H1 7668   5.175   0.771   3.034 -1.4565 -0.6848  0.2724
 2582TIP3    H2 7669   5.196   0.920   3.050 -0.2324 -0.7896 -0.2899
 2583TIP3   OH2 7670   3.769   0.480   6.175 -0.7099  0.5231  0.3546
 2583TIP3    H1 7671   3.776   0.557   6.118  3.4702  0.5239  0.5472
 2583TIP3    H2 7672   3.772   0.516   6.264  1.0349  0.2355  0.4462
 2584TIP3   OH2 7673   0.609   3.713   5.694  0.2610  0.7817 -0.0883
 2584TIP3    H1 7674   0.635   3.679   5.608 -1.5510  0.1798 -0.4520
 2584TIP3    H2 7675   0.545   3.649   5.727  1.8417  0.3098  2.3199
 2585TIP3   OH2 7676   2.389   2.269   6.091  0.4824 -0.6836  0.1162
 2585TIP3    H1 7677   2.454   2.218   6.140 -0.9528 -2.7247  0.0380
 2585TIP3    H2 7678   2.312   2.269   6.148  0.5244  1.8129  0.2750
 2586TIP3   OH2 7679   3.557   5.058   5.163 -0.4897 -0.3127 -0.3917
 2586TIP3    H1 7680   3.519   5.074   5.077 -1.6581 -0.8910  0.0054
 2586TIP3    H2 7681   3.584   4.966   5.161  2.2943  0.3972 -1.1654
 2587TIP3   OH2 7682   1.425   6.146   1.660  0.0726 -0.5972  0.0319
 2587TIP3    H1 7683   1.494   6.126   1.723 -0.3182 -0.9223  0.3627
 2587TIP3    H2 7684   1.470   6.189   1.588  0.2663  1.6916  1.4143
 2588TIP3   OH2 7685   2.559   1.893   2.326 -0.4528  0.0141 -0.2918
 2588TIP3    H1 7686   2.567   1.831   2.398 -1.4729  2.2838  1.9387
 2588TIP3    H2 7687   2.623   1.864   2.261  0.6037 -2.0640  1.5698
 2589TIP3   OH2 7688   2.631   4.661   2.188 -0.2621  0.1668 -0.2844
 2589TIP3    H1 7689   2.566   4.661   2.117  0.4986 -0.0092 -0.9916
 2589TIP3    H2 7690   2.650   4.568   2.203 -0.6294  0.1843  0.3662
 2590TIP3   OH2 7691   0.704   7.504   5.319 -0.1313  0.4634  0.5278
 2590TIP3    H1 7692   0.756   7.478   5.395 -0.4446  0.8335  0.8681
 2590TIP3    H2 7693   0.743   7.587   5.291  2.0094 -1.1063 -1.6163
 2591TIP3   OH2 7694   0.428   0.872   2.234 -0.4489  0.2438 -0.0968
 2591TIP3    H1 7695   0.455   0.889   2.144 -0.9993  0.3424 -0.2482
 2591TIP3    H2 7696   0.392   0.955   2.265 -1.7351 -0.2056 -0.3283
 2592TIP3   OH2 7697   2.645   1.625   6.044  0.2209 -0.5717 -0.6004
 2592TIP3    H1 7698   2.552   1.628   6.063  0.2453 -0.6640 -0.4653
 2592TIP3    H2 7699   2.652   1.654   5.953  0.0577 -0.6013 -0.6229
 2593TIP3   OH2 7700   6.388   1.749   5.698  0.0777 -0.1135 -0.2895
 2593TIP3    H1 7701   6.419   1.703   5.776  4.1400 -1.1680 -2.2473
 2593TIP3    H2 7702   6.407   1.841   5.715 -0.0690 -0.1905  0.3271
 2594TIP3   OH2 7703   4.786   1.164   0.906 -0.4365  0.0889 -0.3866
 2594TIP3    H1 7704   4.841   1.112   0.963 -1.8452  1.4517  2.4780
 2594TIP3    H2 7705   4.718   1.104   0.876 -0.4344 -0.3805  0.5206
 2595TIP3   OH2 7706   4.672   1.756   5.497  0.0960  0.1487 -0.2229
 2595TIP3    H1 7707   4.588   1.765   5.542  0.0879 -2.8931  0.6155
 2595TIP3    H2 7708   4.650   1.720   5.411  0.5029 -1.6949  0.3889
 2596TIP3   OH2 7709   1.117   7.559   5.096  0.7190  0.0039  0.0964
 2596TIP3    H1 7710   1.059   7.509   5.038  0.4135  1.0317 -0.5266
 2596TIP3    H2 7711   1.134   7.500   5.169  0.8535 -1.2260 -0.8779
 2597TIP3   OH2 7712   0.164   2.290   6.271  0.0707 -0.3637  0.7592
 2597TIP3    H1 7713   0.115   2.219   6.313 -0.7680  1.2512  2.6307
 2597TIP3    H2 7714   0.139   2.369   6.319  1.6812  1.0922 -0.6576
 2598TIP3   OH2 7715   7.395   1.368   1.106  0.1457  0.4972 -0.1760
 2598TIP3    H1 7716   7.347   1.288   1.082  1.0215  0.6864 -3.0254
 2598TIP3    H2 7717   7.454   1.341   1.176 -0.2013 -1.1463 -0.4723
 2599TIP3   OH2 7718   7.068   7.762   2.262 -0.2442  0.1538  0.3101
 2599TIP3    H1 7719   6.977   7.758   2.234 -0.5391  0.6869  1.1537
 2599TIP3    H2 7720   7.118   7.751   2.181 -1.0627  1.0131 -0.3435
 2600TIP3   OH2 7721   7.366   5.952   4.982  0.2582 -0.1443 -0.2122
 2600TIP3    H1 7722   7.331   5.928   4.896  0.4259 -2.2648  0.2419
 2600TIP3    H2 7723   7.339   6.042   4.995 -0.9945 -0.2306 -1.8877
 2601TIP3   OH2 7724   2.513   3.778   6.864  0.0037 -0.0709  0.1458
 2601TIP3    H1 7725   2.561   3.776   6.946  0.1287 -0.2267  0.0706
 2601TIP3    H2 7726   2.453   3.852   6.872 -1.0220 -0.9590  0.9567
 2602TIP3   OH2 7727   4.489   2.733   3.458 -0.0876 -0.0749 -0.1391
 2602TIP3    H1 7728   4.479   2.693   3.372  0.0641  0.4031 -0.3806
 2602TIP3    H2 7729   4.584   2.735   3.473 -0.1244 -0.3881  0.1497
 2603TIP3   OH2 7730   2.106   5.310   2.574  0.0603  0.1923 -0.0411
 2603TIP3    H1 7731   2.048   5.384   2.593  0.4388  0.8399 -1.3332
 2603TIP3    H2 7732   2.132   5.278   2.660 -0.0457  1.6134  0.5427
 2604TIP3   OH2 7733   4.366   3.070   1.344  0.7313 -1.3435  0.0606
 2604TIP3    H1 7734   4.327   3.099   1.427  0.2907  0.4891 -0.7236
 2604TIP3    H2 7735   4.291   3.042   1.291  0.5134  0.9654 -0.9835
 2605TIP3   OH2 7736   3.069   6.742   7.095  0.9731  0.5616  0.1372
 2605TIP3    H1 7737   3.078   6.671   7.159  0.1379 -0.3110 -0.6770
 2605TIP3    H2 7738   3.007   6.708   7.031  1.6714  1.4757 -1.0588
 2606TIP3   OH2 7739   4.945   7.929   1.355 -0.5643  0.3083  0.1406
 2606TIP3    H1 7740   5.032   7.900   1.329 -0.2046  1.8987 -0.5280
 2606TIP3    H2 7741   4.960   8.002   1.416 -1.4377 -0.4287  1.3088
 2607TIP3   OH2 7742   5.942   1.711   5.884 -0.4633  0.0749  0.2062
 2607TIP3    H1 7743   6.016   1.716   5.823  0.0339 -1.1923  0.6802
 2607TIP3    H2 7744   5.962   1.776   5.951  0.7471 -0.9540  0.8739
 2608TIP3   OH2 7745   0.215   3.606   5.668  0.1053  0.3223 -0.4001
 2608TIP3    H1 7746   0.129   3.642   5.649  0.0219 -0.0629 -0.7736
 2608TIP3    H2 7747   0.258   3.601   5.582 -0.3949 -1.7734 -0.5801
 2609TIP3   OH2 7748   1.035   0.540   1.977 -0.0035 -0.0018 -0.1817
 2609TIP3    H1 7749   1.079   0.483   1.914  1.6370  0.7410  0.2287
 2609TIP3    H2 7750   1.060   0.505   2.063  1.2027  1.3972  0.0806
 2610TIP3   OH2 7751   5.852   0.252   0.990 -0.6737 -0.1255  0.0997
 2610TIP3    H1 7752   5.802   0.197   1.050  0.4088  0.2004  1.3361
 2610TIP3    H2 7753   5.812   0.339   0.998  0.2680  0.2178  1.3560
 2611TIP3   OH2 7754   6.635   4.491   3.681 -0.5894  0.7290 -0.4074
 2611TIP3    H1 7755   6.679   4.547   3.745 -1.3310  2.2867 -1.1979
 2611TIP3    H2 7756   6.705   4.465   3.621  0.0759 -0.5946  0.8668
 2612TIP3   OH2 7757   6.142   6.646   3.420  0.3657 -0.6646 -0.0516
 2612TIP3    H1 7758   6.135   6.556   3.386  2.1696 -0.8866  0.0372
 2612TIP3    H2 7759   6.227   6.648   3.463 -0.0067  0.8796  0.6635
 2613TIP3   OH2 7760   6.494   2.067   2.799  0.2434 -0.0136  0.3236
 2613TIP3    H1 7761   6.455   2.032   2.719  0.9213 -0.9540  0.3841
 2613TIP3    H2 7762   6.521   2.156   2.776  0.5425 -0.3205 -0.5315
 2614TIP3   OH2 7763   4.895   1.736   5.883  0.2166  0.1653  0.6081
 2614TIP3    H1 7764   4.849   1.820   5.880 -0.7910 -0.4032 -1.1400
 2614TIP3    H2 7765   4.977   1.755   5.929 -0.6823  1.7432  1.6492
 2615TIP3   OH2 7766   1.424   7.786   0.511  0.0660  0.0084 -0.3315
 2615TIP3    H1 7767   1.434   7.691   0.500 -1.8834 -0.0399 -2.3476
 2615TIP3    H2 7768   1.368   7.796   0.587 -0.9556 -0.5655 -0.9852
 2616TIP3   OH2 7769   8.603   1.957   3.317 -1.0433  0.1321  0.0241
 2616TIP3    H1 7770   8.571   1.891   3.255  1.0988 -2.2164  1.2710
 2616TIP3    H2 7771   8.552   1.942   3.397  0.1054 -0.7254  0.6213
 2617TIP3   OH2 7772   6.440   4.879   0.414 -0.1555 -0.1062  0.4361
 2617TIP3    H1 7773   6.394   4.891   0.497  1.1711  1.1014  1.0314
 2617TIP3    H2 7774   6.431   4.963   0.369  1.2160  0.0715  0.4522
 2618TIP3   OH2 7775   5.111   7.880   3.932  0.5560  0.5068  0.2806
 2618TIP3    H1 7776   5.045   7.949   3.922 -0.2163 -0.3577 -0.6420
 2618TIP3    H2 7777   5.171   7.893   3.859  1.3137  1.1385  0.9808
 2619TIP3   OH2 7778   6.386   7.079   0.633  0.0402  0.1120  0.5884
 2619TIP3    H1 7779   6.404   7.125   0.715 -0.2728 -0.9092  1.2518
 2619TIP3    H2 7780   6.294   7.100   0.613 -0.6501 -1.5076  1.7953
 2620TIP3   OH2 7781   1.888   7.986   5.881 -0.4344  0.1705  0.1263
 2620TIP3    H1 7782   1.813   8.031   5.919  0.1355  1.4033 -0.1760
 2620TIP3    H2 7783   1.866   7.975   5.788 -1.3320 -1.8177  0.5158
 2621TIP3   OH2 7784   2.136   8.122   5.957 -0.1026  0.6280 -0.2773
 2621TIP3    H1 7785   2.051   8.090   5.926 -0.3770  0.8121  0.2777
 2621TIP3    H2 7786   2.186   8.136   5.877 -0.3915 -0.0364 -0.5889
 2622TIP3   OH2 7787   3.435   6.655   4.382 -0.0826 -0.7086  0.1526
 2622TIP3    H1 7788   3.358   6.601   4.401 -0.5661 -0.5393 -1.2390
 2622TIP3    H2 7789   3.407   6.745   4.398 -0.3546 -0.6022 -0.8873
 2623TIP3   OH2 7790   7.774   0.183   0.320 -0.4031  0.3789 -0.4955
 2623TIP3    H1 7791   7.851   0.239   0.333 -1.2564  1.1498  1.8646
 2623TIP3    H2 7792   7.810   0.096   0.304  0.9798  0.7606  0.3572
 2624TIP3   OH2 7793   4.288   3.862   6.808  0.1427  0.2041  0.6989
 2624TIP3    H1 7794   4.260   3.863   6.717  0.1818 -1.2786  0.6407
 2624TIP3    H2 7795   4.282   3.770   6.834  1.9052  0.3063  1.6392
 2625TIP3   OH2 7796   2.158   1.475   5.790 -0.1179  0.2277 -0.0504
 2625TIP3    H1 7797   2.187   1.388   5.763 -1.0875 -0.3974  0.8125
 2625TIP3    H2 7798   2.079   1.459   5.842 -1.1012  1.7316 -1.0001
 2626TIP3   OH2 7799   0.680   1.892   5.068  0.0550  0.1546 -0.3735
 2626TIP3    H1 7800   0.591   1.925   5.077 -0.9510 -2.4493  0.1110
 2626TIP3    H2 7801   0.689   1.871   4.975 -0.5152 -1.2015 -0.1472
 2627TIP3   OH2 7802   6.804   4.785   6.603  0.2752  0.4519  0.1688
 2627TIP3    H1 7803   6.728   4.798   6.660 -0.5682  1.1757 -1.0824
 2627TIP3    H2 7804   6.813   4.690   6.595 -0.3077  0.3638  0.5634
 2628TIP3   OH2 7805   1.423   5.147   6.809  0.6603  0.0373 -0.2540
 2628TIP3    H1 7806   1.477   5.189   6.877 -0.3496  0.4063  0.3400
 2628TIP3    H2 7807   1.340   5.194   6.812  0.3717 -0.3662 -1.3249
 2629TIP3   OH2 7808   3.968   0.683   0.678  0.0851 -0.7491  0.3414
 2629TIP3    H1 7809   3.943   0.768   0.715 -1.4628 -0.6658 -0.7851
 2629TIP3    H2 7810   4.059   0.670   0.706  0.2296  1.1007  0.8555
 2630TIP3   OH2 7811   8.407   2.271   5.626  0.1539  0.4072 -0.2833
 2630TIP3    H1 7812   8.487   2.238   5.669  0.5978  2.3758  0.5310
 2630TIP3    H2 7813   8.341   2.205   5.646  1.0669 -0.2085  0.9144
 2631TIP3   OH2 7814   6.201   0.735   4.091 -0.1451 -0.4417 -0.1493
 2631TIP3    H1 7815   6.161   0.813   4.052 -1.0959 -0.4647  0.7241
 2631TIP3    H2 7816   6.243   0.766   4.171 -2.3596 -1.0929  1.3605
 2632TIP3   OH2 7817   2.490   7.760   3.441 -0.2432  0.3729  0.5646
 2632TIP3    H1 7818   2.437   7.794   3.513 -1.4627  1.8815 -0.9601
 2632TIP3    H2 7819   2.435   7.769   3.364  0.7318 -1.9265 -0.4993
 2633TIP3   OH2 7820   1.223   4.119   4.813  0.1710 -0.1341  0.1111
 2633TIP3    H1 7821   1.281   4.043   4.806  0.6443  0.2703 -0.5257
 2633TIP3    H2 7822   1.231   4.148   4.903 -0.8795 -1.5028  0.6833
 2634TIP3   OH2 7823   7.241   5.986   6.125 -0.2530 -0.0018  0.1493
 2634TIP3    H1 7824   7.301   5.981   6.200  0.2378 -0.6682 -0.2715
 2634TIP3    H2 7825   7.248   5.900   6.084 -2.2287 -0.4239  0.6182
 2635TIP3   OH2 7826   6.748   0.505   1.636  0.7044 -0.2185 -0.4676
 2635TIP3    H1 7827   6.811   0.434   1.648  1.3038  0.0277 -1.9084
 2635TIP3    H2 7828   6.693   0.476   1.563  0.5273  0.5087 -0.6318
 2636TIP3   OH2 7829   1.877   0.445   1.055  0.4896  0.7539  0.5172
 2636TIP3    H1 7830   1.872   0.433   0.961 -0.2421 -2.3944  0.8427
 2636TIP3    H2 7831   1.789   0.473   1.081  1.2275  3.7497  0.1482
 2637TIP3   OH2 7832   7.486   1.631   1.987  0.2096  0.0701 -0.3528
 2637TIP3    H1 7833   7.492   1.556   1.927  2.3001 -0.4387  0.4115
 2637TIP3    H2 7834   7.506   1.595   2.073  0.4417  1.3631  0.1629
 2638TIP3   OH2 7835   0.085   0.173   0.311 -0.3267  0.1985 -0.0110
 2638TIP3    H1 7836   0.152   0.125   0.263 -0.6661  0.9434 -1.2693
 2638TIP3    H2 7837   0.097   0.146   0.402  1.6403  0.2762 -0.2016
 2639TIP3   OH2 7838   4.444   5.218   7.050  0.4293  0.4735  0.0481
 2639TIP3    H1 7839   4.355   5.240   7.077  0.7245  0.9475  0.6553
 2639TIP3    H2 7840   4.462   5.276   6.977 -0.0658 -0.2254 -0.6488
 2640TIP3   OH2 7841   5.359   2.325   5.789  0.0733  0.3035 -0.1799
 2640TIP3    H1 7842   5.355   2.235   5.823  2.2174  0.3888  0.4289
 2640TIP3    H2 7843   5.387   2.315   5.698  2.6114  0.3784  0.5213
 2641TIP3   OH2 7844   3.685   0.165   3.587 -0.4935  0.4220  0.0423
 2641TIP3    H1 7845   3.605   0.201   3.550 -1.2756 -0.3311  0.9350
 2641TIP3    H2 7846   3.750   0.234   3.575 -1.0017  0.6684 -1.6017
 2642TIP3   OH2 7847   3.259   1.658   6.276 -0.0430  0.2357  0.3269
 2642TIP3    H1 7848   3.271   1.682   6.184 -1.3288  1.4564  0.4429
 2642TIP3    H2 7849   3.222   1.570   6.273 -0.0512  0.2545 -0.3158
 2643TIP3   OH2 7850   8.602   1.288   0.010 -0.5095 -0.0120  0.0249
 2643TIP3    H1 7851   8.601   1.364   0.068 -3.6576  0.1413 -0.0446
 2643TIP3    H2 7852   8.644   1.219   0.061 -0.3784  0.9689  1.2874
 2644TIP3   OH2 7853   4.126   6.496   6.625  0.0669  0.0907 -0.2206
 2644TIP3    H1 7854   4.122   6.412   6.672  2.6547 -0.3578 -0.6641
 2644TIP3    H2 7855   4.194   6.545   6.671 -0.4890  1.4290 -0.7914
 2645TIP3   OH2 7856   5.151   7.698   6.652  0.0047 -0.2725  0.0243
 2645TIP3    H1 7857   5.126   7.771   6.595  0.2025 -1.5462 -1.7767
 2645TIP3    H2 7858   5.077   7.688   6.712 -0.6861  0.4382 -0.6939
 2646TIP3   OH2 7859   7.519   4.215   1.753  0.1168  0.3606  0.6096
 2646TIP3    H1 7860   7.567   4.262   1.685 -1.1861  0.7270 -0.0959
 2646TIP3    H2 7861   7.431   4.253   1.751 -0.2322 -0.3210  1.8186
 2647TIP3   OH2 7862   1.620   6.450   1.656  0.4428  0.1654  0.0109
 2647TIP3    H1 7863   1.621   6.442   1.560  1.0151  1.1232 -0.0728
 2647TIP3    H2 7864   1.708   6.422   1.683  0.1504 -0.5020  0.3046
 2648TIP3   OH2 7865   4.243   6.040   5.168  0.3332  0.4321 -0.1481
 2648TIP3    H1 7866   4.316   6.001   5.119 -1.4458  0.3397 -2.9152
 2648TIP3    H2 7867   4.222   6.121   5.122 -1.8624  0.0215  0.0009
 2649TIP3   OH2 7868   2.389   2.746   1.844  0.4374 -0.2571  0.3001
 2649TIP3    H1 7869   2.322   2.678   1.843 -0.1740  0.1859 -3.3962
 2649TIP3    H2 7870   2.453   2.717   1.779  2.1533  0.9525  1.3655
 2650TIP3   OH2 7871   5.007   1.383   5.211  0.2276 -0.1267  0.0684
 2650TIP3    H1 7872   5.088   1.434   5.205  0.0440  0.1361 -0.2132
 2650TIP3    H2 7873   5.036   1.291   5.210  0.6176 -0.0474  1.3955
 2651TIP3   OH2 7874   7.250   0.881   5.053 -0.7934 -0.1312 -0.1187
 2651TIP3    H1 7875   7.224   0.942   4.983 -1.6034  0.5072  0.7130
 2651TIP3    H2 7876   7.344   0.894   5.062 -0.7878  0.2504 -0.6638
 2652TIP3   OH2 7877   8.658   3.923   1.594 -0.0853 -0.3419 -0.0526
 2652TIP3    H1 7878   8.564   3.912   1.607 -0.8018  2.3846 -2.0325
 2652TIP3    H2 7879   8.689   3.963   1.675 -0.9564  0.0789  0.0903
 2653TIP3   OH2 7880   2.448   2.463   6.790  0.2433 -0.4559 -0.1619
 2653TIP3    H1 7881   2.464   2.434   6.700 -2.7158 -1.4666 -0.4736
 2653TIP3    H2 7882   2.407   2.388   6.833 -0.9402  0.9082  1.2169
 2654TIP3   OH2 7883   3.474   0.738   5.715 -0.2140  0.2108  0.1658
 2654TIP3    H1 7884   3.451   0.645   5.717  1.8415 -0.3203  1.4684
 2654TIP3    H2 7885   3.390   0.783   5.724 -1.2448 -1.4965 -0.3586
 2655TIP3   OH2 7886   1.655   4.015   1.424 -0.4882 -0.1833 -0.3073
 2655TIP3    H1 7887   1.641   3.942   1.363 -1.6027 -0.1283 -0.1359
 2655TIP3    H2 7888   1.635   3.978   1.510  1.4283 -0.3655  0.1127
 2656TIP3   OH2 7889   7.577   1.561   6.735  0.1462 -0.1110  0.0216
 2656TIP3    H1 7890   7.517   1.491   6.709  1.2701 -1.4283  0.7463
 2656TIP3    H2 7891   7.552   1.636   6.682 -0.7852 -1.2236 -1.1879
 2657TIP3   OH2 7892   2.549   7.663   4.132  0.2555 -0.0610  0.2765
 2657TIP3    H1 7893   2.553   7.600   4.203 -0.7973 -0.7819 -0.2651
 2657TIP3    H2 7894   2.455   7.683   4.123  0.5861  1.9093  0.7030
 2658TIP3   OH2 7895   2.105   5.244   5.656  0.1924  0.4280  0.5814
 2658TIP3    H1 7896   2.160   5.199   5.719  1.8252  0.4670 -0.7403
 2658TIP3    H2 7897   2.084   5.328   5.697 -2.1898 -1.0846  2.7181
 2659TIP3   OH2 7898   7.722   6.975   1.361  0.0951 -0.3365 -0.4385
 2659TIP3    H1 7899   7.786   6.951   1.295  0.6707 -1.4416  0.4898
 2659TIP3    H2 7900   7.734   7.069   1.374  3.1599 -0.8359  1.3278
 2660TIP3   OH2 7901   7.034   5.593   4.381  0.2894 -0.1706  0.5027
 2660TIP3    H1 7902   7.052   5.686   4.393  1.7085 -0.5167  1.2080
 2660TIP3    H2 7903   6.997   5.587   4.292  1.3674  0.8981 -0.0444
 2661TIP3   OH2 7904   4.697   5.569   6.441 -0.0933 -0.1415 -0.2783
 2661TIP3    H1 7905   4.650   5.638   6.487  0.8816  0.1837  0.2391
 2661TIP3    H2 7906   4.716   5.504   6.508  1.2564  0.2913 -0.2139
 2662TIP3   OH2 7907   6.565   0.717   0.109  0.0578 -0.3355  0.1223
 2662TIP3    H1 7908   6.553   0.766   0.028  0.2634 -0.7308 -0.1565
 2662TIP3    H2 7909   6.513   0.763   0.174  0.6603  0.5422 -0.0089
 2663TIP3   OH2 7910   2.219   6.736   2.474  0.3412 -0.1857  0.1311
 2663TIP3    H1 7911   2.295   6.687   2.504 -0.3400 -0.4024  1.5749
 2663TIP3    H2 7912   2.254   6.822   2.450  0.8269  0.3415  2.4925
 2664TIP3   OH2 7913   2.996   0.714   4.545 -0.3715  0.3319  0.0713
 2664TIP3    H1 7914   3.030   0.628   4.521  2.1026  0.9529  1.1095
 2664TIP3    H2 7915   2.903   0.709   4.524 -0.0718 -2.1710 -1.0249
 2665TIP3   OH2 7916   6.594   3.863   2.155 -0.3210  0.2488  0.1004
 2665TIP3    H1 7917   6.501   3.864   2.179 -0.6092 -0.2326 -0.9136
 2665TIP3    H2 7918   6.611   3.952   2.124 -0.5538  0.2237 -0.1036
 2666TIP3   OH2 7919   0.972   1.180   4.398  1.0443  0.0934 -1.1333
 2666TIP3    H1 7920   0.990   1.101   4.346  1.7222 -1.6426  1.5068
 2666TIP3    H2 7921   0.965   1.147   4.488  0.3732  2.9699 -0.0447
 2667TIP3   OH2 7922   1.367   0.273   0.976 -0.2308  0.2345  0.1133
 2667TIP3    H1 7923   1.461   0.260   0.971 -0.3708 -0.6070 -0.5563
 2667TIP3    H2 7924   1.330   0.184   0.974 -1.0958  0.5906 -1.2818
 2668TIP3   OH2 7925   7.355   5.524   3.762  0.3056 -0.1052  0.9311
 2668TIP3    H1 7926   7.400   5.519   3.677  1.0954 -1.1634  1.3905
 2668TIP3    H2 7927   7.398   5.596   3.808 -0.9169  1.2575  0.0062
 2669TIP3   OH2 7928   2.428   1.237   3.525  0.0955 -0.4330  0.1654
 2669TIP3    H1 7929   2.364   1.297   3.485  1.3185  0.3508 -0.7188
 2669TIP3    H2 7930   2.463   1.286   3.599  1.0043 -0.0650 -0.4818
 2670TIP3   OH2 7931   4.406   0.201   1.437 -0.1978 -0.1460  0.0355
 2670TIP3    H1 7932   4.479   0.164   1.387  0.2577  1.6718 -0.7011
 2670TIP3    H2 7933   4.403   0.148   1.517  3.6388  1.2605  1.3212
 2671TIP3   OH2 7934   6.219   3.478   6.197  0.3056 -0.1630  0.2675
 2671TIP3    H1 7935   6.314   3.478   6.185  0.2834 -0.3561  0.0771
 2671TIP3    H2 7936   6.197   3.386   6.213 -0.0387 -0.3838 -1.2919
 2672TIP3   OH2 7937   6.329   5.123   5.597 -0.1810 -0.0105  0.0400
 2672TIP3    H1 7938   6.384   5.076   5.535  0.2385 -0.9541  1.1103
 2672TIP3    H2 7939   6.240   5.104   5.568 -0.1051  3.1640 -2.9559
 2673TIP3   OH2 7940   0.141   3.792   4.318  0.1431  0.1082 -0.0648
 2673TIP3    H1 7941   0.119   3.823   4.230  1.5421 -0.9037 -0.8177
 2673TIP3    H2 7942   0.215   3.846   4.345  0.2655 -0.1463  0.1182
 2674TIP3   OH2 7943   7.657   4.508   5.838  0.6036 -0.2049  0.0983
 2674TIP3    H1 7944   7.747   4.506   5.806  0.1011 -0.8147 -1.3652
 2674TIP3    H2 7945   7.604   4.478   5.764 -0.6683 -1.2936  1.3729
 2675TIP3   OH2 7946   7.763   4.534   3.948 -0.0176 -0.1663  0.3704
 2675TIP3    H1 7947   7.762   4.607   4.009  0.8834  1.7533 -1.7534
 2675TIP3    H2 7948   7.846   4.489   3.964 -0.3960 -0.5033  1.4238
 2676TIP3   OH2 7949   1.591   7.525   0.462 -0.0193 -0.0101  0.1189
 2676TIP3    H1 7950   1.602   7.473   0.382  0.6115 -0.0778  0.2429
 2676TIP3    H2 7951   1.662   7.496   0.519 -0.6419 -0.1677  0.8198
 2677TIP3   OH2 7952   6.087   8.215   3.174  0.2400 -0.0427  0.2340
 2677TIP3    H1 7953   6.091   8.130   3.219  0.9919  0.9954  2.2486
 2677TIP3    H2 7954   5.993   8.232   3.164  0.0767 -0.8703  0.2442
 2678TIP3   OH2 7955   0.352   5.787   3.821  0.0130 -0.3693 -0.3464
 2678TIP3    H1 7956   0.282   5.842   3.855 -0.1180 -0.2228 -0.8409
 2678TIP3    H2 7957   0.432   5.828   3.852  0.0033  1.1637 -2.1788
 2679TIP3   OH2 7958   5.293   5.514   1.334  0.6769  0.2722 -0.1847
 2679TIP3    H1 7959   5.295   5.423   1.304  0.7102  0.9925 -2.5335
 2679TIP3    H2 7960   5.201   5.529   1.357  0.4768 -0.0902 -0.7215
 2680TIP3   OH2 7961   7.601   6.697   1.863  0.1785  0.2263  0.0681
 2680TIP3    H1 7962   7.693   6.723   1.865  0.4510 -0.6110 -0.8485
 2680TIP3    H2 7963   7.569   6.729   1.778 -0.1142 -0.3332 -0.0353
 2681TIP3   OH2 7964   3.428   5.808   0.454 -0.4050  0.2334  0.7673
 2681TIP3    H1 7965   3.438   5.799   0.548  0.7326  0.1738  0.6549
 2681TIP3    H2 7966   3.450   5.900   0.436  1.6424 -0.2967  0.3213
 2682TIP3   OH2 7967   7.799   4.127   1.570  0.0171  0.4170  0.1077
 2682TIP3    H1 7968   7.716   4.080   1.578 -0.2130  0.9208  0.9142
 2682TIP3    H2 7969   7.774   4.220   1.576  0.7034  0.5548  1.2038
 2683TIP3   OH2 7970   3.830   2.910   0.450  0.5514  0.1563 -0.3181
 2683TIP3    H1 7971   3.920   2.943   0.452  0.6910 -0.1304  2.2285
 2683TIP3    H2 7972   3.838   2.819   0.480 -0.5241 -0.0265 -0.5707
 2684TIP3   OH2 7973   0.679   3.035   3.818 -0.1304 -0.0931  0.0800
 2684TIP3    H1 7974   0.688   3.023   3.724  0.0463  1.1857 -0.0788
 2684TIP3    H2 7975   0.735   2.967   3.856  0.9084  0.2700 -0.7546
 2685TIP3   OH2 7976   3.687   4.986   0.364  0.0638 -0.2123  0.2904
 2685TIP3    H1 7977   3.674   5.018   0.454 -0.8277 -2.4987  1.0361
 2685TIP3    H2 7978   3.766   4.932   0.370 -0.3270 -0.8389 -0.1710
 2686TIP3   OH2 7979   3.443   3.133   5.119 -0.0639  0.0189 -0.1834
 2686TIP3    H1 7980   3.379   3.132   5.189 -0.3360 -0.3762 -0.4287
 2686TIP3    H2 7981   3.399   3.177   5.046  0.0485  0.0093 -0.2584
 2687TIP3   OH2 7982   7.310   1.160   4.632  0.1791 -0.5374  0.2116
 2687TIP3    H1 7983   7.340   1.243   4.597  0.1439  0.8156  3.1080
 2687TIP3    H2 7984   7.235   1.136   4.577  0.3901  1.1486 -0.8709
 2688TIP3   OH2 7985   8.480   1.786   4.404  0.6421  0.4450  0.1885
 2688TIP3    H1 7986   8.481   1.825   4.492  0.8233 -0.5011  0.6160
 2688TIP3    H2 7987   8.473   1.861   4.345 -1.1766  1.0077  1.0633
 2689TIP3   OH2 7988   0.114   7.071   2.097  0.5139  0.2116 -0.3440
 2689TIP3    H1 7989   0.105   7.125   2.176  2.9041 -0.8074  0.7360
 2689TIP3    H2 7990   0.108   6.981   2.129 -3.5312 -0.3876 -2.1155
 2690TIP3   OH2 7991   7.267   4.852   5.490 -0.5141  0.0855  0.5249
 2690TIP3    H1 7992   7.178   4.885   5.499 -1.2285 -0.3864 -3.1254
 2690TIP3    H2 7993   7.260   4.779   5.428  1.9213 -2.7486  3.1692
 2691TIP3   OH2 7994   8.086   6.856   1.352  0.3557  0.2152  0.3496
 2691TIP3    H1 7995   8.147   6.870   1.425  0.8724  2.4119 -0.4111
 2691TIP3    H2 7996   8.135   6.803   1.289  0.3222 -0.6928  1.0611
 2692TIP3   OH2 7997   3.057   4.667   6.743  0.0429  0.6482 -0.2056
 2692TIP3    H1 7998   3.019   4.750   6.714  0.0397  0.5105 -0.6067
 2692TIP3    H2 7999   2.981   4.615   6.769 -0.0306  0.4614 -0.7751
 2693TIP3   OH2 8000   5.433   3.035   6.413  0.1542  0.3392 -0.4687
 2693TIP3    H1 8001   5.514   3.007   6.370  2.0811 -0.3558  3.2788
 2693TIP3    H2 8002   5.370   2.966   6.391  0.6172  0.6372 -3.0471
 2694TIP3   OH2 8003   3.929   3.975   1.200  0.3005  0.4446  0.1601
 2694TIP3    H1 8004   3.839   3.983   1.169  0.0589 -1.2339  0.3642
 2694TIP3    H2 8005   3.972   4.055   1.169 -1.1094  1.0066 -0.4144
 2695TIP3   OH2 8006   5.946   7.880   4.508  0.7459  0.6303  0.3404
 2695TIP3    H1 8007   5.852   7.888   4.523  0.5365 -0.0977 -0.4626
 2695TIP3    H2 8008   5.964   7.945   4.440  0.1579 -1.3706 -1.8982
 2696TIP3   OH2 8009   8.503   7.493   5.086 -0.5364 -0.0424  0.5222
 2696TIP3    H1 8010   8.584   7.506   5.036 -0.6594 -1.0249  0.0533
 2696TIP3    H2 8011   8.532   7.495   5.178 -0.3242  1.8567  0.4653
 2697TIP3   OH2 8012   7.623   6.552   3.467  0.4478  0.2139 -0.6689
 2697TIP3    H1 8013   7.574   6.632   3.447  0.8771  0.4967 -0.6106
 2697TIP3    H2 8014   7.595   6.489   3.401 -2.8625 -0.8870  1.5185
 2698TIP3   OH2 8015   1.958   5.654   3.460 -0.2381  0.0357 -0.1480
 2698TIP3    H1 8016   1.916   5.731   3.420  1.9511  2.1100  1.2584
 2698TIP3    H2 8017   2.051   5.665   3.441  0.1738 -2.2419  0.2469
 2699TIP3   OH2 8018   3.508   0.528   2.176  0.4900 -0.0146  0.7446
 2699TIP3    H1 8019   3.569   0.580   2.123 -0.1922  0.0691  0.0280
 2699TIP3    H2 8020   3.435   0.588   2.194 -0.2593 -0.6737 -0.0082
 2700TIP3   OH2 8021   3.036   5.869   0.319 -0.3507 -0.6006  0.1511
 2700TIP3    H1 8022   3.077   5.804   0.263  1.0662  1.8535 -1.8967
 2700TIP3    H2 8023   2.950   5.885   0.278 -0.0307 -0.0656 -0.3325
 2701TIP3   OH2 8024   1.151   1.839   6.060 -1.1155  0.2003 -0.2087
 2701TIP3    H1 8025   1.064   1.814   6.090 -0.1632 -1.6007  1.2397
 2701TIP3    H2 8026   1.155   1.808   5.969 -2.2291  1.0104 -0.5528
 2702TIP3   OH2 8027   5.385   0.094   0.637 -0.0630  0.1002 -0.5236
 2702TIP3    H1 8028   5.435   0.118   0.560  1.1961  0.9514  0.5325
 2702TIP3    H2 8029   5.338   0.173   0.661 -1.4328 -0.4974 -1.0952
 2703TIP3   OH2 8030   6.085   6.053   5.288 -0.1433  0.4329  0.1873
 2703TIP3    H1 8031   6.033   6.133   5.296  1.5865  1.6580 -0.3110
 2703TIP3    H2 8032   6.109   6.049   5.196 -0.8154 -1.1057  0.0389
 2704TIP3   OH2 8033   5.055   8.010   3.042  0.4463  0.3144 -0.1217
 2704TIP3    H1 8034   5.086   8.046   3.125 -2.4306 -0.6726  1.5509
 2704TIP3    H2 8035   5.110   7.934   3.026 -0.2259 -0.7457  2.1129
 2705TIP3   OH2 8036   4.367   0.940   2.731 -0.2175 -0.1766  0.4423
 2705TIP3    H1 8037   4.373   0.853   2.694  0.2276  0.6299 -1.4908
 2705TIP3    H2 8038   4.278   0.945   2.767 -1.0308 -0.6987 -1.3852
 2706TIP3   OH2 8039   5.799   5.843   1.683  0.1697  0.4941 -0.2822
 2706TIP3    H1 8040   5.843   5.774   1.733 -0.5374  0.2217 -0.0266
 2706TIP3    H2 8041   5.794   5.809   1.593 -0.1806  0.2056 -0.1557
 2707TIP3   OH2 8042   6.878   1.202   5.314  0.4086  0.4481 -0.0939
 2707TIP3    H1 8043   6.867   1.221   5.221  0.4160  1.0321  0.0219
 2707TIP3    H2 8044   6.948   1.261   5.343  2.1611 -1.4341 -0.2596
 2708TIP3   OH2 8045   5.013   2.054   0.475 -0.7601 -0.5126  0.0042
 2708TIP3    H1 8046   4.959   2.052   0.396 -0.5769 -1.0590 -0.1090
 2708TIP3    H2 8047   4.969   2.117   0.532 -0.1188  0.9844 -1.0834
 2709TIP3   OH2 8048   3.442   6.431   3.011 -0.0495 -0.1712  0.5238
 2709TIP3    H1 8049   3.498   6.506   2.992  0.2648 -0.7335 -0.8858
 2709TIP3    H2 8050   3.370   6.468   3.063  1.4190  0.6176  2.0976
 2710TIP3   OH2 8051   2.647   7.311   0.923 -0.2243  0.3292  0.2618
 2710TIP3    H1 8052   2.654   7.260   1.003  0.3743  0.7930  0.5132
 2710TIP3    H2 8053   2.573   7.370   0.938  0.8362  1.5063  1.1218
 2711TIP3   OH2 8054   7.486   5.334   1.520  0.4778 -0.2128 -0.7205
 2711TIP3    H1 8055   7.560   5.315   1.463 -0.8873  0.0116 -2.6633
 2711TIP3    H2 8056   7.408   5.312   1.468 -0.8583  0.3463  0.9282
 2712TIP3   OH2 8057   1.169   3.133   5.789 -0.2242 -0.2377  0.1477
 2712TIP3    H1 8058   1.161   3.158   5.697 -1.8327 -0.0244  0.3106
 2712TIP3    H2 8059   1.192   3.040   5.786 -1.2301 -0.4868 -0.4947
 2713TIP3   OH2 8060   7.541   6.113   3.362 -0.2899 -0.1645 -0.1843
 2713TIP3    H1 8061   7.531   6.029   3.406 -0.1060  0.7894  1.8207
 2713TIP3    H2 8062   7.490   6.174   3.416  0.4762  1.2023 -0.9485
 2714TIP3   OH2 8063   5.670   1.666   2.322 -1.2796 -0.0553  0.9879
 2714TIP3    H1 8064   5.575   1.658   2.319 -1.1975 -0.9586  0.4208
 2714TIP3    H2 8065   5.699   1.594   2.378 -1.0050  1.0742  2.3517
 2715TIP3   OH2 8066   5.899   3.690   6.556  0.8819 -0.1117  0.5526
 2715TIP3    H1 8067   5.870   3.781   6.565 -1.6014 -0.4931 -2.0690
 2715TIP3    H2 8068   5.873   3.649   6.639  1.0865  1.3166  1.3672
 2716TIP3   OH2 8069   0.582   2.568   5.239  0.8749  0.3122  0.0958
 2716TIP3    H1 8070   0.640   2.511   5.188 -1.1200 -1.9022  0.1512
 2716TIP3    H2 8071   0.626   2.653   5.238  2.7679 -0.5739 -2.1139
 2717TIP3   OH2 8072   1.638   0.231   0.977  0.5508 -0.5897  0.0896
 2717TIP3    H1 8073   1.702   0.171   0.938  2.3087  1.7598 -0.9105
 2717TIP3    H2 8074   1.663   0.317   0.943 -1.8727  0.7268  1.4078
 2718TIP3   OH2 8075   0.162   3.036   0.310  0.1109  0.4078 -0.4044
 2718TIP3    H1 8076   0.138   3.048   0.402 -0.7001  1.5046 -0.7239
 2718TIP3    H2 8077   0.137   2.946   0.290 -1.3820  0.7052 -0.0086
 2719TIP3   OH2 8078   1.223   0.408   5.209 -0.6439 -0.1963  0.0563
 2719TIP3    H1 8079   1.284   0.439   5.276 -0.5989  0.4188 -0.2599
 2719TIP3    H2 8080   1.191   0.324   5.242  0.5351 -0.6349  0.1369
 2720TIP3   OH2 8081   4.921   6.417   1.806  0.4932  0.1074  0.0082
 2720TIP3    H1 8082   4.829   6.427   1.832  0.0178 -0.0080 -1.5165
 2720TIP3    H2 8083   4.918   6.415   1.710  2.0364 -0.4637 -0.0498
 2721TIP3   OH2 8084   2.168   7.960   6.465  0.1371 -0.0888  0.2658
 2721TIP3    H1 8085   2.150   7.986   6.556  1.7354  0.4093  0.4671
 2721TIP3    H2 8086   2.253   7.916   6.469  2.1984  3.3504 -1.5104
 2722TIP3   OH2 8087   8.586   0.826   4.231 -0.2591 -0.5786 -0.9449
 2722TIP3    H1 8088   8.558   0.824   4.322  0.3765 -1.6617 -0.7566
 2722TIP3    H2 8089   8.617   0.737   4.213  2.6826  0.3957 -1.2221
 2723TIP3   OH2 8090   2.768   0.041   2.668 -0.2956 -0.9069 -0.1392
 2723TIP3    H1 8091   2.699  -0.015   2.634 -1.5829  0.4612  0.1064
 2723TIP3    H2 8092   2.760   0.036   2.763 -0.2393 -0.5382 -0.1107
 2724TIP3   OH2 8093   1.527   5.144   5.709 -0.3758 -0.2387 -0.3847
 2724TIP3    H1 8094   1.595   5.133   5.776  0.3562 -0.0646 -1.0925
 2724TIP3    H2 8095   1.451   5.099   5.746  0.4732 -1.5135 -0.1031
 2725TIP3   OH2 8096   8.351   5.502   0.633  0.3103 -0.1752  0.1269
 2725TIP3    H1 8097   8.430   5.447   0.634  0.4603  0.0417  0.5188
 2725TIP3    H2 8098   8.312   5.488   0.719  0.1159 -0.0041  0.0650
 2726TIP3   OH2 8099   6.327   4.197   5.945  0.0376 -0.6758  0.1726
 2726TIP3    H1 8100   6.306   4.137   6.017 -1.5734  1.4689  1.6161
 2726TIP3    H2 8101   6.399   4.251   5.980 -0.2974 -0.0608 -0.0776
 2727TIP3   OH2 8102   5.171   7.365   1.857 -0.0705 -0.1391 -0.0012
 2727TIP3    H1 8103   5.151   7.458   1.843 -0.2956 -0.2244 -0.2617
 2727TIP3    H2 8104   5.189   7.331   1.769 -0.3292 -0.4186  0.0529
 2728TIP3   OH2 8105   5.225   8.083   0.748  0.1933 -1.1004  0.3757
 2728TIP3    H1 8106   5.222   8.081   0.844 -0.5445 -0.7352  0.3645
 2728TIP3    H2 8107   5.221   8.176   0.725  0.9970 -1.1462 -0.0015
 2729TIP3   OH2 8108   2.740   4.092   4.449 -0.3999  0.1977 -0.5028
 2729TIP3    H1 8109   2.726   4.126   4.360 -0.3146 -1.8790 -1.3483
 2729TIP3    H2 8110   2.835   4.086   4.458 -0.4183  0.0495 -0.4097
 2730TIP3   OH2 8111   1.522   3.488   0.663  0.1612  0.9218  0.1908
 2730TIP3    H1 8112   1.469   3.520   0.590  1.3253  1.0813 -0.6088
 2730TIP3    H2 8113   1.589   3.433   0.623  0.6489  0.7757  1.1616
 2731TIP3   OH2 8114   1.483   2.749   3.800  0.3184 -0.3501  0.3599
 2731TIP3    H1 8115   1.406   2.800   3.776  0.5218 -1.1406 -2.2369
 2731TIP3    H2 8116   1.547   2.769   3.732  1.5033 -1.6743  1.0356
 2732TIP3   OH2 8117   8.593   2.422   2.089  0.8713 -0.3736  0.1804
 2732TIP3    H1 8118   8.633   2.356   2.146 -1.7023 -0.2305  2.3444
 2732TIP3    H2 8119   8.627   2.506   2.121  1.6781 -0.4462 -0.4633
 2733TIP3   OH2 8120   1.071   0.837   5.932 -0.2272  0.1572  0.5533
 2733TIP3    H1 8121   1.048   0.779   6.004 -1.5965 -1.6083 -1.1973
 2733TIP3    H2 8122   1.130   0.785   5.877  0.7597  1.4517  0.3280
 2734TIP3   OH2 8123   1.742   2.995   5.329 -0.3532 -0.0141 -0.1835
 2734TIP3    H1 8124   1.824   2.991   5.379  0.2532  0.8171 -1.0617
 2734TIP3    H2 8125   1.762   2.949   5.247  0.1812  2.5681 -1.5995
 2735TIP3   OH2 8126   5.684   0.024   6.665 -0.0947  0.1805 -0.4311
 2735TIP3    H1 8127   5.624  -0.050   6.678  0.3802 -0.0173  0.7703
 2735TIP3    H2 8128   5.721   0.040   6.752  1.4207  0.4401 -1.0930
 2736TIP3   OH2 8129   1.334   0.873   6.553  0.2397  0.3044  0.2088
 2736TIP3    H1 8130   1.299   0.798   6.505 -0.6867  1.4337 -0.9476
 2736TIP3    H2 8131   1.427   0.852   6.566  0.3106 -0.4391 -1.2957
 2737TIP3   OH2 8132   0.860   5.551   6.046  0.2803 -0.0277  0.7543
 2737TIP3    H1 8133   0.860   5.468   6.093  0.3139 -1.4925 -1.6408
 2737TIP3    H2 8134   0.786   5.599   6.083 -0.2466 -1.4526  1.6536
 2738TIP3   OH2 8135   3.584   3.490   5.037  0.0339  0.0144  0.0921
 2738TIP3    H1 8136   3.509   3.441   5.070  1.0799 -2.0098 -0.3740
 2738TIP3    H2 8137   3.608   3.549   5.108  0.6468 -2.3916  2.0197
 2739TIP3   OH2 8138   3.651   1.713   6.088  0.0917  0.5695  0.3816
 2739TIP3    H1 8139   3.677   1.689   5.999  0.8164  0.1651  0.6922
 2739TIP3    H2 8140   3.572   1.766   6.077 -0.5679 -0.5541 -0.4200
 2740TIP3   OH2 8141   8.543   7.337   3.415 -0.3018 -0.2208 -0.0307
 2740TIP3    H1 8142   8.498   7.273   3.470  0.9755 -1.1424 -0.0159
 2740TIP3    H2 8143   8.582   7.284   3.345  2.3730  0.2432  1.0198
 2741TIP3   OH2 8144   4.665   2.637   1.070  0.0127  0.0418 -0.1113
 2741TIP3    H1 8145   4.607   2.699   1.026 -1.2127 -0.1330  1.1741
 2741TIP3    H2 8146   4.714   2.691   1.133 -0.3715 -0.1422  0.3493
 2742TIP3   OH2 8147   7.524   7.877   3.339 -0.1786 -0.2176  0.4467
 2742TIP3    H1 8148   7.566   7.833   3.413  0.8079  0.9917  0.6430
 2742TIP3    H2 8149   7.580   7.953   3.322 -0.0980 -0.7443 -1.8765
 2743TIP3   OH2 8150   7.571   5.953   0.176 -0.0966  0.2399 -0.2584
 2743TIP3    H1 8151   7.602   5.862   0.181  1.0160  0.5923 -0.4967
 2743TIP3    H2 8152   7.512   5.954   0.101  2.5329  0.4230 -2.4636
 2744TIP3   OH2 8153   0.299   5.913   4.668 -0.0516  0.0448  0.0648
 2744TIP3    H1 8154   0.236   5.960   4.722 -0.3450  1.2098 -1.2537
 2744TIP3    H2 8155   0.373   5.973   4.660 -1.1724  1.1686 -3.1633
 2745TIP3   OH2 8156   7.921   7.685   0.119 -0.8530  0.2467 -0.5476
 2745TIP3    H1 8157   7.891   7.750   0.182 -1.3480 -0.0847 -0.4324
 2745TIP3    H2 8158   8.005   7.655   0.154 -1.2483 -0.1241  0.1061
 2746TIP3   OH2 8159   1.038   3.457   3.258  0.1834 -0.9753  0.1725
 2746TIP3    H1 8160   0.998   3.396   3.195  0.6581 -0.3515 -0.7604
 2746TIP3    H2 8161   1.045   3.539   3.210 -0.1519 -0.2610  1.3145
 2747TIP3   OH2 8162   1.862   1.146   1.733  0.1271  0.3140  0.3509
 2747TIP3    H1 8163   1.942   1.126   1.684 -1.0144 -0.3260 -1.3639
 2747TIP3    H2 8164   1.807   1.069   1.721 -0.8138  0.8116  1.3509
 2748TIP3   OH2 8165   3.900   0.973   4.588  0.2204 -0.1517 -0.6923
 2748TIP3    H1 8166   3.957   1.034   4.634  0.3295 -0.8081  0.0561
 2748TIP3    H2 8167   3.956   0.933   4.521  0.7144 -0.9426  0.1696
 2749TIP3   OH2 8168   1.303   5.634   1.716 -0.2820  0.2117 -0.4185
 2749TIP3    H1 8169   1.387   5.680   1.712 -0.2807  1.1081  4.2291
 2749TIP3    H2 8170   1.326   5.543   1.731 -0.1777  0.1025 -1.2295
 2750TIP3   OH2 8171   2.301   4.497   0.161 -0.5069  0.0823  0.2311
 2750TIP3    H1 8172   2.299   4.590   0.136  0.2096  0.0443  0.0233
 2750TIP3    H2 8173   2.259   4.452   0.088 -1.3891  0.2915  0.5942
 2751TIP3   OH2 8174   4.843   3.389   0.860 -0.4918 -0.6744 -0.7081
 2751TIP3    H1 8175   4.798   3.455   0.807  0.3258  0.0437 -0.5377
 2751TIP3    H2 8176   4.883   3.330   0.796  1.0917  0.5960 -0.9675
 2752TIP3   OH2 8177   3.150   4.985   1.836 -0.0569 -0.2307  0.1039
 2752TIP3    H1 8178   3.169   4.904   1.884  1.6250 -0.2792 -0.5713
 2752TIP3    H2 8179   3.066   5.014   1.871 -0.0243 -1.5191  1.3628
 2753TIP3   OH2 8180   3.366   4.320   4.288 -0.9233 -0.1374 -0.7516
 2753TIP3    H1 8181   3.459   4.315   4.267 -0.6744 -1.0662  0.4772
 2753TIP3    H2 8182   3.323   4.266   4.222 -0.4283 -0.9272 -0.4346
 2754TIP3   OH2 8183   0.865   4.259   3.678 -0.3288  0.5927 -0.4113
 2754TIP3    H1 8184   0.889   4.176   3.636  1.6268  1.5248 -1.2853
 2754TIP3    H2 8185   0.908   4.326   3.625 -1.5835  2.1692  0.4632
 2755TIP3   OH2 8186   0.052   4.966   6.252 -0.3787  0.4041 -0.3276
 2755TIP3    H1 8187  -0.004   5.001   6.321 -1.4022 -1.5934 -0.0784
 2755TIP3    H2 8188  -0.007   4.919   6.194  0.7176  0.4641 -1.5285
 2756TIP3   OH2 8189   2.167   3.121   1.093 -0.7949 -0.0603 -0.1896
 2756TIP3    H1 8190   2.214   3.180   1.152 -0.7674 -0.2772  0.0051
 2756TIP3    H2 8191   2.221   3.042   1.090 -1.0225 -0.2186 -0.1560
 2757TIP3   OH2 8192   4.413   2.345   1.521 -0.0297 -0.4736  0.2046
 2757TIP3    H1 8193   4.375   2.384   1.599  1.3640  1.2679  0.0894
 2757TIP3    H2 8194   4.406   2.251   1.534 -0.3520 -0.2101  2.1535
 2758TIP3   OH2 8195   7.405   3.406   4.085 -0.0109 -0.3810 -0.3800
 2758TIP3    H1 8196   7.428   3.354   4.008  1.7799 -2.1111  1.2174
 2758TIP3    H2 8197   7.346   3.350   4.135  0.2567 -0.0108  0.3604
 2759TIP3   OH2 8198   2.780   1.749   3.198 -0.0069  0.4795  0.0811
 2759TIP3    H1 8199   2.854   1.711   3.244 -0.0575  0.2215 -0.0509
 2759TIP3    H2 8200   2.770   1.836   3.237 -0.5147 -0.0140  1.0852
 2760TIP3   OH2 8201   6.447   6.660   1.089  0.2809 -0.1430  0.4029
 2760TIP3    H1 8202   6.443   6.660   0.993  0.2566  0.8909  0.3956
 2760TIP3    H2 8203   6.495   6.739   1.112  2.5671 -1.6668  1.1959
 2761TIP3   OH2 8204   4.618   3.002   4.284 -0.6173  0.2963  0.0543
 2761TIP3    H1 8205   4.564   3.069   4.243  1.2525  0.9862 -1.4720
 2761TIP3    H2 8206   4.652   3.044   4.364 -0.9296  0.4952  0.0834
 2762TIP3   OH2 8207   1.461   1.935   6.288  0.2034  0.1237  0.3360
 2762TIP3    H1 8208   1.424   1.986   6.216 -0.1012 -1.1007 -0.3948
 2762TIP3    H2 8209   1.393   1.934   6.355 -0.6291 -1.0582 -0.4936
 2763TIP3   OH2 8210   5.635   2.748   6.477  0.0032  0.1686  0.2241
 2763TIP3    H1 8211   5.638   2.730   6.571 -0.6977  0.2898  0.2757
 2763TIP3    H2 8212   5.546   2.725   6.451  0.4804 -0.7608 -0.6051
 2764TIP3   OH2 8213   7.489   8.069   5.219  0.2191  0.3589  0.1221
 2764TIP3    H1 8214   7.402   8.031   5.229  0.1396  1.1285  3.5188
 2764TIP3    H2 8215   7.533   8.011   5.157 -2.7966  0.2343 -2.1007
 2765TIP3   OH2 8216   8.025   3.070   3.367 -0.1520 -0.0212 -0.4046
 2765TIP3    H1 8217   8.063   2.999   3.419 -0.4494  1.7822  2.4958
 2765TIP3    H2 8218   8.095   3.094   3.306 -0.1646 -2.9159 -1.7136
 2766TIP3   OH2 8219   6.790   1.591   2.635 -0.2336 -0.1764  0.2471
 2766TIP3    H1 8220   6.752   1.506   2.657 -3.2811  1.0229  0.1488
 2766TIP3    H2 8221   6.784   1.642   2.716 -0.6301  0.6461 -0.2841
 2767TIP3   OH2 8222   4.831   2.817   4.868 -0.2085 -0.0141 -0.2435
 2767TIP3    H1 8223   4.756   2.866   4.901 -0.1674  0.7458 -1.2375
 2767TIP3    H2 8224   4.896   2.822   4.938 -1.0194 -0.5667  0.5689
 2768TIP3   OH2 8225   8.056   7.442   5.422  0.5835  0.0139 -0.2727
 2768TIP3    H1 8226   7.988   7.399   5.474  0.9104 -0.4341 -0.2014
 2768TIP3    H2 8227   8.027   7.432   5.331  0.0916  0.6555 -0.1894
 2769TIP3   OH2 8228   0.694   0.878   1.138  0.4438  0.6429  0.0137
 2769TIP3    H1 8229   0.768   0.865   1.198 -1.1204  1.0091  2.1504
 2769TIP3    H2 8230   0.622   0.833   1.180 -0.2207 -1.3085 -2.9213
 2770TIP3   OH2 8231   3.478   1.993   2.610 -0.7285  0.4180 -0.3004
 2770TIP3    H1 8232   3.386   1.979   2.633 -1.1706  0.6500 -1.7931
 2770TIP3    H2 8233   3.485   1.959   2.521  0.6825  0.2441 -0.1399
 2771TIP3   OH2 8234   6.892   0.562   5.818 -0.0457  0.0720 -0.1625
 2771TIP3    H1 8235   6.802   0.580   5.791 -0.1396 -2.3286 -1.7451
 2771TIP3    H2 8236   6.946   0.611   5.756 -0.2591  0.4860 -0.0216
 2772TIP3   OH2 8237   5.841   4.993   6.118 -0.0702 -0.0438  0.0141
 2772TIP3    H1 8238   5.758   4.946   6.123 -0.8421  1.2657 -0.1578
 2772TIP3    H2 8239   5.907   4.928   6.143 -1.0145 -1.4193 -0.9238
 2773TIP3   OH2 8240   8.409   2.396   0.911 -0.0541  0.2268  0.5721
 2773TIP3    H1 8241   8.486   2.435   0.871  0.0023 -0.4757 -0.0105
 2773TIP3    H2 8242   8.374   2.337   0.845 -2.3111  2.0417 -0.0128
 2774TIP3   OH2 8243   8.255   1.287   3.085 -0.7873 -0.3471 -0.2897
 2774TIP3    H1 8244   8.343   1.321   3.098 -0.4251 -1.5190  0.5071
 2774TIP3    H2 8245   8.197   1.361   3.101 -0.0642 -0.1956  1.8506
 2775TIP3   OH2 8246   8.042   5.678   1.623  0.6186  0.0072  0.1567
 2775TIP3    H1 8247   7.967   5.729   1.656  0.8429  1.2358 -1.1383
 2775TIP3    H2 8248   8.006   5.627   1.551  0.6755 -0.7088  0.6298
 2776TIP3   OH2 8249   5.583   1.705   0.581 -0.1960  0.0510  0.0298
 2776TIP3    H1 8250   5.658   1.724   0.525 -0.9513 -0.0311 -1.0399
 2776TIP3    H2 8251   5.524   1.779   0.569 -0.5943 -0.2120  0.3242
 2777TIP3   OH2 8252   0.994   0.625   3.261 -0.0925  0.6101 -0.3554
 2777TIP3    H1 8253   1.010   0.597   3.351 -0.9771  0.0316 -0.3632
 2777TIP3    H2 8254   0.970   0.718   3.268 -1.6742  0.2011  0.2087
 2778TIP3   OH2 8255   7.988   7.240   2.440 -0.7587  0.1219  0.6805
 2778TIP3    H1 8256   8.051   7.306   2.411 -1.1343  0.7800  1.3291
 2778TIP3    H2 8257   7.966   7.265   2.530 -2.2793  0.1732  0.3207
 2779TIP3   OH2 8258   3.255   7.165   0.274  0.3563 -0.2831 -0.0201
 2779TIP3    H1 8259   3.214   7.136   0.355 -3.2770 -1.4178 -2.0394
 2779TIP3    H2 8260   3.243   7.260   0.273 -0.6813 -0.4087  0.2418
 2780TIP3   OH2 8261   5.995   8.120   2.556 -0.3628  0.4965 -0.1426
 2780TIP3    H1 8262   5.948   8.109   2.639  1.7545  1.5515  1.3009
 2780TIP3    H2 8263   6.048   8.041   2.548  1.8665  1.7403  1.2825
 2781TIP3   OH2 8264   7.813   0.728   2.067  0.0526  0.0150 -0.9017
 2781TIP3    H1 8265   7.877   0.749   1.999 -1.6377  0.4205 -2.4493
 2781TIP3    H2 8266   7.770   0.812   2.086  0.7642 -0.0179  0.9843
 2782TIP3   OH2 8267   8.651   0.599   2.921 -0.5364 -0.6218  0.0452
 2782TIP3    H1 8268   8.743   0.611   2.945 -0.6473 -1.1654  0.7736
 2782TIP3    H2 8269   8.636   0.661   2.850  0.1119  0.2087  0.6199
 2783TIP3   OH2 8270   0.323   0.129   1.921  0.3186  0.3518 -0.5742
 2783TIP3    H1 8271   0.343   0.059   1.983 -0.1597  1.4517  0.8756
 2783TIP3    H2 8272   0.228   0.143   1.931  0.4095  1.1925 -0.8438
 2784TIP3   OH2 8273   0.269   6.061   4.927 -0.1946  0.0649 -0.8868
 2784TIP3    H1 8274   0.325   6.003   4.979 -0.0391  2.0298  1.2950
 2784TIP3    H2 8275   0.180   6.034   4.949 -0.1715 -1.1966 -2.1691
 2785TIP3   OH2 8276   3.986   7.694   6.847  0.1889  0.0890  0.0883
 2785TIP3    H1 8277   4.049   7.629   6.816  0.0731  0.1321 -0.2405
 2785TIP3    H2 8278   4.037   7.752   6.903  0.5676  0.4675 -0.6379
 2786TIP3   OH2 8279   6.874   1.672   1.385  0.4440  0.3584 -0.4795
 2786TIP3    H1 8280   6.856   1.635   1.298  0.7735  0.2903 -0.5196
 2786TIP3    H2 8281   6.803   1.640   1.440 -1.1224  2.2783 -1.2330
 2787TIP3   OH2 8282   2.711   5.022   0.195 -0.4004  0.3687 -0.7397
 2787TIP3    H1 8283   2.653   5.093   0.224 -1.6378 -0.8576 -0.1263
 2787TIP3    H2 8284   2.739   4.980   0.276  1.0533  0.6982 -1.0559
 2788TIP3   OH2 8285   3.522   5.913   6.099  0.0712  0.1773  0.2481
 2788TIP3    H1 8286   3.560   5.848   6.157 -0.2002 -0.9098 -0.7636
 2788TIP3    H2 8287   3.428   5.893   6.099  0.0639  0.1990 -0.5168
 2789TIP3   OH2 8288   0.059   3.721   5.952  0.3589  0.3984  0.0987
 2789TIP3    H1 8289  -0.011   3.783   5.933  0.6974  0.3955 -1.2758
 2789TIP3    H2 8290   0.139   3.765   5.924  0.7990 -0.0046  0.6932
 2790TIP3   OH2 8291   2.951   1.643   5.678 -0.1843 -0.1459  0.2692
 2790TIP3    H1 8292   2.869   1.598   5.699 -0.3097  0.7962  1.9309
 2790TIP3    H2 8293   3.012   1.573   5.655 -0.9320 -1.0042  0.8323
 2791TIP3   OH2 8294   6.884   6.778   5.925 -0.4372  0.7313 -0.1755
 2791TIP3    H1 8295   6.881   6.836   6.001  0.7090  1.9367 -1.0135
 2791TIP3    H2 8296   6.792   6.761   5.904 -0.7692  1.1297  0.9132
 2792TIP3   OH2 8297   1.400   1.891   0.628  0.1684 -0.0954  0.0848
 2792TIP3    H1 8298   1.395   1.987   0.625 -1.9448 -0.1108  1.1258
 2792TIP3    H2 8299   1.372   1.868   0.717 -1.3856 -1.7300 -0.7621
 2793TIP3   OH2 8300   1.324   4.905   3.073  0.1420 -0.0089 -0.2370
 2793TIP3    H1 8301   1.345   4.833   3.132 -0.0051 -0.6748 -0.9771
 2793TIP3    H2 8302   1.374   4.979   3.106 -0.3832 -0.2065  1.0584
 2794TIP3   OH2 8303   0.372   2.581   3.330  0.5275  0.2071  0.6685
 2794TIP3    H1 8304   0.341   2.493   3.352 -0.6045  0.0630 -1.2985
 2794TIP3    H2 8305   0.467   2.575   3.335  0.4253 -0.5620  2.5012
 2795TIP3   OH2 8306   6.590   1.897   0.940  0.5129  0.5212  0.7544
 2795TIP3    H1 8307   6.666   1.872   0.992  1.3613  0.0126 -0.6715
 2795TIP3    H2 8308   6.525   1.829   0.957  1.2647 -0.3596  0.1520
 2796TIP3   OH2 8309   2.924   6.969   4.291 -0.4280 -0.1083  0.4066
 2796TIP3    H1 8310   2.906   7.010   4.207 -1.9407 -0.2016  0.6666
 2796TIP3    H2 8311   2.870   7.018   4.354  0.9894  0.2409  1.4172
 2797TIP3   OH2 8312   0.772   1.520   4.932 -0.6670 -0.3125  0.4432
 2797TIP3    H1 8313   0.854   1.482   4.901 -0.8362 -0.4643  0.1800
 2797TIP3    H2 8314   0.710   1.448   4.930 -0.9173 -0.0922  0.2252
 2798TIP3   OH2 8315   7.454   2.883   4.114 -0.5915 -0.4067  0.4957
 2798TIP3    H1 8316   7.499   2.966   4.098  0.3063 -1.1352 -1.0339
 2798TIP3    H2 8317   7.367   2.909   4.146 -0.1645  1.1040  0.5311
 2799TIP3   OH2 8318   2.721   5.436   6.603 -0.0537 -0.6495 -0.0596
 2799TIP3    H1 8319   2.741   5.454   6.695  0.0442 -1.0021 -0.0077
 2799TIP3    H2 8320   2.792   5.378   6.575 -0.1706 -0.6707 -0.3120
 2800TIP3   OH2 8321   0.110   8.024   2.695 -0.3975  1.0164 -0.4506
 2800TIP3    H1 8322   0.170   7.968   2.744  0.4917  0.9780 -1.5414
 2800TIP3    H2 8323   0.025   7.981   2.702 -0.0212  0.3298 -0.0367
 2801TIP3   OH2 8324   6.717   7.330   3.239 -0.6236 -0.4033 -0.6611
 2801TIP3    H1 8325   6.786   7.272   3.272 -1.1922 -0.2691  0.8373
 2801TIP3    H2 8326   6.749   7.418   3.258 -1.4575 -0.3530  0.6377
 2802TIP3   OH2 8327   0.280   2.258   5.781  0.0555  0.2007  0.0922
 2802TIP3    H1 8328   0.359   2.306   5.754 -0.2759  2.0937  2.1323
 2802TIP3    H2 8329   0.308   2.167   5.787  1.2949  0.3844 -1.9725
 2803TIP3   OH2 8330   3.198   6.523   5.675  0.0410  0.3125  0.6550
 2803TIP3    H1 8331   3.116   6.511   5.723 -0.0229 -1.0736  0.2535
 2803TIP3    H2 8332   3.266   6.494   5.736  0.0455 -0.4360  0.3135
 2804TIP3   OH2 8333   4.762   3.014   0.813 -0.3753 -0.8511 -0.8240
 2804TIP3    H1 8334   4.730   3.085   0.756  1.2519  0.3161 -0.3676
 2804TIP3    H2 8335   4.682   2.969   0.842 -1.4620  0.6376 -1.3315
 2805TIP3   OH2 8336   2.978   7.670   1.318 -0.3283 -0.4147 -0.1025
 2805TIP3    H1 8337   2.929   7.751   1.305  0.1476 -0.0452  0.3729
 2805TIP3    H2 8338   3.065   7.688   1.284  0.8500  0.4731  3.0207
 2806TIP3   OH2 8339   5.039   0.243   1.719 -0.4500  0.2347 -0.0037
 2806TIP3    H1 8340   5.122   0.202   1.693 -0.3346  1.1179 -1.1154
 2806TIP3    H2 8341   4.972   0.178   1.696 -0.0879 -0.4489  0.8213
 2807TIP3   OH2 8342   3.658   1.952   4.208 -0.0809  0.1552 -0.0638
 2807TIP3    H1 8343   3.729   1.957   4.144 -0.7592  2.2092 -0.7480
 2807TIP3    H2 8344   3.642   2.043   4.234 -3.2907 -0.0111 -0.9158
 2808TIP3   OH2 8345   6.456   5.366   5.297 -0.2261  0.1296 -0.5603
 2808TIP3    H1 8346   6.496   5.337   5.378  2.8938  0.6569 -1.7885
 2808TIP3    H2 8347   6.435   5.458   5.311  0.2676  0.2073 -0.3377
 2809TIP3   OH2 8348   5.746   1.124   3.196 -0.4482 -0.0216  0.0563
 2809TIP3    H1 8349   5.685   1.184   3.238 -0.2858 -0.9844  1.7423
 2809TIP3    H2 8350   5.813   1.180   3.157 -0.7382  0.9051  0.8846
 2810TIP3   OH2 8351   3.575   2.551   2.984 -0.5214 -0.5758 -0.0817
 2810TIP3    H1 8352   3.482   2.554   3.003 -1.0064  0.6154 -2.3622
 2810TIP3    H2 8353   3.598   2.640   2.959  1.4391 -0.6703  1.1622
 2811TIP3   OH2 8354   8.474   2.506   3.080  0.2215 -0.3516 -0.3977
 2811TIP3    H1 8355   8.566   2.517   3.103  0.3227 -0.0497 -0.9262
 2811TIP3    H2 8356   8.462   2.411   3.074 -0.0953 -0.5171  1.9489
 2812TIP3   OH2 8357   2.642   7.104   2.430 -0.8712 -0.4729  0.6616
 2812TIP3    H1 8358   2.709   7.113   2.362 -0.3948 -0.7796  1.0912
 2812TIP3    H2 8359   2.563   7.079   2.382 -0.4084 -1.2275  0.2736
 2813TIP3   OH2 8360   0.091   1.179   6.722  0.0375  0.0417 -0.1107
 2813TIP3    H1 8361   0.159   1.239   6.694 -0.6887  0.3894 -1.2122
 2813TIP3    H2 8362   0.103   1.102   6.667  0.1116 -0.2798  0.3452
 2814TIP3   OH2 8363   7.151   4.047   1.651 -0.8182  0.3145  0.2579
 2814TIP3    H1 8364   7.204   3.980   1.609  0.4071  0.9955  0.6800
 2814TIP3    H2 8365   7.132   4.010   1.738 -1.9474 -0.3710 -0.2497
 2815TIP3   OH2 8366   5.772   0.075   3.697 -0.4001 -0.0011 -0.2274
 2815TIP3    H1 8367   5.756   0.082   3.602 -1.4888  0.8455 -0.0087
 2815TIP3    H2 8368   5.813  -0.011   3.708  2.1737  0.9065 -1.7555
 2816TIP3   OH2 8369   7.731   6.430   6.686 -0.2512  0.2230 -0.2406
 2816TIP3    H1 8370   7.816   6.459   6.718 -0.0747  0.5037 -0.9431
 2816TIP3    H2 8371   7.726   6.464   6.597 -0.6436 -0.7268 -0.5936
 2817TIP3   OH2 8372   3.074   0.470   5.529 -0.0812  0.3341 -0.0141
 2817TIP3    H1 8373   3.143   0.535   5.541 -0.5300  0.6644  0.8554
 2817TIP3    H2 8374   2.994   0.521   5.520 -0.2192 -0.0460 -1.0384
 2818TIP3   OH2 8375   8.343   4.657   6.561  0.3310  0.2321  0.7521
 2818TIP3    H1 8376   8.432   4.693   6.552  0.5079 -0.6201 -1.7943
 2818TIP3    H2 8377   8.292   4.705   6.496 -0.5183 -0.8929  0.5727
 2819TIP3   OH2 8378   0.602   7.631   1.167  0.1405  0.2642  0.2096
 2819TIP3    H1 8379   0.538   7.695   1.199  0.8750  0.3991  1.4501
 2819TIP3    H2 8380   0.634   7.587   1.245  2.7623  1.3158 -0.1643
 2820TIP3   OH2 8381   6.468   3.824   5.669 -0.0282 -0.1061  0.6001
 2820TIP3    H1 8382   6.440   3.909   5.702  3.4040  1.3131  0.3368
 2820TIP3    H2 8383   6.513   3.844   5.587  2.1131 -1.9016  1.2236
 2821TIP3   OH2 8384   6.820   1.425   3.159  0.0339  0.2581  0.5905
 2821TIP3    H1 8385   6.754   1.455   3.096 -0.5631  0.6975  1.4062
 2821TIP3    H2 8386   6.902   1.459   3.125  0.3477 -2.7400 -2.0432
 2822TIP3   OH2 8387   7.441   1.094   2.597  0.1257 -0.4000  0.5164
 2822TIP3    H1 8388   7.514   1.072   2.654  0.6796 -0.3747 -0.1635
 2822TIP3    H2 8389   7.406   1.010   2.569 -0.4586 -0.4163  1.2675
 2823TIP3   OH2 8390   3.604   5.984   4.782 -0.3584 -0.3490 -0.5070
 2823TIP3    H1 8391   3.584   5.916   4.717  0.4201 -0.9802 -0.1103
 2823TIP3    H2 8392   3.682   6.027   4.749  2.1064 -2.8571  1.5145
 2824TIP3   OH2 8393   2.204   3.860   3.165  0.5742 -0.3258 -0.0319
 2824TIP3    H1 8394   2.114   3.876   3.137 -0.2071 -2.0300  1.2774
 2824TIP3    H2 8395   2.253   3.935   3.132 -1.1394  0.2085 -1.5706
 2825TIP3   OH2 8396   0.244   4.430   2.423 -0.3994 -0.1086  0.0587
 2825TIP3    H1 8397   0.204   4.432   2.510 -1.9940 -0.1736 -0.6397
 2825TIP3    H2 8398   0.304   4.356   2.426 -0.8759 -0.4738  0.9154
 2826TIP3   OH2 8399   7.805   1.248   0.286 -0.0329 -0.3933  0.2864
 2826TIP3    H1 8400   7.718   1.287   0.286 -0.8049 -2.0348 -0.8607
 2826TIP3    H2 8401   7.833   1.254   0.377 -1.6418 -0.4974  0.8227
 2827TIP3   OH2 8402   5.824   2.230   0.725 -0.1257 -0.0266 -0.1395
 2827TIP3    H1 8403   5.754   2.229   0.791  0.1959  0.8135  0.2349
 2827TIP3    H2 8404   5.856   2.140   0.723 -0.4312 -0.1601  0.5424
 2828TIP3   OH2 8405   4.145   3.062   1.174  0.0465  0.2914 -0.2375
 2828TIP3    H1 8406   4.171   3.024   1.090  0.0940  0.3182 -0.2346
 2828TIP3    H2 8407   4.052   3.040   1.182  0.0305  0.3301 -0.3193
 2829TIP3   OH2 8408   7.514   6.276   5.744 -0.2614  0.2009 -0.6088
 2829TIP3    H1 8409   7.582   6.262   5.809 -0.8723  0.0256  0.0117
 2829TIP3    H2 8410   7.438   6.228   5.778 -0.6112  0.1544 -1.4210
 2830TIP3   OH2 8411   3.447   7.326   3.797 -0.4529 -0.1592 -0.4689
 2830TIP3    H1 8412   3.371   7.354   3.847  0.4275  0.1942  0.7273
 2830TIP3    H2 8413   3.425   7.239   3.764 -0.2125 -1.4468  2.5120
 2831TIP3   OH2 8414   6.386   5.984   6.568  0.0363  0.0412  0.4399
 2831TIP3    H1 8415   6.345   5.909   6.610 -1.2643 -0.5664 -1.7213
 2831TIP3    H2 8416   6.475   5.986   6.603 -0.0312 -2.2513  0.8872
 2832TIP3   OH2 8417   1.800   0.712   4.673  0.2599  0.2100 -0.1840
 2832TIP3    H1 8418   1.860   0.758   4.614 -0.1378  0.2634 -0.5501
 2832TIP3    H2 8419   1.713   0.742   4.647  0.0225 -0.4423 -0.1628
 2833TIP3   OH2 8420   7.404   0.096   6.877 -0.5712 -0.3576  0.4890
 2833TIP3    H1 8421   7.495   0.075   6.898 -0.4518 -0.2669  0.0669
 2833TIP3    H2 8422   7.367   0.127   6.959 -0.3845 -0.9714  0.8092
 2834TIP3   OH2 8423   7.602   2.210   5.450  0.0132 -0.0015  0.1899
 2834TIP3    H1 8424   7.584   2.119   5.471  0.3581 -0.2439 -0.5288
 2834TIP3    H2 8425   7.516   2.251   5.444 -0.1270 -0.1393  1.0775
 2835TIP3   OH2 8426   3.496   4.340   3.322  0.1495  0.3105  0.0730
 2835TIP3    H1 8427   3.407   4.331   3.357  0.3444  0.3812  0.5987
 2835TIP3    H2 8428   3.487   4.317   3.230 -0.5300  0.9311 -0.0258
 2836TIP3   OH2 8429   2.759   7.114   6.389 -0.0579 -0.3794  0.6743
 2836TIP3    H1 8430   2.831   7.133   6.449 -0.4906 -2.2095  1.8321
 2836TIP3    H2 8431   2.791   7.041   6.336 -0.0618  0.5777 -0.7162
 2837TIP3   OH2 8432   3.602   2.072   1.057  0.2489 -0.2038  0.1513
 2837TIP3    H1 8433   3.586   2.029   1.141  0.2026  1.9786  1.3168
 2837TIP3    H2 8434   3.549   2.022   0.994 -0.5577 -1.2282  1.5895
 2838TIP3   OH2 8435   5.949   1.487   4.603  0.1673  0.2392  0.1243
 2838TIP3    H1 8436   5.940   1.401   4.563  1.0337  0.4386 -0.5341
 2838TIP3    H2 8437   6.040   1.491   4.632 -0.3752  0.1759  1.9945
 2839TIP3   OH2 8438   3.420   6.991   0.908 -0.2542 -0.2932  1.0014
 2839TIP3    H1 8439   3.378   7.077   0.902  0.4127  0.0312  0.9173
 2839TIP3    H2 8440   3.486   6.992   0.839 -1.1367 -1.3894  0.1066
 2840TIP3   OH2 8441   2.227   0.487   0.959 -0.4105  0.0669  0.1138
 2840TIP3    H1 8442   2.282   0.529   1.025 -0.3311  0.0985  0.0274
 2840TIP3    H2 8443   2.155   0.449   1.009 -1.4224  1.7771  0.0451
 2841TIP3   OH2 8444   3.895   6.625   5.108  0.0617  0.0820  0.2652
 2841TIP3    H1 8445   3.865   6.649   5.195 -0.1693 -1.0754  0.5072
 2841TIP3    H2 8446   3.846   6.683   5.049 -1.2990 -0.5334  0.7696
 2842TIP3   OH2 8447   5.743   7.767   6.941  0.8187 -0.2496  0.3122
 2842TIP3    H1 8448   5.745   7.829   6.868 -1.6899 -0.8733 -0.3778
 2842TIP3    H2 8449   5.827   7.723   6.937  1.5519  1.1637 -0.9167
 2843TIP3   OH2 8450   3.962   0.516   1.524  0.0101 -0.3164 -0.0942
 2843TIP3    H1 8451   3.965   0.559   1.609 -0.6621  0.2351 -0.3403
 2843TIP3    H2 8452   4.034   0.556   1.475  0.2157 -0.4254  0.1188
 2844TIP3   OH2 8453   8.211   5.109   5.525  0.0290  0.0952  0.1583
 2844TIP3    H1 8454   8.159   5.044   5.572 -0.1348  0.5256  0.5825
 2844TIP3    H2 8455   8.271   5.144   5.591 -1.2406  1.8108  0.4706
 2845TIP3   OH2 8456   6.087   2.163   6.042 -0.7931  0.0970  0.3902
 2845TIP3    H1 8457   6.171   2.196   6.072  0.2704 -2.3535  0.3701
 2845TIP3    H2 8458   6.104   2.131   5.953 -1.8800  0.0535  0.1831
 2846TIP3   OH2 8459   6.271   7.508   2.649  0.2126  0.0649 -0.6026
 2846TIP3    H1 8460   6.249   7.563   2.575 -0.6474 -1.9843 -1.9636
 2846TIP3    H2 8461   6.244   7.420   2.623  0.6668 -0.8860  1.8099
 2847TIP3   OH2 8462   5.436   6.692   6.748 -0.4969  0.2315  0.2398
 2847TIP3    H1 8463   5.447   6.782   6.780  0.9723 -0.3365  1.4935
 2847TIP3    H2 8464   5.376   6.700   6.674 -1.1199  2.1196  0.8754
 2848TIP3   OH2 8465   2.681   0.759   0.481  0.5682  0.0592  0.3571
 2848TIP3    H1 8466   2.589   0.777   0.504  0.5593 -0.5711  0.8265
 2848TIP3    H2 8467   2.720   0.727   0.562  1.4007  1.0174  0.3559
 2849TIP3   OH2 8468   1.372   3.579   7.121 -0.0834 -0.8020  0.5267
 2849TIP3    H1 8469   1.447   3.550   7.069 -0.0136 -0.8285  0.6415
 2849TIP3    H2 8470   1.312   3.617   7.057  0.3260 -0.1519  0.5175
 2850TIP3   OH2 8471   6.268   6.479   3.959  0.7824 -0.6813  0.1259
 2850TIP3    H1 8472   6.289   6.387   3.944  1.5627 -0.2164 -1.9500
 2850TIP3    H2 8473   6.345   6.515   4.002  0.8712 -0.7850  0.0536
 2851TIP3   OH2 8474   8.467   5.450   4.362  0.4391 -0.2138  0.1796
 2851TIP3    H1 8475   8.449   5.457   4.455  0.8560 -2.2565  0.4646
 2851TIP3    H2 8476   8.435   5.363   4.338  0.6549  0.1368 -1.5135
 2852TIP3   OH2 8477   6.098   4.425   6.899  0.4837  0.2375  0.1955
 2852TIP3    H1 8478   6.084   4.469   6.983 -1.7515 -0.9854  0.5300
 2852TIP3    H2 8479   6.174   4.368   6.914  0.4239  0.4088  1.2253
 2853TIP3   OH2 8480   2.185   1.373   3.423 -0.0141 -0.2360  0.5707
 2853TIP3    H1 8481   2.101   1.365   3.378  1.2924 -1.2180 -1.8606
 2853TIP3    H2 8482   2.184   1.462   3.458 -2.1946 -0.3515  0.9759
 2854TIP3   OH2 8483   4.953   1.289   1.530  0.6552  0.6686  0.1162
 2854TIP3    H1 8484   5.021   1.350   1.556  0.2369  1.3431 -0.3597
 2854TIP3    H2 8485   4.872   1.340   1.530  0.3607  0.2213 -0.6750
 2855TIP3   OH2 8486   5.844   1.836   3.447  0.0137  0.2477 -0.8267
 2855TIP3    H1 8487   5.901   1.779   3.499 -0.0536  0.3395 -0.6526
 2855TIP3    H2 8488   5.879   1.829   3.358  0.7340  0.8433 -0.6071
 2856TIP3   OH2 8489   6.940   5.265   0.407 -0.3455 -0.4904 -0.3357
 2856TIP3    H1 8490   7.017   5.215   0.436  0.6619  0.3123 -1.5122
 2856TIP3    H2 8491   6.867   5.227   0.456  0.6993 -1.7060  0.3484
 2857TIP3   OH2 8492   2.218   6.469   5.639  0.0948  0.7279  0.7327
 2857TIP3    H1 8493   2.269   6.441   5.563  2.4234  1.5411  1.9120
 2857TIP3    H2 8494   2.202   6.389   5.688  0.6741  0.5135  0.5848
 2858TIP3   OH2 8495   8.387   5.751   6.473  0.6336 -0.1867  0.0145
 2858TIP3    H1 8496   8.293   5.742   6.457  0.8705 -0.5930 -1.2234
 2858TIP3    H2 8497   8.400   5.845   6.483 -0.0922 -0.2141  1.5485
 2859TIP3   OH2 8498   4.061   6.922   2.084  0.2029 -0.3679  0.4295
 2859TIP3    H1 8499   4.102   6.843   2.051 -0.8889 -1.1109  0.7853
 2859TIP3    H2 8500   3.980   6.892   2.125 -0.8661  1.0623 -0.5262
 2860TIP3   OH2 8501   0.967   0.132   0.950  0.3183 -0.3330  0.1429
 2860TIP3    H1 8502   0.924   0.203   0.999  2.9877 -0.2184  2.6492
 2860TIP3    H2 8503   1.027   0.177   0.891  0.3253 -0.5160  0.0097
 2861TIP3   OH2 8504   0.187   5.630   4.262  0.1139  0.7144  0.0592
 2861TIP3    H1 8505   0.230   5.604   4.343 -0.6533 -1.1159 -0.0515
 2861TIP3    H2 8506   0.097   5.652   4.288  0.4755  2.3849 -0.0044
 2862TIP3   OH2 8507   1.911   4.980   6.526  0.1405  0.4676 -0.3155
 2862TIP3    H1 8508   1.961   5.061   6.516  0.0906  0.5226 -0.1216
 2862TIP3    H2 8509   1.858   4.994   6.605 -0.0084  0.3203 -0.3901
 2863TIP3   OH2 8510   8.230   5.370   6.601 -0.1527 -0.2820  0.6996
 2863TIP3    H1 8511   8.252   5.282   6.572  0.1418 -0.4088  1.3016
 2863TIP3    H2 8512   8.180   5.407   6.528 -0.0318 -0.8412  0.3256
 2864TIP3   OH2 8513   4.842   4.274   6.547  0.7337 -0.2233  0.4716
 2864TIP3    H1 8514   4.824   4.218   6.623  2.3489 -1.6565 -0.1334
 2864TIP3    H2 8515   4.784   4.241   6.479 -1.9764  2.1610  1.4439
 2865TIP3   OH2 8516   8.481   2.565   6.627 -0.2985  0.4241 -0.1674
 2865TIP3    H1 8517   8.509   2.597   6.713 -0.6456  2.4750 -0.7535
 2865TIP3    H2 8518   8.389   2.593   6.621  0.0278  1.2569 -1.6132
 2866TIP3   OH2 8519   2.992   7.921   5.459 -0.1922  0.3024  0.3161
 2866TIP3    H1 8520   3.041   7.979   5.518  1.2219 -1.4707  1.0110
 2866TIP3    H2 8521   2.958   7.978   5.391 -1.6457  2.4387  2.6376
 2867TIP3   OH2 8522   7.968   5.509   3.348 -0.0134  0.0475  0.3655
 2867TIP3    H1 8523   7.958   5.529   3.255 -0.7366 -0.3749  0.3500
 2867TIP3    H2 8524   8.060   5.530   3.367  0.4934 -1.0747 -0.7410
 2868TIP3   OH2 8525   4.044   6.976   4.061  0.8056  0.0595  0.5438
 2868TIP3    H1 8526   4.053   6.977   3.965  0.5084 -1.1515  0.4770
 2868TIP3    H2 8527   3.950   6.964   4.075  0.7416  1.0643  1.0121
 2869TIP3   OH2 8528   0.226   3.088   0.783 -0.3214  0.1649 -0.2885
 2869TIP3    H1 8529   0.289   3.123   0.846 -0.2328 -0.8917  0.2429
 2869TIP3    H2 8530   0.151   3.061   0.837 -1.7760  2.4767 -1.0241
 2870TIP3   OH2 8531   6.358   6.169   2.115 -0.3109  0.5035  0.6069
 2870TIP3    H1 8532   6.362   6.254   2.070  0.6695  0.3057  0.3147
 2870TIP3    H2 8533   6.440   6.126   2.093 -1.3449 -1.0724 -0.3141
 2871TIP3   OH2 8534   0.102   7.749   6.991 -0.0252 -0.2567  0.3172
 2871TIP3    H1 8535   0.071   7.789   6.909 -2.0729 -1.2193  0.5849
 2871TIP3    H2 8536   0.156   7.817   7.031 -0.5169  0.9288 -0.9429
 2872TIP3   OH2 8537   7.076   7.049   1.825 -0.1041 -0.1533 -0.3648
 2872TIP3    H1 8538   7.036   7.069   1.741  0.0089 -0.4847 -0.4981
 2872TIP3    H2 8539   7.002   7.023   1.881 -0.0302 -1.2774 -0.7614
 2873TIP3   OH2 8540   3.803   2.223   2.550  0.8530 -0.0247 -0.1544
 2873TIP3    H1 8541   3.786   2.143   2.599  0.8628 -0.2407 -0.4997
 2873TIP3    H2 8542   3.784   2.294   2.612  0.3648 -0.2859  0.0011
 2874TIP3   OH2 8543   4.039   7.750   2.544  0.0061 -0.1382 -1.4626
 2874TIP3    H1 8544   4.029   7.845   2.545 -1.3819 -0.2746 -1.0668
 2874TIP3    H2 8545   4.112   7.734   2.604 -1.4636  0.5236  0.6241
 2875TIP3   OH2 8546   1.108   6.761   6.843  0.4184 -0.2676  0.3470
 2875TIP3    H1 8547   1.176   6.749   6.909  0.2361 -1.7911  0.2887
 2875TIP3    H2 8548   1.103   6.856   6.831  2.5629 -0.1212  0.3032
 2876TIP3   OH2 8549   8.321   5.096   3.609 -0.2367 -0.2758 -0.6096
 2876TIP3    H1 8550   8.267   5.103   3.687 -0.3473  0.4216 -0.7366
 2876TIP3    H2 8551   8.268   5.045   3.547 -0.6471  0.1826 -0.6408
 2877TIP3   OH2 8552   8.596   7.080   3.229  0.7276 -0.2677 -0.1781
 2877TIP3    H1 8553   8.684   7.117   3.233  0.4036  0.5007 -0.0076
 2877TIP3    H2 8554   8.609   6.986   3.237  1.4125 -0.0593  1.5502
 2878TIP3   OH2 8555   3.600   0.640   4.803  0.3227 -0.1042  0.0539
 2878TIP3    H1 8556   3.528   0.580   4.785  1.4363 -1.4515 -0.0912
 2878TIP3    H2 8557   3.641   0.605   4.882  0.1118  1.3533  0.8466
 2879TIP3   OH2 8558   3.494   2.636   4.353 -0.1330  0.5271  0.6163
 2879TIP3    H1 8559   3.574   2.687   4.350  1.3532 -1.6974 -0.4450
 2879TIP3    H2 8560   3.440   2.672   4.282  0.4257  1.2742  0.5582
 2880TIP3   OH2 8561   3.613   5.223   2.861 -0.3439  0.6799 -0.4417
 2880TIP3    H1 8562   3.537   5.200   2.915 -0.9579  0.7844 -1.2402
 2880TIP3    H2 8563   3.687   5.217   2.920 -1.0777  1.4122  0.5780
 2881TIP3   OH2 8564   5.424   3.689   6.168  0.3527 -0.4427 -0.1049
 2881TIP3    H1 8565   5.510   3.646   6.167 -0.2165 -1.7965  2.1363
 2881TIP3    H2 8566   5.364   3.620   6.194 -1.4012  0.5707 -1.2969
 2882TIP3   OH2 8567   5.232   0.930   2.243 -0.2397 -0.5061  0.2719
 2882TIP3    H1 8568   5.267   0.845   2.271 -0.9612 -0.5657  1.0390
 2882TIP3    H2 8569   5.295   0.994   2.275 -0.6577 -0.6299  1.3801
 2883TIP3   OH2 8570   5.014   3.684   0.672  0.1924 -0.0969  0.5332
 2883TIP3    H1 8571   5.030   3.702   0.764 -0.2290  0.7719  0.4545
 2883TIP3    H2 8572   4.919   3.675   0.665  0.3147 -1.5291  0.3968
 2884TIP3   OH2 8573   8.503   6.758   4.399  0.5012  0.2307  0.0161
 2884TIP3    H1 8574   8.418   6.769   4.357  0.2050 -0.8602  0.3178
 2884TIP3    H2 8575   8.541   6.682   4.356  1.7485  1.2430 -0.7723
 2885TIP3   OH2 8576   7.269   6.336   1.058 -0.4381  0.1848  0.0503
 2885TIP3    H1 8577   7.329   6.374   0.994 -1.7985  0.4088 -1.1380
 2885TIP3    H2 8578   7.325   6.284   1.115  0.9348  0.7147 -0.7651
 2886TIP3   OH2 8579   4.209   3.066   0.001  0.0214  0.0003 -0.6483
 2886TIP3    H1 8580   4.258   2.989   0.032 -0.9210  0.0092  1.0112
 2886TIP3    H2 8581   4.221   3.131   0.071 -1.0393  0.5540 -0.9629
 2887TIP3   OH2 8582   5.812   5.372   2.777  0.1732  0.2354 -0.2700
 2887TIP3    H1 8583   5.833   5.439   2.841 -0.8304  0.4646 -0.1644
 2887TIP3    H2 8584   5.734   5.329   2.811 -0.7359  0.7498 -1.5985
 2888TIP3   OH2 8585   1.384   0.559   3.907 -0.1732 -0.0956 -0.1205
 2888TIP3    H1 8586   1.363   0.639   3.955  0.5544 -0.6361  1.1408
 2888TIP3    H2 8587   1.393   0.492   3.974  2.2803 -0.5897 -0.8220
 2889TIP3   OH2 8588   0.511   3.331   2.214 -0.1823 -0.4919  0.5338
 2889TIP3    H1 8589   0.497   3.260   2.150  1.0282  0.8076 -1.2988
 2889TIP3    H2 8590   0.605   3.350   2.206 -0.5161  1.4197  0.8327
 2890TIP3   OH2 8591   0.512   3.347   5.985 -0.3449  0.1756  0.3478
 2890TIP3    H1 8592   0.514   3.316   6.076  1.4103 -2.1182 -0.3741
 2890TIP3    H2 8593   0.596   3.392   5.973  0.2025 -1.0333 -0.5632
 2891TIP3   OH2 8594   1.224   5.023   2.619 -0.3940  0.0346  0.1342
 2891TIP3    H1 8595   1.196   4.993   2.533  1.5233  2.1098 -1.3275
 2891TIP3    H2 8596   1.220   4.945   2.674 -3.1012 -1.0422 -1.3785
 2892TIP3   OH2 8597   1.242   2.357   4.681 -0.2844 -0.0963 -0.5334
 2892TIP3    H1 8598   1.251   2.289   4.614  1.8509  0.1429 -0.5410
 2892TIP3    H2 8599   1.198   2.429   4.636 -0.5237 -0.6118 -1.1429
 2893TIP3   OH2 8600   7.177   7.420   6.430  0.8288  0.6346  0.4483
 2893TIP3    H1 8601   7.104   7.467   6.389  0.2837 -1.0794 -0.6494
 2893TIP3    H2 8602   7.149   7.405   6.520  0.8445  2.0210  0.7042
 2894TIP3   OH2 8603   5.485   6.502   1.247  0.4846 -0.1313 -0.1118
 2894TIP3    H1 8604   5.553   6.548   1.296  0.7213  0.1008 -0.6605
 2894TIP3    H2 8605   5.404   6.522   1.296  0.6153  0.6767 -0.2075
 2895TIP3   OH2 8606   5.171   0.957   3.355  0.2151 -0.2851  0.7362
 2895TIP3    H1 8607   5.182   0.874   3.400 -0.4273  0.2910  1.9867
 2895TIP3    H2 8608   5.170   0.934   3.262 -2.3587 -1.9902  1.1071
 2896TIP3   OH2 8609   5.864   2.061   2.722  0.0564  0.1872 -0.0764
 2896TIP3    H1 8610   5.955   2.074   2.747  0.6015 -1.6701 -0.9326
 2896TIP3    H2 8611   5.815   2.122   2.778  1.8987  2.3912 -0.6961
 2897TIP3   OH2 8612   6.097   7.185   2.237  0.4835  0.1735 -0.0342
 2897TIP3    H1 8613   6.043   7.106   2.236  1.2595 -0.3779 -0.8541
 2897TIP3    H2 8614   6.050   7.247   2.181  0.6023 -0.2338 -0.5917
 2898TIP3   OH2 8615   1.186   2.636   1.366  0.7608  0.5283 -0.3849
 2898TIP3    H1 8616   1.132   2.699   1.412  1.1453  1.2395 -0.8846
 2898TIP3    H2 8617   1.190   2.669   1.276  1.9175  0.4368 -0.3834
 2899TIP3   OH2 8618   5.170   6.757   0.032  0.7278  0.1868  0.5225
 2899TIP3    H1 8619   5.264   6.750   0.012  1.0927  3.5163  0.5980
 2899TIP3    H2 8620   5.159   6.846   0.065 -2.6094  0.1603 -0.1994
 2900TIP3   OH2 8621   3.667   3.478   6.148 -0.7787  0.0497 -0.1451
 2900TIP3    H1 8622   3.661   3.385   6.130 -1.1393  0.6077 -3.3651
 2900TIP3    H2 8623   3.750   3.488   6.196  1.2747 -1.5587 -3.0700
 2901TIP3   OH2 8624   0.979   3.207   1.694  0.0674 -0.3925 -0.8449
 2901TIP3    H1 8625   1.011   3.165   1.614  1.8011  1.6118 -1.3174
 2901TIP3    H2 8626   1.007   3.299   1.685  0.3059 -0.0851  2.0365
 2902TIP3   OH2 8627   5.296   6.621   0.411 -0.3692  0.2744 -0.1306
 2902TIP3    H1 8628   5.213   6.663   0.435 -1.1154 -0.8250 -0.7097
 2902TIP3    H2 8629   5.307   6.550   0.473  0.4786  0.7968  0.3374
 2903TIP3   OH2 8630   3.611   0.334   2.339  0.1830  0.4390 -0.4283
 2903TIP3    H1 8631   3.625   0.262   2.277  0.9067 -0.1633  0.3953
 2903TIP3    H2 8632   3.567   0.402   2.288  1.3401  0.2229 -1.7786
 2904TIP3   OH2 8633   1.738   4.184   5.242  0.1522  0.1882  0.3429
 2904TIP3    H1 8634   1.780   4.218   5.163 -1.1341  0.5154 -0.2292
 2904TIP3    H2 8635   1.662   4.241   5.256 -0.2075 -0.4783  1.2397
 2905TIP3   OH2 8636   2.630   7.841   6.327 -0.5464 -0.4207  0.7794
 2905TIP3    H1 8637   2.665   7.930   6.321 -3.6891  0.9324  0.6924
 2905TIP3    H2 8638   2.695   7.794   6.380  1.3454  1.8148  0.6304
 2906TIP3   OH2 8639   5.150   4.421   5.610 -0.0316  0.4480  0.0553
 2906TIP3    H1 8640   5.144   4.368   5.690  0.0416 -0.5096 -0.5639
 2906TIP3    H2 8641   5.232   4.468   5.619 -0.0823  0.4363  0.6043
 2907TIP3   OH2 8642   7.130   4.048   3.187 -0.2544 -0.8494 -0.2129
 2907TIP3    H1 8643   7.163   3.972   3.236 -0.4318  0.1068  1.4505
 2907TIP3    H2 8644   7.181   4.122   3.221  0.9693 -0.3673 -2.8457
 2908TIP3   OH2 8645   4.171   5.634   3.092 -0.1499  0.4945  0.2763
 2908TIP3    H1 8646   4.163   5.601   3.181  1.3764 -2.6746 -0.6228
 2908TIP3    H2 8647   4.101   5.699   3.084 -1.7638 -0.7383  3.0579
 2909TIP3   OH2 8648   4.816   0.756   1.709  0.0581 -0.2036 -0.3786
 2909TIP3    H1 8649   4.756   0.719   1.645  1.2656 -1.7670 -0.6811
 2909TIP3    H2 8650   4.874   0.683   1.732 -0.6539  0.1060  2.9213
 2910TIP3   OH2 8651   0.287   7.861   0.204 -0.7239  0.0164 -0.3404
 2910TIP3    H1 8652   0.307   7.953   0.217 -1.7166  0.1332  0.4317
 2910TIP3    H2 8653   0.358   7.829   0.148 -0.4945  1.2871 -0.7983
 2911TIP3   OH2 8654   3.969   0.172   6.795 -0.4951 -0.5534 -0.0964
 2911TIP3    H1 8655   4.047   0.200   6.844 -0.7451  0.9450 -0.5087
 2911TIP3    H2 8656   3.901   0.162   6.861 -0.2444 -0.7761  0.1294
 2912TIP3   OH2 8657   6.215   1.329   1.111 -0.3746 -0.2724 -0.2318
 2912TIP3    H1 8658   6.242   1.246   1.151 -0.4942 -0.2194 -0.0405
 2912TIP3    H2 8659   6.212   1.391   1.184  0.1069 -0.0015 -0.4405
 2913TIP3   OH2 8660   1.156   0.965   5.646 -0.0245  0.2810 -0.3688
 2913TIP3    H1 8661   1.153   0.936   5.555 -0.1742 -4.5027  0.8906
 2913TIP3    H2 8662   1.223   0.910   5.687 -1.0426  1.1290  2.7484
 2914TIP3   OH2 8663   7.913   5.688   4.873  0.3918 -0.3389 -0.9305
 2914TIP3    H1 8664   7.891   5.637   4.952 -0.0279  0.9442 -0.1765
 2914TIP3    H2 8665   7.831   5.692   4.824  0.1262  0.5194 -0.4365
 2915TIP3   OH2 8666   8.001   3.156   5.146  0.2696 -0.2515  0.1294
 2915TIP3    H1 8667   8.027   3.227   5.204  3.2778 -2.8459  2.3495
 2915TIP3    H2 8668   8.063   3.159   5.073 -1.2625  0.8511 -1.2078
 2916TIP3   OH2 8669   4.750   7.330   5.642  0.1030 -0.0397  0.1891
 2916TIP3    H1 8670   4.753   7.331   5.738  0.4265  3.7486  0.3023
 2916TIP3    H2 8671   4.658   7.349   5.621  0.3507  0.8277 -0.1636
 2917TIP3   OH2 8672   7.916   5.553   6.816 -0.1254  0.0588  0.2253
 2917TIP3    H1 8673   7.884   5.643   6.816  0.1712  0.1700 -0.7165
 2917TIP3    H2 8674   7.977   5.549   6.889 -0.8587  0.3477  0.8734
 2918TIP3   OH2 8675   8.469   5.913   5.750 -0.5835  0.4566 -0.2340
 2918TIP3    H1 8676   8.376   5.891   5.764 -0.2080 -0.7949  0.4574
 2918TIP3    H2 8677   8.494   5.960   5.829 -0.0307 -1.3150  0.6902
 2919TIP3   OH2 8678   7.254   0.685   3.083  0.5268  0.1505  0.3051
 2919TIP3    H1 8679   7.239   0.669   2.990  0.3359 -0.5964  0.4610
 2919TIP3    H2 8680   7.291   0.774   3.087 -0.6267  0.6728 -0.3721
 2920TIP3   OH2 8681   2.814   2.834   6.482  0.8359  0.3966 -0.0643
 2920TIP3    H1 8682   2.846   2.744   6.477 -1.6676 -0.5270 -0.9582
 2920TIP3    H2 8683   2.740   2.836   6.422  0.8537  3.0936 -0.0868
 2921TIP3   OH2 8684   3.411   7.198   5.926  0.5268  0.1465 -0.0807
 2921TIP3    H1 8685   3.403   7.155   5.840 -1.9314  0.2864  0.0117
 2921TIP3    H2 8686   3.438   7.287   5.906  2.5243 -0.4915 -0.4839
 2922TIP3   OH2 8687   2.043   1.966   5.574 -0.6283  0.5292  0.5649
 2922TIP3    H1 8688   2.064   1.886   5.622  1.7597  1.0590  0.5437
 2922TIP3    H2 8689   2.021   2.030   5.642 -1.1583  0.2322  0.6748
 2923TIP3   OH2 8690   0.631   7.101   2.934 -0.6988  0.2617 -0.2593
 2923TIP3    H1 8691   0.667   7.149   3.008 -0.8681 -0.5119  0.3340
 2923TIP3    H2 8692   0.591   7.168   2.879  1.8578  1.2047 -1.0980
 2924TIP3   OH2 8693   6.084   1.272   1.855 -0.0867 -0.2921 -0.5792
 2924TIP3    H1 8694   6.118   1.340   1.913 -1.0677  0.1633 -0.5027
 2924TIP3    H2 8695   6.013   1.316   1.807 -2.1998 -1.7800  0.9997
 2925TIP3   OH2 8696   2.559   1.481   4.228  0.3688  0.2399  0.0597
 2925TIP3    H1 8697   2.574   1.483   4.322 -0.3029 -1.9199  0.2797
 2925TIP3    H2 8698   2.464   1.475   4.219  0.2504  2.6817 -0.8769
 2926TIP3   OH2 8699   2.199   2.460   1.608 -0.2800 -0.0656  0.0057
 2926TIP3    H1 8700   2.243   2.403   1.545 -1.4329  0.2856 -1.1619
 2926TIP3    H2 8701   2.121   2.491   1.562  1.0361  3.6968  0.0021
 2927TIP3   OH2 8702   1.841   3.056   0.011  0.2351  0.0411 -0.4349
 2927TIP3    H1 8703   1.924   3.010   0.023  1.3216  1.5719 -1.5887
 2927TIP3    H2 8704   1.778   2.987  -0.009  0.6721 -1.4021  2.6773
 2928TIP3   OH2 8705   4.365   4.714   5.158  0.2309 -0.3128 -0.2725
 2928TIP3    H1 8706   4.428   4.785   5.166 -0.5006  0.1979  1.3385
 2928TIP3    H2 8707   4.281   4.758   5.142 -0.1340 -0.8427  0.1413
 2929TIP3   OH2 8708   0.286   7.227   1.914 -0.0324  0.3038  0.0156
 2929TIP3    H1 8709   0.237   7.270   1.984 -0.7279  0.4736 -0.5626
 2929TIP3    H2 8710   0.354   7.290   1.889  0.5789  0.0173  0.9062
 2930TIP3   OH2 8711   3.288   4.208   2.194  0.0570  0.0794  0.1478
 2930TIP3    H1 8712   3.224   4.177   2.129 -0.1576  0.6753  0.0634
 2930TIP3    H2 8713   3.236   4.222   2.273 -0.1514  1.5643 -0.2073
 2931TIP3   OH2 8714   0.769   7.308   0.677  0.3113  0.4304 -0.4261
 2931TIP3    H1 8715   0.819   7.333   0.754 -1.9435  1.1329  0.9278
 2931TIP3    H2 8716   0.720   7.230   0.705 -0.7705  0.8754 -0.9952
 2932TIP3   OH2 8717   4.734   3.625   7.028  0.1720  0.1282  0.6815
 2932TIP3    H1 8718   4.772   3.695   7.081 -0.0681  1.2858 -0.6311
 2932TIP3    H2 8719   4.720   3.554   7.090 -1.9099  2.0777  2.6502
 2933TIP3   OH2 8720   0.460   3.257   6.814  0.5453  0.6862  0.2060
 2933TIP3    H1 8721   0.425   3.292   6.896  0.6017  2.8222 -0.6172
 2933TIP3    H2 8722   0.526   3.321   6.787  0.5274  0.0337 -1.5149
 2934TIP3   OH2 8723   6.050   2.994   5.555 -0.0481  0.0700  0.5216
 2934TIP3    H1 8724   5.966   2.956   5.579 -0.2183 -0.6182 -1.0579
 2934TIP3    H2 8725   6.032   3.044   5.476  0.9918  0.0822  0.2758
 2935TIP3   OH2 8726   0.884   1.068   3.087  0.3415  0.1997  0.0054
 2935TIP3    H1 8727   0.848   1.087   3.000 -0.0479  1.3249  0.3840
 2935TIP3    H2 8728   0.890   1.154   3.129  1.3811 -0.2263  0.7682
 2936TIP3   OH2 8729   3.314   2.969   5.615 -0.4584  0.8016  0.2073
 2936TIP3    H1 8730   3.368   2.940   5.688 -0.9531 -0.1527  0.2096
 2936TIP3    H2 8731   3.233   2.999   5.656 -0.7146  0.3179  0.0556
 2937TIP3   OH2 8732   3.367   0.923   3.406  0.5729 -0.1510 -0.3895
 2937TIP3    H1 8733   3.438   0.865   3.431 -0.0810 -0.2415  1.4086
 2937TIP3    H2 8734   3.409   1.009   3.396  0.8802 -0.0301  1.4478
 2938TIP3   OH2 8735   2.079   6.265   5.163 -0.4293  0.6012  0.3499
 2938TIP3    H1 8736   2.065   6.318   5.241  1.9166  0.1402  1.1766
 2938TIP3    H2 8737   2.127   6.322   5.103 -1.3741  0.6456 -0.3804
 2939TIP3   OH2 8738   2.461   3.090   2.179  0.9281  0.4396  0.3259
 2939TIP3    H1 8739   2.524   3.116   2.246  1.1114  1.0054 -0.0541
 2939TIP3    H2 8740   2.498   3.011   2.140  1.7431  1.1145 -0.3259
 2940TIP3   OH2 8741   6.215   1.811   3.432 -0.1538  0.2746 -0.6732
 2940TIP3    H1 8742   6.251   1.887   3.478  1.0941 -0.3382 -0.5882
 2940TIP3    H2 8743   6.204   1.841   3.342  1.1119  0.3370 -0.8274
 2941TIP3   OH2 8744   7.300   0.122   1.379 -0.2194 -0.0263 -0.0408
 2941TIP3    H1 8745   7.229   0.075   1.421 -0.7943 -2.4257 -3.3260
 2941TIP3    H2 8746   7.345   0.167   1.451 -3.6618 -0.1695  2.4311
 2942TIP3   OH2 8747   0.576   5.863   0.624  0.1865 -0.6513  0.5357
 2942TIP3    H1 8748   0.560   5.830   0.536 -0.5842  1.0488  0.0036
 2942TIP3    H2 8749   0.671   5.859   0.634  0.4320  0.6221 -0.9926
 2943TIP3   OH2 8750   0.837   1.118   2.236 -0.3685 -0.1360 -0.4618
 2943TIP3    H1 8751   0.795   1.102   2.321  1.4479  0.3204  0.5683
 2943TIP3    H2 8752   0.809   1.044   2.181 -0.4401 -1.2298  0.9791
 2944TIP3   OH2 8753   7.553   3.708   5.147 -0.0967  0.4091 -0.2519
 2944TIP3    H1 8754   7.459   3.709   5.129 -0.0594 -1.0131 -0.6443
 2944TIP3    H2 8755   7.560   3.695   5.241 -0.4106 -4.3296 -0.6363
 2945TIP3   OH2 8756   0.157   2.013   3.459 -0.8363 -0.2155  0.4962
 2945TIP3    H1 8757   0.174   1.927   3.421 -0.2159 -0.0359  0.3472
 2945TIP3    H2 8758   0.066   2.032   3.437 -0.3971  0.0489 -1.2608
 2946TIP3   OH2 8759   6.693   3.034   0.448 -0.2711 -0.0674 -0.5569
 2946TIP3    H1 8760   6.697   3.019   0.354  0.8544 -0.0247 -0.5245
 2946TIP3    H2 8761   6.713   2.949   0.487  1.4222  0.3808 -0.3742
 2947TIP3   OH2 8762   2.459   7.084   0.695  0.3030  0.2911  0.3387
 2947TIP3    H1 8763   2.533   7.024   0.689  0.3714  0.4523 -0.6315
 2947TIP3    H2 8764   2.491   7.156   0.750  1.1679  0.7723 -0.7686
 2948TIP3   OH2 8765   5.478   4.826   3.206  0.2517 -0.6509 -0.6424
 2948TIP3    H1 8766   5.424   4.899   3.235 -0.0604  0.0632 -2.8471
 2948TIP3    H2 8767   5.524   4.798   3.285  1.0686  2.5022  0.1736
 2949TIP3   OH2 8768   0.559   0.569   0.784 -0.1426  0.7046  0.3467
 2949TIP3    H1 8769   0.635   0.588   0.839  0.3190 -2.9033  1.2247
 2949TIP3    H2 8770   0.484   0.579   0.842 -0.1050  1.4301  0.2840
 2950TIP3   OH2 8771   8.363   3.776   4.506 -0.1990 -0.7563 -0.2847
 2950TIP3    H1 8772   8.299   3.742   4.569 -1.5442  3.0762  0.7067
 2950TIP3    H2 8773   8.433   3.812   4.560  0.5303 -0.8004 -1.1744
 2951TIP3   OH2 8774   0.109   7.329   6.305  0.0114 -0.6228 -0.2968
 2951TIP3    H1 8775   0.113   7.307   6.398  0.6273  1.1993  0.1527
 2951TIP3    H2 8776   0.180   7.392   6.293 -1.1422  0.4740 -1.6192
 2952TIP3   OH2 8777   0.223   4.296   5.869 -0.2440  0.2756  0.6752
 2952TIP3    H1 8778   0.273   4.234   5.921  1.1768 -1.1599 -2.1895
 2952TIP3    H2 8779   0.289   4.349   5.825 -1.2538 -0.0962 -1.3947
 2953TIP3   OH2 8780   2.733   1.765   0.258  0.8265  0.4558 -0.1353
 2953TIP3    H1 8781   2.698   1.733   0.175  0.8040 -0.9780  0.4026
 2953TIP3    H2 8782   2.681   1.843   0.278 -1.8313 -1.3129  0.3983
 2954TIP3   OH2 8783   5.859   1.321   5.753 -0.0238  0.0652 -0.7519
 2954TIP3    H1 8784   5.789   1.352   5.810 -1.0040 -1.2307 -1.2052
 2954TIP3    H2 8785   5.839   1.362   5.668  0.1846  0.2542 -0.7114
 2955TIP3   OH2 8786   6.339   3.359   4.844  0.1855 -0.0791  0.6493
 2955TIP3    H1 8787   6.278   3.421   4.885  2.4593  1.1626  2.3813
 2955TIP3    H2 8788   6.357   3.398   4.758 -2.5644 -1.3127 -0.6237
 2956TIP3   OH2 8789   2.861   7.544   1.873 -0.2984  0.2707 -0.2626
 2956TIP3    H1 8790   2.767   7.565   1.871  0.2362  3.0429 -0.3538
 2956TIP3    H2 8791   2.898   7.594   1.801  1.2919 -0.8036 -0.2402
 2957TIP3   OH2 8792   5.730   3.630   2.258  0.0653 -0.0364 -0.4280
 2957TIP3    H1 8793   5.773   3.571   2.197 -0.1482 -0.2763 -0.3489
 2957TIP3    H2 8794   5.781   3.623   2.339  1.4035  1.5947 -1.0828
 2958TIP3   OH2 8795   7.548   3.899   6.062 -0.1378 -0.1546 -0.3576
 2958TIP3    H1 8796   7.604   3.833   6.104  0.3169 -0.0647 -0.8141
 2958TIP3    H2 8797   7.459   3.873   6.086  0.1476  0.6745  1.7960
 2959TIP3   OH2 8798   5.700   3.500   6.381 -0.7737  0.2616  0.0108
 2959TIP3    H1 8799   5.774   3.516   6.323 -1.0828  0.4604 -0.3330
 2959TIP3    H2 8800   5.692   3.580   6.433 -0.8639  0.3113 -0.0807
 2960TIP3   OH2 8801   2.376   2.298   5.216 -0.0757 -0.2398 -0.1048
 2960TIP3    H1 8802   2.322   2.248   5.277  0.1908 -0.8980 -0.3967
 2960TIP3    H2 8803   2.428   2.355   5.273 -0.5925 -0.0780  0.2138
 2961TIP3   OH2 8804   8.096   5.531   0.552  0.6404  0.0700  0.0736
 2961TIP3    H1 8805   8.192   5.536   0.559  0.6821  0.6159 -0.7835
 2961TIP3    H2 8806   8.064   5.584   0.625  0.9877 -0.3253  0.5185
 2962TIP3   OH2 8807   0.294   3.094   6.176  0.5333  0.5680 -0.0470
 2962TIP3    H1 8808   0.316   3.184   6.198 -0.9175  0.9086  0.0903
 2962TIP3    H2 8809   0.322   3.043   6.252 -0.0819  1.1163  0.5604
 2963TIP3   OH2 8810   0.793   1.434   3.520  0.5449 -0.4642 -0.4235
 2963TIP3    H1 8811   0.852   1.456   3.447  0.3278  0.5107 -0.3127
 2963TIP3    H2 8812   0.751   1.517   3.543  0.6865 -0.7447  0.8866
 2964TIP3   OH2 8813   6.435   2.332   3.386  0.1618  0.6961  0.2835
 2964TIP3    H1 8814   6.366   2.307   3.325  1.3790 -0.1190 -0.8346
 2964TIP3    H2 8815   6.458   2.250   3.431  0.5372  0.9111  0.4939
 2965TIP3   OH2 8816   1.043   2.181   3.218 -0.1336  0.3256  0.3489
 2965TIP3    H1 8817   1.109   2.210   3.155 -0.1437  0.9094  0.5920
 2965TIP3    H2 8818   0.990   2.118   3.171 -0.0941  0.6983 -0.2078
 2966TIP3   OH2 8819   5.335   0.453   1.627 -0.1188 -0.2596  0.6017
 2966TIP3    H1 8820   5.292   0.499   1.699  1.3480  1.4304  0.4567
 2966TIP3    H2 8821   5.263   0.428   1.569 -1.1342  0.1448  1.6461
 2967TIP3   OH2 8822   2.004   2.245   6.868  0.0893  0.5745  0.2914
 2967TIP3    H1 8823   1.978   2.180   6.802  0.7401  1.0044 -0.4024
 2967TIP3    H2 8824   2.027   2.193   6.945 -0.0525  0.0217 -0.0334
 2968TIP3   OH2 8825   7.217   5.029   3.760  0.2357  0.4126 -0.2023
 2968TIP3    H1 8826   7.130   5.034   3.721 -1.0325  2.5067  2.5037
 2968TIP3    H2 8827   7.212   4.954   3.819 -0.5283  1.5831  1.3405
 2969TIP3   OH2 8828   2.670   0.200   2.200  0.1273  0.4122  0.1422
 2969TIP3    H1 8829   2.761   0.217   2.174  0.9351 -0.6304  2.0480
 2969TIP3    H2 8830   2.664   0.235   2.289 -1.8781  1.9898 -0.5379
 2970TIP3   OH2 8831   6.867   7.696   0.035 -0.3782  0.1941  0.2004
 2970TIP3    H1 8832   6.806   7.631   0.068  0.8252 -0.9562  0.2381
 2970TIP3    H2 8833   6.915   7.725   0.113  0.4184 -0.3186 -0.0919
 2971TIP3   OH2 8834   4.612   0.398   3.656  0.6569 -0.3566  0.8903
 2971TIP3    H1 8835   4.600   0.427   3.747 -1.3419  2.4428 -0.1229
 2971TIP3    H2 8836   4.690   0.444   3.626  0.2499  0.2293  0.6971
 2972TIP3   OH2 8837   6.900   0.172   3.503  0.4621 -0.3754  0.2807
 2972TIP3    H1 8838   6.806   0.180   3.486  0.5818  0.2778 -0.0946
 2972TIP3    H2 8839   6.926   0.259   3.532  0.9870 -0.5138  0.2262
 2973TIP3   OH2 8840   5.374   4.955   5.060  0.6535  0.9558 -0.6262
 2973TIP3    H1 8841   5.387   5.035   5.008  0.9184  0.4850 -1.2871
 2973TIP3    H2 8842   5.280   4.954   5.079  0.3396  0.5353 -2.0853
 2974TIP3   OH2 8843   4.520   4.468   3.643 -0.6272 -0.4617  0.0962
 2974TIP3    H1 8844   4.553   4.396   3.698 -0.1342 -0.4455 -0.1808
 2974TIP3    H2 8845   4.587   4.480   3.576 -0.4645  0.6030  0.4406
 2975TIP3   OH2 8846   0.202   5.597   6.472 -0.3391  0.5617  0.2491
 2975TIP3    H1 8847   0.183   5.596   6.566 -1.0031  0.2765  0.1177
 2975TIP3    H2 8848   0.144   5.530   6.435  0.0740  0.5186 -0.3362
 2976TIP3   OH2 8849   8.323   5.141   1.186 -0.0986  0.1043 -0.2906
 2976TIP3    H1 8850   8.399   5.135   1.127 -0.6190 -2.7481 -0.8213
 2976TIP3    H2 8851   8.309   5.235   1.197  0.8072  0.7881 -3.7175
 2977TIP3   OH2 8852   1.457   3.880   5.193 -0.0516 -0.7697 -0.1170
 2977TIP3    H1 8853   1.413   3.949   5.143 -2.6437 -3.7119 -2.2699
 2977TIP3    H2 8854   1.396   3.860   5.264  1.2443 -0.1490  1.2331
 2978TIP3   OH2 8855   5.064   2.251   5.868  0.5275 -0.4455 -0.2148
 2978TIP3    H1 8856   5.027   2.254   5.956 -0.2818  2.6732 -0.5657
 2978TIP3    H2 8857   5.137   2.312   5.871  1.3538 -1.3338 -1.3941
 2979TIP3   OH2 8858   2.355   7.413   5.093 -0.3522  0.8398 -0.3175
 2979TIP3    H1 8859   2.275   7.440   5.138 -1.5640 -1.3238 -0.9844
 2979TIP3    H2 8860   2.424   7.419   5.159 -1.1596  2.2105  0.4430
 2980TIP3   OH2 8861   4.703   4.643   1.714  0.2603  0.5082  0.0016
 2980TIP3    H1 8862   4.622   4.692   1.731  0.6158  1.1889 -0.2429
 2980TIP3    H2 8863   4.725   4.603   1.798 -0.8058 -0.4177 -0.1338
 2981TIP3   OH2 8864   2.474   3.632   2.913  0.0589 -0.2788  0.0083
 2981TIP3    H1 8865   2.492   3.577   2.837  0.4697  0.6571 -0.5860
 2981TIP3    H2 8866   2.436   3.712   2.877  1.0219  0.5108  0.7054
 2982TIP3   OH2 8867   5.254   7.077   5.783 -0.0724 -0.4023  0.0971
 2982TIP3    H1 8868   5.300   7.061   5.866 -0.9375  0.7050  0.8257
 2982TIP3    H2 8869   5.265   6.995   5.734  0.2256 -1.1991  1.4187
 2983TIP3   OH2 8870   7.637   3.141   2.891 -0.3166 -0.7245 -0.2261
 2983TIP3    H1 8871   7.635   3.140   2.796 -0.0914  0.1874 -0.2572
 2983TIP3    H2 8872   7.730   3.129   2.913 -0.1551  0.4184 -0.1840
 2984TIP3   OH2 8873   5.565   1.803   6.432 -0.5253  0.1553 -0.4507
 2984TIP3    H1 8874   5.522   1.869   6.378 -0.9756  0.1470 -0.1151
 2984TIP3    H2 8875   5.541   1.826   6.522 -1.0012 -0.6758 -0.3520
 2985TIP3   OH2 8876   0.578   0.658   3.222  0.9335  0.2612 -0.4865
 2985TIP3    H1 8877   0.587   0.625   3.311 -0.2557  1.1348 -0.0262
 2985TIP3    H2 8878   0.538   0.585   3.174 -0.2634  0.4730  0.1668
 2986TIP3   OH2 8879   4.862   0.163   2.996  0.0574 -0.4281 -0.1287
 2986TIP3    H1 8880   4.823   0.232   3.050 -2.1710 -1.2036 -0.6518
 2986TIP3    H2 8881   4.945   0.143   3.040 -0.3368  0.9321  1.3547
 2987TIP3   OH2 8882   6.900   2.431   5.800  0.1687 -0.0508  0.1328
 2987TIP3    H1 8883   6.899   2.478   5.716  1.1004 -2.1556 -1.1593
 2987TIP3    H2 8884   6.818   2.383   5.801 -0.0345  0.3069  0.6420
 2988TIP3   OH2 8885   7.980   6.462   6.857 -0.8866 -0.2646 -0.1123
 2988TIP3    H1 8886   7.940   6.450   6.944 -0.0853  0.7557  0.4258
 2988TIP3    H2 8887   7.981   6.557   6.844 -0.0533 -0.3462 -0.7694
 2989TIP3   OH2 8888   5.150   4.128   2.989 -0.0532  0.7127  0.0336
 2989TIP3    H1 8889   5.238   4.133   2.952 -0.1418  0.0798 -0.2653
 2989TIP3    H2 8890   5.152   4.190   3.063  0.5223  0.9846 -0.2021
 2990TIP3   OH2 8891   6.803   2.562   6.540 -0.4135 -0.3742  0.2185
 2990TIP3    H1 8892   6.840   2.474   6.541  2.1074  0.5839 -0.3048
 2990TIP3    H2 8893   6.849   2.606   6.469 -1.0290  1.5926  0.9676
 2991TIP3   OH2 8894   2.992   6.823   2.404 -0.4532  0.1744  0.4804
 2991TIP3    H1 8895   3.050   6.791   2.335 -1.2385 -0.9447  0.2987
 2991TIP3    H2 8896   2.991   6.918   2.394 -0.0447  0.0705 -0.6277
 2992TIP3   OH2 8897   7.393   4.861   0.752  0.0655 -0.1389  0.4506
 2992TIP3    H1 8898   7.399   4.805   0.674 -3.7899 -1.9167  1.1953
 2992TIP3    H2 8899   7.320   4.920   0.733 -0.0588  0.2903  2.1562
 2993TIP3   OH2 8900   6.063   7.648   4.403  0.3594 -0.5439  0.4651
 2993TIP3    H1 8901   6.039   7.661   4.311 -3.3977 -1.6933  1.1033
 2993TIP3    H2 8902   6.035   7.729   4.446  0.5988 -0.6410  0.8050
 2994TIP3   OH2 8903   4.850   3.744   5.346  0.5082  0.2065 -0.0013
 2994TIP3    H1 8904   4.775   3.790   5.383  0.0842 -1.8829  1.9368
 2994TIP3    H2 8905   4.813   3.664   5.310  1.6071 -0.0871 -0.5204
 2995TIP3   OH2 8906   6.976   3.024   5.242 -0.2007  0.2583 -0.4658
 2995TIP3    H1 8907   6.932   3.008   5.325  1.4812  0.4228  0.5118
 2995TIP3    H2 8908   6.931   3.099   5.204 -0.0580  1.1204  1.0218
 2996TIP3   OH2 8909   3.023   7.224   4.486 -0.5150  0.2924 -0.0134
 2996TIP3    H1 8910   3.015   7.273   4.568  0.5463 -1.7664  1.4225
 2996TIP3    H2 8911   2.935   7.225   4.449 -1.1942  0.6608  1.5347
 2997TIP3   OH2 8912   2.583   2.932   0.373  0.3554 -0.0953  0.0818
 2997TIP3    H1 8913   2.608   2.980   0.451  0.2835  1.0957 -0.6089
 2997TIP3    H2 8914   2.605   2.990   0.300  0.2262 -1.0881 -0.7801
 2998TIP3   OH2 8915   7.694   0.593   1.866  0.4147  0.7216  0.7989
 2998TIP3    H1 8916   7.756   0.611   1.937  2.9274 -0.0056 -1.0706
 2998TIP3    H2 8917   7.686   0.677   1.820 -1.1053  1.1574  1.7963
 2999TIP3   OH2 8918   7.395   1.066   1.544 -0.3197  0.0788  0.0578
 2999TIP3    H1 8919   7.344   1.033   1.617 -2.1510 -0.3171 -1.3373
 2999TIP3    H2 8920   7.383   1.161   1.547 -0.6876  0.0333  0.0833
 3000TIP3   OH2 8921   8.626   1.280   4.192  0.4590 -0.0213  1.1317
 3000TIP3    H1 8922   8.570   1.351   4.224 -0.7990 -0.8436  0.8263
 3000TIP3    H2 8923   8.579   1.200   4.216  2.0670 -0.7852  1.8779
 3001TIP3   OH2 8924   8.474   5.489   1.002 -0.2687 -0.3126  0.2142
 3001TIP3    H1 8925   8.504   5.437   0.928 -0.4832 -0.4631  0.2322
 3001TIP3    H2 8926   8.553   5.509   1.051  0.0870  1.0142 -0.8214
 3002TIP3   OH2 8927   2.284   7.549   6.089  0.4912  0.1959 -0.6076
 3002TIP3    H1 8928   2.347   7.622   6.087  2.1180 -1.0898  0.7333
 3002TIP3    H2 8929   2.240   7.557   6.173 -0.4985  0.5541 -1.1534
 3003TIP3   OH2 8930   7.450   5.982   3.933 -0.5445  0.3907 -0.0182
 3003TIP3    H1 8931   7.426   6.074   3.940  0.5903  0.7167 -0.2905
 3003TIP3    H2 8932   7.366   5.936   3.926 -1.1552  1.3279  0.8013
 3004TIP3   OH2 8933   1.278   2.690   0.074 -0.1957 -0.8134 -0.4902
 3004TIP3    H1 8934   1.318   2.751   0.135  0.1451  0.6228 -2.0597
 3004TIP3    H2 8935   1.184   2.708   0.079 -0.1433 -0.5134 -0.5589
 3005TIP3   OH2 8936   4.599   8.204   5.053 -0.0849  0.1680  0.0654
 3005TIP3    H1 8937   4.581   8.149   5.129  1.1911 -0.5585 -0.1199
 3005TIP3    H2 8938   4.566   8.155   4.978  1.8909 -0.8454 -0.2009
 3006TIP3   OH2 8939   4.919   6.141   0.246 -0.0599 -0.6367  0.0927
 3006TIP3    H1 8940   4.944   6.199   0.174 -1.9942  0.7134  0.4511
 3006TIP3    H2 8941   4.902   6.057   0.204 -1.8699  0.3158 -1.1970
 3007TIP3   OH2 8942   2.711   1.481   5.616  0.3259 -0.5910  0.0836
 3007TIP3    H1 8943   2.764   1.401   5.618  1.7587  0.2290 -1.7477
 3007TIP3    H2 8944   2.662   1.475   5.534 -0.6068 -0.2200  0.6025
 3008TIP3   OH2 8945   5.987   1.347   6.501 -0.0406 -0.4764 -0.4792
 3008TIP3    H1 8946   6.065   1.374   6.550 -0.6207 -0.0493  0.2381
 3008TIP3    H2 8947   5.963   1.424   6.450 -1.1675  0.1103  0.8723
 3009TIP3   OH2 8948   0.885   1.507   4.389 -0.2007  0.2182 -0.4890
 3009TIP3    H1 8949   0.920   1.537   4.473 -0.4067 -0.6078 -0.0998
 3009TIP3    H2 8950   0.901   1.413   4.388 -1.0591  0.0671 -0.9569
 3010TIP3   OH2 8951   3.418   2.103   5.848 -0.0669  0.0764 -0.6804
 3010TIP3    H1 8952   3.470   2.180   5.868 -0.9909  0.6937 -0.5674
 3010TIP3    H2 8953   3.449   2.073   5.763  0.9760 -0.0256 -0.2718
 3011TIP3   OH2 8954   6.093   4.928   5.155 -0.0529 -0.0799  0.4204
 3011TIP3    H1 8955   6.062   4.981   5.082 -0.6291  0.2879  0.9185
 3011TIP3    H2 8956   6.159   4.983   5.198 -1.1036  0.5209  1.3123
 3012TIP3   OH2 8957   1.383   2.145   2.056  0.1852 -0.0840  0.4203
 3012TIP3    H1 8958   1.461   2.183   2.016  0.2084 -0.7180 -0.1641
 3012TIP3    H2 8959   1.393   2.162   2.149 -0.4218  2.4710  0.1098
 3013TIP3   OH2 8960   6.440   6.056   0.028  0.7386 -0.1798  0.1348
 3013TIP3    H1 8961   6.516   6.091   0.076  1.2824 -2.8877  1.4615
 3013TIP3    H2 8962   6.477   6.023  -0.054  0.9333 -1.0895  0.5819
 3014TIP3   OH2 8963   7.994   0.804   3.699 -0.0649 -0.3908  0.1784
 3014TIP3    H1 8964   7.955   0.883   3.662 -0.9461 -1.6485 -1.7364
 3014TIP3    H2 8965   7.926   0.768   3.756  0.1408 -0.0862  0.6295
 3015TIP3   OH2 8966   6.894   0.243   1.728 -0.0709  0.0560  0.6056
 3015TIP3    H1 8967   6.827   0.176   1.716  0.7536 -0.8480  1.0189
 3015TIP3    H2 8968   6.900   0.255   1.823  0.3938  0.0992  0.5716
 3016TIP3   OH2 8969   6.101   4.837   6.759  0.4308  0.0802 -0.5566
 3016TIP3    H1 8970   6.092   4.914   6.815 -2.5256 -1.1598  0.8914
 3016TIP3    H2 8971   6.041   4.854   6.686 -1.3811 -1.3670  0.5234
 3017TIP3   OH2 8972   6.067   7.697   2.627  0.1314  0.3580 -0.5957
 3017TIP3    H1 8973   6.088   7.641   2.702  1.1108  2.3378  0.7249
 3017TIP3    H2 8974   6.005   7.646   2.575 -0.8081 -1.0227  1.7014
 3018TIP3   OH2 8975   1.707   6.200   5.550 -0.5611  0.4133 -0.4619
 3018TIP3    H1 8976   1.686   6.277   5.603 -0.3404  0.2919 -0.1952
 3018TIP3    H2 8977   1.802   6.191   5.558 -0.6517 -0.1852 -0.0810
 3019TIP3   OH2 8978   7.740   5.330   5.995 -0.1037 -0.3615  0.9815
 3019TIP3    H1 8979   7.801   5.330   6.069  3.0157  1.2136 -1.3716
 3019TIP3    H2 8980   7.758   5.411   5.948 -3.0351 -0.5411 -0.7547
 3020TIP3   OH2 8981   4.402   2.597   0.355  0.4345  0.0952  0.2768
 3020TIP3    H1 8982   4.421   2.519   0.409 -1.4865  0.5684  1.7723
 3020TIP3    H2 8983   4.414   2.671   0.415 -1.3037  0.6750 -0.0326
 3021TIP3   OH2 8984   6.709   5.985   5.677  0.4590 -0.0422 -0.5016
 3021TIP3    H1 8985   6.647   5.965   5.747  1.5767 -0.1420  0.4998
 3021TIP3    H2 8986   6.661   6.045   5.620 -0.1714  0.8382  0.8865
 3022TIP3   OH2 8987   3.485   7.951   2.967  0.6976  0.2068 -0.0376
 3022TIP3    H1 8988   3.483   7.876   2.908 -2.4007  0.4550 -0.3951
 3022TIP3    H2 8989   3.495   8.027   2.910 -1.0513  0.3530 -0.2084
 3023TIP3   OH2 8990   2.079   4.242   1.974 -0.5300  0.2475 -0.9356
 3023TIP3    H1 8991   1.986   4.255   1.954 -0.3545  1.9023 -0.8377
 3023TIP3    H2 8992   2.083   4.155   2.014 -1.9536 -0.0666 -1.4089
 3024TIP3   OH2 8993   4.780   0.893   6.850 -0.1641  0.9348  0.2248
 3024TIP3    H1 8994   4.821   0.881   6.935 -0.8777  1.2810  0.6214
 3024TIP3    H2 8995   4.829   0.966   6.810  1.4260 -0.4425 -0.4760
 3025TIP3   OH2 8996   7.026   7.125   2.170  0.9034 -0.4457 -0.6360
 3025TIP3    H1 8997   7.109   7.114   2.216  0.9966 -2.6677 -1.2520
 3025TIP3    H2 8998   7.051   7.146   2.080  0.8144 -1.4872 -0.9083
 3026TIP3   OH2 8999   4.544   7.426   2.453  0.1229 -0.1949 -0.3666
 3026TIP3    H1 9000   4.617   7.484   2.473 -1.2160  0.7453  2.2827
 3026TIP3    H2 9001   4.480   7.483   2.409 -0.1368 -0.3154 -0.1480
 3027TIP3   OH2 9002   8.568   1.885   0.348 -0.0198 -0.3057  0.4025
 3027TIP3    H1 9003   8.595   1.976   0.345 -0.8073 -0.0889 -1.5725
 3027TIP3    H2 9004   8.617   1.842   0.278 -2.7383 -0.4258 -1.5831
 3028TIP3   OH2 9005   4.187   4.714   0.249  0.3600  0.0658  0.7279
 3028TIP3    H1 9006   4.201   4.687   0.340  1.5648 -0.0889  0.5175
 3028TIP3    H2 9007   4.205   4.635   0.198 -0.5451  0.0900  0.3569
 3029TIP3   OH2 9008   1.100   4.255   5.978  0.2705  0.0323 -0.7350
 3029TIP3    H1 9009   1.140   4.186   6.031  0.8697 -0.9770 -2.4166
 3029TIP3    H2 9010   1.168   4.322   5.971 -0.5880  1.2792  1.5812
 3030TIP3   OH2 9011   4.136   0.993   2.861 -0.6699  0.3506  0.2158
 3030TIP3    H1 9012   4.049   1.013   2.826  0.5198  2.2295 -1.9447
 3030TIP3    H2 9013   4.177   1.079   2.872  0.9793 -0.5017  0.9753
 3031TIP3   OH2 9014   5.573   4.741   3.909  0.4892  0.6514 -0.3365
 3031TIP3    H1 9015   5.489   4.696   3.912 -0.0155  1.1465 -3.4008
 3031TIP3    H2 9016   5.638   4.673   3.927 -0.4173 -0.5096 -1.3375
 3032TIP3   OH2 9017   8.294   5.205   1.466  0.3987  0.0596  0.2179
 3032TIP3    H1 9018   8.293   5.261   1.544  2.0999  0.4242  0.0177
 3032TIP3    H2 9019   8.342   5.256   1.401 -0.0263 -0.7026 -0.7221
 3033TIP3   OH2 9020   2.276   3.174   4.207 -0.8468 -0.7557 -0.2751
 3033TIP3    H1 9021   2.367   3.202   4.221 -1.1391  0.1031 -0.0181
 3033TIP3    H2 9022   2.263   3.180   4.112 -0.6090 -0.9712 -0.3219
 3034TIP3   OH2 9023   3.393   6.934   4.384  0.5561  0.4916 -0.6287
 3034TIP3    H1 9024   3.331   7.005   4.370  0.1198  0.6537  1.7664
 3034TIP3    H2 9025   3.474   6.965   4.344 -0.1856  1.3953 -1.4956
 3035TIP3   OH2 9026   4.318   2.888   5.105  0.2446 -0.1564 -0.1141
 3035TIP3    H1 9027   4.387   2.894   5.171 -0.3394 -1.7153  0.6677
 3035TIP3    H2 9028   4.306   2.978   5.075  1.9055  0.2941  0.4492
 3036TIP3   OH2 9029   6.058   1.108   1.579  0.1163  0.5582 -0.4423
 3036TIP3    H1 9030   6.117   1.055   1.633  0.9052  0.7891 -1.0654
 3036TIP3    H2 9031   6.006   1.044   1.531 -0.3900  0.3505  0.3631
 3037TIP3   OH2 9032   2.520   4.173   6.002 -0.1869 -0.0036  0.3622
 3037TIP3    H1 9033   2.581   4.244   6.022  0.1999 -0.1901 -0.1193
 3037TIP3    H2 9034   2.535   4.155   5.909 -2.5645  1.4513 -0.3950
 3038TIP3   OH2 9035   7.242   1.694   6.354 -0.1714  0.2025  0.4492
 3038TIP3    H1 9036   7.271   1.766   6.298  1.6840 -1.7089 -1.2661
 3038TIP3    H2 9037   7.240   1.618   6.296  0.4484 -1.6289  2.6652
 3039TIP3   OH2 9038   0.484   1.059   5.698 -0.2170  0.3587 -0.2148
 3039TIP3    H1 9039   0.403   1.071   5.747 -0.5237 -1.9633 -0.0256
 3039TIP3    H2 9040   0.529   0.987   5.743  1.4953  0.9563 -0.8858
 3040TIP3   OH2 9041   1.853   1.509   6.399 -0.5688 -0.3500  0.3102
 3040TIP3    H1 9042   1.884   1.462   6.477 -1.9918 -0.8833  0.5820
 3040TIP3    H2 9043   1.842   1.599   6.428  1.8351  0.1607 -0.1188
 3041TIP3   OH2 9044   5.466   5.787   4.640 -0.2730 -0.8788 -0.2905
 3041TIP3    H1 9045   5.535   5.819   4.699  0.6634 -1.5202 -0.9904
 3041TIP3    H2 9046   5.455   5.857   4.576 -0.9131 -0.4035  0.3325
 3042TIP3   OH2 9047   7.941   7.843   0.953  0.0199 -0.0567 -0.2256
 3042TIP3    H1 9048   7.913   7.794   0.876  2.2806  2.1470 -2.6073
 3042TIP3    H2 9049   8.036   7.841   0.950  0.1888  2.5254  0.8506
 3043TIP3   OH2 9050   2.925   0.345   4.591 -0.0864 -0.0681 -0.0409
 3043TIP3    H1 9051   2.870   0.369   4.516  0.4825 -0.9176 -0.7593
 3043TIP3    H2 9052   2.986   0.280   4.556  2.0539  1.5444  0.4481
 3044TIP3   OH2 9053   0.170   4.407   2.682  0.3767  0.0041  0.2902
 3044TIP3    H1 9054   0.235   4.398   2.752 -0.2696  0.1181  0.9167
 3044TIP3    H2 9055   0.119   4.484   2.707 -0.3685 -0.4313  0.1082
 3045TIP3   OH2 9056   8.584   6.519   4.289 -0.0867 -0.3767  0.7428
 3045TIP3    H1 9057   8.663   6.522   4.234  0.3095  2.0310  1.3467
 3045TIP3    H2 9058   8.609   6.463   4.362  1.0254  0.1893  0.8240
 3046TIP3   OH2 9059   8.011   7.557   6.706  0.5294 -0.7260 -0.5126
 3046TIP3    H1 9060   7.995   7.568   6.612 -2.6452 -1.1106 -0.1283
 3046TIP3    H2 9061   8.031   7.465   6.717 -1.0231 -1.1155 -0.6693
 3047TIP3   OH2 9062   7.985   7.173   0.148  0.1801 -0.2368 -1.0219
 3047TIP3    H1 9063   7.898   7.196   0.114  0.2324  0.2680 -0.8259
 3047TIP3    H2 9064   8.046   7.221   0.093  0.3105 -0.1755 -0.8242
 3048TIP3   OH2 9065   2.997   0.547   6.851 -0.0502  0.5514  0.1483
 3048TIP3    H1 9066   3.092   0.547   6.862 -0.1849  0.2709  1.5073
 3048TIP3    H2 9067   2.978   0.466   6.804  0.4624  1.1694 -1.1700
 3049TIP3   OH2 9068   0.169   2.854   2.582 -0.0268  0.3068  0.5655
 3049TIP3    H1 9069   0.082   2.817   2.597 -0.9789  1.5725 -1.3533
 3049TIP3    H2 9070   0.173   2.930   2.640 -0.9678  1.2759 -0.5738
 3050TIP3   OH2 9071   0.774   5.856   6.338  0.6444  0.3727  0.6192
 3050TIP3    H1 9072   0.770   5.949   6.362  0.0411  0.2641  0.9665
 3050TIP3    H2 9073   0.800   5.811   6.418 -1.6878 -0.0247  1.2345
 3051TIP3   OH2 9074   7.191   3.385   0.039 -0.5751 -0.1388 -0.9088
 3051TIP3    H1 9075   7.240   3.403  -0.041  1.2116  0.0298  0.1555
 3051TIP3    H2 9076   7.208   3.292   0.056  0.9961  0.3422  0.4425
 3052TIP3   OH2 9077   3.842   8.051   5.784 -0.2164  0.0093  0.2929
 3052TIP3    H1 9078   3.802   8.134   5.810 -0.3901  0.0459 -0.0759
 3052TIP3    H2 9079   3.934   8.073   5.768  0.0235 -0.1371  1.4268
 3053TIP3   OH2 9080   4.000   2.595   0.075  0.3843  0.9608 -0.3652
 3053TIP3    H1 9081   3.959   2.658   0.135  1.3956 -0.0790  1.5303
 3053TIP3    H2 9082   4.094   2.601   0.095  0.4668 -1.5064  0.3240
 3054TIP3   OH2 9083   0.256   7.930   3.164 -0.2797 -0.5720 -0.4309
 3054TIP3    H1 9084   0.209   7.862   3.213  0.3938 -1.5613 -1.1010
 3054TIP3    H2 9085   0.190   7.966   3.104 -0.7299 -0.3914  0.1624
 3055TIP3   OH2 9086   3.630   4.993   5.489  0.4868  0.4534 -0.4218
 3055TIP3    H1 9087   3.564   5.015   5.423 -0.3983  1.1265  0.6336
 3055TIP3    H2 9088   3.638   4.898   5.485  0.1473  0.4514 -1.2064
 3056TIP3   OH2 9089   1.910   7.585   6.224  0.8985 -0.0653  0.4609
 3056TIP3    H1 9090   1.949   7.654   6.171 -0.2592  1.1622  1.1363
 3056TIP3    H2 9091   1.935   7.607   6.314  1.6315 -1.3035  0.5807
 3057TIP3   OH2 9092   1.422   6.739   1.066 -0.0420  0.6785  0.0987
 3057TIP3    H1 9093   1.458   6.818   1.026  0.3778  0.2312 -0.4314
 3057TIP3    H2 9094   1.427   6.755   1.160  1.4714  0.6691  0.0385
 3058TIP3   OH2 9095   4.811   6.699   3.443 -0.0960  0.1197 -0.3792
 3058TIP3    H1 9096   4.840   6.670   3.529  2.4680 -1.9933 -1.8029
 3058TIP3    H2 9097   4.889   6.736   3.402 -0.9459  0.0498 -2.1823
 3059TIP3   OH2 9098   4.671   8.168   4.413  0.7293  0.1801 -0.1708
 3059TIP3    H1 9099   4.597   8.217   4.377  1.8371  2.1279  0.0944
 3059TIP3    H2 9100   4.665   8.082   4.370 -0.1377  1.1627 -2.1777
 3060TIP3   OH2 9101   7.571   7.928   1.549  0.0293 -0.0714 -0.4212
 3060TIP3    H1 9102   7.650   7.963   1.590 -1.4419 -0.6454  3.2110
 3060TIP3    H2 9103   7.581   7.833   1.554 -1.6844 -0.1939  1.9865
 3061TIP3   OH2 9104   7.670   3.320   2.361 -0.4625  0.0842 -0.4036
 3061TIP3    H1 9105   7.763   3.307   2.378 -0.7846 -1.0742  0.5758
 3061TIP3    H2 9106   7.659   3.297   2.268  0.1200 -0.4143 -0.3525
 3062TIP3   OH2 9107   6.431   5.354   2.004  0.3086 -0.4846  0.0543
 3062TIP3    H1 9108   6.361   5.419   2.009  0.0361 -0.7685 -0.0095
 3062TIP3    H2 9109   6.410   5.290   2.072  1.1067  0.0014  0.7768
 3063TIP3   OH2 9110   3.262   3.944   2.816 -0.0625  0.0978 -0.1594
 3063TIP3    H1 9111   3.295   3.859   2.846  0.8174  0.9331  1.3539
 3063TIP3    H2 9112   3.210   3.977   2.889 -3.1260 -0.4697 -1.8935
 3064TIP3   OH2 9113   1.309   0.666   1.485 -0.3109  0.2683 -0.7261
 3064TIP3    H1 9114   1.370   0.702   1.420  0.2562 -2.0403 -1.5666
 3064TIP3    H2 9115   1.365   0.641   1.559 -0.4504 -0.3507 -0.8240
 3065TIP3   OH2 9116   1.044   5.393   6.332 -0.1670  0.0017  0.3498
 3065TIP3    H1 9117   0.969   5.385   6.273 -0.2379 -0.3642  0.4881
 3065TIP3    H2 9118   1.006   5.387   6.420 -0.2428  1.9868  0.4829
 3066TIP3   OH2 9119   8.165   6.857   5.040  0.4761 -0.0247 -0.5962
 3066TIP3    H1 9120   8.179   6.905   5.122  1.6034  2.5538 -2.1868
 3066TIP3    H2 9121   8.222   6.780   5.048 -0.6531 -0.7224  1.6406
 3067TIP3   OH2 9122   7.661   1.230   6.368  0.4632 -0.2154 -0.3244
 3067TIP3    H1 9123   7.630   1.234   6.459  0.3826 -0.9449 -0.3168
 3067TIP3    H2 9124   7.730   1.164   6.369  0.3812 -0.3143 -0.8183
 3068TIP3   OH2 9125   7.522   3.935   4.845 -0.0988  1.0180 -0.1289
 3068TIP3    H1 9126   7.610   3.910   4.873 -0.9646 -1.0678  0.9475
 3068TIP3    H2 9127   7.502   3.875   4.773 -0.6661  1.4777 -0.3640
 3069TIP3   OH2 9128   1.569   3.312   3.716  0.0989 -0.3642  0.7398
 3069TIP3    H1 9129   1.527   3.226   3.708 -2.0999  0.6187  1.0073
 3069TIP3    H2 9130   1.647   3.296   3.770  2.5162 -3.0146 -3.0369
 3070TIP3   OH2 9131   0.067   6.256   6.311 -0.5444 -0.0875 -0.4039
 3070TIP3    H1 9132   0.089   6.181   6.256 -1.5055 -0.6386 -0.0790
 3070TIP3    H2 9133   0.137   6.319   6.296 -1.3805  0.3025 -3.1727
 3071TIP3   OH2 9134   5.998   7.249   2.675  0.1294 -0.2759  0.2625
 3071TIP3    H1 9135   6.013   7.327   2.728 -0.5691 -1.0905  1.7472
 3071TIP3    H2 9136   5.949   7.280   2.599  1.2440  0.9474  0.0206
 3072TIP3   OH2 9137   6.910   5.193   6.271 -0.1570 -0.2991  0.1551
 3072TIP3    H1 9138   6.925   5.148   6.187  1.7645  0.4239  0.0672
 3072TIP3    H2 9139   6.997   5.214   6.303 -0.9253  1.0671  1.4695
 3073TIP3   OH2 9140   6.800   0.589   6.537 -0.3601  0.2990 -0.0942
 3073TIP3    H1 9141   6.755   0.667   6.569  2.2158  1.7150  0.3893
 3073TIP3    H2 9142   6.810   0.534   6.615 -1.9456 -0.4381 -0.3820
 3074TIP3   OH2 9143   1.239   4.439   1.846 -0.4273  0.1041  0.8258
 3074TIP3    H1 9144   1.257   4.406   1.935 -0.4857 -0.4487  0.6326
 3074TIP3    H2 9145   1.310   4.403   1.793 -0.0454  0.9374  0.7591
 3075TIP3   OH2 9146   3.378   2.215   4.821  0.1782 -0.5232  0.1542
 3075TIP3    H1 9147   3.402   2.161   4.896  0.2581 -0.2247  0.3403
 3075TIP3    H2 9148   3.443   2.194   4.754 -0.1761 -1.1565 -0.0059
 3076TIP3   OH2 9149   3.036   6.078   3.475 -0.3706 -0.7917  0.1107
 3076TIP3    H1 9150   2.952   6.124   3.468 -1.0175 -1.9079  0.2987
 3076TIP3    H2 9151   3.097   6.145   3.508 -1.0135  0.2084 -0.6606
 3077TIP3   OH2 9152   8.519   6.146   1.040 -0.2682  0.1896  0.0671
 3077TIP3    H1 9153   8.555   6.160   1.128  1.2030  0.3916 -0.5406
 3077TIP3    H2 9154   8.481   6.231   1.016 -1.2547 -0.0395  0.7312
 3078TIP3   OH2 9155   4.816   7.079   2.657 -0.4060 -0.1303  0.0087
 3078TIP3    H1 9156   4.827   7.015   2.727 -0.3234  0.9097  0.9787
 3078TIP3    H2 9157   4.738   7.128   2.682  0.7964  1.6272  0.5198
 3079TIP3   OH2 9158   7.171   3.193   5.445 -0.3205 -0.7014  0.4702
 3079TIP3    H1 9159   7.243   3.256   5.441  0.8318 -1.9894  0.5495
 3079TIP3    H2 9160   7.168   3.154   5.357 -0.0940 -1.5416  0.8267
 3080TIP3   OH2 9161   5.018   0.524   4.866  0.3664  0.4285 -0.1587
 3080TIP3    H1 9162   5.017   0.450   4.805 -2.4974  1.0439 -1.0607
 3080TIP3    H2 9163   5.032   0.485   4.952  2.8769 -0.6546 -0.9783
 3081TIP3   OH2 9164   0.558   7.137   4.448 -0.2607 -0.0757 -0.0201
 3081TIP3    H1 9165   0.583   7.204   4.511 -2.5227  2.2408 -1.4311
 3081TIP3    H2 9166   0.545   7.184   4.366 -0.4698 -2.4992 -1.4676
 3082TIP3   OH2 9167   6.113   2.265   1.789  0.1205  0.0213  0.4398
 3082TIP3    H1 9168   6.119   2.262   1.694  0.8397  0.9274  0.4362
 3082TIP3    H2 9169   6.119   2.358   1.811 -2.9142  0.1127  1.2322
 3083TIP3   OH2 9170   7.870   7.810   3.750  0.3700  0.0061 -0.4750
 3083TIP3    H1 9171   7.844   7.720   3.769  2.6597 -0.9512 -1.5005
 3083TIP3    H2 9172   7.855   7.857   3.832  1.2018 -1.8339  0.8056
 3084TIP3   OH2 9173   7.231   0.463   4.059 -0.1677  0.0333 -0.4773
 3084TIP3    H1 9174   7.281   0.420   3.989  2.3905 -1.1685  1.8488
 3084TIP3    H2 9175   7.299   0.500   4.116 -1.9302 -1.1270  2.5789
 3085TIP3   OH2 9176   0.371   6.428   2.458  0.2289 -0.1126 -0.8354
 3085TIP3    H1 9177   0.324   6.457   2.379 -1.4520  0.1921  0.2295
 3085TIP3    H2 9178   0.326   6.349   2.485 -0.6194  0.9297  0.9974
 3086TIP3   OH2 9179   7.927   3.332   1.386 -0.1515  0.0695  0.2996
 3086TIP3    H1 9180   7.889   3.419   1.402 -0.6407  0.0180 -0.5390
 3086TIP3    H2 9181   7.912   3.284   1.468  0.0886  0.7547  0.7564
 3087TIP3   OH2 9182   7.482   3.984   3.934  0.0461  0.0644 -0.4445
 3087TIP3    H1 9183   7.482   4.033   4.016 -1.8140  0.5217 -0.6693
 3087TIP3    H2 9184   7.442   4.043   3.871  1.7167 -0.1624 -1.7934
 3088TIP3   OH2 9185   8.390   4.273   6.946 -0.1583 -0.5582 -0.2539
 3088TIP3    H1 9186   8.400   4.368   6.939 -0.5182 -0.4564  0.4743
 3088TIP3    H2 9187   8.414   4.239   6.860 -0.3892  0.2247 -0.6303
 3089TIP3   OH2 9188   8.377   2.363   6.855 -0.2189 -0.2129  0.5161
 3089TIP3    H1 9189   8.443   2.402   6.914  0.2650  1.2279 -0.8908
 3089TIP3    H2 9190   8.309   2.430   6.849 -0.0797 -0.1713 -0.8330
 3090TIP3   OH2 9191   2.239   7.306   4.253  0.1250 -0.3671  0.2955
 3090TIP3    H1 9192   2.158   7.275   4.213  0.7282 -1.9022  0.1833
 3090TIP3    H2 9193   2.274   7.371   4.192 -0.5614 -0.3748 -0.1078
 3091TIP3   OH2 9194   8.250   6.857   1.581 -0.0723 -0.2989  0.6671
 3091TIP3    H1 9195   8.254   6.876   1.674 -1.0969  1.1829  0.4459
 3091TIP3    H2 9196   8.254   6.761   1.576  1.1172 -0.3601  2.1314
 3092TIP3   OH2 9197   4.979   5.651   6.146 -0.3110 -0.3104 -0.2734
 3092TIP3    H1 9198   4.903   5.595   6.158 -0.1295 -0.2289  1.5808
 3092TIP3    H2 9199   5.048   5.592   6.115 -0.9619 -0.4689 -1.4857
 3093TIP3   OH2 9200   0.042   6.361   2.935 -0.2805  0.0694  0.4154
 3093TIP3    H1 9201  -0.046   6.398   2.936 -0.1293  0.4494  0.2397
 3093TIP3    H2 9202   0.065   6.348   3.027 -0.5599 -0.1311  0.4569
 3094TIP3   OH2 9203   1.168   5.172   6.229 -0.1373 -0.4154 -0.2051
 3094TIP3    H1 9204   1.134   5.260   6.243  2.1633  0.6497 -0.8697
 3094TIP3    H2 9205   1.207   5.147   6.313  0.7653 -0.0398 -0.4979
 3095TIP3   OH2 9206   3.445   0.050   2.772  0.2118  0.1777 -0.2388
 3095TIP3    H1 9207   3.465   0.133   2.729  1.1424  0.7737  1.2853
 3095TIP3    H2 9208   3.482  -0.016   2.713  1.3950  0.9659 -0.4251
 3096TIP3   OH2 9209   6.492   1.032   2.906 -0.3982 -0.1079  0.3553
 3096TIP3    H1 9210   6.538   1.044   2.989 -0.5902  1.5372  0.2464
 3096TIP3    H2 9211   6.416   1.090   2.912 -1.0034 -0.7815 -0.5476
 3097TIP3   OH2 9212   0.246   3.439   6.685 -0.2681  0.0778 -0.1605
 3097TIP3    H1 9213   0.294   3.364   6.650 -1.5052 -0.2961 -1.0850
 3097TIP3    H2 9214   0.167   3.445   6.632 -0.2987  1.9179  0.0377
 3098TIP3   OH2 9215   6.151   7.739   5.419 -0.2695  0.2257  0.4388
 3098TIP3    H1 9216   6.144   7.756   5.513  2.7237 -2.3197  1.3219
 3098TIP3    H2 9217   6.111   7.815   5.378 -2.3903  1.1138  3.7306
 3099TIP3   OH2 9218   2.702   7.668   2.504  0.8359  0.1045  0.1582
 3099TIP3    H1 9219   2.632   7.727   2.474  0.5481  0.1755  0.9433
 3099TIP3    H2 9220   2.673   7.581   2.477  0.9689  0.2508 -0.4716
 3100TIP3   OH2 9221   6.356   6.447   5.913  0.4392  0.2544  0.0839
 3100TIP3    H1 9222   6.414   6.377   5.882  0.2554  0.0029  0.3061
 3100TIP3    H2 9223   6.379   6.523   5.859 -1.2230 -0.6659 -2.0861
 3101TIP3   OH2 9224   1.218   7.379   4.339 -0.1912  0.1446  0.2073
 3101TIP3    H1 9225   1.155   7.338   4.398  0.1478 -1.5368 -0.5337
 3101TIP3    H2 9226   1.185   7.361   4.252  1.4867 -1.1241 -0.2082
 3102TIP3   OH2 9227   5.350   1.138   6.310 -0.0766 -0.3957 -0.1638
 3102TIP3    H1 9228   5.424   1.184   6.348  0.0112  0.6766 -1.5309
 3102TIP3    H2 9229   5.386   1.095   6.232 -0.4678 -1.5757  0.2964
 3103TIP3   OH2 9230   8.480   3.885   2.373 -0.3200 -0.3297 -1.1880
 3103TIP3    H1 9231   8.420   3.811   2.372  0.4418 -1.1461  1.9855
 3103TIP3    H2 9232   8.560   3.852   2.332 -0.4109 -0.8374 -0.9615
 3104TIP3   OH2 9233   7.791   2.225   0.748  0.3936 -0.2047 -0.2766
 3104TIP3    H1 9234   7.812   2.169   0.673  0.6582 -1.2421  0.5447
 3104TIP3    H2 9235   7.872   2.272   0.767  0.3421  0.0159 -0.5946
 3105TIP3   OH2 9236   4.240   2.150   6.311 -0.2997 -0.4861  0.1208
 3105TIP3    H1 9237   4.155   2.118   6.341 -0.7206 -1.4453 -1.9317
 3105TIP3    H2 9238   4.277   2.077   6.261  0.4490  0.9088 -1.4558
 3106TIP3   OH2 9239   3.942   6.433   0.564  0.2417 -0.0832  0.0071
 3106TIP3    H1 9240   4.025   6.472   0.592 -0.3219  1.4267 -0.3294
 3106TIP3    H2 9241   3.922   6.476   0.481 -0.9426 -0.3230  0.1523
 3107TIP3   OH2 9242   2.895   0.436   6.269 -0.5713 -0.3753  0.3048
 3107TIP3    H1 9243   2.853   0.402   6.190 -1.6069  2.6119 -0.5698
 3107TIP3    H2 9244   2.978   0.472   6.239 -1.1769  1.1959  0.4540
 3108TIP3   OH2 9245   8.549   0.541   6.595  0.2409  0.1391 -0.2715
 3108TIP3    H1 9246   8.495   0.510   6.668  0.6665  0.1416  0.0472
 3108TIP3    H2 9247   8.639   0.532   6.626  0.3867  2.8557  0.3107
 3109TIP3   OH2 9248   3.571   0.795   1.812  0.0519 -0.3678 -0.6098
 3109TIP3    H1 9249   3.482   0.793   1.848  0.6351 -1.2747  0.8822
 3109TIP3    H2 9250   3.576   0.878   1.765 -0.6259  1.2498  1.9437
 3110TIP3   OH2 9251   5.371   2.788   2.099  0.5240  0.3625 -0.7540
 3110TIP3    H1 9252   5.340   2.821   2.183 -1.2893 -0.9827 -0.8253
 3110TIP3    H2 9253   5.447   2.734   2.120 -0.7633 -1.1473  0.2588
 3111TIP3   OH2 9254   7.815   6.216   5.613  0.4724 -0.5117  0.2466
 3111TIP3    H1 9255   7.795   6.246   5.525  0.5056 -0.3628  0.2898
 3111TIP3    H2 9256   7.878   6.279   5.647  1.7322 -1.4891 -0.2128
 3112TIP3   OH2 9257   1.710   3.882   5.069 -0.0611  0.0946  0.4214
 3112TIP3    H1 9258   1.686   3.839   5.151 -0.6799  0.3265  0.3707
 3112TIP3    H2 9259   1.655   3.839   5.003  2.1799 -1.8492 -0.3285
 3113TIP3   OH2 9260   5.748   8.144   5.652 -0.4166 -0.2564  0.2197
 3113TIP3    H1 9261   5.792   8.206   5.709 -1.5120 -0.6831  1.5796
 3113TIP3    H2 9262   5.659   8.138   5.687 -0.8430 -1.2627 -0.9573
 3114TIP3   OH2 9263   4.861   4.552   1.214 -0.0385  0.1479 -0.2909
 3114TIP3    H1 9264   4.799   4.533   1.284  1.4547  0.6716  1.2571
 3114TIP3    H2 9265   4.915   4.623   1.249  0.7961  0.3652 -1.9564
 3115TIP3   OH2 9266   2.552   5.311   4.993  0.4947 -0.2013  0.3634
 3115TIP3    H1 9267   2.494   5.342   5.063  0.3268  1.5893 -0.5202
 3115TIP3    H2 9268   2.501   5.243   4.948  0.9580 -2.0792  2.4790
 3116TIP3   OH2 9269   4.676   4.814   0.844 -0.2860 -0.9590 -0.2156
 3116TIP3    H1 9270   4.729   4.848   0.916 -1.3771  0.1486  0.1114
 3116TIP3    H2 9271   4.637   4.734   0.878  0.9068 -1.6282 -0.3601
 3117TIP3   OH2 9272   6.971   5.572   3.335 -0.0241 -0.3779 -0.0656
 3117TIP3    H1 9273   6.928   5.614   3.261 -0.2575  0.1004  0.3369
 3117TIP3    H2 9274   7.021   5.500   3.296 -2.2082 -1.7988 -0.4543
 3118TIP3   OH2 9275   6.584   6.988   5.528  0.2970  0.2996 -0.4391
 3118TIP3    H1 9276   6.656   6.926   5.542  0.1319  0.0828 -0.5505
 3118TIP3    H2 9277   6.564   7.021   5.616  0.6533  0.4991 -0.4305
 3119TIP3   OH2 9278   5.841   1.158   6.357  0.0734  0.4920 -0.4733
 3119TIP3    H1 9279   5.901   1.209   6.411 -1.1276  1.2730  0.1782
 3119TIP3    H2 9280   5.852   1.193   6.268 -1.1385  2.3558  0.0495
 3120TIP3   OH2 9281   5.922   7.628   4.995  0.0561  0.5256  0.3038
 3120TIP3    H1 9282   5.965   7.702   5.038 -1.2117  1.2602  0.3469
 3120TIP3    H2 9283   5.840   7.665   4.961 -0.9042 -1.0150  0.8882
 3121TIP3   OH2 9284   4.468   7.251   0.853 -0.4076 -0.7847 -0.3213
 3121TIP3    H1 9285   4.509   7.320   0.801 -0.1599 -0.2509  0.5765
 3121TIP3    H2 9286   4.506   7.170   0.818 -0.3636 -0.4502 -1.0774
 3122TIP3   OH2 9287   3.950   3.867   3.043 -0.7926 -0.5991 -0.1998
 3122TIP3    H1 9288   3.937   3.777   3.014 -1.5292 -0.6693  0.3188
 3122TIP3    H2 9289   3.876   3.915   3.004  0.1844  0.0046 -1.3695
 3123TIP3   OH2 9290   3.302   5.864   1.808 -0.1190 -0.2540  0.3130
 3123TIP3    H1 9291   3.358   5.904   1.741 -1.1201 -1.6390 -1.4612
 3123TIP3    H2 9292   3.216   5.858   1.766 -0.4808 -2.3691  1.2182
 3124TIP3   OH2 9293   6.112   1.439   3.309 -0.1898  0.0401  0.0502
 3124TIP3    H1 9294   6.171   1.459   3.237  0.0406 -0.1651  0.1809
 3124TIP3    H2 9295   6.165   1.450   3.388 -0.0656 -1.0075  0.1289
 3125TIP3   OH2 9296   4.572   0.327   3.121  0.8729  0.0111  0.2111
 3125TIP3    H1 9297   4.622   0.378   3.057  0.9472 -1.2821 -0.7976
 3125TIP3    H2 9298   4.514   0.273   3.067  2.7018 -3.0146  1.0480
 3126TIP3   OH2 9299   6.422   6.144   3.655 -0.7293 -0.0601  0.2650
 3126TIP3    H1 9300   6.482   6.205   3.697 -1.7444  1.4451 -0.4052
 3126TIP3    H2 9301   6.336   6.184   3.665 -1.2344 -0.6267 -1.5407
 3127TIP3   OH2 9302   1.748   5.235   6.240 -0.6100  0.3334 -0.6014
 3127TIP3    H1 9303   1.722   5.247   6.331  2.1422  0.2325  0.3000
 3127TIP3    H2 9304   1.751   5.324   6.205 -0.6647  0.4663 -0.2783
 3128TIP3   OH2 9305   5.172   2.227   4.371  0.2978 -0.0667 -0.6327
 3128TIP3    H1 9306   5.253   2.216   4.322  0.0582 -0.7580 -0.8770
 3128TIP3    H2 9307   5.188   2.306   4.424  1.6905 -1.0072  0.4326
 3129TIP3   OH2 9308   8.226   0.867   2.743  0.5853 -0.5023 -0.6057
 3129TIP3    H1 9309   8.284   0.883   2.817  0.0887 -0.0439 -0.3130
 3129TIP3    H2 9310   8.137   0.876   2.779  0.2762 -2.6850 -0.6965
 3130TIP3   OH2 9311   1.064   1.238   4.009  0.4985  0.7338 -0.3948
 3130TIP3    H1 9312   0.990   1.294   3.987  2.0235  1.6872 -3.6642
 3130TIP3    H2 9313   1.049   1.158   3.959  0.6944  0.1055  0.5269
 3131TIP3   OH2 9314   2.041   7.375   0.549  0.0608  0.7767 -0.1486
 3131TIP3    H1 9315   2.003   7.313   0.612 -1.2090  0.3578 -1.2867
 3131TIP3    H2 9316   2.135   7.357   0.551 -0.2183 -0.7770 -0.0230
 3132TIP3   OH2 9317   0.140   6.607   5.265 -0.1145  0.2346 -0.1784
 3132TIP3    H1 9318   0.072   6.548   5.297  0.2033  1.3635  2.9226
 3132TIP3    H2 9319   0.215   6.549   5.247 -0.1826 -0.5086  1.6700
 3133TIP3   OH2 9320   4.396   4.143   1.166  0.3330  0.3672  0.6097
 3133TIP3    H1 9321   4.323   4.203   1.173  0.4488  0.4988  0.6978
 3133TIP3    H2 9322   4.356   4.056   1.159  0.1604  0.4842  0.1468
 3134TIP3   OH2 9323   1.139   4.771   6.908  0.2651 -0.0040  0.1961
 3134TIP3    H1 9324   1.162   4.770   6.816  0.1396 -2.7855  0.0938
 3134TIP3    H2 9325   1.223   4.769   6.954  0.3650 -1.6012  0.0153
 3135TIP3   OH2 9326   0.823   4.400   1.043  0.4072  0.0769  0.0071
 3135TIP3    H1 9327   0.752   4.338   1.063  0.0079  0.7685  0.7842
 3135TIP3    H2 9328   0.901   4.345   1.033 -0.2460 -0.7085 -0.9831
 3136TIP3   OH2 9329   8.217   0.275   4.533 -0.6758  0.0302  0.0235
 3136TIP3    H1 9330   8.278   0.312   4.598 -0.4344 -2.8153  1.6043
 3136TIP3    H2 9331   8.134   0.270   4.580 -1.3135  0.7965 -0.9977
 3137TIP3   OH2 9332   3.693   3.383   5.413 -0.0839  0.2303  0.3891
 3137TIP3    H1 9333   3.724   3.313   5.471  0.8022 -0.4945 -0.9077
 3137TIP3    H2 9334   3.703   3.347   5.325  0.8321  2.1509 -0.3495
 3138TIP3   OH2 9335   1.829   0.133   0.652  0.1130 -0.2015 -0.1451
 3138TIP3    H1 9336   1.775   0.054   0.641  0.8289 -0.6046 -0.8610
 3138TIP3    H2 9337   1.915   0.109   0.618 -0.0346  1.3172 -1.7630
 3139TIP3   OH2 9338   4.642   4.110   3.606  0.0947 -0.1121  0.3036
 3139TIP3    H1 9339   4.552   4.128   3.631  0.3644  0.3041  1.0106
 3139TIP3    H2 9340   4.650   4.143   3.517 -0.1699  0.8081  0.6145
 3140TIP3   OH2 9341   0.937   3.663   5.379 -0.1285  0.6066  0.2709
 3140TIP3    H1 9342   0.941   3.757   5.363  0.3065  1.0890  2.7741
 3140TIP3    H2 9343   0.846   3.645   5.401  0.0663  0.7592  1.2617
 3141TIP3   OH2 9344   8.192   3.364   6.314 -0.3072  0.2949 -0.2132
 3141TIP3    H1 9345   8.278   3.385   6.350 -0.5228  0.5290  0.1722
 3141TIP3    H2 9346   8.130   3.400   6.377 -0.6889 -0.6278 -0.0459
 3142TIP3   OH2 9347   1.678   4.965   1.320 -0.7646  0.0725 -0.0014
 3142TIP3    H1 9348   1.608   4.910   1.286 -0.6258 -0.5306  0.6689
 3142TIP3    H2 9349   1.638   5.052   1.329 -1.2735 -0.1467 -0.1166
 3143TIP3   OH2 9350   1.492   1.529   1.530 -0.4498  0.0892 -0.2789
 3143TIP3    H1 9351   1.533   1.603   1.485 -0.4727  0.1495 -0.2010
 3143TIP3    H2 9352   1.463   1.565   1.614  2.1584 -0.6634  1.0674
 3144TIP3   OH2 9353   7.981   4.828   6.846  0.4864 -0.4993  0.3752
 3144TIP3    H1 9354   7.905   4.776   6.871 -0.0139 -0.5021 -1.0678
 3144TIP3    H2 9355   7.975   4.907   6.900 -0.0987 -0.8404  0.8211
 3145TIP3   OH2 9356   6.293   4.206   3.607  0.3725  0.0667 -0.0407
 3145TIP3    H1 9357   6.266   4.297   3.605  0.3531  0.0793  0.6230
 3145TIP3    H2 9358   6.227   4.160   3.555  0.2521  0.3952 -0.1793
 3146TIP3   OH2 9359   4.984   6.938   6.849  0.1022 -0.0649 -0.5428
 3146TIP3    H1 9360   4.953   6.966   6.763  1.2005  0.8708 -0.6571
 3146TIP3    H2 9361   5.065   6.890   6.831 -1.1356 -2.4092 -0.2481
 3147TIP3   OH2 9362   0.270   3.973   1.516 -0.0064 -0.2749  0.1729
 3147TIP3    H1 9363   0.286   3.880   1.503 -0.6818 -0.3003 -0.6258
 3147TIP3    H2 9364   0.198   3.977   1.578 -1.3976 -0.3761 -1.3624
 3148TIP3   OH2 9365   1.766   4.727   4.601  0.0267  0.0541 -0.5689
 3148TIP3    H1 9366   1.794   4.691   4.686  1.0772 -0.4289 -1.0998
 3148TIP3    H2 9367   1.673   4.707   4.596  0.2489 -1.1983 -0.1420
 3149TIP3   OH2 9368   6.672   5.710   5.938 -0.1125 -0.2697  0.1484
 3149TIP3    H1 9369   6.765   5.726   5.919 -0.2410 -0.7584 -1.0014
 3149TIP3    H2 9370   6.645   5.645   5.872 -1.6259  0.9296 -0.4773
 3150TIP3   OH2 9371   4.399   3.946   5.128  0.3380  0.1933 -0.5480
 3150TIP3    H1 9372   4.377   3.931   5.036  1.1969  0.4183 -0.8060
 3150TIP3    H2 9373   4.320   3.922   5.176  0.0405 -0.4052 -1.3062
 3151TIP3   OH2 9374   1.600   5.750   6.610  0.2232 -0.8121 -0.1783
 3151TIP3    H1 9375   1.580   5.836   6.574 -0.5546 -0.5195  0.8987
 3151TIP3    H2 9376   1.641   5.702   6.537 -2.1726 -0.5975 -1.7889
 3152TIP3   OH2 9377   4.744   2.537   3.660 -0.2051  0.3213 -0.1713
 3152TIP3    H1 9378   4.654   2.524   3.630 -0.0869  4.2246 -3.0854
 3152TIP3    H2 9379   4.736   2.598   3.733  0.0270  1.1313 -0.8052
 3153TIP3   OH2 9380   8.040   4.757   2.841 -0.5372 -0.1054  0.2502
 3153TIP3    H1 9381   8.027   4.789   2.930  0.2370  0.4690  0.1622
 3153TIP3    H2 9382   8.110   4.692   2.849  2.2538  2.5740 -0.4227
 3154TIP3   OH2 9383   4.988   2.810   3.394 -0.0839 -0.0037 -0.2970
 3154TIP3    H1 9384   4.987   2.829   3.300  2.9291  2.4027 -0.0124
 3154TIP3    H2 9385   5.027   2.723   3.400 -0.9369 -0.4813 -1.2579
 3155TIP3   OH2 9386   8.428   6.651   0.516  0.1437 -0.2544  0.3177
 3155TIP3    H1 9387   8.414   6.698   0.598 -1.9576 -0.5643  0.2059
 3155TIP3    H2 9388   8.514   6.680   0.485 -0.0170  1.6037  1.4840
 3156TIP3   OH2 9389   5.900   8.037   1.493  0.1746  0.7128  0.5832
 3156TIP3    H1 9390   5.976   8.053   1.436 -0.0206  0.1563  0.1575
 3156TIP3    H2 9391   5.832   8.094   1.456 -0.1278 -0.0851 -0.1185
 3157TIP3   OH2 9392   3.633   4.449   2.066 -0.5527  0.6249  0.2209
 3157TIP3    H1 9393   3.647   4.362   2.103  1.3213  0.8589  0.1946
 3157TIP3    H2 9394   3.592   4.433   1.981  2.7289 -0.5443 -1.3102
 3158TIP3   OH2 9395   5.156   2.552   6.038 -0.3491 -0.0035 -0.3582
 3158TIP3    H1 9396   5.110   2.604   5.972  0.5785  0.1821 -0.8681
 3158TIP3    H2 9397   5.244   2.540   6.003 -0.4174 -1.5840 -0.0751
 3159TIP3   OH2 9398   0.506   3.707   6.846 -0.0074  0.6420 -0.3631
 3159TIP3    H1 9399   0.437   3.702   6.911 -0.7101  2.1659 -0.9408
 3159TIP3    H2 9400   0.498   3.626   6.796  0.9419 -0.8640  1.7526
 3160TIP3   OH2 9401   7.694   4.299   3.771  0.5433  0.0512 -0.3665
 3160TIP3    H1 9402   7.703   4.286   3.677 -2.6477 -0.1262 -0.7542
 3160TIP3    H2 9403   7.672   4.212   3.806 -0.8288  0.5479  0.0923
 3161TIP3   OH2 9404   0.098   6.297   3.206 -0.0675  0.2388  0.7369
 3161TIP3    H1 9405   0.119   6.307   3.299 -0.8144  0.8972  0.8514
 3161TIP3    H2 9406   0.125   6.208   3.185 -1.3294 -0.5011  2.0031
 3162TIP3   OH2 9407   3.769   2.798   3.001  0.2635 -0.2370  0.0801
 3162TIP3    H1 9408   3.812   2.771   2.920  1.0536  0.5694  0.2161
 3162TIP3    H2 9409   3.839   2.806   3.065 -0.3540 -0.8483  0.8542
 3163TIP3   OH2 9410   5.562   8.028   3.693  0.1777  0.0546 -0.5246
 3163TIP3    H1 9411   5.471   8.024   3.663  0.4310 -0.1377 -1.2851
 3163TIP3    H2 9412   5.558   8.005   3.786 -0.5558  0.1020 -0.5429
 3164TIP3   OH2 9413   6.939   5.083   0.655  0.4728  0.7214  0.0694
 3164TIP3    H1 9414   6.986   5.006   0.685  1.5284  0.1173 -2.8007
 3164TIP3    H2 9415   6.847   5.055   0.650  0.7187 -0.0830 -0.1083
 3165TIP3   OH2 9416   3.810   7.565   3.620  0.4546 -0.5797  0.2011
 3165TIP3    H1 9417   3.733   7.518   3.651  0.7708 -3.0916 -2.3914
 3165TIP3    H2 9418   3.853   7.598   3.699 -1.9562 -1.1871  1.8554
 3166TIP3   OH2 9419   8.348   2.440   2.281  0.2130 -0.2777  0.3474
 3166TIP3    H1 9420   8.427   2.405   2.239  2.2192  0.3694  3.2615
 3166TIP3    H2 9421   8.283   2.370   2.273  2.0153 -2.0317  0.3858
 3167TIP3   OH2 9422   1.039   7.993   5.014 -0.0226  0.3368  0.1582
 3167TIP3    H1 9423   1.081   8.033   4.938  0.4695  1.0938  0.8118
 3167TIP3    H2 9424   1.007   7.909   4.983  1.2747  0.0916 -0.5659
 3168TIP3   OH2 9425   2.371   1.764   6.770 -0.2103 -0.2876 -0.3721
 3168TIP3    H1 9426   2.432   1.835   6.790 -2.5346  1.4955  0.8241
 3168TIP3    H2 9427   2.403   1.689   6.820  1.2330  0.4394 -0.1676
 3169TIP3   OH2 9428   2.932   6.707   0.718 -0.4152  0.2692  0.1120
 3169TIP3    H1 9429   2.954   6.696   0.810 -1.0129  0.1532  0.2453
 3169TIP3    H2 9430   3.015   6.698   0.672 -0.2696 -0.8084  0.5571
 3170TIP3   OH2 9431   8.446   1.470   6.066  0.0251  0.2952  0.1782
 3170TIP3    H1 9432   8.448   1.468   5.970 -0.5378  0.9892  0.1459
 3170TIP3    H2 9433   8.499   1.547   6.089 -0.5642  0.6440  0.3869
 3171TIP3   OH2 9434   6.882   1.361   1.469 -0.0760 -0.0154  0.8852
 3171TIP3    H1 9435   6.963   1.368   1.418  0.7060 -1.9822  1.7326
 3171TIP3    H2 9436   6.812   1.379   1.406  0.9525 -0.0369 -0.3064
 3172TIP3   OH2 9437   8.578   1.993   2.982  0.1009 -0.5273  0.2356
 3172TIP3    H1 9438   8.663   2.036   2.975 -0.5012  0.5104 -1.9430
 3172TIP3    H2 9439   8.572   1.940   2.902 -0.0433 -3.1645  1.8711
 3173TIP3   OH2 9440   2.226   6.530   4.790  0.4167  0.1282 -0.1589
 3173TIP3    H1 9441   2.172   6.459   4.755 -1.6209  0.6740  1.6186
 3173TIP3    H2 9442   2.281   6.557   4.717  0.3744 -2.4268 -1.2262
 3174TIP3   OH2 9443   5.390   1.129   6.919  0.2569 -0.4106 -0.2817
 3174TIP3    H1 9444   5.310   1.102   6.876  0.9647  0.2586 -2.1316
 3174TIP3    H2 9445   5.374   1.220   6.946  0.0634 -0.5920  0.2156
 3175TIP3   OH2 9446   4.874   6.385   5.381 -0.6855  0.4603 -0.0674
 3175TIP3    H1 9447   4.799   6.419   5.430 -1.2640 -1.0061  0.1256
 3175TIP3    H2 9448   4.894   6.301   5.423  0.2585  0.2416 -0.9205
 3176TIP3   OH2 9449   7.669   3.760   6.245 -0.5072  0.7812  0.6742
 3176TIP3    H1 9450   7.630   3.673   6.232 -3.5398  1.6476  2.8224
 3176TIP3    H2 9451   7.761   3.741   6.266 -0.3529 -1.6452 -1.6164
 3177TIP3   OH2 9452   2.818   4.534   2.440  0.2776 -0.7205 -0.2491
 3177TIP3    H1 9453   2.906   4.513   2.408 -0.2404 -1.9016 -0.9449
 3177TIP3    H2 9454   2.825   4.625   2.469  1.0323  0.1370 -2.8475
 3178TIP3   OH2 9455   2.529   1.408   5.441 -0.0489  0.2623 -0.0191
 3178TIP3    H1 9456   2.469   1.478   5.468 -1.9767 -1.6094  0.8147
 3178TIP3    H2 9457   2.473   1.331   5.431  1.8462 -0.9753 -1.8494
 3179TIP3   OH2 9458   4.955   1.108   6.829 -0.0303  0.0693 -0.0812
 3179TIP3    H1 9459   4.938   1.138   6.740  0.6447  0.4386 -0.0892
 3179TIP3    H2 9460   4.960   1.188   6.881  2.5922  0.0936 -0.2472
 3180TIP3   OH2 9461   5.471   7.256   0.553 -0.4497 -0.0875 -0.2687
 3180TIP3    H1 9462   5.528   7.211   0.615  0.4267  0.9014 -0.3283
 3180TIP3    H2 9463   5.386   7.214   0.564 -0.3798  0.2024  1.7646
 3181TIP3   OH2 9464   4.849   4.064   2.558  0.7893  0.7494 -0.3250
 3181TIP3    H1 9465   4.886   4.037   2.473 -1.3457  0.7368 -1.3039
 3181TIP3    H2 9466   4.839   4.159   2.550 -0.0821  0.6568 -0.3697
 3182TIP3   OH2 9467   6.556   6.496   0.857  0.0703  0.5980  0.4314
 3182TIP3    H1 9468   6.487   6.557   0.831  0.3239  0.0010 -1.8497
 3182TIP3    H2 9469   6.520   6.450   0.933 -0.5608  2.7543  1.5399
 3183TIP3   OH2 9470   2.030   6.131   5.542  0.0066 -0.5012 -0.2738
 3183TIP3    H1 9471   2.066   6.129   5.631 -0.3970 -0.9303 -0.1162
 3183TIP3    H2 9472   2.063   6.050   5.502  0.4255 -0.1671 -0.6125
 3184TIP3   OH2 9473   0.815   6.910   5.642 -0.1872 -0.1814 -0.0316
 3184TIP3    H1 9474   0.748   6.902   5.574 -0.5628  0.5140  0.2455
 3184TIP3    H2 9475   0.883   6.849   5.616 -0.5432 -0.2716 -0.7764
 3185TIP3   OH2 9476   3.061   1.507   6.743 -0.5548  0.2086 -0.0672
 3185TIP3    H1 9477   3.075   1.426   6.694  0.2212 -0.2521  0.9024
 3185TIP3    H2 9478   3.068   1.576   6.677 -0.3765 -0.4550 -0.7539
 3186TIP3   OH2 9479   2.125   2.279   3.824 -0.3721 -0.3880  0.1628
 3186TIP3    H1 9480   2.062   2.347   3.800  1.4368  0.4304 -2.6519
 3186TIP3    H2 9481   2.096   2.202   3.776 -1.6867 -1.3523  2.3644
 3187TIP3   OH2 9482   3.246   0.492   1.423 -0.6387  0.3623 -0.2754
 3187TIP3    H1 9483   3.281   0.412   1.462  1.3948  1.9743  1.5203
 3187TIP3    H2 9484   3.304   0.510   1.349 -2.7689 -1.1776 -2.4496
 3188TIP3   OH2 9485   1.252   5.399   7.117  0.0092  0.1794 -0.5523
 3188TIP3    H1 9486   1.273   5.491   7.137 -0.5824  0.3770 -0.8362
 3188TIP3    H2 9487   1.206   5.402   7.033  2.6606 -0.6720 -2.1477
 3189TIP3   OH2 9488   2.828   7.037   5.044 -1.2121  0.1932  0.0797
 3189TIP3    H1 9489   2.860   7.058   5.132  1.1420  0.2138 -0.6977
 3189TIP3    H2 9490   2.871   6.954   5.022 -2.4321 -0.2507 -0.7442
 3190TIP3   OH2 9491   5.103   7.397   2.136 -0.0314 -0.7924  0.3142
 3190TIP3    H1 9492   5.170   7.460   2.163  0.8264 -1.6752  0.3113
 3190TIP3    H2 9493   5.128   7.371   2.048  0.6737 -2.4442  0.9535
 3191TIP3   OH2 9494   1.520   7.506   6.869 -0.1480  0.3604 -0.8260
 3191TIP3    H1 9495   1.494   7.594   6.841 -0.3006  1.1957  1.7162
 3191TIP3    H2 9496   1.467   7.447   6.815 -0.9025  1.8219 -1.7565
 3192TIP3   OH2 9497   3.897   7.932   3.323  0.1580  0.0464 -0.4067
 3192TIP3    H1 9498   3.851   7.925   3.239  0.3732 -0.1538 -0.5081
 3192TIP3    H2 9499   3.916   7.842   3.348  0.7750  0.1420 -0.5214
 3193TIP3   OH2 9500   6.715   3.367   1.682  0.1975 -0.4328  0.0591
 3193TIP3    H1 9501   6.699   3.273   1.678  0.3863 -0.4536 -0.2387
 3193TIP3    H2 9502   6.627   3.405   1.686 -0.0052 -0.5338 -2.0028
 3194TIP3   OH2 9503   2.386   4.830   0.703 -0.0320  0.4938 -0.7446
 3194TIP3    H1 9504   2.464   4.885   0.709  2.1684 -2.5046  0.1936
 3194TIP3    H2 9505   2.417   4.742   0.721 -3.6955 -0.8654 -0.3083
 3195TIP3   OH2 9506   7.424   6.521   7.072  0.5308 -0.6466  0.2814
 3195TIP3    H1 9507   7.391   6.442   7.029  1.1234 -0.0789 -1.2976
 3195TIP3    H2 9508   7.442   6.581   7.000  1.0074  0.5779  1.3898
 3196TIP3   OH2 9509   3.269   1.986   6.930  0.1626 -0.0306 -0.4130
 3196TIP3    H1 9510   3.218   2.038   6.993 -0.6260  0.0058 -1.0797
 3196TIP3    H2 9511   3.214   1.911   6.910  1.2935 -1.1507  0.5279
 3197TIP3   OH2 9512   7.356   3.596   0.321  0.5317 -0.1062  0.0094
 3197TIP3    H1 9513   7.283   3.627   0.374  0.8372  0.0369  0.3533
 3197TIP3    H2 9514   7.397   3.527   0.374  0.5711 -0.2671 -0.2317
 3198TIP3   OH2 9515   3.676   4.782   6.086 -0.0167 -0.3735 -0.5650
 3198TIP3    H1 9516   3.764   4.779   6.049  1.1532 -0.2869  1.9572
 3198TIP3    H2 9517   3.636   4.860   6.048  1.5286  0.3888 -0.7088
 3199TIP3   OH2 9518   2.583   6.472   4.174  0.1138 -0.1626 -0.0756
 3199TIP3    H1 9519   2.521   6.400   4.187 -0.9388  0.8609  0.8099
 3199TIP3    H2 9520   2.664   6.442   4.213  0.1983 -1.5293 -1.2443
 3200TIP3   OH2 9521   6.100   0.841   1.706 -0.1821  0.3716  0.5686
 3200TIP3    H1 9522   6.143   0.864   1.788 -1.4582  0.8779  1.1183
 3200TIP3    H2 9523   6.006   0.852   1.723 -0.4995  0.1648 -0.8540
 3201TIP3   OH2 9524   3.196   3.907   1.793  0.6657  0.3010  0.1034
 3201TIP3    H1 9525   3.154   3.821   1.781  0.1389  0.4061  1.1071
 3201TIP3    H2 9526   3.175   3.955   1.713  2.0956 -0.9460 -1.0785
 3202TIP3   OH2 9527   0.900   3.456   1.345 -0.0397  0.3131  0.7187
 3202TIP3    H1 9528   0.883   3.376   1.295 -1.5870  0.3546  1.1129
 3202TIP3    H2 9529   0.956   3.508   1.288 -2.7342  0.9020 -1.6361
 3203TIP3   OH2 9530   0.740   0.642   1.362  0.4651 -0.3432  0.0567
 3203TIP3    H1 9531   0.705   0.658   1.450 -0.3078  1.7770 -0.5693
 3203TIP3    H2 9532   0.833   0.625   1.375  0.0494 -1.7488  1.4077
 3204TIP3   OH2 9533   8.057   4.735   1.447 -0.0891  0.1807 -0.0790
 3204TIP3    H1 9534   7.987   4.757   1.385 -1.4908  1.2139  1.7636
 3204TIP3    H2 9535   8.124   4.801   1.431 -0.6685  0.7606 -0.1768
 3205TIP3   OH2 9536   7.732   1.289   3.811  0.0201  0.0824 -0.5921
 3205TIP3    H1 9537   7.674   1.220   3.777  2.0443 -1.1480 -1.7757
 3205TIP3    H2 9538   7.727   1.279   3.906 -0.9192 -0.6616 -0.6983
 3206TIP3   OH2 9539   3.551   4.146   5.762  0.5247 -0.2269  0.3058
 3206TIP3    H1 9540   3.596   4.230   5.763 -0.2538  0.2282 -0.8122
 3206TIP3    H2 9541   3.611   4.086   5.718  1.1462 -0.3118  1.2455
 3207TIP3   OH2 9542   0.961   6.743   2.223 -0.0664 -0.0522 -0.2603
 3207TIP3    H1 9543   1.031   6.798   2.256  0.1257 -1.1025  1.1670
 3207TIP3    H2 9544   0.883   6.799   2.224  0.0156  0.0807  1.6383
 3208TIP3   OH2 9545   1.861   5.621   3.080 -0.0264 -0.4649 -0.0468
 3208TIP3    H1 9546   1.951   5.640   3.108 -0.3848 -0.4441  1.1222
 3208TIP3    H2 9547   1.838   5.541   3.126 -1.0744  0.2580  0.7117
 3209TIP3   OH2 9548   8.339   1.036   1.321 -0.0799 -0.4003 -0.2425
 3209TIP3    H1 9549   8.333   1.016   1.227 -0.1687  1.5749 -0.7093
 3209TIP3    H2 9550   8.431   1.059   1.335  0.6900 -3.6560  0.8929
 3210TIP3   OH2 9551   5.358   0.042   6.550 -0.5897  0.3420 -0.2840
 3210TIP3    H1 9552   5.429  -0.021   6.559 -0.6985  0.4049  1.2403
 3210TIP3    H2 9553   5.399   0.121   6.516  0.0611  0.3355  0.4626
 3211TIP3   OH2 9554   1.088   3.789   4.916 -0.3991 -0.4184  0.4668
 3211TIP3    H1 9555   1.014   3.824   4.866  0.6997 -0.4903 -1.3292
 3211TIP3    H2 9556   1.165   3.813   4.864  0.5845 -3.7081  0.1198
 3212TIP3   OH2 9557   3.285   8.021   4.596 -0.0324  0.3559 -0.3612
 3212TIP3    H1 9558   3.314   8.102   4.638 -0.1272 -0.1727  0.7482
 3212TIP3    H2 9559   3.232   7.977   4.662 -2.2375  0.6241 -1.8434
 3213TIP3   OH2 9560   4.642   7.639   3.862  0.0542 -0.0553 -0.0598
 3213TIP3    H1 9561   4.563   7.654   3.913 -0.8912  0.8186 -1.6779
 3213TIP3    H2 9562   4.696   7.716   3.877  0.0392 -0.0688  0.0639
 3214TIP3   OH2 9563   8.154   5.886   0.374 -0.1688 -0.4466  0.6661
 3214TIP3    H1 9564   8.182   5.976   0.392  2.0045 -0.6583 -1.2076
 3214TIP3    H2 9565   8.155   5.843   0.460 -0.5021  1.1156  1.4852
 3215TIP3   OH2 9566   6.403   3.580   6.633  0.3355  0.2629  0.1170
 3215TIP3    H1 9567   6.347   3.503   6.625 -2.1858  1.8186  1.3951
 3215TIP3    H2 9568   6.380   3.635   6.558  0.7380  0.5684  0.2121
 3216TIP3   OH2 9569   7.682   5.659   6.456 -0.1137  0.2532 -0.5601
 3216TIP3    H1 9570   7.593   5.692   6.467 -0.0649  0.8084 -1.7493
 3216TIP3    H2 9571   7.673   5.564   6.466 -0.6807  0.3835  0.2474
 3217TIP3   OH2 9572   6.585   7.412   1.385 -0.2769  0.1264  0.4385
 3217TIP3    H1 9573   6.517   7.365   1.338 -0.2878  1.2959 -0.7693
 3217TIP3    H2 9574   6.545   7.496   1.408  0.3921  0.3720  0.7340
 3218TIP3   OH2 9575   0.208   4.930   1.871 -0.0889  0.2703 -0.2237
 3218TIP3    H1 9576   0.215   5.022   1.847 -0.9245 -0.1855 -2.4429
 3218TIP3    H2 9577   0.266   4.885   1.810  2.2887 -0.5518  2.4043
 3219TIP3   OH2 9578   4.980   4.041   5.532 -0.7544 -0.1672  0.5749
 3219TIP3    H1 9579   4.967   4.048   5.626 -3.2029 -2.4778  0.5485
 3219TIP3    H2 9580   5.025   3.958   5.520  1.4131  1.0549 -0.2654
 3220TIP3   OH2 9581   6.045   6.299   0.422  0.2207  0.2500 -0.5893
 3220TIP3    H1 9582   6.011   6.214   0.394 -1.0006  1.1630 -1.9759
 3220TIP3    H2 9583   6.023   6.304   0.515 -1.6990 -0.0396 -0.9958
 3221TIP3   OH2 9584   3.409   2.428   6.453  0.1205 -0.0580  0.1466
 3221TIP3    H1 9585   3.493   2.423   6.498  0.0004  0.0949  0.3911
 3221TIP3    H2 9586   3.429   2.407   6.362  0.3735 -0.3091  0.2611
 3222TIP3   OH2 9587   2.327   0.369   4.191 -0.0084  0.1560 -0.4347
 3222TIP3    H1 9588   2.402   0.427   4.201 -0.2580  0.3138  0.6491
 3222TIP3    H2 9589   2.330   0.341   4.100  1.4294  0.0716 -0.3769
 3223TIP3   OH2 9590   1.770   7.080   6.018  0.2407  0.0840  0.5261
 3223TIP3    H1 9591   1.787   7.168   5.983 -0.2195  0.4349  1.1743
 3223TIP3    H2 9592   1.687   7.055   5.978  0.7129 -0.3508 -0.2031
 3224TIP3   OH2 9593   4.010   8.011   5.010 -0.0634  0.1659 -0.3042
 3224TIP3    H1 9594   4.075   7.943   4.991 -0.2297  0.0145 -0.3344
 3224TIP3    H2 9595   4.022   8.030   5.103  0.3353  0.4665 -0.4141
 3225TIP3   OH2 9596   1.604   0.705   5.415  0.1199 -0.3181 -0.1431
 3225TIP3    H1 9597   1.603   0.645   5.340 -0.9726 -1.1038  0.4794
 3225TIP3    H2 9598   1.615   0.791   5.375  0.1862 -0.7795 -1.1684
 3226TIP3   OH2 9599   4.000   2.039   1.414  0.4132  0.4548  0.5750
 3226TIP3    H1 9600   3.987   2.129   1.444  0.2792  0.9759 -0.9550
 3226TIP3    H2 9601   4.090   2.039   1.381  1.3545 -0.7088  2.9293
 3227TIP3   OH2 9602   6.447   2.745   0.166  0.3235  0.3288 -0.3579
 3227TIP3    H1 9603   6.489   2.662   0.143  0.3638 -0.4672  2.2551
 3227TIP3    H2 9604   6.363   2.720   0.205  0.4669  1.4718  0.7510
 3228TIP3   OH2 9605   5.318   8.142   0.080 -0.2696 -0.3043  0.5845
 3228TIP3    H1 9606   5.282   8.054   0.072 -0.6590 -0.2509  1.6425
 3228TIP3    H2 9607   5.277   8.178   0.159  1.3339  0.1217  1.2551
 3229TIP3   OH2 9608   7.816   7.435   0.326  0.2735 -0.0551  0.2480
 3229TIP3    H1 9609   7.810   7.351   0.371 -0.5299  0.6603  1.5273
 3229TIP3    H2 9610   7.897   7.475   0.358  0.9901 -0.5727 -0.8346
 3230TIP3   OH2 9611   7.656   7.071   3.100 -0.5868 -0.1367 -0.0391
 3230TIP3    H1 9612   7.605   6.994   3.125 -1.3037 -0.0393 -1.1305
 3230TIP3    H2 9613   7.594   7.127   3.053  0.5037 -0.0254 -1.4173
 3231TIP3   OH2 9614   5.474   6.415   5.122  0.1531 -0.7496  0.4903
 3231TIP3    H1 9615   5.449   6.323   5.133  1.0837 -0.8791  1.7253
 3231TIP3    H2 9616   5.555   6.412   5.071 -1.3202 -0.4183 -2.0295
 3232TIP3   OH2 9617   0.969   4.712   5.472  0.5459  0.0404 -0.1562
 3232TIP3    H1 9618   0.878   4.689   5.456  0.2432  1.6298 -0.8202
 3232TIP3    H2 9619   0.966   4.779   5.540  1.2474 -0.1693  0.0901
 3233TIP3   OH2 9620   4.052   8.144   4.668  0.0679  0.1080  0.0734
 3233TIP3    H1 9621   3.984   8.100   4.718 -0.6674 -0.6415 -1.5140
 3233TIP3    H2 9622   4.105   8.188   4.734 -0.0255 -1.9446  1.6448
 3234TIP3   OH2 9623   4.164   4.977   5.338 -0.1834  0.1005 -0.3930
 3234TIP3    H1 9624   4.235   5.033   5.307  0.5031 -0.7912 -0.4887
 3234TIP3    H2 9625   4.106   4.968   5.262  1.2442 -1.6835 -1.3488
 3235TIP3   OH2 9626   6.610   2.769   4.859 -0.0355  0.3168 -0.7371
 3235TIP3    H1 9627   6.525   2.773   4.903  1.0039 -0.2792  1.4676
 3235TIP3    H2 9628   6.629   2.675   4.852  0.0496  0.4165 -2.0527
 3236TIP3   OH2 9629   2.544   1.920   1.222  0.5753 -0.2478  0.0800
 3236TIP3    H1 9630   2.469   1.964   1.182 -0.5010 -0.7495  1.4818
 3236TIP3    H2 9631   2.517   1.901   1.312  1.0203 -3.6106 -0.3511
 3237TIP3   OH2 9632   6.809   6.562   3.219 -0.1020 -0.3678  0.3649
 3237TIP3    H1 9633   6.861   6.482   3.212  1.1123  0.3770  0.5186
 3237TIP3    H2 9634   6.857   6.616   3.282 -1.4921  0.0552  1.1068
 3238TIP3   OH2 9635   7.268   2.166   5.268  0.3846  0.9398  0.8904
 3238TIP3    H1 9636   7.282   2.155   5.362  2.0035  0.4422  0.6346
 3238TIP3    H2 9637   7.341   2.222   5.240  2.0800 -1.8225 -0.6071
 3239TIP3   OH2 9638   0.987   3.116   2.206 -0.0217  0.3106  0.2147
 3239TIP3    H1 9639   0.907   3.146   2.250 -0.3973  2.0567 -1.5159
 3239TIP3    H2 9640   1.039   3.196   2.194  0.3550 -0.2059 -1.8509
 3240TIP3   OH2 9641   5.335   3.302   3.032  0.0085 -0.0460  0.0519
 3240TIP3    H1 9642   5.404   3.267   2.976 -0.5305  0.2404 -0.8125
 3240TIP3    H2 9643   5.320   3.391   2.998 -0.9394 -0.1879  0.0628
 3241TIP3   OH2 9644   4.157   0.057   2.723 -0.0337 -0.3896  0.0592
 3241TIP3    H1 9645   4.078   0.005   2.739 -0.1630  0.0168  0.7856
 3241TIP3    H2 9646   4.223   0.020   2.782  0.8217 -1.7818 -1.6910
 3242TIP3   OH2 9647   4.530   4.534   4.200  0.4529  0.0348 -0.5399
 3242TIP3    H1 9648   4.558   4.452   4.240  1.6308  0.3547 -0.6769
 3242TIP3    H2 9649   4.534   4.599   4.270 -0.9352 -0.0940 -0.3091
 3243TIP3   OH2 9650   0.208   4.561   1.020  0.2187  0.2237 -0.1531
 3243TIP3    H1 9651   0.126   4.566   0.970 -0.1188  2.6532  0.5520
 3243TIP3    H2 9652   0.180   4.549   1.111  0.8016 -2.6407 -0.2549
 3244TIP3   OH2 9653   4.064   7.034   3.763  0.5376 -0.6763  0.0692
 3244TIP3    H1 9654   4.080   7.079   3.680 -0.1696  0.5021  0.5366
 3244TIP3    H2 9655   3.985   6.982   3.746  0.0198  0.0568  0.1647
 3245TIP3   OH2 9656   5.552   2.480   6.771 -0.2363 -0.6538 -0.4477
 3245TIP3    H1 9657   5.568   2.571   6.798 -2.7921 -0.0206 -0.7833
 3245TIP3    H2 9658   5.600   2.428   6.835  1.1981  0.9133 -0.1742
 3246TIP3   OH2 9659   7.886   0.857   2.808 -0.3489  0.5078 -0.3029
 3246TIP3    H1 9660   7.819   0.886   2.747 -0.5479 -0.9682 -0.8387
 3246TIP3    H2 9661   7.869   0.763   2.818  1.0869  0.2878  0.2519
 3247TIP3   OH2 9662   4.883   4.122   0.319 -0.4387  0.1580 -0.4414
 3247TIP3    H1 9663   4.953   4.187   0.315 -1.6250  1.4698 -0.7971
 3247TIP3    H2 9664   4.849   4.117   0.230 -1.0447 -0.1589 -0.2032
 3248TIP3   OH2 9665   2.165   6.131   2.261  0.5989  0.2877  0.3327
 3248TIP3    H1 9666   2.243   6.153   2.210  0.1203  0.5895 -0.2918
 3248TIP3    H2 9667   2.093   6.138   2.198 -0.2753  2.5665  1.4424
 3249TIP3   OH2 9668   1.754   5.918   5.309  0.6157 -0.3253 -0.3399
 3249TIP3    H1 9669   1.800   6.000   5.292  0.2937 -0.0973 -0.1234
 3249TIP3    H2 9670   1.752   5.873   5.224 -0.2136  0.4094 -0.7261
 3250TIP3   OH2 9671   1.067   6.168   1.193  0.1258  0.0940  0.3442
 3250TIP3    H1 9672   1.127   6.210   1.255  0.7295 -0.4370  0.1329
 3250TIP3    H2 9673   0.996   6.134   1.247  0.6753 -0.4202  0.7665
 3251TIP3   OH2 9674   8.576   6.406   5.073 -0.1579 -0.8283 -0.1258
 3251TIP3    H1 9675   8.481   6.404   5.080 -0.1138 -1.5735  0.4097
 3251TIP3    H2 9676   8.596   6.494   5.041 -0.9363 -0.0243  1.4446
 3252TIP3   OH2 9677   3.286   0.141   0.401  0.1531  0.2639 -0.0976
 3252TIP3    H1 9678   3.334   0.145   0.484  0.1731 -2.2876  0.0899
 3252TIP3    H2 9679   3.325   0.211   0.348  2.2507 -0.0005  0.9781
 3253TIP3   OH2 9680   5.481   1.668   5.072  0.7055  0.2861  0.9595
 3253TIP3    H1 9681   5.452   1.758   5.064  0.1443  0.0274 -0.0891
 3253TIP3    H2 9682   5.505   1.642   4.984 -2.5817 -1.6821  0.4551
 3254TIP3   OH2 9683   2.181   7.291   3.691 -0.6747 -0.2592 -0.3891
 3254TIP3    H1 9684   2.258   7.331   3.650 -0.4188 -1.1119 -0.7737
 3254TIP3    H2 9685   2.183   7.321   3.782  0.6875 -1.0344 -0.1316
 3255TIP3   OH2 9686   8.507   6.724   0.211 -0.4880  0.4952  0.0353
 3255TIP3    H1 9687   8.455   6.798   0.242 -0.7604  0.3644 -0.1097
 3255TIP3    H2 9688   8.498   6.727   0.116  1.6683  1.8916 -0.2091
 3256TIP3   OH2 9689   2.941   0.379   0.675  0.4825  0.3497  0.4080
 3256TIP3    H1 9690   2.858   0.360   0.631 -0.1803  1.7714  0.9984
 3256TIP3    H2 9691   2.916   0.420   0.758  1.7679  0.3810  0.8009
 3257TIP3   OH2 9692   7.030   1.104   1.259 -0.0906  0.0396 -0.1922
 3257TIP3    H1 9693   7.054   1.052   1.336 -0.6965 -0.3742 -0.2681
 3257TIP3    H2 9694   7.063   1.191   1.277 -1.0784  0.1996  0.9888
 3258TIP3   OH2 9695   7.126   2.962   0.785 -0.3778 -0.1937 -0.1866
 3258TIP3    H1 9696   7.058   2.973   0.719  0.5103 -0.2413 -1.1425
 3258TIP3    H2 9697   7.181   3.041   0.777  0.0158 -0.4261  0.1534
 3259TIP3   OH2 9698   6.672   8.035   6.374 -0.2408 -0.3603 -0.5404
 3259TIP3    H1 9699   6.738   8.086   6.421 -0.2892  2.3968 -3.1466
 3259TIP3    H2 9700   6.611   8.007   6.442  0.0856  2.7153  1.2039
 3260TIP3   OH2 9701   6.984   5.119   2.066 -0.1632 -0.0138 -0.1688
 3260TIP3    H1 9702   7.034   5.188   2.023  0.6113 -0.3634  0.1385
 3260TIP3    H2 9703   6.894   5.131   2.036  0.3229 -0.1580 -1.7644
 3261TIP3   OH2 9704   6.921   2.266   6.929  0.0604 -0.5787 -0.3485
 3261TIP3    H1 9705   6.981   2.302   6.995  1.6116 -0.0016 -1.9972
 3261TIP3    H2 9706   6.834   2.291   6.960  0.6944 -0.6872  1.6801
 3262TIP3   OH2 9707   3.916   4.303   1.850 -0.2496  0.3115  0.0177
 3262TIP3    H1 9708   3.844   4.346   1.804 -0.1175  0.1808 -0.3186
 3262TIP3    H2 9709   3.879   4.220   1.882 -0.7090  0.9839  1.3032
 3263TIP3   OH2 9710   4.505   1.967   2.817 -0.2221  0.3782 -0.0571
 3263TIP3    H1 9711   4.532   1.887   2.771 -1.5014 -2.2228  3.2899
 3263TIP3    H2 9712   4.410   1.957   2.827 -0.3867  2.2628  0.6458
 3264TIP3   OH2 9713   0.435   7.088   6.061 -0.1039 -0.2605  0.1530
 3264TIP3    H1 9714   0.490   7.136   6.123  0.0442  0.0928 -0.2471
 3264TIP3    H2 9715   0.468   6.998   6.066  0.6187 -0.0256 -0.1884
 3265TIP3   OH2 9716   1.545   4.670   3.103  0.5449 -0.4785 -0.0393
 3265TIP3    H1 9717   1.559   4.593   3.157  0.9695 -0.3401  0.0528
 3265TIP3    H2 9718   1.539   4.743   3.165  0.1305 -0.4355 -0.1236
 3266TIP3   OH2 9719   6.515   4.787   1.718  0.4087 -0.0445  0.1228
 3266TIP3    H1 9720   6.455   4.806   1.645 -0.5193  1.2154  1.1527
 3266TIP3    H2 9721   6.486   4.703   1.752  0.0967 -0.0829 -0.2336
 3267TIP3   OH2 9722   6.021   2.105   0.983  0.1254  0.6867 -0.2109
 3267TIP3    H1 9723   6.104   2.102   0.935  0.5754  1.3678  0.4952
 3267TIP3    H2 9724   5.966   2.040   0.940  0.7306  0.8306 -1.2287
 3268TIP3   OH2 9725   3.860   1.059   3.764 -0.3997  0.0514  0.2838
 3268TIP3    H1 9726   3.889   1.119   3.695 -1.5160  0.6051  0.2819
 3268TIP3    H2 9727   3.936   1.001   3.778  0.0057  0.1922 -1.1036
 3269TIP3   OH2 9728   6.574   5.902   5.071  0.5114  0.1381 -0.3058
 3269TIP3    H1 9729   6.598   5.827   5.017 -0.8389 -0.3159 -0.3337
 3269TIP3    H2 9730   6.623   5.975   5.035  3.3123 -1.0324  0.8817
 3270TIP3   OH2 9731   7.634   0.278   3.889  0.4184  0.1308  0.0588
 3270TIP3    H1 9732   7.613   0.368   3.916 -0.2319  0.0928 -0.3085
 3270TIP3    H2 9733   7.679   0.288   3.805 -1.0699  0.0379 -0.7740
 3271TIP3   OH2 9734   7.753   3.907   3.102 -0.8855  0.1977 -0.1555
 3271TIP3    H1 9735   7.696   3.836   3.130 -2.0296  0.6698 -1.2040
 3271TIP3    H2 9736   7.701   3.957   3.040 -0.1841  2.0432  0.6475
 3272TIP3   OH2 9737   8.371   2.059   1.087  0.5157 -0.5994  0.1715
 3272TIP3    H1 9738   8.397   2.075   0.996 -1.1870 -0.6344 -0.3469
 3272TIP3    H2 9739   8.363   2.146   1.126 -0.6410 -0.4914 -0.2792
 3273TIP3   OH2 9740   7.762   5.545   1.517 -0.2020 -0.1584  0.0237
 3273TIP3    H1 9741   7.794   5.458   1.541 -1.5656 -0.9752 -0.9381
 3273TIP3    H2 9742   7.784   5.554   1.424  1.9247  1.4983  0.6191
 3274TIP3   OH2 9743   5.108   3.540   4.148  0.0176  0.5415 -0.2784
 3274TIP3    H1 9744   5.143   3.483   4.216  2.3086 -0.1433 -1.9113
 3274TIP3    H2 9745   5.021   3.565   4.180  1.0210  0.3943  2.9241
 3275TIP3   OH2 9746   8.238   5.550   0.883 -0.0559 -0.1607 -0.4223
 3275TIP3    H1 9747   8.312   5.532   0.941 -1.0164  0.2524  0.9810
 3275TIP3    H2 9748   8.240   5.645   0.872 -0.4477 -0.1348 -0.2703
 3276TIP3   OH2 9749   1.275   2.042   5.715 -0.3321  0.1483 -0.0692
 3276TIP3    H1 9750   1.218   2.036   5.791 -1.2804  0.2443 -0.7424
 3276TIP3    H2 9751   1.252   1.965   5.662 -1.3456  1.2426 -1.3176
 3277TIP3   OH2 9752   1.443   6.593   5.473 -0.1923  0.0550  0.0031
 3277TIP3    H1 9753   1.436   6.530   5.402  0.3203  0.8780 -0.8036
 3277TIP3    H2 9754   1.509   6.556   5.532  1.5750  0.7023 -1.4522
 3278TIP3   OH2 9755   2.724   0.477   1.713  0.1043 -0.5789  0.3914
 3278TIP3    H1 9756   2.700   0.569   1.705  1.0825 -0.3894 -0.4768
 3278TIP3    H2 9757   2.819   0.477   1.720  0.1631 -1.5582 -0.2018
 3279TIP3   OH2 9758   6.252   6.294   6.670  0.4044 -0.9432  0.4259
 3279TIP3    H1 9759   6.254   6.286   6.574 -0.5821 -0.5731  0.3713
 3279TIP3    H2 9760   6.343   6.314   6.693  0.2773  1.1764 -0.6481
 3280TIP3   OH2 9761   5.791   0.326   0.097  0.0029  0.3970  0.5447
 3280TIP3    H1 9762   5.765   0.412   0.065 -0.5469  0.5281  1.3112
 3280TIP3    H2 9763   5.710   0.276   0.099  0.1784  0.1252  0.8943
 3281TIP3   OH2 9764   0.725   3.793   1.821  0.2181  0.3383  0.3325
 3281TIP3    H1 9765   0.677   3.763   1.898  0.3574 -0.1145  0.2435
 3281TIP3    H2 9766   0.674   3.762   1.747  1.0596 -0.8775  0.2234
 3282TIP3   OH2 9767   1.908   7.419   4.299 -0.1273 -0.1812  0.5688
 3282TIP3    H1 9768   1.927   7.344   4.243  0.4193  0.2978  0.0999
 3282TIP3    H2 9769   1.846   7.385   4.364  0.3942 -1.1352  0.5984
 3283TIP3   OH2 9770   1.047   0.138   3.799  0.1308 -0.4604  0.3051
 3283TIP3    H1 9771   1.084   0.226   3.809  0.6675 -0.9184  3.3299
 3283TIP3    H2 9772   0.954   0.153   3.781 -0.2400  0.8604  2.7472
 3284TIP3   OH2 9773   3.551   6.810   3.683 -0.7432  0.1747 -0.0805
 3284TIP3    H1 9774   3.569   6.746   3.613  1.3923  0.5094  0.0789
 3284TIP3    H2 9775   3.511   6.758   3.753 -1.4985 -0.4588 -0.9600
 3285TIP3   OH2 9776   3.561   8.107   6.563 -0.7050 -0.0815  0.3633
 3285TIP3    H1 9777   3.544   8.012   6.567 -1.6560  0.1066  1.0141
 3285TIP3    H2 9778   3.490   8.141   6.509 -1.5766  0.5182  1.8375
 3286TIP3   OH2 9779   3.087   5.279   4.892  0.1341  0.1846 -0.0391
 3286TIP3    H1 9780   3.049   5.192   4.902  0.5440 -0.0455 -0.4279
 3286TIP3    H2 9781   3.155   5.267   4.826 -0.2802  0.9539 -0.6063
 3287TIP3   OH2 9782   5.407   4.183   3.368 -0.2464  0.2492 -0.3243
 3287TIP3    H1 9783   5.397   4.250   3.435  0.5211  1.2285 -1.1587
 3287TIP3    H2 9784   5.492   4.201   3.329 -0.6527 -0.3391 -1.5199
 3288TIP3   OH2 9785   4.303   3.962   2.648 -0.2565 -0.2382  0.0995
 3288TIP3    H1 9786   4.392   3.977   2.615 -0.1457 -1.1841 -0.0789
 3288TIP3    H2 9787   4.252   4.034   2.613  0.5498  0.6327  0.6723
 3289TIP3   OH2 9788   2.689   5.945   4.289  0.4952 -0.6346  0.2830
 3289TIP3    H1 9789   2.611   5.979   4.244  1.0538 -0.0034 -0.2231
 3289TIP3    H2 9790   2.762   5.972   4.234  1.0863 -1.1685  0.7904
 3290TIP3   OH2 9791   1.996   7.517   1.337  0.1869 -0.0913  0.7993
 3290TIP3    H1 9792   1.944   7.597   1.331  0.1623 -0.2254 -1.5902
 3290TIP3    H2 9793   2.087   7.547   1.339  0.1463  0.0181  1.6859
 3291TIP3   OH2 9794   1.025   5.683   4.885  0.3294 -0.6466  0.3214
 3291TIP3    H1 9795   0.957   5.626   4.919  1.3823 -2.4780 -0.4819
 3291TIP3    H2 9796   1.102   5.627   4.876  0.7813  0.2339 -2.8087
 3292TIP3   OH2 9797   1.122   2.323   3.658  0.1007 -0.0723 -0.3471
 3292TIP3    H1 9798   1.155   2.276   3.734  0.0210  0.4240 -0.0008
 3292TIP3    H2 9799   1.086   2.255   3.601 -0.1047 -0.4201  0.1935
 3293TIP3   OH2 9800   0.865   4.531   0.638 -0.3512  0.5557 -0.2037
 3293TIP3    H1 9801   0.954   4.564   0.621  0.7817 -1.7033  0.8784
 3293TIP3    H2 9802   0.838   4.576   0.718  0.2783  0.4759  0.0626
 3294TIP3   OH2 9803   3.426   1.239   4.444  0.5269 -0.0164  0.7382
 3294TIP3    H1 9804   3.444   1.160   4.394  0.4024 -1.2310  2.5239
 3294TIP3    H2 9805   3.512   1.265   4.478  0.6462  0.9229 -0.2237
 3295TIP3   OH2 9806   7.725   3.686   2.040  0.2963  0.7384 -1.0196
 3295TIP3    H1 9807   7.769   3.765   2.007 -0.7823  2.1807  0.7745
 3295TIP3    H2 9808   7.640   3.718   2.072 -0.4048 -1.2644 -0.7676
 3296TIP3   OH2 9809   6.261   3.873   4.566 -0.1467 -0.1340  0.2991
 3296TIP3    H1 9810   6.286   3.821   4.642 -0.1838  0.0594  0.4446
 3296TIP3    H2 9811   6.277   3.815   4.491  2.7781  0.6625  0.1855
 3297TIP3   OH2 9812   4.584   4.621   6.578 -0.1747 -0.1037  0.4236
 3297TIP3    H1 9813   4.584   4.666   6.663 -0.2143 -0.6783  0.7345
 3297TIP3    H2 9814   4.497   4.639   6.541 -0.0322  0.4352  0.3472
 3298TIP3   OH2 9815   6.752   8.067   5.198  0.5272 -0.4493  0.1566
 3298TIP3    H1 9816   6.834   8.039   5.240  2.0921  0.5209 -2.0591
 3298TIP3    H2 9817   6.728   7.993   5.142 -0.0394 -0.6498  0.6517
 3299TIP3   OH2 9818   8.082   5.503   6.409 -0.8982  0.3450 -0.1953
 3299TIP3    H1 9819   8.072   5.596   6.430 -0.9918  0.1386  0.7159
 3299TIP3    H2 9820   8.005   5.462   6.448 -0.4948 -0.2058  0.0261
 3300TIP3   OH2 9821   2.022   1.185   6.991 -0.0591 -0.4323 -0.0819
 3300TIP3    H1 9822   2.116   1.179   7.006 -0.0883  0.0525  0.3144
 3300TIP3    H2 9823   2.014   1.196   6.896  0.2839 -0.4470 -0.1144
 3301TIP3   OH2 9824   1.734   3.177   2.840 -0.4441  0.0407  0.4403
 3301TIP3    H1 9825   1.697   3.090   2.824 -0.2110  0.1898 -1.0590
 3301TIP3    H2 9826   1.798   3.163   2.910 -1.5505 -0.6710  1.3456
 3302TIP3   OH2 9827   2.193   4.194   4.191 -0.0237 -0.4426 -0.2389
 3302TIP3    H1 9828   2.104   4.226   4.205  0.5333  0.7725  0.6921
 3302TIP3    H2 9829   2.186   4.099   4.200 -0.7926 -0.2191  2.4606
 3303TIP3   OH2 9830   5.996   2.591   3.191 -0.0625  0.4303  0.2042
 3303TIP3    H1 9831   5.947   2.510   3.178  0.4864  0.1615 -0.2384
 3303TIP3    H2 9832   6.004   2.600   3.286  0.0129 -0.1200  0.2495
 3304TIP3   OH2 9833   4.608   0.931   1.026 -0.3050 -0.2937 -0.1006
 3304TIP3    H1 9834   4.609   0.949   0.932 -0.4486 -1.0810 -0.2626
 3304TIP3    H2 9835   4.606   0.835   1.032  0.1517 -0.2622  0.7089
 3305TIP3   OH2 9836   8.007   5.255   3.585 -0.5482 -0.1197  0.8266
 3305TIP3    H1 9837   7.959   5.335   3.605 -0.0299 -0.1357  2.2385
 3305TIP3    H2 9838   8.035   5.266   3.494 -2.6999  0.1315  0.1482
 3306TIP3   OH2 9839   5.280   8.090   1.615  0.0837 -0.1176  0.7488
 3306TIP3    H1 9840   5.366   8.131   1.610  0.2876 -0.5298  0.7757
 3306TIP3    H2 9841   5.299   7.996   1.623 -0.3958 -0.4315 -1.3673
 3307TIP3   OH2 9842   6.836   3.369   3.919 -0.1761 -0.6421  0.0182
 3307TIP3    H1 9843   6.878   3.452   3.894 -0.6272 -0.2241  0.6197
 3307TIP3    H2 9844   6.792   3.388   4.002 -0.4540 -1.4327  0.0621
 3308TIP3   OH2 9845   0.433   6.603   4.156  0.1567 -0.2296 -0.0321
 3308TIP3    H1 9846   0.504   6.604   4.221  0.3268 -1.3710 -0.1764
 3308TIP3    H2 9847   0.366   6.547   4.195 -0.9719  1.3478  0.3892
 3309TIP3   OH2 9848   8.100   7.730   5.459  0.3065 -0.2940  0.2656
 3309TIP3    H1 9849   8.114   7.684   5.377 -1.0535  0.5617 -0.4848
 3309TIP3    H2 9850   8.034   7.679   5.505 -1.0600  0.7349 -0.4822
 3310TIP3   OH2 9851   4.078   1.868   3.048  0.4180  0.2259  0.2833
 3310TIP3    H1 9852   4.135   1.914   3.110  0.3744  0.4934  0.1271
 3310TIP3    H2 9853   3.995   1.916   3.051  0.7482  0.9133 -0.7770
 3311TIP3   OH2 9854   6.165   2.472   4.709 -0.4728  0.0879  0.0063
 3311TIP3    H1 9855   6.248   2.490   4.754 -0.2372 -0.0271 -0.3828
 3311TIP3    H2 9856   6.163   2.377   4.702  1.0480  0.1708 -3.1045
 3312TIP3   OH2 9857   0.365   7.857   5.470  0.0915  0.2773 -0.2801
 3312TIP3    H1 9858   0.315   7.902   5.402 -0.4516  0.0519 -0.0400
 3312TIP3    H2 9859   0.457   7.873   5.448 -0.0761  2.4047  0.3622
 3313TIP3   OH2 9860   4.799   7.769   3.618  0.1640 -0.0457 -0.2272
 3313TIP3    H1 9861   4.811   7.749   3.711  2.5081  2.6612  0.1919
 3313TIP3    H2 9862   4.824   7.689   3.572  0.9537 -0.7797  1.4136
 3314TIP3   OH2 9863   3.702   6.260   4.553 -0.0670 -0.1736  0.3646
 3314TIP3    H1 9864   3.633   6.274   4.488  0.1546  2.9773  0.6630
 3314TIP3    H2 9865   3.780   6.238   4.502 -0.4145 -0.0024 -0.2453
 3315TIP3   OH2 9866   4.811   7.922   0.169  0.5185 -0.0706 -0.1832
 3315TIP3    H1 9867   4.773   7.884   0.249 -0.4453 -0.1042 -0.6378
 3315TIP3    H2 9868   4.735   7.955   0.121  1.2797  2.1461  0.0277
 3316TIP3   OH2 9869   2.963   1.750   0.831 -0.1578  0.1522 -0.0991
 3316TIP3    H1 9870   2.955   1.771   0.924 -1.8862 -1.0353  0.0822
 3316TIP3    H2 9871   2.997   1.661   0.829 -2.8394 -0.9814 -0.4149
 3317TIP3   OH2 9872   6.173   2.104   5.771 -0.6436 -0.3054 -0.1103
 3317TIP3    H1 9873   6.226   2.033   5.735 -1.3569 -0.9904  0.1469
 3317TIP3    H2 9874   6.200   2.182   5.722  2.5578 -0.0163  1.8677
 3318TIP3   OH2 9875   2.085   7.498   1.023  0.0314 -0.7382 -0.2563
 3318TIP3    H1 9876   2.033   7.504   1.103  0.9856  0.5724  0.3008
 3318TIP3    H2 9877   2.109   7.405   1.018  1.0297 -0.6519  1.7038
 3319TIP3   OH2 9878   1.120   3.388   2.259  0.5515  0.6899 -0.0551
 3319TIP3    H1 9879   1.208   3.390   2.221  0.9169  0.2278  0.7384
 3319TIP3    H2 9880   1.135   3.400   2.353 -0.3355  1.8554 -0.0542
 3320TIP3   OH2 9881   8.484   1.067   7.054  0.4567  0.3400  0.3305
 3320TIP3    H1 9882   8.513   1.020   7.132  1.0345 -1.0432 -0.6782
 3320TIP3    H2 9883   8.552   1.133   7.039  1.8884 -1.2441 -0.5785
 3321TIP3   OH2 9884   7.617   4.028   1.072  0.0051  0.0156 -0.3530
 3321TIP3    H1 9885   7.666   3.960   1.118  0.4156  1.2915  1.1599
 3321TIP3    H2 9886   7.628   4.006   0.979 -0.7669 -2.5689  0.0853
 3322TIP3   OH2 9887   5.698   0.490   4.749 -0.3052 -0.1397  0.5067
 3322TIP3    H1 9888   5.738   0.414   4.706 -0.4127 -0.0424  0.2327
 3322TIP3    H2 9889   5.734   0.489   4.837 -0.0134 -0.2912  0.3873
 3323TIP3   OH2 9890   7.387   6.467   1.928  0.2987  0.1953 -0.1258
 3323TIP3    H1 9891   7.432   6.544   1.894  0.6208  0.1081  0.0905
 3323TIP3    H2 9892   7.377   6.485   2.022  1.6756 -0.6423  0.2050
 3324TIP3   OH2 9893   2.013   6.954   4.825 -0.1180  0.3746 -0.4857
 3324TIP3    H1 9894   1.993   6.861   4.819  0.5469  0.2869 -1.6599
 3324TIP3    H2 9895   2.093   6.965   4.774  1.3899  1.1507  1.8532
 3325TIP3   OH2 9896   2.247   2.774   3.195 -0.0147  0.0186  0.4140
 3325TIP3    H1 9897   2.234   2.685   3.228 -2.0253 -0.0746 -0.4726
 3325TIP3    H2 9898   2.256   2.828   3.273  0.5195 -0.8793  0.9763
 3326TIP3   OH2 9899   3.755   2.767   3.987 -0.2843 -0.0348  0.5464
 3326TIP3    H1 9900   3.718   2.728   4.066 -2.1245 -2.1640 -1.2259
 3326TIP3    H2 9901   3.705   2.848   3.974 -0.8351 -0.3147  0.8921
 3327TIP3   OH2 9902   6.290   1.093   3.210 -0.1721 -0.7939  0.2522
 3327TIP3    H1 9903   6.376   1.054   3.222 -0.2776 -0.2769  4.4084
 3327TIP3    H2 9904   6.292   1.131   3.122  3.6688 -1.1247  0.0354
 3328TIP3   OH2 9905   2.677   3.381   1.845  0.3628  0.0053 -0.0337
 3328TIP3    H1 9906   2.660   3.287   1.846  0.2380 -0.0411 -2.0121
 3328TIP3    H2 9907   2.767   3.389   1.875  0.5200 -0.7817 -0.2677
 3329TIP3   OH2 9908   0.102   3.135   3.119 -0.4936 -0.4776 -0.1030
 3329TIP3    H1 9909   0.104   3.124   3.214 -1.4660 -1.3222 -0.1613
 3329TIP3    H2 9910   0.194   3.131   3.092 -0.0607  1.3679  0.9444
 3330TIP3   OH2 9911   8.087   0.543   1.638 -0.3004 -0.6789 -0.1142
 3330TIP3    H1 9912   8.160   0.569   1.694 -1.1859  0.4461  0.5677
 3330TIP3    H2 9913   8.123   0.476   1.580  1.8287  1.3693 -1.2689
 3331TIP3   OH2 9914   4.087   3.173   2.274 -0.1759 -0.2664  0.1927
 3331TIP3    H1 9915   4.022   3.117   2.318 -2.8341  2.7709  0.5276
 3331TIP3    H2 9916   4.145   3.202   2.344 -0.3161 -0.6340  0.4667
 3332TIP3   OH2 9917   2.934   4.054   4.986  1.0940  0.0104  0.0616
 3332TIP3    H1 9918   2.948   3.990   5.056 -0.1656 -0.5273 -0.1562
 3332TIP3    H2 9919   2.952   4.139   5.028 -0.3928 -0.2388  1.2763
 3333TIP3   OH2 9920   8.333   3.631   3.802 -0.2166 -0.0164 -0.1889
 3333TIP3    H1 9921   8.410   3.580   3.776  0.1166 -0.4322  1.4629
 3333TIP3    H2 9922   8.276   3.631   3.725  1.9442  1.3696 -1.9163
 3334TIP3   OH2 9923   0.673   2.241   2.141  0.1186  0.0826 -0.8862
 3334TIP3    H1 9924   0.714   2.236   2.055  0.2264 -0.8028 -0.7920
 3334TIP3    H2 9925   0.736   2.286   2.196  0.3977 -0.0848 -1.0695
 3335TIP3   OH2 9926   2.839   5.815   5.694 -0.3834  0.8126 -0.0025
 3335TIP3    H1 9927   2.912   5.803   5.755 -0.6304 -0.2974  0.0913
 3335TIP3    H2 9928   2.821   5.727   5.661  0.0245  1.4313 -2.0197
 3336TIP3   OH2 9929   5.322   2.996   0.076 -0.0886  0.4807  0.6579
 3336TIP3    H1 9930   5.343   2.905   0.056 -2.1617 -0.0844  0.8535
 3336TIP3    H2 9931   5.406   3.042   0.068  0.5210 -0.8753 -2.5617
 3337TIP3   OH2 9932   0.156   3.474   1.841 -0.1237  0.0883  0.3776
 3337TIP3    H1 9933   0.127   3.519   1.761  0.9689  0.7872  0.3536
 3337TIP3    H2 9934   0.214   3.537   1.884  1.2577 -1.1954  0.4613
 3338TIP3   OH2 9935   8.186   1.411   3.786  0.2644  0.2509  0.0776
 3338TIP3    H1 9936   8.156   1.327   3.751  0.9052  0.0279  0.0471
 3338TIP3    H2 9937   8.220   1.390   3.873 -0.4717  0.6486  0.4638
 3339TIP3   OH2 9938   3.347   6.611   0.222  0.0327 -0.0415 -0.4209
 3339TIP3    H1 9939   3.368   6.572   0.136  0.9706  0.7905 -0.5892
 3339TIP3    H2 9940   3.341   6.705   0.205 -1.4375 -0.0130  0.1278
 3340TIP3   OH2 9941   0.287   2.433   4.633 -0.2687  0.0377  0.0674
 3340TIP3    H1 9942   0.233   2.478   4.568  0.1702 -0.5091 -0.6908
 3340TIP3    H2 9943   0.321   2.503   4.689 -0.2622  0.5622 -0.5850
 3341TIP3   OH2 9944   1.271   0.726   5.775  0.6402  0.1520  0.0768
 3341TIP3    H1 9945   1.215   0.671   5.720  0.6450  0.7081 -0.4859
 3341TIP3    H2 9946   1.360   0.704   5.748  0.6756 -0.2798  0.5392
 3342TIP3   OH2 9947   2.129   1.008   4.407  0.3606  0.5280  0.3011
 3342TIP3    H1 9948   2.199   1.049   4.356 -0.2311  0.0746 -0.9271
 3342TIP3    H2 9949   2.092   1.079   4.459  0.1855  1.2864 -0.8231
 3343TIP3   OH2 9950   7.955   3.098   2.747  0.0082 -0.9072 -0.3233
 3343TIP3    H1 9951   8.019   3.160   2.779 -2.1163  0.0030  2.5530
 3343TIP3    H2 9952   7.930   3.132   2.661  1.6475 -0.0113 -0.4850
 3344TIP3   OH2 9953   6.873   2.608   4.994 -0.1368  0.1581 -0.3782
 3344TIP3    H1 9954   6.946   2.659   5.030  0.1282  0.0810 -0.8025
 3344TIP3    H2 9955   6.899   2.589   4.904  0.5881 -2.2256  0.2533
 3345TIP3   OH2 9956   4.183   0.357   2.402 -0.1482  0.1771  0.3682
 3345TIP3    H1 9957   4.158   0.285   2.459  0.6740 -1.6213 -1.4173
 3345TIP3    H2 9958   4.145   0.334   2.317  1.0457  1.2981 -0.5135
 3346TIP3   OH2 9959   4.763   6.664   1.719 -0.3681  0.3576  0.5520
 3346TIP3    H1 9960   4.749   6.583   1.670 -0.8785 -0.1661  1.5266
 3346TIP3    H2 9961   4.828   6.712   1.668 -2.4980  0.8981 -1.8515
 3347TIP3   OH2 9962   1.462   0.737   1.282  0.2534  0.1486 -0.3770
 3347TIP3    H1 9963   1.544   0.783   1.263  0.6179 -0.4233 -0.2391
 3347TIP3    H2 9964   1.407   0.753   1.206  0.7712 -0.0598 -0.8073
 3348TIP3   OH2 9965   0.424   2.388   2.114 -0.0462  0.1326 -0.0019
 3348TIP3    H1 9966   0.436   2.480   2.092  0.1605  0.0140 -0.4015
 3348TIP3    H2 9967   0.506   2.363   2.156 -0.0624  0.1028  0.0118
 3349TIP3   OH2 9968   1.999   0.751   2.919 -0.4438  0.3319  0.2052
 3349TIP3    H1 9969   2.078   0.733   2.969 -0.1375  0.4332 -0.2349
 3349TIP3    H2 9970   2.021   0.828   2.867 -1.4300  1.4527  1.3917
 3350TIP3   OH2 9971   4.833   7.922   5.128  0.1616 -0.2563  0.0868
 3350TIP3    H1 9972   4.785   7.839   5.128  0.3140 -0.3476  0.5369
 3350TIP3    H2 9973   4.768   7.987   5.154 -0.5396  0.1313 -2.3631
 3351TIP3   OH2 9974   3.819   6.839   4.629 -0.0590 -0.0779  0.0440
 3351TIP3    H1 9975   3.813   6.857   4.535 -1.3741  0.1605  0.1482
 3351TIP3    H2 9976   3.847   6.921   4.668  1.0560 -0.3408 -0.1920
 3352TIP3   OH2 9977   8.715   3.717   4.781 -0.3723  0.1519 -0.3480
 3352TIP3    H1 9978   8.652   3.645   4.785 -1.0843  0.8212  1.8989
 3352TIP3    H2 9979   8.708   3.749   4.691 -2.3339 -0.5910 -0.5214
 3353TIP3   OH2 9980   0.639   4.480   2.220 -0.1409 -0.0650  0.2504
 3353TIP3    H1 9981   0.558   4.431   2.233  0.0603 -1.2937 -2.5667
 3353TIP3    H2 9982   0.653   4.480   2.125  1.6910  2.5637  0.3945
 3354TIP3   OH2 9983   3.404   6.043   4.289 -0.2354  0.3764 -0.1546
 3354TIP3    H1 9984   3.420   5.982   4.217 -2.9896  1.7538 -2.0821
 3354TIP3    H2 9985   3.392   5.986   4.366 -0.5967 -1.3711 -1.4548
 3355TIP3   OH2 9986   2.066   1.948   2.804 -0.3922  0.0590 -0.1590
 3355TIP3    H1 9987   2.156   1.923   2.825 -0.7221  0.0019  1.3131
 3355TIP3    H2 9988   2.045   1.901   2.723  0.1019 -1.8561  0.7672
 3356TIP3   OH2 9989   1.171   4.880   2.060 -0.0346 -0.2039 -0.2465
 3356TIP3    H1 9990   1.176   4.944   1.989  0.3608 -0.4924 -0.4826
 3356TIP3    H2 9991   1.239   4.816   2.039  1.3371  0.6619  1.3438
 3357TIP3   OH2 9992   5.681   6.077   3.157  0.4392 -0.1239  0.0968
 3357TIP3    H1 9993   5.664   6.170   3.167 -1.2531 -0.3543 -0.3011
 3357TIP3    H2 9994   5.703   6.066   3.065  2.8373  0.1435  0.5694
 3358TIP3   OH2 9995   6.392   4.794   2.976 -0.2450 -0.2454  0.6306
 3358TIP3    H1 9996   6.338   4.871   2.958 -1.4722 -1.3282 -0.4181
 3358TIP3    H2 9997   6.343   4.721   2.940  1.3940 -1.4156  0.6984
 3359TIP3   OH2 9998   1.947   2.242   1.153  0.4566 -0.2410 -0.4902
 3359TIP3    H1 9999   2.012   2.312   1.139  0.0015 -0.0274 -1.7044
 3359TIP3    H210000   1.863   2.287   1.153  0.2937 -0.5047  1.2083
 3360TIP3   OH210001   6.978   7.509   2.408  0.0704 -0.1336  0.0602
 3360TIP3    H110002   7.029   7.556   2.343 -0.0837 -0.5702 -0.3817
 3360TIP3    H210003   6.888   7.536   2.393  0.1151  0.3253  0.5751
 3361TIP3   OH210004   3.946   3.711   4.560  0.6850  0.2193 -0.2870
 3361TIP3    H110005   4.031   3.679   4.532  1.6104  1.3622  1.0983
 3361TIP3    H210006   3.929   3.787   4.504 -0.6242 -1.4202 -2.2544
 3362TIP3   OH210007   1.621   2.631   1.471  0.0458 -0.8892 -0.6930
 3362TIP3    H110008   1.527   2.631   1.451 -0.4165  1.7887  1.0181
 3362TIP3    H210009   1.655   2.709   1.426  1.8244 -2.5728 -2.4747
 3363TIP3   OH210010   5.625   1.973   0.362 -0.0653  0.0779  0.5512
 3363TIP3    H110011   5.692   2.010   0.419  0.4809 -1.4230  0.9373
 3363TIP3    H210012   5.649   1.880   0.354 -2.1428 -0.5270  0.7868
 3364TIP3   OH210013   0.039   3.616   6.466  0.5468  0.3234 -0.8828
 3364TIP3    H110014   0.090   3.693   6.491 -1.1105  1.1894  0.0021
 3364TIP3    H210015   0.011   3.634   6.376  1.5876 -0.0665 -1.3004
 3365TIP3   OH210016   0.681   8.045   3.327  0.4989 -0.6836  0.4948
 3365TIP3    H110017   0.737   8.119   3.306  0.9076 -0.8380  1.0150
 3365TIP3    H210018   0.594   8.072   3.298  0.4585  0.3885  1.5387
 3366TIP3   OH210019   4.938   7.725   2.362 -0.7040  0.0799  0.2569
 3366TIP3    H110020   5.017   7.671   2.350 -0.6468 -0.1665  1.5586
 3366TIP3    H210021   4.964   7.812   2.332  0.0644 -0.0089  0.6273
 3367TIP3   OH210022   8.479   3.847   0.012 -0.1552 -0.0604 -0.1552
 3367TIP3    H110023   8.408   3.910  -0.004 -1.0668 -0.6578  1.3318
 3367TIP3    H210024   8.532   3.888   0.080 -0.9050 -0.9447  1.0179
 3368TIP3   OH210025   8.419   4.594   1.205 -0.0837 -0.3120  0.0366
 3368TIP3    H110026   8.451   4.665   1.149 -1.0354  0.2424  0.1834
 3368TIP3    H210027   8.357   4.546   1.150 -0.5770 -0.1171  0.4139
 3369TIP3   OH210028   1.339   1.396   2.037  0.1914  0.5448  0.3977
 3369TIP3    H110029   1.417   1.366   1.991  0.3120  0.6245  0.5523
 3369TIP3    H210030   1.281   1.427   1.967  0.6505  1.2998  0.3475
 3370TIP3   OH210031   5.095   4.283   1.642 -0.7214  0.0423 -0.1630
 3370TIP3    H110032   5.049   4.204   1.613 -0.0788 -0.5487  0.4021
 3370TIP3    H210033   5.113   4.268   1.735 -0.7163  0.9155 -0.0155
 3371TIP3   OH210034   7.655   5.235   0.957  0.0595  0.2506 -0.3316
 3371TIP3    H110035   7.603   5.164   0.920  0.4273 -0.2298  0.0537
 3371TIP3    H210036   7.599   5.274   1.024 -1.3407  2.3271 -2.5801
 3372TIP3   OH210037   7.618   6.539   2.188  0.5346 -0.4464 -0.1515
 3372TIP3    H110038   7.663   6.481   2.249  0.3064 -0.4058  0.0554
 3372TIP3    H210039   7.618   6.624   2.231 -0.7132 -0.6802  0.3565
 3373TIP3   OH210040   8.187   4.769   6.362  0.0623 -0.4373  0.4202
 3373TIP3    H110041   8.125   4.706   6.324 -1.5125  1.4882 -0.3738
 3373TIP3    H210042   8.140   4.806   6.437  1.1995 -0.5723  1.2311
 3374TIP3   OH210043   7.029   7.008   4.457 -0.5271  0.0833 -0.5373
 3374TIP3    H110044   6.961   6.997   4.389  0.0748  0.2622 -1.1771
 3374TIP3    H210045   6.991   6.966   4.535 -1.2175 -0.1598 -0.9877
 3375TIP3   OH210046   6.437   2.392   5.775 -0.1212  0.1825 -0.2435
 3375TIP3    H110047   6.464   2.338   5.850 -1.6531  1.2059  1.0964
 3375TIP3    H210048   6.506   2.377   5.710  0.2777 -2.2317  0.6102
 3376TIP3   OH210049   2.262   5.692   0.944  0.3505  0.1424 -0.5521
 3376TIP3    H110050   2.225   5.603   0.948  1.0806 -0.1150  1.6392
 3376TIP3    H210051   2.196   5.746   0.988  1.2492  0.1461  0.8402
 3377TIP3   OH210052   3.046   1.925   3.414 -0.5593  0.0679 -0.3708
 3377TIP3    H110053   2.998   1.846   3.393  0.8172 -0.6741 -0.8397
 3377TIP3    H210054   2.983   1.980   3.462 -1.7565 -0.9633 -0.7279
 3378TIP3   OH210055   3.528   4.656   1.527 -0.6961 -0.3510  0.6586
 3378TIP3    H110056   3.604   4.708   1.501 -0.9269 -0.2276  0.2088
 3378TIP3    H210057   3.506   4.687   1.615  0.2657 -0.9607  1.1291
 3379TIP3   OH210058   5.773   1.112   5.391 -0.3860  0.2709 -0.1501
 3379TIP3    H110059   5.787   1.018   5.406 -1.0921  0.4255  1.6632
 3379TIP3    H210060   5.844   1.138   5.333  0.9307 -0.9908  0.8378
 3380TIP3   OH210061   1.833   3.548   1.814 -0.2286  0.0811 -0.2533
 3380TIP3    H110062   1.749   3.573   1.776 -2.0364 -1.6493  2.2323
 3380TIP3    H210063   1.839   3.597   1.896  2.2045  1.6212 -1.2285
 3381TIP3   OH210064   3.382   4.370   4.692  0.6517 -0.2296  0.3035
 3381TIP3    H110065   3.349   4.301   4.634  1.1839 -0.2483  0.0163
 3381TIP3    H210066   3.445   4.326   4.749  0.0652 -0.2269  0.9627
 3382TIP3   OH210067   2.367   2.834   3.766 -0.1043  0.0253 -0.6036
 3382TIP3    H110068   2.333   2.922   3.745  2.8655  1.6754  0.8966
 3382TIP3    H210069   2.340   2.820   3.857 -0.1431 -0.3951 -0.6824
 3383TIP3   OH210070   3.879   1.604   0.211 -0.1321 -0.3846 -0.1625
 3383TIP3    H110071   3.811   1.618   0.277 -0.8763 -0.7875 -0.8294
 3383TIP3    H210072   3.959   1.636   0.252 -1.0099  1.8014 -0.0264
 3384TIP3   OH210073   5.985   2.456   2.039  0.5879 -0.7803  0.3882
 3384TIP3    H110074   5.962   2.368   2.009 -0.1221 -0.7660  0.8764
 3384TIP3    H210075   6.081   2.456   2.039  0.5999 -1.4989  0.2412
 3385TIP3   OH210076   0.452   1.946   5.419  0.0718  0.0665 -0.3487
 3385TIP3    H110077   0.365   1.954   5.379  0.0296  0.5851 -0.1680
 3385TIP3    H210078   0.501   2.019   5.381  0.0536  0.5266  0.4888
 3386TIP3   OH210079   6.672   2.519   1.911 -0.2241  0.1433  0.0366
 3386TIP3    H110080   6.623   2.510   1.993  0.1808  1.7568  0.4835
 3386TIP3    H210081   6.605   2.510   1.843 -0.6308 -0.8006  0.5310
 3387TIP3   OH210082   1.111   7.637   5.748 -0.2416  0.3130  0.4731
 3387TIP3    H110083   1.110   7.732   5.742 -1.2786  0.4113  1.8439
 3387TIP3    H210084   1.054   7.617   5.821  1.0687 -1.2997  1.1131
 3388TIP3   OH210085   3.817   4.381   6.990 -0.1861  0.2910  0.6402
 3388TIP3    H110086   3.726   4.393   6.963 -0.8708 -1.6746  1.8918
 3388TIP3    H210087   3.813   4.373   7.086  1.4012  0.8027  0.7811
 3389TIP3   OH210088   1.929   4.411   5.195 -0.0348 -0.1181  0.0832
 3389TIP3    H110089   1.984   4.490   5.204  0.0634  0.2093 -2.5771
 3389TIP3    H210090   1.991   4.338   5.201  0.5157  0.1961 -1.2979
 3390TIP3   OH210091   5.390   2.676   4.330 -0.1781 -0.0053  0.1155
 3390TIP3    H110092   5.335   2.754   4.338  0.9532  0.7333  0.9898
 3390TIP3    H210093   5.366   2.622   4.405  0.4121  0.4124  0.6151
 3391TIP3   OH210094   2.130   0.386   0.683 -0.1010 -0.3832 -0.1381
 3391TIP3    H110095   2.042   0.364   0.713  0.0035 -0.2480  0.2633
 3391TIP3    H210096   2.169   0.435   0.755 -0.8890  2.5988 -1.5716
 3392TIP3   OH210097   3.905   7.015   1.860  0.2744  0.1814 -0.1216
 3392TIP3    H110098   3.835   6.953   1.842 -1.6022  2.0323  0.3510
 3392TIP3    H210099   3.948   6.981   1.939 -1.6540  0.1615  0.9900
 3393TIP3   OH210100   6.380   4.481   5.471 -0.2007 -0.8219  0.2642
 3393TIP3    H110101   6.308   4.527   5.514 -0.2751  0.3910 -1.0830
 3393TIP3    H210102   6.351   4.390   5.466 -0.9168 -0.6605  1.2032
 3394TIP3   OH210103   0.351   0.608   5.407  0.1776  0.9799  0.3356
 3394TIP3    H110104   0.333   0.641   5.495  0.6001 -0.9418  1.2013
 3394TIP3    H210105   0.406   0.531   5.421  1.8246  1.6817 -1.7322
 3395TIP3   OH210106   0.946   2.377   0.526 -0.0955  0.1488  0.3195
 3395TIP3    H110107   0.905   2.324   0.457 -0.9404  1.3939 -0.1764
 3395TIP3    H210108   0.947   2.319   0.603 -1.0359 -0.5763 -0.1866
 3396TIP3   OH210109   5.281   3.654   4.407 -0.3968  0.2777  0.3682
 3396TIP3    H110110   5.281   3.561   4.382  0.7788 -0.3543  2.4646
 3396TIP3    H210111   5.337   3.697   4.342  0.6256 -0.8396  0.4851
 3397TIP3   OH210112   2.932   2.555   2.688  0.1505  0.6348  0.2719
 3397TIP3    H110113   2.841   2.527   2.680  0.6029 -1.0693  0.5884
 3397TIP3    H210114   2.933   2.611   2.766 -0.9979  2.5238 -1.0072
 3398TIP3   OH210115   0.096   3.402   5.287 -0.0000 -0.2160  0.0892
 3398TIP3    H110116   0.175   3.357   5.317  0.5594  0.6788  0.0066
 3398TIP3    H210117   0.126   3.489   5.260 -0.8927 -0.1233 -0.6859
 3399TIP3   OH210118   3.633   4.716   5.468 -0.2687 -0.3646  0.0837
 3399TIP3    H110119   3.662   4.703   5.559 -0.1928  0.4712  0.1864
 3399TIP3    H210120   3.670   4.642   5.420  0.5681 -0.2618  0.5442
 3400TIP3   OH210121   1.390   5.806   2.866 -0.1033 -0.4721  0.2018
 3400TIP3    H110122   1.465   5.767   2.821 -0.0171 -1.2556  0.9922
 3400TIP3    H210123   1.372   5.886   2.816  0.5976 -0.7995 -0.6236
 3401TIP3   OH210124   2.295   4.842   6.502 -0.4864 -0.0649  0.2540
 3401TIP3    H110125   2.364   4.829   6.437  1.8459 -0.6807  2.6530
 3401TIP3    H210126   2.214   4.846   6.452  1.1151 -0.9438 -2.5948
 3402TIP3   OH210127   5.689   3.496   4.050 -0.0561  0.1329 -0.1331
 3402TIP3    H110128   5.608   3.474   4.097  0.8457 -1.1266  0.9170
 3402TIP3    H210129   5.728   3.412   4.029  1.3779  0.7046  0.1042
 3403TIP3   OH210130   5.625   4.404   5.695 -0.5315 -0.1076  0.4312
 3403TIP3    H110131   5.625   4.356   5.613 -3.7028  1.1556 -0.4617
 3403TIP3    H210132   5.716   4.428   5.709  0.5538 -2.9065 -1.0995
 3404TIP3   OH210133   4.788   4.872   4.799  0.2557  0.5078  0.2525
 3404TIP3    H110134   4.710   4.818   4.789 -0.5152  1.7503 -0.6380
 3404TIP3    H210135   4.853   4.831   4.742 -0.2742  0.4364 -0.3070
 3405TIP3   OH210136   0.066   2.585   3.458 -0.2488  0.1372 -0.1205
 3405TIP3    H110137   0.005   2.528   3.505  0.1519 -0.7468 -0.6572
 3405TIP3    H210138   0.133   2.526   3.425 -0.1366  0.8440 -1.1887
 3406TIP3   OH210139   1.711   6.261   4.620  0.1101  0.1074 -0.1379
 3406TIP3    H110140   1.663   6.248   4.702 -0.4650  0.1561 -0.4640
 3406TIP3    H210141   1.740   6.174   4.594  0.5768  0.1311  0.2809
 3407TIP3   OH210142   6.160   3.125   5.015 -0.3573  0.3360  0.2042
 3407TIP3    H110143   6.222   3.130   4.942  0.4994 -0.4041  0.8561
 3407TIP3    H210144   6.077   3.098   4.974 -0.1895  1.0658 -0.6394
 3408TIP3   OH210145   1.212   3.758   6.990  0.3613 -0.2229  0.3281
 3408TIP3    H110146   1.203   3.820   6.918  0.3157 -0.4583  0.1307
 3408TIP3    H210147   1.173   3.802   7.065  0.6803  0.1453  0.2806
 3409TIP3   OH210148   8.324   2.313   6.565 -0.6371  0.2147  0.3093
 3409TIP3    H110149   8.377   2.390   6.545 -0.3964  0.0224  0.2069
 3409TIP3    H210150   8.305   2.321   6.659  0.2221 -0.1128  0.5190
 3410TIP3   OH210151   6.498   6.679   3.292  0.3936 -0.0413  0.4627
 3410TIP3    H110152   6.523   6.762   3.252 -2.0823  0.7540  0.4334
 3410TIP3    H210153   6.534   6.612   3.234 -0.7323  1.0762 -1.6121
 3411TIP3   OH210154   6.909   6.410   1.565 -0.5280  0.3827  0.2483
 3411TIP3    H110155   6.822   6.417   1.525 -0.4069 -1.0508 -0.3140
 3411TIP3    H210156   6.918   6.490   1.616 -1.4608  1.3737 -1.0852
 3412TIP3   OH210157   2.963   6.977   1.727  0.4524  0.4091 -0.3792
 3412TIP3    H110158   3.027   7.039   1.691 -1.7035  1.9826 -1.7094
 3412TIP3    H210159   2.883   6.993   1.677 -1.1792 -1.0873  1.5872
 3413TIP3   OH210160   4.716   4.960   1.849  0.3447  0.1009  0.0503
 3413TIP3    H110161   4.739   4.966   1.756  2.5779  1.6577  0.6235
 3413TIP3    H210162   4.634   5.009   1.856 -1.3474 -2.3206 -1.4676
 3414TIP3   OH210163   6.959   8.060   0.074 -0.5184  0.7523 -0.7691
 3414TIP3    H110164   6.942   8.014   0.156 -0.7916 -3.1715 -2.7857
 3414TIP3    H210165   6.874   8.063   0.030  0.1605 -0.1675 -2.2162
 3415TIP3   OH210166   7.519   1.699   3.112  0.0093 -0.1924  0.3302
 3415TIP3    H110167   7.498   1.663   3.026 -0.0465 -0.4570  0.4538
 3415TIP3    H210168   7.511   1.794   3.101 -2.4266 -0.3016  0.6624
 3416TIP3   OH210169   3.738   4.340   2.466 -0.4043  0.0871 -0.2426
 3416TIP3    H110170   3.696   4.292   2.538  1.3683 -0.7069  0.3259
 3416TIP3    H210171   3.707   4.296   2.387 -0.4906 -0.6326  0.1786
 3417TIP3   OH210172   6.573   7.841   2.299  0.8877 -0.8115 -0.3285
 3417TIP3    H110173   6.648   7.884   2.256 -0.1653 -0.3078 -1.7638
 3417TIP3    H210174   6.500   7.903   2.286  0.1274 -1.4701  0.6810
 3418TIP3   OH210175   7.495   0.436   3.594 -0.0305 -0.2245  0.2955
 3418TIP3    H110176   7.573   0.461   3.545 -0.4917  0.3742 -0.1473
 3418TIP3    H210177   7.513   0.347   3.624  0.0572 -0.8288 -1.4332
 3419TIP3   OH210178   5.525   3.435   6.648 -0.2066  0.3872 -0.0633
 3419TIP3    H110179   5.550   3.448   6.557  1.3000 -0.4037  0.1874
 3419TIP3    H210180   5.536   3.521   6.689  2.1300  0.1524 -0.0194
 3420TIP3   OH210181   5.980   8.165   4.833 -0.1175  0.0061  0.0966
 3420TIP3    H110182   6.072   8.162   4.860 -0.1532 -0.2867  0.1837
 3420TIP3    H210183   5.937   8.217   4.901  0.3457  1.9278 -0.9963
 3421TIP3   OH210184   3.965   5.662   6.655 -0.0729 -0.0816  0.6412
 3421TIP3    H110185   3.943   5.569   6.662 -2.0020  0.3819  1.4222
 3421TIP3    H210186   3.886   5.707   6.683  0.1090  1.8523 -1.6567
 3422TIP3   OH210187   5.917   4.077   2.487  0.5495  0.3671 -0.1462
 3422TIP3    H110188   5.959   4.104   2.568 -0.4916 -2.0213  1.2866
 3422TIP3    H210189   5.973   4.007   2.453 -1.3647 -1.8610  1.0385
 3423TIP3   OH210190   5.407   5.826   2.516  0.5729 -0.5029  0.3477
 3423TIP3    H110191   5.496   5.854   2.539  0.5581 -0.7760  0.7442
 3423TIP3    H210192   5.396   5.855   2.425  1.3658 -1.1584  0.0183
 3424TIP3   OH210193   4.651   4.077   5.183 -0.3854 -0.1493 -0.2784
 3424TIP3    H110194   4.568   4.046   5.146 -0.1019  1.3553 -2.3410
 3424TIP3    H210195   4.717   4.055   5.118  0.2558  1.9478 -0.4203
 3425TIP3   OH210196   4.516   2.083   0.831 -0.1416  0.6314  0.1975
 3425TIP3    H110197   4.594   2.073   0.887  0.8988  1.1295 -1.0970
 3425TIP3    H210198   4.501   1.996   0.795  1.2591  0.9515 -1.3137
 3426TIP3   OH210199   2.137   2.032   0.961  0.3553 -0.4573  0.0827
 3426TIP3    H110200   2.082   1.956   0.943  1.2351 -0.9726 -0.4810
 3426TIP3    H210201   2.218   2.015   0.913  0.1406  1.3797 -1.0263
 3427TIP3   OH210202   6.818   7.961   2.200  0.2666 -0.1961 -0.0636
 3427TIP3    H110203   6.884   8.030   2.208 -0.0948  0.1453  0.0716
 3427TIP3    H210204   6.810   7.946   2.106 -0.2898  0.5953 -0.1580
 3428TIP3   OH210205   4.329   4.724   6.426  0.2105 -0.0527 -0.2343
 3428TIP3    H110206   4.295   4.653   6.480  1.0980  0.0602  0.4998
 3428TIP3    H210207   4.340   4.798   6.486 -1.3844  0.9651 -1.1241
 3429TIP3   OH210208   8.558   0.539   5.821  0.6025 -0.7038 -0.3091
 3429TIP3    H110209   8.503   0.596   5.767  3.0309  2.4075  0.1866
 3429TIP3    H210210   8.517   0.542   5.908  0.2475 -0.3964 -0.4811
 3430TIP3   OH210211   6.417   2.598   6.099  0.6149  0.1967 -0.2335
 3430TIP3    H110212   6.413   2.690   6.074  0.6143 -0.1644 -1.6322
 3430TIP3    H210213   6.326   2.573   6.115  0.5041  0.1828 -0.8611
 3431TIP3   OH210214   8.195   3.266   2.044  0.4140 -0.0818 -0.1118
 3431TIP3    H110215   8.261   3.276   1.975  0.7381 -0.5803  0.1246
 3431TIP3    H210216   8.113   3.253   1.997  0.5698 -0.0175 -0.4056
 3432TIP3   OH210217   1.390   0.920   0.856  0.6465  0.0811 -0.0191
 3432TIP3    H110218   1.436   1.003   0.847  1.9136 -0.0649  3.5270
 3432TIP3    H210219   1.373   0.912   0.950 -1.1981 -2.7712 -0.4772
 3433TIP3   OH210220   5.814   3.108   2.648  0.4978  0.0007 -0.3656
 3433TIP3    H110221   5.760   3.068   2.580  0.5224 -0.1706 -0.2874
 3433TIP3    H210222   5.827   3.198   2.620 -0.2388  0.1829 -0.1378
 3434TIP3   OH210223   4.015   3.083   1.802 -0.3743 -0.1865  0.6067
 3434TIP3    H110224   3.964   3.125   1.871 -0.2026  1.1849 -0.0648
 3434TIP3    H210225   3.951   3.061   1.734 -0.2993  0.1839  0.4083
 3435TIP3   OH210226   3.211   0.827   5.780  0.6784 -0.1098 -0.9902
 3435TIP3    H110227   3.200   0.922   5.778  0.2187 -0.0810  0.9779
 3435TIP3    H210228   3.173   0.800   5.864  1.0075 -2.0085 -1.4067
 3436TIP3   OH210229   4.257   1.216   5.293 -0.5149 -0.0109  0.5648
 3436TIP3    H110230   4.183   1.255   5.340 -0.0147 -0.5652  1.8633
 3436TIP3    H210231   4.288   1.286   5.236 -2.2070  0.1433 -0.2447
 3437TIP3   OH210232   4.930   3.756   2.551  0.3353 -0.3206  0.5504
 3437TIP3    H110233   4.907   3.847   2.529  1.9778 -0.1049 -0.3914
 3437TIP3    H210234   4.865   3.731   2.617 -1.1221  1.0036 -0.2982
 3438TIP3   OH210235   3.457   4.151   6.547  0.1913 -0.6200 -0.4350
 3438TIP3    H110236   3.494   4.108   6.624 -0.3969 -0.8836 -0.2956
 3438TIP3    H210237   3.423   4.234   6.580  1.1053 -0.1421 -0.6585
 3439TIP3   OH210238   2.115   0.878   5.600  0.0606 -0.0132  0.4653
 3439TIP3    H110239   2.199   0.835   5.615 -0.2025 -0.6887  0.0662
 3439TIP3    H210240   2.068   0.868   5.683 -0.3680 -1.3835  0.0881
 3440TIP3   OH210241   4.729   6.235   5.798 -0.3223 -0.1315  0.0968
 3440TIP3    H110242   4.656   6.288   5.765  0.0691  1.5883  1.8393
 3440TIP3    H210243   4.804   6.262   5.745 -0.1229  1.1421  0.9796
 3441TIP3   OH210244   7.833   1.318   2.263 -0.1768  0.3364 -0.0970
 3441TIP3    H110245   7.884   1.239   2.247  0.8045  1.1099 -0.9621
 3441TIP3    H210246   7.743   1.294   2.241  0.0141 -0.6846  0.2006
 3442TIP3   OH210247   7.553   7.406   3.312  0.5589 -0.0495  0.4413
 3442TIP3    H110248   7.554   7.365   3.225 -0.6812  0.7638  0.0067
 3442TIP3    H210249   7.611   7.482   3.304  1.3635 -0.6223  0.6885
 3443TIP3   OH210250   6.457   1.296   6.964 -0.4971  0.4933  0.7054
 3443TIP3    H110251   6.407   1.215   6.955  1.3138 -0.5886 -0.0447
 3443TIP3    H210252   6.453   1.336   6.877  1.0455 -0.3052  0.2337
 3444TIP3   OH210253   3.449   2.050   2.115  0.2335 -0.6334 -0.2847
 3444TIP3    H110254   3.451   2.089   2.028  1.3109 -0.6194 -0.2738
 3444TIP3    H210255   3.441   2.124   2.175  0.5121 -0.5643 -0.3333
 3445TIP3   OH210256   7.097   6.197   4.911 -0.1878 -0.2648 -0.3371
 3445TIP3    H110257   7.034   6.140   4.954  0.4187 -0.0648  0.8906
 3445TIP3    H210258   7.150   6.139   4.856 -1.1809 -0.4864 -1.0674
 3446TIP3   OH210259   1.624   3.895   1.684  0.4557  0.2739 -0.3173
 3446TIP3    H110260   1.634   3.909   1.778 -1.2910  0.1847 -0.0857
 3446TIP3    H210261   1.552   3.832   1.677 -1.9942  2.9822 -1.7683
 3447TIP3   OH210262   7.657   8.092   2.412  0.0972  0.2634 -0.2864
 3447TIP3    H110263   7.720   8.053   2.350  2.2245  0.5254  1.5573
 3447TIP3    H210264   7.711   8.119   2.486 -2.1728  1.1055  1.1561
 3448TIP3   OH210265   2.907   7.123   0.185  0.3628  0.4226 -0.6895
 3448TIP3    H110266   2.906   7.047   0.242  0.0811  0.7632 -0.2336
 3448TIP3    H210267   2.990   7.117   0.138  1.4171  1.0480  0.9937
 3449TIP3   OH210268   6.371   2.209   4.823 -0.0225 -0.7189 -0.1927
 3449TIP3    H110269   6.414   2.136   4.868  0.0097 -0.9303 -0.5603
 3449TIP3    H210270   6.287   2.173   4.794 -1.7767  0.4210  2.9197
 3450TIP3   OH210271   1.459   3.798   2.589  0.0403 -0.2583 -0.1986
 3450TIP3    H110272   1.413   3.721   2.622  1.0364 -0.9530 -0.3742
 3450TIP3    H210273   1.519   3.763   2.523  2.4049  0.2621  1.5293
 3451TIP3   OH210274   6.064   6.117   3.972  0.6400 -0.4382 -0.5044
 3451TIP3    H110275   6.033   6.205   3.952  2.4498 -0.1155 -2.0878
 3451TIP3    H210276   6.067   6.114   4.068  0.2294  1.0913 -0.4197
 3452TIP3   OH210277   0.578   4.983   3.649  0.4079 -0.1328 -0.3133
 3452TIP3    H110278   0.555   5.019   3.735 -0.6925 -1.4045 -0.0515
 3452TIP3    H210279   0.663   4.941   3.663  0.7839  0.6596 -0.1474
 3453TIP3   OH210280   6.052   0.233   6.032  0.2157 -0.0945  0.0119
 3453TIP3    H110281   6.002   0.215   6.111 -0.3123  0.4513 -0.1947
 3453TIP3    H210282   6.085   0.147   6.005 -1.4754 -0.6422 -0.4344
 3454TIP3   OH210283   7.712   0.744   0.629 -0.2218 -0.0083 -0.1666
 3454TIP3    H110284   7.694   0.650   0.631  1.7495 -0.4344  2.0340
 3454TIP3    H210285   7.628   0.784   0.652 -1.0139 -1.2198 -0.8039
 3455TIP3   OH210286   0.005   2.898   1.975 -0.2238 -0.2126 -0.2382
 3455TIP3    H110287  -0.018   2.829   2.037 -0.5476 -0.9428 -1.1293
 3455TIP3    H210288   0.094   2.923   1.999 -0.1154 -0.9200  0.1350
 3456TIP3   OH210289   3.278   2.762   0.820  0.3684  0.0000  0.3144
 3456TIP3    H110290   3.342   2.831   0.801  1.3503 -0.8179  0.5451
 3456TIP3    H210291   3.315   2.684   0.777 -0.5992 -0.4330  0.2595
 3457TIP3   OH210292   4.455   4.636   1.579  0.0116  0.1063 -0.0919
 3457TIP3    H110293   4.471   4.608   1.489  0.7086 -1.6089  0.5228
 3457TIP3    H210294   4.367   4.605   1.599  0.2852 -0.5318  0.1622
 3458TIP3   OH210295   2.515   3.180   0.944  0.6944  0.6333  0.0815
 3458TIP3    H110296   2.576   3.120   0.987  0.6232  0.3666 -0.1857
 3458TIP3    H210297   2.571   3.241   0.896  0.7422 -0.5554 -1.4402
 3459TIP3   OH210298   5.099   5.146   0.473  0.0916  0.2887 -0.3913
 3459TIP3    H110299   5.184   5.169   0.510 -0.1735 -0.3090  0.6121
 3459TIP3    H210300   5.044   5.126   0.548 -0.8224  0.2391 -1.0505
 3460TIP3   OH210301   4.552   6.084   5.529  0.0291  0.6310  0.4264
 3460TIP3    H110302   4.465   6.046   5.519 -0.3310  1.6007 -0.3776
 3460TIP3    H210303   4.605   6.043   5.460 -0.3089  1.3976 -0.3167
 3461TIP3   OH210304   5.033   4.869   0.822 -0.1124 -0.0342  0.4559
 3461TIP3    H110305   5.117   4.911   0.843 -0.0095 -0.6968  1.3911
 3461TIP3    H210306   4.998   4.922   0.750  0.7611  0.6915  0.5437
 3462TIP3   OH210307   3.017   2.749   0.755 -0.6622 -0.6356  1.1662
 3462TIP3    H110308   3.007   2.755   0.660 -1.0821 -0.1464  1.2377
 3462TIP3    H210309   3.109   2.768   0.771 -0.5303 -0.9878  0.8356
 3463TIP3   OH210310   8.175   4.105   4.016 -0.1946  0.1625  0.1221
 3463TIP3    H110311   8.149   4.052   4.091 -0.0477  1.3099  1.0197
 3463TIP3    H210312   8.092   4.125   3.972 -0.0295 -3.4508 -2.1688
 3464TIP3   OH210313   1.825   4.179   1.906 -0.6479  0.3532 -0.3011
 3464TIP3    H110314   1.847   4.112   1.842  0.0810  0.7255 -0.4509
 3464TIP3    H210315   1.729   4.185   1.903 -0.6942 -0.4048 -0.5571
 3465TIP3   OH210316   7.556   4.377   3.056  0.2814  0.2388 -0.3211
 3465TIP3    H110317   7.528   4.389   2.965  1.1575  1.7317 -0.4343
 3465TIP3    H210318   7.475   4.366   3.105 -0.2019 -0.6777 -1.2834
 3466TIP3   OH210319   2.095   5.932   2.454 -0.2885 -0.5014  0.0105
 3466TIP3    H110320   2.098   5.987   2.376  2.5538 -0.9004 -0.2813
 3466TIP3    H210321   2.014   5.882   2.445 -1.9206  2.0610 -0.7528
 3467TIP3   OH210322   6.995   6.061   0.705  0.5666  0.1478 -0.6900
 3467TIP3    H110323   7.034   6.113   0.635  0.4872  0.6059 -0.3972
 3467TIP3    H210324   6.903   6.052   0.679  0.0932  1.8992  0.2597
 3468TIP3   OH210325   0.450   0.430   4.391  0.0852 -0.4641 -0.0951
 3468TIP3    H110326   0.394   0.367   4.438  0.1734 -2.6521 -2.6560
 3468TIP3    H210327   0.537   0.391   4.394  0.0723 -0.7383 -2.0568
 3469TIP3   OH210328   6.266   3.105   4.064 -0.5663  0.2150 -0.1407
 3469TIP3    H110329   6.305   3.172   4.009 -2.3631  1.2365 -0.2431
 3469TIP3    H210330   6.230   3.041   4.003  1.1119 -0.8560 -0.0436
 3470TIP3   OH210331   6.951   0.358   1.970 -0.5448  0.1000  0.0263
 3470TIP3    H110332   6.989   0.312   2.045  0.3684 -0.7001 -0.8960
 3470TIP3    H210333   6.860   0.374   1.995 -0.7807 -1.8014  0.5971
 3471TIP3   OH210334   8.472   3.906   6.579  0.5357 -0.3081  0.1149
 3471TIP3    H110335   8.475   3.951   6.494  0.0326  2.1336  1.3060
 3471TIP3    H210336   8.410   3.835   6.566 -1.3583  1.4319 -0.9858
 3472TIP3   OH210337   2.869   4.684   1.000  0.7269 -0.1962 -0.0148
 3472TIP3    H110338   2.881   4.723   0.914  2.3070 -1.9272 -0.6573
 3472TIP3    H210339   2.948   4.709   1.049 -0.9613  2.3434  1.6809
 3473TIP3   OH210340   0.638   4.204   7.092 -0.4368 -0.2066  0.1822
 3473TIP3    H110341   0.699   4.137   7.125  0.9574  0.6577 -0.5135
 3473TIP3    H210342   0.691   4.254   7.029 -1.8143  0.7666 -0.2290
 3474TIP3   OH210343   7.170   8.033   4.074  0.4641 -0.7880  0.2568
 3474TIP3    H110344   7.162   8.031   4.169 -1.5253 -1.2089  0.1341
 3474TIP3    H210345   7.120   7.957   4.044  0.0566 -0.0094 -1.1473
 3475TIP3   OH210346   2.082   5.720   4.489  0.0768  0.2983 -0.5228
 3475TIP3    H110347   2.078   5.626   4.471 -1.5187  0.2406 -0.0188
 3475TIP3    H210348   2.021   5.759   4.427  0.1440  0.9210 -0.2008
 3476TIP3   OH210349   1.352   1.675   4.387 -0.1250  0.1209  0.0410
 3476TIP3    H110350   1.436   1.715   4.409 -1.0466  3.3996 -1.7607
 3476TIP3    H210351   1.368   1.630   4.304  0.0507  0.0578  0.1094
 3477TIP3   OH210352   2.281   0.336   5.919 -0.3564  0.4449 -0.3461
 3477TIP3    H110353   2.267   0.350   5.825 -1.8045  2.1717  0.0609
 3477TIP3    H210354   2.252   0.247   5.934 -1.8515  0.7264 -1.2736
 3478TIP3   OH210355   5.424   0.518   2.197  0.8818 -0.2428 -0.1075
 3478TIP3    H110356   5.385   0.499   2.112 -0.1038  0.5580  0.1509
 3478TIP3    H210357   5.399   0.444   2.252 -2.0442  1.1587  0.6068
 3479TIP3   OH210358   4.724   5.050   1.587  0.3403  0.4001 -0.2118
 3479TIP3    H110359   4.664   5.122   1.607  1.7379  1.2632  1.0295
 3479TIP3    H210360   4.801   5.091   1.549  0.6474 -0.5721 -0.6915
 3480TIP3   OH210361   1.513   2.188   0.377 -0.3765 -0.2389  0.5104
 3480TIP3    H110362   1.456   2.226   0.444 -0.4139  1.6236 -0.5072
 3480TIP3    H210363   1.462   2.115   0.341 -0.6172 -0.8585  2.0088
 3481TIP3   OH210364   2.527   6.505   6.849 -0.2211  0.3752 -0.2114
 3481TIP3    H110365   2.433   6.487   6.841 -0.2043  0.3708 -0.4141
 3481TIP3    H210366   2.534   6.566   6.922 -0.2302 -0.8570  0.8605
 3482TIP3   OH210367   6.048   4.712   4.675  0.0777  0.4067 -0.0799
 3482TIP3    H110368   6.024   4.669   4.757  0.4190  0.7534  0.2085
 3482TIP3    H210369   5.981   4.684   4.612 -0.5034  0.5769  0.4525
 3483TIP3   OH210370   4.911   7.246   4.329  0.3305 -0.0603 -0.2737
 3483TIP3    H110371   4.997   7.245   4.371 -0.0472  0.8537  0.5563
 3483TIP3    H210372   4.929   7.265   4.237  1.0265 -0.1165 -0.1521
 3484TIP3   OH210373   2.882   3.089   2.492  0.0597  0.0291 -0.1404
 3484TIP3    H110374   2.934   3.155   2.538 -0.0524 -1.3611  2.1504
 3484TIP3    H210375   2.947   3.024   2.463 -0.1343 -0.4360  0.4561
 3485TIP3   OH210376   7.468   5.634   2.336  0.1083 -0.1489 -0.9029
 3485TIP3    H110377   7.403   5.682   2.284 -0.0468 -1.6910 -2.2455
 3485TIP3    H210378   7.494   5.561   2.279  3.2364  0.5355 -0.5467
 3486TIP3   OH210379   1.006   3.200   0.839  0.8207 -0.2883  0.0412
 3486TIP3    H110380   1.034   3.108   0.841  1.8716 -0.0341 -1.4340
 3486TIP3    H210381   1.056   3.242   0.909  1.3175 -0.5850 -0.1342
 3487TIP3   OH210382   7.549   4.331   5.636  0.1183  0.6523 -0.6587
 3487TIP3    H110383   7.569   4.271   5.564 -1.8792 -0.6887 -0.1840
 3487TIP3    H210384   7.517   4.275   5.706 -0.5640  2.1747  0.3063
 3488TIP3   OH210385   0.427   7.785   6.264 -0.2860  0.4057  0.1906
 3488TIP3    H110386   0.473   7.837   6.330 -0.2314 -0.6646  1.0308
 3488TIP3    H210387   0.335   7.804   6.278 -0.3790 -0.8209  1.5133
 3489TIP3   OH210388   1.875   6.820   5.925  0.1488 -0.5020  0.7304
 3489TIP3    H110389   1.872   6.913   5.948 -0.0943 -0.6917  1.4592
 3489TIP3    H210390   1.852   6.818   5.832  0.4570  0.1938  0.6319
 3490TIP3   OH210391   3.039   7.876   2.017 -0.4367 -0.4276 -0.4045
 3490TIP3    H110392   3.101   7.923   1.962  1.9416 -1.1841  1.4354
 3490TIP3    H210393   3.089   7.851   2.094 -2.8659 -1.7948  0.8814
 3491TIP3   OH210394   5.120   0.276   1.972 -0.5303 -0.0005 -0.0025
 3491TIP3    H110395   5.110   0.284   1.877  0.1666 -0.1066 -0.0915
 3491TIP3    H210396   5.214   0.276   1.986 -0.5698  2.7639  0.9218
 3492TIP3   OH210397   5.148   5.707   3.928  0.2136  0.0560 -0.2177
 3492TIP3    H110398   5.147   5.758   3.847  0.1911  0.5488  0.0883
 3492TIP3    H210399   5.105   5.764   3.992  0.9411 -0.0067  0.3349
 3493TIP3   OH210400   4.331   8.227   0.460  0.3060 -0.2953  0.0249
 3493TIP3    H110401   4.380   8.144   0.458 -0.4740 -0.7474 -0.7098
 3493TIP3    H210402   4.240   8.201   0.471 -0.0086  0.4369 -0.7495
 3494TIP3   OH210403   4.718   1.352   5.180 -0.0644  0.4475 -0.3333
 3494TIP3    H110404   4.683   1.302   5.253 -0.5229 -1.0219 -1.5163
 3494TIP3    H210405   4.806   1.378   5.208 -1.4732  3.0627  2.1587
 3495TIP3   OH210406   3.934   4.209   3.880  0.4263 -0.7320 -0.3165
 3495TIP3    H110407   4.016   4.242   3.917 -0.2604  0.0052  0.5979
 3495TIP3    H210408   3.880   4.287   3.869  0.9820 -0.6902 -4.0843
 3496TIP3   OH210409   3.700   6.266   6.974 -0.0058 -0.3644  0.0365
 3496TIP3    H110410   3.795   6.258   6.973  0.1996  1.1202 -2.4456
 3496TIP3    H210411   3.672   6.228   6.891 -1.5702 -0.5638  0.6161
 3497TIP3   OH210412   5.974   2.743   4.740 -0.1231 -0.1546 -0.0073
 3497TIP3    H110413   5.954   2.774   4.829  1.2125  0.2742  0.1606
 3497TIP3    H210414   5.957   2.648   4.744  2.3255 -0.6306  1.4834
 3498TIP3   OH210415   0.476   5.274   4.541  0.3065  0.0850 -0.2125
 3498TIP3    H110416   0.416   5.281   4.467 -0.1336 -0.2937  0.0995
 3498TIP3    H210417   0.547   5.219   4.509  0.4757  0.5129 -0.5769
 3499TIP3   OH210418   2.112   6.027   1.335  0.2878  0.8171 -0.1516
 3499TIP3    H110419   2.063   6.087   1.278  0.6422  0.1213 -1.2180
 3499TIP3    H210420   2.046   5.989   1.392 -0.0053  1.8923  0.2509
 3500TIP3   OH210421   4.558   2.428   5.417  0.4890  0.1515 -0.2554
 3500TIP3    H110422   4.616   2.361   5.380  0.0997  0.8588 -2.2504
 3500TIP3    H210423   4.607   2.464   5.490  0.7147 -2.2811  0.8869
 3501TIP3   OH210424   3.492   2.103   1.630 -0.4710  0.3518  0.1410
 3501TIP3    H110425   3.417   2.099   1.570 -1.3989 -0.7273  1.3312
 3501TIP3    H210426   3.488   2.191   1.668 -1.9312 -0.1199  1.1518
 3502TIP3   OH210427   8.225   0.157   1.914 -0.0530 -0.3627  0.1930
 3502TIP3    H110428   8.319   0.168   1.902 -0.3668  1.1621 -1.2885
 3502TIP3    H210429   8.208   0.066   1.893  1.4163 -1.4637  3.1951
 3503TIP3   OH210430   6.416   1.722   6.822 -1.0758  0.1115  0.2799
 3503TIP3    H110431   6.350   1.689   6.761 -1.3311  0.7393  0.2094
 3503TIP3    H210432   6.377   1.801   6.860 -0.5926  0.1745  0.6552
 3504TIP3   OH210433   7.028   6.093   1.185 -0.3112 -0.2034  0.2483
 3504TIP3    H110434   7.049   6.026   1.251 -0.7230 -1.0088 -0.4250
 3504TIP3    H210435   7.113   6.129   1.160  0.1426 -1.9956 -0.9506
 3505TIP3   OH210436   0.318   7.653   1.974 -0.4285  0.4779 -0.0063
 3505TIP3    H110437   0.382   7.664   2.044 -1.2861 -0.2841  0.9188
 3505TIP3    H210438   0.233   7.651   2.018 -0.8273 -4.2485 -0.4592
 3506TIP3   OH210439   3.933   0.937   0.436 -0.4027  0.1046  0.3459
 3506TIP3    H110440   3.949   0.963   0.346 -0.3979  1.4148  0.7080
 3506TIP3    H210441   4.017   0.901   0.466 -0.7629 -1.5597 -0.5474
 3507TIP3   OH210442   5.656   5.341   6.175 -0.1675 -0.2203  0.7681
 3507TIP3    H110443   5.568   5.309   6.153  0.0129 -0.1747 -0.0475
 3507TIP3    H210444   5.653   5.435   6.155 -0.3603  0.0801  2.1112
 3508TIP3   OH210445   4.306   1.095   1.249  0.0750  0.1018 -0.4723
 3508TIP3    H110446   4.311   1.189   1.232 -0.9376  0.1143 -0.7487
 3508TIP3    H210447   4.329   1.054   1.166 -0.5152  0.1154 -0.6415
 3509TIP3   OH210448   0.227   1.103   0.548  0.2509  0.4547 -0.4301
 3509TIP3    H110449   0.139   1.066   0.545  1.3199 -2.4567  0.7802
 3509TIP3    H210450   0.283   1.038   0.507  1.9999  1.8156 -0.3603
 3510TIP3   OH210451   1.451   4.866   0.573  0.5326  0.3343  0.0529
 3510TIP3    H110452   1.460   4.942   0.516  0.2141  1.5796  1.6017
 3510TIP3    H210453   1.382   4.890   0.635  0.9335 -0.9235  1.0339
 3511TIP3   OH210454   1.621   3.775   4.421  0.2521  0.0947 -0.0031
 3511TIP3    H110455   1.605   3.796   4.329 -0.3095  0.9569  0.2735
 3511TIP3    H210456   1.633   3.680   4.422 -0.1718  0.0150 -0.9017
 3512TIP3   OH210457   4.963   4.641   5.613 -0.2042 -0.1445  0.3260
 3512TIP3    H110458   4.984   4.682   5.530  1.0332  2.1260  1.6740
 3512TIP3    H210459   5.020   4.565   5.618  1.4600  1.0441  0.0979
 3513TIP3   OH210460   3.759   0.974   0.641  0.8938  0.1001 -0.0042
 3513TIP3    H110461   3.830   0.987   0.704  0.4896 -0.9930  0.6943
 3513TIP3    H210462   3.803   0.948   0.560  1.3980  1.2357 -0.1175
 3514TIP3   OH210463   6.899   3.855   1.610 -0.5258  0.1382 -0.3603
 3514TIP3    H110464   6.889   3.851   1.515  0.1231  0.2153 -0.4391
 3514TIP3    H210465   6.962   3.785   1.630 -0.9068 -0.0864  0.0471
 3515TIP3   OH210466   3.342   4.008   1.391  0.5244 -0.4615  0.2112
 3515TIP3    H110467   3.261   4.017   1.440  0.2865 -1.5914  0.0718
 3515TIP3    H210468   3.410   4.039   1.451 -0.1417  2.3961 -0.3736
 3516TIP3   OH210469   7.103   4.706   2.360 -0.1743  0.1594  0.3993
 3516TIP3    H110470   7.117   4.724   2.453  0.4523  0.8815  0.1701
 3516TIP3    H210471   7.178   4.652   2.334  0.1408  0.7411  0.0937
 3517TIP3   OH210472   6.920   2.541   0.876 -0.4825  0.2919 -0.9035
 3517TIP3    H110473   6.971   2.585   0.945 -2.1213  0.6293  0.1637
 3517TIP3    H210474   6.944   2.449   0.884 -1.3739  0.1711  0.8369
 3518TIP3   OH210475   3.413   4.423   5.404  0.0752 -0.3507 -0.0715
 3518TIP3    H110476   3.331   4.467   5.380  0.3693 -0.8501 -2.2092
 3518TIP3    H210477   3.412   4.421   5.500 -2.3760 -0.2776 -0.0296
 3519TIP3   OH210478   3.241   3.186   4.304  0.0127 -0.2233  0.2966
 3519TIP3    H110479   3.208   3.105   4.342 -1.3253 -0.4164 -1.1331
 3519TIP3    H210480   3.249   3.246   4.377 -3.4715 -0.2290  0.8457
 3520TIP3   OH210481   0.097   3.742   3.467  0.5893  0.2965  0.0780
 3520TIP3    H110482   0.175   3.734   3.412  0.3336  1.9797 -0.5875
 3520TIP3    H210483   0.130   3.773   3.551  0.6764  0.8169 -0.1420
 3521TIP3   OH210484   0.792   7.812   3.294 -0.0328  0.2878 -0.2319
 3521TIP3    H110485   0.886   7.829   3.303 -0.1502  0.1748  1.8047
 3521TIP3    H210486   0.752   7.899   3.296 -0.0714  0.2639  1.0709
 3522TIP3   OH210487   3.543   7.986   2.130 -0.3285 -0.2075  0.2849
 3522TIP3    H110488   3.562   7.953   2.217  1.0118  0.6609  0.3636
 3522TIP3    H210489   3.550   7.910   2.073 -0.3609 -0.6233  0.8279
 3523TIP3   OH210490   6.202   1.133   5.970  0.3391 -0.7173  0.1696
 3523TIP3    H110491   6.254   1.212   5.953 -2.0140  1.1126  0.8498
 3523TIP3    H210492   6.123   1.166   6.013 -0.4079 -3.5751  1.1885
 3524TIP3   OH210493   5.175   2.824   1.902  0.3672  0.1586  0.8983
 3524TIP3    H110494   5.229   2.881   1.846  0.2044  0.0279  0.6063
 3524TIP3    H210495   5.237   2.787   1.965  0.5662  0.2540  0.7608
 3525TIP3   OH210496   2.986   7.824   6.136 -0.0954 -0.6674 -0.1944
 3525TIP3    H110497   2.985   7.734   6.168  0.3170 -0.4106  0.5734
 3525TIP3    H210498   3.074   7.855   6.157 -0.4634  0.1360  0.1847
 3526TIP3   OH210499   8.603   3.563   3.285 -0.0880 -0.0196 -0.0824
 3526TIP3    H110500   8.658   3.610   3.347  1.3781  0.1950 -1.4698
 3526TIP3    H210501   8.645   3.578   3.200 -2.3384  0.1672 -1.2139
 3527TIP3   OH210502   0.029   0.971   6.214 -0.0426 -0.5820 -0.6401
 3527TIP3    H110503   0.006   0.901   6.153 -2.5545  0.6268 -1.2005
 3527TIP3    H210504  -0.028   0.956   6.290  1.2162 -0.5783  0.3420
 3528TIP3   OH210505   4.590   5.714   4.190 -0.4563  0.3731  0.3523
 3528TIP3    H110506   4.662   5.683   4.246 -0.6098 -1.1721 -0.2436
 3528TIP3    H210507   4.517   5.655   4.210 -0.7359  0.2520 -0.9471
 3529TIP3   OH210508   2.554   0.696   0.923 -0.0132  0.0120 -0.6181
 3529TIP3    H110509   2.519   0.650   0.999  2.2783 -2.6948 -1.0225
 3529TIP3    H210510   2.484   0.692   0.858 -0.6413 -1.0799  0.0920
 3530TIP3   OH210511   2.487   5.098   6.070  0.3874  0.5098  0.2139
 3530TIP3    H110512   2.491   5.154   6.148  0.3956  1.2583 -0.3182
 3530TIP3    H210513   2.494   5.158   5.996 -0.9469 -0.0412 -0.4096
 3531TIP3   OH210514   2.545   2.605   2.228  0.0358 -0.0758 -0.1310
 3531TIP3    H110515   2.517   2.514   2.230 -0.3656  0.0484 -0.1512
 3531TIP3    H210516   2.467   2.655   2.205  0.7471  0.0706 -2.5184
 3532TIP3   OH210517   2.780   3.347   6.618 -0.8046 -0.2548  0.5013
 3532TIP3    H110518   2.843   3.349   6.690  0.1331  2.5823 -0.2612
 3532TIP3    H210519   2.723   3.272   6.638  1.3445 -1.5061  2.4587
 3533TIP3   OH210520   8.361   0.487   5.611 -0.6521 -0.6706 -0.1942
 3533TIP3    H110521   8.318   0.457   5.691 -0.1395 -0.6987  0.0699
 3533TIP3    H210522   8.339   0.580   5.605  1.5207  0.0101  1.4263
 3534TIP3   OH210523   7.593   6.493   2.818  0.3753 -0.3144 -0.5923
 3534TIP3    H110524   7.599   6.460   2.908  0.0053 -1.9353 -1.1195
 3534TIP3    H210525   7.501   6.519   2.808  0.9987  2.5162  0.3159
 3535TIP3   OH210526   1.777   5.388   2.083  0.0818  0.4612  0.2536
 3535TIP3    H110527   1.765   5.343   2.166  0.1842 -0.7243 -0.3466
 3535TIP3    H210528   1.852   5.344   2.042 -0.4470  0.4950 -0.7951
 3536TIP3   OH210529   2.138   6.845   5.440  0.0364 -0.9234 -0.1620
 3536TIP3    H110530   2.150   6.762   5.394  0.9706 -0.4819 -0.7314
 3536TIP3    H210531   2.145   6.912   5.372 -2.4833 -0.4128 -0.0273
 3537TIP3   OH210532   7.783   3.795   2.485 -0.4297 -0.2600  0.7417
 3537TIP3    H110533   7.704   3.767   2.531  1.0820 -2.2506  2.3028
 3537TIP3    H210534   7.769   3.768   2.394 -1.2528 -1.2077  1.1335
 3538TIP3   OH210535   7.654   8.024   2.981 -0.2468  0.0426 -0.1927
 3538TIP3    H110536   7.710   8.090   3.023  1.8481 -1.5413 -0.2726
 3538TIP3    H210537   7.635   8.060   2.894 -0.6369  1.2751  0.3757
 3539TIP3   OH210538   7.886   5.705   0.430  0.3412  0.3670  0.0770
 3539TIP3    H110539   7.953   5.692   0.498 -0.5882 -0.8723  0.7998
 3539TIP3    H210540   7.936   5.708   0.348  1.3805  0.6649  0.6909
 3540TIP3   OH210541   8.533   7.969   1.657  0.0791 -0.1382 -0.4212
 3540TIP3    H110542   8.451   7.960   1.705 -0.3172 -3.0078 -1.4664
 3540TIP3    H210543   8.591   8.015   1.718 -1.4167 -0.6074  1.4457
 3541TIP3   OH210544   5.134   7.584   4.585  0.2510  0.1621 -0.3946
 3541TIP3    H110545   5.120   7.621   4.672 -1.7018  1.7476 -1.2995
 3541TIP3    H210546   5.206   7.636   4.549  0.2821  0.2928 -0.1500
 3542TIP3   OH210547   1.175   3.931   6.488 -0.0327  0.3637 -0.3876
 3542TIP3    H110548   1.156   3.838   6.480  1.5803  0.1493 -2.5753
 3542TIP3    H210549   1.139   3.970   6.408  1.7300  1.1223 -0.8695
 3543TIP3   OH210550   3.206   2.399   4.432  0.6302 -0.3188  0.1461
 3543TIP3    H110551   3.131   2.340   4.436  1.5253 -1.4613  0.6846
 3543TIP3    H210552   3.214   2.421   4.339 -1.5365  1.4198  0.3008
 3544TIP3   OH210553   1.046   0.509   0.047 -0.0683 -0.3367  0.3020
 3544TIP3    H110554   1.010   0.590   0.011 -0.4575 -0.0974  1.1883
 3544TIP3    H210555   0.973   0.447   0.044 -0.0677 -0.3512  0.5542
 3545TIP3   OH210556   4.218   5.151   0.542 -0.0794  0.3909 -0.3974
 3545TIP3    H110557   4.303   5.195   0.551  1.8550 -2.9463 -0.7810
 3545TIP3    H210558   4.215   5.122   0.451 -0.2202 -2.0921  0.3464
 3546TIP3   OH210559   5.083   7.905   2.191 -0.5127  0.4362  0.3252
 3546TIP3    H110560   5.095   7.893   2.097  0.3152 -1.4510  0.6284
 3546TIP3    H210561   5.085   8.000   2.203 -2.5034  0.8342 -1.7618
 3547TIP3   OH210562   4.313   3.596   5.425  0.2051  0.0469  0.0672
 3547TIP3    H110563   4.304   3.602   5.520 -1.5337  0.5719 -0.0845
 3547TIP3    H210564   4.349   3.681   5.399  1.4796 -0.3972  0.3003
 3548TIP3   OH210565   6.416   7.509   0.059  0.0754 -0.2240 -0.2498
 3548TIP3    H110566   6.402   7.520  -0.035 -5.4336 -0.8615  0.1917
 3548TIP3    H210567   6.384   7.421   0.077 -1.3929  0.7902  2.5198
 3549TIP3   OH210568   5.024   7.936  -0.013 -0.0946  0.3206  0.3143
 3549TIP3    H110569   5.107   7.904   0.021  0.1843 -0.7647 -1.2738
 3549TIP3    H210570   4.966   7.937   0.062  0.6973 -1.2135  0.9889
 3550TIP3   OH210571   2.382   1.197   4.376 -0.3663 -0.4572  0.2165
 3550TIP3    H110572   2.377   1.287   4.345  1.4077  0.5654  2.5425
 3550TIP3    H210573   2.411   1.146   4.301 -0.8693  0.9816 -0.9958
 3551TIP3   OH210574   2.023   0.661   0.789  0.0169 -0.5200  0.2682
 3551TIP3    H110575   1.936   0.623   0.776 -0.1074 -0.3819  0.6688
 3551TIP3    H210576   2.017   0.705   0.875  0.6316 -0.9357  0.5295
 3552TIP3   OH210577   6.565   1.459   5.740  1.0277 -0.0367 -0.1655
 3552TIP3    H110578   6.654   1.423   5.736  1.4650  1.0880 -1.1796
 3552TIP3    H210579   6.539   1.469   5.649 -0.5704 -1.3135  0.1085
 3553TIP3   OH210580   0.902   8.098   5.248 -0.3877 -0.2539  0.3404
 3553TIP3    H110581   0.952   8.071   5.171 -1.2070 -0.2601 -0.1998
 3553TIP3    H210582   0.882   8.017   5.294  0.2416 -0.2365  0.6523
 3554TIP3   OH210583   3.592   2.208   1.908 -0.2159 -0.3466 -0.4888
 3554TIP3    H110584   3.595   2.304   1.900  1.6424 -0.2286  0.8721
 3554TIP3    H210585   3.676   2.178   1.873  0.0878 -1.2738  0.9453
 3555TIP3   OH210586   5.725   1.953   1.120 -0.2345 -0.5700  0.3948
 3555TIP3    H110587   5.728   2.043   1.086  2.1252 -0.4231  0.7754
 3555TIP3    H210588   5.685   1.902   1.050 -1.0646  0.6668 -0.0730
 3556TIP3   OH210589   3.046   5.892   1.426 -0.6040  0.2027  0.2054
 3556TIP3    H110590   3.070   5.814   1.374 -1.2168 -1.6220  2.4890
 3556TIP3    H210591   3.039   5.962   1.361 -0.9647 -1.8280 -2.1222
 3557TIP3   OH210592   2.106   0.242   1.065 -0.5691 -0.5253 -0.0413
 3557TIP3    H110593   2.039   0.292   1.113  0.3611 -1.3655  2.2988
 3557TIP3    H210594   2.174   0.227   1.130  1.9188  0.2207 -2.3224
 3558TIP3   OH210595   4.334   0.869   2.243 -0.2620 -0.3265  0.1657
 3558TIP3    H110596   4.272   0.799   2.220  0.2565 -0.4210 -1.0539
 3558TIP3    H210597   4.342   0.920   2.162  1.1548 -0.2437  0.3322
 3559TIP3   OH210598   8.524   0.378   3.033  0.5079  0.1309 -0.2066
 3559TIP3    H110599   8.437   0.374   2.994  0.8074  0.5354 -0.9284
 3559TIP3    H210600   8.578   0.421   2.967  1.7508 -2.0025 -0.6780
 3560TIP3   OH210601   6.192   3.634   2.037 -0.1727  0.6260  0.2635
 3560TIP3    H110602   6.228   3.722   2.048  1.3033  0.2116 -0.8311
 3560TIP3    H210603   6.233   3.603   1.956  0.9137 -1.7971  1.6422
 3561TIP3   OH210604   7.897   2.610   1.665 -0.6475 -0.7132  0.0629
 3561TIP3    H110605   7.819   2.633   1.615 -0.9325 -2.2215 -0.2538
 3561TIP3    H210606   7.931   2.532   1.621  0.1509 -0.9883  1.1239
 3562TIP3   OH210607   8.545   2.709   6.350 -0.3305  0.2558  0.1260
 3562TIP3    H110608   8.539   2.699   6.445 -1.5197  0.4903  0.0918
 3562TIP3    H210609   8.627   2.754   6.336  0.8242 -1.4871  0.9000
 3563TIP3   OH210610   5.497   0.991   6.649 -0.0497 -0.4683 -0.6826
 3563TIP3    H110611   5.543   1.015   6.730 -1.5202 -2.1947  0.7615
 3563TIP3    H210612   5.567   0.975   6.586  1.5490 -3.8287  1.6402
 3564TIP3   OH210613   7.684   7.161   1.769  0.1484  0.3112  0.3174
 3564TIP3    H110614   7.620   7.160   1.697  0.3125 -1.4783  0.1494
 3564TIP3    H210615   7.630   7.168   1.848 -0.3631 -1.7116  0.2121
 3565TIP3   OH210616   6.207   5.924   6.260  0.6326 -0.1549  0.8735
 3565TIP3    H110617   6.238   5.941   6.171 -2.1643  1.2840  0.0558
 3565TIP3    H210618   6.222   5.830   6.273  0.7612 -0.4825 -1.2729
 3566TIP3   OH210619   1.446   2.469   1.312 -0.1651  0.4594  0.1351
 3566TIP3    H110620   1.452   2.429   1.399 -0.7085 -1.7751 -0.7920
 3566TIP3    H210621   1.363   2.516   1.313 -1.2596 -1.3593  0.1911
 3567TIP3   OH210622   4.685   5.271   5.097 -0.0410 -1.0688 -0.1283
 3567TIP3    H110623   4.780   5.280   5.107 -0.1465 -0.5372  0.5404
 3567TIP3    H210624   4.671   5.178   5.083  0.5851 -1.1482 -0.2721
 3568TIP3   OH210625   4.445   1.392   4.556 -0.0134  0.0116 -0.4134
 3568TIP3    H110626   4.523   1.440   4.528 -0.1121 -0.4475 -1.5494
 3568TIP3    H210627   4.451   1.308   4.510 -0.4032 -0.6352  0.6868
 3569TIP3   OH210628   3.520   5.294   0.441 -0.0092  0.2143 -0.4152
 3569TIP3    H110629   3.466   5.335   0.508  1.0888 -0.5147  0.9755
 3569TIP3    H210630   3.517   5.354   0.366 -1.6720  0.7994  0.0887
 3570TIP3   OH210631   0.218   7.201   5.630  0.2935  0.4205  0.1186
 3570TIP3    H110632   0.147   7.236   5.684  1.5184  2.5085  0.4895
 3570TIP3    H210633   0.294   7.199   5.689  1.2219  0.9654 -1.0307
 3571TIP3   OH210634   1.028   3.003   4.020  0.2676  0.2281  0.0255
 3571TIP3    H110635   0.952   3.046   4.061  1.4540  0.6114  1.9522
 3571TIP3    H210636   1.043   3.053   3.940 -0.1368  1.6123  0.7817
 3572TIP3   OH210637   3.794   5.198   3.973  0.2038  0.0191  0.4043
 3572TIP3    H110638   3.873   5.228   4.019  0.7824 -0.2048 -0.4264
 3572TIP3    H210639   3.734   5.273   3.978  1.8930  1.7103 -2.2703
 3573TIP3   OH210640   7.985   4.939   5.239  0.3419 -0.2524  0.7056
 3573TIP3    H110641   7.906   4.993   5.241  0.4645  0.0558 -1.1782
 3573TIP3    H210642   8.057   5.003   5.241  0.4898 -0.3245 -0.9094
 3574TIP3   OH210643   5.533   4.944   4.567  0.1613  0.4504  0.1772
 3574TIP3    H110644   5.481   4.867   4.588 -0.8588  0.9178 -0.5771
 3574TIP3    H210645   5.470   5.015   4.558  1.0143  1.2359  0.1783
 3575TIP3   OH210646   2.990   7.647   5.375 -0.3311 -0.1912  0.3008
 3575TIP3    H110647   3.060   7.634   5.311  0.0289 -2.5632  1.1044
 3575TIP3    H210648   3.000   7.739   5.402 -0.7294  1.0407 -3.1942
 3576TIP3   OH210649   6.680   7.711   0.387 -0.4421 -0.0432  0.7179
 3576TIP3    H110650   6.765   7.718   0.431  0.1168 -1.6057 -0.0582
 3576TIP3    H210651   6.691   7.641   0.324 -1.5014  1.5195 -1.3160
 3577TIP3   OH210652   5.988   5.760   3.154 -0.3305  0.2318  0.1488
 3577TIP3    H110653   5.905   5.716   3.172 -0.6776  0.3587 -1.0672
 3577TIP3    H210654   5.971   5.852   3.177 -0.3668  0.1767  0.3506
 3578TIP3   OH210655   5.195   7.449   0.015 -0.3742  0.3491  0.1084
 3578TIP3    H110656   5.273   7.457   0.069 -0.8869 -0.4524  0.9993
 3578TIP3    H210657   5.170   7.540  -0.005  0.3535  0.6265  0.4392
 3579TIP3   OH210658   7.469   5.445   5.841  0.4286  0.1789 -0.3907
 3579TIP3    H110659   7.418   5.364   5.838  1.1156 -0.2353 -1.1450
 3579TIP3    H210660   7.465   5.473   5.933 -4.0083  2.0286 -0.9107
 3580TIP3   OH210661   7.546   6.641   1.413 -0.3209  0.2047  0.4880
 3580TIP3    H110662   7.551   6.674   1.502 -0.5781 -1.2231  1.0531
 3580TIP3    H210663   7.462   6.596   1.408 -1.2490  1.9573 -1.1028
 3581TIP3   OH210664   4.366   3.006   5.829 -0.3710  0.0755  0.9518
 3581TIP3    H110665   4.280   2.966   5.816 -0.3176  0.4948 -1.0791
 3581TIP3    H210666   4.354   3.097   5.800  0.9745 -0.1277 -0.3793
 3582TIP3   OH210667   8.252   5.122   6.472 -0.3361 -0.3528 -0.1338
 3582TIP3    H110668   8.160   5.107   6.452  0.0989 -2.4311 -0.7674
 3582TIP3    H210669   8.264   5.082   6.559  0.1036 -0.6783 -0.3422
 3583TIP3   OH210670   4.887   4.927   4.258 -0.6168  0.1952  0.1385
 3583TIP3    H110671   4.807   4.913   4.208  0.9173 -1.6318 -2.0119
 3583TIP3    H210672   4.903   5.021   4.251 -2.1623  0.4725 -0.0073
 3584TIP3   OH210673   6.976   5.047   2.529  0.2541  0.0264  0.0658
 3584TIP3    H110674   6.960   5.034   2.435  0.8676  2.4126 -0.4291
 3584TIP3    H210675   7.056   5.100   2.533  0.4844 -0.3857  1.9710
 3585TIP3   OH210676   1.422   1.286   2.368  0.2043 -0.3152  0.2709
 3585TIP3    H110677   1.436   1.269   2.461  0.9244  2.5102  0.7783
 3585TIP3    H210678   1.328   1.305   2.362  0.2671  0.1075  0.5526
 3586TIP3   OH210679   6.865   5.772   5.603  0.3469  0.7154  0.4628
 3586TIP3    H110680   6.959   5.789   5.590  1.0040 -2.3492  0.4445
 3586TIP3    H210681   6.829   5.857   5.629  3.0715  2.0455  0.3132
 3587TIP3   OH210682   8.528   3.766   3.526  0.1433 -0.7459  0.0153
 3587TIP3    H110683   8.622   3.766   3.509  0.2178 -0.0477  0.4070
 3587TIP3    H210684   8.509   3.678   3.557 -0.0121 -2.1860 -3.6444
 3588TIP3   OH210685   3.598   3.099   5.860  0.0594  0.0769 -0.0909
 3588TIP3    H110686   3.644   3.049   5.927 -0.0536  0.4812  0.2930
 3588TIP3    H210687   3.556   3.170   5.908 -1.8139 -0.8330 -0.2549
 3589TIP3   OH210688   6.112   3.812   3.998  0.7536 -0.0816  0.0622
 3589TIP3    H110689   6.165   3.864   4.058  1.0394  0.6940 -0.8351
 3589TIP3    H210690   6.022   3.843   4.012  0.7819 -0.0934  0.2738
 3590TIP3   OH210691   5.919   7.435   5.689  0.3147  0.1388  0.3004
 3590TIP3    H110692   5.895   7.509   5.745  1.0307  0.1286  0.6325
 3590TIP3    H210693   6.014   7.441   5.681  0.4717 -1.1631  0.9140
 3591TIP3   OH210694   8.327   1.294   3.543  0.0108  0.3815  0.4193
 3591TIP3    H110695   8.265   1.239   3.592 -0.9696  0.1366 -1.0337
 3591TIP3    H210696   8.277   1.373   3.523  0.2957  0.3569 -0.4223
 3592TIP3   OH210697   6.663   6.424   2.146  0.7864  0.0853 -0.1461
 3592TIP3    H110698   6.598   6.400   2.211 -0.3037 -0.0541 -1.2514
 3592TIP3    H210699   6.700   6.506   2.178 -0.2244  0.3803  0.3018
 3593TIP3   OH210700   7.467   0.297   6.199  0.1283 -0.3217 -0.3085
 3593TIP3    H110701   7.387   0.338   6.231  0.4373  1.4500 -1.6326
 3593TIP3    H210702   7.479   0.334   6.111  3.4610  1.1396  0.5978
 3594TIP3   OH210703   4.244   3.328   3.311 -0.2322  0.0118 -0.4592
 3594TIP3    H110704   4.320   3.320   3.253  1.4342  0.1489  1.5452
 3594TIP3    H210705   4.168   3.311   3.255  1.2708 -0.1831 -2.5543
 3595TIP3   OH210706   1.840   6.967   6.255 -0.5219  0.0642  0.4893
 3595TIP3    H110707   1.803   7.022   6.186 -1.4941 -2.0445 -0.7670
 3595TIP3    H210708   1.926   6.941   6.222  0.9842  2.5556  2.1032
 3596TIP3   OH210709   7.198   7.562   1.722 -0.1260 -0.3487 -0.3611
 3596TIP3    H110710   7.276   7.509   1.740  1.5008  1.4283 -1.7045
 3596TIP3    H210711   7.161   7.524   1.643  0.9172  0.3064 -1.2018
 3597TIP3   OH210712   4.690   0.921   3.134 -0.0035 -0.5687 -1.0187
 3597TIP3    H110713   4.656   0.971   3.208  1.5152  0.2988 -0.8557
 3597TIP3    H210714   4.643   0.955   3.058 -1.5436 -1.4325 -0.4954
 3598TIP3   OH210715   5.970   5.107   5.809 -0.0273 -0.4294  0.0935
 3598TIP3    H110716   5.900   5.072   5.864  0.4650  0.4984  1.3583
 3598TIP3    H210717   5.947   5.199   5.797  0.1584 -0.4971 -0.8013
 3599TIP3   OH210718   6.227   8.014   4.207  0.1555 -0.0485  0.3779
 3599TIP3    H110719   6.275   8.029   4.289 -2.2408  0.8558  1.7170
 3599TIP3    H210720   6.237   8.095   4.158  4.6085 -1.7599 -2.0753
 3600TIP3   OH210721   4.944   3.366   5.085 -0.2294  0.3855 -0.5405
 3600TIP3    H110722   4.986   3.316   5.155 -0.1687  0.2311 -0.6853
 3600TIP3    H210723   4.936   3.303   5.013 -0.5606  0.4634 -0.5695
 3601TIP3   OH210724   0.873   3.330   6.468 -0.1211  0.4090  0.3590
 3601TIP3    H110725   0.857   3.422   6.449 -0.4151  0.4488  0.7632
 3601TIP3    H210726   0.833   3.317   6.555  1.3160  0.2951  1.0352
 3602TIP3   OH210727   7.345   6.503   4.598 -0.3300  0.6872 -0.2069
 3602TIP3    H110728   7.395   6.558   4.539 -1.8466  2.5682  0.1614
 3602TIP3    H210729   7.407   6.478   4.666  0.6341  1.1217 -0.9043
 3603TIP3   OH210730   2.520   6.602   6.176 -0.4371 -0.4616  0.2420
 3603TIP3    H110731   2.479   6.684   6.201  1.2410  0.4210  0.2914
 3603TIP3    H210732   2.491   6.539   6.242  0.9391  0.9343  2.3145
 3604TIP3   OH210733   4.676   1.911   6.795  0.2329  0.0146 -0.3431
 3604TIP3    H110734   4.736   1.946   6.730  1.4916  1.1326  1.3292
 3604TIP3    H210735   4.603   1.973   6.796  1.3085  1.3343  0.8830
 3605TIP3   OH210736   0.264   7.539   3.138  0.2700 -0.2656  0.0888
 3605TIP3    H110737   0.251   7.472   3.206  0.6058 -0.5914 -0.1676
 3605TIP3    H210738   0.319   7.605   3.180 -0.2750 -0.0137  0.4280
 3606TIP3   OH210739   7.727   3.394   6.870  0.2920  0.2182  1.0219
 3606TIP3    H110740   7.648   3.343   6.889 -0.5894  1.6494  1.3883
 3606TIP3    H210741   7.796   3.351   6.921 -0.0158 -1.6133 -0.0193
 3607TIP3   OH210742   0.518   7.577   0.740  0.3230  0.2110  0.3556
 3607TIP3    H110743   0.527   7.671   0.728 -0.6898  0.2146 -0.5921
 3607TIP3    H210744   0.492   7.544   0.654  2.6600 -1.2369  0.1185
 3608TIP3   OH210745   7.006   5.731   1.027 -0.1223 -0.2533 -0.2436
 3608TIP3    H110746   7.096   5.739   0.996  0.3976 -1.7368  0.7399
 3608TIP3    H210747   6.961   5.809   0.995  2.0912  1.7406  1.1849
 3609TIP3   OH210748   5.600   6.205   4.271 -0.3288 -0.3864 -0.3364
 3609TIP3    H110749   5.587   6.245   4.357 -0.6589 -0.1351 -0.4992
 3609TIP3    H210750   5.692   6.180   4.269  0.0433  0.9652 -0.4863
 3610TIP3   OH210751   6.410   1.832   4.255  0.7824  0.0281 -0.5451
 3610TIP3    H110752   6.358   1.822   4.335 -0.3778 -1.7672 -1.4793
 3610TIP3    H210753   6.442   1.922   4.259 -0.4913  0.4575  1.1999
 3611TIP3   OH210754   3.179   2.354   1.348  0.5876  0.1907 -0.0031
 3611TIP3    H110755   3.257   2.393   1.310  0.6251 -1.2971 -1.5834
 3611TIP3    H210756   3.106   2.393   1.300  0.4560  0.2296  0.2230
 3612TIP3   OH210757   7.126   5.435   3.881 -0.0277  0.1338 -0.1289
 3612TIP3    H110758   7.203   5.431   3.825 -0.1280  0.5816 -0.3047
 3612TIP3    H210759   7.059   5.476   3.827  0.0210  1.0468  0.4649
 3613TIP3   OH210760   0.136   0.757   3.723 -0.8646 -0.1322  0.0972
 3613TIP3    H110761   0.152   0.850   3.738 -0.2994 -0.1256 -0.4871
 3613TIP3    H210762   0.042   0.750   3.709 -0.8715  0.4020 -0.1415
 3614TIP3   OH210763   3.530   8.135   0.662 -0.1610  0.5296 -0.3146
 3614TIP3    H110764   3.504   8.223   0.636 -1.6089 -0.1971 -1.4279
 3614TIP3    H210765   3.623   8.144   0.685 -0.1453  2.2348 -0.8843
 3615TIP3   OH210766   5.864   0.164   0.675  0.0409 -0.9610  0.0511
 3615TIP3    H110767   5.883   0.253   0.704  1.9856 -1.0110 -0.9501
 3615TIP3    H210768   5.785   0.140   0.723 -0.2532  1.1227  0.6903
 3616TIP3   OH210769   5.530   2.733   3.762  0.2842 -0.7523 -0.4277
 3616TIP3    H110770   5.458   2.706   3.704 -1.7673 -2.4162  2.5912
 3616TIP3    H210771   5.498   2.713   3.850  3.0608  1.9114  1.3717
 3617TIP3   OH210772   8.179   2.188   2.295 -0.4314 -0.2274 -0.0579
 3617TIP3    H110773   8.153   2.123   2.230  0.2619  0.3743 -0.9753
 3617TIP3    H210774   8.174   2.143   2.379  0.3037 -1.5602 -0.7005
 3618TIP3   OH210775   2.095   3.392   2.109 -0.4326  0.4543  0.1758
 3618TIP3    H110776   2.122   3.301   2.124  0.1702  0.6393  0.2420
 3618TIP3    H210777   2.007   3.385   2.071 -0.2902 -0.1615 -0.0538
 3619TIP3   OH210778   4.912   5.013   3.581 -0.4531 -0.3224  0.0159
 3619TIP3    H110779   4.920   5.068   3.503  0.2173  2.0223  1.6385
 3619TIP3    H210780   4.935   4.925   3.550 -2.1655  0.1045 -2.8283
 3620TIP3   OH210781   7.109   1.409   6.529 -0.4965  0.4518 -0.3842
 3620TIP3    H110782   7.116   1.321   6.567  0.0866  0.7794  0.2983
 3620TIP3    H210783   7.023   1.410   6.486 -0.3813 -0.5503 -0.6737
 3621TIP3   OH210784   0.047   1.675   0.962  0.0034  0.2176  0.1292
 3621TIP3    H110785   0.084   1.677   0.874  0.1210  1.1903  0.1920
 3621TIP3    H210786   0.106   1.618   1.011  0.6332  0.6391 -0.1216
 3622TIP3   OH210787   0.212   6.254   4.605 -0.0781  1.0888 -0.5683
 3622TIP3    H110788   0.245   6.189   4.542 -0.7967  1.3649 -1.2521
 3622TIP3    H210789   0.124   6.275   4.573 -0.5500  1.0663  0.6717
 3623TIP3   OH210790   0.006   5.686   2.860 -0.5789  0.1626  0.5663
 3623TIP3    H110791   0.069   5.615   2.872 -0.5177  0.3832  1.6420
 3623TIP3    H210792  -0.051   5.681   2.937 -0.2985  1.5554  0.8856
 3624TIP3   OH210793   6.993   2.406   5.188  0.0384 -0.0575 -0.4565
 3624TIP3    H110794   7.029   2.356   5.115 -0.3811  1.1541 -1.5229
 3624TIP3    H210795   6.914   2.448   5.153 -1.0117 -0.6323  1.1222
 3625TIP3   OH210796   3.208   7.960   5.291 -0.2298 -0.3131 -0.1553
 3625TIP3    H110797   3.144   7.901   5.332 -2.0756  1.7428  0.0843
 3625TIP3    H210798   3.215   7.928   5.201 -0.6554 -1.2873  0.1354
 3626TIP3   OH210799   7.080   2.413   2.529 -0.0900 -0.3856  0.0298
 3626TIP3    H110800   7.168   2.405   2.492 -0.5491 -0.8759 -0.9984
 3626TIP3    H210801   7.039   2.329   2.512 -1.6332  0.6556 -1.9107
 3627TIP3   OH210802   6.263   4.235   5.456 -0.1345  0.0002  0.1109
 3627TIP3    H110803   6.190   4.275   5.409  0.5429  0.7860 -0.3132
 3627TIP3    H210804   6.259   4.143   5.432  0.3823  0.4243 -1.8259
 3628TIP3   OH210805   0.606   6.657   0.784  0.0701 -0.4850  0.5455
 3628TIP3    H110806   0.699   6.675   0.775  0.1179 -0.8259  0.3371
 3628TIP3    H210807   0.564   6.715   0.720  0.3521 -2.3261 -1.4374
 3629TIP3   OH210808   5.428   2.773   4.790 -0.0936 -0.0461 -0.1649
 3629TIP3    H110809   5.477   2.701   4.751 -0.6896  0.7726 -2.6050
 3629TIP3    H210810   5.440   2.846   4.729  0.2909  1.8974  2.0817
 3630TIP3   OH210811   3.695   7.899   5.932  0.6629 -0.1094 -0.4486
 3630TIP3    H110812   3.745   7.897   6.014  0.9577  2.4572 -0.4837
 3630TIP3    H210813   3.749   7.950   5.872 -1.1363  1.1589 -1.0808
 3631TIP3   OH210814   8.632   7.291   2.657 -0.4662 -0.0386 -0.4269
 3631TIP3    H110815   8.684   7.369   2.677  0.9699 -1.2034  0.5898
 3631TIP3    H210816   8.605   7.257   2.742  0.1801 -1.4577 -0.7592
 3632TIP3   OH210817   0.050   4.066   6.425 -0.2268  0.3802  0.4125
 3632TIP3    H110818   0.072   4.022   6.344  1.2943 -0.0530  1.0390
 3632TIP3    H210819   0.037   4.158   6.399 -1.5021 -0.0346 -0.5675
 3633TIP3   OH210820   5.598   0.974   4.871  0.3403  0.0779 -0.2596
 3633TIP3    H110821   5.622   0.984   4.963  1.7158  2.4546 -0.8027
 3633TIP3    H210822   5.503   0.976   4.871  0.2273 -1.9086  1.2421
 3634TIP3   OH210823   1.523   2.785   6.752 -0.2679  0.0116 -0.5287
 3634TIP3    H110824   1.445   2.731   6.740 -0.3364 -0.1132  0.3933
 3634TIP3    H210825   1.587   2.748   6.692 -0.2706 -1.2029  0.1639
 3635TIP3   OH210826   7.499   4.575   1.801  0.1979  0.2483 -0.1697
 3635TIP3    H110827   7.517   4.485   1.772  1.0058  0.0489  0.8876
 3635TIP3    H210828   7.512   4.573   1.896 -4.4233  0.3511  0.7099
 3636TIP3   OH210829   4.054   2.126   3.435 -0.7986 -0.3533  0.1438
 3636TIP3    H110830   4.013   2.125   3.521 -0.9234 -0.7203  0.0809
 3636TIP3    H210831   3.986   2.097   3.375 -0.2425 -1.7280  0.1384
 3637TIP3   OH210832   1.715   1.925   2.319  0.2372 -0.2660  0.1524
 3637TIP3    H110833   1.659   1.848   2.306 -0.5776  0.5353 -1.3710
 3637TIP3    H210834   1.655   1.994   2.345  0.1290  1.0339 -3.0868
 3638TIP3   OH210835   3.740   0.815   5.666 -0.5224  0.4102 -0.0643
 3638TIP3    H110836   3.649   0.793   5.686 -0.8594  1.3341 -0.4787
 3638TIP3    H210837   3.757   0.774   5.581 -0.0973 -0.8979  0.6266
 3639TIP3   OH210838   4.486   2.103   6.767 -0.0668  0.1402  0.4169
 3639TIP3    H110839   4.417   2.134   6.708 -0.1952  0.5144  0.7625
 3639TIP3    H210840   4.552   2.173   6.766  0.2599 -0.1681  0.1698
 3640TIP3   OH210841   4.862   2.195   6.047  0.0672  0.8636  0.1621
 3640TIP3    H110842   4.853   2.101   6.061 -0.2163  0.8928  0.1816
 3640TIP3    H210843   4.886   2.230   6.133 -2.4625  1.1478  0.8302
 3641TIP3   OH210844   7.882   6.592   5.592  0.0131 -0.1917 -0.2515
 3641TIP3    H110845   7.874   6.533   5.517  1.4187  0.0201 -0.6045
 3641TIP3    H210846   7.961   6.564   5.637 -0.8517 -0.3629  1.2335
 3642TIP3   OH210847   0.490   8.181   2.258  0.2604 -0.7958  0.1897
 3642TIP3    H110848   0.427   8.139   2.201 -0.3369  0.0932  0.1719
 3642TIP3    H210849   0.446   8.261   2.287  1.0534 -0.5898  0.8525
 3643TIP3   OH210850   0.517   3.974   6.735  0.3023 -0.4220 -0.4150
 3643TIP3    H110851   0.559   3.949   6.653  1.7429  1.2215 -0.2602
 3643TIP3    H210852   0.511   3.893   6.786 -0.7191 -1.4824 -2.1593
 3644TIP3   OH210853   7.965   3.814   3.558  0.4236 -0.5410  0.3336
 3644TIP3    H110854   7.949   3.720   3.569  0.2329 -0.5263  0.1880
 3644TIP3    H210855   8.046   3.830   3.606  1.8205 -1.2525 -1.6317
 3645TIP3   OH210856   0.599   5.143   6.740  0.0503 -0.5879 -0.5568
 3645TIP3    H110857   0.513   5.101   6.748 -0.0560 -0.1211  1.1392
 3645TIP3    H210858   0.620   5.137   6.647 -1.2279 -1.8716 -0.8002
 3646TIP3   OH210859   1.353   0.512   2.414  0.1285 -0.0991 -0.2114
 3646TIP3    H110860   1.380   0.450   2.481  0.4385  0.0598 -0.1907
 3646TIP3    H210861   1.292   0.462   2.358 -0.1457 -0.2220  0.1958
 3647TIP3   OH210862   6.120   4.757   1.700 -0.4153 -0.2663  0.6663
 3647TIP3    H110863   6.094   4.750   1.792 -0.7351  1.0928  0.6975
 3647TIP3    H210864   6.038   4.748   1.651 -0.2873 -0.6677  0.5160
 3648TIP3   OH210865   3.293   6.830   2.008  0.8320 -0.1172 -0.0275
 3648TIP3    H110866   3.236   6.780   1.949  1.5754 -0.1355 -0.7472
 3648TIP3    H210867   3.371   6.775   2.019  0.4875 -0.3611  1.4157
 3649TIP3   OH210868   3.287   4.966   6.488  0.2811  0.4461 -0.6063
 3649TIP3    H110869   3.297   5.052   6.448  1.1230 -0.2660 -2.0005
 3649TIP3    H210870   3.369   4.921   6.467  1.3563  0.4107  2.9880
 3650TIP3   OH210871   1.737   6.113   2.480  0.0013  0.1260 -0.4260
 3650TIP3    H110872   1.692   6.197   2.490  1.6263  0.9937 -0.0840
 3650TIP3    H210873   1.793   6.106   2.557 -0.1194 -1.3021 -0.4384
 3651TIP3   OH210874   2.423   0.214   4.411  0.2172  0.8773 -0.0032
 3651TIP3    H110875   2.484   0.147   4.441 -1.0892  0.0191  0.8138
 3651TIP3    H210876   2.399   0.186   4.322 -0.6458 -0.0058  0.4866
 3652TIP3   OH210877   7.492   1.287   6.586  0.5159 -0.2249  0.0817
 3652TIP3    H110878   7.542   1.217   6.629 -1.5425 -2.0100 -0.2687
 3652TIP3    H210879   7.401   1.258   6.592 -0.2364  1.5954 -1.6508
 3653TIP3   OH210880   2.074   3.045   0.543  0.9608  0.2467 -0.5310
 3653TIP3    H110881   2.167   3.041   0.521  0.7360 -0.0495 -1.4510
 3653TIP3    H210882   2.029   3.016   0.464  0.1154 -0.5835  0.2233
 3654TIP3   OH210883   5.511   2.639   1.292 -0.3002  0.2542 -0.6698
 3654TIP3    H110884   5.425   2.597   1.287  0.1974 -1.1723  1.5686
 3654TIP3    H210885   5.506   2.696   1.368  0.9347 -0.4065 -0.0612
 3655TIP3   OH210886   0.899   6.005   5.739  0.0920 -0.2274  0.6417
 3655TIP3    H110887   0.824   5.946   5.751  1.4618 -2.2073 -0.1472
 3655TIP3    H210888   0.934   6.017   5.827 -0.1138 -0.7183  0.7944
 3656TIP3   OH210889   3.406   5.015   4.214 -0.1011 -0.1106 -0.1750
 3656TIP3    H110890   3.311   5.024   4.206 -0.5820 -3.0457  1.1838
 3656TIP3    H210891   3.434   4.988   4.127 -1.4243 -4.6132  0.5309
 3657TIP3   OH210892   1.746   3.107   0.422 -0.0781 -0.5564  0.2697
 3657TIP3    H110893   1.661   3.144   0.397 -0.0793 -1.2020 -0.7345
 3657TIP3    H210894   1.733   3.012   0.416  1.2101 -0.6716 -1.7777
 3658TIP3   OH210895   5.366   5.176   4.897 -0.4027 -0.5061  0.4335
 3658TIP3    H110896   5.453   5.214   4.885 -0.4858 -0.4095  0.1541
 3658TIP3    H210897   5.328   5.174   4.810 -0.8275 -0.2021  0.6118
 3659TIP3   OH210898   4.226   1.536   4.123  0.2631 -0.2519  0.2929
 3659TIP3    H110899   4.264   1.602   4.066  0.5672  0.4230  1.2758
 3659TIP3    H210900   4.155   1.581   4.168 -0.0777 -0.8274  0.3436
 3660TIP3   OH210901   0.548   0.957   0.112  0.3798 -0.3441  0.3957
 3660TIP3    H110902   0.602   0.883   0.141  3.6819  1.5592 -0.3034
 3660TIP3    H210903   0.582   1.031   0.163 -0.0773  1.3705 -1.6680
 3661TIP3   OH210904   1.016   3.703   3.147  0.4413  0.1350 -0.2312
 3661TIP3    H110905   1.036   3.765   3.216 -0.3238 -0.3499  0.4493
 3661TIP3    H210906   0.997   3.757   3.070 -0.6822  0.7671  0.4697
 3662TIP3   OH210907   7.132   5.942   1.998  0.7429 -0.5113  0.4151
 3662TIP3    H110908   7.171   6.013   2.050  0.6589  0.4671 -0.8081
 3662TIP3    H210909   7.057   5.983   1.955  0.2884 -1.5373  0.2086
 3663TIP3   OH210910   1.222   2.755   0.584 -0.0565 -0.3234 -0.0178
 3663TIP3    H110911   1.134   2.721   0.569  0.4058 -1.6735  0.1803
 3663TIP3    H210912   1.236   2.746   0.678  0.1101  0.3740  0.0311
 3664TIP3   OH210913   3.998   5.754   4.071 -0.4130 -0.1102  0.1771
 3664TIP3    H110914   4.070   5.695   4.053 -1.9203 -1.6298 -1.2501
 3664TIP3    H210915   3.993   5.811   3.993 -0.7459 -0.0423  0.2433
 3665TIP3   OH210916   6.830   3.916   3.916 -0.2793  0.1291  0.4228
 3665TIP3    H110917   6.777   3.892   3.992  0.4575  0.1210  0.9410
 3665TIP3    H210918   6.854   4.008   3.932 -2.0779  0.8956 -0.9612
 3666TIP3   OH210919   0.328   1.452   0.598 -0.3170 -0.3670  0.0921
 3666TIP3    H110920   0.376   1.411   0.670  1.0319 -0.7802 -0.9928
 3666TIP3    H210921   0.255   1.393   0.580 -0.5111 -0.3895  0.9437
 3667TIP3   OH210922   5.129   3.577   6.907 -0.3800 -0.1418 -0.0911
 3667TIP3    H110923   5.219   3.555   6.931 -1.0227 -2.1168  0.7022
 3667TIP3    H210924   5.088   3.603   6.989 -0.0889  2.7868 -0.7475
 3668TIP3   OH210925   2.126   4.702   0.651  0.1565  0.4079  0.0836
 3668TIP3    H110926   2.077   4.750   0.585 -0.5184  1.0081  0.9903
 3668TIP3    H210927   2.216   4.733   0.642 -0.1245  1.2601  0.1282
 3669TIP3   OH210928   2.637   3.008   5.819 -0.1052 -0.0864  0.2576
 3669TIP3    H110929   2.708   3.006   5.755 -0.2584 -1.2108  0.0980
 3669TIP3    H210930   2.678   3.040   5.899  0.6127 -0.8186  0.1972
 3670TIP3   OH210931   4.419   6.244   6.778 -0.5296  0.2597  0.0925
 3670TIP3    H110932   4.473   6.199   6.713  0.2753  1.9204 -0.4497
 3670TIP3    H210933   4.330   6.240   6.742 -0.3221 -0.0829 -0.3972
 3671TIP3   OH210934   4.626   6.239   5.215  0.0163 -0.2320  0.1704
 3671TIP3    H110935   4.619   6.146   5.234  1.2897 -0.5135 -0.5869
 3671TIP3    H210936   4.687   6.272   5.281 -1.0564  0.2522  0.9461
 3672TIP3   OH210937   3.974   2.241   2.947 -0.4919  0.0714 -0.5326
 3672TIP3    H110938   4.040   2.264   3.012 -0.9170  1.0814 -0.4529
 3672TIP3    H210939   3.957   2.322   2.899 -2.6245  0.1656  0.2851
 3673TIP3   OH210940   5.033   7.562   2.939 -0.0903  0.6145 -0.9844
 3673TIP3    H110941   4.970   7.492   2.923  1.6714 -2.1825  2.7186
 3673TIP3    H210942   4.990   7.618   3.004  0.4088 -0.1984  0.0873
 3674TIP3   OH210943   8.504   6.835   4.022 -0.0749  0.1685 -0.5161
 3674TIP3    H110944   8.530   6.925   4.042  2.7615 -0.9803  1.5460
 3674TIP3    H210945   8.409   6.833   4.039  0.2977  2.0612  2.5318
 3675TIP3   OH210946   5.775   7.575   2.778 -0.4048 -0.2492 -0.1893
 3675TIP3    H110947   5.862   7.545   2.749 -0.5973 -0.9659 -0.0541
 3675TIP3    H210948   5.720   7.497   2.771 -0.5116 -0.4311  1.8805
 3676TIP3   OH210949   8.168   7.694   0.859  0.1969  0.5042 -0.2459
 3676TIP3    H110950   8.242   7.667   0.805  2.8598  1.3780  2.6880
 3676TIP3    H210951   8.151   7.619   0.916  0.5349  1.1710  0.7633
 3677TIP3   OH210952   3.009   3.009   1.088  0.2653 -0.5620  0.0932
 3677TIP3    H110953   2.936   3.000   1.025 -0.5137  0.0052  0.8906
 3677TIP3    H210954   2.995   2.938   1.150 -0.0704  0.0185  0.6915
 3678TIP3   OH210955   2.713   5.483   3.483  0.6704 -0.3052 -0.0173
 3678TIP3    H110956   2.734   5.408   3.427  0.7225 -0.5789  0.3725
 3678TIP3    H210957   2.793   5.501   3.531  0.9428  0.5764 -0.7692
 3679TIP3   OH210958   6.911   5.755   2.635  0.0087 -0.0886 -0.2528
 3679TIP3    H110959   6.963   5.685   2.596  1.8560  0.6565  0.7537
 3679TIP3    H210960   6.846   5.710   2.689  0.6842 -1.0507 -0.2150
 3680TIP3   OH210961   0.365   2.925   6.410  0.3965 -0.0121  0.4805
 3680TIP3    H110962   0.419   2.850   6.387  1.8374  1.4384 -1.1855
 3680TIP3    H210963   0.407   2.962   6.488 -0.3866 -0.9456  1.3775
 3681TIP3   OH210964   6.547   4.904   6.251  0.3434 -0.1585 -0.2712
 3681TIP3    H110965   6.616   4.856   6.204  0.9598  0.8390 -0.4103
 3681TIP3    H210966   6.586   4.989   6.270 -0.1800 -0.2651  1.3887
 3682TIP3   OH210967   1.899   7.346   1.552 -0.1866  0.5689  0.4719
 3682TIP3    H110968   1.855   7.393   1.623  1.9984  1.2735  1.4590
 3682TIP3    H210969   1.929   7.415   1.493 -0.6197  0.0830 -0.3255
 3683TIP3   OH210970   8.072   4.756   3.660 -0.1211 -0.1645  1.0431
 3683TIP3    H110971   8.147   4.696   3.664 -1.0021 -1.2808  1.1920
 3683TIP3    H210972   8.091   4.813   3.585  0.8558 -0.4391  1.0658
 3684TIP3   OH210973   1.594   0.842   4.028 -0.7213 -0.6993  0.1297
 3684TIP3    H110974   1.506   0.815   4.054 -0.3857 -2.0843 -0.0792
 3684TIP3    H210975   1.641   0.852   4.111 -1.2942  0.9837  0.2973
 3685TIP3   OH210976   4.872   7.522   1.602 -0.1426  0.1425  0.2591
 3685TIP3    H110977   4.799   7.571   1.565 -1.2407 -0.3042  1.7259
 3685TIP3    H210978   4.855   7.522   1.696  2.2679  0.8219  0.7464
 3686TIP3   OH210979   6.779   2.505   3.415 -0.6544 -0.2033  0.2592
 3686TIP3    H110980   6.850   2.484   3.475 -0.6855 -0.9020  0.0656
 3686TIP3    H210981   6.800   2.592   3.382  1.1535 -1.1742 -1.3019
 3687TIP3   OH210982   7.114   2.224   2.801 -0.7209 -0.0886 -0.3387
 3687TIP3    H110983   7.085   2.162   2.868  2.0568 -1.5493 -0.3333
 3687TIP3    H210984   7.088   2.183   2.719 -1.0845  0.0017 -0.2726
 3688TIP3   OH210985   5.618   1.350   4.758 -0.1466 -0.1686  0.1613
 3688TIP3    H110986   5.691   1.290   4.748 -0.0718 -0.6091  2.5934
 3688TIP3    H210987   5.567   1.341   4.678  1.2296 -1.5725 -0.5941
 3689TIP3   OH210988   5.707   0.394   6.766  0.0400 -0.3753 -0.1593
 3689TIP3    H110989   5.703   0.308   6.808 -0.2016 -0.4249 -0.2856
 3689TIP3    H210990   5.618   0.428   6.773  0.0970 -0.2091 -0.2654
 3690TIP3   OH210991   1.810   2.533   5.587  0.3239 -0.8752 -0.2028
 3690TIP3    H110992   1.775   2.449   5.556 -1.6924 -0.4559  0.7485
 3690TIP3    H210993   1.753   2.599   5.549  0.1580 -0.1244  1.2594
 3691TIP3   OH210994   5.193   6.175   7.068 -0.4754 -0.1720  0.0291
 3691TIP3    H110995   5.278   6.151   7.104 -0.9707 -2.2415 -0.0380
 3691TIP3    H210996   5.167   6.253   7.117  1.1544  0.1226  0.4884
 3692TIP3   OH210997   7.108   5.663   2.020 -0.4464 -0.5835 -0.2612
 3692TIP3    H110998   7.094   5.755   1.999 -0.3787 -0.5459 -0.1460
 3692TIP3    H210999   7.108   5.618   1.936 -0.1353 -0.4305 -0.3438
 3693TIP3   OH211000   0.674   3.317   6.233 -0.0143  0.0394 -0.1869
 3693TIP3    H111001   0.697   3.409   6.243 -0.9419  0.2254  0.3424
 3693TIP3    H211002   0.755   3.275   6.203  1.1577  0.5748  2.0194
 3694TIP3   OH211003   2.657   1.037   2.086  0.1517 -0.4286  0.5046
 3694TIP3    H111004   2.744   1.001   2.070  1.0320  1.7636  0.0167
 3694TIP3    H211005   2.654   1.052   2.181  0.2391 -0.6895  0.5476
 3695TIP3   OH211006   4.048   4.190   1.458 -0.4018  0.2496 -0.0928
 3695TIP3    H111007   3.960   4.227   1.463  0.6798  2.9862  1.0982
 3695TIP3    H211008   4.084   4.224   1.376 -0.1234  0.0268 -0.0633
 3696TIP3   OH211009   0.226   0.898   0.040 -0.6027  0.4384 -0.0295
 3696TIP3    H111010   0.174   0.946   0.105  0.2848  0.7522  0.4594
 3696TIP3    H211011   0.316   0.924   0.058 -0.3758  0.8990 -1.6953
 3697TIP3   OH211012   5.991   6.070   1.099 -0.3814 -0.0235  0.3136
 3697TIP3    H111013   5.998   6.150   1.151 -1.0145  0.7987 -0.8089
 3697TIP3    H211014   6.080   6.054   1.068 -0.7060  2.2227 -2.1955
 3698TIP3   OH211015   4.346   3.747   2.369  0.4035 -0.1759  0.1129
 3698TIP3    H111016   4.320   3.656   2.380  2.1271 -0.5216  1.6347
 3698TIP3    H211017   4.436   3.751   2.400  0.0477  2.2520  1.0507
 3699TIP3   OH211018   6.148   3.005   1.244 -0.0229  0.0002  0.4752
 3699TIP3    H111019   6.167   2.930   1.300  1.3487 -0.9203 -1.1294
 3699TIP3    H211020   6.174   2.977   1.157 -3.4968  0.8150 -0.9918
 3700TIP3   OH211021   4.330   0.823   6.244 -0.2172 -0.2467  0.4881
 3700TIP3    H111022   4.337   0.732   6.216  0.6859 -0.2937  0.8234
 3700TIP3    H211023   4.240   0.848   6.223 -0.2079 -0.9360 -0.4365
 3701TIP3   OH211024   2.114   8.107   0.617  0.1558  0.0404  0.3119
 3701TIP3    H111025   2.133   8.037   0.554 -0.5062 -1.0295  1.2570
 3701TIP3    H211026   2.018   8.110   0.621  0.1873  0.6065  0.7120
 3702TIP3   OH211027   2.845   7.599   6.787  0.0637 -0.6364  0.1900
 3702TIP3    H111028   2.866   7.566   6.700 -0.1029 -1.0351  0.3001
 3702TIP3    H211029   2.881   7.535   6.847 -0.8737 -0.9934  0.3925
 3703TIP3   OH211030   7.025   0.498   0.704 -0.3646  0.2939  0.8390
 3703TIP3    H111031   6.980   0.414   0.700  0.2896 -0.0292 -1.0900
 3703TIP3    H211032   7.084   0.492   0.779 -0.4844 -0.8796  0.8467
 3704TIP3   OH211033   4.351   6.470   1.902 -0.1090 -0.0934 -0.4995
 3704TIP3    H111034   4.391   6.463   1.989 -0.8884 -1.9990 -0.2223
 3704TIP3    H211035   4.400   6.539   1.858  0.9712  0.2283  1.1087
 3705TIP3   OH211036   0.762   2.993   4.499 -0.2821  0.5483 -0.1047
 3705TIP3    H111037   0.849   3.032   4.511  0.8511 -1.6723 -0.5253
 3705TIP3    H211038   0.723   3.043   4.428 -0.5932  3.4394  1.9141
 3706TIP3   OH211039   0.612   6.083   0.783 -0.4004 -0.0076  0.4887
 3706TIP3    H111040   0.563   6.045   0.710  0.2880 -0.5995  0.3211
 3706TIP3    H211041   0.658   6.008   0.822  0.4842  0.5622  0.5530
 3707TIP3   OH211042   7.719   7.707   2.623 -0.1705  0.5978 -0.0498
 3707TIP3    H111043   7.779   7.754   2.565  1.0254 -0.2820  0.4216
 3707TIP3    H211044   7.766   7.701   2.706 -1.3446  0.7632  0.6502
 3708TIP3   OH211045   4.746   3.653   0.725  0.1555 -0.3759  0.1976
 3708TIP3    H111046   4.701   3.719   0.674  0.5277  0.9565  1.5276
 3708TIP3    H211047   4.729   3.677   0.816  0.8426 -1.7345  0.7186
 3709TIP3   OH211048   3.857   3.037   1.565 -0.0943  0.3915  0.4576
 3709TIP3    H111049   3.828   3.099   1.498  1.6765 -0.3629 -1.0720
 3709TIP3    H211050   3.789   2.969   1.566 -0.9472  1.2145  0.6277
 3710TIP3   OH211051   5.316   0.660   6.781 -0.8181 -0.2189  0.9470
 3710TIP3    H111052   5.252   0.631   6.717 -0.0719 -2.2128  1.0377
 3710TIP3    H211053   5.288   0.749   6.805 -0.6553  1.0038 -2.7159
 3711TIP3   OH211054   2.017   4.963   4.172  0.2839  0.3955 -0.2729
 3711TIP3    H111055   2.075   4.886   4.177  1.5327  1.3344  0.3922
 3711TIP3    H211056   2.023   5.003   4.259 -2.5578 -0.2576  0.3268
 3712TIP3   OH211057   3.190   4.294   1.837 -0.0537  0.1020 -0.0774
 3712TIP3    H111058   3.148   4.376   1.811  0.8055  0.2998 -0.8735
 3712TIP3    H211059   3.283   4.316   1.844  0.1480 -0.7410 -0.0305
 3713TIP3   OH211060   8.357   2.301   1.200 -0.0146  0.1507 -0.0048
 3713TIP3    H111061   8.287   2.314   1.264 -0.1478 -0.7863  0.0456
 3713TIP3    H211062   8.347   2.375   1.139  0.4859  1.3967  1.3616
 3714TIP3   OH211063   5.830   4.781   0.295  0.4253  0.6500 -0.5933
 3714TIP3    H111064   5.925   4.776   0.308  0.2308 -0.1943  0.6561
 3714TIP3    H211065   5.813   4.723   0.222  0.6787 -0.6596  0.3584
 3715TIP3   OH211066   7.858   0.558   1.093  0.2403 -0.3025 -0.1264
 3715TIP3    H111067   7.924   0.596   1.035  1.0890 -0.9446  0.4130
 3715TIP3    H211068   7.904   0.492   1.143 -0.6330 -0.2112  0.8343
 3716TIP3   OH211069   7.716   4.353   6.892 -0.5826 -0.3000  0.2623
 3716TIP3    H111070   7.808   4.379   6.883 -0.4300 -0.7908  0.3203
 3716TIP3    H211071   7.718   4.279   6.953 -1.0555 -0.1068  0.5169
 3717TIP3   OH211072   4.956   5.333   5.818  0.4035  0.0708 -0.2368
 3717TIP3    H111073   4.958   5.252   5.870 -1.7584 -0.6654 -1.1471
 3717TIP3    H211074   4.862   5.354   5.811  0.8718  2.1728 -0.7768
 3718TIP3   OH211075   7.948   0.330   0.862 -0.1050 -0.2129 -0.0623
 3718TIP3    H111076   7.886   0.398   0.891  0.0275 -0.3990  0.6947
 3718TIP3    H211077   7.895   0.251   0.857 -0.1770 -0.1363 -0.5730
 3719TIP3   OH211078   2.237   2.317   0.144  0.2665 -0.3598  0.3954
 3719TIP3    H111079   2.224   2.349   0.233 -1.1444 -3.2925  1.3832
 3719TIP3    H211080   2.332   2.314   0.133  0.5099 -1.3204  2.3849
 3720TIP3   OH211081   5.203   2.591   2.340  0.4577 -0.4000  0.8525
 3720TIP3    H111082   5.199   2.500   2.313  0.4376 -0.2152  0.2270
 3720TIP3    H211083   5.255   2.590   2.420  0.8324 -0.9034  0.6037
 3721TIP3   OH211084   2.355   7.864   5.879  0.2297  0.2158  0.2659
 3721TIP3    H111085   2.368   7.873   5.973 -0.7444 -0.2260  0.4532
 3721TIP3    H211086   2.318   7.948   5.851 -2.8839 -0.7877  0.9324
 3722TIP3   OH211087   8.586   4.095   7.053 -0.0369 -0.2535 -0.0989
 3722TIP3    H111088   8.497   4.117   7.024  0.1910  1.5601  0.4717
 3722TIP3    H211089   8.573   4.036   7.127 -0.7948  0.3241  0.2424
 3723TIP3   OH211090   4.104   4.544   3.332 -0.1841  0.4097 -0.9396
 3723TIP3    H111091   4.163   4.485   3.286 -0.8085 -1.4224  0.4507
 3723TIP3    H211092   4.032   4.559   3.271 -1.0226 -1.9952 -0.6657
 3724TIP3   OH211093   4.177   3.956   0.865 -0.6270  0.1514  1.0870
 3724TIP3    H111094   4.223   3.961   0.781 -0.0910  2.9092  1.4622
 3724TIP3    H211095   4.085   3.970   0.843 -0.7950 -1.3274  0.7655
 3725TIP3   OH211096   3.647   0.705   4.237  1.0937  0.2378 -0.1107
 3725TIP3    H111097   3.645   0.708   4.141  1.6084  0.8220 -0.1065
 3725TIP3    H211098   3.582   0.769   4.265  1.5671  0.7015 -0.0680
 3726TIP3   OH211099   6.049   2.693   5.316  0.8444 -0.3135  0.1706
 3726TIP3    H111100   6.011   2.772   5.277  0.9777 -0.2875  0.0933
 3726TIP3    H211101   5.980   2.628   5.309  0.7706 -0.2329  0.1392
 3727TIP3   OH211102   4.438   2.687   6.031  0.3016  0.1936 -0.3014
 3727TIP3    H111103   4.377   2.760   6.044  1.3875  0.8210  1.8386
 3727TIP3    H211104   4.445   2.678   5.936 -1.8216  1.1662 -0.6268
 3728TIP3   OH211105   6.542   3.383   4.402 -0.1008  0.2941 -0.2319
 3728TIP3    H111106   6.482   3.331   4.349 -0.0110 -0.0882  0.0406
 3728TIP3    H211107   6.577   3.322   4.467  0.0291  0.6821  0.0703
 3729TIP3   OH211108   3.798   2.975   6.018 -0.6471 -0.2492  0.4782
 3729TIP3    H111109   3.881   3.015   5.992 -0.5750  0.5067  1.7574
 3729TIP3    H211110   3.815   2.941   6.106 -1.0120 -2.2675 -0.1833
 3730TIP3   OH211111   3.664   4.870   1.425 -0.2257 -0.6443  0.3406
 3730TIP3    H111112   3.609   4.914   1.361 -1.4884 -1.8675  0.5503
 3730TIP3    H211113   3.638   4.907   1.510 -0.1281 -0.6360  0.3679
 3731TIP3   OH211114   3.533   4.225   3.712 -0.4748 -0.4485 -0.0426
 3731TIP3    H111115   3.443   4.251   3.729 -0.5972  0.1011 -1.4452
 3731TIP3    H211116   3.526   4.151   3.651  0.0366  1.3804 -2.4492
 3732TIP3   OH211117   4.745   0.528   0.113  0.1697  0.4172 -0.4276
 3732TIP3    H111118   4.674   0.526   0.050 -0.3473  0.0834  0.1470
 3732TIP3    H211119   4.715   0.472   0.185  0.3577  1.4739  0.5121
 3733TIP3   OH211120   2.688   3.636   4.243 -0.0767 -0.0043 -0.5114
 3733TIP3    H111121   2.644   3.658   4.325 -1.6391  1.0477 -1.5671
 3733TIP3    H211122   2.779   3.622   4.267 -0.4775  0.4164  1.3808
 3734TIP3   OH211123   7.704   7.722   4.031  0.4832 -0.2320  0.4133
 3734TIP3    H111124   7.674   7.642   4.075  1.1909 -1.9152 -1.9349
 3734TIP3    H211125   7.624   7.771   4.014 -0.4265 -2.0730 -1.0202
 3735TIP3   OH211126   2.123   4.451   1.782  0.3863 -0.0606  0.3147
 3735TIP3    H111127   2.139   4.384   1.848 -1.2743 -0.6744  0.1383
 3735TIP3    H211128   2.079   4.522   1.829 -0.2447 -0.2375  0.0082
 3736TIP3   OH211129   6.866   4.983   0.313 -0.2005  0.0082  0.3885
 3736TIP3    H111130   6.819   5.066   0.324 -1.9592 -1.0173  0.8767
 3736TIP3    H211131   6.803   4.924   0.273  1.3062 -0.8863 -0.8121
 3737TIP3   OH211132   0.805   5.798   2.132 -0.2488 -0.1518  0.2489
 3737TIP3    H111133   0.858   5.793   2.052 -1.0432 -0.9823 -0.2389
 3737TIP3    H211134   0.736   5.860   2.110 -0.8691 -0.9003  0.0310
 3738TIP3   OH211135   2.405   2.081   3.432  0.0089  0.1508 -0.6206
 3738TIP3    H111136   2.450   2.089   3.347  2.9158 -0.0468  0.7743
 3738TIP3    H211137   2.376   2.170   3.452 -1.0208  0.1480 -1.9182
 3739TIP3   OH211138   4.535   0.547   0.720 -0.4406 -0.1736  0.2017
 3739TIP3    H111139   4.445   0.547   0.688 -0.2986  0.0092 -0.2158
 3739TIP3    H211140   4.586   0.582   0.646  0.3075 -2.5857 -0.5195
 3740TIP3   OH211141   6.965   5.659   5.250  0.0627  0.1283  0.1640
 3740TIP3    H111142   6.986   5.684   5.160 -1.4595  0.6689 -0.0697
 3740TIP3    H211143   6.894   5.717   5.276 -0.4264 -0.8902  1.2517
 3741TIP3   OH211144   0.895   2.494   1.920 -1.2689  0.3647  0.1040
 3741TIP3    H111145   0.911   2.400   1.926 -0.6320  0.2843 -1.9797
 3741TIP3    H211146   0.810   2.500   1.875  0.7734  0.6386 -4.1737
 3742TIP3   OH211147   1.926   0.451   3.733 -0.4950  0.1811 -0.4153
 3742TIP3    H111148   1.871   0.476   3.807 -0.3379 -3.1487  0.9817
 3742TIP3    H211149   1.878   0.380   3.690  2.1123 -2.1712  0.2588
 3743TIP3   OH211150   2.649   2.082   2.531 -0.1842  1.2126  0.1137
 3743TIP3    H111151   2.611   2.027   2.462  0.1886 -0.4663  1.1968
 3743TIP3    H211152   2.731   2.113   2.493  0.8344 -1.0264  0.2937
 3744TIP3   OH211153   4.055   7.262   1.138  0.0599 -0.6461 -0.0122
 3744TIP3    H111154   4.143   7.245   1.103  0.3884 -0.9731  0.9329
 3744TIP3    H211155   3.996   7.222   1.074  0.5994 -0.5046 -0.6143
 3745TIP3   OH211156   7.575   3.389   4.837  0.0222 -0.0645  0.4194
 3745TIP3    H111157   7.587   3.425   4.749 -0.2289  1.2302  0.8936
 3745TIP3    H211158   7.664   3.379   4.871  0.0938  0.0236  0.2565
 3746TIP3   OH211159   7.464   0.178   0.034 -0.1956  0.6961  0.0063
 3746TIP3    H111160   7.472   0.187   0.129  0.7007  0.3316 -0.0165
 3746TIP3    H211161   7.374   0.149   0.019  0.2359 -1.2972  0.9196
 3747TIP3   OH211162   7.702   4.976   1.982  0.3644 -0.4987  0.0892
 3747TIP3    H111163   7.683   4.935   2.066 -0.8652 -1.7744 -0.7721
 3747TIP3    H211164   7.623   4.962   1.929  0.5630  1.4661 -0.8527
 3748TIP3   OH211165   7.935   4.379   2.094  0.6779 -0.1053  0.3486
 3748TIP3    H111166   7.884   4.431   2.156 -0.4804 -1.4671  0.5938
 3748TIP3    H211167   7.906   4.289   2.109 -0.9593 -0.3915 -3.2636
 3749TIP3   OH211168   2.573   4.117   3.977  0.4533 -0.6367 -0.4357
 3749TIP3    H111169   2.593   4.024   3.983 -0.3963 -0.7612  0.7677
 3749TIP3    H211170   2.522   4.126   3.897 -2.5567 -1.8460  1.1886
 3750TIP3   OH211171   0.594   4.929   2.929  0.5032 -0.3813 -0.1359
 3750TIP3    H111172   0.500   4.912   2.919 -0.1294  1.1727  2.2587
 3750TIP3    H211173   0.633   4.843   2.946 -0.8519 -0.8060  1.0100
 3751TIP3   OH211174   5.145   7.689   4.834  0.6995 -0.3340 -0.4488
 3751TIP3    H111175   5.154   7.623   4.903 -0.1639  0.1632  0.1530
 3751TIP3    H211176   5.209   7.756   4.857  0.4523 -0.1964 -0.1605
 3752TIP3   OH211177   0.787   7.258   1.032  0.3435 -0.1488  0.0281
 3752TIP3    H111178   0.729   7.198   0.985  2.0445 -1.5031 -0.4479
 3752TIP3    H211179   0.771   7.344   0.993 -0.0148 -0.8299 -1.3553
 3753TIP3   OH211180   4.694   3.114   1.662  0.0432 -0.2375  0.5082
 3753TIP3    H111181   4.614   3.061   1.652  0.2270 -0.8092  1.8234
 3753TIP3    H211182   4.764   3.058   1.628 -0.0853  0.2233 -0.5489
 3754TIP3   OH211183   4.050   2.265   5.180  0.3368 -0.1489  0.1905
 3754TIP3    H111184   3.982   2.326   5.211 -0.4064 -0.3113 -1.0560
 3754TIP3    H211185   4.008   2.218   5.108  0.7838 -2.3715  1.2985
 3755TIP3   OH211186   3.919   0.453   4.972  0.0850 -0.4833 -0.0316
 3755TIP3    H111187   3.993   0.463   4.913 -0.5493  0.3101 -0.7090
 3755TIP3    H211188   3.950   0.485   5.056  0.9240 -1.4178  0.0298
 3756TIP3   OH211189   4.813   3.069   3.833 -0.7949 -0.3362  0.4890
 3756TIP3    H111190   4.831   3.136   3.766  0.0381 -0.3702  0.6699
 3756TIP3    H211191   4.837   2.987   3.790 -2.2644 -0.5923  0.0990
 3757TIP3   OH211192   2.693   3.846   5.163  0.1697  0.0062  0.2768
 3757TIP3    H111193   2.788   3.836   5.156  0.4689  2.2904  0.4092
 3757TIP3    H211194   2.658   3.795   5.090  1.7222  1.8202 -1.8648
 3758TIP3   OH211195   3.512   5.207   1.230 -0.6560  0.5519 -0.1349
 3758TIP3    H111196   3.457   5.192   1.153 -0.5177 -0.7067 -0.0099
 3758TIP3    H211197   3.501   5.128   1.283  0.4277  0.7531  0.4198
 3759TIP3   OH211198   5.243   3.562   2.975  0.2567 -0.0876  0.0796
 3759TIP3    H111199   5.217   3.616   2.901 -1.2643  0.3086  0.8596
 3759TIP3    H211200   5.255   3.623   3.047 -0.3019 -0.6432  0.6645
 3760TIP3   OH211201   3.789   0.455   4.073 -0.4495 -0.0762 -0.1393
 3760TIP3    H111202   3.879   0.471   4.101  0.0896 -1.7401 -0.7822
 3760TIP3    H211203   3.761   0.538   4.035  0.8651  0.4253 -0.0799
 3761TIP3   OH211204   0.810   4.896   0.548  0.1207 -0.1109  0.0197
 3761TIP3    H111205   0.744   4.857   0.605 -0.6319  0.5081 -0.3981
 3761TIP3    H211206   0.759   4.940   0.479  0.9925 -0.3696 -0.8096
 3762TIP3   OH211207   1.213   0.702   4.849 -0.0329 -0.5165 -0.1347
 3762TIP3    H111208   1.231   0.623   4.797 -2.3760 -0.3627 -1.3211
 3762TIP3    H211209   1.181   0.668   4.932  0.0524 -0.8185 -0.2212
 3763TIP3   OH211210   3.109   4.277   5.070  0.2207 -0.5566  0.5571
 3763TIP3    H111211   3.070   4.358   5.105  0.7068  0.0563 -0.2812
 3763TIP3    H211212   3.203   4.294   5.069  0.2506 -0.7323 -0.5886
 3764TIP3   OH211213   8.372   1.477   2.763 -0.1276  0.2487  0.0050
 3764TIP3    H111214   8.341   1.390   2.739  0.0827 -0.1662  1.1589
 3764TIP3    H211215   8.326   1.536   2.704 -2.7474 -0.3747  1.2552
 3765TIP3   OH211216   8.665   5.008   4.296 -0.6187  0.2497  0.0779
 3765TIP3    H111217   8.705   4.924   4.317 -1.2927  0.1843  1.1944
 3765TIP3    H211218   8.571   4.990   4.295 -0.8174  1.1445  1.1260
 3766TIP3   OH211219   6.502   5.381   0.568  0.4193 -0.1572 -0.3194
 3766TIP3    H111220   6.468   5.373   0.479  0.2929  1.7811 -0.4911
 3766TIP3    H211221   6.441   5.331   0.622 -0.5160  0.1120 -1.1045
 3767TIP3   OH211222   6.840   6.260   2.615  0.3656 -0.2945 -0.2236
 3767TIP3    H111223   6.897   6.236   2.542  1.3665  0.8541  0.1400
 3767TIP3    H211224   6.817   6.351   2.598  0.8286  0.0702  1.0183
 3768TIP3   OH211225   0.210   4.093   2.463  0.6346  0.7315 -0.3307
 3768TIP3    H111226   0.142   4.069   2.400 -0.1281  1.0422  0.3629
 3768TIP3    H211227   0.292   4.085   2.414  0.1713 -0.5029 -0.9206
 3769TIP3   OH211228   7.401   2.823   6.135  0.0798 -0.0170 -0.4024
 3769TIP3    H111229   7.423   2.869   6.216  0.2641 -0.5430 -0.1475
 3769TIP3    H211230   7.369   2.737   6.164 -1.6861  0.4558 -0.7786
 3770TIP3   OH211231   6.215   3.623   3.265 -0.4406 -0.2195 -0.2695
 3770TIP3    H111232   6.259   3.675   3.332 -0.1557 -1.8723  0.8876
 3770TIP3    H211233   6.250   3.656   3.182  0.3203  0.8693  0.4581
 3771TIP3   OH211234   1.878   0.702   2.637 -0.1013  0.1017  0.5940
 3771TIP3    H111235   1.875   0.730   2.545  1.2025 -1.2813  0.0892
 3771TIP3    H211236   1.862   0.782   2.687 -0.6186  0.9230 -0.8329
 3772TIP3   OH211237   2.568   3.727   6.472  0.0870 -0.6139 -0.4727
 3772TIP3    H111238   2.633   3.746   6.539  0.7278 -1.2995 -0.8837
 3772TIP3    H211239   2.596   3.779   6.396  0.2211 -0.9838 -0.6812
 3773TIP3   OH211240   0.454   7.659   2.240 -0.4388  0.0733  0.5175
 3773TIP3    H111241   0.407   7.647   2.323  1.3088 -2.0666  1.3053
 3773TIP3    H211242   0.502   7.577   2.228  2.5465  1.8211 -0.5696
 3774TIP3   OH211243   7.716   7.228   0.046  0.3326 -0.0813  0.1178
 3774TIP3    H111244   7.633   7.228   0.094  0.6323 -0.7821  0.6589
 3774TIP3    H211245   7.704   7.293  -0.023 -0.7892 -0.4076 -0.0156
 3775TIP3   OH211246   3.099   1.921   3.784 -0.3567  0.2388 -0.1354
 3775TIP3    H111247   3.074   1.966   3.864 -2.3821 -0.3045 -0.4025
 3775TIP3    H211248   3.173   1.972   3.749  0.0056  0.9657  1.6035
 3776TIP3   OH211249   2.706   1.122   0.078 -0.1321  0.0382  0.2067
 3776TIP3    H111250   2.617   1.097   0.054  0.5354 -0.6814 -1.7194
 3776TIP3    H211251   2.722   1.078   0.161 -1.1637 -0.7924 -0.0133
 3777TIP3   OH211252   5.988   1.268   6.126  0.5484  0.2152 -0.0962
 3777TIP3    H111253   5.912   1.267   6.067  1.3031  0.6290 -1.0946
 3777TIP3    H211254   6.018   1.359   6.125  0.8018  0.1415  0.6308
 3778TIP3   OH211255   2.216   4.492   6.430  0.3808  0.3986 -0.2939
 3778TIP3    H111256   2.225   4.423   6.496  0.4777  0.2057 -0.5078
 3778TIP3    H211257   2.298   4.490   6.382 -0.1451 -0.2798 -1.2056
 3779TIP3   OH211258   2.403   7.355   3.116  0.0655 -0.1198  0.1008
 3779TIP3    H111259   2.375   7.446   3.126 -1.6045 -0.5546 -0.2128
 3779TIP3    H211260   2.477   7.345   3.175 -0.2837  1.2133  0.7958
 3780TIP3   OH211261   3.225   7.153   4.313 -0.0459  0.2530  0.0265
 3780TIP3    H111262   3.162   7.171   4.383 -1.2052 -2.2654 -0.2704
 3780TIP3    H211263   3.175   7.168   4.232 -0.0364 -0.9359 -0.2164
 3781TIP3   OH211264   7.951   7.891   5.220 -0.0892 -0.1606  0.2870
 3781TIP3    H111265   7.974   7.978   5.187 -0.9549 -0.1637 -0.3834
 3781TIP3    H211266   7.896   7.909   5.297 -0.5476 -0.0955 -0.0479
 3782TIP3   OH211267   5.703   0.877   3.792  0.0988  0.2908  0.2251
 3782TIP3    H111268   5.696   0.830   3.709 -2.3318 -0.1399  0.6023
 3782TIP3    H211269   5.733   0.810   3.854 -1.3611 -0.2695  0.3500
 3783TIP3   OH211270   4.243   5.479   2.315 -0.3606 -0.1508 -0.3055
 3783TIP3    H111271   4.181   5.502   2.384  0.1473 -0.8468  0.4053
 3783TIP3    H211272   4.223   5.540   2.243 -1.1722  0.3108  0.2925
 3784TIP3   OH211273   1.393   3.419   3.537 -0.8824  0.0604 -0.0731
 3784TIP3    H111274   1.454   3.369   3.590 -1.0385 -1.1206 -0.9657
 3784TIP3    H211275   1.324   3.357   3.514 -1.8480  1.0758 -0.0048
 3785TIP3   OH211276   5.605   5.857   2.169  0.5232 -0.5245  0.3311
 3785TIP3    H111277   5.671   5.809   2.219  1.4672 -1.5442 -1.7678
 3785TIP3    H211278   5.646   5.875   2.085 -1.8982 -1.3672 -1.1419
 3786TIP3   OH211279   8.673   3.825   5.037 -0.4884 -0.1322  0.0644
 3786TIP3    H111280   8.578   3.821   5.026 -0.3192 -2.3304 -1.1347
 3786TIP3    H211281   8.708   3.794   4.954  1.2199 -1.5900  1.2642
 3787TIP3   OH211282   1.000   7.845   5.317  0.4950  0.0246 -0.1620
 3787TIP3    H111283   0.994   7.766   5.264 -2.3684  0.2138 -0.2698
 3787TIP3    H211284   0.969   7.818   5.404 -1.7913  1.2405 -0.5387
 3788TIP3   OH211285   4.637   3.360   6.535 -0.7199  0.7516 -0.0844
 3788TIP3    H111286   4.610   3.271   6.513 -0.3812  0.7251 -0.4053
 3788TIP3    H211287   4.730   3.364   6.511 -0.5010  0.9165  0.7558
 3789TIP3   OH211288   1.896   5.335   6.875 -0.0500 -0.0708  0.1319
 3789TIP3    H111289   1.881   5.244   6.848 -0.7410 -0.7912  2.6668
 3789TIP3    H211290   1.828   5.385   6.829 -1.4531 -1.2852  0.8039
 3790TIP3   OH211291   2.915   0.634   4.085 -0.0253  0.3166 -0.0874
 3790TIP3    H111292   2.873   0.623   3.999 -0.1301  0.1318 -0.0131
 3790TIP3    H211293   2.861   0.701   4.128  0.2025  0.6226 -0.2764
 3791TIP3   OH211294   4.997   7.024   7.119  0.2778 -0.4460 -0.0527
 3791TIP3    H111295   5.080   6.986   7.148 -1.3419 -4.1380  0.3393
 3791TIP3    H211296   4.994   7.007   7.025 -0.0026 -0.2840 -0.0738
 3792TIP3   OH211297   4.058   4.128   5.153 -0.7922  0.7878  0.4256
 3792TIP3    H111298   3.962   4.130   5.156 -0.7834  0.3592  0.9560
 3792TIP3    H211299   4.083   4.055   5.209 -0.2099 -0.1837 -1.0277
 3793TIP3   OH211300   7.831   6.807   1.879  0.0571  0.1827  0.7288
 3793TIP3    H111301   7.835   6.838   1.788 -1.7873  1.1069  0.9210
 3793TIP3    H211302   7.863   6.881   1.931 -0.8501  0.4455  0.9398
 3794TIP3   OH211303   5.621   7.630   1.735  0.2224 -0.1673  0.0168
 3794TIP3    H111304   5.596   7.567   1.666  2.1564  0.2988 -1.1721
 3794TIP3    H211305   5.669   7.698   1.689 -1.4955  2.0729  1.3326
 3795TIP3   OH211306   4.526   4.643   5.615  0.4269  0.0192 -0.0709
 3795TIP3    H111307   4.481   4.697   5.549 -0.5972 -1.2336 -0.4373
 3795TIP3    H211308   4.455   4.609   5.670  0.9325 -1.6308 -0.3762
 3796TIP3   OH211309   4.662   0.136   3.518  0.6540  0.4514 -0.2321
 3796TIP3    H111310   4.697   0.187   3.445 -0.2030 -0.7392 -1.5326
 3796TIP3    H211311   4.666   0.196   3.593  1.6152  1.6949 -1.2255
 3797TIP3   OH211312   1.010   2.702   1.153 -0.2351 -0.0476  0.3890
 3797TIP3    H111313   0.998   2.787   1.109 -0.4841  0.1255  0.7832
 3797TIP3    H211314   0.922   2.664   1.156  0.1562 -1.2798 -1.6481
 3798TIP3   OH211315   3.287   3.430   3.789 -0.0187  0.5791 -0.7767
 3798TIP3    H111316   3.368   3.401   3.746  0.2465  1.2195 -0.7168
 3798TIP3    H211317   3.265   3.359   3.849  0.6129  0.4889 -0.6473
 3799TIP3   OH211318   4.453   7.106   2.847 -0.9002  0.2278 -0.0855
 3799TIP3    H111319   4.506   7.153   2.783 -0.4613 -0.3496 -0.1610
 3799TIP3    H211320   4.517   7.075   2.911 -1.4797  2.0980  1.5016
 3800TIP3   OH211321   1.418   7.266   6.744  0.3321 -0.0832 -0.0400
 3800TIP3    H111322   1.454   7.181   6.719  2.1569  0.7155 -0.3365
 3800TIP3    H211323   1.359   7.289   6.672 -1.7745 -1.9268  0.9810
 3801TIP3   OH211324   7.760   7.777   2.895  0.5709  0.0921 -0.4103
 3801TIP3    H111325   7.704   7.852   2.914  0.0243 -0.4622  0.2042
 3801TIP3    H211326   7.728   7.708   2.953  1.9623 -0.1973  0.0517
 3802TIP3   OH211327   6.246   3.050   7.046  0.1563 -0.1341  0.1546
 3802TIP3    H111328   6.173   3.024   6.989  0.6919 -2.2904  0.3911
 3802TIP3    H211329   6.223   3.139   7.073 -2.5153 -0.7847  0.3847
 3803TIP3   OH211330   1.948   2.011   2.434 -0.3189 -0.0166  0.1058
 3803TIP3    H111331   1.864   1.979   2.403 -2.1024  2.1873  2.2294
 3803TIP3    H211332   1.964   2.091   2.383 -0.4328  0.5178  0.8837
 3804TIP3   OH211333   6.410   0.053   2.032  0.7662 -0.1767 -0.3149
 3804TIP3    H111334   6.408   0.031   1.939  0.1704 -1.2212 -0.0728
 3804TIP3    H211335   6.410  -0.032   2.077  0.6659  0.3116  0.6404
 3805TIP3   OH211336   1.552   4.211   1.878  0.4195 -0.4338  0.9227
 3805TIP3    H111337   1.504   4.128   1.888 -1.5881  0.7317  1.5944
 3805TIP3    H211338   1.516   4.268   1.946  1.9222  0.9367  0.6329
 3806TIP3   OH211339   4.616   8.027   1.193 -0.3557 -0.5437  0.2469
 3806TIP3    H111340   4.549   8.071   1.140 -0.3345  0.5279  1.0743
 3806TIP3    H211341   4.679   8.097   1.213  0.4058 -1.2749  0.4545
 3807TIP3   OH211342   4.277   7.423   5.057 -0.6205 -0.3449 -0.2026
 3807TIP3    H111343   4.275   7.442   5.151  0.8289  0.7187 -0.3497
 3807TIP3    H211344   4.207   7.359   5.044 -0.3843 -1.0624  1.7265
 3808TIP3   OH211345   1.137   7.814   3.613  0.0779  0.2333  0.3994
 3808TIP3    H111346   1.206   7.811   3.548  1.8094 -0.4181  2.1724
 3808TIP3    H211347   1.176   7.858   3.689 -0.5891 -2.1541  2.2872
 3809TIP3   OH211348   8.179   6.110   5.460  0.1373  0.1345  0.0423
 3809TIP3    H111349   8.128   6.190   5.476  1.4513  0.6384  2.0094
 3809TIP3    H211350   8.114   6.046   5.430 -1.6004  0.9434  1.8421
 3810TIP3   OH211351   3.163   7.191   2.008 -0.7403 -0.0006 -0.2609
 3810TIP3    H111352   3.225   7.259   2.033 -0.2003 -0.5316 -0.1301
 3810TIP3    H211353   3.142   7.146   2.090  0.4051 -1.2209 -0.5964
 3811TIP3   OH211354   5.141   1.742   2.004  0.3506  0.1600  0.2114
 3811TIP3    H111355   5.168   1.678   1.938  1.6633 -1.4587  2.1837
 3811TIP3    H211356   5.182   1.712   2.085 -2.5695  1.0645  2.1806
 3812TIP3   OH211357   8.259   3.259   1.061  0.0130 -0.2877 -0.1844
 3812TIP3    H111358   8.218   3.316   0.996 -0.2964 -0.7558 -0.4002
 3812TIP3    H211359   8.187   3.208   1.098  0.4107 -1.2092 -0.6557
 3813TIP3   OH211360   7.101   2.790   2.027  0.1211  0.4707 -0.0257
 3813TIP3    H111361   7.091   2.823   2.116 -0.2014 -0.4342  0.2858
 3813TIP3    H211362   7.042   2.845   1.975  1.7003  2.2540 -0.0391
 3814TIP3   OH211363   6.698   2.153   6.060  0.1062  0.3596  0.4631
 3814TIP3    H111364   6.784   2.130   6.095  0.5822  0.2669 -0.7137
 3814TIP3    H211365   6.644   2.172   6.137  0.9106 -0.5125  1.2560
 3815TIP3   OH211366   8.415   0.418   6.847  0.2159 -0.1056 -0.0699
 3815TIP3    H111367   8.340   0.459   6.891 -1.4353 -0.7100 -2.1699
 3815TIP3    H211368   8.445   0.351   6.908 -1.3976 -0.2972  0.5653
 3816TIP3   OH211369   5.074   6.845   4.275  0.6653 -0.3483  0.4869
 3816TIP3    H111370   5.039   6.756   4.280  0.7819 -0.3554  1.4775
 3816TIP3    H211371   5.097   6.866   4.366  0.2781  0.8421  0.3144
 3817TIP3   OH211372   2.986   0.679   2.226 -0.4539 -0.0503 -0.3193
 3817TIP3    H111373   3.042   0.627   2.284  0.9921  0.6645 -1.0182
 3817TIP3    H211374   2.945   0.615   2.168 -1.3683 -0.7046  0.9875
 3818TIP3   OH211375   3.459   7.540   6.411  0.3470 -0.3949 -0.4266
 3818TIP3    H111376   3.471   7.451   6.445  0.0185 -1.0417 -1.9113
 3818TIP3    H211377   3.498   7.538   6.323  0.8995  1.1122 -0.2447
 3819TIP3   OH211378   1.185   0.007   2.214  0.3311 -0.2019 -0.2231
 3819TIP3    H111379   1.258  -0.003   2.153  2.7112 -0.0334  2.3882
 3819TIP3    H211380   1.172   0.102   2.220 -0.5033 -0.2441 -1.0379
 3820TIP3   OH211381   7.059   3.184   0.380  0.1489  0.1705  0.2213
 3820TIP3    H111382   7.035   3.275   0.364 -0.4677 -0.0613 -0.2183
 3820TIP3    H211383   7.144   3.173   0.336  0.8179  0.8446  1.3036
 3821TIP3   OH211384   0.987   3.012   1.215 -0.0217  0.3118 -0.3351
 3821TIP3    H111385   1.004   3.101   1.184  0.0802 -0.1786 -1.7262
 3821TIP3    H211386   1.036   3.006   1.297  2.3485  0.6047 -1.6606
 3822TIP3   OH211387   1.467   0.811   6.880 -0.1950  0.6027 -0.1687
 3822TIP3    H111388   1.544   0.755   6.873 -1.2398 -0.8453 -0.3914
 3822TIP3    H211389   1.496   0.895   6.844  0.6527 -0.5551 -2.4199
 3823TIP3   OH211390   0.831   1.803   2.944 -0.1905  0.1017 -0.0908
 3823TIP3    H111391   0.781   1.735   2.989 -0.8284  1.1863  0.8909
 3823TIP3    H211392   0.766   1.850   2.891  0.2412 -0.0377 -0.7556
 3824TIP3   OH211393   5.935   1.132   1.086 -0.1507  0.1377  0.1134
 3824TIP3    H111394   5.873   1.100   1.152 -0.5552 -0.2624 -0.4496
 3824TIP3    H211395   6.021   1.113   1.123 -0.3785 -0.4222  0.3726
 3825TIP3   OH211396   0.754   5.849   0.222  0.1541  0.3058  0.2243
 3825TIP3    H111397   0.770   5.807   0.138  1.2685 -1.3669  1.2185
 3825TIP3    H211398   0.666   5.821   0.247  0.0574  0.3268 -0.0837
 3826TIP3   OH211399   6.270   2.009   4.014 -0.4820 -0.2573  0.7674
 3826TIP3    H111400   6.206   2.029   4.082 -0.6032 -0.6023  0.7552
 3826TIP3    H211401   6.236   1.931   3.971 -0.9608  0.5558 -0.3974
 3827TIP3   OH211402   3.036   6.840   2.706  0.1644 -0.4477  0.8078
 3827TIP3    H111403   3.009   6.836   2.615 -1.1852 -1.6262  1.2150
 3827TIP3    H211404   3.129   6.819   2.705  0.4431  0.7002 -0.3727
 3828TIP3   OH211405   4.783   5.100   3.131  0.3199 -0.0131  0.7657
 3828TIP3    H111406   4.733   5.023   3.102 -0.3439  0.3404  0.9537
 3828TIP3    H211407   4.794   5.152   3.052 -1.7315  1.0871  1.1415
 3829TIP3   OH211408   0.528   2.711   3.937 -0.1698  0.6320 -0.6590
 3829TIP3    H111409   0.477   2.791   3.950  1.4635  1.5883  0.2096
 3829TIP3    H211410   0.619   2.740   3.941  0.4761 -1.3969  0.5854
 3830TIP3   OH211411   0.916   6.385   6.581 -0.1479 -0.1699  0.0003
 3830TIP3    H111412   0.923   6.474   6.544  0.0691  0.0034  0.4533
 3830TIP3    H211413   0.849   6.393   6.649  1.6024  0.2490  1.7724
 3831TIP3   OH211414   0.835   1.895   5.288  0.2478 -0.8240  0.4779
 3831TIP3    H111415   0.913   1.840   5.290  0.9564  0.0365 -1.2029
 3831TIP3    H211416   0.790   1.869   5.208 -1.6780 -1.8831  1.8251
 3832TIP3   OH211417   2.291   3.953   2.404  0.3698 -0.1615  0.2762
 3832TIP3    H111418   2.383   3.942   2.429  0.1651 -0.0927  1.0896
 3832TIP3    H211419   2.242   3.934   2.484 -0.2525  1.1125  0.2223
 3833TIP3   OH211420   4.550   8.081   6.489  0.5106  0.0931  0.3645
 3833TIP3    H111421   4.476   8.021   6.499  0.0542  0.7221  0.8592
 3833TIP3    H211422   4.520   8.163   6.530  1.1558  0.6247 -0.2001
 3834TIP3   OH211423   3.151   7.035   6.770  0.3728  0.2984 -0.0188
 3834TIP3    H111424   3.124   6.948   6.741  0.1879  0.4399 -0.2719
 3834TIP3    H211425   3.178   7.022   6.861 -3.4070  0.6893  1.3214
 3835TIP3   OH211426   3.221   3.353   2.783 -0.1190 -0.2254 -0.0038
 3835TIP3    H111427   3.304   3.372   2.740 -0.0363  0.6515  0.5129
 3835TIP3    H211428   3.168   3.431   2.769  0.5759  0.9331  3.0032
 3836TIP3   OH211429   1.732   1.715   4.366  0.1453  0.4227  0.7585
 3836TIP3    H111430   1.738   1.795   4.314 -0.1222  1.4268  2.2219
 3836TIP3    H211431   1.693   1.742   4.449 -0.7409 -1.3853  0.9810
 3837TIP3   OH211432   3.298   7.715   5.620 -0.7129 -0.2565  0.3355
 3837TIP3    H111433   3.256   7.695   5.536  0.2448 -1.0373  0.0217
 3837TIP3    H211434   3.386   7.743   5.596 -0.8410  0.7759  1.0168
 3838TIP3   OH211435   1.735   1.658   0.016 -0.6933  0.6066 -0.5036
 3838TIP3    H111436   1.640   1.664   0.015 -0.7530 -0.1720 -1.5449
 3838TIP3    H211437   1.753   1.564   0.024  0.0059  0.8251  0.8225
 3839TIP3   OH211438   4.837   0.473   4.577  0.2411 -0.2435  0.0591
 3839TIP3    H111439   4.852   0.567   4.577  0.2512 -0.2469 -0.4733
 3839TIP3    H211440   4.758   0.461   4.524  0.3073 -0.5494  0.0290
 3840TIP3   OH211441   7.775   7.976   4.751  0.3366 -0.1428  0.3861
 3840TIP3    H111442   7.836   8.018   4.690  1.5553 -0.1368  1.5598
 3840TIP3    H211443   7.690   7.982   4.708  0.9492  1.0100 -0.7330
 3841TIP3   OH211444   5.875   3.920   3.976  0.1217  0.0726 -0.2687
 3841TIP3    H111445   5.814   3.873   3.919  1.2906  0.3678 -1.8225
 3841TIP3    H211446   5.830   4.002   3.996 -0.0670  0.2488 -1.3178
 3842TIP3   OH211447   1.167   1.296   6.147  0.5310 -0.6180 -0.0918
 3842TIP3    H111448   1.190   1.214   6.190  1.2969 -0.1101  0.5012
 3842TIP3    H211449   1.132   1.351   6.217  2.5929  0.5264  0.1089
 3843TIP3   OH211450   1.405   8.097   0.770 -0.3775  0.4307  1.0765
 3843TIP3    H111451   1.450   8.157   0.711 -1.0419 -0.7143 -0.6526
 3843TIP3    H211452   1.476   8.051   0.815  0.1888 -0.1506 -0.3688
 3844TIP3   OH211453   5.301   2.805   3.022 -0.7579 -0.6060  0.3368
 3844TIP3    H111454   5.337   2.848   3.100 -0.9963 -0.5685  0.4253
 3844TIP3    H211455   5.311   2.871   2.953 -1.3789 -0.2981  0.5312
 3845TIP3   OH211456   0.173   7.264   3.918 -0.5307  0.0595  0.6412
 3845TIP3    H111457   0.211   7.343   3.879 -1.7989  1.0233  1.2819
 3845TIP3    H211458   0.120   7.226   3.848 -1.5927  0.9522  0.9340
 3846TIP3   OH211459   4.508   3.284   2.058  0.2593 -0.3384 -0.4426
 3846TIP3    H111460   4.549   3.305   1.974 -0.0343  0.1462 -0.4699
 3846TIP3    H211461   4.418   3.262   2.035 -0.1798  1.0142 -0.1508
 3847TIP3   OH211462   4.977   3.373   5.470  0.4310  0.0302  0.1782
 3847TIP3    H111463   4.982   3.305   5.403  0.8083  0.0100  0.2237
 3847TIP3    H211464   5.067   3.380   5.504  0.2691  0.1288  0.5908
 3848TIP3   OH211465   6.460   7.183   5.362 -0.3708 -0.3686  0.2227
 3848TIP3    H111466   6.418   7.150   5.283  0.5211 -0.3133 -0.2778
 3848TIP3    H211467   6.501   7.106   5.402 -1.5441 -0.5713  1.1196
 3849TIP3   OH211468   2.074   6.892   1.876 -0.4956 -0.0248 -0.3519
 3849TIP3    H111469   2.001   6.836   1.851  1.4489 -1.8810 -2.3241
 3849TIP3    H211470   2.111   6.850   1.953 -0.4627 -0.0809 -0.3983
 3850TIP3   OH211471   8.065   2.903   6.751  0.1260  0.6747  0.3168
 3850TIP3    H111472   7.991   2.860   6.708  0.9107  0.4162 -0.8120
 3850TIP3    H211473   8.049   2.888   6.845 -0.0622 -1.4174  0.0148
 3851TIP3   OH211474   3.356   2.483   5.937  0.4205  0.3165 -0.3122
 3851TIP3    H111475   3.353   2.537   5.858  1.1423  0.2405 -0.3986
 3851TIP3    H211476   3.436   2.431   5.927 -1.1216 -2.0378 -1.0502
 3852TIP3   OH211477   0.727   5.862   5.510  0.0478 -0.3388  0.0646
 3852TIP3    H111478   0.811   5.817   5.508  0.2630  0.0654 -0.1132
 3852TIP3    H211479   0.693   5.846   5.598  0.9309  0.6224  0.5981
 3853TIP3   OH211480   3.725   1.886   0.683  0.1566 -0.1002 -0.0456
 3853TIP3    H111481   3.784   1.876   0.757 -0.9252 -0.6100  0.7810
 3853TIP3    H211482   3.645   1.841   0.710 -0.3503 -0.0877 -1.4283
 3854TIP3   OH211483   1.384   5.763   1.004 -0.4561 -0.5626  0.2869
 3854TIP3    H111484   1.308   5.821   1.013  0.2792  0.4927 -0.0558
 3854TIP3    H211485   1.375   5.725   0.917  0.6003  1.3900 -0.7322
 3855TIP3   OH211486   6.972   1.599   4.790  0.1422 -0.0216 -0.0075
 3855TIP3    H111487   6.929   1.684   4.784  0.9785  0.3384 -2.0266
 3855TIP3    H211488   6.982   1.571   4.698  0.6722 -1.8912  0.5681
 3856TIP3   OH211489   4.206   8.182   1.538  0.1124 -0.1805 -0.6483
 3856TIP3    H111490   4.119   8.221   1.532 -1.2084 -3.0125 -1.7531
 3856TIP3    H211491   4.221   8.169   1.631 -0.8212 -0.0210 -0.4749
 3857TIP3   OH211492   7.588   6.344   4.087  0.4423  0.4971  0.3081
 3857TIP3    H111493   7.559   6.384   4.169 -0.6820  0.0302  0.1704
 3857TIP3    H211494   7.679   6.320   4.102 -0.1311 -0.8225  1.9365
 3858TIP3   OH211495   0.050   7.718   2.133 -0.3041  0.1532 -0.2616
 3858TIP3    H111496   0.006   7.798   2.163  0.9353  0.9920 -0.5762
 3858TIP3    H211497  -0.000   7.646   2.171 -0.8186  1.1158  0.9238
 3859TIP3   OH211498   8.619   5.606   6.481 -0.2749  0.0356 -0.1243
 3859TIP3    H111499   8.672   5.601   6.561 -1.6067 -0.1744  0.7850
 3859TIP3    H211500   8.533   5.635   6.511 -0.4331  1.3147 -1.6839
 3860TIP3   OH211501   6.982   1.943   3.222  0.8144  0.2303  0.3484
 3860TIP3    H111502   6.969   1.942   3.317 -0.9249 -0.6775  0.1423
 3860TIP3    H211503   7.070   1.908   3.210  0.2902 -1.7058  1.5695
 3861TIP3   OH211504   8.676   2.669   2.727  0.4965 -0.1806  0.2352
 3861TIP3    H111505   8.690   2.728   2.801  0.8448  0.4256 -0.3026
 3861TIP3    H211506   8.582   2.649   2.729  0.4938 -0.1222  0.7960
 3862TIP3   OH211507   0.752   2.419   4.109 -0.4125  0.3473  0.2713
 3862TIP3    H111508   0.770   2.372   4.191  1.6820 -0.4685 -0.5741
 3862TIP3    H211509   0.780   2.509   4.127 -3.2198  1.0993  1.4791
 3863TIP3   OH211510   5.579   4.061   4.891  0.0725 -0.0185 -0.2308
 3863TIP3    H111511   5.618   4.123   4.829 -0.8201  0.6958 -0.0903
 3863TIP3    H211512   5.594   3.975   4.851 -0.5083  0.4289 -1.4613
 3864TIP3   OH211513   3.515   0.053   4.209 -0.7951  0.6821 -0.0779
 3864TIP3    H111514   3.489  -0.019   4.267  2.2546 -0.4311  0.0975
 3864TIP3    H211515   3.573   0.012   4.145 -1.9294  2.3850 -2.3188
 3865TIP3   OH211516   6.156   7.679   3.243 -0.0166 -0.8772  0.5313
 3865TIP3    H111517   6.183   7.591   3.268 -1.3134 -1.1290  1.1209
 3865TIP3    H211518   6.080   7.666   3.186 -1.1654 -0.1297  1.8324
 3866TIP3   OH211519   4.232   2.740   3.891  0.2471  0.4879  0.5953
 3866TIP3    H111520   4.291   2.814   3.907  2.4652 -1.1917  0.7617
 3866TIP3    H211521   4.234   2.728   3.796  2.0290 -0.8781  0.7401
 3867TIP3   OH211522   6.125   2.814   4.192  0.3839  0.6532  0.1956
 3867TIP3    H111523   6.031   2.792   4.196  0.4475  0.2976 -0.1781
 3867TIP3    H211524   6.134   2.862   4.110  0.5058  0.8217  0.3072
 3868TIP3   OH211525   8.253   5.841   4.199  0.1276 -0.3203 -0.0685
 3868TIP3    H111526   8.226   5.872   4.112  1.8013 -0.6371 -0.7384
 3868TIP3    H211527   8.333   5.889   4.218 -0.3959  0.0010  1.4920
 3869TIP3   OH211528   7.813   7.196   4.394 -0.1861  0.1925  0.1870
 3869TIP3    H111529   7.732   7.228   4.436 -0.4055 -1.3115  0.9831
 3869TIP3    H211530   7.855   7.143   4.462  0.3136 -0.9199 -0.9532
 3870TIP3   OH211531   3.692   6.834   2.627 -0.1366  0.2379 -0.4967
 3870TIP3    H111532   3.674   6.927   2.617 -3.7875 -0.3280 -0.4963
 3870TIP3    H211533   3.700   6.822   2.722  1.7755  0.6879 -0.5597
 3871TIP3   OH211534   3.115   8.217   2.368 -0.4657 -0.1988  0.4116
 3871TIP3    H111535   3.171   8.179   2.301  1.4997  0.1319  1.7700
 3871TIP3    H211536   3.081   8.142   2.416  0.2591 -0.3714  0.6662
 3872TIP3   OH211537   6.889   3.356   2.111  0.0431 -0.3328  0.5882
 3872TIP3    H111538   6.936   3.304   2.176  0.8351  0.1950  0.4564
 3872TIP3    H211539   6.876   3.441   2.153 -2.1873 -0.9159  1.2113
 3873TIP3   OH211540   3.557   0.781   0.802  0.5051  0.5111  0.2792
 3873TIP3    H111541   3.563   0.850   0.868  0.1893  0.3778  0.4510
 3873TIP3    H211542   3.624   0.803   0.738 -0.2510  1.5338 -0.1969
 3874TIP3   OH211543   1.548   2.375   1.589  0.1269 -0.1853 -0.6183
 3874TIP3    H111544   1.498   2.431   1.648 -1.6884  0.0159 -2.2404
 3874TIP3    H211545   1.620   2.430   1.559 -2.5481  2.0795 -3.5078
 3875TIP3   OH211546   2.668   2.315   2.313  0.1297  1.1858 -0.1127
 3875TIP3    H111547   2.737   2.251   2.325 -0.2612  0.6099 -0.8288
 3875TIP3    H211548   2.609   2.275   2.249  0.5287  2.7725 -1.5633
 3876TIP3   OH211549   2.694   4.497   4.685 -0.1849  0.3729  0.1333
 3876TIP3    H111550   2.787   4.475   4.687 -0.3645 -0.8587 -2.0368
 3876TIP3    H211551   2.649   4.412   4.683 -1.3047  0.9503 -0.0442
 3877TIP3   OH211552   1.976   2.658   5.850 -0.0352  0.6050 -0.2253
 3877TIP3    H111553   1.972   2.581   5.794  0.7003  1.1055 -1.0011
 3877TIP3    H211554   1.886   2.688   5.857 -0.1642  0.4114 -0.9935
 3878TIP3   OH211555   3.785   1.854   6.265 -0.4303 -0.2670  0.0400
 3878TIP3    H111556   3.729   1.801   6.209 -1.0750  1.2896 -0.8636
 3878TIP3    H211557   3.731   1.874   6.341  0.3448 -2.1363  1.1368
 3879TIP3   OH211558   6.132   7.115   6.552  0.5130  0.2916 -0.7830
 3879TIP3    H111559   6.036   7.121   6.549  0.4389 -0.7327 -0.8132
 3879TIP3    H211560   6.157   7.163   6.631  0.0560  1.3369 -1.2500
 3880TIP3   OH211561   0.108   5.876   5.920  0.0846 -0.5562 -0.4008
 3880TIP3    H111562   0.129   5.801   5.977 -0.4471 -1.8414 -1.8469
 3880TIP3    H211563   0.017   5.896   5.940  0.0877 -0.5865 -0.3546
 3881TIP3   OH211564   7.075   3.741   2.592 -0.4037  0.5647 -0.2325
 3881TIP3    H111565   7.094   3.663   2.540  0.6132 -1.0911  2.3838
 3881TIP3    H211566   7.159   3.787   2.598 -0.9101  1.6908 -1.4303
 3882TIP3   OH211567   7.524   0.263   5.502  0.2983  0.0972  0.1422
 3882TIP3    H111568   7.543   0.314   5.580  1.6495 -1.7334  1.0819
 3882TIP3    H211569   7.591   0.291   5.438  0.1740  0.4609  0.1679
 3883TIP3   OH211570   1.702   7.806   0.614 -0.2810  0.3306  0.1058
 3883TIP3    H111571   1.768   7.738   0.604 -0.5261  0.2101 -0.7238
 3883TIP3    H211572   1.655   7.807   0.531  0.0809  1.8890 -0.1133
 3884TIP3   OH211573   7.667   6.728   5.157  0.4351  0.0169  0.6073
 3884TIP3    H111574   7.638   6.663   5.094  0.0337  0.0984  0.7067
 3884TIP3    H211575   7.618   6.708   5.237  0.3160  0.4322  0.6424
 3885TIP3   OH211576   3.965   5.983   3.892 -0.3336  0.3145  0.4282
 3885TIP3    H111577   3.982   6.072   3.861  1.1876 -0.5291 -1.3834
 3885TIP3    H211578   3.876   5.986   3.927 -1.0003  2.1235 -1.2569
 3886TIP3   OH211579   5.824   0.683   5.897 -0.3380  0.1903 -0.3293
 3886TIP3    H111580   5.887   0.727   5.954 -0.4351 -0.5069  0.3321
 3886TIP3    H211581   5.757   0.649   5.956 -2.1134  2.0927 -1.1189
 3887TIP3   OH211582   0.394   4.717   6.018 -0.5726 -0.5840  0.0546
 3887TIP3    H111583   0.442   4.704   5.937 -0.7709 -1.1392  0.0204
 3887TIP3    H211584   0.332   4.788   5.999  0.0885 -0.0066  0.0408
 3888TIP3   OH211585   7.853   3.870   4.552 -0.4751  0.5535 -0.0797
 3888TIP3    H111586   7.820   3.867   4.642  0.2365 -1.2772  0.1572
 3888TIP3    H211587   7.852   3.963   4.529 -1.5985  0.9606  1.4564
 3889TIP3   OH211588   4.961   1.688   1.399 -0.3562 -0.1675 -0.0684
 3889TIP3    H111589   4.977   1.647   1.314  1.1574 -0.6686  0.4261
 3889TIP3    H211590   4.875   1.730   1.390  0.3072  0.8435 -2.2430
 3890TIP3   OH211591   0.636   3.793   6.207 -0.4976  0.0411 -0.2169
 3890TIP3    H111592   0.596   3.804   6.120 -0.1497 -2.6032 -0.7953
 3890TIP3    H211593   0.596   3.713   6.241  0.0610  0.5345  1.7006
 3891TIP3   OH211594   2.773   5.919   1.155 -0.4072  0.1791  0.1774
 3891TIP3    H111595   2.729   5.944   1.073 -0.8445  1.8224  0.8785
 3891TIP3    H211596   2.851   5.973   1.158  0.3491 -0.8768  0.2070
 3892TIP3   OH211597   1.317   6.843   2.130 -0.0958  0.0331  0.2070
 3892TIP3    H111598   1.405   6.880   2.122 -0.6662  1.6450  1.0777
 3892TIP3    H211599   1.320   6.792   2.211  0.2726 -0.6990 -0.2487
 3893TIP3   OH211600   3.224   4.760   1.967 -0.0835 -0.6933 -0.1089
 3893TIP3    H111601   3.318   4.751   1.981  0.1632  1.5104  0.0498
 3893TIP3    H211602   3.187   4.762   2.055  0.2322  2.2968  0.0616
 3894TIP3   OH211603   4.816   0.236   4.067  0.3424  0.3605  0.1739
 3894TIP3    H111604   4.886   0.299   4.084 -0.5476  1.0693  1.3445
 3894TIP3    H211605   4.841   0.159   4.117  1.1075 -0.0105 -0.7471
 3895TIP3   OH211606   7.191   6.603   0.446 -0.1063 -0.4817  0.0471
 3895TIP3    H111607   7.272   6.590   0.397 -0.4222 -2.2743 -0.0735
 3895TIP3    H211608   7.122   6.608   0.379 -0.0337  2.2170  0.0746
 3896TIP3   OH211609   1.909   7.355   2.765  0.9896 -0.2255 -0.4127
 3896TIP3    H111610   1.919   7.268   2.804  0.9525 -0.0212  0.0571
 3896TIP3    H211611   1.931   7.342   2.673 -2.7254 -1.5500 -1.2749
 3897TIP3   OH211612   4.021   0.759   3.050  0.0005 -0.0093  0.1663
 3897TIP3    H111613   4.059   0.671   3.049 -1.1173 -0.5740 -2.2736
 3897TIP3    H211614   4.090   0.815   3.016  0.5116 -0.0286  1.1473
 3898TIP3   OH211615   5.296   1.548   1.472 -0.8701 -0.8560  0.6266
 3898TIP3    H111616   5.314   1.469   1.421 -2.5899 -1.5636  1.0730
 3898TIP3    H211617   5.352   1.615   1.431  0.8865 -2.3414  0.4741
 3899TIP3   OH211618   0.377   8.113   3.541  0.3923  0.6824 -0.3907
 3899TIP3    H111619   0.401   8.104   3.449 -0.2656  1.9137 -0.7035
 3899TIP3    H211620   0.348   8.204   3.549  0.1663  0.5041  0.9717
 3900TIP3   OH211621   2.682   7.061   5.587 -0.6621  0.4304 -0.2343
 3900TIP3    H111622   2.762   7.028   5.546 -0.0005  0.5347  0.9203
 3900TIP3    H211623   2.700   7.057   5.681 -1.1368  2.5520  0.0056
 3901TIP3   OH211624   0.382   3.342   3.330  0.0345 -0.3201  0.2891
 3901TIP3    H111625   0.329   3.379   3.259  1.1648 -0.4018 -0.6329
 3901TIP3    H211626   0.472   3.355   3.301  0.5137 -3.3919  0.0867
 3902TIP3   OH211627   5.438   5.903   3.077 -0.3286  0.0679  0.6435
 3902TIP3    H111628   5.492   5.969   3.120 -0.5582  1.0390 -0.5135
 3902TIP3    H211629   5.408   5.847   3.148  0.1416  1.0166  1.6179
 3903TIP3   OH211630   4.235   4.468   5.991  0.0900  0.3573  0.4445
 3903TIP3    H111631   4.214   4.396   6.051  1.2334 -0.2314  0.1829
 3903TIP3    H211632   4.251   4.543   6.049 -1.5148  0.5325  0.6978
 3904TIP3   OH211633   6.753   6.408   6.366 -0.3475 -0.2662 -0.1165
 3904TIP3    H111634   6.780   6.486   6.317  0.0846  0.0043  0.5298
 3904TIP3    H211635   6.830   6.351   6.363 -0.6807 -0.6901 -0.6290
 3905TIP3   OH211636   3.056   2.699   5.303  0.3336 -0.1379  0.5504
 3905TIP3    H111637   3.140   2.673   5.340 -0.3470 -1.3145  1.3238
 3905TIP3    H211638   3.046   2.791   5.327  1.8940  0.3488 -0.5245
 3906TIP3   OH211639   1.782   5.982   2.254  0.1728 -0.3451  0.0676
 3906TIP3    H111640   1.814   5.909   2.307  2.1149  0.3559 -0.0686
 3906TIP3    H211641   1.749   6.045   2.319  1.1004 -0.1498  0.3567
 3907TIP3   OH211642   4.362   5.421   3.530  0.0530 -0.1127 -0.0853
 3907TIP3    H111643   4.383   5.337   3.489 -0.3017 -0.4427  0.4022
 3907TIP3    H211644   4.378   5.407   3.624  2.0684  1.0003 -0.1987
 3908TIP3   OH211645   2.669   4.409   0.381 -0.3087 -0.3562  0.0965
 3908TIP3    H111646   2.707   4.456   0.307  0.1043  0.0631  0.5681
 3908TIP3    H211647   2.706   4.321   0.376 -0.3683 -0.3624 -0.2561
 3909TIP3   OH211648   7.904   3.467   2.032 -0.6083  0.0680 -0.0691
 3909TIP3    H111649   7.852   3.548   2.031 -0.9303 -0.1408 -1.5883
 3909TIP3    H211650   7.849   3.404   2.078 -0.8219  0.4032  0.1419
 3910TIP3   OH211651   0.737   0.964   4.838 -0.1041  0.0128 -0.0754
 3910TIP3    H111652   0.832   0.970   4.836 -0.1546  1.4171  0.5911
 3910TIP3    H211653   0.720   0.872   4.859  1.0587 -0.5181 -1.2851
 3911TIP3   OH211654   3.337   6.868   1.685  0.3562  0.6314 -0.2012
 3911TIP3    H111655   3.371   6.950   1.720  1.4884 -0.6078  1.8265
 3911TIP3    H211656   3.292   6.827   1.760  1.2474 -1.3019 -0.6646
 3912TIP3   OH211657   1.968   1.141   5.707  0.2352 -0.4323  0.6111
 3912TIP3    H111658   1.940   1.106   5.792 -0.3333 -1.8654 -0.1362
 3912TIP3    H211659   1.922   1.088   5.642 -0.2662  1.3972 -0.6218
 3913TIP3   OH211660   1.246   7.973   6.075  0.4302  0.1298 -0.3142
 3913TIP3    H111661   1.327   7.942   6.036  0.7979  0.4678  0.1657
 3913TIP3    H211662   1.265   7.981   6.169  0.9137  3.3483 -0.5606
 3914TIP3   OH211663   3.377   3.024   3.378  0.3217 -0.4129  0.1291
 3914TIP3    H111664   3.435   2.958   3.340  1.3457  0.6995 -0.3071
 3914TIP3    H211665   3.395   3.104   3.328 -3.4895 -0.5873 -1.8491
 3915TIP3   OH211666   3.458   6.398   0.959 -0.5108  0.5001 -0.0829
 3915TIP3    H111667   3.469   6.382   0.865 -3.0107 -0.5194 -0.2695
 3915TIP3    H211668   3.437   6.491   0.965  2.4607  1.2867 -0.1632
 3916TIP3   OH211669   0.623   2.229   5.089  0.1872  0.1342  0.6143
 3916TIP3    H111670   0.560   2.211   5.019 -0.8774  0.5876  1.4338
 3916TIP3    H211671   0.677   2.300   5.055  1.2505 -1.2287 -0.6810
 3917TIP3   OH211672   4.845   3.311   3.673 -0.0622 -0.1103 -0.1169
 3917TIP3    H111673   4.824   3.401   3.647  1.8156 -0.0653 -1.7007
 3917TIP3    H211674   4.901   3.278   3.603  2.0577 -1.3876  2.0165
 3918TIP3   OH211675   2.991   5.554   6.465  0.3780  0.4111 -0.1412
 3918TIP3    H111676   3.028   5.497   6.533  0.7739  0.4739 -0.3032
 3918TIP3    H211677   2.933   5.497   6.415 -1.5830  0.8237  1.5297
 3919TIP3   OH211678   5.202   2.444   1.542  0.0197 -0.3735  0.3931
 3919TIP3    H111679   5.263   2.378   1.575  1.1419  0.2326 -0.3897
 3919TIP3    H211680   5.202   2.513   1.608  0.0114 -0.4781  0.5016
 3920TIP3   OH211681   7.481   0.227   3.062  0.1401  0.4994  0.0937
 3920TIP3    H111682   7.444   0.151   3.106  1.3102  0.1255  0.4522
 3920TIP3    H211683   7.495   0.198   2.972 -1.4473  0.9954 -0.3422
 3921TIP3   OH211684   7.798   4.575   2.251 -0.2174  0.0601  0.5490
 3921TIP3    H111685   7.797   4.557   2.345  0.9686 -0.7254  0.4296
 3921TIP3    H211686   7.723   4.633   2.237 -2.4535 -2.3984  1.4847
 3922TIP3   OH211687   7.635   2.864   4.360  0.6166  0.5367  0.4356
 3922TIP3    H111688   7.539   2.865   4.366  0.3219 -2.7267 -1.5013
 3922TIP3    H211689   7.658   2.954   4.339 -2.2868  0.9610 -1.6449
 3923TIP3   OH211690   5.653   3.549   3.613  0.8266  0.3531 -0.4570
 3923TIP3    H111691   5.709   3.471   3.604  1.8527  1.1084 -0.7742
 3923TIP3    H211692   5.577   3.518   3.664 -0.1319 -1.5208 -2.8269
 3924TIP3   OH211693   0.333   0.992   4.614 -0.1735  0.0421 -0.4113
 3924TIP3    H111694   0.422   1.008   4.583 -1.0515 -0.0958 -3.3350
 3924TIP3    H211695   0.301   0.920   4.559 -1.4647 -1.2740  1.9199
 3925TIP3   OH211696   4.410   5.040   5.692 -0.0926  0.1936  0.1972
 3925TIP3    H111697   4.349   4.970   5.669 -0.4456  1.2118 -2.2426
 3925TIP3    H211698   4.372   5.080   5.770 -1.7073 -0.1999 -0.3552
 3926TIP3   OH211699   3.218   7.791   2.257 -0.3697  0.2685  0.3617
 3926TIP3    H111700   3.221   7.721   2.193 -1.1212 -0.1677  0.7906
 3926TIP3    H211701   3.293   7.775   2.314 -1.5638 -1.3068  1.5749
 3927TIP3   OH211702   4.242   2.259   4.137 -0.2664  0.3113 -0.2369
 3927TIP3    H111703   4.213   2.339   4.181 -0.2226 -0.2192  0.7601
 3927TIP3    H211704   4.316   2.228   4.188  1.3932  1.0179 -2.1075
 3928TIP3   OH211705   6.872   0.312   4.845  0.3167 -0.3824  0.0834
 3928TIP3    H111706   6.799   0.250   4.846 -0.4991  0.5267  2.2108
 3928TIP3    H211707   6.926   0.286   4.919 -0.1839  1.5472  1.1788
 3929TIP3   OH211708   0.769   5.293   2.049  0.1012 -0.1135  0.2176
 3929TIP3    H111709   0.717   5.217   2.074  0.1979 -0.1058  0.4463
 3929TIP3    H211710   0.706   5.354   2.012 -0.0763 -0.0406  0.6329
 3930TIP3   OH211711   4.215   2.411   6.201 -0.0143  0.0329  0.0007
 3930TIP3    H111712   4.235   2.321   6.225 -1.6141 -0.6944 -1.2208
 3930TIP3    H211713   4.289   2.462   6.234  0.3563 -1.5487  1.7581
 3931TIP3   OH211714   2.413   3.868   3.366  0.2683  0.3080  0.0105
 3931TIP3    H111715   2.472   3.797   3.389  1.2363  0.8541 -0.7315
 3931TIP3    H211716   2.358   3.831   3.296  1.7136  0.6955 -1.3848
 3932TIP3   OH211717   8.590   0.436   0.607  0.2501  1.0069 -0.3423
 3932TIP3    H111718   8.681   0.425   0.579  0.1080  0.8968 -0.7653
 3932TIP3    H211719   8.596   0.446   0.702  0.5826 -0.6779 -0.1428
 3933TIP3   OH211720   4.626   1.888   5.889 -0.3861  0.8779 -0.5974
 3933TIP3    H111721   4.697   1.935   5.846  0.7461 -0.3610 -0.1161
 3933TIP3    H211722   4.546   1.923   5.848  0.5054  1.8871 -1.5282
 3934TIP3   OH211723   7.106   4.282   3.860  0.3117  0.8245 -0.0010
 3934TIP3    H111724   7.157   4.213   3.817 -0.6271 -0.2106  0.4997
 3934TIP3    H211725   7.015   4.254   3.849 -0.0365  1.5312  0.9924
 3935TIP3   OH211726   7.924   3.681   4.367 -0.1870  0.3816  0.1433
 3935TIP3    H111727   8.017   3.694   4.351  0.0953 -0.3250  1.1514
 3935TIP3    H211728   7.902   3.747   4.433  0.5427 -1.9262  2.9052
 3936TIP3   OH211729   6.077   3.005   3.430  0.0488  0.0253 -0.0316
 3936TIP3    H111730   6.154   2.987   3.376 -0.2773 -0.3264 -0.3876
 3936TIP3    H211731   6.107   2.993   3.520  0.3838 -0.2190 -0.1742
 3937TIP3   OH211732   4.063   2.893   6.545 -0.1212 -0.7850  0.3510
 3937TIP3    H111733   4.044   2.947   6.621  0.3689 -0.0348 -0.0452
 3937TIP3    H211734   4.157   2.876   6.551  0.2046  0.4815 -0.8404
 3938TIP3   OH211735   3.912   6.004   0.337 -0.5156  0.8275  0.6481
 3938TIP3    H111736   3.946   5.930   0.387 -1.0373  0.8356  1.0220
 3938TIP3    H211737   3.928   5.980   0.245  2.2063  1.6808  0.8283
 3939TIP3   OH211738   4.053   2.347   5.796  0.2100 -0.4706  0.1438
 3939TIP3    H111739   3.962   2.334   5.824  0.0305  0.6925  0.1231
 3939TIP3    H211740   4.082   2.426   5.842  1.3124 -0.9869  0.3727
 3940TIP3   OH211741   7.654   0.875   2.590 -0.4179  0.5512  0.7612
 3940TIP3    H111742   7.691   0.938   2.528  0.6374 -0.5309  0.2477
 3940TIP3    H211743   7.668   0.790   2.548 -4.2976  0.0675  0.1239
 3941TIP3   OH211744   3.140   1.088   2.238 -0.0686 -0.2242 -0.0372
 3941TIP3    H111745   3.073   1.033   2.198  1.2995 -1.1910 -1.1047
 3941TIP3    H211746   3.171   1.145   2.167 -1.7729  2.3462  1.1509
 3942TIP3   OH211747   1.506   2.670   4.630  0.2814 -0.1923  0.2558
 3942TIP3    H111748   1.516   2.713   4.715  1.2535 -1.5983  0.9044
 3942TIP3    H211749   1.593   2.635   4.611 -0.2836 -1.1940 -0.5871
 3943TIP3   OH211750   5.475   5.582   5.778  0.6227  0.3403 -0.0261
 3943TIP3    H111751   5.388   5.592   5.740  0.4224  0.5269  0.4667
 3943TIP3    H211752   5.504   5.496   5.750  1.1849  1.1383 -2.0007
 3944TIP3   OH211753   2.426   4.631   1.350 -0.8581  0.2930  0.0326
 3944TIP3    H111754   2.354   4.594   1.402 -0.9742  0.5300  0.0418
 3944TIP3    H211755   2.383   4.666   1.271 -0.6940  0.0175 -0.1792
 3945TIP3   OH211756   6.027   3.635   0.172 -0.0097  0.1426 -0.0200
 3945TIP3    H111757   6.083   3.695   0.221 -0.0844  0.0105  0.2287
 3945TIP3    H211758   5.938   3.667   0.188 -0.0304  0.1299 -0.1103
 3946TIP3   OH211759   5.415   5.294   2.286 -0.2809  0.2543  0.1480
 3946TIP3    H111760   5.436   5.388   2.279  0.1604  0.0804 -1.1537
 3946TIP3    H211761   5.326   5.288   2.250  0.1262  0.0299 -0.8535
 3947TIP3   OH211762   6.691   2.884   0.224  0.4501 -0.0232 -0.1754
 3947TIP3    H111763   6.690   2.904   0.130 -1.0514 -0.0588 -0.1932
 3947TIP3    H211764   6.609   2.836   0.239  0.5496  0.2018  1.1996
 3948TIP3   OH211765   8.634   0.367   4.809  0.6116  0.2906  0.0779
 3948TIP3    H111766   8.726   0.350   4.787  0.8685 -0.0678  1.3407
 3948TIP3    H211767   8.633   0.372   4.905 -0.5937  0.8710  0.0498
 3949TIP3   OH211768   3.063   2.213   0.758  0.3770 -0.6087 -0.2662
 3949TIP3    H111769   3.147   2.197   0.801  1.3478 -0.0859 -1.8823
 3949TIP3    H211770   3.086   2.241   0.669 -1.4892  0.3576 -0.5016
 3950TIP3   OH211771   1.699   8.106   5.342  0.4903  0.3008  0.2327
 3950TIP3    H111772   1.654   8.024   5.361  0.6281  0.3467  0.7608
 3950TIP3    H211773   1.770   8.082   5.282  1.6946 -0.2747  1.8410
 3951TIP3   OH211774   3.337   2.619   5.687  0.2179  0.5919  0.0858
 3951TIP3    H111775   3.323   2.713   5.691 -1.9568  0.3195  0.6055
 3951TIP3    H211776   3.304   2.594   5.600 -1.1060  0.1141  0.6890
 3952TIP3   OH211777   4.818   2.220   3.774 -0.1048  0.0982  0.0691
 3952TIP3    H111778   4.730   2.219   3.738 -0.4516  1.7493  0.8084
 3952TIP3    H211779   4.875   2.229   3.698 -0.6801  0.8840 -0.2748
 3953TIP3   OH211780   7.474   3.075   4.910  0.4658 -0.9162  0.2208
 3953TIP3    H111781   7.520   3.130   4.974 -0.4669 -1.0571  1.0320
 3953TIP3    H211782   7.529   2.997   4.903  2.2510  0.4016 -1.5693
 3954TIP3   OH211783   2.893   2.042   0.608 -0.0001 -0.5451 -0.6470
 3954TIP3    H111784   2.957   2.095   0.655  0.2097 -0.2427 -1.2618
 3954TIP3    H211785   2.913   2.057   0.515 -0.5073 -1.0042 -0.8356
 3955TIP3   OH211786   3.056   0.313   0.994 -0.0260 -0.4294  0.4906
 3955TIP3    H111787   3.055   0.332   1.088  2.0769 -2.1700  0.9372
 3955TIP3    H211788   2.970   0.276   0.977 -0.0011 -1.2728  2.0274
 3956TIP3   OH211789   2.519   3.454   0.554  0.3189 -0.3130 -0.2604
 3956TIP3    H111790   2.455   3.500   0.608  0.7675 -1.1786  1.0541
 3956TIP3    H211791   2.488   3.364   0.550  0.1097 -0.2063 -1.7799
 3957TIP3   OH211792   3.461   4.248   0.342  0.2025  0.5768 -0.2944
 3957TIP3    H111793   3.380   4.204   0.316  0.7123 -0.7523  0.2737
 3957TIP3    H211794   3.530   4.199   0.298  0.7593  1.2308 -0.1636
 3958TIP3   OH211795   7.255   0.426   0.268  0.2542 -0.6067 -1.0103
 3958TIP3    H111796   7.162   0.446   0.254  0.3695 -0.5404 -1.7268
 3958TIP3    H211797   7.300   0.476   0.200  0.7604 -1.2115 -1.1244
 3959TIP3   OH211798   1.618   6.474   6.676 -0.1559 -0.3958  0.7827
 3959TIP3    H111799   1.688   6.536   6.654 -1.0788  0.1519 -0.8353
 3959TIP3    H211800   1.540   6.513   6.638 -0.9658 -2.0104  0.7186
 3960TIP3   OH211801   3.887   8.012   1.840  0.1472  0.4820 -0.3415
 3960TIP3    H111802   3.909   7.969   1.757 -1.7515 -2.6939  0.6258
 3960TIP3    H211803   3.803   8.055   1.824 -0.1078  0.0604 -0.1610
 3961TIP3   OH211804   4.423   6.068   2.910 -0.2381 -0.6266  0.5364
 3961TIP3    H111805   4.485   5.995   2.914 -0.7852 -1.1749 -0.6519
 3961TIP3    H211806   4.338   6.029   2.928 -0.2597  0.1698  2.4002
 3962TIP3   OH211807   8.168   2.197   2.869 -0.8199 -0.5812  0.1030
 3962TIP3    H111808   8.149   2.152   2.951 -1.6323 -1.2157 -0.4259
 3962TIP3    H211809   8.181   2.288   2.894 -2.0415 -0.5881  0.8201
 3963TIP3   OH211810   2.709   0.150   4.783 -0.2549  0.0256  0.2919
 3963TIP3    H111811   2.744   0.142   4.871  0.5090  2.5431  0.2996
 3963TIP3    H211812   2.769   0.102   4.727 -0.9700 -1.9358  1.1407
 3964TIP3   OH211813   6.552   3.221   6.200  0.4052  0.1697 -0.3867
 3964TIP3    H111814   6.521   3.312   6.199  1.0516  0.3951 -0.6321
 3964TIP3    H211815   6.520   3.183   6.118 -0.6338 -0.1001  0.1262
 3965TIP3   OH211816   3.296   3.527   3.148 -0.6705 -0.2274 -0.4291
 3965TIP3    H111817   3.252   3.442   3.139  0.0011 -0.8744  1.6398
 3965TIP3    H211818   3.239   3.577   3.207 -0.8616  0.6328 -1.3214
 3966TIP3   OH211819   3.031   3.549   1.003  1.2342  0.3449  0.6120
 3966TIP3    H111820   3.015   3.643   0.998  0.6028  0.2612  0.9889
 3966TIP3    H211821   3.013   3.525   1.094  0.7263 -0.2519  0.3686
 3967TIP3   OH211822   6.633   1.229   3.443 -0.0702 -0.1241  0.2594
 3967TIP3    H111823   6.662   1.189   3.526 -0.3453  1.0611  0.9512
 3967TIP3    H211824   6.634   1.323   3.461 -1.4831  0.0840 -0.6423
 3968TIP3   OH211825   2.473   4.417   3.162 -0.2363  0.8472 -0.2194
 3968TIP3    H111826   2.544   4.395   3.222  0.4484 -2.9405 -2.0875
 3968TIP3    H211827   2.398   4.432   3.219  1.0562  0.4626  1.6842
 3969TIP3   OH211828   7.687   6.343   3.255  0.1124 -0.4308  0.8112
 3969TIP3    H111829   7.760   6.295   3.216  0.0668  0.8015 -0.8741
 3969TIP3    H211830   7.628   6.275   3.287  1.3883 -1.4507  1.0611
 3970TIP3   OH211831   6.444   4.375   6.303 -0.4160  0.3099 -0.3153
 3970TIP3    H111832   6.474   4.438   6.237 -0.1938 -0.3052 -0.8107
 3970TIP3    H211833   6.350   4.390   6.309 -0.6520 -0.4819 -1.7066
 3971TIP3   OH211834   7.008   0.365   5.953 -0.3969 -0.0450 -0.3102
 3971TIP3    H111835   6.983   0.377   6.044 -2.0491 -0.0056 -0.7351
 3971TIP3    H211836   6.969   0.439   5.907 -0.6239 -0.7069 -1.2152
 3972TIP3   OH211837   5.277   7.812   3.278  0.2797  0.8824 -0.1928
 3972TIP3    H111838   5.372   7.823   3.280  0.3366  0.3440  0.5078
 3972TIP3    H211839   5.242   7.900   3.266  0.8541  1.1443  0.0476
 3973TIP3   OH211840   0.119   4.643   1.716 -0.2481  0.3300  0.1426
 3973TIP3    H111841   0.167   4.696   1.653 -0.1913  0.2289  0.0990
 3973TIP3    H211842   0.177   4.568   1.733  0.2526  0.9532  1.2263
 3974TIP3   OH211843   6.247   7.867   6.976  0.3839  0.4429  0.0473
 3974TIP3    H111844   6.233   7.787   7.026 -1.5876  0.4369 -0.4037
 3974TIP3    H211845   6.213   7.937   7.032 -2.3801  0.3778 -1.3398
 3975TIP3   OH211846   1.282   6.291   6.033 -0.0786  0.0965  0.3678
 3975TIP3    H111847   1.199   6.335   6.014 -1.0785 -1.8442  0.0264
 3975TIP3    H211848   1.308   6.252   5.949 -0.3720 -1.7804  1.1173
 3976TIP3   OH211849   1.895   0.522   5.973 -0.9741 -0.0328 -0.1504
 3976TIP3    H111850   1.884   0.502   5.880  1.5526  0.3688 -0.6019
 3976TIP3    H211851   1.928   0.441   6.012 -2.6671 -0.4126  0.5887
 3977TIP3   OH211852   7.252   2.278   0.053 -0.3986  0.1197  0.1065
 3977TIP3    H111853   7.291   2.224   0.122 -0.9424  0.7058  0.8836
 3977TIP3    H211854   7.253   2.222  -0.024  3.9929  0.7536 -0.5784
 3978TIP3   OH211855   2.835   8.030   4.721 -0.2393  0.1951  0.5266
 3978TIP3    H111856   2.919   8.002   4.756 -0.1190  0.7421  0.6757
 3978TIP3    H211857   2.839   8.007   4.628  1.0908  2.4742 -0.0557
 3979TIP3   OH211858   1.560   4.874   1.084  0.0208 -0.4143  0.7403
 3979TIP3    H111859   1.597   4.947   1.036  0.1952 -0.8705  0.1686
 3979TIP3    H211860   1.622   4.802   1.070 -1.4585 -1.4358 -0.9104
 3980TIP3   OH211861   7.493   3.742   3.290  0.4599 -0.4691 -0.5542
 3980TIP3    H111862   7.528   3.717   3.205  2.2898 -2.4820  0.6705
 3980TIP3    H211863   7.571   3.756   3.344 -0.6538  0.5611  0.8603
 3981TIP3   OH211864   1.732   6.030   0.484  0.3753  0.0624  0.6213
 3981TIP3    H111865   1.741   6.033   0.579  0.9842  0.1826  0.5666
 3981TIP3    H211866   1.823   6.032   0.452  0.1607  0.4120  0.0304
 3982TIP3   OH211867   5.461   1.502   6.828 -0.3590 -0.7454 -0.3899
 3982TIP3    H111868   5.445   1.596   6.825 -1.2679 -0.7912  1.6065
 3982TIP3    H211869   5.513   1.489   6.907 -2.9235 -2.2203  1.1767
 3983TIP3   OH211870   8.209   4.489   0.290 -0.4952 -0.4544  0.4938
 3983TIP3    H111871   8.205   4.403   0.332  1.0172 -0.7157  0.1824
 3983TIP3    H211872   8.125   4.530   0.309 -1.8284 -2.5431 -0.5106
 3984TIP3   OH211873   7.809   1.550   2.412  0.5208  0.2208  0.4962
 3984TIP3    H111874   7.827   1.485   2.345 -0.2740 -0.9172  1.3387
 3984TIP3    H211875   7.869   1.530   2.483  1.7708  1.7870 -0.0557
 3985TIP3   OH211876   1.942   0.296   6.145  0.4758 -0.9316 -0.0905
 3985TIP3    H111877   1.996   0.243   6.204 -0.9940  0.0935  2.3451
 3985TIP3    H211878   1.878   0.235   6.109 -0.0807 -1.2114  1.2915
 3986TIP3   OH211879   6.679   7.545   5.102 -0.0640  0.1619 -0.1343
 3986TIP3    H111880   6.711   7.593   5.178  1.2680  0.4837 -0.8562
 3986TIP3    H211881   6.588   7.526   5.122  0.5565 -0.8715  2.1066
 3987TIP3   OH211882   5.689   0.448   5.023 -0.3595 -0.2647  0.1046
 3987TIP3    H111883   5.686   0.394   5.102 -1.3490 -1.0443 -0.4392
 3987TIP3    H211884   5.624   0.517   5.038  0.5758  0.5390  0.6057
 3988TIP3   OH211885   0.424   4.682   0.905  0.3530  0.1151  0.3978
 3988TIP3    H111886   0.348   4.636   0.939 -0.2163  0.5605 -0.2508
 3988TIP3    H211887   0.497   4.653   0.960 -0.2621 -0.4055  0.9423
 3989TIP3   OH211888   8.602   2.555   0.736  0.0399 -0.2614  0.5641
 3989TIP3    H111889   8.569   2.626   0.791 -2.6562  1.2096 -2.5917
 3989TIP3    H211890   8.598   2.590   0.647  0.6952 -3.6547 -0.9599
 3990TIP3   OH211891   1.098   7.180   1.460 -0.2334 -0.1647  0.2294
 3990TIP3    H111892   1.073   7.140   1.377  0.2099 -0.0460  0.0416
 3990TIP3    H211893   1.106   7.106   1.520  0.4486 -0.3450 -0.0839
 3991TIP3   OH211894   6.144   5.334   3.432  0.3549 -0.0508 -0.3165
 3991TIP3    H111895   6.136   5.257   3.375  0.2576 -1.4046  1.4099
 3991TIP3    H211896   6.130   5.409   3.375  1.2387 -1.2784 -2.2203
 3992TIP3   OH211897   1.559   1.199   5.249 -0.1398  0.3029  0.3673
 3992TIP3    H111898   1.557   1.194   5.344  0.7428 -0.8536  0.3496
 3992TIP3    H211899   1.556   1.107   5.221 -0.1919  0.6229 -0.7175
 3993TIP3   OH211900   6.628   3.929   4.482  0.2007 -0.5420 -0.2371
 3993TIP3    H111901   6.700   3.975   4.526  1.1646 -2.1291 -0.0724
 3993TIP3    H211902   6.646   3.837   4.499 -1.0301 -1.0405 -1.5399
 3994TIP3   OH211903   6.708   1.542   4.383  0.2066  0.3335  0.1009
 3994TIP3    H111904   6.648   1.525   4.455  0.5988 -0.2048  0.3017
 3994TIP3    H211905   6.651   1.568   4.310 -0.2450  0.1058  0.3722
 3995TIP3   OH211906   2.651   5.683   4.209  0.3756  0.1832 -0.1027
 3995TIP3    H111907   2.680   5.774   4.211 -0.3022  0.4313 -0.7832
 3995TIP3    H211908   2.559   5.686   4.237  0.2702 -0.2553 -0.3754
 3996TIP3   OH211909   4.938   5.104   5.987  0.1256 -0.1664  0.4764
 3996TIP3    H111910   4.916   5.029   5.932 -0.9481  1.4803 -1.4422
 3996TIP3    H211911   5.025   5.084   6.021  0.6129 -1.4833 -1.4199
 3997TIP3   OH211912   1.840   6.299   0.573 -0.1524 -0.2086 -0.0274
 3997TIP3    H111913   1.782   6.230   0.541  0.8224 -0.4076 -1.4553
 3997TIP3    H211914   1.835   6.367   0.506 -1.7189  1.5335  1.7306
 3998TIP3   OH211915   5.300   1.277   0.733  0.0578 -0.1274  0.1307
 3998TIP3    H111916   5.305   1.273   0.637 -1.5915 -0.0117  0.0060
 3998TIP3    H211917   5.207   1.266   0.752  0.4765 -1.0195  1.7836
 3999TIP3   OH211918   3.508   2.925   5.393  0.4494 -0.3289 -0.2330
 3999TIP3    H111919   3.450   2.927   5.469  2.1180  0.0291  1.0884
 3999TIP3    H211920   3.449   2.928   5.318 -1.2603 -0.7744  1.0263
 4000TIP3   OH211921   2.806   5.202   4.250  0.3869  0.4250  0.5274
 4000TIP3    H111922   2.826   5.129   4.309 -1.9478  0.3000  1.2726
 4000TIP3    H211923   2.788   5.160   4.165  0.9815  0.3330  0.4456
 4001TIP3   OH211924   6.163   0.655   4.942  0.3308 -0.1864  0.8730
 4001TIP3    H111925   6.078   0.614   4.927  0.4342 -0.2540  0.4373
 4001TIP3    H211926   6.144   0.735   4.991  0.0260 -0.2410  0.8439
 4002TIP3   OH211927   1.096   8.146   4.738  0.0187  0.3335 -0.0343
 4002TIP3    H111928   1.142   8.065   4.716  2.7808  1.2872  1.7293
 4002TIP3    H211929   1.155   8.216   4.710 -0.5619  1.6551  1.8317
 4003TIP3   OH211930   1.578   6.709   6.896 -0.1552 -0.3781 -0.2811
 4003TIP3    H111931   1.636   6.684   6.824  0.2186  0.6099 -0.3491
 4003TIP3    H211932   1.637   6.740   6.964 -0.4643 -1.9514  0.7470
 4004TIP3   OH211933   8.193   5.885   6.199  0.5321 -0.0093  0.0690
 4004TIP3    H111934   8.233   5.947   6.138  0.2871 -2.3303 -2.6601
 4004TIP3    H211935   8.221   5.799   6.167 -2.8024 -1.5254  0.8803
 4005TIP3   OH211936   5.122   4.373   6.847 -0.1730  0.2584  0.3952
 4005TIP3    H111937   5.152   4.356   6.757 -0.3945  1.7987  0.0126
 4005TIP3    H211938   5.027   4.362   6.843 -0.0814 -0.7959  0.7251
 4006TIP3   OH211939   4.579   1.402   1.079  0.2308 -0.2955  0.0750
 4006TIP3    H111940   4.669   1.401   1.047  1.2419 -0.3728  2.6481
 4006TIP3    H211941   4.566   1.315   1.118 -2.0539 -1.4063 -2.7673
 4007TIP3   OH211942   4.373   0.612   6.542 -0.2162 -0.4817  0.1595
 4007TIP3    H111943   4.438   0.662   6.492 -2.5479  3.9257  1.0482
 4007TIP3    H211944   4.311   0.582   6.476  0.9562 -1.9659 -0.3337
 4008TIP3   OH211945   4.544   6.856   4.990  0.1560  0.2517 -0.2603
 4008TIP3    H111946   4.484   6.817   5.053  0.3702 -1.4178 -1.0543
 4008TIP3    H211947   4.487   6.897   4.925 -0.0744  0.8721  0.3190
 4009TIP3   OH211948   5.708   7.159   2.968  0.1822  0.2172 -0.0419
 4009TIP3    H111949   5.676   7.214   3.039  2.2395 -0.4825  1.5401
 4009TIP3    H211950   5.762   7.093   3.011  1.7928 -0.0545 -2.2644
 4010TIP3   OH211951   8.699   4.446   5.492 -0.0852  0.3520  0.6717
 4010TIP3    H111952   8.677   4.520   5.435  1.3034  1.4140  1.4519
 4010TIP3    H211953   8.664   4.471   5.578 -0.7343 -0.4998  0.6718
 4011TIP3   OH211954   6.869   3.698   3.662  0.1288 -0.1040 -0.3055
 4011TIP3    H111955   6.804   3.671   3.598  1.3927  0.6108 -1.9691
 4011TIP3    H211956   6.843   3.786   3.687  1.2263  0.7788 -2.1130
 4012TIP3   OH211957   0.663   1.775   0.413 -0.4324  0.1186  0.4349
 4012TIP3    H111958   0.604   1.804   0.482  0.4381  1.7208  0.5588
 4012TIP3    H211959   0.651   1.838   0.342 -0.4673 -0.8231 -0.4222
 4013TIP3   OH211960   1.162   6.977   0.439  0.1644 -0.0286  0.4599
 4013TIP3    H111961   1.071   6.971   0.410  0.2156  0.2754  0.2217
 4013TIP3    H211962   1.164   6.930   0.522  0.2598 -1.8944 -0.5586
 4014TIP3   OH211963   0.339   3.890   3.876 -0.2775  0.4421  0.4937
 4014TIP3    H111964   0.303   3.956   3.935  3.4391  0.6946  2.7600
 4014TIP3    H211965   0.319   3.807   3.918  1.0329  0.5416  1.3461
 4015TIP3   OH211966   4.225   7.822   6.131  0.7674 -0.5191 -0.8325
 4015TIP3    H111967   4.292   7.858   6.189 -0.4874  0.5209  0.0256
 4015TIP3    H211968   4.163   7.894   6.118  0.2573 -1.1874 -2.3018
 4016TIP3   OH211969   1.748   6.804   5.284 -0.3045  0.1076  0.6046
 4016TIP3    H111970   1.790   6.889   5.274  0.4911 -0.2197  1.0659
 4016TIP3    H211971   1.734   6.773   5.194  0.3721  0.2628  0.4381
 4017TIP3   OH211972   4.598   3.660   0.155 -0.7216 -0.1362  0.3192
 4017TIP3    H111973   4.642   3.576   0.147  1.7318  0.9566  1.2236
 4017TIP3    H211974   4.510   3.645   0.121 -0.2923 -2.9713  0.2487
 4018TIP3   OH211975   2.908   0.930   6.303 -0.0816 -0.1968  0.4203
 4018TIP3    H111976   2.836   0.927   6.239 -0.8539  0.0810  1.2545
 4018TIP3    H211977   2.907   0.844   6.345 -0.7107  0.2000  1.2514
 4019TIP3   OH211978   1.741  -0.019   2.716  0.2921 -0.0566 -0.1679
 4019TIP3    H111979   1.819  -0.033   2.664 -0.6028 -0.0249 -1.5707
 4019TIP3    H211980   1.731   0.077   2.719  0.3958 -0.0524  0.1741
 4020TIP3   OH211981   8.357   8.164   5.559 -0.4553 -0.1441  0.1555
 4020TIP3    H111982   8.281   8.116   5.594 -0.4640  0.6203  1.2559
 4020TIP3    H211983   8.343   8.254   5.587  0.6089  0.1068 -0.0678
 4021TIP3   OH211984   4.442   7.260   6.234  0.2530  0.0045 -0.1469
 4021TIP3    H111985   4.423   7.227   6.147 -0.0941  2.1233 -0.9414
 4021TIP3    H211986   4.404   7.348   6.235  0.7964  0.2721  1.9257
 4022TIP3   OH211987   1.749   4.687   6.582 -0.4270  0.6177  0.0902
 4022TIP3    H111988   1.836   4.703   6.619  0.4585 -0.1275 -1.5292
 4022TIP3    H211989   1.745   4.592   6.573 -1.7620  0.5853  0.9075
 4023TIP3   OH211990   3.713   1.695   6.687 -0.0843  0.5124  0.1560
 4023TIP3    H111991   3.642   1.674   6.626  0.2149  2.3163 -0.8828
 4023TIP3    H211992   3.788   1.646   6.653  0.2452  1.9710 -1.3914
 4024TIP3   OH211993   3.951   3.070   4.845 -0.5309 -0.4674  0.2405
 4024TIP3    H111994   3.870   3.120   4.848  1.6938  3.4654  0.8699
 4024TIP3    H211995   3.984   3.073   4.934  0.7913 -1.1891 -0.2025
 4025TIP3   OH211996   3.195   3.831   6.999 -0.0713  0.7006 -0.7659
 4025TIP3    H111997   3.208   3.774   7.074  0.2898  0.6888 -0.8358
 4025TIP3    H211998   3.104   3.861   7.007 -0.2588  0.1296 -0.7254
 4026TIP3   OH211999   5.273   4.904   0.027  0.1505  0.4452 -0.1392
 4026TIP3    H112000   5.274   4.828  -0.031 -0.0625  0.0385  0.3784
 4026TIP3    H212001   5.292   4.868   0.114 -0.9647  0.8307  0.2836
 4027TIP3   OH212002   3.033   5.150   2.388 -0.4764 -0.1739  0.1776
 4027TIP3    H112003   3.031   5.237   2.427  1.1799 -0.3126  0.6273
 4027TIP3    H212004   3.015   5.166   2.295 -0.0010  0.6705  0.2189
 4028TIP3   OH212005   3.179   0.451   2.285  0.0869  0.6042  0.5568
 4028TIP3    H112006   3.212   0.367   2.316  1.9488  0.2198 -2.2184
 4028TIP3    H212007   3.228   0.516   2.336  0.0593  0.0314  1.3325
 4029TIP3   OH212008   6.074   2.277   2.981  0.0580  0.3951 -0.1498
 4029TIP3    H112009   6.109   2.355   2.938 -0.3530 -0.0106 -1.2665
 4029TIP3    H212010   6.084   2.207   2.916 -0.4815 -0.2686  0.4605
 4030TIP3   OH212011   1.692   7.816   5.213  0.0874 -0.3200 -0.2938
 4030TIP3    H112012   1.657   7.821   5.124 -0.9688 -1.6095  0.0139
 4030TIP3    H212013   1.614   7.813   5.269  0.6215 -3.0364  0.4357
 4031TIP3   OH212014   0.537   4.961   1.980 -0.3034 -0.0269 -0.2283
 4031TIP3    H112015   0.486   4.907   2.041 -0.3460  0.8406  0.5239
 4031TIP3    H212016   0.618   4.981   2.026  1.0426 -1.8491 -1.6236
 4032TIP3   OH212017   1.800   6.297   1.994  0.0193  0.3888 -0.2702
 4032TIP3    H112018   1.845   6.360   1.937  0.3324  1.7440  1.3955
 4032TIP3    H212019   1.870   6.239   2.025  0.4503  1.6196  1.1911
 4033TIP3   OH212020   6.895   2.762   1.779 -0.1211 -0.0635 -0.1809
 4033TIP3    H112021   6.867   2.681   1.822  0.2198 -0.1910 -0.1998
 4033TIP3    H212022   6.818   2.789   1.728  0.2210 -1.1417 -1.3123
 4034TIP3   OH212023   5.403   0.192   1.004  0.4089  0.0193 -0.3248
 4034TIP3    H112024   5.423   0.210   0.912 -0.2158  0.6437 -0.3447
 4034TIP3    H212025   5.482   0.149   1.038  0.7157 -0.0411 -1.0990
 4035TIP3   OH212026   5.138   4.770   6.489  0.5413 -0.4467  0.1334
 4035TIP3    H112027   5.076   4.726   6.548  0.0040  1.6600  1.2467
 4035TIP3    H212028   5.212   4.794   6.545 -0.1686  1.9846  0.1619
 4036TIP3   OH212029   5.100   7.257   3.292  0.3697 -0.2536 -0.4306
 4036TIP3    H112030   5.064   7.213   3.369  0.3166 -1.5899 -1.1749
 4036TIP3    H212031   5.071   7.348   3.300  0.5049 -0.3230  1.1933
 4037TIP3   OH212032   0.503   2.592   2.929  0.0215 -0.1356 -0.0631
 4037TIP3    H112033   0.482   2.570   2.839  0.7763 -1.7413  0.1185
 4037TIP3    H212034   0.515   2.508   2.973  1.0758  0.6117  1.1852
 4038TIP3   OH212035   4.141   5.720   6.429  0.3446 -0.3952  0.0295
 4038TIP3    H112036   4.104   5.690   6.512  0.3617 -1.2529 -0.2619
 4038TIP3    H212037   4.187   5.802   6.451 -0.9260  0.2023  0.5757
 4039TIP3   OH212038   4.784   6.851   6.220 -0.2147  0.2217  0.2254
 4039TIP3    H112039   4.742   6.905   6.153  0.2367 -0.3886 -0.5547
 4039TIP3    H212040   4.721   6.780   6.237 -0.6831  0.8113  1.0465
 4040TIP3   OH212041   1.876   6.438   2.280 -0.3877 -0.1964  0.6024
 4040TIP3    H112042   1.885   6.377   2.354  0.4194 -2.1098 -0.9761
 4040TIP3    H212043   1.787   6.424   2.248 -0.3900 -0.1352  0.5823
 4041TIP3   OH212044   0.204   0.755   0.743 -0.0913  0.2256  0.0604
 4041TIP3    H112045   0.176   0.745   0.652  1.6821 -2.7574 -0.2955
 4041TIP3    H212046   0.297   0.776   0.737  0.2417 -0.8581  1.1747
 4042TIP3   OH212047   2.478   4.835   1.779  0.3432  0.0251 -0.5783
 4042TIP3    H112048   2.527   4.825   1.697  1.2990 -0.0176 -0.0231
 4042TIP3    H212049   2.508   4.918   1.815  0.7583 -0.4742  0.2591
 4043TIP3   OH212050   5.986   6.144   6.923 -0.0588  0.3851 -0.2025
 4043TIP3    H112051   6.025   6.073   6.873  2.0975  1.8091 -0.7292
 4043TIP3    H212052   6.045   6.155   6.998 -1.1333  0.7248  0.6145
 4044TIP3   OH212053   4.244   0.272   1.895 -0.5474  0.2873  0.1317
 4044TIP3    H112054   4.302   0.326   1.949  0.2656 -0.6810  0.2678
 4044TIP3    H212055   4.156   0.294   1.924 -0.1535  0.2954  1.3694
 4045TIP3   OH212056   3.584   2.698   6.014  0.2361 -0.3944 -0.0870
 4045TIP3    H112057   3.679   2.708   6.020  0.2487 -0.3913 -0.3023
 4045TIP3    H212058   3.565   2.621   6.068  0.3240 -0.2097  0.2127
 4046TIP3   OH212059   5.633   0.174   2.914  0.2669 -0.5143 -0.0983
 4046TIP3    H112060   5.686   0.243   2.874  1.3539 -0.8140  0.7736
 4046TIP3    H212061   5.619   0.111   2.844  0.4999 -0.1021 -0.5206
 4047TIP3   OH212062   1.607   1.629   1.889 -0.0609  0.3879  0.0247
 4047TIP3    H112063   1.519   1.623   1.852 -0.7459 -0.4488  1.6813
 4047TIP3    H212064   1.602   1.704   1.948 -0.2730 -0.7870  1.5594
 4048TIP3   OH212065   4.796   1.963   6.561 -0.4484 -0.2338 -0.0701
 4048TIP3    H112066   4.735   1.988   6.492 -1.2404  1.9143  1.3117
 4048TIP3    H212067   4.882   1.974   6.522 -0.8685  1.6168 -0.5721
 4049TIP3   OH212068   2.967   7.817   0.422  0.0968  0.8691  0.4067
 4049TIP3    H112069   2.914   7.856   0.352  0.9854 -0.3446 -1.0024
 4049TIP3    H212070   3.047   7.870   0.424  0.2019  0.7176  0.2760
 4050TIP3   OH212071   5.092   7.485   1.443 -0.0536  0.9446  0.0121
 4050TIP3    H112072   5.037   7.408   1.432  0.5931  0.1586  1.9006
 4050TIP3    H212073   5.041   7.544   1.498 -0.0043  1.3070 -0.3203
 4051TIP3   OH212074   7.055   4.898   6.991  0.2558 -0.1730  0.4060
 4051TIP3    H112075   7.031   4.812   7.025 -2.4864  0.5457  0.4763
 4051TIP3    H212076   7.034   4.959   7.061 -0.4510  0.8164 -0.6366
 4052TIP3   OH212077   5.645   6.503   0.790  0.7623  0.3248 -0.1408
 4052TIP3    H112078   5.599   6.577   0.830  0.2131  0.4219 -0.9168
 4052TIP3    H212079   5.638   6.432   0.853 -3.0091 -0.5897 -1.3141
 4053TIP3   OH212080   4.833   5.298   4.533  0.4631  0.0185  0.1594
 4053TIP3    H112081   4.778   5.374   4.516 -0.5706 -0.7164  0.1569
 4053TIP3    H212082   4.922   5.329   4.519  0.0688  1.2749  0.3311
 4054TIP3   OH212083   7.441   6.987   1.338  0.7124 -0.0155  0.1548
 4054TIP3    H112084   7.527   7.015   1.372  1.1948 -2.7037  1.4291
 4054TIP3    H212085   7.462   6.920   1.273 -0.3880 -1.8058  1.5702
 4055TIP3   OH212086   2.526   0.626   3.290 -0.5522 -0.0307  0.3716
 4055TIP3    H112087   2.464   0.697   3.305 -1.6295 -0.7861 -0.3311
 4055TIP3    H212088   2.523   0.573   3.369  0.4157  0.7978  0.9858
 4056TIP3   OH212089   3.834   3.388   1.020  0.3618 -0.6291 -0.2679
 4056TIP3    H112090   3.761   3.336   1.054 -0.0880  0.6511  0.8249
 4056TIP3    H212091   3.792   3.460   0.973  0.8397  0.6206  1.1209
 4057TIP3   OH212092   3.673   6.420   4.234  0.4136  0.4835  0.1047
 4057TIP3    H112093   3.666   6.505   4.277  0.2233  0.3883  0.2644
 4057TIP3    H212094   3.606   6.366   4.276 -0.5842  0.7379 -1.1152
 4058TIP3   OH212095   1.279   7.214   1.732 -0.1336 -0.4675  0.3902
 4058TIP3    H112096   1.230   7.274   1.675  0.5023 -0.0637  0.2546
 4058TIP3    H212097   1.266   7.128   1.692  0.5658 -0.1491 -0.5747
 4059TIP3   OH212098   0.869   1.332   6.256  0.1627 -0.6567  0.3194
 4059TIP3    H112099   0.811   1.291   6.192  1.3027 -3.7670  1.0876
 4059TIP3    H212100   0.821   1.327   6.339 -0.0345  0.4366  0.2825
 4060TIP3   OH212101   8.019   4.873   0.764  0.2332 -0.3029 -0.6847
 4060TIP3    H112102   8.050   4.819   0.690  0.6058  0.9863 -1.5029
 4060TIP3    H212103   7.944   4.921   0.728 -0.2780 -0.4803  0.1268
 4061TIP3   OH212104   8.015   3.148   1.176 -0.4234  0.0261 -0.3778
 4061TIP3    H112105   7.980   3.210   1.240  1.1787  1.0780 -0.4733
 4061TIP3    H212106   7.951   3.149   1.105 -0.5141  1.4809 -0.3082
 4062TIP3   OH212107   1.403   7.689   6.351 -0.1468 -0.1922  0.2352
 4062TIP3    H112108   1.389   7.680   6.256  1.5582  1.9779 -0.3048
 4062TIP3    H212109   1.315   7.707   6.386 -0.7292 -0.5381 -0.9710
 4063TIP3   OH212110   4.185   2.183   0.003  0.0244 -0.7102  0.2746
 4063TIP3    H112111   4.255   2.222   0.056  0.6687 -2.7084  0.9914
 4063TIP3    H212112   4.105   2.211   0.047  0.3491  0.9516 -0.0938
 4064TIP3   OH212113   2.893   2.548   0.872  0.0839  0.1246  0.1554
 4064TIP3    H112114   2.977   2.506   0.893  0.9624  2.4295  1.6877
 4064TIP3    H212115   2.914   2.610   0.803  0.2422  2.2643  1.9910
 4065TIP3   OH212116   5.360   6.363   2.641  0.3266  0.2492 -0.4345
 4065TIP3    H112117   5.399   6.324   2.562  0.6220 -1.1411  0.3769
 4065TIP3    H212118   5.315   6.291   2.684  1.7319  0.5078  1.6271
 4066TIP3   OH212119   1.394   6.878   4.617  0.4269  0.0898  0.0433
 4066TIP3    H112120   1.354   6.958   4.582  2.0796 -0.2270 -2.8952
 4066TIP3    H212121   1.488   6.895   4.615  0.7464 -1.5028  0.4863
 4067TIP3   OH212122   3.636   3.560   1.170  0.4586  0.3008 -0.1382
 4067TIP3    H112123   3.617   3.650   1.196  1.1969  0.6984 -0.9483
 4067TIP3    H212124   3.666   3.566   1.079  0.3127 -0.7846 -0.2727
 4068TIP3   OH212125   6.799   0.731   0.255 -0.0836  0.5555  0.3158
 4068TIP3    H112126   6.711   0.739   0.217 -0.3236 -0.4095  0.6226
 4068TIP3    H212127   6.857   0.767   0.189 -0.6559  0.5813 -0.1854
 4069TIP3   OH212128   1.886   0.500   2.874  0.5065 -0.3364 -0.0100
 4069TIP3    H112129   1.845   0.505   2.961 -0.1077 -1.7731 -0.1876
 4069TIP3    H212130   1.928   0.585   2.863 -0.4092  0.3180  1.2017
 4070TIP3   OH212131   7.354   2.494   0.389  0.3289 -0.2011 -0.0649
 4070TIP3    H112132   7.422   2.487   0.455  1.5103 -1.6693 -1.3500
 4070TIP3    H212133   7.317   2.406   0.384 -0.2459  0.0704 -0.8349
 4071TIP3   OH212134   6.853   1.449   1.965  0.0282 -0.1897 -0.2351
 4071TIP3    H112135   6.922   1.470   1.902  0.5546 -0.5063  0.2265
 4071TIP3    H212136   6.867   1.511   2.037 -0.4746  0.0666 -0.3521
 4072TIP3   OH212137   2.173   6.810   0.659 -0.5262 -0.1334  0.4922
 4072TIP3    H112138   2.261   6.773   0.673 -0.8323 -0.9387  0.3381
 4072TIP3    H212139   2.122   6.779   0.733 -0.5943  0.6663  0.7947
 4073TIP3   OH212140   7.544   1.520   2.214  0.6847  0.0051 -0.2185
 4073TIP3    H112141   7.556   1.485   2.302 -1.9005  1.2000  0.6889
 4073TIP3    H212142   7.564   1.614   2.223 -3.0147  0.8918  0.0601
 4074TIP3   OH212143   7.479   2.562   2.177 -0.1828 -0.0190  0.7047
 4074TIP3    H112144   7.485   2.649   2.137  1.7174 -0.0219  0.8893
 4074TIP3    H212145   7.435   2.576   2.260 -1.9917  0.3729 -0.2757
 4075TIP3   OH212146   6.520   0.726   1.292  0.3429 -0.1939  0.1806
 4075TIP3    H112147   6.612   0.752   1.299  1.5942 -3.2913 -2.3589
 4075TIP3    H212148   6.491   0.719   1.382  2.7369  0.3586  1.0863
 4076TIP3   OH212149   4.298   3.570   5.695  1.0238 -0.0305  0.0426
 4076TIP3    H112150   4.255   3.553   5.780  2.0784 -4.8867 -0.1027
 4076TIP3    H212151   4.391   3.578   5.716  0.9308  3.0755 -0.3699
 4077TIP3   OH212152   7.899   5.307   5.656 -0.3029  0.0755  0.5273
 4077TIP3    H112153   7.952   5.265   5.723 -0.6230 -1.5135 -0.1797
 4077TIP3    H212154   7.826   5.247   5.642  0.1722 -0.0470 -1.8090
 4078TIP3   OH212155   6.804   2.497   0.609  0.1616  0.3877  0.5943
 4078TIP3    H112156   6.889   2.491   0.566  0.0310  2.5099 -0.0512
 4078TIP3    H212157   6.823   2.488   0.702  1.1590  1.2810  0.4877
 4079TIP3   OH212158   8.190   0.747   0.217  0.3918  0.1467 -0.1657
 4079TIP3    H112159   8.191   0.828   0.165 -0.0361  0.7937  0.7853
 4079TIP3    H212160   8.198   0.777   0.307 -0.4996 -0.8264  0.2573
 4080TIP3   OH212161   8.181   2.092   3.120 -0.2233  0.0302 -0.2265
 4080TIP3    H112162   8.137   2.141   3.190  0.7778 -1.0355  1.2115
 4080TIP3    H212163   8.167   2.001   3.143  0.8966 -0.3364 -0.9413
 4081TIP3   OH212164   1.903   6.458   0.297 -0.7970  0.2181  0.2780
 4081TIP3    H112165   1.924   6.461   0.204 -0.5103  1.5488  0.3609
 4081TIP3    H212166   1.807   6.457   0.300 -0.8784  2.3964 -0.0440
 4082TIP3   OH212167   0.792   5.937   0.926 -0.3371  0.5998  0.0648
 4082TIP3    H112168   0.841   5.884   0.990  0.7970  0.6317 -0.7373
 4082TIP3    H212169   0.787   5.881   0.849 -1.3181  0.7253  0.0303
 4083TIP3   OH212170   7.227   6.919   3.861 -0.4077 -0.0489  0.6146
 4083TIP3    H112171   7.289   6.962   3.801 -1.6840 -0.4390 -1.0664
 4083TIP3    H212172   7.154   6.980   3.868 -1.3460 -1.0360 -0.2025
 4084TIP3   OH212173   6.992   5.949   4.742 -0.2810 -0.2630 -0.3211
 4084TIP3    H112174   6.904   5.985   4.731  0.6292  1.9576 -0.8504
 4084TIP3    H212175   6.999   5.882   4.675 -1.4767 -0.2890 -0.4433
 4085TIP3   OH212176   1.259   3.768   3.677  0.0683  0.4341 -0.4129
 4085TIP3    H112177   1.212   3.697   3.720 -0.0197  0.3750 -0.6028
 4085TIP3    H212178   1.198   3.842   3.681 -0.0774  0.3355 -0.7292
 4086TIP3   OH212179   7.526   1.593   7.013  0.0648 -0.5826 -0.4330
 4086TIP3    H112180   7.564   1.526   7.070  0.1526 -0.0384  0.1454
 4086TIP3    H212181   7.560   1.571   6.926  2.6754  0.5606  0.2206
 4087TIP3   OH212182   5.037   6.884   1.337 -0.1648 -0.2315  0.7312
 4087TIP3    H112183   5.108   6.866   1.275  1.8637 -1.3336  3.1904
 4087TIP3    H212184   4.982   6.948   1.292  0.8148 -1.3768 -2.3927
 4088TIP3   OH212185   5.911   3.605   2.482 -0.2868 -0.6811  0.2358
 4088TIP3    H112186   5.841   3.553   2.519 -1.0392  0.7077  0.8599
 4088TIP3    H212187   5.941   3.661   2.554  1.0161 -0.7737 -0.1915
 4089TIP3   OH212188   0.242   3.235   5.950  0.1938 -0.3059 -0.4941
 4089TIP3    H112189   0.324   3.284   5.958  0.2545 -0.2651 -1.2480
 4089TIP3    H212190   0.242   3.176   6.025  0.6740  0.0452 -0.2098
 4090TIP3   OH212191   5.492   4.180   1.010 -0.3746  0.3497  0.3504
 4090TIP3    H112192   5.460   4.179   0.920  3.5256  1.6946 -1.2826
 4090TIP3    H212193   5.428   4.232   1.058 -2.7028 -0.6099 -1.5132
 4091TIP3   OH212194   3.647   3.861   4.314 -0.3096 -0.2410 -0.0110
 4091TIP3    H112195   3.595   3.892   4.240 -1.1236 -0.7475  0.3405
 4091TIP3    H212196   3.689   3.781   4.282 -0.6396 -0.4448  0.0572
 4092TIP3   OH212197   5.805   5.635   3.307  0.2392  0.4508  0.4393
 4092TIP3    H112198   5.798   5.716   3.358  0.1439 -0.2619  1.5742
 4092TIP3    H212199   5.720   5.626   3.265 -0.2625  0.1841  1.4821
 4093TIP3   OH212200   6.051   6.496   6.694 -0.3656  0.3537  0.1679
 4093TIP3    H112201   6.086   6.413   6.725 -2.8621 -1.1693 -0.8610
 4093TIP3    H212202   6.031   6.545   6.774  2.5703  0.7398  0.8037
 4094TIP3   OH212203   5.547   2.333   3.782 -0.4049  0.1596  0.4639
 4094TIP3    H112204   5.503   2.355   3.700  1.0336 -3.1936 -1.4092
 4094TIP3    H212205   5.478   2.338   3.848 -1.9289  1.6582 -1.1361
 4095TIP3   OH212206   4.370   6.487   2.777 -0.1083 -0.4818  0.2292
 4095TIP3    H112207   4.339   6.431   2.848 -1.2303  1.2079  1.1379
 4095TIP3    H212208   4.442   6.536   2.815 -1.0766  0.8389  0.4216
 4096TIP3   OH212209   8.551   1.341   4.666  0.0406  1.0928  0.1806
 4096TIP3    H112210   8.545   1.282   4.590  0.8319  1.9745 -0.5871
 4096TIP3    H212211   8.644   1.352   4.681 -0.1120  0.9431  1.2923
 4097TIP3   OH212212   1.153   2.148   1.056  0.5128 -0.7934  0.0275
 4097TIP3    H112213   1.108   2.064   1.059  1.5462 -1.4750 -1.9998
 4097TIP3    H212214   1.224   2.141   1.120 -0.2536 -0.8952  0.8918
 4098TIP3   OH212215   6.912   7.591   0.557  0.2514  0.2345  0.3572
 4098TIP3    H112216   6.847   7.599   0.627 -0.1504 -0.8593  0.1291
 4098TIP3    H212217   6.993   7.623   0.596 -0.4487  1.8168  0.5801
 4099TIP3   OH212218   8.383   5.755   3.897 -0.0647 -0.5217 -0.2078
 4099TIP3    H112219   8.300   5.772   3.852 -0.0460 -0.9830 -0.4137
 4099TIP3    H212220   8.364   5.682   3.956  0.7305 -2.0447 -1.7693
 4100TIP3   OH212221   3.193   6.214   3.681 -0.3265  0.2982 -0.3229
 4100TIP3    H112222   3.116   6.270   3.692 -0.6487 -0.2913  0.4965
 4100TIP3    H212223   3.179   6.141   3.741  1.7230  1.0604  1.1832
 4101TIP3   OH212224   7.709   0.614   0.320 -0.0378  0.1499  0.1458
 4101TIP3    H112225   7.700   0.527   0.282 -0.2206  0.0696  0.3754
 4101TIP3    H212226   7.705   0.600   0.414  0.9004  0.2861  0.2245
 4102TIP3   OH212227   8.592   3.020   6.143  0.3233 -0.3307 -0.2145
 4102TIP3    H112228   8.604   3.040   6.235  0.8979 -0.5669 -0.2343
 4102TIP3    H212229   8.597   2.925   6.138 -0.4839 -0.3705 -0.3850
 4103TIP3   OH212230   7.630   5.632   3.599 -0.4718 -0.2889  0.0919
 4103TIP3    H112231   7.605   5.660   3.688  0.0420 -1.2628  0.5599
 4103TIP3    H212232   7.685   5.704   3.567  1.4659 -0.9959  1.5751
 4104TIP3   OH212233   2.986   6.224   4.251  0.0592  0.1819  0.0899
 4104TIP3    H112234   2.982   6.313   4.285  0.9433 -0.3084  1.6085
 4104TIP3    H212235   3.060   6.224   4.190 -0.7176  0.7586 -0.8803
 4105TIP3   OH212236   1.210   5.533   1.052 -0.4991 -0.2317 -0.3251
 4105TIP3    H112237   1.272   5.605   1.046 -0.0804 -0.5359  0.2433
 4105TIP3    H212238   1.259   5.456   1.022 -1.1930 -0.1561 -1.7655
 4106TIP3   OH212239   7.821   3.258   4.923 -0.2154  0.1804  0.2031
 4106TIP3    H112240   7.871   3.177   4.916 -0.1362  0.2380  0.0769
 4106TIP3    H212241   7.769   3.249   5.002 -1.5012 -0.7182 -0.7099
 4107TIP3   OH212242   8.565   2.472   5.007 -0.0131  0.3380 -0.0291
 4107TIP3    H112243   8.636   2.535   4.991  1.1687 -0.9034  0.1681
 4107TIP3    H212244   8.539   2.487   5.098  0.1459  0.6483 -0.0334
 4108TIP3   OH212245   2.044   2.475   4.251  0.6700  0.6480  0.4858
 4108TIP3    H112246   2.030   2.518   4.166  1.8180 -1.3749 -0.8297
 4108TIP3    H212247   2.131   2.434   4.242  0.6487  0.0757  2.5132
 4109TIP3   OH212248   1.684   5.377   3.660 -0.4888  0.2143  0.1296
 4109TIP3    H112249   1.621   5.365   3.590  0.2403 -3.0290 -0.1002
 4109TIP3    H212250   1.631   5.401   3.736 -1.4396  2.1661 -1.0840
 4110TIP3   OH212251   5.956   0.292   0.325 -0.0172  0.1310  0.3530
 4110TIP3    H112252   5.897   0.288   0.250  1.7032 -3.1413 -1.0673
 4110TIP3    H212253   5.926   0.222   0.383  0.1434  1.0292  1.5532
 4111TIP3   OH212254   2.784   3.876   0.375  0.2090 -0.4238  0.2464
 4111TIP3    H112255   2.807   3.857   0.284  1.0549  0.1465  0.3396
 4111TIP3    H212256   2.752   3.792   0.409 -0.3290 -0.5906 -0.6297
 4112TIP3   OH212257   3.352   4.884   4.785  0.0600 -0.8217  0.1366
 4112TIP3    H112258   3.393   4.801   4.762  1.8085 -0.2481  1.0486
 4112TIP3    H212259   3.322   4.920   4.702  1.3324 -1.3038 -0.5476
 4113TIP3   OH212260   3.237   2.970   4.465 -0.7409 -0.4176 -0.5582
 4113TIP3    H112261   3.291   2.963   4.544  0.0831  0.2333 -1.0442
 4113TIP3    H212262   3.147   2.974   4.498 -0.3531  1.0349  0.4289
 4114TIP3   OH212263   7.226   4.908   5.868 -0.5072  0.1235 -0.9476
 4114TIP3    H112264   7.309   4.924   5.823 -0.6456 -0.7479 -1.5318
 4114TIP3    H212265   7.181   4.844   5.814 -0.9947 -0.4039  0.0509
 4115TIP3   OH212266   6.434   5.382   0.927 -0.3450  0.3900  0.3033
 4115TIP3    H112267   6.375   5.351   0.995  0.0139  0.9884  0.8983
 4115TIP3    H212268   6.466   5.466   0.959  1.5190 -0.3116  0.4120
 4116TIP3   OH212269   3.518   7.743   6.614  0.3434  0.1469 -0.8552
 4116TIP3    H112270   3.608   7.747   6.646  0.1164 -1.8907  0.1561
 4116TIP3    H212271   3.513   7.662   6.564 -1.0715 -0.0672 -0.4232
 4117TIP3   OH212272   2.679   4.589   6.254 -0.0590 -0.1743  0.1288
 4117TIP3    H112273   2.685   4.685   6.256 -0.4488 -0.0541 -1.7688
 4117TIP3    H212274   2.748   4.559   6.312  0.6364  1.2665  0.0995
 4118TIP3   OH212275   1.493   1.735   1.179  0.2504 -0.2841  0.4334
 4118TIP3    H112276   1.568   1.770   1.131 -0.5977 -3.4452 -3.7051
 4118TIP3    H212277   1.520   1.647   1.205 -1.0270 -0.3444  1.6554
 4119TIP3   OH212278   1.416   6.138   4.592 -0.3983  0.8909  0.3211
 4119TIP3    H112279   1.481   6.076   4.623 -0.3442  0.3618 -0.7895
 4119TIP3    H212280   1.358   6.152   4.666 -0.0001  0.0610  0.7996
 4120TIP3   OH212281   3.183   2.613   3.365  0.0667  0.5299 -0.3379
 4120TIP3    H112282   3.144   2.678   3.423 -2.5683 -1.1367 -0.0414
 4120TIP3    H212283   3.125   2.612   3.288  0.5545 -0.8353 -0.7177
 4121TIP3   OH212284   5.680   2.369   7.021  0.4377  0.2915  0.7932
 4121TIP3    H112285   5.753   2.417   7.062  0.1901  0.1258  1.4458
 4121TIP3    H212286   5.706   2.277   7.028  1.5583  0.3408 -1.6996
 4122TIP3   OH212287   8.565   7.918   6.089  0.4644  0.0308  0.1698
 4122TIP3    H112288   8.513   7.870   6.153  0.6736  1.0339  1.1178
 4122TIP3    H212289   8.656   7.900   6.112  0.5449  0.8109  0.5082
 4123TIP3   OH212290   0.085   0.059   4.603 -0.2890 -0.3448 -0.1310
 4123TIP3    H112291   0.124   0.034   4.687 -0.7229 -1.5479 -0.2702
 4123TIP3    H212292  -0.006   0.029   4.610 -1.0661  1.8587 -0.0450
 4124TIP3   OH212293   3.573   2.534   2.429  0.5424 -0.1617 -0.5286
 4124TIP3    H112294   3.601   2.502   2.344  1.9792  1.1375 -0.5794
 4124TIP3    H212295   3.536   2.457   2.473 -1.1653 -0.6506 -2.6419
 4125TIP3   OH212296   4.605   2.231   5.811 -0.1363  0.2654 -0.4766
 4125TIP3    H112297   4.605   2.201   5.720  0.6863 -3.0138  0.4426
 4125TIP3    H212298   4.697   2.249   5.829 -0.5695  3.4085 -0.8907
 4126TIP3   OH212299   7.647   7.640   0.556  0.9006  0.0257 -0.3038
 4126TIP3    H112300   7.659   7.545   0.554  0.2261 -0.0666 -0.0263
 4126TIP3    H212301   7.601   7.660   0.475 -2.4205 -0.3853  1.3464
 4127TIP3   OH212302   8.375   0.758   5.618 -0.6087 -0.4676  0.0974
 4127TIP3    H112303   8.389   0.850   5.644 -1.4786 -0.2740 -0.0794
 4127TIP3    H212304   8.414   0.752   5.531  1.7578 -0.9536  1.1045
 4128TIP3   OH212305   3.340   1.974   1.285  0.1632  0.3187  0.1054
 4128TIP3    H112306   3.283   1.978   1.208 -0.0599  0.1730  0.2624
 4128TIP3    H212307   3.283   1.998   1.358 -0.1634 -1.5446  0.5207
 4129TIP3   OH212308   4.791   4.777   6.471 -0.2173 -0.1575 -0.0124
 4129TIP3    H112309   4.772   4.724   6.548 -1.5360 -0.7900 -0.7167
 4129TIP3    H212310   4.771   4.719   6.397  0.9182  0.4575 -0.8400
 4130TIP3   OH212311   2.312   6.087   5.085 -0.2903 -0.1486  0.1073
 4130TIP3    H112312   2.226   6.076   5.124 -0.6524  4.4169  1.2228
 4130TIP3    H212313   2.307   6.171   5.038  3.4071  0.1963 -0.0178
 4131TIP3   OH212314   6.669   4.857   3.907  0.3903 -0.5919 -0.1517
 4131TIP3    H112315   6.750   4.812   3.931  0.0871 -0.3398  1.4433
 4131TIP3    H212316   6.653   4.917   3.980 -2.1696 -1.8815  0.4384
 4132TIP3   OH212317   1.697   0.632   1.511 -0.2967  0.0449 -0.3931
 4132TIP3    H112318   1.650   0.567   1.460 -1.3811 -0.3295  1.0216
 4132TIP3    H212319   1.679   0.609   1.602 -0.7322  2.3156  0.1653
 4133TIP3   OH212320   6.343   4.798   4.786 -0.5315 -0.1794 -0.4254
 4133TIP3    H112321   6.333   4.771   4.695  0.8138  0.4291 -0.7845
 4133TIP3    H212322   6.257   4.831   4.811 -0.4262  1.6125 -2.1804
 4134TIP3   OH212323   0.076   3.153   5.683 -0.1377  1.3604 -0.1797
 4134TIP3    H112324   0.011   3.196   5.627 -0.2801  0.3251 -0.8536
 4134TIP3    H212325   0.103   3.076   5.632  0.4986  0.9568  0.7486
 4135TIP3   OH212326   4.883   1.132   4.919 -0.2942 -0.0494 -0.2522
 4135TIP3    H112327   4.977   1.143   4.904 -0.0228  1.3005  2.0374
 4135TIP3    H212328   4.846   1.219   4.909 -0.4639  0.4737  3.5821
 4136TIP3   OH212329   1.093   2.778   4.145 -0.0822 -0.1579 -0.8849
 4136TIP3    H112330   1.169   2.777   4.203 -1.0835 -0.4926  0.4454
 4136TIP3    H212331   1.092   2.866   4.108 -1.0432  1.0572  1.8199
 4137TIP3   OH212332   5.906   3.080   4.936  0.2762 -0.1086  0.3507
 4137TIP3    H112333   5.868   3.011   4.992 -1.3632  1.0696  0.7629
 4137TIP3    H212334   5.878   3.057   4.848 -1.9425  0.9745  0.6886
 4138TIP3   OH212335   2.825   2.332   5.819  0.0005 -0.4972  0.2093
 4138TIP3    H112336   2.805   2.259   5.761 -0.6881 -0.4894  0.4297
 4138TIP3    H212337   2.741   2.357   5.856  0.5957 -1.4492  2.3528
 4139TIP3   OH212338   2.844   4.342   1.669  0.0991 -0.2669 -0.0947
 4139TIP3    H112339   2.923   4.324   1.618 -1.0714 -0.8560 -1.8163
 4139TIP3    H212340   2.808   4.421   1.628  0.7050  1.1142  1.8738
 4140TIP3   OH212341   1.570   6.169   1.909 -0.0939 -0.4194 -0.6097
 4140TIP3    H112342   1.634   6.236   1.887 -2.0330  1.9435  0.4428
 4140TIP3    H212343   1.615   6.111   1.970  1.3497  0.5396 -0.7167
 4141TIP3   OH212344   5.593   5.222   2.851  0.2943  0.2034  0.4974
 4141TIP3    H112345   5.580   5.134   2.816  1.1791  0.5276 -0.7079
 4141TIP3    H212346   5.601   5.210   2.946 -3.3394 -0.5693  0.8174
 4142TIP3   OH212347   2.349   0.849   3.288 -0.7297 -0.1770  0.0895
 4142TIP3    H112348   2.371   0.921   3.228  1.1622 -0.0297  0.8970
 4142TIP3    H212349   2.281   0.799   3.242 -0.4182  0.8000 -1.4980
 4143TIP3   OH212350   4.631   6.892   5.982  0.0157  0.1218  0.0852
 4143TIP3    H112351   4.555   6.898   6.040 -0.9992 -0.8361 -1.0877
 4143TIP3    H212352   4.635   6.800   5.957  0.6997  0.4270 -1.0157
 4144TIP3   OH212353   2.055   2.364   5.833 -0.5062  0.6333 -0.2217
 4144TIP3    H112354   2.001   2.286   5.823  1.3382 -0.7395  0.0005
 4144TIP3    H212355   2.107   2.368   5.752 -0.7507  1.7718 -0.3310
 4145TIP3   OH212356   4.242   5.592   4.465 -0.2781 -0.0049 -0.2707
 4145TIP3    H112357   4.194   5.512   4.485  1.2424 -0.9918 -0.4747
 4145TIP3    H212358   4.182   5.642   4.409 -1.0284 -1.2334 -0.5998
 4146TIP3   OH212359   5.060   0.132   4.994  0.5454 -0.2787  0.1243
 4146TIP3    H112360   5.133   0.193   4.991  0.0012  0.3431 -1.0060
 4146TIP3    H212361   5.062   0.096   5.083  2.1485 -0.2018  0.1484
 4147TIP3   OH212362   2.623   4.114   2.337  0.3494 -0.1855 -0.3781
 4147TIP3    H112363   2.593   4.188   2.284  2.2132  0.8538 -0.0817
 4147TIP3    H212364   2.593   4.037   2.290 -0.0186  0.7339 -1.7088
 4148TIP3   OH212365   2.884   6.492   4.057 -0.2084  0.2974 -0.0549
 4148TIP3    H112366   2.919   6.498   3.968 -0.7369  0.0296 -0.2813
 4148TIP3    H212367   2.846   6.579   4.073 -2.1467 -0.3221 -0.9552
 4149TIP3   OH212368   4.290   2.211   3.786 -0.8390 -0.2669 -0.5371
 4149TIP3    H112369   4.296   2.244   3.697 -1.1263 -3.2403 -1.7908
 4149TIP3    H212370   4.255   2.283   3.837  0.7204  2.0251 -2.4987
 4150TIP3   OH212371   5.197   3.042   6.245  0.0505  0.0490  0.6711
 4150TIP3    H112372   5.229   3.058   6.156 -0.3401 -0.9546  0.3424
 4150TIP3    H212373   5.126   3.105   6.257 -2.4677 -2.2191 -1.1455
 4151TIP3   OH212374   2.741   1.345   6.006 -0.2045 -0.0320 -0.0414
 4151TIP3    H112375   2.681   1.411   5.972 -1.5785 -1.7328 -1.0706
 4151TIP3    H212376   2.733   1.272   5.945  0.2826 -1.6683  1.7618
 4152TIP3   OH212377   4.439   4.831   3.906 -0.1574  0.4975  0.1046
 4152TIP3    H112378   4.453   4.739   3.931  1.6121  0.0838 -2.1243
 4152TIP3    H212379   4.370   4.827   3.840 -0.3765  0.8407  0.3120
 4153TIP3   OH212380   8.683   1.410   2.792 -0.2242  0.6303 -0.6975
 4153TIP3    H112381   8.737   1.424   2.714  0.7593 -1.3537 -0.4537
 4153TIP3    H212382   8.598   1.448   2.770  0.0823  0.2706 -2.6837
 4154TIP3   OH212383   4.414   6.043   3.907 -0.3123 -0.2158 -0.0405
 4154TIP3    H112384   4.341   5.982   3.906 -1.6894  1.3679 -0.1273
 4154TIP3    H212385   4.459   6.025   3.990 -0.4309 -1.5910 -0.2518
 4155TIP3   OH212386   8.555   5.598   3.150 -0.3593 -0.1270 -0.5862
 4155TIP3    H112387   8.619   5.650   3.198 -0.0036  1.1376 -2.3303
 4155TIP3    H212388   8.524   5.534   3.213  0.4820  1.0951  1.1518
 4156TIP3   OH212389   7.929   4.526   5.733  0.2103 -0.5367  0.5031
 4156TIP3    H112390   7.976   4.443   5.732 -1.6647 -1.6488 -0.5407
 4156TIP3    H212391   7.940   4.560   5.644 -0.5015 -0.5414  0.4121
 4157TIP3   OH212392   2.144   0.711   1.603  0.2841  0.0436 -0.0982
 4157TIP3    H112393   2.180   0.624   1.618 -1.2002 -1.0284 -2.2310
 4157TIP3    H212394   2.109   0.737   1.689  1.3638 -1.1132  0.7418
 4158TIP3   OH212395   4.566   7.492   2.128 -0.2263 -0.3827 -0.1581
 4158TIP3    H112396   4.510   7.537   2.191 -1.3902  0.3170 -1.6358
 4158TIP3    H212397   4.537   7.401   2.132  0.3288 -0.5345  0.9310
 4159TIP3   OH212398   0.934   4.083   5.064  0.0899 -0.1274 -0.4967
 4159TIP3    H112399   0.974   4.121   4.986 -2.8905  1.2035 -1.5175
 4159TIP3    H212400   0.950   4.147   5.133  0.4226 -0.0182 -0.6737
 4160TIP3   OH212401   2.773   7.657   1.044  0.0140  0.6089 -0.4479
 4160TIP3    H112402   2.826   7.578   1.033  0.3272  0.8169 -0.4565
 4160TIP3    H212403   2.838   7.728   1.050 -0.2652  0.8632 -0.4491
 4161TIP3   OH212404   3.435   5.893   4.058 -0.4242  0.2353 -0.3154
 4161TIP3    H112405   3.419   5.874   3.966 -0.2181 -0.2190 -0.2612
 4161TIP3    H212406   3.374   5.835   4.105 -0.1571  0.0816 -0.1569
 4162TIP3   OH212407   0.575   4.275   0.915 -0.1693 -0.4096  0.4799
 4162TIP3    H112408   0.622   4.322   0.846  1.8020 -0.8829  1.4309
 4162TIP3    H212409   0.497   4.240   0.872  2.4533 -3.3713 -2.3847
 4163TIP3   OH212410   6.001   0.077   6.631 -0.1746  0.4298  0.3451
 4163TIP3    H112411   5.940   0.148   6.610 -1.8382 -1.0768 -0.2671
 4163TIP3    H212412   5.951  -0.003   6.612  1.5063 -0.9149  1.2946
 4164TIP3   OH212413   0.663   6.564   3.765  0.0416  0.1280  0.2291
 4164TIP3    H112414   0.725   6.621   3.719  0.2245  1.1778  1.7093
 4164TIP3    H212415   0.715   6.521   3.833  0.0389 -2.3179 -1.1833
 4165TIP3   OH212416   7.089   7.107   4.829 -0.7342  0.4922 -0.0899
 4165TIP3    H112417   7.163   7.046   4.832 -1.6261 -0.6124  0.3804
 4165TIP3    H212418   7.095   7.148   4.742  0.7915  0.9237  0.1899
 4166TIP3   OH212419   8.576   2.193   6.667 -0.0311  0.1242  0.3988
 4166TIP3    H112420   8.494   2.228   6.704 -0.2673  0.8976 -0.8101
 4166TIP3    H212421   8.643   2.219   6.730 -0.4984  0.9227  0.5802
 4167TIP3   OH212422   7.608   3.397   5.287 -0.1688  0.0474 -0.1542
 4167TIP3    H112423   7.514   3.396   5.307  0.0794 -1.1359  1.0641
 4167TIP3    H212424   7.647   3.338   5.351  1.7234  2.2006  0.7847
 4168TIP3   OH212425   0.511   1.824   4.509 -0.1560  0.8418  0.8789
 4168TIP3    H112426   0.580   1.761   4.531 -0.3269  0.3714  0.1056
 4168TIP3    H212427   0.547   1.874   4.435 -1.0961 -0.2281 -0.3443
 4169TIP3   OH212428   8.387   1.608   3.767  0.1455  0.3685  0.7130
 4169TIP3    H112429   8.380   1.619   3.862 -2.0377  0.9318  0.5257
 4169TIP3    H212430   8.352   1.521   3.749  1.6130 -0.2132  0.4913
 4170TIP3   OH212431   5.481   6.702   0.249 -0.4032 -0.6922  0.1535
 4170TIP3    H112432   5.527   6.628   0.212 -0.8613 -0.5856 -0.6539
 4170TIP3    H212433   5.413   6.663   0.304 -0.7247 -0.8841 -0.3680
 4171TIP3   OH212434   7.320   2.196   0.355 -0.3602  1.0088 -0.2867
 4171TIP3    H112435   7.308   2.105   0.326 -0.1314  1.1119 -0.7186
 4171TIP3    H212436   7.407   2.197   0.394 -1.0720  0.6269  1.4056
 4172TIP3   OH212437   2.174   2.996   2.960  0.2181 -0.6763 -0.2049
 4172TIP3    H112438   2.189   3.074   2.907  1.4160 -2.2829 -2.3645
 4172TIP3    H212439   2.194   3.023   3.049  0.5867  1.4668 -0.8920
 4173TIP3   OH212440   3.762   0.171   4.090  0.5463 -0.6005  0.4985
 4173TIP3    H112441   3.759   0.267   4.085 -0.9576 -0.6357  0.3825
 4173TIP3    H212442   3.760   0.143   3.999 -0.8458 -0.7580  0.5596
 4174TIP3   OH212443   2.373   6.418   1.707  0.5101  0.4257 -0.3680
 4174TIP3    H112444   2.365   6.487   1.773  1.9871  0.0770  0.2138
 4174TIP3    H212445   2.466   6.415   1.687  0.5202 -1.5624 -0.2018
 4175TIP3   OH212446   3.439   6.070   0.408  0.2576  0.9001  0.2791
 4175TIP3    H112447   3.521   6.117   0.389  1.6423 -0.3396  2.6536
 4175TIP3    H212448   3.399   6.120   0.479  0.9372 -0.5200  1.7271
 4176TIP3   OH212449   4.641   6.979   4.610  0.1376  0.3159  0.1999
 4176TIP3    H112450   4.593   6.898   4.629 -2.2605  0.9294 -2.5121
 4176TIP3    H212451   4.575   7.048   4.618  1.4917  1.7069 -0.1216
 4177TIP3   OH212452   7.671   6.318   3.791  0.0511 -0.0312 -0.1441
 4177TIP3    H112453   7.665   6.397   3.844 -1.1395  0.0054 -0.3015
 4177TIP3    H212454   7.656   6.247   3.853  3.3815 -0.3380  0.4419
 4178TIP3   OH212455   3.092   2.301   0.448 -0.9689 -0.5914 -0.2451
 4178TIP3    H112456   3.110   2.308   0.354 -1.9660 -1.2724 -0.5033
 4178TIP3    H212457   3.099   2.207   0.466 -0.6858 -0.4502  0.3909
 4179TIP3   OH212458   3.256   5.358   5.312  0.2925 -0.2792  0.3269
 4179TIP3    H112459   3.285   5.429   5.370 -2.9331  1.4444  0.0263
 4179TIP3    H212460   3.261   5.395   5.224 -0.9724 -0.5702  0.1149
 4180TIP3   OH212461   6.718   3.077   3.519  0.2157  0.2789 -0.1262
 4180TIP3    H112462   6.702   2.997   3.569  1.2448 -0.3972 -0.8338
 4180TIP3    H212463   6.753   3.047   3.436  0.0910  1.4546 -0.6265
 4181TIP3   OH212464   7.232   0.908   4.151  0.4027  0.0718  0.3008
 4181TIP3    H112465   7.193   0.989   4.184 -0.3167 -0.4538  0.7704
 4181TIP3    H212466   7.326   0.919   4.166  0.3638  1.0324 -0.1238
 4182TIP3   OH212467   4.570   6.677   3.541  0.0072 -0.5030 -0.6878
 4182TIP3    H112468   4.565   6.586   3.511  2.4508 -0.3359 -1.8275
 4182TIP3    H212469   4.663   6.699   3.538 -0.3538  1.6384  0.8745
 4183TIP3   OH212470   5.341   4.196   6.398  0.2524  0.4559  0.1286
 4183TIP3    H112471   5.306   4.248   6.325 -1.1250  0.8726  1.0470
 4183TIP3    H212472   5.355   4.109   6.361 -0.9660  0.5099 -0.5119
 4184TIP3   OH212473   0.076   3.566   2.766  0.3235 -0.1287  0.5399
 4184TIP3    H112474   0.147   3.565   2.703  0.1761  0.4007  0.3609
 4184TIP3    H212475   0.008   3.620   2.726 -1.2290 -2.6144 -0.4153
 4185TIP3   OH212476   4.709   7.657   5.912 -0.6010  0.5084  0.4624
 4185TIP3    H112477   4.724   7.567   5.884 -1.0046  0.6063 -0.0833
 4185TIP3    H212478   4.657   7.648   5.992 -1.0492  0.2635  0.1497
 4186TIP3   OH212479   2.866   1.234   5.590  0.0175  0.4558  0.2296
 4186TIP3    H112480   2.850   1.227   5.495  0.5081 -1.3470  0.2442
 4186TIP3    H212481   2.933   1.302   5.598  1.5654 -0.8251 -0.9628
 4187TIP3   OH212482   4.318   0.529   3.964  0.3142 -0.4002  0.4353
 4187TIP3    H112483   4.291   0.605   4.016  0.8470 -0.6174  1.0389
 4187TIP3    H212484   4.407   0.549   3.936  0.4185 -0.7503  0.5063
 4188TIP3   OH212485   2.320   3.627   6.398 -0.3695 -0.1086 -0.7118
 4188TIP3    H112486   2.344   3.623   6.306 -0.4268 -0.5303 -0.7128
 4188TIP3    H212487   2.400   3.655   6.443 -0.4285  0.3958 -0.9208
 4189TIP3   OH212488   0.005   5.432   5.911  0.6386 -0.2059 -0.3886
 4189TIP3    H112489   0.039   5.410   5.997  0.4487 -1.1439 -0.5459
 4189TIP3    H212490   0.046   5.516   5.890  0.2292  0.3192  0.8545
 4190TIP3   OH212491   0.110   0.968   2.027  0.0361  0.1002 -0.2625
 4190TIP3    H112492   0.196   0.976   1.987 -0.1971 -1.1531 -1.0696
 4190TIP3    H212493   0.113   0.885   2.076 -1.0526 -0.5358 -1.2316
 4191TIP3   OH212494   0.781   3.274   5.451  0.2541  0.2646 -0.2409
 4191TIP3    H112495   0.777   3.281   5.546 -0.2010 -0.6090 -0.1807
 4191TIP3    H212496   0.862   3.318   5.426 -0.5732  2.2069  0.3605
 4192TIP3   OH212497   4.771   7.334   4.548 -0.3659 -0.3626 -0.1457
 4192TIP3    H112498   4.815   7.298   4.624 -1.3741  1.0182  1.1448
 4192TIP3    H212499   4.830   7.316   4.475  0.9086 -1.1593  1.0393
 4193TIP3   OH212500   5.081   2.553   3.207 -0.0641 -0.9036  0.4642
 4193TIP3    H112501   5.043   2.610   3.139  0.9066  0.9114  1.3494
 4193TIP3    H212502   5.006   2.519   3.255 -0.6883 -0.2331 -0.0056
 4194TIP3   OH212503   6.441   8.028   6.096 -0.2597  0.2348  0.1224
 4194TIP3    H112504   6.520   8.012   6.148  0.5214 -0.4981 -1.2490
 4194TIP3    H212505   6.471   8.079   6.021 -1.3336  1.0874  0.2416
 4195TIP3   OH212506   1.163   0.219   5.945 -0.3883 -0.0728  0.8259
 4195TIP3    H112507   1.089   0.186   5.996 -2.2123 -0.1428 -1.6502
 4195TIP3    H212508   1.161   0.313   5.959 -0.7666 -0.1035  1.0091
 4196TIP3   OH212509   6.237   3.795   5.163 -0.7624  0.2897  0.1875
 4196TIP3    H112510   6.168   3.742   5.202 -0.7095 -0.1664 -0.3107
 4196TIP3    H212511   6.318   3.746   5.181 -0.6557  0.4539  0.1582
 4197TIP3   OH212512   7.551   6.672   0.411 -0.1424 -0.6087  0.1632
 4197TIP3    H112513   7.637   6.684   0.370 -0.0765 -0.3962  0.3579
 4197TIP3    H212514   7.495   6.640   0.341 -0.2499  0.5763 -0.3121
 4198TIP3   OH212515   2.954   8.095   1.861 -0.3961  0.0957 -0.1122
 4198TIP3    H112516   2.945   8.054   1.947  0.2242 -2.1454 -1.0406
 4198TIP3    H212517   2.920   8.030   1.800  0.9775  0.8188 -1.7152
 4199TIP3   OH212518   6.775   4.028   4.687 -0.1832  0.4569  0.1854
 4199TIP3    H112519   6.769   4.096   4.753 -1.8900 -0.3293  0.8873
 4199TIP3    H212520   6.761   3.946   4.735  0.8011 -0.3216 -0.7991
 4200TIP3   OH212521   7.308   1.906   5.156 -0.5658  0.5562  0.8684
 4200TIP3    H112522   7.394   1.884   5.191 -0.4268  0.2199  0.3239
 4200TIP3    H212523   7.291   1.995   5.187 -0.0307  0.6149  0.9942
 4201TIP3   OH212524   3.665   4.480   5.362  0.5017 -0.8781 -0.6301
 4201TIP3    H112525   3.713   4.401   5.337 -0.5489 -1.6921 -0.1483
 4201TIP3    H212526   3.578   4.449   5.385 -0.0910  0.4974 -0.9254
 4202TIP3   OH212527   0.470   4.215   4.062  0.1433  0.0495 -0.3353
 4202TIP3    H112528   0.507   4.241   4.147 -0.3659  1.0177 -0.3971
 4202TIP3    H212529   0.541   4.167   4.020  0.1233 -1.2112  0.9771
 4203TIP3   OH212530   3.612   1.452   3.036 -0.9672  0.1365 -0.0944
 4203TIP3    H112531   3.704   1.448   3.009 -0.9500  0.9658 -0.1722
 4203TIP3    H212532   3.587   1.360   3.045 -0.8415 -0.2107 -2.4926
 4204TIP3   OH212533   0.377   7.941   6.751  0.5626 -0.3825  0.5142
 4204TIP3    H112534   0.334   7.864   6.712  0.4529 -0.6869  1.2332
 4204TIP3    H212535   0.429   7.906   6.823  0.3426  0.2412  0.9848
 4205TIP3   OH212536   4.885   1.041   5.696  0.0183  0.0703 -0.3306
 4205TIP3    H112537   4.962   1.046   5.753 -0.7125 -0.5376  0.7604
 4205TIP3    H212538   4.817   1.089   5.744 -0.6331 -0.5179 -0.6459
 4206TIP3   OH212539   0.384   6.975   1.798  0.1533  0.0297  0.9261
 4206TIP3    H112540   0.374   7.055   1.849 -0.8762  1.3862 -1.2655
 4206TIP3    H212541   0.295   6.951   1.773  0.6473 -0.1837 -0.7685
 4207TIP3   OH212542   6.874   5.998   5.422 -0.1012  0.3744  0.4899
 4207TIP3    H112543   6.794   6.045   5.446 -0.3572  0.2860 -0.1421
 4207TIP3    H212544   6.845   5.937   5.353  0.3057 -0.4070  1.0003
 4208TIP3   OH212545   5.531   3.241   4.516  0.0946 -0.1844 -0.1854
 4208TIP3    H112546   5.617   3.213   4.486 -0.9687 -1.1671 -2.6011
 4208TIP3    H212547   5.545   3.329   4.551  2.6551 -1.6664  2.9418
 4209TIP3   OH212548   7.652   3.766   4.342  0.7194 -0.1346  0.6020
 4209TIP3    H112549   7.610   3.704   4.283  1.0157  2.0682 -2.0988
 4209TIP3    H212550   7.738   3.728   4.360  1.3512 -0.0607 -1.9267
 4210TIP3   OH212551   6.068   1.955   2.424 -0.2701  0.1615  0.2752
 4210TIP3    H112552   6.121   1.882   2.392 -1.2808  0.1236 -1.4047
 4210TIP3    H212553   5.997   1.914   2.472  1.1091  0.2107  2.4917
 4211TIP3   OH212554   4.371   8.068   2.983 -0.4272 -0.1929 -0.1355
 4211TIP3    H112555   4.352   7.999   3.047  0.6142 -0.9676 -0.6268
 4211TIP3    H212556   4.457   8.045   2.948 -0.4174  0.9243 -0.8934
 4212TIP3   OH212557   4.222   7.091   3.542  0.4838 -0.1474 -0.0968
 4212TIP3    H112558   4.178   7.008   3.523 -0.9920  0.8949 -1.5849
 4212TIP3    H212559   4.226   7.136   3.457  0.6690  1.5553  0.7724
 4213TIP3   OH212560   4.243   5.034   1.762  0.3087  0.3400 -0.0473
 4213TIP3    H112561   4.267   4.960   1.818 -0.1485  0.0650 -0.2045
 4213TIP3    H212562   4.169   5.001   1.710  0.2872  0.8148 -0.3209
 4214TIP3   OH212563   3.422   2.543   5.129  0.1664 -0.6717 -0.2289
 4214TIP3    H112564   3.355   2.509   5.069  0.7443 -3.4867  0.5681
 4214TIP3    H212565   3.505   2.515   5.091  0.7173  0.2394  0.2789
 4215TIP3   OH212566   1.339   4.674   1.381 -0.1006  0.0935 -0.2391
 4215TIP3    H112567   1.420   4.631   1.357  0.4915  1.2768 -0.4462
 4215TIP3    H212568   1.339   4.675   1.477 -0.4962 -1.0235 -0.2156
 4216TIP3   OH212569   2.738   6.765   2.290 -0.3944  0.1005 -0.3133
 4216TIP3    H112570   2.802   6.708   2.247  0.2221  0.2879  0.3551
 4216TIP3    H212571   2.778   6.851   2.288 -1.0893  0.4211 -0.8274
 4217TIP3   OH212572   0.940   0.595   0.504 -0.3296  0.4610  0.0878
 4217TIP3    H112573   0.932   0.661   0.435 -0.8974  1.2219  0.8552
 4217TIP3    H212574   0.904   0.515   0.465  0.6121  0.5263 -0.9407
 4218TIP3   OH212575   7.611   1.934   5.599 -0.8472  0.4755 -0.0866
 4218TIP3    H112576   7.650   1.874   5.535 -1.8008 -3.7612  2.8769
 4218TIP3    H212577   7.667   1.927   5.676 -2.6644  1.0491  1.3659
 4219TIP3   OH212578   4.301   7.237   5.357  0.3350  0.4743 -0.0025
 4219TIP3    H112579   4.249   7.236   5.437  0.4773  0.6182  0.0917
 4219TIP3    H212580   4.308   7.329   5.333 -1.4590  0.3073 -1.3365
 4220TIP3   OH212581   6.218   2.069   0.781  0.3108  0.5675 -0.0929
 4220TIP3    H112582   6.249   2.025   0.702  0.2501  0.2518  0.0591
 4220TIP3    H212583   6.268   2.150   0.784 -0.2644  0.9694 -0.8946
 4221TIP3   OH212584   3.852   6.577   0.331 -0.5011  0.1517  0.2419
 4221TIP3    H112585   3.881   6.654   0.283  1.0596 -0.6132 -0.0862
 4221TIP3    H212586   3.758   6.590   0.342 -0.9463  0.4235 -2.9233
 4222TIP3   OH212587   4.038   6.119   4.136 -0.1916  0.2103  0.1045
 4222TIP3    H112588   4.005   6.060   4.068 -1.2488  1.2857 -0.3621
 4222TIP3    H212589   3.968   6.122   4.201  0.4192 -0.0850  0.7775
 4223TIP3   OH212590   0.140   5.206   2.816  0.8407 -0.2664 -0.4247
 4223TIP3    H112591   0.107   5.220   2.727 -0.3478 -0.1839  0.0143
 4223TIP3    H212592   0.106   5.280   2.866  1.0458 -0.6001  0.2163
 4224TIP3   OH212593   8.054   7.205   3.764  1.1983  0.4941 -0.4807
 4224TIP3    H112594   8.065   7.141   3.694 -1.1764  0.3878 -0.8346
 4224TIP3    H212595   8.032   7.286   3.719 -2.6239 -0.0806  0.0679
 4225TIP3   OH212596   3.174   4.559   1.752 -0.4141  0.2907 -0.0573
 4225TIP3    H112597   3.125   4.621   1.698  1.9213  1.4270 -1.0239
 4225TIP3    H212598   3.207   4.612   1.824  1.7957  0.3208 -1.0096
 4226TIP3   OH212599   0.334   0.282   5.578 -0.0333 -0.7270  0.0848
 4226TIP3    H112600   0.261   0.343   5.581  0.0702 -0.6279  0.8360
 4226TIP3    H212601   0.406   0.331   5.539  0.0570 -0.3495  0.7123
 4227TIP3   OH212602   2.131   8.098   6.997 -0.2783  0.1852 -0.0981
 4227TIP3    H112603   2.107   8.188   7.018 -0.4097 -0.1468  1.2813
 4227TIP3    H212604   2.216   8.086   7.037  0.3065  0.0481 -1.3308
 4228TIP3   OH212605   5.451   5.409   3.830 -0.1871 -0.3319 -0.0182
 4228TIP3    H112606   5.479   5.336   3.775 -0.8186 -1.5653  1.2162
 4228TIP3    H212607   5.435   5.369   3.916  0.7196  1.4931  1.0650
 4229TIP3   OH212608   7.555   1.895   1.716 -0.6186 -0.1095 -0.2021
 4229TIP3    H112609   7.482   1.834   1.709 -0.2779 -0.5479  0.0237
 4229TIP3    H212610   7.595   1.896   1.629 -0.4822 -0.3853 -0.1415
 4230TIP3   OH212611   4.143   0.108   5.459 -0.7122  0.1968 -0.4937
 4230TIP3    H112612   4.226   0.060   5.456 -0.7136  0.1303  0.2624
 4230TIP3    H212613   4.164   0.190   5.504 -0.5935  1.1821 -2.2473
 4231TIP3   OH212614   7.197   7.961   6.123 -0.3992  0.4550 -0.0390
 4231TIP3    H112615   7.173   8.051   6.103 -1.2590 -0.1734 -2.1075
 4231TIP3    H212616   7.127   7.930   6.181 -0.4429  0.9248  0.1613
 4232TIP3   OH212617   6.016   4.079   5.706 -0.1436  0.6397  0.2658
 4232TIP3    H112618   5.969   4.047   5.783 -1.2944 -1.3470 -1.1565
 4232TIP3    H212619   6.036   4.000   5.656  0.5222  1.8680 -1.5024
 4233TIP3   OH212620   3.882   2.404   2.323 -0.0851 -0.3800  0.1948
 4233TIP3    H112621   3.969   2.373   2.349  0.2161 -0.4010 -0.7922
 4233TIP3    H212622   3.825   2.327   2.330 -0.0602 -0.3381  0.9582
 4234TIP3   OH212623   3.405   5.907   5.642 -0.2988 -0.0393 -0.5747
 4234TIP3    H112624   3.396   6.002   5.639  1.5297  0.1584 -0.7362
 4234TIP3    H212625   3.388   5.878   5.553 -1.0399  0.0920 -0.4866
 4235TIP3   OH212626   1.855   0.439   6.810  0.3287 -0.0242 -0.3376
 4235TIP3    H112627   1.929   0.406   6.760  0.2003 -0.3929 -0.2832
 4235TIP3    H212628   1.892   0.456   6.898  0.4072  0.0463 -0.3833
 4236TIP3   OH212629   7.843   2.581   2.982  0.0384 -0.5295  0.3177
 4236TIP3    H112630   7.801   2.573   3.068 -0.1323 -0.0372  0.2836
 4236TIP3    H212631   7.924   2.628   2.999  0.3452 -1.0516  0.3100
 4237TIP3   OH212632   0.297   6.021   0.020  0.3136  0.3161  0.3340
 4237TIP3    H112633   0.386   5.986   0.022  0.1072 -0.4783 -1.5134
 4237TIP3    H212634   0.308   6.115   0.034  1.5353  0.3253 -0.4710
 4238TIP3   OH212635   5.025   5.081   2.737  0.4619 -0.4443  0.4131
 4238TIP3    H112636   5.119   5.098   2.748  0.1618  0.5735  1.6087
 4238TIP3    H212637   5.015   5.064   2.643  1.9425 -1.3078  0.3806
 4239TIP3   OH212638   1.830   3.783   0.983  0.1285 -0.1209  0.6511
 4239TIP3    H112639   1.913   3.735   0.991 -0.7769 -1.9197 -0.1230
 4239TIP3    H212640   1.805   3.771   0.892  0.2428  2.6104  0.1715
 4240TIP3   OH212641   2.121   1.942   4.176 -0.2158  0.4258  0.5299
 4240TIP3    H112642   2.072   1.887   4.115 -0.4829 -1.0032  1.9552
 4240TIP3    H212643   2.132   2.025   4.130 -1.0182 -0.3471 -1.1591
 4241TIP3   OH212644   1.790   4.255   6.853  0.5329  0.2721  0.5255
 4241TIP3    H112645   1.739   4.254   6.933 -0.7537  0.5150 -0.2624
 4241TIP3    H212646   1.802   4.163   6.830 -0.0523  0.2210  0.4157
 4242TIP3   OH212647   1.852   2.290   0.874  0.2282  0.4275  0.6035
 4242TIP3    H112648   1.850   2.385   0.884 -0.2313  0.4310  0.5183
 4242TIP3    H212649   1.914   2.260   0.940 -0.0406  0.7438  1.0022
 4243TIP3   OH212650   5.641   0.534   0.268 -0.4563  0.4651  0.0772
 4243TIP3    H112651   5.577   0.467   0.243 -0.2713 -0.2280  1.3768
 4243TIP3    H212652   5.619   0.609   0.213 -0.5072 -0.7280 -1.6021
 4244TIP3   OH212653   4.019   2.138   6.569 -0.0211  0.2772 -0.0071
 4244TIP3    H112654   3.971   2.166   6.491 -1.4333  0.8549  1.0074
 4244TIP3    H212655   3.964   2.069   6.607  0.4316  0.2946  0.6938
 4245TIP3   OH212656   5.375   7.539   0.805  0.0970  0.3010 -0.2803
 4245TIP3    H112657   5.463   7.504   0.818  0.7174  1.6652 -0.5464
 4245TIP3    H212658   5.347   7.565   0.893 -0.3296 -0.7378 -0.0960
 4246TIP3   OH212659   1.505   4.384   3.157  0.4445 -0.0645 -0.3907
 4246TIP3    H112660   1.559   4.307   3.138 -0.0674 -0.9637  1.4926
 4246TIP3    H212661   1.453   4.397   3.078  0.0056 -2.1325 -0.5132
 4247TIP3   OH212662   2.594   8.179   2.020  0.7081 -0.2459  0.0769
 4247TIP3    H112663   2.568   8.179   1.927  0.5100 -0.2554  0.1314
 4247TIP3    H212664   2.631   8.092   2.034 -1.2880 -1.0729  0.5611
 4248TIP3   OH212665   8.379   7.170   4.565  0.5888 -0.2164 -0.1154
 4248TIP3    H112666   8.369   7.173   4.470  0.8299  0.6847 -0.1202
 4248TIP3    H212667   8.463   7.213   4.581  0.8533 -0.9255  0.4670
 4249TIP3   OH212668   0.055   7.092   7.050  0.0156  0.0567 -0.1236
 4249TIP3    H112669   0.108   7.083   7.128  0.5992  0.4130 -0.4721
 4249TIP3    H212670   0.117   7.113   6.980 -0.0750 -3.1224 -1.3166
 4250TIP3   OH212671   7.040   0.691   4.132 -0.0815 -0.2907  0.5721
 4250TIP3    H112672   7.093   0.770   4.133  0.3373 -0.5720  0.6247
 4250TIP3    H212673   7.089   0.629   4.076 -0.8249 -0.2220 -0.1851
 4251TIP3   OH212674   4.306   0.561   0.122 -0.3403 -0.2555  0.0768
 4251TIP3    H112675   4.314   0.590   0.213 -0.8245  1.4672 -0.3896
 4251TIP3    H212676   4.213   0.575   0.101 -0.5460 -1.9613 -0.2764
 4252TIP3   OH212677   7.507   1.428   4.251  0.1921 -0.0914 -0.1100
 4252TIP3    H112678   7.560   1.450   4.328  1.1121 -0.0415 -0.7511
 4252TIP3    H212679   7.534   1.339   4.228  0.3319  0.1093 -0.7186
 4253TIP3   OH212680   5.715   1.037   0.942 -0.0115  0.0673  0.4052
 4253TIP3    H112681   5.744   1.128   0.947 -1.4796  0.5297  1.2577
 4253TIP3    H212682   5.737   1.000   1.028 -1.5369  0.3406  0.9548
 4254TIP3   OH212683   6.483   7.551   3.522  0.1410 -0.2355  0.0248
 4254TIP3    H112684   6.504   7.634   3.478 -0.6161 -0.8772 -1.6188
 4254TIP3    H212685   6.431   7.577   3.598  0.3800  0.8336 -0.1599
 4255TIP3   OH212686   4.277   1.489   4.762 -0.5966 -0.1772  0.0510
 4255TIP3    H112687   4.279   1.581   4.735  1.4917 -0.0808  0.4264
 4255TIP3    H212688   4.335   1.444   4.701  1.9521 -0.4223  2.4794
 4256TIP3   OH212689   1.761   4.512   2.827 -0.3333 -0.0509  0.2102
 4256TIP3    H112690   1.669   4.491   2.847 -0.7664  1.0237 -0.5597
 4256TIP3    H212691   1.766   4.509   2.732  0.0707  1.2982  0.1750
 4257TIP3   OH212692   3.526   6.953   3.993 -0.0298 -0.6569  0.1122
 4257TIP3    H112693   3.435   6.972   4.014  0.2612  0.3569  0.5221
 4257TIP3    H212694   3.537   6.983   3.902 -0.7472 -3.1526 -0.8929
 4258TIP3   OH212695   1.549   3.540   3.358 -0.2313 -0.0148 -0.4260
 4258TIP3    H112696   1.476   3.493   3.398 -0.3084 -0.5475 -1.1656
 4258TIP3    H212697   1.615   3.473   3.342 -0.2092  0.1805 -1.1997
 4259TIP3   OH212698   1.527   2.040   6.639 -0.6913 -0.2865 -0.2826
 4259TIP3    H112699   1.456   2.103   6.651 -0.3641  0.6540 -2.7220
 4259TIP3    H212700   1.554   2.051   6.547  2.3944 -0.8351  0.4492
 4260TIP3   OH212701   0.335   1.391   3.406 -0.1046  0.1173  0.0660
 4260TIP3    H112702   0.284   1.442   3.469  2.3002  1.1581  1.2836
 4260TIP3    H212703   0.353   1.452   3.335  0.2061  0.0400  0.0772
 4261TIP3   OH212704   4.889   7.686   6.787  0.0272  0.1498 -0.2918
 4261TIP3    H112705   4.870   7.650   6.874 -0.5606  1.1913  0.0297
 4261TIP3    H212706   4.845   7.626   6.726 -2.7037  1.3494  0.3320
 4262TIP3   OH212707   0.675   1.825   6.187  0.4542  0.4426  0.4378
 4262TIP3    H112708   0.644   1.818   6.278 -1.2148  1.9761  0.0282
 4262TIP3    H212709   0.637   1.749   6.144 -0.0757  0.5801  0.6600
 4263TIP3   OH212710   5.817   4.647   5.178  0.2068  0.3716  0.0976
 4263TIP3    H112711   5.736   4.691   5.205 -0.0061 -0.0378  0.1324
 4263TIP3    H212712   5.829   4.674   5.087  0.9557  1.7958  0.5863
 4264TIP3   OH212713   4.758   4.133   6.980  0.4360 -0.7807 -0.4806
 4264TIP3    H112714   4.795   4.183   7.053  1.9295 -1.2781 -0.8702
 4264TIP3    H212715   4.678   4.094   7.016  0.2601  0.3242  0.3841
 4265TIP3   OH212716   3.787   4.371   6.597 -0.7204 -0.0982  0.4618
 4265TIP3    H112717   3.861   4.403   6.546 -1.5527  0.4200 -0.4387
 4265TIP3    H212718   3.736   4.449   6.619 -0.7344 -0.3844  1.5363
 4266TIP3   OH212719   5.797   4.616   3.204 -0.0430 -0.1172  0.8151
 4266TIP3    H112720   5.809   4.682   3.136 -0.6899 -0.0931  0.7205
 4266TIP3    H212721   5.817   4.533   3.160  0.3115 -0.0321  0.8101
 4267TIP3   OH212722   6.686   1.602   0.491 -0.5821 -0.2383 -0.1653
 4267TIP3    H112723   6.639   1.531   0.446 -0.5870 -1.5648  1.8015
 4267TIP3    H212724   6.618   1.651   0.536 -0.3165 -1.0331  1.1637
 4268TIP3   OH212725   6.324   7.395   7.004  0.0538  0.2826 -0.0555
 4268TIP3    H112726   6.343   7.472   6.951 -0.7257  0.0710 -0.6628
 4268TIP3    H212727   6.410   7.360   7.027  0.4103  0.7990 -0.5667
 4269TIP3   OH212728   1.507   0.164   7.125 -0.2835 -0.3205  0.3075
 4269TIP3    H112729   1.581   0.218   7.098  0.6979 -2.2083 -0.9419
 4269TIP3    H212730   1.487   0.110   7.049 -1.2595 -1.6872  1.4742
 4270TIP3   OH212731   0.084   4.043   2.227  0.0380  0.1405  0.2718
 4270TIP3    H112732   0.138   4.053   2.149 -0.3890  0.1238 -0.0329
 4270TIP3    H212733   0.007   3.995   2.196 -2.1877  3.7094 -0.3197
 4271TIP3   OH212734   1.316   6.676   5.817 -0.1959  0.1984 -0.3051
 4271TIP3    H112735   1.328   6.588   5.782 -0.7718 -1.1924  2.7002
 4271TIP3    H212736   1.227   6.676   5.852  0.1894  1.5885  0.7648
 4272TIP3   OH212737   7.345   5.751   4.744 -0.2618 -0.4332  0.2021
 4272TIP3    H112738   7.370   5.713   4.828 -0.0765 -1.2750 -0.2306
 4272TIP3    H212739   7.265   5.705   4.719  0.3482 -1.0563 -0.6570
 4273TIP3   OH212740   1.716   7.909   6.213  0.3186  0.1825 -0.6094
 4273TIP3    H112741   1.698   7.816   6.222 -4.7061  0.9407 -0.0856
 4273TIP3    H212742   1.781   7.928   6.281 -0.4417 -2.4949  1.0076
 4274TIP3   OH212743   7.200   7.688   0.989  0.0715  0.3735  1.1108
 4274TIP3    H112744   7.246   7.628   1.047  0.2518 -0.9248 -0.3099
 4274TIP3    H212745   7.265   7.756   0.968  0.9287 -0.6721  0.2526
 4275TIP3   OH212746   2.402   8.145   3.742  0.8282 -0.4747 -0.4034
 4275TIP3    H112747   2.440   8.152   3.830 -1.4859  1.1596  0.5859
 4275TIP3    H212748   2.442   8.218   3.694  1.4253 -0.8174 -0.4381
 4276TIP3   OH212749   4.719   3.379   4.917  0.0773  0.0457  0.1324
 4276TIP3    H112750   4.666   3.322   4.972  0.3968 -0.4378 -0.0539
 4276TIP3    H212751   4.799   3.330   4.901  0.9804  1.1265  1.1515
 4277TIP3   OH212752   7.786   2.906   1.315 -0.6327 -0.6068 -0.1794
 4277TIP3    H112753   7.874   2.942   1.328 -1.2409  0.9975 -0.4128
 4277TIP3    H212754   7.770   2.856   1.395  1.0228 -2.1325 -0.7238
 4278TIP3   OH212755   1.711   5.246   4.847 -0.4308  0.0171 -0.3573
 4278TIP3    H112756   1.774   5.175   4.840 -1.8836 -1.3527 -0.1047
 4278TIP3    H212757   1.678   5.240   4.937 -1.9121 -0.2083 -0.8847
 4279TIP3   OH212758   1.054   7.643   6.125 -0.3293  0.3914 -0.2095
 4279TIP3    H112759   1.072   7.650   6.219 -1.7058  0.3950  0.0750
 4279TIP3    H212760   1.140   7.653   6.083  0.4751 -0.7203  1.0904
 4280TIP3   OH212761   5.636   7.356   2.759 -0.3838  0.4480  0.0369
 4280TIP3    H112762   5.588   7.299   2.698 -2.5186  2.6978 -0.5476
 4280TIP3    H212763   5.621   7.317   2.845 -0.8310 -0.4964 -0.4478
 4281TIP3   OH212764   0.752   6.528   3.282  0.5328  0.4198  0.6498
 4281TIP3    H112765   0.675   6.573   3.316 -1.4306 -0.9406 -1.7299
 4281TIP3    H212766   0.786   6.587   3.215  0.7611  0.3840  0.7316
 4282TIP3   OH212767   4.538   4.995   3.035 -0.9618 -0.0684  0.1932
 4282TIP3    H112768   4.455   4.962   3.070 -0.8967 -0.6282 -0.1613
 4282TIP3    H212769   4.530   4.981   2.940 -0.3673 -0.3435  0.1807
 4283TIP3   OH212770   6.812   6.130   3.618  0.3482  0.9772 -0.1515
 4283TIP3    H112771   6.880   6.129   3.686  0.0383  0.7982  0.1536
 4283TIP3    H212772   6.808   6.222   3.590  3.8716  0.4129 -3.3510
 4284TIP3   OH212773   4.270   7.862   3.137  0.3229 -0.1259 -0.2767
 4284TIP3    H112774   4.230   7.804   3.072  0.4098 -0.6354  0.1175
 4284TIP3    H212775   4.345   7.813   3.170  1.3566  0.8663 -1.0868
 4285TIP3   OH212776   1.175   3.571   3.848 -0.0470 -0.6827 -0.2423
 4285TIP3    H112777   1.243   3.509   3.873  0.2849 -0.9438 -1.7309
 4285TIP3    H212778   1.103   3.517   3.816 -0.3488 -0.3448 -0.1467
 4286TIP3   OH212779   4.820   5.789   5.638  0.5719 -0.4132  0.2691
 4286TIP3    H112780   4.749   5.769   5.577  0.0582  1.8002  0.0590
 4286TIP3    H212781   4.838   5.706   5.683 -0.9139 -1.4311 -0.9342
 4287TIP3   OH212782   7.046   5.738   6.507  1.0006 -0.1071  0.0777
 4287TIP3    H112783   7.010   5.692   6.583  1.4939  0.0770  0.4284
 4287TIP3    H212784   7.094   5.812   6.544  1.4721 -0.1704 -0.3941
 4288TIP3   OH212785   4.311   4.496   4.483  0.0832 -0.1326 -0.5465
 4288TIP3    H112786   4.263   4.458   4.557  0.5943  1.1809  0.5092
 4288TIP3    H212787   4.248   4.555   4.441 -0.2275 -0.9273 -1.2302
 4289TIP3   OH212788   3.882   5.271   3.544 -0.4132  0.2239 -0.0096
 4289TIP3    H112789   3.930   5.207   3.490  0.2693 -1.0464  1.9775
 4289TIP3    H212790   3.849   5.336   3.481  4.1267  1.3847 -1.5667
 4290TIP3   OH212791   5.888   2.054   6.909  0.4615 -0.1356 -0.1810
 4290TIP3    H112792   5.820   1.988   6.909  0.0566  0.2625 -0.9007
 4290TIP3    H212793   5.887   2.091   6.997  0.2984 -0.6886  0.0479
 4291TIP3   OH212794   1.958   3.393   0.812 -0.0017  0.3956  0.1781
 4291TIP3    H112795   1.922   3.306   0.796  1.0193  0.0605 -0.3850
 4291TIP3    H212796   1.911   3.450   0.751 -1.0276  0.3501  0.8929
 4292TIP3   OH212797   3.729   5.825   4.397  0.4557  0.0233  0.3390
 4292TIP3    H112798   3.778   5.904   4.374 -0.8405  1.1313  1.2506
 4292TIP3    H212799   3.733   5.821   4.493 -1.5671  0.4255  0.4942
 4293TIP3   OH212800   4.021   7.294   0.389 -0.3012 -0.3793 -0.8169
 4293TIP3    H112801   4.048   7.369   0.335  0.4207  0.6104  0.8301
 4293TIP3    H212802   4.103   7.249   0.410 -0.3504  0.1545  0.6788
 4294TIP3   OH212803   1.303   4.568   0.093  0.1258 -0.0254  0.4069
 4294TIP3    H112804   1.231   4.520   0.135 -1.3941  1.2750 -0.5657
 4294TIP3    H212805   1.312   4.648   0.146  1.2508 -0.4163  0.8328
 4295TIP3   OH212806   0.705   4.045   2.059 -0.2925  0.1289  0.5334
 4295TIP3    H112807   0.744   3.996   2.132 -1.7358  0.3500  1.4994
 4295TIP3    H212808   0.614   4.059   2.086 -1.1637 -0.6986 -1.8029
 4296TIP3   OH212809   5.415   3.955   6.875 -0.1025  0.0676 -0.3694
 4296TIP3    H112810   5.485   3.964   6.940  0.5582  0.0030 -1.0695
 4296TIP3    H212811   5.448   3.999   6.797  0.2917 -2.2399 -1.5946
 4297TIP3   OH212812   5.745   1.250   5.997  0.3467 -0.2137 -0.0382
 4297TIP3    H112813   5.675   1.302   5.957  0.3024 -0.2848 -0.0524
 4297TIP3    H212814   5.711   1.161   6.000 -1.2562  0.3095  3.6419
 4298TIP3   OH212815   5.128   6.878   1.586  0.5542 -0.2622  0.2159
 4298TIP3    H112816   5.089   6.881   1.498  0.8264 -2.2196 -0.0152
 4298TIP3    H212817   5.222   6.875   1.571  0.9622  3.8915  0.7627
 4299TIP3   OH212818   1.156   1.874   4.367 -0.3977  0.4378  0.1037
 4299TIP3    H112819   1.110   1.869   4.283 -2.4969 -0.4012  1.2428
 4299TIP3    H212820   1.207   1.793   4.371  0.1080  0.7124 -0.5556
 4300TIP3   OH212821   2.067   4.925   3.075  0.0977  0.0883 -0.2210
 4300TIP3    H112822   2.117   4.851   3.109  2.0976  1.2656 -0.4218
 4300TIP3    H212823   1.980   4.889   3.058  0.9735 -2.2049 -0.2871
 4301TIP3   OH212824   6.775   3.386   4.954 -0.2651 -0.0420 -0.1656
 4301TIP3    H112825   6.694   3.343   4.978 -0.8060  0.8094 -0.4187
 4301TIP3    H212826   6.814   3.414   5.037  1.1287 -2.7367  0.2035
 4302TIP3   OH212827   4.111   6.525   5.459 -0.0325 -0.1480 -0.3566
 4302TIP3    H112828   4.128   6.434   5.432  1.6847  0.0185  0.0822
 4302TIP3    H212829   4.197   6.567   5.460 -0.8449  1.6226 -0.9642
 4303TIP3   OH212830   4.923   6.977   4.572  0.1385  0.5690 -0.5580
 4303TIP3    H112831   4.954   7.049   4.627  0.1395  1.5574 -1.7930
 4303TIP3    H212832   4.829   6.975   4.586  0.4308 -1.0387  1.5782
 4304TIP3   OH212833   5.186   3.863   6.484 -0.4128  0.1777 -0.1586
 4304TIP3    H112834   5.161   3.775   6.512  1.3884 -0.7670 -1.2989
 4304TIP3    H212835   5.104   3.905   6.460 -1.2847 -1.3372  0.0413
 4305TIP3   OH212836   7.881   1.278   0.627 -0.3076 -0.8382  0.3446
 4305TIP3    H112837   7.797   1.267   0.672 -0.8632  2.0233  0.2035
 4305TIP3    H212838   7.874   1.363   0.584  2.1320 -1.1971 -0.9335
 4306TIP3   OH212839   2.582   3.251   3.489 -0.4078  0.0177  0.2564
 4306TIP3    H112840   2.579   3.328   3.432 -3.2706 -0.7728 -0.8466
 4306TIP3    H212841   2.601   3.178   3.430 -0.6254 -0.4809  0.7905
 4307TIP3   OH212842   1.844   7.096   0.669  0.2227 -0.9055 -0.5463
 4307TIP3    H112843   1.823   7.033   0.738  1.1095 -3.4665 -2.4507
 4307TIP3    H212844   1.759   7.124   0.637 -0.1989 -0.8060  0.6003
 4308TIP3   OH212845   5.113   1.289   4.865  0.0123  0.1910 -0.2424
 4308TIP3    H112846   5.055   1.365   4.861  1.6335  1.4630 -1.7979
 4308TIP3    H212847   5.157   1.289   4.779  0.2111 -2.4061 -0.1990
 4309TIP3   OH212848   5.996   8.221   0.583  0.0092 -0.0003 -0.3158
 4309TIP3    H112849   6.030   8.132   0.576 -0.0063 -0.0173 -0.1874
 4309TIP3    H212850   5.924   8.214   0.646  0.7609  0.3111  0.6006
 4310TIP3   OH212851   5.675   5.390   2.184 -0.3983 -0.7274 -0.3720
 4310TIP3    H112852   5.716   5.323   2.239  1.0590 -0.0035 -0.5333
 4310TIP3    H212853   5.681   5.471   2.236  0.2834 -0.1939 -1.2577
 4311TIP3   OH212854   6.839   1.409   5.625 -0.4318  0.0170 -0.3674
 4311TIP3    H112855   6.931   1.431   5.610 -0.6886 -0.3161 -3.0217
 4311TIP3    H212856   6.841   1.318   5.653  0.1345  0.7373  2.1298
 4312TIP3   OH212857   6.933   6.627   1.714  0.0642 -0.0857  0.3061
 4312TIP3    H112858   7.002   6.656   1.773 -0.3011 -0.1850  0.7873
 4312TIP3    H212859   6.900   6.707   1.674  1.0495 -0.1176 -0.5938
 4313TIP3   OH212860   2.782   8.106   0.535  0.0992 -0.1283 -0.6675
 4313TIP3    H112861   2.742   8.024   0.507  0.6671 -1.2354  1.5245
 4313TIP3    H212862   2.844   8.128   0.465 -0.4238 -1.2926 -1.5280
 4314TIP3   OH212863   3.500   7.562   2.170  0.3418 -0.2894  0.5143
 4314TIP3    H112864   3.584   7.557   2.123  0.2795  0.9571  0.2606
 4314TIP3    H212865   3.522   7.534   2.259  0.8404 -0.8465  0.2269
 4315TIP3   OH212866   0.556   3.212   4.647  0.7262 -0.5952  0.0424
 4315TIP3    H112867   0.501   3.291   4.636  1.1168 -0.3114  0.1146
 4315TIP3    H212868   0.625   3.239   4.708  0.2725 -1.2959  0.8953
 4316TIP3   OH212869   5.203   2.548   2.048 -0.1538  0.8221 -0.3072
 4316TIP3    H112870   5.162   2.481   2.103  0.5135  0.6262 -0.0332
 4316TIP3    H212871   5.261   2.595   2.108  1.0121  0.2528 -0.9449
 4317TIP3   OH212872   4.352   6.421   3.064  0.1882  0.2391  0.4256
 4317TIP3    H112873   4.377   6.510   3.088 -0.3200  0.0311  1.8300
 4317TIP3    H212874   4.435   6.373   3.061  0.3295  0.3998  1.3384
 4318TIP3   OH212875   6.868   8.093   3.939 -0.7081  0.0236 -0.0292
 4318TIP3    H112876   6.859   8.176   3.892  1.6208 -0.2434 -1.0474
 4318TIP3    H212877   6.912   8.116   4.021  0.6718 -0.2661 -0.6632
 4319TIP3   OH212878   6.540   2.603   6.458  0.5632 -0.0983 -0.5942
 4319TIP3    H112879   6.619   2.578   6.505  0.7676 -0.2690 -1.0260
 4319TIP3    H212880   6.540   2.699   6.458  0.6843 -0.0994 -0.4535
 4320TIP3   OH212881   0.063   7.710   5.290 -0.0111  0.5700 -0.0918
 4320TIP3    H112882   0.060   7.656   5.368  0.6090  1.6747  0.7231
 4320TIP3    H212883   0.046   7.649   5.218 -0.0188 -0.5645  0.8406
 4321TIP3   OH212884   7.274   0.102   3.723  0.0298  0.0787 -0.0893
 4321TIP3    H112885   7.253   0.049   3.646  0.9357  0.4450 -0.6126
 4321TIP3    H212886   7.287   0.190   3.689 -1.1909  0.6004  0.7334
 4322TIP3   OH212887   2.599   1.891   6.299 -0.2533 -0.0008 -1.0468
 4322TIP3    H112888   2.520   1.845   6.270 -0.7867 -0.0307  0.3820
 4322TIP3    H212889   2.601   1.877   6.394  1.0574  0.6514 -0.9657
 4323TIP3   OH212890   3.266   3.032   1.168  0.8971 -0.4028 -0.0987
 4323TIP3    H112891   3.181   2.998   1.140 -0.3401 -1.2538  4.0410
 4323TIP3    H212892   3.253   3.126   1.174  0.1452 -0.5338  0.5941
 4324TIP3   OH212893   1.331   0.022   0.665  0.2217 -0.0755  0.4632
 4324TIP3    H112894   1.266  -0.048   0.656  1.4635 -1.0703 -1.8135
 4324TIP3    H212895   1.338   0.036   0.759 -3.0660 -0.0650  0.8143
 4325TIP3   OH212896   6.766   7.715   6.556 -0.2609  0.0180 -0.2879
 4325TIP3    H112897   6.858   7.689   6.566 -0.4034 -0.2545  0.3443
 4325TIP3    H212898   6.734   7.661   6.484  0.4349  1.0886 -1.4524
 4326TIP3   OH212899   5.428   0.163   5.994 -0.2090  0.3562  0.2345
 4326TIP3    H112900   5.475   0.148   5.912 -1.3778 -0.8541 -0.2490
 4326TIP3    H212901   5.453   0.252   6.020  2.3057 -0.2126  0.0147
 4327TIP3   OH212902   2.727   5.647   1.618  0.5535  0.2232 -0.1731
 4327TIP3    H112903   2.791   5.578   1.605  0.7341  0.0782  1.3317
 4327TIP3    H212904   2.643   5.602   1.619  0.1883  0.5656 -3.5856
 4328TIP3   OH212905   5.024   6.578   1.185  0.0664 -0.1304  0.1741
 4328TIP3    H112906   4.990   6.657   1.144  1.9291 -0.2192 -1.7089
 4328TIP3    H212907   5.063   6.528   1.113  1.8627 -1.1833  1.7649
 4329TIP3   OH212908   4.560   2.789   6.445 -0.3461 -0.0077  0.3732
 4329TIP3    H112909   4.601   2.715   6.491 -1.8272 -1.5293 -0.6458
 4329TIP3    H212910   4.602   2.790   6.359  0.6820  1.3009  0.8480
 4330TIP3   OH212911   7.936   2.733   3.340  0.2827 -0.3453  0.0453
 4330TIP3    H112912   7.848   2.696   3.349 -0.5547  1.8248  1.6199
 4330TIP3    H212913   7.934   2.778   3.256 -0.0284 -0.4877 -0.0254
 4331TIP3   OH212914   0.039   2.933   5.061 -0.2498  0.3563  0.5845
 4331TIP3    H112915   0.042   2.980   4.977  2.2446  0.3006  0.5796
 4331TIP3    H212916  -0.054   2.928   5.081 -0.8922  0.9866 -1.8338
 4332TIP3   OH212917   7.244   2.889   0.383 -0.1757  0.4954 -0.0882
 4332TIP3    H112918   7.243   2.961   0.445 -0.4339  0.1198  0.3520
 4332TIP3    H212919   7.313   2.830   0.414 -0.2839  0.3208 -0.1728
 4333TIP3   OH212920   2.810   7.851   3.784  0.0921 -0.0821  0.6108
 4333TIP3    H112921   2.887   7.900   3.756  1.5757 -0.6421  3.3987
 4333TIP3    H212922   2.755   7.916   3.828 -1.2630  0.3652 -1.5578
 4334TIP3   OH212923   6.535   6.235   6.758 -0.4067  0.2041 -0.5933
 4334TIP3    H112924   6.587   6.314   6.745  2.2500 -1.1616  1.0191
 4334TIP3    H212925   6.586   6.165   6.718 -0.1562 -1.4336  2.3003
 4335TIP3   OH212926   3.088   3.163   2.025  0.0204  0.2555 -0.2780
 4335TIP3    H112927   3.070   3.117   1.943  1.1081 -2.0075  0.6904
 4335TIP3    H212928   3.021   3.133   2.085 -0.9732  2.1592 -0.3532
 4336TIP3   OH212929   7.656   5.756   5.155 -0.4233 -0.0099 -0.3191
 4336TIP3    H112930   7.697   5.834   5.118 -0.3051  0.2943  0.4292
 4336TIP3    H212931   7.710   5.683   5.124  1.0997  0.4272  1.1497
 4337TIP3   OH212932   7.024   6.766   5.709 -0.9406 -0.2434  0.6911
 4337TIP3    H112933   6.982   6.774   5.795 -0.2536  0.4163  0.9878
 4337TIP3    H212934   7.057   6.855   5.691  0.4113 -0.7595  0.5325
 4338TIP3   OH212935   4.478   7.485   1.305  0.6204  0.5887  0.1356
 4338TIP3    H112936   4.389   7.492   1.270  1.2536  2.1266 -1.3027
 4338TIP3    H212937   4.472   7.416   1.371 -1.4908  0.2163 -0.3603
 4339TIP3   OH212938   8.727   5.010   5.676 -0.0152  0.5477  0.0320
 4339TIP3    H112939   8.697   5.037   5.589  0.5864 -0.7975 -0.6268
 4339TIP3    H212940   8.653   4.963   5.714 -0.5374  1.7649  0.5706
 4340TIP3   OH212941   1.353   1.527   5.834 -1.2636 -0.0205  0.2913
 4340TIP3    H112942   1.357   1.455   5.897 -2.1019  0.0432  0.4346
 4340TIP3    H212943   1.444   1.542   5.808 -0.8678  0.2078  1.7549
 4341TIP3   OH212944   4.913   2.427  -0.004 -0.2983 -0.6354 -0.3209
 4341TIP3    H112945   4.987   2.471   0.038 -1.4123 -0.7870  1.9711
 4341TIP3    H212946   4.926   2.334   0.014 -0.9618 -0.6721  0.0377
 4342TIP3   OH212947   5.437   5.252   6.894  0.3106  0.5249 -0.1713
 4342TIP3    H112948   5.486   5.237   6.813  1.5133 -1.7885  0.8875
 4342TIP3    H212949   5.495   5.306   6.948 -0.3833  1.8483 -0.7036
 4343TIP3   OH212950   5.887   1.955   6.596  0.0880  0.1639 -0.2202
 4343TIP3    H112951   5.830   2.025   6.629  0.0276  0.0402 -0.0536
 4343TIP3    H212952   5.971   1.970   6.639  1.5005  2.7579 -3.4867
 4344TIP3   OH212953   3.095   6.027   4.458 -0.3659  0.0635 -0.5112
 4344TIP3    H112954   3.072   6.092   4.392 -0.7596  0.8174  0.3510
 4344TIP3    H212955   3.035   6.044   4.531  0.7893 -0.0296  0.4932
 4345TIP3   OH212956   7.206   2.892   1.789  0.2907 -0.2408 -0.1032
 4345TIP3    H112957   7.122   2.937   1.786 -0.1400 -1.0444 -0.7491
 4345TIP3    H212958   7.191   2.816   1.846  0.4723 -0.5743 -0.4897
 4346TIP3   OH212959   6.646   7.505   6.349  0.0537  0.0141  0.9242
 4346TIP3    H112960   6.630   7.591   6.309  0.0026  0.1038  1.1350
 4346TIP3    H212961   6.575   7.495   6.412 -0.8006 -0.8266 -0.1197
 4347TIP3   OH212962   6.897   1.828   2.142  0.1633 -0.1130  0.2083
 4347TIP3    H112963   6.854   1.886   2.204  2.2037  1.6611  0.0853
 4347TIP3    H212964   6.959   1.777   2.195 -0.9385 -1.5619  0.1687
 4348TIP3   OH212965   0.021   3.285   2.720 -0.5312 -0.2242 -0.2490
 4348TIP3    H112966   0.069   3.367   2.734 -0.8937 -0.0714  0.1234
 4348TIP3    H212967  -0.045   3.307   2.654 -0.4127 -0.3019 -0.3925
 4349TIP3   OH212968   3.981   2.784   2.784  0.2061 -0.2502  0.3621
 4349TIP3    H112969   3.971   2.870   2.824 -0.8595  0.7119 -1.8060
 4349TIP3    H212970   4.071   2.783   2.751  0.3335 -0.1304  0.7004
 4350TIP3   OH212971   8.419   8.160   6.481  0.1500  0.5235  0.0902
 4350TIP3    H112972   8.495   8.183   6.427  1.3962  2.0748  2.3331
 4350TIP3    H212973   8.387   8.078   6.443  2.5108  0.1543 -1.3611
 4351TIP3   OH212974   7.653   6.064   1.759  0.0559  0.4641  0.0112
 4351TIP3    H112975   7.594   6.139   1.755  1.3982  1.5965  0.6115
 4351TIP3    H212976   7.637   6.025   1.844 -0.2564  0.4065 -0.0746
 4352TIP3   OH212977   0.698   6.217   4.284 -0.0287  0.1341  0.2665
 4352TIP3    H112978   0.681   6.164   4.207  0.4191 -1.3961  1.1750
 4352TIP3    H212979   0.785   6.190   4.313 -1.0380 -0.9678  2.5446
 4353TIP3   OH212980   1.711   1.185   1.318  0.1756  0.5847 -0.1998
 4353TIP3    H112981   1.772   1.127   1.364  1.5987  2.1830  0.0340
 4353TIP3    H212982   1.727   1.169   1.226  0.6965  0.7407 -0.1365
 4354TIP3   OH212983   3.378   2.824   3.095  0.3389 -0.0323 -0.5311
 4354TIP3    H112984   3.443   2.894   3.105 -1.6413  1.8767 -0.2803
 4354TIP3    H212985   3.395   2.766   3.169  1.2914  0.8203 -0.0517
 4355TIP3   OH212986   1.084   5.974   4.177 -0.1069 -0.9756  0.4600
 4355TIP3    H112987   1.136   5.917   4.121  1.5030  2.5189 -2.0061
 4355TIP3    H212988   1.124   5.967   4.264  3.1057 -0.1957 -0.8169
 4356TIP3   OH212989   6.069   1.953   5.465 -0.3349  0.0843 -0.8218
 4356TIP3    H112990   6.090   1.861   5.486  0.9144  0.3514 -0.8007
 4356TIP3    H212991   6.151   1.999   5.479 -1.5976  1.7351  1.9210
 4357TIP3   OH212992   4.784   6.018   4.059  0.5037  0.4514 -1.0123
 4357TIP3    H112993   4.696   5.993   4.089  1.2603 -0.3062  0.6835
 4357TIP3    H212994   4.768   6.067   3.978 -1.6239  2.0427  0.2509
 4358TIP3   OH212995   5.872   0.887   4.231 -0.2479  0.1538 -0.6174
 4358TIP3    H112996   5.959   0.893   4.272 -0.8007  0.3198  0.5720
 4358TIP3    H212997   5.823   0.961   4.268 -1.2516 -0.6142 -0.3694
 4359TIP3   OH212998   4.488   0.971   6.470 -0.4855  0.1139 -0.0229
 4359TIP3    H112999   4.395   0.966   6.448 -0.3267  1.4325 -1.1359
 4359TIP3    H213000   4.524   0.887   6.441 -1.0727  0.1593 -0.9433
 4360TIP3   OH213001   4.612   3.001   6.619 -0.5037 -0.4215  0.7760
 4360TIP3    H113002   4.695   3.047   6.635 -1.5593  1.8029  0.3228
 4360TIP3    H213003   4.637   2.920   6.577  1.3705  1.7611 -2.7525
 4361TIP3   OH213004   5.553   4.759   0.038  0.1851  0.3547 -0.2798
 4361TIP3    H113005   5.618   4.696   0.070  0.5047  1.1310  0.6567
 4361TIP3    H213006   5.471   4.733   0.081 -0.5473 -1.5403 -2.5954
 4362TIP3   OH213007   5.466   2.460   3.567 -0.9523 -0.2797  0.0379
 4362TIP3    H113008   5.553   2.454   3.529 -0.3909 -0.1285  1.2727
 4362TIP3    H213009   5.427   2.537   3.526 -0.6951 -0.6130 -0.8591
 4363TIP3   OH213010   2.540   1.866   1.493 -0.8557  0.0809  0.3072
 4363TIP3    H113011   2.588   1.805   1.549 -1.0359 -0.7522 -0.4092
 4363TIP3    H213012   2.448   1.848   1.511 -0.9315 -0.8322 -0.8807
 4364TIP3   OH213013   7.373   6.624   2.732 -0.1162  0.2272 -0.4716
 4364TIP3    H113014   7.385   6.703   2.785  0.7375  0.1839 -0.5797
 4364TIP3    H213015   7.278   6.611   2.728 -0.3845  2.2210 -1.8965
 4365TIP3   OH213016   3.813   3.130   6.380  0.2794  0.0219 -0.3857
 4365TIP3    H113017   3.908   3.140   6.377  0.2616  0.0065 -1.3136
 4365TIP3    H213018   3.780   3.219   6.394  0.4664 -0.1751  1.6048
 4366TIP3   OH213019   4.131   6.558   4.993  0.1074  0.0997 -0.0386
 4366TIP3    H113020   4.076   6.572   5.070  1.7979  3.2084  0.7661
 4366TIP3    H213021   4.109   6.629   4.933  2.2895  0.7143 -0.2226
 4367TIP3   OH213022   1.784   1.821   5.485 -0.1989 -0.2271  0.3777
 4367TIP3    H113023   1.863   1.832   5.539  1.4708  1.5307 -2.1955
 4367TIP3    H213024   1.817   1.789   5.401 -2.3493 -0.1781 -0.5498
 4368TIP3   OH213025   3.241   2.468   4.920 -0.0821  0.6151 -0.5462
 4368TIP3    H113026   3.147   2.467   4.934 -0.1854  0.5300 -1.2229
 4368TIP3    H213027   3.265   2.375   4.912  0.0898  0.6269 -0.2111
 4369TIP3   OH213028   4.331   0.563   5.758 -0.1473  0.4112  0.3788
 4369TIP3    H113029   4.283   0.637   5.795 -1.3939 -1.0804  1.9351
 4369TIP3    H213030   4.420   0.595   5.746  0.1240  1.3028  3.8951
 4370TIP3   OH213031   6.619   5.428   6.074  0.2374 -0.6465 -0.7775
 4370TIP3    H113032   6.694   5.388   6.030  0.4258  0.0047 -1.0640
 4370TIP3    H213033   6.580   5.485   6.008 -1.2389 -1.8688 -1.0093
 4371TIP3   OH213034   8.083   2.101   1.035 -0.2215 -0.2545 -0.4141
 4371TIP3    H113035   8.171   2.070   1.056  0.0127  1.5204  1.5717
 4371TIP3    H213036   8.025   2.033   1.067  0.3798 -0.5662  0.0291
 4372TIP3   OH213037   7.601   4.105   2.705 -0.2663 -0.7250  0.0768
 4372TIP3    H113038   7.637   4.143   2.785  1.0416 -2.3021  0.2867
 4372TIP3    H213039   7.648   4.147   2.634 -1.6321  0.8949  0.0527
 4373TIP3   OH213040   7.036   6.809   2.670 -0.1256 -0.3273 -0.2822
 4373TIP3    H113041   6.990   6.893   2.667  1.5512  0.6466  0.0311
 4373TIP3    H213042   7.015   6.766   2.587 -0.2803  0.8049 -0.8421
 4374TIP3   OH213043   2.473   2.621   0.005  0.5175  0.7542 -0.4975
 4374TIP3    H113044   2.559   2.607  -0.035  0.5464 -1.7571  0.2918
 4374TIP3    H213045   2.474   2.568   0.084 -0.9708  2.5089  0.8037
 4375TIP3   OH213046   7.160   7.531   4.673  0.1747 -0.2278 -0.0752
 4375TIP3    H113047   7.102   7.456   4.687 -1.5175  1.3043  1.6564
 4375TIP3    H213048   7.128   7.572   4.593 -0.8142  0.3016  0.5799
 4376TIP3   OH213049   3.750   6.747   0.031 -0.2228 -0.0456  0.2133
 4376TIP3    H113050   3.673   6.690   0.035  0.9236 -1.9899 -2.4577
 4376TIP3    H213051   3.724   6.818  -0.029 -0.2951 -0.1197  0.1563
 4377TIP3   OH213052   8.156   4.451   6.014 -0.0054 -0.6017  0.5414
 4377TIP3    H113053   8.202   4.478   5.935  1.0843  1.1859  1.7378
 4377TIP3    H213054   8.071   4.421   5.982  0.4022  0.0700 -1.3130
 4378TIP3   OH213055   5.724   2.546   3.807 -0.0346  0.0228  0.3453
 4378TIP3    H113056   5.684   2.615   3.755 -2.3219  0.7615  2.8687
 4378TIP3    H213057   5.659   2.476   3.808 -0.0359  0.0189  2.1240
 4379TIP3   OH213058   0.424   0.802   5.182  0.3734  0.1408 -0.2898
 4379TIP3    H113059   0.438   0.750   5.262  0.2463  0.7997  0.1692
 4379TIP3    H213060   0.507   0.845   5.166  0.7539 -0.8782 -1.1817
 4380TIP3   OH213061   0.317   2.197   6.071 -0.2677 -0.0863  0.2235
 4380TIP3    H113062   0.267   2.241   6.003 -0.3199 -0.5227 -0.0271
 4380TIP3    H213063   0.278   2.226   6.153 -1.1078 -0.6311  0.0206
 4381TIP3   OH213064   2.481   4.721   4.931 -0.2055  0.4175  0.3485
 4381TIP3    H113065   2.483   4.778   5.007  0.0085 -0.8202  1.3117
 4381TIP3    H213066   2.469   4.780   4.856 -0.8186  1.6244  1.3638
 4382TIP3   OH213067   0.320   7.254   1.588  0.3466 -0.1911  0.4302
 4382TIP3    H113068   0.268   7.272   1.666 -1.7700 -3.1109 -0.1190
 4382TIP3    H213069   0.410   7.268   1.615 -0.2936 -1.1782  3.4695
 4383TIP3   OH213070   3.657   1.706   2.511 -0.2329  0.0533  0.2492
 4383TIP3    H113071   3.746   1.687   2.540  0.3284  1.9194 -0.1033
 4383TIP3    H213072   3.624   1.624   2.475  1.2233 -0.7395  0.6764
 4384TIP3   OH213073   2.895   1.341   1.643  0.1925  0.1685 -0.1167
 4384TIP3    H113074   2.932   1.261   1.605 -1.5261 -0.3475 -0.8336
 4384TIP3    H213075   2.801   1.335   1.623 -0.9664 -0.2820  4.4662
 4385TIP3   OH213076   0.297   5.306   3.964 -0.2902 -0.1041 -0.1719
 4385TIP3    H113077   0.385   5.317   4.002 -0.2940 -0.3290 -0.0962
 4385TIP3    H213078   0.287   5.211   3.954  0.1107 -0.0192 -1.6657
 4386TIP3   OH213079   2.813   2.963   4.057 -0.3299 -0.1773  0.2143
 4386TIP3    H113080   2.860   3.037   4.096  0.5532 -0.1911 -0.7817
 4386TIP3    H213081   2.730   3.000   4.028  0.1881  0.4949 -0.4544
 4387TIP3   OH213082   2.099   5.461   5.957 -0.0589 -0.3209  0.0312
 4387TIP3    H113083   2.185   5.500   5.940  0.0862 -0.7666 -0.2622
 4387TIP3    H213084   2.118   5.388   6.015 -0.0029 -1.5603 -1.4897
 4388TIP3   OH213085   1.526   5.770   1.830  0.3760 -0.1194  0.3109
 4388TIP3    H113086   1.563   5.808   1.910 -0.9490  0.3101  0.7378
 4388TIP3    H213087   1.437   5.804   1.826  0.1476 -0.8151 -0.9083
 4389TIP3   OH213088   1.662   7.756   3.667  0.0090  0.2579  0.1179
 4389TIP3    H113089   1.649   7.707   3.586  0.9457 -0.7454  0.5515
 4389TIP3    H213090   1.708   7.836   3.640  0.6861 -0.2648 -0.3012
 4390TIP3   OH213091   7.137   4.523   6.437  0.5145  0.0186 -0.3954
 4390TIP3    H113092   7.151   4.617   6.448  0.3718  0.0864 -0.7504
 4390TIP3    H213093   7.050   4.507   6.472  1.0509 -0.2206  0.8761
 4391TIP3   OH213094   2.061   1.049   0.086 -0.6042  0.3919 -0.7223
 4391TIP3    H113095   2.017   1.132   0.070 -0.8766 -0.0662 -2.5836
 4391TIP3    H213096   2.126   1.042   0.016  1.3233  0.2704  0.9796
 4392TIP3   OH213097   5.939   4.972   2.744 -0.2093 -0.2419  0.5392
 4392TIP3    H113098   6.013   4.943   2.690  1.4018 -0.2594  2.6493
 4392TIP3    H213099   5.861   4.944   2.695  1.1676 -1.1161 -1.2632
 4393TIP3   OH213100   4.004   5.007   1.259 -0.4198  0.4187  0.3698
 4393TIP3    H113101   3.939   5.057   1.209 -0.3364 -1.5542 -1.8839
 4393TIP3    H213102   3.957   4.929   1.288 -0.0391  0.8024  2.1410
 4394TIP3   OH213103   4.218   3.375   4.642  0.0991 -0.5155 -0.7144
 4394TIP3    H113104   4.243   3.399   4.552  0.3356  1.7312 -0.1233
 4394TIP3    H213105   4.235   3.454   4.693  0.7204 -1.9707  1.4921
 4395TIP3   OH213106   7.518   3.370   1.389  0.7495 -0.3488  0.5590
 4395TIP3    H113107   7.477   3.293   1.349 -1.2194  1.5816 -1.4663
 4395TIP3    H213108   7.612   3.355   1.381  0.4062 -2.2204 -0.4130
 4396TIP3   OH213109   4.131   1.612   2.963 -0.0719 -0.6173 -0.1200
 4396TIP3    H113110   4.224   1.632   2.959  0.2744 -2.1187 -0.2645
 4396TIP3    H213111   4.089   1.695   2.983  1.1650  0.3792 -1.4627
 4397TIP3   OH213112   7.256   3.015   6.509 -0.2474  0.1992 -0.0194
 4397TIP3    H113113   7.247   3.092   6.564  0.5661  0.0804  0.2950
 4397TIP3    H213114   7.196   3.030   6.435 -0.2774  1.0067  0.1649
 4398TIP3   OH213115   3.233   3.560   0.093  0.0787 -0.1816  0.4836
 4398TIP3    H113116   3.231   3.532   0.184  0.5910 -0.2743  0.4686
 4398TIP3    H213117   3.197   3.649   0.093 -0.6912 -0.4794  0.6591
 4399TIP3   OH213118   6.948   7.782   5.993 -0.4553  0.1487  0.0561
 4399TIP3    H113119   7.016   7.757   6.055  1.2832 -0.3909 -1.9485
 4399TIP3    H213120   6.917   7.867   6.024 -0.3354 -0.5034  2.1318
 4400TIP3   OH213121   5.483   4.549   3.166 -0.3983 -0.4688  0.0932
 4400TIP3    H113122   5.526   4.476   3.211 -0.5336  0.3682  1.6595
 4400TIP3    H213123   5.532   4.626   3.194 -1.4860  0.2442  0.0662
 4401TIP3   OH213124   7.649   6.970   5.554 -0.3211  0.1108 -0.2014
 4401TIP3    H113125   7.642   7.064   5.537  1.6228  0.1761 -0.7891
 4401TIP3    H213126   7.740   6.957   5.582 -0.9185 -1.4069  1.2224
 4402TIP3   OH213127   2.864   6.069   1.727 -0.5155  0.2464 -0.7721
 4402TIP3    H113128   2.959   6.059   1.722 -0.6774 -1.1556 -1.3204
 4402TIP3    H213129   2.829   6.008   1.662 -1.8287 -0.1615  0.2613
 4403TIP3   OH213130   1.625   3.837   6.033  0.2678 -0.6871  0.3324
 4403TIP3    H113131   1.658   3.818   6.120 -0.6308  0.2850  0.9209
 4403TIP3    H213132   1.702   3.834   5.976  0.8870 -1.1928  1.1824
 4404TIP3   OH213133   0.518   3.120   0.884 -0.2499  0.0093 -0.5647
 4404TIP3    H113134   0.530   3.025   0.889 -1.2298 -0.1025 -0.0489
 4404TIP3    H213135   0.441   3.138   0.938 -0.2499  1.0651 -0.8781
 4405TIP3   OH213136   1.514   6.186   1.375 -0.0346 -0.2425  0.0207
 4405TIP3    H113137   1.547   6.222   1.293 -0.1537  0.4748  0.2792
 4405TIP3    H213138   1.591   6.179   1.431 -0.2177  0.9481  0.4479
 4406TIP3   OH213139   6.764   3.274   6.884 -0.6031 -0.3578  0.8584
 4406TIP3    H113140   6.703   3.262   6.811 -2.8006  0.0833  2.5196
 4406TIP3    H213141   6.714   3.252   6.962  1.3905  0.0239  2.3425
 4407TIP3   OH213142   6.354   1.798   2.029 -0.0479 -0.3904 -0.5127
 4407TIP3    H113143   6.321   1.864   1.969  0.3395 -1.6318 -2.1542
 4407TIP3    H213144   6.395   1.733   1.973  2.0714 -0.6500  1.2257
 4408TIP3   OH213145   2.091   1.477   4.065 -0.1518  0.9531 -0.2805
 4408TIP3    H113146   2.055   1.564   4.082 -0.2477  1.2723 -1.9980
 4408TIP3    H213147   2.150   1.489   3.991  1.3108 -0.1101  0.6553
 4409TIP3   OH213148   0.045   2.182   0.849  0.1800  0.2621  0.1117
 4409TIP3    H113149   0.075   2.270   0.872  0.6499 -0.2921  1.8391
 4409TIP3    H213150  -0.017   2.195   0.777  0.1235  2.0043  0.4262
 4410TIP3   OH213151   3.126   0.246   1.582 -0.2252  0.5146 -0.9035
 4410TIP3    H113152   3.207   0.195   1.576 -0.1246  0.5791 -0.1273
 4410TIP3    H213153   3.060   0.190   1.541 -0.3073 -0.6574  0.7467
 4411TIP3   OH213154   1.148   2.035   6.789 -0.0934  0.2632 -0.0801
 4411TIP3    H113155   1.137   2.051   6.883  1.8360 -1.9787  0.6309
 4411TIP3    H213156   1.212   2.100   6.761 -0.0007  0.3726  0.3847
 4412TIP3   OH213157   6.010   4.732   3.891  0.2094  0.8562 -0.4091
 4412TIP3    H113158   5.959   4.797   3.940 -1.1989  0.5363 -1.4033
 4412TIP3    H213159   6.078   4.704   3.953 -1.5889  0.3578  1.4404
 4413TIP3   OH213160   2.277   1.478   3.048 -0.1569 -0.1660 -0.1483
 4413TIP3    H113161   2.268   1.421   3.125 -0.0305  0.6219  0.4696
 4413TIP3    H213162   2.231   1.558   3.073  2.3277  1.2290  0.2738
 4414TIP3   OH213163   4.171   3.583   6.933  0.0645  0.2102 -0.9106
 4414TIP3    H113164   4.244   3.528   6.962  0.1830  0.7030 -0.2502
 4414TIP3    H213165   4.100   3.561   6.993  0.5861  1.9071  0.3975
 4415TIP3   OH213166   1.692   5.734   5.666  0.0495 -0.1425  0.0844
 4415TIP3    H113167   1.720   5.805   5.608 -1.3135  0.0092 -0.4345
 4415TIP3    H213168   1.679   5.776   5.751 -2.9033  0.8218 -0.7000
 4416TIP3   OH213169   3.682   1.556   4.536  0.5263  0.4043  0.0927
 4416TIP3    H113170   3.727   1.631   4.574  0.5661  0.1133  0.6306
 4416TIP3    H213171   3.597   1.553   4.579  0.1548  0.6856 -0.5982
 4417TIP3   OH213172   7.900   3.464   4.057  0.6442 -0.3006  0.1474
 4417TIP3    H113173   7.996   3.463   4.057  0.6812 -2.2222 -1.3548
 4417TIP3    H213174   7.875   3.405   3.986 -1.6738 -0.3986  0.9540
 4418TIP3   OH213175   4.335   1.970   5.839  0.4233 -0.3125  0.0211
 4418TIP3    H113176   4.246   1.960   5.804  1.6204 -1.3126 -2.9974
 4418TIP3    H213177   4.324   2.030   5.913 -3.0982 -2.2990  1.3954
 4419TIP3   OH213178   5.860   8.125   0.825 -0.3517 -0.6551  0.1366
 4419TIP3    H113179   5.888   8.211   0.857  0.8223 -0.9843  0.0413
 4419TIP3    H213180   5.768   8.137   0.800  0.4687  1.2732 -2.3242
 4420TIP3   OH213181   5.015   0.328   4.409  0.2912 -0.0539  0.1670
 4420TIP3    H113182   4.971   0.373   4.481  1.8826 -2.3009  2.7580
 4420TIP3    H213183   5.105   0.318   4.439  1.5158  0.3713 -2.9460
 4421TIP3   OH213184   7.096   2.505   2.809 -0.5408 -0.1929  0.3923
 4421TIP3    H113185   7.130   2.539   2.726 -0.9434 -1.0075 -0.1130
 4421TIP3    H213186   7.100   2.410   2.800  0.5510 -0.3075  1.7860
 4422TIP3   OH213187   6.345   0.334   4.638 -0.1169  0.1914  0.0905
 4422TIP3    H113188   6.376   0.348   4.548  0.3727  0.7051  0.3335
 4422TIP3    H213189   6.410   0.377   4.693 -0.9279  0.7475  0.6495
 4423TIP3   OH213190   2.862   7.464   2.885 -0.3213  0.0961  0.5204
 4423TIP3    H113191   2.799   7.535   2.882 -1.4724 -0.9271 -0.2356
 4423TIP3    H213192   2.858   7.423   2.798  1.0456 -0.2886  0.6017
 4424TIP3   OH213193   1.165   0.469   0.877 -0.1122 -0.0527 -0.1267
 4424TIP3    H113194   1.160   0.476   0.781 -1.5240  0.3524 -0.0478
 4424TIP3    H213195   1.222   0.394   0.893  1.0507  0.5380 -1.2604
 4425TIP3   OH213196   3.344   7.055   6.447 -0.1437  0.5252 -0.0959
 4425TIP3    H113197   3.435   7.024   6.450  0.4630  2.2531  0.8561
 4425TIP3    H213198   3.296   6.983   6.406  1.6100 -0.5199 -0.4505
 4426TIP3   OH213199   1.527   4.497   2.169  0.0927 -0.0394 -0.0388
 4426TIP3    H113200   1.605   4.442   2.179 -0.8981 -1.4727  0.2012
 4426TIP3    H213201   1.553   4.564   2.107  1.4290 -0.6700 -0.2040
 4427TIP3   OH213202   7.184   1.391   0.298 -0.5028  0.3565  0.2314
 4427TIP3    H113203   7.267   1.400   0.250 -0.5063 -0.7240 -0.0154
 4427TIP3    H213204   7.209   1.356   0.383 -0.7479 -0.8648 -0.1662
 4428TIP3   OH213205   2.460   3.914   0.829  0.3184 -0.3596  0.1323
 4428TIP3    H113206   2.494   4.003   0.827  1.3832 -0.7471  0.1423
 4428TIP3    H213207   2.437   3.898   0.920 -0.6008  0.1511  0.0031
 4429TIP3   OH213208   5.326   7.407   6.197 -0.1801  0.5316 -0.2597
 4429TIP3    H113209   5.407   7.457   6.192 -0.5659  1.0741 -3.2866
 4429TIP3    H213210   5.352   7.316   6.178 -0.0280  0.2607  1.1225
 4430TIP3   OH213211   6.629   3.484   5.763  0.5939 -0.0088 -0.0541
 4430TIP3    H113212   6.568   3.504   5.692 -0.6527 -0.2591  0.9223
 4430TIP3    H213213   6.607   3.545   5.833  1.1422 -0.4258  0.4991
 4431TIP3   OH213214   3.230   2.869   6.589  0.0164 -0.5292  0.1824
 4431TIP3    H113215   3.206   2.788   6.545 -0.8371  0.4968 -1.3384
 4431TIP3    H213216   3.289   2.842   6.659  0.6177 -2.3495 -0.9600
 4432TIP3   OH213217   0.386   0.400   3.880 -0.0286  0.3023  0.1932
 4432TIP3    H113218   0.354   0.359   3.961 -1.7321 -0.2518 -0.7039
 4432TIP3    H213219   0.361   0.339   3.811 -1.9628  2.4173 -1.1208
 4433TIP3   OH213220  -0.017   1.360   1.993 -0.4716  0.4618  0.2019
 4433TIP3    H113221  -0.021   1.265   2.006 -0.1872  0.5241  0.7615
 4433TIP3    H213222   0.053   1.389   2.051  1.5258  0.6407 -2.1351
 4434TIP3   OH213223   7.770   2.842   0.719 -0.1721  0.8476  0.2092
 4434TIP3    H113224   7.753   2.934   0.701  0.1887  1.2419  1.7031
 4434TIP3    H213225   7.797   2.840   0.811 -1.0867 -0.8577  0.5044
 4435TIP3   OH213226   4.310   2.701   5.770  0.0091  0.0472 -0.4178
 4435TIP3    H113227   4.308   2.605   5.772  0.5404  0.0469  0.6930
 4435TIP3    H213228   4.366   2.722   5.695  1.1573 -0.5459  0.2452
 4436TIP3   OH213229   4.974   6.505   5.984  0.1202 -0.6585  0.2283
 4436TIP3    H113230   5.025   6.469   5.912  1.1445 -1.5274  1.3370
 4436TIP3    H213231   5.008   6.460   6.062 -0.5240  0.6840  1.3239
 4437TIP3   OH213232   2.669   4.837   5.871  0.3277 -0.6085  0.5832
 4437TIP3    H113233   2.705   4.750   5.854 -1.2407 -1.4374  1.2518
 4437TIP3    H213234   2.746   4.893   5.881  1.3751 -1.8818 -0.0193
 4438TIP3   OH213235   5.474   3.070   0.771  0.5191  0.1393 -0.1193
 4438TIP3    H113236   5.388   3.031   0.788  1.4120 -1.4587  1.0344
 4438TIP3    H213237   5.465   3.162   0.797 -1.0778  0.2488 -0.9409
 4439TIP3   OH213238   7.202   2.453   3.077 -0.4856 -0.0922 -0.1977
 4439TIP3    H113239   7.193   2.474   2.984  0.7021  1.0720 -0.0811
 4439TIP3    H213240   7.115   2.467   3.114 -0.5891  1.0564 -0.8413
 4440TIP3   OH213241   3.732   4.414   1.687  0.2863  0.9596  0.2988
 4440TIP3    H113242   3.723   4.350   1.616 -0.0866  0.2570  0.9673
 4440TIP3    H213243   3.659   4.395   1.746  1.7786  0.1504  1.9577
 4441TIP3   OH213244   5.350   5.258   1.333 -0.0060  0.3155 -0.5659
 4441TIP3    H113245   5.300   5.186   1.294 -0.0704  1.0473 -1.8925
 4441TIP3    H213246   5.427   5.216   1.371 -0.2809 -0.5167 -0.9066
 4442TIP3   OH213247   7.281   7.249   5.442  0.6312 -0.1838  0.2813
 4442TIP3    H113248   7.239   7.165   5.426  0.5478 -0.2836  0.9727
 4442TIP3    H213249   7.217   7.299   5.494 -0.0607  0.9908 -1.6146
 4443TIP3   OH213250   4.164   0.919   3.543  0.1646  0.2987 -0.5727
 4443TIP3    H113251   4.123   0.892   3.625  1.2613 -0.6981 -0.3209
 4443TIP3    H213252   4.104   0.889   3.475 -0.4826  0.6376 -0.1583
 4444TIP3   OH213253   7.626   8.043   4.408  0.3862 -0.6163  0.5040
 4444TIP3    H113254   7.710   8.054   4.452 -0.3112  2.3229  1.2661
 4444TIP3    H213255   7.561   8.040   4.478 -0.3101 -1.2713 -0.1364
 4445TIP3   OH213256   4.247   2.669   3.622 -0.0901  0.0891  0.4139
 4445TIP3    H113257   4.224   2.731   3.553 -1.6220 -0.4733  0.3764
 4445TIP3    H213258   4.341   2.656   3.613  0.1994  2.0396  0.1247
 4446TIP3   OH213259   0.514   8.047   1.374  0.0258 -0.0599 -0.5362
 4446TIP3    H113260   0.552   8.085   1.295 -0.0633 -0.2030 -0.6497
 4446TIP3    H213261   0.419   8.051   1.359 -0.0617  1.2661  0.1885
 4447TIP3   OH213262   5.736   2.857   4.967 -0.1682 -0.2214  0.7551
 4447TIP3    H113263   5.641   2.858   4.964 -0.2046 -1.9372  0.4514
 4447TIP3    H213264   5.760   2.764   4.968  1.4535  0.1342  2.4903
 4448TIP3   OH213265   1.087   5.804   1.617  0.6375 -0.1061 -1.1473
 4448TIP3    H113266   1.155   5.845   1.565  1.3853  1.3568  0.8589
 4448TIP3    H213267   1.128   5.726   1.654  1.5741  1.1565  0.6499
 4449TIP3   OH213268   7.164   8.150   1.969  0.0747 -0.1082  0.0353
 4449TIP3    H113269   7.212   8.133   1.889  0.2332  0.0562  0.0971
 4449TIP3    H213270   7.076   8.173   1.940  0.7084  2.1782 -0.2021
 4450TIP3   OH213271   1.791   4.255   0.577  0.6454 -0.4492 -0.7952
 4450TIP3    H113272   1.826   4.287   0.494  0.0805 -0.7834 -1.1716
 4450TIP3    H213273   1.811   4.161   0.577  0.2000 -0.5436 -0.7804
 4451TIP3   OH213274   4.868   8.105   1.944  0.0846 -0.0967 -0.2726
 4451TIP3    H113275   4.859   8.123   2.037  0.6450  1.4950 -0.5039
 4451TIP3    H213276   4.886   8.011   1.940 -1.2362 -0.4403  1.1197
 4452TIP3   OH213277   4.589   3.458   3.482  0.5885 -0.5469  0.3549
 4452TIP3    H113278   4.610   3.542   3.522  1.9817 -0.9479  0.5192
 4452TIP3    H213279   4.595   3.473   3.388 -1.3497  0.0533  0.2677
 4453TIP3   OH213280   3.801   4.024   5.067  0.8072  0.1503  0.8519
 4453TIP3    H113281   3.743   3.953   5.095 -0.5451  0.6659 -0.4928
 4453TIP3    H213282   3.832   3.997   4.980  1.6022  0.4619  1.0293
 4454TIP3   OH213283   6.571   8.145   3.680  0.0843 -0.2049 -0.0129
 4454TIP3    H113284   6.549   8.238   3.693 -0.0047 -0.1804 -0.3321
 4454TIP3    H213285   6.541   8.102   3.760  1.7147  0.3053  0.9105
 4455TIP3   OH213286   4.196   0.947   0.538  0.1401 -0.0214 -0.1570
 4455TIP3    H113287   4.247   1.012   0.490  0.6096 -0.8609 -0.8234
 4455TIP3    H213288   4.204   0.974   0.630  0.7296  0.5909 -0.3792
 4456TIP3   OH213289   7.979   3.829   3.214 -0.4828  0.1409  0.3753
 4456TIP3    H113290   8.040   3.893   3.177  0.8092 -0.5014  1.3034
 4456TIP3    H213291   7.893   3.857   3.183  0.2645  1.1081 -0.9532
 4457TIP3   OH213292   7.994   1.544   6.139 -0.3606 -0.2661  0.3218
 4457TIP3    H113293   8.056   1.473   6.157  1.0145  0.6144 -0.7470
 4457TIP3    H213294   7.969   1.577   6.226 -0.2957 -1.4306  0.7940
 4458TIP3   OH213295   7.066   3.826   1.082  0.4750  0.1952 -0.3444
 4458TIP3    H113296   7.015   3.860   1.009 -0.2580  0.6021  0.3369
 4458TIP3    H213297   7.157   3.836   1.055  0.4408  4.1412  0.3338
 4459TIP3   OH213298   1.159   2.941   5.049 -0.1043 -0.2148 -0.0396
 4459TIP3    H113299   1.091   2.941   4.982  0.7622 -0.8099 -0.9514
 4459TIP3    H213300   1.241   2.947   4.999  0.4956  1.3829  1.0610
 4460TIP3   OH213301   1.260   2.780   5.845  0.4286  0.5747  0.1586
 4460TIP3    H113302   1.198   2.752   5.778  2.1203 -0.1128 -1.1840
 4460TIP3    H213303   1.294   2.863   5.813  0.3100  0.8908  0.8337
 4461TIP3   OH213304   5.595   3.174   4.151 -0.0222 -0.0549 -0.1598
 4461TIP3    H113305   5.660   3.190   4.082 -0.0914  2.0272  0.2096
 4461TIP3    H213306   5.642   3.192   4.233 -1.0835  1.7792  0.1025
 4462TIP3   OH213307   4.084   2.487   1.792 -0.4551  0.5895  0.2877
 4462TIP3    H113308   4.017   2.469   1.858 -0.6442  0.1666 -0.0090
 4462TIP3    H213309   4.039   2.542   1.727 -0.6407 -0.0278 -0.1161
 4463TIP3   OH213310   0.720   3.094   1.720  0.3129  0.0134  0.3893
 4463TIP3    H113311   0.707   3.015   1.668  0.6177 -0.4625  1.0178
 4463TIP3    H213312   0.803   3.130   1.691 -0.4255  0.8356 -0.8066
 4464TIP3   OH213313   1.014   6.911   3.922 -0.4112  0.3871 -0.0152
 4464TIP3    H113314   1.109   6.923   3.929 -0.1278 -1.1163 -0.8510
 4464TIP3    H213315   0.979   7.000   3.921  1.0960  1.0163 -0.9859
 4465TIP3   OH213316   1.557   1.743   2.262  0.3975  0.3773  0.0659
 4465TIP3    H113317   1.593   1.674   2.207  0.4668 -0.2797  0.9262
 4465TIP3    H213318   1.493   1.699   2.318 -2.3546  1.5843 -1.8652
 4466TIP3   OH213319   5.868   0.293   6.546  0.8170 -0.2236  0.4855
 4466TIP3    H113320   5.897   0.374   6.505 -0.4922  0.6161  1.1679
 4466TIP3    H213321   5.801   0.320   6.608  0.0707 -1.8812  0.4472
 4467TIP3   OH213322   1.452   6.925   1.839  0.4632 -0.5574 -0.1073
 4467TIP3    H113323   1.513   6.938   1.911 -0.3002  0.8723  0.3176
 4467TIP3    H213324   1.368   6.955   1.873  0.3034  1.2341 -1.9364
 4468TIP3   OH213325   3.667   1.840   0.320 -0.7323 -0.4890  0.2260
 4468TIP3    H113326   3.760   1.863   0.308 -0.5446 -1.2658  0.1718
 4468TIP3    H213327   3.627   1.921   0.352  0.0320 -0.2316  0.5692
 4469TIP3   OH213328   1.024   7.459   0.220 -0.5532  0.4626 -0.2504
 4469TIP3    H113329   1.026   7.461   0.316 -1.3766 -2.0735 -0.1101
 4469TIP3    H213330   0.932   7.471   0.198 -0.5862 -0.4341 -0.6329
 4470TIP3   OH213331   1.345   0.756   2.590  0.3718 -0.1843  0.0434
 4470TIP3    H113332   1.310   0.680   2.542 -2.0047  0.7157  0.2002
 4470TIP3    H213333   1.426   0.778   2.544  0.8264 -2.4346 -0.3669
 4471TIP3   OH213334   5.850   2.856   1.028  0.3925 -0.3186 -0.4142
 4471TIP3    H113335   5.871   2.828   1.117 -0.0022 -0.8606 -0.4852
 4471TIP3    H213336   5.918   2.817   0.974  0.3298 -0.4383 -0.4089
 4472TIP3   OH213337   3.366   3.409   6.438  0.6020 -0.0206 -0.4370
 4472TIP3    H113338   3.385   3.470   6.367 -0.9200 -0.1468 -0.9856
 4472TIP3    H213339   3.275   3.382   6.424 -0.4885  1.5376  2.7155
 4473TIP3   OH213340   0.823   3.835   1.543  0.1216 -0.1149 -0.2628
 4473TIP3    H113341   0.902   3.792   1.577 -0.8329 -1.4143  0.3708
 4473TIP3    H213342   0.824   3.816   1.449  0.3545 -0.4505 -0.1930
 4474TIP3   OH213343   6.279   3.931   2.075 -0.5579  0.1920 -0.6345
 4474TIP3    H113344   6.334   3.987   2.021 -0.3949  1.2850  0.6259
 4474TIP3    H213345   6.195   3.928   2.028  0.2671 -0.8301 -2.1475
 4475TIP3   OH213346   0.709   2.227   1.722 -0.5944  0.2323 -0.1133
 4475TIP3    H113347   0.783   2.217   1.663 -0.6005  0.5781 -0.1778
 4475TIP3    H213348   0.748   2.225   1.810 -0.6365 -0.7811 -0.1001
 4476TIP3   OH213349   1.520   3.828   3.851  0.2988 -0.1857 -0.1351
 4476TIP3    H113350   1.426   3.811   3.843 -0.0397  1.0612  0.8325
 4476TIP3    H213351   1.562   3.756   3.804 -1.0451 -2.3689  1.8261
 4477TIP3   OH213352   8.528   8.057   4.313 -0.0091  0.1340  0.6322
 4477TIP3    H113353   8.492   8.005   4.242  0.8372 -0.5931  0.7226
 4477TIP3    H213354   8.623   8.052   4.301  0.1194  0.6474  1.3552
 4478TIP3   OH213355   1.675   0.852   5.758  0.6576 -0.3687 -0.4814
 4478TIP3    H113356   1.758   0.858   5.806  0.5500 -1.3094 -0.1597
 4478TIP3    H213357   1.656   0.758   5.756 -0.9524 -0.0950  0.4112
 4479TIP3   OH213358   0.712   1.899   5.522  0.4897 -0.2411 -0.8437
 4479TIP3    H113359   0.617   1.905   5.524  0.4695 -0.6587 -0.2038
 4479TIP3    H213360   0.736   1.920   5.432 -0.1778  0.2562 -0.9109
 4480TIP3   OH213361   8.057   8.105   1.748 -0.2472 -0.8670 -0.0411
 4480TIP3    H113362   8.044   8.065   1.662  1.7250 -0.4692 -0.5726
 4480TIP3    H213363   8.151   8.095   1.765 -0.5001 -0.4023  1.8063
 4481TIP3   OH213364   4.249   5.280   0.969 -0.1434  0.0942 -0.3472
 4481TIP3    H113365   4.339   5.304   0.948 -0.3116  0.0326 -1.1505
 4481TIP3    H213366   4.255   5.236   1.054  0.7606 -1.0359 -0.9718
 4482TIP3   OH213367   6.161   5.696   2.853  0.6547  0.2676 -0.0278
 4482TIP3    H113368   6.086   5.699   2.912  0.8404 -0.7533  0.2831
 4482TIP3    H213369   6.170   5.786   2.821 -2.6058 -0.1209 -2.5264
 4483TIP3   OH213370   0.161   5.247   4.970  0.0433  0.4292  0.3978
 4483TIP3    H113371   0.069   5.272   4.980 -0.1033  0.5767 -1.1573
 4483TIP3    H213372   0.170   5.223   4.878  1.1460 -1.3555  0.9293
 4484TIP3   OH213373   4.367   7.202   0.062 -0.1832 -0.1096  0.6139
 4484TIP3    H113374   4.303   7.257   0.018 -0.2447  0.7754  1.7821
 4484TIP3    H213375   4.327   7.115   0.063 -0.1218 -0.1906 -1.1646
 4485TIP3   OH213376   6.499   5.047   2.529 -0.4178 -0.2107  0.5320
 4485TIP3    H113377   6.558   5.004   2.467  1.3719  0.9781  1.3380
 4485TIP3    H213378   6.494   4.987   2.604 -1.1537 -0.8221  0.0067
 4486TIP3   OH213379   1.920   0.356   4.830  0.0325 -0.1517 -0.6402
 4486TIP3    H113380   1.934   0.263   4.850  1.6746  0.4925  1.6449
 4486TIP3    H213381   1.838   0.358   4.782 -0.8355 -2.6681  0.5524
 4487TIP3   OH213382   3.006   1.710   1.739  0.2045 -0.1675  0.0500
 4487TIP3    H113383   2.939   1.776   1.758 -0.7533  0.3406 -4.1410
 4487TIP3    H213384   3.088   1.760   1.734 -0.3867  0.7007 -2.2803
 4488TIP3   OH213385   1.495   3.568   6.460  0.3158 -0.4741 -0.5353
 4488TIP3    H113386   1.483   3.476   6.438 -0.0821  0.1912 -3.5957
 4488TIP3    H213387   1.411   3.594   6.500  0.3080 -1.3159  0.0277
 4489TIP3   OH213388   0.109   7.006   1.772 -0.3167  0.7395  0.6141
 4489TIP3    H113389   0.051   7.064   1.725 -0.8021  0.1991  0.5360
 4489TIP3    H213390   0.133   7.054   1.852  0.3774  1.5860 -0.0841
 4490TIP3   OH213391   5.470   7.496   3.085 -0.4256  0.2237 -0.7140
 4490TIP3    H113392   5.512   7.557   3.024  0.0904 -1.7148 -2.3903
 4490TIP3    H213393   5.396   7.460   3.036 -0.2395 -1.0951 -0.0578
 4491TIP3   OH213394   0.973   2.183   1.363 -0.1715 -0.1470  0.0627
 4491TIP3    H113395   1.002   2.204   1.452 -1.3112 -1.1979  0.7247
 4491TIP3    H213396   0.990   2.089   1.355  0.4344  0.0454 -1.0560
 4492TIP3   OH213397   3.006   2.171   3.042  0.0083 -0.2829  0.0842
 4492TIP3    H113398   2.948   2.241   3.073 -0.8651  0.4665 -2.8473
 4492TIP3    H213399   2.950   2.094   3.036  0.0922 -0.3444  0.0917
 4493TIP3   OH213400   4.990   6.236   3.121 -0.4307 -0.0951  0.5311
 4493TIP3    H113401   4.974   6.173   3.050  3.8518  0.4280 -1.2107
 4493TIP3    H213402   4.963   6.320   3.085 -0.0326 -0.0777  0.2741
 4494TIP3   OH213403   3.064   5.494   2.122 -0.7591 -0.5354  0.0605
 4494TIP3    H113404   3.041   5.403   2.136 -1.0676 -0.3768  0.5945
 4494TIP3    H213405   3.096   5.497   2.031 -0.8712 -1.1424 -0.0004
 4495TIP3   OH213406   8.619   0.608   3.521 -0.3388 -0.0236  0.1614
 4495TIP3    H113407   8.608   0.695   3.483 -2.1034 -0.6459 -0.8889
 4495TIP3    H213408   8.617   0.549   3.446 -0.5610 -1.0583  0.9643
 4496TIP3   OH213409   4.932   5.929   4.682 -0.2755 -0.3356 -0.4260
 4496TIP3    H113410   4.988   5.914   4.605  0.4489  0.8201 -0.1364
 4496TIP3    H213411   4.851   5.966   4.645  0.5906  1.5229 -0.5452
 4497TIP3   OH213412   6.482  -0.017   1.775  0.5730 -0.1944 -0.3105
 4497TIP3    H113413   6.519   0.070   1.786 -0.4787  0.2144  0.0300
 4497TIP3    H213414   6.514  -0.046   1.689  2.5450 -0.3012  0.4205
 4498TIP3   OH213415   4.712   5.073   5.764 -0.0267  0.4961  0.0191
 4498TIP3    H113416   4.788   5.023   5.795 -0.3831  0.3161  0.6076
 4498TIP3    H213417   4.716   5.065   5.669  0.9466  0.8615  0.0097
 4499TIP3   OH213418   5.160   5.080   3.085  0.3461  0.0222 -0.0622
 4499TIP3    H113419   5.242   5.084   3.134 -0.0514 -0.3145  0.6594
 4499TIP3    H213420   5.112   5.159   3.110  1.1234  1.0882 -1.7715
 4500TIP3   OH213421   1.269   1.398   1.453  0.2400  0.2494 -0.6336
 4500TIP3    H113422   1.219   1.474   1.424 -0.0773 -0.5905 -2.3896
 4500TIP3    H213423   1.354   1.434   1.478 -0.5124  1.4082  0.4175
 4501TIP3   OH213424   1.134   7.375   5.874 -0.3725 -0.4602 -0.0712
 4501TIP3    H113425   1.049   7.419   5.877 -0.3395 -0.2213 -1.8552
 4501TIP3    H213426   1.168   7.393   5.787  1.2188 -1.1280  0.3711
 4502TIP3   OH213427   8.318   8.013   0.122 -0.1975  0.1460  0.4105
 4502TIP3    H113428   8.383   7.957   0.080 -1.0997  2.1530 -4.1596
 4502TIP3    H213429   8.364   8.052   0.196  2.8323 -0.7757 -0.8502
 4503TIP3   OH213430   3.866   1.287   6.194 -0.0595 -0.0134 -1.0320
 4503TIP3    H113431   3.843   1.377   6.215 -0.0044  0.0187 -1.1080
 4503TIP3    H213432   3.917   1.257   6.269 -0.7069 -0.2240 -0.6673
 4504TIP3   OH213433   5.908   4.559   1.036  0.0522 -0.0244  0.0421
 4504TIP3    H113434   5.888   4.640   1.082 -0.9469  0.3251 -0.9597
 4504TIP3    H213435   5.833   4.544   0.979  1.8639  0.4645 -2.7095
 4505TIP3   OH213436   2.393   0.008   3.255 -0.6015  0.1143 -0.6855
 4505TIP3    H113437   2.420   0.009   3.163 -0.7353 -1.0296 -0.7424
 4505TIP3    H213438   2.332   0.082   3.262 -1.3574 -0.3796 -1.7561
 4506TIP3   OH213439   0.933   5.182   3.799  0.3009  0.6073  0.2718
 4506TIP3    H113440   0.940   5.110   3.862 -1.0810  1.4355  1.4448
 4506TIP3    H213441   0.971   5.258   3.845 -0.0783  1.0703 -0.1671
 4507TIP3   OH213442   7.067   5.277   0.825  0.5473 -0.5496  0.0886
 4507TIP3    H113443   7.126   5.247   0.895  1.6351  1.8306  0.3256
 4507TIP3    H213444   7.034   5.197   0.785  1.2048 -2.0002  2.2441
 4508TIP3   OH213445   4.356   6.638   5.461 -0.1474  0.5358 -0.7156
 4508TIP3    H113446   4.430   6.615   5.404  0.6857  0.0879  0.5120
 4508TIP3    H213447   4.383   6.719   5.503 -0.6478  0.7222 -0.7557
 4509TIP3   OH213448   4.800  -0.015   5.607  0.1569  0.1080  0.0724
 4509TIP3    H113449   4.867   0.007   5.543  0.1517 -0.1902 -0.0347
 4509TIP3    H213450   4.814   0.047   5.679  0.1346  0.4664 -0.2338
 4510TIP3   OH213451   0.798   0.714   4.137 -0.1657 -0.3174 -0.0408
 4510TIP3    H113452   0.780   0.807   4.120  0.3694 -0.5270 -1.9865
 4510TIP3    H213453   0.730   0.667   4.088 -0.4742 -0.9806  0.9853
 4511TIP3   OH213454   6.781   7.454   5.433  0.5550  0.4281 -0.1305
 4511TIP3    H113455   6.708   7.402   5.401  0.3566  0.4524  0.2725
 4511TIP3    H213456   6.771   7.540   5.392  0.0341  0.6074  0.3681
 4512TIP3   OH213457   5.964   2.197   2.359  0.2314  0.8154 -0.7675
 4512TIP3    H113458   6.040   2.217   2.305  0.0638 -0.5114 -1.5536
 4512TIP3    H213459   5.990   2.120   2.410 -0.6214  0.2009 -1.2141
 4513TIP3   OH213460   1.897   7.234   3.631  0.5117  0.3042 -0.2976
 4513TIP3    H113461   1.979   7.249   3.585  0.6387  1.0181  0.1387
 4513TIP3    H213462   1.904   7.146   3.666  1.1112  0.3762 -0.2376
 4514TIP3   OH213463   5.736   1.146   0.193  0.2683  0.3711  1.0193
 4514TIP3    H113464   5.807   1.189   0.145 -0.1594  0.3089  0.3169
 4514TIP3    H213465   5.761   1.054   0.194  0.5200  0.4411  1.3491
 4515TIP3   OH213466   5.557   1.274   5.422  0.1145  0.6160  0.7372
 4515TIP3    H113467   5.508   1.262   5.340  0.4147 -0.2971  0.6788
 4515TIP3    H213468   5.627   1.209   5.417 -0.1340  0.2464  1.9328
 4516TIP3   OH213469   3.494   3.836   2.354  0.0227 -0.5182 -0.6811
 4516TIP3    H113470   3.400   3.818   2.354 -0.2818 -0.1448  4.2172
 4516TIP3    H213471   3.534   3.750   2.342 -0.9342 -0.9459 -0.9251
 4517TIP3   OH213472   1.865   4.275   4.765 -0.3209  0.0542  0.4384
 4517TIP3    H113473   1.775   4.260   4.737 -0.6616 -0.6027  1.8206
 4517TIP3    H213474   1.895   4.190   4.798  1.4030 -0.1857 -1.5405
 4518TIP3   OH213475   8.660   0.639   2.463 -0.5121 -0.3415 -0.1229
 4518TIP3    H113476   8.608   0.571   2.505  0.9172 -0.1221  2.1548
 4518TIP3    H213477   8.724   0.665   2.529  0.2778  1.8147 -1.6214
 4519TIP3   OH213478   6.838   3.139   6.279 -0.4217  0.0220 -0.0608
 4519TIP3    H113479   6.823   3.055   6.323  1.9275 -1.4845 -1.8556
 4519TIP3    H213480   6.756   3.159   6.235 -0.3187 -2.7649 -1.7323
 4520TIP3   OH213481   3.407   6.607   6.041  0.5048  0.4329  0.2048
 4520TIP3    H113482   3.462   6.624   6.117  0.8928 -0.2401  0.0893
 4520TIP3    H213483   3.382   6.515   6.050 -1.6457  1.0179  0.9130
 4521TIP3   OH213484   8.527   7.095   5.492 -0.3177  0.0367  0.3376
 4521TIP3    H113485   8.437   7.086   5.525 -0.2712 -0.3620  0.3552
 4521TIP3    H213486   8.535   7.029   5.424  0.1294 -0.2862  0.6981
 4522TIP3   OH213487   8.564   5.314   6.732 -0.3255 -0.2686 -0.0694
 4522TIP3    H113488   8.572   5.325   6.637  0.8965 -0.4684 -0.0068
 4522TIP3    H213489   8.637   5.257   6.755  1.4090  2.3433  1.4235
 4523TIP3   OH213490   1.252   4.589   3.061 -0.3589  0.3046  0.7515
 4523TIP3    H113491   1.287   4.611   3.147 -1.4652  1.0636  1.0257
 4523TIP3    H213492   1.157   4.587   3.073 -0.4657 -1.4925 -0.0214
 4524TIP3   OH213493   7.379   5.415   4.634 -0.1711 -0.0030 -0.1430
 4524TIP3    H113494   7.323   5.341   4.609 -0.8401  0.7730 -1.0158
 4524TIP3    H213495   7.370   5.422   4.729 -2.2062  0.6003 -0.3391
 4525TIP3   OH213496   6.690   1.695   2.040  0.3537 -0.7653 -0.1042
 4525TIP3    H113497   6.727   1.696   1.951  0.7791 -1.2399  0.0629
 4525TIP3    H213498   6.758   1.736   2.094 -0.1880  0.1560 -0.0959
 4526TIP3   OH213499   2.515   3.736   3.824  0.6977 -0.2965  0.0750
 4526TIP3    H113500   2.575   3.747   3.897 -0.1424  1.3369  0.5662
 4526TIP3    H213501   2.551   3.791   3.755 -0.6034  1.3743  0.6539
 4527TIP3   OH213502   6.183   3.130   1.576  0.3526 -0.1854  0.0349
 4527TIP3    H113503   6.148   3.206   1.623 -1.5243  0.2030 -1.8162
 4527TIP3    H213504   6.199   3.162   1.487  3.2545 -1.0223  0.1515
 4528TIP3   OH213505   8.242   1.204   2.788  0.4208  0.4542  0.2535
 4528TIP3    H113506   8.175   1.223   2.853  0.0100 -0.5798  0.1505
 4528TIP3    H213507   8.196   1.157   2.719  1.0645  0.5786 -0.2758
 4529TIP3   OH213508   5.127   2.561   0.159  0.2483 -0.0727  0.3444
 4529TIP3    H113509   5.207   2.597   0.198  0.5727 -0.7596  0.3316
 4529TIP3    H213510   5.056   2.598   0.212  0.5639  0.6133  0.3008
 4530TIP3   OH213511   1.371   1.761   3.115 -0.9880 -0.0572  0.1819
 4530TIP3    H113512   1.446   1.746   3.172 -0.8155 -1.6992 -0.4007
 4530TIP3    H213513   1.354   1.854   3.122  2.2674  0.7894 -1.0288
 4531TIP3   OH213514   4.009   3.552   2.736  0.9205  0.0079  0.0949
 4531TIP3    H113515   4.075   3.487   2.761  1.2355  1.0283  2.1264
 4531TIP3    H213516   3.973   3.582   2.819  0.2072  1.8490 -0.8291
 4532TIP3   OH213517   8.490   3.948   4.128 -0.4077  0.2575  0.6181
 4532TIP3    H113518   8.458   4.016   4.186 -1.8685  0.4502 -0.3609
 4532TIP3    H213519   8.435   3.872   4.147  2.0488 -1.1983  2.6614
 4533TIP3   OH213520   2.318   7.750   2.255  0.5283  0.2783  0.3259
 4533TIP3    H113521   2.258   7.684   2.220  0.9287 -1.1207  2.1292
 4533TIP3    H213522   2.342   7.804   2.179  0.1347 -1.6096 -1.2020
 4534TIP3   OH213523   5.445   3.920   3.923 -0.4508  0.0094  0.6054
 4534TIP3    H113524   5.419   3.829   3.907  2.5601 -0.7815 -0.5952
 4534TIP3    H213525   5.485   3.918   4.010 -1.1876  0.4284  0.9659
 4535TIP3   OH213526   5.344   4.102   0.293  0.0959 -0.0866  0.1013
 4535TIP3    H113527   5.350   4.104   0.197 -2.3376 -1.9292 -0.1868
 4535TIP3    H213528   5.338   4.194   0.318  0.5211  0.4237 -1.5356
 4536TIP3   OH213529   3.299   7.499   3.045 -0.1963 -0.4622  0.2797
 4536TIP3    H113530   3.253   7.564   3.099  0.6627 -0.6532  1.2748
 4536TIP3    H213531   3.292   7.418   3.096  0.5350 -0.6709  0.0457
 4537TIP3   OH213532   4.537   0.178   5.251 -0.1004  0.3227 -0.0559
 4537TIP3    H113533   4.623   0.180   5.208  0.6894  0.7959  1.4798
 4537TIP3    H213534   4.533   0.091   5.291 -0.8676 -0.1456 -1.1128
 4538TIP3   OH213535   8.255   3.393   4.265  0.1154 -0.5456  0.1000
 4538TIP3    H113536   8.172   3.380   4.311 -0.0522  1.6143  0.4845
 4538TIP3    H213537   8.229   3.408   4.174  0.2108 -1.3553 -0.0695
 4539TIP3   OH213538   6.860   3.604   0.929 -0.6281  0.4540  0.0944
 4539TIP3    H113539   6.793   3.536   0.934  0.2561 -0.6504 -1.8549
 4539TIP3    H213540   6.937   3.565   0.972  0.1183 -0.1706 -1.6972
 4540TIP3   OH213541   3.676   2.510   5.020  0.0201  0.2906  0.5361
 4540TIP3    H113542   3.748   2.572   5.024  2.4020 -2.2648  0.4071
 4540TIP3    H213543   3.659   2.499   4.926 -1.4078  1.7164  0.5820
 4541TIP3   OH213544   2.478   1.867   3.646  0.3184  0.0224 -0.2791
 4541TIP3    H113545   2.467   1.948   3.595  0.0584 -0.7554 -1.5084
 4541TIP3    H213546   2.572   1.855   3.651  0.3443  0.0960 -0.5825
 4542TIP3   OH213547   0.832   2.366   3.317  0.3278 -0.1949  0.2561
 4542TIP3    H113548   0.813   2.323   3.400  0.9367  1.5157  1.3388
 4542TIP3    H213549   0.908   2.319   3.283  0.4341 -0.5560  0.9638
 4543TIP3   OH213550   0.975   4.455   2.561  0.7893 -0.2747 -0.0060
 4543TIP3    H113551   0.985   4.522   2.629 -0.5681 -0.6915  0.6441
 4543TIP3    H213552   0.979   4.504   2.479 -0.9968  0.7728  0.4726
 4544TIP3   OH213553   1.035   0.641   2.462 -0.1443  0.1677  0.0479
 4544TIP3    H113554   1.064   0.594   2.539 -0.8390 -1.0940 -0.4357
 4544TIP3    H213555   0.955   0.685   2.490 -0.9696 -1.1219 -0.1994
 4545TIP3   OH213556   0.792   6.036   1.951  0.2376 -0.7188  0.0147
 4545TIP3    H113557   0.779   6.114   2.004 -0.9335 -0.9725  0.1407
 4545TIP3    H213558   0.867   6.056   1.895  0.0540  0.4244  0.1651
 4546TIP3   OH213559   6.797   1.766   5.513 -0.0928 -0.3249  0.5951
 4546TIP3    H113560   6.791   1.699   5.445  0.8073 -1.7550  1.8510
 4546TIP3    H213561   6.891   1.781   5.523 -0.2835  1.1761  0.3253
 4547TIP3   OH213562   1.850   6.698   2.903 -0.0317  0.5183 -0.2889
 4547TIP3    H113563   1.919   6.640   2.934 -1.1718 -1.4132 -1.1462
 4547TIP3    H213564   1.878   6.723   2.815 -1.2534 -1.9644 -1.5061
 4548TIP3   OH213565   1.688   1.735   6.170 -0.0309  0.0521  0.5017
 4548TIP3    H113566   1.662   1.669   6.235  0.6732  1.6278  2.4953
 4548TIP3    H213567   1.607   1.784   6.152 -0.4221 -0.9271 -0.5349
 4549TIP3   OH213568   2.227   3.523   3.402 -0.6640 -0.8135 -0.4655
 4549TIP3    H113569   2.294   3.493   3.463  0.1489  1.9997  0.1821
 4549TIP3    H213570   2.276   3.554   3.326 -1.1160  1.5186  0.1189
 4550TIP3   OH213571   3.297   5.795   5.870 -0.4491 -0.3004  0.0893
 4550TIP3    H113572   3.270   5.825   5.783 -1.4873 -3.2560 -0.7232
 4550TIP3    H213573   3.238   5.840   5.930 -0.9868  0.3587 -0.9036
 4551TIP3   OH213574   5.110   8.008   5.344  0.0777  0.4667  0.0766
 4551TIP3    H113575   5.071   8.086   5.304 -0.3413  0.6043  0.7327
 4551TIP3    H213576   5.200   8.034   5.365  0.3639  0.3250 -0.9533
 4552TIP3   OH213577   5.194   5.132   2.438  0.4774 -0.0069  0.1989
 4552TIP3    H113578   5.126   5.065   2.444  0.1184  0.3059 -0.3154
 4552TIP3    H213579   5.271   5.085   2.404  0.8323 -0.5702  1.6820
 4553TIP3   OH213580   4.445   3.817   0.900 -0.0719  0.6959  0.1641
 4553TIP3    H113581   4.414   3.788   0.814 -1.0022 -0.7579  0.9469
 4553TIP3    H213582   4.365   3.834   0.950  0.4355  0.3872  1.1070
 4554TIP3   OH213583   1.091   0.170   4.383  0.6796 -0.1187 -0.3878
 4554TIP3    H113584   1.186   0.162   4.378  0.7366  1.0499 -1.4367
 4554TIP3    H213585   1.058   0.102   4.324  0.8945  0.2820 -0.9729
 4555TIP3   OH213586   4.229   7.634   3.526  0.4589  0.4159  0.5059
 4555TIP3    H113587   4.152   7.582   3.502 -0.7076  1.0003  2.6906
 4555TIP3    H213588   4.254   7.600   3.612  0.6269  2.3913  1.2867
 4556TIP3   OH213589   4.766   4.453   1.506 -0.4419 -0.0559 -0.5833
 4556TIP3    H113590   4.803   4.374   1.466 -0.4358 -0.4459  0.1719
 4556TIP3    H213591   4.671   4.437   1.507 -0.5247  0.3374 -1.2328
 4557TIP3   OH213592   0.429   5.488   5.528  0.2356  0.6469  0.7100
 4557TIP3    H113593   0.444   5.514   5.437  1.7802 -1.7946  0.1831
 4557TIP3    H213594   0.516   5.493   5.568 -0.2446  0.6302  1.7699
 4558TIP3   OH213595   2.300   6.711   1.599 -0.5111 -0.2567 -0.5383
 4558TIP3    H113596   2.324   6.629   1.557  0.6059  0.1781 -0.7783
 4558TIP3    H213597   2.282   6.688   1.690  0.0295 -0.7326 -0.5472
 4559TIP3   OH213598   1.115   5.061   0.943  0.0304 -0.1128  0.1016
 4559TIP3    H113599   1.118   5.046   1.037  0.2274 -0.2846  0.0712
 4559TIP3    H213600   1.049   5.128   0.930  0.5619  0.4871  0.4361
 4560TIP3   OH213601   7.528   1.367   2.474  0.0991 -0.5763 -0.3641
 4560TIP3    H113602   7.520   1.426   2.549 -1.4225 -0.4829 -0.5664
 4560TIP3    H213603   7.439   1.335   2.458  0.4451 -0.8820 -1.9019
 4561TIP3   OH213604   7.857   5.998   1.268  0.7324  0.3186 -0.0089
 4561TIP3    H113605   7.780   6.006   1.325  2.9430 -1.6503  3.7296
 4561TIP3    H213606   7.858   6.078   1.216 -3.5048  0.6084  0.0245
 4562TIP3   OH213607   5.150   4.091   4.192 -0.3064 -0.3620 -0.5749
 4562TIP3    H113608   5.156   4.178   4.153 -0.8952  0.9790  2.0670
 4562TIP3    H213609   5.143   4.032   4.118  1.1594  1.7124 -2.5284
 4563TIP3   OH213610   1.921   1.010   1.314 -0.0182 -0.2858  0.6444
 4563TIP3    H113611   1.936   0.921   1.344  0.1649 -1.1242 -1.7388
 4563TIP3    H213612   1.997   1.031   1.260 -0.6246  0.8416  0.1801
 4564TIP3   OH213613   1.426   0.392   2.624  0.4146 -0.3859  0.2942
 4564TIP3    H113614   1.461   0.394   2.714 -0.2241  1.1013  0.5385
 4564TIP3    H213615   1.478   0.325   2.580  0.7222 -1.1748  1.7806
 4565TIP3   OH213616   5.322   1.420   4.511 -0.4370 -0.0050 -0.1659
 4565TIP3    H113617   5.285   1.340   4.548 -1.1359  0.4863  0.2225
 4565TIP3    H213618   5.384   1.389   4.444 -1.0482 -0.8637 -0.3555
 4566TIP3   OH213619   7.807   5.151   6.726  0.2060  0.5674 -0.1225
 4566TIP3    H113620   7.752   5.128   6.801  1.0961 -3.1212 -0.4031
 4566TIP3    H213621   7.747   5.150   6.651 -0.1371  1.2198  0.1355
 4567TIP3   OH213622   8.434   1.031   5.657  0.2599  0.6465 -0.7685
 4567TIP3    H113623   8.506   1.028   5.594  1.0678  0.0448  0.1590
 4567TIP3    H213624   8.462   1.096   5.722  0.5551 -0.4672  0.2578
 4568TIP3   OH213625   8.315   5.178   0.837 -0.3679  0.2199  0.3311
 4568TIP3    H113626   8.255   5.159   0.910 -0.8841 -1.8014 -0.5592
 4568TIP3    H213627   8.265   5.236   0.780 -0.1116  1.4867  1.3547
 4569TIP3   OH213628   6.928   3.314   6.622  0.5492  0.2242 -0.3609
 4569TIP3    H113629   6.897   3.232   6.663  2.8116 -0.3862  0.2513
 4569TIP3    H213630   6.848   3.365   6.610 -0.6010 -0.7372  2.2453
 4570TIP3   OH213631   6.426   5.013   3.224 -0.8820  0.4316  0.5058
 4570TIP3    H113632   6.416   4.949   3.154 -0.8565  0.9723  0.0000
 4570TIP3    H213633   6.462   5.091   3.181 -3.2345  1.6605  0.6173
 4571TIP3   OH213634   7.883   4.811   1.261 -0.0055  0.4702 -0.5933
 4571TIP3    H113635   7.921   4.745   1.203 -2.3075 -2.2679  0.7869
 4571TIP3    H213636   7.833   4.868   1.202  0.0348 -0.4842 -1.5816
 4572TIP3   OH213637   8.440   7.396   0.768 -0.2311  0.0553 -0.2221
 4572TIP3    H113638   8.392   7.417   0.848  1.1801 -0.6888  0.8642
 4572TIP3    H213639   8.439   7.477   0.717 -2.6635  0.0489 -0.3136
 4573TIP3   OH213640   3.064   4.548   5.123  0.6334 -0.2345 -0.0808
 4573TIP3    H113641   3.085   4.619   5.061  0.5068 -0.6481 -0.6045
 4573TIP3    H213642   2.969   4.541   5.120  0.3639  1.4442  2.0764
 4574TIP3   OH213643   6.324   5.177   4.757 -0.1541 -0.0480  0.3834
 4574TIP3    H113644   6.260   5.246   4.740 -0.6922 -0.8165 -0.8419
 4574TIP3    H213645   6.401   5.202   4.706 -0.9554 -1.1826 -1.4687
 4575TIP3   OH213646   0.688   0.356   6.950 -0.3658 -0.1705 -0.4130
 4575TIP3    H113647   0.683   0.441   6.994  4.0835  0.0662  0.0625
 4575TIP3    H213648   0.640   0.369   6.868 -1.2541  2.2144  0.3955
 4576TIP3   OH213649   1.325   3.604   4.233 -0.0919 -0.4211  0.2040
 4576TIP3    H113650   1.273   3.658   4.292  2.1706  0.8931  1.1097
 4576TIP3    H213651   1.375   3.666   4.180  2.7187 -1.4735  1.3798
 4577TIP3   OH213652   8.333   4.649   4.038  0.5369  0.6544 -0.1579
 4577TIP3    H113653   8.394   4.621   3.969  1.3642  2.0418 -0.0356
 4577TIP3    H213654   8.266   4.698   3.991 -0.6631 -1.0538 -0.3184
 4578TIP3   OH213655   2.609   1.563   1.392  0.7358 -0.6140  0.3320
 4578TIP3    H113656   2.681   1.532   1.447  1.1307  2.2777  1.6045
 4578TIP3    H213657   2.542   1.591   1.453  0.1415  0.3476 -0.7117
 4579TIP3   OH213658   0.030   5.759   5.222 -0.0690  0.3415 -0.2449
 4579TIP3    H113659   0.104   5.772   5.282 -0.5560  2.0304  0.0251
 4579TIP3    H213660  -0.011   5.845   5.215 -2.5078 -0.7079  0.2485
 4580TIP3   OH213661   8.398   0.829   3.567  0.5534  0.1990  0.6670
 4580TIP3    H113662   8.371   0.883   3.493  0.2802  0.1061  0.6969
 4580TIP3    H213663   8.327   0.838   3.630  0.5903 -0.0523  0.7459
 4581TIP3   OH213664   3.470   2.186   6.879  0.0555 -0.5771 -0.9588
 4581TIP3    H113665   3.413   2.233   6.940  1.0951 -0.1429 -0.2967
 4581TIP3    H213666   3.421   2.106   6.856  1.0182 -2.6558  3.2774
 4582TIP3   OH213667   4.993   7.609   5.315  0.1534 -0.1959  0.5633
 4582TIP3    H113668   4.996   7.578   5.406 -0.5183  0.3851  0.7909
 4582TIP3    H213669   4.951   7.695   5.320  0.4470  0.0044 -0.2588
 4583TIP3   OH213670   4.026   3.723   5.130 -0.5278  0.1452 -0.3488
 4583TIP3    H113671   4.066   3.779   5.197 -0.3667  1.0899 -1.2183
 4583TIP3    H213672   3.950   3.684   5.174  0.3648 -0.3488  0.8056
 4584TIP3   OH213673   6.383   0.762   6.269 -0.3291 -0.7039 -0.3934
 4584TIP3    H113674   6.298   0.761   6.313 -1.3621 -1.1534 -2.3125
 4584TIP3    H213675   6.428   0.839   6.306 -2.2400  0.5604 -0.5485
 4585TIP3   OH213676   1.161   5.385   0.141 -0.2402  0.2464 -0.7185
 4585TIP3    H113677   1.145   5.291   0.145  0.0160  0.2069 -0.6269
 4585TIP3    H213678   1.237   5.400   0.198 -0.9273  0.6581  0.1190
 4586TIP3   OH213679   0.316   3.392   6.203  0.0631 -0.1178  0.4504
 4586TIP3    H113680   0.308   3.481   6.169 -0.0949 -0.5803 -0.7576
 4586TIP3    H213681   0.226   3.368   6.227  0.2234  0.3382  1.6004
 4587TIP3   OH213682   6.971   1.767   1.826 -0.3986  0.0148 -0.1583
 4587TIP3    H113683   6.897   1.822   1.800 -1.7035 -1.4927  0.2353
 4587TIP3    H213684   6.999   1.802   1.910 -1.1136  0.1968  0.0125
 4588TIP3   OH213685   3.637   3.595   2.322  0.7868  0.1423  0.2699
 4588TIP3    H113686   3.686   3.564   2.246  2.0469  1.0466  0.6789
 4588TIP3    H213687   3.694   3.577   2.397  1.6504  3.2995  0.5444
 4589TIP3   OH213688   2.793   4.489   3.843  0.0768  0.0467 -0.2094
 4589TIP3    H113689   2.700   4.473   3.826  0.1944  1.1774 -2.2055
 4589TIP3    H213690   2.798   4.498   3.939 -2.1164  1.2791 -0.1349
 4590TIP3   OH213691   1.527   7.469   3.732 -0.2769  0.2719  0.2959
 4590TIP3    H113692   1.611   7.507   3.709  0.2107 -0.9057  0.0857
 4590TIP3    H213693   1.508   7.408   3.661 -0.6828 -0.4294  0.9944
 4591TIP3   OH213694   1.052   7.587   4.493  0.1522  0.3564 -0.3550
 4591TIP3    H113695   1.068   7.624   4.407 -1.8258 -2.0635 -1.9000
 4591TIP3    H213696   1.056   7.492   4.480  0.3216 -0.1036  2.3498
 4592TIP3   OH213697   4.644   3.926   2.220 -0.3868 -0.0241 -0.2310
 4592TIP3    H113698   4.693   4.002   2.189  0.2197 -0.4534 -0.3208
 4592TIP3    H213699   4.554   3.942   2.190 -0.8975  1.9752  2.0516
 4593TIP3   OH213700   0.407   5.539   3.477 -0.1183  0.2828 -0.3667
 4593TIP3    H113701   0.457   5.618   3.457  0.1029  0.3520  0.4367
 4593TIP3    H213702   0.340   5.535   3.408 -0.4201  1.4188 -0.1577
 4594TIP3   OH213703   5.606   4.077   4.506  0.0592 -0.2694  0.3302
 4594TIP3    H113704   5.519   4.036   4.508 -0.3435  0.6062  0.9974
 4594TIP3    H213705   5.666   4.002   4.504 -0.6745 -0.9047  1.0136
 4595TIP3   OH213706   7.121   1.656   1.464  0.3696 -0.3467  0.2307
 4595TIP3    H113707   7.123   1.572   1.510 -0.7643  0.1597  1.2719
 4595TIP3    H213708   7.030   1.666   1.435  0.7884 -0.0716 -1.0620
 4596TIP3   OH213709   1.329   4.673   5.131 -0.6062 -0.0915 -0.4754
 4596TIP3    H113710   1.255   4.734   5.138  0.7968  1.5307  2.4482
 4596TIP3    H213711   1.315   4.610   5.202  1.3125  0.9864  0.9587
 4597TIP3   OH213712   8.010   5.750   0.677 -0.7354 -0.1569  0.2308
 4597TIP3    H113713   7.935   5.786   0.725  0.4118  0.2699  1.7859
 4597TIP3    H213714   8.087   5.792   0.718  0.4980 -2.3837  0.3306
 4598TIP3   OH213715   8.350   3.518   1.116 -0.2947  0.1433 -0.2774
 4598TIP3    H113716   8.360   3.424   1.100  0.5697 -0.2604  2.2033
 4598TIP3    H213717   8.420   3.539   1.177 -0.7740  2.3224 -0.4247
 4599TIP3   OH213718   1.512   0.401   2.885  0.0860 -0.1492 -0.2449
 4599TIP3    H113719   1.453   0.423   2.957  1.1692 -1.2902  1.0503
 4599TIP3    H213720   1.583   0.352   2.926  2.1525  1.4636 -1.6816
 4600TIP3   OH213721   5.782   7.622   6.191  0.3319 -0.5487  0.1819
 4600TIP3    H113722   5.825   7.637   6.276  1.0119 -1.7473  0.0817
 4600TIP3    H213723   5.820   7.688   6.133  1.8971 -1.3931  0.1715
 4601TIP3   OH213724   3.478   4.614   3.102 -0.5835  0.5126 -0.1682
 4601TIP3    H113725   3.415   4.556   3.143  0.3547 -0.1589  0.3615
 4601TIP3    H213726   3.513   4.564   3.028 -0.2323  0.6348 -0.0884
 4602TIP3   OH213727   0.014   8.158   5.937  0.4880 -0.1331  1.1401
 4602TIP3    H113728   0.062   8.196   5.864 -0.4002 -0.2763  0.4704
 4602TIP3    H213729   0.057   8.193   6.015  1.3692  0.1154  0.5527
 4603TIP3   OH213730   4.260   6.235   4.223 -0.2405 -0.0264 -0.0130
 4603TIP3    H113731   4.275   6.203   4.312 -2.2155 -1.8946 -0.2546
 4603TIP3    H213732   4.178   6.194   4.196  0.4839  0.1337 -2.8553
 4604TIP3   OH213733   1.821   3.383   4.126 -0.7956 -0.1932 -0.0332
 4604TIP3    H113734   1.752   3.325   4.093  0.2349 -1.1845 -0.5116
 4604TIP3    H213735   1.893   3.324   4.150 -0.2517  0.7884  0.8274
 4605TIP3   OH213736   7.660   7.336   6.674 -0.2896 -0.4936 -0.0347
 4605TIP3    H113737   7.635   7.395   6.745  1.8524  0.5267 -0.0641
 4605TIP3    H213738   7.582   7.333   6.618 -1.0882  0.8385  0.9277
 4606TIP3   OH213739   4.645   7.623   1.482 -0.3826 -0.1015  0.2901
 4606TIP3    H113740   4.551   7.619   1.469 -0.2948  2.0217 -1.7587
 4606TIP3    H213741   4.682   7.572   1.410  0.0516 -0.7990  0.9934
 4607TIP3   OH213742   0.235   6.319   3.853 -0.1107 -0.5813  0.0058
 4607TIP3    H113743   0.322   6.354   3.839  0.2157  0.4898  3.6834
 4607TIP3    H213744   0.249   6.232   3.890 -0.6329 -0.6850 -0.0224
 4608TIP3   OH213745   5.300   6.969   1.960 -0.2725  0.1828  0.3332
 4608TIP3    H113746   5.248   6.890   1.947 -0.0381 -0.1501  1.3661
 4608TIP3    H213747   5.348   6.954   2.041  0.3439  1.0831  0.1566
 4609TIP3   OH213748   5.069   5.226   1.230  0.1979 -0.0633 -0.1303
 4609TIP3    H113749   5.084   5.140   1.193  3.5053 -0.2913  1.4208
 4609TIP3    H213750   5.094   5.287   1.161  2.0236 -0.4390  0.1627
 4610TIP3   OH213751   1.290   6.159   1.933 -0.4425  0.1603 -0.2251
 4610TIP3    H113752   1.242   6.227   1.981  0.0482  0.0421  0.4580
 4610TIP3    H213753   1.378   6.196   1.922 -0.9371  0.8058 -2.3759
 4611TIP3   OH213754   7.463   7.283   1.406  0.0493  0.1545 -0.1656
 4611TIP3    H113755   7.470   7.258   1.314 -0.5240 -0.4219 -0.0583
 4611TIP3    H213756   7.501   7.371   1.409  0.2788  0.0927 -0.9091
 4612TIP3   OH213757   6.173   5.266   6.887 -0.5139 -0.4258 -0.5766
 4612TIP3    H113758   6.174   5.321   6.809 -0.8932  0.7414  0.2203
 4612TIP3    H213759   6.230   5.311   6.949 -2.2432  0.0659  0.7341
 4613TIP3   OH213760   7.594   6.742   2.378  0.6415  0.5282  0.0077
 4613TIP3    H113761   7.527   6.805   2.405  0.7257  0.9131 -0.6565
 4613TIP3    H213762   7.573   6.662   2.426 -0.3851  0.6042 -0.3003
 4614TIP3   OH213763   5.855   7.368   2.447  0.0873  0.4011  0.1455
 4614TIP3    H113764   5.915   7.441   2.431  0.6377  0.1435  0.9428
 4614TIP3    H213765   5.879   7.302   2.382  1.2016  0.0002  0.9330
 4615TIP3   OH213766   2.904   1.035   4.297 -0.3618  0.6304  0.0582
 4615TIP3    H113767   2.886   1.081   4.215  0.3747  2.2693  0.7640
 4615TIP3    H213768   2.999   1.039   4.306 -0.4365  0.5848  1.0363
 4616TIP3   OH213769   7.012   4.559   1.483  0.3014 -0.0763 -0.4313
 4616TIP3    H113770   7.086   4.499   1.481 -0.4216 -0.9887 -2.4365
 4616TIP3    H213771   6.977   4.556   1.394 -0.9490  1.8439 -0.0499
 4617TIP3   OH213772   0.614   5.966   3.140  0.1572 -0.0515  0.8301
 4617TIP3    H113773   0.643   6.017   3.065 -2.3808  1.6570  0.9168
 4617TIP3    H213774   0.603   5.877   3.105 -1.3926  0.7860 -1.0000
 4618TIP3   OH213775   5.936   6.740   5.979 -0.1807 -0.6063  0.1580
 4618TIP3    H113776   5.850   6.723   6.019 -0.1564  0.8939  0.9162
 4618TIP3    H213777   5.986   6.661   5.995 -0.5517 -0.4893  2.1603
 4619TIP3   OH213778   3.949   6.934   2.744 -0.5366  0.0561  0.4947
 4619TIP3    H113779   4.025   6.982   2.711  0.0321  0.3636  2.1598
 4619TIP3    H213780   3.913   6.891   2.667 -0.3489  2.1701 -0.8596
 4620TIP3   OH213781   3.982   2.217   2.054  0.7346  0.3306 -0.0794
 4620TIP3    H113782   3.951   2.157   2.122  1.7041 -0.2769 -0.1464
 4620TIP3    H213783   3.953   2.179   1.972 -0.1596  0.8955 -0.0387
 4621TIP3   OH213784   2.027   5.480   2.852  0.3646  0.0960 -0.0682
 4621TIP3    H113785   2.006   5.557   2.905  0.6635 -0.4405  0.8522
 4621TIP3    H213786   1.975   5.410   2.890  1.6280 -0.6076  0.4100
 4622TIP3   OH213787   4.447   1.868   5.615 -0.1080  0.4832  0.0890
 4622TIP3    H113788   4.408   1.884   5.701  0.9024  0.0307  0.6528
 4622TIP3    H213789   4.468   1.954   5.581 -3.0200  0.8987 -0.9696
 4623TIP3   OH213790   1.583   2.421   6.847  0.0376 -0.2155  0.6391
 4623TIP3    H113791   1.558   2.330   6.829  1.5413 -0.3225 -1.2255
 4623TIP3    H213792   1.503   2.471   6.832 -0.4231 -1.0682  0.1655
 4624TIP3   OH213793   7.302   4.185   5.557  0.0349 -0.1552 -0.1191
 4624TIP3    H113794   7.271   4.232   5.480 -0.4347 -0.8804 -0.3718
 4624TIP3    H213795   7.381   4.140   5.527  1.1820  1.4023  0.4315
 4625TIP3   OH213796   6.497   4.625   5.270 -0.1583 -0.4956 -0.1530
 4625TIP3    H113797   6.451   4.708   5.284 -0.8761 -0.7431 -0.9285
 4625TIP3    H213798   6.462   4.566   5.338  1.2097  0.1322  1.1597
 4626TIP3   OH213799   7.704   2.143   1.769  0.1654 -0.0449 -0.8022
 4626TIP3    H113800   7.687   2.212   1.705 -1.0293 -0.1992 -0.6726
 4626TIP3    H213801   7.660   2.066   1.734  1.5764 -0.7876 -0.9933
 4627TIP3   OH213802   3.879   1.632   2.165  0.0610 -0.4626  0.0851
 4627TIP3    H113803   3.889   1.727   2.164 -1.5108 -0.2773 -0.5540
 4627TIP3    H213804   3.967   1.598   2.148  1.1228  0.8026  2.4823
 4628TIP3   OH213805   6.722   3.629   0.537 -1.0884 -0.6943  0.6267
 4628TIP3    H113806   6.683   3.613   0.623 -0.8430 -0.6237  0.7520
 4628TIP3    H213807   6.742   3.542   0.504  0.8149 -0.6541  1.5708
 4629TIP3   OH213808   4.693   5.084   6.443  0.0332 -0.3241  0.2831
 4629TIP3    H113809   4.773   5.045   6.478 -0.0077 -0.9852 -0.3235
 4629TIP3    H213810   4.701   5.074   6.348  0.0691  1.2982  0.0936
 4630TIP3   OH213811   2.389   0.302   0.601 -0.3894  0.0851  0.2678
 4630TIP3    H113812   2.309   0.354   0.593  0.8804  2.0194 -0.2287
 4630TIP3    H213813   2.396   0.284   0.695 -1.5036 -0.3441  0.2966
 4631TIP3   OH213814   0.211   7.006   3.601  0.0525 -0.1465 -0.5138
 4631TIP3    H113815   0.200   6.934   3.664 -0.9111 -0.1452 -0.6679
 4631TIP3    H213816   0.179   7.083   3.647 -1.3934 -0.2780 -1.2580
 4632TIP3   OH213817   0.692   3.077   6.836 -0.1479  0.3665 -0.2759
 4632TIP3    H113818   0.734   3.064   6.921  1.1134 -0.1915 -0.9561
 4632TIP3    H213819   0.704   3.170   6.817  1.3941  0.0944 -0.7493
 4633TIP3   OH213820   7.111   0.549   5.127  0.3189  0.2144 -0.2537
 4633TIP3    H113821   7.101   0.507   5.213  1.2689 -0.7289 -0.5731
 4633TIP3    H213822   7.026   0.539   5.086  0.2188 -0.4759  0.0966
 4634TIP3   OH213823   4.510   1.033   5.246  0.3351  0.2176 -0.6616
 4634TIP3    H113824   4.563   1.020   5.168  1.4073  1.4523 -0.1675
 4634TIP3    H213825   4.481   1.124   5.241  0.1194  0.2056  0.2049
 4635TIP3   OH213826   1.195   1.440   1.141  0.6653  0.3240 -0.4060
 4635TIP3    H113827   1.246   1.392   1.075  2.0072 -1.3250  1.7081
 4635TIP3    H213828   1.129   1.376   1.170 -0.3757  1.2793 -0.6113
 4636TIP3   OH213829   7.804   6.517   1.636 -0.0816  0.4079  0.4747
 4636TIP3    H113830   7.846   6.603   1.636  0.3769  0.1836  0.4639
 4636TIP3    H213831   7.725   6.529   1.689  0.1129  0.7718  0.6810
 4637TIP3   OH213832   4.568   1.259   4.792  0.0946 -0.2483 -0.5558
 4637TIP3    H113833   4.551   1.278   4.700  0.6705  1.2448 -0.3736
 4637TIP3    H213834   4.637   1.320   4.817 -1.4010  0.7591  1.3969
 4638TIP3   OH213835   7.355   6.027   1.715 -0.3123 -0.5920 -0.5788
 4638TIP3    H113836   7.319   6.109   1.748 -1.5133 -0.9689 -0.8797
 4638TIP3    H213837   7.404   5.991   1.788 -0.4460  0.0181 -0.1828
 4639TIP3   OH213838   5.452   4.350   1.587 -0.4047 -0.3826  0.3274
 4639TIP3    H113839   5.416   4.264   1.565  0.1175 -0.7061  0.7070
 4639TIP3    H213840   5.428   4.363   1.679  0.4462 -0.6077  0.5894
 4640TIP3   OH213841   7.201   2.325   0.577 -0.2898  0.0681  0.9188
 4640TIP3    H113842   7.138   2.269   0.622  0.2410 -1.2912  0.0377
 4640TIP3    H213843   7.257   2.264   0.529  0.2114  1.3779 -0.2182
 4641TIP3   OH213844   0.471   3.686   0.574  0.4159 -0.0109  0.3765
 4641TIP3    H113845   0.417   3.634   0.515 -0.3315  0.6307  0.4684
 4641TIP3    H213846   0.561   3.664   0.552  0.1265 -0.4045 -0.4218
 4642TIP3   OH213847   2.154   0.518   4.816 -0.1883  0.1356  0.7563
 4642TIP3    H113848   2.071   0.470   4.814  0.2507 -0.6240  0.1804
 4642TIP3    H213849   2.179   0.527   4.724  0.9736 -0.7397  0.9684
 4643TIP3   OH213850   3.362   4.638   6.976  0.0061 -0.1226 -0.5794
 4643TIP3    H113851   3.357   4.719   6.924  0.8466  0.7572  0.6417
 4643TIP3    H213852   3.303   4.654   7.050 -0.0872 -0.7704 -0.5144
 4644TIP3   OH213853   0.476   0.809   0.663 -0.3501  0.2030  0.1318
 4644TIP3    H113854   0.530   0.861   0.723 -2.6984  0.6970  1.9794
 4644TIP3    H213855   0.517   0.722   0.664  2.3727  1.3129 -1.3305
 4645TIP3   OH213856   6.525   2.346   2.790 -0.2536 -0.6430 -0.2014
 4645TIP3    H113857   6.614   2.366   2.760 -0.5371  0.1510 -0.5346
 4645TIP3    H213858   6.533   2.341   2.885  0.0214  0.1301 -0.1738
 4646TIP3   OH213859   3.134   0.374   4.827 -0.3433  0.4388 -0.1103
 4646TIP3    H113860   3.181   0.426   4.762  0.0350 -1.2641 -1.2695
 4646TIP3    H213861   3.042   0.396   4.814 -0.3196 -0.2199 -1.5950
 4647TIP3   OH213862   7.546   7.047   2.803 -0.0930 -0.0279  0.1729
 4647TIP3    H113863   7.623   6.996   2.778 -0.7454  0.1445 -2.5176
 4647TIP3    H213864   7.475   6.983   2.809 -0.4875  0.2342 -1.2057
 4648TIP3   OH213865   7.906   4.597   5.451 -0.1674  0.2324  0.5212
 4648TIP3    H113866   7.829   4.636   5.492 -0.8967  0.2894 -0.8337
 4648TIP3    H213867   7.884   4.592   5.358  1.3159 -0.1258  0.1561
 4649TIP3   OH213868   2.319   0.055   5.360  0.5607 -0.1943 -0.3546
 4649TIP3    H113869   2.277  -0.024   5.394  0.1603 -0.1616 -0.7655
 4649TIP3    H213870   2.333   0.110   5.437 -0.5780 -0.0053 -0.2648
 4650TIP3   OH213871   3.562   6.309   5.351  0.2474  0.0521 -0.0460
 4650TIP3    H113872   3.640   6.259   5.326  0.9083  0.1707  1.6558
 4650TIP3    H213873   3.596   6.385   5.398 -0.8364  0.9933 -0.7277
 4651TIP3   OH213874   2.146   5.910   5.428  0.5329 -0.1206 -0.1407
 4651TIP3    H113875   2.217   5.964   5.395  0.9943 -1.0893 -0.7935
 4651TIP3    H213876   2.183   5.865   5.503  0.5175 -0.3799 -0.2856
 4652TIP3   OH213877   5.577   4.311   6.478  0.2013  0.2155 -0.0760
 4652TIP3    H113878   5.549   4.308   6.569 -2.4567 -0.5831 -0.8009
 4652TIP3    H213879   5.498   4.287   6.428  0.9360  2.7164 -2.7166
 4653TIP3   OH213880   4.597   1.920   1.085 -0.2915  0.0370 -0.2806
 4653TIP3    H113881   4.626   1.830   1.075  2.3379  0.9016 -1.0630
 4653TIP3    H213882   4.676   1.970   1.102 -1.7067  2.1954  0.4363
 4654TIP3   OH213883   5.003   8.119   0.306 -0.2384  0.2642 -0.4035
 4654TIP3    H113884   5.050   8.078   0.379 -2.2364 -0.0462  0.7999
 4654TIP3    H213885   4.941   8.052   0.277 -0.5849  0.9638 -1.3066
 4655TIP3   OH213886   5.638   5.578   5.030 -0.6012  0.1793 -0.7990
 4655TIP3    H113887   5.726   5.596   5.063 -0.4612  0.3370 -1.2552
 4655TIP3    H213888   5.618   5.490   5.061  0.7186 -0.8996 -2.7848
 4656TIP3   OH213889   1.228   2.269   2.760  0.3955  0.3712  0.3353
 4656TIP3    H113890   1.188   2.189   2.725 -0.8361  0.8717  0.5475
 4656TIP3    H213891   1.248   2.321   2.682  1.8280 -0.3938  0.1515
 4657TIP3   OH213892   5.717   2.848   1.682 -0.3084 -0.2103 -0.0380
 4657TIP3    H113893   5.707   2.859   1.776 -0.9028  0.5489 -0.1782
 4657TIP3    H213894   5.803   2.885   1.662 -0.7354  0.8469  0.0295
 4658TIP3   OH213895   2.614   6.775   0.106 -0.3224  0.0149  0.6301
 4658TIP3    H113896   2.670   6.831   0.052 -2.1712  0.2774 -1.1615
 4658TIP3    H213897   2.606   6.821   0.189  1.6586  0.2055  0.7650
 4659TIP3   OH213898   3.854   6.804   6.247 -0.2347  0.2718 -0.6019
 4659TIP3    H113899   3.893   6.718   6.260 -0.9233 -0.0785 -0.7991
 4659TIP3    H213900   3.923   6.856   6.206 -0.0997 -0.4392 -1.2957
 4660TIP3   OH213901   2.004   1.529   0.728 -0.5055  0.1061  0.1390
 4660TIP3    H113902   2.033   1.618   0.710  1.0018  0.4552  3.5750
 4660TIP3    H213903   2.005   1.486   0.642 -0.8940  3.2104 -1.5748
 4661TIP3   OH213904   3.199   0.782   4.705 -0.2954  0.0673 -0.4712
 4661TIP3    H113905   3.139   0.766   4.633 -1.2917 -0.9403  0.5593
 4661TIP3    H213906   3.154   0.846   4.761  1.4165  2.6447 -1.8269
 4662TIP3   OH213907   0.743   6.483   4.035 -0.3025  0.0368  0.2120
 4662TIP3    H113908   0.758   6.576   4.023  0.1094 -0.1901 -1.1787
 4662TIP3    H213909   0.751   6.469   4.129  1.4601  1.1014  0.2573
 4663TIP3   OH213910   3.661   4.945   2.210 -0.1760 -0.2510 -0.8779
 4663TIP3    H113911   3.590   4.912   2.266 -0.1410 -0.1191 -0.7551
 4663TIP3    H213912   3.628   4.934   2.121 -0.1093 -0.7439 -0.8444
 4664TIP3   OH213913   1.996   4.639   2.855  0.0464 -0.4451 -0.0871
 4664TIP3    H113914   1.912   4.593   2.845 -0.3392  0.5768 -1.8055
 4664TIP3    H213915   2.026   4.613   2.942 -1.1927 -2.2307 -0.1322
 4665TIP3   OH213916   7.132   3.007   4.093  0.3822  0.2307 -0.0700
 4665TIP3    H113917   7.104   3.086   4.046 -0.0046  0.0967 -0.0640
 4665TIP3    H213918   7.138   2.939   4.026 -1.3356 -0.2696  0.2375
 4666TIP3   OH213919   6.489   4.922   0.050 -0.0798  0.3030 -0.4953
 4666TIP3    H113920   6.452   4.854   0.107 -0.6370 -0.6414 -1.9465
 4666TIP3    H213921   6.567   4.881   0.013  0.2943  0.9255 -0.3993
 4667TIP3   OH213922   3.201   5.455   2.919 -0.5844  0.5098  0.4778
 4667TIP3    H113923   3.292   5.468   2.945 -0.3263 -1.0894  0.4824
 4667TIP3    H213924   3.159   5.421   2.998 -1.4881  2.2648  0.8147
 4668TIP3   OH213925   7.566   4.788   6.667  0.5947  0.1279 -0.2826
 4668TIP3    H113926   7.584   4.857   6.602  0.6072 -0.9453 -1.4604
 4668TIP3    H213927   7.502   4.731   6.625  1.8554 -1.5364 -0.0616
 4669TIP3   OH213928   6.031   7.337   3.538  0.1078 -0.3353 -0.1026
 4669TIP3    H113929   6.080   7.281   3.599  0.4076 -1.7422 -1.5812
 4669TIP3    H213930   6.079   7.421   3.540  0.8711 -0.7673  0.6161
 4670TIP3   OH213931   4.970   2.422   1.840 -0.5805  0.1848  0.2991
 4670TIP3    H113932   4.962   2.516   1.825  0.1525  0.0648 -0.9846
 4670TIP3    H213933   4.910   2.404   1.913  0.8184  1.9810  2.0247
 4671TIP3   OH213934   0.821   4.047   1.815  0.2834  0.3901 -0.3059
 4671TIP3    H113935   0.784   3.962   1.793  2.0961 -0.6756  0.5916
 4671TIP3    H213936   0.805   4.057   1.909 -1.3268  1.8099 -0.6722
 4672TIP3   OH213937   3.303   4.728   3.446 -0.3448 -0.2995 -0.2356
 4672TIP3    H113938   3.304   4.823   3.432 -2.0328 -0.2514 -0.1303
 4672TIP3    H213939   3.255   4.693   3.372 -1.0668 -0.9311  0.5141
 4673TIP3   OH213940   3.979   5.079   2.308  0.3327 -0.0031  0.2658
 4673TIP3    H113941   4.020   5.110   2.228  0.7352 -3.0347 -0.8385
 4673TIP3    H213942   4.034   5.112   2.379  1.6214  0.3651 -0.8813
 4674TIP3   OH213943   2.912   1.537   1.204 -0.2932 -0.1037  0.5816
 4674TIP3    H113944   2.824   1.504   1.188 -0.6312  1.0049  0.0892
 4674TIP3    H213945   2.924   1.606   1.139  1.6249 -1.4224 -0.5628
 4675TIP3   OH213946   5.984   5.829   3.684 -0.0041 -0.2546  0.1053
 4675TIP3    H113947   5.913   5.771   3.655  0.5051 -0.6782 -0.3339
 4675TIP3    H213948   5.940   5.904   3.723 -0.6836 -0.8843  0.5819
 4676TIP3   OH213949   2.089   7.318   4.503  0.1785 -0.8236 -0.7817
 4676TIP3    H113950   2.147   7.323   4.427 -0.1101  1.9398 -0.9169
 4676TIP3    H213951   2.139   7.266   4.567  2.2931  0.3688 -1.3536
 4677TIP3   OH213952   7.082   1.087   4.482 -0.3325 -0.7048  0.0826
 4677TIP3    H113953   7.085   0.992   4.470 -1.0021 -0.6301 -0.8108
 4677TIP3    H213954   6.989   1.107   4.490 -0.2082 -0.1021  0.0625
 4678TIP3   OH213955   4.307   4.244   2.636 -0.6802 -0.1778 -0.0452
 4678TIP3    H113956   4.306   4.299   2.557  1.0459  1.0106  0.6834
 4678TIP3    H213957   4.384   4.275   2.685 -0.5245 -2.2605  1.1330
 4679TIP3   OH213958   7.726   4.215   3.291  0.0459 -0.0222 -0.5801
 4679TIP3    H113959   7.767   4.130   3.309 -0.2529 -0.0083  0.1971
 4679TIP3    H213960   7.776   4.251   3.218  1.3441 -0.0605  0.2711
 4680TIP3   OH213961   6.673   0.364   2.021  0.4653 -0.3400  0.1320
 4680TIP3    H113962   6.723   0.403   2.093 -0.4697 -0.2035  0.7288
 4680TIP3    H213963   6.607   0.309   2.065  0.2649 -0.7225 -0.6363
 4681TIP3   OH213964   1.041   6.622   0.459  0.0842  0.0536 -0.1406
 4681TIP3    H113965   0.960   6.654   0.418  0.0802  0.8185  0.4451
 4681TIP3    H213966   1.111   6.650   0.400  0.1971  2.3235  0.9803
 4682TIP3   OH213967   0.095   2.270   6.818  0.3479 -0.2614 -0.1899
 4682TIP3    H113968   0.167   2.305   6.766  0.4779 -0.4578 -0.1442
 4682TIP3    H213969   0.136   2.241   6.900 -0.0177  1.0442  0.4825
 4683TIP3   OH213970   7.808   2.542   1.932  0.0263  0.5581  0.0089
 4683TIP3    H113971   7.838   2.553   1.842  0.3104  0.2201  0.0575
 4683TIP3    H213972   7.779   2.629   1.959  1.1414  0.9486  0.0214
 4684TIP3   OH213973   4.355   1.090   0.729 -0.0812  0.4756  0.5093
 4684TIP3    H113974   4.380   1.133   0.648 -0.8763 -0.1074 -0.0560
 4684TIP3    H213975   4.303   1.156   0.776  1.3278  1.2205  1.0938
 4685TIP3   OH213976   3.898   6.355   6.267  0.2948 -0.5951  0.0654
 4685TIP3    H113977   3.856   6.408   6.335  0.0442 -1.2601  0.4404
 4685TIP3    H213978   3.960   6.299   6.314  1.0174 -0.1992 -0.3976
 4686TIP3   OH213979   0.477   1.955   4.057  0.6546  0.1664  0.0001
 4686TIP3    H113980   0.471   1.909   3.974 -0.4826  0.0482  0.1418
 4686TIP3    H213981   0.476   2.048   4.033 -2.0865  0.2059 -0.0327
 4687TIP3   OH213982   6.507   5.398   4.375  0.2661  0.1015 -0.2077
 4687TIP3    H113983   6.557   5.366   4.300  0.1537  0.7678 -0.5803
 4687TIP3    H213984   6.428   5.437   4.335  1.1709  2.3544  0.0633
 4688TIP3   OH213985   0.093   2.878   5.825 -0.5174 -0.3772 -0.2402
 4688TIP3    H113986   0.161   2.880   5.893 -0.4530 -1.9313 -0.2057
 4688TIP3    H213987   0.132   2.827   5.754 -0.1893  2.0959 -1.9560
 4689TIP3   OH213988   3.259   2.940   4.192 -0.0253  0.3727  0.2851
 4689TIP3    H113989   3.265   2.932   4.287  2.2784 -0.6902  0.1102
 4689TIP3    H213990   3.224   3.029   4.178  0.4846  0.9078  2.1078
 4690TIP3   OH213991   3.935   1.604   5.842 -0.1195  0.6023 -0.2977
 4690TIP3    H113992   3.986   1.536   5.799 -0.2293  0.3004  0.0397
 4690TIP3    H213993   3.999   1.653   5.894 -0.0090  0.8829 -0.6970
 4691TIP3   OH213994   5.176   0.411   1.376 -0.4047 -0.1418 -0.5958
 4691TIP3    H113995   5.238   0.433   1.307 -1.7562  3.6657 -0.8038
 4691TIP3    H213996   5.110   0.357   1.333  0.6126 -0.8523 -1.3173
 4692TIP3   OH213997   5.332   4.569   0.641  0.2775  0.4321  0.1808
 4692TIP3    H113998   5.422   4.601   0.651  0.0476  1.3507 -0.6453
 4692TIP3    H213999   5.336   4.512   0.564 -0.4116  2.7550 -1.6748
 4693TIP3   OH214000   3.587   6.707   6.271 -0.1919  0.0788  0.1610
 4693TIP3    H114001   3.668   6.751   6.247  1.0453 -2.0764  0.1479
 4693TIP3    H214002   3.598   6.686   6.364 -0.1801 -1.2713 -0.1225
 4694TIP3   OH214003   3.980   3.031   2.878  0.3437 -0.0672  0.1830
 4694TIP3    H114004   4.068   3.045   2.913 -0.1275 -0.1945  1.5112
 4694TIP3    H214005   3.971   3.093   2.807  1.3128  0.3330  0.4026
 4695TIP3   OH214006   1.054   0.717   1.071  0.0497 -0.2085 -0.2971
 4695TIP3    H114007   0.991   0.691   1.138 -1.6945 -0.1584 -1.8223
 4695TIP3    H214008   1.063   0.640   1.015  1.7003 -0.3459  0.1002
 4696TIP3   OH214009   5.625   0.916   2.433  0.2718  0.5607 -0.8660
 4696TIP3    H114010   5.611   0.867   2.352  0.8023  0.5190 -0.9346
 4696TIP3    H214011   5.666   0.853   2.492 -2.0579 -0.0721  0.1902
 4697TIP3   OH214012   4.787   8.084   5.487 -0.3265 -0.3710 -0.1583
 4697TIP3    H114013   4.736   8.108   5.565  0.0299  1.6999 -0.5036
 4697TIP3    H214014   4.862   8.144   5.489  0.3870 -1.1987 -1.3884
 4698TIP3   OH214015   4.723   3.230   5.916 -0.7760 -0.2196 -0.4409
 4698TIP3    H114016   4.711   3.228   5.821 -1.4638  0.2006 -0.3744
 4698TIP3    H214017   4.802   3.179   5.931 -1.1910 -1.1124 -1.1574
 4699TIP3   OH214018   4.540   5.717   3.675 -0.3106 -0.0005  0.3790
 4699TIP3    H114019   4.589   5.699   3.594  2.1801  1.2399  1.5275
 4699TIP3    H214020   4.559   5.643   3.732 -1.3714 -0.4499  0.1757
 4700TIP3   OH214021   2.194   6.754   0.250  0.0404  0.0769 -0.1649
 4700TIP3    H114022   2.240   6.710   0.179 -0.6652  0.6433 -0.9908
 4700TIP3    H214023   2.158   6.683   0.303 -0.8057 -0.3648 -1.2988
 4701TIP3   OH214024   0.028   4.629   1.982  0.3820  0.1224  0.0071
 4701TIP3    H114025  -0.019   4.553   1.947  0.2182  0.3897 -0.3511
 4701TIP3    H214026   0.063   4.674   1.905 -0.8903  1.3120  0.0825
 4702TIP3   OH214027   1.778   7.128   1.811 -0.4052 -0.4583  0.1560
 4702TIP3    H114028   1.683   7.139   1.804 -0.0853  1.5983 -2.7035
 4702TIP3    H214029   1.794   7.124   1.906 -3.2859 -0.6913  0.7461
 4703TIP3   OH214030   0.484   1.476   5.799 -0.3874 -0.3271 -0.1006
 4703TIP3    H114031   0.569   1.518   5.814  0.4129 -1.5259 -1.0317
 4703TIP3    H214032   0.451   1.514   5.718 -0.2458 -0.5863 -0.2830
 4704TIP3   OH214033   6.200   7.670   0.863 -0.1739 -0.4372  0.1494
 4704TIP3    H114034   6.279   7.689   0.813 -0.2447  0.3517  0.3296
 4704TIP3    H214035   6.156   7.754   0.872 -0.1588 -0.5507  1.5518
 4705TIP3   OH214036   1.811   6.260   3.029  0.4100  0.2916  0.0353
 4705TIP3    H114037   1.767   6.181   2.996 -1.2665  1.4506 -0.6196
 4705TIP3    H214038   1.765   6.281   3.110  1.4713  0.1003  0.7130
 4706TIP3   OH214039   0.079   3.969   4.123 -0.5046  0.0006  0.4910
 4706TIP3    H114040  -0.014   3.984   4.140 -0.0586  2.1601  1.3599
 4706TIP3    H214041   0.113   4.054   4.096  1.5063 -0.3534  1.6697
 4707TIP3   OH214042   3.807   2.779   5.821  0.5095  0.2592 -0.6365
 4707TIP3    H114043   3.838   2.827   5.745 -1.2829  0.3739 -1.3533
 4707TIP3    H214044   3.775   2.847   5.881 -2.1103  0.0818 -1.6882
 4708TIP3   OH214045   5.976   5.511   6.137 -0.2379 -0.0710 -0.0222
 4708TIP3    H114046   6.032   5.437   6.163  1.0772  0.3287 -1.5582
 4708TIP3    H214047   5.900   5.470   6.096  0.7350 -0.6162 -1.3673
 4709TIP3   OH214048   4.299   5.494   0.038 -0.0089 -0.4049  0.0309
 4709TIP3    H114049   4.358   5.566   0.014 -1.2319  0.8161  0.5992
 4709TIP3    H214050   4.336   5.460   0.120  1.2075 -1.1932 -0.8062
 4710TIP3   OH214051   2.716   3.544   2.220  0.1312  0.1005 -0.3609
 4710TIP3    H114052   2.738   3.477   2.284  1.3808  1.4574  0.7045
 4710TIP3    H214053   2.767   3.620   2.247 -0.0822  1.0272 -2.4017
 4711TIP3   OH214054   7.207   2.080   2.460  0.1483 -0.1499 -0.2150
 4711TIP3    H114055   7.117   2.048   2.466  0.8081 -2.5080 -1.5807
 4711TIP3    H214056   7.210   2.126   2.376  0.0703  0.5212  0.1435
 4712TIP3   OH214057   8.404   7.020   0.940 -0.6286  0.4994 -0.0456
 4712TIP3    H114058   8.477   6.983   0.989 -0.8323 -0.6117 -0.5500
 4712TIP3    H214059   8.399   7.111   0.969  2.3751  1.2900 -1.5840
 4713TIP3   OH214060   4.031   6.422   1.024 -0.2769 -0.0177 -0.2589
 4713TIP3    H114061   4.055   6.514   1.031 -0.2594  0.0511 -1.0671
 4713TIP3    H214062   4.112   6.378   0.998 -0.2964 -0.2516  0.0789
 4714TIP3   OH214063   1.624   5.274   5.120 -0.9948  0.0398  0.7366
 4714TIP3    H114064   1.644   5.368   5.124  0.2396 -0.0311 -1.5086
 4714TIP3    H214065   1.692   5.233   5.173 -0.2777  0.3363  0.0762
 4715TIP3   OH214066   8.666   5.622   1.406  0.0442 -0.1092  0.2309
 4715TIP3    H114067   8.593   5.653   1.461  0.1695  0.6944 -0.0444
 4715TIP3    H214068   8.735   5.687   1.420 -0.4060  0.9117 -1.9407
 4716TIP3   OH214069   2.704   2.986   1.097  0.5754 -0.2907  0.0917
 4716TIP3    H114070   2.762   2.947   1.162  0.8814 -0.5009 -0.2995
 4716TIP3    H214071   2.727   2.942   1.015  3.7039  3.2824 -1.2725
 4717TIP3   OH214072   7.868   3.682   5.432 -0.0460  0.2986 -1.0200
 4717TIP3    H114073   7.945   3.740   5.429  0.2920 -0.1801 -2.4492
 4717TIP3    H214074   7.863   3.645   5.344 -1.6583 -0.0366 -0.8164
 4718TIP3   OH214075   3.538   3.522   1.987 -0.3427 -0.5580  0.0619
 4718TIP3    H114076   3.476   3.592   2.006  0.8074  1.3371 -2.4899
 4718TIP3    H214077   3.508   3.485   1.904  1.8900  0.5043 -1.3105
 4719TIP3   OH214078   5.787   3.543   3.206 -0.9339  0.5402  0.6173
 4719TIP3    H114079   5.857   3.513   3.265 -0.7687 -0.9051 -0.2776
 4719TIP3    H214080   5.722   3.582   3.264  1.5599  4.1716  1.3851
 4720TIP3   OH214081   4.131   6.887   5.515  0.1857  0.1318  0.3151
 4720TIP3    H114082   4.202   6.868   5.576  0.2701  2.0406  0.8967
 4720TIP3    H214083   4.063   6.823   5.536  0.7525 -0.1135  1.4881
 4721TIP3   OH214084   2.413   1.601   2.837  0.3755  0.0020 -0.0946
 4721TIP3    H114085   2.508   1.589   2.848  0.4357  1.4346  1.2668
 4721TIP3    H214086   2.373   1.545   2.903  0.1201 -2.1230 -1.9168
 4722TIP3   OH214087   1.664   5.392   5.427  0.0930  0.0671  0.1111
 4722TIP3    H114088   1.718   5.314   5.437 -0.3314 -0.1121  1.1540
 4722TIP3    H214089   1.714   5.449   5.370  0.9604 -0.4806  0.3100
 4723TIP3   OH214090   6.075   5.250   2.850  0.5686 -0.7200  0.0636
 4723TIP3    H114091   6.007   5.244   2.783  0.3033 -1.8732  0.4235
 4723TIP3    H214092   6.031   5.292   2.925  0.3461 -1.1657  0.1816
 4724TIP3   OH214093   1.664   4.938   1.656  0.1250 -0.2115  0.0465
 4724TIP3    H114094   1.674   5.019   1.708 -1.0141 -1.4597  2.3928
 4724TIP3    H214095   1.753   4.908   1.642  0.4860  0.2596  1.1976
 4725TIP3   OH214096   7.662   5.246   0.504  0.1015  0.2939 -0.3495
 4725TIP3    H114097   7.657   5.302   0.582 -0.0907 -2.5546  1.8344
 4725TIP3    H214098   7.583   5.192   0.508  0.8759 -1.0036 -1.6123
 4726TIP3   OH214099   5.869   6.175   6.333  0.4117 -0.0122 -0.3586
 4726TIP3    H114100   5.924   6.172   6.255 -0.7021 -0.6585 -1.1317
 4726TIP3    H214101   5.875   6.266   6.363  2.6858 -0.2647  0.1789
 4727TIP3   OH214102   6.471   6.036   6.227 -0.3452  0.2542  0.3732
 4727TIP3    H114103   6.392   6.034   6.281  0.5828  0.9385  1.8143
 4727TIP3    H214104   6.468   6.122   6.184 -0.6385  0.0643  0.0056
 4728TIP3   OH214105   7.864   5.142   2.971 -0.2666  0.4984 -0.2088
 4728TIP3    H114106   7.927   5.171   2.904 -0.8473  1.1038 -0.5015
 4728TIP3    H214107   7.809   5.078   2.925  1.9197 -2.3410  0.8054
 4729TIP3   OH214108   7.299   0.454   4.470 -0.2422 -0.5498 -0.5365
 4729TIP3    H114109   7.304   0.455   4.565  1.2507  0.0598 -0.5972
 4729TIP3    H214110   7.246   0.376   4.450 -1.8251  0.1256  0.7934
 4730TIP3   OH214111   4.483   3.857   5.391 -0.0478 -0.3128 -0.3227
 4730TIP3    H114112   4.557   3.918   5.389  0.8841 -1.4157 -0.2539
 4730TIP3    H214113   4.436   3.880   5.471  0.9992 -0.4630  0.3616
 4731TIP3   OH214114   5.075   7.366   6.785  0.4208 -0.8519  0.6240
 4731TIP3    H114115   5.111   7.284   6.751  0.6826 -0.2939 -0.5023
 4731TIP3    H214116   5.018   7.398   6.716 -0.1588 -0.3827  1.3008
 4732TIP3   OH214117   5.248   1.670   0.712 -0.6944 -0.3341 -0.0248
 4732TIP3    H114118   5.317   1.607   0.735  2.1895  2.4531 -0.3220
 4732TIP3    H214119   5.207   1.631   0.634  0.4266 -2.2102  0.2347
 4733TIP3   OH214120   7.999   7.422   5.926 -0.2512  0.1472  0.2932
 4733TIP3    H114121   7.982   7.353   5.861 -0.2891  0.2745  0.1680
 4733TIP3    H214122   8.064   7.479   5.885 -1.1177  0.8738 -0.1081
 4734TIP3   OH214123   6.067   5.177   0.806  0.8130  0.2220  0.0835
 4734TIP3    H114124   6.162   5.181   0.793  0.4976  0.6876 -2.4764
 4734TIP3    H214125   6.031   5.237   0.740 -1.2951 -0.2152  0.7688
 4735TIP3   OH214126   5.818   5.716   1.428  0.1604 -0.4960  0.0417
 4735TIP3    H114127   5.741   5.659   1.436  0.3307 -0.5617  1.3726
 4735TIP3    H214128   5.851   5.699   1.340 -0.5995 -1.4221 -0.0823
 4736TIP3   OH214129   7.156   6.284   6.049  0.3307 -0.0673 -0.3207
 4736TIP3    H114130   7.135   6.373   6.076  0.3767 -0.2158  0.2345
 4736TIP3    H214131   7.192   6.293   5.961 -1.1223  0.2905 -0.9077
 4737TIP3   OH214132   2.022   0.479   2.309 -0.6649 -0.2983  0.3749
 4737TIP3    H114133   2.036   0.528   2.228  2.3153 -1.3644  0.1209
 4737TIP3    H214134   2.040   0.542   2.379  0.4243 -0.3092  0.1121
 4738TIP3   OH214135   1.130   4.519   6.182 -0.3876  0.3240  0.2986
 4738TIP3    H114136   1.178   4.573   6.245 -0.9316 -1.5725  2.4555
 4738TIP3    H214137   1.198   4.469   6.136 -0.0953  0.0491  1.0195
 4739TIP3   OH214138   2.033   4.556   2.369 -0.4551  0.3227  0.7121
 4739TIP3    H114139   2.048   4.462   2.373 -1.7317  0.0397 -0.4291
 4739TIP3    H214140   2.110   4.594   2.411  0.0067 -1.2188  1.3494
 4740TIP3   OH214141   0.124   6.121   6.541 -0.1524  0.0063  0.5418
 4740TIP3    H114142   0.136   6.028   6.522  3.2663  0.5005 -0.2980
 4740TIP3    H214143   0.102   6.160   6.457  1.3972  0.3232  0.2601
 4741TIP3   OH214144   2.598   5.218   0.662  0.3304  0.6447 -0.5041
 4741TIP3    H114145   2.691   5.199   0.645  0.4515  2.1966 -1.8228
 4741TIP3    H214146   2.551   5.159   0.604  0.2840 -2.2974  2.2508
 4742TIP3   OH214147   4.043   7.423   2.953 -0.0283 -0.6737  0.0368
 4742TIP3    H114148   4.051   7.329   2.972  0.0148 -0.6455  0.1563
 4742TIP3    H214149   4.019   7.426   2.860 -0.1850 -0.8089  0.0715
 4743TIP3   OH214150   2.078   0.051   4.133  0.1842 -0.2538  0.2928
 4743TIP3    H114151   2.010   0.118   4.133 -0.2834 -0.7162  1.2552
 4743TIP3    H214152   2.159   0.099   4.149  0.2985  0.4665 -2.1028
 4744TIP3   OH214153   5.548   7.880   0.037  0.4656  0.5856 -0.2698
 4744TIP3    H114154   5.634   7.838   0.044 -0.3570 -0.9271  1.8354
 4744TIP3    H214155   5.558   7.962   0.086  0.6185  0.2067  0.3502
 4745TIP3   OH214156   1.875   5.151   0.382  0.1056 -0.0610  0.0798
 4745TIP3    H114157   1.890   5.186   0.470  0.4125  0.7707 -0.2882
 4745TIP3    H214158   1.941   5.194   0.328  1.4051 -2.2471 -0.1769
 4746TIP3   OH214159   4.587   4.564   0.965 -0.2616  0.1227  0.1502
 4746TIP3    H114160   4.530   4.507   0.913  0.4487  0.7271 -1.3425
 4746TIP3    H214161   4.660   4.508   0.991  0.2462  0.2122 -0.9973
 4747TIP3   OH214162   5.031   0.133   2.326 -0.1648 -0.0769  0.1243
 4747TIP3    H114163   5.111   0.084   2.309  0.2845  0.9823 -0.9335
 4747TIP3    H214164   5.038   0.211   2.271 -1.4977  0.4920  0.7148
 4748TIP3   OH214165   7.788   0.195   3.021  0.3677  0.8718 -0.5026
 4748TIP3    H114166   7.738   0.125   2.980  1.3086 -0.2259  0.1367
 4748TIP3    H214167   7.737   0.218   3.099 -0.2079  1.2764 -0.9914
 4749TIP3   OH214168   4.478   5.198   4.734 -0.3755  0.4302  0.2370
 4749TIP3    H114169   4.445   5.182   4.645 -0.4699 -1.5831  0.5969
 4749TIP3    H214170   4.399   5.214   4.786 -0.4659 -0.0889  0.2674
 4750TIP3   OH214171   1.947   5.308   0.640  0.6690  0.1039  0.5343
 4750TIP3    H114172   1.984   5.394   0.617  2.9345 -1.0008 -0.2447
 4750TIP3    H214173   1.860   5.328   0.676  0.8454  2.6527 -0.2662
 4751TIP3   OH214174   1.956   5.010   5.115  0.2482 -0.0260  0.1445
 4751TIP3    H114175   1.931   4.951   5.187  0.6720 -1.6751 -1.0065
 4751TIP3    H214176   1.925   4.965   5.036 -0.0324  1.6585 -0.7362
 4752TIP3   OH214177   4.960   5.086   4.848  0.3422 -0.5437 -0.8166
 4752TIP3    H114178   4.972   5.134   4.766 -1.5962  0.7414 -0.4287
 4752TIP3    H214179   4.882   5.032   4.833  1.2842 -2.0281 -0.5433
 4753TIP3   OH214180   1.393   0.350   4.079 -0.2462 -0.0971  0.7264
 4753TIP3    H114181   1.421   0.338   4.169 -2.1740 -1.1705  1.2452
 4753TIP3    H214182   1.463   0.311   4.026  0.5416 -0.1458  1.7790
 4754TIP3   OH214183   4.049   6.175   6.398  0.1594  0.5903  0.2258
 4754TIP3    H114184   4.032   6.082   6.382 -0.8092  0.9302 -0.7947
 4754TIP3    H214185   4.141   6.187   6.372  0.2038 -0.0112  0.0778
 4755TIP3   OH214186   0.051   2.807   0.266  0.2531  0.0719  0.3328
 4755TIP3    H114187  -0.039   2.803   0.235 -0.0791  0.5223  1.2062
 4755TIP3    H214188   0.101   2.756   0.203 -0.3166  1.3718 -1.2361
 4756TIP3   OH214189   1.530   7.690   2.785  0.1899 -0.6107  0.0075
 4756TIP3    H114190   1.528   7.780   2.755 -1.5118 -0.3012  0.8883
 4756TIP3    H214191   1.600   7.688   2.851 -0.8752  0.5453  1.2435
 4757TIP3   OH214192   7.447   7.212   6.531  0.3616  0.2323 -0.7748
 4757TIP3    H114193   7.381   7.149   6.561  0.5889  0.9709  1.4376
 4757TIP3    H214194   7.494   7.165   6.462 -0.0916 -1.6914  0.1382
 4758TIP3   OH214195   5.028   1.820   2.543 -0.0290 -0.7016 -0.7165
 4758TIP3    H114196   5.114   1.822   2.501 -0.1647  2.4577 -1.1107
 4758TIP3    H214197   4.966   1.831   2.470 -0.3994  2.1723 -0.1090
 4759TIP3   OH214198   3.736   4.166   1.441 -0.3549  0.1961 -0.3061
 4759TIP3    H114199   3.738   4.077   1.475  1.2093  0.2302 -0.2356
 4759TIP3    H214200   3.747   4.157   1.347 -1.1368  0.2736 -0.4078
 4760TIP3   OH214201   5.628   1.971   6.049  0.2410  0.0560  0.9134
 4760TIP3    H114202   5.698   2.028   6.082  0.1198  0.2281  0.8766
 4760TIP3    H214203   5.558   1.979   6.115 -0.7391  1.8359 -0.2664
 4761TIP3   OH214204   1.237   2.715   6.689  1.0114  0.4298 -0.7293
 4761TIP3    H114205   1.145   2.705   6.666  0.5384  0.7195  0.8677
 4761TIP3    H214206   1.283   2.725   6.606 -0.6203  2.1205 -1.4816
 4762TIP3   OH214207   0.781   1.746   4.541  0.2008  0.0536  0.2339
 4762TIP3    H114208   0.834   1.688   4.485 -0.8070 -0.0806 -0.6110
 4762TIP3    H214209   0.836   1.823   4.554  1.5052 -0.9986  1.2473
 4763TIP3   OH214210   4.887   6.417   3.838 -0.7231  0.1574  0.2095
 4763TIP3    H114211   4.795   6.405   3.816 -0.6210  2.2580 -1.5879
 4763TIP3    H214212   4.925   6.329   3.827 -2.5913 -0.9612  1.8599
 4764TIP3   OH214213   3.329   1.375   1.002 -0.0805  0.0341 -0.1177
 4764TIP3    H114214   3.318   1.343   1.092 -1.9340  2.5084  0.6832
 4764TIP3    H214215   3.419   1.409   1.000  0.0646 -0.2653  0.7512
 4765TIP3   OH214216   3.363   1.716   4.326  0.2551  0.0482  0.7059
 4765TIP3    H114217   3.333   1.626   4.318  1.7623 -0.7251  2.8245
 4765TIP3    H214218   3.456   1.713   4.303  0.4282  0.9872  1.2206
 4766TIP3   OH214219   0.382   0.220   0.641 -0.4707  0.0042 -0.0007
 4766TIP3    H114220   0.328   0.144   0.617  1.4994 -1.3628 -0.3805
 4766TIP3    H214221   0.362   0.235   0.733 -2.3151  0.3064 -0.3998
 4767TIP3   OH214222   5.994   4.501   4.877 -0.2682 -0.0220  0.0622
 4767TIP3    H114223   5.997   4.441   4.802 -1.0675 -0.1306  0.1105
 4767TIP3    H214224   5.902   4.504   4.902 -0.2387  1.2437  0.0586
 4768TIP3   OH214225   8.597   3.779   1.375 -0.6404  0.2591 -0.1833
 4768TIP3    H114226   8.678   3.816   1.410 -0.6426  0.2742 -0.1933
 4768TIP3    H214227   8.534   3.850   1.381 -0.4272  0.5249 -0.9872
 4769TIP3   OH214228   4.014   2.280   0.930  0.3725  0.2586 -0.1703
 4769TIP3    H114229   4.029   2.196   0.973  0.9897  0.3844 -0.1344
 4769TIP3    H214230   3.931   2.269   0.885 -0.2350  0.0902  0.9586
 4770TIP3   OH214231   4.421   5.207   3.382  0.1528 -0.0939 -0.1685
 4770TIP3    H114232   4.365   5.212   3.305  0.4489 -0.1507 -0.3869
 4770TIP3    H214233   4.365   5.168   3.450 -0.0721 -0.1458 -0.3831
 4771TIP3   OH214234   7.849   1.803   6.520 -0.1868 -0.5230  0.7784
 4771TIP3    H114235   7.913   1.796   6.590  0.2813 -3.7519  0.1725
 4771TIP3    H214236   7.765   1.817   6.565  0.2924 -1.1432  1.8954
 4772TIP3   OH214237   7.199   6.383   3.145  0.0892  0.1151  0.2244
 4772TIP3    H114238   7.128   6.390   3.082 -0.3602  0.0439  0.7127
 4772TIP3    H214239   7.212   6.289   3.156  0.3077  0.1296  0.0744
 4773TIP3   OH214240   1.610   6.362   2.184 -0.1951 -0.5670 -0.1400
 4773TIP3    H114241   1.540   6.408   2.138 -0.9101 -3.1663 -1.8878
 4773TIP3    H214242   1.668   6.332   2.114  0.8656 -1.2933  1.0113
 4774TIP3   OH214243   6.649   0.904   6.905  0.5871 -0.4675 -0.1590
 4774TIP3    H114244   6.558   0.891   6.932  0.2417  0.8764 -0.5632
 4774TIP3    H214245   6.679   0.976   6.961  1.1683 -0.4403 -0.5033
 4775TIP3   OH214246   6.718   4.673   1.368  0.3813 -0.0410  0.2447
 4775TIP3    H114247   6.646   4.623   1.405  1.1105  0.0426  1.8556
 4775TIP3    H214248   6.723   4.643   1.277 -2.5951  1.0346 -0.3826
 4776TIP3   OH214249   1.384   5.565   4.112 -0.2941 -0.6327  0.2396
 4776TIP3    H114250   1.454   5.499   4.115  1.2910  0.9647  0.1899
 4776TIP3    H214251   1.334   5.551   4.192  1.3262 -0.5546  1.3212
 4777TIP3   OH214252   2.744   4.953   0.619 -0.8702  0.1335 -0.1902
 4777TIP3    H114253   2.782   4.956   0.531 -0.0379  0.2160  0.1665
 4777TIP3    H214254   2.792   4.884   0.664 -1.6145 -0.2289  0.0624
 4778TIP3   OH214255   7.322   0.222   2.293  0.0841  0.1440  0.7439
 4778TIP3    H114256   7.359   0.276   2.223 -1.8656 -0.6974 -1.0656
 4778TIP3    H214257   7.351   0.134   2.273  0.3016  0.0203  1.5768
 4779TIP3   OH214258   0.425   6.286   5.405  0.2360  0.5740  0.4383
 4779TIP3    H114259   0.514   6.251   5.417 -0.1784  0.0588  2.2366
 4779TIP3    H214260   0.368   6.217   5.438 -0.8562  1.0086 -0.4760
 4780TIP3   OH214261   5.472   4.964   1.308 -0.3938 -0.1614 -0.2109
 4780TIP3    H114262   5.377   4.961   1.307 -0.5861  2.7004 -0.2917
 4780TIP3    H214263   5.495   4.994   1.220  0.3260  1.9842  0.6459
 4781TIP3   OH214264   1.058   1.730   2.791  0.1733 -0.2507  0.4100
 4781TIP3    H114265   0.976   1.755   2.833  0.0427 -0.1225  0.0852
 4781TIP3    H214266   1.055   1.774   2.706  1.3009  1.0519  1.0161
 4782TIP3   OH214267   3.038   5.025   1.560  0.2765  0.0851  0.2729
 4782TIP3    H114268   2.968   4.960   1.556 -1.0649  1.4979 -0.4996
 4782TIP3    H214269   3.067   5.025   1.651  0.3435 -1.5927  0.2751
 4783TIP3   OH214270   1.912   4.568   1.957 -0.5762  0.3458  0.1550
 4783TIP3    H114271   1.829   4.547   1.916 -0.6554  1.4881 -0.3062
 4783TIP3    H214272   1.889   4.596   2.045 -0.7435  1.1194 -0.1245
 4784TIP3   OH214273   3.647   7.108   2.299  0.0554 -0.2460 -0.5431
 4784TIP3    H114274   3.597   7.028   2.316 -0.2740 -0.0097 -0.4089
 4784TIP3    H214275   3.629   7.165   2.374  1.3222 -0.5449  0.0206
 4785TIP3   OH214276   6.485   4.537   1.435 -0.2567  0.0049  0.1233
 4785TIP3    H114277   6.521   4.457   1.398 -1.0720 -0.4164  0.2035
 4785TIP3    H214278   6.406   4.554   1.383  0.0537  0.9130 -0.0718
 4786TIP3   OH214279   8.464   2.887   6.566  0.0081 -0.4103 -0.1674
 4786TIP3    H114280   8.446   2.887   6.660  1.1632  0.2666  0.0676
 4786TIP3    H214281   8.415   2.812   6.532  1.3464 -2.0468  1.3247
 4787TIP3   OH214282   1.174   0.511   5.946  0.5630  0.1592 -0.2186
 4787TIP3    H114283   1.246   0.569   5.968 -0.8813  2.2267 -0.6554
 4787TIP3    H214284   1.099   0.547   5.993 -0.4109 -1.3888 -0.4939
 4788TIP3   OH214285   1.364   3.157   1.160  0.1682  0.4500 -0.0410
 4788TIP3    H114286   1.398   3.067   1.153 -0.8456  0.1018 -0.7730
 4788TIP3    H214287   1.391   3.198   1.077  0.6418  0.8312  0.2993
 4789TIP3   OH214288   0.375   2.152   1.973  0.1250 -0.4004 -0.0229
 4789TIP3    H114289   0.383   2.244   2.000 -0.0114 -0.1005 -0.9765
 4789TIP3    H214290   0.282   2.131   1.985 -0.1381  0.0421 -1.2024
 4790TIP3   OH214291   3.900   2.191   1.774 -0.3715  0.5362 -0.1201
 4790TIP3    H114292   3.869   2.101   1.764 -1.6992  0.7120  1.7984
 4790TIP3    H214293   3.896   2.228   1.686  1.3151 -1.5737 -1.1525
 4791TIP3   OH214294   5.788   5.784   2.881  0.4003  0.5688 -0.2290
 4791TIP3    H114295   5.708   5.747   2.844  0.4310  0.3570 -0.0900
 4791TIP3    H214296   5.769   5.877   2.892  0.3134  0.5908 -0.5620
 4792TIP3   OH214297   7.497   5.043   1.295 -0.6014  0.5554  0.7903
 4792TIP3    H114298   7.463   5.026   1.207 -1.3628  1.7550  0.8408
 4792TIP3    H214299   7.420   5.063   1.347 -0.0748  0.6003  1.5625
 4793TIP3   OH214300   2.913   6.891   0.344 -0.8925  0.4735 -0.2510
 4793TIP3    H114301   2.846   6.942   0.390 -1.9411 -1.2627  0.2236
 4793TIP3    H214302   2.890   6.800   0.361  1.9347 -0.2062  0.3945
 4794TIP3   OH214303   2.362   5.596   4.279  0.6427  0.1209  0.1309
 4794TIP3    H114304   2.321   5.549   4.206  0.1583  0.2191  0.3331
 4794TIP3    H214305   2.419   5.531   4.320 -0.6795 -0.5869  0.9407
 4795TIP3   OH214306   3.417   7.426   2.548 -0.5177  0.1633  0.1806
 4795TIP3    H114307   3.510   7.430   2.525 -0.5720 -0.4879 -0.1720
 4795TIP3    H214308   3.412   7.467   2.634  0.0146  0.6811 -0.0213
 4796TIP3   OH214309   4.058   2.428   0.552  0.3800  0.2932 -0.3410
 4796TIP3    H114310   3.963   2.421   0.546  0.1336  3.1911 -1.2457
 4796TIP3    H214311   4.078   2.410   0.644 -1.1203  0.3457  0.0143
 4797TIP3   OH214312   1.049   2.896   0.964 -0.0754 -0.0854 -0.0414
 4797TIP3    H114313   1.034   2.954   1.039 -0.6093  0.5907 -0.6547
 4797TIP3    H214314   0.977   2.916   0.904  0.2086 -0.7940 -0.6312
 4798TIP3   OH214315   3.468   5.099   0.237  0.7548 -0.2787  0.3935
 4798TIP3    H114316   3.470   5.169   0.303 -1.9790 -1.5303  2.0046
 4798TIP3    H214317   3.542   5.043   0.260  0.7068  0.0884  1.5211
 4799TIP3   OH214318   4.353   0.881   3.885  0.0402  0.0232  0.4584
 4799TIP3    H114319   4.261   0.872   3.860  0.0667  1.7272 -0.3897
 4799TIP3    H214320   4.353   0.876   3.980 -0.9827  0.3687  0.4876
 4800TIP3   OH214321   4.376   7.265   3.714 -0.3387  0.0943  0.3375
 4800TIP3    H114322   4.453   7.233   3.761  0.1257 -0.1324 -0.5544
 4800TIP3    H214323   4.347   7.190   3.662 -0.0085  0.7375 -0.7983
 4801TIP3   OH214324   8.279   2.272   3.380 -0.7590 -0.3720  0.2189
 4801TIP3    H114325   8.312   2.301   3.295 -0.3668  0.5473  0.6569
 4801TIP3    H214326   8.242   2.352   3.419  0.4829 -0.4017  1.5407
 4802TIP3   OH214327   1.521   4.667   3.768  0.5515  0.3996 -0.0486
 4802TIP3    H114328   1.606   4.697   3.800  0.0929  1.2421  0.4353
 4802TIP3    H214329   1.463   4.677   3.844  0.0907 -0.4665 -0.2841
 4803TIP3   OH214330   3.874   8.148   1.198 -0.3741  0.0385 -0.4701
 4803TIP3    H114331   3.798   8.152   1.138 -0.5316  1.5798 -0.2112
 4803TIP3    H214332   3.939   8.204   1.157  0.0258  0.0164  0.1287
 4804TIP3   OH214333   8.476   0.445   2.547 -0.0354  0.0711 -0.5576
 4804TIP3    H114334   8.416   0.502   2.595 -0.6508  0.8908 -2.2487
 4804TIP3    H214335   8.421   0.376   2.511  0.4412 -0.5900 -0.0663
 4805TIP3   OH214336   5.087   7.621   3.308  0.0199  0.1168 -0.7733
 4805TIP3    H114337   5.120   7.710   3.317 -0.0247 -0.0380  1.6724
 4805TIP3    H214338   5.142   7.569   3.366 -0.4436 -1.3248 -1.5664
 4806TIP3   OH214339   7.672   6.159   5.968  0.1313  0.0100 -0.3675
 4806TIP3    H114340   7.766   6.145   5.976  0.0544 -0.1884  0.2277
 4806TIP3    H214341   7.652   6.228   6.031  0.2581  1.8070 -2.1932
 4807TIP3   OH214342   1.120   5.284   6.905 -0.0728  0.2368 -0.1797
 4807TIP3    H114343   1.051   5.347   6.926  1.6485  1.3508  2.7032
 4807TIP3    H214344   1.109   5.214   6.969  1.3699  0.3802  0.2618
 4808TIP3   OH214345   6.466   3.669   5.931  0.5494  0.1428 -0.4174
 4808TIP3    H114346   6.508   3.739   5.981 -2.4982  0.7314  1.6103
 4808TIP3    H214347   6.430   3.712   5.854  0.6970  0.3472 -0.3717
 4809TIP3   OH214348   1.726   1.081   6.291 -0.0691  0.2205  0.1509
 4809TIP3    H114349   1.700   1.173   6.279 -0.0162 -0.1218 -3.4858
 4809TIP3    H214350   1.662   1.031   6.240  2.4406 -1.3673 -1.6391
 4810TIP3   OH214351   0.169   7.264   5.218  0.1341 -0.5332 -0.4638
 4810TIP3    H114352   0.104   7.266   5.288  1.0277  1.7180  0.3832
 4810TIP3    H214353   0.220   7.184   5.235 -0.1133 -0.3916  1.0601
 4811TIP3   OH214354   1.847   4.877   5.318  0.3462  0.1466 -0.2015
 4811TIP3    H114355   1.795   4.800   5.296  0.5090 -0.2734  0.8498
 4811TIP3    H214356   1.791   4.930   5.374 -0.7613  2.1333 -2.9771
 4812TIP3   OH214357   4.803   1.582   3.954 -0.0834 -0.2710  0.0994
 4812TIP3    H114358   4.848   1.582   3.869  0.3830 -0.9543  0.3357
 4812TIP3    H214359   4.858   1.636   4.010  0.5058 -1.1463  0.4021
 4813TIP3   OH214360   0.543   7.082   5.531  0.3065 -0.5178  0.6191
 4813TIP3    H114361   0.602   7.133   5.476 -0.1833 -1.7932 -1.1981
 4813TIP3    H214362   0.516   7.142   5.600  1.8996  0.7822  0.1687
 4814TIP3   OH214363   0.643   4.285   3.467  0.3051  0.2231 -0.0465
 4814TIP3    H114364   0.614   4.261   3.556  1.0617  0.5632  0.2923
 4814TIP3    H214365   0.733   4.253   3.461  0.4128  0.6036 -0.5351
 4815TIP3   OH214366   8.108   4.291   6.427  0.2482  0.0373 -0.5341
 4815TIP3    H114367   8.186   4.267   6.377  0.8868 -0.7892  0.8090
 4815TIP3    H214368   8.141   4.332   6.507 -0.6407 -0.9057  0.3588
 4816TIP3   OH214369   3.576   7.578   3.236 -0.0273 -0.5702 -0.2021
 4816TIP3    H114370   3.631   7.650   3.268 -1.1098 -0.9063  2.7647
 4816TIP3    H214371   3.509   7.621   3.182  0.4855  0.3963 -0.0957
 4817TIP3   OH214372   7.453   7.276   3.058  0.0847  0.3033  0.0637
 4817TIP3    H114373   7.383   7.296   3.121  0.1347 -1.5812  0.7931
 4817TIP3    H214374   7.436   7.334   2.984 -2.5082 -0.3500  0.0482
 4818TIP3   OH214375   1.487   6.180   3.689 -0.2420  0.2581  0.5225
 4818TIP3    H114376   1.536   6.256   3.721 -1.4068 -0.1563  3.6231
 4818TIP3    H214377   1.548   6.107   3.699 -0.5832  0.1395  1.8856
 4819TIP3   OH214378   5.453   2.586   7.058  0.5691 -0.3355  0.3394
 4819TIP3    H114379   5.509   2.539   6.996  0.3738 -0.3067  0.1407
 4819TIP3    H214380   5.399   2.518   7.098 -0.7663 -0.1425 -1.0200
 4820TIP3   OH214381   7.601   7.281   5.538 -0.2982  0.0792  0.2560
 4820TIP3    H114382   7.604   7.373   5.566 -1.1637 -0.3694  1.9945
 4820TIP3    H214383   7.508   7.265   5.519 -0.1239 -0.3875 -0.2270
 4821TIP3   OH214384   7.851   7.404   4.731  0.1316  0.5496  0.4784
 4821TIP3    H114385   7.828   7.311   4.725  0.4796  0.5362 -1.0679
 4821TIP3    H214386   7.803   7.445   4.659  0.7530  1.4057  0.5366
 4822TIP3   OH214387   0.917   0.894   3.298  0.2579  0.1097  0.4318
 4822TIP3    H114388   0.956   0.948   3.367 -2.0329 -0.0078  1.9351
 4822TIP3    H214389   0.923   0.948   3.219  0.2993  1.5254  1.3673
 4823TIP3   OH214390   2.189   5.055   6.189  0.1346  0.1839  0.1710
 4823TIP3    H114391   2.160   4.970   6.154 -0.5218  1.6087 -3.1935
 4823TIP3    H214392   2.285   5.051   6.184  0.1636 -0.6987  1.0703
 4824TIP3   OH214393   4.832   7.228   5.309 -0.1521  0.1027 -0.4552
 4824TIP3    H114394   4.781   7.308   5.319  0.1115  0.5958 -2.5380
 4824TIP3    H214395   4.772   7.158   5.333 -1.1775  0.8024 -0.9047
 4825TIP3   OH214396   8.492   4.330   0.023  0.4383 -0.5849  0.2669
 4825TIP3    H114397   8.481   4.279   0.103  2.3750  0.4726  1.2921
 4825TIP3    H214398   8.449   4.413   0.042  2.1065  0.1978  0.8227
 4826TIP3   OH214399   7.549   6.438   4.337 -0.3965 -0.0929 -0.1652
 4826TIP3    H114400   7.642   6.450   4.357 -0.5200  2.1626 -0.6939
 4826TIP3    H214401   7.508   6.520   4.365 -2.1353 -0.7977 -0.5341
 4827TIP3   OH214402   0.429   4.158   0.112 -0.9034 -0.3821  0.2001
 4827TIP3    H114403   0.505   4.101   0.119 -1.4671 -1.1927 -0.0353
 4827TIP3    H214404   0.385   4.150   0.196 -0.9335 -0.2146  0.2009
 4828TIP3   OH214405   7.375   7.003   6.950  0.7060  0.7158 -0.0005
 4828TIP3    H114406   7.461   7.024   6.913  0.3403  0.4434 -1.0351
 4828TIP3    H214407   7.352   6.919   6.911  0.7852 -0.1388  1.7212
 4829TIP3   OH214408   6.002   2.983   6.928  0.2058 -0.9161 -0.3557
 4829TIP3    H114409   5.935   2.934   6.976  0.7812 -2.7414 -1.3205
 4829TIP3    H214410   6.030   2.923   6.859  0.1103  1.2140 -2.3819
 4830TIP3   OH214411   6.652   5.456   0.028  0.1623 -0.0395  0.2569
 4830TIP3    H114412   6.746   5.437   0.025 -0.4043 -3.3700 -0.2913
 4830TIP3    H214413   6.612   5.376   0.063 -2.5029  1.1987  0.3141
 4831TIP3   OH214414   8.350   0.969   4.625  0.7122  0.0436  0.1723
 4831TIP3    H114415   8.321   1.059   4.608 -2.4382 -0.8656  0.1665
 4831TIP3    H214416   8.377   0.970   4.717  0.3653  0.9082  0.2776
 4832TIP3   OH214417   7.098   5.568   2.288  0.3233 -0.2826  0.2306
 4832TIP3    H114418   7.005   5.548   2.288  0.1692  0.2300  2.0846
 4832TIP3    H214419   7.113   5.617   2.207 -1.7007  2.4056  1.3179
 4833TIP3   OH214420   8.083   1.857   3.232 -0.6719  0.1934  0.2041
 4833TIP3    H114421   8.008   1.876   3.288 -0.3153  1.8938  0.1631
 4833TIP3    H214422   8.145   1.814   3.291 -0.7965  0.8379  0.8286
 4834TIP3   OH214423   2.363   7.839   6.682  0.4162  0.3209 -0.1893
 4834TIP3    H114424   2.295   7.773   6.696 -0.2791  0.7049 -1.6146
 4834TIP3    H214425   2.414   7.805   6.608  0.7516  0.8404 -0.1969
 4835TIP3   OH214426   2.562   5.318   1.222  0.1266 -0.3468  0.5541
 4835TIP3    H114427   2.549   5.408   1.253  0.2067 -0.0028 -0.3984
 4835TIP3    H214428   2.536   5.320   1.130  2.0499 -0.8074 -0.0423
 4836TIP3   OH214429   1.861   6.474   3.488 -0.0671 -0.1316 -0.1744
 4836TIP3    H114430   1.888   6.383   3.500 -0.3425 -0.4989 -2.0241
 4836TIP3    H214431   1.800   6.472   3.415  0.9679  1.6963 -1.1789
 4837TIP3   OH214432   2.259   7.030   3.676  0.1490  0.0867 -0.7755
 4837TIP3    H114433   2.167   7.008   3.661  0.2269 -0.8228  0.0248
 4837TIP3    H214434   2.259   7.126   3.685 -1.3981 -0.0895  3.4118
 4838TIP3   OH214435   7.305   5.202   6.892 -0.0003  0.6154 -0.3198
 4838TIP3    H114436   7.347   5.283   6.921 -0.4612  1.1228 -1.0105
 4838TIP3    H214437   7.370   5.134   6.906  1.0582  1.3753 -1.3157
 4839TIP3   OH214438   7.726   3.813   1.186 -0.1515  0.8109  0.2732
 4839TIP3    H114439   7.674   3.756   1.243 -2.0383  2.4893  0.3590
 4839TIP3    H214440   7.757   3.755   1.116 -0.4016 -0.6617  1.3260
 4840TIP3   OH214441   3.073   0.112   4.476 -0.1656 -0.0355  0.0871
 4840TIP3    H114442   3.161   0.148   4.467 -0.3429  0.2323 -0.6032
 4840TIP3    H214443   3.063   0.054   4.400 -0.8389  0.4856 -0.2327
 4841TIP3   OH214444   0.081   4.196   4.800 -0.0941  0.1078  0.4481
 4841TIP3    H114445   0.109   4.190   4.891 -1.2021 -0.1451  0.7922
 4841TIP3    H214446   0.118   4.119   4.758  0.6954  0.3984  0.6004
 4842TIP3   OH214447   2.208   2.558   1.863 -0.5129 -0.2004 -0.3526
 4842TIP3    H114448   2.226   2.526   1.775 -0.3705 -1.2244  0.0339
 4842TIP3    H214449   2.141   2.499   1.897 -0.5757  0.1920  0.2208
 4843TIP3   OH214450   4.204   6.394   4.625  0.0167 -0.3253 -0.2961
 4843TIP3    H114451   4.121   6.361   4.660 -0.5047 -1.7773 -2.7035
 4843TIP3    H214452   4.190   6.489   4.618 -1.0468 -0.4159  0.2706
 4844TIP3   OH214453   4.978   5.497   6.669 -0.3683 -0.3365  0.3172
 4844TIP3    H114454   4.925   5.565   6.627  0.7753 -0.3687 -1.2701
 4844TIP3    H214455   4.946   5.494   6.759 -3.4036 -0.7102 -0.6577
 4845TIP3   OH214456   8.262   0.807   0.777  0.1343  0.1174 -0.0771
 4845TIP3    H114457   8.265   0.902   0.767 -1.4060  0.3832  1.4595
 4845TIP3    H214458   8.229   0.774   0.693 -2.0586  1.2253  0.2809
 4846TIP3   OH214459   5.930   5.592   6.447  0.2148 -0.6782 -0.1376
 4846TIP3    H114460   5.835   5.590   6.430  0.3639  0.2587 -1.1953
 4846TIP3    H214461   5.955   5.683   6.433  1.2616 -0.8951  0.2482
 4847TIP3   OH214462   6.646   6.922   7.020 -0.0575 -0.0118 -0.4115
 4847TIP3    H114463   6.556   6.940   7.046 -0.5148 -2.8493  0.3641
 4847TIP3    H214464   6.699   6.964   7.088 -0.9367 -0.5630  0.6472
 4848TIP3   OH214465   2.572   7.396   2.068 -0.4894  0.0707 -0.1033
 4848TIP3    H114466   2.494   7.411   2.121 -2.4630 -0.4447 -2.6429
 4848TIP3    H214467   2.564   7.306   2.037  2.2424 -0.7166  1.1726
 4849TIP3   OH214468   4.052   4.113   5.888 -0.1420 -0.2700 -0.1573
 4849TIP3    H114469   4.025   4.186   5.944  0.2674  0.6590 -1.1332
 4849TIP3    H214470   4.008   4.129   5.805 -1.2566 -1.9912  0.0686
 4850TIP3   OH214471   4.065   0.722   5.943 -0.4176  0.0847 -0.0897
 4850TIP3    H114472   3.979   0.686   5.924 -0.5107  0.8046 -1.0737
 4850TIP3    H214473   4.109   0.654   5.994 -1.0304 -0.8953 -0.8479
 4851TIP3   OH214474   2.356   5.162   1.538  0.1919 -0.0257 -0.7296
 4851TIP3    H114475   2.307   5.154   1.620 -0.5659  0.1589 -1.1569
 4851TIP3    H214476   2.303   5.116   1.474 -0.7678  2.4015 -1.7636
 4852TIP3   OH214477   1.129   5.033   7.032 -0.5296 -0.1871  0.3143
 4852TIP3    H114478   1.105   4.944   7.005  0.0515 -0.3360  0.2781
 4852TIP3    H214479   1.196   5.021   7.099  0.3474  0.2293 -0.4609
 4853TIP3   OH214480   8.676   0.465   0.193  0.6216 -0.0273 -0.4950
 4853TIP3    H114481   8.637   0.382   0.166 -0.5075  0.2873  0.1112
 4853TIP3    H214482   8.712   0.502   0.113 -0.9233 -0.0340 -1.2314
 4854TIP3   OH214483   3.281   6.856   3.198  0.0749 -0.5335  0.1075
 4854TIP3    H114484   3.364   6.815   3.173 -0.0930 -0.6000 -0.3492
 4854TIP3    H214485   3.264   6.822   3.286  0.3981 -0.7274  0.0994
 4855TIP3   OH214486   3.706   3.196   5.218  0.4865  0.3050  0.1208
 4855TIP3    H114487   3.628   3.185   5.164  0.0278  1.7623  0.4160
 4855TIP3    H214488   3.709   3.118   5.272 -1.6381  0.8394  1.1296
 4856TIP3   OH214489   7.753   8.006   3.941 -0.4067  0.2584  0.5794
 4856TIP3    H114490   7.670   8.051   3.959 -1.4330 -1.9483  1.7120
 4856TIP3    H214491   7.775   7.962   4.023  0.7281 -1.0160 -0.3678
 4857TIP3   OH214492   3.790   0.485   2.464  0.2655  0.4843 -0.7541
 4857TIP3    H114493   3.724   0.435   2.416 -0.6558  0.7852  0.1736
 4857TIP3    H214494   3.825   0.423   2.529  0.1021  0.6442 -0.5121
 4858TIP3   OH214495   1.839   1.203   0.827  0.1317  0.5070  0.1507
 4858TIP3    H114496   1.871   1.123   0.786  1.7713  1.4145 -0.4267
 4858TIP3    H214497   1.777   1.239   0.764  0.0779  0.1615  0.0029
 4859TIP3   OH214498   1.406   1.247   3.696 -0.1197 -0.0990 -0.1478
 4859TIP3    H114499   1.349   1.194   3.751  0.7064  0.3248  1.1439
 4859TIP3    H214500   1.489   1.251   3.744  1.8444 -2.5605 -2.9203
 4860TIP3   OH214501   8.201   1.827   3.746  0.0607 -0.2195 -0.1790
 4860TIP3    H114502   8.280   1.776   3.730 -0.3671 -1.3508  1.0721
 4860TIP3    H214503   8.159   1.783   3.820 -2.4775 -0.5162 -1.6667
 4861TIP3   OH214504   5.572   7.252   0.157  0.0171 -0.4017  0.3485
 4861TIP3    H114505   5.492   7.299   0.181  0.3088 -0.0354  0.6237
 4861TIP3    H214506   5.637   7.283   0.219 -0.1655 -2.3968  1.6345
 4862TIP3   OH214507   7.520   5.500   5.583 -0.0904  0.2304  0.4273
 4862TIP3    H114508   7.504   5.495   5.677 -2.0957 -1.0647  0.0663
 4862TIP3    H214509   7.500   5.591   5.560 -0.0123  0.4433  1.1733
 4863TIP3   OH214510   8.022   5.715   0.200 -0.3022 -0.2145 -0.5306
 4863TIP3    H114511   8.039   5.733   0.108  1.1832  1.1798 -0.0329
 4863TIP3    H214512   8.080   5.775   0.248 -1.2133 -0.7124  1.3150
 4864TIP3   OH214513   2.209   3.743   0.894 -0.1162 -0.5726  0.0350
 4864TIP3    H114514   2.221   3.825   0.846  1.6053 -0.0989  1.1819
 4864TIP3    H214515   2.228   3.674   0.831 -0.5963 -0.0717 -0.6731
 4865TIP3   OH214516   5.361   7.722   6.322 -0.2664 -0.2846 -0.6259
 4865TIP3    H114517   5.312   7.643   6.302  0.0420 -0.0963 -2.2903
 4865TIP3    H214518   5.301   7.794   6.302 -0.2165 -0.0894 -0.0786
 4866TIP3   OH214519   7.810   6.976   3.739 -0.4980 -0.0409 -0.5518
 4866TIP3    H114520   7.812   6.881   3.750  0.0135  0.1327  1.2367
 4866TIP3    H214521   7.901   7.000   3.723 -0.6942  0.1120 -1.4696
 4867TIP3   OH214522   5.933   4.797   4.970 -0.0321 -0.2066  0.3346
 4867TIP3    H114523   5.961   4.820   5.059  2.0635  0.2495 -0.3775
 4867TIP3    H214524   5.986   4.854   4.913  1.0478 -2.6774 -1.3100
 4868TIP3   OH214525   8.438   3.593   2.958  0.0160  0.2589  0.4322
 4868TIP3    H114526   8.376   3.578   3.029 -2.0604  0.4354 -1.2267
 4868TIP3    H214527   8.415   3.527   2.892 -0.2332  2.0175 -1.3370
 4869TIP3   OH214528   2.028   7.577   3.562  0.1283 -0.1183  0.2294
 4869TIP3    H114529   2.040   7.665   3.597 -1.9679 -0.3442  1.6558
 4869TIP3    H214530   2.058   7.519   3.632 -0.7730 -0.5436  0.2771
 4870TIP3   OH214531   0.587   1.563   3.749 -0.2341 -0.3511  0.0749
 4870TIP3    H114532   0.643   1.567   3.827  1.2857  0.6085 -1.0126
 4870TIP3    H214533   0.640   1.604   3.680 -1.3303 -1.6598 -1.5934
 4871TIP3   OH214534   2.629   3.821   6.184  0.1347 -0.6124 -0.1025
 4871TIP3    H114535   2.558   3.884   6.199  0.4160 -0.5097  0.7997
 4871TIP3    H214536   2.693   3.869   6.132 -0.2919 -0.6015 -0.6310
 4872TIP3   OH214537   5.433   5.287   4.095  0.3555 -0.1212  0.4307
 4872TIP3    H114538   5.361   5.233   4.129  0.6402 -0.6044  0.2676
 4872TIP3    H214539   5.511   5.234   4.107  0.4140 -0.5334 -1.4571
 4873TIP3   OH214540   4.334   0.089   2.475  0.2121  0.2492 -0.1596
 4873TIP3    H114541   4.282   0.117   2.400  1.0827  1.0403 -0.4947
 4873TIP3    H214542   4.273   0.093   2.549 -0.9389 -1.5376 -0.9542
 4874TIP3   OH214543   3.545   7.497   4.649  0.0389 -0.1366  0.1522
 4874TIP3    H114544   3.512   7.424   4.598  0.5991  0.6051 -1.3186
 4874TIP3    H214545   3.487   7.501   4.725 -0.0972 -1.9767  0.1827
 4875TIP3   OH214546   2.081   1.720   1.132  0.1775 -0.0006 -0.6476
 4875TIP3    H114547   2.150   1.731   1.067 -0.4968 -2.4014 -1.8489
 4875TIP3    H214548   2.030   1.645   1.102 -0.5025 -0.8771  2.3640
 4876TIP3   OH214549   5.665   1.412   5.030 -0.0443  0.1018 -0.2536
 4876TIP3    H114550   5.741   1.470   5.020  1.4668 -1.6939  0.0395
 4876TIP3    H214551   5.646   1.381   4.942 -1.3753  1.6326 -0.5230
 4877TIP3   OH214552   1.591   3.072   6.722  0.5277 -0.4174 -0.2608
 4877TIP3    H114553   1.682   3.075   6.752  0.8046 -0.7852 -1.0283
 4877TIP3    H214554   1.556   2.992   6.760  0.3944 -0.0585  0.3810
 4878TIP3   OH214555   2.564   7.706   3.825 -0.5164 -0.6583  0.1494
 4878TIP3    H114556   2.633   7.772   3.829 -0.5405 -0.5342 -1.1683
 4878TIP3    H214557   2.601   7.634   3.775  0.1377 -2.4917  3.0609
 4879TIP3   OH214558   2.400   1.593   3.589  0.3286 -0.2307  0.0807
 4879TIP3    H114559   2.471   1.539   3.623  1.5751 -1.0403 -3.3839
 4879TIP3    H214560   2.433   1.683   3.595  0.3903 -0.3086  1.1264
 4880TIP3   OH214561   3.261   7.163   2.716  0.0655 -0.0540 -0.4984
 4880TIP3    H114562   3.235   7.148   2.626 -1.4958 -0.6164  0.0117
 4880TIP3    H214563   3.236   7.254   2.734 -0.4886 -0.2298 -0.3634
 4881TIP3   OH214564   0.643   5.448   3.134 -0.0420  0.2174  0.3690
 4881TIP3    H114565   0.674   5.449   3.224 -1.4190  1.0096  0.8768
 4881TIP3    H214566   0.697   5.513   3.089 -0.0555  0.6035  0.8962
 4882TIP3   OH214567   4.309   3.920   5.877 -0.2413 -0.1469 -0.1836
 4882TIP3    H114568   4.362   3.999   5.892  0.2036 -0.4488 -0.1521
 4882TIP3    H214569   4.283   3.926   5.785  1.2289 -0.8192 -0.6649
 4883TIP3   OH214570   1.650   6.237   0.098  0.3674  0.3707 -0.2086
 4883TIP3    H114571   1.623   6.188   0.176  2.5469  0.2936  0.5621
 4883TIP3    H214572   1.581   6.220   0.034 -0.5545 -1.0813  1.1047
 4884TIP3   OH214573   7.458   1.878   0.840 -0.7429 -0.2795 -0.3113
 4884TIP3    H114574   7.430   1.901   0.929 -0.3649  1.3664 -0.5899
 4884TIP3    H214575   7.548   1.909   0.835 -0.1841 -1.9021 -0.7370
 4885TIP3   OH214576   4.621   2.880   6.917 -0.3154  0.0083  0.1550
 4885TIP3    H114577   4.598   2.789   6.901  0.3766 -0.0302 -0.6467
 4885TIP3    H214578   4.618   2.922   6.831 -1.6565  0.9952  0.6458
 4886TIP3   OH214579   5.329   2.084   6.669 -0.4390 -0.3509 -0.4526
 4886TIP3    H114580   5.414   2.080   6.713  0.2244 -0.7294 -1.7080
 4886TIP3    H214581   5.331   2.168   6.622 -1.3890  0.3401  0.6888
 4887TIP3   OH214582   7.077   5.560   2.554  0.0202  0.7227 -0.1936
 4887TIP3    H114583   7.101   5.567   2.461  2.4317  2.0250  0.4470
 4887TIP3    H214584   7.159   5.538   2.599 -0.9854  0.6392  1.6969
 4888TIP3   OH214585   1.727   4.396   5.613  0.0716  0.6071  0.5547
 4888TIP3    H114586   1.795   4.464   5.606  1.3982 -0.8348 -1.5193
 4888TIP3    H214587   1.768   4.327   5.665 -1.6072  1.6417  3.4876
 4889TIP3   OH214588   4.552   6.279   7.044 -0.1784 -0.2827 -0.1461
 4889TIP3    H114589   4.591   6.215   7.105  0.7391 -0.3278 -0.7507
 4889TIP3    H214590   4.540   6.229   6.963  0.5508  0.2976 -0.6265
 4890TIP3   OH214591   5.137   4.660   3.969 -0.4973  0.3121 -0.0869
 4890TIP3    H114592   5.176   4.573   3.975  0.8340  0.8988  0.1276
 4890TIP3    H214593   5.070   4.662   4.038 -0.0272 -0.2966  0.3961
 4891TIP3   OH214594   0.279   0.805   4.428 -0.3274 -0.1814  0.5149
 4891TIP3    H114595   0.227   0.869   4.380 -1.7023 -1.2010  0.5984
 4891TIP3    H214596   0.357   0.793   4.375 -0.1878  1.2944  0.3257
 4892TIP3   OH214597   2.788   0.788   3.397 -0.3799  0.6617 -1.3749
 4892TIP3    H114598   2.803   0.703   3.355  0.2700  1.7252 -3.4168
 4892TIP3    H214599   2.858   0.844   3.364  0.4802  1.5227  1.5530
 4893TIP3   OH214600   1.567   0.062   5.423  0.3865 -0.8591 -0.2341
 4893TIP3    H114601   1.498   0.089   5.363 -0.3724 -1.6233  0.2706
 4893TIP3    H214602   1.548  -0.030   5.442  1.3136 -0.9737  0.2308
 4894TIP3   OH214603   0.519   5.113   0.113  0.3657 -0.5913  0.1039
 4894TIP3    H114604   0.447   5.107   0.176 -0.3568 -0.2805 -0.6624
 4894TIP3    H214605   0.531   5.208   0.100  1.2352 -0.6354  0.5829
 4895TIP3   OH214606   3.627   7.030   5.514 -0.6017  0.3370  0.4678
 4895TIP3    H114607   3.643   7.052   5.422 -0.9431  1.7027  0.7189
 4895TIP3    H214608   3.714   7.035   5.555 -0.5940  0.6430  0.4113
 4896TIP3   OH214609   2.180   0.464   4.525 -0.0124 -0.0226  0.1016
 4896TIP3    H114610   2.173   0.369   4.536  1.2169 -0.3043 -1.2409
 4896TIP3    H214611   2.152   0.479   4.435  3.4952  0.3410 -1.0636
 4897TIP3   OH214612   2.665   2.105   7.054 -0.2921  0.0016  0.7825
 4897TIP3    H114613   2.749   2.137   7.024  0.3354 -1.4518  0.8799
 4897TIP3    H214614   2.684   2.017   7.089 -1.4675  0.4637  2.7679
 4898TIP3   OH214615   5.719   0.011   3.991 -0.0425 -0.0390 -0.2695
 4898TIP3    H114616   5.777   0.028   3.916  1.0146 -0.3454  0.4621
 4898TIP3    H214617   5.777   0.008   4.066 -0.8087 -1.8317  0.3033
 4899TIP3   OH214618   6.146   7.020   1.252 -0.0594 -0.2548  0.3469
 4899TIP3    H114619   6.107   6.963   1.186  1.3154 -0.6721 -0.1311
 4899TIP3    H214620   6.190   7.088   1.202 -1.2907  0.9975  0.9071
 4900TIP3   OH214621   3.890   2.944   0.130  0.2208 -0.3178  0.0099
 4900TIP3    H114622   3.859   2.992   0.207 -0.4724 -1.2902  0.3619
 4900TIP3    H214623   3.980   2.919   0.153 -0.1662 -1.0964  0.7811
 4901TIP3   OH214624   3.834   1.711   3.666  0.2413  0.5363  0.1088
 4901TIP3    H114625   3.866   1.640   3.721 -2.3040  0.0825  1.1437
 4901TIP3    H214626   3.756   1.675   3.623 -0.7006  2.4489  0.0984
 4902TIP3   OH214627   3.767   3.269   3.254 -0.4500  0.1852 -0.0869
 4902TIP3    H114628   3.806   3.183   3.239  1.2414  0.7410  0.8311
 4902TIP3    H214629   3.839   3.322   3.290 -1.8062  1.5778  0.6881
 4903TIP3   OH214630   1.622   3.479   5.360 -0.6311 -0.5584  0.3381
 4903TIP3    H114631   1.655   3.543   5.424 -2.2854  1.9192 -1.1263
 4903TIP3    H214632   1.549   3.436   5.404 -1.0616  0.3423  0.5171
 4904TIP3   OH214633   4.110   5.229   2.498  0.2388 -0.0118 -0.0436
 4904TIP3    H114634   4.079   5.261   2.584 -2.0528 -2.4834  0.2049
 4904TIP3    H214635   4.189   5.180   2.518  0.6560  0.8106  0.3824
 4905TIP3   OH214636   0.966   3.821   1.923 -0.0464 -0.7436  0.0907
 4905TIP3    H114637   0.987   3.763   1.996 -0.2232  0.1539  0.8818
 4905TIP3    H214638   0.879   3.794   1.894  0.6941 -2.1771 -0.8888
 4906TIP3   OH214639   4.679   7.685   5.237  0.2697 -0.3683  0.1531
 4906TIP3    H114640   4.741   7.722   5.299 -1.3334  0.8780  1.0994
 4906TIP3    H214641   4.659   7.598   5.271  1.0606 -0.5661  0.1310
 4907TIP3   OH214642   1.639   6.725   3.611  0.0818 -0.0536 -0.2752
 4907TIP3    H114643   1.570   6.736   3.546 -0.3445 -0.9637  0.0057
 4907TIP3    H214644   1.710   6.781   3.581  0.2064 -1.0686 -1.9697
 4908TIP3   OH214645   4.927   8.092   3.870 -0.1791  0.0503  0.4750
 4908TIP3    H114646   4.883   8.133   3.944  1.1019 -1.2114  2.0397
 4908TIP3    H214647   4.997   8.153   3.847 -0.5285  0.4093  0.3586
 4909TIP3   OH214648   8.608   6.760   1.330  0.4478  0.2526  0.0494
 4909TIP3    H114649   8.698   6.755   1.362 -0.0062 -1.3089  1.1996
 4909TIP3    H214650   8.563   6.817   1.392  0.3220 -0.1130  0.2954
 4910TIP3   OH214651   1.593   0.118   3.697 -0.1384  0.5817 -0.3609
 4910TIP3    H114652   1.575   0.090   3.607  0.2361 -0.5618 -0.1070
 4910TIP3    H214653   1.528   0.072   3.749 -0.4405  1.3486 -0.0511
 4911TIP3   OH214654   4.265   0.283   5.173  0.1879  0.0802  0.5240
 4911TIP3    H114655   4.286   0.283   5.266 -0.3599  1.2678  0.6648
 4911TIP3    H214656   4.171   0.263   5.170  0.1602  0.2576  0.2386
 4912TIP3   OH214657   4.658   8.055   4.123 -0.5683  0.0373  0.4717
 4912TIP3    H114658   4.706   8.124   4.076 -1.3593 -0.7253 -1.5558
 4912TIP3    H214659   4.727   7.998   4.158  0.0876 -0.6538 -1.7823
 4913TIP3   OH214660   5.388   3.856   3.613 -0.0769  0.1997 -0.1417
 4913TIP3    H114661   5.351   3.915   3.678 -1.4069 -1.1810  0.4206
 4913TIP3    H214662   5.418   3.781   3.663 -0.5522 -0.6178 -1.0389
 4914TIP3   OH214663   5.768   3.958   6.609  0.0005 -0.7003 -0.0382
 4914TIP3    H114664   5.857   3.991   6.628  0.1843 -0.3466 -1.4345
 4914TIP3    H214665   5.739   3.921   6.692  2.0316 -2.1710  0.0893
 4915TIP3   OH214666   5.361   4.115   5.058  0.0398  0.0994  0.7232
 4915TIP3    H114667   5.443   4.085   5.018 -0.4626 -0.2674 -0.0654
 4915TIP3    H214668   5.323   4.173   4.992 -0.5279 -0.0494  0.9165
 4916TIP3   OH214669   4.079   2.093   0.580  0.1365 -0.1111 -0.2126
 4916TIP3    H114670   4.004   2.129   0.627  0.4880  0.8338 -0.3520
 4916TIP3    H214671   4.155   2.127   0.626  0.4858  0.1716 -0.9809
 4917TIP3   OH214672   2.386   7.941   2.966 -0.1237 -0.0549  0.4372
 4917TIP3    H114673   2.464   7.931   3.020 -2.1133  0.1981  3.6180
 4917TIP3    H214674   2.331   8.002   3.014 -2.4739 -0.5205 -1.4501
 4918TIP3   OH214675   1.998   6.009   0.626 -0.3073  0.0421  0.1997
 4918TIP3    H114676   2.054   6.081   0.596 -0.5713 -0.3773 -1.4112
 4918TIP3    H214677   2.060   5.944   0.660 -0.0054  0.6373  0.8056
 4919TIP3   OH214678   1.335   7.661   6.093 -0.0828  0.6724  0.3581
 4919TIP3    H114679   1.392   7.712   6.034 -0.8383  1.4612  0.2916
 4919TIP3    H214680   1.348   7.570   6.065  0.7144  0.8894 -0.0256
 4920TIP3   OH214681   8.182   5.827   6.723  0.1178  0.2899 -0.2581
 4920TIP3    H114682   8.151   5.808   6.635 -0.8936 -3.3355  0.6981
 4920TIP3    H214683   8.271   5.861   6.710 -0.4137  0.9444 -2.6760
 4921TIP3   OH214684   0.958   4.956   3.943  0.3704  0.2966 -0.2846
 4921TIP3    H114685   1.029   4.995   3.993  0.9543 -0.8759 -0.1621
 4921TIP3    H214686   0.945   4.870   3.983 -1.8929  0.9039  0.4178
 4922TIP3   OH214687   5.598   6.330   1.798  0.0222 -0.4227  0.3409
 4922TIP3    H114688   5.525   6.392   1.799  0.3977  0.1492  3.4280
 4922TIP3    H214689   5.597   6.293   1.710 -1.6692  2.2470 -0.8908
 4923TIP3   OH214690   6.325   3.232   2.657 -0.1191  0.3181 -0.6934
 4923TIP3    H114691   6.328   3.227   2.561 -1.0576  1.6096 -0.8166
 4923TIP3    H214692   6.249   3.179   2.681  0.1076  0.0063 -0.6599
 4924TIP3   OH214693   8.173   7.567   5.776  0.1190 -0.5303  0.1536
 4924TIP3    H114694   8.260   7.607   5.783 -0.0325 -0.3602  1.1522
 4924TIP3    H214695   8.117   7.637   5.744  0.5509 -0.9461 -1.6361
 4925TIP3   OH214696   6.459   4.769   5.901 -0.0347 -0.3689 -0.1670
 4925TIP3    H114697   6.444   4.863   5.912  0.7879 -0.5118  3.1474
 4925TIP3    H214698   6.412   4.728   5.973  1.6022 -2.2819 -0.0996
 4926TIP3   OH214699   2.705   6.485   2.615  0.7629 -0.1545  0.5934
 4926TIP3    H114700   2.681   6.517   2.528  0.7138  0.7414  0.9347
 4926TIP3    H214701   2.801   6.478   2.612  0.6354 -2.6568 -0.3890
 4927TIP3   OH214702   0.090   2.011   4.315  0.2364  0.0306 -0.1141
 4927TIP3    H114703   0.152   1.958   4.265 -0.0049 -1.3712  0.9979
 4927TIP3    H214704   0.142   2.047   4.387  0.0045 -0.2551  0.2012
 4928TIP3   OH214705   3.666   6.722   6.605  0.2983  0.1967 -0.1618
 4928TIP3    H114706   3.660   6.643   6.659  1.5561  0.5503  0.5174
 4928TIP3    H214707   3.585   6.770   6.624 -1.2163 -1.5586 -1.6908
 4929TIP3   OH214708   5.271   7.181   1.267 -0.5228 -0.1555  0.3570
 4929TIP3    H114709   5.214   7.239   1.217 -0.6733  0.3656  1.1031
 4929TIP3    H214710   5.213   7.140   1.332 -0.5725 -1.7416 -0.6366
 4930TIP3   OH214711   6.455   5.808   1.941  0.1596  0.5832 -0.3081
 4930TIP3    H114712   6.539   5.783   1.902 -0.1764  2.4115 -2.3571
 4930TIP3    H214713   6.469   5.896   1.975 -0.7835  0.6702 -0.1041
 4931TIP3   OH214714   4.363   5.582   1.172  0.0712 -0.1898  0.2135
 4931TIP3    H114715   4.453   5.609   1.150 -0.7296  1.5587 -1.1881
 4931TIP3    H214716   4.368   5.487   1.179  1.8657 -0.2159 -0.6792
 4932TIP3   OH214717   3.612   7.656   5.555  0.0207  0.0678 -0.1042
 4932TIP3    H114718   3.693   7.633   5.601 -0.3676  0.6213  0.8930
 4932TIP3    H214719   3.588   7.576   5.508  0.4431 -0.5136  0.6432
 4933TIP3   OH214720   0.124   1.840   1.375 -0.0861  0.2363  0.1573
 4933TIP3    H114721   0.147   1.925   1.411 -0.8981  1.2457 -1.5826
 4933TIP3    H214722   0.044   1.856   1.324 -1.4673 -1.9780  1.4386
 4934TIP3   OH214723   1.112   4.376   6.613  0.3164 -0.5243 -0.2855
 4934TIP3    H114724   1.063   4.451   6.578 -1.3888 -0.7272  1.5311
 4934TIP3    H214725   1.105   4.310   6.544  0.8224  0.5349 -1.4070
 4935TIP3   OH214726   1.552   1.357   1.818  0.1020 -0.5866  0.0080
 4935TIP3    H114727   1.576   1.306   1.740 -1.9596 -0.3584 -0.8341
 4935TIP3    H214728   1.603   1.437   1.811 -0.5454 -0.2786 -1.5014
 4936TIP3   OH214729   1.289   7.464   0.570  0.0131  0.2144  0.5346
 4936TIP3    H114730   1.323   7.446   0.657  0.8976  0.6899  0.2938
 4936TIP3    H214731   1.360   7.440   0.511 -0.4435  0.2420 -0.0372
 4937TIP3   OH214732   5.228   0.550   4.088 -0.5513  0.4801 -0.1129
 4937TIP3    H114733   5.321   0.532   4.090 -0.6997 -0.3401 -0.2707
 4937TIP3    H214734   5.214   0.598   4.007 -0.2833  0.4824 -0.1565
 4938TIP3   OH214735   8.187   6.997   5.519  0.5993 -0.2910  0.7824
 4938TIP3    H114736   8.178   6.996   5.423 -0.4456  0.0409  0.8684
 4938TIP3    H214737   8.105   6.958   5.551  0.6628  0.2035  1.5604
 4939TIP3   OH214738   4.264   4.724   2.808 -0.0845 -0.1582  0.3419
 4939TIP3    H114739   4.225   4.729   2.895  0.2324 -0.8572  0.5384
 4939TIP3    H214740   4.207   4.664   2.760 -1.0546  1.2926 -0.3894
 4940TIP3   OH214741   7.424   2.630   5.044  0.4576 -1.0498  0.0703
 4940TIP3    H114742   7.357   2.614   5.110 -1.0388  1.4770 -0.6942
 4940TIP3    H214743   7.427   2.549   4.993 -1.8718 -1.3534  0.2924
 4941TIP3   OH214744   5.812   6.093   4.858  0.2977 -0.0738  0.2049
 4941TIP3    H114745   5.779   6.032   4.923  0.9760 -0.7856 -0.1027
 4941TIP3    H214746   5.754   6.169   4.863 -1.2484 -1.1946 -0.1903
 4942TIP3   OH214747   3.992   8.045   2.564 -0.0981 -0.3594  0.5877
 4942TIP3    H114748   3.945   8.044   2.648 -1.1083  0.2866  0.0501
 4942TIP3    H214749   4.011   8.138   2.549 -0.4948 -0.3984 -0.2032
 4943TIP3   OH214750   7.780   1.548   1.810  0.0649  0.4164 -0.0379
 4943TIP3    H114751   7.709   1.493   1.844  0.7542  0.2674  1.2234
 4943TIP3    H214752   7.747   1.580   1.726 -0.1887 -2.2843 -1.0545
 4944TIP3   OH214753   8.176   6.071   3.131 -0.1748 -0.1641 -0.4845
 4944TIP3    H114754   8.181   6.024   3.214  2.1902 -0.5353 -0.7445
 4944TIP3    H214755   8.084   6.096   3.122 -0.9208 -2.0547  1.1475
 4945TIP3   OH214756   7.174   5.527   6.768 -0.9258 -0.0007 -0.5285
 4945TIP3    H114757   7.091   5.567   6.744 -1.3290 -0.9979 -0.8247
 4945TIP3    H214758   7.192   5.463   6.698 -0.3899 -0.4740  0.0242
 4946TIP3   OH214759   6.727   4.972   3.625  0.2709  0.0568  0.6468
 4946TIP3    H114760   6.648   5.001   3.580  0.8233 -0.7090 -0.8731
 4946TIP3    H214761   6.697   4.952   3.714 -1.1647  0.1264  0.2125
 4947TIP3   OH214762   1.204   5.775   6.742  0.5177 -0.2424  0.5573
 4947TIP3    H114763   1.189   5.837   6.671  0.0070 -0.4123  0.5135
 4947TIP3    H214764   1.116   5.749   6.771  0.7251 -1.1332  0.4167
 4948TIP3   OH214765   5.016   2.892   3.108 -0.6627  0.3408  0.2932
 4948TIP3    H114766   5.072   2.969   3.119  1.0113 -0.6156 -1.0156
 4948TIP3    H214767   5.008   2.882   3.013  2.0731 -2.9820  0.2289
 4949TIP3   OH214768   7.328   7.471   2.872  0.0247 -0.3815 -0.8694
 4949TIP3    H114769   7.330   7.556   2.830 -1.5617 -0.3509 -0.9557
 4949TIP3    H214770   7.240   7.465   2.909  0.6007 -1.3701  0.4250
 4950TIP3   OH214771   7.776   2.640   4.274 -0.1088  0.3875 -0.1571
 4950TIP3    H114772   7.698   2.696   4.281  0.4329  1.0616  0.6170
 4950TIP3    H214773   7.848   2.701   4.259  0.5137 -0.0662  0.8721
 4951TIP3   OH214774   5.885   2.721   1.277 -0.1598  0.2025 -0.0655
 4951TIP3    H114775   5.838   2.641   1.254 -1.1662  0.4300  1.1338
 4951TIP3    H214776   5.833   2.761   1.347  0.4343  1.7973 -0.4825
 4952TIP3   OH214777   8.219   5.808   0.880 -0.3589 -0.7435  0.3913
 4952TIP3    H114778   8.302   5.854   0.871  0.6721 -2.8200 -1.7852
 4952TIP3    H214779   8.168   5.862   0.941  1.5372  2.0334 -0.2943
 4953TIP3   OH214780   7.963   3.194   6.125 -0.3519 -0.1426 -0.1296
 4953TIP3    H114781   8.018   3.139   6.181  1.9510 -1.1868 -3.1832
 4953TIP3    H214782   7.997   3.283   6.136 -1.5013  0.1195  1.8103
 4954TIP3   OH214783   3.950   0.011   1.987  0.1827  0.1127 -0.1284
 4954TIP3    H114784   3.862  -0.025   1.993 -0.5388  1.3949 -2.0091
 4954TIP3    H214785   3.946   0.073   1.914  3.2041 -1.3337 -1.6916
 4955TIP3   OH214786   3.553   6.132   3.313  0.6174 -0.4330 -0.3772
 4955TIP3    H114787   3.482   6.145   3.250  1.9129 -0.9012 -2.0072
 4955TIP3    H214788   3.511   6.140   3.398 -0.9151  1.8882 -1.2553
 4956TIP3   OH214789   7.973   3.991   0.989 -0.2239  0.2781  0.5025
 4956TIP3    H114790   7.957   3.898   1.009 -1.3690 -0.2208 -2.2297
 4956TIP3    H214791   7.945   4.038   1.067 -1.5508 -1.5738  1.2103
 4957TIP3   OH214792   4.589   0.640   0.965  0.2362 -0.2708  0.1530
 4957TIP3    H114793   4.552   0.615   0.881 -1.4134 -1.3415  1.1536
 4957TIP3    H214794   4.650   0.569   0.987 -0.1993 -0.5745  0.3859
 4958TIP3   OH214795   0.767   3.882   5.165 -0.6335  0.0380  0.3544
 4958TIP3    H114796   0.784   3.902   5.257 -1.1754  0.2065  0.4218
 4958TIP3    H214797   0.815   3.949   5.117  1.0704 -1.0425  0.4418
 4959TIP3   OH214798   5.581   0.867   0.486 -0.2362 -0.4180  0.0090
 4959TIP3    H114799   5.498   0.833   0.521 -0.1275 -0.3375  0.3483
 4959TIP3    H214800   5.641   0.864   0.560  0.7412 -2.6396 -0.7803
 4960TIP3   OH214801   8.623   4.835   6.041 -0.2183 -0.4513 -0.5505
 4960TIP3    H114802   8.597   4.747   6.068  0.1005 -0.2307  0.5103
 4960TIP3    H214803   8.555   4.862   5.980 -1.0778 -0.8890  0.1940
 4961TIP3   OH214804   3.355   5.828   5.126  0.1233 -0.1645  0.1467
 4961TIP3    H114805   3.418   5.898   5.106  1.0613 -0.6800  1.1639
 4961TIP3    H214806   3.390   5.751   5.080  0.5664 -0.5863  1.1482
 4962TIP3   OH214807   5.351   5.839   1.395 -0.3815  0.3480  0.1608
 4962TIP3    H114808   5.375   5.751   1.365  0.9801 -0.0425  2.1709
 4962TIP3    H214809   5.377   5.896   1.323 -0.1564 -0.7868 -0.6947
 4963TIP3   OH214810   2.903   4.744   0.739 -0.0786  0.4912 -0.2467
 4963TIP3    H114811   2.983   4.717   0.695  1.1779  2.4311  0.7016
 4963TIP3    H214812   2.836   4.684   0.707  1.2567  0.2612 -2.8513
 4964TIP3   OH214813   4.324   1.729   2.193 -0.3554 -0.0862 -0.0081
 4964TIP3    H114814   4.414   1.746   2.219 -0.0217 -0.1500 -1.0946
 4964TIP3    H214815   4.328   1.646   2.145 -0.8530  0.3390 -0.7913
 4965TIP3   OH214816   1.195   0.094   4.107 -0.2210 -0.5337 -0.2810
 4965TIP3    H114817   1.254   0.093   4.032  0.1096 -1.4870 -0.0234
 4965TIP3    H214818   1.246   0.055   4.178 -1.2504 -1.6416 -0.1307
 4966TIP3   OH214819   6.031   1.758   1.469 -0.3410 -0.1844  0.4747
 4966TIP3    H114820   5.967   1.720   1.528 -1.8821  1.7449  0.1717
 4966TIP3    H214821   6.052   1.688   1.407 -0.7649 -1.3953  1.6544
 4967TIP3   OH214822   8.398   7.895   6.690  0.1423 -0.0392 -0.1950
 4967TIP3    H114823   8.413   7.800   6.694  0.9601  0.0223 -1.2909
 4967TIP3    H214824   8.308   7.904   6.658 -0.7021 -0.4216  1.9122
 4968TIP3   OH214825   4.179   4.569   1.616 -0.0070 -0.0504 -0.0845
 4968TIP3    H114826   4.086   4.562   1.597 -0.3759 -0.8738  1.8062
 4968TIP3    H214827   4.205   4.481   1.644  1.2440  0.2758 -0.1347
 4969TIP3   OH214828   5.631   1.132   3.885 -0.4506  0.2619  0.0263
 4969TIP3    H114829   5.567   1.103   3.950 -0.0714 -2.2341 -0.6173
 4969TIP3    H214830   5.654   1.052   3.837  0.6700  1.6949 -1.9517
 4970TIP3   OH214831   0.380   5.847   5.866 -0.3804  0.0014  0.6943
 4970TIP3    H114832   0.299   5.886   5.832  0.8387  0.4034 -1.9290
 4970TIP3    H214833   0.378   5.757   5.836  0.7007  0.3482 -0.4791
 4971TIP3   OH214834   4.263   2.787   6.750 -0.0710  0.0859  0.1871
 4971TIP3    H114835   4.175   2.754   6.767  0.1337 -0.5431  0.0605
 4971TIP3    H214836   4.320   2.711   6.763  0.4782  0.5451  0.4930
 4972TIP3   OH214837   5.087   0.269   4.708 -0.5585  0.1667  0.4458
 4972TIP3    H114838   5.105   0.196   4.766  0.5715  0.1346  0.0742
 4972TIP3    H214839   5.169   0.285   4.662 -0.9596  1.2583  0.0559
 4973TIP3   OH214840   5.709   6.747   1.067  0.3393 -0.1481  0.1660
 4973TIP3    H114841   5.763   6.668   1.063  0.3314 -0.2577  1.5332
 4973TIP3    H214842   5.671   6.755   0.980  0.4919 -1.5572 -0.0535
 4974TIP3   OH214843   1.424   5.205   3.118 -0.1626 -0.1238  0.8822
 4974TIP3    H114844   1.457   5.223   3.030  0.5451  0.3946  1.2422
 4974TIP3    H214845   1.501   5.211   3.175 -0.4595 -1.2983  1.4307
 4975TIP3   OH214846   3.617   2.586   5.743 -0.4504 -0.3729  0.4131
 4975TIP3    H114847   3.530   2.622   5.760 -0.1506  1.0427 -0.8226
 4975TIP3    H214848   3.675   2.636   5.800 -0.1813  0.2998 -0.4300
 4976TIP3   OH214849   5.069   2.231   1.229 -0.1150  0.2067  0.0734
 4976TIP3    H114850   5.063   2.142   1.262  0.4579  0.3676  0.6355
 4976TIP3    H214851   5.039   2.286   1.301  2.1929  0.6334  0.8119
 4977TIP3   OH214852   5.526   4.607   4.610  0.2522  0.2320 -0.0241
 4977TIP3    H114853   5.523   4.514   4.632 -0.2800  0.6080  1.5705
 4977TIP3    H214854   5.474   4.650   4.678 -1.6834  1.4506 -2.1301
 4978TIP3   OH214855   7.626   3.806   2.712  0.4688 -0.0087 -0.1657
 4978TIP3    H114856   7.628   3.901   2.709  1.8939  0.0068  0.3321
 4978TIP3    H214857   7.533   3.784   2.709  0.1252  1.3787 -0.4992
 4979TIP3   OH214858   4.807   2.048   4.005  0.4660 -0.5379 -0.5006
 4979TIP3    H114859   4.883   1.990   4.000 -0.6781 -2.0633 -1.3711
 4979TIP3    H214860   4.806   2.092   3.920 -0.3355 -1.5295 -1.0307
 4980TIP3   OH214861   3.969   0.436   6.681 -0.2125 -0.2273 -0.0538
 4980TIP3    H114862   4.021   0.426   6.601  1.9776  0.3549  1.2362
 4980TIP3    H214863   3.956   0.346   6.712 -0.5541 -0.4156 -0.7114
 4981TIP3   OH214864   8.225   0.304   3.373 -0.2847 -0.7792  0.8036
 4981TIP3    H114865   8.266   0.384   3.405  0.0327  0.5572 -2.5572
 4981TIP3    H214866   8.297   0.251   3.340 -0.7916 -0.9412 -0.0536
 4982TIP3   OH214867   0.541   3.716   4.816 -0.2718 -0.7238 -0.0466
 4982TIP3    H114868   0.617   3.681   4.771 -0.1041  0.3787 -0.6535
 4982TIP3    H214869   0.558   3.810   4.823 -1.8942 -0.3336 -0.8758
 4983TIP3   OH214870   6.860   2.401   6.221  0.1797 -0.0631 -0.0811
 4983TIP3    H114871   6.768   2.405   6.246  0.6181 -0.6498  1.7907
 4983TIP3    H214872   6.875   2.308   6.201  0.6282 -0.1857  0.7870
 4984TIP3   OH214873   1.244   3.715   5.915 -0.3781  0.3177  0.4145
 4984TIP3    H114874   1.227   3.778   5.846  0.3643 -0.3425 -0.3848
 4984TIP3    H214875   1.250   3.767   5.995 -0.3062  1.1895 -0.1565
 4985TIP3   OH214876   4.918   2.463   5.351  0.8274  0.0145  0.3325
 4985TIP3    H114877   4.969   2.479   5.271  0.6328  0.7797  0.3489
 4985TIP3    H214878   4.947   2.531   5.412  0.5125 -0.1667  0.6886
 4986TIP3   OH214879   0.579   2.878   0.417  0.1912  0.2498 -0.6217
 4986TIP3    H114880   0.668   2.864   0.384  0.1712  0.5861 -0.8199
 4986TIP3    H214881   0.528   2.898   0.338  0.2167  1.4518 -0.3418
 4987TIP3   OH214882   7.565   4.279   4.614 -0.4339  0.2174 -0.2703
 4987TIP3    H114883   7.527   4.255   4.699  0.0878 -0.3972 -0.1950
 4987TIP3    H214884   7.508   4.238   4.549 -0.9522  0.8627 -0.2256
 4988TIP3   OH214885   4.720   2.277   6.514 -0.0111 -0.3828  0.3157
 4988TIP3    H114886   4.799   2.260   6.464  0.5685 -0.5940  1.2745
 4988TIP3    H214887   4.661   2.206   6.491 -0.6426  0.7335 -1.7806
 4989TIP3   OH214888   2.423   1.541   0.701  0.2366  0.2385  0.0167
 4989TIP3    H114889   2.431   1.471   0.637 -0.6794  0.2200 -0.0969
 4989TIP3    H214890   2.425   1.622   0.649  0.5225  0.2689  0.0721
 4990TIP3   OH214891   1.791   4.704   3.780 -0.5819 -0.3564  0.3380
 4990TIP3    H114892   1.836   4.721   3.862 -0.8744  1.3295  0.1964
 4990TIP3    H214893   1.798   4.610   3.767  1.8264 -0.3183  0.9244
 4991TIP3   OH214894   7.114   6.028   5.280  0.0650  0.3569  0.2419
 4991TIP3    H114895   7.022   6.027   5.309  0.1258 -1.9762  0.6051
 4991TIP3    H214896   7.109   6.033   5.185 -0.3826  1.2193  0.2965
 4992TIP3   OH214897   8.549   5.938   3.225  0.3602  0.2516 -0.0984
 4992TIP3    H114898   8.644   5.933   3.209  0.7154 -0.9930  1.9190
 4992TIP3    H214899   8.537   6.020   3.273  0.3352  0.6271 -0.7378
 4993TIP3   OH214900   6.512   5.393   1.336  0.4437 -0.2111 -0.6059
 4993TIP3    H114901   6.440   5.332   1.351 -0.5533  1.4726  2.3957
 4993TIP3    H214902   6.470   5.479   1.333  2.1231  0.6436 -1.1104
 4994TIP3   OH214903   3.514   1.960   3.433  0.2071 -0.1252  0.1704
 4994TIP3    H114904   3.472   2.007   3.505 -0.7299  0.1537 -0.5266
 4994TIP3    H214905   3.441   1.922   3.384  0.8467 -0.6287 -0.4156
 4995TIP3   OH214906   1.445   0.555   0.455  0.3686  0.0387 -0.1988
 4995TIP3    H114907   1.393   0.522   0.382  1.5445 -1.2988 -0.4834
 4995TIP3    H214908   1.535   0.529   0.434  1.1690  2.1688  0.3225
 4996TIP3   OH214909   3.574   4.477   2.868  0.0166 -0.2252 -0.6348
 4996TIP3    H114910   3.487   4.485   2.828  0.2506  2.2186 -0.8188
 4996TIP3    H214911   3.635   4.490   2.796  0.5872 -1.9742 -0.5158
 4997TIP3   OH214912   1.283   7.838   4.115  0.0731  0.2541  0.2483
 4997TIP3    H114913   1.191   7.830   4.089  0.4567  2.6966 -2.3034
 4997TIP3    H214914   1.331   7.801   4.041  1.1638  0.8672  0.6377
 4998TIP3   OH214915   4.601   7.743   6.295  0.4865 -0.1998  0.2990
 4998TIP3    H114916   4.663   7.740   6.367  0.4946  2.3384  0.5019
 4998TIP3    H214917   4.643   7.799   6.230 -0.1043 -1.3450 -1.1028
 4999TIP3   OH214918   1.964   6.695   3.573  0.2763  0.5112 -0.3902
 4999TIP3    H114919   1.903   6.630   3.538  0.3265  0.0915  0.2717
 4999TIP3    H214920   2.051   6.658   3.553  0.3091  0.6946 -0.5875
 5000TIP3   OH214921   5.166   3.557   4.651  0.4294  0.6859  0.2091
 5000TIP3    H114922   5.208   3.585   4.570 -0.3652  0.2591 -0.3520
 5000TIP3    H214923   5.134   3.638   4.691  0.6807  0.8751  0.0318
 5001TIP3   OH214924   8.680   6.914   2.685  0.0614  0.5320  0.4067
 5001TIP3    H114925   8.755   6.914   2.745 -0.9368 -1.3399  1.7636
 5001TIP3    H214926   8.605   6.937   2.740 -0.8240 -0.8304 -0.1851
 5002TIP3   OH214927   6.270   6.278   0.236 -0.1924  0.3818  0.4659
 5002TIP3    H114928   6.346   6.224   0.256  0.8157  1.6057  0.0979
 5002TIP3    H214929   6.214   6.271   0.314  1.1625  0.8931  1.5135
 5003TIP3   OH214930   5.277   0.683   2.356  0.6015 -0.5200 -0.3190
 5003TIP3    H114931   5.341   0.638   2.301  0.1386  0.2956 -1.5754
 5003TIP3    H214932   5.216   0.614   2.382  1.6119 -1.1848  0.3703
 5004TIP3   OH214933   4.959   7.102   3.469  0.6433 -0.6283  0.0731
 5004TIP3    H114934   5.012   7.036   3.515 -0.7818 -2.5971 -0.9293
 5004TIP3    H214935   4.869   7.071   3.479 -0.3642  2.3136  1.2419
 5005TIP3   OH214936   0.950   2.385   5.325  0.3627  0.3912 -0.0021
 5005TIP3    H114937   0.962   2.290   5.316  0.7970  0.3035  1.2527
 5005TIP3    H214938   0.926   2.397   5.417 -0.1192  1.4653 -0.2509
 5006TIP3   OH214939   2.536   3.465   4.435  0.0713  0.6943  0.5429
 5006TIP3    H114940   2.449   3.452   4.474  0.1687  2.5728  1.5137
 5006TIP3    H214941   2.520   3.464   4.340 -1.0693  1.2068  0.7066
 5007TIP3   OH214942   2.907   1.035   5.947 -0.1035 -0.0968  0.4284
 5007TIP3    H114943   2.861   1.088   5.882  0.8076  0.8448  0.5183
 5007TIP3    H214944   2.959   1.098   5.996  1.0944 -1.0875  0.4851
 5008TIP3   OH214945   0.409   4.572   3.075 -0.1648  0.4526  0.0294
 5008TIP3    H114946   0.433   4.540   3.161 -1.0583  0.4119  0.2775
 5008TIP3    H214947   0.358   4.652   3.092 -0.8719  0.1130 -0.4258
 5009TIP3   OH214948   0.913   0.245   6.872  0.5107 -0.1164 -0.4036
 5009TIP3    H114949   0.832   0.289   6.899  0.8844 -0.4164  1.3230
 5009TIP3    H214950   0.972   0.256   6.946  1.0799 -2.3477 -0.4372
 5010TIP3   OH214951   3.705   4.742   0.873 -0.0428  0.3757  0.1550
 5010TIP3    H114952   3.731   4.826   0.912 -0.0692  0.1556  0.6439
 5010TIP3    H214953   3.640   4.707   0.933  0.2952 -0.2092  0.1859
 5011TIP3   OH214954   2.400   2.605   5.066  0.3337 -0.3038  0.0459
 5011TIP3    H114955   2.472   2.574   5.121  0.4643 -0.3300 -0.1377
 5011TIP3    H214956   2.330   2.627   5.127 -0.3827 -2.5060  0.0919
 5012TIP3   OH214957   5.576   2.336   0.387  0.6272 -0.1642 -0.3474
 5012TIP3    H114958   5.504   2.397   0.407  0.5141  0.1974 -1.7426
 5012TIP3    H214959   5.561   2.261   0.444 -0.9357 -0.1382 -0.6738
 5013TIP3   OH214960   7.430   4.498   5.465  0.3583  0.2391  0.2951
 5013TIP3    H114961   7.466   4.581   5.496 -0.8381  0.6606  0.6030
 5013TIP3    H214962   7.458   4.434   5.529 -1.6664  1.0141  2.0767
 5014TIP3   OH214963   3.490   1.724   1.178  0.0147 -0.0897 -0.0407
 5014TIP3    H114964   3.426   1.770   1.233 -0.3807 -0.4567 -0.1912
 5014TIP3    H214965   3.438   1.658   1.132  0.9190 -2.2593  1.8697
 5015TIP3   OH214966   7.500   1.050   4.115 -0.3215 -0.3182 -0.6957
 5015TIP3    H114967   7.550   0.969   4.118  3.0493  1.5712 -0.1414
 5015TIP3    H214968   7.516   1.091   4.201  0.0563  1.9128 -1.7551
 5016TIP3   OH214969   5.449   5.916   6.842 -0.2287 -0.4491 -0.2683
 5016TIP3    H114970   5.515   5.855   6.810 -0.1786 -0.4237 -0.2134
 5016TIP3    H214971   5.460   5.994   6.787  0.8933  0.1862  0.8094
 5017TIP3   OH214972   3.618   1.044   3.646  0.3927 -0.0392  0.1609
 5017TIP3    H114973   3.698   1.029   3.698  1.1350  0.4296 -0.8099
 5017TIP3    H214974   3.647   1.037   3.555 -0.4835  1.0651 -0.2226
 5018TIP3   OH214975   8.317   3.101   5.278 -0.1425 -0.6173 -0.0522
 5018TIP3    H114976   8.266   3.096   5.358  0.0368  0.4099  0.1353
 5018TIP3    H214977   8.373   3.178   5.289 -0.5009 -0.1271 -1.3810
 5019TIP3   OH214978   1.743   6.597   2.006  0.5342 -0.0897 -0.1004
 5019TIP3    H114979   1.824   6.550   1.987  0.3772 -0.0272 -0.9743
 5019TIP3    H214980   1.729   6.653   1.930 -0.6196 -0.5078 -0.2177
 5020TIP3   OH214981   1.898   6.539   5.002  0.5985  0.0644  0.3611
 5020TIP3    H114982   1.813   6.580   5.019  0.0997 -1.4095  1.6205
 5020TIP3    H214983   1.936   6.526   5.089  1.7286 -0.1110 -0.1443
 5021TIP3   OH214984   3.178   7.261   1.732 -0.4195  0.0064 -0.6581
 5021TIP3    H114985   3.178   7.253   1.827  0.8625  0.0269 -0.6434
 5021TIP3    H214986   3.135   7.344   1.714  1.9639  1.5047  0.0850
 5022TIP3   OH214987   3.590   4.276   4.141 -0.2102 -0.2848 -0.1445
 5022TIP3    H114988   3.651   4.346   4.117 -0.2775 -1.1301 -3.3310
 5022TIP3    H214989   3.637   4.195   4.120 -1.3954 -1.0613  0.0609
 5023TIP3   OH214990   0.986   4.745   2.210 -0.2997 -0.0576 -0.2860
 5023TIP3    H114991   1.014   4.654   2.211 -0.3126 -0.0800  1.2249
 5023TIP3    H214992   1.064   4.794   2.185  0.3442 -0.3428  1.0310
 5024TIP3   OH214993   4.566   1.200   3.888 -0.5459 -0.0214  0.4174
 5024TIP3    H114994   4.475   1.227   3.900 -0.6017 -1.0829  3.2886
 5024TIP3    H214995   4.562   1.122   3.833 -1.4989 -0.5598  1.2132
 5025TIP3   OH214996   3.567   0.734   3.456 -0.1829  0.6189 -0.4625
 5025TIP3    H114997   3.604   0.730   3.367 -0.8416  1.5637 -0.7918
 5025TIP3    H214998   3.644   0.739   3.513  0.2423  0.3906 -0.9940
 5026TIP3   OH214999   4.243   7.579   3.788  0.5709 -0.2221 -0.1930
 5026TIP3    H115000   4.211   7.491   3.807  1.3107 -0.1467  1.6133
 5026TIP3    H215001   4.306   7.597   3.858 -0.5007  2.2188  0.2511
 5027TIP3   OH215002   4.386   4.222   1.841  0.2763 -0.3938 -0.0788
 5027TIP3    H115003   4.315   4.264   1.793 -0.9952  0.3894  2.3112
 5027TIP3    H215004   4.364   4.129   1.841 -0.2826 -0.2631 -0.1303
 5028TIP3   OH215005   0.318   8.081   5.971 -0.1566  0.3463 -0.2322
 5028TIP3    H115006   0.274   8.050   6.051 -2.1380  1.6536 -0.7377
 5028TIP3    H215007   0.314   8.176   5.977 -0.0847  0.4660 -1.7574
 5029TIP3   OH215008   4.931   6.886   1.804 -0.0999 -0.1870 -0.2619
 5029TIP3    H115009   4.938   6.961   1.863 -0.8570  0.5782 -1.1041
 5029TIP3    H215010   4.981   6.913   1.727  1.2771 -1.3610  0.1872
 5030TIP3   OH215011   4.182   8.157   0.752  0.2052  0.1094  0.0492
 5030TIP3    H115012   4.214   8.069   0.772 -0.3501  0.0248  0.5835
 5030TIP3    H215013   4.139   8.148   0.667  0.7126  0.0093 -0.2015
 5031TIP3   OH215014   6.626   3.587   0.215 -0.5086  0.2418  0.5224
 5031TIP3    H115015   6.652   3.495   0.223 -0.5186  0.3257  1.6571
 5031TIP3    H215016   6.696   3.636   0.258 -0.1242  0.8343 -0.7521
 5032TIP3   OH215017   1.053   8.086   2.707 -0.2522  0.5370  0.5803
 5032TIP3    H115018   1.039   8.081   2.612  0.7264 -1.6438  0.4985
 5032TIP3    H215019   0.979   8.137   2.739 -0.8222  0.9913 -1.3044
 5033TIP3   OH215020   5.994   0.193   6.292 -0.0598 -0.0297 -0.1702
 5033TIP3    H115021   5.965   0.231   6.375  2.5953  3.0441 -0.4080
 5033TIP3    H215022   5.988   0.099   6.305 -1.4998  0.3482  2.7990
 5034TIP3   OH215023   7.524   2.491   0.959  0.6403  0.4485  0.2344
 5034TIP3    H115024   7.512   2.415   0.902 -1.3413 -1.3835  2.8445
 5034TIP3    H215025   7.453   2.551   0.934  1.2364  0.7645 -0.7604
 5035TIP3   OH215026   3.020   3.806   4.582 -0.8637  0.0700 -0.0726
 5035TIP3    H115027   2.998   3.843   4.667 -0.5442  0.2110 -0.0468
 5035TIP3    H215028   3.013   3.880   4.521  3.1985  1.1652  0.4916
 5036TIP3   OH215029   4.532   5.408   6.878 -0.2174 -0.0838 -0.6909
 5036TIP3    H115030   4.627   5.402   6.865 -0.3674 -2.0348 -1.2074
 5036TIP3    H215031   4.498   5.442   6.795 -0.1477 -1.6720 -1.4081
 5037TIP3   OH215032   0.574   2.706   0.689  0.1461 -0.1499  0.3612
 5037TIP3    H115033   0.602   2.617   0.668 -0.2587 -0.4035  0.8786
 5037TIP3    H215034   0.588   2.755   0.608 -0.7463 -0.9584 -0.2987
 5038TIP3   OH215035   6.063   5.149   5.542 -0.1366  0.1467  0.4869
 5038TIP3    H115036   6.020   5.085   5.485 -1.2110  0.8029  0.5155
 5038TIP3    H215037   6.043   5.119   5.630  1.0292 -0.5435  0.5367
 5039TIP3   OH215038   5.479   5.646   5.378 -0.1473  0.3679 -0.4616
 5039TIP3    H115039   5.480   5.732   5.419 -0.4114  0.7704 -1.2768
 5039TIP3    H215040   5.388   5.634   5.349 -0.2869 -0.4998  0.2876
 5040TIP3   OH215041   1.021   0.943   4.259  0.5352 -0.7080  0.3002
 5040TIP3    H115042   1.066   0.960   4.176 -2.2357  0.8619 -1.0324
 5040TIP3    H215043   0.932   0.920   4.234 -0.0459 -1.5463  2.8425
 5041TIP3   OH215044   3.012   0.233   5.663  0.2866  0.8485 -0.0651
 5041TIP3    H115045   2.926   0.217   5.701  0.3649 -1.6307 -0.7390
 5041TIP3    H215046   2.996   0.291   5.590 -0.9650 -0.1393 -0.6231
 5042TIP3   OH215047   4.146   5.993   3.007 -0.0537 -0.2176  0.2517
 5042TIP3    H115048   4.086   5.945   3.064 -0.2094 -0.5153 -0.1630
 5042TIP3    H215049   4.157   6.078   3.050 -1.8050  0.3473 -0.3296
 5043TIP3   OH215050   0.696   1.693   3.541  0.2031 -0.2694 -0.2136
 5043TIP3    H115051   0.729   1.783   3.537  1.0145 -0.4971  0.7828
 5043TIP3    H215052   0.672   1.672   3.451  1.0252  0.5656 -0.6462
 5044TIP3   OH215053   7.082   3.894   5.456  0.2319 -0.2406 -0.1233
 5044TIP3    H115054   7.094   3.824   5.521  0.6839  0.1970  0.2692
 5044TIP3    H215055   7.032   3.961   5.502 -0.9406 -0.6517 -0.7586
 5045TIP3   OH215056   4.129   8.110   1.931 -0.2657  0.3194  0.2408
 5045TIP3    H115057   4.134   8.085   2.023 -0.2988 -3.8427 -0.6652
 5045TIP3    H215058   4.036   8.105   1.910 -0.2453  1.1261 -0.0786
 5046TIP3   OH215059   7.985   4.229   2.548 -0.3465 -0.2901  0.1284
 5046TIP3    H115060   7.989   4.252   2.641  0.4293 -2.1542  0.6009
 5046TIP3    H215061   7.893   4.206   2.533 -0.0562 -2.2016  1.0475
 5047TIP3   OH215062   1.774   5.842   6.221 -0.6005 -0.3883  0.0184
 5047TIP3    H115063   1.773   5.834   6.125 -1.5538  1.9841 -0.2211
 5047TIP3    H215064   1.865   5.823   6.245 -0.0996 -0.0038 -1.4609
 5048TIP3   OH215065   6.940   6.819   4.089 -0.4293  0.4511 -0.3943
 5048TIP3    H115066   6.875   6.852   4.151 -0.1288  1.2442 -0.4812
 5048TIP3    H215067   6.961   6.895   4.035  0.4817  0.1747 -0.4433
 5049TIP3   OH215068   8.700   2.973   0.893 -0.4410  0.6619  0.4244
 5049TIP3    H115069   8.659   3.025   0.962 -1.6037  0.6816 -0.2494
 5049TIP3    H215070   8.632   2.911   0.866  0.9160 -1.2953  1.2516
 5050TIP3   OH215071   0.747   6.450   0.495  0.5351 -0.1443 -0.2351
 5050TIP3    H115072   0.802   6.378   0.526  2.0547  1.6017  1.3461
 5050TIP3    H215073   0.785   6.528   0.534 -2.3533  1.3220 -0.0970
 5051TIP3   OH215074   4.110   7.824   0.579  0.5777  0.4257 -0.3301
 5051TIP3    H115075   4.165   7.841   0.655  0.6064  1.6688 -0.5986
 5051TIP3    H215076   4.117   7.904   0.527 -0.7119  0.2151 -0.8482
 5052TIP3   OH215077   1.973   4.519   4.641  0.5898  0.5159  0.4299
 5052TIP3    H115078   1.936   4.431   4.649  1.5722  0.0029 -0.3857
 5052TIP3    H215079   2.065   4.508   4.665  0.8686  1.1953 -0.2775
 5053TIP3   OH215080   8.456   2.856   1.869  0.3397 -0.7828  0.2763
 5053TIP3    H115081   8.540   2.876   1.910  0.4111 -2.6480  1.1673
 5053TIP3    H215082   8.391   2.888   1.932  0.3224  0.9441 -0.5549
 5054TIP3   OH215083   6.552   6.072   2.394 -0.3592 -0.4156 -0.7319
 5054TIP3    H115084   6.480   6.012   2.376 -1.4155  0.5626  0.0949
 5054TIP3    H215085   6.562   6.069   2.489 -0.0144  0.2414 -0.7389
 5055TIP3   OH215086   3.461   2.254   2.563 -0.6453  0.2156  0.5770
 5055TIP3    H115087   3.417   2.299   2.636 -0.8716 -0.3229  0.7804
 5055TIP3    H215088   3.497   2.174   2.602  2.0326  1.4167  0.8218
 5056TIP3   OH215089   1.268   6.708   4.808  0.1796 -0.0636 -0.3144
 5056TIP3    H115090   1.307   6.765   4.741 -0.5147  0.3759 -0.3515
 5056TIP3    H215091   1.336   6.642   4.825  0.7373  0.3805 -0.7527
 5057TIP3   OH215092   1.228   4.920   6.161  0.5166 -0.3886 -0.1582
 5057TIP3    H115093   1.296   4.942   6.097  1.8724 -0.4323  1.1913
 5057TIP3    H215094   1.206   5.004   6.202 -0.2735 -0.3722 -0.6028
 5058TIP3   OH215095   8.619   6.285   2.251 -0.1090 -0.3803 -0.2201
 5058TIP3    H115096   8.639   6.346   2.180 -0.6953  0.4388  0.3108
 5058TIP3    H215097   8.695   6.227   2.254  0.2562  0.0388 -1.0257
 5059TIP3   OH215098   4.182   7.880   6.930 -0.0653 -0.3525  0.5526
 5059TIP3    H115099   4.142   7.938   6.995  0.9022 -0.8109  1.5813
 5059TIP3    H215100   4.238   7.937   6.878 -0.1536 -0.1426  0.6875
 5060TIP3   OH215101   4.642   5.275   5.945 -0.7828  0.2306  0.0622
 5060TIP3    H115102   4.637   5.206   5.880  2.4604 -1.0383  0.9869
 5060TIP3    H215103   4.594   5.241   6.020 -1.6844  0.2984 -0.4603
 5061TIP3   OH215104   6.302   6.669   4.350  0.0933  0.4397  0.2027
 5061TIP3    H115105   6.309   6.758   4.385  1.3045  1.0616 -1.4904
 5061TIP3    H215106   6.217   6.639   4.380  0.6676  1.1908  2.9429
 5062TIP3   OH215107   2.145   0.229   0.265 -0.8239 -0.7565  0.0503
 5062TIP3    H115108   2.194   0.256   0.187 -0.5678 -0.1595  0.4073
 5062TIP3    H215109   2.120   0.312   0.307  0.6161 -1.0350  1.5736
 5063TIP3   OH215110   2.272   5.848   4.325  0.0348 -0.1147 -0.6042
 5063TIP3    H115111   2.289   5.754   4.322  1.7079  0.0787  0.9652
 5063TIP3    H215112   2.210   5.860   4.397  0.9301  0.0810  0.1576
 5064TIP3   OH215113   2.277   3.766   2.026 -0.1846 -0.1514  0.0804
 5064TIP3    H115114   2.337   3.840   2.016  0.2288 -0.4777  0.1024
 5064TIP3    H215115   2.334   3.689   2.031 -0.6547 -0.5960 -1.0418
 5065TIP3   OH215116   0.636   3.060   6.525 -0.4143  0.3399 -0.0510
 5065TIP3    H115117   0.606   3.006   6.598 -1.8049  0.7097 -0.3181
 5065TIP3    H215118   0.717   3.101   6.556  1.1909 -2.4689 -0.1191
 5066TIP3   OH215119   0.817   5.713   2.523 -0.6055 -1.0455  0.9797
 5066TIP3    H115120   0.747   5.649   2.517  1.1749 -2.9842 -2.6681
 5066TIP3    H215121   0.881   5.685   2.457 -0.8791  5.9552 -3.2804
 5067TIP3   OH215122   5.233   7.942   2.507  0.7063  0.1341  0.2621
 5067TIP3    H115123   5.292   7.952   2.432 -0.2107  0.9639 -0.3648
 5067TIP3    H215124   5.265   8.005   2.571  0.2367  0.9218 -0.2620
 5068TIP3   OH215125   8.494   3.505   3.634  0.0522 -0.7449  0.0036
 5068TIP3    H115126   8.434   3.492   3.560  3.0558 -1.9358 -2.4578
 5068TIP3    H215127   8.512   3.416   3.666 -0.0961 -0.3402  1.2602
 5069TIP3   OH215128   5.307   3.610   3.321  0.0314 -0.5204 -0.2923
 5069TIP3    H115129   5.285   3.518   3.335 -1.1540  0.0758  2.3206
 5069TIP3    H215130   5.235   3.658   3.363  1.8688  1.5799  0.6381
 5070TIP3   OH215131   6.008   6.764   5.343  0.0938  0.0181  0.0032
 5070TIP3    H115132   5.939   6.809   5.391 -0.2775  0.0015 -0.5087
 5070TIP3    H215133   6.044   6.831   5.284 -0.0814 -0.2003 -0.3581
 5071TIP3   OH215134   3.957   5.185   1.757 -0.0348 -0.4618  0.8880
 5071TIP3    H115135   3.932   5.105   1.711 -0.2256 -1.0595  2.0035
 5071TIP3    H215136   3.951   5.254   1.690  0.1908 -1.3738 -0.1021
 5072TIP3   OH215137   2.358   6.874   1.399  0.3544  0.5163 -0.1944
 5072TIP3    H115138   2.354   6.815   1.474 -1.9888 -1.0946 -1.4461
 5072TIP3    H215139   2.327   6.959   1.433  1.0149  0.2902  1.0086
 5073TIP3   OH215140   4.427   7.819   1.662  0.5986 -0.4906  0.2439
 5073TIP3    H115141   4.516   7.807   1.694  1.3022 -0.7388 -1.6656
 5073TIP3    H215142   4.397   7.731   1.641  0.8692 -0.2262 -1.4317
 5074TIP3   OH215143   1.965   6.652   0.795 -0.0405 -0.0829 -0.5559
 5074TIP3    H115144   2.020   6.583   0.830  0.5773 -0.0665 -1.4598
 5074TIP3    H215145   1.882   6.643   0.842  0.4930 -0.5441  0.3204
 5075TIP3   OH215146   0.149   0.008   4.058 -0.1381 -0.1264  0.2616
 5075TIP3    H115147   0.176   0.010   4.150 -0.4686  1.3878  0.3683
 5075TIP3    H215148   0.054   0.024   4.061 -0.0246  0.7433 -0.3566
 5076TIP3   OH215149   2.981   2.056   0.337 -0.1229 -0.3503 -0.6234
 5076TIP3    H115150   2.931   2.056   0.256 -0.9315 -1.6955 -0.1574
 5076TIP3    H215151   3.057   2.000   0.318 -0.2419 -0.5551 -0.5011
 5077TIP3   OH215152   2.454   8.007   5.172 -0.5064  0.0168  0.3979
 5077TIP3    H115153   2.433   7.917   5.199 -0.0890 -0.6449 -1.2990
 5077TIP3    H215154   2.438   8.007   5.077  1.2460  1.2137  0.0586
 5078TIP3   OH215155   6.742   0.880   1.284  0.1386 -0.4508 -0.2471
 5078TIP3    H115156   6.817   0.881   1.224  0.6761 -0.5257  0.3987
 5078TIP3    H215157   6.765   0.945   1.351  0.4448 -1.6832  0.9008
 5079TIP3   OH215158   3.680   1.884   6.900 -0.1062 -0.1406 -0.3238
 5079TIP3    H115159   3.618   1.943   6.859 -0.2533  0.3247  0.5466
 5079TIP3    H215160   3.679   1.806   6.845 -1.7622 -0.3030 -0.1138
 5080TIP3   OH215161   2.679   1.239   4.603  0.0370  0.3542  0.1174
 5080TIP3    H115162   2.751   1.198   4.556 -0.5289 -1.2751  0.6155
 5080TIP3    H215163   2.655   1.314   4.549  2.4804  1.3361  0.2414
 5081TIP3   OH215164   3.953   0.350   0.655 -0.2619  0.2376 -0.0511
 5081TIP3    H115165   3.965   0.287   0.584  1.1453  0.5638 -0.1158
 5081TIP3    H215166   3.860   0.342   0.678 -0.4068 -0.8976 -0.9503
 5082TIP3   OH215167   3.769   4.686   6.809 -0.1944  0.1132  0.2026
 5082TIP3    H115168   3.708   4.700   6.736  0.2360 -0.7119 -0.3271
 5082TIP3    H215169   3.754   4.596   6.837  0.3981  0.0829  0.4329
 5083TIP3   OH215170   5.004   7.250   3.028  0.3369  0.7504 -0.0219
 5083TIP3    H115171   4.927   7.276   2.976  1.5266  0.5226 -1.9859
 5083TIP3    H215172   4.991   7.293   3.112 -1.7078  1.1009 -0.4599
 5084TIP3   OH215173   4.642   2.375   5.010 -0.2146  0.4994 -0.0927
 5084TIP3    H115174   4.550   2.394   5.026  0.1573  0.2306  3.1742
 5084TIP3    H215175   4.659   2.295   5.061  1.9004  0.8137 -0.2165
 5085TIP3   OH215176   4.978   7.386   2.568 -0.2399  0.3190 -0.1795
 5085TIP3    H115177   4.920   7.372   2.493  0.3288  0.1348 -0.5929
 5085TIP3    H215178   4.934   7.341   2.640  0.3909 -1.6487 -0.9622
 5086TIP3   OH215179   1.359   2.421   3.530  0.8457  0.5122 -0.4176
 5086TIP3    H115180   1.437   2.388   3.575  0.3312 -1.4559 -0.8438
 5086TIP3    H215181   1.287   2.371   3.570  0.0968  0.5750 -1.6543
 5087TIP3   OH215182   8.462   4.826   5.190 -0.0971  0.1765 -0.7221
 5087TIP3    H115183   8.519   4.903   5.190 -0.1356  0.2047 -0.8562
 5087TIP3    H215184   8.455   4.801   5.098 -0.7310  0.4914 -0.7671
 5088TIP3   OH215185   0.252   4.737   4.543  0.0270  0.2517 -0.3478
 5088TIP3    H115186   0.208   4.718   4.460 -0.5388 -1.9190  0.4039
 5088TIP3    H215187   0.183   4.733   4.609  1.0970 -2.3140  0.7444
 5089TIP3   OH215188   3.874   1.256   0.330 -0.3680  0.3109 -0.0316
 5089TIP3    H115189   3.853   1.173   0.287 -0.1554  0.6850 -0.8597
 5089TIP3    H215190   3.929   1.231   0.404 -0.2836 -0.2866 -0.2894
 5090TIP3   OH215191   4.196   3.673   0.307 -0.4989 -1.0149  0.4181
 5090TIP3    H115192   4.137   3.597   0.307 -0.8761 -0.7417 -0.6239
 5090TIP3    H215193   4.139   3.748   0.319 -0.5754 -0.6401 -1.7875
 5091TIP3   OH215194   2.061   7.701   6.987 -0.5187  0.1739  0.0613
 5091TIP3    H115195   1.966   7.694   6.987 -0.4699 -0.8341  1.1885
 5091TIP3    H215196   2.080   7.775   6.930 -1.9673  0.2824 -0.3060
 5092TIP3   OH215197   6.962   0.311   1.390 -0.2926 -0.3527  0.4605
 5092TIP3    H115198   7.026   0.309   1.461 -1.1816 -0.0840  1.2968
 5092TIP3    H215199   6.907   0.234   1.406  0.0378 -0.7902 -0.4613
 5093TIP3   OH215200   7.845   8.193   1.349  0.0675 -0.3326  0.0990
 5093TIP3    H115201   7.799   8.133   1.407  0.8327 -0.2475  0.8034
 5093TIP3    H215202   7.933   8.157   1.342  0.2211  0.1136 -0.3462
 5094TIP3   OH215203   6.100   4.271   0.349 -0.0322  0.2930 -0.6064
 5094TIP3    H115204   6.154   4.192   0.344 -2.3434 -1.4030 -0.2316
 5094TIP3    H215205   6.024   4.252   0.294 -0.7563  2.1778 -0.3131
 5095TIP3   OH215206   7.280   2.801   4.897  0.1666 -0.5468  0.1038
 5095TIP3    H115207   7.332   2.734   4.942 -0.2133 -1.2613 -0.4854
 5095TIP3    H215208   7.345   2.854   4.851  0.4596 -0.6600  0.3809
 5096TIP3   OH215209   1.805   4.801   4.093 -0.3429 -0.0893  0.7152
 5096TIP3    H115210   1.873   4.868   4.101 -0.8032  0.4248  0.3390
 5096TIP3    H215211   1.775   4.787   4.183 -0.7398  0.7295  0.7166
 5097TIP3   OH215212   3.262   1.389   2.228  0.2877  0.0002  0.1526
 5097TIP3    H115213   3.210   1.343   2.294 -0.3734  0.5520  0.0361
 5097TIP3    H215214   3.250   1.338   2.148  1.5015 -0.9557  0.5547
 5098TIP3   OH215215   0.280   4.901   4.183 -0.1894  0.1059  0.3333
 5098TIP3    H115216   0.314   4.890   4.271  1.5729 -0.7243 -0.3993
 5098TIP3    H215217   0.214   4.832   4.173  1.7790 -1.8530  0.0375
 5099TIP3   OH215218   3.677   6.750   0.933 -0.3704  0.3362 -0.7996
 5099TIP3    H115219   3.772   6.739   0.936 -0.1043  2.3696  0.9522
 5099TIP3    H215220   3.645   6.702   1.010 -0.5504  1.0792 -0.4030
 5100TIP3   OH215221   4.130   1.209   2.599  0.1918  0.1679 -0.3007
 5100TIP3    H115222   4.047   1.254   2.581  0.6118  1.0319 -0.1511
 5100TIP3    H215223   4.114   1.118   2.576 -0.3087  0.6138 -1.8814
 5101TIP3   OH215224   6.828   6.945   4.641  0.5102 -0.5850 -0.4146
 5101TIP3    H115225   6.839   6.973   4.731 -0.1314  1.9784 -1.0525
 5101TIP3    H215226   6.743   6.981   4.614  0.4098 -1.7826 -1.8743
 5102TIP3   OH215227   4.041   5.516   4.716  0.2781  0.1558 -0.2003
 5102TIP3    H115228   3.999   5.455   4.655 -0.3975 -1.1931  1.5540
 5102TIP3    H215229   4.130   5.484   4.725 -0.1725 -0.8151  0.9815
 5103TIP3   OH215230   3.963   6.780   0.173  0.0349 -0.3064 -0.2195
 5103TIP3    H115231   3.890   6.772   0.112 -1.0189 -0.2291  1.0016
 5103TIP3    H215232   3.945   6.859   0.223  1.1415 -0.0930 -0.1210
 5104TIP3   OH215233   1.367   2.543   3.994  0.5017  0.1376  0.6691
 5104TIP3    H115234   1.414   2.605   3.939  0.5000  0.4806  1.0528
 5104TIP3    H215235   1.296   2.510   3.938  0.8228  0.0739  0.2903
 5105TIP3   OH215236   5.317   4.999   6.855 -0.2869  0.3193  0.2388
 5105TIP3    H115237   5.251   5.017   6.788 -3.3143 -0.2154  2.8758
 5105TIP3    H215238   5.351   5.085   6.879 -0.0218  0.6091 -1.0478
 5106TIP3   OH215239   2.795   4.655   5.712  0.0166  0.3322  0.2505
 5106TIP3    H115240   2.889   4.646   5.726  0.1044 -0.0417 -0.5508
 5106TIP3    H215241   2.787   4.716   5.639 -0.2970 -1.0222 -0.8927
 5107TIP3   OH215242   1.650   2.172   1.929 -0.2183 -0.1481  0.2461
 5107TIP3    H115243   1.712   2.235   1.966  0.6316  0.4777 -2.0298
 5107TIP3    H215244   1.705   2.104   1.890 -0.9427  0.1167 -1.3237
 5108TIP3   OH215245   2.181   8.111   3.936  0.1797 -0.2721  0.3931
 5108TIP3    H115246   2.197   8.203   3.960 -0.2970 -0.3975  1.2413
 5108TIP3    H215247   2.266   8.068   3.948 -0.0951 -0.3971  2.2932
 5109TIP3   OH215248   4.162   1.868   5.098  1.1375 -0.4565  0.0203
 5109TIP3    H115249   4.080   1.822   5.082  0.3482  0.7090  0.5710
 5109TIP3    H215250   4.186   1.905   5.013 -0.4389  1.5772  0.3772
 5110TIP3   OH215251   0.784   5.924   6.048  0.0925  0.6007 -0.4021
 5110TIP3    H115252   0.733   5.990   6.001 -0.4796  0.8605  0.5655
 5110TIP3    H215253   0.730   5.901   6.124 -0.2363 -1.7640 -1.2596
 5111TIP3   OH215254   3.884   6.367   5.005 -0.2142  0.6712  0.2666
 5111TIP3    H115255   3.945   6.358   4.931 -0.1242 -0.4405  0.4619
 5111TIP3    H215256   3.895   6.458   5.034  0.6363  0.7653 -0.3160
 5112TIP3   OH215257   4.701   2.000   3.613 -0.4403 -0.8453  0.3399
 5112TIP3    H115258   4.791   1.972   3.632 -0.2469 -1.7380 -1.5681
 5112TIP3    H215259   4.646   1.937   3.660 -0.0089 -1.9617 -0.5773
 5113TIP3   OH215260   0.947   1.290   2.061  0.1475  0.4671  0.1045
 5113TIP3    H115261   0.931   1.259   1.972  2.8943  0.2379 -0.3893
 5113TIP3    H215262   0.924   1.215   2.117  0.0836  0.0001 -0.5407
 5114TIP3   OH215263   4.391   5.168   0.300 -0.1778 -0.1811  0.0984
 5114TIP3    H115264   4.366   5.144   0.211 -1.1020 -0.0532  0.3157
 5114TIP3    H215265   4.421   5.258   0.293  2.4840 -1.0388 -0.5663
 5115TIP3   OH215266   6.633   4.918   5.580  0.6176  0.4028  0.0903
 5115TIP3    H115267   6.549   4.873   5.589 -0.0077  0.9827 -2.1141
 5115TIP3    H215268   6.625   4.966   5.497  2.4585  1.9447  0.7440
 5116TIP3   OH215269   0.965   1.623   5.088  0.0354  0.3833  0.3146
 5116TIP3    H115270   1.018   1.663   5.019 -0.5290  2.0249  0.7859
 5116TIP3    H215271   0.882   1.600   5.045  0.3115 -0.1930  0.0744
 5117TIP3   OH215272   6.433   3.634   3.788 -0.3258  0.0984 -0.1388
 5117TIP3    H115273   6.344   3.599   3.784 -0.1343 -0.3061 -1.1113
 5117TIP3    H215274   6.427   3.708   3.848 -1.2286 -0.1834  0.1330
 5118TIP3   OH215275   0.375   1.705   1.608 -0.3319  0.6619 -0.1272
 5118TIP3    H115276   0.315   1.649   1.559 -1.8467  1.8557  0.2744
 5118TIP3    H215277   0.414   1.647   1.673 -1.5362 -0.0495 -0.0051
 5119TIP3   OH215278   3.427   0.223   5.452 -0.1231 -0.4822 -0.1511
 5119TIP3    H115279   3.467   0.147   5.409 -1.0827 -0.4862 -1.0550
 5119TIP3    H215280   3.405   0.192   5.540  0.6496 -0.8572 -0.0785
 5120TIP3   OH215281   1.881   5.958   6.512  0.4465 -0.0967 -0.1157
 5120TIP3    H115282   1.906   6.045   6.481 -1.3399  1.0090  1.3200
 5120TIP3    H215283   1.786   5.963   6.521 -0.1122 -3.1459 -2.6586
 5121TIP3   OH215284   1.473   4.336   3.441  0.4326  0.0986 -0.4339
 5121TIP3    H115285   1.379   4.320   3.449  0.3396  1.2551  1.1735
 5121TIP3    H215286   1.485   4.356   3.348 -1.0193  0.5494 -0.5537
 5122TIP3   OH215287   3.913   4.628   3.163  0.4548  0.6562  0.0613
 5122TIP3    H115288   3.877   4.636   3.075  1.1983  0.3659 -0.2717
 5122TIP3    H215289   3.849   4.673   3.219 -0.6674 -0.2540 -0.4503
 5123TIP3   OH215290   2.257   5.541   1.744 -0.3332  1.1753 -0.7583
 5123TIP3    H115291   2.173   5.577   1.717 -0.9066  1.3302  1.0734
 5123TIP3    H215292   2.263   5.561   1.838  1.0667 -0.1515 -0.5148
 5124TIP3   OH215293   2.033   1.871   1.595 -0.0375  0.2999  0.0730
 5124TIP3    H115294   1.958   1.838   1.545  0.2442 -1.0257  0.4751
 5124TIP3    H215295   2.032   1.966   1.580  0.2353 -0.0587 -2.7006
 5125TIP3   OH215296   2.437   4.292   5.518 -0.4219 -0.2068  0.1610
 5125TIP3    H115297   2.469   4.271   5.430 -0.3595 -0.1519  0.1705
 5125TIP3    H215298   2.479   4.376   5.539 -0.5242 -0.1645  0.1977
 5126TIP3   OH215299   0.850   4.228   2.986 -0.1524 -0.1247  0.4335
 5126TIP3    H115300   0.756   4.215   2.975 -0.2389  0.1685  0.8000
 5126TIP3    H215301   0.875   4.287   2.915 -0.0285 -1.0980 -0.3510
 5127TIP3   OH215302   5.300   7.607   2.813 -0.3477 -0.2267 -0.3978
 5127TIP3    H115303   5.393   7.624   2.828 -0.5073  2.0672 -1.5774
 5127TIP3    H215304   5.296   7.572   2.723 -0.4461 -3.0104  0.5809
 5128TIP3   OH215305   6.722   0.310   5.850 -0.0864 -0.6359  0.4981
 5128TIP3    H115306   6.802   0.343   5.891 -0.7432  0.6927  0.7722
 5128TIP3    H215307   6.655   0.374   5.874 -0.9989 -1.1288 -0.6436
 5129TIP3   OH215308   0.333   5.631   2.845  1.0603  0.6568  0.4898
 5129TIP3    H115309   0.368   5.558   2.793  2.2686  1.1353  0.6017
 5129TIP3    H215310   0.300   5.692   2.780 -1.3166 -0.5773  0.4119
 5130TIP3   OH215311   8.520   1.909   3.568 -0.2140 -0.0666 -0.6470
 5130TIP3    H115312   8.440   1.961   3.574 -0.6929 -0.8046 -0.6582
 5130TIP3    H215313   8.545   1.893   3.659 -1.3382 -1.7569 -0.6010
 5131TIP3   OH215314   1.175   8.089   2.184  0.0081 -0.3820 -0.2379
 5131TIP3    H115315   1.127   8.150   2.128 -1.1841  0.5468  1.6824
 5131TIP3    H215316   1.127   8.006   2.176 -0.3837 -0.1499 -0.3062
 5132TIP3   OH215317   8.143   5.407   2.406  0.2797 -0.1984  0.0209
 5132TIP3    H115318   8.048   5.405   2.414  0.2883  2.5713  2.6320
 5132TIP3    H215319   8.170   5.317   2.423 -1.7707 -0.5766  1.6575
 5133TIP3   OH215320   7.478   6.909   0.956  0.4106 -0.4913 -0.0201
 5133TIP3    H115321   7.515   6.853   1.024  1.4758  0.0075 -0.1494
 5133TIP3    H215322   7.529   6.888   0.878 -0.6294 -0.8762 -0.6073
 5134TIP3   OH215323   1.710   6.771   4.971 -0.2436  0.2452 -0.5078
 5134TIP3    H115324   1.738   6.862   4.967  0.3728  0.0902  0.1863
 5134TIP3    H215325   1.679   6.752   4.883 -0.4117  1.1352 -0.6494
 5135TIP3   OH215326   1.057   7.317   4.119  0.0059  0.2461 -0.5458
 5135TIP3    H115327   1.101   7.322   4.034  1.1402  0.9022  0.0478
 5135TIP3    H215328   0.990   7.386   4.116 -0.5349 -0.3021 -1.2096
 5136TIP3   OH215329   3.545   3.214   0.522  0.0938 -0.0018  0.3467
 5136TIP3    H115330   3.460   3.257   0.518 -0.5214 -1.2284  0.1415
 5136TIP3    H215331   3.554   3.187   0.613  0.1556 -0.1053  0.3098
 5137TIP3   OH215332   5.004   4.615   0.939  0.2331  0.6702 -0.2344
 5137TIP3    H115333   4.995   4.705   0.907 -1.8875  0.6453  0.1025
 5137TIP3    H215334   4.980   4.620   1.032 -1.0515 -0.3845 -0.4802
 5138TIP3   OH215335   7.515   5.762   5.477 -0.4857 -0.0754  0.4290
 5138TIP3    H115336   7.528   5.856   5.490 -2.8298  0.2552  0.6598
 5138TIP3    H215337   7.475   5.755   5.391 -0.5146 -0.8569  0.5004
 5139TIP3   OH215338   5.318   0.286   6.881  0.1518  0.3918 -0.2628
 5139TIP3    H115339   5.329   0.322   6.793 -0.1342  0.3572 -0.3148
 5139TIP3    H215340   5.293   0.195   6.866 -2.6822  1.0836 -0.2243
 5140TIP3   OH215341   0.995   2.008   4.757 -0.2989  0.3579  0.2873
 5140TIP3    H115342   1.003   2.097   4.792 -1.6249  0.1327  1.2248
 5140TIP3    H215343   0.901   1.992   4.752 -0.1739 -0.0849 -2.2936
 5141TIP3   OH215344   5.271   0.330   4.940  0.0816  0.0760  0.0926
 5141TIP3    H115345   5.303   0.398   5.000  2.2562 -1.0772  0.3498
 5141TIP3    H215346   5.317   0.348   4.858  1.2916 -1.4676  0.3838
 5142TIP3   OH215347   4.693   1.679   1.058  0.4131  0.2925 -0.2977
 5142TIP3    H115348   4.657   1.632   1.133 -3.0507 -0.3260 -2.1234
 5142TIP3    H215349   4.693   1.614   0.987  2.6925  1.1087 -1.1491
 5143TIP3   OH215350   5.913   7.424   6.037 -0.3020 -0.6757  0.1304
 5143TIP3    H115351   5.875   7.337   6.037  0.7927 -1.2084 -1.7189
 5143TIP3    H215352   5.859   7.474   6.098 -2.6499 -1.8982 -0.8260
 5144TIP3   OH215353   2.802   7.617   3.123  0.6468 -0.1870 -0.1730
 5144TIP3    H115354   2.855   7.543   3.092 -0.0133 -0.7518  0.0285
 5144TIP3    H215355   2.818   7.619   3.217  0.8850  0.1181 -0.2156
 5145TIP3   OH215356   5.189   6.500   3.613 -0.4095  0.5341  0.2315
 5145TIP3    H115357   5.112   6.555   3.621  0.0305  1.7301 -2.6200
 5145TIP3    H215358   5.162   6.429   3.555  0.1882 -0.0014  0.5913
 5146TIP3   OH215359   0.155   6.903   6.377  0.3170 -0.4118  0.5900
 5146TIP3    H115360   0.086   6.855   6.423  0.2844 -1.8635 -0.8893
 5146TIP3    H215361   0.154   6.868   6.288  0.9438  1.7057 -0.3188
 5147TIP3   OH215362   2.857   4.746   0.052 -0.5383  0.2404 -0.5444
 5147TIP3    H115363   2.870   4.841   0.043 -1.3376  0.4019 -0.1189
 5147TIP3    H215364   2.762   4.736   0.060 -0.3520 -0.2183  3.1340
 5148TIP3   OH215365   1.557   6.002   4.779 -0.7985  0.1871 -0.4024
 5148TIP3    H115366   1.477   5.952   4.794 -1.1874  0.9435  0.0981
 5148TIP3    H215367   1.566   6.057   4.857  0.0217  0.3560 -0.6088
 5149TIP3   OH215368   7.025   8.226   1.268  0.1877 -0.8633  0.0762
 5149TIP3    H115369   6.934   8.200   1.283  0.1374 -0.2646  0.8389
 5149TIP3    H215370   7.063   8.152   1.220  0.1363 -2.5560  2.4680
 5150TIP3   OH215371   1.958   5.676   6.544  0.0797  0.5241 -0.0670
 5150TIP3    H115372   1.935   5.769   6.533  0.6731  0.5986 -0.8227
 5150TIP3    H215373   1.880   5.629   6.514 -0.2998  0.7768  0.5103
 5151TIP3   OH215374   5.843   2.525   5.267 -0.4828  0.1963 -0.2179
 5151TIP3    H115375   5.877   2.484   5.188 -0.0487 -0.6562  0.3860
 5151TIP3    H215376   5.869   2.466   5.338 -0.4398  1.1775  0.6180
 5152TIP3   OH215377   5.649   4.443   0.916  0.6273  0.2382  0.2883
 5152TIP3    H115378   5.696   4.395   0.984  0.2591 -2.0546 -0.9513
 5152TIP3    H215379   5.558   4.413   0.924  0.6408 -0.3482 -1.3722
 5153TIP3   OH215380   3.008   5.410   2.512 -0.0399 -0.8015 -0.2867
 5153TIP3    H115381   2.947   5.483   2.502 -1.1771 -2.0077 -3.4495
 5153TIP3    H215382   3.095   5.449   2.507 -0.5686  0.5365  0.5058
 5154TIP3   OH215383   7.265   0.505   2.176 -0.4246 -0.8850  0.5105
 5154TIP3    H115384   7.198   0.559   2.219 -0.5804 -1.1402  0.5893
 5154TIP3    H215385   7.215   0.440   2.127 -0.2535 -0.5580 -0.1186
 5155TIP3   OH215386   7.303   1.752   2.453  0.3301 -0.1988  0.3193
 5155TIP3    H115387   7.214   1.761   2.418  0.0468 -0.2917  0.9998
 5155TIP3    H215388   7.341   1.839   2.445  0.3986 -0.3017 -0.5481
 5156TIP3   OH215389   0.739   2.292   0.381 -0.0803 -0.0317 -0.3758
 5156TIP3    H115390   0.733   2.250   0.295 -0.6875 -0.7869  0.0240
 5156TIP3    H215391   0.662   2.348   0.386 -0.4573 -0.5674 -0.0331
 5157TIP3   OH215392   7.860   0.441   1.725 -0.5369  0.6162 -0.1635
 5157TIP3    H115393   7.799   0.501   1.768  0.1710  1.0876  0.2021
 5157TIP3    H215394   7.922   0.499   1.680  0.7345  0.2123  0.9902
 5158TIP3   OH215395   5.610   1.531   1.570 -0.0182 -0.1202 -0.3049
 5158TIP3    H115396   5.583   1.615   1.608  0.8994 -0.5478  1.4357
 5158TIP3    H215397   5.682   1.554   1.511  0.2216  0.3403  0.1502
 5159TIP3   OH215398   2.172   3.374   0.982 -0.3129 -0.2511  0.0146
 5159TIP3    H115399   2.176   3.283   1.011  0.1324 -0.1472  0.2937
 5159TIP3    H215400   2.102   3.375   0.916  0.6079 -1.0971 -1.0265
 5160TIP3   OH215401   7.585   6.933   6.528 -0.1088 -0.3364  0.3678
 5160TIP3    H115402   7.580   6.840   6.510 -0.2150 -0.1182 -0.7719
 5160TIP3    H215403   7.494   6.962   6.535 -0.1586 -0.8589  3.9056
 5161TIP3   OH215404   8.428   3.737   6.084 -0.3000 -0.2091  0.2112
 5161TIP3    H115405   8.354   3.693   6.125 -0.0487 -1.3463 -0.4936
 5161TIP3    H215406   8.428   3.706   5.993 -0.0877  1.2564 -0.3180
 5162TIP3   OH215407   6.185   3.864   1.209  0.1346 -0.0621 -0.8635
 5162TIP3    H115408   6.167   3.779   1.168 -0.3884  0.4756 -1.7988
 5162TIP3    H215409   6.264   3.895   1.165  1.7327 -1.0642  1.1170
 5163TIP3   OH215410   7.342   0.183   4.677  0.3008  0.0940 -0.1798
 5163TIP3    H115411   7.425   0.164   4.633  0.2970 -1.7670  0.5225
 5163TIP3    H215412   7.342   0.278   4.687  2.2666  0.1618 -0.3495
 5164TIP3   OH215413   5.237   4.247   6.135 -0.4840  0.0128  0.3357
 5164TIP3    H115414   5.146   4.231   6.162 -0.5975  1.6204  1.0217
 5164TIP3    H215415   5.253   4.183   6.065 -2.0153 -0.5462  0.4621
 5165TIP3   OH215416   2.044   4.530   3.106 -0.2872 -0.3386 -0.3170
 5165TIP3    H115417   1.961   4.514   3.151 -0.1227  0.3573  0.2557
 5165TIP3    H215418   2.079   4.442   3.090 -0.3505 -0.6224  0.9421
 5166TIP3   OH215419   0.293   2.691   3.081 -0.0688 -0.4218 -0.0135
 5166TIP3    H115420   0.310   2.653   3.167  1.5616  1.5916  0.6080
 5166TIP3    H215421   0.373   2.673   3.031 -0.5780 -0.6230 -0.7752
 5167TIP3   OH215422   4.105   0.666   2.481 -0.1931  0.6872  0.0251
 5167TIP3    H115423   4.017   0.638   2.456  0.2861 -0.9249  0.0119
 5167TIP3    H215424   4.161   0.591   2.459  1.0493  1.3371  0.8521
 5168TIP3   OH215425   4.134   2.017   2.391  0.3173 -0.7714  0.2040
 5168TIP3    H115426   4.105   2.107   2.378  0.3970 -0.9072 -1.0149
 5168TIP3    H215427   4.082   1.966   2.330  1.0279 -1.4125  0.1268
 5169TIP3   OH215428   2.371   4.803   2.997  0.4641 -0.2676  0.2256
 5169TIP3    H115429   2.393   4.713   2.971 -0.4484 -0.6983  0.8529
 5169TIP3    H215430   2.335   4.793   3.085  0.0282  0.6761  0.1613
 5170TIP3   OH215431   7.236   0.853   0.825 -0.3605 -0.2686 -0.3072
 5170TIP3    H115432   7.185   0.934   0.817  0.2148  0.2147  0.6986
 5170TIP3    H215433   7.193   0.804   0.894 -0.2854 -0.4847 -0.4147
 5171TIP3   OH215434   4.123   1.088   2.259  0.1414 -0.2975 -0.4563
 5171TIP3    H115435   4.138   1.094   2.165 -0.3994 -0.5534 -0.5659
 5171TIP3    H215436   4.036   1.125   2.272  0.8636  1.2679  0.1717
 5172TIP3   OH215437   5.120   6.348   3.367  0.0599 -0.2577 -0.0071
 5172TIP3    H115438   5.188   6.282   3.383  1.7359  0.9951 -1.5304
 5172TIP3    H215439   5.057   6.305   3.310 -0.0716 -1.2246  0.8439
 5173TIP3   OH215440   8.266   0.867   2.473 -0.4512  0.5988  0.1391
 5173TIP3    H115441   8.360   0.886   2.466 -0.5552  1.4235  0.8189
 5173TIP3    H215442   8.251   0.849   2.566 -0.8776 -0.0631 -0.0505
 5174TIP3   OH215443   6.108   3.650   5.719 -0.4182 -0.1340  0.0143
 5174TIP3    H115444   6.125   3.637   5.812 -0.1124 -0.5848 -0.1027
 5174TIP3    H215445   6.132   3.567   5.678 -0.3575  0.1285 -0.4922
 5175TIP3   OH215446   7.373   6.277   3.934 -0.0981  0.4803  0.0748
 5175TIP3    H115447   7.449   6.316   3.978 -1.0498  2.1544  0.3497
 5175TIP3    H215448   7.313   6.254   4.005  0.5202 -1.7508 -0.0763
 5176TIP3   OH215449   7.181   1.181   4.252 -0.1759 -0.8788  0.0337
 5176TIP3    H115450   7.183   1.277   4.250  2.4658 -0.8541 -0.2387
 5176TIP3    H215451   7.146   1.159   4.338 -0.0057  0.3409  0.4309
 5177TIP3   OH215452   1.484   1.503   0.527 -0.0510  0.1490  0.2516
 5177TIP3    H115453   1.429   1.425   0.529  0.8367 -0.5052 -0.1651
 5177TIP3    H215454   1.445   1.561   0.592 -2.6549  0.7043 -1.6256
 5178TIP3   OH215455   2.005   2.227   2.294  0.7641 -0.0584  0.3996
 5178TIP3    H115456   2.043   2.314   2.306 -2.0829  1.2951  0.3914
 5178TIP3    H215457   2.046   2.194   2.214  1.6933  1.3928  0.2269
 5179TIP3   OH215458   5.596   4.514   2.047 -0.0786 -0.6529 -0.2855
 5179TIP3    H115459   5.585   4.554   1.960  0.6271 -0.9048 -0.4947
 5179TIP3    H215460   5.603   4.421   2.029  2.4610 -0.5332 -0.2055
 5180TIP3   OH215461   2.456   1.025   2.649 -0.2102 -0.0748  0.0147
 5180TIP3    H115462   2.469   0.952   2.588 -0.7199 -0.5657  0.4781
 5180TIP3    H215463   2.491   0.993   2.732  2.2067  1.2525 -0.3803
 5181TIP3   OH215464   6.804   7.669   2.179  0.2547 -0.0619 -0.0225
 5181TIP3    H115465   6.824   7.726   2.105  2.3782  1.9262  1.9416
 5181TIP3    H215466   6.723   7.704   2.215  1.7068  2.1020  1.3636
 5182TIP3   OH215467   8.264   2.464   6.125 -0.2138  0.7578  0.1343
 5182TIP3    H115468   8.219   2.529   6.180 -3.2153 -2.5766  2.1032
 5182TIP3    H215469   8.342   2.440   6.175 -0.2353  1.3132  0.4414
 5183TIP3   OH215470   2.870   1.599   1.525 -0.9529 -0.6717 -0.2980
 5183TIP3    H115471   2.932   1.643   1.584 -0.7496 -0.9625 -0.2954
 5183TIP3    H215472   2.879   1.506   1.546 -0.4923 -0.8257 -1.1698
 5184TIP3   OH215473   2.706   4.561   5.041 -0.3423  0.0094 -0.1971
 5184TIP3    H115474   2.705   4.472   5.004  1.3012  0.2876 -1.0133
 5184TIP3    H215475   2.632   4.605   4.999 -2.7448 -1.5657  2.0029
 5185TIP3   OH215476   6.072   5.300   2.303  0.7083 -0.2987  0.6689
 5185TIP3    H115477   6.072   5.208   2.329  1.5521 -0.3871  0.4002
 5185TIP3    H215478   5.992   5.336   2.341 -0.5206 -1.5235 -0.6471
 5186TIP3   OH215479   6.396   7.140   4.017  0.0144  0.3048  0.1055
 5186TIP3    H115480   6.418   7.047   4.010 -1.2779 -0.0256  0.2691
 5186TIP3    H215481   6.334   7.145   4.090 -1.7236  0.9485 -1.3438
 5187TIP3   OH215482   0.238   5.402   6.744 -0.8676  0.2020 -0.1008
 5187TIP3    H115483   0.173   5.472   6.749 -1.5125 -0.2682 -1.3971
 5187TIP3    H215484   0.300   5.421   6.814 -2.0535  1.0160  0.7577
 5188TIP3   OH215485   6.550   1.809   5.414 -0.4437 -0.2470  0.0820
 5188TIP3    H115486   6.486   1.808   5.485 -0.5549 -0.3625 -0.0175
 5188TIP3    H215487   6.635   1.814   5.457 -0.5128 -0.2638  0.2204
 5189TIP3   OH215488   3.994   0.127   0.411 -0.2247 -0.0054 -0.2754
 5189TIP3    H115489   3.909   0.157   0.444 -0.4676 -1.0264  0.0530
 5189TIP3    H215490   3.985   0.127   0.316 -1.0383 -1.3403 -0.2181
 5190TIP3   OH215491   4.820   4.752   5.140 -0.3611 -0.0414  0.0610
 5190TIP3    H115492   4.814   4.679   5.202 -2.2174  0.3933  0.4762
 5190TIP3    H215493   4.844   4.712   5.057 -0.1457 -0.9563  0.5529
 5191TIP3   OH215494   6.949   2.702   3.983 -0.1041 -0.9337  0.3542
 5191TIP3    H115495   6.988   2.624   3.943 -0.7519 -0.5619 -1.0720
 5191TIP3    H215496   6.985   2.775   3.934 -0.2650 -0.3962  1.0259
 5192TIP3   OH215497   4.034   0.884   6.215  0.0279 -0.0172  0.3132
 5192TIP3    H115498   3.948   0.894   6.173 -0.1390  0.3717  0.7312
 5192TIP3    H215499   4.044   0.965   6.266  0.7632  0.0553  0.0547
 5193TIP3   OH215500   5.497   1.149   1.182 -0.1030 -0.2111 -0.3662
 5193TIP3    H115501   5.495   1.215   1.113  2.1431  1.2000  0.7833
 5193TIP3    H215502   5.424   1.173   1.240 -0.3331  0.2229 -0.8280
 5194TIP3   OH215503   1.391   3.789   1.103  0.4444  0.1091 -0.4470
 5194TIP3    H115504   1.418   3.715   1.048 -1.1462 -0.0047 -1.1312
 5194TIP3    H215505   1.387   3.751   1.191 -0.9238 -0.8141 -0.8735
 5195TIP3   OH215506   7.120   4.171   4.971 -0.6383 -0.0819  0.4161
 5195TIP3    H115507   7.177   4.100   5.000 -2.4101 -2.4042 -1.4058
 5195TIP3    H215508   7.142   4.183   4.878  2.0802  4.3617  1.3138
 5196TIP3   OH215509   7.026   7.067   5.686 -0.6921  0.1822 -0.7737
 5196TIP3    H115510   7.016   7.061   5.591 -0.3432  1.3996 -0.9074
 5196TIP3    H215511   6.977   7.146   5.709  0.7255  0.9169 -0.1874
 5197TIP3   OH215512   2.947   7.730   4.560 -0.0319  0.0977  0.3813
 5197TIP3    H115513   2.957   7.763   4.649 -1.6563  0.0865  0.6112
 5197TIP3    H215514   2.928   7.808   4.508  2.2233  0.2891 -0.2359
 5198TIP3   OH215515   5.517   0.506   4.064  0.6708  0.4967 -0.4053
 5198TIP3    H115516   5.563   0.424   4.083  0.6032  0.9309  2.0135
 5198TIP3    H215517   5.552   0.568   4.128 -1.8481  1.3594  0.2583
 5199TIP3   OH215518   7.186   5.228   2.522  0.0399 -0.3812  0.1460
 5199TIP3    H115519   7.157   5.255   2.435 -0.1971  0.4164  0.4581
 5199TIP3    H215520   7.197   5.311   2.569 -1.9192 -0.8560  1.5421
 5200TIP3   OH215521   6.820   2.752   2.643 -0.1888  0.7692 -0.6445
 5200TIP3    H115522   6.877   2.748   2.566  1.7253 -0.0703  0.7147
 5200TIP3    H215523   6.864   2.813   2.702 -0.8188  0.2873  0.3558
 5201TIP3   OH215524   3.746   7.950   3.082 -0.1345  0.3903  0.0176
 5201TIP3    H115525   3.665   7.935   3.034 -0.0927  2.2869 -0.7418
 5201TIP3    H215526   3.731   8.032   3.130  0.8901  0.1132  0.8562
 5202TIP3   OH215527   2.793   3.718   2.015  0.0209 -0.0598 -0.2310
 5202TIP3    H115528   2.882   3.753   2.026  1.2990 -2.8977 -0.6113
 5202TIP3    H215529   2.789   3.644   2.075 -1.7161 -0.6145 -0.9691
 5203TIP3   OH215530   1.481   4.492   2.866 -0.3853 -0.1080  0.1128
 5203TIP3    H115531   1.417   4.544   2.818 -0.0766  1.0084  0.8704
 5203TIP3    H215532   1.504   4.546   2.942  1.7909 -0.2486 -0.3658
 5204TIP3   OH215533   4.338   0.397   1.671 -0.4675 -0.3513  0.0134
 5204TIP3    H115534   4.426   0.414   1.705 -1.1358 -0.2189  1.7583
 5204TIP3    H215535   4.310   0.317   1.716 -0.6793 -1.2790 -1.6857
 5205TIP3   OH215536   4.260   7.456   4.184  0.4534 -0.5077 -0.6893
 5205TIP3    H115537   4.217   7.397   4.122  0.7319 -1.1489 -0.2847
 5205TIP3    H215538   4.328   7.402   4.225  0.2240 -0.1137  0.2287
 5206TIP3   OH215539   6.111   1.680   5.659 -0.3063  0.1641  0.2001
 5206TIP3    H115540   6.110   1.594   5.700  0.3157 -0.0848 -0.2975
 5206TIP3    H215541   6.201   1.710   5.669 -0.1407  0.0965 -0.9816
 5207TIP3   OH215542   0.754   8.118   1.211  0.4135  0.2665 -0.0701
 5207TIP3    H115543   0.846   8.094   1.222  0.3272 -0.6715 -1.2079
 5207TIP3    H215544   0.718   8.049   1.155 -0.7146  1.2076 -0.5343
 5208TIP3   OH215545   0.136   8.077   6.231 -0.4197 -0.3280 -0.0217
 5208TIP3    H115546   0.226   8.106   6.221 -0.5267 -0.1863 -0.6573
 5208TIP3    H215547   0.139   8.009   6.298  0.4881 -1.7411 -1.4051
 5209TIP3   OH215548   2.047   1.162   0.534 -0.7674  0.4849  0.4143
 5209TIP3    H115549   2.046   1.094   0.466  0.3248 -0.0593  0.8964
 5209TIP3    H215550   2.003   1.237   0.495  0.9698  0.6463 -1.4145
 5210TIP3   OH215551   4.079   7.709   5.251 -0.3975 -0.1851  0.0108
 5210TIP3    H115552   4.064   7.675   5.339 -2.1312  0.6578  0.0769
 5210TIP3    H215553   4.009   7.672   5.198 -1.0420  1.5017 -0.3827
 5211TIP3   OH215554   6.039   2.271   1.193 -0.8058  0.6168 -0.1529
 5211TIP3    H115555   6.107   2.250   1.257  0.0950  0.6474 -1.0777
 5211TIP3    H215556   6.076   2.245   1.109 -2.6483 -1.0837 -0.5319
 5212TIP3   OH215557   1.294   3.915   1.895  0.1309  0.1174 -0.1819
 5212TIP3    H115558   1.354   3.840   1.896  1.5150  1.2082  0.6240
 5212TIP3    H215559   1.268   3.922   1.803  0.5381 -0.9169 -0.3955
 5213TIP3   OH215560   7.132   4.842   0.356  0.2082  0.4716 -0.3328
 5213TIP3    H115561   7.083   4.915   0.318 -0.2624 -0.0874 -0.7975
 5213TIP3    H215562   7.070   4.799   0.414  0.1651 -0.1970 -0.8688
 5214TIP3   OH215563   3.085   5.535   6.130 -0.1484 -0.2411 -0.0794
 5214TIP3    H115564   3.108   5.442   6.122 -0.6078 -0.4085  0.5008
 5214TIP3    H215565   3.078   5.549   6.224  0.3008  0.4809 -0.1504
 5215TIP3   OH215566   2.276   2.956   5.925 -0.1593 -0.2516  0.4047
 5215TIP3    H115567   2.332   2.993   5.856 -0.4759 -0.2792  0.1319
 5215TIP3    H215568   2.188   2.959   5.889 -0.3789  0.0600  0.9463
 5216TIP3   OH215569   8.264   7.414   3.572 -0.0253  0.1840 -0.1781
 5216TIP3    H115570   8.289   7.323   3.587 -1.1765  0.0380  1.1304
 5216TIP3    H215571   8.184   7.426   3.624  0.8178  2.3022  0.7791
 5217TIP3   OH215572   1.054   3.489   6.002 -0.4628 -0.4344 -0.1067
 5217TIP3    H115573   1.118   3.420   6.018 -1.0130 -0.6399  1.3498
 5217TIP3    H215574   1.107   3.566   5.981  0.2349 -0.8107  0.2380
 5218TIP3   OH215575   0.175   2.701   5.615  0.4981  0.2070 -0.1713
 5218TIP3    H115576   0.258   2.658   5.595 -0.1821 -0.3539 -1.9783
 5218TIP3    H215577   0.124   2.634   5.660 -0.0090 -0.4335 -1.6491
 5219TIP3   OH215578   3.568   4.246   1.850  0.0715 -0.7561  0.2720
 5219TIP3    H115579   3.615   4.225   1.930 -0.0739 -1.9092  0.0633
 5219TIP3    H215580   3.514   4.169   1.832 -0.4165 -0.2418 -0.5643
 5220TIP3   OH215581   6.575   6.755   1.598 -0.2419  0.6640 -0.3991
 5220TIP3    H115582   6.506   6.743   1.663  1.6494  1.1993  1.8145
 5220TIP3    H215583   6.564   6.845   1.567 -0.8476  0.5673 -0.4732
 5221TIP3   OH215584   2.604   7.813   3.120  0.0991 -0.3749  0.1542
 5221TIP3    H115585   2.673   7.751   3.095  0.4863 -0.3347  1.0916
 5221TIP3    H215586   2.553   7.767   3.186  1.0049  0.6338  1.6163
 5222TIP3   OH215587   4.372   0.274   4.461 -0.1487 -0.5785 -0.3616
 5222TIP3    H115588   4.299   0.222   4.494  0.3321 -0.2069  1.3875
 5222TIP3    H215589   4.393   0.235   4.376 -1.9978 -1.0425 -0.6451
 5223TIP3   OH215590   2.008   4.006   0.906  0.1941 -0.2758 -0.2043
 5223TIP3    H115591   2.049   3.983   0.823 -0.5160  1.2915 -1.0512
 5223TIP3    H215592   1.932   3.948   0.913  1.2715 -1.6679  0.2842
 5224TIP3   OH215593   0.701   5.110   3.431 -0.5310 -0.4819  0.0059
 5224TIP3    H115594   0.648   5.065   3.497 -1.5425 -1.7252 -1.5684
 5224TIP3    H215595   0.637   5.138   3.365  0.0475  3.2738  0.8137
 5225TIP3   OH215596   5.662   4.713   1.325  0.5754  0.4212  0.1345
 5225TIP3    H115597   5.666   4.776   1.397 -0.8569 -0.3615  0.9592
 5225TIP3    H215598   5.722   4.748   1.259  0.8279  1.9350  1.1037
 5226TIP3   OH215599   4.584   1.881   3.897  0.2803 -0.0312 -0.3855
 5226TIP3    H115600   4.547   1.953   3.846  0.1018  0.5297  0.5109
 5226TIP3    H215601   4.677   1.901   3.903  0.6587 -1.1153 -2.1105
 5227TIP3   OH215602   1.649   6.401   3.701  0.9930 -0.2236 -0.1891
 5227TIP3    H115603   1.726   6.441   3.659  1.6557 -0.6223  0.6191
 5227TIP3    H215604   1.672   6.397   3.793 -1.5011  3.1863  0.7804
 5228TIP3   OH215605   5.452   7.871   1.657 -0.6545 -0.1784 -0.2404
 5228TIP3    H115606   5.449   7.801   1.593 -0.0851  0.1320 -0.6220
 5228TIP3    H215607   5.545   7.895   1.662 -0.5709 -0.6929  1.2496
 5229TIP3   OH215608   3.376   0.003   4.770  0.2283 -0.0774  0.1808
 5229TIP3    H115609   3.345   0.013   4.860 -0.9636  0.5082 -0.2794
 5229TIP3    H215610   3.342   0.080   4.724  1.3162 -0.0666 -0.6449
 5230TIP3   OH215611   8.493   4.887   5.813  0.2503  0.3893 -0.6735
 5230TIP3    H115612   8.518   4.803   5.775  0.8620 -0.3545  1.2633
 5230TIP3    H215613   8.414   4.868   5.863  0.2627  1.0191 -0.4032
 5231TIP3   OH215614   1.125   5.937   6.520  0.5506 -0.1396  0.0390
 5231TIP3    H115615   1.052   5.918   6.462  0.5277 -0.9225  0.3094
 5231TIP3    H215616   1.101   6.019   6.563 -1.5604 -1.7795  2.2780
 5232TIP3   OH215617   0.967   8.067   2.429  0.3937  0.3168 -0.0217
 5232TIP3    H115618   0.872   8.056   2.424  0.3356  1.3163 -1.5854
 5232TIP3    H215619   1.002   7.988   2.388  0.2654 -0.0496  0.5497
 5233TIP3   OH215620   4.968   2.192   6.911  0.6207 -0.3423 -0.2050
 5233TIP3    H115621   5.003   2.270   6.955 -0.1478 -0.3835  0.5102
 5233TIP3    H215622   4.917   2.148   6.979 -0.2168 -0.6649 -1.0269
 5234TIP3   OH215623   0.568   2.484   0.060  0.1633 -0.5188 -0.6913
 5234TIP3    H115624   0.549   2.475   0.154  1.0724  1.0210 -0.3314
 5234TIP3    H215625   0.555   2.396   0.025 -0.0751 -1.1554  0.9022
 5235TIP3   OH215626   4.282   4.943   3.159  0.3069  0.0452 -0.0464
 5235TIP3    H115627   4.235   4.869   3.120 -0.8554  0.1276  1.1304
 5235TIP3    H215628   4.276   4.929   3.253  1.1227  1.0106  0.1712
 5236TIP3   OH215629   4.424   7.364   6.905 -0.0852 -0.0704 -0.2183
 5236TIP3    H115630   4.342   7.328   6.872 -0.0641  0.8514 -1.3401
 5236TIP3    H215631   4.399   7.409   6.987 -0.3881 -1.1793  0.3193
 5237TIP3   OH215632   2.897   3.326   5.622 -0.1930  0.2754 -0.1867
 5237TIP3    H115633   2.911   3.418   5.645 -1.4981  0.2731  0.7129
 5237TIP3    H215634   2.967   3.279   5.667 -0.3602  0.6944  0.5291
 5238TIP3   OH215635   1.706   8.075   3.664 -0.0201 -0.0093  0.3925
 5238TIP3    H115636   1.751   8.148   3.621 -0.8364  0.2884  0.0034
 5238TIP3    H215637   1.635   8.117   3.714 -0.6684 -0.5395 -0.0567
 5239TIP3   OH215638   4.355   6.108   1.968 -0.0133  0.4415 -0.4176
 5239TIP3    H115639   4.422   6.167   1.934 -1.5282  3.1709  0.9367
 5239TIP3    H215640   4.296   6.165   2.018 -2.2825 -2.0846  0.0572
 5240TIP3   OH215641   3.857   3.051   2.409 -0.0360 -0.3580  0.9774
 5240TIP3    H115642   3.815   3.097   2.336  0.6122  1.3518  1.6355
 5240TIP3    H215643   3.803   2.974   2.423  0.1679 -1.1073 -1.7208
 5241TIP3   OH215644   1.477   5.775   3.843  0.3071  0.0910 -0.2834
 5241TIP3    H115645   1.440   5.831   3.774  1.0369 -0.5066 -1.1894
 5241TIP3    H215646   1.555   5.737   3.803  0.9625  0.0293  1.0242
 5242TIP3   OH215647   0.438   1.883   0.615  0.1164  0.5094 -0.7600
 5242TIP3    H115648   0.479   1.968   0.631  1.5510 -0.4173  0.8017
 5242TIP3    H215649   0.401   1.858   0.700 -0.0648 -0.5343 -1.1368
 5243TIP3   OH215650   3.958   2.577   5.070  0.4827 -0.1553 -0.1352
 5243TIP3    H115651   3.912   2.539   5.145  2.2559 -0.0375  1.0635
 5243TIP3    H215652   3.978   2.667   5.098 -1.1436  0.7909 -1.8143
 5244TIP3   OH215653   0.939   0.999   1.019 -0.5218 -0.3013 -0.1651
 5244TIP3    H115654   0.972   0.912   1.043  1.3128  0.8324  1.7179
 5244TIP3    H215655   0.888   1.027   1.096 -0.5127  0.5686 -0.4715
 5245TIP3   OH215656   8.253   0.018   3.597  0.4641  0.5794  0.0556
 5245TIP3    H115657   8.267  -0.045   3.527 -0.5423  0.6483 -0.2314
 5245TIP3    H215658   8.291   0.100   3.565 -0.1568  0.6590 -0.4976
 5246TIP3   OH215659   2.709   6.963   3.457 -0.1634  0.4006 -0.4707
 5246TIP3    H115660   2.683   6.872   3.472  1.4135 -0.1169 -0.7278
 5246TIP3    H215661   2.679   7.009   3.536  0.2691 -0.6145  0.3045
 5247TIP3   OH215662   6.037   0.969   2.357 -0.6861  0.1387  0.1270
 5247TIP3    H115663   5.968   0.929   2.305 -2.9272  1.6117  1.7637
 5247TIP3    H215664   6.078   0.896   2.403 -1.5614 -0.7174 -0.4222
 5248TIP3   OH215665   2.505   3.208   2.979  0.6657 -0.3871  0.0678
 5248TIP3    H115666   2.488   3.160   3.060 -0.1760 -1.6373 -0.8120
 5248TIP3    H215667   2.534   3.141   2.917  0.9691  0.4922 -0.7638
 5249TIP3   OH215668   2.461   4.873   6.256 -0.0591 -0.4503  0.0471
 5249TIP3    H115669   2.439   4.840   6.169 -0.2928 -0.0755 -0.0380
 5249TIP3    H215670   2.492   4.963   6.241  1.2394 -0.8417  0.1895
 5250TIP3   OH215671   5.346   3.579   0.487 -0.1335 -0.2304  0.1460
 5250TIP3    H115672   5.416   3.527   0.446 -2.6431 -0.5565 -4.4163
 5250TIP3    H215673   5.355   3.666   0.448 -1.7551 -0.0699  0.0639
 5251TIP3   OH215674   2.141   1.626   2.094  0.7461 -0.0747 -0.3208
 5251TIP3    H115675   2.100   1.674   2.022 -1.0158 -0.3403  0.4666
 5251TIP3    H215676   2.105   1.538   2.087  1.2884 -0.3518  0.3400
 5252TIP3   OH215677   1.663   0.345   0.426  0.4610 -0.4048 -0.7299
 5252TIP3    H115678   1.628   0.319   0.341 -0.2425 -0.5789 -0.3950
 5252TIP3    H215679   1.643   0.272   0.484  2.8889 -1.2622 -0.8843
 5253TIP3   OH215680   0.194   5.321   3.097 -0.3017  0.3688  0.4534
 5253TIP3    H115681   0.254   5.277   3.036 -0.8280  0.1997  0.0586
 5253TIP3    H215682   0.119   5.346   3.043 -0.5092  0.7436  0.9139
 5254TIP3   OH215683   0.042   6.891   3.040  0.0535 -0.4347  0.2827
 5254TIP3    H115684   0.086   6.903   3.124  1.3668 -0.8070 -0.3175
 5254TIP3    H215685   0.109   6.913   2.975 -1.2234  0.7731 -0.6720
 5255TIP3   OH215686   3.435   7.332   4.359 -0.0858  0.2393 -0.0616
 5255TIP3    H115687   3.386   7.256   4.328 -0.5407  1.2082 -1.8673
 5255TIP3    H215688   3.502   7.295   4.417  1.5785 -1.9757 -3.0506
 5256TIP3   OH215689   7.110   4.845   1.057 -0.6269  0.0353  0.2264
 5256TIP3    H115690   7.041   4.909   1.070 -0.3874  0.6241 -1.2304
 5256TIP3    H215691   7.109   4.826   0.963 -1.5614 -3.1255  0.7389
 5257TIP3   OH215692   4.128   6.261   3.114 -0.0038 -0.0023  0.1147
 5257TIP3    H115693   4.216   6.298   3.109  0.5703 -1.2950  0.2997
 5257TIP3    H215694   4.089   6.280   3.029  0.7750 -0.1937 -0.2907
 5258TIP3   OH215695   8.541   1.433   6.940 -0.4756  0.0825 -0.3560
 5258TIP3    H115696   8.614   1.375   6.962  0.6683  1.5328 -0.2549
 5258TIP3    H215697   8.508   1.399   6.856 -1.0872 -1.8647  0.6008
 5259TIP3   OH215698   6.748   5.014   4.300 -0.1302  0.3697 -0.0762
 5259TIP3    H115699   6.665   4.979   4.333  0.3122 -0.0649  0.5858
 5259TIP3    H215700   6.730   5.033   4.207 -0.6621 -0.6890 -0.2053
 5260TIP3   OH215701   2.203   4.475   2.815  0.0943 -0.1441  0.6318
 5260TIP3    H115702   2.172   4.384   2.812  0.6235 -0.4194  2.4165
 5260TIP3    H215703   2.126   4.528   2.798  0.1847 -0.8714 -3.0563
 5261TIP3   OH215704   7.193   0.382   6.213  0.5770 -0.1726  0.5447
 5261TIP3    H115705   7.157   0.380   6.125  2.1911 -0.4599 -0.1393
 5261TIP3    H215706   7.117   0.377   6.270 -0.4958  0.0382 -0.8263
 5262TIP3   OH215707   2.475   1.141   6.007  0.3657 -0.1376 -0.3304
 5262TIP3    H115708   2.384   1.116   5.989  0.0430 -0.3698  1.4868
 5262TIP3    H215709   2.478   1.235   5.986 -0.5135  0.0502  0.3357
 5263TIP3   OH215710   4.910   2.133   3.255  0.1704  0.4422  0.2917
 5263TIP3    H115711   4.917   2.040   3.276 -1.5643  0.0805 -0.5581
 5263TIP3    H215712   4.840   2.138   3.190 -0.0437  2.3892  0.6072
 5264TIP3   OH215713   5.594   5.504   7.049  0.4007 -0.7837  0.0500
 5264TIP3    H115714   5.662   5.491   6.983  2.9859 -0.1172  2.3891
 5264TIP3    H215715   5.595   5.423   7.100  1.6245  0.2935  1.8604
 5265TIP3   OH215716   1.068   1.745   5.305  0.2492  0.0788 -0.0315
 5265TIP3    H115717   1.160   1.765   5.288  0.3345 -0.4895 -0.2544
 5265TIP3    H215718   1.044   1.682   5.238  0.1462 -0.9906  0.9800
 5266TIP3   OH215719   1.714   6.413   6.942 -0.4657 -0.3501 -0.8528
 5266TIP3    H115720   1.765   6.490   6.967  2.0893 -2.5677  1.4251
 5266TIP3    H215721   1.672   6.438   6.859  1.6805  2.8226 -1.1740
 5267TIP3   OH215722   0.103   6.523   1.700  0.2098  0.8718  0.2493
 5267TIP3    H115723   0.009   6.529   1.719  0.0925  2.4456 -0.5835
 5267TIP3    H215724   0.114   6.575   1.620  1.6107 -0.3450 -0.3996
 5268TIP3   OH215725   7.245   7.650   0.226  0.5823  0.2740  0.0240
 5268TIP3    H115726   7.275   7.642   0.135 -0.1552  2.0023 -0.4077
 5268TIP3    H215727   7.181   7.580   0.236  0.7465 -0.0017 -0.7702
 5269TIP3   OH215728   1.917   5.268   5.127  0.0579 -0.3428  0.2320
 5269TIP3    H115729   1.956   5.300   5.046  1.1706  0.0772  0.9148
 5269TIP3    H215730   1.937   5.175   5.129  1.1335 -0.1204  0.6093
 5270TIP3   OH215731   8.372   8.135   2.071  0.5097  0.1931 -0.2883
 5270TIP3    H115732   8.278   8.118   2.060  0.6777 -0.5855 -0.5846
 5270TIP3    H215733   8.376   8.214   2.125 -0.3280 -0.9115  1.4946
 5271TIP3   OH215734   5.786   3.050   4.683  0.4955  0.1818  0.1364
 5271TIP3    H115735   5.704   3.002   4.679  0.3567  0.2426  1.5441
 5271TIP3    H215736   5.844   3.003   4.623 -0.7362  0.5450 -1.3988
 5272TIP3   OH215737   3.062   5.536   4.622 -0.2550 -0.0892  0.2769
 5272TIP3    H115738   3.123   5.554   4.694  0.4955 -1.8687  0.1281
 5272TIP3    H215739   2.996   5.478   4.661 -0.2171 -0.5305 -0.3048
 5273TIP3   OH215740   4.416   1.027   2.017  0.5486 -0.1208 -0.2161
 5273TIP3    H115741   4.385   1.108   1.976  0.0139 -1.3227 -2.3349
 5273TIP3    H215742   4.506   1.047   2.043 -0.4566  2.0309  2.0045
 5274TIP3   OH215743   6.751   5.024   6.010 -0.3744  0.2676  0.1964
 5274TIP3    H115744   6.666   5.023   5.967 -0.8319 -0.8564  1.0782
 5274TIP3    H215745   6.740   4.968   6.087  0.7835  1.1869  1.0712
 5275TIP3   OH215746   6.100   2.980   0.379  0.3567 -0.1486  0.3380
 5275TIP3    H115747   6.119   2.895   0.338  1.3658  0.9359 -1.5664
 5275TIP3    H215748   6.073   3.036   0.306  0.0833  1.2836  1.5044
 5276TIP3   OH215749   1.703   2.701   5.399 -0.8012 -0.3444 -0.8077
 5276TIP3    H115750   1.716   2.658   5.315  0.2906  0.0625 -0.8564
 5276TIP3    H215751   1.688   2.793   5.378  0.6176 -0.0285 -0.5163
 5277TIP3   OH215752   2.795   2.089   6.031 -0.1542 -0.1531  0.4417
 5277TIP3    H115753   2.880   2.123   6.003 -0.9583  0.6573 -1.1740
 5277TIP3    H215754   2.775   2.019   5.969 -0.3259 -0.8756  1.2935
 5278TIP3   OH215755   7.875   8.096   6.465 -0.0383  0.4585 -0.0309
 5278TIP3    H115756   7.938   8.136   6.526 -0.0482  0.5854 -0.1045
 5278TIP3    H215757   7.872   8.004   6.491 -0.0366  0.5108  0.1564
 5279TIP3   OH215758   8.254   4.442   1.023 -0.3248 -0.3549  0.0425
 5279TIP3    H115759   8.262   4.360   0.976  1.5814 -0.2908  0.1954
 5279TIP3    H215760   8.272   4.510   0.958 -0.4065 -0.1384  0.2408
 5280TIP3   OH215761   1.923   1.533   3.581 -0.1393  0.3869 -0.3683
 5280TIP3    H115762   1.896   1.525   3.490  0.3620  0.6303 -0.5332
 5280TIP3    H215763   2.012   1.566   3.578  0.1870 -0.3950  0.1856
 5281TIP3   OH215764   7.311   1.715   4.867 -0.0074 -0.2763 -0.7622
 5281TIP3    H115765   7.395   1.703   4.911  0.2844 -0.1878 -1.2946
 5281TIP3    H215766   7.264   1.632   4.882 -0.2724  0.0677  0.4690
 5282TIP3   OH215767   3.236   7.270   3.177 -0.0518 -0.1129  0.3597
 5282TIP3    H115768   3.228   7.192   3.122 -1.9362 -1.4960  2.4455
 5282TIP3    H215769   3.162   7.266   3.237 -0.6855  3.7252  0.1148
 5283TIP3   OH215770   6.707   3.092   5.181 -0.4013  0.0288  0.6189
 5283TIP3    H115771   6.753   3.029   5.124 -1.7190 -1.3451  1.0172
 5283TIP3    H215772   6.657   3.147   5.120  2.3787  2.2041  0.0850
 5284TIP3   OH215773   8.558   0.673   2.057  0.4689 -0.1852  0.0696
 5284TIP3    H115774   8.591   0.666   1.967 -1.3853  0.4024 -0.7150
 5284TIP3    H215775   8.630   0.643   2.112  1.5430 -0.8613 -1.6322
 5285TIP3   OH215776   5.530   2.252   2.076 -0.0699 -0.3416 -0.3170
 5285TIP3    H115777   5.526   2.156   2.079 -1.4898 -0.3730 -1.5474
 5285TIP3    H215778   5.620   2.273   2.098  0.5876 -2.0433 -1.1569
 5286TIP3   OH215779   3.204   4.128   6.165 -0.3593 -0.4769 -0.4187
 5286TIP3    H115780   3.225   4.221   6.175 -1.0750 -0.4173  0.8302
 5286TIP3    H215781   3.137   4.125   6.097  0.9853 -0.2988 -1.8048
 5287TIP3   OH215782   8.569   4.378   5.075  0.4236  0.7465 -0.6005
 5287TIP3    H115783   8.544   4.318   5.145  4.1558 -0.4894 -0.1121
 5287TIP3    H215784   8.508   4.357   5.003 -1.2158 -0.4519  1.0292
 5288TIP3   OH215785   2.310   1.631   0.322 -0.7434 -0.0800 -0.3813
 5288TIP3    H115786   2.226   1.677   0.328 -0.4036  0.5677 -0.5046
 5288TIP3    H215787   2.342   1.651   0.235  1.5106  3.2478  0.9968
 5289TIP3   OH215788   3.367   7.173   5.402 -0.1330  0.4629  0.3868
 5289TIP3    H115789   3.279   7.211   5.400 -1.2775 -1.6754  3.2253
 5289TIP3    H215790   3.357   7.090   5.354  0.7903  0.9079 -0.6115
 5290TIP3   OH215791   4.327   0.842   4.188 -0.2899 -0.4026  0.5846
 5290TIP3    H115792   4.260   0.774   4.184  1.0142 -1.7002  0.1591
 5290TIP3    H215793   4.405   0.798   4.222  1.1975  0.3188 -1.6510
 5291TIP3   OH215794   8.303   4.880   3.209  0.3563 -0.2040  0.0263
 5291TIP3    H115795   8.247   4.910   3.280 -0.3062 -2.2946  0.4522
 5291TIP3    H215796   8.276   4.931   3.133  0.1076  1.0757  0.9494
 5292TIP3   OH215797   0.720   4.242   1.297  0.3223 -0.6659 -0.2161
 5292TIP3    H115798   0.684   4.178   1.358  0.2606 -0.1161  0.3330
 5292TIP3    H215799   0.645   4.293   1.267  0.5834  0.4622  0.9088
 5293TIP3   OH215800   7.248   0.338   3.557  0.1639  0.1436 -0.9316
 5293TIP3    H115801   7.225   0.328   3.465 -0.3423  1.3711 -0.9631
 5293TIP3    H215802   7.320   0.401   3.556  0.2377  0.0669 -0.4983
 5294TIP3   OH215803   0.641   3.905   4.097 -0.2310  0.0579  0.3682
 5294TIP3    H115804   0.592   3.830   4.064 -0.4436  0.1967  0.3615
 5294TIP3    H215805   0.636   3.897   4.192 -2.1006  1.2129  0.4211
 5295TIP3   OH215806   6.535   3.577   4.857 -0.6244 -0.0388 -0.0616
 5295TIP3    H115807   6.566   3.617   4.939 -0.5434 -1.9248  0.8897
 5295TIP3    H215808   6.469   3.513   4.885 -2.6555  1.1953 -1.7426
 5296TIP3   OH215809   0.096   5.299   2.552 -0.0155  0.2608  0.4180
 5296TIP3    H115810   0.002   5.304   2.539  0.1595 -0.0482 -1.1712
 5296TIP3    H215811   0.133   5.334   2.471  1.2165 -1.4829  0.1658
 5297TIP3   OH215812   8.190   6.656   0.309 -0.0302  0.0433  0.1885
 5297TIP3    H115813   8.202   6.745   0.275  0.3568 -0.9783 -2.5009
 5297TIP3    H215814   8.277   6.631   0.341  0.2854 -0.0037 -0.6890
 5298TIP3   OH215815   3.079   7.723   3.026  0.0400  0.2463 -0.2424
 5298TIP3    H115816   3.015   7.686   3.086  0.0853  0.6210  0.0354
 5298TIP3    H215817   3.032   7.791   2.979 -0.2132 -0.5560 -1.1869
 5299TIP3   OH215818   2.183   7.651   5.458 -0.1496  0.1978  0.2391
 5299TIP3    H115819   2.244   7.716   5.423  0.3908 -0.6756 -0.5005
 5299TIP3    H215820   2.194   7.657   5.553  0.5970  0.5217  0.1405
 5300TIP3   OH215821   8.654   1.982   1.703 -0.3230 -0.2471  0.0035
 5300TIP3    H115822   8.632   2.000   1.794 -0.5384 -0.0211 -0.0908
 5300TIP3    H215823   8.740   2.020   1.690  0.3558 -1.5471  0.5078
 5301TIP3   OH215824   5.397   6.578   3.752 -0.0631  0.1255 -0.0110
 5301TIP3    H115825   5.336   6.554   3.683 -0.1420 -0.5492  0.2877
 5301TIP3    H215826   5.462   6.507   3.752  0.0638  0.2413  0.4515
 5302TIP3   OH215827   2.692   2.291   0.306  0.5831  0.4048  0.0599
 5302TIP3    H115828   2.772   2.337   0.280  0.1348  1.2213  0.0639
 5302TIP3    H215829   2.693   2.211   0.254  0.6336  1.1430 -1.1371
 5303TIP3   OH215830   5.123   0.758   5.831 -0.0048  0.0291  0.2567
 5303TIP3    H115831   5.199   0.780   5.778  1.0906 -0.7606  1.4318
 5303TIP3    H215832   5.092   0.841   5.866  0.7402  0.2904  0.3078
 5304TIP3   OH215833   1.275   7.967   6.376 -0.4996 -0.0896 -0.0346
 5304TIP3    H115834   1.287   7.923   6.460  1.0864 -0.5167 -0.4424
 5304TIP3    H215835   1.321   8.050   6.385  0.3324 -0.4557 -0.6889
 5305TIP3   OH215836   0.806   8.105   5.934  0.2368  0.8460 -0.1938
 5305TIP3    H115837   0.744   8.035   5.914  0.7292  0.2955  0.1795
 5305TIP3    H215838   0.860   8.070   6.006  0.7027  1.4745 -0.2273
 5306TIP3   OH215839   0.192   6.318   3.467  0.4104 -0.0317  0.1911
 5306TIP3    H115840   0.154   6.402   3.493  1.2959 -0.0494  1.6156
 5306TIP3    H215841   0.286   6.337   3.457  0.1657  0.0298 -3.3004
 5307TIP3   OH215842   4.157   4.959   6.993 -0.2992  0.2220  0.0912
 5307TIP3    H115843   4.068   4.928   7.004 -0.1695 -0.1132  0.1918
 5307TIP3    H215844   4.197   4.898   6.932 -0.2764  0.6448 -0.3213
 5308TIP3   OH215845   4.582   2.516   6.472  0.3241 -0.2485  0.1589
 5308TIP3    H115846   4.536   2.509   6.389 -0.6287  1.5216  0.4684
 5308TIP3    H215847   4.640   2.440   6.475 -0.4811 -0.9779 -1.5674
 5309TIP3   OH215848   2.366   7.775   6.338 -0.4634  0.1114 -0.1101
 5309TIP3    H115849   2.460   7.788   6.341 -0.3475 -0.4211 -1.0394
 5309TIP3    H215850   2.335   7.835   6.270 -0.7621  0.1143  0.0250
 5310TIP3   OH215851   3.734   2.668   1.097  0.0572  0.0331 -0.4997
 5310TIP3    H115852   3.750   2.707   1.183  0.7120 -0.0550 -0.5833
 5310TIP3    H215853   3.817   2.628   1.072  0.2884  1.2487 -1.7949
 5311TIP3   OH215854   2.594   4.970   6.707 -0.0061 -0.4513  0.1546
 5311TIP3    H115855   2.548   5.050   6.682  0.0142 -0.2469  0.7542
 5311TIP3    H215856   2.525   4.905   6.719  0.0687 -1.0249 -1.9927
 5312TIP3   OH215857   0.089   3.811   2.434 -0.0551 -0.1292 -0.0407
 5312TIP3    H115858   0.047   3.805   2.520 -0.5878  1.7462 -0.1292
 5312TIP3    H215859   0.162   3.872   2.447  0.3488 -0.4433 -0.7557
 5313TIP3   OH215860   1.728   4.707   0.934  0.3248 -0.4016 -0.0557
 5313TIP3    H115861   1.750   4.736   0.845 -0.9429 -1.2864 -0.6941
 5313TIP3    H215862   1.705   4.615   0.924 -0.6763 -0.2945  1.0459
 5314TIP3   OH215863   3.640   4.943   5.837  1.0409  0.2213 -0.4623
 5314TIP3    H115864   3.687   4.964   5.757  0.8275  1.7924 -0.2030
 5314TIP3    H215865   3.626   5.027   5.880 -0.2776 -0.4072  0.4316
 5315TIP3   OH215866   4.776   3.949   0.663  1.2197  0.0035 -0.2536
 5315TIP3    H115867   4.809   3.957   0.752 -0.8307  0.6505  0.5093
 5315TIP3    H215868   4.739   4.035   0.643  0.8318 -0.4040 -1.3843
 5316TIP3   OH215869   8.638   7.039   6.730 -0.0275  0.3671  0.1452
 5316TIP3    H115870   8.629   7.054   6.824 -2.0614 -0.1002  0.0709
 5316TIP3    H215871   8.712   6.978   6.723 -0.2676 -0.1226  1.5084
 5317TIP3   OH215872   2.105   6.739   4.080 -0.2173 -0.1482  0.1071
 5317TIP3    H115873   2.085   6.660   4.030  0.0483  0.9697 -1.8547
 5317TIP3    H215874   2.200   6.739   4.088 -0.2965 -0.6983  1.3297
 5318TIP3   OH215875   7.433   0.027   5.613 -0.4950  0.2611 -0.6619
 5318TIP3    H115876   7.417   0.035   5.707  2.8262 -1.4614  0.2228
 5318TIP3    H215877   7.461   0.115   5.586  0.0504  0.4089  0.3349
 5319TIP3   OH215878   2.071   1.420   0.481  0.2968  0.6362 -0.1980
 5319TIP3    H115879   2.160   1.406   0.513  0.1695 -0.3063 -0.2300
 5319TIP3    H215880   2.082   1.458   0.394  0.6501  3.5482  0.9934
 5320TIP3   OH215881   7.675   5.770   5.771  0.3997  0.4592 -0.3624
 5320TIP3    H115882   7.734   5.845   5.770  0.8188  0.1453 -2.1165
 5320TIP3    H215883   7.646   5.760   5.680 -1.1232 -0.3739  0.1707
 5321TIP3   OH215884   1.108   4.279   3.208  0.1740 -0.0359 -0.1645
 5321TIP3    H115885   1.124   4.186   3.225 -0.0493 -0.5516 -2.3755
 5321TIP3    H215886   1.129   4.289   3.115 -1.1844  1.8186 -0.3076
 5322TIP3   OH215887   7.239   3.464   1.387 -0.2268 -0.3368 -0.2770
 5322TIP3    H115888   7.328   3.439   1.408 -0.3331  2.0115  4.1411
 5322TIP3    H215889   7.185   3.423   1.454 -1.8669  1.5305 -0.3369
 5323TIP3   OH215890   2.741   3.762   1.139 -0.0425  0.9514 -0.2077
 5323TIP3    H115891   2.718   3.671   1.154  0.8865  0.3396 -2.1272
 5323TIP3    H215892   2.729   3.805   1.224 -1.9962 -0.6002  0.3617
 5324TIP3   OH215893   5.736   6.232   0.784  0.0569 -0.2480  0.1971
 5324TIP3    H115894   5.740   6.141   0.814 -0.1659  0.1513  1.4950
 5324TIP3    H215895   5.682   6.228   0.705 -0.9645 -1.0971  0.9073
 5325TIP3   OH215896   1.604   6.478   6.198 -0.3659  0.0762 -0.6347
 5325TIP3    H115897   1.536   6.539   6.170  0.1483  0.7053 -0.5454
 5325TIP3    H215898   1.682   6.506   6.149 -0.4004 -1.2595 -1.4976
 5326TIP3   OH215899   1.486   0.809   4.945  0.4309  0.1333 -0.2823
 5326TIP3    H115900   1.401   0.796   4.905 -0.5153  1.0643  1.3225
 5326TIP3    H215901   1.536   0.859   4.880 -1.1269  1.8207 -0.2396
 5327TIP3   OH215902   6.583   6.999   0.207  0.0516 -0.1475 -0.2978
 5327TIP3    H115903   6.675   7.013   0.185  0.4463  0.5581  1.6226
 5327TIP3    H215904   6.574   6.903   0.214  0.6205 -0.2173 -0.4840
 5328TIP3   OH215905   3.377   3.721   2.046  0.0412  0.1899 -0.2761
 5328TIP3    H115906   3.344   3.742   2.133  0.0218  1.4298 -0.5601
 5328TIP3    H215907   3.391   3.806   2.004 -0.3325 -0.3768 -1.6224
 5329TIP3   OH215908   1.958   6.486   1.187 -0.3796  0.4682 -0.4058
 5329TIP3    H115909   2.001   6.548   1.247  1.5126  0.4030 -1.5980
 5329TIP3    H215910   2.012   6.489   1.108 -0.3667 -2.4768 -0.6334
 5330TIP3   OH215911   3.939   1.356   2.433  0.5276 -0.0060 -0.3193
 5330TIP3    H115912   3.875   1.423   2.458  0.1316  0.2384 -1.8888
 5330TIP3    H215913   3.984   1.393   2.357  0.9890 -1.1198 -0.6079
 5331TIP3   OH215914   4.626   2.401   1.683 -0.2159  0.2440  0.7731
 5331TIP3    H115915   4.548   2.404   1.628  0.0840 -0.4153  0.2988
 5331TIP3    H215916   4.615   2.474   1.744 -0.9919  0.4221  0.4333
 5332TIP3   OH215917   5.812   0.337   3.398 -0.0856  0.1284 -0.0258
 5332TIP3    H115918   5.846   0.420   3.365  1.0983 -0.1513  0.4319
 5332TIP3    H215919   5.845   0.271   3.338  0.4725 -0.1844  0.6098
 5333TIP3   OH215920   5.697   4.179   2.983 -0.4559 -0.2588 -0.1122
 5333TIP3    H115921   5.726   4.269   2.971 -0.9513 -0.1197 -0.3128
 5333TIP3    H215922   5.746   4.129   2.919 -2.6141  0.3820 -2.3979
 5334TIP3   OH215923   7.020   4.430   4.994  0.0830  0.2074 -0.0582
 5334TIP3    H115924   7.055   4.474   5.072  1.7856  0.9708 -1.2075
 5334TIP3    H215925   7.063   4.344   4.994  0.8802  0.5920 -0.6764
 5335TIP3   OH215926   7.679   2.097   3.468 -0.1155 -0.6869 -0.3481
 5335TIP3    H115927   7.602   2.150   3.449 -0.5395 -1.0608  0.2864
 5335TIP3    H215928   7.749   2.161   3.485  0.1166 -0.3403 -2.3876
 5336TIP3   OH215929   0.798   2.234   6.970 -0.5810 -0.5225 -0.0059
 5336TIP3    H115930   0.891   2.219   6.986 -0.2503  1.0608 -0.2778
 5336TIP3    H215931   0.795   2.318   6.924 -2.1188 -0.7530 -0.3705
 5337TIP3   OH215932   0.640   3.990   0.133 -0.6031 -0.4655 -0.0894
 5337TIP3    H115933   0.663   3.978   0.041  0.4573 -0.8796  0.2260
 5337TIP3    H215934   0.703   4.054   0.166 -4.3228  4.2547 -1.0022
 5338TIP3   OH215935   0.848   0.403   0.705 -0.0404  0.8983  0.7381
 5338TIP3    H115936   0.794   0.439   0.635  0.1335  0.6346  0.4679
 5338TIP3    H215937   0.880   0.481   0.752 -1.0206  1.0408  1.1906
 5339TIP3   OH215938   7.641   2.407   4.020 -0.2218 -0.0661  0.2963
 5339TIP3    H115939   7.582   2.394   3.945 -1.8721 -3.6230  1.9901
 5339TIP3    H215940   7.594   2.468   4.077 -1.0547 -0.7900  0.4042
 5340TIP3   OH215941   5.088   3.339   2.068 -1.0199 -0.0716  0.5902
 5340TIP3    H115942   5.027   3.414   2.064 -1.7966 -0.5060  2.7818
 5340TIP3    H215943   5.043   3.269   2.021 -1.0305  0.3586 -0.0498
 5341TIP3   OH215944   1.461   1.882   1.924  0.7524 -0.1193 -0.0965
 5341TIP3    H115945   1.458   1.919   2.012  3.1127  1.9338 -0.7551
 5341TIP3    H215946   1.470   1.958   1.867  0.6572 -1.4815 -2.0024
 5342TIP3   OH215947   6.391   0.333   1.632 -0.1652 -0.0304  0.1891
 5342TIP3    H115948   6.371   0.406   1.691  0.5805 -0.2452  0.7173
 5342TIP3    H215949   6.454   0.369   1.570  0.2904 -0.2610  0.5200
 5343TIP3   OH215950   1.273   1.357   0.889  0.2948 -0.0732  0.0572
 5343TIP3    H115951   1.228   1.420   0.833  0.4877 -0.6889 -0.8261
 5343TIP3    H215952   1.365   1.380   0.883  0.3216 -0.1735  0.0802
 5344TIP3   OH215953   7.983   4.846   6.574 -0.3336 -0.1371  0.7170
 5344TIP3    H115954   7.956   4.930   6.538 -0.5706  0.1279  1.4873
 5344TIP3    H215955   7.976   4.858   6.669 -0.1035 -0.9367  0.8378
 5345TIP3   OH215956   6.230   5.919   2.167  0.2190  0.3624  0.7970
 5345TIP3    H115957   6.209   6.008   2.138 -1.2782  0.2451  1.4359
 5345TIP3    H215958   6.319   5.904   2.135  0.3301  1.9167  0.2884
 5346TIP3   OH215959   8.509   6.063   2.770  0.4499 -0.0802 -0.2037
 5346TIP3    H115960   8.600   6.040   2.788  0.5653  0.3176 -0.2723
 5346TIP3    H215961   8.460   6.028   2.845  0.7026  0.0190  0.0074
 5347TIP3   OH215962   8.354   0.507   0.114  0.6688  0.1214  0.0182
 5347TIP3    H115963   8.289   0.574   0.135 -0.8519 -0.0996 -3.4395
 5347TIP3    H215964   8.421   0.554   0.063  0.4088 -0.6551 -1.0582
 5348TIP3   OH215965   4.549   7.111   5.327  0.2730  0.1081  0.2975
 5348TIP3    H115966   4.476   7.168   5.352  2.0265  3.0336 -0.7159
 5348TIP3    H215967   4.543   7.105   5.232  0.8433 -0.3302  0.2840
 5349TIP3   OH215968   0.446   6.448   1.053  0.3038  0.2464 -0.0419
 5349TIP3    H115969   0.438   6.354   1.036  0.6002  0.0534  0.7929
 5349TIP3    H215970   0.513   6.478   0.991 -1.2077  0.3267 -1.6971
 5350TIP3   OH215971   3.435   1.154   2.833 -0.0417 -0.4380  0.1905
 5350TIP3    H115972   3.360   1.119   2.881 -0.3584  0.9991  0.8222
 5350TIP3    H215973   3.503   1.086   2.840 -1.4576 -2.0501 -0.9568
 5351TIP3   OH215974   4.658   3.656   2.297 -0.2854 -0.4757  0.3729
 5351TIP3    H115975   4.651   3.675   2.391 -1.2033  1.4940 -0.0457
 5351TIP3    H215976   4.655   3.742   2.255 -1.7482 -1.4028 -1.5739
 5352TIP3   OH215977   4.006   4.960   1.975  0.0349  0.6825  0.1284
 5352TIP3    H115978   4.060   5.010   2.037 -0.5372  2.7035 -0.8887
 5352TIP3    H215979   4.009   5.012   1.895 -0.6012 -1.0031 -1.0283
 5353TIP3   OH215980   6.792   1.200   1.130 -0.1891 -0.4372 -0.4813
 5353TIP3    H115981   6.867   1.154   1.168 -1.0100 -1.5528 -0.1398
 5353TIP3    H215982   6.747   1.239   1.205 -0.3860 -0.4490 -0.5918
 5354TIP3   OH215983   8.238   6.651   3.224 -0.4069 -0.4784 -0.1967
 5354TIP3    H115984   8.147   6.665   3.198 -0.7914 -1.0141  0.7856
 5354TIP3    H215985   8.279   6.611   3.147 -1.2534 -1.1334 -0.3233
 5355TIP3   OH215986   7.675   0.188   3.311  0.1107  0.2551 -0.4525
 5355TIP3    H115987   7.608   0.157   3.251 -0.1024  3.5950 -2.1483
 5355TIP3    H215988   7.675   0.283   3.302  2.2054  0.7282  2.6355
 5356TIP3   OH215989   8.613   4.125   1.188  0.3073 -0.3010  0.1141
 5356TIP3    H115990   8.572   4.044   1.157 -0.6035  0.6018 -1.1506
 5356TIP3    H215991   8.563   4.150   1.266  0.2755 -0.6844  0.2156
 5357TIP3   OH215992   0.236   1.161   3.274 -0.5459 -0.1998 -0.0693
 5357TIP3    H115993   0.197   1.215   3.205  0.0135 -1.1446 -1.1522
 5357TIP3    H215994   0.286   1.223   3.327 -0.3421  0.4377 -0.9853
 5358TIP3   OH215995   1.183   6.376   2.037 -0.1136 -0.0531  0.0098
 5358TIP3    H115996   1.140   6.431   1.971 -0.6671  1.1865  1.3688
 5358TIP3    H215997   1.271   6.413   2.043  0.1051 -0.4992 -0.3938
 5359TIP3   OH215998   0.189   7.322   0.811  0.2130 -0.5005  0.0801
 5359TIP3    H115999   0.264   7.361   0.856  0.1737 -0.5047  0.1484
 5359TIP3    H216000   0.118   7.385   0.824 -0.3901 -1.4824  1.8354
 5360TIP3   OH216001   8.139   7.204   0.383  0.4362  0.2960 -0.1607
 5360TIP3    H116002   8.146   7.295   0.413 -1.9276  0.6443 -0.4805
 5360TIP3    H216003   8.069   7.206   0.318  2.1169 -1.3207 -2.1618
 5361TIP3   OH216004   8.127   0.812   5.909  0.8855 -0.3132  0.4245
 5361TIP3    H116005   8.094   0.824   5.820  0.6214 -1.8892  0.2796
 5361TIP3    H216006   8.061   0.854   5.964  1.0096  0.6039 -0.1057
 5362TIP3   OH216007   6.684   0.446   4.565 -0.1574  0.2830  0.0891
 5362TIP3    H116008   6.664   0.374   4.625 -1.5575  1.3608  0.9749
 5362TIP3    H216009   6.707   0.403   4.483  2.0921 -1.2610  1.4092
 5363TIP3   OH216010   6.508   1.322   1.848 -0.3964 -1.0813  0.4531
 5363TIP3    H116011   6.586   1.342   1.797 -2.0847 -0.6902 -2.1700
 5363TIP3    H216012   6.535   1.251   1.906  2.3144  0.1774  0.8746
 5364TIP3   OH216013   4.031   0.171   0.134 -0.6488 -0.2777 -0.0126
 5364TIP3    H116014   4.056   0.078   0.126  0.7077  0.1267 -0.8516
 5364TIP3    H216015   4.096   0.217   0.081  0.1686  1.4007  2.3089
 5365TIP3   OH216016   4.482   2.518   3.762 -0.2976  0.3841  0.0887
 5365TIP3    H116017   4.390   2.524   3.787  0.1654  0.3249  1.9674
 5365TIP3    H216018   4.514   2.440   3.807  0.4545 -0.1628 -1.3334
 5366TIP3   OH216019   2.289   3.382   3.003 -0.3113 -0.7607  0.3627
 5366TIP3    H116020   2.308   3.451   3.066 -0.9138  0.0483 -0.3126
 5366TIP3    H216021   2.367   3.326   3.003  0.2701  0.0348  0.7692
 5367TIP3   OH216022   7.589   2.908   3.012 -0.0915  0.4943  0.0893
 5367TIP3    H116023   7.585   3.002   2.992 -0.6977  0.8287  1.6750
 5367TIP3    H216024   7.602   2.904   3.106  0.0601 -1.0335  0.0227
 5368TIP3   OH216025   7.670   3.209   0.992  0.0016 -0.7279  0.2356
 5368TIP3    H116026   7.755   3.250   0.977 -0.8970  0.7074 -1.1478
 5368TIP3    H216027   7.624   3.217   0.909 -2.7998  1.7547  1.8635
 5369TIP3   OH216028   2.908   0.407   3.629 -0.0369  0.6098  0.5692
 5369TIP3    H116029   2.982   0.438   3.577  0.2124  0.0683  0.5974
 5369TIP3    H216030   2.940   0.405   3.719  1.4379 -3.8141  0.1729
 5370TIP3   OH216031   2.995   3.504   1.290  0.1374 -0.1622 -0.1745
 5370TIP3    H116032   2.924   3.513   1.353  0.2814  1.6575 -0.2224
 5370TIP3    H216033   2.992   3.412   1.264 -1.6216 -0.3375  0.4942
 5371TIP3   OH216034   3.779   3.719   5.565  0.5938 -0.2348  0.0274
 5371TIP3    H116035   3.798   3.627   5.546  0.5200 -0.4094  0.7805
 5371TIP3    H216036   3.683   3.724   5.564  0.5157 -0.6452  2.1102
 5372TIP3   OH216037   7.680   6.457   6.373  0.2455  0.2952 -1.0469
 5372TIP3    H116038   7.728   6.539   6.379  0.9803 -0.1743 -0.2335
 5372TIP3    H216039   7.679   6.437   6.279  2.6547 -0.2378 -1.0245
 5373TIP3   OH216040   4.645   5.070   0.729 -0.1036  0.2000 -0.7412
 5373TIP3    H116041   4.610   5.111   0.808 -0.1450 -0.5279 -0.3712
 5373TIP3    H216042   4.656   4.978   0.753  1.9897  0.3579 -0.8457
 5374TIP3   OH216043   0.645   1.596   0.966  0.0742 -0.5385  0.0873
 5374TIP3    H116044   0.675   1.652   1.038  2.0439 -0.2897 -0.8441
 5374TIP3    H216045   0.690   1.512   0.981 -0.9597 -1.0881  0.1529
 5375TIP3   OH216046   4.953   0.668   0.350 -0.4310  0.1998 -0.5700
 5375TIP3    H116047   4.891   0.703   0.286  0.3029  0.7032 -1.0377
 5375TIP3    H216048   5.038   0.672   0.305 -0.1307 -0.9681 -0.1436
 5376TIP3   OH216049   4.332   5.600   0.587 -0.6266 -0.2154  0.2950
 5376TIP3    H116050   4.272   5.617   0.659  0.3004  0.4294  0.9394
 5376TIP3    H216051   4.278   5.558   0.520 -1.4771 -0.9438  1.4045
 5377TIP3   OH216052   2.291   5.960   2.859  0.1396  0.3783 -0.0954
 5377TIP3    H116053   2.258   6.047   2.885  0.6623  0.8459 -0.9577
 5377TIP3    H216054   2.212   5.907   2.849 -0.3862  1.3781 -1.7340
 5378TIP3   OH216055   0.570   7.122   3.315  0.0978  0.1423  0.1403
 5378TIP3    H116056   0.527   7.115   3.400 -0.9473 -1.0135 -0.4395
 5378TIP3    H216057   0.497   7.127   3.252  0.8413  1.2234 -0.6830
 5379TIP3   OH216058   3.572   4.891   2.953  0.2464  0.0910 -0.0412
 5379TIP3    H116059   3.611   4.933   2.877  1.1902 -0.6918 -0.0028
 5379TIP3    H216060   3.581   4.956   3.023  0.2096  0.4472 -0.3620
 5380TIP3   OH216061   0.718   7.492   0.930 -0.0063  0.0039  0.0010
 5380TIP3    H116062   0.679   7.535   1.006  0.4824  1.6085 -0.6129
 5380TIP3    H216063   0.679   7.537   0.854  2.0352  0.8287 -0.6354
 5381TIP3   OH216064   0.581   7.532   4.014  0.3807 -0.0464 -0.3945
 5381TIP3    H116065   0.520   7.574   4.074  0.2034  0.1352 -0.7036
 5381TIP3    H216066   0.528   7.467   3.967  0.9363 -1.7150  1.1368
 5382TIP3   OH216067   1.363   4.372   6.130 -0.0260 -0.0338  0.7820
 5382TIP3    H116068   1.369   4.288   6.176  0.3877 -0.2107  0.4115
 5382TIP3    H216069   1.439   4.421   6.161 -0.3757  0.2846  1.1489
 5383TIP3   OH216070   4.204   6.416   0.155  0.7853  0.3774 -0.2499
 5383TIP3    H116071   4.233   6.377   0.073  1.8002  3.0838 -1.2877
 5383TIP3    H216072   4.270   6.387   0.219 -0.0200 -1.7510 -0.3085
 5384TIP3   OH216073   6.748   1.548   2.312  0.0357 -0.3954  0.0446
 5384TIP3    H116074   6.709   1.620   2.362  0.9380  2.4396 -2.9714
 5384TIP3    H216075   6.679   1.522   2.251  0.5850 -0.2568 -0.6331
 5385TIP3   OH216076   0.251   2.007   5.253  0.1214  0.0009 -0.2021
 5385TIP3    H116077   0.228   2.100   5.261  1.1591  0.1251  1.9545
 5385TIP3    H216078   0.167   1.962   5.244 -0.3328  1.2307 -3.4075
 5386TIP3   OH216079   5.843   0.856   5.466  0.4950 -0.4069 -0.0064
 5386TIP3    H116080   5.816   0.764   5.473 -0.5902 -0.0840  0.3098
 5386TIP3    H216081   5.929   0.853   5.424  0.4881 -1.5665  0.0284
 5387TIP3   OH216082   2.824   6.495   4.954  0.0676 -0.2432  0.0563
 5387TIP3    H116083   2.884   6.438   4.906  0.2701  0.1318 -0.1409
 5387TIP3    H216084   2.830   6.580   4.909 -1.0829 -0.3634 -0.3420
 5388TIP3   OH216085   3.584   8.101   4.852  0.4783  0.6572  0.4086
 5388TIP3    H116086   3.605   8.066   4.765 -0.9782  0.6164  0.0383
 5388TIP3    H216087   3.543   8.027   4.898  0.0036  1.0596  0.6452
 5389TIP3   OH216088   4.036   3.843   6.028  0.2949 -0.2921 -0.2596
 5389TIP3    H116089   3.958   3.882   5.988 -0.1962 -1.7682 -0.7697
 5389TIP3    H216090   4.103   3.912   6.020 -0.6596  0.6182 -0.7240
 5390TIP3   OH216091   4.763   0.463   1.227  0.5261  0.3846  0.5934
 5390TIP3    H116092   4.772   0.556   1.206 -0.4316  0.6077  1.1134
 5390TIP3    H216093   4.748   0.421   1.143 -0.6007  0.9218  0.5043
 5391TIP3   OH216094   3.798   0.711   5.400  0.3731  0.0881 -0.1691
 5391TIP3    H116095   3.865   0.647   5.376  0.2586  0.7993 -2.7444
 5391TIP3    H216096   3.731   0.702   5.332 -0.4070  1.8349  0.3059
 5392TIP3   OH216097   0.063   0.568   5.354  0.3848  0.3744 -0.5998
 5392TIP3    H116098   0.157   0.552   5.363  0.2458  0.5064  1.5336
 5392TIP3    H216099   0.057   0.636   5.287  1.8749  1.0336 -0.1060
 5393TIP3   OH216100   7.070   4.737   1.682 -0.0288  0.8883 -0.4619
 5393TIP3    H116101   7.070   4.658   1.627 -2.1765 -1.7738  2.9033
 5393TIP3    H216102   6.998   4.790   1.647 -1.4310 -0.7816 -0.3018
 5394TIP3   OH216103   1.928   7.518   3.001  0.2719  0.0815 -0.4549
 5394TIP3    H116104   1.976   7.461   3.060 -1.0451 -0.0719  0.5064
 5394TIP3    H216105   1.914   7.465   2.922  0.1402 -0.4998 -0.0485
 5395TIP3   OH216106   2.822   4.632   1.827 -0.1415  0.6243 -0.2626
 5395TIP3    H116107   2.835   4.551   1.876  2.2145  1.0921 -0.0177
 5395TIP3    H216108   2.793   4.603   1.740  0.2277 -0.4605 -0.0393
 5396TIP3   OH216109   1.425   2.403   5.381  0.1946  0.4215 -0.1793
 5396TIP3    H116110   1.507   2.374   5.342  0.3981  0.1413  0.4371
 5396TIP3    H216111   1.367   2.327   5.376  0.0109  0.5775 -0.4915
 5397TIP3   OH216112   1.509   0.639   6.530 -0.0093 -0.4621 -0.0608
 5397TIP3    H116113   1.447   0.618   6.461 -1.4665 -1.4468  1.4614
 5397TIP3    H216114   1.559   0.559   6.543  0.1919 -0.3141  0.0942
 5398TIP3   OH216115   3.929   0.760   1.313  0.1320 -0.4969 -0.2147
 5398TIP3    H116116   3.862   0.755   1.245  0.8363 -1.4198 -0.8746
 5398TIP3    H216117   3.883   0.792   1.390 -0.9155 -0.4674 -0.8381
 5399TIP3   OH216118   3.148   2.856   1.932  0.2519  0.9059  0.5402
 5399TIP3    H116119   3.141   2.762   1.913  0.6294  1.1271 -0.7733
 5399TIP3    H216120   3.095   2.868   2.011  0.3559 -0.4419  0.8396
 5400TIP3   OH216121   5.774   7.099   0.049  0.6128  0.4821 -0.1303
 5400TIP3    H116122   5.700   7.158   0.063  2.1592  2.2554  1.0605
 5400TIP3    H216123   5.835   7.120   0.119  2.7140 -0.1722 -1.6649
 5401TIP3   OH216124   3.467   6.306   4.372 -0.8109  0.5380  0.4347
 5401TIP3    H116125   3.398   6.358   4.412 -2.5612 -0.1029 -1.5704
 5401TIP3    H216126   3.424   6.224   4.347  1.2483 -0.8521  1.1661
 5402TIP3   OH216127   6.875   1.496   7.054 -0.3886  0.0234  0.1356
 5402TIP3    H116128   6.908   1.423   7.106 -0.9422  0.3075  0.9030
 5402TIP3    H216129   6.932   1.498   6.978 -0.0370 -0.8808  0.3550
 5403TIP3   OH216130   5.669   4.116   4.059  0.1634  0.2271 -0.0811
 5403TIP3    H116131   5.705   4.125   4.147 -2.3488  2.5480  0.8428
 5403TIP3    H216132   5.576   4.097   4.072 -0.3536  0.9676 -2.2275
 5404TIP3   OH216133   3.011   2.289   2.564 -0.0028 -0.0457  0.3229
 5404TIP3    H116134   2.932   2.323   2.605 -0.6592  0.1230 -1.0393
 5404TIP3    H216135   3.070   2.364   2.558  0.1191 -0.0831  0.9757
 5405TIP3   OH216136   1.165   1.546   5.644 -0.1584 -0.7517 -0.0712
 5405TIP3    H116137   1.195   1.610   5.580 -0.6712 -0.8986 -0.4656
 5405TIP3    H216138   1.231   1.548   5.713  0.4280 -0.6362 -0.6312
 5406TIP3   OH216139   7.373   3.527   0.918  0.1233 -0.6429 -0.5576
 5406TIP3    H116140   7.428   3.453   0.944  0.6730  0.1447  0.5884
 5406TIP3    H216141   7.373   3.585   0.994 -1.3782 -0.0832 -0.9502
 5407TIP3   OH216142   0.044   5.035   0.184 -0.0674 -0.4129  0.1071
 5407TIP3    H116143   0.055   4.940   0.177 -1.6547 -0.6116 -0.2333
 5407TIP3    H216144   0.004   5.061   0.101  1.2580  0.7361 -0.2194
 5408TIP3   OH216145   7.853   5.869   6.476  1.1181  0.0014  0.1590
 5408TIP3    H116146   7.848   5.930   6.550 -3.1842  1.5368 -1.1170
 5408TIP3    H216147   7.798   5.795   6.501 -2.3337  1.5558 -2.0671
 5409TIP3   OH216148   0.474   6.769   6.546  0.0450  0.2158 -0.5107
 5409TIP3    H116149   0.554   6.732   6.582 -0.5752 -2.9969 -2.0528
 5409TIP3    H216150   0.404   6.738   6.603 -0.2397  2.5840  0.5405
 5410TIP3   OH216151   1.875   1.852   2.118 -0.3456 -1.2414 -0.1871
 5410TIP3    H116152   1.821   1.879   2.193 -1.6623  0.9166 -1.7850
 5410TIP3    H216153   1.869   1.756   2.117 -2.2093 -1.1917  1.1130
 5411TIP3   OH216154   1.312   5.936   6.305 -0.6897 -0.4930 -0.4331
 5411TIP3    H116155   1.272   5.944   6.392 -0.2776 -1.5451 -0.1282
 5411TIP3    H216156   1.241   5.901   6.250 -1.1413  0.7809 -0.6909
 5412TIP3   OH216157   4.450   5.321   2.509  0.2638  0.3066 -0.1260
 5412TIP3    H116158   4.400   5.365   2.441 -0.5077 -0.5334 -0.1242
 5412TIP3    H216159   4.437   5.374   2.587  0.2501  0.6663 -0.3684
 5413TIP3   OH216160   4.970   0.705   6.263  0.1118  0.2304 -0.3317
 5413TIP3    H116161   5.004   0.634   6.209  0.6404  0.0269  0.2560
 5413TIP3    H216162   5.049   0.747   6.299 -0.2276 -1.2103  2.3275
 5414TIP3   OH216163   3.677   2.385   6.507  0.4857 -0.3898  0.5147
 5414TIP3    H116164   3.754   2.436   6.481  0.1107  0.3261  0.8027
 5414TIP3    H216165   3.713   2.310   6.554  1.0975 -0.9666 -0.8360
 5415TIP3   OH216166   0.906   3.129   5.848 -0.4466  0.1037  0.5881
 5415TIP3    H116167   0.884   3.062   5.783  1.2995 -1.7054  1.7267
 5415TIP3    H216168   0.997   3.152   5.828 -1.1168  2.5085 -0.0127
 5416TIP3   OH216169   5.065   4.449   3.025 -0.7150 -0.0569  0.6199
 5416TIP3    H116170   5.108   4.395   3.091  1.9756  1.3889  0.1972
 5416TIP3    H216171   5.078   4.539   3.055 -0.2646  0.5912 -1.3580
 5417TIP3   OH216172   5.091   2.577   5.533  0.6107  0.7578 -0.3740
 5417TIP3    H116173   5.122   2.495   5.571 -0.1107  0.3743 -0.5866
 5417TIP3    H216174   5.071   2.633   5.608  0.6605  0.5665 -0.2189
 5418TIP3   OH216175   0.037   3.111   1.181  0.1098 -0.0240  0.0520
 5418TIP3    H116176   0.005   3.122   1.270 -1.0895 -1.5307 -0.1523
 5418TIP3    H216177  -0.021   3.166   1.128  0.3951  0.3417  0.1138
 5419TIP3   OH216178   6.499   0.457   3.174  0.2723  1.0624 -0.0620
 5419TIP3    H116179   6.532   0.489   3.258  3.6195  1.9127 -1.5290
 5419TIP3    H216180   6.560   0.388   3.148 -0.7049  0.7734 -1.8039
 5420TIP3   OH216181   6.274  -0.014   1.141  0.2207 -0.1146  0.1260
 5420TIP3    H116182   6.215   0.057   1.165  1.5656  0.9457  0.4236
 5420TIP3    H216183   6.303   0.008   1.052  0.0256 -0.7246 -0.0941
 5421TIP3   OH216184   2.316   2.937   0.455  0.4763  0.1720 -0.1034
 5421TIP3    H116185   2.401   2.914   0.416  0.4814  3.5634 -2.4928
 5421TIP3    H216186   2.276   2.853   0.477  3.3506 -1.6521 -1.2797
 5422TIP3   OH216187   2.192   5.120   6.741 -0.0909  0.1916  0.8024
 5422TIP3    H116188   2.145   5.048   6.783  1.7102 -2.2371 -1.0612
 5422TIP3    H216189   2.130   5.157   6.679 -0.7359 -0.4987  1.0254
 5423TIP3   OH216190   1.144   6.962   1.656 -0.5426 -0.2666 -0.7752
 5423TIP3    H116191   1.120   6.949   1.748 -0.0004 -0.2813 -0.6332
 5423TIP3    H216192   1.113   6.883   1.612  1.3666 -1.4113 -0.1775
 5424TIP3   OH216193   3.081   0.981   6.767 -0.3476 -0.7354 -0.1494
 5424TIP3    H116194   3.065   0.985   6.673  1.0872 -1.4979 -0.4520
 5424TIP3    H216195   3.141   0.907   6.778 -0.2872 -0.4966  1.3438
 5425TIP3   OH216196   4.960   1.922   1.948  0.0099  0.3418  1.0030
 5425TIP3    H116197   4.912   1.935   2.030 -0.7527  1.4909  0.4070
 5425TIP3    H216198   5.023   1.853   1.967  0.1573  0.9165  2.6824
 5426TIP3   OH216199   4.413   1.473   6.605  0.2933 -0.1983  0.2856
 5426TIP3    H116200   4.352   1.520   6.548  0.5833 -0.3077 -0.1219
 5426TIP3    H216201   4.406   1.517   6.689  2.3269  2.1676 -0.6717
 5427TIP3   OH216202   4.703   4.092   1.650 -0.0423 -0.3846  0.1965
 5427TIP3    H116203   4.645   4.110   1.577 -0.4647  0.9779  0.8426
 5427TIP3    H216204   4.791   4.112   1.616 -0.3126  1.0574  0.2903
 5428TIP3   OH216205   2.955   1.736   5.935  0.9597 -0.1723 -0.5381
 5428TIP3    H116206   2.964   1.715   5.842 -1.6759 -0.8868 -0.7009
 5428TIP3    H216207   2.927   1.653   5.975  1.5302  0.2663  0.8183
 5429TIP3   OH216208   8.532   5.937   1.621  0.1223 -0.1434  0.4608
 5429TIP3    H116209   8.555   5.904   1.708  0.9215  0.6665  0.5692
 5429TIP3    H216210   8.466   5.876   1.589 -0.6698 -0.0840  1.9029
 5430TIP3   OH216211   2.083   4.205   4.488  0.3476 -0.3299 -0.0797
 5430TIP3    H116212   2.154   4.149   4.520 -1.3147 -1.7201  1.3829
 5430TIP3    H216213   2.018   4.144   4.454 -1.0158  0.7909  0.4493
 5431TIP3   OH216214   1.789   2.619   2.195  0.0666  0.2097 -0.2469
 5431TIP3    H116215   1.740   2.651   2.272 -0.7505  0.3411 -0.8065
 5431TIP3    H216216   1.779   2.689   2.131  0.6983  0.0708 -0.4940
 5432TIP3   OH216217   3.902   1.654   2.545 -0.1423 -0.0733 -0.2179
 5432TIP3    H116218   3.955   1.685   2.471  1.1834 -0.5692  0.4874
 5432TIP3    H216219   3.960   1.594   2.593 -0.5859  1.0174  1.8101
 5433TIP3   OH216220   3.000   6.920   4.655 -0.2292  0.0685 -0.1049
 5433TIP3    H116221   3.088   6.897   4.684 -0.1139  1.1356  0.4369
 5433TIP3    H216222   2.996   6.888   4.565  0.7433  0.1072 -0.1772
 5434TIP3   OH216223   5.405   7.140   3.273 -0.0470  0.5444  0.4118
 5434TIP3    H116224   5.366   7.087   3.343  0.5106  0.6612  0.8129
 5434TIP3    H216225   5.330   7.173   3.224 -0.4219 -1.1092 -0.2230
 5435TIP3   OH216226   5.536   0.374   3.324 -0.0466 -0.1749 -0.3867
 5435TIP3    H116227   5.490   0.291   3.341  0.4202  0.0789  2.8726
 5435TIP3    H216228   5.626   0.357   3.350  0.2413  1.1284 -0.4664
 5436TIP3   OH216229   8.089   4.959   1.993  0.4727 -0.0151  0.3290
 5436TIP3    H116230   8.072   5.018   2.066 -0.5316 -0.0307  0.1224
 5436TIP3    H216231   8.042   4.879   2.016  0.5484 -0.1860 -0.1130
 5437TIP3   OH216232   1.102   5.420   3.861  0.6108 -0.5037  0.2309
 5437TIP3    H116233   1.167   5.425   3.931  0.3700 -0.0621  0.4253
 5437TIP3    H216234   1.024   5.462   3.898  0.1165 -1.3110  0.1099
 5438TIP3   OH216235   1.132   0.525   5.629  0.2780 -0.3801  0.1412
 5438TIP3    H116236   1.147   0.497   5.719  0.0325 -0.3025  0.2094
 5438TIP3    H216237   1.038   0.512   5.616  0.5291 -1.6538 -0.5391
 5439TIP3   OH216238   0.731   0.345   2.271  0.5435  0.2336  0.1983
 5439TIP3    H116239   0.812   0.396   2.276  4.0258 -4.5455 -0.4358
 5439TIP3    H216240   0.686   0.362   2.354  3.1289  1.7389  1.4026
 5440TIP3   OH216241   5.006   7.056   4.943 -0.4859  0.3572  0.3666
 5440TIP3    H116242   5.081   7.107   4.973 -0.1422 -0.6054  1.1682
 5440TIP3    H216243   4.984   6.999   5.016 -2.6015  1.2672  0.5113
 5441TIP3   OH216244   4.633   7.743   1.779 -0.3747 -0.3675  0.7913
 5441TIP3    H116245   4.707   7.778   1.729  1.2748 -2.4639  1.5697
 5441TIP3    H216246   4.621   7.805   1.850  1.2832 -0.4039  1.1599
 5442TIP3   OH216247   8.469   0.170   5.902 -0.0066  0.3408 -0.6127
 5442TIP3    H116248   8.560   0.143   5.890  0.0761 -0.9477  2.0095
 5442TIP3    H216249   8.418   0.098   5.867  0.1453 -1.0675  1.8074
 5443TIP3   OH216250   8.488   3.557   4.731  0.0389  0.3508  0.3026
 5443TIP3    H116251   8.420   3.550   4.664  0.4098  1.2142 -0.1966
 5443TIP3    H216252   8.507   3.467   4.756 -2.2725  0.1388  1.5178
 5444TIP3   OH216253   8.386   7.689   0.705 -0.0323  0.2271 -0.3248
 5444TIP3    H116254   8.349   7.758   0.650  0.7683 -0.5328 -1.8915
 5444TIP3    H216255   8.477   7.716   0.720  0.5189 -0.7863 -1.5868
 5445TIP3   OH216256   5.531   3.783   1.946 -0.1456 -0.0776  0.2187
 5445TIP3    H116257   5.515   3.696   1.912  0.1809 -0.2295  0.4428
 5445TIP3    H216258   5.625   3.797   1.934 -0.2981  0.4889 -0.3861
 5446TIP3   OH216259   4.191   2.634   3.275  0.3098 -0.3039  0.0519
 5446TIP3    H116260   4.212   2.548   3.313  0.9742  0.2146  0.8855
 5446TIP3    H216261   4.219   2.697   3.341  0.3148  0.5886 -0.7818
 5447TIP3   OH216262   7.414   2.418   4.484  0.2667  0.0665  0.0287
 5447TIP3    H116263   7.408   2.509   4.512  0.8239  0.0535  0.2042
 5447TIP3    H216264   7.507   2.399   4.482  0.2096 -0.2033 -0.9895
 5448TIP3   OH216265   3.884   0.040   6.472  0.0418 -0.4657  0.2626
 5448TIP3    H116266   3.856   0.021   6.561  0.4113  0.1557  0.5107
 5448TIP3    H216267   3.943   0.114   6.480 -0.8628  0.3851 -0.6251
 5449TIP3   OH216268   4.515   3.756   4.053 -0.7751  0.0600 -0.0799
 5449TIP3    H116269   4.563   3.828   4.014  0.1712 -0.1369  0.6825
 5449TIP3    H216270   4.512   3.776   4.147 -0.4468 -0.9037  0.1544
 5450TIP3   OH216271   3.103   5.235   6.815  0.3195 -0.0879  0.8960
 5450TIP3    H116272   3.195   5.208   6.814  0.7395  1.2111 -0.7171
 5450TIP3    H216273   3.058   5.166   6.865  2.0499 -1.1118  1.1298
 5451TIP3   OH216274   2.946   7.016   3.336 -0.5411 -0.4275 -0.3185
 5451TIP3    H116275   2.939   6.982   3.246 -0.9101  0.6877 -0.7267
 5451TIP3    H216276   2.862   6.993   3.376 -1.0539  0.5733 -0.8028
 5452TIP3   OH216277   2.799   3.424   7.075  0.2928 -0.1356 -0.1750
 5452TIP3    H116278   2.706   3.405   7.088  0.1137  0.5126 -0.4706
 5452TIP3    H216279   2.811   3.513   7.109  0.2787  0.7260 -2.2777
 5453TIP3   OH216280   4.928   1.709   5.018  0.1124 -0.5817  0.3632
 5453TIP3    H116281   4.991   1.654   4.970  1.0503 -1.5764  2.6073
 5453TIP3    H216282   4.969   1.724   5.103 -0.8814  2.2709  0.4445
 5454TIP3   OH216283   2.388   4.359   0.427 -0.2697 -0.1808 -0.2674
 5454TIP3    H116284   2.345   4.395   0.350  1.1628 -1.6308 -1.8289
 5454TIP3    H216285   2.481   4.379   0.413  0.0087 -0.4365  1.1217
 5455TIP3   OH216286   7.814   1.497   5.149 -0.5424 -0.0895  0.4254
 5455TIP3    H116287   7.889   1.483   5.091 -0.6161  0.1410  0.2716
 5455TIP3    H216288   7.758   1.420   5.136 -0.5101 -0.0852  0.2634
 5456TIP3   OH216289   7.695   2.706   4.567  0.0866 -0.2200 -0.3621
 5456TIP3    H116290   7.664   2.777   4.511  0.7636  0.4573  0.1174
 5456TIP3    H216291   7.787   2.696   4.544 -0.5410 -2.7254 -2.3179
 5457TIP3   OH216292   7.544   7.636   4.972  0.6089 -0.1033  0.0519
 5457TIP3    H116293   7.486   7.571   5.011  0.7841 -0.5081 -0.3495
 5457TIP3    H216294   7.485   7.705   4.941  0.1540 -1.2336 -1.7719
 5458TIP3   OH216295   7.333   1.272   4.902  0.6299 -0.0895  0.0210
 5458TIP3    H116296   7.248   1.312   4.921  0.6286 -0.1870  0.2205
 5458TIP3    H216297   7.318   1.220   4.823  0.7860  0.8108 -0.6198
 5459TIP3   OH216298   0.715   0.649   6.934  0.1928  0.4898  0.1734
 5459TIP3    H116299   0.785   0.685   6.989 -0.5535  0.7458  0.9890
 5459TIP3    H216300   0.635   0.682   6.974 -0.4880 -1.3997  0.4652
 5460TIP3   OH216301   1.778   4.375   2.165 -0.1329  0.0621  0.0410
 5460TIP3    H116302   1.814   4.315   2.099  0.6683  2.7131 -2.1237
 5460TIP3    H216303   1.854   4.399   2.218 -0.1615  0.2298  0.0062
 5461TIP3   OH216304   0.533   6.199   6.798 -0.0921  0.4814  0.5609
 5461TIP3    H116305   0.473   6.124   6.803  0.8499 -0.2587  1.6025
 5461TIP3    H216306   0.591   6.178   6.724  0.8253 -0.3844  1.4784
 5462TIP3   OH216307   7.709   3.227   0.114 -0.3604 -0.1642 -0.4688
 5462TIP3    H116308   7.646   3.298   0.108 -0.0626 -0.0370 -3.0196
 5462TIP3    H216309   7.781   3.252   0.056  0.5635 -1.7552 -0.0963
 5463TIP3   OH216310   4.387   4.531   0.362  0.7644  0.1060  0.1478
 5463TIP3    H116311   4.433   4.588   0.424  1.1035  0.1760 -0.1680
 5463TIP3    H216312   4.449   4.517   0.291  0.6524 -0.5887  0.1808
 5464TIP3   OH216313   4.939   7.669   0.315  0.1100  0.1299 -0.2031
 5464TIP3    H116314   4.873   7.690   0.381  0.6838  1.6270 -0.0641
 5464TIP3    H216315   4.929   7.738   0.249 -0.4627 -1.3330 -1.7274
 5465TIP3   OH216316   3.269   0.363   3.233  0.4441  0.3333  0.3557
 5465TIP3    H116317   3.351   0.329   3.199 -0.4423 -0.5692 -1.0021
 5465TIP3    H216318   3.207   0.352   3.161 -0.9214  0.7577  1.4239
 5466TIP3   OH216319   2.381   2.021   0.855  0.4527 -0.0368  0.4456
 5466TIP3    H116320   2.455   1.976   0.815  1.2189 -0.1028  1.9010
 5466TIP3    H216321   2.419   2.086   0.913 -0.6178  0.0036  1.1449
 5467TIP3   OH216322   2.828   1.100   3.495  0.8680 -0.1325 -0.3411
 5467TIP3    H116323   2.743   1.057   3.484  0.9091  0.0638 -1.4765
 5467TIP3    H216324   2.817   1.187   3.457  1.5902 -0.1266 -0.5494
 5468TIP3   OH216325   1.072   3.863   5.190 -0.0785 -0.0450 -0.2689
 5468TIP3    H116326   1.068   3.957   5.174  1.0530  0.2775  1.2093
 5468TIP3    H216327   1.071   3.824   5.102  0.3076  1.3835 -0.9343
 5469TIP3   OH216328   3.815   6.667   5.843 -0.7775 -0.0855 -0.1120
 5469TIP3    H116329   3.728   6.639   5.817 -0.5165 -0.6517 -0.4032
 5469TIP3    H216330   3.852   6.592   5.890 -0.5367  0.2389  0.2346
 5470TIP3   OH216331   3.509   3.675   3.221 -0.3034 -0.0066 -0.6087
 5470TIP3    H116332   3.456   3.596   3.219 -0.3669 -0.1251  2.3607
 5470TIP3    H216333   3.593   3.649   3.182 -1.2317 -0.6921 -2.2666
 5471TIP3   OH216334   7.476   6.511   5.933 -0.6594 -0.6007 -0.1129
 5471TIP3    H116335   7.537   6.552   5.871  0.4917 -1.2804  0.5333
 5471TIP3    H216336   7.419   6.457   5.878  0.3415 -1.1997 -0.5982
 5472TIP3   OH216337   5.567   4.038   1.729  0.1958  0.0475  0.3784
 5472TIP3    H116338   5.536   3.963   1.779  1.8826 -0.2861  1.0133
 5472TIP3    H216339   5.588   4.002   1.643 -0.3359  0.0934  0.2280
 5473TIP3   OH216340   6.058   7.373   6.939  0.3694 -0.3763 -0.1605
 5473TIP3    H116341   6.040   7.300   6.999 -0.3057 -0.1784 -0.1251
 5473TIP3    H216342   6.148   7.399   6.961  0.4080 -0.8146  0.2319
 5474TIP3   OH216343   6.836   6.788   5.233 -0.1048  0.4609 -0.3197
 5474TIP3    H116344   6.768   6.760   5.172 -2.4540  2.2383  1.2744
 5474TIP3    H216345   6.835   6.721   5.302  1.2390 -0.5615 -1.2448
 5475TIP3   OH216346   5.075   0.964   2.777 -0.6705  0.6951  0.2539
 5475TIP3    H116347   5.019   0.941   2.703 -1.9861  1.9406  0.8146
 5475TIP3    H216348   5.056   0.899   2.844  0.1192 -0.1083 -0.2752
 5476TIP3   OH216349   4.322   3.086   5.436  0.2763 -0.1499 -0.3380
 5476TIP3    H116350   4.338   2.995   5.411  1.7438 -0.3776  1.2242
 5476TIP3    H216351   4.396   3.108   5.493 -0.7991  1.5550  0.4678
 5477TIP3   OH216352   0.435   5.204   1.955  0.4627 -0.3654  0.7253
 5477TIP3    H116353   0.349   5.197   1.998  0.1422 -1.8601 -0.0892
 5477TIP3    H216354   0.471   5.116   1.959  0.9186 -0.2977 -1.0354
 5478TIP3   OH216355   3.539   5.874   2.369  0.1004  0.5916  0.6923
 5478TIP3    H116356   3.540   5.870   2.273 -1.0265  1.0957  0.6448
 5478TIP3    H216357   3.447   5.891   2.391  0.1818 -0.4037  1.8999
 5479TIP3   OH216358   7.710   2.772   3.983  0.2312 -0.1414  0.6141
 5479TIP3    H116359   7.634   2.818   4.019 -0.0273 -0.0498 -0.0402
 5479TIP3    H216360   7.785   2.813   4.026  0.1796  2.3878 -1.4576
 5480TIP3   OH216361   5.983   0.397   4.953 -0.9520 -0.1576 -0.1314
 5480TIP3    H116362   5.980   0.312   4.997  0.0308  0.3834  1.0663
 5480TIP3    H216363   5.894   0.432   4.962 -1.3247 -0.9864 -0.5070
 5481TIP3   OH216364   1.125   0.834   3.691  0.0187  0.1113 -0.0725
 5481TIP3    H116365   1.078   0.758   3.658 -0.7275  1.3477 -2.0399
 5481TIP3    H216366   1.217   0.818   3.669  0.0226 -0.6394  0.4421
 5482TIP3   OH216367   3.726   4.016   2.935  0.5216 -0.6977  0.5559
 5482TIP3    H116368   3.713   4.046   3.025  1.1860 -0.3175  0.5357
 5482TIP3    H216369   3.736   4.097   2.885 -2.4503 -0.7807 -0.3246
 5483TIP3   OH216370   7.249   3.382   2.724 -0.4436 -0.1981 -0.1107
 5483TIP3    H116371   7.216   3.420   2.642  0.1385  0.5060 -0.0286
 5483TIP3    H216372   7.342   3.367   2.707  0.1298  1.7176  1.0249
 5484TIP3   OH216373   3.800   1.871   1.345  0.2686  0.3059 -0.4892
 5484TIP3    H116374   3.729   1.935   1.354  0.4055  0.3537  0.3051
 5484TIP3    H216375   3.880   1.921   1.362  0.3420 -0.1685  0.6619
 5485TIP3   OH216376   7.934   5.962   1.874 -0.2497  0.5145 -0.5114
 5485TIP3    H116377   7.876   5.999   1.940 -0.0615  0.4587 -0.3147
 5485TIP3    H216378   7.897   5.876   1.855  0.1095  0.2287  0.0561
 5486TIP3   OH216379   2.252   5.388   1.185  0.1476 -0.1142  0.0151
 5486TIP3    H116380   2.273   5.296   1.200  1.7986  0.0614 -1.0188
 5486TIP3    H216381   2.323   5.437   1.227  1.8980  0.5026 -3.2901
 5487TIP3   OH216382   5.473   6.125   2.473 -0.3823  0.7137  0.3505
 5487TIP3    H116383   5.387   6.137   2.432  0.3529  0.7432 -1.2711
 5487TIP3    H216384   5.535   6.151   2.405  0.9025  1.5342  1.8060
 5488TIP3   OH216385   4.595   6.580   4.431  0.0972  0.1044 -0.0058
 5488TIP3    H116386   4.535   6.538   4.369 -0.4774 -0.3136  0.8117
 5488TIP3    H216387   4.675   6.527   4.427 -0.3473 -0.6241  0.4431
 5489TIP3   OH216388   6.132   6.233   3.655  0.6545  0.0024  0.2998
 5489TIP3    H116389   6.077   6.252   3.732 -0.0188  0.1318 -0.2006
 5489TIP3    H216390   6.175   6.316   3.635  0.1928  0.1862  0.0472
 5490TIP3   OH216391   7.803   2.285   5.272 -0.7224 -0.0529  0.2178
 5490TIP3    H116392   7.797   2.276   5.367 -0.3859 -1.8482  0.1144
 5490TIP3    H216393   7.897   2.285   5.254 -0.7191 -2.8589 -0.2724
 5491TIP3   OH216394   5.812   2.808   0.512 -0.1354  0.1591  0.4762
 5491TIP3    H116395   5.781   2.868   0.580  3.0220  1.3963  0.9916
 5491TIP3    H216396   5.888   2.765   0.551 -0.3771 -1.8309 -1.0683
 5492TIP3   OH216397   3.530   2.352   4.328  0.0232 -0.2595 -0.3085
 5492TIP3    H116398   3.546   2.445   4.346  0.7760 -0.3027 -0.7188
 5492TIP3    H216399   3.502   2.349   4.237  0.6385 -0.5018 -0.4909
 5493TIP3   OH216400   1.181   7.844   1.121  0.0926 -0.8666 -0.1632
 5493TIP3    H116401   1.246   7.898   1.165  0.3974 -1.9092  0.6985
 5493TIP3    H216402   1.214   7.835   1.031  0.2419  0.0272 -0.2038
 5494TIP3   OH216403   4.646   3.141   3.230  0.1361 -0.5714 -0.2407
 5494TIP3    H116404   4.575   3.200   3.204  2.6298  1.9724 -1.8960
 5494TIP3    H216405   4.668   3.170   3.319 -1.3954 -1.9924  0.6515
 5495TIP3   OH216406   7.767   7.263   2.288  0.1330  0.8540 -0.0634
 5495TIP3    H116407   7.842   7.237   2.341 -0.0628  0.5668  0.0739
 5495TIP3    H216408   7.698   7.282   2.352 -0.6959 -1.2953 -0.2543
 5496TIP3   OH216409   1.170   7.564   1.742  0.0831  0.2890 -0.2488
 5496TIP3    H116410   1.132   7.616   1.671  1.1381 -0.2523 -1.2453
 5496TIP3    H216411   1.095   7.532   1.791 -0.7854 -0.8026 -2.1752
 5497TIP3   OH216412   3.606   0.815   0.116  0.0345  0.3584  0.5469
 5497TIP3    H116413   3.521   0.789   0.151 -0.3772 -0.2901 -0.8927
 5497TIP3    H216414   3.599   0.910   0.103 -0.7334  0.2063 -0.2365
 5498TIP3   OH216415   2.753   5.192   3.821 -0.1300 -0.2765  0.6654
 5498TIP3    H116416   2.700   5.143   3.758 -1.6907 -0.6025  2.1413
 5498TIP3    H216417   2.842   5.190   3.785 -0.9367 -0.5290 -1.4252
 5499TIP3   OH216418   7.541   2.291   4.721  0.0148 -0.0129 -0.2562
 5499TIP3    H116419   7.605   2.349   4.680  0.5290 -1.1601 -1.1696
 5499TIP3    H216420   7.593   2.215   4.748 -0.9045 -0.8210 -0.7108
 5500TIP3   OH216421   7.862   5.313   1.614 -0.3384 -0.1364 -0.0765
 5500TIP3    H116422   7.909   5.233   1.591  1.4286  0.9287 -0.3503
 5500TIP3    H216423   7.852   5.308   1.709  1.6923  0.2772  0.1998
 5501TIP3   OH216424   7.380   8.161   6.760 -0.2512 -0.2273 -0.6279
 5501TIP3    H116425   7.454   8.207   6.799 -0.3253  1.3141 -2.1853
 5501TIP3    H216426   7.417   8.077   6.731  0.8764  0.4879 -1.3293
 5502TIP3   OH216427   3.420   7.738   1.329 -0.0889  0.8314 -0.6284
 5502TIP3    H116428   3.411   7.673   1.399  0.8996  0.0396 -1.2016
 5502TIP3    H216429   3.382   7.696   1.252  1.7527  0.3275 -1.3289
 5503TIP3   OH216430   4.073   1.312   1.086  0.3596 -0.5782  0.0535
 5503TIP3    H116431   3.997   1.371   1.087  2.0999  1.7892  1.0966
 5503TIP3    H216432   4.051   1.244   1.150 -0.4443  0.6924  1.1725
 5504TIP3   OH216433   7.129   4.116   6.149  0.7116 -0.3635 -0.8569
 5504TIP3    H116434   7.111   4.187   6.087  2.5733 -0.8689 -2.0645
 5504TIP3    H216435   7.143   4.040   6.093  1.0063 -1.1680  0.2932
 5505TIP3   OH216436   6.993   7.622   4.425 -0.2927 -0.1701 -0.0487
 5505TIP3    H116437   6.897   7.627   4.424 -0.3732 -0.5190  2.0979
 5505TIP3    H216438   7.015   7.577   4.343 -1.7891  1.8550 -1.6642
 5506TIP3   OH216439   7.911   1.310   3.259 -0.3200  0.4564 -0.1224
 5506TIP3    H116440   7.832   1.263   3.282 -0.7028  0.5320 -1.1973
 5506TIP3    H216441   7.972   1.292   3.330 -0.5934 -1.3251 -0.2966
 5507TIP3   OH216442   0.817   1.583   0.736 -0.0215 -0.5859  0.0034
 5507TIP3    H116443   0.816   1.499   0.691  0.0626 -0.5236 -0.1163
 5507TIP3    H216444   0.754   1.573   0.807 -2.4074  0.2791 -1.8653
 5508TIP3   OH216445   4.750   3.731   4.930  0.4723  0.1306  0.0394
 5508TIP3    H116446   4.685   3.757   4.865  1.7345  1.1658 -0.8529
 5508TIP3    H216447   4.740   3.636   4.938 -2.1374  0.4055  1.0521
 5509TIP3   OH216448   0.998   6.204   3.783  0.2906  0.0521  0.0504
 5509TIP3    H116449   1.076   6.255   3.764  1.4188 -1.6611 -0.0655
 5509TIP3    H216450   0.986   6.212   3.878  1.3933 -0.7257  0.2761
 5510TIP3   OH216451   7.127   1.355   1.332 -0.5158 -0.2356 -0.0563
 5510TIP3    H116452   7.192   1.380   1.266  1.0347  0.7125  1.7393
 5510TIP3    H216453   7.171   1.367   1.416 -1.7905 -3.1169  1.1887
 5511TIP3   OH216454   2.792   6.773   5.188 -0.0376 -0.1590 -0.0705
 5511TIP3    H116455   2.740   6.693   5.201 -0.0030 -0.3964 -1.3439
 5511TIP3    H216456   2.860   6.748   5.126 -1.1893  1.3185 -2.0576
 5512TIP3   OH216457   0.177   3.058   2.772 -0.5515 -0.6818  0.0544
 5512TIP3    H116458   0.129   3.132   2.736 -1.1781  0.1568  2.4150
 5512TIP3    H216459   0.221   3.093   2.849  3.2945 -1.5910 -1.4523
 5513TIP3   OH216460   8.427   2.223   1.912 -0.4860 -0.4427 -0.0138
 5513TIP3    H116461   8.355   2.210   1.851 -0.5714 -1.2359  0.2425
 5513TIP3    H216462   8.429   2.143   1.964  0.1022 -0.1145  0.4808
 5514TIP3   OH216463   3.653   7.729   3.918  0.0308 -0.3353  0.5769
 5514TIP3    H116464   3.703   7.782   3.856 -1.1860  2.1241  1.5643
 5514TIP3    H216465   3.630   7.650   3.868  1.9321 -0.0105 -0.9623
 5515TIP3   OH216466   6.974   2.101   0.434 -0.1395 -0.5474  0.4638
 5515TIP3    H116467   6.919   2.025   0.417  1.4914 -1.8229  0.5701
 5515TIP3    H216468   6.985   2.142   0.349 -0.1467 -1.0836  0.1974
 5516TIP3   OH216469   7.338   2.933   2.300  0.5666  0.4402  0.3284
 5516TIP3    H116470   7.382   2.857   2.262  0.2840  0.3831  0.1047
 5516TIP3    H216471   7.407   2.981   2.347  0.5522 -0.4856  1.3314
 5517TIP3   OH216472   1.172   7.594   6.876  0.4478  0.1522  0.5512
 5517TIP3    H116473   1.152   7.648   6.952 -1.2300  0.1080  0.1897
 5517TIP3    H216474   1.088   7.584   6.831  1.3830  0.2121 -1.3332
 5518TIP3   OH216475   2.962   4.568   4.119 -0.0799 -0.0030 -0.1384
 5518TIP3    H116476   2.867   4.567   4.111 -0.1088  0.9076 -0.0546
 5518TIP3    H216477   2.981   4.651   4.163  0.7447 -0.2276 -0.0558
 5519TIP3   OH216478   6.929   5.356   3.131 -0.0777 -0.3148 -0.1655
 5519TIP3    H116479   6.908   5.384   3.041 -1.0237  0.8810  0.3946
 5519TIP3    H216480   7.023   5.365   3.138  0.1752 -1.5440 -1.3868
 5520TIP3   OH216481   2.854   7.309   6.148  0.0457  0.3107 -0.0122
 5520TIP3    H116482   2.907   7.241   6.189  1.0147 -0.1332 -1.8830
 5520TIP3    H216483   2.772   7.308   6.197  1.8297  1.3393  3.3004
 5521TIP3   OH216484   5.330   7.659   1.036 -0.1140  0.2896  0.7394
 5521TIP3    H116485   5.387   7.735   1.047  0.0711  0.2122  0.3354
 5521TIP3    H216486   5.245   7.696   1.012 -0.2944  0.4151  1.5507
 5522TIP3   OH216487   2.930   1.397   2.259 -0.3216  0.4387  0.0538
 5522TIP3    H116488   2.866   1.373   2.325 -0.7347 -1.3458 -0.9351
 5522TIP3    H216489   2.960   1.314   2.223  2.1753  1.2411  0.1096
 5523TIP3   OH216490   4.142   1.632   1.955  0.5600 -0.1264 -0.2750
 5523TIP3    H116491   4.185   1.649   2.039  0.4904 -1.4781  0.0552
 5523TIP3    H216492   4.166   1.542   1.933 -1.1114 -0.5112 -0.6774
 5524TIP3   OH216493   3.701   6.364   3.331  0.7077 -0.3909  0.7323
 5524TIP3    H116494   3.627   6.425   3.335  1.2579  0.3270  0.1926
 5524TIP3    H216495   3.661   6.277   3.335 -0.0288 -0.0047  2.4833
 5525TIP3   OH216496   1.923   3.482   5.507  0.0263 -0.1197  0.7566
 5525TIP3    H116497   1.869   3.447   5.578 -0.9418  1.7124  0.9994
 5525TIP3    H216498   1.883   3.567   5.487  0.8091 -0.2033 -1.3900
 5526TIP3   OH216499   0.447   1.125   3.063  0.4980 -0.2377 -0.2789
 5526TIP3    H116500   0.408   1.151   3.147 -1.4388 -0.0947 -1.1680
 5526TIP3    H216501   0.493   1.043   3.082 -1.4631 -1.2087  0.5701
 5527TIP3   OH216502   4.726   4.524   3.472 -0.2108 -0.3248  0.0040
 5527TIP3    H116503   4.745   4.592   3.408  0.3135 -0.1894  0.2998
 5527TIP3    H216504   4.788   4.454   3.452 -0.9835 -0.8781 -0.5286
 5528TIP3   OH216505   3.444   3.621   6.235  0.1791 -0.9063  0.0176
 5528TIP3    H116506   3.521   3.572   6.207 -0.2944 -1.2854 -0.6664
 5528TIP3    H216507   3.415   3.667   6.156  1.1240  1.2175  0.8447
 5529TIP3   OH216508   1.361   7.133   4.498 -0.3353 -0.1286 -0.1808
 5529TIP3    H116509   1.359   7.194   4.571  0.0994  0.1271 -0.3778
 5529TIP3    H216510   1.452   7.131   4.471 -0.7409  1.1244 -1.8285
 5530TIP3   OH216511   7.285   2.199   6.276  0.1027 -0.1588 -0.3488
 5530TIP3    H116512   7.339   2.134   6.232  1.1720  0.0095  0.6691
 5530TIP3    H216513   7.303   2.281   6.231  0.1330 -0.2321 -0.4712
 5531TIP3   OH216514   8.255   3.283   0.359  0.4035  0.0938 -0.5570
 5531TIP3    H116515   8.162   3.286   0.336  0.1294  2.4779  0.5457
 5531TIP3    H216516   8.302   3.289   0.276 -0.3896 -0.9690 -1.1070
 5532TIP3   OH216517   1.393   5.589   6.693 -0.0423  0.6289 -0.0634
 5532TIP3    H116518   1.330   5.636   6.748 -0.2163 -1.3971  1.5867
 5532TIP3    H216519   1.457   5.656   6.668 -0.2887  1.8029  2.1313
 5533TIP3   OH216520   4.171   1.533   1.375  0.6132  0.4788 -0.0595
 5533TIP3    H116521   4.210   1.482   1.303 -1.0657 -1.9089  0.5938
 5533TIP3    H216522   4.227   1.515   1.450 -0.5783 -1.4523  0.4382
 5534TIP3   OH216523   7.999   0.325   6.748 -0.1092 -0.4966  0.0783
 5534TIP3    H116524   7.925   0.265   6.760 -1.1125  0.8176  0.6721
 5534TIP3    H216525   7.966   0.410   6.777  1.3940  0.2851 -0.4118
 5535TIP3   OH216526   4.770   0.647   4.984 -0.3406  0.1295 -0.6310
 5535TIP3    H116527   4.734   0.728   4.947 -4.3732 -0.8610  0.5154
 5535TIP3    H216528   4.814   0.604   4.911 -0.4228  2.1348 -1.9371
 5536TIP3   OH216529   7.746   7.904   6.810  0.1910  0.0386 -0.0230
 5536TIP3    H116530   7.824   7.960   6.805 -0.3267  0.7579 -0.2915
 5536TIP3    H216531   7.780   7.817   6.829  1.0169  0.4600  0.5055
 5537TIP3   OH216532   1.176   4.484   7.048  0.0293 -0.5124 -0.6428
 5537TIP3    H116533   1.091   4.458   7.012 -0.8407  0.6236  0.4879
 5537TIP3    H216534   1.190   4.573   7.017  0.6529 -0.5677 -0.5502
 5538TIP3   OH216535   5.780   3.333   3.466  0.3675  0.6265  0.4588
 5538TIP3    H116536   5.722   3.273   3.420  0.4315  0.5321  0.5006
 5538TIP3    H216537   5.867   3.314   3.432  0.0532  2.8398 -1.8708
 5539TIP3   OH216538   0.399   6.101   3.582 -0.1839 -0.4055 -0.4345
 5539TIP3    H116539   0.424   6.069   3.496  2.4637  1.4740 -0.4565
 5539TIP3    H216540   0.398   6.196   3.574  1.1002 -0.1237  1.7996
 5540TIP3   OH216541   4.145   1.911   3.732 -0.3512 -0.7625 -0.5754
 5540TIP3    H116542   4.140   1.817   3.746 -0.1068 -0.8213 -0.8686
 5540TIP3    H216543   4.145   1.949   3.820 -0.7157 -1.0215 -0.4645
 5541TIP3   OH216544   1.908   1.461   1.392 -0.0724  0.0818 -0.3503
 5541TIP3    H116545   1.881   1.534   1.337  0.1060  0.3728 -0.0580
 5541TIP3    H216546   1.999   1.443   1.367  0.6470  1.4299  1.1035
 5542TIP3   OH216547   2.986   6.715   4.981  0.2560 -0.1000 -0.3423
 5542TIP3    H116548   3.060   6.662   5.009  1.0348  1.0872 -0.0568
 5542TIP3    H216549   3.005   6.737   4.889 -0.5333 -1.0586 -0.7585
 5543TIP3   OH216550   5.581   1.277   6.393 -0.1963 -0.0237 -0.3735
 5543TIP3    H116551   5.667   1.235   6.383 -0.8794 -1.1428 -1.9180
 5543TIP3    H216552   5.602   1.370   6.403  1.2184 -0.3538  0.1106
 5544TIP3   OH216553   5.340   2.069   4.672 -0.0470  0.1444 -0.3321
 5544TIP3    H116554   5.319   2.025   4.754  0.5873  0.2092 -0.1311
 5544TIP3    H216555   5.395   2.143   4.697 -3.2634  2.7747 -0.3540
 5545TIP3   OH216556   6.570   3.011   5.420 -0.1591  0.2225  0.1280
 5545TIP3    H116557   6.517   2.936   5.394 -0.0716  0.6478 -1.3463
 5545TIP3    H216558   6.631   3.024   5.348  1.0949  0.5686  1.1972
 5546TIP3   OH216559   2.423   0.510   3.811  0.5401  0.2966  0.5337
 5546TIP3    H116560   2.342   0.490   3.858  0.5427  0.9100  0.7988
 5546TIP3    H216561   2.398   0.577   3.747  0.2100 -1.5094 -1.3462
 5547TIP3   OH216562   1.849   2.844   3.911 -0.5256 -0.0955 -0.0143
 5547TIP3    H116563   1.765   2.839   3.956 -0.4345  1.4327  0.3679
 5547TIP3    H216564   1.833   2.900   3.835 -0.0786 -0.6234 -0.5144
 5548TIP3   OH216565   1.563   1.604   3.839  0.0429 -0.0518  0.2733
 5548TIP3    H116566   1.511   1.684   3.827  0.1659 -0.0922 -0.5490
 5548TIP3    H216567   1.566   1.592   3.934  0.8640  1.4877  0.4783
 5549TIP3   OH216568   4.992   4.490   7.086  0.2748 -0.0401  0.5683
 5549TIP3    H116569   5.045   4.411   7.077 -0.5447 -0.3909 -2.0323
 5549TIP3    H216570   5.048   4.560   7.050 -0.6345 -0.2762 -1.4298
 5550TIP3   OH216571   6.494   4.126   4.314  0.4764  0.5101 -0.3177
 5550TIP3    H116572   6.527   4.214   4.334  0.1097  0.4102  0.7911
 5550TIP3    H216573   6.566   4.068   4.335 -0.0495  0.3681  1.2436
 5551TIP3   OH216574   3.148   0.169   6.839 -0.5322  0.0857 -0.4072
 5551TIP3    H116575   3.124   0.082   6.808 -2.4591  0.7464 -0.8982
 5551TIP3    H216576   3.230   0.188   6.793  0.1831 -1.6158  0.0624
 5552TIP3   OH216577   3.694   8.072   1.559 -0.0371  0.1465  0.5673
 5552TIP3    H116578   3.735   7.987   1.549  2.8651  1.6542 -2.1443
 5552TIP3    H216579   3.619   8.070   1.499 -0.5450 -0.7624  1.2198
 5553TIP3   OH216580   1.407   1.296   5.985 -0.3317  0.3143  0.0185
 5553TIP3    H116581   1.345   1.290   6.057 -2.1093 -1.3020 -1.4992
 5553TIP3    H216582   1.392   1.215   5.935  1.1078  1.1649 -1.9095
 5554TIP3   OH216583   1.108   6.822   0.962  0.2084  0.0762  0.5748
 5554TIP3    H116584   1.157   6.876   1.024  1.8846 -0.8444  0.0970
 5554TIP3    H216585   1.101   6.737   1.005  1.5048 -0.6155 -0.5235
 5555TIP3   OH216586   1.104   0.929   3.947  0.0367 -0.0824 -0.1873
 5555TIP3    H116587   1.123   0.903   3.856 -1.9757  1.1713 -1.0301
 5555TIP3    H216588   1.080   0.848   3.991 -0.7659 -0.4560 -1.2858
 5556TIP3   OH216589   3.489   5.504   4.705 -0.2923  0.2398 -0.2090
 5556TIP3    H116590   3.451   5.470   4.624 -0.2007 -0.2214 -0.0594
 5556TIP3    H216591   3.577   5.468   4.707 -0.8817 -1.2386  0.9831
 5557TIP3   OH216592   6.320   0.641   5.180 -1.0336 -0.0599  0.3725
 5557TIP3    H116593   6.280   0.669   5.097 -0.0992  0.8970  0.2242
 5557TIP3    H216594   6.291   0.550   5.191 -1.1653 -0.2076 -1.0156
 5558TIP3   OH216595   2.301   8.109   3.340  0.1697  0.4274  0.1682
 5558TIP3    H116596   2.269   8.166   3.410  1.5641  1.9525 -0.3489
 5558TIP3    H216597   2.244   8.129   3.265 -0.6655 -0.4382  0.5551
 5559TIP3   OH216598   2.161   1.831   2.281 -0.0612 -0.2421  0.6727
 5559TIP3    H116599   2.075   1.872   2.270  0.0199  0.2505  1.6916
 5559TIP3    H216600   2.152   1.745   2.241 -0.5601  0.3634 -0.5672
 5560TIP3   OH216601   7.797   5.177   4.201  0.3897  0.0679 -0.1246
 5560TIP3    H116602   7.845   5.223   4.131  0.4301  0.4375  0.1396
 5560TIP3    H216603   7.852   5.189   4.278 -0.3230  0.8553  0.2809
 5561TIP3   OH216604   5.500   4.658   1.816 -0.4124  0.2018 -0.2731
 5561TIP3    H116605   5.452   4.738   1.837 -1.0546  0.1781 -1.5025
 5561TIP3    H216606   5.569   4.687   1.756 -0.6862 -0.1532 -0.7740
 5562TIP3   OH216607   3.489   7.738   4.854 -0.3305 -0.0079  0.3316
 5562TIP3    H116608   3.567   7.691   4.822 -0.2479 -0.3630  1.0272
 5562TIP3    H216609   3.416   7.694   4.811 -0.2001 -0.2448  0.3469
 5563TIP3   OH216610   7.155   1.025   2.823  1.1317 -0.1458  0.0129
 5563TIP3    H116611   7.218   1.047   2.891  0.6652  1.7620 -0.1181
 5563TIP3    H216612   7.115   1.108   2.799 -1.3765 -1.2708 -0.0030
 5564TIP3   OH216613   6.160   2.453   6.750  0.0569  0.2064  0.0960
 5564TIP3    H116614   6.176   2.536   6.796  0.9024  0.3732 -0.4914
 5564TIP3    H216615   6.244   2.430   6.711 -0.1462 -0.9860  0.3229
 5565TIP3   OH216616   0.765   7.826   2.753  0.5914  0.8490 -0.8620
 5565TIP3    H116617   0.754   7.741   2.795 -0.2704  0.0645 -2.5660
 5565TIP3    H216618   0.813   7.806   2.672  0.7632  2.0595 -1.0743
 5566TIP3   OH216619   2.950   6.155   0.708 -0.2313 -0.4891  0.3568
 5566TIP3    H116620   3.008   6.164   0.632 -0.8669 -0.6510 -0.1578
 5566TIP3    H216621   2.882   6.220   0.694 -0.8970 -1.1867  0.2744
 5567TIP3   OH216622   3.386   4.871   6.859 -0.7670  0.2373  0.7896
 5567TIP3    H116623   3.464   4.874   6.804 -1.0517 -2.8008  0.0228
 5567TIP3    H216624   3.370   4.962   6.884  3.7647  0.9290  2.1198
 5568TIP3   OH216625   0.529   6.387   0.770 -0.5400  0.0618  0.0488
 5568TIP3    H116626   0.599   6.451   0.761  0.0031 -0.3608  1.0842
 5568TIP3    H216627   0.565   6.307   0.732 -0.4311 -0.1679  0.6239
 5569TIP3   OH216628   4.851   1.912   5.287 -0.4842 -0.4256  0.3231
 5569TIP3    H116629   4.931   1.866   5.312 -0.0017  0.0709 -0.2722
 5569TIP3    H216630   4.794   1.844   5.251  0.0483 -0.6326 -0.1339
 5570TIP3   OH216631   5.127   1.963   6.852 -0.1877 -0.1883 -0.2924
 5570TIP3    H116632   5.094   2.053   6.855 -0.3944 -0.2724  0.0522
 5570TIP3    H216633   5.213   1.970   6.811  0.0391  0.2398  0.2398
 5571TIP3   OH216634   4.193   4.675   0.543  0.0231  0.0913 -0.1234
 5571TIP3    H116635   4.266   4.662   0.603 -0.8805 -0.1699  0.9482
 5571TIP3    H216636   4.148   4.752   0.576 -0.6675 -0.2368 -0.2802
 5572TIP3   OH216637   8.622   3.946   5.826 -0.3379  0.5274  0.2850
 5572TIP3    H116638   8.531   3.941   5.853 -0.0380 -0.3426  1.1968
 5572TIP3    H216639   8.645   4.039   5.833 -1.2537  0.8106 -0.3461
 5573TIP3   OH216640   0.759   6.944   0.062 -0.0894  0.0287 -0.4842
 5573TIP3    H116641   0.667   6.937   0.035 -0.0589 -0.2418 -0.5198
 5573TIP3    H216642   0.804   6.974  -0.018 -0.1445  0.1613 -0.4668
 5574TIP3   OH216643   1.889   6.198   6.782 -0.4383  0.1660  0.3395
 5574TIP3    H116644   1.894   6.105   6.805 -2.2722 -0.0198  0.1001
 5574TIP3    H216645   1.801   6.210   6.746  0.7030  1.4071 -2.3556
 5575TIP3   OH216646   5.150   3.113   3.142  0.4195 -0.4229  0.2776
 5575TIP3    H116647   5.211   3.171   3.097 -1.0529 -0.5077 -1.9762
 5575TIP3    H216648   5.087   3.172   3.183  1.7901 -0.3436  2.4076
 5576TIP3   OH216649   6.683   1.443   1.306  0.4117  0.5178 -0.3322
 5576TIP3    H116650   6.651   1.426   1.218  0.2224 -0.2943 -0.1072
 5576TIP3    H216651   6.609   1.481   1.352 -0.3033 -1.4223  0.2087
 5577TIP3   OH216652   4.396   3.601   3.048  0.3458 -0.0731  0.0945
 5577TIP3    H116653   4.451   3.568   2.977  0.4604  0.7706 -0.2234
 5577TIP3    H216654   4.332   3.657   3.004 -0.3898 -0.5509  0.5245
 5578TIP3   OH216655   4.699   5.516   4.497  0.0400  0.1322 -0.4918
 5578TIP3    H116656   4.619   5.507   4.445  0.3488 -0.4363 -0.8864
 5578TIP3    H216657   4.700   5.608   4.524 -1.4824 -0.1716  0.7486
 5579TIP3   OH216658   2.329   0.791   1.798 -0.6930 -0.3389 -0.7203
 5579TIP3    H116659   2.237   0.813   1.807 -0.3687  0.3888  1.3024
 5579TIP3    H216660   2.368   0.815   1.882  1.6352  0.7518 -2.0150
 5580TIP3   OH216661   7.408   3.213   2.363  0.2247 -0.1785  0.5085
 5580TIP3    H116662   7.501   3.203   2.344  0.9317  1.2550  2.8901
 5580TIP3    H216663   7.377   3.278   2.300  1.2920  0.7287  0.8978
 5581TIP3   OH216664   8.548   7.267   4.864 -0.1689  0.3194 -0.0045
 5581TIP3    H116665   8.521   7.279   4.773 -0.5585  2.5475  0.3556
 5581TIP3    H216666   8.644   7.265   4.861 -0.2010 -0.7504 -0.5674
 5582TIP3   OH216667   0.815   0.421   2.525  0.4179  0.3266 -0.4339
 5582TIP3    H116668   0.788   0.398   2.614 -0.6846 -2.0460 -1.2935
 5582TIP3    H216669   0.883   0.357   2.504  0.7859  0.9704 -1.2438
 5583TIP3   OH216670   2.974   8.183   1.073 -0.1129 -0.1116 -0.2513
 5583TIP3    H116671   3.011   8.171   1.161 -1.3131  0.9462  0.4452
 5583TIP3    H216672   3.042   8.152   1.014  0.9807 -0.2810  1.0362
 5584TIP3   OH216673   0.808   7.711   5.191  0.3352  0.3185 -0.2079
 5584TIP3    H116674   0.751   7.717   5.114 -1.6018 -0.7075  1.0441
 5584TIP3    H216675   0.840   7.800   5.205 -2.5418  1.4084  0.1077
 5585TIP3   OH216676   5.804   3.350   4.613 -0.1239 -0.2923  0.3130
 5585TIP3    H116677   5.828   3.421   4.672 -0.6035 -1.8257  2.4611
 5585TIP3    H216678   5.829   3.270   4.659  1.0079 -1.5799 -2.2806
 5586TIP3   OH216679   8.298   1.845   0.453  0.3930 -0.1528  0.7356
 5586TIP3    H116680   8.378   1.838   0.401 -0.0641 -0.8642  0.1047
 5586TIP3    H216681   8.227   1.844   0.388 -0.1090  1.9612  1.1576
 5587TIP3   OH216682   1.073   4.358   5.173 -0.0067  0.3912 -0.1450
 5587TIP3    H116683   1.130   4.424   5.212  1.4219 -0.5816 -0.5068
 5587TIP3    H216684   1.037   4.310   5.248 -0.5726  1.1611  0.0922
 5588TIP3   OH216685   6.601   1.113   0.901  0.2369 -0.1331  0.0102
 5588TIP3    H116686   6.632   1.080   0.985  0.0278  1.5849  0.7941
 5588TIP3    H216687   6.563   1.198   0.920  1.1487  0.8057 -1.9667
 5589TIP3   OH216688   7.763   7.157   4.808  0.0845 -0.1341  0.0873
 5589TIP3    H116689   7.673   7.166   4.839 -0.0424 -2.7115  0.7253
 5589TIP3    H216690   7.815   7.148   4.887  0.6421 -0.4207 -0.3028
 5590TIP3   OH216691   1.763   4.190   3.170  0.2099  0.1259 -0.1369
 5590TIP3    H116692   1.713   4.110   3.186  1.6661 -0.6986  0.5315
 5590TIP3    H216693   1.788   4.184   3.077 -0.4759  0.2875 -0.3372
 5591TIP3   OH216694   0.214   1.658   6.950  0.4310 -0.2754 -0.1780
 5591TIP3    H116695   0.304   1.692   6.955  0.1191  0.7880 -1.2125
 5591TIP3    H216696   0.199   1.645   6.857 -0.8338  0.5496 -0.1105
 5592TIP3   OH216697   3.164   4.810   1.077  0.1776  0.2058  0.4033
 5592TIP3    H116698   3.176   4.846   1.165  1.4678 -1.8146  1.1261
 5592TIP3    H216699   3.170   4.715   1.088  1.9835 -0.0900 -2.0478
 5593TIP3   OH216700   5.594   8.091   3.426  0.0347 -0.1599 -0.3982
 5593TIP3    H116701   5.587   8.044   3.509 -0.2539  0.7928  0.1368
 5593TIP3    H216702   5.688   8.109   3.416  0.1103 -0.5630 -0.4607
 5594TIP3   OH216703   2.755   4.998   5.331 -0.1924 -0.0708  0.0596
 5594TIP3    H116704   2.810   4.952   5.267 -0.5224  0.6698 -0.7827
 5594TIP3    H216705   2.686   5.039   5.278 -1.7903 -1.2757  1.1359
 5595TIP3   OH216706   4.849   7.812   5.412 -0.1730 -0.1335 -0.3196
 5595TIP3    H116707   4.865   7.906   5.406  0.7900 -0.1658  1.2458
 5595TIP3    H216708   4.822   7.798   5.503 -0.4573 -1.3614 -0.5692
 5596TIP3   OH216709   6.835   1.867   5.209  0.0246  0.3121  0.1475
 5596TIP3    H116710   6.902   1.801   5.189 -0.2254 -0.2829  1.2229
 5596TIP3    H216711   6.878   1.950   5.188  1.1218 -0.0538  0.8321
 5597TIP3   OH216712   0.405   6.223   6.136  0.1621 -0.3482 -0.3940
 5597TIP3    H116713   0.319   6.182   6.132 -1.5554  3.0184 -1.2070
 5597TIP3    H216714   0.410   6.276   6.057  2.3029  0.8325  0.4549
 5598TIP3   OH216715   1.587   5.571   3.176 -0.3117  0.2235  0.1126
 5598TIP3    H116716   1.594   5.647   3.118  0.0602 -0.5545 -0.8925
 5598TIP3    H216717   1.673   5.563   3.216 -0.0418 -0.2373 -0.5371
 5599TIP3   OH216718   5.847   0.940   2.776  0.3457 -0.1801 -0.1413
 5599TIP3    H116719   5.835   0.930   2.870  1.8727  0.7420  0.1788
 5599TIP3    H216720   5.804   0.863   2.738  0.1537 -0.8295  1.3308
 5600TIP3   OH216721   6.723   3.949   7.010 -0.2438  0.9503 -0.6987
 5600TIP3    H116722   6.679   3.865   7.027 -1.3419  1.1015 -2.4476
 5600TIP3    H216723   6.779   3.963   7.086  0.4930 -1.6967 -0.6443
 5601TIP3   OH216724   4.390   3.457   7.060  0.0839 -0.1688  0.3549
 5601TIP3    H116725   4.472   3.483   7.020  1.3096  0.9171  3.3207
 5601TIP3    H216726   4.393   3.361   7.061  0.2923 -0.2112 -1.4007
 5602TIP3   OH216727   0.573   1.724   6.822  0.3681  0.0667  0.5183
 5602TIP3    H116728   0.620   1.803   6.848 -1.4759  0.6858  2.2695
 5602TIP3    H216729   0.562   1.675   6.903 -0.8844 -0.6521 -0.0533
 5603TIP3   OH216730   4.897   6.842   6.564  0.1858  0.2208 -0.0511
 5603TIP3    H116731   4.959   6.779   6.528  0.6891  1.3470 -1.2846
 5603TIP3    H216732   4.866   6.891   6.487 -2.0388 -0.1276  0.5677
 5604TIP3   OH216733   3.614   0.068   2.995 -1.1032  0.1908 -0.3481
 5604TIP3    H116734   3.635  -0.024   3.012 -0.9355  0.1226 -0.9011
 5604TIP3    H216735   3.567   0.067   2.912  1.0877  0.8287 -1.6896
 5605TIP3   OH216736   1.696   2.331   1.218 -0.0648 -0.0605 -0.0942
 5605TIP3    H116737   1.607   2.365   1.230  0.4867  1.0551  1.0699
 5605TIP3    H216738   1.689   2.238   1.239 -1.2679 -0.3827 -1.6708
 5606TIP3   OH216739   8.484   2.966   4.160  0.6656 -0.0740 -0.3272
 5606TIP3    H116740   8.458   2.982   4.070  1.8981  0.4839 -0.6049
 5606TIP3    H216741   8.506   2.873   4.162  2.0022  0.2036 -0.9882
 5607TIP3   OH216742   5.427   7.084   1.723 -0.2001  0.2517 -0.2035
 5607TIP3    H116743   5.447   7.170   1.760  0.2616  0.1637 -0.2419
 5607TIP3    H216744   5.363   7.046   1.783  0.8782 -0.0815  0.7684
 5608TIP3   OH216745   2.953   6.969   1.337  0.0056  0.3286  0.4283
 5608TIP3    H116746   2.877   7.014   1.371  0.0520  0.1586  0.7676
 5608TIP3    H216747   2.920   6.884   1.307  0.1233  0.0846  0.9650
 5609TIP3   OH216748   7.260   4.814   3.158  0.5093  0.0390 -0.6977
 5609TIP3    H116749   7.253   4.909   3.162  0.3888  0.0961 -1.7528
 5609TIP3    H216750   7.204   4.790   3.084 -0.5512 -0.9831  0.4016
 5610TIP3   OH216751   0.180   6.133   4.100  0.5700  0.1177 -0.7489
 5610TIP3    H116752   0.224   6.213   4.129 -0.4343 -0.1902  1.9450
 5610TIP3    H216753   0.247   6.065   4.107  0.8402  0.3651 -0.9157
 5611TIP3   OH216754   6.627   0.838   6.620 -0.0727  0.5726  0.4121
 5611TIP3    H116755   6.661   0.834   6.709 -1.7489 -2.2104  1.0460
 5611TIP3    H216756   6.536   0.864   6.629  0.1431  1.7785 -0.6641
 5612TIP3   OH216757   1.963   5.187   1.665  0.2206 -0.5174  0.0194
 5612TIP3    H116758   2.052   5.222   1.669  0.5740 -1.3544 -0.1005
 5612TIP3    H216759   1.958   5.145   1.579 -0.9504  1.1598 -0.7750
 5613TIP3   OH216760   7.421   1.454   0.149 -0.0385 -0.1984  0.7319
 5613TIP3    H116761   7.432   1.463   0.054 -0.0730 -0.3711  0.7126
 5613TIP3    H216762   7.487   1.513   0.186  1.1994 -1.4645  0.6187
 5614TIP3   OH216763   7.348   7.092   4.063  0.4907  0.2220  0.3996
 5614TIP3    H116764   7.429   7.076   4.111  0.5285 -0.8748 -0.0044
 5614TIP3    H216765   7.349   7.028   3.992 -0.2741  0.8398 -0.1855
 5615TIP3   OH216766   4.837   5.924   6.116  0.8723 -0.1317 -0.3756
 5615TIP3    H116767   4.832   5.829   6.115 -0.4100 -0.0821 -0.7118
 5615TIP3    H216768   4.794   5.951   6.034  1.4354  0.7244 -0.4017
 5616TIP3   OH216769   5.486   8.108   5.771 -0.1427  0.0505 -0.1095
 5616TIP3    H116770   5.483   8.027   5.822 -0.0870 -0.9291 -1.5801
 5616TIP3    H216771   5.418   8.096   5.704 -0.3427  1.3621 -0.1658
 5617TIP3   OH216772   2.777   5.013   4.050 -0.2266 -0.3305 -0.5329
 5617TIP3    H116773   2.756   5.089   3.996  0.4572 -0.8181 -1.5087
 5617TIP3    H216774   2.811   4.948   3.988  0.9349 -0.7738  0.5303
 5618TIP3   OH216775   4.918   0.499   1.728  0.9978 -0.3198 -0.1494
 5618TIP3    H116776   4.855   0.451   1.782  0.4544  0.0707 -0.4253
 5618TIP3    H216777   4.956   0.433   1.670  1.2545 -0.6590  0.4001
 5619TIP3   OH216778   0.550   4.878   4.115  0.3184  0.2986 -0.2874
 5619TIP3    H116779   0.460   4.891   4.146  1.3302  2.1447  2.2796
 5619TIP3    H216780   0.590   4.819   4.179  1.1639  0.1490 -0.9277
 5620TIP3   OH216781   6.716   0.233   1.137  0.4161  0.0986  0.1635
 5620TIP3    H116782   6.795   0.187   1.108  0.3407  0.8508 -1.3330
 5620TIP3    H216783   6.743   0.325   1.144 -0.0329  0.1892  0.7933
 5621TIP3   OH216784   5.066   3.749   0.965 -0.1051  0.4543  0.2167
 5621TIP3    H116785   5.031   3.665   0.993 -1.6701  0.4490 -1.5343
 5621TIP3    H216786   5.038   3.811   1.033  0.3522 -0.2679  1.0884
 5622TIP3   OH216787   1.719   7.696   4.457  0.0034  0.1293 -0.0429
 5622TIP3    H116788   1.663   7.758   4.503 -0.5314 -0.7856  0.5605
 5622TIP3    H216789   1.663   7.657   4.390  0.1564 -0.1856  0.0121
 5623TIP3   OH216790   4.099   5.248   6.545 -0.4379 -0.2163 -0.1508
 5623TIP3    H116791   4.106   5.155   6.562  2.7880 -0.0652 -0.0518
 5623TIP3    H216792   4.180   5.285   6.579 -1.7160  2.6953  0.0490
 5624TIP3   OH216793   7.724   1.753   5.443 -0.3378  0.1836 -0.0515
 5624TIP3    H116794   7.690   1.690   5.507 -1.4481  0.9313  0.1366
 5624TIP3    H216795   7.810   1.718   5.418  0.1734 -0.0908  1.8991
 5625TIP3   OH216796   7.115   6.514   2.787  0.1335 -0.2511  0.2508
 5625TIP3    H116797   7.082   6.447   2.847 -0.7996 -0.2807 -0.2768
 5625TIP3    H216798   7.072   6.594   2.816  0.5096 -0.0582  0.2796
 5626TIP3   OH216799   3.251   3.716   2.295 -0.6306 -0.1024 -0.3025
 5626TIP3    H116800   3.245   3.620   2.291 -0.0202 -0.3014  2.1316
 5626TIP3    H216801   3.222   3.738   2.383  1.6088  1.7088  0.0773
 5627TIP3   OH216802   7.617   4.059   6.759 -0.7023 -0.8140  0.0046
 5627TIP3    H116803   7.633   4.053   6.854 -1.2289 -2.0715  0.0224
 5627TIP3    H216804   7.583   4.148   6.747 -1.0151 -0.7713  1.0612
 5628TIP3   OH216805   0.914   6.907   1.348  0.1220 -0.5713 -0.4485
 5628TIP3    H116806   0.902   6.851   1.271 -0.2865 -0.8613 -0.1804
 5628TIP3    H216807   0.936   6.846   1.418 -3.7077 -0.9244  0.6939
 5629TIP3   OH216808   6.563   3.214   0.854  0.2991 -0.2452 -0.5940
 5629TIP3    H116809   6.573   3.119   0.867 -2.1916 -0.4060  0.5788
 5629TIP3    H216810   6.562   3.250   0.943 -0.4294  0.6710 -0.9670
 5630TIP3   OH216811   4.720   5.158   0.373 -0.3331 -0.0593 -0.3612
 5630TIP3    H116812   4.742   5.206   0.293 -0.4600  0.8935  0.1613
 5630TIP3    H216813   4.683   5.075   0.342 -1.2572  0.6752 -1.3175
 5631TIP3   OH216814   7.551   0.388   1.726  0.0193  0.0777  0.0918
 5631TIP3    H116815   7.577   0.418   1.639  0.6569 -1.4760 -0.2817
 5631TIP3    H216816   7.624   0.411   1.783  0.8889 -1.4654 -0.3573
 5632TIP3   OH216817   2.387   7.458   0.037  0.5766  0.0749 -0.1940
 5632TIP3    H116818   2.360   7.442   0.127  0.1637 -0.5424 -0.4156
 5632TIP3    H216819   2.322   7.518   0.002  0.2792 -0.3115 -0.3121
 5633TIP3   OH216820   8.304   6.377   5.624 -0.4911  0.1862  0.3435
 5633TIP3    H116821   8.366   6.359   5.553  1.7152  3.2069  1.3393
 5633TIP3    H216822   8.333   6.320   5.695 -0.9716 -0.7934 -0.2131
 5634TIP3   OH216823   0.651   4.916   4.588 -0.0426  0.6839  0.3062
 5634TIP3    H116824   0.595   4.876   4.654  0.6499  0.2226  0.6132
 5634TIP3    H216825   0.702   4.844   4.552  0.3662  1.0997  0.0322
 5635TIP3   OH216826   3.864   6.590   1.923 -0.1796 -0.1923  0.3098
 5635TIP3    H116827   3.821   6.523   1.975 -1.2070  0.3860  0.2356
 5635TIP3    H216828   3.795   6.653   1.903 -0.3548 -1.2948 -3.3268
 5636TIP3   OH216829   4.169   1.562   3.801 -0.2459 -0.4856  0.2073
 5636TIP3    H116830   4.259   1.547   3.832 -0.0096  1.6404  0.7089
 5636TIP3    H216831   4.181   1.591   3.710 -0.4034  0.0437  0.3562
 5637TIP3   OH216832   5.282   5.092   4.413 -0.2389 -0.1336 -0.0188
 5637TIP3    H116833   5.372   5.122   4.421 -0.2272  0.1052 -0.9124
 5637TIP3    H216834   5.246   5.144   4.341 -0.5620 -1.4176 -0.8253
 5638TIP3   OH216835   7.225   1.483   2.127  0.4370  0.1574  0.0191
 5638TIP3    H116836   7.278   1.432   2.188  1.1446 -0.9315 -1.4395
 5638TIP3    H216837   7.287   1.544   2.087 -0.0400  0.9311  0.4464
 5639TIP3   OH216838   6.578   4.283   2.658 -0.4461 -0.0543  0.7987
 5639TIP3    H116839   6.510   4.266   2.723 -0.5187  0.3267  0.8243
 5639TIP3    H216840   6.632   4.352   2.697 -0.0571 -0.3354  0.7695
 5640TIP3   OH216841   8.488   4.691   4.939 -0.1254  0.4934  0.1019
 5640TIP3    H116842   8.503   4.665   4.848 -0.2534  0.3661  0.1182
 5640TIP3    H216843   8.415   4.638   4.969  0.8594 -0.5624  0.7431
 5641TIP3   OH216844   6.604   8.161   6.845  0.4020  0.2354  0.3095
 5641TIP3    H116845   6.562   8.171   6.931 -0.8248  0.0646 -0.2500
 5641TIP3    H216846   6.676   8.223   6.847  0.6991 -0.1080  1.6452
 5642TIP3   OH216847   0.047   1.061   3.499 -0.0093 -0.1848 -0.5649
 5642TIP3    H116848   0.109   1.102   3.438 -0.6226 -0.5431 -1.4511
 5642TIP3    H216849   0.095   1.057   3.582  0.8967  0.1983 -1.0472
 5643TIP3   OH216850   3.699   6.669   4.352  0.0418 -0.7490 -0.6732
 5643TIP3    H116851   3.603   6.679   4.356 -0.1932 -2.7598 -0.0373
 5643TIP3    H216852   3.730   6.753   4.319 -1.8299  0.5142  0.5236
 5644TIP3   OH216853   6.264   1.181   3.507  0.3214  0.5792  0.2035
 5644TIP3    H116854   6.201   1.127   3.459  0.2959  1.0886 -0.3554
 5644TIP3    H216855   6.338   1.191   3.447 -0.4137  2.6213 -0.4480
 5645TIP3   OH216856   3.782   3.544   2.079  0.4472  0.4361 -0.4685
 5645TIP3    H116857   3.821   3.609   2.021 -0.9062  2.6585  0.9970
 5645TIP3    H216858   3.693   3.533   2.046 -0.0592  1.0846  0.6241
 5646TIP3   OH216859   5.687   5.945   1.913 -0.1847 -0.0144  0.0939
 5646TIP3    H116860   5.700   5.912   1.824 -2.1215 -0.8268  0.0715
 5646TIP3    H216861   5.775   5.944   1.952  0.6130 -0.1115 -1.6287
 5647TIP3   OH216862   2.109   7.095   6.852  0.1093  0.0696 -0.1427
 5647TIP3    H116863   2.093   7.020   6.794 -0.6724 -0.0529  0.2122
 5647TIP3    H216864   2.200   7.084   6.881 -0.3054 -1.3425  0.7361
 5648TIP3   OH216865   5.235   2.796   6.673 -0.4572  0.4245 -0.2357
 5648TIP3    H116866   5.271   2.843   6.748  0.2992 -2.0373  1.0478
 5648TIP3    H216867   5.184   2.862   6.626  1.9770  2.9431  0.3888
 5649TIP3   OH216868   2.800   4.137   1.118 -0.3663  0.2893  0.5745
 5649TIP3    H116869   2.737   4.173   1.181  0.1824 -0.6893  1.7285
 5649TIP3    H216870   2.852   4.074   1.169  0.5194 -0.0747 -0.7171
 5650TIP3   OH216871   7.225   4.946   6.248  0.2065 -0.1504 -1.0280
 5650TIP3    H116872   7.160   4.897   6.199 -0.6972  0.2639 -0.2827
 5650TIP3    H216873   7.208   5.038   6.226  0.0316  0.0116 -0.2510
 5651TIP3   OH216874   2.058   2.164   1.403 -0.5004  0.2732 -0.0892
 5651TIP3    H116875   2.010   2.246   1.408 -0.4879  0.3399 -0.9577
 5651TIP3    H216876   2.056   2.140   1.310 -0.3522 -0.6152  0.1264
 5652TIP3   OH216877   6.030   3.367   2.191 -0.2566  0.3245 -0.0382
 5652TIP3    H116878   5.944   3.360   2.150 -0.2796  0.4776 -0.0181
 5652TIP3    H216879   6.089   3.322   2.131 -0.3372  0.2946 -0.0947
 5653TIP3   OH216880   5.506   5.411   5.515  0.1960 -0.2513 -0.4429
 5653TIP3    H116881   5.497   5.501   5.482  1.0526 -0.5495 -1.5402
 5653TIP3    H216882   5.503   5.356   5.437  1.4550 -1.0486  0.0330
 5654TIP3   OH216883   8.322   5.920   5.138 -0.1601 -0.1436 -0.2421
 5654TIP3    H116884   8.235   5.952   5.114 -0.3265 -0.9626 -0.7966
 5654TIP3    H216885   8.314   5.893   5.229  0.3069  2.4270  0.6558
 5655TIP3   OH216886   5.352   0.149   3.335  0.1382 -0.1620 -0.2481
 5655TIP3    H116887   5.398   0.088   3.277  0.0585  0.2139 -0.7121
 5655TIP3    H216888   5.281   0.184   3.281 -0.4163 -0.3865  0.3148
 5656TIP3   OH216889   3.804   3.886   0.447 -0.7474  0.2939 -0.2383
 5656TIP3    H116890   3.762   3.921   0.368 -0.3741 -0.0825 -0.6093
 5656TIP3    H216891   3.733   3.844   0.495 -1.2171  1.5800  0.2386
 5657TIP3   OH216892   5.100   4.424   1.961  0.1375  0.3951  0.1146
 5657TIP3    H116893   5.173   4.422   1.898  0.3625 -1.6826  0.3700
 5657TIP3    H216894   5.039   4.359   1.928 -1.8064  2.2841 -0.2344
 5658TIP3   OH216895   4.692   2.309   1.295 -1.0410  0.2721  0.6879
 5658TIP3    H116896   4.677   2.218   1.321  0.6552 -0.2941 -0.2111
 5658TIP3    H216897   4.766   2.337   1.348 -0.9932  0.8402  0.3231
 5659TIP3   OH216898   2.275   1.959   2.005 -0.3296 -1.0826  0.2405
 5659TIP3    H116899   2.216   1.906   1.952 -1.4184 -0.2457  0.5669
 5659TIP3    H216900   2.236   1.957   2.093  0.6234 -1.2410  0.6699
 5660TIP3   OH216901   1.303   4.376   2.117  0.0276  0.1919 -0.7810
 5660TIP3    H116902   1.371   4.416   2.171  0.8934  0.3957 -1.9839
 5660TIP3    H216903   1.300   4.285   2.147  1.2277  0.0364 -1.0495
 5661TIP3   OH216904   2.583   4.194   6.484  0.1923 -0.1765  0.2797
 5661TIP3    H116905   2.659   4.141   6.461  0.3010  0.5586 -1.1477
 5661TIP3    H216906   2.512   4.131   6.494  0.9069 -0.8419  1.3458
 5662TIP3   OH216907   7.746   0.615   5.509 -0.3377 -0.2883  0.5865
 5662TIP3    H116908   7.684   0.687   5.496  0.5671  0.4187  0.0520
 5662TIP3    H216909   7.801   0.616   5.431  1.1527 -0.0885  1.5923
 5663TIP3   OH216910   5.258   1.010   1.035 -0.3856 -0.3865  0.0569
 5663TIP3    H116911   5.306   0.983   0.956 -1.5229 -2.7039  0.0825
 5663TIP3    H216912   5.323   1.058   1.087  1.1303 -1.0932 -1.1048
 5664TIP3   OH216913   7.017   3.676   0.165  0.1577  0.0286  0.3228
 5664TIP3    H116914   7.102   3.718   0.148 -0.0693  0.4452  0.1941
 5664TIP3    H216915   7.039   3.588   0.194  0.6711  0.4243  1.1780
 5665TIP3   OH216916   2.765   7.181   4.354  0.0628 -0.1554 -0.2712
 5665TIP3    H116917   2.755   7.214   4.265  0.8403 -1.2474 -0.7716
 5665TIP3    H216918   2.677   7.188   4.391  0.0095  1.6404 -0.6258
 5666TIP3   OH216919   0.662   2.774   3.137 -0.5928  0.0296  0.4297
 5666TIP3    H116920   0.686   2.687   3.105  0.3099 -0.1588  1.5599
 5666TIP3    H216921   0.730   2.797   3.200 -1.2109  1.2527  0.7003
 5667TIP3   OH216922   6.438   7.453   5.333 -0.6911  0.4102 -0.4002
 5667TIP3    H116923   6.489   7.476   5.410 -2.8670  0.7227  1.0403
 5667TIP3    H216924   6.431   7.358   5.337  0.1205  0.3200 -0.8674
 5668TIP3   OH216925   8.393   5.148   3.232 -0.0418 -0.0741  0.1923
 5668TIP3    H116926   8.329   5.141   3.162  0.3412  0.5927 -0.2372
 5668TIP3    H216927   8.418   5.058   3.251  0.2354 -0.2454 -0.9030
 5669TIP3   OH216928   4.078   3.239   5.490  0.1667  0.0523  0.8248
 5669TIP3    H116929   4.155   3.182   5.491 -0.2206 -0.4619  1.8786
 5669TIP3    H216930   4.071   3.266   5.398  0.6073 -1.2502  0.3764
 5670TIP3   OH216931  -0.018   4.664   5.723 -0.0047  0.3308  0.4718
 5670TIP3    H116932   0.072   4.676   5.753  0.1192  1.9399 -0.4256
 5670TIP3    H216933  -0.024   4.716   5.642 -1.1051 -1.5870 -0.7573
 5671TIP3   OH216934   1.201   8.089   3.329 -0.1039 -0.2917  0.2944
 5671TIP3    H116935   1.266   8.160   3.335 -3.7700  3.2951  2.5179
 5671TIP3    H216936   1.137   8.120   3.265 -2.1380 -1.2467  1.7681
 5672TIP3   OH216937   1.708   1.735   6.528 -0.2586  0.4110 -0.7236
 5672TIP3    H116938   1.672   1.708   6.443 -1.7572 -1.5089  0.4346
 5672TIP3    H216939   1.633   1.732   6.587  1.1482 -0.3948  1.1186
 5673TIP3   OH216940   7.998   4.307   3.639  0.2920 -0.1043  0.0873
 5673TIP3    H116941   7.976   4.345   3.554 -1.4318 -1.5745 -0.1781
 5673TIP3    H216942   8.091   4.285   3.632  1.1557  3.0882 -0.0503
 5674TIP3   OH216943   6.904   3.394   6.091  0.1949 -0.1051  0.1022
 5674TIP3    H116944   6.843   3.463   6.118  0.2031  0.7424 -1.9006
 5674TIP3    H216945   6.867   3.314   6.129 -2.2667  0.3462 -1.0862
 5675TIP3   OH216946   6.497   2.365   4.005 -0.2252 -0.7725  0.2118
 5675TIP3    H116947   6.410   2.387   4.038  0.2395 -0.6006  1.3460
 5675TIP3    H216948   6.500   2.405   3.918 -1.2739 -0.7724  0.1702
 5676TIP3   OH216949   1.216   6.162   2.249 -0.0994  0.1889 -0.2444
 5676TIP3    H116950   1.255   6.083   2.214 -0.1351 -0.4303  1.0481
 5676TIP3    H216951   1.122   6.151   2.235 -0.3820 -1.2167  2.1321
 5677TIP3   OH216952   8.290   6.123   6.104  0.0737  0.3485 -0.2205
 5677TIP3    H116953   8.361   6.171   6.146  1.8996 -2.0857 -0.2891
 5677TIP3    H216954   8.210   6.159   6.142  1.4095  2.1497  1.0182
 5678TIP3   OH216955   3.732   5.251   5.419 -0.2274  0.2407  0.9314
 5678TIP3    H116956   3.827   5.247   5.415 -0.2870  0.0273 -0.7782
 5678TIP3    H216957   3.706   5.165   5.453  0.2225  0.9397  3.2170
 5679TIP3   OH216958   8.279   3.459   5.117 -0.6295 -0.2088  0.1846
 5679TIP3    H116959   8.247   3.374   5.084 -2.5604  0.3300  0.5576
 5679TIP3    H216960   8.254   3.460   5.209  1.0570  0.0273  0.6771
 5680TIP3   OH216961   0.067   7.472   6.893 -0.0996 -0.4020 -0.4933
 5680TIP3    H116962   0.104   7.559   6.904  1.4833 -0.7323 -2.6167
 5680TIP3    H216963   0.086   7.428   6.976 -0.5613  1.1210  0.4542
 5681TIP3   OH216964   0.809   2.864   2.289 -0.2856 -0.3438 -0.1316
 5681TIP3    H116965   0.816   2.825   2.376  0.9546 -0.2261 -0.1601
 5681TIP3    H216966   0.785   2.790   2.232  2.0910 -1.1678 -0.1909
 5682TIP3   OH216967   8.064   1.242   4.179 -0.7844 -0.0390  0.0319
 5682TIP3    H116968   8.122   1.202   4.114 -0.8497  0.1697 -0.1555
 5682TIP3    H216969   8.123   1.282   4.243 -0.7200 -0.3012  0.1400
 5683TIP3   OH216970   8.129   0.189   4.794 -0.3160  0.8524  0.9244
 5683TIP3    H116971   8.188   0.139   4.738  0.2868  1.9813  0.5190
 5683TIP3    H216972   8.042   0.153   4.776 -0.0123  0.6006 -0.0786
 5684TIP3   OH216973   8.474   3.221   2.229 -0.2050  0.4954  0.4684
 5684TIP3    H116974   8.563   3.197   2.252 -0.3624 -0.6550 -0.0653
 5684TIP3    H216975   8.469   3.213   2.134 -0.7142  1.1596  0.4229
 5685TIP3   OH216976   4.714   1.434   1.490 -0.1830  0.2262  0.1285
 5685TIP3    H116977   4.649   1.365   1.500 -1.2063  1.4197  2.7349
 5685TIP3    H216978   4.692   1.475   1.406 -0.2634 -1.8087 -0.9127
 5686TIP3   OH216979   6.901   3.016   3.257  0.7180 -1.0265  0.2961
 5686TIP3    H116980   6.810   3.036   3.233  0.4110 -0.0708  2.1165
 5686TIP3    H216981   6.953   3.070   3.197  0.0560 -0.6929  0.0056
 5687TIP3   OH216982   4.543   0.223   5.717  0.2825 -0.3972  0.1079
 5687TIP3    H116983   4.464   0.251   5.765  0.6444  1.4400 -0.3057
 5687TIP3    H216984   4.615   0.245   5.775  0.5642 -1.1323  0.0487
 5688TIP3   OH216985   0.839   4.484   5.117 -0.1518 -0.0144  0.0689
 5688TIP3    H116986   0.924   4.439   5.116 -0.1712 -0.0738 -0.9645
 5688TIP3    H216987   0.822   4.503   5.024 -1.6091 -0.6719  0.1767
 5689TIP3   OH216988   8.152   1.447   5.847  0.1367  0.0835 -0.3166
 5689TIP3    H116989   8.128   1.413   5.760 -1.2066 -0.4265  0.2133
 5689TIP3    H216990   8.171   1.368   5.898 -1.7567  0.1487  0.5754
 5690TIP3   OH216991   0.330   7.475   3.821 -0.2723  0.8291 -0.0716
 5690TIP3    H116992   0.296   7.562   3.839 -2.0420  0.3435 -0.8477
 5690TIP3    H216993   0.347   7.474   3.727 -2.5986 -0.3527 -0.5636
 5691TIP3   OH216994   3.611   4.108   3.454  0.0064 -0.0175 -0.3044
 5691TIP3    H116995   3.557   4.180   3.422 -0.9495 -1.6526 -2.7078
 5691TIP3    H216996   3.572   4.030   3.414  1.4898 -1.7816  1.4993
 5692TIP3   OH216997   1.441   3.944   3.452  0.4273 -0.4270  0.3517
 5692TIP3    H116998   1.459   3.852   3.429  0.5065 -0.0995 -1.0114
 5692TIP3    H216999   1.497   3.995   3.394 -0.1079  0.4976  0.6217
 5693TIP3   OH217000   5.616   6.081   6.303 -0.1102  0.1578  0.1672
 5693TIP3    H117001   5.703   6.114   6.326  0.0919  0.1032 -0.5203
 5693TIP3    H217002   5.630   5.988   6.285  0.0653  0.5225 -1.8344
 5694TIP3   OH217003   2.554   0.908   2.885  0.1455 -0.0870 -0.5325
 5694TIP3    H117004   2.643   0.939   2.897 -0.9391  2.5653  1.5958
 5694TIP3    H217005   2.545   0.835   2.947  1.0777 -1.1354 -1.5676
 5695TIP3   OH217006   8.227   6.242   0.196  0.2565 -0.0198  0.9284
 5695TIP3    H117007   8.176   6.170   0.160 -0.6341  0.2301  1.6430
 5695TIP3    H217008   8.246   6.215   0.286  1.1279  0.0308  0.7718
 5696TIP3   OH217009   8.544   4.767   1.668  0.0427 -0.1525 -0.2265
 5696TIP3    H117010   8.625   4.724   1.695  0.3794 -0.2444 -1.3512
 5696TIP3    H217011   8.509   4.711   1.599 -1.4218 -0.5545  0.7863
 5697TIP3   OH217012   5.247   5.798   5.071  0.0571 -0.2660 -0.3163
 5697TIP3    H117013   5.213   5.734   5.134  1.0814 -1.7312 -1.1823
 5697TIP3    H217014   5.177   5.810   5.008 -0.0881 -0.6483 -0.2293
 5698TIP3   OH217015   6.002   6.246   0.699  0.1645 -0.0398 -0.2026
 5698TIP3    H117016   6.051   6.247   0.782 -0.0353 -0.8828 -0.0673
 5698TIP3    H217017   5.910   6.250   0.726  0.0864 -0.6394 -0.3556
 5699TIP3   OH217018   2.102   6.370   6.129 -0.0439  0.3000 -0.1507
 5699TIP3    H117019   2.053   6.340   6.052  1.3316 -1.7617 -0.3153
 5699TIP3    H217020   2.067   6.318   6.201  0.0105  0.8323  0.2670
 5700TIP3   OH217021   0.237   2.840   3.350  0.0786  0.2962  0.2121
 5700TIP3    H117022   0.235   2.744   3.346  1.0920  0.2531  0.4464
 5700TIP3    H217023   0.156   2.863   3.396  0.5920 -0.5541  1.6238
 5701TIP3   OH217024   3.620   1.642   2.769  0.0723 -0.0456 -0.1857
 5701TIP3    H117025   3.631   1.665   2.676 -1.0348  0.3688 -0.2310
 5701TIP3    H217026   3.599   1.549   2.768 -1.0644  0.1932 -0.4626
 5702TIP3   OH217027   4.107   7.741   2.932  0.8797  0.5932 -0.1549
 5702TIP3    H117028   4.072   7.654   2.914 -1.7039  1.4066  0.6453
 5702TIP3    H217029   4.158   7.762   2.853 -0.3675 -0.6887 -1.3677
 5703TIP3   OH217030   1.197   5.271   2.736  0.6681 -0.2222  0.0496
 5703TIP3    H117031   1.165   5.238   2.820 -0.8010  0.7498 -0.0944
 5703TIP3    H217032   1.203   5.193   2.680  0.6235 -0.7207  0.7222
 5704TIP3   OH217033   6.190   1.323   5.068  0.0946  0.6623  0.2324
 5704TIP3    H117034   6.128   1.395   5.082 -0.7844 -0.4183  2.4193
 5704TIP3    H217035   6.276   1.364   5.073 -0.4017  1.8515 -0.5397
 5705TIP3   OH217036   1.328   3.122   5.219 -0.0943 -0.5987  0.2263
 5705TIP3    H117037   1.296   3.105   5.130  0.4467  1.6190 -0.4390
 5705TIP3    H217038   1.311   3.215   5.234  2.1390 -0.3141  1.4655
 5706TIP3   OH217039   2.026   6.182   3.871  0.0402 -0.7731  0.2067
 5706TIP3    H117040   2.045   6.151   3.783  0.0927 -1.4286  0.4479
 5706TIP3    H217041   2.021   6.103   3.924 -2.3931 -0.6066  0.3380
 5707TIP3   OH217042   4.203   2.889   2.050 -0.4901 -0.1748  0.6349
 5707TIP3    H117043   4.261   2.901   1.975 -2.6875 -0.6772 -1.2829
 5707TIP3    H217044   4.146   2.966   2.049  0.2577  0.4717  2.6611
 5708TIP3   OH217045   3.386   1.904   0.926 -0.4677 -0.6743  0.1552
 5708TIP3    H117046   3.432   1.848   0.864 -1.8732 -0.4332 -1.1581
 5708TIP3    H217047   3.324   1.846   0.970 -0.6655 -0.5029  0.1031
 5709TIP3   OH217048   7.552   5.806   2.522  0.1982 -0.5308  0.0485
 5709TIP3    H117049   7.531   5.738   2.459 -0.7412  0.5789 -0.8645
 5709TIP3    H217050   7.610   5.866   2.475 -0.4941  0.2971  0.2342
 5710TIP3   OH217051   6.815   5.422   0.778  0.2218 -0.2627  0.3755
 5710TIP3    H117052   6.888   5.368   0.748 -0.6636 -0.5891 -1.3021
 5710TIP3    H217053   6.745   5.360   0.795 -0.8980  0.2775 -1.8253
 5711TIP3   OH217054   3.298   8.018   3.582 -0.1137  0.2574 -0.3839
 5711TIP3    H117055   3.318   8.071   3.504 -0.4287  2.0672  0.7057
 5711TIP3    H217056   3.330   8.071   3.655 -1.5916 -0.4992  0.8456
 5712TIP3   OH217057   1.005   6.370   2.494 -0.5907  0.0975 -0.5238
 5712TIP3    H117058   0.964   6.455   2.477 -1.8183 -0.1489  1.0286
 5712TIP3    H217059   0.971   6.313   2.426 -2.2836  0.0969  0.2715
 5713TIP3   OH217060   6.204   5.461   2.744  0.5241 -0.2562  0.5778
 5713TIP3    H117061   6.195   5.530   2.810 -0.2602 -0.0336  0.2555
 5713TIP3    H217062   6.164   5.384   2.785 -0.1367 -0.0678  0.2985
 5714TIP3   OH217063   7.660   7.725   5.419  0.5568 -0.0113 -0.1909
 5714TIP3    H117064   7.659   7.647   5.474  3.0973  0.7860  1.1322
 5714TIP3    H217065   7.585   7.777   5.449 -1.6259 -2.1298 -1.5814
 5715TIP3   OH217066   4.098   2.785   2.479 -0.3339 -0.2589  0.5482
 5715TIP3    H117067   4.166   2.802   2.413 -0.6492 -0.2560  0.2212
 5715TIP3    H217068   4.145   2.787   2.562 -0.0812  0.6714  0.3976
 5716TIP3   OH217069   8.064   2.943   1.317  0.0836  0.4459  0.0741
 5716TIP3    H117070   8.140   2.896   1.282 -0.6348 -1.8889  1.4243
 5716TIP3    H217071   8.066   3.029   1.274  3.4398  0.4604  0.0512
 5717TIP3   OH217072   5.155   7.880   0.978  0.2655  0.0616 -0.5798
 5717TIP3    H117073   5.075   7.909   1.021  1.3401  1.5805  0.5157
 5717TIP3    H217074   5.216   7.954   0.988  2.0074 -1.2756 -0.7937
 5718TIP3   OH217075   8.244   0.625   4.631 -0.4974 -0.8126  0.6938
 5718TIP3    H117076   8.289   0.541   4.632 -2.2827 -1.8267  0.5788
 5718TIP3    H217077   8.243   0.654   4.722  1.1229 -0.3196  0.5770
 5719TIP3   OH217078   0.317   2.688   2.744  0.1196 -0.7706  0.1369
 5719TIP3    H117079   0.243   2.656   2.693  0.4306 -1.4526  0.0982
 5719TIP3    H217080   0.295   2.668   2.835 -0.8556  1.2857  0.4017
 5720TIP3   OH217081   7.892   1.873   0.177 -0.1040 -0.1928  0.5063
 5720TIP3    H117082   7.812   1.902   0.222 -0.6177 -0.2319 -0.3477
 5720TIP3    H217083   7.859   1.824   0.101  0.7424 -0.7926  0.5243
 5721TIP3   OH217084   6.526   1.868   3.667 -0.5711  0.3371 -0.1753
 5721TIP3    H117085   6.539   1.778   3.637 -0.1142 -0.1045  1.2492
 5721TIP3    H217086   6.522   1.861   3.763  0.4010  1.9304  0.0236
 5722TIP3   OH217087   3.344   0.593   6.214  0.7708  0.0959 -0.1903
 5722TIP3    H117088   3.377   0.658   6.152  0.0604 -0.0368 -0.7237
 5722TIP3    H217089   3.283   0.641   6.269 -2.3360 -0.6960 -2.6778
 5723TIP3   OH217090   6.405   1.314   0.658 -0.3788  0.0775 -0.1426
 5723TIP3    H117091   6.365   1.229   0.641 -3.4176  1.4216 -0.3196
 5723TIP3    H217092   6.346   1.377   0.616  1.4358  2.3396  0.4879
 5724TIP3   OH217093   6.970   2.877   6.119  0.2384  0.6966  0.8533
 5724TIP3    H117094   6.919   2.898   6.041  1.7610  0.5366 -0.2222
 5724TIP3    H217095   7.005   2.962   6.148 -1.1417  0.9097  1.9942
 5725TIP3   OH217096   7.777   0.614   2.698  0.1270 -0.3415  0.2280
 5725TIP3    H117097   7.783   0.518   2.701  3.6444 -0.2475  0.0651
 5725TIP3    H217098   7.804   0.637   2.610 -5.0512  0.8425 -1.4110
 5726TIP3   OH217099   0.417   1.271   5.981  0.2847  0.4577 -0.1150
 5726TIP3    H117100   0.456   1.338   5.924  1.6979 -1.7846 -1.9352
 5726TIP3    H217101   0.450   1.293   6.069 -0.2633  2.7886 -0.4168
 5727TIP3   OH217102   2.222   6.898   4.572 -0.0179  0.6305  0.4265
 5727TIP3    H117103   2.176   6.873   4.492 -0.9713  2.7587  0.2431
 5727TIP3    H217104   2.315   6.895   4.549 -0.2559  0.4884 -0.5314
 5728TIP3   OH217105   2.023   8.055   5.377  0.2358  0.4439 -0.0572
 5728TIP3    H117106   1.996   8.087   5.291  0.1482  0.0873 -0.1634
 5728TIP3    H217107   1.997   7.963   5.378  0.9874  0.2238  0.0309
 5729TIP3   OH217108   2.723   1.039   2.362  0.6082  0.4328  0.4417
 5729TIP3    H117109   2.807   1.001   2.388  0.6478  0.4315  0.3128
 5729TIP3    H217110   2.730   1.131   2.388  1.7571  1.1577 -2.0375
 5730TIP3   OH217111   1.889   7.529   5.139  0.6617 -0.0017  0.1466
 5730TIP3    H117112   1.953   7.528   5.067  0.4984  2.1148 -0.0833
 5730TIP3    H217113   1.806   7.509   5.097  0.9950 -1.9220  0.3098
 5731TIP3   OH217114   0.970   1.573   3.149  0.2733 -0.7466  0.3340
 5731TIP3    H117115   0.887   1.600   3.109  1.1969 -0.2993 -1.3699
 5731TIP3    H217116   0.997   1.647   3.202 -1.2081 -1.5256  2.2738
 5732TIP3   OH217117   6.250   7.181   3.285 -0.0511 -0.2798  0.2822
 5732TIP3    H117118   6.343   7.162   3.279 -0.0230  0.2249 -2.1392
 5732TIP3    H217119   6.208   7.112   3.234 -1.4739 -2.6637  4.2495
 5733TIP3   OH217120   6.185   2.359   0.916  0.3928  0.1876  0.4404
 5733TIP3    H117121   6.173   2.338   0.823 -0.7852 -0.1189  0.6431
 5733TIP3    H217122   6.130   2.437   0.930  0.9970  0.5609  0.7639
 5734TIP3   OH217123   0.409   6.306   4.087  0.1924  0.0096 -0.3101
 5734TIP3    H117124   0.431   6.399   4.088 -0.8290  0.2663 -0.3809
 5734TIP3    H217125   0.476   6.265   4.032  0.3473  0.7812 -0.6967
 5735TIP3   OH217126   7.294   4.431   3.207 -0.1032 -0.1558 -0.6966
 5735TIP3    H117127   7.240   4.458   3.133 -0.9894  0.6571  0.2216
 5735TIP3    H217128   7.231   4.400   3.272  0.5573  0.5643  0.2936
 5736TIP3   OH217129   8.189   5.196   0.473 -0.4588 -0.0191 -0.1977
 5736TIP3    H117130   8.169   5.227   0.561 -1.3270  1.7252 -0.9609
 5736TIP3    H217131   8.280   5.223   0.458 -0.1164 -0.8328  0.3551
 5737TIP3   OH217132   4.303   0.843   5.783  0.5929 -0.0854  0.2304
 5737TIP3    H117133   4.246   0.853   5.859  1.6813  1.2832  0.9176
 5737TIP3    H217134   4.248   0.801   5.717 -0.8749  0.2311  1.2054
 5738TIP3   OH217135   0.073   1.137   2.632  0.7526 -0.0570  0.3075
 5738TIP3    H117136   0.141   1.136   2.699  1.2841  0.7728 -0.1944
 5738TIP3    H217137  -0.009   1.125   2.680  1.2466 -1.0412  0.9232
 5739TIP3   OH217138   5.388   4.281   1.849  0.6344  0.6826 -0.0739
 5739TIP3    H117139   5.449   4.253   1.917 -0.5122  2.0009  1.5934
 5739TIP3    H217140   5.338   4.203   1.827  1.5121  0.0750  0.0523
 5740TIP3   OH217141   7.702   2.468   2.774  0.1007  0.6717 -0.2177
 5740TIP3    H117142   7.743   2.388   2.806 -1.3941  0.4533  1.2799
 5740TIP3    H217143   7.753   2.538   2.815  0.5261  0.4660 -0.3873
 5741TIP3   OH217144   8.236   6.556   4.469  0.4837  0.4548 -0.3361
 5741TIP3    H117145   8.264   6.585   4.382  1.2729  0.0901 -0.2104
 5741TIP3    H217146   8.203   6.467   4.455  0.5802  0.4082 -0.2635
 5742TIP3   OH217147   8.388   1.377   2.034 -0.4744 -0.5651  0.0262
 5742TIP3    H117148   8.482   1.387   2.048 -0.7730 -0.3013  2.1430
 5742TIP3    H217149   8.380   1.296   1.984  0.8771 -0.3952 -0.5202
 5743TIP3   OH217150   7.551   6.029   6.653  0.7555 -0.2264 -0.9058
 5743TIP3    H117151   7.552   6.106   6.596 -1.0787  0.3158 -0.2643
 5743TIP3    H217152   7.503   5.963   6.603 -1.2219  0.3804  0.0922
 5744TIP3   OH217153   0.221   6.489   6.370 -0.2334 -0.4273  0.2272
 5744TIP3    H117154   0.252   6.513   6.283 -2.0819  0.4318 -0.2636
 5744TIP3    H217155   0.299   6.461   6.417  0.8708 -0.5844 -1.5879
 5745TIP3   OH217156   8.048   5.580   3.034  0.2447  0.1459  0.0405
 5745TIP3    H117157   8.115   5.537   2.982  1.6306  1.0891  0.9642
 5745TIP3    H217158   8.035   5.665   2.991  0.7225  0.5526  0.6833
 5746TIP3   OH217159   3.724   6.692   2.381 -0.2012  0.1169  0.5682
 5746TIP3    H117160   3.805   6.651   2.352  0.7437  2.2100  0.1146
 5746TIP3    H217161   3.738   6.713   2.473 -0.3067  0.2872  0.5471
 5747TIP3   OH217162   6.826   1.017   1.784  0.2003 -0.0882 -0.0500
 5747TIP3    H117163   6.861   0.962   1.854  0.2204 -1.6399 -1.1964
 5747TIP3    H217164   6.902   1.037   1.729  0.1875  1.1169  0.3600
 5748TIP3   OH217165   7.166   1.189   5.838 -0.0148 -0.2903 -0.6820
 5748TIP3    H117166   7.223   1.254   5.798 -0.3501 -0.4267 -1.4013
 5748TIP3    H217167   7.154   1.122   5.770  0.4317 -1.1803  0.0787
 5749TIP3   OH217168   6.561   1.526   1.068  0.1073 -0.1227  0.2395
 5749TIP3    H117169   6.525   1.445   1.033  0.1368 -0.3835  0.7990
 5749TIP3    H217170   6.611   1.564   0.996  0.4506 -0.8154  0.1032
 5750TIP3   OH217171   5.771   2.549   2.843  0.0956 -0.0156 -0.2783
 5750TIP3    H117172   5.862   2.575   2.855  0.7128 -1.8702 -0.5895
 5750TIP3    H217173   5.772   2.492   2.766 -0.9163 -1.8163  0.9675
 5751TIP3   OH217174   7.758   7.844   2.201  0.1655  0.5132 -0.0866
 5751TIP3    H117175   7.706   7.765   2.199 -0.0454  0.6575 -0.7122
 5751TIP3    H217176   7.717   7.901   2.136  0.1099  1.2680  0.5933
 5752TIP3   OH217177   7.331   7.646   6.362  0.2566 -0.4686  0.0933
 5752TIP3    H117178   7.300   7.563   6.397  0.2570 -0.0256  1.1753
 5752TIP3    H217179   7.272   7.711   6.399  1.3927  0.2040  0.7748
 5753TIP3   OH217180   3.951   3.505   1.279  0.2802 -0.2940 -0.0920
 5753TIP3    H117181   3.899   3.473   1.206  0.1422 -3.0811  1.1131
 5753TIP3    H217182   4.015   3.436   1.296  2.1577  1.5174  0.6788
 5754TIP3   OH217183   1.387   4.952   4.477 -0.0165  0.3520 -0.2391
 5754TIP3    H117184   1.308   4.999   4.450  0.2815  0.9442 -0.0838
 5754TIP3    H217185   1.421   5.003   4.551 -0.7831 -1.1730  1.2497
 5755TIP3   OH217186   0.452   7.167   5.797  0.1608 -0.2310  0.6412
 5755TIP3    H117187   0.449   7.262   5.787 -1.8440 -0.2227  0.8866
 5755TIP3    H217188   0.445   7.153   5.891 -1.4479 -0.6063  0.5003
 5756TIP3   OH217189   3.449   5.605   4.962  0.3801 -0.0492  0.1906
 5756TIP3    H117190   3.470   5.551   4.886  1.2360 -1.1177  1.1337
 5756TIP3    H217191   3.425   5.541   5.030 -1.1983  0.9235  0.5750
 5757TIP3   OH217192   6.241   6.768   3.130  0.1459  0.7432 -0.2908
 5757TIP3    H117193   6.221   6.683   3.091 -1.7331  0.2775  1.5088
 5757TIP3    H217194   6.274   6.746   3.217 -3.2882  1.7668  1.4560
 5758TIP3   OH217195   3.884   4.593   4.487  0.2286  0.3003 -0.3826
 5758TIP3    H117196   3.807   4.562   4.534  1.3015 -1.0136  0.6010
 5758TIP3    H217197   3.924   4.657   4.546  0.7772 -0.2628 -0.1272
 5759TIP3   OH217198   5.292   5.449   6.312  0.0940 -0.1455 -0.5669
 5759TIP3    H117199   5.221   5.465   6.374  0.7139 -1.4196  0.5333
 5759TIP3    H217200   5.369   5.489   6.353  0.5625 -1.2309 -0.3396
 5760TIP3   OH217201   5.114   4.530   3.396 -0.6060  0.2335  0.3830
 5760TIP3    H117202   5.168   4.523   3.475  0.7283 -2.2615 -0.6033
 5760TIP3    H217203   5.162   4.589   3.339 -0.0148 -0.2725  0.3446
 5761TIP3   OH217204   6.318   1.965   0.510 -0.0119 -0.5854 -0.1635
 5761TIP3    H117205   6.380   2.036   0.494 -0.0761 -0.4181  0.3209
 5761TIP3    H217206   6.246   1.981   0.448  1.1193 -1.6538 -1.8295
 5762TIP3   OH217207   6.270   7.175   6.809 -0.4082 -0.1167 -0.0931
 5762TIP3    H117208   6.312   7.233   6.872  1.0746 -0.8325 -0.3746
 5762TIP3    H217209   6.332   7.171   6.736 -1.7562  0.1325 -1.2959
 5763TIP3   OH217210   4.335   6.031   1.128  0.1236 -0.1968  0.0117
 5763TIP3    H117211   4.302   5.942   1.135  0.5313 -0.2668  1.2066
 5763TIP3    H217212   4.430   6.021   1.121  0.2857  0.1671  1.4065
 5764TIP3   OH217213   0.348   2.400   3.676  0.1839  0.9420  0.2538
 5764TIP3    H117214   0.295   2.401   3.596 -1.4321  0.6368  1.2642
 5764TIP3    H217215   0.406   2.476   3.668  0.0940  0.8787 -1.2245
 5765TIP3   OH217216   5.375  -0.018   6.224  0.4601  0.2834 -0.5926
 5765TIP3    H117217   5.416   0.028   6.150  2.4055  0.4671  0.5412
 5765TIP3    H217218   5.435  -0.004   6.297 -1.1255 -0.3820  0.9018
 5766TIP3   OH217219   0.223   2.793   0.884  0.1322 -0.6955  0.0912
 5766TIP3    H117220   0.144   2.845   0.898  0.4098 -0.1931 -0.1807
 5766TIP3    H217221   0.231   2.786   0.789 -0.4025 -2.0273  0.1228
 5767TIP3   OH217222   6.478   7.093   3.589 -0.1449 -0.1594 -0.2344
 5767TIP3    H117223   6.550   7.042   3.627 -0.1238  1.0850  1.5084
 5767TIP3    H217224   6.500   7.184   3.609 -1.4663  0.3602 -1.0228
 5768TIP3   OH217225   5.740   7.854   2.735 -0.2688 -0.5285 -0.0469
 5768TIP3    H117226   5.679   7.877   2.665 -2.0243 -1.9377  0.9459
 5768TIP3    H217227   5.766   7.764   2.715 -1.2710 -1.1707  1.3816
 5769TIP3   OH217228   3.449   7.938   5.028 -0.3307  0.1503 -0.3555
 5769TIP3    H117229   3.522   7.917   5.086  0.2302  0.3313 -0.9933
 5769TIP3    H217230   3.448   7.867   4.964 -0.8179  0.0661 -0.2641
 5770TIP3   OH217231   0.485   3.260   4.956  0.6025 -0.2391 -0.0239
 5770TIP3    H117232   0.575   3.261   4.924  0.2488  0.5974 -1.0776
 5770TIP3    H217233   0.433   3.293   4.882 -0.3604  0.9340  1.1177
 5771TIP3   OH217234   7.958   7.244   1.083  0.3178 -0.2965 -0.1101
 5771TIP3    H117235   7.972   7.188   1.160 -0.4005  0.6216  0.7014
 5771TIP3    H217236   7.991   7.330   1.108 -0.2583  0.1099 -0.6972
 5772TIP3   OH217237   8.051   2.687   3.793 -0.0338 -0.1092  0.3127
 5772TIP3    H117238   7.992   2.651   3.859  0.1044 -0.6088  0.1659
 5772TIP3    H217239   8.127   2.718   3.843  0.7507 -1.8555  0.2722
 5773TIP3   OH217240   0.136   3.091   6.759 -0.2885 -0.7094  0.6561
 5773TIP3    H117241   0.046   3.121   6.771 -0.4825 -0.3244 -1.3962
 5773TIP3    H217242   0.161   3.123   6.672  1.5774 -1.4394  0.8692
 5774TIP3   OH217243   8.104   2.677   0.323 -0.9274  0.1855 -0.4205
 5774TIP3    H117244   8.123   2.659   0.231  0.1870 -0.8782 -0.0176
 5774TIP3    H217245   8.106   2.591   0.365 -0.0504  0.7743  0.8237
 5775TIP3   OH217246   0.842   6.239   5.157 -0.1530  0.1052 -0.6655
 5775TIP3    H117247   0.783   6.222   5.230  0.2809  1.8718  0.1432
 5775TIP3    H217248   0.852   6.335   5.156  0.4875  0.0578 -2.5331
 5776TIP3   OH217249   2.459   4.858   5.163  0.5186  0.2094 -0.7519
 5776TIP3    H117250   2.487   4.794   5.228  0.1399 -0.9767 -1.7052
 5776TIP3    H217251   2.508   4.937   5.184  1.2982 -0.5074  0.2294
 5777TIP3   OH217252   6.563   6.137   3.192 -0.4861  0.2161 -0.5825
 5777TIP3    H117253   6.504   6.163   3.262  0.6429 -2.2457  1.4712
 5777TIP3    H217254   6.518   6.065   3.148  0.5684 -1.1662  0.5112
 5778TIP3   OH217255   2.935   7.933   6.971  1.0646  0.3293  0.1595
 5778TIP3    H117256   2.920   7.946   6.877 -1.0702  1.3484  0.5771
 5778TIP3    H217257   2.851   7.903   7.005  1.6775  0.3749  1.8155
 5779TIP3   OH217258   4.146   1.271   6.028  0.2245  0.1368  0.0055
 5779TIP3    H117259   4.095   1.337   6.075 -0.3296  0.3374 -0.8596
 5779TIP3    H217260   4.230   1.270   6.073 -0.4720 -0.1009  1.3741
 5780TIP3   OH217261   3.836   3.900   6.590  0.0659  0.1711  0.4165
 5780TIP3    H117262   3.884   3.859   6.661 -0.5717 -0.6111  0.4155
 5780TIP3    H217263   3.803   3.826   6.538  0.4798  0.7234 -0.6621
 5781TIP3   OH217264   0.534   2.398   0.906 -0.0523 -0.4503 -0.2291
 5781TIP3    H117265   0.500   2.478   0.944 -0.4202 -0.2674 -0.9242
 5781TIP3    H217266   0.460   2.337   0.907 -0.3721 -0.1127 -1.5684
 5782TIP3   OH217267   2.048   2.208   3.472  0.6810 -0.0200  0.0715
 5782TIP3    H117268   1.962   2.206   3.430  0.3095  1.3463  0.7335
 5782TIP3    H217269   2.039   2.151   3.548  0.0172  0.9793  0.7526
 5783TIP3   OH217270   2.168   7.638   6.696  0.1899 -0.1474  0.1309
 5783TIP3    H117271   2.072   7.635   6.694  0.1560  1.0659 -0.6632
 5783TIP3    H217272   2.194   7.549   6.719 -1.0998 -0.9675 -1.3715
 5784TIP3   OH217273   6.164   7.107   0.464 -0.0473 -0.1187  0.3874
 5784TIP3    H117274   6.080   7.064   0.446 -0.1531 -0.0789  0.7861
 5784TIP3    H217275   6.217   7.087   0.387 -0.0135 -1.1739  0.6608
 5785TIP3   OH217276   6.043   3.403   2.793 -0.3306  0.4129  0.0704
 5785TIP3    H117277   6.113   3.432   2.852 -0.0903 -0.1131  0.0486
 5785TIP3    H217278   6.070   3.316   2.765 -0.5605  0.5644 -0.6360
 5786TIP3   OH217279   8.062   0.513   4.160  0.0642  0.0751 -0.0786
 5786TIP3    H117280   8.109   0.593   4.140 -1.2327  0.9909  0.3889
 5786TIP3    H217281   8.047   0.516   4.255 -2.5556  0.8046 -0.4364
 5787TIP3   OH217282   7.838   8.221   3.799 -0.0936  0.5068  0.3176
 5787TIP3    H117283   7.863   8.159   3.730 -1.8556  1.7962 -1.6037
 5787TIP3    H217284   7.796   8.167   3.866 -0.7722 -0.5053 -0.8755
 5788TIP3   OH217285   2.114   7.165   2.859  0.4510 -0.0749  0.2093
 5788TIP3    H117286   2.155   7.219   2.926 -0.1764 -0.1869  0.6884
 5788TIP3    H217287   2.181   7.101   2.836  0.5912 -0.1822  0.8972
 5789TIP3   OH217288   4.490   2.274   2.372 -0.2278  0.5610 -0.1774
 5789TIP3    H117289   4.410   2.325   2.359 -1.3263 -0.9772  0.2708
 5789TIP3    H217290   4.468   2.187   2.339  2.5502  0.9860 -3.8004
 5790TIP3   OH217291   6.425   2.267   0.812  0.1924  0.1037  0.1405
 5790TIP3    H117292   6.382   2.341   0.855 -0.7601 -0.2340 -0.2137
 5790TIP3    H217293   6.499   2.306   0.765  0.1092  0.7315  0.5222
 5791TIP3   OH217294   2.555   6.311   1.074 -0.2692  0.0752 -0.1400
 5791TIP3    H117295   2.578   6.236   1.129  0.2512 -0.3590 -0.9254
 5791TIP3    H217296   2.633   6.324   1.020 -0.6705  0.6724 -0.5715
 5792TIP3   OH217297   2.094   5.047   3.324  0.2859 -0.2600 -0.5207
 5792TIP3    H117298   2.096   4.963   3.370  0.1538  0.5885  1.1051
 5792TIP3    H217299   2.085   5.023   3.232 -2.4423 -2.0290  0.0670
 5793TIP3   OH217300   1.852   1.579   3.281 -0.5356  0.6390 -0.1241
 5793TIP3    H117301   1.866   1.628   3.200 -1.5058  1.6817  0.3208
 5793TIP3    H217302   1.827   1.491   3.251  1.4281  0.3075 -0.9232
 5794TIP3   OH217303   1.245   7.480   2.078  0.1804 -0.3337 -0.0739
 5794TIP3    H117304   1.189   7.557   2.072  1.7970  0.8119 -1.3570
 5794TIP3    H217305   1.245   7.458   2.171 -2.8639 -0.8194 -0.0732
 5795TIP3   OH217306   3.591   1.839   2.979 -0.5081 -0.1845 -0.1915
 5795TIP3    H117307   3.591   1.789   2.897  0.2793 -0.5796  0.0413
 5795TIP3    H217308   3.663   1.901   2.968 -2.1100  1.6422 -0.9017
 5796TIP3   OH217309   7.042   6.500   5.071 -0.1020 -0.3679 -0.4447
 5796TIP3    H117310   7.104   6.490   5.144  1.0573  3.5261 -0.6701
 5796TIP3    H217311   7.077   6.573   5.020 -3.5042  0.2527 -2.1352
 5797TIP3   OH217312   2.745   4.563   1.579  0.2562 -0.4674  0.7139
 5797TIP3    H117313   2.703   4.649   1.585 -1.2017 -1.1672  0.9977
 5797TIP3    H217314   2.755   4.549   1.485 -1.9516 -1.0783  0.5088
 5798TIP3   OH217315   4.832   0.477   0.906 -0.5999  0.1198  0.0333
 5798TIP3    H117316   4.786   0.396   0.925  0.5206 -0.7101 -0.6991
 5798TIP3    H217317   4.831   0.484   0.810  0.1069  0.4827  0.0432
 5799TIP3   OH217318   7.889   7.274   6.540 -0.0366  0.4625 -0.4337
 5799TIP3    H117319   7.813   7.289   6.596 -0.0701  1.5458 -0.7413
 5799TIP3    H217320   7.903   7.358   6.496  3.2068  1.3071  1.8581
 5800TIP3   OH217321   2.508   6.002   1.496 -0.1654  0.1686  0.3785
 5800TIP3    H117322   2.597   5.990   1.528 -0.2332 -0.8025  0.2367
 5800TIP3    H217323   2.456   5.936   1.542 -0.5709 -0.1204 -0.4693
 5801TIP3   OH217324   1.774   2.266   5.485  0.4605 -0.2130 -0.1979
 5801TIP3    H117325   1.838   2.197   5.466 -0.0650 -1.2150  1.4740
 5801TIP3    H217326   1.711   2.259   5.413  0.6366 -1.2212 -0.2795
 5802TIP3   OH217327   3.471   4.037   6.284  0.2924 -0.2259  0.1537
 5802TIP3    H117328   3.559   4.070   6.302  1.1438 -2.8426  1.1221
 5802TIP3    H217329   3.420   4.061   6.361  0.2459  0.8347 -0.1866
 5803TIP3   OH217330   5.823   1.407   0.545  0.0154 -0.3966 -0.3070
 5803TIP3    H117331   5.770   1.337   0.507  0.8374  0.3098 -2.9334
 5803TIP3    H217332   5.899   1.362   0.581 -0.1297 -0.9914 -0.7213
 5804TIP3   OH217333   5.841   1.159   4.077  0.0876 -0.1689 -0.4569
 5804TIP3    H117334   5.772   1.147   4.011 -1.4203  0.1008  0.9855
 5804TIP3    H217335   5.923   1.146   4.030 -0.9543 -0.5031 -2.2520
 5805TIP3   OH217336   2.942   0.926   2.108  0.3101  0.3693  0.0575
 5805TIP3    H117337   3.020   0.923   2.053  0.9449 -0.5709  0.9647
 5805TIP3    H217338   2.944   0.843   2.156 -0.7636  0.7296  0.7525
 5806TIP3   OH217339   5.533   4.747   4.259  0.0068  0.4445 -1.0688
 5806TIP3    H117340   5.573   4.810   4.319 -0.0532 -0.9313  0.4785
 5806TIP3    H217341   5.456   4.792   4.224  0.2450  1.4054 -0.3980
 5807TIP3   OH217342   0.708   0.714   0.272 -0.2118  0.3788 -0.3157
 5807TIP3    H117343   0.801   0.701   0.258  0.0385  1.1920  0.4836
 5807TIP3    H217344   0.701   0.744   0.363 -1.3472 -0.6134 -0.0472
 5808TIP3   OH217345   0.551   0.113   6.581  0.2104  0.1790 -0.4247
 5808TIP3    H117346   0.526   0.096   6.490 -1.4364  2.2870 -0.4477
 5808TIP3    H217347   0.644   0.136   6.576  0.1372  0.3029 -1.5835
 5809TIP3   OH217348   4.948   7.169   5.540 -0.5166  0.0074  0.3128
 5809TIP3    H117349   4.876   7.218   5.579 -1.3607 -0.6379 -0.3879
 5809TIP3    H217350   4.946   7.193   5.447  0.4328  0.2883  0.3553
 5810TIP3   OH217351   2.956   7.971   5.120  0.0265  0.2992  0.1422
 5810TIP3    H117352   3.001   7.957   5.037 -1.4528 -0.8359 -0.5257
 5810TIP3    H217353   2.868   7.935   5.106 -0.6279  1.1072  1.8418
 5811TIP3   OH217354   2.256   7.588   3.095  0.1491 -0.2655  0.0415
 5811TIP3    H117355   2.228   7.641   3.169  0.6425 -0.1903  0.1808
 5811TIP3    H217356   2.237   7.641   3.018 -0.5260 -0.4178  0.1031
 5812TIP3   OH217357   0.895   3.637   5.754 -0.2277  0.0943 -0.1383
 5812TIP3    H117358   0.898   3.732   5.737  1.2835  0.1675  0.4187
 5812TIP3    H217359   0.821   3.627   5.814  0.3886  1.1054  0.8269
 5813TIP3   OH217360   1.573   4.826   2.570  0.1357 -0.5831 -0.6965
 5813TIP3    H117361   1.665   4.835   2.548  0.5614  1.4600  1.5526
 5813TIP3    H217362   1.542   4.915   2.584 -1.9513 -1.2752 -0.5336
 5814TIP3   OH217363   5.670   7.979   4.517 -0.9278 -0.6282  0.1932
 5814TIP3    H117364   5.592   7.989   4.463 -0.7781 -0.6700 -0.0303
 5814TIP3    H217365   5.640   7.932   4.595 -1.2149 -0.2546  0.3090
 5815TIP3   OH217366   4.964   5.158   1.746 -0.2439  0.1633  0.2149
 5815TIP3    H117367   5.003   5.183   1.830  0.1405 -0.6353  0.2835
 5815TIP3    H217368   4.882   5.206   1.743 -1.5762 -1.7568  2.2649
 5816TIP3   OH217369   3.005   7.939   2.857 -0.5858  0.7478  0.1138
 5816TIP3    H117370   2.985   8.031   2.874  1.7944  1.1386  1.1692
 5816TIP3    H217371   3.080   7.941   2.798  0.3424 -0.4836  1.2086
 5817TIP3   OH217372   6.276   7.672   1.999 -0.4910  0.1198 -0.1606
 5817TIP3    H117373   6.340   7.631   1.940 -2.1787 -2.2288 -0.4965
 5817TIP3    H217374   6.303   7.763   2.003  3.1288 -0.7867  0.0533
 5818TIP3   OH217375   2.165   7.358   5.345  0.2489  0.2070  0.0653
 5818TIP3    H117376   2.114   7.309   5.410  0.2893  1.7127  1.3059
 5818TIP3    H217377   2.165   7.448   5.379 -1.1705  1.4433 -2.8765
 5819TIP3   OH217378   1.322   2.623   3.164 -0.4479  0.4090  0.4092
 5819TIP3    H117379   1.318   2.555   3.232 -1.6524  0.2661  0.2170
 5819TIP3    H217380   1.263   2.692   3.196 -1.4586  0.1008 -0.7398
 5820TIP3   OH217381   3.969   3.733   2.331 -0.0792 -0.4213  0.4748
 5820TIP3    H117382   3.897   3.715   2.391 -1.1397  1.5327 -0.1150
 5820TIP3    H217383   4.040   3.765   2.388 -0.3680 -0.4704  0.8671
 5821TIP3   OH217384   4.115   7.413   1.645 -0.2706 -0.4749  0.2030
 5821TIP3    H117385   4.090   7.433   1.554  1.0204  1.3276  0.1884
 5821TIP3    H217386   4.118   7.318   1.648  2.5483 -0.6386 -2.5218
 5822TIP3   OH217387   6.418   1.644   2.769 -0.8037  0.2348 -0.1691
 5822TIP3    H117388   6.377   1.562   2.741 -1.4171 -0.5803  2.7491
 5822TIP3    H217389   6.501   1.617   2.809  1.1061  1.5512 -2.8728
 5823TIP3   OH217390   5.635   0.949   5.672 -0.7089 -0.1520  0.1878
 5823TIP3    H117391   5.659   0.913   5.587 -0.6771  0.3154 -0.0076
 5823TIP3    H217392   5.714   0.940   5.726 -0.0139  1.5133 -0.4924
 5824TIP3   OH217393   4.746   3.547   5.204  0.2481 -0.0018  0.0780
 5824TIP3    H117394   4.693   3.606   5.151  1.1771  0.7830 -0.0129
 5824TIP3    H217395   4.785   3.487   5.141 -1.1649 -1.1365  0.2286
 5825TIP3   OH217396   8.098   4.215   3.368 -0.4126  0.1376  0.1016
 5825TIP3    H117397   8.181   4.245   3.405 -1.1485  0.2574  1.7397
 5825TIP3    H217398   8.102   4.240   3.276  1.5728 -0.3230  0.0157
 5826TIP3   OH217399   7.286   7.971   1.348  0.4650 -0.0969 -0.0486
 5826TIP3    H117400   7.369   7.924   1.335 -0.4687 -1.6568 -0.6312
 5826TIP3    H217401   7.311   8.064   1.344  2.3174 -0.4964  0.7599
 5827TIP3   OH217402   6.946   7.798   4.180 -0.2431 -0.4821 -0.1181
 5827TIP3    H117403   6.940   7.841   4.265  1.1631  1.4175 -0.9167
 5827TIP3    H217404   7.029   7.751   4.182  0.0821  0.0570 -0.6347
 5828TIP3   OH217405   0.908   7.956   3.799 -0.0701  0.0589 -0.1982
 5828TIP3    H117406   0.887   7.974   3.708 -1.7904 -1.2547 -0.0920
 5828TIP3    H217407   1.004   7.955   3.802  0.0197 -0.8466 -2.1915
 5829TIP3   OH217408   7.868   2.255   4.834  0.2189 -0.3610 -0.3410
 5829TIP3    H117409   7.958   2.225   4.827  1.1521  1.6823  1.5923
 5829TIP3    H217410   7.833   2.208   4.910  0.3338  0.3193  0.1401
 5830TIP3   OH217411   1.271   6.756   2.754 -0.1261 -0.4923  0.4881
 5830TIP3    H117412   1.282   6.822   2.685 -0.9554 -0.5876  0.2461
 5830TIP3    H217413   1.356   6.752   2.798 -0.0087  0.5934  0.3825
 5831TIP3   OH217414   3.795   5.999   3.321 -0.0698 -0.4962  0.1634
 5831TIP3    H117415   3.713   6.043   3.300  0.1341 -0.7474 -1.1992
 5831TIP3    H217416   3.822   6.038   3.405 -1.5628 -0.4140  0.6267
 5832TIP3   OH217417   5.505   0.110   5.517 -0.4982  0.1930  0.4699
 5832TIP3    H117418   5.497   0.015   5.503  1.1528  0.0973  0.0037
 5832TIP3    H217419   5.596   0.130   5.496 -0.0382  1.4514  3.2119
 5833TIP3   OH217420   4.701   1.059   6.598 -0.0663 -0.2112  0.0476
 5833TIP3    H117421   4.750   0.979   6.580 -0.1215  0.1274 -1.8478
 5833TIP3    H217422   4.616   1.046   6.556 -0.8234  0.0584  1.4518
 5834TIP3   OH217423   2.012   2.515   2.861  0.0815  0.5160  0.3330
 5834TIP3    H117424   1.974   2.446   2.916  0.4364 -0.3708 -0.5089
 5834TIP3    H217425   1.963   2.593   2.884 -1.2428 -0.2925  0.3565
 5835TIP3   OH217426   3.463   3.908   1.090  0.4043  0.4347 -0.2814
 5835TIP3    H117427   3.397   3.840   1.074  0.2772  0.2454  0.9527
 5835TIP3    H217428   3.542   3.875   1.048  0.2845 -0.3787  0.1039
 5836TIP3   OH217429   4.408   0.675   2.981 -0.0852  0.3643  0.6659
 5836TIP3    H117430   4.366   0.736   3.042 -2.5180 -1.9478  1.4835
 5836TIP3    H217431   4.360   0.686   2.899 -0.9815 -0.8335  1.0034
 5837TIP3   OH217432   6.145   0.791   0.329 -0.4703 -0.8808  0.0121
 5837TIP3    H117433   6.069   0.732   0.332 -1.1950  0.0045 -0.3410
 5837TIP3    H217434   6.170   0.793   0.237 -2.0944  1.3228 -0.4861
 5838TIP3   OH217435   1.930   1.939   0.677  0.3511  0.2312  0.2495
 5838TIP3    H117436   1.842   1.905   0.691 -0.3450  2.4200  1.7124
 5838TIP3    H217437   1.926   1.978   0.589 -1.4278  3.5474  1.5969
 5839TIP3   OH217438   8.472   3.417   6.242  0.4279  0.1928 -0.2992
 5839TIP3    H117439   8.541   3.456   6.189  1.9211 -2.3270 -0.3681
 5839TIP3    H217440   8.430   3.354   6.184 -2.0715  1.6774 -0.2772
 5840TIP3   OH217441   8.495   5.620   5.277 -0.0895  0.1323  0.0706
 5840TIP3    H117442   8.433   5.693   5.287 -1.2279 -0.8106  0.0900
 5840TIP3    H217443   8.574   5.661   5.244 -1.6632  1.0265 -2.9495
 5841TIP3   OH217444   2.306   6.142   1.120 -0.4188 -0.2363  0.1775
 5841TIP3    H117445   2.370   6.150   1.050 -2.9594  0.6882 -2.2518
 5841TIP3    H217446   2.331   6.209   1.184 -0.0650  1.5194 -1.6954
 5842TIP3   OH217447   0.847   1.343   3.879 -0.2521 -0.6153 -0.2568
 5842TIP3    H117448   0.824   1.283   3.808  1.6488 -1.6759 -0.0111
 5842TIP3    H217449   0.787   1.320   3.950 -1.3377 -0.3695 -1.0617
 5843TIP3   OH217450   0.201   4.496   3.915  0.3647 -0.2695 -0.6706
 5843TIP3    H117451   0.127   4.476   3.858 -0.3885 -1.5140  0.6822
 5843TIP3    H217452   0.272   4.441   3.882  0.5681  0.5441 -1.6476
 5844TIP3   OH217453   4.620   5.471   3.772  0.1384 -0.2304  0.2450
 5844TIP3    H117454   4.560   5.399   3.793  1.8003 -1.9071 -0.4909
 5844TIP3    H217455   4.645   5.456   3.681 -0.6674  2.2278 -0.4432
 5845TIP3   OH217456   6.999   3.415   0.235 -0.3299  0.0518 -0.0571
 5845TIP3    H117457   6.921   3.410   0.180 -0.6721  0.7854  0.3434
 5845TIP3    H217458   7.071   3.396   0.176 -0.4653  2.9719 -1.3265
 5846TIP3   OH217459   0.627   6.438   2.544 -0.4731  0.1731  0.2386
 5846TIP3    H117460   0.535   6.434   2.518 -0.1419 -2.8341 -0.8601
 5846TIP3    H217461   0.670   6.489   2.476 -0.8516 -1.2707 -1.1462
 5847TIP3   OH217462   7.430   1.829   5.793 -0.3683  0.0787  0.0893
 5847TIP3    H117463   7.471   1.859   5.874 -0.2035  0.8323 -0.2630
 5847TIP3    H217464   7.483   1.869   5.724  0.3186 -1.6435 -0.4181
 5848TIP3   OH217465   2.298   0.782   1.379 -0.0228 -0.1819 -0.0387
 5848TIP3    H117466   2.312   0.873   1.404  3.3578 -0.6468  0.2884
 5848TIP3    H217467   2.267   0.739   1.459  0.6042  0.2893  0.4647
 5849TIP3   OH217468   3.410   2.969   6.214  0.0880  0.0720 -0.1836
 5849TIP3    H117469   3.401   2.880   6.181 -1.5649  0.0197  0.3053
 5849TIP3    H217470   3.323   2.991   6.248  0.6798  1.5690  0.4643
 5850TIP3   OH217471   2.407   0.252   0.881  0.0448  0.3535  0.1610
 5850TIP3    H117472   2.333   0.302   0.916 -0.2125  1.0940 -1.3525
 5850TIP3    H217473   2.476   0.261   0.946 -1.6436 -1.7160  2.4422
 5851TIP3   OH217474   3.202   0.738   5.521  0.5468  0.0898  0.2746
 5851TIP3    H117475   3.169   0.817   5.478  1.3013  0.9307  1.2037
 5851TIP3    H217476   3.213   0.763   5.612  1.0317 -1.0255  0.5413
 5852TIP3   OH217477   1.043   6.470   6.160  0.6311 -0.0524 -0.1793
 5852TIP3    H117478   0.970   6.519   6.200  0.5091  0.0826 -0.5641
 5852TIP3    H217479   1.117   6.486   6.218 -0.1863 -2.1236  1.5890
 5853TIP3   OH217480   4.977   4.194   1.049 -0.3110 -0.7223  0.5891
 5853TIP3    H117481   4.930   4.275   1.070  1.2666 -0.1258  2.1185
 5853TIP3    H217482   5.023   4.214   0.968 -0.4516 -0.3191  0.6032
 5854TIP3   OH217483   1.639   6.958   5.581 -0.5651  0.3021  0.4889
 5854TIP3    H117484   1.707   6.965   5.514  1.3305 -0.2559  2.2506
 5854TIP3    H217485   1.626   7.048   5.612 -0.8051  0.4365  0.0128
 5855TIP3   OH217486   5.532   0.600   3.740  0.8428 -0.3189  0.0006
 5855TIP3    H117487   5.545   0.571   3.831  0.4778  0.5936  0.3589
 5855TIP3    H217488   5.588   0.542   3.688  2.2226  0.0935  0.9684
 5856TIP3   OH217489   3.477   2.590   1.418  0.7867  0.1331 -0.2482
 5856TIP3    H117490   3.441   2.678   1.421  1.4307  0.4017 -0.2649
 5856TIP3    H217491   3.445   2.553   1.336  1.0972  0.6055 -0.5840
 5857TIP3   OH217492   6.268   6.341   2.517  0.0613  0.3745 -0.0206
 5857TIP3    H117493   6.330   6.315   2.585 -0.3272  1.0001  0.5833
 5857TIP3    H217494   6.216   6.262   2.500  1.5136 -0.3801 -1.0902
 5858TIP3   OH217495   6.302   3.330   6.535  0.2246 -0.0691  0.2259
 5858TIP3    H117496   6.209   3.351   6.553  0.3723  0.2183  0.7024
 5858TIP3    H217497   6.299   3.265   6.466 -0.3159  0.4773 -0.2827
 5859TIP3   OH217498   7.156   0.285   3.272 -0.3259  0.6032  0.1750
 5859TIP3    H117499   7.214   0.316   3.202  1.3087 -0.8514  0.7842
 5859TIP3    H217500   7.128   0.198   3.242  1.3801 -0.5792  1.7658
 5860TIP3   OH217501   4.654   2.747   0.181 -0.0997 -0.7676 -0.3593
 5860TIP3    H117502   4.693   2.818   0.232 -0.1957 -1.6366  0.9860
 5860TIP3    H217503   4.702   2.748   0.098  1.4245 -0.5403  0.4868
 5861TIP3   OH217504   8.345   7.665   2.519  0.4298 -0.7954 -0.1494
 5861TIP3    H117505   8.400   7.732   2.560 -0.9725  0.9676 -1.0105
 5861TIP3    H217506   8.278   7.646   2.585  0.9118 -1.4937  0.1510
 5862TIP3   OH217507   7.082   3.652   1.888  0.0933  0.1102 -0.1507
 5862TIP3    H117508   7.047   3.588   1.827  0.7831  0.9272 -1.4395
 5862TIP3    H217509   7.106   3.601   1.966 -2.6811 -0.6737  0.3029
 5863TIP3   OH217510   1.610   8.137   5.763  0.0770  0.0564  0.2042
 5863TIP3    H117511   1.636   8.225   5.732 -3.4444  0.4870 -2.1677
 5863TIP3    H217512   1.669   8.078   5.716  0.4241  1.0754 -0.7109
 5864TIP3   OH217513   2.942   7.447   3.557  0.0811  0.0647  0.2155
 5864TIP3    H117514   2.945   7.381   3.488  0.0220 -0.6878  0.9116
 5864TIP3    H217515   2.871   7.505   3.531 -1.4723 -1.4892  0.7379
 5865TIP3   OH217516   6.005   1.262   0.289 -0.1577  0.3674 -0.2235
 5865TIP3    H117517   6.042   1.338   0.244  1.2088 -0.9800 -1.4783
 5865TIP3    H217518   6.040   1.267   0.378  2.9405 -0.6537 -1.2479
 5866TIP3   OH217519   3.838   7.156   0.963  0.0451  0.2664 -0.1265
 5866TIP3    H117520   3.793   7.082   0.922  0.2522  0.0372  0.0526
 5866TIP3    H217521   3.797   7.164   1.049 -1.4797  1.7470 -0.9431
 5867TIP3   OH217522   6.981   4.124   2.083  0.1246  0.1792 -0.0878
 5867TIP3    H117523   6.977   4.209   2.039  2.2385  0.6230  0.4391
 5867TIP3    H217524   6.984   4.060   2.012 -0.5995  0.6038 -0.5051
 5868TIP3   OH217525   4.530   2.618   2.649 -0.1029 -0.2511  0.5019
 5868TIP3    H117526   4.448   2.569   2.651  0.9324 -2.1122  2.9312
 5868TIP3    H217527   4.583   2.573   2.583  0.3689 -1.7567  1.8160
 5869TIP3   OH217528   2.278   7.727   4.161 -0.5720 -0.2051 -0.0173
 5869TIP3    H117529   2.312   7.792   4.223  0.7170 -0.3952 -0.5122
 5869TIP3    H217530   2.186   7.718   4.186 -0.4562  0.8377  0.9020
 5870TIP3   OH217531   2.798   2.593   1.509 -0.1085 -0.2660  0.2840
 5870TIP3    H117532   2.778   2.528   1.442  1.0179 -1.0054  0.6234
 5870TIP3    H217533   2.827   2.670   1.460 -0.4221 -0.3922 -0.1023
 5871TIP3   OH217534   2.670   7.134   1.797  0.4300 -0.4994  0.0763
 5871TIP3    H117535   2.628   7.053   1.767  0.6654 -0.2922 -0.8570
 5871TIP3    H217536   2.609   7.169   1.862 -1.0403 -0.0490 -1.4520
 5872TIP3   OH217537   4.403   3.846   6.141 -0.2108 -0.5696  0.3914
 5872TIP3    H117538   4.402   3.817   6.050  0.0142 -1.8684  0.7839
 5872TIP3    H217539   4.353   3.928   6.141 -0.1183 -0.5043 -0.9067
 5873TIP3   OH217540   2.781   0.651   6.421 -0.4005  0.0552 -0.3022
 5873TIP3    H117541   2.699   0.671   6.376 -0.9615 -1.5324 -0.0685
 5873TIP3    H217542   2.822   0.583   6.368  0.3934  0.2750  0.0094
 5874TIP3   OH217543   5.166   0.673   4.671  0.3706  0.1133  0.1318
 5874TIP3    H117544   5.153   0.591   4.623 -0.9951  0.2527  0.2202
 5874TIP3    H217545   5.092   0.677   4.731  0.0803  1.7050 -0.2924
 5875TIP3   OH217546   2.670   6.741   0.624 -0.5077 -0.3733  0.1844
 5875TIP3    H117547   2.757   6.714   0.653 -0.7836 -0.1674  1.2550
 5875TIP3    H217548   2.669   6.836   0.638  0.1335  0.1213 -2.6745
 5876TIP3   OH217549   7.443   3.645   6.694  0.3477 -0.6051 -0.4333
 5876TIP3    H117550   7.421   3.558   6.662 -0.3508  0.0071 -1.7001
 5876TIP3    H217551   7.361   3.682   6.726  0.8927 -0.9085  1.4514
 5877TIP3   OH217552   5.863   1.936   0.057 -0.3107 -0.3384 -0.3032
 5877TIP3    H117553   5.946   1.894   0.037  0.2380  0.5969 -0.0594
 5877TIP3    H217554   5.802   1.864   0.070  0.4771 -1.0379 -0.3956
 5878TIP3   OH217555   7.661   6.860   4.385 -0.4024 -0.0996  0.3308
 5878TIP3    H117556   7.742   6.899   4.419  0.3872  1.3920 -2.8848
 5878TIP3    H217557   7.598   6.932   4.388 -1.0630 -0.6903  0.9542
 5879TIP3   OH217558   3.620   5.393   4.006 -0.8376 -0.0896  0.2570
 5879TIP3    H117559   3.585   5.458   3.945 -0.2619 -0.4143 -0.4381
 5879TIP3    H217560   3.682   5.441   4.060 -0.8861  0.0699  0.1729
 5880TIP3   OH217561   0.207   7.532   0.542  0.1801 -0.3374 -0.5760
 5880TIP3    H117562   0.160   7.568   0.467 -0.6650 -1.8523 -0.8155
 5880TIP3    H217563   0.152   7.554   0.617  0.5297  0.3384 -0.5189
 5881TIP3   OH217564   5.718   7.607   5.345 -0.2213 -0.0145 -0.2830
 5881TIP3    H117565   5.652   7.659   5.297 -0.0697 -1.1823 -1.8538
 5881TIP3    H217566   5.801   7.652   5.327 -0.1261 -0.6012 -1.4051
 5882TIP3   OH217567   8.230   6.344   2.175 -0.1448 -0.8867 -0.2887
 5882TIP3    H117568   8.278   6.347   2.093 -0.3965  0.2968 -0.4013
 5882TIP3    H217569   8.147   6.303   2.153 -0.1769 -0.6478 -0.6036
 5883TIP3   OH217570   1.410   7.326   6.171  0.6725  0.1543  0.0850
 5883TIP3    H117571   1.414   7.352   6.263  2.3493  2.3619 -0.5174
 5883TIP3    H217572   1.361   7.244   6.171  0.9515 -0.1114  2.9690
 5884TIP3   OH217573   5.117   1.035   0.603 -0.0772  0.0074  0.0646
 5884TIP3    H117574   5.117   0.939   0.610  0.9565  0.0075  0.2465
 5884TIP3    H217575   5.122   1.065   0.694 -0.0269  0.2266 -0.0113
 5885TIP3   OH217576   4.352   1.333   3.393 -0.2745  0.5673  0.0806
 5885TIP3    H117577   4.312   1.348   3.478 -1.9168 -0.6227 -0.4258
 5885TIP3    H217578   4.351   1.238   3.382 -0.7557  0.7333 -1.5558
 5886TIP3   OH217579   4.227   2.561   4.370  0.3009  0.1800  0.7961
 5886TIP3    H117580   4.277   2.635   4.405  1.1762  0.2153 -0.4625
 5886TIP3    H217581   4.275   2.534   4.291 -0.0802 -1.6427  1.1422
 5887TIP3   OH217582   6.045   4.012   3.375 -0.1876  0.3324  0.1553
 5887TIP3    H117583   6.052   4.026   3.280 -0.7081 -0.7562 -0.0620
 5887TIP3    H217584   6.128   3.970   3.399  0.2352  1.2367  0.3203
 5888TIP3   OH217585   2.889   7.285   1.725  0.1502 -0.2053  0.0425
 5888TIP3    H117586   2.878   7.372   1.762 -1.0658 -0.2155 -0.2619
 5888TIP3    H217587   2.812   7.236   1.755  0.1418 -0.7792 -0.8728
 5889TIP3   OH217588   6.352   8.014   5.107  0.7380  0.2941 -0.2574
 5889TIP3    H117589   6.352   8.034   5.201  1.3937 -0.4069 -0.0955
 5889TIP3    H217590   6.443   7.989   5.088  0.7584  1.0259 -1.2183
 5890TIP3   OH217591   4.275   7.867   5.156 -0.0092  0.2226  0.3018
 5890TIP3    H117592   4.350   7.811   5.135  0.1201  0.2185  0.7647
 5890TIP3    H217593   4.205   7.806   5.179 -0.1613  0.2262 -0.1442
 5891TIP3   OH217594   7.841   6.031   6.267  0.2464  0.6681  0.4073
 5891TIP3    H117595   7.851   5.973   6.192  0.3290  1.0607  0.1112
 5891TIP3    H217596   7.851   5.974   6.343 -0.7193  0.1137  0.1264
 5892TIP3   OH217597   5.435   0.661   5.543 -0.0651 -0.2236 -0.0405
 5892TIP3    H117598   5.508   0.643   5.603 -0.4608 -1.2761  0.1416
 5892TIP3    H217599   5.410   0.576   5.509 -1.0490  0.1569 -0.3122
 5893TIP3   OH217600   7.817   6.232   4.572  0.3203  0.2707  0.3669
 5893TIP3    H117601   7.798   6.279   4.653  0.0709 -0.0670  0.5089
 5893TIP3    H217602   7.871   6.158   4.600 -1.8676 -1.3334  0.6268
 5894TIP3   OH217603   5.109   6.925   3.644  0.4516  0.2723 -0.2252
 5894TIP3    H117604   5.181   6.887   3.694 -0.3482 -1.6218 -0.4164
 5894TIP3    H217605   5.039   6.937   3.708 -0.1181 -0.8992 -0.6005
 5895TIP3   OH217606   5.244   1.665   4.735  0.5877  0.2706 -0.1159
 5895TIP3    H117607   5.264   1.728   4.665 -1.3777  0.9755 -0.0916
 5895TIP3    H217608   5.322   1.609   4.739  2.3038  2.4731 -0.3465
 5896TIP3   OH217609   0.250   7.966   4.157 -0.5394  0.4046 -0.3041
 5896TIP3    H117610   0.272   7.877   4.185 -1.8122  0.6585  1.7208
 5896TIP3    H217611   0.326   7.996   4.107 -0.5703 -2.2192 -2.1329
 5897TIP3   OH217612   6.075   0.413   0.657 -0.3470 -0.0292 -0.2582
 5897TIP3    H117613   6.123   0.436   0.737 -1.8314  1.5139  0.2515
 5897TIP3    H217614   6.142   0.384   0.596  1.4769  3.3554 -0.0811
 5898TIP3   OH217615   5.320   6.132   0.384  0.0829 -0.2079 -0.2770
 5898TIP3    H117616   5.348   6.055   0.435 -0.5910 -0.7777 -0.7426
 5898TIP3    H217617   5.323   6.204   0.447  0.2072 -0.7182  0.3195
 5899TIP3   OH217618   4.798   6.632   6.742 -0.6690  0.2557  1.0226
 5899TIP3    H117619   4.790   6.724   6.716 -3.0015 -1.0263 -3.9063
 5899TIP3    H217620   4.741   6.624   6.818 -0.3155  2.8449  1.6586
 5900TIP3   OH217621   1.069   3.826   3.933  0.6188 -0.5965 -0.1366
 5900TIP3    H117622   1.102   3.737   3.919 -0.2248 -1.1492  1.2397
 5900TIP3    H217623   1.019   3.821   4.014  0.9235  1.2499  0.2045
 5901TIP3   OH217624   1.655   5.086   0.593  0.5279 -0.3349 -0.1180
 5901TIP3    H117625   1.607   5.157   0.549 -0.1283 -0.1715  0.8469
 5901TIP3    H217626   1.607   5.007   0.570 -1.1554 -0.0230  2.0442
 5902TIP3   OH217627   0.406   2.951   0.197 -0.4504  0.1470  0.0906
 5902TIP3    H117628   0.455   3.033   0.194 -1.8770  1.0328 -2.3117
 5902TIP3    H217629   0.333   2.969   0.256 -0.0873  0.1541  0.5474
 5903TIP3   OH217630   7.920   1.023   3.950  0.1284 -0.1882  0.2048
 5903TIP3    H117631   7.888   1.099   4.000 -1.6670 -0.2554 -0.7456
 5903TIP3    H217632   7.910   0.949   4.009 -1.2490 -0.1501  0.0536
 5904TIP3   OH217633   4.634   2.036   4.233  0.2540  0.2248  1.0054
 5904TIP3    H117634   4.682   2.052   4.152 -0.3421  1.8194  0.9288
 5904TIP3    H217635   4.684   1.967   4.278  1.3642  0.3019 -0.0673
 5905TIP3   OH217636   8.436   3.360   3.205  0.1250  0.0614  0.7027
 5905TIP3    H117637   8.482   3.329   3.126  0.3879 -1.2480  1.3336
 5905TIP3    H217638   8.491   3.431   3.238  1.0201 -0.6011  0.6999
 5906TIP3   OH217639   4.377   5.033   4.125  0.4662  0.0662 -0.0535
 5906TIP3    H117640   4.308   4.994   4.179  0.4782  1.8870  1.3831
 5906TIP3    H217641   4.388   4.972   4.052 -0.4649 -1.8424  1.3128
 5907TIP3   OH217642   4.799   6.709   1.317 -0.5022  0.1202 -0.0272
 5907TIP3    H117643   4.846   6.790   1.337 -2.2280  1.0995  0.3452
 5907TIP3    H217644   4.867   6.643   1.306  0.9843  1.7051 -0.7366
 5908TIP3   OH217645   8.572   1.110   4.461 -0.6481  0.4698  0.6655
 5908TIP3    H117646   8.511   1.049   4.504 -0.2653 -0.0830  0.4415
 5908TIP3    H217647   8.642   1.054   4.427 -1.8131  0.6538 -2.2919
 5909TIP3   OH217648   6.639   0.497   2.771  0.2338  0.3325 -0.3809
 5909TIP3    H117649   6.573   0.500   2.702 -0.0110 -0.1673 -0.1710
 5909TIP3    H217650   6.596   0.535   2.848  0.0296 -0.4099 -0.1186
 5910TIP3   OH217651   5.328   6.747   6.166  0.1057  0.0769  0.6604
 5910TIP3    H117652   5.244   6.785   6.139  0.1020  0.3134  1.0051
 5910TIP3    H217653   5.359   6.701   6.088 -1.1312 -1.4383  0.9925
 5911TIP3   OH217654   1.314   5.354   1.786 -0.0036 -0.0173 -0.0333
 5911TIP3    H117655   1.394   5.390   1.824  0.1682 -1.5806  1.1880
 5911TIP3    H217656   1.346   5.301   1.712  0.3779 -2.1533  1.5459
 5912TIP3   OH217657   3.258   3.490   4.742  0.1349  0.2905  0.0800
 5912TIP3    H117658   3.169   3.506   4.712 -0.0181  0.3862  0.5710
 5912TIP3    H217659   3.269   3.395   4.736  0.1124  0.3092 -0.2810
 5913TIP3   OH217660   7.463   6.020   1.982 -0.0504 -0.4436  0.0965
 5913TIP3    H117661   7.405   6.083   2.024 -0.3191 -0.5399 -0.1262
 5913TIP3    H217662   7.468   5.947   2.044  1.8852  0.6350  1.2950
 5914TIP3   OH217663   1.913   3.952   2.245 -0.3634  0.1457 -0.2222
 5914TIP3    H117664   1.821   3.964   2.225 -0.3873  0.6071  0.1427
 5914TIP3    H217665   1.957   3.954   2.160 -0.7204 -0.4058 -0.4221
 5915TIP3   OH217666   1.338   4.784   3.578  0.1921  0.5240 -0.1947
 5915TIP3    H117667   1.255   4.782   3.624 -0.5129 -0.3550 -1.4459
 5915TIP3    H217668   1.399   4.740   3.636 -0.3141  0.7854  0.5467
 5916TIP3   OH217669   6.108   6.379   3.367 -0.4673  0.0338  0.1453
 5916TIP3    H117670   6.165   6.374   3.289  0.3624 -0.5634  0.7671
 5916TIP3    H217671   6.069   6.291   3.372 -1.3571  0.3971 -0.1927
 5917TIP3   OH217672   4.563   7.995   7.076  0.0924  0.3260  0.0322
 5917TIP3    H117673   4.617   8.063   7.117  1.1954 -1.1657  1.1343
 5917TIP3    H217674   4.473   8.022   7.095  0.5091  1.3019  0.7145
 5918TIP3   OH217675   6.822   7.838   1.947 -0.3037 -0.2951  0.2407
 5918TIP3    H117676   6.885   7.772   1.920 -0.6005 -1.3374  1.9081
 5918TIP3    H217677   6.782   7.868   1.866  1.0600 -0.9103 -0.6924
 5919TIP3   OH217678   4.748   0.813   0.177 -0.1042 -0.3767 -0.0410
 5919TIP3    H117679   4.769   0.731   0.132 -0.6770 -0.2576 -0.5361
 5919TIP3    H217680   4.653   0.823   0.165 -0.7551 -1.4868  3.0761
 5920TIP3   OH217681   5.688   6.167   3.994  0.6835 -0.0623  0.2348
 5920TIP3    H117682   5.640   6.249   4.008  1.1633  0.4640 -0.9977
 5920TIP3    H217683   5.772   6.180   4.039 -0.0944 -0.7848  1.9612
 5921TIP3   OH217684   3.826   0.818   4.802  0.2853  0.3157 -0.1715
 5921TIP3    H117685   3.866   0.862   4.727 -1.5978 -0.1813 -1.5457
 5921TIP3    H217686   3.760   0.760   4.764 -2.3947  1.7233  1.9229
 5922TIP3   OH217687   0.807   6.465   4.608  0.4509 -0.2420 -0.0735
 5922TIP3    H117688   0.808   6.474   4.703  0.4904  0.6327 -0.1458
 5922TIP3    H217689   0.840   6.549   4.575 -2.4081  0.6857 -0.9086
 5923TIP3   OH217690   3.965   7.069   2.391  0.2557 -0.2262 -0.4546
 5923TIP3    H117691   3.898   7.029   2.335 -0.2332  0.7806 -0.6142
 5923TIP3    H217692   4.013   6.995   2.427 -0.7679 -0.9660 -0.5603
 5924TIP3   OH217693   0.000   3.552   6.157  0.1618 -0.0699 -0.0226
 5924TIP3    H117694  -0.044   3.636   6.150 -0.2005 -0.2454  0.1250
 5924TIP3    H217695   0.085   3.565   6.114  0.1750  0.4142  0.1566
 5925TIP3   OH217696   2.585   7.722   5.842  0.4531  0.0898 -0.2371
 5925TIP3    H117697   2.558   7.718   5.934 -1.4790 -0.1927 -0.7780
 5925TIP3    H217698   2.514   7.768   5.797  1.5856  0.6611 -1.5351
 5926TIP3   OH217699   0.436   1.446   6.222 -0.0518 -0.0538 -0.1363
 5926TIP3    H117700   0.364   1.485   6.173 -0.1519 -1.4176 -1.1111
 5926TIP3    H217701   0.514   1.494   6.192 -0.0594 -1.1108 -1.9463
 5927TIP3   OH217702   1.567   7.276   4.910 -0.3632 -0.4718  0.4433
 5927TIP3    H117703   1.613   7.341   4.963 -0.1682 -0.0785 -0.1939
 5927TIP3    H217704   1.632   7.207   4.896 -0.5427 -0.7665  1.0458
 5928TIP3   OH217705   1.698   4.978   0.213  0.1153 -0.4528 -0.2598
 5928TIP3    H117706   1.636   5.050   0.206  0.2496  0.0186  2.1828
 5928TIP3    H217707   1.748   4.998   0.293 -0.8928 -3.9737  1.4848
 5929TIP3   OH217708   8.496   0.821   0.306  0.0556  0.4759  0.4609
 5929TIP3    H117709   8.467   0.771   0.382  1.5757 -0.3705  0.5144
 5929TIP3    H217710   8.490   0.761   0.232  2.7479 -0.1826  0.6701
 5930TIP3   OH217711   2.585   0.657   6.219  0.4067 -0.2420 -0.2377
 5930TIP3    H117712   2.595   0.739   6.171  0.2220  0.5357  0.9874
 5930TIP3    H217713   2.538   0.599   6.160  1.7625  0.0406 -1.6650
 5931TIP3   OH217714   2.594   3.100   4.307 -0.2270  0.4317  0.0729
 5931TIP3    H117715   2.597   3.055   4.222  2.5535  1.0460 -0.2549
 5931TIP3    H217716   2.644   3.181   4.293 -2.0627  1.9230  1.6018
 5932TIP3   OH217717   6.467   3.555   2.112  0.1383  0.1094  0.6752
 5932TIP3    H117718   6.511   3.576   2.195 -0.4953  1.6488  0.6537
 5932TIP3    H217719   6.374   3.551   2.134  0.0435 -0.3707  0.1985
 5933TIP3   OH217720   6.384   0.427   5.862 -0.1769 -0.4760  0.0486
 5933TIP3    H117721   6.303   0.469   5.834  0.4862  1.2065  0.5171
 5933TIP3    H217722   6.388   0.345   5.812 -0.9931  0.5278 -1.7345
 5934TIP3   OH217723   5.816   7.004   3.877 -0.1558  0.1447  0.4795
 5934TIP3    H117724   5.840   6.927   3.826  1.3990  1.0826 -0.2403
 5934TIP3    H217725   5.843   6.983   3.966 -0.4619 -0.4405  0.4387
 5935TIP3   OH217726   7.052   6.345   2.188  0.0358  0.1486  0.1795
 5935TIP3    H117727   7.144   6.371   2.179  0.3277 -0.8153  0.3318
 5935TIP3    H217728   7.004   6.414   2.141  0.8562  0.4515 -0.2471
 5936TIP3   OH217729   4.546   5.038   1.286  0.3510 -0.7155 -0.3634
 5936TIP3    H117730   4.591   5.104   1.339 -2.1789  1.0311 -0.2035
 5936TIP3    H217731   4.465   5.019   1.334 -0.6733 -1.2371 -2.1825
 5937TIP3   OH217732   3.925   6.030   4.408 -0.3634  0.0035 -0.3540
 5937TIP3    H117733   3.914   6.016   4.502 -0.0942 -0.0613 -0.3333
 5937TIP3    H217734   3.915   6.124   4.396 -1.5225 -0.1119 -0.4091
 5938TIP3   OH217735   1.239   1.041   6.762  0.2921  0.7941 -0.6625
 5938TIP3    H117736   1.174   1.061   6.694 -0.7255 -2.9651 -0.9862
 5938TIP3    H217737   1.269   0.952   6.742  1.4115  0.2847  2.6981
 5939TIP3   OH217738   5.638   3.965   0.154 -0.1302 -0.1943  0.2542
 5939TIP3    H117739   5.724   3.948   0.192 -0.7990  1.5112  2.7803
 5939TIP3    H217740   5.657   3.994   0.065  1.7278 -1.6322  0.1073
 5940TIP3   OH217741   4.594   1.744   4.530 -0.2290  0.3612  0.2179
 5940TIP3    H117742   4.574   1.825   4.577 -1.5282 -0.5402  1.3221
 5940TIP3    H217743   4.529   1.741   4.459  0.2872  0.6386 -0.2661
 5941TIP3   OH217744   1.988   5.850   1.926 -0.1041 -0.5581 -0.1293
 5941TIP3    H117745   1.940   5.780   1.969 -0.4195 -0.6227 -0.5851
 5941TIP3    H217746   2.008   5.816   1.838  0.2594 -0.3074 -0.1493
 5942TIP3   OH217747   2.879   3.100   6.390  0.1392 -0.4402  0.3339
 5942TIP3    H117748   2.883   3.009   6.419 -0.6422 -0.2161  1.1763
 5942TIP3    H217749   2.790   3.127   6.410  0.6359  0.8009  0.9404
 5943TIP3   OH217750   2.346   3.603   6.129 -0.4595 -0.2062 -0.0683
 5943TIP3    H117751   2.359   3.689   6.088 -1.4730  0.0146  0.0400
 5943TIP3    H217752   2.419   3.550   6.098 -1.2637 -0.0929 -2.2994
 5944TIP3   OH217753   0.795   2.531   3.085 -0.3289  0.0311  0.3597
 5944TIP3    H117754   0.884   2.513   3.057 -0.4506 -0.5049  0.3135
 5944TIP3    H217755   0.792   2.500   3.176 -0.8135 -1.1075 -0.0248
 5945TIP3   OH217756   0.894   6.720   0.149 -0.1691 -0.2294  0.2590
 5945TIP3    H117757   0.848   6.788   0.100  0.0299 -0.5286 -0.3619
 5945TIP3    H217758   0.979   6.759   0.170  0.1103 -0.4196 -0.4662
 5946TIP3   OH217759   4.482   0.252   0.759  0.2560  0.2136  0.6232
 5946TIP3    H117760   4.459   0.188   0.692 -1.0132 -0.1430  1.3675
 5946TIP3    H217761   4.538   0.315   0.713 -0.0415 -0.3738 -0.6057
 5947TIP3   OH217762   2.000   6.571   5.807 -0.9932 -0.3703 -0.0957
 5947TIP3    H117763   1.966   6.660   5.820 -0.9478 -0.3624 -0.0299
 5947TIP3    H217764   2.066   6.581   5.738 -0.6026 -0.2578  0.2876
 5948TIP3   OH217765   6.533   7.139   3.309 -0.0556  0.1801  0.6112
 5948TIP3    H117766   6.534   7.151   3.404  0.6893 -0.2430  0.6586
 5948TIP3    H217767   6.599   7.200   3.276  0.5687 -0.5652  0.4710
 5949TIP3   OH217768   6.752   1.933   0.454 -0.3801 -0.3635 -0.4831
 5949TIP3    H117769   6.664   1.962   0.433 -0.3135  0.0882 -0.1578
 5949TIP3    H217770   6.742   1.839   0.475 -0.8588 -0.2179 -0.0216
 5950TIP3   OH217771   1.383   8.100   4.026  0.0976 -0.1811  0.0557
 5950TIP3    H117772   1.477   8.093   4.043  0.2417  0.4737 -0.4390
 5950TIP3    H217773   1.353   8.009   4.024  0.5989 -0.3684  0.8573
 5951TIP3   OH217774   0.452   1.913   3.081  0.1608  0.1395  0.6143
 5951TIP3    H117775   0.393   1.981   3.048 -0.7927  0.6070  3.0791
 5951TIP3    H217776   0.539   1.943   3.056 -0.4533  0.6753 -0.9985
 5952TIP3   OH217777   1.315   0.394   3.071 -0.3058 -0.1818  0.6646
 5952TIP3    H117778   1.229   0.432   3.089 -1.2162 -1.6284 -0.4498
 5952TIP3    H217779   1.302   0.299   3.079  1.2093 -0.4315  0.5594
 5953TIP3   OH217780   2.162   0.714   3.550  0.0601  0.2392  0.8541
 5953TIP3    H117781   2.092   0.704   3.615  0.0350  0.7778  0.9181
 5953TIP3    H217782   2.219   0.781   3.588 -0.2746  1.0020  0.0487
 5954TIP3   OH217783   4.766   6.787  -0.007 -0.4855  0.2053 -0.7876
 5954TIP3    H117784   4.680   6.821  -0.031 -1.1163 -0.6275  0.2114
 5954TIP3    H217785   4.783   6.825   0.079 -1.5530 -2.4854  0.7249
 5955TIP3   OH217786   5.484   7.669   1.461 -0.9368 -0.1610  0.2404
 5955TIP3    H117787   5.566   7.699   1.421 -0.8831 -1.3560 -0.6165
 5955TIP3    H217788   5.469   7.583   1.421 -1.1519 -1.2253  2.4645
 5956TIP3   OH217789   6.098   0.839   6.312 -0.1314  0.2080  0.0984
 5956TIP3    H117790   6.078   0.763   6.367 -0.7983  1.2309  1.3325
 5956TIP3    H217791   6.050   0.823   6.231  2.2632 -2.1775 -1.0001
 5957TIP3   OH217792   2.246   0.694   2.698 -0.4914 -0.4601  0.6236
 5957TIP3    H117793   2.216   0.785   2.699  1.1270  0.1350 -0.5659
 5957TIP3    H217794   2.292   0.683   2.781 -0.6959 -0.2032  0.7738
 5958TIP3   OH217795   1.119   8.112   0.889  0.4622  0.3314 -0.4788
 5958TIP3    H117796   1.135   8.145   0.977  0.3577  0.2698 -0.4358
 5958TIP3    H217797   1.204   8.119   0.844  0.2673  1.3445 -0.7051
 5959TIP3   OH217798   8.107   0.158   6.531  0.0866  0.4838 -0.4212
 5959TIP3    H117799   8.160   0.209   6.470  2.0310  1.0178  1.5814
 5959TIP3    H217800   8.057   0.224   6.580 -0.0107  0.2296 -0.1744
 5960TIP3   OH217801   6.809   3.784   3.136  0.5845  0.2168 -0.1737
 5960TIP3    H117802   6.758   3.707   3.162  0.0123  0.7347  0.2610
 5960TIP3    H217803   6.900   3.759   3.153  0.4061 -0.3567 -0.0251
 5961TIP3   OH217804   2.097   2.875   2.248 -0.2209  0.2425 -0.5277
 5961TIP3    H117805   2.133   2.870   2.336  1.4507  0.4773 -1.1521
 5961TIP3    H217806   2.161   2.828   2.193 -1.8749 -1.0772 -1.4509
 5962TIP3   OH217807   0.464   3.888   1.182  0.0166  0.6448 -0.5271
 5962TIP3    H117808   0.441   3.957   1.119  1.6215  2.1533  0.4218
 5962TIP3    H217809   0.560   3.884   1.178  0.1175  0.3844  1.3715
 5963TIP3   OH217810   7.167   2.428   5.577 -0.3096  0.2501  0.4711
 5963TIP3    H117811   7.080   2.464   5.562 -1.4073 -2.1170  0.6217
 5963TIP3    H217812   7.151   2.348   5.628  1.7080 -1.4057 -1.2864
 5964TIP3   OH217813   7.793   5.648   1.023  0.2245 -0.3313  0.4525
 5964TIP3    H117814   7.861   5.584   1.000  1.6993  1.4872 -0.5160
 5964TIP3    H217815   7.751   5.611   1.101  0.6214 -2.7249 -0.3775
 5965TIP3   OH217816   4.309   0.187   3.947 -0.0089  0.0529 -0.1086
 5965TIP3    H117817   4.290   0.104   3.993 -2.5252  0.8267  0.4234
 5965TIP3    H217818   4.395   0.213   3.979 -0.6898 -0.5977  2.4951
 5966TIP3   OH217819   4.167   0.259   3.069  0.6392  0.5066  0.1137
 5966TIP3    H117820   4.248   0.241   3.022  1.0252 -0.0571  0.9643
 5966TIP3    H217821   4.193   0.264   3.161 -0.4978 -1.2429  0.5846
 5967TIP3   OH217822   0.160   4.166   0.042 -0.3597  0.1342 -0.1880
 5967TIP3    H117823   0.256   4.164   0.038 -0.1722  2.8440  1.0648
 5967TIP3    H217824   0.136   4.085   0.088  1.4314  0.0438  0.6651
 5968TIP3   OH217825   0.656   5.623   7.049  0.2068 -0.0526  0.5128
 5968TIP3    H117826   0.637   5.615   6.956 -0.2533  0.0462  0.5935
 5968TIP3    H217827   0.735   5.677   7.053 -0.8740  1.6256  0.2408
 5969TIP3   OH217828   3.254   3.213   4.642  0.1645 -0.3346  0.2316
 5969TIP3    H117829   3.180   3.152   4.646 -0.2252  0.0436 -0.7929
 5969TIP3    H217830   3.326   3.160   4.607 -0.7792  0.2630 -2.9247
 5970TIP3   OH217831   8.184   6.883   0.847 -0.4811  0.1652 -0.4835
 5970TIP3    H117832   8.108   6.877   0.903 -0.0519 -0.5101  0.0369
 5970TIP3    H217833   8.244   6.941   0.894 -0.4544  0.2615 -0.6357
 5971TIP3   OH217834   2.083   2.977   3.946  0.2163 -0.4757  0.3843
 5971TIP3    H117835   2.141   2.918   3.995  1.2038 -1.0096 -1.3471
 5971TIP3    H217836   1.997   2.936   3.950  0.3491 -0.6898  1.3395
 5972TIP3   OH217837   3.544   5.352   6.168  0.8099  0.7109 -0.0501
 5972TIP3    H117838   3.469   5.369   6.226  0.5392  1.4786 -0.6117
 5972TIP3    H217839   3.545   5.426   6.108  0.1804 -0.7840 -2.0007
 5973TIP3   OH217840   4.378   4.765   5.430  0.3050  0.2936  0.3954
 5973TIP3    H117841   4.366   4.716   5.348 -0.1845 -0.8837  1.1375
 5973TIP3    H217842   4.295   4.811   5.442  0.1630  0.0099  0.5149
 5974TIP3   OH217843   2.223   1.022   5.961 -0.2137 -0.0925 -0.3149
 5974TIP3    H117844   2.242   0.953   5.897  0.2765 -0.9870  0.7747
 5974TIP3    H217845   2.167   1.084   5.913  0.2442 -0.6681 -1.6434
 5975TIP3   OH217846   3.237   6.260   1.921 -0.0723  0.4536  0.7376
 5975TIP3    H117847   3.197   6.290   1.840  1.2347 -0.4073 -0.2606
 5975TIP3    H217848   3.277   6.338   1.959  1.6295  0.4030 -0.8410
 5976TIP3   OH217849   0.749   2.248   0.807 -0.5026  0.1811 -0.4245
 5976TIP3    H117850   0.791   2.182   0.862  0.8821  1.6231  0.3139
 5976TIP3    H217851   0.686   2.292   0.865 -1.7338 -0.7222 -1.0270
 5977TIP3   OH217852   0.334   2.978   4.464 -0.1555 -0.4561 -0.0210
 5977TIP3    H117853   0.321   3.073   4.462 -0.5336 -0.4773  0.8494
 5977TIP3    H217854   0.253   2.942   4.428  0.0453 -0.4492 -0.4851
 5978TIP3   OH217855   5.515   0.953   3.083 -0.2035 -0.0530 -0.0325
 5978TIP3    H117856   5.431   0.954   3.036  0.2014 -0.9574 -0.8250
 5978TIP3    H217857   5.523   1.040   3.121 -0.7849  0.5556 -1.2437
 5979TIP3   OH217858   2.104   7.295   1.759 -0.0724  0.6459 -0.4909
 5979TIP3    H117859   2.052   7.290   1.839 -0.5144  0.2122 -0.7966
 5979TIP3    H217860   2.039   7.287   1.689  0.2448  1.5649 -0.9007
 5980TIP3   OH217861   0.368   0.619   3.694 -0.3863 -0.5865  0.4852
 5980TIP3    H117862   0.282   0.660   3.707 -1.1634 -2.2788  0.8919
 5980TIP3    H217863   0.375   0.554   3.764  0.5190 -1.6281 -0.5267
 5981TIP3   OH217864   0.563   0.428   0.542 -0.0463 -0.0518 -0.3789
 5981TIP3    H117865   0.482   0.377   0.544  0.2963 -0.6449 -1.0798
 5981TIP3    H217866   0.562   0.478   0.624 -1.1639  0.0246 -0.4311
 5982TIP3   OH217867   6.327   1.874   1.151  0.0359 -0.5919  0.4398
 5982TIP3    H117868   6.327   1.957   1.103  0.0244 -1.4494 -1.1466
 5982TIP3    H217869   6.417   1.862   1.180  0.3714 -0.6944 -0.6035
 5983TIP3   OH217870   3.937   4.573   6.070 -0.2022  0.3128 -0.3073
 5983TIP3    H117871   3.966   4.652   6.024 -0.1974 -0.3912 -1.5646
 5983TIP3    H217872   3.959   4.589   6.162 -0.4042  1.8562 -0.5061
 5984TIP3   OH217873   6.470   4.388   5.729  0.1736 -0.5508  0.5913
 5984TIP3    H117874   6.487   4.402   5.636 -0.0865 -1.9040  0.3266
 5984TIP3    H217875   6.384   4.429   5.744  0.8151  0.8565  0.5581
 5985TIP3   OH217876   7.855   7.384   1.731  0.0578 -0.0003 -0.4620
 5985TIP3    H117877   7.818   7.296   1.729  0.7486 -0.2913 -2.2777
 5985TIP3    H217878   7.779   7.443   1.728 -0.3737 -0.5223  0.0397
 5986TIP3   OH217879   5.657   6.970   6.580 -0.3426  0.7225  0.0249
 5986TIP3    H117880   5.609   7.050   6.600  0.4293  0.6798  2.4925
 5986TIP3    H217881   5.590   6.908   6.553 -1.0259  1.9776 -1.3424
 5987TIP3   OH217882   5.327   6.556   4.217 -0.2764 -0.1303  0.3570
 5987TIP3    H117883   5.329   6.567   4.312  0.1280  1.3408  0.1934
 5987TIP3    H217884   5.254   6.496   4.202  0.3565 -1.2985  1.6646
 5988TIP3   OH217885   5.140   2.037   6.147 -0.4896 -0.5351  0.0174
 5988TIP3    H117886   5.147   1.947   6.178 -4.1712 -0.8146  0.4672
 5988TIP3    H217887   5.055   2.041   6.103  0.0646  2.4486 -1.0469
 5989TIP3   OH217888   6.624   3.296   2.049 -0.6843 -0.2316  0.1524
 5989TIP3    H117889   6.578   3.377   2.070  0.9390  0.2816  2.0037
 5989TIP3    H217890   6.717   3.317   2.062 -0.2534 -2.5312  1.2458
 5990TIP3   OH217891   3.703   2.152   5.138  0.3450 -0.5531 -0.0568
 5990TIP3    H117892   3.771   2.125   5.077  0.7145 -0.8430  0.4762
 5990TIP3    H217893   3.625   2.164   5.083  0.9122  0.1762 -0.7343
 5991TIP3   OH217894   3.312   7.552   0.894 -0.1500 -0.1688 -0.7151
 5991TIP3    H117895   3.223   7.588   0.905 -0.4507 -0.7482 -1.1849
 5991TIP3    H217896   3.370   7.624   0.918 -0.7347 -0.3113  1.2662
 5992TIP3   OH217897   5.183   3.767   1.240  0.2633  0.0512  0.2753
 5992TIP3    H117898   5.177   3.672   1.232 -1.7156  0.0952  0.8187
 5992TIP3    H217899   5.259   3.790   1.186 -0.7583 -1.5839 -2.0478
 5993TIP3   OH217900   3.800   1.973   3.760 -0.0181  0.0752  0.1742
 5993TIP3    H117901   3.859   1.917   3.710 -0.0400  0.9425 -0.8434
 5993TIP3    H217902   3.776   2.043   3.700 -2.1038 -0.2443  0.5366
 5994TIP3   OH217903   3.543   4.896   6.409 -0.3630  0.3517 -0.6009
 5994TIP3    H117904   3.536   4.947   6.328  0.4275  0.2157 -0.7581
 5994TIP3    H217905   3.603   4.825   6.387  0.2212  0.5802  0.2436
 5995TIP3   OH217906   4.097   5.940   7.061 -0.3771 -0.0477  0.3635
 5995TIP3    H117907   4.077   5.925   7.153  1.1708 -1.3735  0.5220
 5995TIP3    H217908   4.148   6.021   7.060 -1.2851  0.5325  0.5386
 5996TIP3   OH217909   2.867   6.681   3.527 -0.1728 -0.6393 -0.3506
 5996TIP3    H117910   2.938   6.686   3.463 -1.7411  2.3194 -2.0990
 5996TIP3    H217911   2.792   6.651   3.475 -0.9509 -0.4413  0.6446
 5997TIP3   OH217912   5.120   3.447   0.531 -0.5640  0.3073  0.2316
 5997TIP3    H117913   5.208   3.476   0.506  0.1685 -1.6116  0.3901
 5997TIP3    H217914   5.082   3.522   0.576  0.7541  1.3964 -0.3921
 5998TIP3   OH217915   6.762   1.913   1.744 -0.2127 -0.5567  0.2737
 5998TIP3    H117916   6.673   1.884   1.722  0.6537 -2.8016 -0.5064
 5998TIP3    H217917   6.767   2.002   1.709 -2.3707 -0.0728  1.0111
 5999TIP3   OH217918   3.415   8.165   3.768 -0.0725 -0.6629 -0.3543
 5999TIP3    H117919   3.381   8.165   3.857  0.2719 -2.1472 -0.1990
 5999TIP3    H217920   3.510   8.159   3.778 -0.0649 -1.4225 -0.8192
 6000TIP3   OH217921   4.592   7.188   3.386 -0.2105  0.3646  0.5902
 6000TIP3    H117922   4.556   7.256   3.442 -2.0444 -0.9395  1.1048
 6000TIP3    H217923   4.646   7.135   3.444 -1.9657 -0.8798  1.1798
 6001TIP3   OH217924   2.257   3.518   1.843 -0.2645 -0.1139  0.3657
 6001TIP3    H117925   2.322   3.532   1.912  0.0572 -0.7801  0.2039
 6001TIP3    H217926   2.287   3.574   1.771  0.0570 -0.3139  0.3410
 6002TIP3   OH217927   7.370   5.799   2.119 -0.1750 -0.0013  0.1659
 6002TIP3    H117928   7.290   5.847   2.094  0.3429  0.8891  0.1666
 6002TIP3    H217929   7.401   5.760   2.038  0.0353  0.6507 -0.0735
 6003TIP3   OH217930   2.221   0.248   2.238  0.0943  0.0205  0.0743
 6003TIP3    H117931   2.174   0.187   2.181  0.3395 -1.0604  1.0075
 6003TIP3    H217932   2.160   0.321   2.249 -0.4813 -0.3595 -0.4917
 6004TIP3   OH217933   6.544   3.214   5.007  0.1350  0.3583  0.0483
 6004TIP3    H117934   6.484   3.276   4.965 -0.1480 -0.3682 -0.6500
 6004TIP3    H217935   6.486   3.152   5.051  0.2366 -1.5771 -2.3586
 6005TIP3   OH217936   0.104   3.344   2.087  0.0232  0.2898 -0.0285
 6005TIP3    H117937   0.117   3.347   1.992 -0.2709  0.6112 -0.0596
 6005TIP3    H217938   0.118   3.252   2.110  0.2994  0.2474 -0.3512
 6006TIP3   OH217939   3.852   5.057   3.248 -0.2791 -0.0411 -0.6919
 6006TIP3    H117940   3.862   4.983   3.309  1.3291  1.1806  0.6406
 6006TIP3    H217941   3.919   5.043   3.182 -0.9956 -0.5612 -1.3145
 6007TIP3   OH217942   4.374   3.908   3.809  0.1711  0.2912 -0.3445
 6007TIP3    H117943   4.352   3.990   3.765 -1.0866  0.7376  1.0573
 6007TIP3    H217944   4.456   3.927   3.855  0.5433  0.3569 -1.0122
 6008TIP3   OH217945   7.177   0.139   1.961  0.1217 -0.2912  0.0620
 6008TIP3    H117946   7.258   0.088   1.960  0.0946 -0.4418  1.7696
 6008TIP3    H217947   7.108   0.076   1.940  0.4198 -0.1734 -1.3453
 6009TIP3   OH217948   8.036   6.888   4.363  0.3995 -0.3653  0.7735
 6009TIP3    H117949   8.058   6.926   4.448 -0.7817 -0.4837  1.1479
 6009TIP3    H217950   7.961   6.831   4.381 -1.8358  1.8430 -0.7884
 6010TIP3   OH217951   3.857   5.659   1.813 -0.2306 -0.0875 -0.6464
 6010TIP3    H117952   3.900   5.592   1.760  1.9995  2.2015 -1.9336
 6010TIP3    H217953   3.920   5.678   1.882 -1.6896 -0.6314  0.9043
 6011TIP3   OH217954   5.368   6.373   5.543 -0.0738  0.0120  0.0573
 6011TIP3    H117955   5.400   6.463   5.535 -0.6377  0.2292  0.2463
 6011TIP3    H217956   5.447   6.319   5.534  0.0719  0.4434 -1.7543
 6012TIP3   OH217957   1.051   5.999   5.484  0.1422  0.0669  0.0916
 6012TIP3    H117958   0.984   5.972   5.546 -0.5879 -0.6869 -0.9921
 6012TIP3    H217959   1.004   6.054   5.421  0.5346 -0.4515 -0.6658
 6013TIP3   OH217960   1.049   2.064   4.092 -0.6561  0.3028  0.4609
 6013TIP3    H117961   1.002   2.080   4.010  0.4512 -1.7428 -0.6512
 6013TIP3    H217962   1.068   2.151   4.126 -1.2699  1.2178 -1.3897
 6014TIP3   OH217963   8.472   0.894   1.735  0.3315  0.3227 -0.2209
 6014TIP3    H117964   8.477   0.952   1.811  0.5680 -0.9010  0.7162
 6014TIP3    H217965   8.468   0.954   1.660  0.5731  1.5467  0.7132
 6015TIP3   OH217966   2.066   0.316   3.423  0.1179  0.6563 -0.2363
 6015TIP3    H117967   2.083   0.278   3.510  0.8877 -0.2200 -0.7520
 6015TIP3    H217968   1.970   0.318   3.417  0.0400  1.4638  0.9371
 6016TIP3   OH217969   4.280   6.104   0.209  0.0978  0.1606 -0.5742
 6016TIP3    H117970   4.321   6.138   0.129  0.5636  1.9359  0.3828
 6016TIP3    H217971   4.243   6.181   0.252 -1.7359 -1.0121  0.0544
 6017TIP3   OH217972   0.204   4.907   5.976 -0.0144 -0.2130  0.3964
 6017TIP3    H117973   0.111   4.904   6.000  0.2436 -0.9295  1.4372
 6017TIP3    H217974   0.213   4.982   5.918 -1.6011 -1.2859 -1.3474
 6018TIP3   OH217975   0.167   6.796   6.134 -0.2754  0.2189 -0.7998
 6018TIP3    H117976   0.101   6.743   6.089 -0.4307  0.3524 -0.7298
 6018TIP3    H217977   0.166   6.879   6.086 -1.7007  1.0180  0.5254
 6019TIP3   OH217978   0.599   0.369   2.746  0.0146 -0.5140 -0.7653
 6019TIP3    H117979   0.585   0.424   2.669 -0.2362 -1.2039 -1.2165
 6019TIP3    H217980   0.518   0.377   2.796  0.7232  1.1047  0.1885
 6020TIP3   OH217981   3.206   8.020   5.627  0.0475 -0.3223 -0.8255
 6020TIP3    H117982   3.160   7.950   5.674  0.8717 -0.1201  0.3408
 6020TIP3    H217983   3.299   8.002   5.641  0.2871  1.2058 -0.1213
 6021TIP3   OH217984   4.997   1.314   3.153 -0.0675 -0.1802 -0.0769
 6021TIP3    H117985   5.014   1.293   3.061  0.5200  1.3819 -0.3547
 6021TIP3    H217986   4.903   1.303   3.163 -0.3632  0.9966 -1.2597
 6022TIP3   OH217987   2.906   6.122   1.025  0.3034  0.2868 -0.7018
 6022TIP3    H117988   2.958   6.152   1.100  0.4464 -0.4953 -0.4761
 6022TIP3    H217989   2.969   6.083   0.965  0.1937  0.9546 -1.2680
 6023TIP3   OH217990   8.071   4.062   7.046  0.3720 -0.2813 -0.3076
 6023TIP3    H117991   7.997   4.105   7.005 -0.2180  1.0759  1.9935
 6023TIP3    H217992   8.144   4.075   6.985 -0.4421  1.6418 -0.9253
 6024TIP3   OH217993   7.957   1.785   6.267 -0.1323  0.3420 -0.0093
 6024TIP3    H117994   7.912   1.804   6.349  1.0801  0.6816  0.5834
 6024TIP3    H217995   8.008   1.864   6.248  2.1969 -0.9284  0.6490
 6025TIP3   OH217996   2.083   4.315   6.101 -0.1193 -0.1088 -0.2615
 6025TIP3    H117997   2.014   4.347   6.042  0.2321  3.0152  0.8867
 6025TIP3    H217998   2.044   4.317   6.188  0.5890 -1.0221  0.1032
 6026TIP3   OH217999   7.821   0.059   0.886 -0.3626  0.2920  0.3728
 6026TIP3    H118000   7.838   0.035   0.795 -1.6399 -0.2347  0.2580
 6026TIP3    H218001   7.726   0.071   0.891 -0.4472 -0.7844  1.8890
 6027TIP3   OH218002   1.467   2.880   5.187 -0.4759 -0.3828  0.3999
 6027TIP3    H118003   1.534   2.942   5.159 -0.3983  0.1830  1.7827
 6027TIP3    H218004   1.389   2.933   5.201 -0.7482 -0.7853  0.4257
 6028TIP3   OH218005   7.074   3.653   3.182 -0.1279  0.0768 -0.3573
 6028TIP3    H118006   7.145   3.654   3.119 -0.8170 -1.3456 -1.2104
 6028TIP3    H218007   7.107   3.702   3.257  0.5310  2.2871 -1.9864
 6029TIP3   OH218008   8.544   0.200   1.222  0.1896  0.5770 -0.4616
 6029TIP3    H118009   8.527   0.294   1.222 -0.7692  0.4408 -2.0464
 6029TIP3    H218010   8.500   0.168   1.143 -1.0719 -1.4796  0.9849
 6030TIP3   OH218011   7.455   7.518   0.316 -0.0829  0.5091 -0.4739
 6030TIP3    H118012   7.522   7.526   0.249  1.0616  2.0872  0.7724
 6030TIP3    H218013   7.380   7.565   0.280 -0.7542 -1.6333 -2.0584
 6031TIP3   OH218014   7.082   6.595   4.634 -0.1155 -0.3661  0.7021
 6031TIP3    H118015   7.173   6.568   4.626 -0.0420  0.2112 -0.8952
 6031TIP3    H218016   7.041   6.529   4.689  1.1553 -0.9027  1.0271
 6032TIP3   OH218017   5.493   6.586   2.742  0.2808  0.7788 -0.4306
 6032TIP3    H118018   5.457   6.663   2.697 -0.5833 -0.4470 -1.9663
 6032TIP3    H218019   5.442   6.513   2.707  0.7219 -0.4425  1.3841
 6033TIP3   OH218020   5.646   6.436   0.487  0.6002  0.0026  0.1602
 6033TIP3    H118021   5.636   6.448   0.581 -0.6898  0.9760 -0.0873
 6033TIP3    H218022   5.696   6.512   0.458  0.9984 -0.2971  0.0371
 6034TIP3   OH218023   3.523   7.367   1.142  0.4191  0.5190  0.4130
 6034TIP3    H118024   3.578   7.437   1.107  1.8021 -0.0930  1.2819
 6034TIP3    H218025   3.571   7.287   1.123 -2.4854 -0.6262 -3.2664
 6035TIP3   OH218026   5.924   2.094   3.337  0.0784 -0.5133 -0.1924
 6035TIP3    H118027   5.996   2.110   3.398  1.6250 -2.0891 -1.4936
 6035TIP3    H218028   5.867   2.032   3.384  1.2661 -1.7305 -0.2813
 6036TIP3   OH218029   7.972   4.814   2.223  0.0594 -0.0792 -0.0750
 6036TIP3    H118030   7.916   4.867   2.280  1.1115  0.9452  0.0576
 6036TIP3    H218031   7.925   4.731   2.212 -0.1346 -0.3336  2.3272
 6037TIP3   OH218032   8.685   5.986   4.603 -0.7725 -0.6039 -0.2625
 6037TIP3    H118033   8.598   5.985   4.564 -1.5218 -2.1371  1.3027
 6037TIP3    H218034   8.744   5.958   4.533 -1.5809  0.0025 -1.2045
 6038TIP3   OH218035   5.357   3.262   0.562  0.2966 -0.2820 -0.1760
 6038TIP3    H118036   5.271   3.222   0.575 -0.4395  1.8233  2.3396
 6038TIP3    H218037   5.395   3.265   0.650  1.4943  1.8571 -0.6965
 6039TIP3   OH218038   7.491   8.049   6.339  0.3238  0.7469 -0.5055
 6039TIP3    H118039   7.436   8.126   6.322 -2.7407 -0.8874  1.1284
 6039TIP3    H218040   7.429   7.980   6.360  3.0441 -1.6254  0.3458
 6040TIP3   OH218041   7.925   5.359   6.218  0.3119  0.1350  0.0738
 6040TIP3    H118042   7.869   5.437   6.213 -1.4393 -0.9360  1.7276
 6040TIP3    H218043   7.996   5.383   6.277  1.1528  1.1913 -1.2878
 6041TIP3   OH218044   0.582   5.183   3.185 -0.2120 -0.0462 -0.4485
 6041TIP3    H118045   0.499   5.193   3.139 -0.4144  2.5115  0.3201
 6041TIP3    H218046   0.633   5.260   3.161  0.4375  0.3868  1.9858
 6042TIP3   OH218047   5.874   5.991   2.264 -0.4876 -0.3870 -0.6587
 6042TIP3    H118048   5.895   5.985   2.171  0.3967 -2.7575 -0.3975
 6042TIP3    H218049   5.899   5.905   2.299 -2.3395 -0.1413  1.4659
 6043TIP3   OH218050   1.630   3.064   4.375 -0.4350  0.0396  0.2147
 6043TIP3    H118051   1.707   3.007   4.368  1.5009  2.5835 -1.4419
 6043TIP3    H218052   1.657   3.133   4.436 -0.6321  1.8947 -1.6640
 6044TIP3   OH218053   4.136   0.479   6.076 -0.8004  0.3566  0.1735
 6044TIP3    H118054   4.186   0.397   6.071  0.7850  1.3384 -1.2523
 6044TIP3    H218055   4.047   0.454   6.054 -0.1187 -0.8428 -1.4724
 6045TIP3   OH218056   4.634   3.912   0.284  0.3253 -0.1277 -0.2503
 6045TIP3    H118057   4.602   3.822   0.286 -0.9715  0.3124 -0.2563
 6045TIP3    H218058   4.563   3.961   0.242  0.2900  1.1690  1.2550
 6046TIP3   OH218059   7.306   0.709   6.967 -0.6738 -0.3604  0.1501
 6046TIP3    H118060   7.394   0.731   6.998  0.1765 -1.0076 -1.6750
 6046TIP3    H218061   7.321   0.655   6.889 -2.6628  0.8316 -1.1432
 6047TIP3   OH218062   8.139   2.552   2.767 -0.2083  0.7311  0.1165
 6047TIP3    H118063   8.103   2.535   2.854 -0.2834  1.9957  0.3442
 6047TIP3    H218064   8.077   2.614   2.727  1.4482  2.6505  0.3653
 6048TIP3   OH218065   5.371  -0.012   3.993  0.0695  0.4626 -0.0501
 6048TIP3    H118066   5.399  -0.052   4.075 -1.8595  0.7607  0.7989
 6048TIP3    H218067   5.355   0.080   4.016 -3.5141 -0.0768  0.0985
 6049TIP3   OH218068   2.676   7.933   1.998  0.4382  0.7652 -0.5497
 6049TIP3    H118069   2.717   7.873   2.060  0.1640  1.1506  0.0249
 6049TIP3    H218070   2.716   7.913   1.914  0.0121 -0.5419 -0.4662
 6050TIP3   OH218071   5.451   4.045   4.197  0.3296  0.3000  0.1141
 6050TIP3    H118072   5.378   4.104   4.216 -2.1820 -2.9129  1.5885
 6050TIP3    H218073   5.421   3.960   4.230  3.6354 -1.8342 -1.8582
 6051TIP3   OH218074   3.987   4.310   2.972  0.0351  0.2801 -0.7754
 6051TIP3    H118075   3.899   4.346   2.978 -0.3138 -0.6544 -0.0406
 6051TIP3    H218076   4.003   4.301   2.878 -0.9974 -0.3479 -0.9061
 6052TIP3   OH218077   4.998   7.563   6.313  0.4543 -0.1439  0.4442
 6052TIP3    H118078   5.056   7.523   6.377 -0.3067 -0.3570  1.0195
 6052TIP3    H218079   5.027   7.529   6.228  1.0687 -0.3485  0.7358
 6053TIP3   OH218080   3.947   5.280   2.026 -0.0882  0.4507  0.2084
 6053TIP3    H118081   3.874   5.341   2.028 -0.0163  0.5409  0.0757
 6053TIP3    H218082   3.961   5.262   1.933 -0.3826 -0.0971  0.2633
 6054TIP3   OH218083   3.271   5.700   0.251  0.0744 -0.0828 -0.0642
 6054TIP3    H118084   3.340   5.730   0.311 -0.8406 -0.5696  1.2982
 6054TIP3    H218085   3.201   5.669   0.309 -1.2761  0.3493 -1.4042
 6055TIP3   OH218086   7.006   5.109   1.527  0.2670 -0.6543 -0.2248
 6055TIP3    H118087   6.929   5.166   1.530 -0.3338 -1.4809  0.9577
 6055TIP3    H218088   6.974   5.029   1.486  0.0457 -1.5984  1.7017
 6056TIP3   OH218089   5.800   1.873   1.891  0.0712  0.8312  0.5358
 6056TIP3    H118090   5.789   1.892   1.798  0.7219 -0.8203  0.0786
 6056TIP3    H218091   5.865   1.802   1.893 -0.9211 -0.0825  2.1700
 6057TIP3   OH218092   0.478   5.721   6.448 -0.1373  0.6413 -0.0264
 6057TIP3    H118093   0.517   5.700   6.363  0.2916 -0.3349  0.3948
 6057TIP3    H218094   0.389   5.688   6.443 -0.1807  0.7771 -0.1670
 6058TIP3   OH218095   7.356   7.506   4.273  0.1027  0.3378 -0.6530
 6058TIP3    H118096   7.342   7.580   4.332  0.1592 -0.1345 -0.0404
 6058TIP3    H218097   7.447   7.514   4.245  0.9270 -0.9122  1.4360
 6059TIP3   OH218098   3.805   8.109   0.426  0.2694  0.6036 -0.2156
 6059TIP3    H118099   3.804   8.016   0.450  2.4635  0.3784 -0.8014
 6059TIP3    H218100   3.737   8.117   0.359 -0.9306 -0.2497  0.8499
 6060TIP3   OH218101   1.293   5.209   6.474  0.0114 -0.2879  0.0668
 6060TIP3    H118102   1.345   5.269   6.421 -2.4771  0.8523 -1.2498
 6060TIP3    H218103   1.243   5.265   6.533 -0.2380 -1.2958  0.8641
 6061TIP3   OH218104   5.713   7.724   1.327 -0.5389 -0.0899  0.2321
 6061TIP3    H118105   5.781   7.772   1.279 -1.4048  0.2516 -0.6924
 6061TIP3    H218106   5.707   7.640   1.282 -0.8114 -0.0709  0.2325
 6062TIP3   OH218107   7.937   3.684   6.271 -0.3470  0.1253  0.3968
 6062TIP3    H118108   8.030   3.691   6.252 -0.4473  0.4470  0.0196
 6062TIP3    H218109   7.928   3.599   6.313 -0.2201 -0.9454 -1.6150
 6063TIP3   OH218110   1.589   6.684   2.873 -0.2792  0.7345 -0.3542
 6063TIP3    H118111   1.682   6.673   2.888 -0.6727 -0.5322  1.4712
 6063TIP3    H218112   1.582   6.766   2.824  1.6470  1.8417  1.0794
 6064TIP3   OH218113   7.234   1.431   6.172 -0.3167 -0.2111  0.2252
 6064TIP3    H118114   7.292   1.467   6.105 -0.4902  0.6767  0.5414
 6064TIP3    H218115   7.292   1.413   6.246 -0.5846  1.9201  1.0344
 6065TIP3   OH218116   0.957   7.898   5.767 -0.0825  0.1377  0.3091
 6065TIP3    H118117   1.007   7.963   5.716  0.3872  0.7634  1.5375
 6065TIP3    H218118   0.927   7.946   5.844 -1.0048 -0.7319  0.5089
 6066TIP3   OH218119   0.481   7.550   4.483 -0.4961 -0.4690  0.3823
 6066TIP3    H118120   0.394   7.562   4.520 -0.0162  0.6955  1.1851
 6066TIP3    H218121   0.482   7.607   4.406 -0.9649 -1.7156 -0.5904
 6067TIP3   OH218122   5.616   7.129   3.611 -0.2168  0.1633 -0.3377
 6067TIP3    H118123   5.687   7.163   3.556 -0.9674 -0.7858 -1.9349
 6067TIP3    H218124   5.539   7.131   3.555 -1.3903  0.7660  1.2419
 6068TIP3   OH218125   3.180   6.086   6.283  0.5388 -0.9175 -0.7426
 6068TIP3    H118126   3.206   6.072   6.374  4.4970 -0.7493 -1.6833
 6068TIP3    H218127   3.155   6.178   6.280  1.0039 -0.7523  0.0731
 6069TIP3   OH218128   5.856   3.678   1.378 -0.7204 -0.5111  0.2631
 6069TIP3    H118129   5.917   3.629   1.322 -0.5808  0.4169 -0.4228
 6069TIP3    H218130   5.871   3.769   1.355  0.8162  0.1271  3.2827
 6070TIP3   OH218131   7.603   4.790   2.154 -0.1435 -0.2028 -0.0838
 6070TIP3    H118132   7.557   4.713   2.122 -1.8546  0.2332  1.1814
 6070TIP3    H218133   7.538   4.861   2.148  0.5378  0.5719  1.1798
 6071TIP3   OH218134   3.043   7.971   3.725 -0.6783  0.1338 -0.2792
 6071TIP3    H118135   3.118   7.983   3.666 -0.2544  2.6219  0.6650
 6071TIP3    H218136   3.069   7.897   3.780  0.6535  0.2946 -0.6374
 6072TIP3   OH218137   3.357   1.613   2.995  0.4019  0.0927  0.0496
 6072TIP3    H118138   3.435   1.558   2.982  0.3828 -0.1866  1.0086
 6072TIP3    H218139   3.343   1.611   3.090 -0.1893  0.9536 -0.0149
 6073TIP3   OH218140   8.150   6.931   6.211 -0.3564 -0.1945  0.4193
 6073TIP3    H118141   8.190   6.929   6.298  0.6479 -0.9305 -0.0508
 6073TIP3    H218142   8.124   7.023   6.200 -0.2317 -0.0289  1.3702
 6074TIP3   OH218143   3.181   1.621   1.306 -0.4868 -0.5017 -0.3919
 6074TIP3    H118144   3.105   1.564   1.306 -0.3969 -0.6234 -0.4035
 6074TIP3    H218145   3.151   1.702   1.346 -1.0045 -0.0284 -1.7126
 6075TIP3   OH218146   0.494   1.647   5.103  0.0001  0.5049  0.6349
 6075TIP3    H118147   0.504   1.552   5.111 -0.0456  0.2192 -1.8543
 6075TIP3    H218148   0.581   1.678   5.077 -0.4483  0.8323 -0.5666
 6076TIP3   OH218149   0.207   1.293   4.380 -0.5023 -0.0397  0.1385
 6076TIP3    H118150   0.196   1.347   4.302  0.2197 -1.0467 -0.6832
 6076TIP3    H218151   0.154   1.216   4.364 -0.6872 -0.0665  0.8414
 6077TIP3   OH218152   3.746   7.171   1.688 -0.1707 -0.2194 -0.2225
 6077TIP3    H118153   3.796   7.144   1.765 -0.1107 -1.7432 -0.7575
 6077TIP3    H218154   3.813   7.184   1.620 -0.4031 -1.7775 -0.8013
 6078TIP3   OH218155   0.789   1.560   5.324 -0.1741  0.0634 -0.0398
 6078TIP3    H118156   0.805   1.587   5.234 -0.2503  0.4699  0.0655
 6078TIP3    H218157   0.717   1.615   5.354 -1.4847 -1.4119 -0.3399
 6079TIP3   OH218158   0.897   1.764   1.565  0.2017  0.1140 -0.2801
 6079TIP3    H118159   0.947   1.743   1.487  0.9231  1.6215 -0.2728
 6079TIP3    H218160   0.832   1.827   1.536 -1.4027 -1.4365 -0.1812
 6080TIP3   OH218161   7.273   5.813   0.963  0.5048 -0.6173 -0.5886
 6080TIP3    H118162   7.241   5.903   0.957  2.6928  0.2373 -0.1919
 6080TIP3    H218163   7.344   5.808   0.900  0.6233 -1.9958 -0.3814
 6081TIP3   OH218164   2.641   1.367   2.925  0.0832 -0.3617 -0.2904
 6081TIP3    H118165   2.670   1.305   2.991 -0.3063  0.0587  0.2856
 6081TIP3    H218166   2.667   1.453   2.958 -0.6157 -0.0963 -0.3948
 6082TIP3   OH218167   7.146   0.030   4.824 -0.2784 -0.1782 -0.2896
 6082TIP3    H118168   7.125   0.071   4.908 -0.1976  0.5326 -0.6177
 6082TIP3    H218169   7.227   0.071   4.797  0.6206 -1.6370  0.0959
 6083TIP3   OH218170   5.562   0.329   3.809 -0.0888 -0.6932 -0.7623
 6083TIP3    H118171   5.551   0.243   3.769  0.0132 -0.8863 -0.3787
 6083TIP3    H218172   5.568   0.311   3.903 -1.6066 -0.1445 -0.5264
 6084TIP3   OH218173   0.368   6.304   4.981  0.1309  0.3527 -0.5146
 6084TIP3    H118174   0.334   6.217   4.957 -1.6611  1.3429 -1.8224
 6084TIP3    H218175   0.441   6.319   4.922 -1.3247  0.8311 -2.2963
 6085TIP3   OH218176   4.678   1.922   1.814 -0.1271  0.0838  0.2602
 6085TIP3    H118177   4.704   2.004   1.773 -0.6532  1.9027  3.2885
 6085TIP3    H218178   4.759   1.885   1.847  0.0101 -0.2949 -0.4667
 6086TIP3   OH218179   4.237   6.296   5.416  0.3237 -0.1543  0.0366
 6086TIP3    H118180   4.228   6.215   5.465 -0.4664 -0.4745 -0.6195
 6086TIP3    H218181   4.259   6.269   5.327 -1.4226  0.2564 -0.5576
 6087TIP3   OH218182   4.688   0.936   1.868 -0.1721  0.7620 -0.2169
 6087TIP3    H118183   4.740   0.879   1.813  0.3865  2.1828 -1.2073
 6087TIP3    H218184   4.600   0.898   1.866  0.4151 -0.6820  0.0950
 6088TIP3   OH218185   1.856   5.390   4.204  0.1804  0.0042  0.0986
 6088TIP3    H118186   1.903   5.466   4.170  0.5431  0.6458  1.9155
 6088TIP3    H218187   1.897   5.315   4.161  1.5296  0.6860  0.1434
 6089TIP3   OH218188   6.353   7.864   4.767 -0.2181 -0.1444  0.2144
 6089TIP3    H118189   6.263   7.890   4.747  0.2995  0.8651 -0.9383
 6089TIP3    H218190   6.345   7.811   4.845 -2.1118 -2.1285 -1.1981
 6090TIP3   OH218191   0.464   6.933   3.881 -0.0969  0.5905 -0.0492
 6090TIP3    H118192   0.517   6.894   3.950 -0.4231  0.7169  0.2806
 6090TIP3    H218193   0.460   7.026   3.904  0.0749  0.6914 -0.4270
 6091TIP3   OH218194   1.544   1.952   1.387 -0.1518  0.0126 -0.0516
 6091TIP3    H118195   1.570   1.886   1.322 -0.4805  1.3651 -1.6048
 6091TIP3    H218196   1.606   2.023   1.375 -1.5252  1.1909 -0.3893
 6092TIP3   OH218197   0.880   1.285   4.683  0.0063 -0.1384  0.3500
 6092TIP3    H118198   0.944   1.220   4.711  1.4431  0.5647 -1.1200
 6092TIP3    H218199   0.811   1.235   4.639  0.8712 -0.7306 -0.3667
 6093TIP3   OH218200   2.708   4.688   3.009  0.3922  0.2976  0.0132
 6093TIP3    H118201   2.759   4.608   3.000 -0.2698 -0.0856 -0.3670
 6093TIP3    H218202   2.621   4.666   2.975  0.3489  1.3185 -0.5954
 6094TIP3   OH218203   2.777   3.513   4.819 -0.3422 -0.4377 -0.7322
 6094TIP3    H118204   2.765   3.421   4.794 -0.5272 -0.2909 -1.2036
 6094TIP3    H218205   2.703   3.532   4.875 -0.4137 -0.5206 -0.7972
 6095TIP3   OH218206   7.071   3.886   4.761  0.1647  0.2947 -0.0464
 6095TIP3    H118207   7.092   3.948   4.691 -2.0364  1.7433  0.4978
 6095TIP3    H218208   7.126   3.914   4.835  0.3919  0.5678 -0.3171
 6096TIP3   OH218209   1.645   3.427   2.116 -0.0992  0.1451 -0.1044
 6096TIP3    H118210   1.645   3.354   2.054  0.7883  0.8389 -0.9556
 6096TIP3    H218211   1.676   3.389   2.199  0.3854 -0.4469 -0.5478
 6097TIP3   OH218212   5.831   1.210   2.839 -0.1589 -0.0855 -0.2982
 6097TIP3    H118213   5.846   1.118   2.816  0.6391 -0.1433  0.3911
 6097TIP3    H218214   5.886   1.224   2.916 -0.7695  0.8020 -0.0165
 6098TIP3   OH218215   4.473   1.708   6.337 -0.1583 -0.5744  0.1012
 6098TIP3    H118216   4.538   1.653   6.294 -0.5398 -1.0104  0.0876
 6098TIP3    H218217   4.515   1.735   6.419  0.8756  0.8711 -0.8413
 6099TIP3   OH218218   6.236   6.574   1.536  0.5062  0.1869 -0.3392
 6099TIP3    H118219   6.261   6.648   1.481  0.2950  0.1940 -0.4270
 6099TIP3    H218220   6.286   6.500   1.502  1.0887  0.3925  0.0584
 6100TIP3   OH218221   0.308   2.520   1.280  0.3988  0.2990 -0.1139
 6100TIP3    H118222   0.288   2.593   1.338 -1.5355 -0.9589  0.9162
 6100TIP3    H218223   0.392   2.487   1.310  1.1459  1.8779 -0.3965
 6101TIP3   OH218224   5.416   2.206   4.243 -0.3911 -0.2461 -0.8827
 6101TIP3    H118225   5.406   2.270   4.172 -0.3187 -1.4092 -1.9835
 6101TIP3    H218226   5.508   2.214   4.269 -0.3339 -0.0372 -1.1372
 6102TIP3   OH218227   1.214   6.662   5.259 -0.7432 -0.2484  0.2130
 6102TIP3    H118228   1.169   6.578   5.255 -1.6312  0.1490  1.2415
 6102TIP3    H218229   1.169   6.716   5.194  1.0239 -1.0742 -1.7797
 6103TIP3   OH218230   0.473   3.940   2.121  0.2062  0.3451 -0.1355
 6103TIP3    H118231   0.389   3.933   2.076  0.5240  0.1574 -0.7079
 6103TIP3    H218232   0.451   3.929   2.214 -0.4068  0.3585 -0.2747
 6104TIP3   OH218233   1.182   8.103   0.087 -0.5182 -0.2379 -0.2991
 6104TIP3    H118234   1.175   8.012   0.056 -1.5511 -0.3883  0.3099
 6104TIP3    H218235   1.275   8.116   0.105 -0.3481 -1.1450 -0.4839
 6105TIP3   OH218236   1.994   6.670   4.774 -0.0346  0.2695  0.1760
 6105TIP3    H118237   1.969   6.633   4.858  0.4712  1.3944  0.8476
 6105TIP3    H218238   2.085   6.643   4.762  0.2075  0.9371  0.4761
 6106TIP3   OH218239   6.397   2.355   0.306 -0.7341  0.5503 -0.3399
 6106TIP3    H118240   6.418   2.353   0.213 -0.5061 -0.2720 -0.2825
 6106TIP3    H218241   6.472   2.398   0.347  1.2601 -2.8292 -0.0735
 6107TIP3   OH218242   6.142   6.140   4.528  0.0448  0.1134 -0.9716
 6107TIP3    H118243   6.196   6.181   4.460 -0.7626 -0.5503 -2.0531
 6107TIP3    H218244   6.084   6.210   4.558  0.0723  0.2900 -1.3235
 6108TIP3   OH218245   8.461   5.329   5.884  0.2444 -0.7995 -0.1552
 6108TIP3    H118246   8.394   5.396   5.891 -0.3416 -1.3030 -0.8462
 6108TIP3    H218247   8.544   5.378   5.887 -0.1601 -0.1075 -0.0500
 6109TIP3   OH218248   3.580   4.196   2.141 -0.0234  0.1293  0.0531
 6109TIP3    H118249   3.501   4.157   2.176  0.2601 -2.8975 -2.2023
 6109TIP3    H218250   3.652   4.149   2.184  0.3578 -1.0573 -1.7352
 6110TIP3   OH218251   5.640   2.783   0.310 -0.2194 -0.1017 -1.1421
 6110TIP3    H118252   5.608   2.874   0.309  0.0632  0.0468  0.1773
 6110TIP3    H218253   5.681   2.774   0.397  1.9936 -0.7297 -2.1810
 6111TIP3   OH218254   5.606   4.793   2.966 -0.3759 -0.0084  0.1248
 6111TIP3    H118255   5.673   4.861   2.971  0.3706 -0.6998 -0.1002
 6111TIP3    H218256   5.551   4.808   3.043  0.6421 -0.0250  0.8801
 6112TIP3   OH218257   7.909   0.152   2.276 -0.8738  0.5259  0.2346
 6112TIP3    H118258   7.890   0.200   2.195 -0.5137 -0.0474 -0.2001
 6112TIP3    H218259   8.005   0.144   2.277 -0.9165  0.0184  0.4204
 6113TIP3   OH218260   3.060   5.965   6.845 -0.1659 -0.3303  0.3196
 6113TIP3    H118261   3.036   5.872   6.846  0.3895 -0.6159 -2.8658
 6113TIP3    H218262   3.133   5.970   6.783  1.3474  1.9633  2.1043
 6114TIP3   OH218263   4.866   5.576   5.423  0.5077 -0.1708 -0.0291
 6114TIP3    H118264   4.791   5.517   5.415  0.6978 -0.3291 -0.6867
 6114TIP3    H218265   4.919   5.537   5.493  0.6490 -0.8054 -0.4805
 6115TIP3   OH218266   2.702   4.463   1.000 -0.3366  0.0168  0.3277
 6115TIP3    H118267   2.734   4.389   0.948 -0.5408  0.0420  0.1665
 6115TIP3    H218268   2.769   4.531   0.988 -0.8827  0.3942 -0.7481
 6116TIP3   OH218269   5.721   2.519   3.112  0.2373 -0.6800 -0.5892
 6116TIP3    H118270   5.736   2.527   3.017  0.9190 -1.3591 -0.5475
 6116TIP3    H218271   5.682   2.603   3.137  0.9569 -0.1212 -1.2980
 6117TIP3   OH218272   1.334   2.176   2.347 -0.0444 -0.0434  0.6737
 6117TIP3    H118273   1.293   2.263   2.353  2.1216  1.1444 -0.5654
 6117TIP3    H218274   1.419   2.187   2.389  0.9230 -1.0940 -0.9194
 6118TIP3   OH218275   5.065   6.836   6.200 -0.1519  0.2180  0.0098
 6118TIP3    H118276   4.979   6.875   6.218  0.0164  0.0089  1.3818
 6118TIP3    H218277   5.072   6.764   6.262  0.1213 -1.1634 -1.5640
 6119TIP3   OH218278   4.707   1.841   1.370  0.2593  0.8865 -0.2456
 6119TIP3    H118279   4.678   1.901   1.301  2.8616  1.9202 -0.5504
 6119TIP3    H218280   4.676   1.881   1.451 -0.7222  0.9604 -0.6494
 6120TIP3   OH218281   8.554   3.272   3.769  0.0141  0.2882  0.0662
 6120TIP3    H118282   8.636   3.282   3.721 -1.0231  1.0238 -1.6595
 6120TIP3    H218283   8.552   3.180   3.796  1.5778  0.3652  0.5326
 6121TIP3   OH218284   2.547   8.052   3.438  0.6321 -0.2866  0.4445
 6121TIP3    H118285   2.530   7.958   3.443 -1.3622  0.0627  1.6297
 6121TIP3    H218286   2.467   8.089   3.400  1.2252  0.9542  0.3606
 6122TIP3   OH218287   4.255   2.299   0.720 -0.1309 -0.6614  0.1524
 6122TIP3    H118288   4.201   2.282   0.798 -0.5851 -1.9344 -0.4030
 6122TIP3    H218289   4.332   2.344   0.754 -0.8897 -0.0658  1.1599
 6123TIP3   OH218290   3.937   2.360   3.934  0.1566 -0.2103 -0.3756
 6123TIP3    H118291   4.022   2.402   3.924  0.2212 -0.1852  0.2522
 6123TIP3    H218292   3.926   2.348   4.029  0.8529 -3.0575 -0.5461
 6124TIP3   OH218293   8.442   6.570   2.716  0.0208  0.0905  0.9401
 6124TIP3    H118294   8.522   6.610   2.682  0.5586 -0.2868  1.7263
 6124TIP3    H218295   8.441   6.482   2.679 -1.1366  0.7662 -0.7505
 6125TIP3   OH218296   3.289   1.717   0.591  0.5277 -0.2990  0.2037
 6125TIP3    H118297   3.320   1.715   0.500 -1.1246 -0.2862 -0.3943
 6125TIP3    H218298   3.241   1.635   0.602  0.4240 -0.1454  0.9551
 6126TIP3   OH218299   5.422   6.637   4.498 -0.4171 -0.1514 -0.2313
 6126TIP3    H118300   5.370   6.607   4.572 -0.9709  0.6829 -0.2657
 6126TIP3    H218301   5.396   6.729   4.486  1.7472  0.6052  0.3622
 6127TIP3   OH218302   3.518   2.318   0.672 -0.1002  0.6152  0.3722
 6127TIP3    H118303   3.504   2.228   0.644  1.5635  0.0956  1.0956
 6127TIP3    H218304   3.493   2.319   0.765 -1.9801  1.4040 -0.1062
 6128TIP3   OH218305   3.115   3.780   0.164  0.3322  0.1406 -0.5342
 6128TIP3    H118306   3.156   3.864   0.182  1.4878 -0.5285  0.1245
 6128TIP3    H218307   3.099   3.742   0.251  2.0099 -1.2994 -0.7948
 6129TIP3   OH218308   2.845   2.062   0.112  1.2657  0.2635 -0.2601
 6129TIP3    H118309   2.851   1.975   0.073 -1.7273 -0.0898 -0.0940
 6129TIP3    H218310   2.848   2.122   0.038 -1.0687 -0.2456 -0.8153
 6130TIP3   OH218311   8.673   6.252   5.476 -0.4893  0.1272  0.1481
 6130TIP3    H118312   8.610   6.301   5.422 -1.0185  0.0297  0.6721
 6130TIP3    H218313   8.621   6.186   5.520  0.1737 -0.7322 -0.3168
 6131TIP3   OH218314   7.654   4.382   1.553  0.3380  0.0512  0.0149
 6131TIP3    H118315   7.703   4.460   1.579  2.6949 -1.0036 -0.9089
 6131TIP3    H218316   7.668   4.375   1.458 -0.4362 -1.0797 -0.0407
 6132TIP3   OH218317   1.711   6.961   0.887 -0.0644 -0.3731 -0.6761
 6132TIP3    H118318   1.687   6.868   0.883  0.9976 -0.6781 -0.3451
 6132TIP3    H218319   1.787   6.963   0.945 -0.9611  0.9019  0.5135
 6133TIP3   OH218320   2.597   4.785   0.099 -0.6298  0.5776  0.0086
 6133TIP3    H118321   2.560   4.789   0.010  1.1768  0.9568 -0.7621
 6133TIP3    H218322   2.599   4.876   0.128 -0.3720  0.5511  0.0746
 6134TIP3   OH218323   5.346   3.071   6.013  0.0422 -0.3748 -0.2759
 6134TIP3    H118324   5.398   2.991   6.022  0.6864  0.0349 -0.2918
 6134TIP3    H218325   5.312   3.068   5.923 -0.1150 -0.7354 -0.2045
 6135TIP3   OH218326   7.576   3.196   6.149 -0.1267 -0.2120 -0.1965
 6135TIP3    H118327   7.640   3.196   6.221 -0.3996 -0.0610  0.0492
 6135TIP3    H218328   7.619   3.147   6.079 -0.5331 -1.9350  0.6821
 6136TIP3   OH218329   3.234   3.209   2.412  1.0666  0.4467 -0.3095
 6136TIP3    H118330   3.287   3.145   2.459 -0.6209 -1.3166 -0.6651
 6136TIP3    H218331   3.170   3.156   2.364 -0.8121  2.4223 -0.1309
 6137TIP3   OH218332   4.913   1.805   6.937  0.2033  0.2196  0.0103
 6137TIP3    H118333   4.902   1.855   7.018  0.5653 -0.4956  0.5072
 6137TIP3    H218334   4.988   1.846   6.894  0.3018  0.3051  0.2613
 6138TIP3   OH218335   2.309   2.934   2.434 -0.6287 -0.2808  0.4198
 6138TIP3    H118336   2.346   2.873   2.498  1.2851 -0.4803 -0.7976
 6138TIP3    H218337   2.376   3.001   2.424 -0.2982 -0.8815 -2.2076
 6139TIP3   OH218338   5.469   4.638   6.623  0.1643 -0.1240  0.3622
 6139TIP3    H118339   5.474   4.618   6.529  0.6452 -0.7454  0.5079
 6139TIP3    H218340   5.468   4.552   6.665  0.0235  0.1508  0.9302
 6140TIP3   OH218341   1.602   1.277   1.559  0.5162  0.5932 -0.1417
 6140TIP3    H118342   1.664   1.256   1.489 -1.1292  0.1207 -1.5179
 6140TIP3    H218343   1.565   1.362   1.533 -0.0872  0.4324  0.1687
 6141TIP3   OH218344   1.086   6.139   5.116  0.2315 -0.1877  0.2493
 6141TIP3    H118345   1.086   6.054   5.159  0.9571  0.1213  0.8764
 6141TIP3    H218346   0.999   6.174   5.132 -0.1952 -0.9527 -0.3178
 6142TIP3   OH218347   5.771   0.208   4.725 -0.3799 -0.0102  0.2382
 6142TIP3    H118348   5.843   0.161   4.683  1.9282  2.1106  1.5108
 6142TIP3    H218349   5.787   0.197   4.819 -1.6980  0.5759  0.5559
 6143TIP3   OH218350   2.388   6.563   0.417 -0.0912  0.2887 -0.0828
 6143TIP3    H118351   2.372   6.641   0.469 -1.1414 -0.1236  0.2425
 6143TIP3    H218352   2.452   6.513   0.468  1.5093  1.4414 -0.8536
 6144TIP3   OH218353   2.305   6.895   5.945  0.4149 -0.0735  0.6312
 6144TIP3    H118354   2.262   6.844   5.875 -1.4828  0.4775  1.3436
 6144TIP3    H218355   2.360   6.957   5.898 -2.5874  1.8942 -0.6247
 6145TIP3   OH218356   8.196   5.859   2.627  0.2567 -0.0697 -0.2885
 6145TIP3    H118357   8.102   5.849   2.616  0.1237  0.7558  0.0640
 6145TIP3    H218358   8.217   5.942   2.584  0.4115  0.9890  1.7107
 6146TIP3   OH218359   1.885   3.969   6.102 -0.2799  0.0385 -0.9253
 6146TIP3    H118360   1.883   3.960   6.006 -0.6506 -0.3666 -0.8830
 6146TIP3    H218361   1.977   3.982   6.123 -0.3281  1.3672 -1.4443
 6147TIP3   OH218362   6.826   4.499   6.661 -0.1803 -0.0338 -0.1105
 6147TIP3    H118363   6.774   4.424   6.631  1.4868 -0.4509 -2.2228
 6147TIP3    H218364   6.907   4.460   6.693  0.2586  0.8059 -0.1778
 6148TIP3   OH218365   6.541   1.325   4.820  0.0940 -0.3520 -0.3877
 6148TIP3    H118366   6.569   1.386   4.751  2.4264 -0.6385  0.2106
 6148TIP3    H218367   6.487   1.261   4.775  1.2112 -0.2929 -1.8923
 6149TIP3   OH218368   6.933   4.460   5.630 -0.4286  0.0914  0.1429
 6149TIP3    H118369   6.884   4.380   5.613 -0.8031  0.5809 -1.2406
 6149TIP3    H218370   6.869   4.531   5.620 -0.0346  0.5930  1.0267
 6150TIP3   OH218371   4.108   3.080   3.839  0.3965  0.4085  0.0911
 6150TIP3    H118372   4.179   3.138   3.812  0.8245 -0.9755 -2.0401
 6150TIP3    H218373   4.080   3.037   3.757 -1.1393 -1.0038  1.2785
 6151TIP3   OH218374   0.979   4.228   4.826 -0.6377 -0.6893  0.2052
 6151TIP3    H118375   1.064   4.186   4.810 -0.7108 -0.8632  0.2619
 6151TIP3    H218376   0.952   4.261   4.740  0.7442  1.8129  0.6366
 6152TIP3   OH218377   2.370   1.075   0.342 -0.5704 -0.4723 -0.2414
 6152TIP3    H118378   2.279   1.058   0.368 -1.4234  1.8659 -1.4116
 6152TIP3    H218379   2.371   1.167   0.316  1.8652 -0.7550 -1.4403
 6153TIP3   OH218380   1.565   1.657   3.340 -0.7458  0.3017  0.3755
 6153TIP3    H118381   1.514   1.592   3.388 -1.7020 -1.1069 -2.2834
 6153TIP3    H218382   1.656   1.630   3.350 -0.8659  0.3643  1.7501
 6154TIP3   OH218383   4.748   7.100   0.960  0.1138  0.5566 -0.1471
 6154TIP3    H118384   4.750   7.017   0.912 -1.4142  0.5424 -0.2555
 6154TIP3    H218385   4.747   7.167   0.891  2.0194  0.7206 -0.0539
 6155TIP3   OH218386   2.466   5.403   5.245  0.1091  0.0130  0.4789
 6155TIP3    H118387   2.470   5.489   5.201  0.1072 -1.1261 -1.9485
 6155TIP3    H218388   2.466   5.424   5.338 -1.1658  2.7080 -0.0160
 6156TIP3   OH218389   7.447   0.894   5.688  0.3315  0.2838  0.2429
 6156TIP3    H118390   7.491   0.876   5.771  2.4167  0.0113 -0.8502
 6156TIP3    H218391   7.517   0.929   5.632 -0.7157 -0.7580 -1.7979
 6157TIP3   OH218392   8.567   7.725   1.040  0.7929 -0.0121  0.3433
 6157TIP3    H118393   8.594   7.647   1.088  0.4438 -0.2070  0.2240
 6157TIP3    H218394   8.476   7.709   1.017  0.1628  1.1766  1.8517
 6158TIP3   OH218395   3.525   7.110   0.559  0.0806  0.0238  0.1296
 6158TIP3    H118396   3.506   7.202   0.540 -0.4467  0.5555  2.8925
 6158TIP3    H218397   3.609   7.112   0.605 -0.3318 -0.7670  0.9459
 6159TIP3   OH218398   5.678   6.330   6.121 -1.0219  0.7167 -0.0875
 6159TIP3    H118399   5.592   6.292   6.137 -1.2918  1.6498  0.8422
 6159TIP3    H218400   5.712   6.284   6.044 -2.6082  0.7740 -0.8507
 6160TIP3   OH218401   3.208   4.475   6.107 -0.3741  0.5038 -0.5074
 6160TIP3    H118402   3.267   4.465   6.033  0.9424  1.5363  0.3601
 6160TIP3    H218403   3.265   4.490   6.182 -1.6636 -0.6743  0.7676
 6161TIP3   OH218404   3.453   6.861   6.687  0.0767 -0.1566  0.6081
 6161TIP3    H118405   3.363   6.856   6.654  0.7177 -2.2632 -1.0876
 6161TIP3    H218406   3.443   6.860   6.782 -1.7108 -0.4271  0.4721
 6162TIP3   OH218407   2.011   4.467   6.912 -0.1040  0.7902 -1.0928
 6162TIP3    H118408   1.943   4.400   6.921 -0.9238  1.4689 -2.0330
 6162TIP3    H218409   2.030   4.471   6.818 -0.7105  2.4721 -1.1804
 6163TIP3   OH218410   6.814   6.896   6.794  0.2952 -0.1841  0.4843
 6163TIP3    H118411   6.768   6.975   6.822  0.3582  0.3831 -0.9416
 6163TIP3    H218412   6.906   6.922   6.791  0.3866 -0.4907  0.6178
 6164TIP3   OH218413   3.971   5.547   5.297 -0.1173 -0.3028 -0.1941
 6164TIP3    H118414   3.999   5.528   5.387  0.0343 -2.5025 -0.6549
 6164TIP3    H218415   3.877   5.566   5.305 -0.3279 -1.4850  0.3338
 6165TIP3   OH218416   6.306   4.908   1.976  0.1749 -0.4729  0.4465
 6165TIP3    H118417   6.217   4.871   1.977 -0.4197  0.8376  1.9178
 6165TIP3    H218418   6.302   4.977   1.909 -0.8177  1.4089  2.3059
 6166TIP3   OH218419   5.557   4.287   5.453 -0.2017  0.7747 -0.0089
 6166TIP3    H118420   5.468   4.276   5.420  0.3310 -1.7531 -0.8045
 6166TIP3    H218421   5.611   4.297   5.375  0.6529 -1.8909  0.1324
 6167TIP3   OH218422   4.962   7.449   0.906 -0.1994  0.3503  0.2196
 6167TIP3    H118423   4.927   7.538   0.899 -0.2860  0.2550 -0.7169
 6167TIP3    H218424   4.943   7.409   0.820 -0.0500 -0.5266  0.5816
 6168TIP3   OH218425   3.744   7.425   6.732  0.3292  0.0986  0.2944
 6168TIP3    H118426   3.709   7.461   6.813 -0.2102  0.0802  0.0710
 6168TIP3    H218427   3.830   7.467   6.723  0.9523 -0.8452  1.5266
 6169TIP3   OH218428   1.630   2.235   5.252 -0.3679 -0.0313  0.3038
 6169TIP3    H118429   1.588   2.164   5.302  0.4634 -0.4984  0.3502
 6169TIP3    H218430   1.671   2.191   5.178 -0.7824  0.5481 -0.2720
 6170TIP3   OH218431   2.968   5.829   4.776 -0.1511 -0.1310 -0.1493
 6170TIP3    H118432   2.912   5.802   4.704 -1.8627 -1.5613  1.6183
 6170TIP3    H218433   3.040   5.766   4.775  0.1132  0.1692 -0.8912
 6171TIP3   OH218434   4.158   2.630   2.146  0.0161  0.4104 -0.1584
 6171TIP3    H118435   4.070   2.599   2.122  0.3200 -0.0143 -0.7425
 6171TIP3    H218436   4.153   2.725   2.139  0.1631  0.2980 -2.1609
 6172TIP3   OH218437   5.159   5.182   6.389 -0.0760  0.6930 -0.2765
 6172TIP3    H118438   5.131   5.267   6.355  0.4211  0.7118 -0.6537
 6172TIP3    H218439   5.078   5.131   6.396 -0.1613  0.5524 -1.8733
 6173TIP3   OH218440   7.624   5.158   0.090  0.1795 -0.2647 -0.7191
 6173TIP3    H118441   7.603   5.223   0.023  0.0462 -0.9199 -1.3243
 6173TIP3    H218442   7.635   5.076   0.042  1.3662 -0.4996 -0.0906
 6174TIP3   OH218443   3.289   3.802   3.490  0.8774 -0.1222 -0.3305
 6174TIP3    H118444   3.324   3.884   3.453  0.8432  0.3591  0.6697
 6174TIP3    H218445   3.213   3.830   3.541  0.4226 -0.8798 -0.5905
 6175TIP3   OH218446   0.440   3.509   5.770 -0.6441  0.0585 -0.6746
 6175TIP3    H118447   0.451   3.441   5.837  1.0704  0.9608  0.0377
 6175TIP3    H218448   0.346   3.527   5.769 -0.7876 -0.2917  1.2224
 6176TIP3   OH218449   5.860   4.225   0.880 -0.0923 -0.7685 -0.1921
 6176TIP3    H118450   5.941   4.274   0.896 -0.8887  0.4776  0.1322
 6176TIP3    H218451   5.843   4.238   0.786 -0.7554  0.3313  0.0614
 6177TIP3   OH218452   2.889   6.340   3.543 -0.0712 -0.6744  0.4672
 6177TIP3    H118453   2.806   6.363   3.499  0.6604  0.3827 -0.4140
 6177TIP3    H218454   2.878   6.373   3.633 -0.0830  0.7831 -0.0378
 6178TIP3   OH218455   4.227   5.871   0.347  0.5826  0.6394  0.0137
 6178TIP3    H118456   4.230   5.962   0.316 -0.0213  0.6667  0.0335
 6178TIP3    H218457   4.198   5.878   0.438  2.7445  0.5959  0.7769
 6179TIP3   OH218458   3.205   7.650   1.164  0.4626  0.2922 -0.3882
 6179TIP3    H118459   3.209   7.594   1.242  0.9781 -1.4097 -1.5686
 6179TIP3    H218460   3.174   7.591   1.095 -0.0071  1.7670 -1.4711
 6180TIP3   OH218461   5.944   8.121   1.781 -0.1553 -0.3112  0.1655
 6180TIP3    H118462   5.949   8.094   1.689 -0.3502  0.0894  0.0364
 6180TIP3    H218463   5.994   8.202   1.785 -0.5671 -0.0635  0.3131
 6181TIP3   OH218464   6.132   1.711   1.049 -0.2836  0.2172 -0.3900
 6181TIP3    H118465   6.126   1.654   1.125 -0.5973  1.7122  0.7501
 6181TIP3    H218466   6.214   1.759   1.061 -0.5577  0.7924 -0.7502
 6182TIP3   OH218467   3.317   0.553   4.687 -0.4030 -0.4577  0.0355
 6182TIP3    H118468   3.285   0.642   4.703 -0.5365 -0.8885  2.4326
 6182TIP3    H218469   3.344   0.554   4.595 -0.5923  1.9929 -0.0602
 6183TIP3   OH218470   2.179   7.250   0.170 -0.0487  0.0405 -0.1712
 6183TIP3    H118471   2.218   7.252   0.257 -1.6081  2.1934  0.5648
 6183TIP3    H218472   2.128   7.169   0.169  0.4912 -0.3282  0.6776
 6184TIP3   OH218473   8.158   5.950   3.378  0.4696  0.1961 -0.5439
 6184TIP3    H118474   8.116   5.992   3.453  2.3497  1.5229 -0.1536
 6184TIP3    H218475   8.239   5.913   3.413  1.1566  0.4288 -1.8031
 6185TIP3   OH218476   4.193   2.310   3.081 -0.3045 -0.0057 -0.3076
 6185TIP3    H118477   4.264   2.254   3.049 -1.0485  0.1779 -2.4944
 6185TIP3    H218478   4.207   2.393   3.036 -3.0799 -0.6357 -2.6782
 6186TIP3   OH218479   1.307   1.450  -0.011 -0.0243 -0.3958  0.9548
 6186TIP3    H118480   1.301   1.427   0.082  0.0833 -0.8773  0.8448
 6186TIP3    H218481   1.324   1.367  -0.055 -3.6533 -0.8750  0.1264
 6187TIP3   OH218482   4.598   3.630   3.257 -0.6999 -0.6848  0.2415
 6187TIP3    H118483   4.543   3.641   3.179  0.3456 -0.6723 -0.5184
 6187TIP3    H218484   4.594   3.714   3.302  0.9757  0.3311 -1.3597
 6188TIP3   OH218485   7.875   0.084   5.520  0.3256 -0.0530  0.2400
 6188TIP3    H118486   7.886   0.121   5.432 -1.6589 -0.4231 -0.2163
 6188TIP3    H218487   7.894   0.156   5.579 -0.7531  0.9321 -0.5717
 6189TIP3   OH218488   7.834   2.245   2.822  0.3317 -0.2904 -0.2638
 6189TIP3    H118489   7.924   2.261   2.792  0.4591 -1.0835 -0.3078
 6189TIP3    H218490   7.843   2.195   2.903 -0.0748 -0.6484 -0.4352
 6190TIP3   OH218491   4.279   3.892   1.125 -0.0106  0.3375  0.1309
 6190TIP3    H118492   4.218   3.829   1.164  0.2101 -0.3988 -0.6848
 6190TIP3    H218493   4.238   3.917   1.042  1.4672 -1.3872 -1.2219
 6191TIP3   OH218494   3.860   5.750   3.459  0.0185 -0.0266  0.2290
 6191TIP3    H118495   3.832   5.718   3.545 -1.2466 -1.1920 -0.5729
 6191TIP3    H218496   3.782   5.792   3.423  0.3674 -0.0595 -0.5830
 6192TIP3   OH218497   2.390   1.701   0.079  0.2238 -0.2488 -0.7300
 6192TIP3    H118498   2.484   1.713   0.066 -0.0668  1.9771 -1.1733
 6192TIP3    H218499   2.354   1.692  -0.009 -0.0287 -0.8499 -0.5758
 6193TIP3   OH218500   7.558   1.830   5.220 -0.3126 -0.5217  0.3498
 6193TIP3    H118501   7.615   1.807   5.292 -0.4564 -0.7777  0.3803
 6193TIP3    H218502   7.602   1.905   5.178  0.9733 -1.8081 -0.7204
 6194TIP3   OH218503   3.712   2.346   4.753 -0.0628  0.7226  0.0870
 6194TIP3    H118504   3.659   2.425   4.741 -0.3152  0.4537 -0.6181
 6194TIP3    H218505   3.757   2.335   4.669  2.8190  2.1622  1.2939
 6195TIP3   OH218506   7.071   5.381   4.559 -0.6728  0.2079  0.7664
 6195TIP3    H118507   7.010   5.328   4.506  0.2726  0.7063 -0.8911
 6195TIP3    H218508   7.085   5.460   4.507  0.3296  0.7102  1.7715
 6196TIP3   OH218509   8.401   4.585   0.107  0.0544 -0.1855  0.0544
 6196TIP3    H118510   8.340   4.553   0.174 -0.1794  0.2137  0.0335
 6196TIP3    H218511   8.345   4.628   0.042  0.3053 -0.3337 -0.2668
 6197TIP3   OH218512   0.414   8.107   3.956  0.5433  0.1571 -0.1608
 6197TIP3    H118513   0.469   8.036   3.922  1.1204  1.0701 -1.2160
 6197TIP3    H218514   0.407   8.169   3.883 -0.4315  0.9095  0.5415
 6198TIP3   OH218515   4.452   4.358   5.635 -0.0397 -0.3245  0.0502
 6198TIP3    H118516   4.388   4.426   5.659  2.5068  1.1807  3.4736
 6198TIP3    H218517   4.496   4.393   5.557 -2.2112 -0.6665 -1.4098
 6199TIP3   OH218518   3.312   7.916   6.609  0.0928  0.3522  0.1955
 6199TIP3    H118519   3.388   7.858   6.613 -0.7321 -0.7764  0.4051
 6199TIP3    H218520   3.244   7.862   6.567 -1.1658  0.5974  1.8067
 6200TIP3   OH218521   2.726   0.520   2.281  0.0964 -0.1633  0.0331
 6200TIP3    H118522   2.761   0.463   2.350 -1.9081  1.0387  2.2206
 6200TIP3    H218523   2.764   0.606   2.300  1.1204 -0.1766 -1.7041
 6201TIP3   OH218524   7.205   0.284   0.580  0.1934 -0.8776  0.2135
 6201TIP3    H118525   7.227   0.212   0.522  0.6518  2.1868 -3.8582
 6201TIP3    H218526   7.116   0.309   0.554  1.2742  2.0470 -1.0517
 6202TIP3   OH218527   3.315   5.887   3.371 -0.2864 -0.1987 -0.1899
 6202TIP3    H118528   3.279   5.901   3.459  0.0725  0.0415 -0.0807
 6202TIP3    H218529   3.316   5.974   3.332 -3.0628 -0.6210 -1.4706
 6203TIP3   OH218530   7.812   4.960  -0.001 -0.3793  0.2306  0.2496
 6203TIP3    H118531   7.867   5.037   0.011  1.9529 -1.4981  1.4536
 6203TIP3    H218532   7.813   4.916   0.084 -0.8095 -1.6151 -0.6277
 6204TIP3   OH218533   6.161   6.278   0.942  1.0224 -0.4803 -0.1290
 6204TIP3    H118534   6.183   6.192   0.976 -0.3480 -1.1368 -0.8149
 6204TIP3    H218535   6.124   6.325   1.017 -1.5044 -1.7367 -0.4870
 6205TIP3   OH218536   7.670   6.232   1.392 -0.2135  0.0342 -0.1705
 6205TIP3    H118537   7.585   6.237   1.437  0.0979 -0.1039  0.4343
 6205TIP3    H218538   7.735   6.232   1.462  0.3410  1.1715 -0.6597
 6206TIP3   OH218539   4.596   4.394   2.602 -0.3787 -0.0910 -0.3896
 6206TIP3    H118540   4.633   4.351   2.679 -0.2461  0.1880 -0.2971
 6206TIP3    H218541   4.655   4.369   2.530 -0.1817  0.1006 -0.2982
 6207TIP3   OH218542   0.678   1.159   0.219 -0.1438 -0.2842  0.0232
 6207TIP3    H118543   0.600   1.194   0.262 -0.4215 -0.1311 -0.5985
 6207TIP3    H218544   0.742   1.231   0.223 -0.2179 -0.2204  0.0608
 6208TIP3   OH218545   5.567   2.145   3.290 -0.1880  0.1489 -0.2858
 6208TIP3    H118546   5.644   2.196   3.266 -0.5729  0.0613 -1.7863
 6208TIP3    H218547   5.497   2.210   3.298 -0.1036  0.1550  0.4412
 6209TIP3   OH218548   6.541   6.037   4.176 -0.2513 -0.4946 -0.4583
 6209TIP3    H118549   6.523   6.128   4.149 -2.8702 -0.2927  1.5706
 6209TIP3    H218550   6.615   6.011   4.122 -0.8890  2.0633 -2.8271
 6210TIP3   OH218551   2.511   0.404   1.383  1.0140 -0.3386 -0.0673
 6210TIP3    H118552   2.591   0.405   1.330  0.6505 -1.6712 -0.7053
 6210TIP3    H218553   2.525   0.333   1.445  0.3723 -0.5244 -0.1263
 6211TIP3   OH218554   7.859   1.263   5.452 -0.4228  0.0997  0.2364
 6211TIP3    H118555   7.933   1.201   5.445  0.4892  1.1898 -0.0811
 6211TIP3    H218556   7.815   1.256   5.368 -0.3152 -0.1040  0.1953
 6212TIP3   OH218557   3.985   7.670   6.076  0.1093 -0.0704  0.5454
 6212TIP3    H118558   4.074   7.699   6.097  0.3981 -0.0347 -0.6796
 6212TIP3    H218559   3.997   7.588   6.027 -0.5008  0.1845 -0.0462
 6213TIP3   OH218560   2.151   1.762   0.629  0.5786  0.2431  0.0223
 6213TIP3    H118561   2.168   1.850   0.660 -0.2779  0.1841  0.6778
 6213TIP3    H218562   2.129   1.773   0.536 -0.4684  0.8403  0.3265
 6214TIP3   OH218563   4.140   5.543   0.797  0.2265 -0.3586  0.0030
 6214TIP3    H118564   4.074   5.489   0.753 -2.2944  1.1470  1.7031
 6214TIP3    H218565   4.207   5.480   0.824 -0.8186 -2.0881 -1.2081
 6215TIP3   OH218566   0.278   6.609   6.776 -0.5995 -0.3650 -0.1583
 6215TIP3    H118567   0.340   6.580   6.843 -0.5178 -0.1030 -0.1184
 6215TIP3    H218568   0.234   6.529   6.747 -0.3309 -0.5351 -0.0977
 6216TIP3   OH218569   4.895   6.486   4.959  0.7150  0.0648  0.4840
 6216TIP3    H118570   4.845   6.555   4.916  0.2262  0.9273  2.3765
 6216TIP3    H218571   4.836   6.410   4.958 -0.5334  0.9438  2.2957
 6217TIP3   OH218572   6.692   2.899   5.693 -0.1547 -0.1891  0.2542
 6217TIP3    H118573   6.637   2.827   5.722 -0.3018 -0.3977 -0.5370
 6217TIP3    H218574   6.641   2.978   5.712 -1.1661 -0.4252 -1.3949
 6218TIP3   OH218575   0.547   4.645   6.251 -0.2422  0.1126  0.3965
 6218TIP3    H118576   0.490   4.676   6.180 -1.2757 -0.9341  0.7223
 6218TIP3    H218577   0.635   4.651   6.216 -0.5369  1.7434 -0.1515
 6219TIP3   OH218578   5.252   0.573   5.159  0.2756 -0.1656 -0.0027
 6219TIP3    H118579   5.169   0.527   5.157  0.0273  0.2031  1.0013
 6219TIP3    H218580   5.234   0.659   5.120  0.6826 -0.7957 -1.6554
 6220TIP3   OH218581   1.258   6.289   1.393 -0.2856  0.0471 -0.2299
 6220TIP3    H118582   1.342   6.243   1.395 -1.5971 -2.5334 -0.7597
 6220TIP3    H218583   1.217   6.267   1.477 -1.0447  0.0150 -0.6000
 6221TIP3   OH218584   0.774   5.751   2.800 -0.1253  0.7539  0.2711
 6221TIP3    H118585   0.800   5.842   2.785  2.5006  0.0011 -0.1204
 6221TIP3    H218586   0.819   5.701   2.732 -1.6771 -0.8564  0.3417
 6222TIP3   OH218587   0.189   8.144   6.518 -0.8677  0.5162  0.3019
 6222TIP3    H118588   0.155   8.118   6.604  0.2622 -0.2443  0.5514
 6222TIP3    H218589   0.181   8.065   6.465  0.3428  0.3357  0.3414
 6223TIP3   OH218590   3.382   0.928   5.305 -0.3123  0.2522  0.0034
 6223TIP3    H118591   3.475   0.911   5.289 -0.2771 -0.2719  0.7328
 6223TIP3    H218592   3.337   0.872   5.242 -0.1690  2.9326 -2.7539
 6224TIP3   OH218593   0.306   7.253   4.352 -0.3952  0.5156  0.4971
 6224TIP3    H118594   0.386   7.303   4.339 -0.7899  0.8233 -1.0451
 6224TIP3    H218595   0.272   7.282   4.436  0.4799  1.2846  0.5907
 6225TIP3   OH218596   1.182   7.027   6.825 -0.2353  0.0328 -0.4880
 6225TIP3    H118597   1.254   6.997   6.881 -1.1756 -0.6223  0.4110
 6225TIP3    H218598   1.164   7.116   6.855  1.6947  1.1094 -2.2810
 6226TIP3   OH218599   7.244   7.817   3.757 -0.1114 -0.2417  0.5143
 6226TIP3    H118600   7.213   7.856   3.676  1.6072  0.6724  0.2512
 6226TIP3    H218601   7.164   7.797   3.806 -1.2307 -1.4710 -1.6448
 6227TIP3   OH218602   7.229   1.112   6.080 -0.1327 -0.1106 -0.3397
 6227TIP3    H118603   7.199   1.152   5.999 -0.8061 -2.0788 -1.0986
 6227TIP3    H218604   7.324   1.111   6.073 -0.1594  0.3122 -0.7987
 6228TIP3   OH218605   4.819   5.994   3.530  0.0160  0.3571  0.1309
 6228TIP3    H118606   4.876   6.000   3.454  0.6343  2.6223  0.6982
 6228TIP3    H218607   4.731   6.009   3.495  0.1701  0.2908 -0.2926
 6229TIP3   OH218608   0.522   0.473   1.268 -0.9132  0.4409  0.3217
 6229TIP3    H118609   0.574   0.549   1.292 -1.4745  0.5538  1.2142
 6229TIP3    H218610   0.547   0.406   1.331 -0.3542 -0.1596 -0.5162
 6230TIP3   OH218611   8.374   7.749   5.634  0.1306  0.2400 -0.6007
 6230TIP3    H118612   8.309   7.811   5.665 -0.2708  0.3433 -1.5976
 6230TIP3    H218613   8.456   7.798   5.632 -0.0798  0.5855 -0.8586
 6231TIP3   OH218614   4.017   5.268   6.283  0.6198 -0.2253 -0.4020
 6231TIP3    H118615   4.092   5.220   6.248  0.2309 -0.4446 -0.9446
 6231TIP3    H218616   4.038   5.282   6.375  1.8216  0.6879 -0.8030
 6232TIP3   OH218617   7.164   5.876   3.828 -0.1970 -0.0792 -0.0400
 6232TIP3    H118618   7.096   5.931   3.790  0.0330  0.0927 -0.2089
 6232TIP3    H218619   7.173   5.802   3.769 -2.0868 -1.5000  1.3399
 6233TIP3   OH218620   5.563   6.464   4.758 -0.1692 -0.2505  0.1471
 6233TIP3    H118621   5.589   6.545   4.803 -0.2208  0.5329 -1.1602
 6233TIP3    H218622   5.479   6.486   4.717  0.5425 -0.4206 -1.4979
 6234TIP3   OH218623   4.660   6.140   2.495 -0.5632  0.1686  0.4192
 6234TIP3    H118624   4.739   6.161   2.445 -0.4568 -1.1078  0.0067
 6234TIP3    H218625   4.669   6.188   2.577  0.0587  0.9853 -0.1208
 6235TIP3   OH218626   7.548   1.495   1.468  0.1938  0.4891  0.3038
 6235TIP3    H118627   7.605   1.423   1.493  0.0294  0.2970  0.1253
 6235TIP3    H218628   7.468   1.481   1.517  0.3875  0.8986  0.7460
 6236TIP3   OH218629   5.910   7.565   3.404  0.0443  0.7670  0.0611
 6236TIP3    H118630   5.984   7.506   3.399 -0.7250 -0.1553 -1.0531
 6236TIP3    H218631   5.865   7.542   3.484  0.2317  0.4363  0.0704
 6237TIP3   OH218632   7.860   1.433   1.219  0.3463  0.6972 -0.2594
 6237TIP3    H118633   7.887   1.414   1.309  0.0415  0.2826 -0.2533
 6237TIP3    H218634   7.782   1.379   1.205  0.8332  0.1692 -1.0232
 6238TIP3   OH218635   8.128   3.102   5.507 -0.2784 -0.2164  0.0339
 6238TIP3    H118636   8.129   3.053   5.589  0.3944 -0.0775  0.1117
 6238TIP3    H218637   8.133   3.194   5.533 -0.8327 -0.1336 -0.1382
 6239TIP3   OH218638   3.662   3.983   4.696  0.3815 -0.5025 -0.1459
 6239TIP3    H118639   3.606   3.998   4.773  1.4352  0.7760  0.4231
 6239TIP3    H218640   3.734   3.930   4.729 -0.8621 -2.8908 -1.0729
 6240TIP3   OH218641   3.542   3.302   4.535 -0.1307 -0.0084  0.4884
 6240TIP3    H118642   3.521   3.391   4.505  0.3717 -0.4275 -1.2666
 6240TIP3    H218643   3.582   3.314   4.621  0.2004  1.5122  0.1560
 6241TIP3   OH218644   5.945   6.318   2.360  0.4130 -0.6432  0.0765
 6241TIP3    H118645   5.964   6.357   2.445 -0.8495 -0.3119  0.2326
 6241TIP3    H218646   6.014   6.253   2.347  1.5341  0.3892  0.6239
 6242TIP3   OH218647   3.138   2.670   4.748 -0.3407  0.2151 -0.0355
 6242TIP3    H118648   3.187   2.661   4.666  1.3241 -0.3275  0.9629
 6242TIP3    H218649   3.167   2.596   4.801 -3.2200 -0.8900  0.1974
 6243TIP3   OH218650   4.410   7.601   0.836 -0.4882  0.1162 -0.2623
 6243TIP3    H118651   4.413   7.695   0.817 -0.8221  0.2077  0.1198
 6243TIP3    H218652   4.461   7.590   0.916  1.8020 -0.4229 -1.7008
 6244TIP3   OH218653   4.043   3.632   3.897  0.0444  0.1532 -0.4449
 6244TIP3    H118654   4.133   3.643   3.926 -0.2678 -0.0005  0.6364
 6244TIP3    H218655   4.034   3.539   3.876  0.1301  0.1646 -0.5306
 6245TIP3   OH218656   3.348   2.888   0.486 -0.4248  0.6197 -0.4483
 6245TIP3    H118657   3.351   2.980   0.461 -4.4442  1.3055  0.7914
 6245TIP3    H218658   3.368   2.887   0.579 -1.8891  0.5570 -0.1015
 6246TIP3   OH218659   8.568   5.103   4.624  0.5147  0.4529  0.0126
 6246TIP3    H118660   8.538   5.057   4.702  0.9577  1.1287  0.5935
 6246TIP3    H218661   8.599   5.033   4.565  0.3254 -0.0478  0.5039
 6247TIP3   OH218662   6.205   0.543   6.681 -0.9759 -0.1221 -1.1658
 6247TIP3    H118663   6.188   0.516   6.772 -1.0386  2.0492 -0.4606
 6247TIP3    H218664   6.189   0.637   6.682 -0.9989 -0.0687 -3.4692
 6248TIP3   OH218665   0.952   5.119   2.795 -0.0455 -0.7839  0.0626
 6248TIP3    H118666   0.950   5.033   2.754  0.9436 -1.7250  1.9150
 6248TIP3    H218667   1.033   5.121   2.845 -0.7584  0.6611  1.2427
 6249TIP3   OH218668   6.816   5.591   2.817 -0.4671 -0.2005 -0.2696
 6249TIP3    H118669   6.902   5.596   2.860 -1.4028 -3.1645  2.2996
 6249TIP3    H218670   6.816   5.507   2.772 -2.3546 -0.7668  0.6789
 6250TIP3   OH218671   5.431   1.115   2.316 -0.5711  0.2215  0.1860
 6250TIP3    H118672   5.487   1.175   2.269 -0.8355  1.8876  1.8735
 6250TIP3    H218673   5.489   1.070   2.378 -0.5824 -0.3551 -0.2175
 6251TIP3   OH218674   4.329   4.199   2.275 -0.0003  0.2828 -0.0436
 6251TIP3    H118675   4.327   4.278   2.329  0.9966  0.4335 -0.2017
 6251TIP3    H218676   4.366   4.228   2.192  0.3871 -0.3439 -0.0994
 6252TIP3   OH218677   6.063   5.806   4.862 -0.4682  0.2558  0.2741
 6252TIP3    H118678   5.974   5.802   4.828 -0.2704 -0.8644 -0.1335
 6252TIP3    H218679   6.111   5.859   4.798 -0.0766 -1.9021 -1.3275
 6253TIP3   OH218680   3.481   7.560   5.155  0.4833 -0.0259 -0.4214
 6253TIP3    H118681   3.533   7.636   5.131  0.5548 -0.2467 -0.9981
 6253TIP3    H218682   3.443   7.530   5.072  2.1281 -1.8675 -0.5887
 6254TIP3   OH218683   3.316   0.455   5.717  0.2887 -0.1334  0.6454
 6254TIP3    H118684   3.335   0.376   5.767 -0.2412  0.3858  1.7049
 6254TIP3    H218685   3.342   0.434   5.628  2.1036 -0.7869  1.2806
 6255TIP3   OH218686   5.664   6.579   6.566  0.0080  0.0366  1.3773
 6255TIP3    H118687   5.614   6.528   6.502 -0.6622  0.5806  1.4700
 6255TIP3    H218688   5.609   6.654   6.587  1.3695  1.3217  0.5427
 6256TIP3   OH218689   1.204   1.187   1.615  0.6995  0.4266 -0.0428
 6256TIP3    H118690   1.279   1.131   1.596  1.3033  1.0628  0.3836
 6256TIP3    H218691   1.231   1.274   1.583  0.6955  0.9466  1.2869
 6257TIP3   OH218692   4.096   2.363   4.598 -0.0234  0.2384 -0.5687
 6257TIP3    H118693   4.131   2.402   4.678 -2.2345  0.6093  0.2985
 6257TIP3    H218694   4.164   2.378   4.532  0.0665  4.0059  0.1415
 6258TIP3   OH218695   5.152   4.092   1.846  0.7245 -0.0928  0.0914
 6258TIP3    H118696   5.068   4.061   1.880 -1.3396  1.4766 -3.0224
 6258TIP3    H218697   5.187   4.017   1.798  0.8704 -0.6061  0.9867
 6259TIP3   OH218698   5.057   1.045   5.335 -0.4418 -0.0703  0.3003
 6259TIP3    H118699   5.111   1.105   5.283 -2.2996  0.6333 -0.8950
 6259TIP3    H218700   5.117   1.012   5.402  1.4084  0.8318 -0.8226
 6260TIP3   OH218701   8.343   1.850   1.431  0.3235  0.6825 -0.4047
 6260TIP3    H118702   8.420   1.901   1.406  1.1698  0.9436  2.3282
 6260TIP3    H218703   8.275   1.915   1.450  0.9171  0.7996  1.5653
 6261TIP3   OH218704   6.299   3.500   5.169  0.1002  0.0290 -1.1286
 6261TIP3    H118705   6.249   3.531   5.093 -0.7073 -2.3406 -1.6714
 6261TIP3    H218706   6.288   3.405   5.167  0.8542 -0.1834  1.4403
 6262TIP3   OH218707   7.169   2.036   0.612 -0.5624  0.0523  0.2296
 6262TIP3    H118708   7.142   1.949   0.642 -0.2727 -0.3672 -0.6896
 6262TIP3    H218709   7.126   2.047   0.528 -1.9227  1.5113  1.0855
 6263TIP3   OH218710   0.746   3.613   3.314 -0.3521 -0.3198 -0.3544
 6263TIP3    H118711   0.734   3.676   3.243  1.7513  1.5063  0.7778
 6263TIP3    H218712   0.836   3.582   3.305 -0.3950 -0.8750  0.8586
 6264TIP3   OH218713   0.649   3.032   0.641  0.6179  0.3915  0.4205
 6264TIP3    H118714   0.616   2.981   0.566  1.5604 -2.4514  1.7990
 6264TIP3    H218715   0.570   3.053   0.691  0.2939 -1.2920  0.6999
 6265TIP3   OH218716   5.205   0.823   5.085  0.3196  0.4201  0.0010
 6265TIP3    H118717   5.119   0.853   5.057 -0.2238 -0.0646  1.0952
 6265TIP3    H218718   5.267   0.880   5.039 -0.4075 -1.1968 -3.3024
 6266TIP3   OH218719   6.279   3.572   0.541  0.8952 -0.3459 -0.2354
 6266TIP3    H118720   6.257   3.563   0.448  2.3857 -0.5142 -0.5966
 6266TIP3    H218721   6.314   3.487   0.566 -0.5635 -0.6689  0.8139
 6267TIP3   OH218722   4.352   6.033   0.637  0.5288 -0.4012  0.0202
 6267TIP3    H118723   4.312   5.980   0.706  1.1510  0.2289  0.8926
 6267TIP3    H218724   4.280   6.084   0.601  0.4883  0.6809  1.5384
 6268TIP3   OH218725   5.875   7.341   1.169  0.1363  0.0700 -0.4848
 6268TIP3    H118726   5.822   7.266   1.140  0.2373  0.1858 -0.9816
 6268TIP3    H218727   5.853   7.352   1.261 -1.1933  0.5084 -0.8341
 6269TIP3   OH218728   5.464   2.507   5.998  0.0738 -0.0095  0.1642
 6269TIP3    H118729   5.447   2.437   6.060  0.5974 -0.2341  0.0561
 6269TIP3    H218730   5.430   2.475   5.915  0.6967 -0.3174  0.0223
 6270TIP3   OH218731   2.469   3.834   1.579 -0.0635 -0.7895  0.1967
 6270TIP3    H118732   2.396   3.858   1.637 -1.4611  0.8306 -2.0943
 6270TIP3    H218733   2.442   3.751   1.540 -0.8012 -0.1264 -0.7486
 6271TIP3   OH218734   5.448   3.956   1.213 -0.4799 -0.3724 -0.2078
 6271TIP3    H118735   5.478   4.029   1.159  0.3548 -0.3219  0.2972
 6271TIP3    H218736   5.476   3.878   1.166  1.3371 -0.3239  0.6868
 6272TIP3   OH218737   0.295   2.864   6.011  1.2152 -0.0719 -0.3166
 6272TIP3    H118738   0.299   2.946   6.060  0.2005 -0.2915  0.1596
 6272TIP3    H218739   0.266   2.799   6.076  1.6696 -0.7367 -0.7709
 6273TIP3   OH218740   0.450   5.786   2.416 -0.1153 -0.1173  0.2473
 6273TIP3    H118741   0.503   5.857   2.378 -0.8245 -0.4557 -1.4503
 6273TIP3    H218742   0.382   5.769   2.351 -0.6200 -1.6243  1.1222
 6274TIP3   OH218743   3.351   7.604   0.504 -0.0270  0.0820  0.2684
 6274TIP3    H118744   3.413   7.533   0.518 -0.4678  0.0832  2.5451
 6274TIP3    H218745   3.267   7.570   0.535 -0.0942  1.7807  2.1858
 6275TIP3   OH218746   7.505   3.850   0.400  0.4010 -0.3293  0.0541
 6275TIP3    H118747   7.465   3.912   0.339  0.3661 -0.9785 -0.6055
 6275TIP3    H218748   7.458   3.768   0.384  1.6391 -0.9799 -0.3709
 6276TIP3   OH218749   0.838   0.577   5.490 -0.7568  0.5085 -0.1003
 6276TIP3    H118750   0.865   0.584   5.398  1.6715 -1.2794  0.3948
 6276TIP3    H218751   0.784   0.655   5.504  0.2367  1.7698 -2.5473
 6277TIP3   OH218752   1.724   3.073   0.914 -0.0519 -0.1354 -0.1177
 6277TIP3    H118753   1.736   3.078   0.819  1.2978 -0.7697 -0.0035
 6277TIP3    H218754   1.637   3.036   0.925  0.6972 -2.3950 -1.1709
 6278TIP3   OH218755   2.807   6.556   3.217  0.6634 -0.3980  0.3461
 6278TIP3    H118756   2.771   6.474   3.251  1.4111 -0.4540  1.0324
 6278TIP3    H218757   2.789   6.553   3.123  2.6014 -2.3815 -0.0306
 6279TIP3   OH218758   3.641   7.819   5.203 -0.1469 -0.2422  0.0967
 6279TIP3    H118759   3.679   7.892   5.251  1.7082  0.1175 -1.7733
 6279TIP3    H218760   3.643   7.746   5.265  0.3324  0.6547  1.1771
 6280TIP3   OH218761   7.708   4.929   1.064  0.0571  0.1961 -0.1229
 6280TIP3    H118762   7.727   4.937   0.971  0.6902 -0.7088 -0.0883
 6280TIP3    H218763   7.632   4.984   1.078 -1.5334 -1.4863 -1.6452
 6281TIP3   OH218764   8.622   3.205   5.942 -0.4814 -0.0828 -0.1313
 6281TIP3    H118765   8.564   3.150   5.889 -2.1136  0.1744  1.2659
 6281TIP3    H218766   8.639   3.152   6.020  0.9262 -0.0130 -0.3769
 6282TIP3   OH218767   8.404   4.171   3.261 -0.0845  0.1868 -0.5387
 6282TIP3    H118768   8.465   4.186   3.334  0.8328  0.5324 -1.3454
 6282TIP3    H218769   8.391   4.076   3.260 -0.6803  0.2483  0.5136
 6283TIP3   OH218770   7.325   0.506   1.329 -0.0093  0.2482 -0.0795
 6283TIP3    H118771   7.256   0.553   1.377  1.4222  1.1967  1.1481
 6283TIP3    H218772   7.281   0.430   1.291 -1.8463  1.1424  0.1547
 6284TIP3   OH218773   3.744   5.725   4.879 -0.4564 -0.1995 -0.2432
 6284TIP3    H118774   3.712   5.655   4.822 -0.3567 -0.5442  0.1172
 6284TIP3    H218775   3.727   5.806   4.831 -1.4377 -0.4105 -0.2585
 6285TIP3   OH218776   1.217   3.109   2.699 -0.1950  0.0654  0.0652
 6285TIP3    H118777   1.164   3.040   2.661  0.0223  0.1898 -0.4638
 6285TIP3    H218778   1.157   3.183   2.711  0.2531  0.9496 -2.4737
 6286TIP3   OH218779   3.787   4.099   6.175 -0.4615 -0.3639 -0.0640
 6286TIP3    H118780   3.830   4.166   6.123  0.4550  0.0438  1.1820
 6286TIP3    H218781   3.809   4.120   6.265 -1.7570 -1.2320  0.4912
 6287TIP3   OH218782   2.864   7.992   0.775 -0.0435 -0.2351  0.8054
 6287TIP3    H118783   2.833   8.047   0.703  2.4332 -0.6903 -0.7414
 6287TIP3    H218784   2.843   7.902   0.747 -1.5695 -0.2924  2.0163
 6288TIP3   OH218785   3.282   1.119   1.779  0.0105  0.1531 -0.4361
 6288TIP3    H118786   3.267   1.116   1.684 -0.4805 -1.0949 -0.3298
 6288TIP3    H218787   3.373   1.090   1.790 -0.2860 -0.7925 -0.4482
 6289TIP3   OH218788   7.468   4.128   3.235 -0.0809 -0.0415 -0.0632
 6289TIP3    H118789   7.559   4.153   3.219  0.1251 -0.6918  0.0971
 6289TIP3    H218790   7.455   4.144   3.329 -0.4386  1.0101 -0.2725
 6290TIP3   OH218791   0.029   6.200   4.337  0.3841 -0.1866  0.3489
 6290TIP3    H118792  -0.035   6.195   4.266 -0.0624  1.3452  0.5985
 6290TIP3    H218793   0.074   6.115   4.336 -0.3117 -0.5609 -1.0911
 6291TIP3   OH218794   7.223   8.186   3.853  0.1312  0.1962  0.1924
 6291TIP3    H118795   7.200   8.122   3.920  0.3063 -3.4152 -2.8805
 6291TIP3    H218796   7.147   8.189   3.795  0.5518  2.0514 -0.3461
 6292TIP3   OH218797   0.482   7.035   3.549 -0.0478 -0.2006 -0.1189
 6292TIP3    H118798   0.501   6.944   3.571 -1.0724  0.0745  2.1316
 6292TIP3    H218799   0.388   7.044   3.565  0.3533  1.6990  1.4746
 6293TIP3   OH218800   7.227   7.018   6.082  0.3110 -0.5703  0.2218
 6293TIP3    H118801   7.256   7.095   6.131 -0.6163  0.3804 -0.6815
 6293TIP3    H218802   7.165   6.974   6.140 -0.6252  0.4324 -0.0142
 6294TIP3   OH218803   2.262   1.286   2.311  0.4133  0.2617  0.9851
 6294TIP3    H118804   2.248   1.252   2.223 -0.6603  2.1447  0.3593
 6294TIP3    H218805   2.255   1.210   2.368  0.3308 -0.8752 -0.4841
 6295TIP3   OH218806   6.360   3.388   5.873  0.3400 -0.1023  0.1313
 6295TIP3    H118807   6.273   3.416   5.846  0.9597  0.5772 -1.2526
 6295TIP3    H218808   6.406   3.469   5.893  0.0764 -0.5478  2.8728
 6296TIP3   OH218809   7.555   5.409   2.200 -0.2728  0.0959  0.0226
 6296TIP3    H118810   7.563   5.385   2.108 -0.6731 -0.4004  0.1097
 6296TIP3    H218811   7.643   5.432   2.227  0.0648 -0.8872 -0.1895
 6297TIP3   OH218812   6.807   0.699   0.969 -0.3280  0.3319 -0.1836
 6297TIP3    H118813   6.793   0.744   0.886 -2.9975  2.4666  1.2685
 6297TIP3    H218814   6.878   0.747   1.011 -1.9469  2.2123  0.5698
 6298TIP3   OH218815   7.678   1.888   1.462  0.3093 -0.5207 -0.0099
 6298TIP3    H118816   7.608   1.913   1.402 -0.5946 -0.6730  0.9543
 6298TIP3    H218817   7.751   1.945   1.438 -0.5660  0.5687 -0.1802
 6299TIP3   OH218818   3.923   1.286   4.619 -0.0723  0.7405 -0.0743
 6299TIP3    H118819   3.993   1.221   4.619 -0.0934  0.7174 -0.0855
 6299TIP3    H218820   3.864   1.258   4.690 -0.4053  0.3921 -0.4802
 6300TIP3   OH218821   8.391   4.931   1.814 -0.7062 -0.0950  0.1957
 6300TIP3    H118822   8.439   5.010   1.791  1.2550 -0.6274  2.0592
 6300TIP3    H218823   8.436   4.861   1.766 -2.8944 -0.0976 -2.0386
 6301TIP3   OH218824   8.500   1.594   5.456  0.5017 -0.0160 -0.1737
 6301TIP3    H118825   8.532   1.631   5.538  1.4909 -0.1531 -0.4781
 6301TIP3    H218826   8.475   1.505   5.477 -0.0360  0.2028  0.1442
 6302TIP3   OH218827   6.879   6.361   5.549  0.3762 -0.4293  0.3239
 6302TIP3    H118828   6.937   6.285   5.553  1.1369  0.1744  1.3360
 6302TIP3    H218829   6.917   6.417   5.482 -1.7689 -2.1310 -2.5345
 6303TIP3   OH218830   5.341   0.066   4.762 -0.0142  0.6707 -0.4040
 6303TIP3    H118831   5.423   0.020   4.744  0.6181  0.9158  1.5877
 6303TIP3    H218832   5.361   0.159   4.750 -0.2728  0.6813 -0.7990
 6304TIP3   OH218833   4.017   5.567   0.164 -0.2191 -0.1950 -0.4944
 6304TIP3    H118834   4.088   5.551   0.101 -0.6556  0.2003 -1.0921
 6304TIP3    H218835   4.003   5.661   0.162  0.7710  0.0539  1.3245
 6305TIP3   OH218836   6.856   5.177   6.861  0.3141 -0.0993  0.4638
 6305TIP3    H118837   6.925   5.227   6.904 -0.0654  2.7212 -1.8499
 6305TIP3    H218838   6.893   5.155   6.775 -1.7252  2.1532 -1.1454
 6306TIP3   OH218839   7.554   0.112   0.910  0.1507 -0.0008  0.0198
 6306TIP3    H118840   7.514   0.179   0.855 -0.9770 -0.7117 -0.0595
 6306TIP3    H218841   7.480   0.056   0.937  1.1824 -1.8516 -0.7951
 6307TIP3   OH218842   5.577   6.802   1.654  0.0066  0.2893 -0.3351
 6307TIP3    H118843   5.662   6.773   1.687 -0.2865 -0.2438 -0.0391
 6307TIP3    H218844   5.587   6.897   1.644  0.3059  0.3843  0.7032
 6308TIP3   OH218845   1.586   2.684   6.113 -0.0597  0.2245  0.0163
 6308TIP3    H118846   1.527   2.635   6.055 -3.7107  0.8481  2.7913
 6308TIP3    H218847   1.628   2.617   6.167 -0.8367 -0.1201  0.2072
 6309TIP3   OH218848   8.017   5.810   1.162  0.7758 -0.2956  0.1407
 6309TIP3    H118849   7.973   5.880   1.210  0.3302 -2.2870  2.9042
 6309TIP3    H218850   8.007   5.834   1.070 -1.1943  2.1723  0.8832
 6310TIP3   OH218851   4.252   4.104   6.107  0.1571  0.2312  0.1847
 6310TIP3    H118852   4.190   4.104   6.181 -0.3348 -1.0291 -0.1905
 6310TIP3    H218853   4.196   4.105   6.029  0.6647  0.9852 -0.1801
 6311TIP3   OH218854   5.805   0.152   3.174 -0.1604  0.2819  0.3984
 6311TIP3    H118855   5.781   0.149   3.082  0.9673 -0.5121  0.1007
 6311TIP3    H218856   5.732   0.109   3.219  0.2587 -1.3528 -0.3852
 6312TIP3   OH218857   7.796   7.465   1.416 -0.0636  0.8275 -0.4257
 6312TIP3    H118858   7.860   7.535   1.431 -0.4124  1.0863 -0.1447
 6312TIP3    H218859   7.717   7.510   1.385 -0.1810  0.5248 -0.5736
 6313TIP3   OH218860   7.266   7.990   2.226 -0.1365  0.3100  0.0401
 6313TIP3    H118861   7.254   7.896   2.234 -1.9133  0.4810 -0.0593
 6313TIP3    H218862   7.268   8.006   2.132 -2.6780  0.5985 -0.0399
 6314TIP3   OH218863   2.121   0.462   0.403 -0.0864  0.1295  0.2242
 6314TIP3    H118864   2.189   0.530   0.403 -0.0843  0.1339  0.9472
 6314TIP3    H218865   2.115   0.435   0.494 -1.0644  0.1321  0.1650
 6315TIP3   OH218866   1.144   3.331   4.110  0.1730  0.5953 -0.5542
 6315TIP3    H118867   1.072   3.384   4.078 -1.0958  0.0232  1.1824
 6315TIP3    H218868   1.210   3.335   4.041 -1.3934  1.3747 -2.0705
 6316TIP3   OH218869   6.650   5.237   0.870  0.1532  0.2197 -0.3763
 6316TIP3    H118870   6.574   5.290   0.896  0.2595  0.2188 -0.0481
 6316TIP3    H218871   6.668   5.183   0.947 -0.9968 -1.5549 -1.2783
 6317TIP3   OH218872   1.193   5.172   2.159 -0.9864  0.1265 -0.5846
 6317TIP3    H118873   1.110   5.125   2.156 -1.2201  0.5616 -1.1559
 6317TIP3    H218874   1.249   5.127   2.095 -0.3734 -0.8953  0.6284
 6318TIP3   OH218875   1.197   6.507   2.655  0.0556 -0.0025  0.5591
 6318TIP3    H118876   1.210   6.595   2.691 -0.8902  1.0156 -1.4280
 6318TIP3    H218877   1.275   6.493   2.601 -0.7102  0.4695 -0.6924
 6319TIP3   OH218878   2.596   3.001   2.815 -0.2728  0.2966 -0.4956
 6319TIP3    H118879   2.547   2.943   2.873  0.1530 -1.3939 -1.7412
 6319TIP3    H218880   2.678   2.955   2.798 -0.4614  0.6174 -2.5632
 6320TIP3   OH218881   0.929   7.382   1.535  0.1068  0.1479 -0.2076
 6320TIP3    H118882   0.898   7.340   1.615 -0.3663 -0.9135 -0.9283
 6320TIP3    H218883   0.998   7.325   1.502 -0.3464  0.0776 -1.0551
 6321TIP3   OH218884   3.373   4.284   5.160 -1.1812 -0.0071  0.1749
 6321TIP3    H118885   3.417   4.199   5.159  1.9225  1.4563 -0.2030
 6321TIP3    H218886   3.401   4.324   5.242 -2.4919  0.7276  0.2861
 6322TIP3   OH218887   8.605   1.671   5.713  0.0071 -0.4491  0.4694
 6322TIP3    H118888   8.581   1.760   5.738  0.5429 -0.3580  0.6681
 6322TIP3    H218889   8.694   1.660   5.746 -0.3164 -1.3074  1.0892
 6323TIP3   OH218890   2.234   2.895   5.473 -0.1283 -0.4042  0.7222
 6323TIP3    H118891   2.143   2.866   5.466 -0.4211 -0.0510  2.5843
 6323TIP3    H218892   2.246   2.952   5.398 -0.4800 -2.7878 -1.2926
 6324TIP3   OH218893   6.501   1.431   4.541  0.1763  0.3007 -0.0061
 6324TIP3    H118894   6.454   1.504   4.583  1.0364  1.3094 -0.7381
 6324TIP3    H218895   6.438   1.396   4.478 -1.0215 -1.0335  1.8124
 6325TIP3   OH218896   1.268   7.779   5.010  0.0023  0.7593 -0.1744
 6325TIP3    H118897   1.199   7.845   5.017 -0.8763 -0.0517 -0.7627
 6325TIP3    H218898   1.227   7.699   5.044  0.3661  0.0772 -1.2687
 6326TIP3   OH218899   1.255   1.887   3.512  0.0626  0.6555 -0.1151
 6326TIP3    H118900   1.237   1.823   3.581 -0.9556  1.7209  0.6529
 6326TIP3    H218901   1.349   1.905   3.520  0.1508  0.0282  0.3299
 6327TIP3   OH218902   3.025   4.090   4.484 -0.3673 -0.5704  0.2988
 6327TIP3    H118903   3.099   4.127   4.435 -1.9458  1.6532 -0.5569
 6327TIP3    H218904   3.026   4.136   4.568 -0.5768 -0.8162  0.4363
 6328TIP3   OH218905   5.650   4.022   2.562 -0.2362  0.1150 -0.4669
 6328TIP3    H118906   5.596   3.992   2.488 -0.6076 -0.2366 -0.0559
 6328TIP3    H218907   5.738   4.029   2.525 -0.7557  2.0169 -1.5233
 6329TIP3   OH218908   7.441   7.136   1.630  0.1702  0.0607  0.4021
 6329TIP3    H118909   7.439   7.158   1.537 -1.2725 -0.8172  0.1848
 6329TIP3    H218910   7.394   7.052   1.635 -0.5971  0.5549  2.0369
 6330TIP3   OH218911   3.562   5.474   7.021 -0.1064  0.0550  0.0562
 6330TIP3    H118912   3.634   5.444   7.076  2.5547  0.7833 -2.7735
 6330TIP3    H218913   3.600   5.543   6.967 -2.4965 -0.5536 -2.6503
 6331TIP3   OH218914   4.677   6.904   6.781 -0.4143 -0.4491 -0.2234
 6331TIP3    H118915   4.751   6.964   6.794  0.5534 -0.9568 -2.8054
 6331TIP3    H218916   4.607   6.958   6.746 -0.1459 -0.4989 -0.8502
 6332TIP3   OH218917   6.751   5.521   4.479 -0.0781 -0.5354 -0.2953
 6332TIP3    H118918   6.682   5.479   4.427  1.1975 -1.1423 -1.5778
 6332TIP3    H218919   6.832   5.477   4.451  0.9638  0.8871  0.3664
 6333TIP3   OH218920   6.469   4.118   4.633  0.6353 -0.4810  0.0036
 6333TIP3    H118921   6.463   4.076   4.719 -0.4838  0.5254  0.4396
 6333TIP3    H218922   6.446   4.048   4.571 -0.7375 -0.6585  0.6767
 6334TIP3   OH218923   7.503   0.736   1.122  0.4569  0.4490 -0.3492
 6334TIP3    H118924   7.493   0.641   1.114  1.0243  0.4563 -1.3927
 6334TIP3    H218925   7.499   0.753   1.216  1.1398 -0.7099 -0.0852
 6335TIP3   OH218926   6.908   6.100   2.369  0.4135 -0.0979 -0.5075
 6335TIP3    H118927   6.880   6.120   2.280  3.3492 -1.8658 -1.9715
 6335TIP3    H218928   6.874   6.012   2.386 -0.0036  0.1702  0.0679
 6336TIP3   OH218929   6.842   5.426   5.838 -0.3398  0.2914 -1.0367
 6336TIP3    H118930   6.870   5.501   5.891  0.0528  0.1636 -1.0629
 6336TIP3    H218931   6.912   5.415   5.773 -0.5017  0.0364 -1.1686
 6337TIP3   OH218932   3.462   8.134   5.279  0.2653 -0.0563 -0.3329
 6337TIP3    H118933   3.408   8.068   5.237  0.4176  0.0979 -0.7811
 6337TIP3    H218934   3.549   8.093   5.285 -0.4460 -1.3265  2.7714
 6338TIP3   OH218935   1.984   4.242   1.616  0.1743  0.1228 -0.2085
 6338TIP3    H118936   1.889   4.247   1.607  0.1479  0.5061  0.2273
 6338TIP3    H218937   2.007   4.320   1.667  0.8139  0.4958 -1.0449
 6339TIP3   OH218938   4.802   5.396   6.169 -0.5206  0.0134  0.2490
 6339TIP3    H118939   4.764   5.391   6.081 -0.3620 -0.0236  0.1816
 6339TIP3    H218940   4.824   5.305   6.191  1.3671  0.2282 -0.5392
 6340TIP3   OH218941   5.796   0.099   2.700  0.3567  0.4045  0.3847
 6340TIP3    H118942   5.733   0.051   2.646 -1.7498  2.9239  0.3853
 6340TIP3    H218943   5.840   0.158   2.639  0.0981  1.1915  0.9425
 6341TIP3   OH218944   2.540   3.430   5.380 -0.1991  0.0172  0.0393
 6341TIP3    H118945   2.550   3.397   5.470 -0.7720  0.0265  0.1072
 6341TIP3    H218946   2.566   3.357   5.325 -1.6566 -0.6479  0.1830
 6342TIP3   OH218947   6.927   3.935   4.298 -0.2839  0.4284 -0.0528
 6342TIP3    H118948   6.835   3.942   4.272 -0.2057  1.7757 -0.0201
 6342TIP3    H218949   6.938   3.999   4.368  0.4755 -0.3676  0.5870
 6343TIP3   OH218950   1.203   7.299   2.900 -0.2666 -0.2061 -0.3580
 6343TIP3    H118951   1.266   7.233   2.870  0.8851  0.5090  0.4244
 6343TIP3    H218952   1.247   7.343   2.973 -1.2868  0.9761 -0.4236
 6344TIP3   OH218953   0.168   6.056   3.134 -0.3088 -0.2794  0.1309
 6344TIP3    H118954   0.138   6.017   3.216  0.3710 -0.6527  0.2083
 6344TIP3    H218955   0.224   5.989   3.095 -0.7283 -0.1516 -0.7020
 6345TIP3   OH218956   7.584   4.268   2.073  0.3224  0.6866  0.5254
 6345TIP3    H118957   7.528   4.206   2.026 -0.0366  1.1897  0.2818
 6345TIP3    H218958   7.673   4.240   2.051  0.1633  0.9119 -0.4844
 6346TIP3   OH218959   1.716   1.266   5.942  0.4699 -0.0260 -0.6624
 6346TIP3    H118960   1.664   1.226   5.872  0.9724  0.5277 -1.3628
 6346TIP3    H218961   1.652   1.298   6.005 -0.0927  1.4006 -1.9141
 6347TIP3   OH218962   3.611   4.684   1.151  0.3435  0.2202  0.0301
 6347TIP3    H118963   3.649   4.750   1.210  1.4724  0.1685 -0.5970
 6347TIP3    H218964   3.527   4.720   1.126 -0.5953 -0.1620  2.3453
 6348TIP3   OH218965   0.271   5.402   2.342  0.6005 -0.5676 -0.1347
 6348TIP3    H118966   0.241   5.360   2.261 -2.7956  2.4807 -0.7230
 6348TIP3    H218967   0.351   5.448   2.317  0.2569 -0.6555 -1.4828
 6349TIP3   OH218968   4.555   1.196   1.509 -0.2497 -0.6521  0.1474
 6349TIP3    H118969   4.468   1.167   1.539 -0.6132 -1.2479 -1.3774
 6349TIP3    H218970   4.575   1.138   1.436  1.0133  0.1141 -0.1349
 6350TIP3   OH218971   6.478   7.477   1.065  0.0509 -0.1939 -0.4390
 6350TIP3    H118972   6.425   7.453   1.140 -0.0404 -0.6140 -0.6323
 6350TIP3    H218973   6.567   7.452   1.090 -0.0567 -0.8537 -0.6771
 6351TIP3   OH218974   2.929   3.374   1.929 -0.0924 -0.8431  0.5843
 6351TIP3    H118975   3.000   3.430   1.900  0.0023 -1.4656 -0.4358
 6351TIP3    H218976   2.972   3.306   1.982 -0.1518 -0.2288  1.4316
 6352TIP3   OH218977   7.015   1.106   0.444 -0.2552 -0.0023 -0.2366
 6352TIP3    H118978   7.108   1.104   0.467  0.0884  1.2053 -1.3990
 6352TIP3    H218979   6.974   1.046   0.506  1.3008 -0.6061  0.2643
 6353TIP3   OH218980   6.410   1.574   1.890 -0.0166  0.1056 -0.2504
 6353TIP3    H118981   6.453   1.489   1.902 -1.2711 -0.3660  1.4408
 6353TIP3    H218982   6.320   1.551   1.865 -1.1475  0.7443  2.7808
 6354TIP3   OH218983   0.348   0.279   6.011  0.2609 -0.4726 -0.3620
 6354TIP3    H118984   0.268   0.327   5.991  0.4974 -0.2111 -0.6929
 6354TIP3    H218985   0.367   0.230   5.931  0.0353 -1.1025 -0.0369
 6355TIP3   OH218986   3.028   0.074   1.318  0.3025  0.1020  0.8569
 6355TIP3    H118987   3.006   0.042   1.230 -0.6319 -0.6906  1.3630
 6355TIP3    H218988   3.068  -0.001   1.361 -0.2039  0.1579  1.4407
 6356TIP3   OH218989   0.968   3.147   3.048 -0.1819  0.2376  0.2725
 6356TIP3    H118990   0.922   3.099   2.979  0.3167  0.4015 -0.1822
 6356TIP3    H218991   0.908   3.219   3.070 -1.1799 -0.8758  1.3538
 6357TIP3   OH218992   2.595   4.767   0.969 -0.0107 -0.0893 -0.1707
 6357TIP3    H118993   2.690   4.774   0.964  0.0271 -0.8844 -0.6968
 6357TIP3    H218994   2.578   4.674   0.981 -0.7499 -0.1211 -1.2710
 6358TIP3   OH218995   2.717   3.767   1.755  0.6187  0.6333  0.1198
 6358TIP3    H118996   2.719   3.751   1.849  1.8677  0.0005 -0.0001
 6358TIP3    H218997   2.728   3.862   1.747 -0.8893  0.8751  0.6388
 6359TIP3   OH218998   4.167   1.700   0.360  0.1540 -0.2530 -0.1592
 6359TIP3    H118999   4.188   1.750   0.281 -0.1379 -0.2174 -0.2152
 6359TIP3    H219000   4.171   1.609   0.332  0.4702 -0.2520 -0.1114
 6360TIP3   OH219001   6.035   3.057   4.427 -0.0403  0.1125  0.7118
 6360TIP3    H119002   6.110   3.008   4.462 -0.3128 -0.3231  0.6889
 6360TIP3    H219003   5.977   2.990   4.392 -0.3794  0.4606  0.6051
 6361TIP3   OH219004   5.624   6.434   2.223  0.1175 -0.2863  0.7090
 6361TIP3    H119005   5.667   6.354   2.252 -0.5198 -0.5611  0.9344
 6361TIP3    H219006   5.554   6.403   2.165  1.7982  0.2837 -1.7705
 6362TIP3   OH219007   1.040   2.665   5.375 -0.4820 -0.3572  0.7279
 6362TIP3    H119008   1.125   2.650   5.417 -0.9857 -0.4131  1.7525
 6362TIP3    H219009   0.998   2.579   5.374 -0.6612 -0.2679  0.5297
 6363TIP3   OH219010   1.962   7.646   0.065  0.0862  0.2762 -0.0846
 6363TIP3    H119011   1.996   7.586   0.132 -1.1766 -0.8721 -0.4207
 6363TIP3    H219012   2.032   7.649  -0.001  0.3364 -0.5262  0.1296
 6364TIP3   OH219013   7.880   7.857   3.332  0.3394 -0.1916  0.4840
 6364TIP3    H119014   7.799   7.907   3.335 -0.2127 -1.0539  0.4586
 6364TIP3    H219015   7.939   7.908   3.277  0.0505  0.7774  1.0618
 6365TIP3   OH219016   7.359   4.267   1.001  0.0996 -0.6933 -0.8468
 6365TIP3    H119017   7.352   4.307   1.088 -1.3513  0.6263 -1.5196
 6365TIP3    H219018   7.323   4.179   1.013  1.2062 -1.0245  0.1726
 6366TIP3   OH219019   5.517   6.826   3.148  0.5813 -0.0168  0.2213
 6366TIP3    H119020   5.482   6.839   3.236  0.5698  0.0673  0.2050
 6366TIP3    H219021   5.488   6.904   3.100  0.3029 -0.2203  0.0547
 6367TIP3   OH219022   0.968   5.068   2.211 -0.1462 -0.0661 -0.1712
 6367TIP3    H119023   0.887   5.104   2.247 -0.0860 -0.6012  0.5388
 6367TIP3    H219024   0.942   4.983   2.174 -0.2638  0.6074 -1.7031
 6368TIP3   OH219025   3.685   7.438   3.860 -0.1479 -0.7439  0.7422
 6368TIP3    H119026   3.676   7.455   3.954 -0.3898 -0.0298  0.6017
 6368TIP3    H219027   3.623   7.367   3.843 -0.3982 -0.6052  1.0496
 6369TIP3   OH219028   4.969   1.300   5.527  0.1262 -0.5418  0.3478
 6369TIP3    H119029   4.894   1.344   5.566  1.4758 -0.0492  2.5657
 6369TIP3    H219030   4.957   1.207   5.550 -1.3013 -0.9947 -1.9505
 6370TIP3   OH219031   8.326   6.874   7.066  0.2080 -0.6235  0.3667
 6370TIP3    H119032   8.282   6.927   6.999  0.3793 -0.6583  0.2247
 6370TIP3    H219033   8.418   6.872   7.038  0.5568  0.5206  1.3390
 6371TIP3   OH219034   2.911   4.962   4.971 -0.1944  0.1752 -0.0244
 6371TIP3    H119035   2.897   5.040   5.025 -1.7411 -0.8186  1.0954
 6371TIP3    H219036   2.882   4.890   5.026 -0.7652 -1.0018 -1.7957
 6372TIP3   OH219037   7.776   1.594   3.959  0.3712 -0.1171 -0.3661
 6372TIP3    H119038   7.846   1.622   4.019  0.1127  2.4770 -1.1442
 6372TIP3    H219039   7.822   1.558   3.883  0.7036 -3.6966  1.2992
 6373TIP3   OH219040   8.500   4.846   1.132 -0.1213 -0.1371  0.0600
 6373TIP3    H119041   8.527   4.937   1.123  1.7398 -0.7055 -0.4987
 6373TIP3    H219042   8.575   4.801   1.170 -0.3898 -1.7324 -1.1676
 6374TIP3   OH219043   4.570   1.549   4.894  0.4981 -0.2156 -0.7004
 6374TIP3    H119044   4.653   1.539   4.848  0.8104 -1.4622  0.0923
 6374TIP3    H219045   4.519   1.472   4.869 -0.1017  0.1307 -0.5588
 6375TIP3   OH219046   2.430   0.694   0.033  0.1067  0.7439 -0.1692
 6375TIP3    H119047   2.504   0.667   0.088 -1.0502 -0.6441  0.7923
 6375TIP3    H219048   2.417   0.621  -0.027 -1.7374  0.0086  1.0384
 6376TIP3   OH219049   0.806   6.570   6.273  0.0717 -0.2351 -0.1868
 6376TIP3    H119050   0.711   6.564   6.272 -0.2022  2.7762 -0.2525
 6376TIP3    H219051   0.826   6.612   6.357  1.5016 -2.1157  0.4805
 6377TIP3   OH219052   1.047   1.723   1.997  0.1988  0.1287  0.0198
 6377TIP3    H119053   0.975   1.786   1.995  0.0887  0.1670  2.1407
 6377TIP3    H219054   1.114   1.761   1.940 -1.1714  0.4344 -1.4439
 6378TIP3   OH219055   6.550   2.560   4.525 -0.5146 -0.3022  0.5066
 6378TIP3    H119056   6.584   2.523   4.606  0.1698  0.7418  0.7189
 6378TIP3    H219057   6.592   2.646   4.518 -0.9967 -0.1366 -0.6640
 6379TIP3   OH219058   6.419   7.022   4.666  0.4939 -0.8200 -0.3549
 6379TIP3    H119059   6.461   6.986   4.744  1.9067  0.4760 -0.4646
 6379TIP3    H219060   6.487   7.076   4.625 -0.8198  0.1029 -1.4096
 6380TIP3   OH219061   7.934   1.580   5.397  0.0091  0.3782 -0.1802
 6380TIP3    H119062   7.900   1.542   5.316  1.5775  0.4342 -0.9122
 6380TIP3    H219063   7.978   1.507   5.441  0.5596  0.6980 -0.1859
 6381TIP3   OH219064   1.787   3.997   6.678  0.0102 -0.8483 -0.5023
 6381TIP3    H119065   1.795   3.937   6.752  0.0421 -2.5439 -1.8482
 6381TIP3    H219066   1.830   3.953   6.605 -0.7541  0.4151 -1.7739
 6382TIP3   OH219067   1.060   4.951   0.652  0.0446  0.3134 -0.0790
 6382TIP3    H119068   1.049   4.973   0.744  2.1365 -1.4620  0.6592
 6382TIP3    H219069   0.971   4.955   0.616 -0.4882  3.7141  1.3061
 6383TIP3   OH219070   6.781   6.442   1.060 -0.2702 -0.2725 -0.4502
 6383TIP3    H119071   6.702   6.402   1.097 -0.3659 -0.5658 -0.9626
 6383TIP3    H219072   6.755   6.532   1.040 -0.3928 -0.2894 -0.3715
 6384TIP3   OH219073   6.964   1.747   2.524  0.0507  0.1160  0.0223
 6384TIP3    H119074   6.883   1.702   2.549 -0.9460  1.1474 -1.2056
 6384TIP3    H219075   6.995   1.698   2.447  1.4215 -1.1474  1.3001
 6385TIP3   OH219076   1.604   7.157   0.559 -0.2783 -0.0291 -0.4669
 6385TIP3    H119077   1.553   7.237   0.550 -0.6239 -0.3238 -1.2716
 6385TIP3    H219078   1.541   7.090   0.583 -0.0267 -0.1096 -0.0194
 6386TIP3   OH219079   3.991   5.011   1.571  0.1599 -0.0717  0.1466
 6386TIP3    H119080   3.962   4.933   1.524 -0.3900  0.1676  0.0836
 6386TIP3    H219081   3.981   5.082   1.508  0.6353  0.0561  0.2118
 6387TIP3   OH219082   4.085   5.099   0.873  0.3613 -0.3257  0.2995
 6387TIP3    H119083   4.070   5.139   0.958  2.1258 -1.7487  1.3590
 6387TIP3    H219084   4.144   5.160   0.828 -0.4529  0.3536  0.1188
 6388TIP3   OH219085   6.988   1.484   6.067 -0.4062 -0.2846 -0.4183
 6388TIP3    H119086   6.994   1.577   6.086 -1.9705  0.0697 -1.5419
 6388TIP3    H219087   7.067   1.447   6.107  0.7292  1.6298 -0.7522
 6389TIP3   OH219088   2.770   5.915   1.537  0.0270  0.0693  0.4501
 6389TIP3    H119089   2.749   5.824   1.554 -0.1840 -0.0432 -0.3418
 6389TIP3    H219090   2.860   5.915   1.506  0.3720  0.2559  1.4347
 6390TIP3   OH219091   6.155   4.438   3.536 -0.1669  0.5366  0.1426
 6390TIP3    H119092   6.143   4.530   3.559  1.6681  1.0297 -0.6925
 6390TIP3    H219093   6.144   4.435   3.441 -0.4947 -0.1565  0.1966
 6391TIP3   OH219094   6.785   5.077   5.728 -0.3080 -0.5972  0.3708
 6391TIP3    H119095   6.803   5.055   5.820 -3.0409 -1.0636  0.8948
 6391TIP3    H219096   6.729   5.005   5.697 -1.2289  0.6409 -0.9575
 6392TIP3   OH219097   3.401   7.116   1.371 -0.1725 -0.3631 -0.6957
 6392TIP3    H119098   3.350   7.188   1.333 -1.9461 -1.3474 -0.2940
 6392TIP3    H219099   3.453   7.157   1.440  0.2695  0.8229 -1.6951
 6393TIP3   OH219100   5.521   5.430   2.659  0.3094  0.1984 -0.0399
 6393TIP3    H119101   5.543   5.345   2.697 -1.5498  0.7047  2.3806
 6393TIP3    H219102   5.436   5.417   2.617  0.9865  0.3996 -1.5540
 6394TIP3   OH219103   1.954   3.511   3.375 -0.2338 -0.0615  0.5886
 6394TIP3    H119104   2.047   3.491   3.363 -0.0593 -0.5032  2.3345
 6394TIP3    H219105   1.952   3.606   3.386 -0.2138  0.1487 -1.0694
 6395TIP3   OH219106   1.367   4.952   1.427  0.3604  0.7671  0.3233
 6395TIP3    H119107   1.279   4.981   1.451  0.6105  0.4274  1.7144
 6395TIP3    H219108   1.359   4.857   1.417  0.5803  0.7277  0.5175
 6396TIP3   OH219109   7.986   5.348   5.150  0.0301  0.0088  0.2203
 6396TIP3    H119110   8.069   5.395   5.141  0.7288 -1.4763 -1.8539
 6396TIP3    H219111   7.984   5.321   5.241  1.7971  0.1696  0.3462
 6397TIP3   OH219112   6.595   2.001   6.829  0.9389 -0.0763 -0.3429
 6397TIP3    H119113   6.509   2.036   6.852 -1.1259 -2.2381 -3.7490
 6397TIP3    H219114   6.606   1.926   6.887  1.0124  0.7708  0.7617
 6398TIP3   OH219115   1.838   6.764   1.763  0.1943 -0.6237  0.4302
 6398TIP3    H119116   1.817   6.855   1.743 -2.8269 -0.7481  2.3260
 6398TIP3    H219117   1.861   6.725   1.679  0.2735  1.5800 -0.6301
 6399TIP3   OH219118   5.368   4.301   4.313  1.2644 -0.1050 -0.2578
 6399TIP3    H119119   5.448   4.352   4.300  1.7042 -0.9737 -1.0364
 6399TIP3    H219120   5.315   4.320   4.236  2.1568 -2.1146 -1.4356
 6400TIP3   OH219121   5.640   5.570   3.100 -0.4622 -0.7349  0.2037
 6400TIP3    H119122   5.586   5.491   3.103  1.5877 -2.4112 -2.0623
 6400TIP3    H219123   5.601   5.624   3.031 -1.3623 -0.1333  1.1595
 6401TIP3   OH219124   7.505   2.344   6.710 -0.2184 -0.1550 -0.1945
 6401TIP3    H119125   7.568   2.274   6.726  0.5081  0.1728 -1.4598
 6401TIP3    H219126   7.436   2.304   6.657  0.4117  0.1551 -1.2833
 6402TIP3   OH219127   0.092   2.851   2.960 -0.7448 -0.1650  0.1425
 6402TIP3    H119128   0.149   2.825   3.032  1.8175 -0.4924 -1.9025
 6402TIP3    H219129   0.136   2.925   2.919 -3.0729  1.2345 -0.0609
 6403TIP3   OH219130   1.043   4.802   2.993 -0.4455 -0.2362 -0.1779
 6403TIP3    H119131   1.137   4.818   3.006 -0.4685 -1.5890  2.1897
 6403TIP3    H219132   1.007   4.887   2.969  1.1662  0.6184  0.3262
 6404TIP3   OH219133   1.492   4.481   4.051  0.4600  0.0700 -0.3314
 6404TIP3    H119134   1.438   4.560   4.059  0.4791 -0.1110  3.2655
 6404TIP3    H219135   1.430   4.414   4.023 -0.5791  0.5031  0.7905
 6405TIP3   OH219136   2.986   6.879   6.000  0.3144 -0.0627 -0.7098
 6405TIP3    H119137   3.012   6.969   5.986 -1.6096  0.6550 -0.0510
 6405TIP3    H219138   3.063   6.837   6.038  0.8389  1.6356  0.1957
 6406TIP3   OH219139   4.042   3.629   4.872  0.4022  0.5693  0.4972
 6406TIP3    H119140   4.067   3.667   4.956 -0.1912 -0.9086  1.3818
 6406TIP3    H219141   3.947   3.638   4.869  0.3946  0.3872  0.0862
 6407TIP3   OH219142   3.481   6.091   4.996  0.0083  1.3530 -0.0471
 6407TIP3    H119143   3.524   6.062   4.915 -0.6230 -0.2307  0.1570
 6407TIP3    H219144   3.551   6.091   5.062  0.2057  1.1849 -0.2548
 6408TIP3   OH219145   8.328   6.647   5.961  0.4518 -0.3114  0.4772
 6408TIP3    H119146   8.343   6.696   5.881 -1.4030  0.0460  0.3023
 6408TIP3    H219147   8.413   6.644   6.004  1.6412 -1.0955 -1.8025
 6409TIP3   OH219148   4.251   3.731   4.493  0.3678  0.0993  0.4608
 6409TIP3    H119149   4.292   3.780   4.422  1.9722 -1.3103  0.3725
 6409TIP3    H219150   4.237   3.643   4.458 -0.1490 -0.2218  1.4279
 6410TIP3   OH219151   7.296   2.781   0.127  0.1755  0.0378 -0.0502
 6410TIP3    H119152   7.283   2.853   0.190  0.0087 -0.0737  0.0432
 6410TIP3    H219153   7.253   2.706   0.168 -0.5008  0.1230 -0.5898
 6411TIP3   OH219154   6.872   5.802   1.571 -0.2618 -0.0197  0.0055
 6411TIP3    H119155   6.823   5.837   1.496  0.4748  0.2722 -0.3472
 6411TIP3    H219156   6.945   5.863   1.582  1.2993 -1.6250 -0.8881
 6412TIP3   OH219157   3.546   8.171   0.359  0.6091 -0.0662 -0.0882
 6412TIP3    H119158   3.574   8.126   0.439 -0.3972  1.0317  0.9158
 6412TIP3    H219159   3.560   8.264   0.378  0.4936  0.1949 -1.2521
 6413TIP3   OH219160   7.193   6.367   5.626 -0.5999 -0.0934  0.0942
 6413TIP3    H119161   7.142   6.288   5.647  0.8932 -0.9814  0.4849
 6413TIP3    H219162   7.194   6.416   5.708  1.7458 -1.5892  1.0674
 6414TIP3   OH219163   0.719   7.997   4.011 -0.1110  0.6078 -0.5145
 6414TIP3    H119164   0.760   7.986   3.925 -1.9977  0.5390 -1.4484
 6414TIP3    H219165   0.629   7.967   3.999 -0.2972  0.1489  1.6238
 6415TIP3   OH219166   3.010   3.828   1.035 -0.5827  0.1407  0.1187
 6415TIP3    H119167   2.919   3.820   1.063 -0.6167 -3.3968 -0.6277
 6415TIP3    H219168   3.013   3.912   0.989 -3.5652  0.1961 -0.1719
 6416TIP3   OH219169   7.150   5.934   1.362 -0.3752 -0.2759  0.0527
 6416TIP3    H119170   7.151   5.968   1.451  0.5819 -0.5049  0.1451
 6416TIP3    H219171   7.106   5.850   1.368 -1.4454  0.2645  0.0749
 6417TIP3   OH219172   5.209   4.855   5.511  0.1683 -0.4847  0.4141
 6417TIP3    H119173   5.227   4.792   5.581 -1.7779 -0.1709  1.2778
 6417TIP3    H219174   5.136   4.816   5.463 -0.1671  0.4614  0.1322
 6418TIP3   OH219175   5.106   2.231   5.583  0.4553  0.0618 -0.1461
 6418TIP3    H119176   5.100   2.241   5.678 -0.3853 -1.1080 -0.0522
 6418TIP3    H219177   5.043   2.162   5.562  1.2450 -0.3022 -1.4493
 6419TIP3   OH219178   0.170   3.908   0.127 -0.2927 -0.1215  0.1290
 6419TIP3    H119179   0.256   3.873   0.149 -0.7596 -1.4927 -0.1458
 6419TIP3    H219180   0.148   3.867   0.043 -1.0955  0.4133  0.0660
 6420TIP3   OH219181   7.671   7.693   1.718  0.5499  0.3853 -0.4852
 6420TIP3    H119182   7.751   7.744   1.732  0.2498  0.8361 -0.3869
 6420TIP3    H219183   7.641   7.670   1.806  0.2633  0.7028 -0.4994
 6421TIP3   OH219184   0.330   5.155   0.610  0.1325  0.8315 -0.0675
 6421TIP3    H119185   0.373   5.070   0.619 -1.7488 -0.2501 -0.4913
 6421TIP3    H219186   0.240   5.132   0.585 -0.1968  2.9868 -1.0499
 6422TIP3   OH219187   2.602   2.149   6.207 -0.7216 -0.1131  0.1933
 6422TIP3    H119188   2.665   2.114   6.144 -0.3685  0.3021  0.3172
 6422TIP3    H219189   2.580   2.073   6.262  0.8711  0.0783  1.1483
 6423TIP3   OH219190   1.951   0.909   4.870 -0.1035 -0.4733 -0.1092
 6423TIP3    H119191   1.924   0.886   4.781 -0.5753 -0.2341 -0.0312
 6423TIP3    H219192   1.889   0.976   4.897  0.2326 -0.3167  0.2869
 6424TIP3   OH219193   5.045   0.545   2.440  0.4328 -0.2383  0.4454
 6424TIP3    H119194   5.044   0.488   2.363  1.9596  0.6197 -0.2608
 6424TIP3    H219195   5.009   0.492   2.510  0.0811 -1.4353 -0.6058
 6425TIP3   OH219196   5.353   6.303   0.141 -0.1536 -0.1751  0.5050
 6425TIP3    H119197   5.352   6.236   0.209  0.2935  0.3072  0.9981
 6425TIP3    H219198   5.439   6.296   0.101 -0.5813 -0.7709 -0.3474
 6426TIP3   OH219199   8.241   4.755   6.822 -0.2444  0.0907 -0.2105
 6426TIP3    H119200   8.152   4.784   6.800  0.2372  0.5048 -1.6774
 6426TIP3    H219201   8.298   4.804   6.764  0.7377 -2.3419 -1.4501
 6427TIP3   OH219202   6.995   6.831   0.591 -0.2189  0.2372 -0.0288
 6427TIP3    H119203   7.041   6.765   0.538 -1.3916 -1.5474  1.0619
 6427TIP3    H219204   6.904   6.823   0.564 -0.5768  0.4411  1.0940
 6428TIP3   OH219205   1.064   2.503   3.021  0.0829  0.2262 -0.4184
 6428TIP3    H119206   1.111   2.586   3.027  0.0441  0.1811  0.6080
 6428TIP3    H219207   1.126   2.437   3.051 -0.5780  0.1606  0.8846
 6429TIP3   OH219208   4.515   3.683   1.632  0.0467 -0.3009 -0.1396
 6429TIP3    H119209   4.440   3.680   1.691 -0.8315  1.2507 -1.1025
 6429TIP3    H219210   4.517   3.596   1.592 -1.5179 -0.2520 -0.3946
 6430TIP3   OH219211   0.959   5.188   5.639  0.5233  0.4749  0.0491
 6430TIP3    H119212   0.989   5.145   5.559  0.8104  0.7491  0.0064
 6430TIP3    H219213   0.866   5.203   5.625  0.6044  0.6733 -0.3093
 6431TIP3   OH219214   4.286   1.839   0.591  0.1560  0.7558 -0.2779
 6431TIP3    H119215   4.215   1.786   0.553 -0.4102  0.3736  1.2235
 6431TIP3    H219216   4.293   1.915   0.533  0.2945 -0.4360 -1.9174
 6432TIP3   OH219217   4.901   1.833   3.731  0.3327  0.3386 -0.6622
 6432TIP3    H119218   4.893   1.738   3.725  0.6702  0.4143 -3.0976
 6432TIP3    H219219   4.995   1.849   3.739  0.3614  0.4805 -1.2133
 6433TIP3   OH219220   6.544   0.384   4.856 -0.0370  0.1264 -0.6965
 6433TIP3    H119221   6.576   0.296   4.833 -1.0868 -0.2632 -0.7392
 6433TIP3    H219222   6.486   0.368   4.930  0.8038  0.9697  0.1726
 6434TIP3   OH219223   5.961   7.158   4.929  0.0781 -0.5055  0.4083
 6434TIP3    H119224   6.038   7.153   4.872 -1.6537 -0.0305 -2.1106
 6434TIP3    H219225   5.969   7.242   4.973 -0.2702  0.7887 -1.8707
 6435TIP3   OH219226   2.613   1.305   1.589 -0.3584  0.2771  0.5487
 6435TIP3    H119227   2.569   1.314   1.674  1.4964 -0.7475  1.6760
 6435TIP3    H219228   2.544   1.323   1.525 -1.7940  1.2057  2.2495
 6436TIP3   OH219229   3.960   6.266   5.825 -0.5803  0.2649 -0.2803
 6436TIP3    H119230   3.967   6.342   5.883 -0.3952 -1.6180  2.3452
 6436TIP3    H219231   3.962   6.303   5.737  0.3778  3.2172  0.8493
 6437TIP3   OH219232   4.501   1.624   3.152 -0.4013  0.3458  0.0681
 6437TIP3    H119233   4.554   1.565   3.205 -0.0302 -0.1327 -0.8018
 6437TIP3    H219234   4.561   1.695   3.128 -0.0821 -0.2758 -1.0469
 6438TIP3   OH219235   0.554   1.463   1.447 -0.1826  0.0185 -0.0668
 6438TIP3    H119236   0.629   1.405   1.460 -0.6717 -1.0220 -1.6264
 6438TIP3    H219237   0.484   1.424   1.498  0.2926  0.9943  1.3960
 6439TIP3   OH219238   7.002   6.682   0.272 -0.0650  0.0443  0.2206
 6439TIP3    H119239   6.907   6.673   0.262 -0.2983  0.1135  1.9891
 6439TIP3    H219240   7.035   6.698   0.184 -1.6328 -0.5691 -0.4956
 6440TIP3   OH219241   3.405   7.868   0.445 -0.1074  0.8199 -0.6745
 6440TIP3    H119242   3.380   7.783   0.481  0.4166  0.1177 -1.8954
 6440TIP3    H219243   3.487   7.890   0.490 -0.9265  1.3314  0.6068
 6441TIP3   OH219244   0.466   1.303   5.582  0.1950  1.2741  0.5420
 6441TIP3    H119245   0.470   1.341   5.670  0.3218  1.1076  0.6092
 6441TIP3    H219246   0.483   1.210   5.596  0.2394  1.2518  0.3360
 6442TIP3   OH219247   8.334   4.928   4.423  0.5473  0.4349 -0.8016
 6442TIP3    H119248   8.403   4.907   4.486  0.2659  1.5339 -0.0956
 6442TIP3    H219249   8.352   4.871   4.348  1.9619  0.3866 -0.4587
 6443TIP3   OH219250   3.824   5.648   2.715  0.4880  0.6442  0.0555
 6443TIP3    H119251   3.751   5.586   2.710 -1.2037  2.5098  0.4443
 6443TIP3    H219252   3.826   5.691   2.630  2.2545 -0.4967 -0.5470
 6444TIP3   OH219253   1.635   6.460   4.191  0.4050 -0.2666 -0.1937
 6444TIP3    H119254   1.691   6.420   4.257  0.1489 -0.4027 -0.0567
 6444TIP3    H219255   1.663   6.552   4.188  1.0912 -0.4891 -0.6191
 6445TIP3   OH219256   6.171   1.468   4.795  0.0461  0.0825  0.0736
 6445TIP3    H119257   6.095   1.509   4.835 -0.5530  0.1675 -1.1305
 6445TIP3    H219258   6.245   1.500   4.847 -0.9033 -2.5626  3.4667
 6446TIP3   OH219259   1.014   2.983   4.804  0.0822  0.8969 -0.0194
 6446TIP3    H119260   1.074   2.921   4.765 -0.2011  0.9855 -0.6042
 6446TIP3    H219261   0.927   2.950   4.782 -0.0782  1.0883  0.3149
 6447TIP3   OH219262   5.789   4.263   2.318  0.3109 -0.3080  0.1241
 6447TIP3    H119263   5.814   4.187   2.371  0.9881 -0.6661 -0.6900
 6447TIP3    H219264   5.844   4.257   2.240 -0.4919  0.3467 -0.5097
 6448TIP3   OH219265   1.402   6.256   6.895  0.2092 -0.3305  0.0362
 6448TIP3    H119266   1.382   6.163   6.886  0.5717 -0.3232 -0.9231
 6448TIP3    H219267   1.322   6.300   6.866  0.3338 -0.3379 -0.3229
 6449TIP3   OH219268   3.414   7.999   3.245  0.4256  0.2638 -0.3377
 6449TIP3    H119269   3.481   7.999   3.176  0.7421  0.2772 -0.0323
 6449TIP3    H219270   3.343   8.052   3.209  0.5693  0.2303 -0.6753
 6450TIP3   OH219271   4.948   1.348   5.948 -0.3530  0.2679  0.5283
 6450TIP3    H119272   4.891   1.272   5.936 -0.9437  0.4881  1.8572
 6450TIP3    H219273   5.029   1.323   5.904 -0.0046 -1.7595  2.1626
 6451TIP3   OH219274   3.525   6.219   2.618 -0.5462  0.3065 -0.0642
 6451TIP3    H119275   3.501   6.291   2.560 -2.7137 -0.0991  0.2604
 6451TIP3    H219276   3.557   6.151   2.558 -0.4684  0.7606 -0.5504
 6452TIP3   OH219277   7.104   0.566   3.760  0.5439  0.3200  0.1352
 6452TIP3    H119278   7.087   0.659   3.773 -1.0380  0.1396 -0.4875
 6452TIP3    H219279   7.200   0.560   3.759  0.6843  2.0302 -0.4503
 6453TIP3   OH219280   8.176   4.723   1.867 -0.5039 -0.2313 -0.6370
 6453TIP3    H119281   8.168   4.669   1.946 -2.5543  0.0584 -0.6186
 6453TIP3    H219282   8.197   4.660   1.798  1.2763 -0.4958  0.0652
 6454TIP3   OH219283   6.189   2.427   3.977  0.2787  0.5272 -0.4813
 6454TIP3    H119284   6.095   2.440   3.991  0.6338  3.1289  0.0594
 6454TIP3    H219285   6.203   2.454   3.886  0.5559  0.5492 -0.4312
 6455TIP3   OH219286   3.684   1.592   6.967 -0.1881 -0.0067 -0.4412
 6455TIP3    H119287   3.682   1.521   7.031 -0.6360 -1.4567 -2.0146
 6455TIP3    H219288   3.728   1.555   6.890  0.6300  1.7927 -0.9061
 6456TIP3   OH219289   4.940   0.463   5.809 -0.4726  0.0288 -0.0121
 6456TIP3    H119290   4.907   0.534   5.864  0.6597  0.4219  0.1825
 6456TIP3    H219291   4.936   0.497   5.720 -2.1696 -0.5544 -0.1935
 6457TIP3   OH219292   8.316   7.821   3.092  0.8798  0.4748 -0.5195
 6457TIP3    H119293   8.381   7.807   3.023 -0.2972 -2.5306 -1.1978
 6457TIP3    H219294   8.287   7.733   3.116  0.5577  1.4172  3.2490
 6458TIP3   OH219295   0.914   6.039   1.440  0.5687  0.2303 -0.2247
 6458TIP3    H119296   0.839   6.084   1.402  0.6479  0.7343  0.1933
 6458TIP3    H219297   0.880   5.998   1.519  0.4676 -0.5705 -0.6739
 6459TIP3   OH219298   6.664   2.129   6.604 -0.1267 -0.1148  0.1553
 6459TIP3    H119299   6.591   2.183   6.632  0.0833 -0.5229  1.5910
 6459TIP3    H219300   6.661   2.052   6.661  1.2899 -0.2352  0.1229
 6460TIP3   OH219301   7.786   0.547   4.089 -0.5904 -0.3128 -0.8302
 6460TIP3    H119302   7.791   0.498   4.171  0.4666  0.5041 -0.3793
 6460TIP3    H219303   7.872   0.537   4.050 -0.7118  0.2871 -1.2639
 6461TIP3   OH219304   4.011   2.660   6.777 -0.0784  0.0131 -0.1729
 6461TIP3    H119305   3.939   2.722   6.785  0.9151  1.6757 -2.7169
 6461TIP3    H219306   3.995   2.615   6.694  1.2589 -0.3548 -0.2571
 6462TIP3   OH219307   6.182   0.111   5.392  0.2243  0.4061 -0.2381
 6462TIP3    H119308   6.147   0.109   5.481  0.0133  2.3235 -0.2307
 6462TIP3    H219309   6.250   0.044   5.392  0.0295  0.1663  1.2857
 6463TIP3   OH219310   1.818   3.485   3.128 -0.2520  0.8449 -0.3138
 6463TIP3    H119311   1.870   3.489   3.208 -1.1538 -1.4237  0.4558
 6463TIP3    H219312   1.874   3.440   3.065 -1.4181 -2.3825  0.7693
 6464TIP3   OH219313   0.686   6.144   5.411 -0.3614  0.3327  0.0694
 6464TIP3    H119314   0.682   6.149   5.507  3.0170  1.1528  0.2912
 6464TIP3    H219315   0.703   6.051   5.393 -0.5039  0.2622  0.2898
 6465TIP3   OH219316   4.995   5.809   4.941  0.3695 -0.0522  0.2185
 6465TIP3    H119317   4.956   5.734   4.985  0.0814  1.0660  1.9780
 6465TIP3    H219318   4.966   5.802   4.850  0.5241 -2.1469  0.2921
 6466TIP3   OH219319   3.556   7.444   5.394  0.5043  0.1068 -0.2863
 6466TIP3    H119320   3.510   7.494   5.326 -1.6838  0.7887  1.5580
 6466TIP3    H219321   3.561   7.355   5.359  1.4029  0.8602 -2.2001
 6467TIP3   OH219322   7.637   7.435   2.494  0.1940  0.5179  0.2444
 6467TIP3    H119323   7.619   7.373   2.565  0.6695  0.2585  0.1442
 6467TIP3    H219324   7.649   7.519   2.538 -3.6008  1.2580  0.1548
 6468TIP3   OH219325   0.574   4.297   5.123  0.3718  0.1666  0.3318
 6468TIP3    H119326   0.567   4.392   5.111  0.2308 -0.1054 -2.5689
 6468TIP3    H219327   0.511   4.277   5.192 -1.0629  1.9871 -0.3579
 6469TIP3   OH219328   5.800   4.902   0.757 -0.1845 -0.3093  0.1428
 6469TIP3    H119329   5.727   4.841   0.762 -0.4131  0.0109  0.8785
 6469TIP3    H219330   5.767   4.982   0.799  0.5607 -0.1333  0.4061
 6470TIP3   OH219331   7.673   6.557   0.635  0.3533 -0.0293  0.2657
 6470TIP3    H119332   7.625   6.609   0.570  1.1371 -1.4378 -1.5228
 6470TIP3    H219333   7.614   6.484   0.654  1.1749 -1.0230 -0.8914
 6471TIP3   OH219334   1.742   0.334   0.008  0.2099 -0.5354  0.1195
 6471TIP3    H119335   1.671   0.307   0.066  0.1945 -2.0455 -0.5514
 6471TIP3    H219336   1.810   0.366   0.067 -0.4031 -0.5711  0.8653
 6472TIP3   OH219337   1.473   3.800   4.146 -0.2551 -0.3529  0.2036
 6472TIP3    H119338   1.534   3.818   4.074  1.3019 -1.0700  1.2845
 6472TIP3    H219339   1.432   3.884   4.164 -1.9034 -0.4273 -2.5113
 6473TIP3   OH219340   4.480   7.829   4.135  0.4181 -0.1501 -1.2003
 6473TIP3    H119341   4.565   7.873   4.127 -0.2653  1.5544  0.2628
 6473TIP3    H219342   4.416   7.900   4.128 -0.7980 -1.0914 -0.0518
 6474TIP3   OH219343   3.459   6.629   3.873 -0.4328 -0.0721 -0.0381
 6474TIP3    H119344   3.467   6.534   3.865  2.9686 -0.2941  3.3836
 6474TIP3    H219345   3.392   6.643   3.940  1.3860 -0.3388  1.9262
 6475TIP3   OH219346   4.589   7.932   1.964 -0.0068 -0.3777  0.2453
 6475TIP3    H119347   4.559   8.022   1.974 -0.4067 -0.3322 -1.1432
 6475TIP3    H219348   4.618   7.906   2.051  2.1590  1.8085  0.2637
 6476TIP3   OH219349   3.184   6.485   5.387  0.5839 -0.2479 -0.1737
 6476TIP3    H119350   3.089   6.473   5.398  0.2994 -0.1594 -2.0938
 6476TIP3    H219351   3.216   6.508   5.474 -1.2875  0.4772  0.3730
 6477TIP3   OH219352   5.189   2.401   3.576 -0.3840  0.0809  0.3658
 6477TIP3    H119353   5.203   2.453   3.656 -0.2873  0.8007 -0.1104
 6477TIP3    H219354   5.278   2.384   3.544 -0.4203 -0.2912  0.4623
 6478TIP3   OH219355   3.498   0.333   6.857  0.1043 -0.5216  0.3356
 6478TIP3    H119356   3.452   0.293   6.783 -0.4705 -0.6558  0.7533
 6478TIP3    H219357   3.484   0.271   6.929  0.3858 -0.2416  0.6328
 6479TIP3   OH219358   7.250   3.962   0.915  0.2942  1.1659  0.5565
 6479TIP3    H119359   7.246   3.944   0.821  0.5536 -0.6171  0.8541
 6479TIP3    H219360   7.342   3.953   0.937 -0.0349 -0.8442  1.3655
 6480TIP3   OH219361   7.898   1.545   2.082 -0.0371  0.2233 -0.0533
 6480TIP3    H119362   7.879   1.571   1.992 -0.6975 -2.5345 -0.8141
 6480TIP3    H219363   7.899   1.449   2.080  3.5163  0.0337  2.1728
 6481TIP3   OH219364   5.594   3.750   5.191 -0.1160 -0.3098 -0.1654
 6481TIP3    H119365   5.524   3.688   5.211  0.6660 -0.8469  0.9920
 6481TIP3    H219366   5.647   3.706   5.125 -0.6883 -0.0183 -0.8349
 6482TIP3   OH219367   4.400   2.110   4.345 -0.0014  0.0051 -0.7894
 6482TIP3    H119368   4.432   2.071   4.426  0.4948 -0.2713 -1.1107
 6482TIP3    H219369   4.444   2.061   4.275  1.2688  1.6046 -1.2068
 6483TIP3   OH219370   5.909   1.573   3.027 -0.1417  0.0684 -0.4808
 6483TIP3    H119371   5.997   1.538   3.045  0.5056  1.6370 -0.4036
 6483TIP3    H219372   5.921   1.628   2.949 -0.2770  2.8548  1.3030
 6484TIP3   OH219373   1.156   6.585   1.889 -0.3337 -0.2221 -0.1439
 6484TIP3    H119374   1.236   6.583   1.837 -0.1810  1.9706 -0.0840
 6484TIP3    H219375   1.117   6.670   1.870 -0.4752  0.5300  3.0377
 6485TIP3   OH219376   7.385   0.078   3.307 -0.0968 -0.0759 -0.3166
 6485TIP3    H119377   7.456   0.081   3.372  0.3859 -1.9738 -0.7003
 6485TIP3    H219378   7.305   0.089   3.359  0.4003  0.9550  0.2635
 6486TIP3   OH219379   0.953   3.468   4.306 -0.6856  0.4291  0.5556
 6486TIP3    H119380   1.032   3.414   4.312  0.9590  2.7234  1.0212
 6486TIP3    H219381   0.952   3.500   4.216  0.7482  2.8592  1.3173
 6487TIP3   OH219382   6.837   0.087   1.468 -0.6916  0.4092 -0.3476
 6487TIP3    H119383   6.834   0.005   1.419  0.9641  0.9044 -1.3311
 6487TIP3    H219384   6.744   0.110   1.480 -1.1567 -0.4385 -2.0237
 6488TIP3   OH219385   4.430   7.937   2.212 -0.2156  0.0301 -0.4197
 6488TIP3    H119386   4.423   7.902   2.123 -0.5825  0.2956 -0.4987
 6488TIP3    H219387   4.355   7.997   2.220  0.1072  0.3962 -0.1084
 6489TIP3   OH219388   0.773   0.015   1.662 -0.0650  0.0115 -0.0937
 6489TIP3    H119389   0.796   0.080   1.595  0.7733 -0.7991 -0.6120
 6489TIP3    H219390   0.703   0.057   1.713  1.7832  2.1944  0.8734
 6490TIP3   OH219391   5.681   5.196   3.438  0.0464  0.1087 -0.2959
 6490TIP3    H119392   5.723   5.115   3.410 -2.3751 -1.5088  0.4878
 6490TIP3    H219393   5.698   5.201   3.532 -0.0552  0.3721 -0.2901
 6491TIP3   OH219394   1.526   0.047   6.284  0.8295  0.1423  0.0237
 6491TIP3    H119395   1.454   0.093   6.241 -1.9528 -3.4107  0.3500
 6491TIP3    H219396   1.528   0.082   6.373 -0.0050  0.8055 -0.2079
 6492TIP3   OH219397   3.500   7.067   3.719  0.3532  0.2567 -0.2248
 6492TIP3    H119398   3.552   7.122   3.661  1.9923 -1.8652 -0.8871
 6492TIP3    H219399   3.515   6.978   3.688 -2.1207 -0.6199  0.8527
 6493TIP3   OH219400   8.503   5.034   4.873  0.7737 -0.0585  0.5027
 6493TIP3    H119401   8.412   5.009   4.892  0.5025  0.4328 -0.0975
 6493TIP3    H219402   8.518   5.110   4.928 -0.5288  2.3429 -2.1508
 6494TIP3   OH219403   1.923   2.593   3.998  0.1592 -0.1102  0.7231
 6494TIP3    H119404   1.908   2.687   3.985 -1.6051 -0.4398  0.0146
 6494TIP3    H219405   1.862   2.551   3.937  1.7699 -1.7326  0.1703
 6495TIP3   OH219406   2.626   4.044   3.418  0.1205 -0.2118 -0.3525
 6495TIP3    H119407   2.684   4.002   3.355  0.1423  1.3108 -1.3954
 6495TIP3    H219408   2.542   4.000   3.406  1.1006 -2.8712  1.6078
 6496TIP3   OH219409   1.781   4.936   4.893  0.5506  0.4368 -0.0012
 6496TIP3    H119410   1.710   4.943   4.957 -0.9787  0.9214 -1.6770
 6496TIP3    H219411   1.798   4.842   4.886  0.0398  0.3117  0.3696
 6497TIP3   OH219412   6.262   5.725   1.103  0.1416 -0.5041  0.2575
 6497TIP3    H119413   6.302   5.663   1.164  0.4457 -0.5436  0.0212
 6497TIP3    H219414   6.187   5.678   1.066 -0.1358 -0.4267  0.7092
 6498TIP3   OH219415   4.134   1.485   5.010 -0.2096  0.3020  0.2991
 6498TIP3    H119416   4.183   1.495   4.929 -0.1469 -0.7922  0.1875
 6498TIP3    H219417   4.056   1.434   4.985 -0.6987  0.8122  0.7431
 6499TIP3   OH219418   4.944   7.273   4.777  0.3502  0.3921 -0.1769
 6499TIP3    H119419   4.940   7.184   4.812  0.5332 -0.2172 -1.6486
 6499TIP3    H219420   5.012   7.316   4.829 -0.0816 -0.1557  0.8875
 6500TIP3   OH219421   8.342   3.957   5.800 -0.0886  0.3125  0.4041
 6500TIP3    H119422   8.308   3.990   5.717  0.2125 -3.0239 -1.2134
 6500TIP3    H219423   8.265   3.948   5.856 -0.7074  0.2361 -0.4434
 6501TIP3   OH219424   6.241   0.728   5.842 -0.4555 -0.5090 -0.3260
 6501TIP3    H119425   6.208   0.655   5.895 -1.3265 -2.1256 -2.9182
 6501TIP3    H219426   6.285   0.785   5.905 -2.1032 -1.8631  2.2453
 6502TIP3   OH219427   4.601   7.284   2.722 -0.0348  0.6180  0.1503
 6502TIP3    H119428   4.572   7.270   2.632  0.9067  0.6989 -0.1767
 6502TIP3    H219429   4.534   7.340   2.761 -1.8722 -1.5763  0.3410
 6503TIP3   OH219430   1.015   4.370   5.718  0.1656  0.2453  0.3226
 6503TIP3    H119431   1.030   4.355   5.812  1.8740  1.1893  0.2381
 6503TIP3    H219432   0.919   4.371   5.709 -0.0527  1.1967  2.2489
 6504TIP3   OH219433   4.621   5.770   4.542 -0.0236  0.3904 -0.2250
 6504TIP3    H119434   4.640   5.861   4.564 -0.4417  0.3562  0.3021
 6504TIP3    H219435   4.554   5.775   4.475  0.9731  0.4895 -1.2439
 6505TIP3   OH219436   2.254   6.392   5.019 -0.0962  0.2007  0.0685
 6505TIP3    H119437   2.347   6.380   5.033 -0.5924 -3.2939  1.2905
 6505TIP3    H219438   2.248   6.437   4.934  2.6512  1.0851  0.2601
 6506TIP3   OH219439   7.938   6.647   5.231 -0.2330 -0.3902 -0.0742
 6506TIP3    H119440   7.982   6.731   5.245  0.8470 -0.2656 -3.2547
 6506TIP3    H219441   7.862   6.669   5.177 -0.7378 -1.3115  0.2439
 6507TIP3   OH219442   0.114   3.252   3.683  0.3917 -0.6359 -0.1313
 6507TIP3    H119443   0.148   3.170   3.719  2.3594  0.1435 -0.0740
 6507TIP3    H219444   0.175   3.319   3.714 -0.1066  0.6048 -1.6678
 6508TIP3   OH219445   4.341   1.953   3.526 -0.6051 -0.0793 -0.2460
 6508TIP3    H119446   4.275   1.948   3.595 -0.5225 -1.2784 -0.2278
 6508TIP3    H219447   4.360   2.046   3.517 -1.1814  0.1532  0.8085
 6509TIP3   OH219448   2.264   1.964   6.328 -0.0099  0.1381  0.0516
 6509TIP3    H119449   2.190   1.903   6.340  0.9680 -1.4818 -1.5467
 6509TIP3    H219450   2.253   2.029   6.397 -1.7455 -1.2422  1.1716
 6510TIP3   OH219451   5.889   6.297   4.150  0.3757 -0.4941  0.0859
 6510TIP3    H119452   5.883   6.294   4.245  1.0576 -0.8119  0.1262
 6510TIP3    H219453   5.974   6.338   4.133  0.5713 -1.0852 -0.3800
 6511TIP3   OH219454   0.711   6.898   2.468 -0.5956  0.7249  0.0622
 6511TIP3    H119455   0.739   6.960   2.401  0.2554  0.0719 -0.2039
 6511TIP3    H219456   0.785   6.891   2.528 -1.2203  1.0382  0.8885
 6512TIP3   OH219457   4.464   1.709   0.732 -0.1060 -0.4310 -0.1988
 6512TIP3    H119458   4.524   1.675   0.666 -0.5153 -1.3902 -0.0892
 6512TIP3    H219459   4.394   1.750   0.682 -0.9106 -1.9996 -0.4090
 6513TIP3   OH219460   2.361   4.474   2.342  0.3458 -0.0498  0.3319
 6513TIP3    H119461   2.398   4.415   2.276  3.8968  1.3269  0.8529
 6513TIP3    H219462   2.376   4.428   2.425 -1.2837 -0.4155  0.4596
 6514TIP3   OH219463   4.891   6.622   2.368 -0.0421  0.4940  0.1644
 6514TIP3    H119464   4.937   6.590   2.446  0.7736  1.4038  0.0779
 6514TIP3    H219465   4.906   6.717   2.369  0.2268  0.4880 -1.2438
 6515TIP3   OH219466   4.074   7.441   5.946 -0.1874  0.0450 -0.1442
 6515TIP3    H119467   4.069   7.346   5.931  0.0336 -0.4131  2.2184
 6515TIP3    H219468   4.164   7.465   5.925 -0.4853 -0.0688 -1.6234
 6516TIP3   OH219469   2.080   6.469   4.517 -0.1477 -0.3601  0.0016
 6516TIP3    H119470   2.016   6.453   4.586 -1.0894  2.1988 -0.1736
 6516TIP3    H219471   2.156   6.415   4.542 -1.3731 -1.4304  1.6406
 6517TIP3   OH219472   7.370   2.904   4.465  0.1245 -0.0178  0.2940
 6517TIP3    H119473   7.290   2.874   4.422  0.4786 -0.4653 -0.0727
 6517TIP3    H219474   7.346   2.985   4.508  0.0438  1.1323 -1.8047
 6518TIP3   OH219475   3.994   6.933   5.124 -0.0295 -0.0070  0.1584
 6518TIP3    H119476   4.070   6.939   5.182 -0.7245  1.4499  0.9759
 6518TIP3    H219477   3.998   6.845   5.087  0.5464 -0.9140  2.2756
 6519TIP3   OH219478   2.271   0.187   0.031 -0.0851  0.0892 -0.1194
 6519TIP3    H119479   2.300   0.097   0.042  1.7693  0.3742 -2.0826
 6519TIP3    H219480   2.310   0.215  -0.052 -2.0813  2.1351 -0.4669
 6520TIP3   OH219481   6.716   1.151   5.760  0.2459  0.0546  0.2758
 6520TIP3    H119482   6.621   1.158   5.768  0.0581 -2.1745  0.7170
 6520TIP3    H219483   6.730   1.114   5.673  0.4882 -1.9468  1.0989
 6521TIP3   OH219484   5.561   0.694   4.633 -0.0490  0.1630 -1.1226
 6521TIP3    H119485   5.640   0.649   4.663  0.0668 -0.0042 -1.6679
 6521TIP3    H219486   5.587   0.786   4.629  0.5295 -0.0355 -2.5463
 6522TIP3   OH219487   7.109   3.092   6.292  0.6260 -0.5696  0.0501
 6522TIP3    H119488   7.018   3.123   6.296  0.0725 -1.9286 -1.2369
 6522TIP3    H219489   7.147   3.137   6.217  0.7563 -0.6821  0.0487
 6523TIP3   OH219490   6.727   4.322   2.402  0.0895 -0.4750  0.3873
 6523TIP3    H119491   6.782   4.399   2.416 -0.1429 -0.2859  0.2774
 6523TIP3    H219492   6.680   4.311   2.485  0.7195 -0.9853  0.6813
 6524TIP3   OH219493   0.907   4.348   0.425 -0.7449  0.6266  0.2214
 6524TIP3    H119494   0.851   4.379   0.497 -1.3065 -0.3039  0.2150
 6524TIP3    H219495   0.988   4.322   0.468 -0.3881  1.7768  0.2646
 6525TIP3   OH219496   6.829   7.474   4.683  0.7857  0.1045  0.5828
 6525TIP3    H119497   6.801   7.402   4.740 -0.2356  0.0384  0.0153
 6525TIP3    H219498   6.826   7.437   4.595 -0.3432  0.9998  0.2234
 6526TIP3   OH219499   0.827   4.910   6.732  0.5281 -0.3468  0.6626
 6526TIP3    H119500   0.825   4.923   6.638  0.7591 -1.2364  0.5237
 6526TIP3    H219501   0.906   4.957   6.761 -0.2817  1.0840  0.6204
 6527TIP3   OH219502   4.425   4.564   3.971 -0.6483  0.4133 -0.0586
 6527TIP3    H119503   4.470   4.540   4.052  0.6838  1.0070 -0.6051
 6527TIP3    H219504   4.342   4.603   4.000 -0.5906 -0.2054  0.9760
 6528TIP3   OH219505   3.759   2.514   1.356  0.3716 -0.3083 -0.4365
 6528TIP3    H119506   3.678   2.563   1.369  1.1133  1.7011 -2.5530
 6528TIP3    H219507   3.738   2.451   1.287  0.5353  0.0611 -0.8281
 6529TIP3   OH219508   4.938   2.207   4.230 -0.6597  0.2989 -0.0602
 6529TIP3    H119509   5.009   2.221   4.292 -0.5889 -0.3582  0.0092
 6529TIP3    H219510   4.951   2.118   4.198  0.6932  1.3620 -2.7963
 6530TIP3   OH219511   1.950   3.777   3.966  0.3241 -0.0208  0.5042
 6530TIP3    H119512   1.920   3.804   3.879 -0.0859  0.3105  0.7432
 6530TIP3    H219513   2.034   3.734   3.950  0.4766  0.4476 -0.0100
 6531TIP3   OH219514   4.709   5.055   6.148  0.0149  0.0375 -0.0790
 6531TIP3    H119515   4.780   5.086   6.092 -1.9342  2.9316 -1.1554
 6531TIP3    H219516   4.719   4.959   6.147  2.2469  0.1727 -2.3612
 6532TIP3   OH219517   2.556   5.419   4.382  0.6229 -0.1375 -0.1095
 6532TIP3    H119518   2.519   5.333   4.403  0.4281  0.0719  0.4376
 6532TIP3    H219519   2.646   5.401   4.356  0.4113 -0.5650 -0.5508
 6533TIP3   OH219520   2.958   3.953   3.884  0.2924  0.3070 -0.3143
 6533TIP3    H119521   2.981   3.872   3.930 -0.4599  0.6902  0.7751
 6533TIP3    H219522   2.958   4.020   3.953 -2.1099  0.6808 -0.6189
 6534TIP3   OH219523   4.457   4.373   4.865  0.9799 -0.1056  0.3846
 6534TIP3    H119524   4.366   4.346   4.866  0.6039  1.0971 -0.0654
 6534TIP3    H219525   4.456   4.466   4.885  1.9962  0.1931 -0.7840
 6535TIP3   OH219526   1.843   1.975   0.970  0.0861  0.2837  0.1101
 6535TIP3    H119527   1.910   2.034   1.003 -0.8898  1.4877  0.0164
 6535TIP3    H219528   1.857   1.974   0.875 -1.4238  2.4350 -0.2184
 6536TIP3   OH219529   3.006   6.076   5.802  0.5301 -0.4932 -0.4445
 6536TIP3    H119530   3.072   6.097   5.735  2.0574 -0.3347  1.0275
 6536TIP3    H219531   3.057   6.038   5.874 -1.1737 -1.5405  0.2751
 6537TIP3   OH219532   0.711   3.999   1.079 -0.2721 -0.2320 -0.7062
 6537TIP3    H119533   0.788   4.042   1.116  0.4439 -0.2596 -2.0843
 6537TIP3    H219534   0.639   4.059   1.096 -0.2157 -0.7356  1.6424
 6538TIP3   OH219535   5.259   7.123   3.963  0.4921  0.3437  0.3368
 6538TIP3    H119536   5.268   7.154   4.053  2.3912 -0.4846  0.4932
 6538TIP3    H219537   5.205   7.044   3.970 -0.4848  1.0201  0.5502
 6539TIP3   OH219538   7.994   3.477   6.011  0.7552 -0.0038 -0.2628
 6539TIP3    H119539   7.933   3.548   5.992  0.9134  0.0816 -0.4450
 6539TIP3    H219540   7.978   3.412   5.943  0.5989 -0.1531 -0.0868
 6540TIP3   OH219541   3.689   5.105   6.230 -0.2688 -0.2552 -0.4386
 6540TIP3    H119542   3.663   5.197   6.227  0.9021  0.0820 -1.8603
 6540TIP3    H219543   3.728   5.093   6.316 -0.5697  0.5396 -0.1879
 6541TIP3   OH219544   0.673   7.350   3.455  0.3984  0.1862  0.2043
 6541TIP3    H119545   0.686   7.428   3.401 -1.6598  0.2178 -0.3288
 6541TIP3    H219546   0.651   7.281   3.393  0.6208 -0.4404  0.8064
 6542TIP3   OH219547   6.628   6.000   5.992  0.3150  0.0317  0.0314
 6542TIP3    H119548   6.639   5.905   5.988 -0.8005 -0.1166  0.0705
 6542TIP3    H219549   6.592   6.015   6.080 -1.1067  0.2961 -0.5736
 6543TIP3   OH219550   2.229   1.309   1.821  0.1762  0.4871 -0.0848
 6543TIP3    H119551   2.323   1.289   1.823  0.4388  1.6477 -0.0469
 6543TIP3    H219552   2.196   1.275   1.904  0.6919  0.6635  0.1986
 6544TIP3   OH219553   1.754   0.647   0.809 -0.0993 -1.0066 -0.6126
 6544TIP3    H119554   1.684   0.680   0.753  0.8163  0.0444 -1.1611
 6544TIP3    H219555   1.713   0.637   0.895 -0.5670  1.0593 -0.5463
 6545TIP3   OH219556   0.657   0.183   4.587 -0.1306  0.1450  0.4537
 6545TIP3    H119557   0.714   0.160   4.513 -0.0437  0.7614  0.3212
 6545TIP3    H219558   0.661   0.108   4.645 -0.1757 -0.3370 -0.1601
 6546TIP3   OH219559   2.340   5.789   3.073 -0.3091 -0.2114 -0.4419
 6546TIP3    H119560   2.369   5.842   2.999  2.9169 -0.6067  0.3907
 6546TIP3    H219561   2.366   5.700   3.049 -2.6304 -0.9756 -0.3735
 6547TIP3   OH219562   5.138   1.485   4.079 -0.3176  0.2879 -0.2393
 6547TIP3    H119563   5.099   1.572   4.068 -0.1560  1.0456  3.8616
 6547TIP3    H219564   5.063   1.428   4.094 -0.2573  0.7940  2.3960
 6548TIP3   OH219565   2.077   1.793   0.372  0.0406 -0.1086 -0.4713
 6548TIP3    H119566   1.984   1.774   0.362 -0.4196  0.1611  2.4724
 6548TIP3    H219567   2.090   1.874   0.323 -1.2796 -0.1326 -0.8890
 6549TIP3   OH219568   3.277   1.067   3.743  0.1064  0.1418  0.1500
 6549TIP3    H119569   3.216   1.093   3.674 -0.1317 -0.5944  0.0714
 6549TIP3    H219570   3.336   1.142   3.753  0.1534  0.2515 -0.8598
 6550TIP3   OH219571   1.897   0.596   3.177  0.2918  0.0386  0.0847
 6550TIP3    H119572   1.877   0.678   3.223 -0.5510  0.0524 -0.2841
 6550TIP3    H219573   1.871   0.527   3.239 -0.4690  0.0576 -0.2017
 6551TIP3   OH219574   2.412   0.433   2.251  0.2065 -0.3560 -0.0263
 6551TIP3    H119575   2.352   0.361   2.270 -0.2000 -0.2630 -0.9182
 6551TIP3    H219576   2.469   0.399   2.182  0.7615 -0.2151  0.3567
 6552TIP3   OH219577   2.208   2.727   5.684 -0.5488 -0.0491 -0.0991
 6552TIP3    H119578   2.240   2.791   5.621 -0.2371  0.1515  0.2596
 6552TIP3    H219579   2.159   2.778   5.748 -0.9594 -0.2654 -0.2403
 6553TIP3   OH219580   7.077   3.588   3.505 -0.0109  0.4962 -0.0133
 6553TIP3    H119581   7.001   3.610   3.559 -0.0450 -0.5097  0.3802
 6553TIP3    H219582   7.064   3.496   3.482  0.1238  0.8403 -1.5745
 6554TIP3   OH219583   3.640   2.299   2.181  0.2412  0.1167  0.3567
 6554TIP3    H119584   3.562   2.272   2.230 -0.6482  0.6688 -0.7117
 6554TIP3    H219585   3.639   2.244   2.103  0.1253  1.0977 -0.3429
 6555TIP3   OH219586   4.041   7.414   3.526 -0.8391 -0.1778  0.2622
 6555TIP3    H119587   3.990   7.426   3.606 -0.4978  1.0215  0.3304
 6555TIP3    H219588   3.986   7.453   3.457 -0.7668 -0.4471  0.0507
 6556TIP3   OH219589   8.276   7.959   5.251 -0.0223  0.2830 -0.0322
 6556TIP3    H119590   8.348   7.905   5.284 -1.2949  0.0139  2.4963
 6556TIP3    H219591   8.200   7.901   5.251 -0.2883  0.4508 -3.0280
 6557TIP3   OH219592   6.954   2.024   2.588  0.3062 -0.5079  0.3530
 6557TIP3    H119593   6.906   2.030   2.671 -1.7076 -0.7343 -0.7289
 6557TIP3    H219594   6.941   1.933   2.560  2.9690 -1.1425  0.8641
 6558TIP3   OH219595   7.721   1.097   3.285 -0.0285 -0.3282 -0.0701
 6558TIP3    H119596   7.725   1.032   3.355  0.8170 -1.1617 -0.8515
 6558TIP3    H219597   7.701   1.046   3.207  0.4336  0.3864 -0.6692
 6559TIP3   OH219598   6.744   4.901   0.574  0.0803 -0.7522  0.2170
 6559TIP3    H119599   6.784   4.901   0.487 -2.5682 -0.6143 -1.1190
 6559TIP3    H219600   6.701   4.815   0.581 -1.9834  0.2120  0.1880
 6560TIP3   OH219601   5.527   1.971   2.473 -0.1326 -0.8006 -0.1496
 6560TIP3    H119602   5.473   1.979   2.551 -2.0913  1.5899 -1.6030
 6560TIP3    H219603   5.607   2.020   2.493 -0.1420 -1.1258  0.7002
 6561TIP3   OH219604   8.586   7.100   4.056 -0.3539 -0.2868  0.3443
 6561TIP3    H119605   8.529   7.141   4.121  0.4244  0.0032  0.8543
 6561TIP3    H219606   8.646   7.170   4.029 -1.5468  0.0310 -1.7650
 6562TIP3   OH219607   1.042   6.064   1.803 -0.6857  0.3848  0.0021
 6562TIP3    H119608   1.054   5.976   1.766 -0.3630 -0.7296  2.5423
 6562TIP3    H219609   1.115   6.074   1.865 -0.3813  2.7249 -0.6179
 6563TIP3   OH219610   1.910   3.642   1.367  0.1398  0.0321  0.0385
 6563TIP3    H119611   1.953   3.618   1.449  0.0876 -0.3794 -0.0547
 6563TIP3    H219612   1.980   3.677   1.313  0.1894  0.2309  0.2304
 6564TIP3   OH219613   5.145   4.148   0.570 -0.1220  0.3733  0.3099
 6564TIP3    H119614   5.112   4.095   0.497  0.4335  0.4923 -0.0316
 6564TIP3    H219615   5.067   4.191   0.606 -0.3101  0.7957 -0.6008
 6565TIP3   OH219616   6.462   0.921   3.757  0.0454 -0.1443  0.6713
 6565TIP3    H119617   6.470   0.854   3.825 -0.2367  0.1643  1.0085
 6565TIP3    H219618   6.435   0.872   3.679 -1.9323 -0.2150  1.3427
 6566TIP3   OH219619   5.767   7.968   4.145 -0.8354  0.2197  0.3681
 6566TIP3    H119620   5.718   7.917   4.209 -0.3250  0.7446  1.1959
 6566TIP3    H219621   5.836   8.011   4.196  1.2602 -1.4262 -0.9178
 6567TIP3   OH219622   6.800   7.968   5.597  0.1475 -0.1523 -0.6216
 6567TIP3    H119623   6.723   7.925   5.562  0.0194 -0.8617  0.4589
 6567TIP3    H219624   6.868   7.953   5.532 -0.6723  0.6817 -1.6903
 6568TIP3   OH219625   4.275   4.410   2.420 -0.2902 -0.2866 -0.5537
 6568TIP3    H119626   4.316   4.495   2.437  0.7956 -1.1982  1.8595
 6568TIP3    H219627   4.186   4.419   2.455 -0.0401 -0.2483  0.0890
 6569TIP3   OH219628   5.406   0.886   5.809 -0.7432 -0.3868 -0.8338
 6569TIP3    H119629   5.478   0.873   5.747 -0.5139 -1.3231 -0.3854
 6569TIP3    H219630   5.385   0.979   5.802  0.1218 -0.2208 -1.3938
 6570TIP3   OH219631   8.205   2.671   5.761  0.3608  0.5481 -0.4572
 6570TIP3    H119632   8.124   2.670   5.709 -0.6047 -0.2247  0.9698
 6570TIP3    H219633   8.268   2.621   5.709 -0.8480 -1.0101 -0.5103
 6571TIP3   OH219634   0.459   6.598   5.880 -0.1844 -0.1565 -0.5987
 6571TIP3    H119635   0.538   6.648   5.896 -0.2366 -0.3952  0.5359
 6571TIP3    H219636   0.432   6.621   5.791 -0.8592  2.7537  0.2497
 6572TIP3   OH219637   1.580   6.305   4.945  0.1565  0.5124 -0.0165
 6572TIP3    H119638   1.593   6.244   5.018  0.9030  1.7446  0.9047
 6572TIP3    H219639   1.488   6.292   4.920  0.3834 -1.2370 -0.0984
 6573TIP3   OH219640   4.312   6.804   1.188  0.5910 -0.0794 -0.2771
 6573TIP3    H119641   4.348   6.726   1.230  0.9421 -0.0710 -0.5630
 6573TIP3    H219642   4.388   6.850   1.153  0.1438 -1.2484 -2.9651
 6574TIP3   OH219643   0.768   6.991   4.347 -0.0454 -0.2385 -0.1897
 6574TIP3    H119644   0.769   6.897   4.364  0.9779 -0.1307  0.4599
 6574TIP3    H219645   0.724   7.029   4.423 -2.6059 -0.3421 -1.5359
 6575TIP3   OH219646   6.545   6.541   3.872 -0.2323 -0.2401 -0.0231
 6575TIP3    H119647   6.584   6.598   3.937 -0.0482  0.7757 -1.0080
 6575TIP3    H219648   6.505   6.600   3.808  0.2642 -1.1921 -1.2556
 6576TIP3   OH219649   4.032   6.293   2.859 -0.4229 -0.3959 -0.2449
 6576TIP3    H119650   4.012   6.202   2.881 -1.1117 -0.5317 -1.3190
 6576TIP3    H219651   4.004   6.302   2.768  3.0973 -0.1740 -1.4722
 6577TIP3   OH219652   1.862   3.643   5.054  0.0530 -0.6709  0.3217
 6577TIP3    H119653   1.817   3.715   5.011  3.5644  1.0729 -0.8453
 6577TIP3    H219654   1.880   3.676   5.143  0.3543 -0.7072  0.2756
 6578TIP3   OH219655   3.029   7.138   6.268  0.6712 -0.3239  0.9664
 6578TIP3    H119656   3.034   7.061   6.325  0.1027 -0.1193  1.3064
 6578TIP3    H219657   3.116   7.178   6.274  0.6304 -0.3216  1.6746
 6579TIP3   OH219658   5.381   6.832   1.475  0.1482  0.1717 -0.2025
 6579TIP3    H119659   5.451   6.791   1.526  0.9653  0.3213 -1.1734
 6579TIP3    H219660   5.418   6.916   1.447 -0.9297  0.8737  0.4214
 6580TIP3   OH219661   2.972   3.729   3.580 -0.6422 -0.3749 -0.5220
 6580TIP3    H119662   3.006   3.706   3.667 -1.5831 -1.2833 -0.3697
 6580TIP3    H219663   3.024   3.677   3.519  0.0519  0.3003 -0.5048
 6581TIP3   OH219664   3.254   1.260   5.495 -0.3575  0.3566  0.2771
 6581TIP3    H119665   3.309   1.326   5.453  1.1675 -0.3849  1.0397
 6581TIP3    H219666   3.314   1.190   5.520 -1.8484 -1.0885 -0.0094
 6582TIP3   OH219667   8.668   0.095   4.991 -0.5242 -0.0351 -0.2042
 6582TIP3    H119668   8.587   0.131   5.026 -0.3804  0.3815 -0.2966
 6582TIP3    H219669   8.730   0.167   4.994  0.2208 -0.7021  1.0679
 6583TIP3   OH219670   1.912   7.648   6.549  0.0492  0.1294 -0.4105
 6583TIP3    H119671   1.823   7.685   6.546  0.0530  0.1277 -2.9421
 6583TIP3    H219672   1.902   7.559   6.514  0.9283 -0.1917  0.1315
 6584TIP3   OH219673   2.956   4.721   6.046 -0.4369 -0.0403 -0.6682
 6584TIP3    H119674   3.029   4.732   6.106 -0.6581 -0.2225 -0.3675
 6584TIP3    H219675   2.885   4.772   6.085 -1.0595 -1.3992  0.0365
 6585TIP3   OH219676   1.392   7.646   3.075  0.2619  0.6035 -0.3938
 6585TIP3    H119677   1.400   7.737   3.104  2.1709  0.5742 -0.7006
 6585TIP3    H219678   1.413   7.648   2.982  0.0423 -0.1240 -0.4653
 6586TIP3   OH219679   5.304   6.062   5.019  0.0091 -0.0125  0.4257
 6586TIP3    H119680   5.288   5.974   5.051  1.4615 -0.5165 -0.1578
 6586TIP3    H219681   5.336   6.110   5.095 -2.7199  0.6406  1.2681
 6587TIP3   OH219682   5.605   7.458   4.073 -0.5683 -0.7120  0.0211
 6587TIP3    H119683   5.623   7.377   4.119  1.8923 -0.7103 -0.7959
 6587TIP3    H219684   5.677   7.516   4.097 -1.8159  0.9485 -0.0825
 6588TIP3   OH219685   0.162   5.191   1.813 -0.1077 -0.2709  0.3494
 6588TIP3    H119686   0.136   5.259   1.751  1.3080 -0.3445 -0.3546
 6588TIP3    H219687   0.086   5.183   1.872 -1.1834  0.3295 -0.8917
 6589TIP3   OH219688   4.416   3.902   0.080 -0.1760 -0.6935  0.1979
 6589TIP3    H119689   4.356   3.944   0.018  1.7191  2.0095  0.0217
 6589TIP3    H219690   4.394   3.809   0.076 -2.3621 -0.1813 -1.9871
 6590TIP3   OH219691   6.944   4.676   7.114  0.4572  0.3781  0.0672
 6590TIP3    H119692   6.870   4.732   7.139 -0.0434 -0.3052  0.1537
 6590TIP3    H219693   6.917   4.636   7.031 -0.3130 -1.6797  1.2279
 6591TIP3   OH219694   0.847   1.261   6.720 -0.3208  0.3906  0.3043
 6591TIP3    H119695   0.774   1.200   6.721  0.5475 -0.7030 -0.1982
 6591TIP3    H219696   0.921   1.210   6.686 -0.1693  2.4074 -2.8601
 6592TIP3   OH219697   5.515   6.451   6.851 -0.6724 -0.2450 -0.6127
 6592TIP3    H119698   5.510   6.538   6.812  0.7158 -0.6548 -1.8066
 6592TIP3    H219699   5.576   6.462   6.925 -1.1304 -0.0465 -0.2595
 6593TIP3   OH219700   2.615   6.413   3.510  0.4109  0.4420 -0.3163
 6593TIP3    H119701   2.582   6.365   3.435 -0.6527  1.7481 -0.7338
 6593TIP3    H219702   2.563   6.382   3.584 -1.9460  2.4715 -0.9648
 6594TIP3   OH219703   8.674   4.951   3.307 -0.4985  0.1132 -0.4623
 6594TIP3    H119704   8.748   4.907   3.349 -0.1316 -0.1406 -1.3520
 6594TIP3    H219705   8.649   5.020   3.369 -1.7119 -1.9130  1.4199
 6595TIP3   OH219706   1.136   7.580   6.430 -0.3434  0.3848 -0.4279
 6595TIP3    H119707   1.087   7.639   6.487 -1.5536 -0.2755 -0.7512
 6595TIP3    H219708   1.116   7.493   6.463  1.6447  0.1200  0.2153
 6596TIP3   OH219709   3.809   6.756   3.168 -0.1013 -0.3171 -0.3053
 6596TIP3    H119710   3.848   6.730   3.252 -0.9551  0.7349  0.4622
 6596TIP3    H219711   3.867   6.719   3.102  0.9989 -0.5868  0.7611
 6597TIP3   OH219712   1.470   6.853   5.308  0.5924 -0.1189  0.5601
 6597TIP3    H119713   1.483   6.922   5.242  0.3446  0.5456  1.1928
 6597TIP3    H219714   1.550   6.855   5.361  0.8023 -0.6689  0.2702
 6598TIP3   OH219715   6.545   0.293   5.260  0.7597 -0.2063  0.3155
 6598TIP3    H119716   6.557   0.224   5.195  1.6234 -0.5964  0.8877
 6598TIP3    H219717   6.450   0.303   5.266  0.6516  0.2679 -1.4598
 6599TIP3   OH219718   5.234   1.501   3.066 -0.4843  0.2067  0.1101
 6599TIP3    H119719   5.194   1.587   3.077  0.2362  0.5700 -0.0893
 6599TIP3    H219720   5.279   1.506   2.982  2.3512  0.7546  1.5635
 6600TIP3   OH219721   4.331   6.728   5.141  0.2800  1.0368  0.2818
 6600TIP3    H119722   4.252   6.683   5.111  1.1806 -0.1983 -0.3334
 6600TIP3    H219723   4.299   6.802   5.192 -1.2699  0.4249  0.2391
 6601TIP3   OH219724   7.952   2.966   0.230  0.3515 -0.6077  0.2642
 6601TIP3    H119725   7.953   2.919   0.313 -0.0652 -0.0610  0.5839
 6601TIP3    H219726   7.906   2.907   0.170  0.0181 -0.6974  0.6066
 6602TIP3   OH219727   2.902   0.184   0.247  0.3938  0.1881 -0.2502
 6602TIP3    H119728   2.949   0.261   0.280  0.2144  0.3677 -0.4097
 6602TIP3    H219729   2.878   0.135   0.326  0.2947  0.4233 -0.1317
 6603TIP3   OH219730   0.294   4.398   0.661 -0.3207  0.6987 -0.7397
 6603TIP3    H119731   0.227   4.365   0.601 -0.6423 -0.5419  0.2693
 6603TIP3    H219732   0.333   4.320   0.699  1.4802  1.4175 -1.0467
 6604TIP3   OH219733   6.385   5.934   5.259 -0.3411  0.0528 -0.0861
 6604TIP3    H119734   6.459   5.925   5.198  1.1874 -0.1470  1.7146
 6604TIP3    H219735   6.308   5.935   5.202  0.9520 -0.7916 -1.9802
 6605TIP3   OH219736   1.975   3.030   0.272  0.0927  0.2008 -0.5805
 6605TIP3    H119737   1.893   3.072   0.299 -0.0540  0.1631 -0.9619
 6605TIP3    H219738   1.949   2.942   0.243  0.5569 -0.6533  1.4148
 6606TIP3   OH219739   1.662   2.695   2.751 -0.0364  0.2196 -0.4278
 6606TIP3    H119740   1.580   2.650   2.769  1.1919 -1.3827  1.6311
 6606TIP3    H219741   1.712   2.687   2.832  2.0128  1.4499 -1.4928
 6607TIP3   OH219742   0.985   5.504   6.958  0.3716  0.2618  0.1897
 6607TIP3    H119743   0.944   5.578   6.914  0.6271 -0.2131 -0.8784
 6607TIP3    H219744   0.953   5.509   7.049 -2.1465 -0.1441 -0.5994
 6608TIP3   OH219745   5.243   5.495   6.603  0.0453  0.1248 -0.0283
 6608TIP3    H119746   5.286   5.410   6.607  1.0373  0.6556  1.0837
 6608TIP3    H219747   5.150   5.475   6.614  0.3393 -0.7594  1.0260
 6609TIP3   OH219748   1.915   3.468   4.554  0.1401 -0.1063  0.0114
 6609TIP3    H119749   1.989   3.460   4.615 -0.4395  1.2612  0.9598
 6609TIP3    H219750   1.851   3.520   4.602 -0.3613  0.9901 -1.7532
 6610TIP3   OH219751   8.365   3.675   2.623  0.2827 -0.1842 -0.2130
 6610TIP3    H119752   8.287   3.674   2.679  0.4855  0.0569  0.0763
 6610TIP3    H219753   8.331   3.673   2.534 -0.2131  3.8330 -0.2662
 6611TIP3   OH219754   3.980   7.674   3.810 -0.4221  0.1966 -0.7766
 6611TIP3    H119755   4.062   7.629   3.831 -0.9361  0.0088  0.9725
 6611TIP3    H219756   3.999   7.767   3.825 -0.4930  0.1641 -0.4812
 6612TIP3   OH219757   1.730   2.529   3.822  0.0032 -0.3175 -0.0365
 6612TIP3    H119758   1.636   2.518   3.806  0.2901 -0.3167 -1.9756
 6612TIP3    H219759   1.769   2.534   3.735  1.8038 -0.1687  0.7249
 6613TIP3   OH219760   6.277   5.372   5.735 -0.1314 -0.4740 -0.1474
 6613TIP3    H119761   6.366   5.370   5.700 -0.0594 -1.2915  0.0596
 6613TIP3    H219762   6.236   5.292   5.701 -0.6139 -0.3757  0.1885
 6614TIP3   OH219763   5.730   4.298   3.854 -0.4143 -0.5151  0.1735
 6614TIP3    H119764   5.688   4.261   3.777  0.8434  0.2721 -0.9547
 6614TIP3    H219765   5.705   4.241   3.926 -2.5968 -0.5920 -0.5896
 6615TIP3   OH219766   5.035   4.285   3.802 -0.0947  0.0099  0.1769
 6615TIP3    H119767   5.095   4.296   3.876  1.4065 -2.0965 -0.6285
 6615TIP3    H219768   5.045   4.366   3.752 -0.7773  1.2676  1.9696
 6616TIP3   OH219769   6.305   1.210   0.193  0.2466  0.4846 -0.3728
 6616TIP3    H119770   6.342   1.187   0.278 -0.7976  2.6056  0.7301
 6616TIP3    H219771   6.265   1.129   0.162  0.3588 -0.2593  1.2968
 6617TIP3   OH219772   3.078   3.287   6.476 -0.0170  0.7993 -0.2983
 6617TIP3    H119773   2.995   3.255   6.441  0.4584 -1.6833  0.6339
 6617TIP3    H219774   3.058   3.315   6.565  0.1749 -0.0957  0.0356
 6618TIP3   OH219775   4.798   2.723   0.726  0.0628 -0.9893 -0.8727
 6618TIP3    H119776   4.847   2.735   0.807 -0.2386  1.7140 -1.0082
 6618TIP3    H219777   4.707   2.729   0.752 -0.2581 -4.0496 -0.9186
 6619TIP3   OH219778   3.146   6.741   5.494 -0.4925  0.0676  0.0275
 6619TIP3    H119779   3.152   6.684   5.571 -1.8241  0.5678  0.5383
 6619TIP3    H219780   3.231   6.734   5.452  0.3032 -0.1389  1.6035
 6620TIP3   OH219781   6.053   1.076   6.861 -0.2341 -0.2649 -0.6968
 6620TIP3    H119782   5.976   1.078   6.918  0.0500  1.9830 -0.3267
 6620TIP3    H219783   6.039   1.146   6.798  1.1638 -0.3110 -1.1012
 6621TIP3   OH219784   0.391   1.650   1.245  0.3942 -0.3699  1.1788
 6621TIP3    H119785   0.422   1.605   1.323  2.1264  1.5959  1.7292
 6621TIP3    H219786   0.412   1.742   1.261  0.7823  0.1069 -1.5752
 6622TIP3   OH219787   5.870   6.074   5.664 -0.6058  0.3648 -0.0917
 6622TIP3    H119788   5.790   6.090   5.714 -1.3210  1.2163 -1.4554
 6622TIP3    H219789   5.898   6.160   5.635 -0.9779 -0.2060 -2.2919
 6623TIP3   OH219790   0.837   3.338   4.646 -0.1258 -0.5356 -0.4463
 6623TIP3    H119791   0.826   3.299   4.560  0.5568  1.5035 -1.5091
 6623TIP3    H219792   0.926   3.316   4.672  0.2276  0.2019 -1.0037
 6624TIP3   OH219793   8.018   7.848   2.917  0.3877  0.0010 -0.0504
 6624TIP3    H119794   7.931   7.812   2.899  0.5759 -0.6467  0.3285
 6624TIP3    H219795   8.020   7.862   3.011  0.3229  1.0047 -0.1888
 6625TIP3   OH219796   2.907   3.609   6.535  0.0615 -0.1390 -0.4605
 6625TIP3    H119797   2.897   3.522   6.574 -1.0653 -0.2421 -0.9394
 6625TIP3    H219798   2.855   3.667   6.591 -0.2054  0.0003 -0.8437
 6626TIP3   OH219799   5.771   5.217   6.393  0.2598 -0.1249  0.4111
 6626TIP3    H119800   5.863   5.219   6.368  0.3154  0.4516  0.6284
 6626TIP3    H219801   5.725   5.256   6.319  0.2982  0.4794  0.6993
 6627TIP3   OH219802   4.253   2.199   6.665 -0.2088 -0.1362 -0.0904
 6627TIP3    H119803   4.234   2.289   6.640  0.6392  0.7387  2.1773
 6627TIP3    H219804   4.176   2.149   6.636 -0.5974  1.2255 -1.5687
 6628TIP3   OH219805   1.074   1.802   4.110  0.1721  0.0543 -0.1631
 6628TIP3    H119806   1.133   1.778   4.038 -1.4200  0.7011 -1.7517
 6628TIP3    H219807   1.062   1.897   4.101 -0.2110  0.1095  0.8330
 6629TIP3   OH219808   7.803   4.058   6.511  0.2740 -0.1966 -0.1939
 6629TIP3    H119809   7.840   4.143   6.533  0.7008 -0.5843  0.6538
 6629TIP3    H219810   7.863   4.022   6.446  1.2250 -0.6756  0.9183
 6630TIP3   OH219811   8.164   3.282   2.767  0.4024  0.1885 -0.0692
 6630TIP3    H119812   8.112   3.338   2.824 -2.6692 -0.0841 -2.4042
 6630TIP3    H219813   8.224   3.341   2.723  1.1166  0.7361  1.5456
 6631TIP3   OH219814   4.649   3.882   6.287 -0.3202 -0.1065 -0.1407
 6631TIP3    H119815   4.564   3.848   6.260 -1.4341  1.1882  1.5016
 6631TIP3    H219816   4.678   3.937   6.214 -1.2453  0.0077 -0.4340
 6632TIP3   OH219817   6.237   1.455   3.881 -0.0265  0.2217  0.3127
 6632TIP3    H119818   6.247   1.428   3.790 -2.6639  1.1674 -0.3342
 6632TIP3    H219819   6.161   1.406   3.913  0.4956  0.3504  1.8370
 6633TIP3   OH219820   3.961   7.100   6.282 -0.4540 -0.0594  0.2864
 6633TIP3    H119821   3.922   7.099   6.194 -0.7827  1.0170  0.4052
 6633TIP3    H219822   3.933   7.183   6.319 -0.5842 -0.6450  1.5410
 6634TIP3   OH219823   7.417   3.364   5.962 -0.1005  0.1874  0.5266
 6634TIP3    H119824   7.325   3.358   5.937 -0.3678 -1.2474  1.7341
 6634TIP3    H219825   7.427   3.302   6.034  1.8733  0.1054  0.2488
 6635TIP3   OH219826   6.518   3.988   0.275 -0.0279  0.3161  0.2147
 6635TIP3    H119827   6.603   3.989   0.231 -1.2813  0.5311 -2.4147
 6635TIP3    H219828   6.529   3.930   0.350  1.8693 -1.3596 -1.2923
 6636TIP3   OH219829   0.118   0.563   1.435  0.4090  0.3089  0.5464
 6636TIP3    H119830   0.181   0.580   1.364 -0.5430  0.3693 -0.3140
 6636TIP3    H219831   0.085   0.475   1.417 -0.6618  0.7476  0.2334
 6637TIP3   OH219832   0.870   3.038   5.554  0.2166  0.2151 -0.5429
 6637TIP3    H119833   0.849   3.112   5.496 -2.5091  0.4640  0.5780
 6637TIP3    H219834   0.946   2.997   5.514  0.4276  2.2670 -2.4820
 6638TIP3   OH219835   8.623   0.023   2.708 -0.3862  0.2216  0.5518
 6638TIP3    H119836   8.620  -0.071   2.725 -0.0936  0.3500  1.3480
 6638TIP3    H219837   8.676   0.058   2.779  0.7492  0.8038 -0.5371
 6639TIP3   OH219838   3.858   6.882   1.573 -0.0201  0.1404  0.2477
 6639TIP3    H119839   3.765   6.858   1.581  0.2067 -0.6330  0.6263
 6639TIP3    H219840   3.857   6.978   1.569 -0.7508  0.2144  1.6221
 6640TIP3   OH219841   5.537   7.539   6.868 -0.5585 -0.0879 -0.4063
 6640TIP3    H119842   5.625   7.558   6.902 -0.1750 -1.4751 -0.5552
 6640TIP3    H219843   5.496   7.625   6.859  0.5981  0.5550  0.1565
 6641TIP3   OH219844   1.077   0.351   6.344  0.4928  0.5355 -0.0082
 6641TIP3    H119845   1.007   0.368   6.282  1.4029 -0.0933 -1.2670
 6641TIP3    H219846   1.126   0.433   6.348  0.3206  0.6367  0.0232
 6642TIP3   OH219847   6.378   1.268   2.218  0.1846 -0.0434  0.3591
 6642TIP3    H119848   6.408   1.318   2.142 -0.4443  0.2673  0.3024
 6642TIP3    H219849   6.397   1.325   2.293  1.5252 -0.6838  0.5213
 6643TIP3   OH219850   4.152   4.246   0.940  0.1102  0.5763 -0.0087
 6643TIP3    H119851   4.113   4.320   0.892  0.6790  1.1264  0.3741
 6643TIP3    H219852   4.169   4.181   0.872 -0.8570  0.5894 -0.2811
 6644TIP3   OH219853   6.919   3.086   0.600  0.1072  0.2791  0.1963
 6644TIP3    H119854   6.833   3.085   0.558  0.4611 -0.1134 -0.5406
 6644TIP3    H219855   6.980   3.110   0.530  0.7896 -1.0156  0.3174
 6645TIP3   OH219856   1.456   5.410   6.376 -0.7978  0.3796 -0.2660
 6645TIP3    H119857   1.428   5.411   6.285  1.2594  2.0712 -0.9414
 6645TIP3    H219858   1.451   5.502   6.404 -0.9776 -0.0442  1.2079
 6646TIP3   OH219859   1.791   7.398   5.615  0.4461  0.2824 -0.3540
 6646TIP3    H119860   1.815   7.472   5.670  1.7726 -0.9937  0.8816
 6646TIP3    H219861   1.804   7.429   5.526 -1.4500  2.3039 -0.0273
 6647TIP3   OH219862   4.262   3.950   2.195  0.3336 -0.5430  0.1580
 6647TIP3    H119863   4.270   4.040   2.227 -0.2281 -0.3468 -0.2376
 6647TIP3    H219864   4.278   3.896   2.272 -3.1859 -0.0973  1.4129
 6648TIP3   OH219865   8.534   1.229   0.873  0.1808  0.4113 -0.2335
 6648TIP3    H119866   8.559   1.166   0.804  0.4352  2.0490 -1.7152
 6648TIP3    H219867   8.612   1.283   0.884  0.0145  0.3930  1.1294
 6649TIP3   OH219868   7.132   3.736   4.281  0.3844 -0.1790  0.1254
 6649TIP3    H119869   7.160   3.725   4.372  1.0291 -1.3596 -0.1921
 6649TIP3    H219870   7.086   3.820   4.280  1.2274  0.3283  1.3232
 6650TIP3   OH219871   0.777   0.415   4.071 -0.3669 -0.3149 -0.1420
 6650TIP3    H119872   0.751   0.471   3.998 -0.4205  1.2903  1.0327
 6650TIP3    H219873   0.872   0.413   4.067 -0.2646  1.2561  0.7332
 6651TIP3   OH219874   2.688   6.537   5.211 -0.2783  0.0322  0.2197
 6651TIP3    H119875   2.697   6.518   5.118 -1.0052  1.5245 -0.1929
 6651TIP3    H219876   2.766   6.499   5.252  0.0273 -0.6708 -0.9802
 6652TIP3   OH219877   4.404   1.994   2.418  0.0586 -0.5220 -0.0038
 6652TIP3    H119878   4.315   2.028   2.413  0.6287  1.4921  1.8764
 6652TIP3    H219879   4.394   1.905   2.452 -1.2623 -0.7160 -0.8320
 6653TIP3   OH219880   6.427   5.301   2.665  0.2368  0.2556 -0.2836
 6653TIP3    H119881   6.412   5.239   2.593  0.4027 -0.5064  0.3223
 6653TIP3    H219882   6.339   5.329   2.691  0.0365 -1.0903  0.5911
 6654TIP3   OH219883   3.811   4.524   2.719  0.5234  0.0717 -0.0293
 6654TIP3    H119884   3.849   4.590   2.661  0.6340 -0.4955 -0.6135
 6654TIP3    H219885   3.859   4.444   2.698 -2.0918 -1.1243 -2.0372
 6655TIP3   OH219886   2.096   3.496   5.276  0.0772 -0.1809  0.5210
 6655TIP3    H119887   2.009   3.486   5.316 -0.8181  0.0857 -1.2519
 6655TIP3    H219888   2.150   3.430   5.319 -1.4215 -1.4265  0.5814
 6656TIP3   OH219889   2.624   5.794   3.960 -0.3420 -0.3039 -0.7457
 6656TIP3    H119890   2.649   5.732   4.028  0.4320  2.2968  1.5135
 6656TIP3    H219891   2.703   5.803   3.906  0.3030  0.2984  0.2602
 6657TIP3   OH219892   7.831   7.637   5.799  0.2865  0.0457 -0.2255
 6657TIP3    H119893   7.907   7.696   5.797 -0.9871  1.7799  0.4328
 6657TIP3    H219894   7.863   7.559   5.844  1.9575  0.2821 -0.8947
 6658TIP3   OH219895   7.944   6.896   7.065 -0.1851 -0.5425  0.0868
 6658TIP3    H119896   7.939   6.992   7.058  1.1312 -0.4251  0.3807
 6658TIP3    H219897   7.966   6.880   7.156  1.4833 -0.9908 -0.3500
 6659TIP3   OH219898   6.394   2.934   2.631  0.1980  0.2270  0.1906
 6659TIP3    H119899   6.344   2.905   2.555  0.3332 -1.1140  0.5869
 6659TIP3    H219900   6.345   2.900   2.706 -1.1112  3.3085  0.8653
 6660TIP3   OH219901   4.433   1.177   2.316 -0.3187  0.2242  0.2318
 6660TIP3    H119902   4.340   1.155   2.317 -0.3401  0.2775 -0.3413
 6660TIP3    H219903   4.473   1.112   2.373 -0.7698  0.5072  0.8920
 6661TIP3   OH219904   5.925   5.087   1.311 -0.0072  0.1351  0.1831
 6661TIP3    H119905   5.919   5.182   1.321  1.7755  0.2194  0.8956
 6661TIP3    H219906   5.978   5.059   1.385 -0.3494 -1.4099 -0.1275
 6662TIP3   OH219907   4.621   1.119   0.378  0.3384  0.2179  0.6043
 6662TIP3    H119908   4.631   1.042   0.434 -1.6440 -0.4911  0.0850
 6662TIP3    H219909   4.684   1.106   0.308 -0.7906 -1.6518 -0.1668
 6663TIP3   OH219910   1.081   4.203   2.609  0.0610 -0.2600  0.3763
 6663TIP3    H119911   1.171   4.236   2.616  0.1892 -0.1493 -1.4357
 6663TIP3    H219912   1.029   4.280   2.583 -0.4679 -0.4496  0.8496
 6664TIP3   OH219913   2.185   0.321   6.806  0.0395  0.3997  0.0596
 6664TIP3    H119914   2.247   0.391   6.786 -0.5056  1.2658  1.2497
 6664TIP3    H219915   2.118   0.328   6.737 -0.2713  1.4058  0.4304
 6665TIP3   OH219916   3.955   6.475   6.012  0.1521  0.2035 -0.3220
 6665TIP3    H119917   4.039   6.485   6.056 -0.4419  0.1112  0.8610
 6665TIP3    H219918   3.894   6.449   6.081 -0.8012  0.0231 -1.2027
 6666TIP3   OH219919   1.305   4.129   2.211  0.0798  0.5257 -0.0041
 6666TIP3    H119920   1.288   4.034   2.209  2.3173  0.0854 -0.6697
 6666TIP3    H219921   1.369   4.140   2.281  1.5477  1.1922 -1.4002
 6667TIP3   OH219922   5.421   5.658   2.055 -0.1289  0.0424 -0.3997
 6667TIP3    H119923   5.497   5.712   2.075  0.6810 -0.6251 -1.5361
 6667TIP3    H219924   5.390   5.628   2.140  0.2473  1.1519  0.1470
 6668TIP3   OH219925   7.002   7.869   3.922  0.2061 -0.0595  0.7641
 6668TIP3    H119926   6.954   7.826   3.993  1.5995  0.1838  1.8942
 6668TIP3    H219927   6.952   7.949   3.904 -1.2759 -1.0971  0.0388
 6669TIP3   OH219928   3.274   1.750   1.604  0.1048 -0.0792  0.2347
 6669TIP3    H119929   3.235   1.802   1.533 -0.5026 -1.0640 -0.1665
 6669TIP3    H219930   3.279   1.811   1.678  0.3372  0.8397 -0.5133
 6670TIP3   OH219931   5.445   7.148   6.577 -0.1320 -0.3655 -0.1542
 6670TIP3    H119932   5.355   7.142   6.611 -0.2402 -1.7461 -0.6523
 6670TIP3    H219933   5.462   7.242   6.573 -1.2110 -0.1004  0.8444
 6671TIP3   OH219934   3.013   0.678   6.576 -0.2052 -0.4814 -0.3861
 6671TIP3    H119935   3.007   0.641   6.664  0.2146  0.6784  0.1573
 6671TIP3    H219936   2.930   0.655   6.534 -0.7134 -0.4324  0.5658
 6672TIP3   OH219937   2.499   1.487   0.982  0.0630 -0.5200  0.4730
 6672TIP3    H119938   2.542   1.571   0.999  1.0467 -0.4676 -1.8739
 6672TIP3    H219939   2.443   1.504   0.906  0.6816 -2.0728 -0.3686
 6673TIP3   OH219940   5.163   3.831   5.586 -0.0449 -0.2022 -0.0556
 6673TIP3    H119941   5.244   3.780   5.592  0.3914  0.6092  3.6023
 6673TIP3    H219942   5.093   3.766   5.591  0.4279 -0.7211 -0.1436
 6674TIP3   OH219943   0.495   5.546   2.214  0.3563  0.8202 -0.0752
 6674TIP3    H119944   0.570   5.522   2.268  0.5299  1.0547 -0.2116
 6674TIP3    H219945   0.533   5.571   2.130  0.1757  1.4733  0.0298
 6675TIP3   OH219946   3.294   2.445   2.698  0.2198  0.1196  0.2011
 6675TIP3    H119947   3.206   2.440   2.736  0.4681  2.0824  1.1128
 6675TIP3    H219948   3.344   2.499   2.758  1.6077  0.4111 -1.1540
 6676TIP3   OH219949   7.401   1.412   4.619 -0.2195 -0.0467 -0.3746
 6676TIP3    H119950   7.491   1.412   4.650 -0.3260  0.4101 -0.0621
 6676TIP3    H219951   7.349   1.440   4.694 -0.7146 -1.1432 -0.3009
 6677TIP3   OH219952   5.071   3.730   1.486 -0.0978 -0.3531  0.1402
 6677TIP3    H119953   4.992   3.680   1.464 -0.3816  0.4683 -0.7741
 6677TIP3    H219954   5.101   3.765   1.402  0.5838  0.2989  0.6454
 6678TIP3   OH219955   8.167   2.126   5.676 -0.2183 -0.0130  0.5240
 6678TIP3    H119956   8.156   2.067   5.751 -0.7371 -1.0708 -0.3575
 6678TIP3    H219957   8.089   2.111   5.622 -0.0706  1.0625 -0.0115
 6679TIP3   OH219958   4.137   6.026   2.479  0.4572 -0.6365  0.1330
 6679TIP3    H119959   4.224   6.061   2.460  1.3200 -0.4717  3.6954
 6679TIP3    H219960   4.135   5.941   2.435  1.2058  0.5762 -2.4280
 6680TIP3   OH219961   4.256   6.767   6.672 -0.2287  0.2879  0.3015
 6680TIP3    H119962   4.162   6.755   6.684 -0.3879 -0.2275 -1.2319
 6680TIP3    H219963   4.286   6.808   6.753 -1.7590  0.3956  0.8368
 6681TIP3   OH219964   6.158   0.520   3.489  0.7853  0.4325 -0.5830
 6681TIP3    H119965   6.097   0.511   3.562  0.9132  1.2825 -0.3676
 6681TIP3    H219966   6.121   0.465   3.420  1.5908 -1.8502  0.6840
 6682TIP3   OH219967   8.515   4.538   4.392 -0.1262 -0.9526  0.2815
 6682TIP3    H119968   8.586   4.590   4.355 -1.4117 -0.1916 -1.2202
 6682TIP3    H219969   8.551   4.504   4.475  1.0530  1.6072  0.9236
 6683TIP3   OH219970   0.060   1.365   0.611 -0.7901 -0.3704 -0.0146
 6683TIP3    H119971  -0.024   1.375   0.567 -0.8601 -1.0001 -0.0316
 6683TIP3    H219972   0.065   1.272   0.633 -0.5154 -0.1619  0.8336
 6684TIP3   OH219973   2.941   0.895   2.468 -0.4333 -0.2158 -0.6236
 6684TIP3    H119974   2.957   0.802   2.485 -0.6009 -0.1622 -0.1629
 6684TIP3    H219975   2.986   0.941   2.540 -1.9962 -0.0309  0.2914
 6685TIP3   OH219976   5.979   7.310   3.084  0.4419  0.2745  0.9808
 6685TIP3    H119977   5.934   7.234   3.122 -1.0353  1.5173  1.8418
 6685TIP3    H219978   6.045   7.334   3.149  0.4815  0.1198  0.9984
 6686TIP3   OH219979   7.102   1.082   2.441  0.0076  0.2556  0.3676
 6686TIP3    H119980   7.025   1.107   2.492 -0.5862  2.9004 -1.5640
 6686TIP3    H219981   7.067   1.028   2.370  0.2143 -0.1116  0.5453
 6687TIP3   OH219982   6.214   2.811   4.607  0.1402  0.4172  0.0577
 6687TIP3    H119983   6.150   2.746   4.634 -0.0025  0.8370  0.7795
 6687TIP3    H219984   6.207   2.880   4.674  0.4259  1.0707 -0.5721
 6688TIP3   OH219985   3.404   0.529   1.195 -0.9042  0.8378  0.1619
 6688TIP3    H119986   3.485   0.574   1.221 -0.9311  0.2173  1.3888
 6688TIP3    H219987   3.435   0.448   1.155 -0.9070  0.0483  1.6922
 6689TIP3   OH219988   2.643   3.342   5.043 -0.1331 -0.7072 -0.0061
 6689TIP3    H119989   2.652   3.296   4.960 -0.6538  0.1544 -0.5570
 6689TIP3    H219990   2.593   3.282   5.099 -0.7784 -0.8348 -0.7069
 6690TIP3   OH219991   6.715   1.274   5.033  0.3410  0.4794 -0.4532
 6690TIP3    H119992   6.655   1.303   4.965  1.1509  3.8962  0.1277
 6690TIP3    H219993   6.667   1.287   5.115  0.9832  0.7761 -0.1207
 6691TIP3   OH219994   3.226   3.827   2.559 -0.1498  0.5590 -0.4156
 6691TIP3    H119995   3.231   3.884   2.636  0.1585 -0.2169  0.1491
 6691TIP3    H219996   3.197   3.743   2.593  1.6822 -0.2976 -0.8498
 6692TIP3   OH219997   1.678   1.812   6.935 -0.0179 -0.0809  0.1824
 6692TIP3    H119998   1.586   1.838   6.935  0.1472  0.5226  0.1298
 6692TIP3    H219999   1.677   1.721   6.965 -0.8631 -0.9461 -2.1896
 6693TIP3   OH220000   3.985   7.378   2.695  0.0226 -0.5192  0.2216
 6693TIP3    H120001   3.989   7.430   2.615  1.2416 -0.4104  0.3401
 6693TIP3    H220002   3.901   7.332   2.689 -0.3198  0.1853 -0.6704
 6694TIP3   OH220003   3.794   4.849   2.447  0.3041  0.2612 -0.3441
 6694TIP3    H120004   3.781   4.754   2.439  0.8827  0.1790 -0.3208
 6694TIP3    H220005   3.791   4.865   2.541 -0.2692  0.3357 -0.3732
 6695TIP3   OH220006   5.722   5.187   4.108  0.1353 -0.1875  0.8817
 6695TIP3    H120007   5.679   5.125   4.049 -0.7275 -0.2208  1.5223
 6695TIP3    H220008   5.802   5.213   4.062 -0.3941 -0.4026 -0.1767
 6696TIP3   OH220009   1.462   2.934   0.991 -0.2302  0.7312 -0.0829
 6696TIP3    H120010   1.490   2.844   1.011  3.1977  0.7650 -3.5013
 6696TIP3    H220011   1.400   2.923   0.919  0.7418  1.0631 -0.9917
 6697TIP3   OH220012   1.438   5.492   5.302  0.5997 -0.5153 -0.4147
 6697TIP3    H120013   1.480   5.429   5.360 -2.1747 -0.0513  2.4070
 6697TIP3    H220014   1.466   5.578   5.334 -0.2345 -0.2568 -0.3401
 6698TIP3   OH220015   2.265   7.491   4.040  0.4098  0.1175  0.0024
 6698TIP3    H120016   2.241   7.567   4.093 -0.8137 -1.3038  1.6185
 6698TIP3    H220017   2.247   7.519   3.950 -1.8278  1.1597  0.6886
 6699TIP3   OH220018   0.041   5.130   6.935 -0.3595 -0.3867  0.0871
 6699TIP3    H120019   0.062   5.208   6.987  0.8102 -0.1270 -0.7494
 6699TIP3    H220020   0.032   5.061   7.000 -0.0216  0.1588  0.7311
 6700TIP3   OH220021   7.605   2.222   1.523 -0.1206 -0.1071 -0.0042
 6700TIP3    H120022   7.601   2.308   1.481  2.9778 -0.4201 -1.2600
 6700TIP3    H220023   7.568   2.162   1.459 -2.2777  0.1949  0.8698
 6701TIP3   OH220024   0.354   2.181   0.918 -0.5964 -0.1018  0.0615
 6701TIP3    H120025   0.269   2.175   0.875  0.9225 -1.8772 -3.0091
 6701TIP3    H220026   0.354   2.110   0.982 -0.8710 -1.2229 -1.1326
 6702TIP3   OH220027   4.598   6.707   2.190  0.7666  0.1850 -0.3421
 6702TIP3    H120028   4.605   6.788   2.240 -1.3910  0.3358 -0.1769
 6702TIP3    H220029   4.625   6.731   2.101  1.1340  0.8083 -0.0721
 6703TIP3   OH220030   0.508   6.297   1.951  0.2595 -0.1581  0.2196
 6703TIP3    H120031   0.530   6.293   1.858  1.7398 -0.5131  0.5487
 6703TIP3    H220032   0.459   6.378   1.961 -0.3286 -0.3552 -0.9448
 6704TIP3   OH220033   8.661   4.357   4.586 -0.3894  0.2666 -0.7469
 6704TIP3    H120034   8.752   4.377   4.566 -0.4057  0.4513 -0.6370
 6704TIP3    H220035   8.666   4.290   4.654 -0.3330 -0.5759 -1.5580
 6705TIP3   OH220036   1.204   2.197   5.424  0.1700 -0.8428 -1.1500
 6705TIP3    H120037   1.150   2.162   5.354  0.0153  0.6847 -1.8460
 6705TIP3    H220038   1.145   2.202   5.499 -0.6326  0.5653 -1.8321
 6706TIP3   OH220039   5.995   1.798   2.858  0.7943 -0.1010  0.5173
 6706TIP3    H120040   6.079   1.826   2.823  1.6052 -0.9129  1.7439
 6706TIP3    H220041   5.930   1.842   2.803  2.0144  1.6044  0.3744
 6707TIP3   OH220042   1.390   2.536   1.730 -0.6176  0.0409 -0.0927
 6707TIP3    H120043   1.427   2.565   1.813 -0.6948 -0.5772  0.1658
 6707TIP3    H220044   1.304   2.579   1.725 -0.0524  1.1691 -0.5128
 6708TIP3   OH220045   4.704   8.110   0.401 -0.0432  0.3157  0.1685
 6708TIP3    H120046   4.620   8.088   0.441  0.1346  1.5547  1.2897
 6708TIP3    H220047   4.684   8.123   0.308 -1.0664  0.4265  0.3938
 6709TIP3   OH220048   0.675   1.923   1.521  0.1328  0.4809  0.6706
 6709TIP3    H120049   0.645   1.919   1.612 -2.5327 -1.1471 -0.1414
 6709TIP3    H220050   0.595   1.939   1.471  1.3662  0.2947 -1.4655
 6710TIP3   OH220051   1.147   1.396   0.295  0.0106 -0.4346 -0.5683
 6710TIP3    H120052   1.147   1.469   0.356 -0.8264 -0.3425 -0.6652
 6710TIP3    H220053   1.200   1.328   0.338  1.3278  0.4394 -0.7647
 6711TIP3   OH220054   6.972   5.349   5.017  0.2886  0.1982 -0.8663
 6711TIP3    H120055   6.878   5.348   5.036  0.4829  0.0280  0.1389
 6711TIP3    H220056   6.977   5.360   4.922 -0.7616 -1.0585 -1.0986
 6712TIP3   OH220057   6.031   5.980   4.221  0.3026  0.2245 -0.2269
 6712TIP3    H120058   6.006   5.912   4.158 -1.4568 -0.2934  0.9590
 6712TIP3    H220059   6.119   5.955   4.248  0.6445 -0.1767 -1.6003
 6713TIP3   OH220060   6.037   2.625   2.924 -0.3094  0.5473 -0.1025
 6713TIP3    H120061   6.084   2.543   2.909 -0.1474  0.4148  1.0152
 6713TIP3    H220062   6.023   2.627   3.019  0.4340  2.2088  0.0105
 6714TIP3   OH220063   2.479   2.800   6.588 -0.2259  0.0026 -0.3537
 6714TIP3    H120064   2.479   2.777   6.681  1.6352  0.1057 -0.2927
 6714TIP3    H220065   2.486   2.895   6.587 -0.0502 -0.0106 -0.5817
 6715TIP3   OH220066   7.111   0.916   3.782 -0.1226  0.1513  0.3992
 6715TIP3    H120067   7.165   0.966   3.721 -2.0836  1.8868 -0.0396
 6715TIP3    H220068   7.110   0.970   3.862  1.9950 -1.8355  1.8930
 6716TIP3   OH220069   0.459   4.289   2.060 -0.2237 -0.0640  0.0944
 6716TIP3    H120070   0.424   4.371   2.026 -0.7365 -0.2591  0.1490
 6716TIP3    H220071   0.457   4.230   1.986 -0.3781 -0.1906  0.1997
 6717TIP3   OH220072   1.754   2.613   2.482 -0.0961  0.6431  0.1082
 6717TIP3    H120073   1.714   2.614   2.569 -0.7451  2.7542 -0.1678
 6717TIP3    H220074   1.785   2.702   2.469  0.7496  0.1530 -1.5043
 6718TIP3   OH220075   6.867   7.919   7.105  0.0736  0.4694 -0.3425
 6718TIP3    H120076   6.772   7.907   7.104  0.0162  0.9009 -0.1523
 6718TIP3    H220077   6.892   7.915   7.012 -0.0433 -0.2552 -0.3542
 6719TIP3   OH220078   4.411   0.524   2.280  0.5240 -0.1630 -0.3113
 6719TIP3    H120079   4.487   0.485   2.323 -0.4582 -0.6053  1.1079
 6719TIP3    H220080   4.336   0.477   2.317 -0.4450  0.0174 -1.9287
 6720TIP3   OH220081   3.170   4.142   0.363  0.2376  0.7256  0.5746
 6720TIP3    H120082   3.133   4.057   0.386 -1.8010  1.0877 -1.0325
 6720TIP3    H220083   3.197   4.180   0.446  1.9311 -1.7435  1.2691
 6721TIP3   OH220084   2.246   4.504   5.487  0.3142  0.2440  0.6579
 6721TIP3    H120085   2.221   4.584   5.532 -0.1205  0.3638  0.2020
 6721TIP3    H220086   2.249   4.438   5.557 -1.2243  0.2314  0.7468
 6722TIP3   OH220087   2.735   6.945   1.578 -0.0163 -0.0592  0.0252
 6722TIP3    H120088   2.642   6.940   1.600  0.5375  2.3489  3.9819
 6722TIP3    H220089   2.742   7.016   1.515 -0.9135 -1.7295 -2.1114
 6723TIP3   OH220090   0.666   0.793   3.771 -0.3726 -0.3919  0.0081
 6723TIP3    H120091   0.580   0.835   3.763 -1.1402 -2.0730 -1.1779
 6723TIP3    H220092   0.703   0.797   3.683  0.2217 -0.7894  0.2313
 6724TIP3   OH220093   5.883   7.818   3.332 -0.5397  0.1753  0.5724
 6724TIP3    H120094   5.916   7.730   3.348 -0.1560  0.0424 -0.8459
 6724TIP3    H220095   5.794   7.817   3.368 -0.5473 -0.8011  0.5612
 6725TIP3   OH220096   8.361   7.163   4.216  0.6935 -0.0661  0.2523
 6725TIP3    H120097   8.326   7.240   4.260  0.2108 -0.0493 -0.1466
 6725TIP3    H220098   8.311   7.157   4.135  0.9156 -0.6381  0.1497
 6726TIP3   OH220099   5.991   5.434   4.483  0.4871 -0.9103 -0.1297
 6726TIP3    H120100   6.010   5.519   4.443 -1.0886 -1.3305 -1.9245
 6726TIP3    H220101   6.022   5.442   4.573 -0.0696  1.7613 -0.0930
 6727TIP3   OH220102   3.025   0.151   3.970  0.1957 -0.4997 -0.3938
 6727TIP3    H120103   3.067   0.230   3.935 -1.8703  0.5164 -0.7709
 6727TIP3    H220104   2.953   0.134   3.909 -0.3625 -1.7491  0.5795
 6728TIP3   OH220105   4.882   0.586   6.984  0.2250 -0.5727 -0.0078
 6728TIP3    H120106   4.922   0.669   6.959  1.4698 -1.0078  0.4577
 6728TIP3    H220107   4.895   0.529   6.907 -2.9256  0.3483 -1.3880
 6729TIP3   OH220108   0.462   4.782   4.764 -0.0963 -0.1259 -0.1988
 6729TIP3    H120109   0.447   4.702   4.814 -0.5717  0.2356  0.2522
 6729TIP3    H220110   0.391   4.784   4.700 -1.4317  1.0319  1.2243
 6730TIP3   OH220111   7.971   4.912   4.108  0.3408  0.2993 -0.1012
 6730TIP3    H120112   7.934   4.863   4.182  0.3678  0.4456  0.0111
 6730TIP3    H220113   7.919   4.993   4.105 -0.4577 -0.2267 -0.9978
 6731TIP3   OH220114   4.732   4.673   2.788  0.0974  0.3553 -0.0363
 6731TIP3    H120115   4.637   4.670   2.794  0.1243 -0.1601  0.1810
 6731TIP3    H220116   4.762   4.601   2.843  0.6328  0.8130  0.2767
 6732TIP3   OH220117   1.441   0.631   0.056  0.6591 -0.1542 -0.3880
 6732TIP3    H120118   1.417   0.540   0.036 -2.3480  0.3989  0.1444
 6732TIP3    H220119   1.413   0.680  -0.022  1.7365  0.4129 -0.4379
 6733TIP3   OH220120   2.024   6.601   1.595  0.2022  0.9487  0.2586
 6733TIP3    H120121   2.037   6.638   1.507 -0.8460 -0.9442 -0.7648
 6733TIP3    H220122   2.102   6.547   1.610  0.5156  1.5017  0.6143
 6734TIP3   OH220123   6.864   3.311   0.765 -0.0529 -0.4663  0.5024
 6734TIP3    H120124   6.883   3.237   0.708 -1.5772 -0.4622 -0.0648
 6734TIP3    H220125   6.802   3.276   0.830  0.4925 -0.0880  1.2482
 6735TIP3   OH220126   5.516   7.479   1.273 -0.8104  0.0784  0.1518
 6735TIP3    H120127   5.560   7.512   1.195  1.4096 -1.9388  0.4356
 6735TIP3    H220128   5.450   7.418   1.240  0.4233 -1.1139 -0.2336
 6736TIP3   OH220129   8.201   5.176   6.072  0.3279 -0.2900 -0.6008
 6736TIP3    H120130   8.230   5.266   6.083  1.9885 -0.6963 -1.3777
 6736TIP3    H220131   8.274   5.122   6.101 -0.4093 -1.3919 -0.7001
 6737TIP3   OH220132   3.281   7.602   5.335 -0.0009 -0.3913  0.3825
 6737TIP3    H120133   3.289   7.506   5.336 -1.0870 -0.4928  0.3700
 6737TIP3    H220134   3.340   7.630   5.265  2.6920 -0.7849  2.3291
 6738TIP3   OH220135   7.735   2.723   1.092  0.3977 -0.2435 -0.5249
 6738TIP3    H120136   7.749   2.792   1.156 -0.3550  0.1073 -0.7222
 6738TIP3    H220137   7.654   2.749   1.047  1.2595 -0.1103 -2.0789
 6739TIP3   OH220138   0.474   1.336   2.886  0.4651 -0.5648 -0.4089
 6739TIP3    H120139   0.558   1.379   2.900  1.5416 -1.9266 -2.3201
 6739TIP3    H220140   0.469   1.270   2.955  1.2195 -0.8572 -0.6333
 6740TIP3   OH220141   7.371   2.952   3.412 -0.0422  0.2071  0.0981
 6740TIP3    H120142   7.456   2.915   3.391 -0.9461 -1.5619 -0.6085
 6740TIP3    H220143   7.357   2.932   3.505 -0.5847 -1.4235 -0.3120
 6741TIP3   OH220144   0.948   3.663   2.578 -0.1088 -0.2499 -0.2343
 6741TIP3    H120145   0.855   3.673   2.562  0.0525 -1.0489 -1.8962
 6741TIP3    H220146   0.984   3.751   2.568 -0.7050  0.1170  0.7484
 6742TIP3   OH220147   0.173   6.397   1.989 -0.0603  0.4060 -0.0409
 6742TIP3    H120148   0.186   6.338   2.063  2.0120 -0.3318 -0.8934
 6742TIP3    H220149   0.151   6.338   1.916 -0.6509  0.9704 -0.3254
 6743TIP3   OH220150   0.715   4.120   0.630  0.0258 -0.1125  1.1295
 6743TIP3    H120151   0.762   4.054   0.579 -2.2059 -1.5573  0.7970
 6743TIP3    H220152   0.666   4.070   0.695 -1.9595  1.1606  0.7090
 6744TIP3   OH220153   6.221   5.846   7.065 -0.1206  0.3662 -0.3338
 6744TIP3    H120154   6.309   5.837   7.101 -0.9379  2.0362  2.4158
 6744TIP3    H220155   6.231   5.904   6.990  1.2797 -0.7596 -1.0621
 6745TIP3   OH220156   4.913   6.387   0.376  0.0808 -0.2666 -0.5395
 6745TIP3    H120157   4.958   6.461   0.334  0.5762 -0.0047  0.4289
 6745TIP3    H220158   4.926   6.314   0.315 -1.3696  0.6661 -2.0570
 6746TIP3   OH220159   3.036   3.382   6.735  0.6574  0.5911  0.0013
 6746TIP3    H120160   3.016   3.341   6.819 -1.4335  0.1903 -0.6237
 6746TIP3    H220161   3.106   3.445   6.754 -0.4725  1.2586  2.2518
 6747TIP3   OH220162   4.047   1.484   2.727  0.3859 -0.7869 -0.5853
 6747TIP3    H120163   3.997   1.402   2.734 -0.9572  0.1354  1.5969
 6747TIP3    H220164   4.070   1.505   2.817  1.8286  0.6026 -1.2446
 6748TIP3   OH220165   7.665   2.788   2.777  0.0539  0.1568 -0.2428
 6748TIP3    H120166   7.656   2.814   2.685  2.8260  1.8579 -0.1529
 6748TIP3    H220167   7.634   2.864   2.826  0.0343 -0.1405  0.2085
 6749TIP3   OH220168   5.486   5.490   0.342  0.8736  0.3630 -0.2349
 6749TIP3    H120169   5.535   5.415   0.308  0.2983  0.0151 -0.3146
 6749TIP3    H220170   5.402   5.486   0.295  0.0382 -0.1491  1.2452
 6750TIP3   OH220171   4.464   6.561   4.821 -0.3257  0.4513 -0.0605
 6750TIP3    H120172   4.411   6.485   4.799  0.0667 -0.6044  2.3111
 6750TIP3    H220173   4.434   6.587   4.908  0.6792  1.9964 -0.1317
 6751TIP3   OH220174   3.551   5.784   3.452 -0.3505 -0.1035  0.2214
 6751TIP3    H120175   3.508   5.714   3.501 -0.6749 -1.2934 -1.6858
 6751TIP3    H220176   3.479   5.835   3.415 -0.1130  1.1739  1.4069
 6752TIP3   OH220177   0.182   4.184   5.074 -0.1056  0.1730 -0.3679
 6752TIP3    H120178   0.111   4.144   5.124  1.1498  0.4226  1.7103
 6752TIP3    H220179   0.251   4.117   5.073  0.9860  1.2397  0.8016
 6753TIP3   OH220180   7.184   6.209   6.314  0.1015  0.0000 -1.0349
 6753TIP3    H120181   7.197   6.205   6.219 -1.6601 -0.6964 -1.2845
 6753TIP3    H220182   7.089   6.203   6.325  0.1028  2.2567  0.6883
 6754TIP3   OH220183   1.788   2.093   1.345  0.0300 -0.3302  0.0992
 6754TIP3    H120184   1.867   2.081   1.292 -0.2420 -0.1422 -0.3612
 6754TIP3    H220185   1.820   2.107   1.434  0.6464  2.1553 -0.4562
 6755TIP3   OH220186   0.563   5.569   1.131 -0.4395  0.2189  0.4581
 6755TIP3    H120187   0.631   5.561   1.198 -0.6531  0.0364  0.6544
 6755TIP3    H220188   0.575   5.491   1.076  1.3918  1.6167 -1.2698
 6756TIP3   OH220189   3.704   0.419   3.300 -0.5564  0.1913 -0.2211
 6756TIP3    H120190   3.611   0.412   3.280 -0.8855 -0.3947  1.3206
 6756TIP3    H220191   3.742   0.335   3.273 -0.4679  0.4255 -0.8374
 6757TIP3   OH220192   3.068   1.656   2.950 -0.6015  0.3107 -0.1859
 6757TIP3    H120193   3.028   1.590   2.892 -1.3950  0.4053  0.2464
 6757TIP3    H220194   3.140   1.609   2.992  0.2986  0.3639 -1.5868
 6758TIP3   OH220195   4.801   4.538   5.324  0.2946  0.2590  0.3258
 6758TIP3    H120196   4.872   4.475   5.335 -0.0803 -0.0321  1.1260
 6758TIP3    H220197   4.734   4.491   5.276  1.2210  0.9956 -1.8095
 6759TIP3   OH220198   1.835   4.744   3.477  0.0611 -0.3525  0.5244
 6759TIP3    H120199   1.801   4.727   3.565 -0.9782  3.2390  0.9764
 6759TIP3    H220200   1.906   4.680   3.466 -1.6393 -2.8740  2.7336
 6760TIP3   OH220201   4.768   5.508   0.765 -0.0298 -0.5236 -0.1046
 6760TIP3    H120202   4.797   5.441   0.703 -0.5630 -0.7484 -0.1228
 6760TIP3    H220203   4.723   5.573   0.711  1.2506  0.3111 -0.1999
 6761TIP3   OH220204   4.903   3.386   6.510  0.0901 -0.8753 -0.7314
 6761TIP3    H120205   4.902   3.450   6.581  0.8897 -1.4287 -0.2086
 6761TIP3    H220206   4.933   3.435   6.434  1.9660 -0.9018 -0.0412
 6762TIP3   OH220207   3.656   5.635   0.779  0.4685 -0.1289 -0.2613
 6762TIP3    H120208   3.570   5.652   0.742  0.4678  0.2322 -0.0953
 6762TIP3    H220209   3.642   5.630   0.873  0.5283 -0.7069 -0.2751
 6763TIP3   OH220210   2.819   1.197   1.124 -0.2335 -0.4091  0.5471
 6763TIP3    H120211   2.774   1.113   1.133 -0.6522 -0.1271  1.2055
 6763TIP3    H220212   2.752   1.262   1.143  0.8750 -0.0072  3.8135
 6764TIP3   OH220213   1.853   2.219   6.092  0.8324 -1.1338  0.3339
 6764TIP3    H120214   1.820   2.194   6.006 -0.1886  1.0550  0.0050
 6764TIP3    H220215   1.832   2.145   6.149 -0.9741 -1.5143 -0.7406
 6765TIP3   OH220216   8.055   3.988   1.596  0.0149 -0.0742 -0.1753
 6765TIP3    H120217   8.000   4.042   1.653  0.4027  1.6418 -1.3477
 6765TIP3    H220218   7.997   3.965   1.523  0.2646 -0.0797 -0.3699
 6766TIP3   OH220219   2.445   4.601   4.611 -0.2361 -0.1816 -0.5074
 6766TIP3    H120220   2.377   4.534   4.602 -1.0617  0.5432  0.1945
 6766TIP3    H220221   2.527   4.553   4.603 -0.8185 -1.1387 -0.9115
 6767TIP3   OH220222   3.133   5.998   3.890 -0.0521 -0.3949  0.0399
 6767TIP3    H120223   3.194   5.925   3.886  1.0274  0.5052 -0.2060
 6767TIP3    H220224   3.162   6.050   3.965 -2.4346 -1.5877  1.9306
 6768TIP3   OH220225   8.280   0.709   6.660 -0.1624  0.2202  0.2159
 6768TIP3    H120226   8.334   0.631   6.660  0.8761  0.9280  0.5316
 6768TIP3    H220227   8.206   0.687   6.602  0.7594 -0.5509 -0.7020
 6769TIP3   OH220228   7.347   7.506   3.478  0.6079  0.0541  0.0479
 6769TIP3    H120229   7.385   7.534   3.562  1.3672 -1.3302  0.1941
 6769TIP3    H220230   7.420   7.466   3.431 -0.0708 -0.1947 -0.8090
 6770TIP3   OH220231   4.841   3.969   5.017 -0.6423  0.0645 -0.2470
 6770TIP3    H120232   4.905   3.949   4.949 -2.2295 -0.6518 -1.6067
 6770TIP3    H220233   4.802   3.884   5.039  0.1874  0.1856  1.9873
 6771TIP3   OH220234   5.365   5.911   4.043  0.2586 -0.4254  0.1854
 6771TIP3    H120235   5.356   5.831   4.096  0.9638 -0.0451  0.9035
 6771TIP3    H220236   5.315   5.977   4.090  1.6167  0.1420  0.8925
 6772TIP3   OH220237   0.156   4.243   3.744  0.3438  0.0556  0.6433
 6772TIP3    H120238   0.060   4.248   3.742  0.3073 -0.6227 -0.6535
 6772TIP3    H220239   0.180   4.224   3.653  1.7932  1.4855  0.6928
 6773TIP3   OH220240   0.535   6.133   7.061 -0.3196 -0.0680  0.3530
 6773TIP3    H120241   0.551   6.172   6.975 -0.0202 -0.3013  0.2994
 6773TIP3    H220242   0.439   6.127   7.067 -0.4025  1.1781  0.5984
 6774TIP3   OH220243   2.298   2.366   3.414  0.0524 -0.2250  0.3624
 6774TIP3    H120244   2.299   2.438   3.477  1.2898  0.0918 -0.0049
 6774TIP3    H220245   2.217   2.319   3.434 -1.4134  1.9190 -0.1500
 6775TIP3   OH220246   8.135   2.478   6.750 -0.2317 -0.3910  0.3412
 6775TIP3    H120247   8.069   2.514   6.809  0.6217  2.2231 -0.1831
 6775TIP3    H220248   8.089   2.468   6.666 -0.2570  0.5279  0.2287
 6776TIP3   OH220249   5.906   4.506   4.187  0.0947 -0.2208 -0.0647
 6776TIP3    H120250   5.821   4.462   4.197  0.8785 -1.9820 -0.8218
 6776TIP3    H220251   5.930   4.492   4.096  1.2229  0.2437  0.1464
 6777TIP3   OH220252   4.418   5.915   4.412  0.1187 -0.2909  0.5217
 6777TIP3    H120253   4.329   5.881   4.414 -0.7780  1.7604 -1.0360
 6777TIP3    H220254   4.419   5.983   4.479  0.1177  0.5097 -0.2729
 6778TIP3   OH220255   3.202   5.435   1.897 -0.4460 -0.4427 -0.2012
 6778TIP3    H120256   3.236   5.357   1.853  0.3201 -0.1871 -0.0735
 6778TIP3    H220257   3.165   5.488   1.826 -0.2165 -0.5418 -0.3961
 6779TIP3   OH220258   7.998   7.463   2.991 -0.0784  0.7434  0.5702
 6779TIP3    H120259   8.037   7.385   2.954  0.9536  1.5072 -0.0137
 6779TIP3    H220260   8.072   7.512   3.029 -0.9517  0.4782  2.7793
 6780TIP3   OH220261   0.426   3.914   2.383  0.0808  0.3291  0.0723
 6780TIP3    H120262   0.359   3.880   2.443  0.1727 -2.3189 -1.1856
 6780TIP3    H220263   0.498   3.940   2.441 -1.1158  1.1106  1.2899
 6781TIP3   OH220264   2.967   7.973   6.518 -0.2324  0.0536  0.0183
 6781TIP3    H120265   2.950   8.008   6.430 -1.3359 -1.9482 -0.6431
 6781TIP3    H220266   3.038   7.909   6.504 -0.5405 -0.4073  0.5350
 6782TIP3   OH220267   2.334   0.645   0.381 -0.6265  0.2635  0.1474
 6782TIP3    H120268   2.303   0.703   0.311 -1.0043  0.7638  0.7288
 6782TIP3    H220269   2.375   0.704   0.444  0.7508 -0.3005 -0.1930
 6783TIP3   OH220270   2.411   1.670   1.900  0.0546 -0.0613 -0.2519
 6783TIP3    H120271   2.333   1.718   1.873  0.1889  0.3088  0.0106
 6783TIP3    H220272   2.403   1.661   1.994  0.2926 -0.0818 -0.2326
 6784TIP3   OH220273   1.966   4.705   4.397 -0.5996  0.4459 -0.4282
 6784TIP3    H120274   1.898   4.722   4.462  0.9482  1.1483  1.0855
 6784TIP3    H220275   1.996   4.616   4.416 -1.1179  0.0964 -1.1640
 6785TIP3   OH220276   2.755   3.462   3.574  0.2261  0.5718 -0.2898
 6785TIP3    H120277   2.835   3.475   3.625 -0.3964  0.2470  0.7947
 6785TIP3    H220278   2.748   3.367   3.564 -0.8229  0.4955  0.9544
 6786TIP3   OH220279   6.850   7.301   5.693 -0.1325  0.2777  0.4510
 6786TIP3    H120280   6.863   7.376   5.750 -0.8788  0.7361  0.0408
 6786TIP3    H220281   6.822   7.338   5.610  0.2310 -0.4179  0.0074
 6787TIP3   OH220282   0.013   4.199   5.725 -0.7583 -0.0338  0.3225
 6787TIP3    H120283   0.062   4.116   5.719 -1.7483 -0.6452  0.3776
 6787TIP3    H220284   0.078   4.263   5.753 -0.1333 -0.9493  1.0492
 6788TIP3   OH220285   3.161   1.261   2.447  0.4584  0.0120 -0.0253
 6788TIP3    H120286   3.171   1.191   2.383  0.1020  0.4523 -0.5758
 6788TIP3    H220287   3.079   1.242   2.492 -0.1913  0.6510 -0.9176
 6789TIP3   OH220288   6.347   4.591   6.082 -0.7675  0.2993  0.1625
 6789TIP3    H120289   6.344   4.646   6.160 -1.6822 -1.0965  1.1522
 6789TIP3    H220290   6.257   4.588   6.050 -0.8039 -0.8762  0.3244
 6790TIP3   OH220291   4.351   1.583   6.862 -0.2313 -0.1636  0.5078
 6790TIP3    H120292   4.381   1.663   6.904 -0.9507  0.4377 -0.1091
 6790TIP3    H220293   4.360   1.515   6.930 -1.5059  0.7999  1.6910
 6791TIP3   OH220294   0.649   5.017   0.337  0.1136 -0.4889 -0.1410
 6791TIP3    H120295   0.608   5.044   0.255 -1.5458 -1.0403  0.4502
 6791TIP3    H220296   0.583   4.962   0.379  0.9651 -0.3097  1.5118
 6792TIP3   OH220297   5.335   7.373   1.536  0.0539 -0.1989  0.6219
 6792TIP3    H120298   5.288   7.291   1.554  0.1239 -0.2566  0.5472
 6792TIP3    H220299   5.274   7.425   1.485  0.3605 -0.6105 -0.1957
 6793TIP3   OH220300   8.628   0.666   1.750 -0.0973  0.2976  0.0793
 6793TIP3    H120301   8.707   0.719   1.740  0.2307  0.2058  1.8946
 6793TIP3    H220302   8.556   0.729   1.745  0.2562  0.8403  1.4729
 6794TIP3   OH220303   7.058   2.820   0.994 -0.8778 -0.3666  0.1154
 6794TIP3    H120304   7.082   2.880   0.923  1.0673  0.3622  1.3000
 6794TIP3    H220305   6.990   2.868   1.042 -0.0382  0.5062  0.4782
 6795TIP3   OH220306   8.224   2.195   6.069  0.1705  0.0833  0.4421
 6795TIP3    H120307   8.311   2.158   6.054 -0.3318 -0.8685 -0.2307
 6795TIP3    H220308   8.239   2.289   6.077  1.3598 -0.1472  1.2005
 6796TIP3   OH220309   0.754   3.320   1.014 -0.0988 -0.3867  0.1743
 6796TIP3    H120310   0.721   3.278   0.935  0.5122 -3.0130  1.2318
 6796TIP3    H220311   0.837   3.360   0.987 -0.5365 -0.0824 -0.7791
 6797TIP3   OH220312   7.421   5.267   3.247  0.0705  0.1979  0.3661
 6797TIP3    H120313   7.466   5.312   3.319  2.1058 -2.8221  1.2377
 6797TIP3    H220314   7.473   5.286   3.170 -1.9181  3.1595 -0.3950
 6798TIP3   OH220315   1.947   6.113   0.225 -0.0580  0.2600 -0.4446
 6798TIP3    H120316   1.891   6.183   0.190  0.3587 -0.1333 -1.9786
 6798TIP3    H220317   2.035   6.138   0.199  0.5620  0.9050  2.0173
 6799TIP3   OH220318   6.959   7.230   0.301  0.2542 -0.5843  0.5044
 6799TIP3    H120319   6.901   7.188   0.364  0.8802 -2.5000 -0.1343
 6799TIP3    H220320   6.994   7.158   0.249 -1.0845  0.9582 -2.8237
 6800TIP3   OH220321   8.587   1.126   2.065 -0.0486  0.2180 -0.0080
 6800TIP3    H120322   8.667   1.073   2.064  0.0626  0.3483  1.1858
 6800TIP3    H220323   8.518   1.064   2.042  0.0090 -0.6127  1.8430
 6801TIP3   OH220324   3.897   4.748   5.394  0.3069 -0.3459 -0.5338
 6801TIP3    H120325   3.953   4.693   5.340 -0.2391 -0.4260 -1.0276
 6801TIP3    H220326   3.849   4.802   5.331  1.5650  1.4567 -0.0478
 6802TIP3   OH220327   3.629   0.212   6.437  0.7550  0.0316  0.3290
 6802TIP3    H120328   3.690   0.197   6.364  0.0233 -0.0429 -0.2723
 6802TIP3    H220329   3.669   0.166   6.511  1.3497 -0.1549 -0.1000
 6803TIP3   OH220330   6.856   5.691   3.102  0.0282  0.3802 -0.1003
 6803TIP3    H120331   6.883   5.740   3.024 -0.1459  1.3873  0.4631
 6803TIP3    H220332   6.811   5.755   3.156 -0.2816 -0.4309  0.6160
 6804TIP3   OH220333   8.307   2.904   6.213  0.0126  0.2925  0.3922
 6804TIP3    H120334   8.398   2.883   6.232  0.4850  2.0289  0.2494
 6804TIP3    H220335   8.307   2.926   6.119 -0.6256 -0.0260  0.3143
 6805TIP3   OH220336   1.081   1.746   5.823 -0.1650 -0.3025  0.1816
 6805TIP3    H120337   1.043   1.806   5.758 -0.9917 -1.8928 -0.8469
 6805TIP3    H220338   1.101   1.667   5.773  2.8209 -0.2208  1.0657
 6806TIP3   OH220339   1.746   6.704   4.693  0.3738 -0.1198  0.9371
 6806TIP3    H120340   1.841   6.693   4.700  0.3819  0.5067  2.2561
 6806TIP3    H220341   1.720   6.652   4.617  1.6761 -0.8996  1.0059
 6807TIP3   OH220342   3.774   3.820   3.842 -0.2182 -0.0618 -0.5293
 6807TIP3    H120343   3.853   3.859   3.807  0.8391 -1.4129  0.2465
 6807TIP3    H220344   3.802   3.777   3.923 -1.5046 -1.4658 -0.7787
 6808TIP3   OH220345   5.164   4.598   3.674 -0.4502 -0.3502  0.2283
 6808TIP3    H120346   5.151   4.615   3.768 -0.7209  2.2672 -0.1943
 6808TIP3    H220347   5.259   4.605   3.662 -0.4523 -0.2842  0.2480
 6809TIP3   OH220348   1.078   0.387   1.244  0.0656 -0.2601  0.0577
 6809TIP3    H120349   1.174   0.391   1.243  0.0132  1.7655 -0.0298
 6809TIP3    H220350   1.057   0.343   1.327  1.0546  0.2961  0.6249
 6810TIP3   OH220351   5.354   1.939   4.263 -0.0490  0.2061 -0.7810
 6810TIP3    H120352   5.334   2.032   4.269  0.4523  0.2534  0.3149
 6810TIP3    H220353   5.325   1.914   4.175  1.1438  1.6943 -1.6391
 6811TIP3   OH220354   1.346   6.366   1.147  0.3710 -0.3725 -0.0737
 6811TIP3    H120355   1.329   6.457   1.123  2.4217 -0.1478 -0.9660
 6811TIP3    H220356   1.300   6.353   1.230  0.5766  1.6886  0.4152
 6812TIP3   OH220357   1.037   3.634   2.132 -0.1676  0.0973 -0.3472
 6812TIP3    H120358   1.018   3.544   2.158 -0.9358 -0.1160 -1.5383
 6812TIP3    H220359   1.080   3.673   2.208  1.4219 -1.6597 -0.2846
 6813TIP3   OH220360   7.936   6.299   2.895  0.1765 -0.0086 -0.1205
 6813TIP3    H120361   8.010   6.321   2.838  0.2158 -0.0784 -0.0954
 6813TIP3    H220362   7.901   6.218   2.859 -1.5028  1.3291 -1.7405
 6814TIP3   OH220363   0.394   4.680   5.443  0.0082 -0.5433  0.4451
 6814TIP3    H120364   0.354   4.654   5.525 -1.8581 -0.0399 -0.2464
 6814TIP3    H220365   0.354   4.765   5.423  0.8031 -0.4218 -0.7273
 6815TIP3   OH220366   1.045   3.271   4.805 -0.0262  0.2541 -0.0417
 6815TIP3    H120367   1.058   3.296   4.897  2.3111 -1.8880  0.2846
 6815TIP3    H220368   1.072   3.180   4.800  3.3893  1.1987 -3.5152
 6816TIP3   OH220369   3.796   3.280   0.139  0.1368 -0.0466 -0.1544
 6816TIP3    H120370   3.886   3.273   0.171 -0.1881  1.0408  1.0986
 6816TIP3    H220371   3.745   3.226   0.201 -0.0248 -1.1231 -1.1903
 6817TIP3   OH220372   8.447   1.491   2.387 -0.3433  0.3986 -0.1205
 6817TIP3    H120373   8.499   1.540   2.452  0.8854  0.7631 -1.3289
 6817TIP3    H220374   8.358   1.490   2.423 -0.4068  3.4180  0.0318
 6818TIP3   OH220375   4.644   6.358   0.381 -0.0559  0.0725  0.1635
 6818TIP3    H120376   4.729   6.389   0.351 -1.3476  1.2601 -2.5719
 6818TIP3    H220377   4.664   6.300   0.455  2.9419  1.8038  0.8461
 6819TIP3   OH220378   2.165   6.059   6.645 -0.2740  0.1355  0.0179
 6819TIP3    H120379   2.176   5.979   6.697 -0.5817  1.8144  2.8815
 6819TIP3    H220380   2.194   6.129   6.703  1.8210  2.0323 -3.0428
 6820TIP3   OH220381   3.885   2.596   5.984  0.6944 -0.0013 -0.7214
 6820TIP3    H120382   3.843   2.647   5.915  0.6361  1.1175  0.1062
 6820TIP3    H220383   3.979   2.609   5.970  0.6855  2.1797  0.7399
 6821TIP3   OH220384   6.183   3.691   6.469 -0.1823  0.5424  0.6147
 6821TIP3    H120385   6.088   3.704   6.466 -0.1192  0.9014 -0.5089
 6821TIP3    H220386   6.197   3.611   6.418  0.2458  1.4100 -0.6706
 6822TIP3   OH220387   1.402   6.412   4.511 -0.8208 -0.1512 -0.2363
 6822TIP3    H120388   1.309   6.414   4.532 -0.4542 -0.6908  1.6300
 6822TIP3    H220389   1.435   6.335   4.558  0.5339 -0.0989 -1.0521
 6823TIP3   OH220390   6.436   1.338   0.932 -0.6831 -0.2637 -0.0185
 6823TIP3    H120391   6.430   1.339   0.836 -2.0765 -1.1101  0.0489
 6823TIP3    H220392   6.347   1.355   0.962 -0.5146 -1.2693  1.1154
 6824TIP3   OH220393   1.508   1.758   0.402 -0.6856  0.1512  0.2720
 6824TIP3    H120394   1.502   1.663   0.396  0.8490  0.1096 -1.3675
 6824TIP3    H220395   1.460   1.780   0.482 -3.3869 -1.7231 -0.6836
 6825TIP3   OH220396   6.726   3.683   6.382  0.0628 -0.3921  0.1065
 6825TIP3    H120397   6.787   3.668   6.309  0.4406  0.4396  0.2389
 6825TIP3    H220398   6.655   3.735   6.344  0.5305  0.5118  0.4386
 6826TIP3   OH220399   4.853   6.768   4.944  0.2850  0.0162  0.0296
 6826TIP3    H120400   4.900   6.772   5.027  0.3520 -1.3782  0.0788
 6826TIP3    H220401   4.761   6.775   4.968  0.3445  0.5883  0.1184
 6827TIP3   OH220402   6.304   5.941   4.250  0.4203  0.4321 -0.3192
 6827TIP3    H120403   6.395   5.970   4.245  0.8449 -0.5671  0.9845
 6827TIP3    H220404   6.305   5.868   4.312 -1.4099  0.9579  0.4145
 6828TIP3   OH220405   5.674   0.460   0.577  0.1061 -0.1278 -0.6318
 6828TIP3    H120406   5.667   0.375   0.534 -0.2114 -0.4596  0.0621
 6828TIP3    H220407   5.701   0.520   0.508  1.1375 -0.9446 -0.9604
 6829TIP3   OH220408   6.213   5.809   0.804  0.4390 -0.2583  0.3771
 6829TIP3    H120409   6.193   5.733   0.859  0.1927 -0.6380 -0.2228
 6829TIP3    H220410   6.307   5.803   0.789  0.3743 -0.6142  0.0935
 6830TIP3   OH220411   7.477   2.002   1.327  0.0115  0.5104 -0.0516
 6830TIP3    H120412   7.395   1.953   1.321  0.8656 -0.8150 -1.9639
 6830TIP3    H220413   7.481   2.053   1.247 -0.9467  4.1317  1.9603
 6831TIP3   OH220414   5.303   6.507   4.693 -0.0194  0.2697 -0.5428
 6831TIP3    H120415   5.230   6.446   4.679  1.2646 -1.1446 -1.3087
 6831TIP3    H220416   5.279   6.555   4.773 -2.2289  0.5475 -1.3111
 6832TIP3   OH220417   2.532   0.751   3.546 -0.5778 -0.3565  0.4745
 6832TIP3    H120418   2.538   0.656   3.539 -2.0670 -0.4283 -0.2389
 6832TIP3    H220419   2.602   0.784   3.489 -1.0703 -1.0355 -0.5537
 6833TIP3   OH220420   3.657   4.700   5.731  0.1746 -0.2555  0.1531
 6833TIP3    H120421   3.727   4.647   5.767  0.4189 -1.2254 -1.6353
 6833TIP3    H220422   3.659   4.781   5.783  3.7231  0.4737 -0.8070
 6834TIP3   OH220423   3.055   4.445   0.848  0.4040 -0.4659  0.4847
 6834TIP3    H120424   2.984   4.399   0.802 -0.2260  0.6392  0.2944
 6834TIP3    H220425   3.063   4.400   0.931  0.8369 -1.8483 -0.2831
 6835TIP3   OH220426   5.646   7.726   3.436 -0.1577 -0.0891  0.1376
 6835TIP3    H120427   5.696   7.657   3.481  0.2891 -0.2669 -0.6139
 6835TIP3    H220428   5.571   7.742   3.493 -0.1874 -1.0948  0.4001
 6836TIP3   OH220429   3.524   0.441   6.542  0.1075  0.1678  0.0192
 6836TIP3    H120430   3.602   0.494   6.522  1.1412 -1.5486 -0.7416
 6836TIP3    H220431   3.540   0.358   6.497 -1.6677 -0.6362  0.7998
 6837TIP3   OH220432   4.484   7.649   4.473  0.0026  0.4152  0.3167
 6837TIP3    H120433   4.394   7.655   4.442 -0.0114  2.2365  0.6180
 6837TIP3    H220434   4.507   7.557   4.463 -1.1055  0.3165 -2.0029
 6838TIP3   OH220435   1.454   4.351   5.108 -0.8475 -0.4146 -0.0642
 6838TIP3    H120436   1.483   4.420   5.048  1.9064 -0.6392  0.8330
 6838TIP3    H220437   1.422   4.398   5.185 -1.0445 -0.1452 -0.3076
 6839TIP3   OH220438   8.023   2.167   6.834 -0.2172 -0.4324 -0.5914
 6839TIP3    H120439   7.966   2.164   6.757 -0.0324 -0.7651 -0.7184
 6839TIP3    H220440   7.968   2.204   6.903 -0.4298 -0.2730 -0.8448
 6840TIP3   OH220441   5.365   8.120   4.933  0.1107  0.3205 -0.2389
 6840TIP3    H120442   5.291   8.073   4.894 -0.2987  1.8108 -1.3184
 6840TIP3    H220443   5.333   8.146   5.019  0.3332 -1.2934  0.3737
 6841TIP3   OH220444   0.239   5.930   0.995 -0.3205  0.2233 -0.2450
 6841TIP3    H120445   0.307   5.887   1.047 -1.8222 -0.1185  1.5747
 6841TIP3    H220446   0.160   5.877   1.011 -0.8857  0.1073 -2.9486
 6842TIP3   OH220447   4.093   2.960   1.457 -0.3893  0.3457 -0.0879
 6842TIP3    H120448   4.076   2.882   1.404 -0.3615  0.1276  0.2240
 6842TIP3    H220449   4.006   2.998   1.472 -0.1765  2.5821 -3.5304
 6843TIP3   OH220450   6.651   5.885   1.091 -0.0692  0.5823 -0.4331
 6843TIP3    H120451   6.635   5.945   1.019  0.2368  0.1342 -0.8802
 6843TIP3    H220452   6.744   5.863   1.083 -0.6818 -1.9497 -1.8472
 6844TIP3   OH220453   8.376   5.687   6.075 -0.1822 -0.5323  0.6642
 6844TIP3    H120454   8.435   5.758   6.102 -1.0153  0.1553  0.6927
 6844TIP3    H220455   8.382   5.686   5.980 -0.2046 -0.3901  0.6607
 6845TIP3   OH220456   6.318   3.099   2.940 -0.0815 -0.1478  0.0621
 6845TIP3    H120457   6.353   3.119   2.854  1.3857 -0.2922  0.5936
 6845TIP3    H220458   6.261   3.024   2.926  2.8567 -2.5193 -0.3437
 6846TIP3   OH220459   8.533   0.118   3.825  0.6485 -0.6013 -0.2548
 6846TIP3    H120460   8.530   0.174   3.748  3.1711  0.2525  0.1775
 6846TIP3    H220461   8.538   0.029   3.790 -0.2292 -0.3675 -1.0087
 6847TIP3   OH220462   6.078   0.839   5.156  0.7569 -0.5890  0.1684
 6847TIP3    H120463   6.004   0.787   5.125 -0.3725  0.5393  0.8487
 6847TIP3    H220464   6.092   0.809   5.246  0.5305 -0.1984  0.3389
 6848TIP3   OH220465   3.776   2.393   0.544 -0.5167 -0.6071  0.8349
 6848TIP3    H120466   3.764   2.376   0.450  0.0962  0.7644  0.4756
 6848TIP3    H220467   3.719   2.329   0.587 -1.2165 -0.9277 -0.4838
 6849TIP3   OH220468   2.617   5.017   2.145 -0.4157 -0.1309 -0.2448
 6849TIP3    H120469   2.693   4.961   2.128 -0.8449 -0.6966 -0.3382
 6849TIP3    H220470   2.555   4.960   2.190 -0.8778  0.2610 -0.3728
 6850TIP3   OH220471   1.543   4.759   6.208 -0.4375 -0.0963  0.1988
 6850TIP3    H120472   1.576   4.671   6.223 -0.0096 -0.1052 -0.7183
 6850TIP3    H220473   1.562   4.807   6.289 -0.6886 -0.8425  0.7034
 6851TIP3   OH220474   0.887   7.630   3.081 -0.5955 -0.1765  0.0490
 6851TIP3    H120475   0.979   7.633   3.054 -0.3687 -0.4315  0.7870
 6851TIP3    H220476   0.874   7.710   3.131 -1.2060  0.6495 -1.3539
 6852TIP3   OH220477   3.432   4.363   6.301  0.1956  0.0892  0.0266
 6852TIP3    H120478   3.395   4.331   6.384 -2.3710 -0.3509 -1.1953
 6852TIP3    H220479   3.465   4.450   6.322 -4.4791  1.9827  0.7295
 6853TIP3   OH220480   0.208   4.495   6.174  0.3836  0.4638 -0.5162
 6853TIP3    H120481   0.296   4.489   6.137  0.7609  0.1088  0.4069
 6853TIP3    H220482   0.166   4.565   6.124  1.1484  0.5523 -1.0526
 6854TIP3   OH220483   5.491   7.453   5.092 -0.9071  0.2692  0.3538
 6854TIP3    H120484   5.425   7.432   5.158  0.0386 -0.5755  1.0418
 6854TIP3    H220485   5.531   7.369   5.070  0.0398  0.7925  0.0386
 6855TIP3   OH220486   1.870   0.499   6.365  0.3243  0.3279 -0.5789
 6855TIP3    H120487   1.847   0.449   6.287 -1.6875 -0.0533  0.1935
 6855TIP3    H220488   1.802   0.566   6.373  1.2605  1.2477  0.1034
 6856TIP3   OH220489   0.943   2.933   6.123  0.3594 -0.0084  0.8303
 6856TIP3    H120490   1.008   3.001   6.136  0.2153  0.1437  0.7550
 6856TIP3    H220491   0.882   2.943   6.196 -0.2202  0.5841  0.2705
 6857TIP3   OH220492   2.038   0.271   2.511 -0.1431 -0.1603 -0.6123
 6857TIP3    H120493   2.034   0.354   2.559 -1.2468 -0.8022  0.4568
 6857TIP3    H220494   2.080   0.294   2.428 -0.5996  1.5039 -0.4220
 6858TIP3   OH220495   2.786   0.184   3.736 -0.1208 -0.0737  0.2047
 6858TIP3    H120496   2.808   0.251   3.671 -1.7345 -1.6517 -2.1285
 6858TIP3    H220497   2.727   0.229   3.798 -2.3753  0.4260 -2.1390
 6859TIP3   OH220498   3.813   0.428   3.560  0.5739  0.0224  0.8716
 6859TIP3    H120499   3.903   0.460   3.570  0.4209  1.2884 -1.1937
 6859TIP3    H220500   3.788   0.456   3.472 -1.8459 -0.3334  1.3909
 6860TIP3   OH220501   8.413   0.731   5.361 -0.4395 -0.1562 -0.5789
 6860TIP3    H120502   8.375   0.657   5.314 -0.7651 -0.3655  0.0052
 6860TIP3    H220503   8.482   0.763   5.303 -0.1500 -1.0494 -0.7381
 6861TIP3   OH220504   3.242   4.711   0.353 -0.4139 -0.3958  0.0259
 6861TIP3    H120505   3.283   4.769   0.417 -1.8649  1.0860 -0.3331
 6861TIP3    H220506   3.245   4.625   0.395  4.1647 -0.7604 -0.5043
 6862TIP3   OH220507   8.361   7.909   3.359 -0.4841 -0.1480  0.0475
 6862TIP3    H120508   8.348   7.878   3.269  0.0402 -2.1520  0.6084
 6862TIP3    H220509   8.365   7.829   3.411  0.6000  0.9201  1.6834
 6863TIP3   OH220510   6.172   1.397   3.638 -0.2612  0.1016 -0.1415
 6863TIP3    H120511   6.201   1.316   3.596 -0.8120 -0.1852  0.0160
 6863TIP3    H220512   6.219   1.466   3.593  0.6775 -0.3463  0.1189
 6864TIP3   OH220513   4.402   3.068   0.576 -0.0624 -0.7827 -0.0155
 6864TIP3    H120514   4.358   3.107   0.500  1.8627  2.3760  0.2851
 6864TIP3    H220515   4.344   3.088   0.650 -0.5653 -1.3283 -0.2491
 6865TIP3   OH220516   4.672   4.176   6.355  0.3978 -0.6006 -0.2139
 6865TIP3    H120517   4.630   4.205   6.274  1.7660 -1.6094 -1.3314
 6865TIP3    H220518   4.661   4.080   6.354  0.4284 -0.6267  0.8164
 6866TIP3   OH220519   8.257   1.022   6.701 -0.0022 -0.2413 -0.4390
 6866TIP3    H120520   8.350   1.004   6.707 -0.0354 -0.3316 -0.1679
 6866TIP3    H220521   8.219   0.943   6.663  0.1700  0.2170 -1.5951
 6867TIP3   OH220522   0.610   0.629   2.132 -0.1673  0.3337  0.8984
 6867TIP3    H120523   0.602   0.537   2.157  1.4976 -0.6073 -1.6692
 6867TIP3    H220524   0.543   0.673   2.184 -2.0430 -2.5437  1.1754
 6868TIP3   OH220525   5.079   5.862   6.343  0.0500  0.1333  0.0609
 6868TIP3    H120526   5.101   5.797   6.409  0.8126  0.1440 -0.1805
 6868TIP3    H220527   5.034   5.813   6.275 -1.2773  0.2137  0.8327
 6869TIP3   OH220528   2.724   7.990   2.783  0.1038 -0.1238 -0.3710
 6869TIP3    H120529   2.787   7.919   2.776  1.0215  0.8155 -2.2284
 6869TIP3    H220530   2.734   8.041   2.702 -2.1977  0.7604 -0.2051
 6870TIP3   OH220531   1.413   1.188   3.000  0.5239  0.2030 -0.2790
 6870TIP3    H120532   1.462   1.131   2.940 -0.1434 -1.8996  1.0478
 6870TIP3    H220533   1.467   1.266   3.008  1.2320  0.0422 -2.6081
 6871TIP3   OH220534   1.345   5.682   5.983 -0.1712 -0.0131  0.4653
 6871TIP3    H120535   1.377   5.667   5.894  0.0080  2.8619 -0.0436
 6871TIP3    H220536   1.371   5.772   6.004 -1.7499  0.0105  2.7558
 6872TIP3   OH220537   2.498   2.413   4.385 -0.0820  0.1960  0.6570
 6872TIP3    H120538   2.479   2.320   4.400 -0.6454  0.3477  0.9176
 6872TIP3    H220539   2.589   2.424   4.413  0.1758 -0.3915  0.0920
 6873TIP3   OH220540   8.274   6.949   2.364 -0.1986 -0.1032  0.2236
 6873TIP3    H120541   8.217   6.955   2.440  0.5309 -1.0251  0.8596
 6873TIP3    H220542   8.362   6.936   2.400  0.3172  0.5254 -0.7499
 6874TIP3   OH220543   5.604   3.188   4.913 -0.0483  0.1235  0.2057
 6874TIP3    H120544   5.512   3.191   4.886 -0.2562 -1.1700  0.6659
 6874TIP3    H220545   5.651   3.159   4.835 -0.1533 -0.0093  0.1905
 6875TIP3   OH220546   0.309   0.878   1.431 -0.1705  0.4911  0.0100
 6875TIP3    H120547   0.386   0.879   1.487 -0.9383  1.6986  1.1045
 6875TIP3    H220548   0.344   0.880   1.342  1.0524  1.4296  0.4843
 6876TIP3   OH220549   8.195   0.170   5.885  0.3756  0.0907 -0.4728
 6876TIP3    H120550   8.150   0.095   5.845  0.1489  0.7005 -1.3861
 6876TIP3    H220551   8.209   0.143   5.976 -0.0760 -0.8946 -0.6775
 6877TIP3   OH220552   1.199   3.996   1.653 -0.0970  0.3345 -0.4790
 6877TIP3    H120553   1.124   4.055   1.649 -1.5373 -1.4865 -2.8645
 6877TIP3    H220554   1.265   4.039   1.598 -0.0530  1.0720  0.1394
 6878TIP3   OH220555   7.240   3.442   3.710 -0.2414 -0.0276  0.5089
 6878TIP3    H120556   7.233   3.459   3.616  0.3569 -1.9667  0.0625
 6878TIP3    H220557   7.167   3.490   3.749  0.2215  1.8353 -0.7574
 6879TIP3   OH220558   6.414   3.809   0.761 -0.3078  0.0088 -0.4981
 6879TIP3    H120559   6.437   3.855   0.841  1.5814 -0.7796 -0.5228
 6879TIP3    H220560   6.402   3.718   0.787  1.2307 -0.4340 -1.1888
 6880TIP3   OH220561   0.287   8.062   1.671  0.5571 -0.0436 -0.4579
 6880TIP3    H120562   0.274   8.119   1.747 -0.1186 -0.5396 -0.1923
 6880TIP3    H220563   0.292   7.974   1.708 -0.7491 -0.3927 -1.0541
 6881TIP3   OH220564   6.206   3.009   3.682 -0.3953 -0.2577 -0.0012
 6881TIP3    H120565   6.287   2.975   3.643  0.3539  0.4822  0.8942
 6881TIP3    H220566   6.218   3.103   3.685 -0.3004 -0.2955  2.2703
 6882TIP3   OH220567   5.482   3.847   0.795  0.1369 -0.4914 -0.9853
 6882TIP3    H120568   5.457   3.891   0.714  1.7027  0.0913 -1.1937
 6882TIP3    H220569   5.539   3.910   0.840  0.6066 -1.4353 -0.2042
 6883TIP3   OH220570   8.259   4.085   5.571  0.1022  0.3146  0.5325
 6883TIP3    H120571   8.186   4.082   5.509 -0.2397  0.4839  0.9126
 6883TIP3    H220572   8.336   4.105   5.518  0.1879 -1.6215 -0.1487
 6884TIP3   OH220573   8.636   2.324   6.004  0.3199  0.3450 -0.3519
 6884TIP3    H120574   8.626   2.362   6.091 -0.1900  1.3928 -0.8499
 6884TIP3    H220575   8.595   2.238   6.010  1.0746  0.0410  0.6715
 6885TIP3   OH220576   7.914   6.626   4.653  0.1451 -0.0057  0.5787
 6885TIP3    H120577   7.892   6.653   4.564 -1.6913  1.0796  1.3104
 6885TIP3    H220578   8.008   6.642   4.660  0.8072 -2.1191 -1.8076
 6886TIP3   OH220579   8.068   2.581   6.480  0.0572  0.0625 -0.6578
 6886TIP3    H120580   7.973   2.572   6.470  0.1483 -0.3157 -1.2221
 6886TIP3    H220581   8.098   2.614   6.395  0.6751 -1.7948 -1.2060
 6887TIP3   OH220582   1.319   6.241   4.933 -0.0670 -0.3759 -0.2723
 6887TIP3    H120583   1.268   6.185   4.991 -1.6509 -0.8088 -2.0099
 6887TIP3    H220584   1.261   6.259   4.859  1.0322  2.1112 -0.6296
 6888TIP3   OH220585   8.020   1.873   4.850  0.2244 -0.0939 -0.6132
 6888TIP3    H120586   8.068   1.795   4.879  0.0234 -0.8206 -2.1715
 6888TIP3    H220587   8.079   1.918   4.790  0.0779  0.6115 -0.2471
 6889TIP3   OH220588   1.186   5.415   0.725 -0.2470  0.0074  0.5748
 6889TIP3    H120589   1.160   5.334   0.680 -1.9207  0.4910  0.6157
 6889TIP3    H220590   1.159   5.401   0.816 -0.5182  0.6000  0.5869
 6890TIP3   OH220591   4.894   3.159   4.917 -0.0597 -0.4975 -0.1921
 6890TIP3    H120592   4.824   3.094   4.918 -0.3961 -0.1658  2.0327
 6890TIP3    H220593   4.957   3.125   4.853 -0.6611 -2.5198  0.2118
 6891TIP3   OH220594   2.941   3.363   2.890  0.3002 -0.0980  0.2242
 6891TIP3    H120595   2.857   3.326   2.862  0.8619 -2.5011  1.4869
 6891TIP3    H220596   2.955   3.437   2.831 -0.8853 -1.9052 -2.5303
 6892TIP3   OH220597   1.671   1.469   5.298 -0.3751 -0.4359 -0.0667
 6892TIP3    H120598   1.735   1.400   5.317  1.4990  0.6638 -1.8898
 6892TIP3    H220599   1.613   1.431   5.232  0.4401 -0.4313 -0.8101
 6893TIP3   OH220600   7.332   5.489   7.004  0.5740  0.3215 -0.2070
 6893TIP3    H120601   7.282   5.485   6.923 -1.2928 -2.2210  0.9217
 6893TIP3    H220602   7.309   5.574   7.042  0.0858  0.7843 -1.4791
 6894TIP3   OH220603   4.154   4.029   0.109  0.1741 -0.0294  0.5584
 6894TIP3    H120604   4.209   4.062   0.038 -0.3715  0.5981  0.4157
 6894TIP3    H220605   4.099   3.963   0.068 -0.0855  0.2758  0.4105
 6895TIP3   OH220606   7.415   4.860   2.640 -0.1525 -0.0070 -0.0533
 6895TIP3    H120607   7.367   4.779   2.654  0.4550 -0.1726  1.2813
 6895TIP3    H220608   7.466   4.845   2.561 -2.5177  0.3246 -1.7531
 6896TIP3   OH220609   2.745   6.484   6.457 -0.5276 -0.1626 -0.6069
 6896TIP3    H120610   2.730   6.528   6.374 -1.5101  0.9987  0.1548
 6896TIP3    H220611   2.746   6.554   6.522  0.3698 -1.0250  0.3608
 6897TIP3   OH220612   2.311   1.844   2.895 -0.0815  0.8529  0.2022
 6897TIP3    H120613   2.348   1.767   2.853 -0.8626  0.2149  0.6420
 6897TIP3    H220614   2.378   1.911   2.887  1.0547 -0.1758  0.7277
 6898TIP3   OH220615  -0.002   2.607   6.830  0.2276  0.5881 -0.3183
 6898TIP3    H120616   0.035   2.518   6.829 -2.1295 -0.5279 -2.5754
 6898TIP3    H220617   0.055   2.657   6.772  0.4417 -0.0220 -0.6438
 6899TIP3   OH220618   6.433   7.644   0.441 -0.0270  0.2378 -0.1950
 6899TIP3    H120619   6.525   7.669   0.436  0.1344  0.0452  1.2651
 6899TIP3    H220620   6.434   7.548   0.432 -0.1025  0.2465 -0.3011
 6900TIP3   OH220621   7.258   3.392   1.994 -0.0036  0.0880  0.0497
 6900TIP3    H120622   7.268   3.358   1.906 -1.7173 -0.4642  0.0354
 6900TIP3    H220623   7.218   3.321   2.044  0.1011  0.6976  1.0476
 6901TIP3   OH220624   3.446   0.851   2.717 -0.5050  0.2037  0.5653
 6901TIP3    H120625   3.474   0.872   2.807 -2.2557  0.5549  1.0669
 6901TIP3    H220626   3.356   0.821   2.727  0.1578 -2.5134 -0.7748
 6902TIP3   OH220627   4.102   5.478   5.522 -0.3995  0.1427 -0.1890
 6902TIP3    H120628   4.155   5.412   5.567  0.6824  1.2383  0.2149
 6902TIP3    H220629   4.094   5.549   5.586 -3.5781 -0.4994  0.3004
 6903TIP3   OH220630   0.810   1.193   3.644  0.6211  0.1741  0.0197
 6903TIP3    H120631   0.811   1.269   3.586  0.7800  0.6979  0.6907
 6903TIP3    H220632   0.849   1.123   3.592  1.3435  0.7935 -0.2966
 6904TIP3   OH220633   6.585   6.886   1.154 -0.1274 -0.0150 -0.5002
 6904TIP3    H120634   6.542   6.945   1.216 -0.3710 -0.5921 -0.1130
 6904TIP3    H220635   6.584   6.933   1.071 -0.9057  0.2593 -0.3455
 6905TIP3   OH220636   5.824   0.394   5.875  0.2196 -0.0003  0.2556
 6905TIP3    H120637   5.846   0.301   5.885  1.0731  0.2480  0.7690
 6905TIP3    H220638   5.749   0.394   5.816 -0.4590 -1.0823  1.0668
 6906TIP3   OH220639   8.064   0.665   5.394  0.2231  0.6501  0.0991
 6906TIP3    H120640   7.999   0.677   5.326  1.4350  2.5794 -0.8146
 6906TIP3    H220641   8.131   0.609   5.355 -1.1369 -1.9476  1.2833
 6907TIP3   OH220642   4.583   0.183   2.576 -0.0093 -0.1579  0.0588
 6907TIP3    H120643   4.492   0.171   2.547  0.1555 -1.3984 -0.0239
 6907TIP3    H220644   4.633   0.196   2.496  0.3325 -2.8046 -0.2538
 6908TIP3   OH220645   8.289   6.792   2.731 -0.7456  0.3460  0.2520
 6908TIP3    H120646   8.351   6.843   2.782  2.0048  0.6058 -3.0596
 6908TIP3    H220647   8.334   6.710   2.713 -2.4677 -0.5865 -0.0921
 6909TIP3   OH220648   3.836   4.124   6.452 -0.0527  0.2142  0.1660
 6909TIP3    H120649   3.826   4.037   6.490 -2.7633 -0.0648 -1.0027
 6909TIP3    H220650   3.801   4.184   6.518  1.2980  0.4318  0.7337
 6910TIP3   OH220651   4.092   7.944   3.858  0.0877  0.0311 -0.1247
 6910TIP3    H120652   4.128   7.924   3.772  0.5896 -2.3990  0.5817
 6910TIP3    H220653   4.168   7.944   3.917 -0.5637 -1.2263  0.7572
 6911TIP3   OH220654   2.107   2.376   5.569 -0.2614 -0.5888  0.0673
 6911TIP3    H120655   2.015   2.390   5.592 -0.5230  0.2703 -1.3498
 6911TIP3    H220656   2.106   2.300   5.511  0.0213 -1.0037  0.5999
 6912TIP3   OH220657   2.751   5.749   6.543 -0.0143 -0.5413  0.5373
 6912TIP3    H120658   2.833   5.781   6.504 -0.9006  0.1203 -0.8690
 6912TIP3    H220659   2.749   5.656   6.521  0.5258 -0.6539  0.9228
 6913TIP3   OH220660   5.750   2.432   2.609 -1.0090 -0.1700 -0.5145
 6913TIP3    H120661   5.692   2.441   2.534 -0.3133  0.7097 -0.9647
 6913TIP3    H220662   5.838   2.443   2.572 -0.5169 -1.8211  0.0868
 6914TIP3   OH220663   6.400   6.269   4.788  0.1839 -0.1862  0.3009
 6914TIP3    H120664   6.425   6.255   4.697 -0.2027  0.0814  0.1460
 6914TIP3    H220665   6.334   6.201   4.806 -1.2516  0.9994 -0.2649
 6915TIP3   OH220666   1.062   0.670   4.098  0.3116  0.4537  0.0329
 6915TIP3    H120667   1.065   0.580   4.067  1.5846 -0.0593  1.5373
 6915TIP3    H220668   0.968   0.688   4.111  0.0834 -0.8972  0.3952
 6916TIP3   OH220669   0.767   0.136   1.377 -0.2274 -0.2564 -0.0709
 6916TIP3    H120670   0.778   0.097   1.290 -0.2228 -0.5086  0.0427
 6916TIP3    H220671   0.845   0.192   1.388  0.4670 -1.2809  0.3329
 6917TIP3   OH220672   5.143   0.688   4.322  0.2032  0.1047  0.2010
 6917TIP3    H120673   5.152   0.682   4.227  1.3648  1.9146  0.1358
 6917TIP3    H220674   5.110   0.776   4.337  0.4016 -0.0230  1.4977
 6918TIP3   OH220675   5.133   7.143   1.510 -0.9700 -0.1798  0.5481
 6918TIP3    H120676   5.143   7.058   1.554 -1.7828 -1.4993 -1.6872
 6918TIP3    H220677   5.043   7.170   1.529 -0.5153  0.5504  1.7942
 6919TIP3   OH220678   1.258   7.029   5.711  0.4928  0.2425  0.8578
 6919TIP3    H120679   1.184   7.025   5.771 -1.4318 -0.3041 -1.4496
 6919TIP3    H220680   1.302   7.112   5.734 -2.4348  2.0144  0.5148
 6920TIP3   OH220681   1.759   7.389   6.953  0.0505 -0.1308 -0.2440
 6920TIP3    H120682   1.730   7.312   7.001  3.0925 -0.9110  0.5433
 6920TIP3    H220683   1.683   7.448   6.953 -2.1083 -2.7467 -0.2004
 6921TIP3   OH220684   0.944   1.063   1.555  0.3993  0.4456 -0.2250
 6921TIP3    H120685   0.927   0.984   1.606 -0.0895 -1.6477 -3.3641
 6921TIP3    H220686   1.039   1.074   1.560  0.8683 -2.0756 -1.9269
 6922TIP3   OH220687   2.743   1.965   4.019 -0.2926  0.3483 -0.3014
 6922TIP3    H120688   2.701   2.019   4.085 -0.5709 -2.1809  1.7548
 6922TIP3    H220689   2.830   1.946   4.055  0.7162  1.3142 -2.0968
 6923TIP3   OH220690   0.875   7.731   5.532 -0.2612 -0.3240 -0.4992
 6923TIP3    H120691   0.890   7.777   5.614 -0.3252 -0.9592 -0.1188
 6923TIP3    H220692   0.877   7.638   5.557 -1.5439 -0.5049 -0.9882
 6924TIP3   OH220693   5.813   3.392   0.290  0.0149 -0.1403  0.0969
 6924TIP3    H120694   5.837   3.314   0.340 -2.2030 -1.0270 -0.1120
 6924TIP3    H220695   5.775   3.451   0.355  0.4880  0.2416  0.0344
 6925TIP3   OH220696   5.655   7.620   5.624  0.1898  0.0431  0.3100
 6925TIP3    H120697   5.601   7.698   5.611 -1.0928 -0.8426  0.1257
 6925TIP3    H220698   5.679   7.593   5.536 -1.7925 -1.3726  0.1249
 6926TIP3   OH220699   0.776   2.640   2.767 -0.4890  0.3679  0.4051
 6926TIP3    H120700   0.694   2.663   2.811  0.1259  0.0042  1.8055
 6926TIP3    H220701   0.798   2.553   2.801  0.2449  0.2693 -0.2933
 6927TIP3   OH220702   0.618   6.942   5.110  0.2014  0.0508  0.4737
 6927TIP3    H120703   0.574   6.911   5.031  0.4548 -2.7284  1.3352
 6927TIP3    H220704   0.558   7.006   5.148  0.2152  1.7143 -2.0716
 6928TIP3   OH220705   6.592   7.427   1.847  0.5981  0.0188 -0.6390
 6928TIP3    H120706   6.541   7.393   1.920 -0.0891  1.4831 -0.3952
 6928TIP3    H220707   6.573   7.521   1.846  3.3359  0.6674 -0.4986
 6929TIP3   OH220708   2.732   6.520   2.935  0.0358 -1.0209  0.2569
 6929TIP3    H120709   2.669   6.518   2.863 -1.7100  0.0848  1.6367
 6929TIP3    H220710   2.790   6.593   2.914 -1.1451  0.0163  0.4269
 6930TIP3   OH220711   7.980   6.452   4.867  0.1701  0.2250  0.4045
 6930TIP3    H120712   7.957   6.532   4.819 -1.8302 -0.3817  0.2774
 6930TIP3    H220713   8.064   6.425   4.828  0.3343  1.6290 -0.3110
 6931TIP3   OH220714   5.778   2.887   3.633  0.7349  0.2839 -0.0219
 6931TIP3    H120715   5.812   2.798   3.622 -2.3790 -1.1756  0.8889
 6931TIP3    H220716   5.730   2.904   3.552  0.1480  0.5423  0.3751
 6932TIP3   OH220717   8.648   5.920   4.970 -0.2597 -0.1392  0.5979
 6932TIP3    H120718   8.561   5.882   4.957 -0.6691  0.7955  0.5095
 6932TIP3    H220719   8.637   5.980   5.043 -0.0826  1.1686 -0.4131
 6933TIP3   OH220720   5.266   1.536   6.422 -0.2054  0.1000 -0.1997
 6933TIP3    H120721   5.211   1.578   6.488  3.0345  1.0306  2.1632
 6933TIP3    H220722   5.337   1.496   6.472  1.7296 -0.3702 -3.0656
 6934TIP3   OH220723   8.397   8.204   4.489  0.7423  0.1791 -0.3961
 6934TIP3    H120724   8.465   8.212   4.555  0.8434  2.7096 -0.7165
 6934TIP3    H220725   8.432   8.140   4.427  1.0497 -1.5201  1.4350
 6935TIP3   OH220726   8.053   7.174   3.459 -0.5549 -0.6962 -0.1622
 6935TIP3    H120727   7.999   7.243   3.421 -0.7086  0.2818  1.7273
 6935TIP3    H220728   8.048   7.103   3.395 -2.5043  0.0686 -0.9657
 6936TIP3   OH220729   6.176   5.834   1.882 -0.0518 -0.2412  0.5181
 6936TIP3    H120730   6.160   5.794   1.796 -0.5536  1.1678 -0.0779
 6936TIP3    H220731   6.270   5.827   1.894  0.1939  0.5883 -0.7110
 6937TIP3   OH220732   0.125   5.960   2.462 -0.2510  0.3666 -0.4059
 6937TIP3    H120733   0.031   5.972   2.467 -0.1632  0.7488  0.3524
 6937TIP3    H220734   0.145   5.894   2.528 -0.0348 -0.0063 -0.8378
 6938TIP3   OH220735   6.680   0.159   4.542 -0.5277 -0.6478  0.0412
 6938TIP3    H120736   6.761   0.165   4.491 -0.8321 -0.8242 -0.4703
 6938TIP3    H220737   6.611   0.153   4.476 -0.9999  0.0097  0.4727
 6939TIP3   OH220738   3.950   4.754   4.067 -0.0336  0.0944  0.4283
 6939TIP3    H120739   3.871   4.774   4.118 -0.5950 -2.3902  0.6978
 6939TIP3    H220740   3.927   4.778   3.977 -1.0394 -0.3714  0.5440
 6940TIP3   OH220741   5.789   0.704   6.408 -0.4506 -0.6649  0.4545
 6940TIP3    H120742   5.783   0.617   6.368  0.6436 -1.6596  2.3353
 6940TIP3    H220743   5.882   0.714   6.429 -0.3991  1.3538 -0.4615
 6941TIP3   OH220744   4.827   2.582   1.583 -0.3568  0.0743  0.0021
 6941TIP3    H120745   4.870   2.632   1.652  1.2144 -1.1911 -0.0075
 6941TIP3    H220746   4.770   2.520   1.629 -1.5776  1.1773  0.0370
 6942TIP3   OH220747   3.342   6.676   4.110  0.1010 -0.0169 -0.3763
 6942TIP3    H120748   3.280   6.749   4.115  1.7396  1.3740  1.0889
 6942TIP3    H220749   3.385   6.675   4.196  0.9978 -1.9414 -0.7830
 6943TIP3   OH220750   0.572   1.290   2.361  1.1908  0.5776  0.7960
 6943TIP3    H120751   0.609   1.378   2.346  0.6548  1.1252  2.4831
 6943TIP3    H220752   0.587   1.274   2.454 -0.3823 -0.3450  0.9110
 6944TIP3   OH220753   2.259   5.889   2.060 -0.7073 -0.0107 -0.7827
 6944TIP3    H120754   2.324   5.912   1.993  1.4285  1.2727  1.5370
 6944TIP3    H220755   2.193   5.958   2.055  1.2978  2.1822  0.6129
 6945TIP3   OH220756   2.028   5.864   2.874  0.6731 -0.4066 -0.0512
 6945TIP3    H120757   1.976   5.873   2.954  0.7256 -0.4340 -0.0132
 6945TIP3    H220758   1.969   5.825   2.811  0.5286 -0.0615 -0.1299
 6946TIP3   OH220759   1.791   0.050   6.907 -0.2113  0.0714  0.9333
 6946TIP3    H120760   1.800  -0.006   6.985  1.5955  0.0792  0.7833
 6946TIP3    H220761   1.881   0.073   6.885 -0.7839  1.0607 -0.4610
 6947TIP3   OH220762   0.029   8.124   4.100  0.5452  0.3183  0.4515
 6947TIP3    H120763   0.111   8.077   4.119  0.4126  0.4604  1.4497
 6947TIP3    H220764   0.053   8.187   4.032  0.3815 -2.1640 -2.0856
 6948TIP3   OH220765   1.835   7.045   5.408 -0.1584  0.0756 -0.1903
 6948TIP3    H120766   1.822   7.109   5.338  0.8983  0.6577  0.1228
 6948TIP3    H220767   1.904   7.082   5.462 -0.7799 -0.4886  1.0270
 6949TIP3   OH220768   3.306   2.324   1.897  0.2567  0.3152  0.1323
 6949TIP3    H120769   3.319   2.255   1.961  0.8082 -0.5577 -0.8926
 6949TIP3    H220770   3.339   2.288   1.815  0.6405  1.8194 -0.4209
 6950TIP3   OH220771   6.976   6.433   4.817 -0.1796  0.0718  0.3308
 6950TIP3    H120772   6.981   6.484   4.898 -1.8188  1.1448 -0.1865
 6950TIP3    H220773   7.019   6.350   4.838  0.0439  0.5875  2.0831
 6951TIP3   OH220774   6.038   4.899   4.228 -0.3821 -0.2154  0.4750
 6951TIP3    H120775   5.950   4.873   4.201 -0.5429  0.6397  0.1297
 6951TIP3    H220776   6.026   4.986   4.268  0.0628 -0.8039  1.9881
 6952TIP3   OH220777   2.406   5.818   3.323  0.6570 -0.1405  0.0510
 6952TIP3    H120778   2.490   5.863   3.333  0.0201  1.2069 -0.4061
 6952TIP3    H220779   2.400   5.799   3.230  0.1182  0.4704 -0.0426
 6953TIP3   OH220780   4.036   4.417   0.543  0.3444 -0.1439 -0.1609
 6953TIP3    H120781   3.962   4.461   0.584  1.0287 -0.4908  1.5168
 6953TIP3    H220782   4.079   4.485   0.491  1.0910  1.0903  1.9717
 6954TIP3   OH220783   8.460   6.672   0.944  0.1124  0.5708  0.1486
 6954TIP3    H120784   8.481   6.582   0.919 -1.6421 -0.9370  3.4443
 6954TIP3    H220785   8.539   6.704   0.985  0.1565 -0.2252  0.7123
 6955TIP3   OH220786   2.584   7.409   2.460  0.1717 -0.5381  0.0965
 6955TIP3    H120787   2.626   7.324   2.449 -0.2383 -0.6787 -0.4694
 6955TIP3    H220788   2.506   7.404   2.404  0.8485  0.6776 -1.0241
 6956TIP3   OH220789   8.481   0.181   5.186 -0.2263  0.1658  0.4099
 6956TIP3    H120790   8.397   0.160   5.228 -1.0969  2.9652  0.2272
 6956TIP3    H220791   8.536   0.105   5.206 -2.3600 -1.1800  1.6753
 6957TIP3   OH220792   2.434   7.976   4.879  0.3577  0.2894 -0.1248
 6957TIP3    H120793   2.361   8.035   4.861  0.6040  0.7068  0.2341
 6957TIP3    H220794   2.511   8.032   4.882  0.7171 -0.1630 -0.6183
 6958TIP3   OH220795   6.596   7.772   3.905  0.1594  0.3286 -0.7622
 6958TIP3    H120796   6.648   7.713   3.960  0.3084  0.0318 -1.2190
 6958TIP3    H220797   6.606   7.858   3.946 -0.9035 -0.1236  0.5197
 6959TIP3   OH220798   5.859   7.627   0.342 -0.1550  0.3350 -0.1899
 6959TIP3    H120799   5.898   7.714   0.347  0.3891  0.1217 -0.5648
 6959TIP3    H220800   5.765   7.641   0.351 -0.0844  0.9809 -0.4467
 6960TIP3   OH220801   0.735   3.314   3.907  0.0623 -0.6826  0.0119
 6960TIP3    H120802   0.711   3.226   3.878 -0.2633 -1.2862  1.9892
 6960TIP3    H220803   0.653   3.352   3.938  0.7256 -0.9185  2.2047
 6961TIP3   OH220804   4.445   7.056   4.187 -0.0365 -0.5697  0.3654
 6961TIP3    H120805   4.495   7.098   4.257 -3.0191  1.0176  1.7498
 6961TIP3    H220806   4.488   7.085   4.107  2.0844 -0.4963  1.4629
 6962TIP3   OH220807   1.791   2.344   2.091  0.4019  0.4319 -0.0120
 6962TIP3    H120808   1.786   2.281   2.162  5.1356  0.3772  0.5912
 6962TIP3    H220809   1.812   2.427   2.134 -0.4894  1.2719 -1.1367
 6963TIP3   OH220810   4.599   1.660   4.168 -0.7828  0.1350  0.3339
 6963TIP3    H120811   4.521   1.697   4.127 -0.2127  1.1840  0.1492
 6963TIP3    H220812   4.669   1.675   4.105 -0.3606 -0.4936  0.6363
 6964TIP3   OH220813   1.713   1.833   2.869  0.4291  1.0213 -0.0418
 6964TIP3    H120814   1.745   1.769   2.932 -3.0895  0.0962  1.0827
 6964TIP3    H220815   1.726   1.790   2.784  1.5559  0.4916  0.3785
 6965TIP3   OH220816   1.794   8.179   3.941  0.4980 -0.2878  0.2027
 6965TIP3    H120817   1.867   8.224   3.985  0.2541  2.4697 -1.8869
 6965TIP3    H220818   1.727   8.169   4.008  1.0106  1.6045  1.0613
 6966TIP3   OH220819   6.402   4.367   4.745 -0.5054  0.3946  0.3932
 6966TIP3    H120820   6.456   4.426   4.694 -0.0836 -0.1350  0.2157
 6966TIP3    H220821   6.438   4.280   4.728  0.2811  0.2868  2.3683
 6967TIP3   OH220822   7.052   2.804   5.111 -0.6090 -0.0264  0.3456
 6967TIP3    H120823   7.134   2.824   5.064 -0.6957 -1.6414 -0.5714
 6967TIP3    H220824   7.042   2.877   5.172 -1.1440  2.9471 -2.9348
 6968TIP3   OH220825   3.188   4.039   3.287  0.3576  0.5664  0.7148
 6968TIP3    H120826   3.216   4.127   3.312 -1.0997  0.8623  1.3641
 6968TIP3    H220827   3.239   4.020   3.208  2.5429  0.9639  1.9368
 6969TIP3   OH220828   3.634   2.857   2.392  0.4229  0.5879  0.2809
 6969TIP3    H120829   3.685   2.777   2.378 -1.7838 -0.6413 -1.3036
 6969TIP3    H220830   3.579   2.837   2.467 -1.0632  0.0561 -0.9048
 6970TIP3   OH220831   8.128   3.988   4.276 -0.2514  0.4885 -0.3333
 6970TIP3    H120832   8.200   4.016   4.333 -0.2690  1.4615 -0.7817
 6970TIP3    H220833   8.131   3.892   4.281 -0.6518  0.5421  1.7887
 6971TIP3   OH220834   7.460   5.502   0.940  0.1610 -1.0241  0.5526
 6971TIP3    H120835   7.384   5.535   0.892 -0.1229 -2.3999  0.0221
 6971TIP3    H220836   7.424   5.445   1.008  0.7002 -1.4356  0.5003
 6972TIP3   OH220837   3.316   1.354   6.365  0.0555 -0.2649  0.4528
 6972TIP3    H120838   3.299   1.261   6.351  0.0629 -0.3753  1.1202
 6972TIP3    H220839   3.350   1.385   6.282 -1.3322 -0.5295 -0.2538
 6973TIP3   OH220840   3.163   1.123   5.810  0.5416 -0.1123 -0.0351
 6973TIP3    H120841   3.147   1.169   5.892  2.4116 -0.4046  0.5506
 6973TIP3    H220842   3.147   1.189   5.742 -3.1874 -0.4454  0.3227
 6974TIP3   OH220843   0.207   7.799   0.831 -0.0654 -0.3662  0.6062
 6974TIP3    H120844   0.243   7.842   0.908  1.4299 -0.3949 -0.0365
 6974TIP3    H220845   0.262   7.829   0.758 -0.5264 -1.4529 -0.2239
 6975TIP3   OH220846   7.644   2.865   3.290 -0.1828 -0.1076 -0.4796
 6975TIP3    H120847   7.681   2.934   3.344  0.8161 -0.1503 -1.0715
 6975TIP3    H220848   7.667   2.784   3.335  0.3051 -0.1269 -0.7586
 6976TIP3   OH220849   1.042   3.807   0.748 -0.2159  0.4129  0.0755
 6976TIP3    H120850   1.052   3.891   0.793 -2.4395 -0.0698  1.6361
 6976TIP3    H220851   1.101   3.747   0.794  0.9254  0.9322 -0.6595
 6977TIP3   OH220852   5.431   4.079   3.076  0.2178 -0.9366  0.7906
 6977TIP3    H120853   5.514   4.126   3.073 -0.4401  0.2150 -1.1951
 6977TIP3    H220854   5.379   4.126   3.141  0.3107 -0.2356  0.3637
 6978TIP3   OH220855   5.277   2.440   1.279  0.7351 -0.6534  0.4109
 6978TIP3    H120856   5.196   2.437   1.228  0.5292  1.5945  0.5023
 6978TIP3    H220857   5.249   2.449   1.370  1.0546  0.9436  0.3714
 6979TIP3   OH220858   6.716   4.300   4.794  0.1021  0.7872 -0.3813
 6979TIP3    H120859   6.730   4.379   4.847  2.3933  0.0785  0.1856
 6979TIP3    H220860   6.756   4.320   4.710  1.0597  0.1145 -0.0993
 6980TIP3   OH220861   7.216   6.073   2.910  0.1451 -0.2875  0.2361
 6980TIP3    H120862   7.238   6.094   3.001 -0.6547 -0.1512  0.4138
 6980TIP3    H220863   7.248   5.984   2.897 -0.4647 -0.6231  0.9277
 6981TIP3   OH220864   3.796   6.966   2.994  0.0600  0.5893 -0.0252
 6981TIP3    H120865   3.777   6.912   3.070 -0.7965  0.9874  0.0632
 6981TIP3    H220866   3.867   6.921   2.949  0.9121  0.6070  1.2573
 6982TIP3   OH220867   4.660   2.779   6.186 -0.1020 -0.2328  0.0385
 6982TIP3    H120868   4.709   2.858   6.160  0.5779 -0.5222  0.4163
 6982TIP3    H220869   4.595   2.768   6.116  0.7458 -0.1611 -0.7840
 6983TIP3   OH220870   4.715   7.730   2.128  0.2958 -0.1761 -0.2055
 6983TIP3    H120871   4.788   7.709   2.186  0.8458 -0.4440 -0.9777
 6983TIP3    H220872   4.665   7.649   2.121 -0.8287  0.3218  1.3173
 6984TIP3   OH220873   3.689   3.595   4.450  0.5109  0.1652 -1.1845
 6984TIP3    H120874   3.690   3.690   4.435 -0.1674  0.1817 -1.1583
 6984TIP3    H220875   3.733   3.583   4.534 -1.4133  0.6873 -0.0457
 6985TIP3   OH220876   3.801   2.683   0.267  0.0012  0.2224 -0.9499
 6985TIP3    H120877   3.722   2.703   0.317  0.9003  1.5238  0.0107
 6985TIP3    H220878   3.819   2.763   0.218  1.2702  0.3124 -0.3739
 6986TIP3   OH220879   7.212   1.727   1.008  0.3949  0.5456 -0.2706
 6986TIP3    H120880   7.265   1.743   1.086 -1.7093 -0.7817  1.5923
 6986TIP3    H220881   7.241   1.641   0.977  0.3286  0.4712 -0.1283
 6987TIP3   OH220882   3.969   5.008   2.641  0.1488  0.5144  0.0419
 6987TIP3    H120883   4.013   4.989   2.724  1.5615  0.4892 -0.6707
 6987TIP3    H220884   3.941   5.099   2.649  2.3599  1.2939 -0.2707
 6988TIP3   OH220885   6.834   6.890   6.352  0.0609  0.2519  0.0962
 6988TIP3    H120886   6.887   6.916   6.428  1.3431  0.5938 -0.8806
 6988TIP3    H220887   6.898   6.872   6.283 -1.0517 -0.5991 -0.7478
 6989TIP3   OH220888   3.553   2.969   4.064 -0.1601 -0.0274  0.2079
 6989TIP3    H120889   3.556   3.041   4.001  3.2065 -0.8781 -0.8699
 6989TIP3    H220890   3.565   3.011   4.149  1.7745  0.7898 -0.4031
 6990TIP3   OH220891   7.923   6.960   0.306 -0.4121  0.2521  0.0665
 6990TIP3    H120892   7.945   7.030   0.244 -1.1570 -1.6690 -2.5414
 6990TIP3    H220893   7.828   6.957   0.307 -0.4172 -1.6854 -1.1355
 6991TIP3   OH220894   7.557   6.818   1.623 -0.0872 -0.1435 -0.5561
 6991TIP3    H120895   7.470   6.857   1.621 -0.2882 -0.3213  1.7540
 6991TIP3    H220896   7.615   6.886   1.590 -0.9808  0.3370 -1.1659
 6992TIP3   OH220897   2.851   7.317   2.643  0.2944 -0.2262  0.5380
 6992TIP3    H120898   2.765   7.281   2.619  0.3689  0.7766 -1.4360
 6992TIP3    H220899   2.895   7.245   2.689 -1.3683 -0.9483  1.0778
 6993TIP3   OH220900   2.437   5.033   0.503  0.0193  0.0069 -0.4157
 6993TIP3    H120901   2.346   5.062   0.516  0.0311 -0.7068  1.5698
 6993TIP3    H220902   2.430   4.939   0.484  0.3617 -0.1503  0.2189
 6994TIP3   OH220903   7.338   7.109   2.184  0.0845 -0.7862 -0.2015
 6994TIP3    H120904   7.391   7.124   2.106  0.5750 -0.2825  0.2291
 6994TIP3    H220905   7.396   7.064   2.245  0.8043  1.8571  1.1855
 6995TIP3   OH220906   1.628   2.761   6.994 -0.0233 -0.0799 -0.8824
 6995TIP3    H120907   1.552   2.755   7.052 -0.0015 -0.6088 -0.9026
 6995TIP3    H220908   1.592   2.776   6.907 -0.0249  1.5398 -0.6217
 6996TIP3   OH220909   4.379   4.386   2.067 -0.2958 -0.2241 -0.5589
 6996TIP3    H120910   4.382   4.366   1.973  0.3583 -2.8677 -0.0648
 6996TIP3    H220911   4.319   4.459   2.074 -0.3018  0.0997 -3.0456
 6997TIP3   OH220912   1.582   6.739   5.746 -0.0290 -0.2510 -0.3662
 6997TIP3    H120913   1.490   6.718   5.728 -0.1316 -0.9033  0.8078
 6997TIP3    H220914   1.603   6.810   5.686 -1.0643 -0.6389 -1.2176
 6998TIP3   OH220915   1.512   3.068   0.110  0.0367  0.0240  0.7069
 6998TIP3    H120916   1.533   3.009   0.038 -1.7441  1.7075 -1.3261
 6998TIP3    H220917   1.425   3.040   0.140  0.2314  0.1122  1.3863
 6999TIP3   OH220918   6.983   7.187   1.604  0.2903 -0.0941  0.0435
 6999TIP3    H120919   7.006   7.220   1.517 -1.9956  1.3532 -0.0895
 6999TIP3    H220920   6.907   7.239   1.630  1.5020  0.2498  3.3787
 7000TIP3   OH220921   5.725   2.835   1.981  0.2162 -0.0331 -0.3811
 7000TIP3    H120922   5.773   2.902   2.030  2.0702 -1.0784 -0.6674
 7000TIP3    H220923   5.728   2.758   2.037 -2.0491  0.0878  0.0189
 7001TIP3   OH220924   3.500   3.798   5.471  0.2789 -0.0292  0.5109
 7001TIP3    H120925   3.430   3.863   5.479  0.8662  0.6689  0.0876
 7001TIP3    H220926   3.509   3.786   5.376  0.5936 -0.2704  0.5736
 7002TIP3   OH220927   1.173   4.456   1.196 -0.4330  0.4710 -0.6572
 7002TIP3    H120928   1.263   4.441   1.223 -0.3162  2.6226  0.3436
 7002TIP3    H220929   1.158   4.392   1.126  1.3228 -0.9923  0.2138
 7003TIP3   OH220930   8.672   1.495   3.934 -0.0727  0.0882 -0.1228
 7003TIP3    H120931   8.678   1.442   3.855  0.9108 -1.0753  0.6938
 7003TIP3    H220932   8.599   1.456   3.983 -1.0486  1.1614 -0.6964
 7004TIP3   OH220933   6.124   6.733   6.892 -0.1065  0.2912  0.3250
 7004TIP3    H120934   6.176   6.811   6.907  0.1703  0.1045  0.3564
 7004TIP3    H220935   6.188   6.665   6.870 -0.4033  0.2641 -0.5080
 7005TIP3   OH220936   2.878   1.292   7.086 -0.1059 -0.4149  0.0672
 7005TIP3    H120937   2.848   1.254   7.169 -0.2867 -0.2838  0.0648
 7005TIP3    H220938   2.854   1.228   7.020 -0.5113 -0.2496  0.0506
 7006TIP3   OH220939   1.668   2.075   4.378 -0.2362 -0.0999 -0.0727
 7006TIP3    H120940   1.756   2.097   4.410 -0.0510 -0.3764 -0.3823
 7006TIP3    H220941   1.684   2.021   4.300 -0.6676  1.8500 -1.5703
 7007TIP3   OH220942   3.179   3.133   1.703  0.7729  0.1324  0.0653
 7007TIP3    H120943   3.261   3.118   1.750  1.3892 -0.2729 -1.1011
 7007TIP3    H220944   3.204   3.134   1.611 -0.5315  0.0518 -0.3085
 7008TIP3   OH220945   1.722   3.453   2.736 -0.2462  0.2842  0.0523
 7008TIP3    H120946   1.653   3.398   2.698  0.6233  0.9254 -2.6818
 7008TIP3    H220947   1.787   3.391   2.769 -0.3122 -0.3637 -0.9824
 7009TIP3   OH220948   0.647   4.803   0.773 -0.4841  0.0693 -0.2018
 7009TIP3    H120949   0.563   4.773   0.807 -0.3579 -1.0177 -0.8048
 7009TIP3    H220950   0.712   4.745   0.815 -0.1730 -0.0665 -0.8631
 7010TIP3   OH220951   8.631   5.041   5.240  0.3517 -0.4140 -0.9047
 7010TIP3    H120952   8.713   5.060   5.194  0.5577  1.0491 -0.0060
 7010TIP3    H220953   8.638   5.090   5.322 -1.1413 -0.8295 -0.4975
 7011TIP3   OH220954   4.696   1.173   5.407 -0.9219  0.0789 -0.0709
 7011TIP3    H120955   4.650   1.096   5.372  2.1277 -0.8964 -2.3088
 7011TIP3    H220956   4.779   1.139   5.438 -0.1255  2.2684  0.3432
 7012TIP3   OH220957   1.881   2.890   2.722  0.0918  0.0173  0.3308
 7012TIP3    H120958   1.966   2.858   2.750 -0.3417 -0.0825  1.5756
 7012TIP3    H220959   1.828   2.810   2.712 -0.1329  0.1453  0.4998
 7013TIP3   OH220960   0.357   1.527   3.182 -0.0788  0.4068 -0.1406
 7013TIP3    H120961   0.443   1.563   3.161  0.0272  0.2917  0.0953
 7013TIP3    H220962   0.323   1.496   3.098 -0.2640  1.2445 -0.3851
 7014TIP3   OH220963   5.312   0.056   2.596 -0.5421  0.1800  0.1747
 7014TIP3    H120964   5.277  -0.028   2.627 -0.1779  0.8455  2.5842
 7014TIP3    H220965   5.366   0.033   2.520 -0.9613 -1.6641  0.3863
 7015TIP3   OH220966   6.638   0.883   3.382 -0.0163 -0.6049 -0.3520
 7015TIP3    H120967   6.683   0.800   3.368  1.2900  0.1421 -0.7899
 7015TIP3    H220968   6.697   0.933   3.438  1.4827  1.6923 -3.6602
 7016TIP3   OH220969   2.078   5.348   4.872  0.0763 -0.2897 -0.2260
 7016TIP3    H120970   2.037   5.276   4.824 -0.0019  0.2010 -0.8978
 7016TIP3    H220971   2.172   5.340   4.853  0.0532 -0.1342 -0.3962
 7017TIP3   OH220972   3.605   5.356   0.906  0.0840  0.1772 -0.3331
 7017TIP3    H120973   3.552   5.378   0.829 -2.0417 -1.4937  0.5325
 7017TIP3    H220974   3.554   5.389   0.980  0.4625 -1.0492  0.5123
 7018TIP3   OH220975   6.236   1.871   2.737 -0.1188  0.0309 -0.4461
 7018TIP3    H120976   6.257   1.955   2.777  1.0932  1.6102 -3.9570
 7018TIP3    H220977   6.308   1.813   2.762 -0.4201  0.3100  1.1531
 7019TIP3   OH220978   7.224   8.036   5.493  0.3810  0.5840  0.1334
 7019TIP3    H120979   7.150   7.980   5.471  0.5675  0.5502 -0.4240
 7019TIP3    H220980   7.215   8.052   5.586  0.7932 -1.0729  0.4975
 7020TIP3   OH220981   5.142   2.054   3.713 -0.2732  0.7975  0.0743
 7020TIP3    H120982   5.221   2.039   3.661  0.6070 -2.0594  1.9917
 7020TIP3    H220983   5.076   2.083   3.649  1.4670  0.2195 -2.1085
 7021TIP3   OH220984   1.187   2.703   6.318 -0.7049  0.6237 -0.0176
 7021TIP3    H120985   1.196   2.720   6.225 -0.7619 -1.0726 -0.3763
 7021TIP3    H220986   1.133   2.624   6.322 -1.9384  1.4921  1.5088
 7022TIP3   OH220987   3.561   7.805   1.948  0.4009 -0.5246 -0.3045
 7022TIP3    H120988   3.567   7.820   1.854 -0.6086  1.1013 -0.1676
 7022TIP3    H220989   3.626   7.738   1.967  0.3121 -1.1948 -2.2194
 7023TIP3   OH220990   1.813   3.807   5.839 -0.3675 -0.2442 -0.1730
 7023TIP3    H120991   1.780   3.783   5.753 -0.2916 -1.8363  0.2099
 7023TIP3    H220992   1.904   3.778   5.839 -0.2115  0.2309  0.2561
 7024TIP3   OH220993   8.013   7.842   4.125  0.1143 -0.6571 -0.5911
 7024TIP3    H120994   8.037   7.891   4.047  2.6811  1.0292  1.0733
 7024TIP3    H220995   7.928   7.877   4.151  0.7588  1.1881 -0.8512
 7025TIP3   OH220996   1.150   2.840   3.368 -0.2972  0.1718  0.3227
 7025TIP3    H120997   1.055   2.836   3.358 -0.2504 -0.6347  0.1786
 7025TIP3    H220998   1.172   2.766   3.424  0.1239  1.0651  1.3853
 7026TIP3   OH220999   7.666   7.555   0.140 -0.2836  0.2646  0.1552
 7026TIP3    H121000   7.743   7.572   0.085  0.0643 -0.8070  0.2873
 7026TIP3    H221001   7.703   7.526   0.224 -0.7674  2.9324  1.3872
 7027TIP3   OH221002   7.035   6.370   3.371  0.2342  0.3065  0.1853
 7027TIP3    H121003   7.090   6.332   3.303 -0.3096  0.2762 -0.2368
 7027TIP3    H221004   6.964   6.308   3.383 -1.9742  2.1631 -2.1578
 7028TIP3   OH221005   0.650   3.109   3.226  0.4365 -0.0384 -0.3489
 7028TIP3    H121006   0.575   3.051   3.213 -0.0986  0.5024  0.2568
 7028TIP3    H221007   0.619   3.195   3.196  1.0192  0.0660 -0.6666
 7029TIP3   OH221008   6.101   6.551   0.791  0.3687 -0.6619  0.3781
 7029TIP3    H121009   6.030   6.570   0.730  0.5545 -1.8801 -0.2535
 7029TIP3    H221010   6.078   6.466   0.829  0.7035 -0.3302  1.3577
 7030TIP3   OH221011   3.196   4.264   6.912  0.6994 -0.0070  0.0103
 7030TIP3    H121012   3.250   4.198   6.955 -1.6414 -1.6591  0.5931
 7030TIP3    H221013   3.193   4.236   6.820 -2.1886 -2.2356  0.6588
 7031TIP3   OH221014   2.922   4.118   0.203  0.3184  0.5155 -0.3767
 7031TIP3    H121015   3.017   4.127   0.198  0.4584 -1.0176 -1.0934
 7031TIP3    H221016   2.903   4.038   0.155 -1.3312  0.7064 -0.1043
 7032TIP3   OH221017   0.186   7.152   6.537  0.1240  0.6525 -0.2145
 7032TIP3    H121018   0.162   7.061   6.521  0.1584  0.9881 -2.4550
 7032TIP3    H221019   0.252   7.171   6.471 -0.1127  2.4156  0.0164
 7033TIP3   OH221020   5.080   1.056   5.901 -0.8037 -0.0683 -0.2092
 7033TIP3    H121021   5.143   1.126   5.887 -0.9006  0.2390  0.7905
 7033TIP3    H221022   5.085   1.038   5.995 -2.3257  0.1031 -0.0689
 7034TIP3   OH221023   1.046   4.093   6.273 -0.6888 -0.3434 -0.1999
 7034TIP3    H121024   0.985   4.141   6.327 -0.5592 -0.3608 -0.0367
 7034TIP3    H221025   0.991   4.036   6.219 -0.7614 -1.6984  1.2145
 7035TIP3   OH221026   1.557   1.662   5.437  0.1262  0.0703  0.0741
 7035TIP3    H121027   1.612   1.596   5.396 -0.8698 -1.0423  0.4670
 7035TIP3    H221028   1.617   1.734   5.457  1.7816 -1.6311  1.7292
 7036TIP3   OH221029   0.250   4.397   6.548  0.1326 -0.2595 -0.2438
 7036TIP3    H121030   0.173   4.376   6.495 -0.6409 -0.3058  0.8724
 7036TIP3    H221031   0.236   4.352   6.631  0.2986  1.4821  0.7844
 7037TIP3   OH221032   4.127   0.719   5.610 -0.1476 -0.0768  0.6388
 7037TIP3    H121033   4.111   0.703   5.517 -1.9252  1.7631  0.5683
 7037TIP3    H221034   4.090   0.643   5.654 -0.0137 -0.5902 -0.1171
 7038TIP3   OH221035   0.518   6.848   5.698  0.0385 -0.3255  0.8667
 7038TIP3    H121036   0.611   6.858   5.721  0.8927 -0.7532 -2.0809
 7038TIP3    H221037   0.499   6.924   5.643 -0.5694 -1.5638 -0.7079
 7039TIP3   OH221038   0.672   7.452   2.140 -0.4852  0.3075  0.5350
 7039TIP3    H121039   0.611   7.379   2.149  1.2326 -1.3782 -0.6541
 7039TIP3    H221040   0.754   7.418   2.175  0.6645  1.2309 -1.1310
 7040TIP3   OH221041   4.993   2.701   5.737 -0.4117 -0.3214 -0.1647
 7040TIP3    H121042   4.970   2.614   5.771  1.0409 -1.1255 -1.1772
 7040TIP3    H221043   5.030   2.746   5.813 -0.5314 -0.8284  0.2051
 7041TIP3   OH221044   5.583   1.776   3.505  0.2935  0.4036  0.1267
 7041TIP3    H121045   5.671   1.802   3.481  0.0888  1.5211  0.4969
 7041TIP3    H221046   5.526   1.819   3.441  0.0094 -0.1797 -0.0175
 7042TIP3   OH221047   6.338   2.173   6.572  0.1376 -0.1133 -0.1628
 7042TIP3    H121048   6.315   2.252   6.522 -0.4320  0.8899  1.6113
 7042TIP3    H221049   6.387   2.205   6.648 -0.9855 -1.3408  1.1442
 7043TIP3   OH221050   4.410   7.255   1.743  0.3709 -0.4867 -0.1181
 7043TIP3    H121051   4.457   7.317   1.799 -1.3884  1.0489 -0.2527
 7043TIP3    H221052   4.324   7.246   1.784  0.2055 -1.9580 -0.7496
 7044TIP3   OH221053   0.396   5.386   0.497  0.3694 -0.8314 -0.2953
 7044TIP3    H121054   0.348   5.315   0.541 -0.6096  1.1749  2.0767
 7044TIP3    H221055   0.352   5.466   0.526  1.2080  0.8065 -3.1407
 7045TIP3   OH221056   3.233   3.795   6.690 -0.5429  0.0273 -0.0332
 7045TIP3    H121057   3.275   3.709   6.695  2.5220  1.3205 -1.3328
 7045TIP3    H221058   3.186   3.803   6.773 -1.8569 -3.2519 -0.2840
 7046TIP3   OH221059   1.192   3.936   6.792  0.2605 -0.6509 -0.1673
 7046TIP3    H121060   1.282   3.968   6.788  0.2519 -0.6912 -0.9694
 7046TIP3    H221061   1.139   4.014   6.776  0.1584 -0.6406  0.2311
 7047TIP3   OH221062   6.210   1.847   5.173 -0.4439  0.3028 -0.0983
 7047TIP3    H121063   6.239   1.938   5.169  0.5515  0.1027  1.6211
 7047TIP3    H221064   6.122   1.848   5.135  0.0386  1.7362 -1.3019
 7048TIP3   OH221065   0.432   1.823   0.239  0.1859 -0.2411 -0.5756
 7048TIP3    H121066   0.448   1.745   0.293  0.1234 -0.6534 -1.1477
 7048TIP3    H221067   0.343   1.849   0.262  0.2505 -0.2647 -0.2906
 7049TIP3   OH221068   6.040   6.168   2.609  0.0201 -0.0671 -0.0188
 7049TIP3    H121069   6.066   6.110   2.537 -0.4867 -1.0761  0.5907
 7049TIP3    H221070   5.946   6.183   2.597 -0.1767 -0.6490  0.6990
 7050TIP3   OH221071   8.326   0.426   3.835  0.2063 -0.3755  0.2512
 7050TIP3    H121072   8.261   0.463   3.775  0.9178  1.5809  0.6273
 7050TIP3    H221073   8.403   0.409   3.780  0.1328 -0.6041  0.2176
 7051TIP3   OH221074   4.563   7.415   5.055 -0.1898  0.3258  0.0008
 7051TIP3    H121075   4.619   7.414   4.977 -0.5858  0.5259 -0.2894
 7051TIP3    H221076   4.486   7.465   5.029 -1.2942 -1.3632 -0.1425
 7052TIP3   OH221077   3.256   4.782   5.732  0.2641 -0.4256 -0.7943
 7052TIP3    H121078   3.212   4.863   5.705  0.2200 -0.0001  0.5012
 7052TIP3    H221079   3.306   4.755   5.655 -1.1864 -0.1861 -1.8621
 7053TIP3   OH221080   5.230   3.393   4.382 -0.6717 -0.3965  0.5338
 7053TIP3    H121081   5.170   3.331   4.340  0.4487 -0.9172 -0.3356
 7053TIP3    H221082   5.254   3.350   4.464 -0.5112 -0.7658  0.2975
 7054TIP3   OH221083   2.468   1.277   5.100 -0.0350  0.5729 -0.2654
 7054TIP3    H121084   2.560   1.255   5.110 -0.4999 -1.1688  0.4142
 7054TIP3    H221085   2.422   1.193   5.097 -1.7778  1.3828  1.2409
 7055TIP3   OH221086   6.058   4.306   5.841 -0.4443 -0.0930  0.1277
 7055TIP3    H121087   6.147   4.281   5.867 -0.4657  0.0378  0.3354
 7055TIP3    H221088   6.034   4.244   5.773 -0.1279 -0.0217 -0.0494
 7056TIP3   OH221089   6.928   2.085   6.196  0.4403  0.3578  0.0386
 7056TIP3    H121090   7.002   2.086   6.256  0.8824 -0.0347 -0.4949
 7056TIP3    H221091   6.963   2.051   6.114 -0.1952  0.7265 -0.3990
 7057TIP3   OH221092   2.522   5.605   6.353  0.1455  0.1122 -0.0304
 7057TIP3    H121093   2.517   5.600   6.449  1.7605 -1.1315  0.0325
 7057TIP3    H221094   2.565   5.689   6.336 -1.3664  0.9795  0.2403
 7058TIP3   OH221095   7.995   3.413   2.941 -0.0246  0.0592 -0.2423
 7058TIP3    H121096   8.058   3.468   2.987  0.2694  0.8374 -1.5129
 7058TIP3    H221097   7.910   3.454   2.957 -0.2740 -1.0559  1.5680
 7059TIP3   OH221098   3.084   6.550   2.207 -0.2221 -0.1357 -0.2863
 7059TIP3    H121099   3.010   6.569   2.150 -0.8157  1.0164  0.7999
 7059TIP3    H221100   3.078   6.456   2.225 -0.1857 -0.4581 -1.8390
 7060TIP3   OH221101   8.064   1.094   0.446  0.5611  0.1849  0.0346
 7060TIP3    H121102   8.007   1.123   0.518 -0.8684 -0.4635 -0.7810
 7060TIP3    H221103   8.037   1.004   0.429  0.9564  0.2798 -1.2073
 7061TIP3   OH221104   8.344   4.480   1.718 -0.0062  0.2863  0.1795
 7061TIP3    H121105   8.359   4.480   1.624 -0.5974 -0.7556  0.0738
 7061TIP3    H221106   8.280   4.410   1.733 -0.7952  1.1767  1.2132
 7062TIP3   OH221107   5.191   2.799   1.139  0.1661  0.1205  0.0088
 7062TIP3    H121108   5.165   2.881   1.181 -1.0818 -0.2374 -0.0060
 7062TIP3    H221109   5.141   2.732   1.185  0.0850 -0.4735 -0.9135
 7063TIP3   OH221110   3.039   4.940   6.614 -0.3591 -0.3990 -0.3931
 7063TIP3    H121111   3.127   4.959   6.580 -0.2570 -0.9547 -0.4546
 7063TIP3    H221112   3.049   4.942   6.709 -0.9559  2.6135 -0.2989
 7064TIP3   OH221113   0.677   2.603   4.682 -0.5480 -0.1292  0.4092
 7064TIP3    H121114   0.759   2.636   4.644 -0.8405  1.1579  0.8650
 7064TIP3    H221115   0.613   2.672   4.665 -1.2156 -0.5228  1.2723
 7065TIP3   OH221116   0.083   1.578   1.406  0.0299 -0.3388  0.5051
 7065TIP3    H121117   0.110   1.668   1.388  1.5510 -0.3861  2.1856
 7065TIP3    H221118   0.112   1.528   1.330  0.6542  0.3485  0.2797
 7066TIP3   OH221119   2.806   4.876   3.511  0.2273 -0.5733 -0.4836
 7066TIP3    H121120   2.898   4.875   3.485  0.2309 -0.1530 -0.4916
 7066TIP3    H221121   2.765   4.809   3.456  0.5657 -0.9061 -0.3303
 7067TIP3   OH221122   4.355   4.205   2.923  0.5039 -0.5172  0.0272
 7067TIP3    H121123   4.393   4.161   2.848  0.4140 -2.2825  0.9660
 7067TIP3    H221124   4.277   4.154   2.944 -0.0891  0.6050  0.6435
 7068TIP3   OH221125   0.206   6.622   0.688  0.7746 -0.4508  0.4252
 7068TIP3    H121126   0.211   6.529   0.711  0.7241  0.0581  2.6786
 7068TIP3    H221127   0.205   6.668   0.772 -0.8668  1.5191 -0.5881
 7069TIP3   OH221128   6.881   5.433   0.203  0.2834 -0.2021  0.3372
 7069TIP3    H121129   6.921   5.375   0.268 -0.0089  1.8987  2.5593
 7069TIP3    H221130   6.803   5.468   0.247 -1.4419 -0.6367 -2.1559
 7070TIP3   OH221131   3.174   7.127   3.732  0.1500 -0.0262 -0.4512
 7070TIP3    H121132   3.192   7.085   3.648  1.5054 -0.0475 -0.1662
 7070TIP3    H221133   3.195   7.220   3.717 -0.3837  0.1132 -0.3584
 7071TIP3   OH221134   6.643   6.396   7.040  0.5992  0.2258  0.4004
 7071TIP3    H121135   6.705   6.391   7.112  0.6417 -1.5866  0.3007
 7071TIP3    H221136   6.695   6.376   6.962  0.2237  0.4328  0.0910
 7072TIP3   OH221137   8.383   5.192   4.275  0.7092  0.0804 -0.6686
 7072TIP3    H121138   8.368   5.126   4.343 -0.2871  0.5549 -0.4173
 7072TIP3    H221139   8.318   5.173   4.208  0.4246  0.7883 -0.6002
 7073TIP3   OH221140   3.994   5.368   6.861  1.2758 -0.6481  0.0887
 7073TIP3    H121141   3.934   5.419   6.807  0.3591 -0.2601  1.4042
 7073TIP3    H221142   4.022   5.295   6.805 -0.5928 -0.9521 -0.5152
 7074TIP3   OH221143   6.237   6.930   7.036 -0.5156 -0.2322 -0.2648
 7074TIP3    H121144   6.303   6.977   7.086  0.4720 -0.6451 -1.1423
 7074TIP3    H221145   6.155   6.976   7.056  0.0813  0.5151  0.5625
 7075TIP3   OH221146   2.692   2.548   4.503 -0.3500 -0.4507  0.2632
 7075TIP3    H121147   2.758   2.511   4.562  1.3416  2.3716  0.3078
 7075TIP3    H221148   2.624   2.582   4.560  0.0040 -0.0381  0.4413
 7076TIP3   OH221149   8.538   1.665   5.190  0.0457  0.4178  0.5718
 7076TIP3    H121150   8.511   1.652   5.280  1.4824  1.0580  1.1211
 7076TIP3    H221151   8.611   1.604   5.177 -1.4708 -1.2042 -0.8349
 7077TIP3   OH221152   1.599   4.940   3.949  0.7372  0.0572 -0.0681
 7077TIP3    H121153   1.652   4.963   3.873  0.8616  0.8333  0.2440
 7077TIP3    H221154   1.650   4.874   3.995 -0.3279 -2.1090 -1.8048
 7078TIP3   OH221155   5.977   3.996   5.173 -0.1069 -0.6673 -0.3412
 7078TIP3    H121156   6.010   3.946   5.099  1.0675 -0.2675 -0.0996
 7078TIP3    H221157   5.886   4.015   5.150  0.8453  1.5559 -2.8730
 7079TIP3   OH221158   6.129   0.388   5.555 -0.4523  0.5029 -0.2417
 7079TIP3    H121159   6.217   0.374   5.521 -0.4828 -1.2851  0.3357
 7079TIP3    H221160   6.110   0.310   5.606 -3.0858 -0.0483 -1.8567
 7080TIP3   OH221161   4.300   3.938   7.062  0.0043 -0.7294  0.0368
 7080TIP3    H121162   4.300   3.898   6.976  0.2935 -0.2291 -0.2012
 7080TIP3    H221163   4.207   3.949   7.084 -0.1138  1.3665 -1.2776
 7081TIP3   OH221164   4.628   6.891   3.338  0.3761 -0.0627 -0.2940
 7081TIP3    H121165   4.554   6.839   3.370  0.0925  0.1850 -0.5269
 7081TIP3    H221166   4.675   6.918   3.416 -0.5138  0.8390 -0.0366
 7082TIP3   OH221167   6.083   3.013   6.553  0.0955 -0.2032  0.2252
 7082TIP3    H121168   6.130   2.969   6.482 -1.2712 -0.4377 -0.5554
 7082TIP3    H221169   6.032   2.943   6.594  0.3233  0.0734  0.9934
 7083TIP3   OH221170   3.692   3.817   6.146 -0.4011 -0.2163  0.4244
 7083TIP3    H121171   3.706   3.912   6.146 -0.4980 -0.1876 -0.8448
 7083TIP3    H221172   3.703   3.792   6.237  0.4262  0.9007  0.6599
 7084TIP3   OH221173   2.223   0.182   4.573  0.0922  0.1973 -0.3109
 7084TIP3    H121174   2.282   0.149   4.640 -1.8545 -0.5156  1.1239
 7084TIP3    H221175   2.279   0.196   4.497  2.1228 -0.2512  1.0349
 7085TIP3   OH221176   3.991   3.201   2.639  0.0640  0.4500  0.3185
 7085TIP3    H121177   3.964   3.148   2.564  2.3935 -0.0356 -0.2400
 7085TIP3    H221178   3.918   3.262   2.652 -2.0504 -1.8572  0.0646
 7086TIP3   OH221179   3.885   6.933   4.365 -0.5314  0.1111  0.2672
 7086TIP3    H121180   3.899   7.026   4.346 -2.2978  0.5882  1.0622
 7086TIP3    H221181   3.973   6.898   4.380  0.0939  1.9509  1.2092
 7087TIP3   OH221182   7.201   5.117   2.918  0.5717  0.0059 -0.0656
 7087TIP3    H121183   7.157   5.068   2.849  1.5105  0.4437 -1.0100
 7087TIP3    H221184   7.294   5.096   2.907  0.9446  1.5352 -0.1500
 7088TIP3   OH221185   5.361   3.667   3.850 -0.1817 -0.2105 -0.8345
 7088TIP3    H121186   5.388   3.580   3.820 -0.4012  0.6819 -3.9361
 7088TIP3    H221187   5.267   3.658   3.867  0.1006 -0.9302  0.5631
 7089TIP3   OH221188   1.707   6.196   1.150  0.2007 -0.1062 -0.5746
 7089TIP3    H121189   1.688   6.104   1.134  2.1001 -0.7246  0.3576
 7089TIP3    H221190   1.722   6.233   1.063  0.1888 -0.8848 -0.9152
 7090TIP3   OH221191   7.042   4.906   5.294  0.1526 -0.5184 -0.1205
 7090TIP3    H121192   7.032   4.950   5.378  0.0079 -1.5337  0.4134
 7090TIP3    H221193   6.987   4.828   5.302 -2.9535  1.1887 -2.5219
 7091TIP3   OH221194   5.016   0.555   3.711 -0.3178 -0.1481  0.2644
 7091TIP3    H121195   4.967   0.503   3.775 -0.2480  0.0129  0.4524
 7091TIP3    H221196   5.024   0.498   3.635 -0.0028 -0.5222  0.5691
 7092TIP3   OH221197   4.248   0.426   0.668  0.2360 -0.0519 -0.4368
 7092TIP3    H121198   4.156   0.399   0.658  0.4732 -0.6484 -1.0649
 7092TIP3    H221199   4.289   0.352   0.713  0.3947  0.2509 -0.0821
 7093TIP3   OH221200   2.860   5.422   1.560 -0.0497 -0.1390  0.1650
 7093TIP3    H121201   2.890   5.400   1.472  0.4406 -0.7667  0.4732
 7093TIP3    H221202   2.768   5.398   1.561 -0.0931  0.0183 -0.2282
 7094TIP3   OH221203   7.158   4.041   3.673 -0.1487 -0.3306 -0.8241
 7094TIP3    H121204   7.234   4.024   3.618  0.4527  0.4379 -0.2569
 7094TIP3    H221205   7.165   3.977   3.744 -0.5628 -0.8860 -1.2742
 7095TIP3   OH221206   3.787   0.119   0.970  0.4047 -0.3824  0.0845
 7095TIP3    H121207   3.823   0.156   1.051 -0.7293 -0.4124  0.6234
 7095TIP3    H221208   3.823   0.030   0.968 -0.5875 -0.8470  1.2770
 7096TIP3   OH221209   8.041   3.626   6.581  0.2606 -0.5379  0.3028
 7096TIP3    H121210   8.001   3.567   6.516  0.0731  0.3011 -0.3684
 7096TIP3    H221211   7.967   3.660   6.631  0.3950 -1.0890  0.8945
 7097TIP3   OH221212   8.063   7.514   4.918 -0.0640  0.1923 -0.5435
 7097TIP3    H121213   8.136   7.458   4.890  0.0011  0.6266 -1.2581
 7097TIP3    H221214   8.001   7.510   4.846 -0.2736  0.6619 -0.3917
 7098TIP3   OH221215   7.316   7.753   6.788 -0.3231  0.2265 -0.3611
 7098TIP3    H121216   7.371   7.804   6.728  0.2938 -0.8606 -0.7531
 7098TIP3    H221217   7.358   7.762   6.873 -0.5653  0.8697 -0.3088
 7099TIP3   OH221218   5.966   3.770   2.768 -0.6987 -0.0533  0.3663
 7099TIP3    H121219   6.043   3.722   2.738 -2.1506 -2.0100 -0.4374
 7099TIP3    H221220   5.967   3.761   2.863  0.1055  0.0525  0.3753
 7100TIP3   OH221221   4.852   5.592   4.272  0.4970  0.9072 -0.8314
 7100TIP3    H121222   4.939   5.628   4.290  0.6360 -0.5104  1.7669
 7100TIP3    H221223   4.817   5.568   4.358 -2.2196  0.8145 -1.8585
 7101TIP3   OH221224   0.983   5.657   2.306  0.0484  0.6662  0.2665
 7101TIP3    H121225   0.949   5.711   2.235  1.5352  0.3212 -0.7517
 7101TIP3    H221226   0.957   5.568   2.283 -0.2717  0.6571  0.6515
 7102TIP3   OH221227   1.740   7.180   2.125 -0.4478  0.0464 -0.9004
 7102TIP3    H121228   1.689   7.251   2.086  0.4242  1.3150  0.1601
 7102TIP3    H221229   1.830   7.213   2.127  0.4607 -2.1071 -2.6383
 7103TIP3   OH221230   4.759   2.884   2.705  0.3070  0.1393 -0.4343
 7103TIP3    H121231   4.770   2.952   2.639  0.8258 -1.5181 -2.1796
 7103TIP3    H221232   4.719   2.811   2.657 -1.3719 -0.3842  1.6410
 7104TIP3   OH221233   7.706   3.586   0.424  0.0516 -0.4209 -0.0427
 7104TIP3    H121234   7.674   3.497   0.444  2.3088 -1.6137 -1.4160
 7104TIP3    H221235   7.664   3.608   0.341 -0.3853 -0.2231  0.2211
 7105TIP3   OH221236   8.449   6.260   6.796 -0.3848  0.1269  0.0438
 7105TIP3    H121237   8.497   6.184   6.762 -0.6206 -0.4509  0.9625
 7105TIP3    H221238   8.381   6.277   6.731 -0.4640 -0.5921 -0.0675
 7106TIP3   OH221239   1.947   0.825   5.841 -0.3596 -0.2054 -0.4415
 7106TIP3    H121240   1.959   0.902   5.896 -1.1113  0.5584 -1.3143
 7106TIP3    H221241   1.993   0.755   5.887  0.5343  0.8089  0.2622
 7107TIP3   OH221242   4.042   4.649   5.622  0.3478  0.7132 -0.5484
 7107TIP3    H121243   4.075   4.729   5.665 -0.8691  0.9945 -0.1035
 7107TIP3    H221244   3.980   4.681   5.557 -0.5736  0.1232  0.0151
 7108TIP3   OH221245   5.806   2.642   0.829  0.0939  0.3926 -0.1862
 7108TIP3    H121246   5.814   2.597   0.745 -0.6580  0.8158 -0.4956
 7108TIP3    H221247   5.742   2.711   0.813  0.2827  0.7641  0.6198
 7109TIP3   OH221248   1.302   5.844   3.633 -0.1286  0.2258  0.1898
 7109TIP3    H121249   1.235   5.798   3.684  0.4560  0.1416  0.9126
 7109TIP3    H221250   1.255   5.913   3.587 -0.4943  1.2299  1.9730
 7110TIP3   OH221251   5.014   6.477   0.625  0.7086 -0.6357  0.2075
 7110TIP3    H121252   5.031   6.452   0.535  1.4757 -1.1587  0.4955
 7110TIP3    H221253   4.923   6.450   0.640  0.5555 -0.4928 -0.4162
 7111TIP3   OH221254   0.092   5.730   4.793 -0.1873  0.3541  0.1646
 7111TIP3    H121255   0.046   5.726   4.709 -2.8596  1.8609  1.4206
 7111TIP3    H221256   0.058   5.809   4.835  0.3712 -0.8173  3.0558
 7112TIP3   OH221257   5.686   1.539   1.085  0.1921 -0.2158  0.0029
 7112TIP3    H121258   5.729   1.619   1.117 -0.8866  0.0842  0.7841
 7112TIP3    H221259   5.682   1.550   0.990 -1.1373  1.3264  0.1873
 7113TIP3   OH221260   2.493   5.440   0.425 -0.0921 -0.2632 -0.3059
 7113TIP3    H121261   2.462   5.529   0.408 -0.9370 -0.5294 -0.1889
 7113TIP3    H221262   2.482   5.429   0.520 -0.3343 -0.6228 -0.3750
 7114TIP3   OH221263   5.299   7.588   2.187 -0.4379 -0.3991  0.2228
 7114TIP3    H121264   5.387   7.602   2.222  0.1764 -2.2732 -0.4559
 7114TIP3    H221265   5.299   7.633   2.103 -0.6076  0.7543  0.8183
 7115TIP3   OH221266   5.394   2.360   4.012 -0.7383  0.3471  0.6779
 7115TIP3    H121267   5.320   2.351   3.952  0.1493 -0.2222 -0.3659
 7115TIP3    H221268   5.416   2.453   4.011  0.3431  0.1286 -1.2663
 7116TIP3   OH221269   6.202   6.578   2.926 -0.5218 -0.4189  0.4595
 7116TIP3    H121270   6.168   6.526   2.854 -3.0739  1.1683  0.4144
 7116TIP3    H221271   6.210   6.667   2.891 -2.8047  0.6135  2.3175
 7117TIP3   OH221272   1.472   4.371   3.714 -0.9980  0.5125 -0.4489
 7117TIP3    H121273   1.503   4.460   3.729  0.5800 -0.1464  0.3934
 7117TIP3    H221274   1.487   4.355   3.621 -1.0563  1.0372 -0.5489
 7118TIP3   OH221275   8.234   2.495   4.547 -0.4435  0.1004 -0.3585
 7118TIP3    H121276   8.205   2.428   4.609  1.0267  0.2164  0.5006
 7118TIP3    H221277   8.163   2.501   4.483 -0.8545 -1.8570 -0.1434
 7119TIP3   OH221278   1.831   3.293   3.824  0.0343  0.0988  0.1461
 7119TIP3    H121279   1.862   3.375   3.785  1.3301 -0.4022  0.0609
 7119TIP3    H221280   1.858   3.299   3.916  0.2395 -0.2757  0.1125
 7120TIP3   OH221281   6.876   3.791   0.392 -0.1604  0.5839  0.2672
 7120TIP3    H121282   6.928   3.732   0.337  0.5780 -0.0719  1.6252
 7120TIP3    H221283   6.818   3.733   0.441 -1.8570  1.2691 -0.8454
 7121TIP3   OH221284   0.031   4.984   3.036  0.3080 -0.5817 -0.2279
 7121TIP3    H121285  -0.016   4.957   3.115  1.4836  0.1908  0.7681
 7121TIP3    H221286   0.020   5.079   3.033  2.1599 -0.3123  0.3016
 7122TIP3   OH221287   4.490   7.151   2.513  0.2204  1.0902 -0.0120
 7122TIP3    H121288   4.480   7.062   2.479  1.0508  0.5262  1.1507
 7122TIP3    H221289   4.433   7.204   2.458 -1.6734 -0.4257  0.3594
 7123TIP3   OH221290   8.007   2.388   1.069  0.5672  0.1716 -0.1314
 7123TIP3    H121291   8.040   2.299   1.057 -1.1122 -0.2827 -1.9295
 7123TIP3    H221292   7.918   2.376   1.103  0.8397  1.2330  1.0196
 7124TIP3   OH221293   0.306   4.143   3.136 -0.2171 -0.0314 -0.0679
 7124TIP3    H121294   0.227   4.194   3.152 -0.0731  0.1813 -0.0266
 7124TIP3    H221295   0.277   4.052   3.139 -0.3262  0.0186  0.6921
 7125TIP3   OH221296   1.436   4.868   5.960 -0.0977 -0.3336  0.2025
 7125TIP3    H121297   1.513   4.912   5.996 -1.4703  1.0634  1.5590
 7125TIP3    H221298   1.434   4.783   6.004 -0.8140  0.7015  2.2771
 7126TIP3   OH221299   1.874   1.550   1.001  0.4275  0.3948  0.2727
 7126TIP3    H121300   1.892   1.479   1.062  2.1534 -0.2109 -0.8693
 7126TIP3    H221301   1.926   1.529   0.923  0.3307  2.4776 -0.4225
 7127TIP3   OH221302   8.168   1.446   5.258 -0.4208  0.5248 -0.2427
 7127TIP3    H121303   8.182   1.535   5.227 -2.6095  0.7396 -0.7926
 7127TIP3    H221304   8.128   1.400   5.184 -0.4209 -0.5708  0.4074
 7128TIP3   OH221305   1.479   2.219   5.707 -0.2981 -0.0544  0.0370
 7128TIP3    H121306   1.419   2.145   5.716 -3.3173  2.0828 -0.8836
 7128TIP3    H221307   1.496   2.224   5.613  1.0878 -0.4166  0.2539
 7129TIP3   OH221308   6.179   5.140   3.216 -0.2338 -0.2594 -0.0384
 7129TIP3    H121309   6.201   5.147   3.123  1.1460  1.4147  0.3689
 7129TIP3    H221310   6.262   5.117   3.258 -0.6135  0.0198  0.8839
 7130TIP3   OH221311   4.334   5.775   7.024 -0.2653  0.1212  0.0359
 7130TIP3    H121312   4.287   5.696   7.050 -1.0745  0.7624  0.5919
 7130TIP3    H221313   4.267   5.844   7.024 -0.2785  0.3029 -3.3128
 7131TIP3   OH221314   2.631   1.769   1.738  0.0760 -0.3803 -0.0913
 7131TIP3    H121315   2.574   1.845   1.753  0.3427  0.1455 -1.5101
 7131TIP3    H221316   2.588   1.697   1.783 -2.1802 -0.1924 -1.7357
 7132TIP3   OH221317   1.311   6.481   3.094  0.2213 -0.0408 -0.1004
 7132TIP3    H121318   1.243   6.475   3.161  2.1271 -2.5947  1.8040
 7132TIP3    H221319   1.349   6.568   3.107  0.1885 -0.2607  1.8763
 7133TIP3   OH221320   1.801   3.075   2.533  0.1454 -0.3456  0.3426
 7133TIP3    H121321   1.845   3.159   2.538  1.6920 -0.9998 -1.2903
 7133TIP3    H221322   1.815   3.035   2.619  0.7939  0.3970  0.5847
 7134TIP3   OH221323   7.953   5.112   1.251 -0.3575  0.0962 -0.1756
 7134TIP3    H121324   7.922   5.089   1.163 -0.4222 -2.3138  0.4157
 7134TIP3    H221325   8.049   5.108   1.245 -0.3612 -0.0457 -0.1321
 7135TIP3   OH221326   7.341   0.570   2.505 -0.2553  0.1798  0.0669
 7135TIP3    H121327   7.402   0.629   2.461 -1.1702  0.7959 -0.4063
 7135TIP3    H221328   7.390   0.488   2.516  0.2097  0.2161 -1.5171
 7136TIP3   OH221329   2.111   4.038   0.101 -0.4183  0.0063  0.1508
 7136TIP3    H121330   2.196   4.004   0.072  0.2420  0.2260  1.7266
 7136TIP3    H221331   2.056   3.960   0.111  0.4091 -0.4254  1.5980
 7137TIP3   OH221332   2.383   1.936   5.799 -0.4068  0.1779 -0.1556
 7137TIP3    H121333   2.324   1.869   5.833 -1.2031  0.8794 -0.1142
 7137TIP3    H221334   2.348   2.019   5.833  0.3940  0.6483 -0.4232
 7138TIP3   OH221335   5.410   1.010   6.091  0.7065 -0.0463  0.4030
 7138TIP3    H121336   5.372   0.944   6.034  0.8473 -1.0464  1.4218
 7138TIP3    H221337   5.505   0.996   6.084  0.7588  0.3771  0.2455
 7139TIP3   OH221338   3.789   7.300   2.125 -0.2175  0.0086  0.0941
 7139TIP3    H121339   3.766   7.248   2.202  0.6475  0.3415  0.5903
 7139TIP3    H221340   3.782   7.239   2.052 -0.6996 -0.4053  0.4737
 7140TIP3   OH221341   0.088   3.129   4.267 -0.5668 -0.6013 -0.6023
 7140TIP3    H121342   0.013   3.085   4.307 -1.1180 -0.7092 -1.7105
 7140TIP3    H221343   0.099   3.210   4.317  0.6713 -2.0796  1.7064
 7141TIP3   OH221344   6.549   7.249   6.473 -0.1264  0.2592  0.2220
 7141TIP3    H121345   6.620   7.255   6.409  0.5938  0.3563  1.0129
 7141TIP3    H221346   6.469   7.258   6.421  0.3177 -2.0236 -1.0023
 7142TIP3   OH221347   2.279   4.612   4.313  0.4940 -0.0201 -0.4417
 7142TIP3    H121348   2.216   4.542   4.330  0.3378  0.3970  0.7658
 7142TIP3    H221349   2.276   4.667   4.391  0.5445  1.4032 -1.4102
 7143TIP3   OH221350   1.681   5.769   4.065 -0.0135  0.1485  0.3292
 7143TIP3    H121351   1.739   5.845   4.063  1.7875 -1.0895  2.1367
 7143TIP3    H221352   1.684   5.735   3.975 -0.2499  1.7018 -0.3140
 7144TIP3   OH221353   1.722   0.941   2.683  0.1086 -0.1078  0.0185
 7144TIP3    H121354   1.691   0.912   2.769 -0.6095  3.4040  1.0917
 7144TIP3    H221355   1.667   0.894   2.620  0.3676 -2.4292  1.4139
 7145TIP3   OH221356   3.358  -0.004   1.107  0.1179 -0.5289  0.0968
 7145TIP3    H121357   3.407   0.031   1.182  0.9250 -1.2302 -0.0903
 7145TIP3    H221358   3.372   0.060   1.037 -1.3160  0.5557  0.7542
 7146TIP3   OH221359   5.146   0.479   0.901  0.5205 -0.5114 -0.0296
 7146TIP3    H121360   5.080   0.410   0.910  1.4906 -1.3444  0.9278
 7146TIP3    H221361   5.100   0.560   0.925 -0.9394 -0.6121 -2.2444
 7147TIP3   OH221362   6.005   7.845   6.659  0.2134 -0.1234  0.7422
 7147TIP3    H121363   5.925   7.894   6.642  0.2528 -0.2400  0.1971
 7147TIP3    H221364   5.976   7.762   6.697 -0.2102 -1.6558 -2.6160
 7148TIP3   OH221365   5.235   0.743   1.039 -0.7495 -0.1297 -0.2788
 7148TIP3    H121366   5.307   0.680   1.037 -0.1342  0.4813  0.8529
 7148TIP3    H221367   5.278   0.827   1.055 -1.4190  0.8376 -3.0071
 7149TIP3   OH221368   0.272   1.013   5.115 -0.2885  0.1703 -0.1419
 7149TIP3    H121369   0.294   0.920   5.116 -2.4626 -0.4199  1.3487
 7149TIP3    H221370   0.318   1.048   5.039 -0.5390 -2.4315 -1.6082
 7150TIP3   OH221371   4.821   7.353   2.087 -0.1838  0.6871 -0.5692
 7150TIP3    H121372   4.777   7.355   2.172 -0.7482  1.0014 -0.8612
 7150TIP3    H221373   4.903   7.400   2.102 -1.6509  3.6018 -0.9247
 7151TIP3   OH221374   6.581   4.815   4.383 -0.0201  0.2535  0.8506
 7151TIP3    H121375   6.632   4.734   4.382  1.0942  0.9399  0.2311
 7151TIP3    H221376   6.507   4.798   4.325 -0.8812 -0.9645  2.2307
 7152TIP3   OH221377   7.395   2.676   3.781 -0.2523  0.2183  0.6583
 7152TIP3    H121378   7.482   2.711   3.762  1.4436 -1.9418  3.6292
 7152TIP3    H221379   7.375   2.619   3.706  2.0516 -1.1458  0.9826
 7153TIP3   OH221380   0.377   4.094   1.037  0.5863 -0.8273 -0.4887
 7153TIP3    H121381   0.299   4.142   1.063  2.0627  1.5137 -0.1337
 7153TIP3    H221382   0.392   4.121   0.946  1.3456 -0.7754 -0.3497
 7154TIP3   OH221383   4.541   5.747   0.860  0.0027  0.0599 -0.3859
 7154TIP3    H121384   4.454   5.787   0.851  0.9769  2.4646  0.3414
 7154TIP3    H221385   4.570   5.734   0.769 -0.4471  0.8074 -0.6495
 7155TIP3   OH221386   4.252   3.189   2.001 -0.1103 -0.0967  0.3411
 7155TIP3    H121387   4.220   3.251   1.936 -0.9953 -0.1613  0.6902
 7155TIP3    H221388   4.195   3.204   2.077 -2.2524 -3.1923 -0.4535
 7156TIP3   OH221389   1.721   3.735   2.789  0.6239  0.0199 -0.3026
 7156TIP3    H121390   1.705   3.747   2.882  2.0669 -1.2551  0.1396
 7156TIP3    H221391   1.730   3.641   2.777  1.6054  0.2306 -1.5233
 7157TIP3   OH221392   8.523   2.537   5.291 -0.2268 -0.1688  0.2720
 7157TIP3    H121393   8.613   2.567   5.301  0.3074 -1.7805  0.7162
 7157TIP3    H221394   8.481   2.558   5.375  0.4731 -1.6275  1.0318
 7158TIP3   OH221395   2.058   0.268   2.895 -0.5725  0.1369 -0.4960
 7158TIP3    H121396   1.992   0.336   2.879 -1.3946 -0.5112  0.0387
 7158TIP3    H221397   2.137   0.300   2.852 -1.2692  0.8832 -1.2492
 7159TIP3   OH221398   5.689   5.499   3.932  0.1507  0.3198  0.1536
 7159TIP3    H121399   5.598   5.479   3.912  0.3025 -0.7498  0.5165
 7159TIP3    H221400   5.728   5.416   3.957  1.7092  0.3941 -1.7859
 7160TIP3   OH221401   4.373   1.160   0.458 -0.3565  0.2417 -0.3549
 7160TIP3    H121402   4.457   1.159   0.412 -0.4092  0.1678 -0.4523
 7160TIP3    H221403   4.360   1.251   0.482  0.2246  0.0933  0.5528
 7161TIP3   OH221404   8.396   2.126   0.098  0.3171 -0.7405  0.3418
 7161TIP3    H121405   8.463   2.185   0.063 -0.3180  2.0116  3.2543
 7161TIP3    H221406   8.445   2.054   0.136  1.7309  1.0675  2.1500
 7162TIP3   OH221407   7.017   2.010   5.446 -0.2476 -0.1962 -0.0216
 7162TIP3    H121408   7.108   2.038   5.436 -0.2271 -0.2959 -0.1142
 7162TIP3    H221409   7.022   1.914   5.451  0.0032 -0.1140  3.5382
 7163TIP3   OH221410   1.670   5.906   2.014  0.1772 -0.3429 -0.4454
 7163TIP3    H121411   1.694   5.946   2.098  0.2584 -0.9518 -0.1708
 7163TIP3    H221412   1.690   5.813   2.026 -0.9560 -0.6311 -0.7188
 7164TIP3   OH221413   4.578   2.093   0.529 -0.9797  0.6107 -0.1516
 7164TIP3    H121414   4.619   2.178   0.515 -1.3657  0.8533  0.1611
 7164TIP3    H221415   4.539   2.099   0.617  1.1373 -0.7383  0.9773
 7165TIP3   OH221416   8.314   3.418   4.573 -0.4157 -0.3011  0.1524
 7165TIP3    H121417   8.234   3.466   4.595  0.2519  1.4005 -0.8614
 7165TIP3    H221418   8.323   3.431   4.478  0.1481 -1.9483 -0.0400
 7166TIP3   OH221419   2.375   3.511   0.232  0.2052  0.1123 -0.0860
 7166TIP3    H121420   2.319   3.457   0.289  0.5521  0.5905  0.7301
 7166TIP3    H221421   2.319   3.533   0.158 -0.2208 -0.6324  0.0025
 7167TIP3   OH221422   0.052   2.013   5.861  0.8193 -0.2716 -0.5133
 7167TIP3    H121423  -0.008   1.986   5.931  0.7056 -0.0272 -0.5144
 7167TIP3    H221424   0.138   2.014   5.901  0.6210  0.9223 -0.0761
 7168TIP3   OH221425   2.135   7.624   6.385 -0.1556 -0.5435  0.0478
 7168TIP3    H121426   2.216   7.675   6.389  0.1442 -1.0382  0.5365
 7168TIP3    H221427   2.088   7.649   6.465 -0.7201  0.1166 -0.4841
 7169TIP3   OH221428   5.742   7.350   5.238 -0.3013  0.2092 -0.1825
 7169TIP3    H121429   5.737   7.438   5.275 -1.0974 -0.2663  0.8736
 7169TIP3    H221430   5.806   7.358   5.167 -0.9516  1.8153 -0.6282
 7170TIP3   OH221431   5.454   3.313   5.745 -0.0107  0.7767 -0.0869
 7170TIP3    H121432   5.462   3.323   5.840  0.3810  0.7846 -0.1195
 7170TIP3    H221433   5.544   3.321   5.712  0.0677 -0.7633 -0.3061
 7171TIP3   OH221434   6.567   5.547   4.003  0.0100  0.2236 -0.4075
 7171TIP3    H121435   6.630   5.586   3.943 -2.2319 -0.2486 -3.3287
 7171TIP3    H221436   6.579   5.452   3.993 -0.7632  0.1354 -0.5812
 7172TIP3   OH221437   3.701   3.451   0.450  0.0735  0.1588  0.7740
 7172TIP3    H121438   3.623   3.477   0.400  1.0186 -0.1960 -0.9546
 7172TIP3    H221439   3.693   3.356   0.458  0.8524 -0.0124 -0.3595
 7173TIP3   OH221440   0.284   7.059   4.761 -0.1698 -0.3909  0.3196
 7173TIP3    H121441   0.211   7.104   4.719  0.9573  0.7284 -0.5157
 7173TIP3    H221442   0.313   6.995   4.696  0.1721 -0.1953  0.2769
 7174TIP3   OH221443   8.252   5.652   1.795 -1.1501  0.1563 -0.2229
 7174TIP3    H121444   8.171   5.671   1.747 -1.6386 -1.1157  0.0500
 7174TIP3    H221445   8.225   5.646   1.886 -0.2353  2.4796  0.2488
 7175TIP3   OH221446   0.518   7.308   2.360  0.1532  0.3078  0.2372
 7175TIP3    H121447   0.518   7.365   2.437 -0.9064  1.0208 -0.2645
 7175TIP3    H221448   0.431   7.268   2.360  0.4926 -0.4480 -0.0437
 7176TIP3   OH221449   6.364   5.920   1.280 -0.6098 -0.1843 -0.2166
 7176TIP3    H121450   6.301   5.967   1.333 -0.6025  1.0929 -1.2811
 7176TIP3    H221451   6.314   5.850   1.238 -1.3543  0.8513 -1.0936
 7177TIP3   OH221452   6.917   2.251   1.073 -0.0082  0.6300 -0.0768
 7177TIP3    H121453   6.832   2.230   1.034 -0.1762  0.9520  0.1121
 7177TIP3    H221454   6.903   2.244   1.167 -0.0792  1.5864 -0.0041
 7178TIP3   OH221455   7.957   0.295   2.501  0.5053  0.0047  0.1042
 7178TIP3    H121456   7.926   0.240   2.430 -0.0705  0.4503 -0.0030
 7178TIP3    H221457   8.008   0.237   2.557  0.1334 -0.5646 -0.1473
 7179TIP3   OH221458   3.223   7.238   6.606  0.8919  0.0577  0.5694
 7179TIP3    H121459   3.283   7.188   6.550  0.0333  0.0790 -0.3990
 7179TIP3    H221460   3.215   7.185   6.686  0.5159 -1.0380 -0.1651
 7180TIP3   OH221461   5.000   6.051   0.485 -0.2203 -0.1576 -0.4240
 7180TIP3    H121462   5.095   6.056   0.482 -0.1671 -1.1684 -0.6750
 7180TIP3    H221463   4.972   6.091   0.402  0.1339 -2.6084 -1.8104
 7181TIP3   OH221464   5.311   4.980   5.887 -0.6925  0.2124 -0.5717
 7181TIP3    H121465   5.353   4.899   5.915  0.5390  0.8092 -0.6373
 7181TIP3    H221466   5.260   5.007   5.964 -0.8907 -0.4721 -0.4538
 7182TIP3   OH221467   7.280   0.901   1.146 -0.2651  0.1757 -0.3023
 7182TIP3    H121468   7.348   0.839   1.119 -0.4417  0.8649 -2.6099
 7182TIP3    H221469   7.304   0.926   1.235  1.0200 -1.5446 -0.1105
 7183TIP3   OH221470   6.442   1.411   2.474 -0.4117  0.6323  0.1198
 7183TIP3    H121471   6.403   1.330   2.509  2.0991 -1.2146 -1.0564
 7183TIP3    H221472   6.497   1.444   2.544 -1.5196  1.4623  0.6392
 7184TIP3   OH221473   7.083   5.988   0.234 -0.0464 -0.3705 -0.5166
 7184TIP3    H121474   7.001   5.965   0.277 -0.7529  1.0747 -1.0215
 7184TIP3    H221475   7.105   6.075   0.268  0.6633 -0.2513 -1.2445
 7185TIP3   OH221476   5.514   1.990   3.751 -0.1264  0.6322 -0.1330
 7185TIP3    H121477   5.511   1.896   3.733  0.6806  1.0163 -2.6197
 7185TIP3    H221478   5.447   2.027   3.694 -1.4133  1.4993  1.8283
 7186TIP3   OH221479   2.560   6.405   0.547  0.1830  0.4970 -0.5927
 7186TIP3    H121480   2.491   6.390   0.612  1.4792 -1.8991  0.3594
 7186TIP3    H221481   2.580   6.318   0.514  1.7590  1.3220 -1.9018
 7187TIP3   OH221482   2.675   5.101   1.733 -0.0791 -0.0671  0.8172
 7187TIP3    H121483   2.632   5.177   1.772 -2.1275 -1.0201  0.5397
 7187TIP3    H221484   2.639   5.096   1.644  1.0631 -0.5920  0.3609
 7188TIP3   OH221485   1.872   0.994   5.502 -0.9511 -0.3504  0.9648
 7188TIP3    H121486   1.929   0.945   5.442 -1.2805  0.4374 -0.0236
 7188TIP3    H221487   1.789   0.948   5.498 -0.5479 -1.1959  2.0088
 7189TIP3   OH221488   8.570   5.977   0.497 -0.3239  0.0320 -0.1788
 7189TIP3    H121489   8.605   5.889   0.484  1.3295  0.7596 -1.0060
 7189TIP3    H221490   8.604   6.005   0.582 -1.8332 -0.5208  0.6566
 7190TIP3   OH221491   1.959   4.114   6.414  0.1554  0.2707 -0.3418
 7190TIP3    H121492   2.025   4.096   6.347  0.1410 -1.4529  0.0653
 7190TIP3    H221493   1.987   4.062   6.490 -2.7710 -2.3132 -0.8347
 7191TIP3   OH221494   5.190   5.900   0.221  0.2139  0.1307  0.4671
 7191TIP3    H121495   5.204   5.930   0.131  2.7857 -0.2789  0.6660
 7191TIP3    H221496   5.252   5.951   0.273 -0.0949 -0.7924  1.7707
 7192TIP3   OH221497   7.823   3.652   5.867  0.2419  0.9053 -0.1481
 7192TIP3    H121498   7.767   3.576   5.880 -1.4860  2.3546  1.5441
 7192TIP3    H221499   7.764   3.720   5.835  1.8610  1.4310 -2.2632
 7193TIP3   OH221500   1.233   1.425   6.893  0.2280  0.1879  0.3943
 7193TIP3    H121501   1.269   1.396   6.809  1.4921 -0.2558  1.0487
 7193TIP3    H221502   1.304   1.408   6.956 -0.3635  1.3322  1.4050
 7194TIP3   OH221503   4.871   0.035   2.562 -0.2540  0.1535  0.1791
 7194TIP3    H121504   4.917   0.098   2.507 -0.8889 -0.5188 -1.1576
 7194TIP3    H221505   4.817   0.089   2.620  1.2896  0.9118  0.9908
 7195TIP3   OH221506   5.445   4.421   2.530  0.0481  0.3486  0.1063
 7195TIP3    H121507   5.489   4.402   2.613  2.0419  1.5201 -0.6346
 7195TIP3    H221508   5.444   4.337   2.483 -1.7332 -0.4974  1.5370
 7196TIP3   OH221509   3.447   4.002   1.792 -0.4706  0.0656 -0.0857
 7196TIP3    H121510   3.507   3.929   1.777 -0.2041  0.1218  0.6629
 7196TIP3    H221511   3.360   3.960   1.798 -0.0529 -0.5494  2.8879
 7197TIP3   OH221512   5.596   6.386   4.484  0.5921 -0.0783 -0.0448
 7197TIP3    H121513   5.540   6.464   4.478  0.7328 -0.0435 -1.3293
 7197TIP3    H221514   5.583   6.353   4.573 -1.1797  0.1538 -0.1748
 7198TIP3   OH221515   6.147   3.561   3.774 -0.7505  0.0782  0.5138
 7198TIP3    H121516   6.110   3.622   3.710 -0.0436 -0.4549 -0.4110
 7198TIP3    H221517   6.088   3.567   3.849 -1.9715  0.2119 -0.4349
 7199TIP3   OH221518   7.207   5.175   5.713  0.3126  0.3426  0.1241
 7199TIP3    H121519   7.231   5.206   5.800 -0.9050  0.5717  0.3971
 7199TIP3    H221520   7.280   5.118   5.686  0.1540 -0.7118  1.7968
 7200TIP3   OH221521   0.637   6.130   4.941  0.2516 -0.2679  0.1041
 7200TIP3    H121522   0.639   6.203   4.879 -1.2157 -0.2712  0.0163
 7200TIP3    H221523   0.728   6.100   4.946  0.9759  1.8530  0.5106
 7201TIP3   OH221524   6.258   5.678   5.608 -0.2484 -0.0577 -0.4962
 7201TIP3    H121525   6.343   5.708   5.639 -1.2900  0.5135  2.0116
 7201TIP3    H221526   6.274   5.588   5.577  1.1400 -0.1827  0.4934
 7202TIP3   OH221527   2.922   6.136   0.048 -0.1288  1.0024  0.4517
 7202TIP3    H121528   2.917   6.040   0.046  0.7930  0.9478 -0.0331
 7202TIP3    H221529   2.831   6.165   0.051 -0.4817  0.1310 -0.8755
 7203TIP3   OH221530   0.653   7.062   0.910  1.1581  0.8530 -0.3389
 7203TIP3    H121531   0.583   6.997   0.904 -1.2567  3.2877 -0.0196
 7203TIP3    H221532   0.725   7.015   0.953 -1.5348 -0.7989  2.8394
 7204TIP3   OH221533   0.976   6.779   3.357 -0.0060  0.2004  0.5292
 7204TIP3    H121534   0.957   6.730   3.277 -1.2110  0.5482  0.5889
 7204TIP3    H221535   0.910   6.848   3.359 -0.5494 -0.3344  2.2784
 7205TIP3   OH221536   3.319   2.607   4.554 -0.1730  0.1399  0.3052
 7205TIP3    H121537   3.280   2.524   4.527  1.3970 -1.0814  1.6190
 7205TIP3    H221538   3.376   2.631   4.481 -1.4056  0.6466 -0.5276
 7206TIP3   OH221539   8.451   4.714   3.389 -0.3653  0.6201 -0.1024
 7206TIP3    H121540   8.541   4.691   3.363 -0.4922 -1.0741  0.8020
 7206TIP3    H221541   8.419   4.769   3.318  0.8656 -0.0402 -1.2183
 7207TIP3   OH221542   0.616   7.234   6.224 -0.5945 -0.5043  0.0242
 7207TIP3    H121543   0.655   7.147   6.231  0.3357 -0.0299  1.2223
 7207TIP3    H221544   0.691   7.293   6.214 -1.2362  0.1398 -1.1797
 7208TIP3   OH221545   2.640   5.654   4.658 -0.2112 -0.2727 -0.7200
 7208TIP3    H121546   2.649   5.583   4.594  0.2784 -2.0613  1.2199
 7208TIP3    H221547   2.654   5.612   4.743 -0.9633  1.9703  0.6072
 7209TIP3   OH221548   2.383   3.186   0.563 -0.2264 -0.2130  0.5357
 7209TIP3    H121549   2.367   3.104   0.517 -3.2364  0.1243  0.7842
 7209TIP3    H221550   2.351   3.170   0.652 -1.9666  1.5009  0.2866
 7210TIP3   OH221551   5.076   7.407   6.086  0.6627  0.3576  0.3078
 7210TIP3    H121552   5.162   7.420   6.128  0.1205  0.3563  1.4659
 7210TIP3    H221553   5.073   7.313   6.068  0.0029 -0.0922  2.4175
 7211TIP3   OH221554   1.063   6.209   4.052 -0.1844  0.1005 -0.1424
 7211TIP3    H121555   1.047   6.121   4.087 -4.9923  1.0993  0.9256
 7211TIP3    H221556   1.069   6.264   4.130  4.2466  0.8173 -0.7255
 7212TIP3   OH221557   6.978   3.450   5.469 -0.2273  0.0815  0.2265
 7212TIP3    H121558   7.001   3.363   5.436  0.1249  0.2022  0.1407
 7212TIP3    H221559   6.887   3.463   5.444 -0.5168 -0.5853  0.9392
 7213TIP3   OH221560   0.314   4.927   6.286 -0.2008 -1.0332 -0.0884
 7213TIP3    H121561   0.359   4.904   6.205 -0.4120 -0.7328 -0.2961
 7213TIP3    H221562   0.224   4.945   6.259 -0.0091  0.2120  0.0215
 7214TIP3   OH221563   1.127   8.022   6.623  0.0089 -0.1079 -0.4664
 7214TIP3    H121564   1.049   8.035   6.676  0.2089 -0.3556 -0.1104
 7214TIP3    H221565   1.112   7.939   6.578  1.5010 -1.9686  2.1942
 7215TIP3   OH221566   4.541   3.749   2.560  0.2477  0.5392  0.2301
 7215TIP3    H121567   4.536   3.839   2.594 -0.0069  2.0155 -3.3257
 7215TIP3    H221568   4.460   3.707   2.591 -0.6387  2.2076  0.2974
 7216TIP3   OH221569   3.981   3.115   5.108 -0.4569  0.3535 -0.3051
 7216TIP3    H121570   3.891   3.134   5.133 -0.8276 -0.1155 -1.2262
 7216TIP3    H221571   4.019   3.201   5.089 -0.7769  0.5375 -0.1244
 7217TIP3   OH221572   2.993   2.675   4.049  0.1675  0.3312 -0.6209
 7217TIP3    H121573   3.020   2.742   4.112  0.7700 -0.0592 -0.4601
 7217TIP3    H221574   2.900   2.692   4.034  0.0048  0.3861  0.4204
 7218TIP3   OH221575   0.990   5.487   1.404 -0.5922  0.4113 -0.2205
 7218TIP3    H121576   1.077   5.526   1.405 -0.8252  0.9735 -1.0789
 7218TIP3    H221577   0.974   5.461   1.495  0.1159  1.0765  0.1018
 7219TIP3   OH221578   5.989   2.768   2.693  0.2638  0.3719  0.4213
 7219TIP3    H121579   5.905   2.781   2.737 -0.7728  0.4333 -1.5097
 7219TIP3    H221580   5.968   2.764   2.600  2.6492  2.6112 -0.3329
 7220TIP3   OH221581   3.664   6.284   1.474 -0.2870  0.4843  0.3046
 7220TIP3    H121582   3.590   6.342   1.490 -1.5760 -0.5983 -1.5006
 7220TIP3    H221583   3.653   6.253   1.384  1.6720 -0.6921  0.3972
 7221TIP3   OH221584   7.333   5.906   2.656  0.0464  0.2659  0.0668
 7221TIP3    H121585   7.407   5.860   2.617  2.1167  2.8138  0.6589
 7221TIP3    H221586   7.277   5.930   2.582  0.5384 -0.4951 -0.5626
 7222TIP3   OH221587   2.272   0.214   6.470 -0.0958 -0.3871  0.2182
 7222TIP3    H121588   2.313   0.147   6.524 -0.0606  1.4319  2.6409
 7222TIP3    H221589   2.321   0.294   6.490 -0.4424  0.4861 -2.1732
 7223TIP3   OH221590   3.261   7.663   4.714  0.4124 -0.0252  0.0512
 7223TIP3    H121591   3.215   7.737   4.753 -0.4439 -1.4963  1.9705
 7223TIP3    H221592   3.192   7.605   4.683  1.0225 -0.8377  0.1753
 7224TIP3   OH221593   8.334   4.261   1.991 -0.4112 -0.1339 -1.0138
 7224TIP3    H121594   8.376   4.239   1.907  0.2139 -2.7964 -0.0966
 7224TIP3    H221595   8.407   4.282   2.049 -0.7652  0.5959 -0.8252
 7225TIP3   OH221596   0.064   2.509   1.125 -0.6882  0.3081  0.4858
 7225TIP3    H121597   0.114   2.499   1.044  0.2397 -0.0541  1.0815
 7225TIP3    H221598   0.131   2.512   1.194 -1.4875 -0.2948  1.3161
 7226TIP3   OH221599   1.114   5.725   5.652  0.2923  0.2880 -0.1929
 7226TIP3    H121600   1.188   5.782   5.674  0.1695  0.0863  0.7788
 7226TIP3    H221601   1.096   5.677   5.733 -3.4379  3.0617  0.8912
 7227TIP3   OH221602   6.551   2.308   1.237  0.2087  0.1522  0.1717
 7227TIP3    H121603   6.638   2.321   1.276 -0.3430 -1.9100  2.3081
 7227TIP3    H221604   6.568   2.257   1.158  1.0553  1.1430 -0.3057
 7228TIP3   OH221605   1.817   1.692   3.785  0.4604  0.3741  0.1169
 7228TIP3    H121606   1.857   1.643   3.713  0.1582  0.4092 -0.0775
 7228TIP3    H221607   1.729   1.655   3.793 -0.0732  1.4564 -0.5987
 7229TIP3   OH221608   2.379   2.793   4.856 -0.6510  0.1664 -0.3930
 7229TIP3    H121609   2.407   2.757   4.940  2.1150 -0.2476 -1.3714
 7229TIP3    H221610   2.284   2.797   4.861 -0.5872 -0.3324  2.5331
 7230TIP3   OH221611   8.421   7.312   6.618  0.0089 -0.2207 -0.1013
 7230TIP3    H121612   8.472   7.387   6.648 -0.3759  0.6782 -1.5464
 7230TIP3    H221613   8.416   7.254   6.694  2.3822  0.0619  0.3443
 7231TIP3   OH221614   6.120   2.718   2.045  0.2629 -0.8091 -0.0516
 7231TIP3    H121615   6.040   2.686   2.087  1.3627 -2.1963  1.0995
 7231TIP3    H221616   6.089   2.776   1.975 -1.7249 -1.2216  0.4205
 7232TIP3   OH221617   6.221   2.664   2.296 -0.5788 -0.0721  0.5433
 7232TIP3    H121618   6.258   2.576   2.292  0.6422  0.4388 -0.2336
 7232TIP3    H221619   6.209   2.689   2.204 -0.5896  0.6876  0.7418
 7233TIP3   OH221620   4.560   6.111   3.430  0.5707  0.2177 -0.4488
 7233TIP3    H121621   4.554   6.205   3.442  0.5168  0.3260 -1.2271
 7233TIP3    H221622   4.521   6.073   3.508 -1.2395  0.8485 -1.0121
 7234TIP3   OH221623   7.532   1.103   0.301  0.3965  0.2352 -0.1374
 7234TIP3    H121624   7.499   1.142   0.220  2.2538  1.7204 -0.2485
 7234TIP3    H221625   7.540   1.178   0.361 -0.0786 -0.7054  1.1402
 7235TIP3   OH221626   3.393   5.761   6.804 -0.0537  0.5164 -0.3105
 7235TIP3    H121627   3.436   5.683   6.840  0.0877 -0.1029 -1.7450
 7235TIP3    H221628   3.361   5.733   6.718 -1.4938  1.5698 -0.1530
 7236TIP3   OH221629   1.844   1.270   5.400 -0.2233 -0.2265 -0.3451
 7236TIP3    H121630   1.921   1.292   5.347 -0.2090 -0.6013 -0.4865
 7236TIP3    H221631   1.837   1.175   5.392  1.0287 -0.5813  2.0504
 7237TIP3   OH221632   2.569   7.176   4.879 -0.0156  0.2962  0.7941
 7237TIP3    H121633   2.564   7.091   4.835  1.1543  0.3086  0.6057
 7237TIP3    H221634   2.478   7.198   4.899 -0.3036 -1.2472  1.3151
 7238TIP3   OH221635   7.792   7.711   4.833  0.2806 -0.3520 -0.3091
 7238TIP3    H121636   7.734   7.701   4.908 -1.0596  0.6873 -1.1540
 7238TIP3    H221637   7.783   7.629   4.784 -1.0507  0.0440 -0.7838
 7239TIP3   OH221638   7.444   3.945   0.656  0.5009 -0.0883  0.6100
 7239TIP3    H121639   7.486   3.896   0.585 -1.5449 -2.1507  0.7010
 7239TIP3    H221640   7.509   4.010   0.683  2.6961 -1.6210 -0.7198
 7240TIP3   OH221641   7.266   4.098   2.077  0.5124  0.1557 -0.8216
 7240TIP3    H121642   7.312   4.044   2.013 -0.3288  0.7536 -1.9781
 7240TIP3    H221643   7.175   4.069   2.072  0.5596 -0.2864  0.6501
 7241TIP3   OH221644   4.721   6.981   3.570 -0.3899  0.0291  0.7421
 7241TIP3    H121645   4.786   6.999   3.639 -0.5030 -0.4539  0.9777
 7241TIP3    H221646   4.638   6.973   3.617 -0.4703 -0.2837  0.5460
 7242TIP3   OH221647   8.642   6.603   3.903 -0.3630 -0.1314 -0.0698
 7242TIP3    H121648   8.579   6.642   3.964  1.7599  0.1807  2.0588
 7242TIP3    H221649   8.665   6.673   3.843 -0.5242  0.3364  0.4108
 7243TIP3   OH221650   2.071   2.839   6.631  0.1576  0.5032 -0.4615
 7243TIP3    H121651   2.136   2.862   6.698 -0.1034 -1.3685  0.4914
 7243TIP3    H221652   1.997   2.804   6.680 -0.2640 -0.4055 -1.6954
 7244TIP3   OH221653   2.457   7.959   2.695  0.0953 -0.3603  0.1531
 7244TIP3    H121654   2.551   7.976   2.706 -0.2528  1.5097  0.5457
 7244TIP3    H221655   2.422   7.959   2.784 -0.2401 -1.5637  0.0482
 7245TIP3   OH221656   7.389   3.993   0.202  0.3356  0.1542 -0.1037
 7245TIP3    H121657   7.328   4.066   0.205 -1.9676 -1.6628 -0.1971
 7245TIP3    H221658   7.456   4.020   0.139 -0.2059  2.3177  0.1902
 7246TIP3   OH221659   0.867   6.556   5.121 -0.1327  0.4570  0.0665
 7246TIP3    H121660   0.814   6.600   5.055  0.7889 -0.7755 -1.5784
 7246TIP3    H221661   0.957   6.571   5.092  0.2371 -1.3395  0.2058
 7247TIP3   OH221662   6.159   3.712   1.698  0.1038  0.4377  0.1758
 7247TIP3    H121663   6.184   3.621   1.681 -1.1912 -0.1141  1.0465
 7247TIP3    H221664   6.226   3.744   1.759  0.5330  0.0556 -0.0872
 7248TIP3   OH221665   0.951   5.603   4.500  0.3526 -0.1302  1.2305
 7248TIP3    H121666   1.024   5.632   4.553  0.5973  1.8699 -0.0731
 7248TIP3    H221667   0.887   5.675   4.506 -0.3293 -0.6273  0.2221
 7249TIP3   OH221668   5.010   7.769   5.832 -0.0823  0.0320 -0.0398
 7249TIP3    H121669   5.020   7.784   5.926  0.3962  0.8096 -0.2017
 7249TIP3    H221670   4.916   7.760   5.819 -0.1571 -0.0111  0.5007
 7250TIP3   OH221671   0.908   1.031   6.053  0.1958  0.2422  0.2724
 7250TIP3    H121672   0.990   0.985   6.033 -0.5457 -1.1275  0.3220
 7250TIP3    H221673   0.873   0.987   6.130  0.1608  1.8278  1.2150
 7251TIP3   OH221674   7.723   3.255   2.069 -0.4544  0.0749  0.1467
 7251TIP3    H121675   7.763   3.169   2.060  0.0196  0.3736 -0.7052
 7251TIP3    H221676   7.659   3.260   1.998  1.7089  1.5782 -1.8798
 7252TIP3   OH221677   1.202   3.140   0.188 -0.2624  0.1110 -0.1956
 7252TIP3    H121678   1.184   3.122   0.280 -0.5593  1.3488  0.0009
 7252TIP3    H221679   1.160   3.224   0.170  1.2356  0.7466 -0.9947
 7253TIP3   OH221680   1.542   1.319   4.377  0.0134  0.0282 -0.3916
 7253TIP3    H121681   1.480   1.390   4.362  0.9138  0.5464 -1.8830
 7253TIP3    H221682   1.573   1.295   4.289  0.4189 -1.5882  0.1535
 7254TIP3   OH221683   2.347   2.204   5.524 -0.3006 -0.5560  0.0849
 7254TIP3    H121684   2.261   2.209   5.482 -0.7965 -2.0886  0.8246
 7254TIP3    H221685   2.327   2.201   5.618  0.4752 -1.8798  0.2387
 7255TIP3   OH221686   4.565   4.237   4.164  0.3725 -0.1986  0.7181
 7255TIP3    H121687   4.650   4.219   4.206  0.5737  0.8423  0.7861
 7255TIP3    H221688   4.502   4.238   4.236  0.1679 -1.6670  0.5882
 7256TIP3   OH221689   5.132   0.090   4.266 -0.4514  1.0850 -0.8194
 7256TIP3    H121690   5.138   0.172   4.217 -1.6228  2.4011  1.1481
 7256TIP3    H221691   5.050   0.051   4.237 -0.7095  1.4243 -0.5452
 7257TIP3   OH221692   8.240   0.578   1.199  0.3911  0.1380  0.6187
 7257TIP3    H121693   8.191   0.606   1.122  0.4237 -0.5160  0.3588
 7257TIP3    H221694   8.247   0.657   1.253 -0.2577  0.4248  0.2893
 7258TIP3   OH221695   4.033   4.294   2.715 -0.8042 -0.0456  0.0692
 7258TIP3    H121696   4.128   4.295   2.723 -0.6014 -0.0799 -1.9443
 7258TIP3    H221697   4.011   4.203   2.694 -1.4993 -0.4406  2.2171
 7259TIP3   OH221698   4.104   7.153   1.672  0.2622 -0.3146 -0.2012
 7259TIP3    H121699   4.183   7.102   1.655  0.2425 -0.2211 -0.5940
 7259TIP3    H221700   4.057   7.103   1.738 -0.1402 -1.2278 -1.1427
 7260TIP3   OH221701   0.885   4.445   2.846  0.1148  0.0777 -0.0091
 7260TIP3    H121702   0.856   4.511   2.784  0.6841  0.4936  0.1521
 7260TIP3    H221703   0.975   4.471   2.868  0.2271 -0.5611  0.3103
 7261TIP3   OH221704   2.525   5.659   5.109  0.4514  0.4663  0.0642
 7261TIP3    H121705   2.448   5.665   5.052  0.7092 -0.0976 -0.3507
 7261TIP3    H221706   2.597   5.688   5.054  0.4537  1.6460  0.6562
 7262TIP3   OH221707   4.822   4.794   3.052 -0.1697  0.2004 -0.1839
 7262TIP3    H121708   4.901   4.810   3.001  0.0526  1.2535  0.4641
 7262TIP3    H221709   4.751   4.790   2.987  0.5602 -2.2196 -0.9327
 7263TIP3   OH221710   0.273   4.168   6.769  0.2899 -0.0545  0.5994
 7263TIP3    H121711   0.201   4.123   6.814 -0.7849  1.3534  0.3415
 7263TIP3    H221712   0.324   4.097   6.730  0.2378 -1.2115  2.4845
 7264TIP3   OH221713   7.316   6.439   2.257 -0.3982 -0.6394 -0.5336
 7264TIP3    H121714   7.394   6.437   2.311  0.5742  2.0124 -1.6660
 7264TIP3    H221715   7.243   6.436   2.319  0.6026 -1.0341  0.6650
 7265TIP3   OH221716   0.730   2.183   0.141 -0.4988  0.1373  0.0257
 7265TIP3    H121717   0.661   2.118   0.135  0.7721 -1.2323 -0.4701
 7265TIP3    H221718   0.762   2.193   0.051  0.0070  0.6846  0.2561
 7266TIP3   OH221719   4.485   0.808   0.070  0.5496  0.1472 -0.2444
 7266TIP3    H121720   4.398   0.839   0.093  0.5248 -0.6444  0.7695
 7266TIP3    H221721   4.485   0.805  -0.026 -0.3369  0.7016 -0.2652
 7267TIP3   OH221722   1.663   8.065   3.048  0.3303 -0.2570  0.0135
 7267TIP3    H121723   1.658   8.075   3.143  3.1540  1.8066  0.0591
 7267TIP3    H221724   1.690   7.974   3.035  0.5097 -0.3879  1.2107
 7268TIP3   OH221725   5.827   5.363   0.475 -0.2137 -0.2674 -0.3870
 7268TIP3    H121726   5.760   5.315   0.525 -0.2699  0.8688  0.7050
 7268TIP3    H221727   5.910   5.337   0.514 -0.1232 -0.6541 -0.8361
 7269TIP3   OH221728   7.324   5.459   1.738  0.2903  0.2680 -0.1637
 7269TIP3    H121729   7.392   5.395   1.722  0.1635  0.2410 -0.6121
 7269TIP3    H221730   7.315   5.506   1.655  0.2328  0.7219  0.0929
 7270TIP3   OH221731   6.386   4.699   0.830 -0.2065 -0.0680  0.0052
 7270TIP3    H121732   6.326   4.654   0.770  0.9208 -0.7865 -0.6333
 7270TIP3    H221733   6.344   4.691   0.916 -1.9948  1.2274 -0.6760
 7271TIP3   OH221734   7.878   3.544   3.651  0.0212 -0.0897 -0.0191
 7271TIP3    H121735   7.827   3.501   3.582  0.4807  1.0680 -1.1421
 7271TIP3    H221736   7.823   3.541   3.728 -0.1051 -2.3401 -0.1382
 7272TIP3   OH221737   1.968   6.083   2.062 -0.4406 -0.4867  0.2759
 7272TIP3    H121738   1.977   6.025   1.986 -0.0509 -0.9230  0.6494
 7272TIP3    H221739   1.901   6.041   2.116 -1.6892  0.5071 -0.4365
 7273TIP3   OH221740   8.362   5.121   5.745  0.5350  0.1002  0.4165
 7273TIP3    H121741   8.411   5.189   5.791  2.2342  0.0027 -1.1428
 7273TIP3    H221742   8.414   5.042   5.755  0.0524 -0.3138 -0.2146
 7274TIP3   OH221743   3.959   7.347   4.052  0.2872  0.2487 -0.1719
 7274TIP3    H121744   4.010   7.335   3.972 -0.2232 -0.5718 -0.3843
 7274TIP3    H221745   3.900   7.420   4.032  1.3698  1.2087  0.0800
 7275TIP3   OH221746   5.904   2.375   0.081  0.2261  0.0137 -0.0721
 7275TIP3    H121747   5.836   2.312   0.055  0.7312 -0.0747 -1.2351
 7275TIP3    H221748   5.856   2.458   0.092  0.1228  0.4162 -2.7417
 7276TIP3   OH221749   2.177   0.045   5.907 -0.0421  0.4492 -0.2405
 7276TIP3    H121750   2.086   0.059   5.883 -0.2753  4.1663  2.0455
 7276TIP3    H221751   2.176  -0.029   5.967 -1.9226  1.6560  1.2963
 7277TIP3   OH221752   7.808   5.445   3.595 -0.0810  0.2481 -0.2358
 7277TIP3    H121753   7.840   5.451   3.505 -3.1795  0.7465 -1.4428
 7277TIP3    H221754   7.750   5.520   3.605  0.0985  0.1414  2.1804
 7278TIP3   OH221755   3.003   7.593   5.651 -0.7365  0.5696 -0.0596
 7278TIP3    H121756   3.049   7.510   5.644 -0.5636  0.5050  1.4966
 7278TIP3    H221757   2.995   7.624   5.561  0.8428 -0.2234 -0.4979
 7279TIP3   OH221758   6.989   4.600   1.176 -0.4449 -0.0978  0.3876
 7279TIP3    H121759   7.001   4.514   1.135 -1.8217 -0.0118 -0.2552
 7279TIP3    H221760   7.063   4.652   1.144  0.4902 -1.0694  0.9121
 7280TIP3   OH221761   7.460   5.087   6.100 -0.8710 -0.0033 -0.6330
 7280TIP3    H121762   7.441   5.020   6.166  2.5811  0.8417  1.4981
 7280TIP3    H221763   7.538   5.054   6.055 -1.4852  0.7985 -2.3700
 7281TIP3   OH221764   1.701   4.752   6.965  0.5708  0.4800  0.2644
 7281TIP3    H121765   1.676   4.667   6.928  1.2505  0.3985 -0.0255
 7281TIP3    H221766   1.667   4.816   6.902 -2.4724  0.6234  1.8730
 7282TIP3   OH221767   5.388   5.255   5.263  0.0074 -0.6774 -0.1781
 7282TIP3    H121768   5.293   5.258   5.272  0.0747  0.2735  0.3886
 7282TIP3    H221769   5.414   5.172   5.304 -0.5500 -0.8110 -0.0891
 7283TIP3   OH221770   8.442   7.172   6.332 -0.3604  0.3633 -0.8870
 7283TIP3    H121771   8.379   7.113   6.372  0.3443 -0.2534 -0.6690
 7283TIP3    H221772   8.519   7.169   6.389  0.2350  0.3482 -1.6691
 7284TIP3   OH221773   0.291   5.878   5.338 -0.4883 -0.0947 -0.4425
 7284TIP3    H121774   0.338   5.923   5.268 -0.1845 -0.4759 -0.4903
 7284TIP3    H221775   0.289   5.940   5.410  2.7220 -1.0467  0.6483
 7285TIP3   OH221776   5.117   3.803   5.278  0.2519  0.1287  0.9072
 7285TIP3    H121777   5.039   3.795   5.334 -1.3929 -1.0057 -1.3772
 7285TIP3    H221778   5.112   3.892   5.243  0.1894  0.1791  1.0435
 7286TIP3   OH221779   5.017   0.395   2.731 -0.4317  0.2050  0.2343
 7286TIP3    H121780   5.066   0.322   2.769 -0.2437  0.4304  0.4300
 7286TIP3    H221781   4.925   0.372   2.747 -0.4346 -0.5662 -0.7811
 7287TIP3   OH221782   0.761   5.140   1.244 -0.6346  0.0161  0.2306
 7287TIP3    H121783   0.769   5.048   1.219  1.6339 -0.5268  2.4938
 7287TIP3    H221784   0.837   5.182   1.204 -0.5186  0.4415  0.8888
 7288TIP3   OH221785   0.121   0.194   0.904  0.4169  0.3112 -0.6828
 7288TIP3    H121786   0.079   0.280   0.907  0.2376  0.1924  0.4851
 7288TIP3    H221787   0.213   0.212   0.922  0.0672  0.0790  1.5893
 7289TIP3   OH221788   6.144   7.030   1.654  0.2655  0.8133 -0.0886
 7289TIP3    H121789   6.057   7.001   1.629  0.6973  0.9822 -1.9005
 7289TIP3    H221790   6.172   6.967   1.721 -0.1569 -0.9130 -1.4905
 7290TIP3   OH221791   0.059   2.293   1.717 -0.1291  0.2160 -0.1950
 7290TIP3    H121792  -0.004   2.364   1.730 -0.4781  0.0150 -0.7310
 7290TIP3    H221793   0.083   2.298   1.624  0.7014  0.3297  0.0210
 7291TIP3   OH221794   1.102   4.670   0.594  0.5530 -0.5583  0.2912
 7291TIP3    H121795   1.109   4.717   0.678 -2.6753 -0.2449  0.4953
 7291TIP3    H221796   1.072   4.736   0.532 -1.2913 -1.6653 -0.0700
 7292TIP3   OH221797   8.415   1.545   1.419 -0.4928 -0.1446 -0.2214
 7292TIP3    H121798   8.478   1.480   1.390 -0.3819  0.2601 -0.9073
 7292TIP3    H221799   8.341   1.536   1.359 -0.7445 -0.0664  0.0748
 7293TIP3   OH221800   2.083   4.409   0.745 -0.3311  0.2845  0.4388
 7293TIP3    H121801   2.049   4.496   0.725 -0.7809  0.4291  1.7278
 7293TIP3    H221802   2.178   4.417   0.739 -0.4305  0.2641 -1.7155
 7294TIP3   OH221803   5.011   5.541   1.356  0.2783 -0.5049 -0.1683
 7294TIP3    H121804   4.987   5.571   1.269 -1.4793  1.3311  0.8616
 7294TIP3    H221805   4.950   5.470   1.375  0.5901 -0.8313 -0.3591
 7295TIP3   OH221806   2.395   1.653   5.530  0.0815 -0.5498 -1.1658
 7295TIP3    H121807   2.301   1.667   5.543 -0.0502  0.1556 -2.6666
 7295TIP3    H221808   2.430   1.741   5.515  1.4913 -0.4309  2.0861
 7296TIP3   OH221809   6.762   3.041   3.929 -0.3370  0.1045  0.2213
 7296TIP3    H121810   6.728   2.961   3.888  2.2893  0.1794 -2.4359
 7296TIP3    H221811   6.727   3.112   3.875 -0.6846  0.5779  1.0660
 7297TIP3   OH221812   4.157   0.556   4.818  0.5935 -0.3469  0.2454
 7297TIP3    H121813   4.183   0.647   4.803 -0.0230 -0.0540  0.9113
 7297TIP3    H221814   4.116   0.529   4.736  1.5545 -0.3095 -0.2582
 7298TIP3   OH221815   2.792   2.884   0.847 -0.2265  0.6521  0.8108
 7298TIP3    H121816   2.855   2.813   0.838  0.8687  1.5802  0.7669
 7298TIP3    H221817   2.794   2.927   0.761 -1.6003  0.1767  0.5186
 7299TIP3   OH221818   5.715   4.658   4.894  0.2142 -0.3965 -1.0181
 7299TIP3    H121819   5.656   4.727   4.863  0.3235  0.2952  0.2501
 7299TIP3    H221820   5.800   4.700   4.901  0.2484 -0.6031 -0.0844
 7300TIP3   OH221821   2.150   5.562   0.184  1.0267 -0.0752 -0.2233
 7300TIP3    H121822   2.180   5.631   0.126  1.7779  0.2745  0.5638
 7300TIP3    H221823   2.127   5.608   0.265  0.9983 -0.6823  0.1157
 7301TIP3   OH221824   7.071   1.192   3.049 -0.7247  0.2735 -0.3144
 7301TIP3    H121825   7.031   1.154   2.971 -0.8802  0.4158 -0.3056
 7301TIP3    H221826   7.023   1.152   3.122 -1.1202  0.7385 -0.3138
 7302TIP3   OH221827   3.025   4.708   7.071  0.1151  0.2804 -0.3082
 7302TIP3    H121828   2.968   4.704   6.994 -0.7704 -1.6507  0.3854
 7302TIP3    H221829   3.058   4.798   7.072 -0.0116  0.4282 -2.8102
 7303TIP3   OH221830   4.598   1.606   1.323 -0.1601 -0.4496  1.0428
 7303TIP3    H121831   4.628   1.692   1.352  0.4590  0.4884 -2.0133
 7303TIP3    H221832   4.505   1.620   1.301 -0.0692 -0.5507  0.5826
 7304TIP3   OH221833   7.927   2.224   3.549 -0.0028  0.0375  0.5002
 7304TIP3    H121834   7.967   2.293   3.602 -0.1619  1.3109 -0.9874
 7304TIP3    H221835   7.976   2.145   3.573  0.0930  0.6061  2.3425
 7305TIP3   OH221836   2.255   7.567   1.402 -0.3333  0.3059 -0.1093
 7305TIP3    H121837   2.276   7.660   1.393  0.4456 -0.0143 -2.0086
 7305TIP3    H221838   2.262   7.550   1.496 -2.7841  2.6706  0.6493
 7306TIP3   OH221839   5.688   6.721   0.476  0.4377 -0.3903  0.5024
 7306TIP3    H121840   5.597   6.729   0.506  0.0443 -2.1813 -0.0422
 7306TIP3    H221841   5.686   6.752   0.386  0.1959 -1.0235  0.2784
 7307TIP3   OH221842   8.460   0.286   1.748  0.0491 -0.1974  0.0753
 7307TIP3    H121843   8.435   0.349   1.815  0.1532  1.3317 -1.2517
 7307TIP3    H221844   8.545   0.316   1.716 -0.8267  0.2804 -2.0203
 7308TIP3   OH221845   4.991   2.201   3.521  0.5425  0.3684  0.3488
 7308TIP3    H121846   4.955   2.201   3.432 -1.0362  1.0084  0.9411
 7308TIP3    H221847   5.069   2.257   3.515  1.1184 -0.5212 -0.8541
 7309TIP3   OH221848   4.192   0.810   1.686  0.5756 -0.5521 -0.5178
 7309TIP3    H121849   4.147   0.868   1.624 -0.9081 -0.8388  0.2510
 7309TIP3    H221850   4.210   0.730   1.636  1.4444  0.0543 -1.2043
 7310TIP3   OH221851   4.071   4.915   0.623 -0.0657 -0.1311 -0.3791
 7310TIP3    H121852   4.024   4.880   0.699  0.0594  1.1566  0.3187
 7310TIP3    H221853   4.106   4.999   0.653  0.0037  0.3961 -1.8573
 7311TIP3   OH221854   1.970   7.745   1.841  0.1779 -0.2636  0.2812
 7311TIP3    H121855   1.959   7.757   1.935 -0.3963 -0.8940  0.3064
 7311TIP3    H221856   1.883   7.764   1.804  0.5669  0.6374 -0.2010
 7312TIP3   OH221857   0.294   4.806   1.602 -0.2571  0.6003 -0.2069
 7312TIP3    H121858   0.321   4.783   1.513  0.7160 -1.2366  0.5137
 7312TIP3    H221859   0.376   4.827   1.647 -0.6797  0.9616  0.4093
 7313TIP3   OH221860   1.948   5.094   4.767 -0.1085  0.5420  0.1723
 7313TIP3    H121861   2.037   5.059   4.774  0.3070  1.3534 -0.7989
 7313TIP3    H221862   1.891   5.020   4.788  0.7730 -0.2029 -0.0002
 7314TIP3   OH221863   8.507   6.673   5.380  0.4217 -0.8581  0.0941
 7314TIP3    H121864   8.562   6.673   5.458  0.0477  0.2293  0.3757
 7314TIP3    H221865   8.563   6.711   5.312  0.2812 -0.4774  0.1894
 7315TIP3   OH221866   7.527   7.137   2.540 -0.0608 -0.5327  0.3118
 7315TIP3    H121867   7.496   7.053   2.504 -2.6308 -0.2191  1.5301
 7315TIP3    H221868   7.538   7.120   2.634 -1.5779  0.6773  0.7489
 7316TIP3   OH221869   2.730   1.126   6.507  0.2404 -0.6895 -0.1602
 7316TIP3    H121870   2.783   1.158   6.434 -0.0969  0.4636  0.0713
 7316TIP3    H221871   2.690   1.046   6.475  0.2523 -0.3039 -1.1773
 7317TIP3   OH221872   6.276   2.669   6.887 -0.1171  0.1906 -0.0674
 7317TIP3    H121873   6.287   2.656   6.981  1.1438 -3.3855 -0.5641
 7317TIP3    H221874   6.345   2.731   6.863  0.1115  0.4670  1.2102
 7318TIP3   OH221875   4.823   7.530   4.931  0.8234 -0.7190 -0.3411
 7318TIP3    H121876   4.885   7.602   4.943  0.0859 -0.3556  1.5737
 7318TIP3    H221877   4.871   7.453   4.962  1.1243 -0.8350 -1.0789
 7319TIP3   OH221878   6.240   2.508   3.711  0.5073  0.0958 -0.2673
 7319TIP3    H121879   6.263   2.418   3.686  1.9192  0.9229 -2.2386
 7319TIP3    H221880   6.300   2.563   3.660  0.6324  2.1464  1.9205
 7320TIP3   OH221881   5.529   6.220   3.441  0.2072  0.0330 -0.1662
 7320TIP3    H121882   5.451   6.207   3.494  0.8374 -1.7236  0.4104
 7320TIP3    H221883   5.496   6.241   3.354 -0.8741  0.4029  0.3137
 7321TIP3   OH221884   1.058   2.552   3.421  0.0723  0.4805  0.2563
 7321TIP3    H121885   1.051   2.482   3.485 -0.4193  1.3335  1.1541
 7321TIP3    H221886   0.967   2.569   3.395  0.0528  1.6732  1.0437
 7322TIP3   OH221887   7.859   5.034   3.876  0.1260 -0.0049  0.2162
 7322TIP3    H121888   7.813   5.100   3.823  1.3661  0.0041 -0.8906
 7322TIP3    H221889   7.791   4.970   3.899 -1.2550  1.8996  1.8169
 7323TIP3   OH221890   0.678   4.683   0.212 -0.1695  0.1753  0.3659
 7323TIP3    H121891   0.647   4.752   0.271  1.9085  1.1122  0.4746
 7323TIP3    H221892   0.622   4.608   0.231 -0.8974  1.0776  2.0599
 7324TIP3   OH221893   1.107   2.110   5.921 -0.1706  1.0396 -0.3949
 7324TIP3    H121894   1.028   2.069   5.956  2.1492 -3.3637  0.3466
 7324TIP3    H221895   1.170   2.109   5.993  2.1445 -0.5775 -2.2752
 7325TIP3   OH221896   1.027   5.009   4.275  0.0689 -0.3761 -0.2897
 7325TIP3    H121897   1.081   5.023   4.197 -0.7815  1.1690 -0.6341
 7325TIP3    H221898   1.071   5.058   4.344  0.8087 -1.7249  0.2423
 7326TIP3   OH221899   3.334   2.051   3.681 -0.2383  0.3534 -0.1360
 7326TIP3    H121900   3.344   2.121   3.746 -0.1659  0.7155 -0.5403
 7326TIP3    H221901   3.390   1.980   3.714  1.4379  1.2789 -0.8517
 7327TIP3   OH221902   4.285   8.069   4.048 -0.0265 -0.2013 -0.0043
 7327TIP3    H121903   4.339   8.059   3.969 -1.0882  0.5311 -0.8503
 7327TIP3    H221904   4.241   8.153   4.036  0.0042  0.0482  1.5155
 7328TIP3   OH221905   7.425   1.494   4.013  0.2352  0.0357  0.6711
 7328TIP3    H121906   7.427   1.463   4.103 -1.2165  1.1953  1.1522
 7328TIP3    H221907   7.398   1.418   3.961  1.3180 -0.7027  1.1546
 7329TIP3   OH221908   6.496   5.873   4.668  0.3236 -0.3659  0.6892
 7329TIP3    H121909   6.501   5.787   4.708  0.1185 -0.4681  0.4994
 7329TIP3    H221910   6.492   5.855   4.574 -0.0436 -0.1622  0.6647
 7330TIP3   OH221911   0.173   0.483   3.330  0.7725  0.6338 -0.0196
 7330TIP3    H121912   0.186   0.414   3.394  2.2455 -0.3005 -1.2491
 7330TIP3    H221913   0.079   0.487   3.316  0.5911 -0.3733  0.8681
 7331TIP3   OH221914   1.739   5.175   5.879  0.0932  0.5521  0.2150
 7331TIP3    H121915   1.785   5.111   5.933 -0.0154 -0.0352 -0.3691
 7331TIP3    H221916   1.779   5.259   5.900  1.8985 -0.0199 -0.7583
 7332TIP3   OH221917   5.282   5.394   2.547  0.0643  0.3788 -0.4396
 7332TIP3    H121918   5.228   5.443   2.609 -1.9600  1.1261 -2.6632
 7332TIP3    H221919   5.243   5.307   2.544  1.8923 -0.5951  1.3258
 7333TIP3   OH221920   2.960   2.406   4.963  0.3517 -0.0898  0.2616
 7333TIP3    H121921   2.949   2.317   4.929 -0.6691 -0.1039  0.5977
 7333TIP3    H221922   2.878   2.425   5.007  0.8749  0.7113  0.9283
 7334TIP3   OH221923   5.872   5.018   4.668  0.1825  0.0858 -0.0237
 7334TIP3    H121924   5.882   4.959   4.593 -0.7120 -0.3911  0.2245
 7334TIP3    H221925   5.855   5.104   4.628  0.7800  0.0508 -0.3736
 7335TIP3   OH221926   0.553   2.143   5.643 -0.3352 -0.0994  0.4354
 7335TIP3    H121927   0.489   2.074   5.624 -1.6402  1.0549  0.5065
 7335TIP3    H221928   0.583   2.172   5.557 -1.2685  0.5687  0.3140
 7336TIP3   OH221929   8.392   2.281   5.307 -0.1992  0.3301  0.0137
 7336TIP3    H121930   8.420   2.231   5.383 -0.0950  1.0722  0.4724
 7336TIP3    H221931   8.446   2.361   5.309 -0.7900  0.7499 -0.3493
 7337TIP3   OH221932   7.312   2.667   0.919  0.2125  0.7100  0.2635
 7337TIP3    H121933   7.284   2.601   0.856  0.3145 -1.5069  2.4058
 7337TIP3    H221934   7.232   2.716   0.939 -0.1892  0.2820 -0.2758
 7338TIP3   OH221935   3.762   1.213   4.811  0.2365  0.4015  0.1330
 7338TIP3    H121936   3.776   1.122   4.785 -1.2956 -0.0516  0.8075
 7338TIP3    H221937   3.727   1.207   4.899 -1.4646  1.5623 -0.4304
 7339TIP3   OH221938   4.940   2.679   2.425  0.2076 -0.5117 -0.1580
 7339TIP3    H121939   5.011   2.647   2.370  0.4292 -0.8580  0.3198
 7339TIP3    H221940   4.860   2.657   2.377  0.4162 -0.3473 -0.5801
 7340TIP3   OH221941   3.303   2.183   0.913  0.3757 -0.2620  0.1073
 7340TIP3    H121942   3.365   2.233   0.966  0.4164 -0.8416  0.6145
 7340TIP3    H221943   3.351   2.104   0.888  0.6684  0.3884 -1.5628
 7341TIP3   OH221944   4.108   0.645   2.152 -0.6522  0.1720 -0.2213
 7341TIP3    H121945   4.029   0.653   2.206 -1.7653 -2.5589 -1.2528
 7341TIP3    H221946   4.097   0.710   2.083  0.3444  3.0684  2.1298
 7342TIP3   OH221947   7.969   3.973   5.014 -0.1227 -0.1535  0.3413
 7342TIP3    H121948   7.981   3.880   5.036  0.5731 -0.5837 -1.6312
 7342TIP3    H221949   7.894   4.000   5.067 -1.0656 -2.1647  0.1508
 7343TIP3   OH221950   2.278   8.175   5.253 -0.5155 -0.0145 -0.1144
 7343TIP3    H121951   2.358   8.125   5.235 -0.9079 -0.3303 -1.0338
 7343TIP3    H221952   2.217   8.110   5.288 -0.1883  0.3452  1.1870
 7344TIP3   OH221953   6.586   3.266   6.655  0.6214  0.2722  0.0075
 7344TIP3    H121954   6.507   3.319   6.648  0.7043  0.2150 -1.5880
 7344TIP3    H221955   6.558   3.177   6.633  1.2017  0.3340 -1.0454
 7345TIP3   OH221956   3.669   1.676   5.833  0.3786  0.1180 -0.5041
 7345TIP3    H121957   3.615   1.600   5.810  0.3742 -0.1435  0.3350
 7345TIP3    H221958   3.758   1.647   5.817  0.3961 -0.1735  0.0981
 7346TIP3   OH221959   0.429   0.802   4.070  0.2057  0.8423 -0.5473
 7346TIP3    H121960   0.336   0.784   4.056 -0.1346 -0.8758  3.0031
 7346TIP3    H221961   0.474   0.734   4.019 -0.5396  0.3367 -0.5439
 7347TIP3   OH221962   2.213   6.444   3.961  0.2852 -0.0298 -0.0366
 7347TIP3    H121963   2.132   6.470   3.916  0.2729 -0.5514 -0.3201
 7347TIP3    H221964   2.244   6.367   3.913  1.0933  0.3176 -0.1027
 7348TIP3   OH221965   3.562   1.227   1.440 -0.5919  0.2992  0.7186
 7348TIP3    H121966   3.520   1.300   1.485 -0.6127  0.5785  0.2563
 7348TIP3    H221967   3.601   1.266   1.361 -1.4640 -0.3501 -0.0603
 7349TIP3   OH221968   0.748   5.956   2.385 -0.1635  0.3567 -0.0747
 7349TIP3    H121969   0.742   5.902   2.464 -0.6962 -0.4086 -0.6263
 7349TIP3    H221970   0.769   5.894   2.315 -1.5776  0.7219 -0.8572
 7350TIP3   OH221971   5.740   6.550   1.915  0.1700  0.0452 -0.2791
 7350TIP3    H121972   5.721   6.464   1.877 -1.0365  0.9837 -1.9532
 7350TIP3    H221973   5.772   6.602   1.840 -1.3055  1.6915  0.1739
 7351TIP3   OH221974   4.689   5.075   5.483  0.4772  0.1211  0.1167
 7351TIP3    H121975   4.711   4.985   5.457  0.6290  0.1344  0.1964
 7351TIP3    H221976   4.597   5.069   5.510  0.7812 -0.2450  1.1303
 7352TIP3   OH221977   6.441   0.863   1.882  0.5300  0.8970 -0.1112
 7352TIP3    H121978   6.456   0.786   1.937 -0.8643 -0.5758 -1.6580
 7352TIP3    H221979   6.347   0.881   1.891  0.3820  0.9687 -1.5039
 7353TIP3   OH221980   5.056   1.561   1.602 -0.3083 -0.3322 -0.1282
 7353TIP3    H121981   5.150   1.568   1.587  0.0625  0.7092  2.2756
 7353TIP3    H221982   5.017   1.622   1.539  0.7677  0.5572  0.0290
 7354TIP3   OH221983   0.705   4.570   4.874  0.2591 -0.1369  0.3698
 7354TIP3    H121984   0.617   4.555   4.841  1.1380  1.0772 -2.9788
 7354TIP3    H221985   0.715   4.665   4.875  1.1022 -0.2027  2.0670
 7355TIP3   OH221986   0.903   8.103   0.619 -0.0568 -0.3884 -0.3472
 7355TIP3    H121987   0.926   8.071   0.706  0.3468  0.9096  0.0312
 7355TIP3    H221988   0.983   8.092   0.567  0.4637  1.1149  0.1093
 7356TIP3   OH221989   0.687   4.408   6.395  0.2219  0.3054 -0.2602
 7356TIP3    H121990   0.650   4.445   6.475 -0.3053 -0.8168  0.0267
 7356TIP3    H221991   0.655   4.465   6.325  0.8973  1.4484  0.3236
 7357TIP3   OH221992   7.669   5.765   3.115 -0.7536  0.5930  0.3390
 7357TIP3    H121993   7.622   5.801   3.041  2.5413  0.2876 -2.1345
 7357TIP3    H221994   7.717   5.839   3.151  0.7581  0.0379 -0.4519
 7358TIP3   OH221995   6.902   8.063   0.618  0.0851  0.3833 -0.0948
 7358TIP3    H121996   6.842   8.001   0.659 -0.3040  0.7440 -0.1075
 7358TIP3    H221997   6.863   8.149   0.635  0.5331  0.6157 -0.2118
 7359TIP3   OH221998   0.446   1.893   2.625 -0.5517  0.3510 -0.1619
 7359TIP3    H121999   0.491   1.865   2.545 -0.4136  1.5553 -0.5270
 7359TIP3    H222000   0.458   1.820   2.686  0.6674  0.0498 -0.7325
 7360TIP3   OH222001   3.653   4.080   1.197 -0.0764  0.0033  0.0233
 7360TIP3    H122002   3.573   4.031   1.178  1.1109 -1.1176 -2.6221
 7360TIP3    H222003   3.653   4.151   1.133  1.1007 -0.1330 -0.1599
 7361TIP3   OH222004   3.188   5.663   4.835  0.3920  0.3573 -0.2306
 7361TIP3    H122005   3.277   5.688   4.861 -0.2991  1.7480  0.9644
 7361TIP3    H222006   3.152   5.619   4.913 -0.7529  2.0131  0.2391
 7362TIP3   OH222007   7.609   3.075   1.637  0.4683 -0.1649 -0.1655
 7362TIP3    H122008   7.646   2.998   1.594 -0.5519 -0.4834 -0.5159
 7362TIP3    H222009   7.516   3.072   1.615  0.1427  0.3523  1.0576
 7363TIP3   OH222010   6.821   3.088   1.525  0.1154 -0.2695  0.4371
 7363TIP3    H122011   6.890   3.091   1.460 -0.6346  1.8079 -0.3413
 7363TIP3    H222012   6.794   2.996   1.527  1.6444 -0.7727 -0.5436
 7364TIP3   OH222013   2.109   3.239   0.029  0.0103 -0.3395  0.2146
 7364TIP3    H122014   2.151   3.155   0.050  0.3682 -0.1606  0.2232
 7364TIP3    H222015   2.107   3.241  -0.066 -0.7943 -0.7458  0.2125
 7365TIP3   OH222016   7.713   7.275   3.906  0.6515  0.2379  0.0135
 7365TIP3    H122017   7.788   7.334   3.918  0.9264  0.1391 -1.0676
 7365TIP3    H222018   7.737   7.196   3.954  1.8626 -0.2950 -1.3814
 7366TIP3   OH222019   3.827   7.961   3.752 -0.2250  0.6294 -0.5468
 7366TIP3    H122020   3.914   7.935   3.783  0.2341  2.0406 -0.5534
 7366TIP3    H222021   3.825   7.935   3.660 -0.3973 -0.7500 -0.1743
 7367TIP3   OH222022   8.178   0.087   6.154  0.3474  0.2115  0.3526
 7367TIP3    H122023   8.096   0.051   6.189  0.0234 -0.4983 -1.0742
 7367TIP3    H222024   8.185   0.173   6.194 -1.4517  0.5553 -0.0018
 7368TIP3   OH222025   3.776   0.748   3.984  0.1324  0.3172  0.0787
 7368TIP3    H122026   3.847   0.769   3.923  0.1366  2.0417  0.6190
 7368TIP3    H222027   3.748   0.833   4.018 -0.5868 -0.5224  1.6922
 7369TIP3   OH222028   0.970   2.414   1.189  0.2241 -0.1879 -0.0878
 7369TIP3    H122029   1.025   2.467   1.247  0.6081  0.2292 -0.8177
 7369TIP3    H222030   0.977   2.325   1.224  1.7876 -0.2426 -0.4626
 7370TIP3   OH222031   3.410   6.859   0.458 -0.5854  0.0247 -0.6706
 7370TIP3    H122032   3.460   6.932   0.496 -1.7739  1.4073 -1.6681
 7370TIP3    H222033   3.319   6.888   0.462 -1.2051 -1.8352 -0.2318
 7371TIP3   OH222034   7.387   1.998   3.365 -0.1000  0.6395 -0.1295
 7371TIP3    H122035   7.447   2.057   3.319 -0.6413  0.8186 -0.6232
 7371TIP3    H222036   7.444   1.940   3.415  0.4776  0.8941 -0.4809
 7372TIP3   OH222037   5.145   4.444   5.919 -0.0595  0.1462  0.1060
 7372TIP3    H122038   5.090   4.366   5.909 -0.0947  0.1748  0.0799
 7372TIP3    H222039   5.226   4.410   5.959  0.0145  0.0585 -0.1172
 7373TIP3   OH222040   1.863   7.615   5.762  0.0909 -0.3123  0.5706
 7373TIP3    H122041   1.910   7.691   5.729  0.1636 -0.7518 -0.3888
 7373TIP3    H222042   1.912   7.588   5.840  1.2099 -0.5250 -0.1807
 7374TIP3   OH222043   5.754   2.281   5.883  0.0369  0.0671  0.1222
 7374TIP3    H122044   5.715   2.232   5.811  0.9707 -0.7471  0.1507
 7374TIP3    H222045   5.767   2.216   5.952  1.3531  0.3364  0.1441
 7375TIP3   OH222046   1.515   2.025   2.929 -0.1571  0.2532  0.5190
 7375TIP3    H122047   1.481   2.001   2.843  1.6952  0.2362 -0.2356
 7375TIP3    H222048   1.563   1.948   2.959  0.3386  0.7314  0.9819
 7376TIP3   OH222049   2.844   2.959   4.581  0.1696  0.6224 -0.4488
 7376TIP3    H122050   2.888   2.989   4.661  1.0950  0.4099 -0.8607
 7376TIP3    H222051   2.760   3.004   4.582 -0.5410 -0.6185  1.4785
 7377TIP3   OH222052   7.017   5.889   5.977 -0.5819 -0.2365 -0.1811
 7377TIP3    H122053   7.084   5.929   6.031 -0.7616 -0.9188  0.5726
 7377TIP3    H222054   6.955   5.960   5.959  0.7542  0.6201 -1.6223
 7378TIP3   OH222055   7.122   4.536   6.054 -0.0566  0.3644 -1.2533
 7378TIP3    H122056   7.180   4.502   6.123 -0.2484  0.4903 -1.0269
 7378TIP3    H222057   7.087   4.458   6.011 -0.2698  0.2741 -0.9238
 7379TIP3   OH222058   2.970   1.479   1.856 -0.8211  0.3689  0.0037
 7379TIP3    H122059   2.999   1.566   1.827  1.3857 -0.2699  0.1250
 7379TIP3    H222060   2.936   1.438   1.777 -3.5411  1.9056  0.2800
 7380TIP3   OH222061   3.980   1.317   0.633  0.2499 -0.4717  0.5165
 7380TIP3    H122062   4.046   1.288   0.696 -1.6732 -0.6985  2.5503
 7380TIP3    H222063   3.987   1.412   0.633 -1.4883 -0.2227  3.3091
 7381TIP3   OH222064   6.602   4.153   3.287  0.2286 -0.3099  0.0005
 7381TIP3    H122065   6.536   4.084   3.296  0.2393 -0.5157 -1.2555
 7381TIP3    H222066   6.673   4.112   3.239 -0.3365  0.8869 -2.0121
 7382TIP3   OH222067   0.833   6.288   6.000 -0.4576 -0.3947 -0.2208
 7382TIP3    H122068   0.884   6.358   5.959  1.3808 -1.7089 -0.2942
 7382TIP3    H222069   0.896   6.242   6.056 -1.9536 -1.1254  0.9333
 7383TIP3   OH222070   7.177   2.101   1.785  0.0550 -0.3000  0.2372
 7383TIP3    H122071   7.250   2.070   1.838 -0.3634 -1.1817  0.3188
 7383TIP3    H222072   7.099   2.068   1.830 -0.3087 -1.0956 -0.9346
 7384TIP3   OH222073   0.771   0.650   1.909 -0.5563 -0.0759 -0.2182
 7384TIP3    H122074   0.861   0.628   1.929 -0.2337  1.3448  0.0009
 7384TIP3    H222075   0.719   0.602   1.973  0.1263  0.0595  0.4518
 7385TIP3   OH222076  -0.002   6.496   1.313  0.0903 -0.4844  0.1694
 7385TIP3    H122077   0.065   6.535   1.370 -0.1404 -0.4090  0.3909
 7385TIP3    H222078  -0.051   6.570   1.279  1.3215 -0.3927 -1.5380
 7386TIP3   OH222079   5.441   0.120   3.598 -0.3617  0.0367  0.0941
 7386TIP3    H122080   5.395   0.121   3.514 -0.3882 -1.5566  0.0654
 7386TIP3    H222081   5.518   0.065   3.582  0.8934  1.6188  0.4982
 7387TIP3   OH222082   2.562   0.286   2.461 -0.3560  0.0010 -0.0277
 7387TIP3    H122083   2.508   0.349   2.414 -1.0193 -1.5694 -1.4355
 7387TIP3    H222084   2.503   0.245   2.524 -0.8697 -1.6544 -1.5091
 7388TIP3   OH222085   7.672   5.802   2.136 -0.2816 -0.0528  0.3831
 7388TIP3    H122086   7.600   5.743   2.156  0.1632  0.0726  2.5231
 7388TIP3    H222087   7.734   5.748   2.086 -1.1930 -0.5319 -0.2714
 7389TIP3   OH222088   5.169   4.067   5.238  0.1754  0.3341 -0.2361
 7389TIP3    H122089   5.225   4.096   5.310  0.4450 -0.9586  0.0997
 7389TIP3    H222090   5.229   4.055   5.164 -0.0265  1.1776 -0.5483
 7390TIP3   OH222091   4.676   6.107   6.717 -0.5016 -0.1052  0.1179
 7390TIP3    H122092   4.600   6.056   6.746 -0.0169  0.0910  1.7946
 7390TIP3    H222093   4.709   6.059   6.641 -0.9103 -1.4968  0.7954
 7391TIP3   OH222094   5.763   1.444   2.474  0.6045  0.0217 -0.0350
 7391TIP3    H122095   5.713   1.363   2.488 -1.0606  0.4471 -2.7962
 7391TIP3    H222096   5.847   1.428   2.517  0.2340 -3.0862 -0.2585
 7392TIP3   OH222097   7.226   2.591   5.227 -0.5222  0.1484 -0.2713
 7392TIP3    H122098   7.175   2.520   5.188 -2.5437  1.0427  0.6367
 7392TIP3    H222099   7.168   2.667   5.225  0.2844  0.9058  1.9289
 7393TIP3   OH222100   1.180   7.011   4.839 -0.1430 -0.4064  0.3773
 7393TIP3    H122101   1.193   6.924   4.804  0.6700 -0.2919  0.3846
 7393TIP3    H222102   1.257   7.028   4.893  0.3053  0.7838 -0.5888
 7394TIP3   OH222103   6.205   0.700   1.274 -0.1307  0.4932 -0.0006
 7394TIP3    H122104   6.297   0.718   1.253  0.2931  1.4411  2.3187
 7394TIP3    H222105   6.208   0.618   1.324 -0.5706  0.3777 -0.1649
 7395TIP3   OH222106   2.072   7.852   1.315 -0.1837 -0.2331  0.0299
 7395TIP3    H122107   2.165   7.873   1.305  0.5276 -3.0633 -0.1736
 7395TIP3    H222108   2.067   7.803   1.397 -0.7250 -3.4197 -1.7150
 7396TIP3   OH222109   3.639   7.000   4.294  0.7692  0.0863  0.1810
 7396TIP3    H122110   3.632   7.065   4.223  1.2310  0.5180  0.5175
 7396TIP3    H222111   3.728   6.966   4.285  0.0276 -1.6637 -0.9637
 7397TIP3   OH222112   0.170   5.793   1.760 -0.3200  0.0053 -0.0712
 7397TIP3    H122113   0.095   5.823   1.810  0.5281  0.1303  1.1673
 7397TIP3    H222114   0.236   5.770   1.826  0.3821 -1.0376 -1.0933
 7398TIP3   OH222115   7.163   5.556   5.472 -0.1864 -0.1296 -0.4175
 7398TIP3    H122116   7.084   5.508   5.449 -0.1079  0.5626 -2.3728
 7398TIP3    H222117   7.135   5.647   5.479  0.4148  0.1217 -1.1316
 7399TIP3   OH222118   3.800   1.006   6.098  0.4028 -0.4059  0.3880
 7399TIP3    H122119   3.825   1.095   6.073  1.8000 -1.1066 -0.8633
 7399TIP3    H222120   3.791   0.959   6.015 -2.4747 -0.9363  0.8958
 7400TIP3   OH222121   4.254   7.230   4.383 -0.2622 -0.2383  0.0724
 7400TIP3    H122122   4.263   7.297   4.451  0.3018 -1.6141  1.4108
 7400TIP3    H222123   4.333   7.239   4.330 -1.2527  1.6298 -1.2145
 7401TIP3   OH222124   1.559   0.938   6.132  0.0142  0.6098  0.1037
 7401TIP3    H122125   1.478   0.888   6.141 -0.1501  0.8615  0.0515
 7401TIP3    H222126   1.560   0.965   6.040  1.1080 -0.9827 -0.3883
 7402TIP3   OH222127   1.669   6.724   0.581 -0.5183  0.1725 -0.2155
 7402TIP3    H122128   1.754   6.736   0.539  0.4422  1.0264  1.8263
 7402TIP3    H222129   1.688   6.682   0.665 -2.2524 -0.7788 -0.2443
 7403TIP3   OH222130   1.971   3.222   5.426  0.4817  0.5500  0.3192
 7403TIP3    H122131   2.004   3.188   5.509 -1.0456 -1.2052  0.2448
 7403TIP3    H222132   1.929   3.305   5.450  0.2908  0.2003  1.2495
 7404TIP3   OH222133   4.684   6.606   3.197  0.3872 -0.2203  0.4301
 7404TIP3    H122134   4.688   6.627   3.290  0.3113 -0.2040  0.4300
 7404TIP3    H222135   4.632   6.677   3.159  0.6232 -0.0976  0.3369
 7405TIP3   OH222136   4.435   3.235   4.752  0.0831 -0.2940 -0.4532
 7405TIP3    H122137   4.436   3.172   4.824  1.8181 -0.2571 -0.4230
 7405TIP3    H222138   4.344   3.233   4.720 -0.3680 -1.3373  0.8124
 7406TIP3   OH222139   5.923   7.868   1.199  0.1765 -0.5406  0.0492
 7406TIP3    H122140   5.989   7.841   1.262  0.7451 -1.2650 -0.8153
 7406TIP3    H222141   5.973   7.888   1.120 -0.6230 -1.1077 -0.6210
 7407TIP3   OH222142   5.030   2.317   2.469  0.0929  0.3420 -0.2634
 7407TIP3    H122143   5.014   2.227   2.439  0.8487 -0.1677  0.7786
 7407TIP3    H222144   4.990   2.372   2.402  1.2951 -0.7370 -1.9493
 7408TIP3   OH222145   2.000   5.775   4.742  0.0791  0.6659  0.3087
 7408TIP3    H122146   1.941   5.848   4.729 -0.1929  0.2410 -1.0668
 7408TIP3    H222147   2.033   5.755   4.654  1.1451 -0.0293  0.8385
 7409TIP3   OH222148   5.234   3.460   6.544  0.3528  0.5760  0.5370
 7409TIP3    H122149   5.164   3.521   6.567  1.0229  2.1060 -1.3046
 7409TIP3    H222150   5.312   3.495   6.586  0.5364  0.3583  0.3813
 7410TIP3   OH222151   2.748   1.317   0.706 -0.0227 -0.0512  0.4334
 7410TIP3    H122152   2.781   1.257   0.639 -0.4339  1.0879 -0.8292
 7410TIP3    H222153   2.664   1.278   0.733 -0.6874  0.3203 -0.9649
 7411TIP3   OH222154   0.594   7.851   3.587  0.4067 -0.3147  0.0722
 7411TIP3    H122155   0.562   7.855   3.497 -0.3992 -0.6766  0.3316
 7411TIP3    H222156   0.670   7.794   3.583 -1.3185 -2.7918  0.0515
 7412TIP3   OH222157   5.495   7.441   6.614  0.2765  0.0528  0.4188
 7412TIP3    H122158   5.523   7.531   6.596 -0.3729  0.0415 -0.7800
 7412TIP3    H222159   5.490   7.435   6.709  0.8107  1.1326  0.5259
 7413TIP3   OH222160   6.131   6.104   2.343  0.5657  0.2314 -0.3387
 7413TIP3    H122161   6.215   6.111   2.297  0.4256 -0.6120 -0.7406
 7413TIP3    H222162   6.101   6.015   2.325  0.1696  0.1142  0.8315
 7414TIP3   OH222163   5.735   6.413   5.035 -0.1363 -0.2823 -0.6075
 7414TIP3    H122164   5.790   6.420   5.113  0.3875 -0.0166 -0.9907
 7414TIP3    H222165   5.773   6.476   4.974 -0.6446 -0.3674 -1.0144
 7415TIP3   OH222166   4.329   3.643   3.895  0.4809 -0.2651 -0.4691
 7415TIP3    H122167   4.337   3.722   3.842 -0.6355  0.6956  0.7394
 7415TIP3    H222168   4.384   3.659   3.972 -1.2971  0.2550  0.7713
 7416TIP3   OH222169   3.035   6.528   6.609 -0.7088 -0.3424 -0.8349
 7416TIP3    H122170   3.090   6.461   6.649  0.6171  1.2907  0.2190
 7416TIP3    H222171   3.052   6.521   6.516  0.6212 -0.4822 -0.5989
 7417TIP3   OH222172   0.398   1.535   2.250 -0.0454 -0.7532 -0.3044
 7417TIP3    H122173   0.363   1.623   2.264  0.8874 -0.1291 -1.6541
 7417TIP3    H222174   0.476   1.530   2.305  0.6798 -0.2093 -1.2559
 7418TIP3   OH222175   1.029   3.298   2.755  0.1755  0.5744 -0.3868
 7418TIP3    H122176   1.055   3.366   2.816 -0.6707 -0.4228  1.1575
 7418TIP3    H222177   0.933   3.300   2.756  0.1294 -0.5738 -0.3562
 7419TIP3   OH222178   1.999   0.872   0.500  0.3792  0.1921  0.2645
 7419TIP3    H122179   1.905   0.858   0.490 -0.0625  1.8628  1.5594
 7419TIP3    H222180   2.013   0.880   0.594  1.5558  1.4412  0.0372
 7420TIP3   OH222181   6.500   0.103   4.340 -0.2803  0.1573 -0.4957
 7420TIP3    H122182   6.435   0.172   4.333 -1.5541 -0.7379  1.5108
 7420TIP3    H222183   6.553   0.111   4.261 -0.9420  2.8140 -0.7590
 7421TIP3   OH222184   0.345   3.641   6.511  0.3205 -0.2615  0.5812
 7421TIP3    H122185   0.298   3.716   6.548 -0.9308 -0.4737 -0.5036
 7421TIP3    H222186   0.317   3.566   6.563 -0.3284 -0.3375  0.1358
 7422TIP3   OH222187   4.436   1.542   0.236 -0.1225 -0.1845 -0.7401
 7422TIP3    H122188   4.392   1.597   0.171  0.6343  0.6943 -0.5380
 7422TIP3    H222189   4.500   1.601   0.278 -0.4429 -0.7890  0.6492
 7423TIP3   OH222190   5.453   6.964   0.369 -0.4586 -0.2493  0.2361
 7423TIP3    H122191   5.475   6.891   0.310 -1.1131  0.0095 -0.3373
 7423TIP3    H222192   5.516   7.032   0.348 -1.0052  0.0319 -0.5378
 7424TIP3   OH222193   4.993   7.657   2.678  0.2300 -0.2096  0.0653
 7424TIP3    H122194   5.039   7.636   2.759  1.8000  1.2844 -0.3837
 7424TIP3    H222195   5.019   7.588   2.617  0.9216 -0.0546  0.1757
 7425TIP3   OH222196   8.365   6.035   6.472 -0.4605  0.4582 -0.7774
 7425TIP3    H122197   8.317   6.064   6.395 -1.5922  2.4286  0.5605
 7425TIP3    H222198   8.361   6.110   6.532 -0.5828 -1.3375  1.6309
 7426TIP3   OH222199   3.704   2.041   2.739  0.2112  0.3219 -0.0572
 7426TIP3    H122200   3.668   2.090   2.812 -0.6493  0.1779 -0.3759
 7426TIP3    H222201   3.629   1.997   2.700  0.3783  1.5998 -1.9590
 7427TIP3   OH222202   8.437   0.628   0.515 -0.7740  0.6026  0.0666
 7427TIP3    H122203   8.443   0.686   0.591 -0.8640  1.3231 -0.4708
 7427TIP3    H222204   8.511   0.568   0.525  0.5987  2.1462 -0.4731
 7428TIP3   OH222205   5.407   5.877   6.482 -0.5070  0.0164 -0.1910
 7428TIP3    H122206   5.455   5.858   6.402 -0.6200  1.1800 -0.5672
 7428TIP3    H222207   5.396   5.973   6.481  1.4200  0.3749  2.2974
 7429TIP3   OH222208   4.792   4.330   3.971 -0.1205 -0.2855 -0.1603
 7429TIP3    H122209   4.699   4.336   3.949 -0.3455 -1.5111  0.3636
 7429TIP3    H222210   4.831   4.286   3.896  0.4723  2.1463 -1.3807
 7430TIP3   OH222211   1.628   6.640   2.464 -0.2878  1.0994 -0.2065
 7430TIP3    H122212   1.688   6.569   2.487  0.7715  1.9110 -0.3331
 7430TIP3    H222213   1.658   6.714   2.518 -2.9447  0.8168  1.8325
 7431TIP3   OH222214   5.045   5.719   5.876  0.0249  0.3278  0.1721
 7431TIP3    H122215   4.995   5.692   5.953  0.2260 -0.9795 -0.1313
 7431TIP3    H222216   5.046   5.815   5.881 -0.2265  0.2826  1.6197
 7432TIP3   OH222217   8.004   8.037   2.716  0.6077 -0.0819 -0.0226
 7432TIP3    H122218   8.028   7.983   2.791  3.5549 -0.1993 -0.9222
 7432TIP3    H222219   8.077   8.098   2.706 -0.0158  0.3812 -2.3470
 7433TIP3   OH222220   7.159   5.302   2.259 -0.2340 -0.1865  0.2252
 7433TIP3    H122221   7.148   5.280   2.166  0.4589 -0.4739  0.2044
 7433TIP3    H222222   7.119   5.388   2.268 -0.1424 -0.0722 -0.3840
 7434TIP3   OH222223   5.482   3.220   3.270 -0.2057 -0.5259 -0.0586
 7434TIP3    H122224   5.442   3.282   3.209  0.0741 -0.7143 -0.4399
 7434TIP3    H222225   5.426   3.222   3.348 -0.2952  0.0718 -0.1371
 7435TIP3   OH222226   7.746   4.133   2.462 -0.2192  0.4647 -0.6447
 7435TIP3    H122227   7.655   4.157   2.441 -0.4984  1.6977  1.6430
 7435TIP3    H222228   7.748   4.038   2.454 -2.1766  0.2518  0.7824
 7436TIP3   OH222229   3.287   7.532   3.419  0.2821 -0.2172  0.5693
 7436TIP3    H122230   3.364   7.512   3.472  0.3241  0.1345  0.6427
 7436TIP3    H222231   3.320   7.589   3.349  0.1897 -0.5118  0.2842
 7437TIP3   OH222232   8.590   6.821   6.454  0.3128 -0.1051 -0.3533
 7437TIP3    H122233   8.583   6.740   6.506  0.9819 -0.0402 -0.1639
 7437TIP3    H222234   8.566   6.891   6.515 -0.6779 -0.1841 -0.6276
 7438TIP3   OH222235   8.070   3.645   2.259  0.0933 -0.4087 -0.4304
 7438TIP3    H122236   8.040   3.637   2.350 -2.4078  2.4179 -0.8334
 7438TIP3    H222237   8.029   3.571   2.214 -3.2381  1.0934 -0.1457
 7439TIP3   OH222238   8.576   5.423   4.082 -0.2951  0.5354  0.1818
 7439TIP3    H122239   8.667   5.415   4.053 -0.9819 -0.3403 -2.0240
 7439TIP3    H222240   8.580   5.421   4.177  1.8205 -2.3743  0.1750
 7440TIP3   OH222241   4.088   6.373   1.893 -0.1590 -0.8869  0.1446
 7440TIP3    H122242   4.057   6.323   1.817 -1.9055 -0.1438  0.3265
 7440TIP3    H222243   4.172   6.411   1.864 -0.7282 -0.7054 -1.3778
 7441TIP3   OH222244   2.030   6.224   6.348  0.4269  0.0245 -0.0482
 7441TIP3    H122245   2.097   6.161   6.323  1.4212  1.0688 -0.0914
 7441TIP3    H222246   2.061   6.260   6.431  0.9405  1.9107 -0.9985
 7442TIP3   OH222247   4.656   5.690   1.446  0.1973  0.4049 -0.3933
 7442TIP3    H122248   4.713   5.703   1.370  0.6324 -1.1202 -0.3596
 7442TIP3    H222249   4.629   5.598   1.440  0.5694  0.1337  1.5089
 7443TIP3   OH222250   4.244   1.271   2.904  0.3107 -0.1422  0.2873
 7443TIP3    H122251   4.297   1.264   2.824 -0.1331 -0.6953  0.0379
 7443TIP3    H222252   4.278   1.349   2.948  0.9391 -0.1527 -0.1617
 7444TIP3   OH222253   6.355   8.040   5.400 -0.0342 -0.4234  0.0437
 7444TIP3    H122254   6.335   8.019   5.491 -0.0997 -0.6012 -0.0132
 7444TIP3    H222255   6.403   8.123   5.406 -1.3519  0.3596  0.1356
 7445TIP3   OH222256   6.329   7.315   6.046  0.4184  0.0528 -0.2159
 7445TIP3    H122257   6.303   7.378   6.113 -1.8926 -0.2673 -0.7469
 7445TIP3    H222258   6.308   7.358   5.963 -0.1027 -0.9562 -0.6204
 7446TIP3   OH222259   4.077   1.924   6.028 -0.9749 -0.2705 -0.0396
 7446TIP3    H122260   4.083   2.019   6.044  2.7831 -0.1470 -1.1744
 7446TIP3    H222261   4.110   1.884   6.109 -0.4229 -0.4875 -0.3670
 7447TIP3   OH222262   3.780   5.097   4.383 -0.1530 -0.5408  0.2018
 7447TIP3    H122263   3.855   5.137   4.338  0.0788 -0.3724  0.7249
 7447TIP3    H222264   3.776   5.144   4.466 -0.8188 -0.5787  0.1929
 7448TIP3   OH222265   8.649   1.055   0.185 -0.6532 -0.6934  0.0935
 7448TIP3    H122266   8.621   0.980   0.238 -2.4346 -0.2706 -0.2169
 7448TIP3    H222267   8.604   1.130   0.223 -1.8053 -0.3411 -1.8335
 7449TIP3   OH222268   2.099   4.249   3.076 -0.3742  0.1610 -0.4742
 7449TIP3    H122269   2.012   4.221   3.047 -1.0159  1.1025  0.4534
 7449TIP3    H222270   2.154   4.172   3.063 -1.1700 -0.2290 -1.7756
 7450TIP3   OH222271   6.206   8.128   2.123  0.1475 -0.0499  0.3696
 7450TIP3    H122272   6.116   8.144   2.151  0.1212  1.1470 -0.3412
 7450TIP3    H222273   6.250   8.094   2.201 -1.1119 -1.4597  0.5018
 7451TIP3   OH222274   6.036   6.851   2.548  0.5044  0.3691 -0.1536
 7451TIP3    H122275   5.969   6.887   2.491 -0.4927  0.5204  1.0587
 7451TIP3    H222276   6.020   6.756   2.547  1.1258  0.2677 -0.8960
 7452TIP3   OH222277   2.192   4.847   1.621 -0.0085 -0.6936  0.0121
 7452TIP3    H122278   2.263   4.803   1.666  0.0970 -0.8273 -0.2833
 7452TIP3    H222279   2.188   4.934   1.661  0.2672 -0.7134  0.0827
 7453TIP3   OH222280   4.205   4.359   0.185 -0.0590  0.4860 -0.6367
 7453TIP3    H122281   4.272   4.306   0.142  0.5133  0.6620  0.0334
 7453TIP3    H222282   4.247   4.392   0.264 -1.3323 -0.4917  0.5030
 7454TIP3   OH222283   0.820   5.843   1.623  0.5653  0.2475  0.2730
 7454TIP3    H122284   0.774   5.759   1.621  0.1184  0.4556 -2.9863
 7454TIP3    H222285   0.913   5.820   1.626  0.4482 -0.3907 -0.7073
 7455TIP3   OH222286   3.467   1.354   6.058  0.6392 -0.7092 -0.3838
 7455TIP3    H122287   3.506   1.393   5.979  0.8817 -1.2405 -0.5259
 7455TIP3    H222288   3.469   1.260   6.042 -2.6890 -0.7484 -1.3568
 7456TIP3   OH222289   6.116   5.938   1.447 -0.1598 -0.0050  0.0701
 7456TIP3    H122290   6.072   6.016   1.482  2.2450  2.8476 -2.6248
 7456TIP3    H222291   6.047   5.892   1.398 -1.6337  0.4083  1.6432
 7457TIP3   OH222292   6.732   0.441   0.828 -0.3514  0.0440  0.1111
 7457TIP3    H122293   6.746   0.490   0.748 -1.5814 -0.0072 -0.1558
 7457TIP3    H222294   6.791   0.480   0.892 -2.5471  3.1341  0.4409
 7458TIP3   OH222295   0.238   2.684   4.831 -0.4392  0.2479 -0.1461
 7458TIP3    H122296   0.311   2.729   4.872  0.4039 -0.4730 -0.8279
 7458TIP3    H222297   0.187   2.649   4.905 -0.3984  1.1863  0.3424
 7459TIP3   OH222298   4.673   7.754   0.401 -0.2796 -0.1792  0.1827
 7459TIP3    H122299   4.659   7.676   0.454 -0.7982 -1.6871 -2.0239
 7459TIP3    H222300   4.595   7.808   0.417 -0.5245 -0.6967  0.7758
 7460TIP3   OH222301   0.239   0.308   3.538  0.5040 -0.1464  0.9583
 7460TIP3    H122302   0.187   0.228   3.533  0.8959 -0.3877  0.7126
 7460TIP3    H222303   0.315   0.284   3.591  1.2959 -0.3212 -0.2194
 7461TIP3   OH222304   2.235   1.756   6.536 -0.3261 -0.5652  0.4031
 7461TIP3    H122305   2.293   1.682   6.517  0.2860 -0.0886  0.3813
 7461TIP3    H222306   2.265   1.787   6.622  0.7953  0.9233 -0.4841
 7462TIP3   OH222307   4.886   7.243   1.571  0.2683  0.2808 -0.7967
 7462TIP3    H122308   4.836   7.323   1.553  0.4059  0.2014 -1.6028
 7462TIP3    H222309   4.834   7.195   1.635 -1.5794 -0.6025 -2.8427
 7463TIP3   OH222310   1.361   3.446   0.220  0.2865 -0.7009  0.0482
 7463TIP3    H122311   1.279   3.425   0.175 -0.7955  0.0697  1.5665
 7463TIP3    H222312   1.374   3.373   0.281  0.7214 -0.8112 -0.1772
 7464TIP3   OH222313   3.294   1.170   6.817  0.1596  0.5616  0.6849
 7464TIP3    H122314   3.353   1.094   6.820  0.0639  0.4998  3.3078
 7464TIP3    H222315   3.207   1.132   6.827  0.1009  0.9454  1.8597
 7465TIP3   OH222316   0.497   4.260   2.328  0.1013 -0.3178  0.1818
 7465TIP3    H122317   0.591   4.241   2.335  0.1652 -0.3347 -0.6228
 7465TIP3    H222318   0.480   4.259   2.234 -0.5019  0.7003  0.2750
 7466TIP3   OH222319   1.436   2.456   1.039  0.6660  0.1426 -0.0515
 7466TIP3    H122320   1.445   2.443   1.133 -0.2760  1.1145  0.1865
 7466TIP3    H222321   1.357   2.408   1.015 -0.7604  2.2247  0.2024
 7467TIP3   OH222322   5.633   4.444   4.227  0.4680  0.1349 -0.3503
 7467TIP3    H122323   5.610   4.411   4.140  3.8661 -0.2961 -1.2527
 7467TIP3    H222324   5.624   4.539   4.220  0.4678  0.0880 -1.1067
 7468TIP3   OH222325   2.276   1.423   4.589  0.3325  0.2119  0.5441
 7468TIP3    H122326   2.201   1.363   4.586 -0.3002  1.0227 -0.6054
 7468TIP3    H222327   2.334   1.386   4.656 -0.2558 -1.4147  0.1929
 7469TIP3   OH222328   8.458   7.437   1.379  0.1768 -0.8009  0.1095
 7469TIP3    H122329   8.520   7.437   1.306  1.3399 -0.0930  1.0690
 7469TIP3    H222330   8.454   7.528   1.408 -0.8509 -0.9436  0.4596
 7470TIP3   OH222331   4.546   5.477   2.271 -0.2123 -0.1705 -0.0752
 7470TIP3    H122332   4.564   5.546   2.334  0.3234  1.0907 -1.5420
 7470TIP3    H222333   4.454   5.489   2.247  0.0177  0.3840 -0.7093
 7471TIP3   OH222334   6.627   3.195   0.180 -0.7464  0.1839  0.1767
 7471TIP3    H122335   6.602   3.119   0.128 -1.3201  1.7343 -1.9170
 7471TIP3    H222336   6.545   3.242   0.195 -0.3936  0.4522  1.4139
 7472TIP3   OH222337   6.241   7.475   5.759  0.7479  0.3485  0.2479
 7472TIP3    H122338   6.318   7.531   5.765  1.4590 -0.4445 -1.1796
 7472TIP3    H222339   6.274   7.391   5.729 -0.8436  0.4606 -2.0831
 7473TIP3   OH222340   5.729   5.988   5.122  0.5058 -0.1226 -0.6583
 7473TIP3    H122341   5.759   5.928   5.191  1.6227  0.7564 -0.3507
 7473TIP3    H222342   5.739   6.075   5.161 -0.3278  0.3164 -1.3909
 7474TIP3   OH222343   3.238   4.311   3.397  0.0201 -0.8703  0.3316
 7474TIP3    H122344   3.173   4.290   3.464 -0.7684 -1.6438 -0.6532
 7474TIP3    H222345   3.194   4.373   3.339 -0.0520 -1.8409 -0.6689
 7475TIP3   OH222346   8.461   3.086   5.741 -0.8352  0.6506  0.9317
 7475TIP3    H122347   8.476   3.130   5.657  0.2569  0.6072  1.0920
 7475TIP3    H222348   8.468   2.993   5.721 -0.9939  0.6230  1.0007
 7476TIP3   OH222349   1.872   0.043   5.374  0.5434 -0.6852 -0.3500
 7476TIP3    H122350   1.777   0.050   5.388  0.6374  1.3565 -0.4846
 7476TIP3    H222351   1.883   0.049   5.279  0.8641  0.6672 -0.2564
 7477TIP3   OH222352   1.864   4.170   3.775  0.1615  0.2132  0.5889
 7477TIP3    H122353   1.936   4.165   3.838 -0.0942  1.4854  1.0327
 7477TIP3    H222354   1.887   4.109   3.706  2.1727  1.3058  0.2206
 7478TIP3   OH222355   3.718   2.812   2.668 -0.2091 -0.0128 -0.9505
 7478TIP3    H122356   3.745   2.764   2.590 -1.3497 -1.7113 -0.3606
 7478TIP3    H222357   3.800   2.839   2.709  0.4612 -0.9119 -1.6412
 7479TIP3   OH222358   5.302   7.798   4.541 -0.0529 -0.4749  0.3205
 7479TIP3    H122359   5.277   7.875   4.592  1.7466 -0.7649  1.7566
 7479TIP3    H222360   5.339   7.835   4.461 -1.1223  0.0619  0.0526
 7480TIP3   OH222361   5.456   0.816   2.792 -0.0857  0.5067  0.0620
 7480TIP3    H122362   5.396   0.752   2.753  1.4949 -0.9171 -0.1177
 7480TIP3    H222363   5.399   0.889   2.817 -1.7232 -0.2879 -1.1560
 7481TIP3   OH222364   4.569   7.973   6.098 -0.0060  0.0423  0.2832
 7481TIP3    H122365   4.627   8.039   6.134  2.1209 -1.8496  0.5932
 7481TIP3    H222366   4.485   7.988   6.141  0.6108  2.0172  0.8989
 7482TIP3   OH222367   4.213   0.508   6.343 -0.3261 -0.2211  0.3201
 7482TIP3    H122368   4.225   0.413   6.354  0.2033 -0.3645 -1.1784
 7482TIP3    H222369   4.188   0.518   6.251 -0.8092  1.0698  0.5717
 7483TIP3   OH222370   3.356   5.708   0.736 -0.2321  0.0901  0.2631
 7483TIP3    H122371   3.289   5.666   0.682 -1.1879  0.7811  0.8694
 7483TIP3    H222372   3.316   5.716   0.822  1.2328 -0.9069  1.0888
 7484TIP3   OH222373   3.123   7.122   5.981  0.3036 -0.2300 -0.7559
 7484TIP3    H122374   3.211   7.156   5.996 -0.2303  1.0238 -0.3518
 7484TIP3    H222375   3.078   7.132   6.065 -0.4091 -0.2870 -1.1230
 7485TIP3   OH222376   3.107   3.883   0.429  0.4365  0.4395  0.1521
 7485TIP3    H122377   3.026   3.889   0.480  0.3647  0.1663  0.0755
 7485TIP3    H222378   3.132   3.790   0.436  1.2538  0.6985  0.9729
 7486TIP3   OH222379   3.906   0.329   5.972  0.5366 -0.0497 -0.1391
 7486TIP3    H122380   3.851   0.381   6.031  0.3161 -0.0950 -0.3041
 7486TIP3    H222381   3.844   0.281   5.917  0.7417 -0.4294 -0.0369
 7487TIP3   OH222382   0.205   4.447   4.567 -0.0819  0.1875  0.5923
 7487TIP3    H122383   0.206   4.543   4.567 -0.8790  0.2101 -0.0166
 7487TIP3    H222384   0.296   4.421   4.582  0.3490  1.0401 -0.4798
 7488TIP3   OH222385   3.852   5.501   6.255 -0.1888  0.5083 -0.0202
 7488TIP3    H122386   3.889   5.554   6.185 -0.6578  0.3373 -0.3984
 7488TIP3    H222387   3.898   5.417   6.249 -0.8499  0.1894 -0.6849
 7489TIP3   OH222388   3.881   7.138   3.431  0.0893 -0.2546 -0.1569
 7489TIP3    H122389   3.906   7.159   3.341  1.5435 -0.7420  0.1161
 7489TIP3    H222390   3.915   7.050   3.445 -0.5165 -0.3558  0.7371
 7490TIP3   OH222391   2.256   3.717   4.570  0.1947  0.1950  0.0042
 7490TIP3    H122392   2.293   3.633   4.541  0.7524  0.1127  0.9297
 7490TIP3    H222393   2.186   3.735   4.507 -1.4117 -2.0549  0.9868
 7491TIP3   OH222394   0.177   6.945   2.504 -0.0511 -0.0702  0.3119
 7491TIP3    H122395   0.109   6.925   2.568  0.9895 -0.1862  1.4022
 7491TIP3    H222396   0.189   6.863   2.455  0.5036 -0.5624  1.2604
 7492TIP3   OH222397   0.955   4.100   7.041 -0.1374 -0.4208 -0.2556
 7492TIP3    H122398   0.923   4.190   7.039 -0.0305 -0.3737  0.1081
 7492TIP3    H222399   0.977   4.080   6.950  2.3539  0.8474 -0.0219
 7493TIP3   OH222400   0.091   4.279   0.504  0.3834 -0.3576 -0.1327
 7493TIP3    H122401   0.165   4.292   0.445  1.6892  2.5332  1.9312
 7493TIP3    H222402   0.017   4.321   0.460  0.4578 -1.3571 -1.2427
 7494TIP3   OH222403   2.637   3.474   6.416 -0.0409 -0.3692 -0.6543
 7494TIP3    H122404   2.602   3.564   6.414 -1.7886 -0.9780  0.3933
 7494TIP3    H222405   2.716   3.480   6.468 -0.3878  0.5051 -0.2079
 7495TIP3   OH222406   5.753   3.540   0.867 -0.3172 -0.4026 -0.2734
 7495TIP3    H122407   5.681   3.553   0.804 -0.2073 -0.1408 -0.3489
 7495TIP3    H222408   5.766   3.627   0.905 -1.2048 -0.8058  1.0154
 7496TIP3   OH222409   5.242   3.373   1.823  0.1763 -0.1188 -0.1546
 7496TIP3    H122410   5.202   3.322   1.894 -0.5860  0.3528 -0.2472
 7496TIP3    H222411   5.218   3.327   1.743  0.1322 -0.0477 -0.1826
 7497TIP3   OH222412   2.994   2.224   4.453  0.3979  0.5241 -0.6312
 7497TIP3    H122413   2.991   2.221   4.357  0.6686  0.1752 -0.6301
 7497TIP3    H222414   2.909   2.192   4.481  0.4960  0.1599 -0.7480
 7498TIP3   OH222415   7.281   1.095   5.362  0.3429 -0.1077 -0.2782
 7498TIP3    H122416   7.221   1.023   5.340 -0.4397 -0.1292  1.7522
 7498TIP3    H222417   7.367   1.060   5.340 -0.1362 -1.1671 -0.5908
 7499TIP3   OH222418   4.233   6.721   3.391 -0.0671  0.4264  0.4575
 7499TIP3    H122419   4.239   6.753   3.481 -1.8698 -0.3381  0.9039
 7499TIP3    H222420   4.146   6.681   3.386  0.4176 -0.4994 -1.3256
 7500TIP3   OH222421   8.258   1.547   4.688 -0.4747  0.6353  0.3967
 7500TIP3    H122422   8.295   1.521   4.603 -2.3797 -1.4834  0.1232
 7500TIP3    H222423   8.298   1.487   4.750 -1.6254 -0.1149  0.4408
 7501TIP3   OH222424   5.589   6.199   1.341 -0.1084 -0.0965 -0.0657
 7501TIP3    H122425   5.548   6.232   1.421 -0.9698  0.0196 -0.5447
 7501TIP3    H222426   5.678   6.232   1.345 -0.1084 -0.1820  0.9000
 7502TIP3   OH222427   3.996   2.590   0.965  0.3605  0.0059 -0.2949
 7502TIP3    H122428   4.020   2.504   0.931  1.8165 -0.1127  0.9496
 7502TIP3    H222429   4.078   2.639   0.968 -0.4987  1.6001 -1.3409
 7503TIP3   OH222430   0.125   7.385   1.766  0.1638  0.1667  0.2968
 7503TIP3    H122431   0.169   7.370   1.850 -0.6344  0.1742  0.7181
 7503TIP3    H222432   0.040   7.342   1.775  0.0130  0.2975 -0.4548
 7504TIP3   OH222433   5.128   7.115   6.115 -0.3269  0.0002  0.1693
 7504TIP3    H122434   5.134   7.020   6.126 -0.6936  0.1317  1.7733
 7504TIP3    H222435   5.073   7.127   6.037 -0.2988 -1.0947 -0.0313
 7505TIP3   OH222436   3.118   5.064   4.288 -0.4461  0.1055 -0.3686
 7505TIP3    H122437   3.106   5.131   4.220 -1.3585 -0.6725 -0.9834
 7505TIP3    H222438   3.115   5.113   4.370  0.7632  1.0761 -0.8563
 7506TIP3   OH222439   6.373   3.484   2.411  0.5037  0.5307  0.0446
 7506TIP3    H122440   6.432   3.495   2.485  0.9319 -0.7216 -0.0815
 7506TIP3    H222441   6.373   3.389   2.394 -3.2570  0.1380  1.4198
 7507TIP3   OH222442   5.687   2.911   2.772 -0.1507  0.2150 -0.2492
 7507TIP3    H122443   5.760   2.967   2.748  1.0388 -0.1722  2.1736
 7507TIP3    H222444   5.610   2.952   2.732  1.1352  1.6299 -1.3440
 7508TIP3   OH222445   0.781   5.014   3.106  0.0192 -0.2127  0.2678
 7508TIP3    H122446   0.715   5.080   3.126  0.7809  1.0868 -1.2762
 7508TIP3    H222447   0.747   4.969   3.029  1.0288  0.6570 -0.7115
 7509TIP3   OH222448   5.109   6.238   1.480 -0.2982  0.0241  0.3849
 7509TIP3    H122449   5.129   6.294   1.555  0.9228 -0.1804  0.2273
 7509TIP3    H222450   5.098   6.150   1.518  0.1932 -0.0564  0.3475
 7510TIP3   OH222451   2.928   5.395   5.281 -0.2560  0.3304  0.6265
 7510TIP3    H122452   2.977   5.473   5.308 -0.2581  0.4165  0.3856
 7510TIP3    H222453   2.876   5.371   5.358  1.5754 -0.8892  1.5371
 7511TIP3   OH222454   2.944   7.689   1.660  0.0715 -0.1114 -0.1830
 7511TIP3    H122455   3.038   7.704   1.654  0.0319  0.5782  0.6210
 7511TIP3    H222456   2.917   7.666   1.572  0.7836  1.0149 -0.7161
 7512TIP3   OH222457   2.507   0.778   3.997 -0.7833 -0.1098  0.0377
 7512TIP3    H122458   2.440   0.805   3.933  0.2721 -0.6712 -1.3504
 7512TIP3    H222459   2.581   0.749   3.943  0.2152 -0.4290  1.5362
 7513TIP3   OH222460   5.373   6.944   5.534  0.1800 -0.2141 -0.2313
 7513TIP3    H122461   5.406   7.034   5.528 -0.9293  0.2833  0.7989
 7513TIP3    H222462   5.305   6.939   5.467  1.0663 -0.6847 -1.1226
 7514TIP3   OH222463   2.802   2.598   3.439 -0.0143  0.0085  0.3278
 7514TIP3    H122464   2.831   2.686   3.464 -1.8918  1.6195 -2.5882
 7514TIP3    H222465   2.720   2.585   3.487 -1.5797  1.4574 -1.7684
 7515TIP3   OH222466   7.373   3.474   2.251  0.0673 -0.7833  0.1435
 7515TIP3    H122467   7.449   3.530   2.234  0.9533 -1.8910  0.3153
 7515TIP3    H222468   7.325   3.473   2.168 -0.6427  1.1578  0.4686
 7516TIP3   OH222469   5.473   6.609   5.964  0.2424  0.0634 -0.2599
 7516TIP3    H122470   5.481   6.515   5.947  0.7655  0.0536  0.0204
 7516TIP3    H222471   5.554   6.632   6.009 -0.1010  0.5497  0.1280
 7517TIP3   OH222472   7.950   6.877   5.557 -0.1427 -0.1535  0.2399
 7517TIP3    H122473   7.947   6.783   5.574  0.6959 -0.3290 -0.4756
 7517TIP3    H222474   7.938   6.884   5.462  1.8065  0.2983 -0.0175
 7518TIP3   OH222475   7.454   0.462   1.033 -0.1959 -0.3412 -0.3521
 7518TIP3    H122476   7.427   0.420   0.951 -1.9818  0.6466 -0.3269
 7518TIP3    H222477   7.416   0.407   1.101 -2.6133  1.1814 -0.3196
 7519TIP3   OH222478   6.430   7.519   4.534 -0.3235 -0.0928  0.3340
 7519TIP3    H122479   6.445   7.607   4.568  0.7851 -1.1826  2.8923
 7519TIP3    H222480   6.505   7.503   4.476  0.0524  0.2290  0.7263
 7520TIP3   OH222481   5.445   3.861   2.835 -0.5305  0.5275 -0.2447
 7520TIP3    H122482   5.528   3.854   2.786 -0.1005  0.0922  0.5276
 7520TIP3    H222483   5.381   3.889   2.770 -0.0524 -0.4296 -1.1459
 7521TIP3   OH222484   1.012   6.534   3.976 -0.3026  0.0490 -0.3431
 7521TIP3    H122485   1.023   6.591   4.051 -0.3350  2.1610 -1.8517
 7521TIP3    H222486   0.918   6.515   3.974 -0.1466 -1.0018  0.7590
 7522TIP3   OH222487   8.507   5.316   2.461  0.0142 -0.1230  0.2037
 7522TIP3    H122488   8.446   5.352   2.525 -1.7895 -1.2950 -0.7811
 7522TIP3    H222489   8.480   5.225   2.450  1.4061 -0.4446 -0.9225
 7523TIP3   OH222490   2.907   3.201   1.690 -0.1764 -0.3379 -0.1240
 7523TIP3    H122491   2.992   3.158   1.688 -0.1138 -0.1847 -1.3561
 7523TIP3    H222492   2.920   3.277   1.747  0.7167  0.0746 -0.8516
 7524TIP3   OH222493   2.213   5.109   1.319 -0.1589 -0.0129  0.2108
 7524TIP3    H122494   2.146   5.084   1.383 -1.0915  0.8631 -0.3932
 7524TIP3    H222495   2.176   5.085   1.234 -0.1738  1.4111 -0.2127
 7525TIP3   OH222496   8.609   5.101   3.803  0.2982 -0.0476 -0.2925
 7525TIP3    H122497   8.661   5.099   3.884  0.5639 -1.0137 -0.4756
 7525TIP3    H222498   8.519   5.084   3.832  0.4117 -0.5200 -0.2050
 7526TIP3   OH222499   3.164   1.312   1.992  0.4040 -0.0977 -0.3964
 7526TIP3    H122500   3.210   1.258   1.927  0.4819 -0.8789  0.2864
 7526TIP3    H222501   3.109   1.371   1.940  0.4845 -0.6950 -1.1738
 7527TIP3   OH222502   1.296   6.288   3.404  0.2309 -0.1288  0.1455
 7527TIP3    H122503   1.262   6.373   3.377 -0.5754 -0.2115  0.8510
 7527TIP3    H222504   1.298   6.292   3.499 -0.1572 -1.0158  0.2084
 7528TIP3   OH222505   3.835   1.170   3.030  0.7884 -0.8572  0.2305
 7528TIP3    H122506   3.892   1.141   3.101  0.8719  1.6462  1.2761
 7528TIP3    H222507   3.756   1.115   3.039  1.8327 -2.3781  0.5439
 7529TIP3   OH222508   2.071   3.774   3.429 -0.1882 -0.2962  0.0708
 7529TIP3    H122509   2.165   3.754   3.430  0.2652  1.6350  0.4065
 7529TIP3    H222510   2.061   3.835   3.356 -1.4664 -1.6234 -0.8968
 7530TIP3   OH222511   6.393   4.780   5.634 -0.3287  0.1414  0.6128
 7530TIP3    H122512   6.312   4.766   5.584  0.7550  0.4801 -1.3195
 7530TIP3    H222513   6.375   4.739   5.719 -1.8198 -1.5659 -0.4356
 7531TIP3   OH222514   1.742   7.948   6.629  0.1976  0.5639 -0.2283
 7531TIP3    H122515   1.686   7.872   6.616 -0.8753  1.5806 -2.0355
 7531TIP3    H222516   1.743   7.961   6.724 -1.6387 -0.2433 -0.0519
 7532TIP3   OH222517   8.112   5.652   4.349 -0.1798 -0.4184  0.7701
 7532TIP3    H122518   8.039   5.623   4.295 -0.5621 -0.2209  1.1807
 7532TIP3    H222519   8.168   5.702   4.290 -0.7480  0.0489  0.6298
 7533TIP3   OH222520   6.769   2.059   2.809  0.1133  0.0624 -0.7221
 7533TIP3    H122521   6.791   2.148   2.837  0.0289 -0.4711  1.2239
 7533TIP3    H222522   6.679   2.047   2.836 -0.4440 -0.0808 -2.5216
 7534TIP3   OH222523   4.835   3.846   1.128 -0.5000  0.1524  0.4830
 7534TIP3    H122524   4.856   3.844   1.221 -2.2724 -0.6535  0.8992
 7534TIP3    H222525   4.784   3.766   1.113 -2.4983  1.5360 -0.6047
 7535TIP3   OH222526   6.749   6.473   2.875  0.1697 -0.0860  0.4409
 7535TIP3    H122527   6.699   6.553   2.892  0.5151 -0.0261  1.2121
 7535TIP3    H222528   6.714   6.440   2.793 -0.4108  0.5217  0.4356
 7536TIP3   OH222529   4.128   4.286   1.199 -0.0284 -0.5352  0.4493
 7536TIP3    H122530   4.133   4.278   1.104  1.7648 -1.3822  0.5653
 7536TIP3    H222531   4.134   4.380   1.215  1.2550 -0.4675 -0.2575
 7537TIP3   OH222532   6.826   6.361   6.848  0.5810 -0.0646 -0.6536
 7537TIP3    H122533   6.900   6.420   6.863  0.3618  0.1711 -0.4863
 7537TIP3    H222534   6.858   6.275   6.878  0.9308 -0.0513 -0.9838
 7538TIP3   OH222535   3.216   2.080   2.614 -0.4444 -0.3730  0.0414
 7538TIP3    H122536   3.159   2.014   2.655  1.0214 -0.6877  1.7066
 7538TIP3    H222537   3.171   2.163   2.631 -0.8705 -0.6866  0.5127
 7539TIP3   OH222538   3.154   1.266   3.313  0.1095  0.2424 -0.0017
 7539TIP3    H122539   3.109   1.238   3.392  0.7192  0.5580  0.4625
 7539TIP3    H222540   3.088   1.260   3.244 -0.2258 -0.7400  0.3877
 7540TIP3   OH222541   1.559   1.407   0.938 -0.8640 -0.0002 -0.9273
 7540TIP3    H122542   1.595   1.479   0.887 -3.4840  1.4129 -1.0001
 7540TIP3    H222543   1.590   1.423   1.028  1.5119 -0.9278 -1.5201
 7541TIP3   OH222544   1.103   5.302   4.152  0.0067  0.0396 -0.0435
 7541TIP3    H122545   1.014   5.299   4.187  0.3893 -0.2347  0.9270
 7541TIP3    H222546   1.145   5.374   4.200 -0.1087  1.1676 -1.5484
 7542TIP3   OH222547   4.006   4.569   5.235 -0.0285  0.2216  0.0883
 7542TIP3    H122548   3.976   4.554   5.145 -1.0327  0.1504  0.4232
 7542TIP3    H222549   4.048   4.486   5.260 -0.1646  0.0750 -0.1602
 7543TIP3   OH222550   0.068   5.135   1.260 -0.0441  0.7930 -0.4567
 7543TIP3    H122551   0.052   5.224   1.289 -0.7797 -0.0917  2.0457
 7543TIP3    H222552   0.090   5.087   1.340  3.0921 -0.7374 -2.0350
 7544TIP3   OH222553   7.563   6.740   5.397  0.2864 -0.1165  0.6979
 7544TIP3    H122554   7.573   6.659   5.446  2.2747 -0.0762  0.4367
 7544TIP3    H222555   7.595   6.808   5.455  0.9783  0.1498  0.0259
 7545TIP3   OH222556   4.281   3.228   2.452 -0.4240 -0.1234  0.3356
 7545TIP3    H122557   4.271   3.176   2.532 -1.2355 -0.1843  0.2039
 7545TIP3    H222558   4.355   3.188   2.406  0.0739 -0.0629  1.0699
 7546TIP3   OH222559   6.016   7.427   4.142  0.1088  0.3436 -0.5006
 7546TIP3    H122560   6.000   7.438   4.048  0.4374  0.9567 -0.4948
 7546TIP3    H222561   5.958   7.491   4.183  0.3694  0.4673 -0.3204
 7547TIP3   OH222562   5.750   3.803   6.832 -0.4048 -0.0317 -0.2037
 7547TIP3    H122563   5.794   3.817   6.915 -1.0593 -1.2671  0.3786
 7547TIP3    H222564   5.779   3.717   6.803  0.7115  0.8556 -1.8559
 7548TIP3   OH222565   5.221   8.048   6.987  0.7295  0.0125 -0.3045
 7548TIP3    H122566   5.132   8.029   6.957  1.0443  0.0226 -1.2815
 7548TIP3    H222567   5.230   8.143   6.977  0.3958  0.2171  1.1099
 7549TIP3   OH222568   2.762   6.244   5.108  0.0898 -0.2809  0.2675
 7549TIP3    H122569   2.852   6.275   5.099 -0.4358  1.7064  1.3153
 7549TIP3    H222570   2.771   6.157   5.147  1.5841 -1.0982 -1.7319
 7550TIP3   OH222571   5.215   8.071   4.631 -0.5410 -0.1955 -0.0502
 7550TIP3    H122572   5.169   8.084   4.548 -0.3336  1.6841  0.0838
 7550TIP3    H222573   5.149   8.089   4.698 -0.8260 -2.1232  0.2478
 7551TIP3   OH222574   6.158   0.764   5.422 -0.4922  0.2770  0.1383
 7551TIP3    H122575   6.110   0.708   5.483  0.3878 -0.1056  0.4908
 7551TIP3    H222576   6.225   0.707   5.385  0.3129  1.0523  0.3791
 7552TIP3   OH222577   2.918   0.909   3.181  0.4587  0.3206  0.0095
 7552TIP3    H122578   2.916   0.814   3.169  1.0772  0.4594 -1.4022
 7552TIP3    H222579   3.011   0.932   3.174  0.3459  1.0053  0.6411
 7553TIP3   OH222580   8.262   5.544   5.542  0.0256 -0.6251  0.2763
 7553TIP3    H122581   8.229   5.534   5.631 -0.6319  1.5403  0.3236
 7553TIP3    H222582   8.193   5.508   5.486 -0.4935 -0.0653  0.5579
 7554TIP3   OH222583   0.825   2.681   4.173  0.3366  0.4329  0.2338
 7554TIP3    H122584   0.764   2.711   4.240 -0.4167  1.3375 -0.8186
 7554TIP3    H222585   0.911   2.704   4.207 -0.0812  1.5114  0.5940
 7555TIP3   OH222586   0.405   2.721   4.588  1.0430  0.8587 -0.0300
 7555TIP3    H122587   0.365   2.787   4.530  0.4843  0.4175 -0.1510
 7555TIP3    H222588   0.385   2.753   4.676 -1.1478 -0.2560 -0.0662
 7556TIP3   OH222589   2.072   2.338   6.411 -0.4639  0.0973  0.1325
 7556TIP3    H122590   2.000   2.317   6.471  0.3452  0.1221  1.1597
 7556TIP3    H222591   2.146   2.287   6.445  0.5700  1.7455  0.4415
 7557TIP3   OH222592   5.368   2.332   0.981  0.2189  0.0701 -0.2513
 7557TIP3    H122593   5.276   2.333   0.956 -0.2967  1.4223  1.4602
 7557TIP3    H222594   5.412   2.385   0.913 -0.2019 -0.7412 -1.1787
 7558TIP3   OH222595   8.221   2.924   5.045 -0.7807 -0.3792  0.4694
 7558TIP3    H122596   8.272   2.848   5.073 -0.2591 -0.5381 -0.8180
 7558TIP3    H222597   8.255   2.996   5.098 -0.4428 -0.8133  0.8556
 7559TIP3   OH222598   3.909   4.862   5.881  0.1678  0.7232 -0.1001
 7559TIP3    H122599   3.889   4.930   5.945  0.7041  1.3281 -0.5544
 7559TIP3    H222600   3.896   4.905   5.796  0.4104  0.2269 -0.3927
 7560TIP3   OH222601   0.307   4.379   2.901 -0.2429  0.6036  0.2208
 7560TIP3    H122602   0.244   4.340   2.962 -0.3294  0.8237  0.2738
 7560TIP3    H222603   0.362   4.435   2.956 -0.3691  0.8620  0.0816
 7561TIP3   OH222604   2.797   0.073   0.489 -0.3968 -0.2356  0.0734
 7561TIP3    H122605   2.881   0.065   0.535 -0.5900 -1.6728  0.2053
 7561TIP3    H222606   2.758   0.152   0.525  0.8911  0.4641  0.0099
 7562TIP3   OH222607   7.625   5.419   0.729 -0.0856 -0.1979 -0.4954
 7562TIP3    H122608   7.642   5.347   0.789 -0.2911  0.7209  0.7073
 7562TIP3    H222609   7.562   5.474   0.774  0.2751  0.8852 -1.2561
 7563TIP3   OH222610   4.910   0.134   6.102 -1.1611  0.0631  0.4230
 7563TIP3    H122611   4.884   0.124   6.194  1.1329  1.5078  1.3445
 7563TIP3    H222612   4.963   0.056   6.084  0.2625  0.8243  1.1238
 7564TIP3   OH222613   8.080   1.126   2.980  0.5808  0.1035 -0.4088
 7564TIP3    H122614   8.136   1.186   3.031  0.2179  0.9905 -1.0202
 7564TIP3    H222615   8.129   1.044   2.979  0.4938 -0.0210  1.5475
 7565TIP3   OH222616   5.004   8.093   1.564  0.7699 -0.1395  0.8759
 7565TIP3    H122617   4.969   8.162   1.621  0.7837  0.4331  0.1993
 7565TIP3    H222618   5.095   8.085   1.590  0.8445  0.3012  0.7623
 7566TIP3   OH222619   2.710   4.276   6.873 -0.2479 -0.0472  0.0129
 7566TIP3    H122620   2.644   4.296   6.940  0.4257 -2.2389  1.4282
 7566TIP3    H222621   2.699   4.345   6.808 -2.9593  0.4833  0.8984
 7567TIP3   OH222622   8.201   7.135   3.984  0.0311  0.4369 -0.7815
 7567TIP3    H122623   8.153   7.167   3.908 -0.0888  0.2375 -0.7915
 7567TIP3    H222624   8.132   7.110   4.047  0.1374  1.3201 -0.3060
 7568TIP3   OH222625   3.626   5.220   6.790 -0.1521  0.2878 -0.4572
 7568TIP3    H122626   3.668   5.134   6.783 -1.9839 -0.7126  0.2949
 7568TIP3    H222627   3.694   5.277   6.826  1.0707 -0.8501 -0.8767
 7569TIP3   OH222628   5.570   0.794   5.298  0.0724 -0.2140 -0.3156
 7569TIP3    H122629   5.574   0.730   5.228 -2.2636 -1.2422  0.3746
 7569TIP3    H222630   5.492   0.770   5.348  1.0627  1.0855  2.0389
 7570TIP3   OH222631   7.162   4.938   1.972 -0.1895 -0.0843  0.0971
 7570TIP3    H122632   7.093   4.988   2.015 -0.9996 -0.8438 -0.2971
 7570TIP3    H222633   7.164   4.972   1.883  0.8521  0.8346  0.4370
 7571TIP3   OH222634   1.905   5.721   4.291  0.1979 -0.2987 -0.6829
 7571TIP3    H122635   1.853   5.659   4.342 -0.1909 -0.1676 -0.9074
 7571TIP3    H222636   1.944   5.667   4.222  0.6400 -0.4575 -0.3092
 7572TIP3   OH222637   1.614   5.816   3.012 -0.3269 -0.1941  0.2187
 7572TIP3    H122638   1.602   5.895   3.064  0.2563  0.5920 -0.8233
 7572TIP3    H222639   1.526   5.790   2.986 -0.3785  1.9167 -2.0435
 7573TIP3   OH222640   5.623   3.644   5.667 -0.1656 -0.7311 -0.1586
 7573TIP3    H122641   5.654   3.554   5.662  2.2217  0.0912 -2.2720
 7573TIP3    H222642   5.681   3.687   5.730  0.3872 -0.1224 -1.0577
 7574TIP3   OH222643   2.338   6.221   3.855  0.8290  0.4298 -0.0806
 7574TIP3    H122644   2.413   6.267   3.816  1.4047  1.0560  1.6813
 7574TIP3    H222645   2.364   6.129   3.855  2.6981  0.8240  2.5867
 7575TIP3   OH222646   5.679   2.083   1.359 -0.8608  0.3590 -0.3001
 7575TIP3    H122647   5.679   2.153   1.295 -2.3505 -0.6695 -1.4890
 7575TIP3    H222648   5.705   2.005   1.309 -0.0071 -0.1086  0.8146
 7576TIP3   OH222649   1.261   5.534   0.464  0.2109 -0.1461  0.0346
 7576TIP3    H122650   1.316   5.458   0.478  0.3740  0.0751  0.6161
 7576TIP3    H222651   1.188   5.522   0.525  0.1141  0.0427 -0.0438
 7577TIP3   OH222652   1.770   0.735   2.106 -0.1353 -0.6124  0.3129
 7577TIP3    H122653   1.731   0.659   2.150 -1.7199  0.5117  0.9394
 7577TIP3    H222654   1.864   0.718   2.107 -0.3688 -1.9920  1.5285
 7578TIP3   OH222655   5.976   6.685   4.176 -0.7353 -0.5907 -0.5306
 7578TIP3    H122656   5.915   6.619   4.142 -0.1552 -2.5068  1.8249
 7578TIP3    H222657   6.014   6.644   4.254  1.6929  1.5273 -0.4691
 7579TIP3   OH222658   5.952   2.689   3.722 -0.0077 -0.3432  0.1600
 7579TIP3    H122659   6.044   2.676   3.741  0.4382  2.2578  0.1720
 7579TIP3    H222660   5.908   2.683   3.807  0.2705 -0.6244  0.2835
 7580TIP3   OH222661   8.363   4.237   6.373  0.1811  0.2776  0.2534
 7580TIP3    H122662   8.335   4.216   6.284 -4.1888  2.0002  0.9787
 7580TIP3    H222663   8.428   4.307   6.363 -0.0421  0.2648 -1.5349
 7581TIP3   OH222664   2.018   0.029   3.041 -0.2690 -0.1477 -0.5732
 7581TIP3    H122665   2.021   0.107   2.985 -0.0096  0.8399  0.7603
 7581TIP3    H222666   2.097   0.035   3.094  0.0123 -1.6164 -0.7953
 7582TIP3   OH222667   6.923   8.103   0.360  0.5133 -0.2982  0.2685
 7582TIP3    H122668   6.842   8.054   0.346  1.1870 -1.1642 -0.8567
 7582TIP3    H222669   6.932   8.110   0.455 -0.2538 -1.2811  0.4298
 7583TIP3   OH222670   4.201   0.045   4.544  0.2063  0.1566 -0.7247
 7583TIP3    H122671   4.291   0.017   4.559 -0.1441 -0.5547  0.1633
 7583TIP3    H222672   4.177   0.006   4.461  0.5240 -0.1401 -0.6801
 7584TIP3   OH222673   8.091   4.941   5.699  0.7286 -0.0844 -0.4516
 7584TIP3    H122674   8.054   4.864   5.744  1.7524 -0.4289 -0.1563
 7584TIP3    H222675   8.053   5.016   5.745 -0.4920 -0.3950 -0.9107
 7585TIP3   OH222676   4.886   5.708   3.603 -0.0424  0.3674 -0.2717
 7585TIP3    H122677   4.859   5.633   3.551 -0.3725  0.4297 -0.1886
 7585TIP3    H222678   4.862   5.784   3.550 -3.4457  0.5867  1.3478
 7586TIP3   OH222679   3.095   0.111   4.956 -0.3899  0.2238  0.4771
 7586TIP3    H122680   3.001   0.099   4.963 -0.4981  1.0278  0.5292
 7586TIP3    H222681   3.106   0.187   4.899  0.3058 -1.2548 -1.4724
 7587TIP3   OH222682   1.337   2.910   2.515 -0.1419  0.0052 -0.8473
 7587TIP3    H122683   1.278   2.901   2.441 -2.3634 -0.7484  0.8755
 7587TIP3    H222684   1.325   2.829   2.565  1.9816  0.0696 -0.1203
 7588TIP3   OH222685   4.887   7.087   1.192 -0.2133 -0.2810 -0.3249
 7588TIP3    H122686   4.842   7.101   1.275  0.4364  2.2964 -0.3352
 7588TIP3    H222687   4.819   7.096   1.126 -0.0643  2.1309 -0.2515
 7589TIP3   OH222688   8.455   7.744   6.281 -0.2341  0.9437  0.0030
 7589TIP3    H122689   8.488   7.662   6.242  1.0546  1.8824 -0.9703
 7589TIP3    H222690   8.380   7.717   6.334 -0.7437 -0.6905 -1.4634
 7590TIP3   OH222691   8.357   1.249   6.188  0.3525  0.5362  0.2912
 7590TIP3    H122692   8.406   1.326   6.160  0.9624  0.4133  1.0071
 7590TIP3    H222693   8.353   1.256   6.283  1.9126 -1.1921  0.5297
 7591TIP3   OH222694   1.265   0.360   6.915  1.0772  0.0352 -0.0415
 7591TIP3    H122695   1.325   0.408   6.972  2.1595 -0.5527 -0.6301
 7591TIP3    H222696   1.256   0.416   6.837 -1.7666  1.6617  1.3041
 7592TIP3   OH222697   7.749   3.074   3.432 -0.1645  0.0813 -0.6185
 7592TIP3    H122698   7.724   3.165   3.447 -0.4376  0.0010 -0.5831
 7592TIP3    H222699   7.840   3.079   3.403  0.3451  0.2597  0.9229
 7593TIP3   OH222700   7.792   2.391   0.106  0.0143  0.2296  0.1248
 7593TIP3    H122701   7.700   2.396   0.133 -0.0604  0.4939 -0.1856
 7593TIP3    H222702   7.838   2.367   0.186 -0.5239 -1.6224 -0.0719
 7594TIP3   OH222703   5.984   3.367   0.068 -0.0286  0.0152  0.5189
 7594TIP3    H122704   5.904   3.373   0.119 -0.4483 -0.6700 -0.0306
 7594TIP3    H222705   6.009   3.458   0.050  0.4874  0.2945  2.4455
 7595TIP3   OH222706   7.528   1.800   3.544  0.1314 -0.0199  0.3085
 7595TIP3    H122707   7.624   1.794   3.546  0.1546  0.1846  0.0003
 7595TIP3    H222708   7.501   1.796   3.636  0.2896 -2.2681  0.3005
 7596TIP3   OH222709   1.302   1.050   5.951 -0.0839 -0.1612 -0.3473
 7596TIP3    H122710   1.226   1.023   5.900 -0.3658  2.7233 -1.6450
 7596TIP3    H222711   1.268   1.060   6.040 -1.5921  1.9457 -1.0532
 7597TIP3   OH222712   3.978   6.002   5.725  0.4998  0.4953  0.3421
 7597TIP3    H122713   3.925   5.966   5.796  1.5578  0.4657  1.1370
 7597TIP3    H222714   3.967   6.097   5.732 -0.2404  0.4625 -0.1485
 7598TIP3   OH222715   3.768   5.867   6.694 -0.4501  0.4374  0.3976
 7598TIP3    H122716   3.732   5.878   6.606  0.8339  0.8966 -0.0988
 7598TIP3    H222717   3.698   5.894   6.752 -1.0850  0.7903 -0.5112
 7599TIP3   OH222718   1.484   5.633   4.645 -0.0376 -0.0521 -0.0619
 7599TIP3    H122719   1.513   5.678   4.724  0.9153  0.3436 -0.6165
 7599TIP3    H222720   1.555   5.571   4.626 -1.1058 -1.4897  0.4227
 7600TIP3   OH222721   8.320   0.558   2.239  0.3569 -0.0022  0.4240
 7600TIP3    H122722   8.333   0.550   2.334  1.0376  1.2614  0.4595
 7600TIP3    H222723   8.407   0.581   2.205  0.4206 -1.6439 -0.6904
 7601TIP3   OH222724   7.520   4.717   4.097 -0.2951 -1.0959  0.3088
 7601TIP3    H122725   7.524   4.779   4.170  1.6113 -0.5691 -0.1706
 7601TIP3    H222726   7.519   4.631   4.139 -1.3504 -0.7841  0.9594
 7602TIP3   OH222727   8.628   7.942   1.242  0.7383  0.4852  0.6879
 7602TIP3    H122728   8.573   7.871   1.207  1.9668 -0.8107  1.2931
 7602TIP3    H222729   8.643   7.917   1.333 -1.1672  3.0292  1.8213
 7603TIP3   OH222730   5.269   1.211   0.208  0.0847 -0.3237 -0.2459
 7603TIP3    H122731   5.353   1.195   0.163 -0.1283  0.7647 -1.0712
 7603TIP3    H222732   5.203   1.198   0.140 -0.4011 -0.8677  0.3268
 7604TIP3   OH222733   1.310   4.948   6.563 -0.1742 -0.0774  0.6241
 7604TIP3    H122734   1.402   4.922   6.564  0.0379  0.6149  0.0360
 7604TIP3    H222735   1.312   5.043   6.554 -0.9529 -0.0827  0.2959
 7605TIP3   OH222736   4.466   6.598   6.605  0.0539 -0.1074 -0.2369
 7605TIP3    H122737   4.480   6.554   6.688  2.4065  0.7150 -0.1190
 7605TIP3    H222738   4.393   6.659   6.622  0.0213 -0.4724  0.9951
 7606TIP3   OH222739   2.845   7.960   0.134  0.2420  0.0003 -0.4467
 7606TIP3    H122740   2.860   7.871   0.101  0.7388 -0.0459 -0.1054
 7606TIP3    H222741   2.927   8.006   0.115  0.9429 -0.2960  1.6036
 7607TIP3   OH222742   3.480   7.740   5.874 -0.0922 -0.1672  0.5568
 7607TIP3    H122743   3.483   7.748   5.779 -0.6888  0.6187  0.5898
 7607TIP3    H222744   3.557   7.787   5.905 -0.6384  0.7740  0.5122
 7608TIP3   OH222745   5.917   5.840   6.702  0.9081  0.6783  0.3513
 7608TIP3    H122746   6.000   5.887   6.688  1.9668 -1.1567  0.1368
 7608TIP3    H222747   5.944   5.755   6.737 -0.8913 -0.0416  0.0616
 7609TIP3   OH222748   2.973   2.428   1.125  0.1057 -0.3824  0.3004
 7609TIP3    H122749   2.887   2.442   1.166  0.1487  0.2574  0.1740
 7609TIP3    H222750   2.952   2.383   1.043 -0.1517  0.1818  0.0502
 7610TIP3   OH222751   0.740   4.461   4.621  0.7079  0.2644  0.2910
 7610TIP3    H122752   0.786   4.509   4.551  1.1570 -1.1022 -0.3877
 7610TIP3    H222753   0.775   4.498   4.702  1.1068  1.0197 -0.2084
 7611TIP3   OH222754   1.382   4.436   6.685 -0.3159 -0.2649 -0.3813
 7611TIP3    H122755   1.287   4.441   6.679 -0.4714 -2.7543 -1.0923
 7611TIP3    H222756   1.409   4.395   6.603  1.5719  1.7971 -0.8915
 7612TIP3   OH222757   3.269   7.854   4.229 -0.0149  0.3416 -0.3665
 7612TIP3    H122758   3.216   7.883   4.155 -0.1001  2.1892  0.3755
 7612TIP3    H222759   3.355   7.892   4.212 -0.2082  1.3349  0.7756
 7613TIP3   OH222760   6.962   0.195   5.110 -0.0742 -0.0077  0.1355
 7613TIP3    H122761   6.980   0.244   5.190 -3.3609  1.6994  0.0101
 7613TIP3    H222762   6.941   0.106   5.141 -0.4941  0.4132  1.0974
 7614TIP3   OH222763   6.712   0.827   2.127 -0.0460  0.0623 -0.0085
 7614TIP3    H122764   6.634   0.882   2.117  0.3082  0.9414  1.7618
 7614TIP3    H222765   6.728   0.794   2.039 -0.8645  1.9978 -0.9644
 7615TIP3   OH222766   8.259   6.128   0.486  0.2449  0.2628 -0.0856
 7615TIP3    H122767   8.339   6.098   0.528 -0.1218  0.5085  0.8113
 7615TIP3    H222768   8.249   6.219   0.515 -0.2696  0.2824 -0.3163
 7616TIP3   OH222769   6.239   7.083   5.196  0.0981  0.4329  0.2821
 7616TIP3    H122770   6.171   7.127   5.247  1.8770  1.5853  1.7431
 7616TIP3    H222771   6.250   6.998   5.238  0.7669  0.9409  1.1710
 7617TIP3   OH222772   3.926   5.747   4.615 -0.0280 -0.4376  0.2002
 7617TIP3    H122773   3.962   5.687   4.680  0.9153  0.3829  0.4558
 7617TIP3    H222774   3.975   5.729   4.535  0.5904  0.3064  0.4029
 7618TIP3   OH222775   2.983   3.569   4.285  0.2774 -0.0269  0.4022
 7618TIP3    H122776   2.977   3.580   4.380  0.6726 -0.7179  0.5160
 7618TIP3    H222777   3.071   3.535   4.271  0.3601  0.4496 -0.2538
 7619TIP3   OH222778   7.105   6.716   4.903 -0.2399  0.6534 -0.0478
 7619TIP3    H122779   7.073   6.676   4.822  0.1410 -0.0235  0.1194
 7619TIP3    H222780   7.199   6.725   4.889  0.3023 -1.9916  1.2948
 7620TIP3   OH222781   7.583   2.178   0.435  0.0339 -0.1734 -0.0221
 7620TIP3    H122782   7.595   2.097   0.485  0.3371 -0.8630 -1.1854
 7620TIP3    H222783   7.663   2.228   0.451 -0.2201 -0.0161  0.8249
 7621TIP3   OH222784   6.848   3.920   2.857 -0.3168 -0.8839  0.0452
 7621TIP3    H122785   6.835   3.944   2.765  1.4553  0.6966  0.1487
 7621TIP3    H222786   6.885   3.832   2.854  0.4707 -0.5425 -0.8311
 7622TIP3   OH222787   1.985   0.333   6.592  0.5563  0.1254  0.0323
 7622TIP3    H122788   1.948   0.251   6.559 -0.2292  0.6226 -0.3485
 7622TIP3    H222789   2.017   0.377   6.514  3.7194 -1.0823  0.4808
 7623TIP3   OH222790   6.735   0.497   4.043  0.1021 -0.0404 -0.1384
 7623TIP3    H122791   6.692   0.467   3.963 -0.3605  0.2488 -0.0036
 7623TIP3    H222792   6.820   0.454   4.042 -0.7765 -1.8820  0.3691
 7624TIP3   OH222793   5.034   6.917   5.577  0.2117 -0.1744  0.0284
 7624TIP3    H122794   4.999   7.005   5.586 -0.9699 -0.6572  0.3946
 7624TIP3    H222795   5.011   6.873   5.659 -1.6036 -1.5991 -1.1501
 7625TIP3   OH222796   7.703   3.129   0.362  0.0574  0.5867 -0.2085
 7625TIP3    H122797   7.794   3.102   0.371  0.1324  0.3533 -1.5504
 7625TIP3    H222798   7.693   3.151   0.270 -1.0328  1.4255  0.0834
 7626TIP3   OH222799   8.303   8.205   4.154  0.2580  0.7236 -0.2969
 7626TIP3    H122800   8.330   8.125   4.109  1.5516  0.7424  0.4063
 7626TIP3    H222801   8.251   8.173   4.228  2.3201  0.3511  1.0890
 7627TIP3   OH222802   3.938   6.457   4.178 -0.5265 -0.5962 -0.0126
 7627TIP3    H122803   3.844   6.443   4.187 -0.6043 -0.2296 -0.2041
 7627TIP3    H222804   3.945   6.542   4.134 -0.1177 -0.8447 -0.4383
 7628TIP3   OH222805   3.213   0.498   6.554 -0.1232 -0.1695  0.2807
 7628TIP3    H122806   3.156   0.574   6.557 -1.1477 -0.9185  0.4158
 7628TIP3    H222807   3.292   0.528   6.509 -1.7236  0.1782 -2.4965
 7629TIP3   OH222808   6.607   2.543   0.380 -0.0295 -0.0415  0.1655
 7629TIP3    H122809   6.524   2.580   0.412  0.6038  0.9770  0.6587
 7629TIP3    H222810   6.673   2.576   0.441  0.9130  0.2134 -0.9655
 7630TIP3   OH222811   4.553   5.948   6.304 -0.0142 -0.7550 -0.0027
 7630TIP3    H122812   4.475   5.911   6.264 -1.0433 -1.3371  2.3596
 7630TIP3    H222813   4.567   6.031   6.258 -0.8330 -1.5604 -1.7815
 7631TIP3   OH222814   5.410   4.139   0.747  0.2077 -0.2324  0.6545
 7631TIP3    H122815   5.315   4.148   0.754  0.3570  1.8204  0.5973
 7631TIP3    H222816   5.422   4.081   0.671 -0.9919 -0.0392  0.2803
 7632TIP3   OH222817   4.605   3.254   1.017  0.0732 -0.5157  0.1669
 7632TIP3    H122818   4.573   3.316   0.952  0.6707 -1.8777 -1.5195
 7632TIP3    H222819   4.701   3.260   1.011  0.1917 -2.7214 -1.2697
 7633TIP3   OH222820   7.841   4.920   2.460 -0.0877  0.2051 -0.1629
 7633TIP3    H122821   7.807   4.857   2.524  1.7005 -0.2308  0.4060
 7633TIP3    H222822   7.765   4.945   2.408 -1.7775  1.0703  2.5143
 7634TIP3   OH222823   0.994   7.152   7.048  0.0614 -0.1307  0.4709
 7634TIP3    H122824   1.061   7.132   7.113  1.6566 -2.1570 -1.6107
 7634TIP3    H222825   1.034   7.218   6.992 -0.4835  0.1018  0.3499
 7635TIP3   OH222826   7.954   7.776   4.388  0.2008  0.7201 -0.6735
 7635TIP3    H122827   7.965   7.681   4.388  0.1300  0.6723  1.1237
 7635TIP3    H222828   7.985   7.804   4.302  0.6463 -0.8767 -1.0649
 7636TIP3   OH222829   2.349   4.099   3.072  0.4577 -0.3076 -0.4012
 7636TIP3    H122830   2.337   4.138   3.159 -0.5279 -1.0664 -0.1893
 7636TIP3    H222831   2.442   4.078   3.068  0.6409  0.3529  0.2067
 7637TIP3   OH222832   5.285   8.144   1.017 -0.7138  0.1240  0.1784
 7637TIP3    H122833   5.352   8.134   1.086  0.5677 -2.3532 -1.2626
 7637TIP3    H222834   5.303   8.230   0.979  1.7112 -0.4415 -0.1342
 7638TIP3   OH222835   1.310   3.137   4.655 -0.1794 -0.1726 -0.2215
 7638TIP3    H122836   1.356   3.188   4.589 -0.6328  0.0727 -0.3505
 7638TIP3    H222837   1.221   3.126   4.621  0.0399 -1.4610 -0.4121
 7639TIP3   OH222838   3.081   3.989   3.647 -0.4287  0.1552 -0.1054
 7639TIP3    H122839   3.052   4.007   3.737  0.5130  0.8545  0.0766
 7639TIP3    H222840   3.041   3.905   3.626 -0.7313  0.0117  0.9455
 7640TIP3   OH222841   4.580   6.360   5.495  0.8671 -0.3938  0.1964
 7640TIP3    H122842   4.566   6.268   5.519  0.2379 -0.4979 -0.5127
 7640TIP3    H222843   4.494   6.391   5.468  0.9146  0.6345  1.1373
 7641TIP3   OH222844   3.005   1.945   2.749 -0.1658 -0.1795 -0.2349
 7641TIP3    H122845   2.957   1.865   2.728 -0.6652  0.5141 -1.9556
 7641TIP3    H222846   3.006   1.948   2.845  0.3866 -2.5114 -0.1146
 7642TIP3   OH222847   0.997   0.305   1.531  0.1174 -0.5292 -0.3421
 7642TIP3    H122848   0.908   0.330   1.559 -0.1086 -1.9668  0.3467
 7642TIP3    H222849   1.055   0.358   1.586 -0.3353 -0.5196  0.1402
 7643TIP3   OH222850   2.069   6.930   4.275  0.2286 -0.1259 -0.1340
 7643TIP3    H122851   2.026   6.987   4.210  0.7965 -0.5043 -0.8564
 7643TIP3    H222852   2.073   6.845   4.232  0.5011 -0.4124  0.4588
 7644TIP3   OH222853   3.830   0.103   2.844 -0.2523  0.4871 -0.2459
 7644TIP3    H122854   3.866   0.086   2.931  0.2476 -0.2225 -0.5810
 7644TIP3    H222855   3.736   0.116   2.859 -0.6617 -2.3116  0.1297
 7645TIP3   OH222856   8.111   6.461   0.566 -0.4511  0.1536 -0.0743
 7645TIP3    H122857   8.186   6.453   0.506 -0.1838  1.4910  0.0433
 7645TIP3    H222858   8.035   6.466   0.508 -0.2636  0.6599 -0.2893
 7646TIP3   OH222859   7.105   2.402   6.408 -0.3802  0.6041  0.0656
 7646TIP3    H122860   7.052   2.358   6.475  1.9848  0.9452  2.3213
 7646TIP3    H222861   7.045   2.414   6.334 -2.2005 -3.0342  0.6817
 7647TIP3   OH222862   3.018   3.372   2.497 -0.4009  0.3283 -0.3989
 7647TIP3    H122863   3.027   3.452   2.549  0.2475  1.2356 -1.8114
 7647TIP3    H222864   3.108   3.344   2.481 -0.5866  0.0064 -0.9020
 7648TIP3   OH222865   1.758   7.449   3.550 -0.4441  0.3183 -0.0648
 7648TIP3    H122866   1.825   7.508   3.584  1.4423 -0.8650 -1.5004
 7648TIP3    H222867   1.797   7.361   3.558 -1.6008 -0.3516 -1.3887
 7649TIP3   OH222868   6.602   5.962   7.031 -0.2461  0.1630 -0.4366
 7649TIP3    H122869   6.681   5.935   6.984  0.1892 -0.0577  0.4128
 7649TIP3    H222870   6.583   5.891   7.091 -1.2075  0.1341 -0.7470
 7650TIP3   OH222871   1.886   4.178   2.928 -0.5469 -0.5622 -0.2291
 7650TIP3    H122872   1.965   4.135   2.894  0.3739  0.6869  0.2348
 7650TIP3    H222873   1.833   4.196   2.850  0.1432 -0.4342 -0.6809
 7651TIP3   OH222874   3.119   4.378   4.006  0.7881  0.1350  0.0698
 7651TIP3    H122875   3.064   4.452   4.031 -1.4264 -0.3655 -2.7627
 7651TIP3    H222876   3.206   4.416   3.994  0.2690  1.7468  1.0663
 7652TIP3   OH222877   5.052   3.113   1.928  0.0542  0.3355  0.2828
 7652TIP3    H122878   5.104   3.058   1.870 -0.5451  0.5583 -0.4706
 7652TIP3    H222879   5.069   3.077   2.016 -0.7430 -1.4001 -0.2274
 7653TIP3   OH222880   8.276   3.138   3.247  0.6150  0.1852 -0.5211
 7653TIP3    H122881   8.254   3.118   3.156  0.6577  0.6042 -0.6224
 7653TIP3    H222882   8.334   3.214   3.242  0.8035  0.0678 -0.1589
 7654TIP3   OH222883   7.406   2.783   0.641  0.1691  0.3502 -0.2833
 7654TIP3    H122884   7.430   2.692   0.623 -0.1681  0.7121 -3.0155
 7654TIP3    H222885   7.318   2.778   0.678 -0.8331 -0.4120 -2.5752
 7655TIP3   OH222886   3.895   3.840   4.113  0.2167 -0.4700 -0.1765
 7655TIP3    H122887   3.983   3.864   4.085  0.3654 -2.5366 -1.7205
 7655TIP3    H222888   3.900   3.745   4.126 -0.9693 -0.2376  2.9494
 7656TIP3   OH222889   4.905   7.143   0.006  0.0740  0.5645  0.5355
 7656TIP3    H122890   4.980   7.127  -0.050 -0.4756 -2.4540  0.4888
 7656TIP3    H222891   4.935   7.119   0.094 -0.8750 -1.1454  0.4455
 7657TIP3   OH222892   7.117   0.518   5.573  0.1918  0.2149 -0.1634
 7657TIP3    H122893   7.128   0.488   5.483  1.2835 -0.0971  0.0676
 7657TIP3    H222894   7.203   0.551   5.599  0.3617 -1.3149  1.3588
 7658TIP3   OH222895   6.535   0.232   2.206  0.2860 -0.0165  0.1145
 7658TIP3    H122896   6.499   0.305   2.256  1.3124  0.5446  0.0608
 7658TIP3    H222897   6.459   0.194   2.162 -0.7305 -0.8354  2.4502
 7659TIP3   OH222898   1.383   3.748   1.643 -0.4376 -0.0129 -1.0301
 7659TIP3    H122899   1.292   3.773   1.625 -0.3713  0.6206 -0.5225
 7659TIP3    H222900   1.410   3.699   1.566 -0.4185  1.9100 -2.3013
 7660TIP3   OH222901   2.287   5.944   0.394 -0.1246  0.0699 -0.3576
 7660TIP3    H122902   2.323   5.988   0.472 -0.0733 -1.3488  0.4538
 7660TIP3    H222903   2.260   6.015   0.337 -4.8206  1.4418  2.9926
 7661TIP3   OH222904   1.942   8.100   1.231 -0.3569 -0.1837  0.7582
 7661TIP3    H122905   1.962   8.047   1.308  0.6756  0.0002  0.6318
 7661TIP3    H222906   1.994   8.060   1.161 -0.6435  0.1550  0.3475
 7662TIP3   OH222907   4.529   2.088   5.000 -0.7421  0.0672 -0.4561
 7662TIP3    H122908   4.491   2.077   4.912  0.2034  1.0846 -1.0169
 7662TIP3    H222909   4.621   2.106   4.983 -0.3103 -0.8632  0.8183
 7663TIP3   OH222910   5.458   6.892   2.168  0.0603  0.1239  0.4666
 7663TIP3    H122911   5.525   6.826   2.187 -1.7656 -1.6811  1.0557
 7663TIP3    H222912   5.437   6.930   2.254  2.1399  2.6672 -0.0320
 7664TIP3   OH222913   8.504   6.923   1.507  0.1562 -1.2535  0.2052
 7664TIP3    H122914   8.519   6.995   1.568  0.0321  1.2018 -2.4927
 7664TIP3    H222915   8.410   6.906   1.512 -0.5206  1.3171 -1.6168
 7665TIP3   OH222916   6.959   4.143   6.874  0.2903  0.4653  0.3468
 7665TIP3    H122917   6.889   4.080   6.887  0.3962  0.5747  1.4902
 7665TIP3    H222918   7.000   4.153   6.960  0.4882  1.8495  0.1176
 7666TIP3   OH222919   4.925   3.517   1.346 -0.3224  0.0394  0.0189
 7666TIP3    H122920   4.835   3.546   1.331 -0.9035 -1.3472  0.6578
 7666TIP3    H222921   4.916   3.439   1.400  1.1872 -0.9295 -1.0661
 7667TIP3   OH222922   8.492   7.767   5.272 -0.0628 -0.1361  0.0241
 7667TIP3    H122923   8.437   7.688   5.265  0.0658 -0.2771  0.6038
 7667TIP3    H222924   8.568   7.739   5.323  1.2279 -0.2994 -1.8804
 7668TIP3   OH222925   3.535   6.473   2.414 -0.5484 -0.6413 -0.3233
 7668TIP3    H122926   3.593   6.545   2.391 -0.3120 -0.9526 -0.7095
 7668TIP3    H222927   3.484   6.506   2.489  0.1631 -0.3883  0.0554
 7669TIP3   OH222928   3.847   2.293   5.952  0.4031 -0.3240 -0.1039
 7669TIP3    H122929   3.880   2.210   5.986  1.3486 -0.1499 -0.5409
 7669TIP3    H222930   3.825   2.344   6.030  1.3205 -0.4031  0.2175
 7670TIP3   OH222931   1.233   4.945   5.498  0.1742  0.5783 -0.4864
 7670TIP3    H122932   1.258   5.008   5.565 -2.0498 -0.8720  1.8628
 7670TIP3    H222933   1.179   4.995   5.437  2.7037  2.0489 -1.6902
 7671TIP3   OH222934   7.264   3.753   5.194  0.3562 -0.1723 -0.0921
 7671TIP3    H122935   7.232   3.787   5.277  0.1744  0.9244 -0.5949
 7671TIP3    H222936   7.188   3.709   5.156  0.8946 -2.2485  1.0805
 7672TIP3   OH222937   0.162   6.497   2.721 -0.8979 -0.7781  0.6338
 7672TIP3    H122938   0.148   6.414   2.766 -0.7374 -0.0016  2.1730
 7672TIP3    H222939   0.075   6.522   2.691 -0.7998 -1.9791 -0.7780
 7673TIP3   OH222940   5.836   2.231   3.111 -0.3239  0.0308 -0.1245
 7673TIP3    H122941   5.866   2.190   3.192 -1.1567 -0.6540 -0.1464
 7673TIP3    H222942   5.916   2.257   3.066  0.1281  1.2485  1.3307
 7674TIP3   OH222943   1.693   1.394   0.050  0.0150 -0.7650  0.3185
 7674TIP3    H122944   1.631   1.387   0.122  0.1319  2.0991  0.8164
 7674TIP3    H222945   1.650   1.351  -0.024 -2.4965  0.8239  0.7277
 7675TIP3   OH222946   5.630   0.415   4.383  0.2812 -0.1615  0.1338
 7675TIP3    H122947   5.581   0.337   4.358 -0.4605  0.1519  0.5559
 7675TIP3    H222948   5.569   0.487   4.369  0.9380  0.3428 -0.1950
 7676TIP3   OH222949   6.729   7.682   4.861  1.0060  0.3293 -0.4338
 7676TIP3    H122950   6.689   7.616   4.918 -0.6376  0.6382 -1.1527
 7676TIP3    H222951   6.792   7.634   4.809 -0.8701 -0.9567 -1.6554
 7677TIP3   OH222952   7.339   7.411   2.079 -0.1191 -0.2680 -0.0582
 7677TIP3    H122953   7.332   7.383   2.170  1.6049  1.7057  0.7692
 7677TIP3    H222954   7.363   7.332   2.031 -2.1175 -1.5810  0.9559
 7678TIP3   OH222955   0.877   5.399   0.177  0.2834  0.2062  0.6775
 7678TIP3    H122956   0.966   5.417   0.148  0.2052 -1.3029 -0.6733
 7678TIP3    H222957   0.881   5.312   0.217 -0.6060 -0.0032  0.3546
 7679TIP3   OH222958   8.585   5.280   4.988 -0.2507  0.1118  0.1953
 7679TIP3    H122959   8.583   5.371   4.958  0.9157  0.0535 -0.0848
 7679TIP3    H222960   8.514   5.275   5.052 -0.5479  1.1285 -0.0344
 7680TIP3   OH222961   7.064   1.565   3.123 -0.0901 -0.0420  0.1128
 7680TIP3    H122962   7.072   1.639   3.062  1.5939  1.8694  2.4318
 7680TIP3    H222963   7.142   1.512   3.107  0.0863  0.1774  0.2316
 7681TIP3   OH222964   6.755   4.653   5.879  0.2932 -0.0533  0.0043
 7681TIP3    H122965   6.668   4.691   5.889 -0.1400 -0.8821 -0.4152
 7681TIP3    H222966   6.782   4.630   5.968  0.4505  0.9753  0.2258
 7682TIP3   OH222967   6.423   5.894   3.545  0.1623  0.1414 -0.5368
 7682TIP3    H122968   6.433   5.977   3.590 -0.3251 -0.1423  0.1140
 7682TIP3    H222969   6.331   5.892   3.517 -0.4210 -1.0465  1.2751
 7683TIP3   OH222970   3.314   6.762   3.465  0.2122  0.6036  0.1614
 7683TIP3    H122971   3.290   6.685   3.516  1.3343 -0.3320 -0.6512
 7683TIP3    H222972   3.388   6.800   3.512  0.7237  0.2122 -0.3145
 7684TIP3   OH222973   2.175   1.738   3.129 -0.3697 -0.2634 -0.0377
 7684TIP3    H122974   2.212   1.792   3.199  2.3126 -1.0570 -0.7330
 7684TIP3    H222975   2.223   1.765   3.051 -1.6936 -1.0044 -1.1341
 7685TIP3   OH222976   0.862   7.949   6.724  0.2618  0.0938  0.4677
 7685TIP3    H122977   0.789   7.982   6.777  0.5326 -0.4971  1.2346
 7685TIP3    H222978   0.844   7.856   6.713  0.8140 -0.0260  0.5264
 7686TIP3   OH222979   4.209   5.754   2.445 -0.0980  0.4322 -0.2978
 7686TIP3    H122980   4.204   5.715   2.532 -0.8345  0.0349 -0.5129
 7686TIP3    H222981   4.296   5.730   2.412 -0.1475 -0.1366 -0.0130
 7687TIP3   OH222982   1.661   6.507   4.495 -0.2021  0.6088  0.7764
 7687TIP3    H122983   1.708   6.424   4.507 -1.3317 -0.3821 -1.1635
 7687TIP3    H222984   1.569   6.481   4.488 -0.7189  2.1830  1.3789
 7688TIP3   OH222985   0.769   6.248   2.106  0.1253 -0.1769 -0.2399
 7688TIP3    H122986   0.798   6.340   2.105  0.2719 -0.2234 -0.3431
 7688TIP3    H222987   0.677   6.252   2.081  0.0292 -0.0238  0.1395
 7689TIP3   OH222988   3.874   5.418   6.609 -0.4033  0.1312  0.2150
 7689TIP3    H122989   3.791   5.412   6.563 -1.4541  2.0259  1.7234
 7689TIP3    H222990   3.922   5.340   6.583 -2.8792 -1.3250 -0.2548
 7690TIP3   OH222991   3.145   2.993   5.042 -0.2931  0.1916  0.5454
 7690TIP3    H122992   3.087   2.962   5.112  0.0009 -0.7560  0.3739
 7690TIP3    H222993   3.225   2.941   5.051 -0.2285  0.0936 -0.4573
 7691TIP3   OH222994   0.550   3.453   6.636  0.0100 -0.1695  0.2168
 7691TIP3    H122995   0.601   3.501   6.570  0.7352  0.8747  1.4832
 7691TIP3    H222996   0.500   3.389   6.586  1.0266  0.1549 -1.2758
 7692TIP3   OH222997  -0.021   7.184   2.909  0.0123  0.4715  0.4918
 7692TIP3    H122998  -0.039   7.256   2.970  1.0366 -0.1622  1.5950
 7692TIP3    H222999   0.074   7.183   2.901  0.0184 -0.7558  0.5094
 7693TIP3   OH223000   7.670   4.817   5.819  0.5344  0.1720 -0.1420
 7693TIP3    H123001   7.612   4.748   5.850 -0.1508 -0.4295 -2.5348
 7693TIP3    H223002   7.653   4.891   5.878 -0.2914 -1.0090  1.1559
 7694TIP3   OH223003   5.629   4.051   5.624 -0.1573  0.1799 -0.6148
 7694TIP3    H123004   5.669   3.996   5.557 -1.5117 -0.5218 -0.8838
 7694TIP3    H223005   5.584   4.121   5.575 -0.7703 -0.0795 -0.4396
 7695TIP3   OH223006   8.721   2.230   3.242  0.1700  0.0460 -0.1294
 7695TIP3    H123007   8.689   2.140   3.235  1.4011 -0.4669  0.4676
 7695TIP3    H223008   8.659   2.282   3.191 -0.9830 -1.0296  0.1238
 7696TIP3   OH223009   5.691   2.258   5.039 -0.0187  0.0631 -0.0482
 7696TIP3    H123010   5.762   2.205   5.002  0.0738 -0.2974  0.6233
 7696TIP3    H223011   5.675   2.220   5.125  1.1778  2.1184  1.1631
 7697TIP3   OH223012   6.931   6.311   4.345 -0.4258  0.4278  0.3411
 7697TIP3    H123013   6.915   6.217   4.355 -1.3774  0.1908 -2.5707
 7697TIP3    H223014   7.024   6.322   4.362 -0.3079 -1.0288  0.7220
 7698TIP3   OH223015   8.530   6.810   5.795  0.1926  0.4773  0.2072
 7698TIP3    H123016   8.578   6.748   5.740 -0.8453 -2.3273  2.2222
 7698TIP3    H223017   8.596   6.845   5.855  0.5410  0.2338 -0.0317
 7699TIP3   OH223018   0.242   4.906   0.831 -0.1742 -0.1606 -0.2391
 7699TIP3    H123019   0.321   4.854   0.816 -0.1270  0.1476 -1.1292
 7699TIP3    H223020   0.241   4.922   0.925 -0.7882 -2.6821  0.2393
 7700TIP3   OH223021   4.620   5.797   2.106  0.0502 -0.3032 -0.4502
 7700TIP3    H123022   4.690   5.838   2.054  2.3385 -0.4076  2.2806
 7700TIP3    H223023   4.540   5.815   2.057  1.7414  1.5687 -2.7806
 7701TIP3   OH223024   7.653   6.031   0.686  0.3448 -0.2572  0.3560
 7701TIP3    H123025   7.691   5.976   0.754  1.2433 -0.7271 -0.5082
 7701TIP3    H223026   7.631   5.971   0.615  1.7590  0.4827 -0.7864
 7702TIP3   OH223027   8.108   5.704   2.058  0.1500  0.3253 -0.3396
 7702TIP3    H123028   8.167   5.636   2.092  0.6395  0.5230 -0.7820
 7702TIP3    H223029   8.126   5.780   2.112  0.3578  0.4057 -0.5185
 7703TIP3   OH223030   4.705   5.302   1.269  0.8828 -0.3214 -0.3632
 7703TIP3    H123031   4.763   5.327   1.196  1.7156 -0.8991  0.0804
 7703TIP3    H223032   4.765   5.283   1.341  0.0347  2.0235  1.0798
 7704TIP3   OH223033   1.996   2.643   0.615 -0.5506 -0.1199 -0.4201
 7704TIP3    H123034   2.038   2.646   0.529 -0.1165 -1.5280 -0.2695
 7704TIP3    H223035   2.068   2.634   0.677 -0.9395 -0.4122 -0.0027
 7705TIP3   OH223036   8.457   4.567   4.686 -0.7960  0.1229  0.3341
 7705TIP3    H123037   8.381   4.587   4.631  1.0296  2.4448 -1.5742
 7705TIP3    H223038   8.489   4.483   4.652 -0.3880  0.9513 -1.4747
 7706TIP3   OH223039   0.408   3.528   5.474  0.4282  0.1140 -0.0773
 7706TIP3    H123040   0.400   3.462   5.405  0.6068 -0.2647  0.2633
 7706TIP3    H223041   0.424   3.478   5.554  0.7961  0.5821  0.1463
 7707TIP3   OH223042   2.475   4.030   6.228  0.2930  0.1282 -0.2181
 7707TIP3    H123043   2.511   4.064   6.146 -0.5052 -1.4038 -1.2621
 7707TIP3    H223044   2.431   4.105   6.269 -0.3363  0.6649 -1.8013
 7708TIP3   OH223045   8.428   4.750   0.565  0.1983 -0.4536 -0.0184
 7708TIP3    H123046   8.453   4.785   0.480 -0.5607 -0.2072 -0.1385
 7708TIP3    H223047   8.463   4.813   0.628 -0.3885  0.0570 -0.2002
 7709TIP3   OH223048   1.460   4.167   5.921  0.2377 -0.2554  0.0062
 7709TIP3    H123049   1.554   4.178   5.937  0.3773  0.7863 -1.3878
 7709TIP3    H223050   1.420   4.249   5.949  0.4000  1.3350 -3.8074
 7710TIP3   OH223051   3.617   3.329   6.491 -0.0772  0.3604  0.0944
 7710TIP3    H123052   3.524   3.309   6.484 -0.6737  1.3740  3.4454
 7710TIP3    H223053   3.620   3.423   6.510  1.5598  0.2359  0.6208
 7711TIP3   OH223054   4.193   6.707   3.932 -0.0742  0.5118 -0.3082
 7711TIP3    H123055   4.121   6.719   3.993 -0.4486 -1.8403 -0.1938
 7711TIP3    H223056   4.218   6.615   3.942  1.8813  0.8556 -1.5092
 7712TIP3   OH223057   3.739   5.696   1.219  0.4959  0.1418 -0.0442
 7712TIP3    H123058   3.721   5.711   1.312 -0.8727 -0.1287 -0.2446
 7712TIP3    H223059   3.804   5.626   1.218  1.4900  1.0220  0.7206
 7713TIP3   OH223060   0.417   5.599   1.394 -0.0772  0.6214 -0.2043
 7713TIP3    H123061   0.498   5.632   1.353 -1.2383  1.8149 -1.6673
 7713TIP3    H223062   0.423   5.504   1.384  0.0917  0.8062 -2.5110
 7714TIP3   OH223063   7.645   6.980   0.337 -0.2905 -0.2217 -0.6984
 7714TIP3    H123064   7.614   6.952   0.251 -1.6761 -1.6907  0.2308
 7714TIP3    H223065   7.569   6.970   0.395  0.1666  2.1042  0.4605
 7715TIP3   OH223066   8.099   2.393   0.458  0.2938 -0.0584 -0.1228
 7715TIP3    H123067   8.118   2.458   0.526  0.8253 -0.6543  0.3125
 7715TIP3    H223068   8.164   2.323   0.473 -0.8055 -1.0982 -0.0139
 7716TIP3   OH223069   7.237   3.824   3.336 -0.2880 -0.1585 -0.9942
 7716TIP3    H123070   7.327   3.818   3.306 -0.2669 -2.0813 -0.6706
 7716TIP3    H223071   7.244   3.852   3.428  0.0335 -0.9188 -0.7793
 7717TIP3   OH223072   1.644   0.784   3.776 -0.0808  0.2019 -0.1810
 7717TIP3    H123073   1.719   0.839   3.756 -0.0611  0.8746  1.6058
 7717TIP3    H223074   1.608   0.820   3.857 -1.4429 -1.0102 -0.2053
 7718TIP3   OH223075   4.955   5.173   5.112  0.3061  0.4518 -0.2774
 7718TIP3    H123076   4.979   5.147   5.023  1.3452  0.7868 -0.1144
 7718TIP3    H223077   5.002   5.112   5.169 -0.1202  0.4229  0.0496
 7719TIP3   OH223078   4.383   4.156   3.700  0.1658 -0.3434  0.2619
 7719TIP3    H123079   4.426   4.220   3.757  2.4942 -0.3333 -1.3639
 7719TIP3    H223080   4.299   4.197   3.678  0.4658  0.9518  1.3686
 7720TIP3   OH223081   0.266   4.941   5.119  0.6277  0.6039  0.1473
 7720TIP3    H123082   0.209   4.940   5.042 -1.1370  0.3352  1.4029
 7720TIP3    H223083   0.225   4.880   5.181  1.6185  1.3155  1.5678
 7721TIP3   OH223084   6.264   2.421   4.983 -0.3541  0.0614 -0.1633
 7721TIP3    H123085   6.304   2.413   5.070 -4.2410 -0.9779  1.7722
 7721TIP3    H223086   6.305   2.352   4.931  0.3298 -0.9857  1.6622
 7722TIP3   OH223087   3.195   0.703   2.778 -0.3241 -0.3873 -0.1636
 7722TIP3    H123088   3.128   0.695   2.846  0.3392  1.1944  0.7345
 7722TIP3    H223089   3.236   0.617   2.775 -0.3541 -0.5002  1.4838
 7723TIP3   OH223090   3.130   5.217   5.976  0.1062  0.0605 -0.1563
 7723TIP3    H123091   3.219   5.180   5.978 -0.0704 -0.5025 -1.3649
 7723TIP3    H223092   3.076   5.152   6.021  0.7117  1.8391  3.4600
 7724TIP3   OH223093   0.622   4.399   3.884  0.2504 -0.5727  0.1515
 7724TIP3    H123094   0.581   4.445   3.958 -0.6356 -0.7286 -0.2258
 7724TIP3    H223095   0.552   4.391   3.819  1.5797  1.7329 -1.7550
 7725TIP3   OH223096   4.906   6.570   2.095 -0.0025 -0.3955  0.3303
 7725TIP3    H123097   4.988   6.613   2.071 -1.0241  1.3896 -0.1175
 7725TIP3    H223098   4.899   6.581   2.190 -0.3907  0.7458  0.1866
 7726TIP3   OH223099   4.926   6.220   2.416  0.0476  0.9494 -0.5979
 7726TIP3    H123100   4.945   6.299   2.466  0.1842 -0.3043  1.4561
 7726TIP3    H223101   4.974   6.151   2.461 -0.5971 -0.4370 -1.9289
 7727TIP3   OH223102   3.456   2.815   6.753  0.4148  0.2025  0.2888
 7727TIP3    H123103   3.452   2.880   6.823  0.5826 -0.6859  1.1328
 7727TIP3    H223104   3.544   2.824   6.716 -0.3192  2.0625 -1.1973
 7728TIP3   OH223105   2.362   0.114   0.337  0.8821  0.3203  0.1788
 7728TIP3    H123106   2.276   0.134   0.299  0.8639  0.9013  0.5210
 7728TIP3    H223107   2.416   0.189   0.313  0.7773  0.8779  1.6073
 7729TIP3   OH223108   7.675   0.032   1.293 -0.3219 -0.0314  0.5160
 7729TIP3    H123109   7.758   0.016   1.248 -0.4364 -0.5280  0.4670
 7729TIP3    H223110   7.682   0.122   1.325  0.8636 -0.5543  1.8358
 7730TIP3   OH223111   0.934   0.912   1.309  0.2552  0.0212  0.3354
 7730TIP3    H123112   0.986   0.843   1.351 -1.0418  0.3549  2.6547
 7730TIP3    H223113   0.929   0.982   1.375 -3.7263 -0.3128  0.6266
 7731TIP3   OH223114   6.238   3.652   4.387  0.0921  0.2802 -0.1830
 7731TIP3    H123115   6.149   3.673   4.418 -0.3609 -1.2998 -0.3434
 7731TIP3    H223116   6.225   3.622   4.297  0.7689 -0.1112 -0.1540
 7732TIP3   OH223117   1.886   0.081   6.507 -0.2656  0.8153 -0.1180
 7732TIP3    H123118   1.941   0.005   6.494 -0.0163  0.7696  1.1432
 7732TIP3    H223119   1.799   0.052   6.479 -0.0222  0.3344 -0.4003
 7733TIP3   OH223120   3.166   4.092   1.590  0.2695  0.0949 -0.0918
 7733TIP3    H123121   3.094   4.153   1.572 -0.2428 -0.9499 -1.7946
 7733TIP3    H223122   3.232   4.146   1.633 -0.9755  1.3896  0.3061
 7734TIP3   OH223123   3.033   4.396   0.329 -0.1765 -0.5068 -0.5620
 7734TIP3    H123124   3.087   4.324   0.362  0.8339 -0.0367 -1.1185
 7734TIP3    H223125   3.044   4.391   0.234 -1.4641 -0.6427 -0.7255
 7735TIP3   OH223126   7.232   6.253   1.790 -0.2460 -0.2306 -0.3555
 7735TIP3    H123127   7.239   6.334   1.840  1.1342 -0.6596  0.1887
 7735TIP3    H223128   7.144   6.221   1.809 -0.0211  0.0101  1.1983
 7736TIP3   OH223129   3.665   1.609   0.458 -0.9778 -0.2840 -0.0047
 7736TIP3    H123130   3.649   1.696   0.421  2.0443  0.0921 -0.6537
 7736TIP3    H223131   3.662   1.623   0.553  1.1610  0.9641 -0.0656
 7737TIP3   OH223132   2.720   2.747   4.158 -0.7419  0.2916 -0.1474
 7737TIP3    H123133   2.752   2.830   4.123  0.3074 -0.4064 -0.9042
 7737TIP3    H223134   2.723   2.758   4.253  0.9024  0.5714 -0.2147
 7738TIP3   OH223135   3.173   7.751   5.094  0.0016 -0.0973 -0.1626
 7738TIP3    H123136   3.089   7.705   5.084 -0.7143  1.1726 -0.3119
 7738TIP3    H223137   3.186   7.794   5.009 -0.1270  1.1897  0.4566
 7739TIP3   OH223138   7.434   7.416   5.316 -0.8597 -0.7529 -0.0485
 7739TIP3    H123139   7.521   7.376   5.324  0.0115  0.8584 -1.0469
 7739TIP3    H223140   7.376   7.357   5.366  1.1033 -0.7957  2.3953
 7740TIP3   OH223141   3.771   2.000   2.384  0.2254 -0.4916  0.0109
 7740TIP3    H123142   3.758   2.090   2.413  0.2354 -0.4642 -0.0685
 7740TIP3    H223143   3.810   1.955   2.459 -1.6448 -0.9392  0.7651
 7741TIP3   OH223144   2.139   0.977   2.398 -0.6799  0.1505  0.2136
 7741TIP3    H123145   2.052   0.944   2.375 -0.7190 -0.5012  1.2181
 7741TIP3    H223146   2.123   1.042   2.466 -0.2930 -1.2442  1.6958
 7742TIP3   OH223147   6.441   1.677   3.108  0.2333 -0.2941  0.1870
 7742TIP3    H123148   6.408   1.744   3.048 -1.8304  0.1485  1.7048
 7742TIP3    H223149   6.438   1.718   3.194  1.6511 -1.4205  0.8183
 7743TIP3   OH223150   4.002   7.671   5.714  0.4102  0.2893 -0.1066
 7743TIP3    H123151   3.946   7.738   5.752  0.4927  0.4371 -0.2443
 7743TIP3    H223152   4.082   7.673   5.767 -0.4435 -1.2441  1.3240
 7744TIP3   OH223153   3.605   0.452   4.357  0.4836  0.3715 -0.1539
 7744TIP3    H123154   3.541   0.479   4.422  0.5138 -1.5805  0.7706
 7744TIP3    H223155   3.630   0.533   4.313 -3.0945  1.1534 -1.0582
 7745TIP3   OH223156   7.293   1.141   1.006 -0.8253  0.2983 -0.2089
 7745TIP3    H123157   7.269   1.125   0.915 -0.2931  0.7457 -0.4315
 7745TIP3    H223158   7.289   1.055   1.047  0.5905 -0.2012 -1.0501
 7746TIP3   OH223159   7.717   6.773   7.066  0.0637 -0.4330  0.1157
 7746TIP3    H123160   7.745   6.695   7.113 -0.6449 -0.7610  0.0077
 7746TIP3    H223161   7.798   6.813   7.035  0.4812 -0.6463  0.9238
 7747TIP3   OH223162   8.496   7.850   2.879  1.4510  0.7190  0.2347
 7747TIP3    H123163   8.467   7.940   2.893  0.1786  0.4681 -0.6019
 7747TIP3    H223164   8.489   7.838   2.784 -2.2066 -1.4373  0.6139
 7748TIP3   OH223165   6.599   7.207   2.344 -0.0774 -1.0293  0.0954
 7748TIP3    H123166   6.615   7.245   2.258  1.8110 -0.4290  0.6692
 7748TIP3    H223167   6.507   7.228   2.363  0.2263  1.1771 -0.6398
 7749TIP3   OH223168   2.588   7.609   1.882 -0.3571  0.3808  0.8596
 7749TIP3    H123169   2.579   7.547   1.955  1.0806  0.4680  1.1600
 7749TIP3    H223170   2.513   7.667   1.891 -1.3045 -0.8272  1.0497
 7750TIP3   OH223171   5.970   2.619   0.299  0.1912  0.3135 -0.1859
 7750TIP3    H123172   5.917   2.669   0.361 -1.3195 -3.3482  1.7479
 7750TIP3    H223173   5.920   2.620   0.218 -0.3156  0.9716  0.1246
 7751TIP3   OH223174   7.329   5.572   0.001 -0.5950 -0.3405  0.0373
 7751TIP3    H123175   7.322   5.658   0.042  1.3758 -0.6783  1.1714
 7751TIP3    H223176   7.279   5.514   0.059 -1.0609 -0.1569 -0.1723
 7752TIP3   OH223177   3.246   8.025   1.878 -0.2735  0.1351 -0.3457
 7752TIP3    H123178   3.290   8.046   1.795  0.6075 -1.0676 -0.2144
 7752TIP3    H223179   3.302   7.959   1.918 -1.0804  0.1681  0.8778
 7753TIP3   OH223180   7.041   2.066   4.653 -0.2269 -0.2087  0.3605
 7753TIP3    H123181   7.015   2.158   4.660 -0.2590 -0.0517 -1.2804
 7753TIP3    H223182   7.100   2.052   4.726  0.8952  1.5366 -0.1489
 7754TIP3   OH223183   5.019   5.468   3.656  0.5953  0.0327  0.1904
 7754TIP3    H123184   4.953   5.414   3.701  0.4263  0.2111  0.1547
 7754TIP3    H223185   4.978   5.553   3.647  0.5401 -0.0660 -0.5248
 7755TIP3   OH223186   8.549   0.449   0.905  0.4893 -0.6317  0.0390
 7755TIP3    H123187   8.457   0.441   0.929  0.1719  0.5354 -0.7194
 7755TIP3    H223188   8.581   0.524   0.955  1.3016 -1.5596  0.9886
 7756TIP3   OH223189   3.777   0.291   5.631  1.2729  0.2736  0.1081
 7756TIP3    H123190   3.803   0.216   5.578 -0.6502 -1.6754  1.7150
 7756TIP3    H223191   3.726   0.347   5.572 -0.2768 -1.5174 -0.3201
 7757TIP3   OH223192   4.578   2.012   4.581 -0.0465 -0.5448  0.1296
 7757TIP3    H123193   4.521   2.078   4.620 -0.8379 -1.5861  0.7869
 7757TIP3    H223194   4.666   2.050   4.587 -0.3947  0.1388  1.1624
 7758TIP3   OH223195   0.277   4.673   5.722  0.2615  0.3406 -0.7726
 7758TIP3    H123196   0.339   4.603   5.743 -1.0335 -0.5910  0.0592
 7758TIP3    H223197   0.331   4.752   5.721  1.7151 -0.6043 -1.4816
 7759TIP3   OH223198   3.913   2.320   1.539 -0.0204  0.7168 -0.4580
 7759TIP3    H123199   3.980   2.312   1.471 -0.3877  0.2014 -0.7628
 7759TIP3    H223200   3.846   2.375   1.499  0.2896  1.3849 -0.0883
 7760TIP3   OH223201   5.579   6.388   6.399 -0.5110 -0.2066 -0.1959
 7760TIP3    H123202   5.639   6.396   6.324 -0.8258  1.1060 -0.3250
 7760TIP3    H223203   5.585   6.296   6.424 -0.9560 -0.8846 -2.3217
 7761TIP3   OH223204   8.311   4.915   6.163  0.0773  0.2912  0.3238
 7761TIP3    H123205   8.289   4.878   6.248  1.5735 -2.0788 -0.2287
 7761TIP3    H223206   8.284   4.849   6.099  0.6094  1.2108 -0.9126
 7762TIP3   OH223207   6.076   4.343   4.676 -0.2786  0.1733 -0.8261
 7762TIP3    H123208   6.157   4.369   4.632 -0.1230 -0.3287 -0.8365
 7762TIP3    H223209   6.088   4.251   4.698 -1.3898 -0.3104 -2.0882
 7763TIP3   OH223210   4.111   1.608   6.685  0.1345  0.5018  0.3288
 7763TIP3    H123211   4.164   1.640   6.611  0.3500 -1.5694 -0.4921
 7763TIP3    H223212   4.168   1.617   6.761  1.4596 -0.9418 -0.4225
 7764TIP3   OH223213   6.836   2.057   0.700  0.0020 -0.3622 -1.0487
 7764TIP3    H123214   6.825   1.962   0.689  1.8496 -0.6362 -0.8144
 7764TIP3    H223215   6.881   2.085   0.620 -1.6384  0.5615 -1.6865
 7765TIP3   OH223216   6.938   2.700   5.348  0.1311 -0.6848 -0.0089
 7765TIP3    H123217   6.937   2.743   5.262  1.3925  1.0216  0.7580
 7765TIP3    H223218   6.925   2.772   5.410  0.6891 -1.6704  1.2948
 7766TIP3   OH223219   1.072   5.845   3.089 -0.5742 -0.0690  0.4473
 7766TIP3    H123220   1.105   5.807   3.007 -2.4981 -0.8772 -0.0133
 7766TIP3    H223221   1.039   5.931   3.063  1.6472  1.0424  1.0419
 7767TIP3   OH223222   7.681   0.842   5.831  0.0820  0.3788  1.0154
 7767TIP3    H123223   7.698   0.912   5.768 -2.9031  0.3857  0.0776
 7767TIP3    H223224   7.712   0.763   5.786 -2.0120  0.3803 -0.6093
 7768TIP3   OH223225   6.623   2.036   5.087  0.2479  0.1879  0.1010
 7768TIP3    H123226   6.576   1.968   5.040  0.5598 -0.7786  1.1586
 7768TIP3    H223227   6.703   1.994   5.118  1.1124  1.3969 -0.3708
 7769TIP3   OH223228   6.985   0.403   3.964 -0.7116  0.1305  0.6322
 7769TIP3    H123229   7.076   0.408   3.995 -0.3614 -1.8361  0.0826
 7769TIP3    H223230   6.984   0.455   3.884 -0.2352  0.7322  1.0127
 7770TIP3   OH223231   7.416   3.138   1.004  0.1907  0.9399 -0.0223
 7770TIP3    H123232   7.509   3.159   1.003  0.3875  0.1124  0.0965
 7770TIP3    H223233   7.413   3.043   0.992 -0.5775  0.7738  1.2824
 7771TIP3   OH223234   7.450   4.796   3.692 -0.3388  0.8917 -0.2775
 7771TIP3    H123235   7.411   4.818   3.608  0.4132 -1.1575 -1.2120
 7771TIP3    H223236   7.379   4.758   3.743 -0.4438  0.7018 -0.5645
 7772TIP3   OH223237   5.807   0.784   4.846 -0.0637 -0.3586  0.0793
 7772TIP3    H123238   5.866   0.773   4.771  2.2753  2.1943  1.3929
 7772TIP3    H223239   5.744   0.850   4.817  0.9565  0.7724  0.3444
 7773TIP3   OH223240   4.172   0.355   1.298 -0.3696  0.8727 -0.1480
 7773TIP3    H123241   4.255   0.371   1.252 -1.0005 -1.4422 -2.3164
 7773TIP3    H223242   4.199   0.309   1.378  0.4980  0.5739 -0.5897
 7774TIP3   OH223243   7.648   2.043   4.838 -0.0863 -0.2561  0.5205
 7774TIP3    H123244   7.631   1.985   4.764 -0.7620 -0.7190  1.0173
 7774TIP3    H223245   7.705   1.991   4.896  0.9390  0.3269  0.0617
 7775TIP3   OH223246   1.683   5.220   3.239  0.4157 -0.0507 -0.2785
 7775TIP3    H123247   1.724   5.151   3.293 -1.4737 -0.4630  0.7216
 7775TIP3    H223248   1.732   5.300   3.262  0.7687 -0.5357  0.7470
 7776TIP3   OH223249   0.218   6.706   2.394  0.6297 -0.6331  0.2678
 7776TIP3    H123250   0.174   6.631   2.435 -1.4864  0.5560  0.3390
 7776TIP3    H223251   0.289   6.668   2.344  1.0004 -2.4800  2.0584
 7777TIP3   OH223252   3.268   5.473   4.052  0.3816 -0.1902  0.3216
 7777TIP3    H123253   3.197   5.410   4.056 -0.3479  0.6479  1.0759
 7777TIP3    H223254   3.337   5.436   4.108 -0.3534  0.0383  1.4130
 7778TIP3   OH223255   7.761   7.623   5.172  0.0363  0.3070 -0.1176
 7778TIP3    H123256   7.699   7.640   5.101 -0.9161 -0.1034  0.5861
 7778TIP3    H223257   7.722   7.667   5.248 -0.3199 -1.4560  0.7538
 7779TIP3   OH223258   3.826   7.846   4.141  0.0438 -0.1663 -0.5199
 7779TIP3    H123259   3.860   7.935   4.149  1.7810 -0.7022 -1.4481
 7779TIP3    H223260   3.895   7.798   4.096 -0.4332 -2.2279  0.8227
 7780TIP3   OH223261   2.700   0.358   3.265  0.2456 -0.4528  0.6817
 7780TIP3    H123262   2.718   0.429   3.326  0.2182  0.4227 -0.2925
 7780TIP3    H223263   2.646   0.297   3.314  2.8606 -1.4148  2.5763
 7781TIP3   OH223264   8.619   2.402   6.450  0.2964  0.5960 -0.0317
 7781TIP3    H123265   8.599   2.473   6.511  2.2175  0.3802  0.9129
 7781TIP3    H223266   8.609   2.322   6.501 -0.0372  0.2842 -0.5730
 7782TIP3   OH223267   0.389   2.764   5.454 -0.1098 -0.1350 -0.0277
 7782TIP3    H123268   0.365   2.817   5.378  0.8048 -1.3850 -1.2169
 7782TIP3    H223269   0.447   2.820   5.505 -0.4331  0.5763 -0.4259
 7783TIP3   OH223270   0.655   5.828   5.780  0.1339  0.2293 -0.4898
 7783TIP3    H123271   0.705   5.822   5.862  1.2758  2.9006 -0.9019
 7783TIP3    H223272   0.564   5.839   5.809  0.5446  1.3549  0.4608
 7784TIP3   OH223273   3.862   3.106   3.946  0.2256 -0.2339 -0.2780
 7784TIP3    H123274   3.852   3.066   4.032  0.3565  1.1809  0.4275
 7784TIP3    H223275   3.953   3.088   3.921  0.3861 -0.0747  0.1870
 7785TIP3   OH223276   3.592   3.744   1.743 -0.5388  0.2055 -0.5307
 7785TIP3    H123277   3.619   3.685   1.813 -0.7251 -0.0646 -0.6793
 7785TIP3    H223278   3.544   3.687   1.682 -1.9754  0.7611  0.0289
 7786TIP3   OH223279   7.901   7.326   4.156 -0.2500 -0.0645  0.3264
 7786TIP3    H123280   7.939   7.245   4.120  0.3752  0.2756  0.2076
 7786TIP3    H223281   7.894   7.308   4.250 -0.0200 -0.2253  0.3161
 7787TIP3   OH223282   6.542   6.508   6.550 -0.1301  0.2909 -0.1561
 7787TIP3    H123283   6.616   6.496   6.490 -0.3908 -3.2960  0.0026
 7787TIP3    H223284   6.468   6.527   6.492 -0.0252 -1.3077 -0.8621
 7788TIP3   OH223285   2.186   7.358   6.670 -0.1920  0.8818  0.3697
 7788TIP3    H123286   2.240   7.294   6.716  0.0397 -0.7696 -1.9945
 7788TIP3    H223287   2.096   7.338   6.697 -0.0172  0.3466  0.5597
 7789TIP3   OH223288   4.180   2.126   5.439 -0.1779  0.2713 -0.3187
 7789TIP3    H123289   4.212   2.037   5.428  0.7462  0.2409  2.1123
 7789TIP3    H223290   4.103   2.118   5.495  0.2667  1.0105  0.4346
 7790TIP3   OH223291   0.931   4.692   4.062  0.0421 -0.2473  0.3361
 7790TIP3    H123292   0.994   4.652   4.121 -0.0266 -1.5034 -0.4060
 7790TIP3    H223293   0.850   4.697   4.113  0.3992  0.2128  0.8721
 7791TIP3   OH223294   1.331   0.285   1.258 -0.3125  0.0773 -0.3656
 7791TIP3    H123295   1.303   0.194   1.261  1.4910 -0.5467 -0.9854
 7791TIP3    H223296   1.350   0.301   1.165  1.8780  0.2182  0.0406
 7792TIP3   OH223297   4.331   6.669   0.025 -0.3331  0.4534  0.2290
 7792TIP3    H123298   4.287   6.622   0.095  2.2319 -0.8465  1.1057
 7792TIP3    H223299   4.373   6.600  -0.027  0.9091  1.6094 -0.3511
 7793TIP3   OH223300   3.332   1.794   2.781  0.6857 -0.3980  0.0965
 7793TIP3    H123301   3.359   1.740   2.855 -1.0795 -1.2771  0.1407
 7793TIP3    H223302   3.328   1.733   2.707 -1.4080 -0.4105  0.1612
 7794TIP3   OH223303   5.808   6.639   1.665  0.0039  0.1313  0.3026
 7794TIP3    H123304   5.904   6.636   1.666  0.0180 -1.3868 -0.7275
 7794TIP3    H223305   5.784   6.589   1.586 -1.6458 -0.1762  0.9615
 7795TIP3   OH223306   7.380   0.227   3.929 -0.8686 -0.2364 -0.3628
 7795TIP3    H123307   7.348   0.182   3.850 -0.4907  0.6352 -1.0288
 7795TIP3    H223308   7.474   0.236   3.915 -0.7808 -0.1754  0.2480
 7796TIP3   OH223309   1.868   7.645   3.865 -0.0950  0.1048  0.0528
 7796TIP3    H123310   1.794   7.672   3.811  0.1216 -0.2548 -0.4231
 7796TIP3    H223311   1.900   7.726   3.904  0.1518  0.4529 -0.8621
 7797TIP3   OH223312   0.296   4.342   0.328 -0.2154 -1.0127 -0.0012
 7797TIP3    H123313   0.377   4.384   0.357 -0.9232 -0.3545  1.1227
 7797TIP3    H223314   0.301   4.343   0.232 -1.1720  3.9664 -0.3035
 7798TIP3   OH223315   1.346   3.136   2.094  0.4045  0.0027 -0.3610
 7798TIP3    H123316   1.308   3.106   2.011  0.2698 -0.2326 -0.2181
 7798TIP3    H223317   1.328   3.230   2.097 -0.2951 -0.1267 -0.2346
 7799TIP3   OH223318   7.424   6.479   0.910 -0.2105  0.0231  0.2203
 7799TIP3    H123319   7.491   6.546   0.926  0.0245 -0.5966  2.1443
 7799TIP3    H223320   7.468   6.413   0.858  1.4302 -1.3736  3.1658
 7800TIP3   OH223321   3.972   3.284   6.071  0.1505 -0.0928  0.2671
 7800TIP3    H123322   4.050   3.236   6.043  2.2736  1.7127  2.6412
 7800TIP3    H223323   3.913   3.217   6.105  0.3744 -1.5494 -2.0372
 7801TIP3   OH223324   0.183   6.640   1.443 -0.0144  0.2595 -0.1762
 7801TIP3    H123325   0.208   6.720   1.398  0.4647  1.0062  1.3471
 7801TIP3    H223326   0.258   6.581   1.432 -1.0026 -0.6477 -2.6793
 7802TIP3   OH223327   5.261   7.661   5.813 -0.5507  0.5778 -0.2112
 7802TIP3    H123328   5.214   7.722   5.756 -1.4250 -0.0329 -0.1671
 7802TIP3    H223329   5.200   7.587   5.824 -0.0226  0.2723  0.7655
 7803TIP3   OH223330   2.415   1.297   3.223 -0.0877 -0.1273  0.4549
 7803TIP3    H123331   2.449   1.385   3.207  0.1694 -0.1021  1.0909
 7803TIP3    H223332   2.471   1.262   3.293  0.5345 -1.2206 -0.5449
 7804TIP3   OH223333   0.702   8.035   2.363  0.1564  0.4334 -0.5688
 7804TIP3    H123334   0.645   8.097   2.317  0.0686 -0.3181 -1.5198
 7804TIP3    H223335   0.702   7.957   2.307  0.8356 -0.1630  0.2357
 7805TIP3   OH223336   2.425   4.772   0.410  0.4160 -0.0767  0.3428
 7805TIP3    H123337   2.414   4.772   0.315  1.0871  2.7677  0.1638
 7805TIP3    H223338   2.478   4.695   0.429  1.5537  0.1061 -1.7989
 7806TIP3   OH223339   7.253   1.930   3.115  0.1911 -0.3299  0.0358
 7806TIP3    H123340   7.296   1.987   3.051  0.2715  0.8701  1.1293
 7806TIP3    H223341   7.302   1.943   3.196 -1.8890  0.7407  1.2223
 7807TIP3   OH223342   0.194   7.464   5.925  0.1193 -0.0360  0.1869
 7807TIP3    H123343   0.119   7.514   5.957 -0.0631 -0.8340  1.0598
 7807TIP3    H223344   0.167   7.434   5.838 -0.5622 -0.2781  0.4758
 7808TIP3   OH223345   2.599   2.424   5.957 -0.5931  0.0570 -0.3367
 7808TIP3    H123346   2.552   2.383   6.030 -1.9341  0.3272 -1.0059
 7808TIP3    H223347   2.572   2.516   5.961  0.0242  0.2577 -0.6479
 7809TIP3   OH223348   6.825   3.126   2.814  0.1733 -0.0853  0.4203
 7809TIP3    H123349   6.826   3.221   2.830  0.2789 -0.4221  2.7886
 7809TIP3    H223350   6.747   3.112   2.760  0.6239  1.4280 -0.6964
 7810TIP3   OH223351   2.886   4.253   5.467 -0.8465 -0.0787  0.0185
 7810TIP3    H123352   2.959   4.263   5.529  0.6790 -0.7152 -1.6056
 7810TIP3    H223353   2.808   4.255   5.523  0.2809  2.1938  1.6684
 7811TIP3   OH223354   0.449   3.790   2.952 -0.3440 -0.1120  0.0605
 7811TIP3    H123355   0.388   3.798   3.026  0.7188 -0.7847  1.0624
 7811TIP3    H223356   0.534   3.817   2.988  0.5745 -2.2715 -0.3280
 7812TIP3   OH223357   2.550   2.664   0.896  0.1247  0.0999 -0.2063
 7812TIP3    H123358   2.572   2.574   0.872  0.8656 -0.4475  2.2390
 7812TIP3    H223359   2.622   2.692   0.952  1.1207  3.0982 -2.6891
 7813TIP3   OH223360   5.717   3.087   5.610  0.0332 -0.3156  0.2209
 7813TIP3    H123361   5.760   3.008   5.644  0.3251 -1.7347 -3.1062
 7813TIP3    H223362   5.624   3.063   5.605 -0.0072 -0.1172  0.0316
 7814TIP3   OH223363   5.701   1.875   5.362  0.1882 -0.5540 -0.2309
 7814TIP3    H123364   5.736   1.854   5.449 -0.6918  1.2211  0.6188
 7814TIP3    H223365   5.620   1.825   5.356 -1.4183  1.6101  1.3856
 7815TIP3   OH223366   1.658   7.900   2.623  0.1572  0.5172 -0.1506
 7815TIP3    H123367   1.609   7.942   2.552  0.4070 -0.0108 -0.6406
 7815TIP3    H223368   1.729   7.853   2.579  0.4385  0.3522  0.4668
 7816TIP3   OH223369   3.144   0.419   2.661 -0.2657 -0.1420 -0.3417
 7816TIP3    H123370   3.079   0.483   2.632  0.5065  0.3484 -1.0420
 7816TIP3    H223371   3.107   0.335   2.637 -0.3225  0.1751 -1.4316
 7817TIP3   OH223372   8.224   6.139   1.061 -0.1617  0.1030 -0.3398
 7817TIP3    H123373   8.254   6.092   1.139 -0.5043 -1.2422 -0.9748
 7817TIP3    H223374   8.182   6.218   1.094  0.4513 -0.0262  0.7808
 7818TIP3   OH223375   0.364   8.132   0.215  0.7577  0.0344 -0.5584
 7818TIP3    H123376   0.391   8.192   0.284  1.8748  0.2027 -1.1274
 7818TIP3    H223377   0.444   8.088   0.189  0.2303 -0.4985 -1.3022
 7819TIP3   OH223378   5.000   4.763   4.681 -0.9438 -0.0014 -0.2983
 7819TIP3    H123379   5.053   4.683   4.680  1.0235  1.1421  2.2562
 7819TIP3    H223380   5.040   4.819   4.615 -0.4573 -0.0304 -0.0291
 7820TIP3   OH223381   0.692   2.977   4.787  0.4879 -0.0011 -0.2279
 7820TIP3    H123382   0.709   3.042   4.856 -2.0092  0.0474  0.4511
 7820TIP3    H223383   0.705   3.025   4.705  2.1544  0.3180  0.1725
 7821TIP3   OH223384   0.732   4.650   2.680 -0.2028 -0.4156  0.1730
 7821TIP3    H123385   0.657   4.627   2.736 -1.7617  0.7001 -1.3565
 7821TIP3    H223386   0.701   4.636   2.591  1.0615  1.0467 -0.5471
 7822TIP3   OH223387   4.244   6.749   2.290 -0.1314 -0.2143  0.2162
 7822TIP3    H123388   4.235   6.842   2.271 -0.2243 -0.3917 -0.6468
 7822TIP3    H223389   4.224   6.741   2.384 -0.1860  0.6186  0.2774
 7823TIP3   OH223390   0.736   0.330   1.979 -0.5456  0.2023  0.5193
 7823TIP3    H123391   0.727   0.368   2.067 -2.4367 -0.5566  0.7066
 7823TIP3    H223392   0.806   0.265   1.988 -0.4499  0.4110  1.3636
 7824TIP3   OH223393   2.412   4.236   3.736  0.0695  0.0330 -0.4582
 7824TIP3    H123394   2.336   4.179   3.720 -0.4341  1.2955 -3.3081
 7824TIP3    H223395   2.467   4.223   3.659  0.6489  2.2560 -0.4716
 7825TIP3   OH223396   0.102   4.368   3.102  0.5207  0.5304 -0.2665
 7825TIP3    H123397   0.010   4.343   3.109  0.3449  1.1149 -0.3843
 7825TIP3    H223398   0.100   4.464   3.099  0.9840  0.5136 -2.3589
 7826TIP3   OH223399   5.633   5.155   2.384 -0.2568  0.0816  0.4407
 7826TIP3    H123400   5.554   5.202   2.356 -0.2553  2.3463  3.6766
 7826TIP3    H223401   5.603   5.065   2.401 -1.5095  0.2505 -0.7101
 7827TIP3   OH223402   1.469   0.146   5.170  0.4901 -0.2282  0.1304
 7827TIP3    H123403   1.555   0.162   5.132  0.0088  1.2784 -0.4049
 7827TIP3    H223404   1.428   0.232   5.174 -0.8607 -0.8647  0.7100
 7828TIP3   OH223405   5.025   3.842   0.057  0.1414 -0.1221 -0.4259
 7828TIP3    H123406   5.020   3.768  -0.003  0.6242 -0.1858 -0.3913
 7828TIP3    H223407   5.052   3.804   0.141  2.1696  0.2854 -0.8305
 7829TIP3   OH223408   5.251   4.775   6.111  0.0398 -0.3814  0.1825
 7829TIP3    H123409   5.286   4.704   6.165 -1.1181 -0.6755  0.5738
 7829TIP3    H223410   5.162   4.747   6.089  0.5740 -0.4351 -2.2084
 7830TIP3   OH223411   3.027   1.986   7.082  0.1432 -0.2808  0.4766
 7830TIP3    H123412   3.076   1.909   7.054 -0.0228  0.3177 -1.5772
 7830TIP3    H223413   2.940   1.953   7.103  0.0382 -0.6373 -0.5009
 7831TIP3   OH223414   4.314   4.843   1.946  0.1278 -0.4047  0.3025
 7831TIP3    H123415   4.406   4.820   1.938 -0.0541 -1.3434  0.8077
 7831TIP3    H223416   4.290   4.819   2.036 -0.3856  0.6658  0.4757
 7832TIP3   OH223417   4.003   5.317   5.987 -0.3282  0.2239  0.4231
 7832TIP3    H123418   4.075   5.327   6.050  0.4256  0.6857 -0.4920
 7832TIP3    H223419   3.981   5.406   5.961  1.9746  0.0078 -2.8294
 7833TIP3   OH223420   4.160   7.054   0.646 -0.1737  0.5457  0.2510
 7833TIP3    H123421   4.077   7.019   0.613  0.1675 -0.6430  0.5681
 7833TIP3    H223422   4.214   7.065   0.568  0.6074 -2.1782  0.2885
 7834TIP3   OH223423   0.627   6.463   4.340  0.1744 -0.3407  0.1056
 7834TIP3    H123424   0.659   6.373   4.342 -0.9240 -0.7321  0.4662
 7834TIP3    H223425   0.552   6.464   4.399 -1.6766  0.0848 -2.1063
 7835TIP3   OH223426   0.862   6.185   0.995  0.5389  0.9428  0.4111
 7835TIP3    H123427   0.828   6.107   0.951  1.9892  1.1372 -1.1324
 7835TIP3    H223428   0.896   6.152   1.078  1.1964 -0.0924 -0.2519
 7836TIP3   OH223429   1.670   0.532   5.221  0.0449  0.0111  0.7714
 7836TIP3    H123430   1.745   0.476   5.244  0.6380  0.2776 -0.4273
 7836TIP3    H223431   1.685   0.556   5.129 -1.7783 -0.3511  0.3344
 7837TIP3   OH223432   6.308   2.445   6.462 -0.2891  0.3248 -0.3237
 7837TIP3    H123433   6.370   2.518   6.455  0.4986 -0.1448  1.2696
 7837TIP3    H223434   6.229   2.477   6.419  0.8337  1.1697 -1.8763
 7838TIP3   OH223435   2.775   6.231   3.843  0.5357 -0.5004 -0.0220
 7838TIP3    H123436   2.793   6.318   3.878 -0.6930  0.3636 -1.4010
 7838TIP3    H223437   2.789   6.172   3.917  2.3596  0.7354  0.6873
 7839TIP3   OH223438   3.710   7.572   1.081 -0.0418  0.0451  0.2278
 7839TIP3    H123439   3.759   7.575   1.164  1.5393 -1.0931 -0.6227
 7839TIP3    H223440   3.775   7.592   1.014 -1.5553  2.2458 -0.7055
 7840TIP3   OH223441   0.536   4.134   1.836  0.3000  0.0735  0.3172
 7840TIP3    H123442   0.617   4.110   1.881  0.7324 -0.2321 -0.5901
 7840TIP3    H223443   0.526   4.068   1.767 -1.2989 -0.5112  1.0702
 7841TIP3   OH223444   7.662   4.950   0.804  0.0959  0.7201  0.0921
 7841TIP3    H123445   7.576   4.916   0.781  0.9081 -1.0223 -0.4884
 7841TIP3    H223446   7.701   4.976   0.721  0.4139  0.8229  0.2711
 7842TIP3   OH223447   7.350   5.962   0.482 -0.4985 -0.0342 -0.7372
 7842TIP3    H123448   7.284   5.906   0.522  0.0146 -0.1423 -0.0163
 7842TIP3    H223449   7.304   6.043   0.460 -0.7650  0.0850  0.2157
 7843TIP3   OH223450   8.614   2.782   7.019 -0.5414 -0.4987  0.1448
 7843TIP3    H123451   8.623   2.724   6.944 -1.3961 -1.6969  0.9339
 7843TIP3    H223452   8.688   2.761   7.075 -0.4124 -0.2525  0.0701
 7844TIP3   OH223453   4.910   6.915   5.185 -0.0111  0.7283  0.0065
 7844TIP3    H123454   4.907   6.844   5.249 -1.8790  0.2755 -0.5389
 7844TIP3    H223455   4.946   6.989   5.233 -0.2718  0.0722  1.2446
 7845TIP3   OH223456   2.352   4.583   4.060  0.2865 -0.0010 -0.5232
 7845TIP3    H123457   2.373   4.490   4.070  0.9766  0.0048 -1.7384
 7845TIP3    H223458   2.339   4.614   4.149  0.4734 -1.1674 -0.0711
 7846TIP3   OH223459   4.208   2.234   1.806 -0.4215  0.0675  0.0557
 7846TIP3    H123460   4.120   2.225   1.769 -0.8813 -1.5685  1.4337
 7846TIP3    H223461   4.201   2.308   1.867 -0.8039  0.0096  0.0857
 7847TIP3   OH223462   2.991   6.787   0.095 -0.2462 -0.0046 -0.3371
 7847TIP3    H123463   3.015   6.694   0.100  0.3823  0.2012  0.6439
 7847TIP3    H223464   2.972   6.811   0.186 -1.3622  0.5915 -0.7053
 7848TIP3   OH223465   6.485   4.764   3.733 -0.1251  0.3059  0.2019
 7848TIP3    H123466   6.517   4.675   3.718  1.9410  1.1758 -1.0004
 7848TIP3    H223467   6.546   4.800   3.797 -1.6226  0.5433  1.5499
 7849TIP3   OH223468   0.530   4.391   6.615  0.2330  0.4235  0.0889
 7849TIP3    H123469   0.480   4.425   6.689 -0.6163  0.6148 -0.5635
 7849TIP3    H223470   0.465   4.368   6.549  1.0184  1.8115 -1.2494
 7850TIP3   OH223471   2.684   1.193   6.777  0.1814  0.0554 -0.1089
 7850TIP3    H123472   2.682   1.166   6.685 -0.7706 -0.3431  0.0180
 7850TIP3    H223473   2.720   1.282   6.776  1.0121 -0.2761 -0.7744
 7851TIP3   OH223474   4.281   3.686   3.508 -0.4172 -0.5282  0.6655
 7851TIP3    H123475   4.209   3.727   3.557 -0.7895 -0.5491  0.1437
 7851TIP3    H223476   4.246   3.673   3.420 -0.4171 -2.2342  0.8717
 7852TIP3   OH223477   2.504   8.141   0.144  0.2259 -0.1057 -0.1152
 7852TIP3    H123478   2.425   8.157   0.092 -0.4684 -1.2717  0.5595
 7852TIP3    H223479   2.476   8.082   0.213  1.5076  0.1562  0.6549
 7853TIP3   OH223480   2.651   8.075   5.350 -0.4545  0.0591  0.2776
 7853TIP3    H123481   2.720   8.104   5.290  0.5720 -0.4716  1.1480
 7853TIP3    H223482   2.578   8.052   5.293 -0.2495  1.5141 -0.6122
 7854TIP3   OH223483   0.363   0.687   5.686  0.4127 -0.0406 -0.0761
 7854TIP3    H123484   0.311   0.726   5.757 -0.9352 -2.2850  0.2840
 7854TIP3    H223485   0.428   0.633   5.731 -0.7848 -1.8985 -0.4624
 7855TIP3   OH223486   5.407   0.820   3.612 -0.1256 -0.2112 -0.3225
 7855TIP3    H123487   5.456   0.786   3.687 -1.2428  1.6308  1.3313
 7855TIP3    H223488   5.386   0.742   3.561  0.7465 -1.5417  1.2331
 7856TIP3   OH223489   0.633   7.559   2.642 -0.7230  0.2324 -0.0064
 7856TIP3    H123490   0.695   7.602   2.583 -0.4760 -0.2956 -0.1341
 7856TIP3    H223491   0.674   7.567   2.728 -0.2330 -0.5340 -0.1541
 7857TIP3   OH223492   5.465   2.796   1.006 -0.0761 -0.5417 -0.3688
 7857TIP3    H123493   5.520   2.836   1.073  0.9632 -0.8430 -1.0090
 7857TIP3    H223494   5.379   2.789   1.046  0.6093 -1.0908  1.0748
 7858TIP3   OH223495   7.318   5.683   1.203 -0.1138 -0.1659 -0.0815
 7858TIP3    H123496   7.304   5.717   1.115 -1.2946 -0.7507 -0.1383
 7858TIP3    H223497   7.317   5.760   1.260  1.4720  0.3112 -0.6318
 7859TIP3   OH223498   0.535   7.400   5.587 -0.0006  0.0256 -0.0888
 7859TIP3    H123499   0.513   7.492   5.603 -0.2153 -0.1235  0.4923
 7859TIP3    H223500   0.520   7.388   5.493 -1.9747  0.0545  0.1856
 7860TIP3   OH223501   3.111   3.146   0.762  0.4610  0.0864  0.1355
 7860TIP3    H123502   3.081   3.234   0.784  0.7005  0.2295 -0.1015
 7860TIP3    H223503   3.144   3.111   0.845  1.9896  0.8773 -0.1114
 7861TIP3   OH223504   8.022   2.779   3.093  0.1799  0.1273 -0.1203
 7861TIP3    H123505   8.096   2.840   3.088  0.0782  0.2564 -0.0816
 7861TIP3    H223506   7.972   2.796   3.013 -0.9890  1.5811  0.8634
 7862TIP3   OH223507   0.136   5.110   6.581 -0.4700  0.0219 -0.3835
 7862TIP3    H123508   0.191   5.181   6.616 -0.3203 -0.7613  1.0646
 7862TIP3    H223509   0.063   5.155   6.539 -0.9368  1.0530  1.4200
 7863TIP3   OH223510   7.055   5.858   4.480 -0.3762  0.0158  0.6919
 7863TIP3    H123511   7.089   5.898   4.400  0.5725  0.6573  1.3872
 7863TIP3    H223512   6.961   5.849   4.465 -0.4437  1.4908  0.0643
 7864TIP3   OH223513   2.762   7.753   5.660 -0.2972 -0.0436 -0.8693
 7864TIP3    H123514   2.811   7.679   5.697  0.0405  1.2034  1.4013
 7864TIP3    H223515   2.690   7.767   5.722 -0.1074  1.7532 -1.0027
 7865TIP3   OH223516   7.730   4.234   0.130 -0.3782 -0.2609  0.5302
 7865TIP3    H123517   7.746   4.315   0.178 -0.4396  0.5710 -0.8194
 7865TIP3    H223518   7.745   4.256   0.039  1.3733 -2.2321  0.2742
 7866TIP3   OH223519   0.169   5.546   5.529 -0.2539 -0.4120 -0.5197
 7866TIP3    H123520   0.258   5.521   5.501 -0.6497 -0.4891 -1.7780
 7866TIP3    H223521   0.116   5.468   5.511 -0.8414  0.1198 -1.1643
 7867TIP3   OH223522   7.019   4.601   4.472  0.6469  0.2307  0.4421
 7867TIP3    H123523   7.038   4.618   4.565 -1.2045  1.0271  0.7352
 7867TIP3    H223524   6.996   4.688   4.437  0.1908 -0.2443 -0.4626
 7868TIP3   OH223525   1.926   0.971   6.798  0.2499 -0.4415 -0.1429
 7868TIP3    H123526   1.910   0.909   6.727  1.5766  0.4458 -1.2790
 7868TIP3    H223527   2.009   0.941   6.837 -0.7680 -1.2889  1.4891
 7869TIP3   OH223528   7.105   3.217   1.042  0.1592 -0.0056 -0.3039
 7869TIP3    H123529   7.180   3.186   0.992  0.0344  1.0547 -1.1859
 7869TIP3    H223530   7.096   3.309   1.018 -1.9316 -0.3046 -0.8827
 7870TIP3   OH223531   6.002   6.378   3.868  0.5034  0.1846  0.3728
 7870TIP3    H123532   5.936   6.445   3.885  0.6889  0.4644  0.0155
 7870TIP3    H223533   6.086   6.421   3.887  0.6592  0.2454 -0.4054
 7871TIP3   OH223534   7.390   0.553   4.235  0.1116 -0.1038 -0.3422
 7871TIP3    H123535   7.348   0.508   4.308  0.5554 -2.9176 -1.7030
 7871TIP3    H223536   7.383   0.646   4.257 -0.8204 -0.7844  2.6640
 7872TIP3   OH223537   3.480   4.688   1.956  0.1638  0.5196 -0.0002
 7872TIP3    H123538   3.524   4.768   1.929  0.6225 -0.3071 -1.8364
 7872TIP3    H223539   3.549   4.635   1.996  0.2711  0.3039 -0.4644
 7873TIP3   OH223540   7.011   8.183   0.936  0.5076 -0.5668 -0.2543
 7873TIP3    H123541   7.028   8.121   1.007 -0.8229  0.4932  1.0609
 7873TIP3    H223542   6.921   8.213   0.952 -0.3518 -1.2502 -3.1627
 7874TIP3   OH223543   7.888   6.684   3.495  0.2211  0.1113 -0.4652
 7874TIP3    H123544   7.822   6.615   3.483 -1.0671  0.9999  1.1058
 7874TIP3    H223545   7.850   6.761   3.452  0.8891  0.2930 -0.7423
 7875TIP3   OH223546   1.321   4.758   2.832 -0.2731  0.3776  0.0672
 7875TIP3    H123547   1.331   4.846   2.868  0.2778  0.4547 -0.2696
 7875TIP3    H223548   1.305   4.702   2.908 -0.5885  0.7600  0.2856
 7876TIP3   OH223549   5.436   8.019   6.687 -0.3617  0.3446  0.0688
 7876TIP3    H123550   5.378   8.031   6.613 -2.1840 -1.1077  1.1520
 7876TIP3    H223551   5.392   8.063   6.760 -0.3718 -1.1575  1.0155
 7877TIP3   OH223552   8.526   6.869   2.440  0.1212 -0.1019 -0.3964
 7877TIP3    H123553   8.533   6.780   2.406 -1.6019 -0.5644  0.3590
 7877TIP3    H223554   8.586   6.872   2.514  1.5211 -0.0570 -1.4962
 7878TIP3   OH223555   0.549   4.971   1.365 -0.0937  0.3888  0.0696
 7878TIP3    H123556   0.540   5.045   1.305  0.2932 -0.8543 -1.5933
 7878TIP3    H223557   0.469   4.973   1.417 -0.8028  1.0725 -0.9905
 7879TIP3   OH223558   4.910   3.973   1.887  0.2843  0.2780  0.7654
 7879TIP3    H123559   4.960   3.916   1.945  0.1651 -1.1651 -0.5177
 7879TIP3    H223560   4.818   3.954   1.908  0.2411 -0.2557  0.1112
 7880TIP3   OH223561   4.850   4.539   0.406 -0.0221  0.5068  0.0984
 7880TIP3    H123562   4.927   4.594   0.419  0.1402  0.2150  0.3966
 7880TIP3    H223563   4.800   4.549   0.487 -0.1437  0.4523  0.0300
 7881TIP3   OH223564   1.301   4.134   5.068  0.3570  0.4420 -0.3358
 7881TIP3    H123565   1.365   4.204   5.079 -0.0548  0.6786  0.7158
 7881TIP3    H223566   1.241   4.145   5.142 -0.2839 -0.4204 -0.7105
 7882TIP3   OH223567   7.224   6.646   0.722 -0.0692  0.1670  0.9404
 7882TIP3    H123568   7.222   6.618   0.630  0.8237  2.6692  0.0624
 7882TIP3    H223569   7.297   6.596   0.760  0.5945  0.2528 -0.1569
 7883TIP3   OH223570   8.159   3.996   6.619  0.4102  0.0067  0.9175
 7883TIP3    H123571   8.182   3.909   6.587  0.0735 -0.6351  2.3185
 7883TIP3    H223572   8.234   4.051   6.596 -0.4363  0.0157 -2.2996
 7884TIP3   OH223573   4.831   2.138   4.689 -0.0348  0.8919 -0.5064
 7884TIP3    H123574   4.813   2.060   4.741  0.1706  1.9656  1.2746
 7884TIP3    H223575   4.906   2.114   4.635 -0.8193 -0.5539 -0.9848
 7885TIP3   OH223576   7.669   3.162   1.247 -0.7233  0.1708 -0.0974
 7885TIP3    H123577   7.713   3.085   1.284 -0.1179  0.9407  0.8251
 7885TIP3    H223578   7.692   3.160   1.154  1.2077  0.4773  0.3303
 7886TIP3   OH223579   7.780   4.836   0.256  0.0615 -0.0643  0.6821
 7886TIP3    H123580   7.839   4.761   0.267 -0.5218 -0.4632  1.0880
 7886TIP3    H223581   7.715   4.827   0.325 -0.6070  0.2598  0.1040
 7887TIP3   OH223582   4.297   3.631   4.794  0.1614  0.4092 -0.2079
 7887TIP3    H123583   4.204   3.632   4.819  0.5578  1.6452  1.3364
 7887TIP3    H223584   4.309   3.712   4.744  0.5865  0.6777  0.3236
 7888TIP3   OH223585   4.504   5.381   0.910  0.0420 -0.2470 -0.2093
 7888TIP3    H123586   4.508   5.385   1.005 -2.3578 -0.0177 -0.0613
 7888TIP3    H223587   4.525   5.470   0.881 -1.2336  0.2240  0.2490
 7889TIP3   OH223588   3.252   1.097   0.839  0.2854 -0.1375 -0.5525
 7889TIP3    H123589   3.214   1.184   0.850 -0.7733 -0.8491  2.2232
 7889TIP3    H223590   3.191   1.052   0.780 -0.1298  0.4760 -0.6020
 7890TIP3   OH223591   4.781   2.160   0.927 -0.2075  0.2769 -0.1969
 7890TIP3    H123592   4.802   2.122   1.012  0.7363  1.4874  0.1246
 7890TIP3    H223593   4.744   2.245   0.946  1.0959  1.0653 -1.0032
 7891TIP3   OH223594   1.067   5.744   5.968  0.3561  0.5446 -0.4241
 7891TIP3    H123595   1.154   5.704   5.966  0.0248 -0.2741 -3.0772
 7891TIP3    H223596   1.008   5.674   5.995  0.3852  0.7974  0.3102
 7892TIP3   OH223597   1.052   6.120   0.289  0.3301 -0.6925  0.2399
 7892TIP3    H123598   1.143   6.129   0.261  0.1473  0.1439 -0.1193
 7892TIP3    H223599   1.034   6.202   0.337 -0.3515 -0.6769 -0.0343
 7893TIP3   OH223600   2.142   2.697   0.380  0.0555  0.4288  0.0675
 7893TIP3    H123601   2.120   2.637   0.309  1.3144  1.1590 -0.9916
 7893TIP3    H223602   2.221   2.659   0.419 -1.6397 -0.9993  2.4026
 7894TIP3   OH223603   8.088   0.164   3.118 -0.8234  0.0596 -0.4098
 7894TIP3    H123604   7.996   0.180   3.097 -1.0937  0.4472  0.9389
 7894TIP3    H223605   8.117   0.245   3.161  0.8612  0.8777 -2.9230
 7895TIP3   OH223606   7.013   2.084   5.119 -0.1654  0.1796  0.3572
 7895TIP3    H123607   7.053   2.074   5.032 -0.6274  1.3499 -0.0130
 7895TIP3    H223608   7.086   2.108   5.176 -0.0270  0.3869  0.0939
 7896TIP3   OH223609   6.716   2.830   3.630 -0.6372  0.1027 -0.5971
 7896TIP3    H123610   6.691   2.808   3.720 -0.1680  0.3563 -0.3970
 7896TIP3    H223611   6.811   2.817   3.628 -0.6683 -0.0411 -1.0975
 7897TIP3   OH223612   7.175   0.643   1.508  0.7368 -0.1254  0.1008
 7897TIP3    H123613   7.089   0.680   1.531  1.0709  0.0831  1.0568
 7897TIP3    H223614   7.183   0.566   1.564  0.7627 -0.7094 -0.6923
 7898TIP3   OH223615   0.438   7.522   3.519 -0.0444  0.1665 -0.5440
 7898TIP3    H123616   0.445   7.613   3.489  1.6235  0.0599 -0.5825
 7898TIP3    H223617   0.526   7.486   3.506 -0.4631 -1.2095  0.2692
 7899TIP3   OH223618   0.911   7.535   5.912  0.2298  0.4352  0.3400
 7899TIP3    H123619   0.941   7.567   5.996  2.0378  3.5259 -1.3043
 7899TIP3    H223620   0.841   7.596   5.886 -0.0835 -0.2747 -0.5509
 7900TIP3   OH223621   7.854   1.538   0.516  0.0407  0.4170 -0.4189
 7900TIP3    H123622   7.836   1.572   0.604 -0.4408 -0.3536 -0.2061
 7900TIP3    H223623   7.822   1.606   0.457 -1.0428  0.2934 -0.0087
 7901TIP3   OH223624   7.277   0.172   5.222 -0.8530  0.0587 -0.1859
 7901TIP3    H123625   7.361   0.135   5.196 -0.0785  0.7591  1.1896
 7901TIP3    H223626   7.219   0.097   5.230  0.3287 -0.7714  1.2813
 7902TIP3   OH223627   5.757   2.976   5.198  0.5689  0.2200 -0.6092
 7902TIP3    H123628   5.725   2.936   5.117 -0.9556 -1.6173  0.8065
 7902TIP3    H223629   5.680   2.980   5.256  1.9052  0.0498  1.2879
 7903TIP3   OH223630   5.122   7.286   4.534 -0.1508 -0.2375  0.3311
 7903TIP3    H123631   5.214   7.305   4.551  0.2961  1.4244 -3.1251
 7903TIP3    H223632   5.076   7.367   4.558 -0.2795  0.0061 -0.7050
 7904TIP3   OH223633   6.986   5.105   3.632  0.1259  0.3134 -0.8202
 7904TIP3    H123634   7.031   5.148   3.560  0.9195  0.4239 -0.2720
 7904TIP3    H223635   6.906   5.070   3.593  0.4009  0.6225 -1.6855
 7905TIP3   OH223636   6.633   4.894   5.159  0.2284  0.8600 -0.1730
 7905TIP3    H123637   6.699   4.827   5.141  0.0023  0.2795  1.0483
 7905TIP3    H223638   6.609   4.927   5.073  0.9676 -0.0323 -0.7474
 7906TIP3   OH223639   2.466   0.324   7.021 -0.4106  0.5544 -0.0994
 7906TIP3    H123640   2.559   0.342   7.013 -0.2882 -0.2223 -0.5964
 7906TIP3    H223641   2.440   0.296   6.933 -1.0156  0.3301  0.1463
 7907TIP3   OH223642   2.939   2.416   3.568 -0.4208 -0.0350 -0.2428
 7907TIP3    H123643   2.909   2.481   3.504  1.6157 -0.5609 -1.8181
 7907TIP3    H223644   2.947   2.465   3.649 -1.1476  1.1415 -0.8473
 7908TIP3   OH223645   4.451   5.699   0.281  0.5868  0.2199 -0.1116
 7908TIP3    H123646   4.524   5.759   0.266 -0.0053  0.6493 -1.4519
 7908TIP3    H223647   4.378   5.756   0.305  0.1142  0.0274 -1.0363
 7909TIP3   OH223648   6.246   4.672   1.310  0.3808  0.1721  0.1870
 7909TIP3    H123649   6.155   4.698   1.322  0.5147  0.4135  0.7260
 7909TIP3    H223650   6.263   4.684   1.217 -0.3126 -0.4584 -0.0304
 7910TIP3   OH223651   1.926   3.393   1.167  0.0561 -0.0259 -0.6453
 7910TIP3    H123652   1.966   3.446   1.235  0.1631 -1.5137  0.5083
 7910TIP3    H223653   1.995   3.381   1.101  0.2584  0.6122 -0.5530
 7911TIP3   OH223654   6.226   1.081   0.702  0.2831  0.2850  0.5642
 7911TIP3    H123655   6.187   1.004   0.661  0.3908 -0.1491  1.2573
 7911TIP3    H223656   6.256   1.050   0.787 -0.3383  1.2669  1.1670
 7912TIP3   OH223657   4.305   7.271   2.337  0.0457  0.0276  0.0281
 7912TIP3    H123658   4.225   7.322   2.320 -0.3573 -0.5713  0.1039
 7912TIP3    H223659   4.353   7.274   2.255  1.0707  2.3276  0.6218
 7913TIP3   OH223660   0.559   0.602   3.943 -0.2273  0.0177  0.6076
 7913TIP3    H123661   0.583   0.636   3.857  0.6672  2.7088  1.8037
 7913TIP3    H223662   0.502   0.527   3.924 -1.2339  1.3543 -2.3336
 7914TIP3   OH223663   3.858   2.078   6.991 -0.2066  0.0269 -0.3502
 7914TIP3    H123664   3.816   1.994   6.975 -2.6955  1.1980 -0.3892
 7914TIP3    H223665   3.824   2.135   6.922  0.9381  1.2414  0.0529
 7915TIP3   OH223666   1.768   1.169   3.273  0.2130 -0.8989  0.2584
 7915TIP3    H123667   1.794   1.114   3.347 -0.5208 -2.5841 -0.6841
 7915TIP3    H223668   1.693   1.124   3.234 -0.1298  0.5465 -0.8477
 7916TIP3   OH223669   8.493   5.232   0.276  0.2240  0.2685  0.0902
 7916TIP3    H123670   8.510   5.169   0.205 -2.0582 -1.2726  0.7992
 7916TIP3    H223671   8.414   5.279   0.247  0.6444  1.2860  0.5699
 7917TIP3   OH223672   4.976   6.430   6.663  0.5529  0.0188  0.6349
 7917TIP3    H123673   4.965   6.371   6.738 -1.5548  0.1985  0.5197
 7917TIP3    H223674   4.943   6.514   6.694 -0.0015  0.1904 -0.3864
 7918TIP3   OH223675   7.305   7.694   5.705  0.1876  0.2286 -0.3572
 7918TIP3    H123676   7.213   7.711   5.722  0.5342  0.3830  1.5454
 7918TIP3    H223677   7.308   7.673   5.612 -2.1306 -2.1423 -0.0351
 7919TIP3   OH223678   5.630   3.405   0.076  0.0127  0.7843 -0.1734
 7919TIP3    H123679   5.635   3.499   0.055 -0.7911  1.4675  2.3568
 7919TIP3    H223680   5.684   3.396   0.155  1.2127 -1.1934 -1.1610
 7920TIP3   OH223681   7.391   3.523   4.450  0.1770 -0.0044 -0.1985
 7920TIP3    H123682   7.350   3.443   4.419 -2.7391  0.3686  2.1541
 7920TIP3    H223683   7.323   3.590   4.439  2.3507  2.1304 -1.6711
 7921TIP3   OH223684   0.795   3.323   6.738  0.2044  0.4168  0.4222
 7921TIP3    H123685   0.845   3.376   6.799  1.0351  0.6843 -0.4609
 7921TIP3    H223686   0.718   3.377   6.718 -0.2098  0.2116  1.4119
 7922TIP3   OH223687   2.215   5.035   0.719  0.4688 -0.2005  0.1368
 7922TIP3    H123688   2.270   4.956   0.721  0.7807 -0.0393 -1.3175
 7922TIP3    H223689   2.128   5.004   0.744  1.1326 -0.4730  2.4119
 7923TIP3   OH223690   1.487   4.008   2.809 -0.2326  0.0557  0.0724
 7923TIP3    H123691   1.420   4.026   2.875 -2.0045  0.2198 -1.6986
 7923TIP3    H223692   1.455   3.930   2.763  2.3749 -1.8143  1.1438
 7924TIP3   OH223693   7.196   5.297   6.644  0.1263 -0.0798 -0.1380
 7924TIP3    H123694   7.125   5.234   6.636  1.8718 -2.0452 -0.9777
 7924TIP3    H223695   7.239   5.275   6.727  0.0400  0.8225  0.1608
 7925TIP3   OH223696   0.493   2.152   2.702  0.0350 -0.2484 -0.4789
 7925TIP3    H123697   0.452   2.133   2.786  0.1961 -0.8383 -0.5281
 7925TIP3    H223698   0.492   2.068   2.655  2.6125 -0.6574  0.0706
 7926TIP3   OH223699   4.579   7.310   0.216 -0.4093 -0.1874  0.2467
 7926TIP3    H123700   4.629   7.371   0.163 -1.4274  1.8002  1.4460
 7926TIP3    H223701   4.520   7.267   0.155 -0.7100  1.1509 -0.4369
 7927TIP3   OH223702   5.293   0.940   5.422 -0.0316  0.1715  0.0891
 7927TIP3    H123703   5.351   0.958   5.349 -0.2584  0.5426 -0.0025
 7927TIP3    H223704   5.350   0.908   5.492  0.2878  0.6070  0.0245
 7928TIP3   OH223705   7.955   3.337   5.340 -0.0923  0.3268  0.1193
 7928TIP3    H123706   7.940   3.417   5.290  1.1198 -0.8525 -2.3417
 7928TIP3    H223707   7.886   3.336   5.406 -0.5592  3.0051 -0.2218
 7929TIP3   OH223708   0.591   2.796   4.323  0.7000 -0.9790 -0.2697
 7929TIP3    H123709   0.547   2.860   4.379  0.9674  1.0816 -2.2565
 7929TIP3    H223710   0.524   2.732   4.302  0.4945 -1.5987  2.0051
 7930TIP3   OH223711  -0.005   5.523   1.145  0.4592  0.6536 -0.5043
 7930TIP3    H123712   0.080   5.486   1.168 -0.3592 -1.0706 -0.1113
 7930TIP3    H223713  -0.035   5.566   1.226  0.5078  0.3884 -0.3451
 7931TIP3   OH223714   0.946   0.720   4.623  0.3096 -0.3713  0.0726
 7931TIP3    H123715   0.874   0.731   4.560  0.6292 -0.0226 -0.2427
 7931TIP3    H223716   0.990   0.640   4.595  1.8145  0.9303 -1.5757
 7932TIP3   OH223717   3.622   1.271   5.419 -0.6658 -0.5254 -0.5345
 7932TIP3    H123718   3.576   1.200   5.465 -0.9377 -0.0952 -0.1332
 7932TIP3    H223719   3.712   1.240   5.412 -0.6494 -0.6685  0.1672
 7933TIP3   OH223720   1.500   3.107   1.433 -0.3201  0.1263 -0.4760
 7933TIP3    H123721   1.559   3.063   1.372  1.9306  1.2652  0.7280
 7933TIP3    H223722   1.508   3.200   1.411  0.1495  0.5070  1.1685
 7934TIP3   OH223723   4.326   6.679   0.819 -0.6726  0.0860  0.3202
 7934TIP3    H123724   4.372   6.639   0.893  0.5697 -0.2230 -0.5830
 7934TIP3    H223725   4.321   6.772   0.843  0.7606  0.1945  0.3106
 7935TIP3   OH223726   4.729   7.805   5.661  0.0110 -0.2536  0.1595
 7935TIP3    H123727   4.682   7.878   5.702  0.4301  0.3401 -0.4035
 7935TIP3    H223728   4.713   7.731   5.720 -1.6447 -0.0839 -0.0408
 7936TIP3   OH223729   4.936   2.643   2.959  0.0839  0.2009  0.5818
 7936TIP3    H123730   4.900   2.723   2.995 -1.4324 -0.3661  0.3905
 7936TIP3    H223731   4.972   2.669   2.874  1.4499  1.0456  1.3756
 7937TIP3   OH223732   8.319   0.256   2.447  0.5983  0.1402  0.7481
 7937TIP3    H123733   8.244   0.235   2.391 -0.7223  0.6898  2.2534
 7937TIP3    H223734   8.334   0.176   2.497 -0.1988  0.6151  1.7725
 7938TIP3   OH223735   0.977   2.505   6.362  0.2036 -0.1572 -0.3285
 7938TIP3    H123736   1.035   2.434   6.332 -0.3637 -1.6746  1.9638
 7938TIP3    H223737   0.894   2.488   6.317 -0.3243 -1.7870  1.1530
 7939TIP3   OH223738   8.260   8.177   3.803 -0.1431  0.4834 -0.2458
 7939TIP3    H123739   8.225   8.167   3.714 -0.3523  1.7194 -0.3120
 7939TIP3    H223740   8.353   8.196   3.791 -0.2589  1.0697 -0.2166
 7940TIP3   OH223741   1.788   2.433   3.561  0.3166 -0.2726  0.2721
 7940TIP3    H123742   1.752   2.495   3.498 -0.0746 -0.1984  0.5645
 7940TIP3    H223743   1.801   2.352   3.511 -0.8084 -0.4776  0.2859
 7941TIP3   OH223744   6.223   7.434   3.351 -0.4684  0.9599  0.0712
 7941TIP3    H123745   6.233   7.340   3.362 -0.3448  0.7559 -1.5679
 7941TIP3    H223746   6.301   7.472   3.391  0.7353  0.1815 -1.4398
 7942TIP3   OH223747   2.204   5.996   6.376 -0.3275  0.2190  0.1922
 7942TIP3    H123748   2.198   5.902   6.361  0.9734 -0.0029  0.8768
 7942TIP3    H223749   2.175   6.008   6.467  0.0691  0.3849  0.3033
 7943TIP3   OH223750   3.296   0.731   5.142 -0.2747  0.3894  0.2598
 7943TIP3    H123751   3.223   0.773   5.098  0.5539  0.5989 -0.9529
 7943TIP3    H223752   3.275   0.638   5.140 -0.3334  0.4128 -0.4488
 7944TIP3   OH223753   0.774   1.333   0.556 -0.3815  0.3752 -0.0767
 7944TIP3    H123754   0.680   1.317   0.547 -0.4597  0.5444  0.4449
 7944TIP3    H223755   0.814   1.275   0.490 -0.7282 -1.1464  0.9969
 7945TIP3   OH223756   4.118   1.691   2.399  0.5472  0.3761 -0.4208
 7945TIP3    H123757   4.169   1.724   2.325  1.1263  0.5556  0.0465
 7945TIP3    H223758   4.168   1.718   2.476 -1.0264  1.8336  0.1207
 7946TIP3   OH223759   0.193   4.375   1.777  0.2851 -0.3176  0.4051
 7946TIP3    H123760   0.219   4.345   1.689 -0.6754 -2.3083  0.7254
 7946TIP3    H223761   0.098   4.379   1.772  0.1280 -1.6421  1.6528
 7947TIP3   OH223762   5.963   4.515   6.658 -0.2962 -0.1742  0.1014
 7947TIP3    H123763   5.877   4.534   6.696  0.3047 -0.2240  1.5293
 7947TIP3    H223764   6.018   4.492   6.733  0.7395 -1.0358 -0.8844
 7948TIP3   OH223765   7.452   2.368   3.817 -0.0735  0.0224  0.1891
 7948TIP3    H123766   7.479   2.291   3.766  0.3223 -0.2394  0.7778
 7948TIP3    H223767   7.448   2.439   3.754  1.2700 -0.1012 -0.0607
 7949TIP3   OH223768   0.291   8.110   0.667  0.6613  0.1173  0.0885
 7949TIP3    H123769   0.348   8.071   0.601 -0.5583 -1.3452 -0.1535
 7949TIP3    H223770   0.240   8.175   0.619 -0.2423 -0.9595 -0.4624
 7950TIP3   OH223771   8.275   1.019   0.286  0.1620  0.4396  0.8197
 7950TIP3    H123772   8.227   1.022   0.369 -0.9780 -3.3401  0.4738
 7950TIP3    H223773   8.343   0.953   0.299  1.8214  1.7851 -0.4612
 7951TIP3   OH223774   1.543   1.086   5.790 -0.3024  0.4240  0.0533
 7951TIP3    H123775   1.602   1.010   5.789 -1.0277 -0.1375 -1.0338
 7951TIP3    H223776   1.456   1.048   5.796 -0.6202  1.2280  0.7124
 7952TIP3   OH223777   6.442   5.909   3.044  0.1944 -0.4385 -0.2319
 7952TIP3    H123778   6.419   5.827   3.088 -1.1474 -0.3339 -0.6903
 7952TIP3    H223779   6.358   5.949   3.022  0.8146  1.4549  0.6558
 7953TIP3   OH223780   4.729   7.401   6.205  0.0219 -0.1421 -0.2762
 7953TIP3    H123781   4.793   7.439   6.266 -0.0070  1.3094 -1.1163
 7953TIP3    H223782   4.645   7.433   6.236  0.0072  0.6173 -1.0604
 7954TIP3   OH223783   6.790   5.488   1.413  0.2745  0.0223 -0.3012
 7954TIP3    H123784   6.700   5.482   1.379  0.4353  0.1551 -0.7526
 7954TIP3    H223785   6.791   5.428   1.487 -0.2053  0.0582 -0.2612
 7955TIP3   OH223786   3.395   2.044   5.034  0.4574  0.5473 -0.3154
 7955TIP3    H123787   3.308   2.004   5.029 -0.5939  2.5411  0.7070
 7955TIP3    H223788   3.435   2.005   5.112  0.4418 -0.2880 -0.7189
 7956TIP3   OH223789   0.461   7.490   0.446  0.3265  0.1339 -0.6295
 7956TIP3    H123790   0.475   7.571   0.398 -0.9357  1.7670  1.6110
 7956TIP3    H223791   0.368   7.488   0.465  0.5452 -1.1341  0.5215
 7957TIP3   OH223792   8.193   3.440   4.017  0.2521 -0.0468  0.1089
 7957TIP3    H123793   8.207   3.499   3.943  3.0715 -0.1338  0.4939
 7957TIP3    H223794   8.223   3.354   3.986 -1.7827 -0.8856  0.2772
 7958TIP3   OH223795   5.041   5.845   5.435  0.1347 -0.0618  0.0362
 7958TIP3    H123796   4.982   5.773   5.459  0.8176 -0.4484  0.5996
 7958TIP3    H223797   5.044   5.901   5.513  1.2676 -0.5750  0.3914
 7959TIP3   OH223798   7.159   4.264   4.691 -0.1021 -0.4389 -0.0439
 7959TIP3    H123799   7.213   4.341   4.710 -1.0453  0.5857 -1.2782
 7959TIP3    H223800   7.221   4.191   4.685  0.9532  0.4219  0.0596
 7960TIP3   OH223801   0.792   0.415   6.461  0.2084 -0.0267  0.3428
 7960TIP3    H123802   0.857   0.429   6.530  0.5174 -0.3643  0.1164
 7960TIP3    H223803   0.781   0.320   6.457  0.6617 -0.0430 -0.5169
 7961TIP3   OH223804   2.807   7.195   1.468 -0.7419  0.7825  0.1430
 7961TIP3    H123805   2.826   7.226   1.556  0.0451  0.4363  0.0995
 7961TIP3    H223806   2.786   7.274   1.418 -1.0495  0.9918  0.6005
 7962TIP3   OH223807   6.140   2.287   1.480  0.1211 -0.3749 -0.0323
 7962TIP3    H123808   6.116   2.197   1.503 -1.0597  0.7573  4.1528
 7962TIP3    H223809   6.056   2.334   1.480  0.8620  0.9837 -0.7643
 7963TIP3   OH223810   8.279   4.589   2.511  0.3856  0.0664 -0.1960
 7963TIP3    H123811   8.240   4.512   2.470  0.0116 -0.2451  0.7128
 7963TIP3    H223812   8.278   4.656   2.442 -0.3593 -0.3961 -0.6534
 7964TIP3   OH223813   2.963   3.640   5.420  0.3053 -0.2534  1.1521
 7964TIP3    H123814   2.961   3.588   5.340 -1.5196 -0.7646  1.4703
 7964TIP3    H223815   2.891   3.605   5.473 -0.0882  1.6744  1.9893
 7965TIP3   OH223816   2.118   5.474   0.976 -0.9458  0.0162  0.2307
 7965TIP3    H123817   2.159   5.413   0.915 -0.5168 -0.2139  0.7306
 7965TIP3    H223818   2.145   5.442   1.062  0.2299  1.5330  0.4819
 7966TIP3   OH223819   0.827   3.949   0.433  0.1713  0.3187  0.0633
 7966TIP3    H123820   0.910   3.921   0.472  0.8710 -0.4718 -1.8666
 7966TIP3    H223821   0.852   3.998   0.356 -1.1602  0.2495 -0.4379
 7967TIP3   OH223822   2.668   1.118   4.009  0.2705  0.3801 -0.7849
 7967TIP3    H123823   2.732   1.052   3.983  1.5500  1.0727  0.4665
 7967TIP3    H223824   2.714   1.202   4.000 -1.2504  1.1288 -2.1643
 7968TIP3   OH223825   2.920   1.905   4.203 -0.1638  0.2141  0.3473
 7968TIP3    H123826   2.888   1.816   4.217  1.5725 -0.6054 -0.6192
 7968TIP3    H223827   3.007   1.905   4.242  0.1628  1.2694 -0.3613
 7969TIP3   OH223828   6.361   5.127   2.239 -0.0661 -0.2585 -0.0689
 7969TIP3    H123829   6.336   5.037   2.261  0.2866 -0.1146  0.9470
 7969TIP3    H223830   6.456   5.129   2.249 -0.1777  0.5117  1.0660
 7970TIP3   OH223831   7.029   5.326   1.267  0.2001  0.2255 -0.1343
 7970TIP3    H123832   6.980   5.352   1.189  0.9122  1.1639 -0.2841
 7970TIP3    H223833   6.972   5.347   1.340  0.4685  1.5572 -0.2901
 7971TIP3   OH223834   3.689   4.598   2.381  0.4922 -0.5820  0.0437
 7971TIP3    H123835   3.689   4.503   2.386 -0.0633 -0.6043 -0.2943
 7971TIP3    H223836   3.600   4.621   2.353  0.2034  0.0948  1.4150
 7972TIP3   OH223837   6.279   1.942   1.823  0.0836 -0.2600  0.5454
 7972TIP3    H123838   6.289   2.036   1.841 -2.1173 -0.1078  1.2930
 7972TIP3    H223839   6.273   1.937   1.727 -1.4048  0.5809  0.5726
 7973TIP3   OH223840   0.787   5.233   4.152 -0.3829 -0.4800 -0.4236
 7973TIP3    H123841   0.798   5.295   4.224 -2.1390  1.3405 -1.5817
 7973TIP3    H223842   0.774   5.148   4.194  1.9370 -0.1061  1.2422
 7974TIP3   OH223843   3.737   2.454   2.660  0.2594  0.2036 -0.2974
 7974TIP3    H123844   3.655   2.462   2.710  1.5847  0.7534  1.9450
 7974TIP3    H223845   3.730   2.521   2.592 -1.1968  0.1372 -0.2551
 7975TIP3   OH223846   6.220   4.635   6.582  0.7575 -0.1497  0.3299
 7975TIP3    H123847   6.127   4.639   6.560  0.8088 -1.5000 -0.1828
 7975TIP3    H223848   6.223   4.658   6.675 -0.3550 -2.1472  0.9182
 7976TIP3   OH223849   2.821   5.001   4.468  0.6376 -0.0325 -0.1592
 7976TIP3    H123850   2.783   4.914   4.480 -0.4177  0.2249 -1.3850
 7976TIP3    H223851   2.857   5.023   4.553  1.8602 -2.0915 -0.0682
 7977TIP3   OH223852   0.970   5.010   3.447 -0.5315 -0.5184 -0.1152
 7977TIP3    H123853   0.878   5.036   3.455 -0.8171 -2.0080  2.4908
 7977TIP3    H223854   0.966   4.921   3.412  0.0777  0.1342 -1.9567
 7978TIP3   OH223855   7.530   8.040   3.659  0.2260 -0.0182  0.5609
 7978TIP3    H123856   7.523   8.074   3.748  1.3306 -0.6501  0.9093
 7978TIP3    H223857   7.441   8.016   3.635 -0.0667  0.0708  1.5314
 7979TIP3   OH223858   6.486   1.860   3.921 -0.3485  0.2841  0.1358
 7979TIP3    H123859   6.411   1.904   3.961 -1.3954 -0.9605 -0.4052
 7979TIP3    H223860   6.476   1.768   3.945 -0.4953 -0.3443 -2.1193
 7980TIP3   OH223861   4.270   1.122   3.142  0.5288 -0.0163  0.7380
 7980TIP3    H123862   4.189   1.142   3.189  0.9704 -1.1782  2.0498
 7980TIP3    H223863   4.273   1.186   3.071 -0.6234  1.2359  1.7624
 7981TIP3   OH223864   3.561   2.124   0.350 -0.0522 -0.0743 -0.0008
 7981TIP3    H123865   3.573   2.108   0.257  0.2723  0.5102 -0.0632
 7981TIP3    H223866   3.516   2.209   0.355 -1.0415 -0.6051  0.3427
 7982TIP3   OH223867   5.178   0.262   6.154  0.3434 -0.0024  0.2058
 7982TIP3    H123868   5.234   0.234   6.082 -0.6751 -1.2099 -0.1293
 7982TIP3    H223869   5.089   0.258   6.120 -0.4300 -2.9566  2.1618
 7983TIP3   OH223870   1.916   4.650   6.064  0.7211  0.1162 -0.2457
 7983TIP3    H123871   1.909   4.559   6.036  0.3046  0.2465 -0.5824
 7983TIP3    H223872   1.941   4.698   5.984 -1.4683  0.6372 -0.6674
 7984TIP3   OH223873   3.415   1.185   3.335 -0.2085  0.3767 -0.8355
 7984TIP3    H123874   3.376   1.246   3.397 -0.6361 -0.8978  0.1929
 7984TIP3    H223875   3.360   1.191   3.257 -1.3431 -0.0160 -0.0796
 7985TIP3   OH223876   4.790   6.372   4.495  0.7280  0.1618 -0.5165
 7985TIP3    H123877   4.757   6.385   4.584  0.3525 -0.9037 -0.4931
 7985TIP3    H223878   4.886   6.375   4.504  0.6958  1.5199 -0.3202
 7986TIP3   OH223879   4.786   4.009   0.064  0.0032  0.2221  0.6755
 7986TIP3    H123880   4.732   3.969   0.132 -0.3431 -1.2111 -0.3848
 7986TIP3    H223881   4.866   3.957   0.064 -0.1260 -0.0007 -0.1937
 7987TIP3   OH223882   7.047   0.801   4.684  0.4808 -0.1677  0.0295
 7987TIP3    H123883   7.014   0.718   4.719 -0.2567 -0.1405 -0.5673
 7987TIP3    H223884   7.068   0.782   4.592  0.9396  0.1383  0.0682
 7988TIP3   OH223885   2.681   4.257   1.348 -0.2815  0.7272  0.1378
 7988TIP3    H123886   2.589   4.241   1.330 -0.3566  1.7427 -0.4416
 7988TIP3    H223887   2.691   4.352   1.342  0.6655  0.6898  0.8489
 7989TIP3   OH223888   6.312   3.172   3.293 -0.7320  0.0460 -0.1235
 7989TIP3    H123889   6.331   3.153   3.385  2.4975  0.6068 -0.5728
 7989TIP3    H223890   6.321   3.088   3.249 -2.7425 -0.3171  0.0503
 7990TIP3   OH223891   4.960   1.329   2.092  0.2550 -0.0292  0.4641
 7990TIP3    H123892   4.919   1.276   2.023  0.7311  0.2030 -0.0005
 7990TIP3    H223893   4.933   1.418   2.073  1.2192  0.1737 -0.0419
 7991TIP3   OH223894   3.437   4.841   2.334 -0.4171 -0.5010  0.0013
 7991TIP3    H123895   3.426   4.833   2.429  1.3191 -3.5069  0.0711
 7991TIP3    H223896   3.358   4.887   2.304 -1.7876 -0.9045  2.7006
 7992TIP3   OH223897   3.953   7.189   4.325  0.2745 -0.4655  0.1698
 7992TIP3    H123898   4.035   7.238   4.333 -0.5756  1.1414 -0.2962
 7992TIP3    H223899   3.922   7.209   4.236 -0.8740 -0.5912  0.5210
 7993TIP3   OH223900   0.758   0.614   6.276 -0.1435 -0.7225  0.1246
 7993TIP3    H123901   0.758   0.538   6.334 -0.1203 -3.6256 -3.3231
 7993TIP3    H223902   0.671   0.652   6.286 -0.1089 -1.0504  2.0423
 7994TIP3   OH223903   1.364   0.246   1.523 -0.1568 -0.5208  0.1184
 7994TIP3    H123904   1.351   0.248   1.428  0.2136 -0.5305  0.0648
 7994TIP3    H223905   1.285   0.205   1.557 -0.1413 -0.8367 -0.2179
 7995TIP3   OH223906   1.647   7.607   1.977  0.1887  0.0589  0.1694
 7995TIP3    H123907   1.654   7.692   2.019  0.3100  0.5757 -0.8531
 7995TIP3    H223908   1.563   7.608   1.933  1.2972  0.7654 -2.1056
 7996TIP3   OH223909   7.006   5.840   2.884 -0.6271 -0.1365 -0.0394
 7996TIP3    H123910   6.980   5.827   2.793 -0.9263  2.8458 -0.4847
 7996TIP3    H223911   7.097   5.813   2.888 -1.2821 -2.7272 -0.5120
 7997TIP3   OH223912   7.202   8.172   6.970 -0.8348 -0.2327 -0.2191
 7997TIP3    H123913   7.134   8.218   6.922 -0.5636  0.6679  0.2391
 7997TIP3    H223914   7.269   8.153   6.905 -0.6202  0.6842 -0.2799
 7998TIP3   OH223915   8.443   5.500   4.842 -0.1619 -0.8302  0.3190
 7998TIP3    H123916   8.446   5.431   4.776 -0.6179  0.0872 -0.7023
 7998TIP3    H223917   8.479   5.577   4.798  1.1101 -0.6036  1.6985
 7999TIP3   OH223918   3.176   1.293   4.083  0.4573 -0.3767 -0.3289
 7999TIP3    H123919   3.256   1.316   4.036  0.7829 -1.5838 -0.4013
 7999TIP3    H223920   3.183   1.339   4.167  1.9120 -1.5111  0.2289
 8000TIP3   OH223921   5.194   4.687   2.059 -0.2446 -0.7497 -0.4742
 8000TIP3    H123922   5.157   4.600   2.040 -1.8858 -0.3458  0.7346
 8000TIP3    H223923   5.254   4.672   2.132 -0.3104 -0.9152 -0.4534
 8001TIP3   OH223924   7.317   8.008   2.736 -0.3409 -0.1778  0.4643
 8001TIP3    H123925   7.270   8.081   2.776 -1.7495 -0.2583 -0.9611
 8001TIP3    H223926   7.408   8.036   2.735 -0.6037  0.7829  1.5756
 8002TIP3   OH223927   1.086   1.573   2.379  0.6639 -0.3355 -0.0726
 8002TIP3    H123928   1.015   1.583   2.316  1.2832  1.0103 -0.5973
 8002TIP3    H223929   1.125   1.488   2.358 -0.4651 -0.8744 -0.0867
 8003TIP3   OH223930   4.565   4.829   5.853 -0.3316  0.2481  0.0499
 8003TIP3    H123931   4.548   4.767   5.782  0.0642 -0.0064  0.1746
 8003TIP3    H223932   4.552   4.915   5.814  0.7081  0.1455 -0.5676
 8004TIP3   OH223933   3.039   4.931   6.885 -0.4072 -0.7574  0.3377
 8004TIP3    H123934   2.947   4.954   6.900 -0.7546 -2.7498  1.7547
 8004TIP3    H223935   3.083   4.958   6.966 -0.0823 -1.3269  0.3552
 8005TIP3   OH223936   7.428   2.719   7.054  0.4034 -0.5341  0.0247
 8005TIP3    H123937   7.378   2.682   7.127  1.7716  0.3426  1.4659
 8005TIP3    H223938   7.374   2.791   7.023  0.6837  0.3498  1.5065
 8006TIP3   OH223939   5.789   7.397   4.800  0.3434  0.6644  0.1617
 8006TIP3    H123940   5.866   7.439   4.760  0.1179  0.2739 -0.7057
 8006TIP3    H223941   5.825   7.323   4.848  0.4364 -0.1299 -1.0858
 8007TIP3   OH223942   2.567   7.052   5.341  0.4204 -0.3080  0.3163
 8007TIP3    H123943   2.608   7.056   5.427  0.8706 -1.5113  0.1832
 8007TIP3    H223944   2.597   6.969   5.304 -1.5995 -0.9292 -0.0573
 8008TIP3   OH223945   7.283   7.239   4.297  0.6067 -0.2554 -0.1572
 8008TIP3    H123946   7.298   7.328   4.265  0.9428  0.2531  1.3666
 8008TIP3    H223947   7.299   7.183   4.220  3.1283  0.7801 -0.4839
 8009TIP3   OH223948   2.769   0.409   1.194 -0.8681 -0.0424  0.5148
 8009TIP3    H123949   2.764   0.504   1.204  0.6513  0.0000  1.1700
 8009TIP3    H223950   2.847   0.384   1.243  0.2746 -1.2885 -1.7856
 8010TIP3   OH223951   6.420   5.623   5.377  0.1748 -0.5204  0.0069
 8010TIP3    H123952   6.428   5.718   5.371  0.0310 -0.4361  1.0777
 8010TIP3    H223953   6.507   5.594   5.407  0.2867 -0.7521 -0.5286
 8011TIP3   OH223954   2.817   5.596   2.576  0.1987 -0.8852  0.5613
 8011TIP3    H123955   2.858   5.665   2.628  2.5348 -2.2323  0.6354
 8011TIP3    H223956   2.733   5.633   2.548  0.4899  1.2068  2.2442
 8012TIP3   OH223957   1.835   5.447   5.848 -0.3141 -0.0738  0.0769
 8012TIP3    H123958   1.925   5.477   5.861 -0.2596 -0.6398  1.1575
 8012TIP3    H223959   1.817   5.464   5.756  0.9309 -0.0275 -0.1774
 8013TIP3   OH223960   3.157   7.476   6.433 -0.1457  0.1140 -0.1044
 8013TIP3    H123961   3.191   7.467   6.345  0.3128 -0.3613  0.1181
 8013TIP3    H223962   3.207   7.413   6.485  0.6750  1.4609  0.8089
 8014TIP3   OH223963   1.413   3.102   0.701  0.4429 -0.0793 -0.0019
 8014TIP3    H123964   1.453   3.020   0.672 -1.3749 -0.7418 -0.8505
 8014TIP3    H223965   1.401   3.153   0.621 -2.4144 -0.9038 -0.2386
 8015TIP3   OH223966   6.661   6.516   1.495 -0.6431 -0.5593  0.0265
 8015TIP3    H123967   6.654   6.601   1.538 -1.7853 -1.0334  0.8196
 8015TIP3    H223968   6.594   6.462   1.537 -0.2081 -1.7368 -0.7401
 8016TIP3   OH223969   8.044   7.600   1.766 -0.3388 -0.4404 -0.2567
 8016TIP3    H123970   8.104   7.537   1.806 -0.5014  0.4501  1.4677
 8016TIP3    H223971   7.960   7.553   1.763 -0.2169 -0.6846  0.0227
 8017TIP3   OH223972   1.044   4.969   1.188  0.6375  0.3677 -0.0747
 8017TIP3    H123973   0.956   4.950   1.157  1.8253 -2.6091 -2.0452
 8017TIP3    H223974   1.070   4.891   1.238  1.9063  1.5213  1.1712
 8018TIP3   OH223975   8.195   5.139   4.075  0.2271 -0.3768  0.0910
 8018TIP3    H123976   8.226   5.130   3.985  0.8999  0.5753  0.2173
 8018TIP3    H223977   8.117   5.194   4.069 -1.1184 -2.2154 -0.1484
 8019TIP3   OH223978   5.933   0.644   0.925 -0.0337 -0.1198 -0.3558
 8019TIP3    H123979   5.954   0.608   0.838 -1.9301 -0.9603 -0.5245
 8019TIP3    H223980   5.955   0.737   0.919 -2.4981  0.4254 -2.6481
 8020TIP3   OH223981   1.997   0.650   5.241 -0.4369 -0.2935 -0.3221
 8020TIP3    H123982   2.002   0.663   5.146  0.5733 -1.3307 -0.4380
 8020TIP3    H223983   1.958   0.564   5.251 -2.6424  0.7172  0.2912
 8021TIP3   OH223984   5.291   3.607   2.509  0.4018  0.4521  0.0666
 8021TIP3    H123985   5.269   3.553   2.433  1.2124 -1.2795  1.0202
 8021TIP3    H223986   5.334   3.684   2.472 -1.7094  1.0295 -1.3969
 8022TIP3   OH223987   5.668   7.763   4.316 -0.0092  0.3210 -0.4053
 8022TIP3    H123988   5.608   7.690   4.304 -0.4856  0.4195  1.2212
 8022TIP3    H223989   5.653   7.793   4.405 -0.1811  2.7491 -1.1877
 8023TIP3   OH223990   0.663   0.213   6.310 -0.3662  0.2750 -0.1949
 8023TIP3    H123991   0.606   0.137   6.308  0.0011  0.0016 -0.5486
 8023TIP3    H223992   0.604   0.288   6.319 -0.6703 -0.1054  1.1115
 8024TIP3   OH223993   1.879   7.403   4.669 -0.0326 -0.3614 -0.3548
 8024TIP3    H123994   1.955   7.390   4.612  1.1592  1.5935  0.6724
 8024TIP3    H223995   1.804   7.385   4.612  1.1114  1.0113 -2.4611
 8025TIP3   OH223996   4.273   0.115   2.182  0.1489 -0.0434 -0.1437
 8025TIP3    H123997   4.215   0.185   2.151  0.8281  0.0385 -1.3124
 8025TIP3    H223998   4.220   0.035   2.175  0.0984  0.0526 -1.0383
 8026TIP3   OH223999   0.669   4.014   2.768  0.1244  0.3194  0.3153
 8026TIP3    H124000   0.674   4.005   2.863 -0.5202 -1.3789  0.2231
 8026TIP3    H224001   0.584   4.056   2.752  0.6978  1.6185  0.5007
 8027TIP3   OH224002   6.856   3.876   5.668 -0.2489  0.4751  0.0572
 8027TIP3    H124003   6.875   3.794   5.715 -2.3009  0.1565  0.4394
 8027TIP3    H224004   6.859   3.943   5.735 -2.6220  0.0952  0.6420
 8028TIP3   OH224005   3.813   0.264   4.377 -0.3152  0.3577  0.2949
 8028TIP3    H124006   3.768   0.341   4.343  1.6621  0.8037 -1.5171
 8028TIP3    H224007   3.821   0.205   4.302  0.9333 -0.2479  0.8675
 8029TIP3   OH224008   5.256   1.714   1.232 -0.1319  0.0594  0.1657
 8029TIP3    H124009   5.180   1.658   1.248 -0.3218 -0.3142 -1.7558
 8029TIP3    H224010   5.323   1.653   1.199 -0.1622  0.8332 -1.4286
 8030TIP3   OH224011   5.190   5.625   4.558 -0.2582  0.4332  0.7884
 8030TIP3    H124012   5.160   5.696   4.501 -0.0653  0.3082  0.5271
 8030TIP3    H224013   5.255   5.664   4.615  0.5861  0.2511 -0.0259
 8031TIP3   OH224014   6.960   4.107   4.492 -0.0707 -0.2685  0.1038
 8031TIP3    H124015   6.893   4.083   4.557 -0.1424 -0.0551  0.1083
 8031TIP3    H224016   6.991   4.192   4.521 -0.0100 -0.2320 -0.0709
 8032TIP3   OH224017   1.156   2.764   3.719  0.2686 -0.0328  0.2909
 8032TIP3    H124018   1.079   2.812   3.690 -1.3579 -2.1393  0.8712
 8032TIP3    H224019   1.122   2.699   3.780  2.6137 -0.6161  1.0718
 8033TIP3   OH224020   7.432   6.499   5.498  0.6582  0.1955  0.5986
 8033TIP3    H124021   7.500   6.510   5.565 -0.7434  0.7537  1.9881
 8033TIP3    H224022   7.358   6.461   5.545  0.0473 -0.5563 -0.9208
 8034TIP3   OH224023   8.231   6.382   4.808 -0.2667  0.2263 -0.5783
 8034TIP3    H124024   8.313   6.431   4.823 -0.6495  0.7959 -0.3168
 8034TIP3    H224025   8.253   6.292   4.832 -0.1415  0.6444  1.0521
 8035TIP3   OH224026   5.441   1.394   1.746  0.0640 -0.1276 -0.4029
 8035TIP3    H124027   5.506   1.426   1.809 -0.6064  3.1837 -1.2067
 8035TIP3    H224028   5.478   1.417   1.661 -0.8218 -0.9835 -1.0287
 8036TIP3   OH224029   3.869   6.464   1.636  0.2510  0.5725 -0.1244
 8036TIP3    H124030   3.800   6.399   1.626 -0.1992  1.2689 -1.9602
 8036TIP3    H224031   3.852   6.504   1.722 -0.2720 -0.7787  0.4230
 8037TIP3   OH224032   5.996   1.504   5.127  0.1322  0.4074 -0.1867
 8037TIP3    H124033   6.026   1.561   5.198  1.0523  1.9058 -1.7098
 8037TIP3    H224034   5.942   1.560   5.072 -1.0251 -0.8771 -0.4212
 8038TIP3   OH224035   1.153   8.069   0.514 -0.1094  0.5352  1.0334
 8038TIP3    H124036   1.138   8.163   0.506 -1.1020  0.2720 -0.4446
 8038TIP3    H224037   1.202   8.046   0.436 -0.6769 -0.3332  0.9254
 8039TIP3   OH224038   6.367   2.513   1.434 -0.9961 -0.0082 -0.3231
 8039TIP3    H124039   6.353   2.592   1.382  0.4499 -1.8162 -3.7771
 8039TIP3    H224040   6.314   2.446   1.391  2.1929 -2.1877 -1.1746
 8040TIP3   OH224041   3.939   8.083   4.137 -0.2098  0.4891  0.0027
 8040TIP3    H124042   3.877   8.156   4.132 -2.7005 -1.5810 -2.7395
 8040TIP3    H224043   4.015   8.112   4.085 -1.2882  1.0572 -1.3121
 8041TIP3   OH224044   7.948   3.647   0.506  0.2534 -0.5006 -0.2612
 8041TIP3    H124045   7.998   3.701   0.445  0.8113  1.3420  1.7112
 8041TIP3    H224046   7.857   3.658   0.480  0.3845  1.1858 -0.1252
 8042TIP3   OH224047   5.824   3.027   3.854  0.3814  0.2063 -0.8534
 8042TIP3    H124048   5.732   3.051   3.845  0.6372  1.1490 -1.1064
 8042TIP3    H224049   5.842   2.971   3.778 -0.4485 -1.5930  0.2102
 8043TIP3   OH224050   0.336   2.117   2.935 -0.0099 -0.0886  0.6381
 8043TIP3    H124051   0.288   2.044   2.896 -1.0929  0.1751  1.3903
 8043TIP3    H224052   0.293   2.196   2.900  1.6502  0.2423 -0.7795
 8044TIP3   OH224053   1.956   7.203   1.182  0.6532  0.1579  0.3760
 8044TIP3    H124054   1.902   7.265   1.133  0.9500 -0.4701 -0.7941
 8044TIP3    H224055   1.989   7.253   1.257 -1.5914  0.5275  1.1690
 8045TIP3   OH224056   7.330   1.694   1.684 -0.0804 -0.1691  0.2823
 8045TIP3    H124057   7.292   1.740   1.609 -0.5827 -0.3195  0.4457
 8045TIP3    H224058   7.332   1.602   1.658 -2.1097 -0.5339  1.1853
 8046TIP3   OH224059   2.848   4.070   0.563 -0.4590 -0.1240  0.8198
 8046TIP3    H124060   2.837   4.028   0.478 -0.4511  1.0395  0.2421
 8046TIP3    H224061   2.863   4.162   0.544  1.2709 -0.1151  1.9952
 8047TIP3   OH224062   7.027   3.928   0.586  0.2941 -0.3224  0.6437
 8047TIP3    H124063   6.974   3.894   0.514  1.1946 -0.0258 -0.1834
 8047TIP3    H224064   6.967   3.932   0.660 -0.4061 -1.5621  0.1767
 8048TIP3   OH224065   3.529   5.216   4.930 -0.0879  0.5182  0.1490
 8048TIP3    H124066   3.469   5.146   4.903 -0.4531 -0.0205  2.1267
 8048TIP3    H224067   3.598   5.217   4.864 -1.5867  0.2756 -1.4931
 8049TIP3   OH224068   1.271   5.532   4.861  0.0415  0.0771 -0.0825
 8049TIP3    H124069   1.339   5.598   4.864 -2.2057  2.5247  0.1734
 8049TIP3    H224070   1.296   5.468   4.927  3.1981 -0.3772 -1.5608
 8050TIP3   OH224071   2.168   3.947   0.667  0.0875 -0.3122  0.2172
 8050TIP3    H124072   2.108   3.959   0.593  1.2707  3.5726 -0.3299
 8050TIP3    H224073   2.255   3.951   0.629  0.7127  0.5354  1.6489
 8051TIP3   OH224074   3.585   7.426   6.160 -0.1450  0.4152  0.0222
 8051TIP3    H124075   3.676   7.397   6.154 -0.7437 -1.4054 -1.1970
 8051TIP3    H224076   3.561   7.446   6.069 -1.4381 -0.8142  0.0582
 8052TIP3   OH224077   7.408   7.321   6.984  0.1838  0.5871 -0.0148
 8052TIP3    H124078   7.454   7.271   7.053 -0.8651 -0.6198 -0.1483
 8052TIP3    H224079   7.339   7.367   7.030  0.2171  0.7186 -0.0970
 8053TIP3   OH224080   1.032   1.101   6.573  0.9145 -0.0631 -0.4230
 8053TIP3    H124081   1.008   1.018   6.532 -2.0384  0.6780 -0.4026
 8053TIP3    H224082   1.063   1.156   6.502 -1.0370  0.1153 -1.1977
 8054TIP3   OH224083  -0.001   2.838   3.862  0.1760 -0.1978 -0.2590
 8054TIP3    H124084  -0.048   2.878   3.789 -1.3753 -0.9333  0.2941
 8054TIP3    H224085   0.064   2.781   3.820 -1.3283 -1.3625 -1.1266
 8055TIP3   OH224086   6.649   2.848   1.694  1.0622  0.2721  0.1969
 8055TIP3    H124087   6.619   2.929   1.735 -0.6419 -0.6834  0.9625
 8055TIP3    H224088   6.610   2.779   1.747  1.3006 -1.0429 -1.2696
 8056TIP3   OH224089   4.400   5.435   0.311  0.5545 -0.1008  0.1162
 8056TIP3    H124090   4.320   5.436   0.363 -0.4165  0.4843 -1.3245
 8056TIP3    H224091   4.430   5.526   0.312  1.4750 -0.3967  1.0162
 8057TIP3   OH224092   4.345   2.089   1.588 -0.5053  0.8083 -0.1359
 8057TIP3    H124093   4.319   2.014   1.535 -2.0304  2.6180 -2.1573
 8057TIP3    H224094   4.293   2.082   1.668 -0.6992 -0.2228 -0.3470
 8058TIP3   OH224095   7.697   2.852   6.071  0.5273 -0.0857  0.5242
 8058TIP3    H124096   7.707   2.888   6.159 -0.0904  0.8592  0.2151
 8058TIP3    H224097   7.608   2.816   6.070 -0.2656  1.7780 -0.3510
 8059TIP3   OH224098   7.671   3.860   5.734 -0.2688  0.2229  0.2060
 8059TIP3    H124099   7.692   3.875   5.642 -0.3777 -0.6744  0.0262
 8059TIP3    H224100   7.708   3.936   5.780  1.0656 -0.0310 -0.4068
 8060TIP3   OH224101   6.085   6.485   0.231  0.4750 -0.0862 -1.1151
 8060TIP3    H124102   6.059   6.440   0.311 -0.9080 -0.9312 -2.0077
 8060TIP3    H224103   6.162   6.437   0.200  3.7443  2.7218  1.7980
 8061TIP3   OH224104   1.795   1.333   7.094 -0.0368  0.0894  0.4081
 8061TIP3    H124105   1.867   1.296   7.042 -0.0280  1.1241 -0.3458
 8061TIP3    H224106   1.741   1.257   7.117  1.0640 -0.6469  0.6281
 8062TIP3   OH224107   3.081   4.869   3.929 -0.0735 -0.2952 -0.2810
 8062TIP3    H124108   3.014   4.833   3.870  0.9704  0.7886 -2.2456
 8062TIP3    H224109   3.063   4.829   4.014 -2.8268 -0.4627 -0.8760
 8063TIP3   OH224110   7.273   2.255   3.587 -0.3120 -0.3506  0.4514
 8063TIP3    H124111   7.317   2.180   3.546  1.7522  0.5783  0.8235
 8063TIP3    H224112   7.215   2.216   3.652 -0.9157 -1.6906 -0.8217
 8064TIP3   OH224113   1.667   6.428   5.172  0.1656  0.9275  0.0136
 8064TIP3    H124114   1.642   6.411   5.081  0.7692  2.0056 -0.3777
 8064TIP3    H224115   1.585   6.426   5.220 -0.3687  1.9178 -0.8209
 8065TIP3   OH224116   8.254   7.762   0.220 -0.4008 -0.1046 -0.0547
 8065TIP3    H124117   8.281   7.763   0.311 -0.1186 -0.2003 -0.1377
 8065TIP3    H224118   8.264   7.853   0.191  2.0492 -0.5322 -0.7341
 8066TIP3   OH224119   4.005   0.456   4.465  0.3623  0.1407 -0.8005
 8066TIP3    H124120   3.951   0.532   4.484 -0.0669 -0.5737  1.1225
 8066TIP3    H224121   3.943   0.388   4.437  0.3671 -0.3313  0.2782
 8067TIP3   OH224122   3.171   3.097   6.027 -0.2038 -0.3453 -0.3575
 8067TIP3    H124123   3.090   3.051   6.050 -0.8546  0.9993  0.1334
 8067TIP3    H224124   3.187   3.156   6.101  0.9593 -0.2401 -0.6774
 8068TIP3   OH224125   0.523   6.373   3.362 -0.2094 -0.0187 -0.0205
 8068TIP3    H124126   0.459   6.365   3.292  0.2348  0.0521 -0.4349
 8068TIP3    H224127   0.606   6.392   3.318  0.0783  0.0043  0.5174
 8069TIP3   OH224128   3.850   5.329   7.106 -0.1688 -0.3045  0.2481
 8069TIP3    H124129   3.886   5.359   7.022  0.0866 -1.6593 -0.1550
 8069TIP3    H224130   3.835   5.409   7.155  1.8814  0.4257 -0.1907
 8070TIP3   OH224131   7.299   5.786   0.198 -0.2044  0.1152 -0.0672
 8070TIP3    H124132   7.351   5.761   0.275 -0.9689 -1.0861  0.0776
 8070TIP3    H224133   7.219   5.824   0.234 -0.2777  0.1632 -0.2763
 8071TIP3   OH224134   0.501   1.438   4.201  0.0961  0.1824  0.3376
 8071TIP3    H124135   0.537   1.521   4.233  0.4765  0.0880  0.1628
 8071TIP3    H224136   0.458   1.460   4.119 -0.2849  0.3047  0.5713
 8072TIP3   OH224137   2.874   0.127   0.926  0.1840 -0.3539  0.3452
 8072TIP3    H124138   2.912   0.055   0.976  1.3959 -0.7078 -1.0304
 8072TIP3    H224139   2.865   0.093   0.837 -3.8536 -0.4672  0.5954
 8073TIP3   OH224140   6.751   7.322   1.062 -0.0452 -0.4969 -0.4828
 8073TIP3    H124141   6.769   7.286   1.148 -0.3262 -1.9283 -0.9958
 8073TIP3    H224142   6.837   7.327   1.020  0.0782  0.1051 -0.1797
 8074TIP3   OH224143   3.487   0.462   1.600 -0.5445  0.0440  0.2965
 8074TIP3    H124144   3.558   0.474   1.536 -0.0251  0.4556  0.9405
 8074TIP3    H224145   3.438   0.544   1.598  0.0998  0.4660  1.1713
 8075TIP3   OH224146   2.295   1.081   1.416 -0.2513  0.0839  0.0661
 8075TIP3    H124147   2.314   1.169   1.448  2.0241 -1.3460  3.1096
 8075TIP3    H224148   2.337   1.077   1.330  3.4458  0.7627  1.6695
 8076TIP3   OH224149   2.536   5.628   5.761 -0.0681 -0.1847  0.7311
 8076TIP3    H124150   2.558   5.604   5.671  0.6740 -1.3332  1.1965
 8076TIP3    H224151   2.531   5.724   5.760 -2.7171 -0.2421 -1.1065
 8077TIP3   OH224152   7.666   7.107   3.392  0.4427  0.4201  0.3062
 8077TIP3    H124153   7.688   7.158   3.314  0.1999  3.1346  1.8932
 8077TIP3    H224154   7.694   7.162   3.466  0.8470 -2.1130  2.1705
 8078TIP3   OH224155   4.633   6.555   0.053  0.0575 -0.1484 -0.4673
 8078TIP3    H124156   4.684   6.633   0.032 -0.0972  0.4011  1.1292
 8078TIP3    H224157   4.597   6.527  -0.031  1.1222  0.7623 -1.2603
 8079TIP3   OH224158   6.250   3.237   6.836 -0.3070 -0.0715  0.2837
 8079TIP3    H124159   6.279   3.149   6.813  1.5900  0.7395 -0.6330
 8079TIP3    H224160   6.199   3.266   6.761 -0.1155 -0.0283  0.1708
 8080TIP3   OH224161   6.148   7.487   6.666  0.4022  0.9195 -0.0236
 8080TIP3    H124162   6.125   7.442   6.747 -0.8467 -0.5364 -1.1305
 8080TIP3    H224163   6.065   7.497   6.619  1.1508  1.3741 -1.3125
 8081TIP3   OH224164   7.652   0.378   0.143 -0.2166 -0.2651 -0.1828
 8081TIP3    H124165   7.633   0.357   0.052  0.7856 -0.9227 -0.2530
 8081TIP3    H224166   7.699   0.302   0.176  1.4998  0.9121  0.2031
 8082TIP3   OH224167   8.261   7.535   3.925  0.5659  0.3151  0.4723
 8082TIP3    H124168   8.308   7.454   3.906  0.7059  0.2056  1.2562
 8082TIP3    H224169   8.203   7.548   3.850 -0.3841 -1.1837  0.9154
 8083TIP3   OH224170   7.513   3.736   2.393 -0.0027 -0.6971  0.9594
 8083TIP3    H124171   7.471   3.744   2.308 -0.5182 -2.2049  1.0421
 8083TIP3    H224172   7.455   3.783   2.453  0.3946  0.4199  0.5037
 8084TIP3   OH224173   7.908   5.356   2.650 -0.3555 -0.5510  0.3025
 8084TIP3    H124174   7.826   5.371   2.698  0.3707 -2.7876  2.4409
 8084TIP3    H224175   7.963   5.431   2.674  0.1041 -1.7569  3.4253
 8085TIP3   OH224176   1.496   4.355  -0.020 -0.3480  0.1402 -0.4625
 8085TIP3    H124177   1.545   4.430   0.013 -1.0519 -0.0232  1.0427
 8085TIP3    H224178   1.408   4.367   0.015 -0.2478 -1.8610  0.6210
 8086TIP3   OH224179   2.077   2.949   0.813 -0.7465  0.1681 -0.1298
 8086TIP3    H124180   2.060   2.957   0.719 -3.3391  0.0495  0.2478
 8086TIP3    H224181   2.153   3.005   0.828 -0.9537  1.0830 -2.1311
 8087TIP3   OH224182   4.806   3.646   6.076 -0.3563 -0.3600  0.1086
 8087TIP3    H124183   4.725   3.687   6.046 -0.4181 -1.5933 -1.5139
 8087TIP3    H224184   4.863   3.644   5.999  0.3862 -1.5053  0.6546
 8088TIP3   OH224185   6.032   5.597   2.555 -0.5828  1.0361 -0.8048
 8088TIP3    H124186   5.965   5.533   2.532  0.3451  0.3807 -1.8073
 8088TIP3    H224187   6.065   5.567   2.640 -3.5820  3.0985  1.2921
 8089TIP3   OH224188   1.711   4.819   6.010 -0.5446  0.1927 -0.6799
 8089TIP3    H124189   1.779   4.885   6.029  0.5013 -1.1911  0.5823
 8089TIP3    H224190   1.689   4.782   6.095 -3.0178  0.6545 -1.0455
 8090TIP3   OH224191   5.736   0.499   1.067 -0.2757  0.2698 -0.1635
 8090TIP3    H124192   5.809   0.500   1.129 -1.4505 -0.7440  1.2922
 8090TIP3    H224193   5.766   0.554   0.995  1.6529  0.4367  0.6940
 8091TIP3   OH224194   4.504   5.477   1.438 -0.7155 -0.3073 -0.1285
 8091TIP3    H124195   4.444   5.550   1.455  0.2098  0.3448  0.3861
 8091TIP3    H224196   4.447   5.408   1.404 -1.5710  0.7319 -0.8860
 8092TIP3   OH224197   6.213   2.680   5.546 -0.6999  0.5685 -0.1017
 8092TIP3    H124198   6.180   2.687   5.636  1.1578  2.1385  0.5447
 8092TIP3    H224199   6.139   2.705   5.491 -2.1421 -1.2777  0.8926
 8093TIP3   OH224200   5.519   2.720   2.473  0.1989  0.5909  0.5309
 8093TIP3    H124201   5.448   2.743   2.533  1.0870  1.0532  1.4336
 8093TIP3    H224202   5.588   2.685   2.530 -0.0291 -1.7254 -0.5057
 8094TIP3   OH224203   0.951   1.816   7.050 -0.4232  0.0704  0.3849
 8094TIP3    H124204   0.969   1.724   7.031 -1.0543 -0.1673  0.9154
 8094TIP3    H224205   1.028   1.845   7.099  0.4906  0.2625 -1.1105
 8095TIP3   OH224206   1.011   2.934   7.112 -0.1968  0.1063 -0.5261
 8095TIP3    H124207   1.003   2.992   7.036  0.1078  1.0470  0.1274
 8095TIP3    H224208   1.099   2.897   7.105 -0.5675 -0.6629 -1.2018
 8096TIP3   OH224209   1.470   2.999   3.031  0.2328  0.1777 -0.6032
 8096TIP3    H124210   1.396   3.053   3.004  0.2942 -0.2175 -1.5976
 8096TIP3    H224211   1.515   2.977   2.949  1.0237 -0.2045 -0.0792
 8097TIP3   OH224212   0.520   7.156   4.832  0.1643  0.5938 -0.3638
 8097TIP3    H124213   0.439   7.105   4.819 -0.1940  0.4747  1.8597
 8097TIP3    H224214   0.511   7.230   4.773 -0.9133 -0.1572 -1.1954
 8098TIP3   OH224215   0.969   4.188   0.752  0.3331 -0.2914  0.3025
 8098TIP3    H124216   0.892   4.140   0.722 -0.5392  2.6121 -2.5892
 8098TIP3    H224217   1.031   4.185   0.679  1.3532  0.6929  1.0700
 8099TIP3   OH224218   0.939   2.688   1.698  0.6577 -0.5648 -0.4804
 8099TIP3    H124219   1.022   2.719   1.733  0.3630 -0.4018  0.1039
 8099TIP3    H224220   0.901   2.636   1.770 -0.4533  0.6647 -0.1297
 8100TIP3   OH224221   8.432   0.020   6.249  0.1310 -0.1385 -0.4820
 8100TIP3    H124222   8.344   0.043   6.220  0.1885  0.5488 -0.1225
 8100TIP3    H224223   8.465   0.098   6.294  0.9147 -0.3942 -0.5863
 8101TIP3   OH224224   3.297   3.470   4.297  0.1086 -0.3919  0.5522
 8101TIP3    H124225   3.335   3.518   4.370  0.0814  0.2442  0.1546
 8101TIP3    H224226   3.371   3.450   4.240  0.0208 -0.1873  0.3630
 8102TIP3   OH224227   4.249   1.867   0.172  0.3226 -0.2759  0.2549
 8102TIP3    H124228   4.310   1.826   0.110  0.2367 -1.1505  0.7300
 8102TIP3    H224229   4.305   1.919   0.229  0.6115 -0.9457  0.5889
 8103TIP3   OH224230   4.878   1.165   0.522  0.4651 -0.3312 -0.0409
 8103TIP3    H124231   4.878   1.154   0.427 -0.2230 -0.5324 -0.0199
 8103TIP3    H224232   4.952   1.112   0.553  0.7374 -0.2010 -0.4660
 8104TIP3   OH224233   0.706   2.207   1.255  0.1533  0.4994 -0.0872
 8104TIP3    H124234   0.788   2.179   1.296  0.4363  1.9238  0.3883
 8104TIP3    H224235   0.714   2.180   1.164 -0.0907 -1.9157  0.5493
 8105TIP3   OH224236   7.308   1.050   0.482  0.0445 -0.4465 -0.2130
 8105TIP3    H124237   7.378   1.083   0.426  0.5170 -1.6155 -0.3517
 8105TIP3    H224238   7.302   0.957   0.460 -1.1216 -0.4963  0.2614
 8106TIP3   OH224239   4.676   6.792   1.941  0.3576  0.7004  0.1331
 8106TIP3    H124240   4.677   6.888   1.951  0.4340  0.5388  2.0536
 8106TIP3    H224241   4.740   6.775   1.872 -1.3861  2.1577 -1.9662
 8107TIP3   OH224242   2.410   0.286   3.515  0.6588  0.6294  0.5296
 8107TIP3    H124243   2.387   0.330   3.433 -0.0025  2.1275  1.4743
 8107TIP3    H224244   2.327   0.272   3.560  1.0517  0.2167  1.1458
 8108TIP3   OH224245   6.838   3.603   6.876  0.5298 -0.2040 -0.0642
 8108TIP3    H124246   6.830   3.608   6.781  1.2609  1.2653 -0.0725
 8108TIP3    H224247   6.907   3.538   6.891 -1.6598 -2.7697 -0.3839
 8109TIP3   OH224248   2.181   0.136   6.234  0.2898 -0.2788  0.5600
 8109TIP3    H124249   2.206   0.139   6.326  0.7244 -2.7752  0.5893
 8109TIP3    H224250   2.263   0.122   6.187 -0.0949 -0.5588 -0.0483
 8110TIP3   OH224251   3.232   1.414   4.329  0.2212 -0.0838  0.2605
 8110TIP3    H124252   3.200   1.458   4.408  0.2756 -0.0500  0.2631
 8110TIP3    H224253   3.305   1.360   4.360  0.1598 -0.1715  0.2564
 8111TIP3   OH224254   2.686   4.430   6.640 -0.3963 -0.0254 -0.4519
 8111TIP3    H124255   2.650   4.344   6.618 -0.7067 -0.0747  0.2148
 8111TIP3    H224256   2.610   4.483   6.663 -0.2419  0.5469 -1.2422
 8112TIP3   OH224257   2.950   2.164   6.265 -0.0067  0.0019  0.3520
 8112TIP3    H124258   3.013   2.100   6.231  0.6835  0.3810  0.8700
 8112TIP3    H224259   2.893   2.184   6.191 -0.4978 -1.5075  0.2864
 8113TIP3   OH224260   5.629   7.974   0.785  0.2373 -0.7638  0.4731
 8113TIP3    H124261   5.558   7.949   0.725  0.7730 -1.0263 -0.0681
 8113TIP3    H224262   5.709   7.947   0.739  0.6591 -1.0181  1.3329
 8114TIP3   OH224263   2.091   3.249   6.778  0.4325 -0.4144  0.5439
 8114TIP3    H124264   2.069   3.335   6.743 -0.9989 -1.1719 -0.5714
 8114TIP3    H224265   2.180   3.233   6.749 -0.0718 -0.2282 -1.2270
 8115TIP3   OH224266   1.886   2.436   1.400 -0.3305  0.6778 -0.2737
 8115TIP3    H124267   1.803   2.437   1.352 -0.2880 -1.1408 -0.4452
 8115TIP3    H224268   1.923   2.523   1.385 -2.1306  1.4867 -0.2999
 8116TIP3   OH224269   5.553   4.718   0.821  0.3641  0.1080  0.2125
 8116TIP3    H124270   5.546   4.658   0.895 -0.3165 -1.1833 -0.8561
 8116TIP3    H224271   5.517   4.800   0.854  0.2558 -0.3790  1.3665
 8117TIP3   OH224272   2.801   6.627   1.026 -0.1018  0.1598 -0.6140
 8117TIP3    H124273   2.775   6.541   0.992 -0.6668  0.6312 -1.4117
 8117TIP3    H224274   2.896   6.625   1.026 -0.0872  0.0279 -1.9650
 8118TIP3   OH224275   5.553   0.156   0.194  0.3230  0.0479 -0.3272
 8118TIP3    H124276   5.504   0.234   0.167  0.2591  0.1333  0.0319
 8118TIP3    H224277   5.499   0.082   0.166 -0.9132  0.1340  1.6412
 8119TIP3   OH224278   4.020   6.039   0.811 -1.1140 -0.2079 -0.2105
 8119TIP3    H124279   3.971   6.119   0.789 -2.0181 -0.9403 -0.9515
 8119TIP3    H224280   3.962   5.968   0.785  0.1320 -1.1180 -0.5806
 8120TIP3   OH224281   6.408   2.836   3.670 -0.1224  0.5884 -0.2940
 8120TIP3    H124282   6.402   2.784   3.751 -0.2265  0.6239 -0.2788
 8120TIP3    H224283   6.500   2.830   3.645 -0.0037  0.9152  0.0502
 8121TIP3   OH224284   0.854   7.482   4.107 -0.0953 -0.4349 -0.7055
 8121TIP3    H124285   0.833   7.561   4.158 -1.7296  0.7151 -2.9641
 8121TIP3    H224286   0.768   7.450   4.076  0.7215 -1.7636 -1.7256
 8122TIP3   OH224287   7.607   3.173   4.659 -0.1459  0.1993  0.5675
 8122TIP3    H124288   7.633   3.086   4.687 -0.0692 -0.0867 -0.3579
 8122TIP3    H224289   7.550   3.205   4.729  2.0155  0.5318  2.2459
 8123TIP3   OH224290   8.162   2.606   0.616  0.1564 -0.8015 -0.2217
 8123TIP3    H124291   8.164   2.635   0.707 -0.5141  0.8391 -0.6944
 8123TIP3    H224292   8.205   2.676   0.567 -0.2378 -1.2584 -1.2579
 8124TIP3   OH224293   3.087   6.368   3.363  0.3911  0.4133 -0.2732
 8124TIP3    H124294   3.009   6.354   3.416  0.0842  1.9684 -0.2545
 8124TIP3    H224295   3.075   6.313   3.286  0.3356 -1.0393  0.7378
 8125TIP3   OH224296   4.634   1.008   0.758  0.0476 -0.2110 -0.2820
 8125TIP3    H124297   4.547   1.048   0.755 -0.3748 -0.9794  1.0753
 8125TIP3    H224298   4.635   0.950   0.682 -0.8917 -0.6992  0.0571
 8126TIP3   OH224299   7.662   3.835   1.764 -0.3389 -0.5109 -0.3216
 8126TIP3    H124300   7.637   3.894   1.693  1.3856  2.0776  1.0658
 8126TIP3    H224301   7.735   3.783   1.728  0.8344  1.1053 -0.3866
 8127TIP3   OH224302   4.689   6.470   1.927 -0.6697  0.2732  0.3349
 8127TIP3    H124303   4.660   6.561   1.916  1.4318  0.9215 -0.3589
 8127TIP3    H224304   4.757   6.475   1.994 -0.4840 -0.7667  0.2287
 8128TIP3   OH224305   4.679   2.381   1.020  0.7631  0.1773 -0.1456
 8128TIP3    H124306   4.685   2.349   1.110  0.1216  0.8820  0.1610
 8128TIP3    H224307   4.677   2.477   1.028  1.1465  0.2652 -0.9402
 8129TIP3   OH224308   7.231   5.879   4.228  0.1688 -0.1059 -0.4919
 8129TIP3    H124309   7.284   5.800   4.223  0.1149 -0.1895  0.2179
 8129TIP3    H224310   7.277   5.935   4.291 -0.0566  0.2294 -0.6223
 8130TIP3   OH224311   8.451   2.937   6.854 -0.1869  0.2493  0.1539
 8130TIP3    H124312   8.421   3.027   6.869 -1.9590 -0.2929  0.1548
 8130TIP3    H224313   8.501   2.915   6.932  0.5586  1.3386  0.0023
 8131TIP3   OH224314   2.835   3.136   2.176  0.0524 -0.3031  0.5444
 8131TIP3    H124315   2.809   3.112   2.265  1.5573 -1.5995  0.6977
 8131TIP3    H224316   2.762   3.186   2.141 -0.8079 -0.2666  2.3139
 8132TIP3   OH224317   1.196   7.890   4.703  0.2658 -0.1828 -0.2352
 8132TIP3    H124318   1.210   7.870   4.611  0.7810  1.8938 -0.6556
 8132TIP3    H224319   1.166   7.807   4.741 -1.7880 -0.6737 -2.6235
 8133TIP3   OH224320   5.110   4.116   0.036  0.2899 -0.0576  0.9879
 8133TIP3    H124321   5.205   4.106   0.029  0.3392  0.3210  1.0572
 8133TIP3    H224322   5.077   4.028   0.053  0.5751 -0.2882  0.3765
 8134TIP3   OH224323   2.143   5.758   4.980  0.0613 -0.5718  0.4300
 8134TIP3    H124324   2.094   5.771   4.899  0.6197  1.3540  0.3413
 8134TIP3    H224325   2.117   5.831   5.036  3.3594  1.0616  0.0567
 8135TIP3   OH224326   4.790   7.676   0.841  0.7509  0.2109  0.2059
 8135TIP3    H124327   4.760   7.755   0.794 -1.5488 -0.7469 -0.0881
 8135TIP3    H224328   4.718   7.655   0.900  0.9802 -2.0856 -0.2498
 8136TIP3   OH224329   6.019   1.550   4.261 -0.2166  0.6095 -0.6746
 8136TIP3    H124330   6.093   1.505   4.302  0.3782 -0.9378 -3.2316
 8136TIP3    H224331   6.039   1.643   4.272  2.7668  0.2670 -2.2077
 8137TIP3   OH224332   4.872   4.803   1.537 -0.1422  0.1463 -0.4242
 8137TIP3    H124333   4.945   4.849   1.579  0.5146  0.6499 -2.0312
 8137TIP3    H224334   4.806   4.871   1.523  0.1816  0.2796 -1.3686
 8138TIP3   OH224335   7.933   1.045   5.706  0.1165 -0.6454 -0.2387
 8138TIP3    H124336   7.889   1.130   5.710  0.2194 -0.6272  2.1402
 8138TIP3    H224337   7.864   0.982   5.688 -0.6667 -0.4332  1.7771
 8139TIP3   OH224338   2.827   2.505   5.397 -0.5046  0.7279  0.0502
 8139TIP3    H124339   2.874   2.432   5.438 -0.1702  2.4861  3.1468
 8139TIP3    H224340   2.896   2.555   5.353 -0.0270  1.2222  1.2954
 8140TIP3   OH224341   3.511   0.985   6.839 -0.1640  0.1073 -0.5876
 8140TIP3    H124342   3.552   1.070   6.855  0.4842 -0.2593 -0.2383
 8140TIP3    H224343   3.577   0.921   6.867 -1.0454 -0.4988  0.1455
 8141TIP3   OH224344   3.540   4.975   4.447  0.7356 -0.7432  0.3765
 8141TIP3    H124345   3.488   4.988   4.368  0.9254 -0.3939  0.3059
 8141TIP3    H224346   3.628   5.003   4.423  1.0343 -1.6117  0.4048
 8142TIP3   OH224347   2.542   5.190   0.316  0.1358  0.3420  0.0968
 8142TIP3    H124348   2.501   5.124   0.372 -0.7025 -0.0750 -0.9718
 8142TIP3    H224349   2.498   5.272   0.338 -1.4981 -0.1307 -1.1769
 8143TIP3   OH224350   6.036   7.327   0.062  0.6677 -0.6517  0.7088
 8143TIP3    H124351   5.997   7.256   0.113  0.2093 -0.6576  0.3620
 8143TIP3    H224352   5.972   7.344  -0.008  1.2312 -0.5684  0.2064
 8144TIP3   OH224353   3.020   4.622   3.697  0.0865  0.6757  0.6566
 8144TIP3    H124354   2.949   4.607   3.759 -1.9345  0.8169 -1.4710
 8144TIP3    H224355   3.011   4.552   3.633  2.2639  0.3779  0.6146
 8145TIP3   OH224356   3.980   4.012   2.689  0.3272 -0.2567 -0.6368
 8145TIP3    H124357   3.895   3.992   2.727  0.1949 -0.9552 -1.2881
 8145TIP3    H224358   4.000   3.937   2.632  2.2317 -1.0519  0.9405
 8146TIP3   OH224359   1.639   2.966   1.251  0.3498 -0.6666  0.0558
 8146TIP3    H124360   1.633   2.928   1.163 -2.4671  0.2775 -0.2676
 8146TIP3    H224361   1.726   2.941   1.282  2.6225  1.2167 -4.0042
 8147TIP3   OH224362   0.508   2.139   0.686  0.2586 -0.1020 -0.2074
 8147TIP3    H124363   0.590   2.163   0.729  0.4715  0.4821 -0.9222
 8147TIP3    H224364   0.440   2.161   0.750  0.6035  0.2000  0.0587
 8148TIP3   OH224365   1.924   1.117   4.190  0.2404  0.4264 -0.1382
 8148TIP3    H124366   1.994   1.125   4.125 -0.5294 -2.0359 -1.3544
 8148TIP3    H224367   1.967   1.074   4.265  0.4971  0.8697 -0.0225
 8149TIP3   OH224368   5.695   3.991   0.920  0.6288  0.5773 -0.3234
 8149TIP3    H124369   5.734   4.057   0.862 -1.4141  2.5696  0.4237
 8149TIP3    H224370   5.637   4.041   0.978 -3.9317 -2.1071 -2.0465
 8150TIP3   OH224371   2.752   0.630   3.858  0.2679  0.4066 -0.2963
 8150TIP3    H124372   2.672   0.594   3.819  0.8022  0.4605 -1.4676
 8150TIP3    H224373   2.804   0.659   3.783  1.3781  0.3969  0.4615
 8151TIP3   OH224374   5.808   2.596   4.927 -0.2877  0.3590 -0.3249
 8151TIP3    H124375   5.868   2.539   4.974 -0.7404 -0.0614 -0.2517
 8151TIP3    H224376   5.722   2.558   4.942 -0.6839  1.4884  0.3489
 8152TIP3   OH224377   1.558   5.656   2.692  0.2519 -0.0710  0.6957
 8152TIP3    H124378   1.529   5.566   2.707 -0.8868 -0.1161 -1.2919
 8152TIP3    H224379   1.546   5.669   2.598  3.0620  1.2813  0.4256
 8153TIP3   OH224380   1.009   2.758   0.082  0.2785 -0.1936 -0.0621
 8153TIP3    H124381   0.976   2.668   0.082  0.7597 -0.3811 -0.5728
 8153TIP3    H224382   0.936   2.811   0.113 -0.0181 -0.7582  0.2203
 8154TIP3   OH224383   1.900   1.153   2.274  0.6406  0.2783  0.7369
 8154TIP3    H124384   1.870   1.174   2.362 -1.7019  2.7700 -0.4719
 8154TIP3    H224385   1.925   1.238   2.237  0.3646 -0.5066 -1.3677
 8155TIP3   OH224386   4.814   2.645   3.961  0.6353  0.1457 -0.3160
 8155TIP3    H124387   4.827   2.550   3.966 -0.1509  0.0902  1.0538
 8155TIP3    H224388   4.839   2.678   4.048  0.2677  1.1110 -0.5583
 8156TIP3   OH224389   7.028   4.779   3.002 -0.3444 -0.1154 -0.2509
 8156TIP3    H124390   6.991   4.844   2.942 -0.1481 -0.3078 -0.5838
 8156TIP3    H224391   6.958   4.761   3.065 -0.4626  0.2765 -0.2715
 8157TIP3   OH224392   3.957   1.379   4.188 -0.8023  0.1074 -0.4070
 8157TIP3    H124393   4.046   1.383   4.152 -0.5190  0.6217  0.3364
 8157TIP3    H224394   3.903   1.350   4.114 -0.0624  0.0681 -0.9444
 8158TIP3   OH224395   6.831   6.497   4.163  0.1027 -0.0315  0.0729
 8158TIP3    H124396   6.786   6.563   4.216  0.5790  1.3070 -1.1091
 8158TIP3    H224397   6.853   6.428   4.224  1.5965  1.9195  1.8806
 8159TIP3   OH224398   7.987   6.211   2.137 -0.1213  0.5303 -0.2708
 8159TIP3    H124399   8.007   6.120   2.115 -0.1581  0.5086 -0.2113
 8159TIP3    H224400   7.898   6.225   2.103  0.5927  1.1163 -2.0682
 8160TIP3   OH224401   6.248   8.154   2.938  0.5156 -0.5588  0.2616
 8160TIP3    H124402   6.230   8.060   2.937  0.0092 -0.5140  1.7850
 8160TIP3    H224403   6.208   8.185   3.020  0.1206  1.0977 -0.5156
 8161TIP3   OH224404   6.446   1.991   2.247  0.7296  0.5127 -0.1171
 8161TIP3    H124405   6.380   1.935   2.289  1.7984 -0.5481  0.2040
 8161TIP3    H224406   6.463   1.950   2.163  2.3444 -0.3409  0.5800
 8162TIP3   OH224407   2.447   6.422   6.357  0.4094  0.2426 -0.3479
 8162TIP3    H124408   2.371   6.418   6.416 -1.2088  0.8472 -2.2656
 8162TIP3    H224409   2.465   6.331   6.335  2.6224 -0.2395  2.8536
 8163TIP3   OH224410   2.932   1.352   2.877  0.4084  0.4551  0.2817
 8163TIP3    H124411   2.857   1.353   2.817  0.5695  1.7137  0.0734
 8163TIP3    H224412   3.003   1.393   2.828  2.1589 -3.1406 -0.5600
 8164TIP3   OH224413   7.842   6.523   1.053 -0.0612  0.0792  0.0226
 8164TIP3    H124414   7.778   6.505   1.122  1.0128 -0.2203  0.9705
 8164TIP3    H224415   7.919   6.556   1.100 -0.0812  2.0570 -1.2242
 8165TIP3   OH224416   2.927   5.416   2.828  0.4166 -0.3487  0.1234
 8165TIP3    H124417   2.914   5.455   2.742 -0.9599 -0.1334  0.3965
 8165TIP3    H224418   3.021   5.421   2.844  0.4389  1.6504 -0.4089
 8166TIP3   OH224419   2.052   5.578   4.114  0.6523 -0.3532 -0.4729
 8166TIP3    H124420   2.057   5.610   4.024 -0.3039  0.2056 -0.3414
 8166TIP3    H224421   2.134   5.530   4.127  1.1889  0.2939 -1.3548
 8167TIP3   OH224422   3.920   0.403   1.214  0.1271  0.0260 -0.3775
 8167TIP3    H124423   3.998   0.382   1.265  0.4445  0.2964 -0.7349
 8167TIP3    H224424   3.953   0.459   1.143 -0.3623 -0.0139 -0.6423
 8168TIP3   OH224425   5.078   4.711   1.278 -0.0115 -0.0011  0.6048
 8168TIP3    H124426   5.140   4.676   1.342  0.8513  1.0337  0.3728
 8168TIP3    H224427   5.133   4.735   1.203 -0.9618 -0.8970 -0.4049
 8169TIP3   OH224428   3.012   3.409   0.759  0.1976 -0.2784 -0.3354
 8169TIP3    H124429   3.045   3.465   0.829 -0.2200  1.7065 -1.6384
 8169TIP3    H224430   2.919   3.431   0.752 -0.0498 -1.3837 -0.6722
 8170TIP3   OH224431   0.733   2.113   5.844 -0.0932  0.3128 -0.1606
 8170TIP3    H124432   0.806   2.150   5.794 -0.1923  1.0689  0.2362
 8170TIP3    H224433   0.677   2.072   5.778  0.3988  0.2197 -0.5286
 8171TIP3   OH224434   4.017   4.290   2.090 -0.1050  0.5685 -0.0282
 8171TIP3    H124435   4.088   4.354   2.094  1.1630 -0.6636 -1.4351
 8171TIP3    H224436   3.972   4.310   2.008 -1.0022  0.9327  0.5419
 8172TIP3   OH224437   3.643   3.149   1.776  0.3655  0.1103  0.3483
 8172TIP3    H124438   3.556   3.108   1.776 -0.0854  0.9382  2.5864
 8172TIP3    H224439   3.636   3.218   1.711 -0.5877  0.0097  0.3262
 8173TIP3   OH224440   3.787   1.054   1.978 -0.4764  0.1809 -0.2016
 8173TIP3    H124441   3.721   1.056   2.047  1.6587 -1.1182  2.0477
 8173TIP3    H224442   3.860   1.105   2.013  0.1324  0.7604 -2.1901
 8174TIP3   OH224443   8.285   4.506   4.266  0.0165 -0.2060  0.0372
 8174TIP3    H124444   8.370   4.519   4.308  0.6259 -1.5185 -0.7361
 8174TIP3    H224445   8.282   4.573   4.198  0.6979 -0.5269 -0.3169
 8175TIP3   OH224446   1.581   0.374   6.143  0.4050  0.3402  0.6066
 8175TIP3    H124447   1.524   0.348   6.215 -0.1140  0.2647  0.1723
 8175TIP3    H224448   1.649   0.306   6.141 -0.3976 -0.4728  0.1006
 8176TIP3   OH224449   4.412   6.518   6.866 -0.1075 -0.4473 -0.1921
 8176TIP3    H124450   4.426   6.423   6.868  2.6688 -0.2251 -2.3259
 8176TIP3    H224451   4.483   6.554   6.919 -1.5313  0.4788  1.1537
 8177TIP3   OH224452   3.817   1.273   5.679 -0.2663  0.3367 -0.3474
 8177TIP3    H124453   3.844   1.287   5.588  1.1642  2.3844  0.3196
 8177TIP3    H224454   3.875   1.329   5.730 -0.3522 -1.4979  1.9548
 8178TIP3   OH224455   7.729   0.965   5.223  0.2368 -0.3329 -0.7795
 8178TIP3    H124456   7.811   0.942   5.181  0.7747  1.3768 -0.7002
 8178TIP3    H224457   7.711   1.055   5.197  0.1075  0.4943  1.8192
 8179TIP3   OH224458   2.278   3.444   4.519 -0.0708  0.2496 -0.2196
 8179TIP3    H124459   2.243   3.410   4.601 -1.2530 -2.0849 -1.5741
 8179TIP3    H224460   2.206   3.433   4.456  0.7681  2.0352 -1.5670
 8180TIP3   OH224461   7.154   8.040   3.101  0.3954  0.6367  0.7694
 8180TIP3    H124462   7.237   8.085   3.090  1.6289 -1.3179  1.6365
 8180TIP3    H224463   7.172   7.949   3.079 -1.9014  0.3959 -0.5012
 8181TIP3   OH224464   6.240   3.282   3.681 -0.3706  0.2986  0.1169
 8181TIP3    H124465   6.289   3.290   3.599  0.8608  0.1253  0.8113
 8181TIP3    H224466   6.193   3.365   3.688 -1.5651 -0.1917 -1.3973
 8182TIP3   OH224467   5.176   4.314   3.229 -0.1285  0.1093 -0.4946
 8182TIP3    H124468   5.132   4.381   3.281 -1.8650 -2.2803  1.3677
 8182TIP3    H224469   5.231   4.267   3.292  1.6209  0.1667 -1.8903
 8183TIP3   OH224470   3.227   6.205   4.053  0.5772 -0.2261  0.2389
 8183TIP3    H124471   3.261   6.288   4.022 -0.2241 -0.6331 -1.9479
 8183TIP3    H224472   3.304   6.149   4.063  1.0034  0.4091  0.5232
 8184TIP3   OH224473   6.638   3.186   4.542 -0.1506  0.1637 -0.2312
 8184TIP3    H124474   6.572   3.142   4.596 -0.4386  1.1801  0.2723
 8184TIP3    H224475   6.676   3.253   4.600  0.5388  0.3266 -0.8586
 8185TIP3   OH224476   7.362   7.649   5.448  0.4839 -0.2252  0.6389
 8185TIP3    H124477   7.283   7.643   5.394  1.2053  1.3625 -0.6739
 8185TIP3    H224478   7.422   7.587   5.408  0.5477 -0.0511  0.4639
 8186TIP3   OH224479   5.870   4.178   1.152  0.3766 -0.3203 -0.1036
 8186TIP3    H124480   5.879   4.263   1.195  0.5439 -0.0550 -0.6487
 8186TIP3    H224481   5.844   4.199   1.062 -0.6601 -0.8861  0.0450
 8187TIP3   OH224482   5.457   4.284   7.015 -0.4323  0.3937  0.7078
 8187TIP3    H124483   5.482   4.192   7.008  0.4226  0.6435  0.4224
 8187TIP3    H224484   5.495   4.313   7.098 -1.9026  0.1392  1.5201
 8188TIP3   OH224485   0.624   5.845   5.246 -0.3056  0.5041 -0.3598
 8188TIP3    H124486   0.658   5.761   5.216 -1.4881 -0.1955  0.1916
 8188TIP3    H224487   0.666   5.860   5.330  0.9173  1.1404 -1.0487
 8189TIP3   OH224488   4.522   3.425   5.338 -0.2737  0.3868 -0.1750
 8189TIP3    H124489   4.442   3.473   5.360  0.0242  1.5867 -1.5788
 8189TIP3    H224490   4.591   3.491   5.339  0.6887 -0.5895  0.7856
 8190TIP3   OH224491   4.822   6.406   6.442  0.1547 -0.3374 -0.2794
 8190TIP3    H124492   4.862   6.333   6.396  0.1398  0.2705 -1.2961
 8190TIP3    H224493   4.880   6.423   6.516 -0.6583 -2.3425  0.8859
 8191TIP3   OH224494   0.352   1.116   6.219  0.1921 -0.1558 -0.0828
 8191TIP3    H124495   0.366   1.067   6.138 -2.2835 -1.1680  0.0131
 8191TIP3    H224496   0.336   1.206   6.191  2.9912  0.3305 -0.3882
 8192TIP3   OH224497   3.759   6.691   0.594 -0.6605 -0.6857 -0.2981
 8192TIP3    H124498   3.787   6.616   0.541 -0.8703 -1.6144  0.8564
 8192TIP3    H224499   3.816   6.687   0.671 -0.4180  0.5890 -0.3930
 8193TIP3   OH224500   6.736   6.430   4.497  0.1281 -0.4370 -0.7202
 8193TIP3    H124501   6.816   6.392   4.460  0.1532 -0.8760 -0.2172
 8193TIP3    H224502   6.759   6.521   4.516  0.3508 -0.4226 -1.0542
 8194TIP3   OH224503   2.369   6.693   0.034 -0.0362 -0.1472 -0.1597
 8194TIP3    H124504   2.455   6.720   0.066  0.1917  0.1156 -0.9498
 8194TIP3    H224505   2.362   6.735  -0.052 -1.2799  0.4613  0.2175
 8195TIP3   OH224506   1.566   8.215   2.768 -0.4121 -0.5051  0.1587
 8195TIP3    H124507   1.584   8.121   2.764 -1.2087 -0.6346 -0.6463
 8195TIP3    H224508   1.610   8.251   2.692  0.6531 -0.0728  0.9530
 8196TIP3   OH224509   0.187   5.426   4.569 -0.4044  0.4357  0.7354
 8196TIP3    H124510   0.201   5.514   4.534  0.9886  0.4441  1.2400
 8196TIP3    H224511   0.123   5.386   4.510  0.2543  1.1931 -0.5359
 8197TIP3   OH224512   2.242   6.913   2.778 -0.5610  0.0586 -0.1196
 8197TIP3    H124513   2.255   6.818   2.782  0.5797  0.0971 -1.8795
 8197TIP3    H224514   2.330   6.949   2.766 -0.9791  1.3591  0.4937
 8198TIP3   OH224515   4.575   0.894   1.568 -0.0383  0.2881 -0.3462
 8198TIP3    H124516   4.641   0.960   1.588 -0.7065  1.1034 -0.7601
 8198TIP3    H224517   4.531   0.878   1.652 -1.0029  1.6561 -0.5495
 8199TIP3   OH224518   6.182   7.110   2.848  0.1322 -0.2010  0.7101
 8199TIP3    H124519   6.119   7.129   2.779 -0.2121 -1.0765  0.7763
 8199TIP3    H224520   6.232   7.191   2.857 -0.2750  0.1510 -0.0810
 8200TIP3   OH224521   6.386   7.293   2.080  0.0832 -0.6577  0.3693
 8200TIP3    H124522   6.306   7.272   2.033  0.4341 -0.9706 -0.1076
 8200TIP3    H224523   6.360   7.359   2.144 -0.6608 -1.1712  0.6068
 8201TIP3   OH224524   7.603   2.492   1.408  0.2852  0.2505  0.2356
 8201TIP3    H124525   7.643   2.573   1.437  0.2368  0.4340 -0.2087
 8201TIP3    H224526   7.513   2.515   1.386  0.7611  0.4824 -1.6597
 8202TIP3   OH224527   0.586   6.868   6.135  0.0221  0.0312  0.1814
 8202TIP3    H124528   0.667   6.907   6.168  0.0250  0.4252 -0.2785
 8202TIP3    H224529   0.524   6.876   6.207 -0.3101  1.9221 -0.2577
 8203TIP3   OH224530   2.705   1.162   3.195  0.3920  0.0789  0.0147
 8203TIP3    H124531   2.623   1.172   3.146  0.5560  1.0668 -0.0841
 8203TIP3    H224532   2.714   1.068   3.209 -1.3627  0.0136  1.0400
 8204TIP3   OH224533   2.839   6.805   4.027 -0.1011  0.1509  0.1844
 8204TIP3    H124534   2.841   6.797   3.932 -1.7551  0.1577  0.1133
 8204TIP3    H224535   2.847   6.899   4.043  3.0993 -0.0305  0.2450
 8205TIP3   OH224536   0.792   7.919   4.265  0.2597  0.0927 -0.2057
 8205TIP3    H124537   0.724   7.955   4.321 -0.3796 -0.6155 -0.5155
 8205TIP3    H224538   0.778   7.961   4.180  1.6877  1.7333  0.3124
 8206TIP3   OH224539   2.201   5.845   0.055 -0.1062 -0.0494 -0.4727
 8206TIP3    H124540   2.138   5.860   0.125  0.7305  0.5590  0.1568
 8206TIP3    H224541   2.280   5.891   0.082  0.6804 -0.9383 -1.1703
 8207TIP3   OH224542   4.407   6.838   0.342 -0.4273  0.5432 -0.6229
 8207TIP3    H124543   4.459   6.758   0.350 -1.0318  0.2087  0.1029
 8207TIP3    H224544   4.319   6.807   0.321 -0.5879  1.0417 -0.6930
 8208TIP3   OH224545   5.858   6.684   6.288 -0.0580  0.3635  0.2190
 8208TIP3    H124546   5.870   6.604   6.338 -0.2422 -1.7926 -2.9240
 8208TIP3    H224547   5.942   6.729   6.295  0.1894 -0.2712  1.7019
 8209TIP3   OH224548   3.526   3.409   4.134  0.4214 -0.2580  0.5467
 8209TIP3    H124549   3.548   3.362   4.054  0.9270  0.7464  0.0857
 8209TIP3    H224550   3.587   3.483   4.137 -1.8663  1.7746  0.0132
 8210TIP3   OH224551   4.138   7.532   3.188  0.5612 -0.2579  0.0204
 8210TIP3    H124552   4.097   7.484   3.116  2.0123 -0.1244 -0.9356
 8210TIP3    H224553   4.092   7.616   3.190  1.1321  0.1193 -1.4090
 8211TIP3   OH224554   0.742   3.262   4.896 -0.5469 -0.0716 -0.7902
 8211TIP3    H124555   0.780   3.250   4.983 -0.2978 -0.3526 -0.9358
 8211TIP3    H224556   0.811   3.304   4.845 -0.3444 -0.7855 -1.1157
 8212TIP3   OH224557   0.881   7.056   2.040  0.8282 -0.0288 -0.7054
 8212TIP3    H124558   0.845   7.107   2.113  0.5658  0.2719 -1.0402
 8212TIP3    H224559   0.825   6.979   2.035  1.5439 -0.6307  0.1395
 8213TIP3   OH224560   4.902   8.038   5.997  0.3758 -0.2614 -0.5394
 8213TIP3    H124561   4.922   8.012   6.087  0.9111  1.6656 -0.0607
 8213TIP3    H224562   4.807   8.042   5.995  0.3448 -0.6057 -0.1611
 8214TIP3   OH224563   8.511   4.501   3.125 -0.0385  0.4078  0.7644
 8214TIP3    H124564   8.444   4.451   3.171  0.6636  0.0701  1.4495
 8214TIP3    H224565   8.565   4.539   3.195 -1.0713  2.8938  0.3019
 8215TIP3   OH224566   2.670   2.653   3.877  0.7119  0.0235 -0.3331
 8215TIP3    H124567   2.686   2.634   3.969 -0.5996 -0.1653 -0.1159
 8215TIP3    H224568   2.757   2.663   3.838  1.2761  0.6498  1.0333
 8216TIP3   OH224569   8.155   8.106   4.403 -0.2270 -0.5183 -0.2356
 8216TIP3    H124570   8.234   8.142   4.443 -0.6289  0.8485 -0.6258
 8216TIP3    H224571   8.161   8.012   4.419  0.5043 -0.2257  1.4638
 8217TIP3   OH224572   5.400   1.914   0.639  0.0615  0.0798 -0.2080
 8217TIP3    H124573   5.348   1.872   0.708  0.8235  0.8171  0.8458
 8217TIP3    H224574   5.421   2.001   0.674  0.2070  0.5999 -1.5105
 8218TIP3   OH224575   8.516   8.018   4.766 -0.1615  0.4695  0.2946
 8218TIP3    H124576   8.565   7.954   4.817 -1.5420 -0.7960  0.0948
 8218TIP3    H224577   8.581   8.054   4.705  0.5863 -0.9322  0.2241
 8219TIP3   OH224578   3.259   6.514   3.569 -0.8466 -0.4852  0.0103
 8219TIP3    H124579   3.197   6.460   3.520 -2.3995 -0.0599  1.4386
 8219TIP3    H224580   3.324   6.453   3.602  0.3578 -0.7793 -2.6357
 8220TIP3   OH224581   2.465   7.332   2.700 -0.1348  0.0509 -0.3341
 8220TIP3    H124582   2.510   7.370   2.625  1.5546  0.8737  1.0394
 8220TIP3    H224583   2.416   7.404   2.738 -0.7610 -0.2979 -0.4680
 8221TIP3   OH224584   7.102   7.586   5.324  0.2940  0.0729 -0.8124
 8221TIP3    H124585   7.055   7.668   5.337 -0.2493 -0.0813 -1.6935
 8221TIP3    H224586   7.102   7.573   5.229 -1.0327 -1.7379 -0.6207
 8222TIP3   OH224587   0.047   2.696   5.375  0.5690  0.0463 -0.1589
 8222TIP3    H124588   0.018   2.780   5.411  0.0790 -0.3475  0.3890
 8222TIP3    H224589   0.089   2.652   5.449 -0.0549 -0.5892 -0.1676
 8223TIP3   OH224590   7.269   3.755   0.095 -0.2822 -0.0377 -0.6873
 8223TIP3    H124591   7.281   3.841   0.135 -3.3029  0.2358 -0.1352
 8223TIP3    H224592   7.327   3.697   0.143  1.0728  1.4955 -0.4004
 8224TIP3   OH224593   1.957   6.390   4.766 -0.2872  0.1994  0.4374
 8224TIP3    H124594   1.868   6.362   4.745 -0.5143  1.8443 -0.9714
 8224TIP3    H224595   1.947   6.443   4.845 -0.8784  1.8696 -0.7015
 8225TIP3   OH224596   6.980   0.871   1.125 -0.4785 -0.4442 -0.1312
 8225TIP3    H124597   7.024   0.949   1.159 -0.9530 -0.0038 -0.5164
 8225TIP3    H224598   7.051   0.810   1.104 -0.1188 -0.2274  0.4307
 8226TIP3   OH224599   4.412   5.340   0.652  0.2405 -0.1951  0.2921
 8226TIP3    H124600   4.471   5.327   0.726  1.4550 -2.1959 -0.9180
 8226TIP3    H224601   4.424   5.432   0.627  0.7067  0.1840  1.8000
 8227TIP3   OH224602   2.569   0.180   5.317  0.0250  0.1180  0.2536
 8227TIP3    H124603   2.626   0.103   5.318  0.9521  0.7562  2.2111
 8227TIP3    H224604   2.482   0.146   5.337 -0.4765 -0.9175 -3.0600
 8228TIP3   OH224605   7.018   1.665   0.079 -0.1467  0.2933 -0.1411
 8228TIP3    H124606   7.104   1.670   0.121 -1.2752  1.2549  2.2757
 8228TIP3    H224607   6.968   1.606   0.135 -1.6169  1.3086 -0.3341
 8229TIP3   OH224608   6.603   6.082   0.900  0.3561 -0.1690 -0.3149
 8229TIP3    H124609   6.663   6.156   0.887  0.7265 -0.2622  0.7845
 8229TIP3    H224610   6.516   6.122   0.900  0.2119 -0.1992 -3.3992
 8230TIP3   OH224611   3.602   5.079   3.162 -0.6938  0.0510 -0.1706
 8230TIP3    H124612   3.575   5.168   3.186  0.0366 -0.2295  1.8587
 8230TIP3    H224613   3.695   5.075   3.185 -0.9587 -1.5432  0.8201
 8231TIP3   OH224614   8.414   7.430   2.954  0.6116 -0.0462  0.0764
 8231TIP3    H124615   8.502   7.398   2.932  0.6460  0.5488 -0.7142
 8231TIP3    H224616   8.358   7.394   2.885  0.2560 -0.3220  0.5071
 8232TIP3   OH224617   3.226   2.593   6.566  0.2738  0.0242 -0.4648
 8232TIP3    H124618   3.281   2.551   6.501  0.2389 -1.9468  0.6891
 8232TIP3    H224619   3.245   2.547   6.648  0.3466  2.4122  0.9713
 8233TIP3   OH224620   1.034   1.792   3.320  0.5168  0.0170 -0.3292
 8233TIP3    H124621   0.968   1.828   3.379  0.2378  1.6617 -1.5851
 8233TIP3    H224622   1.115   1.796   3.370 -0.1392 -1.1942  0.9044
 8234TIP3   OH224623   8.029   2.161   4.463 -0.0080 -0.4202  0.7799
 8234TIP3    H124624   7.946   2.131   4.501  0.1093 -1.3075  0.3535
 8234TIP3    H224625   8.084   2.181   4.538 -0.9892  1.3394  1.0943
 8235TIP3   OH224626   1.469   3.926   5.762 -0.4499 -0.1968  0.1532
 8235TIP3    H124627   1.473   3.965   5.849 -1.1693 -1.2405  0.6870
 8235TIP3    H224628   1.377   3.901   5.751 -0.6178  0.9782 -1.4052
 8236TIP3   OH224629   0.531   3.583   6.334  0.1222 -0.4029 -0.2471
 8236TIP3    H124630   0.471   3.627   6.393  1.1228  0.7769 -0.0541
 8236TIP3    H224631   0.486   3.503   6.308 -1.6076  0.5407 -0.2866
 8237TIP3   OH224632   7.636   2.487   2.517 -0.3545  0.3837 -0.1716
 8237TIP3    H124633   7.700   2.422   2.488 -3.2806 -2.3396 -1.0793
 8237TIP3    H224634   7.644   2.487   2.613  1.0827  0.2595 -0.2700
 8238TIP3   OH224635   3.815   7.308   4.513  0.1297  0.4701  0.2976
 8238TIP3    H124636   3.847   7.298   4.423  0.0701  1.1728  0.1895
 8238TIP3    H224637   3.807   7.402   4.525 -0.6746  0.3535  0.7553
 8239TIP3   OH224638   3.415   1.400   4.017 -0.0847 -0.8128  0.0525
 8239TIP3    H124639   3.453   1.398   3.929  0.8068 -0.1563  0.4138
 8239TIP3    H224640   3.490   1.400   4.076 -0.5330  2.2010  0.7611
 8240TIP3   OH224641   7.111   6.536   6.474  0.2284  0.8694  0.2665
 8240TIP3    H124642   7.052   6.598   6.517 -0.8891  0.2730 -0.3581
 8240TIP3    H224643   7.080   6.450   6.502  0.0424  0.5058 -0.9984
 8241TIP3   OH224644   0.799   3.156   2.463  0.0770 -0.0063  0.2279
 8241TIP3    H124645   0.710   3.142   2.431  0.1340  0.9199 -0.3651
 8241TIP3    H224646   0.787   3.208   2.543  0.0246 -1.0132  0.8963
 8242TIP3   OH224647   5.565   3.652   3.380 -0.2667  0.3978 -0.0174
 8242TIP3    H124648   5.587   3.612   3.464  2.2880 -1.4647 -1.4425
 8242TIP3    H224649   5.478   3.616   3.359 -0.0929 -0.6587  0.9657
 8243TIP3   OH224650   7.192   7.037   0.008  0.2557 -0.1007 -0.1519
 8243TIP3    H124651   7.197   6.979   0.084  1.0907  0.8214  0.5162
 8243TIP3    H224652   7.136   6.990  -0.054 -2.5520  0.2314  1.9741
 8244TIP3   OH224653   5.270   5.469   7.035 -0.3622 -0.2112 -0.4766
 8244TIP3    H124654   5.314   5.548   7.003  0.9658 -0.5395  0.4553
 8244TIP3    H224655   5.297   5.401   6.973  1.5114 -0.6674  0.7613
 8245TIP3   OH224656   0.076   3.474   5.844  0.4618  0.0524 -0.0486
 8245TIP3    H124657   0.118   3.506   5.764 -0.5618 -0.6223 -0.8865
 8245TIP3    H224658   0.056   3.554   5.894 -1.0995  0.7147 -1.6140
 8246TIP3   OH224659   1.858   2.077   2.919  0.3757 -0.2136 -0.4017
 8246TIP3    H124660   1.942   2.044   2.885  0.1984  0.4325 -1.5245
 8246TIP3    H224661   1.793   2.014   2.886  0.3787 -0.5340  0.1954
 8247TIP3   OH224662   0.044   0.488   6.833 -0.0633 -0.1589  0.1995
 8247TIP3    H124663   0.092   0.409   6.859 -0.2547 -0.3144  0.0819
 8247TIP3    H224664  -0.039   0.481   6.881  0.6775  0.9358  1.7271
 8248TIP3   OH224665   0.478   2.696   1.672  0.1880 -0.2519  0.1228
 8248TIP3    H124666   0.417   2.762   1.705  1.0627  0.1116  1.0765
 8248TIP3    H224667   0.538   2.745   1.616 -0.2972 -0.5819 -0.6952
 8249TIP3   OH224668   2.947   7.201   4.753 -0.4366  0.5690 -0.3483
 8249TIP3    H124669   2.860   7.226   4.723 -1.4694 -0.9520  1.1712
 8249TIP3    H224670   2.961   7.113   4.716  0.6842  0.9879 -0.9770
 8250TIP3   OH224671   6.031   1.471   0.104 -0.2389  0.5117 -0.2259
 8250TIP3    H124672   5.956   1.516   0.066 -0.4889 -0.1228 -0.5019
 8250TIP3    H224673   6.088   1.451   0.029 -1.3386 -1.8977 -0.5200
 8251TIP3   OH224674   2.039   3.674   4.428  0.1573  0.9536  0.1147
 8251TIP3    H124675   2.018   3.587   4.462 -2.0889  1.9718  1.5861
 8251TIP3    H224676   2.001   3.675   4.340  2.4959 -0.3640 -0.9817
 8252TIP3   OH224677   4.930   6.027   7.056  0.2525 -1.0246  0.0173
 8252TIP3    H124678   4.990   6.102   7.065 -0.8139 -0.2507  0.9001
 8252TIP3    H224679   4.908   6.026   6.962  1.2112 -0.9891 -0.2187
 8253TIP3   OH224680   4.917   6.671   0.327  0.2136  0.3102  0.0149
 8253TIP3    H124681   4.890   6.750   0.280 -0.0756 -0.0336 -0.4133
 8253TIP3    H224682   4.837   6.619   0.334  0.2583  0.3390  0.8728
 8254TIP3   OH224683   2.438   1.350   4.809  0.4405 -0.3048 -0.5430
 8254TIP3    H124684   2.505   1.319   4.748  0.9103  0.7557 -0.5937
 8254TIP3    H224685   2.487   1.377   4.887  0.0542  0.2313 -0.4771
 8255TIP3   OH224686   2.667   0.647   4.759  0.0541 -0.2624 -0.0241
 8255TIP3    H124687   2.688   0.673   4.670  0.1380 -0.1695  0.0214
 8255TIP3    H224688   2.590   0.700   4.782 -0.8391 -1.3027 -0.5269
 8256TIP3   OH224689   1.369   7.583   5.627 -0.1547  0.1629  0.2942
 8256TIP3    H124690   1.428   7.574   5.702  1.1219  1.1555 -0.5668
 8256TIP3    H224691   1.281   7.580   5.667  0.3794 -2.3332  1.4780
 8257TIP3   OH224692   3.655   2.428   3.830 -0.4178  0.3496  0.1020
 8257TIP3    H124693   3.738   2.392   3.799 -0.2182  0.3987  0.5688
 8257TIP3    H224694   3.670   2.446   3.923  0.1472  3.4207 -0.4690
 8258TIP3   OH224695   1.909   3.532   6.973 -0.0939 -0.0364  0.6272
 8258TIP3    H124696   1.871   3.462   7.027 -0.9301 -1.0461 -1.1989
 8258TIP3    H224697   2.004   3.522   6.986 -0.2403 -0.8516  1.1702
 8259TIP3   OH224698   8.173   3.626   4.651 -0.1551  0.2750  0.4679
 8259TIP3    H124699   8.084   3.637   4.617 -1.1225 -1.8963  2.0701
 8259TIP3    H224700   8.161   3.588   4.738  2.3608 -0.0692  0.7377
 8260TIP3   OH224701   7.175   7.833   4.732 -0.0069 -0.1896  0.5918
 8260TIP3    H124702   7.181   7.738   4.723  0.7454 -0.0431 -0.7894
 8260TIP3    H224703   7.194   7.867   4.644 -0.1473  1.2425  1.0824
 8261TIP3   OH224704   5.224   0.443   5.889  0.3766 -0.2493  0.1824
 8261TIP3    H124705   5.261   0.407   5.808  0.9592 -0.0977  0.3769
 8261TIP3    H224706   5.131   0.454   5.869  0.5519  0.0090 -0.5570
 8262TIP3   OH224707   3.496   7.053   2.041  0.0756 -0.0219 -0.3363
 8262TIP3    H124708   3.536   7.038   2.126 -0.2823  0.6148 -0.0437
 8262TIP3    H224709   3.409   7.014   2.047  0.1798 -0.2922 -0.5385
 8263TIP3   OH224710   2.155   5.637   5.232  0.6664  0.5677  0.0619
 8263TIP3    H124711   2.158   5.648   5.137 -1.1169  2.9585  0.2080
 8263TIP3    H224712   2.228   5.688   5.265  1.4737 -0.5120  0.0098
 8264TIP3   OH224713   7.387   7.885   0.178 -0.1537 -0.3243  0.3516
 8264TIP3    H124714   7.351   7.875   0.090  1.8578 -1.4477 -0.4162
 8264TIP3    H224715   7.341   7.820   0.230 -1.4579  0.4411  0.2032
 8265TIP3   OH224716   5.868   5.833   0.224  0.2714  0.0783  0.2194
 8265TIP3    H124717   5.934   5.871   0.166 -1.1575  0.4498 -1.2357
 8265TIP3    H224718   5.824   5.768   0.170 -0.2351 -0.5142  1.3273
 8266TIP3   OH224719   3.521   3.309   3.361 -0.6011 -0.3258 -0.7803
 8266TIP3    H124720   3.603   3.294   3.315  0.1061  1.5374 -0.1889
 8266TIP3    H224721   3.464   3.349   3.296 -1.1097 -1.6658 -1.2057
 8267TIP3   OH224722   4.632   8.089   0.061 -0.3911  0.1257  0.5754
 8267TIP3    H124723   4.567   8.075  -0.008  2.0011 -0.8134 -1.6492
 8267TIP3    H224724   4.639   8.184   0.069  0.4611  0.3161 -1.7646
 8268TIP3   OH224725   6.502   6.879   6.768 -0.0853  0.0880  0.0861
 8268TIP3    H124726   6.438   6.860   6.699 -1.3093  0.1910  1.1431
 8268TIP3    H224727   6.507   6.975   6.770  1.1716  0.0637 -0.9098
 8269TIP3   OH224728   5.270   6.129   3.374 -0.3229 -0.0755 -0.1670
 8269TIP3    H124729   5.328   6.065   3.417  0.0618  0.6461  0.4194
 8269TIP3    H224730   5.317   6.154   3.295 -0.2729 -0.1992 -0.1775
 8270TIP3   OH224731   1.142   1.107   2.365  0.4417 -0.6335 -0.3897
 8270TIP3    H124732   1.156   1.193   2.325  0.1509 -0.7009 -0.6412
 8270TIP3    H224733   1.092   1.058   2.300 -1.7204 -0.1331  0.7583
 8271TIP3   OH224734   2.792   3.598   1.439 -0.4277 -0.3465  0.3207
 8271TIP3    H124735   2.733   3.576   1.512  0.2829 -1.9479  0.4612
 8271TIP3    H224736   2.765   3.686   1.412 -0.6803  0.3112  2.5381
 8272TIP3   OH224737   7.892   6.728   3.929 -0.4934  0.1909 -0.1793
 8272TIP3    H124738   7.905   6.691   4.017  0.4457 -1.0643 -0.8286
 8272TIP3    H224739   7.815   6.682   3.895  0.0197 -0.3898 -0.5670
 8273TIP3   OH224740   8.086   6.988   2.564 -0.1400 -0.2480  0.3594
 8273TIP3    H124741   8.027   7.039   2.508  0.8111 -0.1382 -0.5782
 8273TIP3    H224742   8.056   7.006   2.653 -1.4855 -0.1603 -0.0799
 8274TIP3   OH224743   7.383   3.704   1.832  0.4542 -0.8301 -0.2481
 8274TIP3    H124744   7.291   3.681   1.819 -0.0754  1.0108 -0.0419
 8274TIP3    H224745   7.431   3.642   1.777 -1.0381 -0.4134 -2.1064
 8275TIP3   OH224746   6.068   5.762   2.308 -0.5628  0.5953  0.1748
 8275TIP3    H124747   6.131   5.818   2.263 -0.4685 -1.0615 -1.8656
 8275TIP3    H224748   6.119   5.720   2.377  0.3602  0.0076 -0.8339
 8276TIP3   OH224749   4.856   4.038   4.157  0.3273  0.2984  0.2264
 8276TIP3    H124750   4.926   4.019   4.220  1.9826 -1.6873 -2.0218
 8276TIP3    H224751   4.868   4.130   4.134  1.7653  0.1785  0.4254
 8277TIP3   OH224752   0.777   5.497   0.581 -0.1385 -0.0313 -0.1253
 8277TIP3    H124753   0.848   5.543   0.536 -0.0251 -0.8645 -0.8181
 8277TIP3    H224754   0.713   5.479   0.513 -1.0485  0.7412  0.5030
 8278TIP3   OH224755   8.279   7.733   4.670  0.1074 -0.0126  0.6689
 8278TIP3    H124756   8.353   7.765   4.619 -0.6184  3.7007  1.5827
 8278TIP3    H224757   8.299   7.758   4.760 -2.5565  2.1068  0.8207
 8279TIP3   OH224758   6.329   5.249   1.551 -0.0434  0.0536 -0.2598
 8279TIP3    H124759   6.405   5.286   1.596  1.4521 -1.2308 -1.6216
 8279TIP3    H224760   6.255   5.270   1.608  1.2733  1.6060  0.9657
 8280TIP3   OH224761   2.883   5.104   3.188  0.4618 -0.1991 -0.3444
 8280TIP3    H124762   2.967   5.091   3.231 -0.4938 -0.2986  1.6250
 8280TIP3    H224763   2.842   5.018   3.186 -0.9257  0.3338  1.7848
 8281TIP3   OH224764   2.444   7.394   3.624  0.3963  0.3965  0.2511
 8281TIP3    H124765   2.525   7.419   3.668  1.3112 -0.0572 -1.1131
 8281TIP3    H224766   2.468   7.318   3.571 -0.9952  0.0925  0.0211
 8282TIP3   OH224767   5.790   7.808   0.600  0.0496  0.1979 -0.5376
 8282TIP3    H124768   5.823   7.864   0.531  0.4744 -0.6853 -1.0714
 8282TIP3    H224769   5.745   7.737   0.554 -1.9503  0.9510  0.1515
 8283TIP3   OH224770   2.242   1.241   5.681  0.0504 -0.5566  0.1220
 8283TIP3    H124771   2.264   1.240   5.588  0.4197 -1.0480  0.2058
 8283TIP3    H224772   2.149   1.216   5.684  0.0984 -0.7663 -0.1019
 8284TIP3   OH224773   4.965   1.569   3.707 -0.3449 -0.0199  0.1155
 8284TIP3    H124774   4.945   1.490   3.657 -2.4638  0.4361  0.1348
 8284TIP3    H224775   5.053   1.554   3.741  0.6354 -0.9322 -2.5681
 8285TIP3   OH224776   6.283   1.735   6.327 -0.2287  0.2575 -0.1992
 8285TIP3    H124777   6.332   1.817   6.321  0.1528  0.0674  0.2179
 8285TIP3    H224778   6.205   1.749   6.273  0.5966  0.3399 -1.4158
 8286TIP3   OH224779   6.646   2.607   6.752 -0.2385  0.6104 -0.3643
 8286TIP3    H124780   6.700   2.631   6.827 -0.8426 -0.3827  0.4117
 8286TIP3    H224781   6.709   2.587   6.682  0.3224  1.7693 -0.2185
 8287TIP3   OH224782   0.356   0.328   2.905  0.4861  0.5825 -0.0579
 8287TIP3    H124783   0.320   0.404   2.951 -0.6301 -0.5557  1.0330
 8287TIP3    H224784   0.310   0.327   2.821 -0.2150  0.5840  0.3152
 8288TIP3   OH224785   2.820   4.587   6.840 -0.1087 -0.1506 -0.5642
 8288TIP3    H124786   2.774   4.627   6.913 -0.2618  0.2623 -0.8840
 8288TIP3    H224787   2.751   4.552   6.784 -0.0322  0.2973 -0.9461
 8289TIP3   OH224788   0.423   0.696   0.279 -0.2138 -0.3449 -0.4873
 8289TIP3    H124789   0.513   0.718   0.254 -0.0153 -0.7142 -0.0972
 8289TIP3    H224790   0.401   0.621   0.224 -0.0508 -0.6690 -0.1108
 8290TIP3   OH224791   5.747   1.507   4.362 -0.0910 -0.8127 -0.3285
 8290TIP3    H124792   5.834   1.513   4.323 -0.1914  2.5602 -0.3066
 8290TIP3    H224793   5.756   1.552   4.446 -1.5486 -1.7072  0.3401
 8291TIP3   OH224794   0.713   1.356   1.858  0.1338 -0.1719  0.3735
 8291TIP3    H124795   0.746   1.443   1.838  0.7213 -0.4191  0.2432
 8291TIP3    H224796   0.669   1.365   1.943  0.3598  0.2036  0.4511
 8292TIP3   OH224797   7.411   4.643   7.052  0.6575  0.0627 -0.0250
 8292TIP3    H124798   7.407   4.737   7.070 -1.6788 -0.0317  0.2594
 8292TIP3    H224799   7.353   4.603   7.117 -1.1725 -1.1800 -2.2633
 8293TIP3   OH224800   1.674   0.348   5.872 -0.1003 -0.2593 -0.1028
 8293TIP3    H124801   1.748   0.389   5.826 -0.1080  0.6417  0.6651
 8293TIP3    H224802   1.667   0.397   5.954 -1.5333 -0.3571 -0.1560
 8294TIP3   OH224803   7.997   6.156   3.504 -0.2073 -0.7489 -0.3525
 8294TIP3    H124804   8.017   6.166   3.411 -0.4574 -1.1206 -0.4477
 8294TIP3    H224805   7.915   6.204   3.517  0.1798 -0.1164 -0.1776
 8295TIP3   OH224806   6.107   0.194   3.269  0.0110 -0.1105  0.3075
 8295TIP3    H124807   6.086   0.277   3.227 -0.7319 -0.2805  0.3236
 8295TIP3    H224808   6.062   0.128   3.217 -0.1564 -0.4150  0.8256
 8296TIP3   OH224809   3.712   3.234   2.227 -0.4177  0.6980  0.0047
 8296TIP3    H124810   3.745   3.258   2.140 -0.9874 -1.2481 -0.7935
 8296TIP3    H224811   3.618   3.226   2.216 -0.2802 -2.0702  0.0796
 8297TIP3   OH224812   8.619   6.015   5.284 -0.7141  0.1932  0.1719
 8297TIP3    H124813   8.679   6.089   5.274  0.6611 -0.7412  1.1435
 8297TIP3    H224814   8.564   6.040   5.358 -0.6838  0.5093  0.0918
 8298TIP3   OH224815   2.351   6.483   1.215 -0.2053 -0.1280 -0.2264
 8298TIP3    H124816   2.303   6.491   1.133  0.9823 -0.5248 -0.9858
 8298TIP3    H224817   2.433   6.441   1.191  1.0621  1.5975  0.8198
 8299TIP3   OH224818   6.807   4.438   2.784 -0.9653  0.5511  0.3645
 8299TIP3    H124819   6.790   4.369   2.849  0.1088 -0.3902 -0.3304
 8299TIP3    H224820   6.808   4.518   2.836  0.5252 -0.2370  1.6711
 8300TIP3   OH224821   8.148   6.489   5.299  0.3280 -0.1802  0.2750
 8300TIP3    H124822   8.197   6.562   5.336  0.1473  0.6550 -1.0723
 8300TIP3    H224823   8.063   6.527   5.275  0.3857 -0.7262 -0.8421
 8301TIP3   OH224824   8.549   5.871   3.674 -0.6182  0.0618 -0.4895
 8301TIP3    H124825   8.524   5.822   3.752 -0.0021 -0.7313 -0.7774
 8301TIP3    H224826   8.627   5.919   3.699  0.1328 -0.9323 -0.8820
 8302TIP3   OH224827   3.701   5.982   3.962 -0.0643  0.5046 -0.2017
 8302TIP3    H124828   3.618   5.957   4.001 -1.1338  2.9128 -0.7290
 8302TIP3    H224829   3.696   5.950   3.872 -0.9501  1.5941 -0.5628
 8303TIP3   OH224830   2.963   4.995   4.701 -0.1914  0.6336  0.3469
 8303TIP3    H124831   3.012   4.913   4.701 -0.5599  0.3981 -0.8240
 8303TIP3    H224832   2.918   4.996   4.786 -1.2147 -1.0118 -0.1415
 8304TIP3   OH224833   0.418   7.500   6.798 -0.1277 -0.4171  0.4010
 8304TIP3    H124834   0.452   7.419   6.759  1.2195 -0.0580  0.7875
 8304TIP3    H224835   0.432   7.489   6.892 -0.4615  0.0359  0.5089
 8305TIP3   OH224836   1.157   5.663   2.885  0.8240  0.0946 -0.3296
 8305TIP3    H124837   1.237   5.712   2.867  0.8190 -0.1176 -0.9226
 8305TIP3    H224838   1.174   5.575   2.852  0.6516 -0.1771  0.2909
 8306TIP3   OH224839   7.899   2.032   1.594  0.1641  0.2560  0.0985
 8306TIP3    H124840   7.842   2.071   1.660  0.3712 -1.2762  1.2713
 8306TIP3    H224841   7.969   1.990   1.645 -0.8328 -2.8857 -0.8520
 8307TIP3   OH224842   4.934   4.031   2.850 -0.7553 -0.2536 -0.3828
 8307TIP3    H124843   5.002   4.083   2.893 -1.4566 -0.7363  1.3687
 8307TIP3    H224844   4.928   4.069   2.762  0.6497  0.8320 -0.0552
 8308TIP3   OH224845   1.366   2.075   1.208 -0.5491 -0.1245 -0.0111
 8308TIP3    H124846   1.432   2.035   1.152 -0.0827  0.3775  0.1660
 8308TIP3    H224847   1.375   2.030   1.292 -1.1857 -0.8123 -0.2958
 8309TIP3   OH224848   7.226   1.072   0.037  0.1484 -0.2604 -0.1077
 8309TIP3    H124849   7.182   1.154   0.015 -0.1270 -0.4338 -0.2120
 8309TIP3    H224850   7.319   1.092   0.030  0.0880  0.0990  0.0725
 8310TIP3   OH224851   6.852   4.198   3.843  0.7927  0.1608 -0.5560
 8310TIP3    H124852   6.767   4.180   3.802  1.1665 -0.1921 -1.1883
 8310TIP3    H224853   6.830   4.243   3.924 -0.0066 -0.0076 -0.6700
 8311TIP3   OH224854   2.516   3.120   6.227  0.5120  0.3822 -0.0310
 8311TIP3    H124855   2.564   3.124   6.310  1.1338 -0.4300 -0.3402
 8311TIP3    H224856   2.561   3.183   6.171  0.5679  0.3779  0.0083
 8312TIP3   OH224857   0.512   3.380   3.083  0.0858 -0.1704 -0.2948
 8312TIP3    H124858   0.443   3.330   3.040 -0.9477  0.0148  1.0908
 8312TIP3    H224859   0.509   3.467   3.041  0.1708 -0.4632 -0.9212
 8313TIP3   OH224860   4.064   5.158   5.758  0.2565  0.5042 -0.5994
 8313TIP3    H124861   4.019   5.224   5.812  1.6805  1.5889 -0.6725
 8313TIP3    H224862   4.155   5.161   5.787  0.2300 -2.1037 -0.0036
 8314TIP3   OH224863   8.180   1.695   4.960 -0.8825 -0.0397  0.2430
 8314TIP3    H124864   8.164   1.712   5.052 -1.4127 -0.1569  0.1820
 8314TIP3    H224865   8.274   1.679   4.953 -1.0172 -1.3280  0.9854
 8315TIP3   OH224866   1.066   6.940   4.210 -0.2029 -0.2781 -0.4029
 8315TIP3    H124867   1.151   6.979   4.230 -0.0670 -0.9039  0.2716
 8315TIP3    H224868   1.033   6.990   4.135  0.0495  0.9853  0.3143
 8316TIP3   OH224869   7.498   2.391   3.042 -0.0606 -0.6091  0.2939
 8316TIP3    H124870   7.553   2.444   2.984  0.8945 -1.1059  0.7250
 8316TIP3    H224871   7.418   2.443   3.054  0.8792  0.7735  0.7766
 8317TIP3   OH224872   3.423   2.371   3.418  0.1780 -0.3419 -0.9259
 8317TIP3    H124873   3.331   2.345   3.413  0.1002 -0.1546 -0.4393
 8317TIP3    H224874   3.470   2.299   3.375  0.0074 -1.5610  0.8163
 8318TIP3   OH224875   4.742   2.260   1.969 -0.1342  0.0918  0.3548
 8318TIP3    H124876   4.704   2.216   1.893 -1.5484  0.9857  0.5207
 8318TIP3    H224877   4.669   2.304   2.011  1.0183  1.5436  0.9286
 8319TIP3   OH224878   6.080   5.194   4.288  0.1653 -0.1179  0.0901
 8319TIP3    H124879   6.040   5.277   4.313  0.8090  0.6042 -1.2007
 8319TIP3    H224880   6.130   5.167   4.365 -1.6813 -0.3812  1.2621
 8320TIP3   OH224881   1.131   3.100   1.448 -0.5509  1.1213  0.1460
 8320TIP3    H124882   1.186   3.025   1.468  1.2141  2.3725  0.2769
 8320TIP3    H224883   1.192   3.174   1.443 -2.1172  2.4394 -0.6515
 8321TIP3   OH224884   7.570   3.013   0.627 -0.1445  0.6343 -0.0615
 8321TIP3    H124885   7.624   2.989   0.552  0.5839  1.2161  0.2673
 8321TIP3    H224886   7.525   2.931   0.651 -0.7542  0.5507 -1.4037
 8322TIP3   OH224887   6.882   6.081   2.971  0.1489 -0.7875 -0.1827
 8322TIP3    H124888   6.822   6.055   2.901  0.7226  1.2673 -1.5327
 8322TIP3    H224889   6.945   6.010   2.977  0.3235 -0.8240 -2.0559
 8323TIP3   OH224890   0.733   3.342   0.556 -0.1182 -0.5631 -0.4860
 8323TIP3    H124891   0.760   3.252   0.576 -1.5231 -1.0603 -0.7346
 8323TIP3    H224892   0.681   3.369   0.631  0.5023  0.1543 -0.2977
 8324TIP3   OH224893   1.494   5.669   0.419  0.2545 -0.5058 -0.1569
 8324TIP3    H124894   1.547   5.688   0.496 -0.6530  2.3715 -0.1254
 8324TIP3    H224895   1.405   5.664   0.451 -0.2878  1.8837 -1.0329
 8325TIP3   OH224896   8.502   2.684   4.212 -0.4202  0.0063  0.2064
 8325TIP3    H124897   8.508   2.639   4.296  2.0740  0.0344  0.1143
 8325TIP3    H224898   8.565   2.639   4.156  0.4035  2.0893 -0.6251
 8326TIP3   OH224899   7.411   6.923   4.694 -0.0303  0.6883  0.0389
 8326TIP3    H124900   7.432   6.843   4.742 -2.0430 -0.0804 -0.2709
 8326TIP3    H224901   7.374   6.982   4.760 -1.2729  0.2429 -0.2381
 8327TIP3   OH224902   2.741   3.209   6.006 -0.1367 -0.7300 -0.0940
 8327TIP3    H124903   2.815   3.164   6.047 -0.1095 -1.5478 -0.9933
 8327TIP3    H224904   2.770   3.300   5.997  0.6318 -0.9710 -0.1178
 8328TIP3   OH224905   7.196   0.258   0.012 -1.0022  0.2730 -0.0280
 8328TIP3    H124906   7.232   0.295   0.093 -0.5136  1.2161 -0.6602
 8328TIP3    H224907   7.109   0.296   0.006 -0.5340  1.2848 -0.6299
 8329TIP3   OH224908   8.081   6.237   6.243 -0.1671  0.0504  0.0679
 8329TIP3    H124909   8.000   6.206   6.284  0.4760 -0.2775  1.1163
 8329TIP3    H224910   8.102   6.318   6.289 -0.3883  0.6550 -0.8505
 8330TIP3   OH224911   4.032   0.125   2.427  0.6177  0.4214  0.5103
 8330TIP3    H124912   4.021   0.178   2.506 -0.1503  0.5432  0.3253
 8330TIP3    H224913   3.956   0.068   2.426  0.5702  0.4946 -0.2020
 8331TIP3   OH224914   2.027   2.368   1.935 -0.2069  0.4791  0.2772
 8331TIP3    H124915   1.953   2.390   1.993 -0.1413 -0.0981  0.5827
 8331TIP3    H224916   1.989   2.364   1.848 -0.7171 -0.6758  0.5414
 8332TIP3   OH224917   1.128   1.324   3.090 -0.0136 -0.2060  0.0071
 8332TIP3    H124918   1.039   1.350   3.115  0.1224  0.0848  0.1823
 8332TIP3    H224919   1.170   1.405   3.062  0.4814 -0.1935  0.7699
 8333TIP3   OH224920   2.587   0.928   7.010 -0.1581 -0.0127  0.4493
 8333TIP3    H124921   2.499   0.920   7.047  0.0313 -1.2763  0.6756
 8333TIP3    H224922   2.628   0.843   7.027  1.7115  1.0767  1.8607
 8334TIP3   OH224923   2.672   6.680   4.464  0.0335 -0.0681  0.5369
 8334TIP3    H124924   2.757   6.723   4.472  0.0201 -0.3784  3.0309
 8334TIP3    H224925   2.619   6.740   4.410  1.7933  0.0992 -1.1026
 8335TIP3   OH224926   2.098   4.941   5.433  0.0279 -0.2996  0.3470
 8335TIP3    H124927   2.078   4.924   5.525 -0.8426 -1.6323 -0.0490
 8335TIP3    H224928   2.026   4.900   5.385  1.4018 -1.2552 -0.9983
 8336TIP3   OH224929   6.349   6.710   4.657  0.1182  0.8381  0.1680
 8336TIP3    H124930   6.267   6.743   4.695 -0.0373  0.4280  0.1934
 8336TIP3    H224931   6.331   6.617   4.639  1.1499  0.2953  1.8039
 8337TIP3   OH224932   8.335   1.838   6.518 -0.3315  0.2144 -0.3081
 8337TIP3    H124933   8.317   1.745   6.529  2.3663 -0.3724 -0.3364
 8337TIP3    H224934   8.316   1.855   6.426  1.7833 -1.0208 -1.0314
 8338TIP3   OH224935   0.835   3.265   5.181 -0.2290  0.1660  0.2415
 8338TIP3    H124936   0.847   3.171   5.196 -0.3619  0.3411  1.6277
 8338TIP3    H224937   0.770   3.292   5.247 -1.1387  1.0064 -0.9504
 8339TIP3   OH224938   4.944   4.676   4.162 -0.6869  0.9307 -0.1759
 8339TIP3    H124939   4.932   4.757   4.211  1.2885  0.8724  0.5054
 8339TIP3    H224940   4.942   4.607   4.229  0.2899  0.6863 -0.3786
 8340TIP3   OH224941   7.161   2.484   1.241 -0.5172 -0.1020 -0.4722
 8340TIP3    H124942   7.209   2.475   1.323  0.0048 -0.0584 -0.7697
 8340TIP3    H224943   7.221   2.452   1.174 -0.5843  0.7211 -0.9460
 8341TIP3   OH224944   2.778   4.366   2.627 -0.3832  0.0402  0.0756
 8341TIP3    H124945   2.785   4.432   2.559  0.5919 -0.1206  0.0084
 8341TIP3    H224946   2.834   4.397   2.698 -0.8164 -0.1555  0.5186
 8342TIP3   OH224947   3.392   5.372   5.853  0.2610  0.5953 -0.2343
 8342TIP3    H124948   3.309   5.421   5.850 -0.9308 -1.2853  0.2311
 8342TIP3    H224949   3.399   5.331   5.767  0.0834 -0.1661  0.0987
 8343TIP3   OH224950   3.451   5.531   1.642 -0.1668  0.2024  0.2288
 8343TIP3    H124951   3.482   5.608   1.594 -0.6740 -0.1368 -0.6683
 8343TIP3    H224952   3.356   5.539   1.641 -0.3735 -1.4933 -1.7767
 8344TIP3   OH224953   7.733   5.999   7.098 -0.4008 -0.1907  0.5580
 8344TIP3    H124954   7.728   6.088   7.135 -0.1909 -0.8688  2.3012
 8344TIP3    H224955   7.664   5.997   7.032  0.2993  1.6170 -0.3067
 8345TIP3   OH224956   0.529   6.913   1.254 -0.6549  0.5700 -1.0402
 8345TIP3    H124957   0.459   6.958   1.302 -0.3062 -0.9415  1.0442
 8345TIP3    H224958   0.585   6.877   1.323  0.7547 -0.4292 -2.6458
 8346TIP3   OH224959   6.522   3.504   6.151  0.0678  0.2099  0.1003
 8346TIP3    H124960   6.546   3.588   6.190  1.6871 -0.0053 -0.3365
 8346TIP3    H224961   6.522   3.520   6.057 -0.1726 -0.1505  0.0346
 8347TIP3   OH224962   0.753   7.328   5.745  0.0051 -0.2626 -0.4531
 8347TIP3    H124963   0.705   7.334   5.662 -1.4007 -2.6109  0.0907
 8347TIP3    H224964   0.721   7.400   5.798  0.7253  1.1129 -1.8104
 8348TIP3   OH224965   0.003   3.858   3.866 -0.3150  0.4192  0.0165
 8348TIP3    H124966   0.037   3.885   3.952 -0.6478  0.6033  0.0923
 8348TIP3    H224967   0.007   3.763   3.867 -0.5178  0.4138  0.3170
 8349TIP3   OH224968   1.897   2.817   6.842  0.2638  0.3952  0.3089
 8349TIP3    H124969   1.850   2.894   6.875 -4.3570 -1.0211 -2.0410
 8349TIP3    H224970   1.907   2.760   6.918  2.4143  2.5059  1.7738
 8350TIP3   OH224971   5.865   0.799   2.235  0.2664 -0.6088 -0.0508
 8350TIP3    H124972   5.880   0.777   2.143 -0.7070  0.3223 -0.4509
 8350TIP3    H224973   5.775   0.770   2.253 -0.2453  0.9438  0.0344
 8351TIP3   OH224974   4.752   5.956   6.483 -0.1785 -0.2675  0.2754
 8351TIP3    H124975   4.679   5.953   6.421  1.4962  0.8521 -1.9099
 8351TIP3    H224976   4.820   6.005   6.437  1.1457  0.7821  3.1271
 8352TIP3   OH224977   8.068   2.409   1.974  0.3789 -0.2594 -0.2057
 8352TIP3    H124978   7.974   2.425   1.979  0.6693  1.6733  0.0815
 8352TIP3    H224979   8.078   2.316   1.993 -1.4969 -0.5830 -0.6476
 8353TIP3   OH224980   3.114   5.554   4.325  0.6565 -0.2746  0.0537
 8353TIP3    H124981   3.148   5.552   4.414  0.5312  3.7854  0.3702
 8353TIP3    H224982   3.027   5.592   4.332  0.7655  0.4510 -1.7928
 8354TIP3   OH224983   6.077   8.013   5.346  0.4299 -0.1877 -0.2889
 8354TIP3    H124984   6.168   8.023   5.377  0.3120  1.1125 -0.2860
 8354TIP3    H224985   6.048   8.103   5.329 -0.0139 -0.7268 -2.7410
 8355TIP3   OH224986   5.480   7.516   3.684 -0.4661 -0.4170  0.0465
 8355TIP3    H124987   5.480   7.511   3.589 -1.3307 -0.4986  0.0421
 8355TIP3    H224988   5.413   7.453   3.711 -0.8126  0.2078  0.6743
 8356TIP3   OH224989   5.705   7.554   1.080 -0.7666 -0.1773  0.2910
 8356TIP3    H124990   5.750   7.589   1.003 -2.1879  1.9408  0.3401
 8356TIP3    H224991   5.764   7.488   1.115  1.5196  1.2991 -0.5974
 8357TIP3   OH224992   1.657   5.269   6.493 -0.0919  1.0463 -0.1199
 8357TIP3    H124993   1.617   5.200   6.546 -1.1524  1.6492 -0.1074
 8357TIP3    H224994   1.583   5.319   6.458  0.6372  1.7441 -0.7133
 8358TIP3   OH224995   6.709   5.282   5.081  0.5924  0.3136  0.0734
 8358TIP3    H124996   6.643   5.324   5.135  0.3474  0.0484 -0.0155
 8358TIP3    H224997   6.667   5.270   4.996  1.4107  1.9212 -0.5993
 8359TIP3   OH224998   4.764   4.811   5.497  0.2943 -0.2185 -0.0886
 8359TIP3    H124999   4.707   4.740   5.469  1.2773 -0.5218 -1.4011
 8359TIP3    H225000   4.807   4.776   5.576  0.2782 -0.8228 -0.3390
 8360TIP3   OH225001   0.891   3.809   6.571 -0.3812 -0.4283  0.1047
 8360TIP3    H125002   0.928   3.780   6.655  0.3795  0.8405  0.2252
 8360TIP3    H225003   0.929   3.895   6.557 -1.6401 -0.0096 -0.8439
 8361TIP3   OH225004   6.913   4.871   4.468 -0.0514 -0.2983  0.2668
 8361TIP3    H125005   6.873   4.889   4.553 -0.3278  1.1820 -0.1393
 8361TIP3    H225006   6.848   4.902   4.405  1.0112  0.5319 -0.4438
 8362TIP3   OH225007   3.112   6.818   4.090 -0.4549 -0.1798 -0.4490
 8362TIP3    H125008   3.145   6.888   4.034 -1.6322 -0.5224 -1.6262
 8362TIP3    H225009   3.018   6.817   4.074 -0.7025 -0.9034  0.8676
 8363TIP3   OH225010   4.220   3.475   4.377  0.2398  0.2211  0.1062
 8363TIP3    H125011   4.156   3.434   4.319  1.0127 -1.3188  0.2706
 8363TIP3    H225012   4.302   3.470   4.329  0.7264 -0.2718  0.9604
 8364TIP3   OH225013   6.789   6.647   6.201 -0.5012  0.1662  0.0817
 8364TIP3    H125014   6.702   6.618   6.174 -0.9019  1.5082 -0.1061
 8364TIP3    H225015   6.773   6.711   6.271  0.2965  0.9814 -0.4602
 8365TIP3   OH225016   7.376   5.172   4.245 -0.2157  0.2777  0.6540
 8365TIP3    H125017   7.347   5.245   4.190 -0.4559 -0.1182  0.2462
 8365TIP3    H225018   7.295   5.134   4.279 -0.0395  1.9494  3.2400
 8366TIP3   OH225019   3.093   8.117   0.837 -0.4254  0.3013  0.3725
 8366TIP3    H125020   3.121   8.179   0.769  0.5454  1.3639  1.6848
 8366TIP3    H225021   3.010   8.082   0.804 -0.1506  1.0127 -1.2012
 8367TIP3   OH225022   1.713   5.388   0.273 -0.1951 -0.2508  0.1339
 8367TIP3    H125023   1.780   5.324   0.250 -0.3915 -0.3149 -0.2759
 8367TIP3    H225024   1.760   5.471   0.280 -0.4671  0.2747 -3.0269
 8368TIP3   OH225025   3.366   3.614   3.979  0.1910 -0.2527  0.2282
 8368TIP3    H125026   3.304   3.541   3.971 -0.6336  0.2880  1.4755
 8368TIP3    H225027   3.441   3.587   3.925 -0.8836 -1.1665 -0.8650
 8369TIP3   OH225028   3.666   2.672   6.550  0.5573  0.1431 -0.1567
 8369TIP3    H125029   3.669   2.732   6.475 -0.2525 -0.0978 -0.3929
 8369TIP3    H225030   3.584   2.623   6.538  1.2024 -1.0233  0.0241
 8370TIP3   OH225031   1.583   2.154   6.392 -0.4724 -0.6764  0.1709
 8370TIP3    H125032   1.508   2.210   6.369  1.0106  0.9889 -0.8995
 8370TIP3    H225033   1.581   2.083   6.327 -0.5657 -0.0826 -0.4934
 8371TIP3   OH225034   2.496   5.350   0.048 -0.5030  0.0338 -0.1446
 8371TIP3    H125035   2.536   5.270   0.012 -0.8118 -0.1748 -0.0284
 8371TIP3    H225036   2.402   5.337   0.036 -0.5478  0.4291 -0.2186
 8372TIP3   OH225037   7.224   0.975   4.788 -0.3566  0.3765  0.1219
 8372TIP3    H125038   7.239   1.055   4.736 -2.1163  0.9730  0.4673
 8372TIP3    H225039   7.149   0.933   4.746  0.6128 -1.2111 -0.1277
 8373TIP3   OH225040  -0.016   0.200   0.062 -0.1243  0.2552  0.1254
 8373TIP3    H125041  -0.016   0.198   0.158 -1.8675  2.0218  0.2152
 8373TIP3    H225042   0.057   0.258   0.039 -0.6764  1.0941  0.4572
 8374TIP3   OH225043   8.279   3.443   0.631  0.8317  0.1584  0.3533
 8374TIP3    H125044   8.304   3.530   0.600  1.6127  0.1190  0.8427
 8374TIP3    H225045   8.238   3.402   0.556 -0.1937  1.1958  0.3187
 8375TIP3   OH225046   5.665   7.233   4.237  0.0278  0.2062  0.1606
 8375TIP3    H125047   5.701   7.249   4.324  0.9861 -2.3927  0.3347
 8375TIP3    H225048   5.673   7.139   4.225 -1.3241  0.3191 -2.2314
 8376TIP3   OH225049   3.962   3.050   6.756 -0.2967 -0.0870 -0.1027
 8376TIP3    H125050   4.034   3.083   6.810  0.0074  1.1454 -1.2228
 8376TIP3    H225051   3.902   3.124   6.747 -1.0486 -0.7049 -0.3006
 8377TIP3   OH225052   7.676   0.317   4.817 -0.2795  0.1060  0.0053
 8377TIP3    H125053   7.662   0.242   4.760  0.3318 -0.3927  0.4898
 8377TIP3    H225054   7.595   0.325   4.867  0.1604 -1.1501  0.9793
 8378TIP3   OH225055   0.320   5.430   2.651 -0.8130 -0.2265  0.1951
 8378TIP3    H125056   0.249   5.376   2.616  0.0173 -2.0364  1.1623
 8378TIP3    H225057   0.398   5.399   2.606 -0.2863  0.0023  0.9376
 8379TIP3   OH225058   8.460   5.637   5.791  0.2144  0.3922 -0.0737
 8379TIP3    H125059   8.544   5.595   5.773 -0.8652 -1.2835 -1.6000
 8379TIP3    H225060   8.476   5.730   5.777  2.2088  0.3359  1.3987
 8380TIP3   OH225061   1.877   1.712   6.735  0.0063  0.1021 -0.6160
 8380TIP3    H125062   1.832   1.754   6.808  1.5031  1.3246 -0.3740
 8380TIP3    H225063   1.816   1.721   6.662 -0.7038  0.5562  0.0147
 8381TIP3   OH225064   1.754   0.622   3.573  0.1245 -0.0167 -0.1997
 8381TIP3    H125065   1.842   0.594   3.598  0.3050 -0.9396 -1.7595
 8381TIP3    H225066   1.719   0.664   3.652  1.7595 -0.0926  0.6070
 8382TIP3   OH225067   4.861   3.035   5.421  0.4104 -0.1415  0.1239
 8382TIP3    H125068   4.840   2.948   5.387  1.7092 -1.4742  2.4877
 8382TIP3    H225069   4.787   3.089   5.395 -0.3838 -1.8818 -1.5510
 8383TIP3   OH225070   8.609   1.908   3.841 -0.0559  0.1428 -0.5595
 8383TIP3    H125071   8.628   1.964   3.916  2.4818 -0.6848 -0.4970
 8383TIP3    H225072   8.571   1.829   3.879  1.9198 -0.5947  0.0226
 8384TIP3   OH225073   7.915   0.817   4.126  0.5775  0.2288 -0.5368
 8384TIP3    H125074   7.909   0.875   4.202  0.1708  0.1938 -0.5370
 8384TIP3    H225075   8.009   0.804   4.112  0.7071  1.5052 -1.0070
 8385TIP3   OH225076   5.759   1.729   0.379  0.0004  0.7366 -0.0997
 8385TIP3    H125077   5.832   1.667   0.384  0.6093  1.4801  0.4835
 8385TIP3    H225078   5.742   1.738   0.285 -0.2028 -0.4227 -0.1863
 8386TIP3   OH225079   1.886   5.579   0.314 -0.0372 -0.0116  0.0681
 8386TIP3    H125080   1.897   5.674   0.313  0.2739 -0.0292  0.8686
 8386TIP3    H225081   1.915   5.551   0.227  0.0088  0.6125 -0.1226
 8387TIP3   OH225082   2.425   1.383   5.847 -0.2571 -0.5848  0.0034
 8387TIP3    H125083   2.412   1.477   5.836  0.9468 -0.4910 -0.9206
 8387TIP3    H225084   2.399   1.345   5.763 -1.9870 -1.2594  0.7915
 8388TIP3   OH225085   0.641   2.121   6.263 -0.4416  0.6859  0.0670
 8388TIP3    H125086   0.666   2.075   6.343  0.1433 -0.2328 -0.6244
 8388TIP3    H225087   0.558   2.082   6.237 -0.2257  0.4058 -0.2117
 8389TIP3   OH225088   4.791   4.609   4.462  0.1956  0.4676  0.2418
 8389TIP3    H125089   4.886   4.604   4.473  0.3655  1.1142 -0.7583
 8389TIP3    H225090   4.756   4.541   4.520  1.3288 -0.5333 -0.1966
 8390TIP3   OH225091   0.190   1.606   3.530 -0.8508  0.0179  0.2448
 8390TIP3    H125092   0.111   1.638   3.572 -0.6823  1.3656 -0.3998
 8390TIP3    H225093   0.214   1.676   3.469  0.1309 -0.9195 -0.4718
 8391TIP3   OH225094   7.985   3.030   3.907 -0.4527 -0.7344 -0.4469
 8391TIP3    H125095   7.976   2.977   3.986 -1.3550  2.0464  1.5029
 8391TIP3    H225096   7.921   2.994   3.847 -0.3381 -2.4280  0.3739
 8392TIP3   OH225097   1.551   5.202   0.149 -0.0723 -0.0580  0.0989
 8392TIP3    H125098   1.578   5.288   0.180  0.6702  0.1139 -0.9846
 8392TIP3    H225099   1.504   5.219   0.067  1.6021 -0.7639 -1.0756
 8393TIP3   OH225100   4.954   0.935   5.115 -0.0091 -0.3500 -0.9754
 8393TIP3    H125101   4.985   0.985   5.190 -0.7362  0.7230 -1.3768
 8393TIP3    H225102   4.920   1.000   5.054 -0.8262 -1.3055 -1.5815
 8394TIP3   OH225103   8.595   3.596   5.621  0.5170 -0.1007 -0.0567
 8394TIP3    H125104   8.659   3.612   5.552 -1.8272  0.4128 -2.2963
 8394TIP3    H225105   8.556   3.682   5.639  1.2939 -0.1522  2.2422
 8395TIP3   OH225106   1.919   4.233   5.472 -0.3118  0.5501 -0.2725
 8395TIP3    H125107   1.957   4.206   5.388  0.5914  0.6745  0.0822
 8395TIP3    H225108   1.824   4.230   5.458 -0.2502 -1.8967 -0.5216
 8396TIP3   OH225109   2.024   3.653   1.622  0.9684  0.1211  0.1435
 8396TIP3    H125110   1.976   3.641   1.703  0.1757  0.2252 -0.3044
 8396TIP3    H225111   2.076   3.732   1.636  0.8843  0.1057  0.5627
 8397TIP3   OH225112   2.090   0.603   6.505  0.0250 -0.3946 -0.1673
 8397TIP3    H125113   2.154   0.661   6.464 -0.1941 -1.4625 -2.0983
 8397TIP3    H225114   2.027   0.583   6.436 -1.4567 -0.7349  1.2279
 8398TIP3   OH225115   4.058   5.957   0.110  0.0233 -0.0015 -0.1904
 8398TIP3    H125116   4.065   6.042   0.067 -0.4215 -0.2051 -0.6820
 8398TIP3    H225117   4.141   5.946   0.156  0.2904  0.4625 -0.5527
 8399TIP3   OH225118   3.812   1.713   4.070  0.0178 -0.5273  0.0199
 8399TIP3    H125119   3.854   1.656   4.005  1.5678 -2.0213  2.2084
 8399TIP3    H225120   3.850   1.799   4.055  0.7539 -0.9591 -0.6819
 8400TIP3   OH225121   5.791   3.806   1.818 -0.3926 -0.1319 -0.4675
 8400TIP3    H125122   5.780   3.730   1.760 -0.1308  0.0719 -0.7841
 8400TIP3    H225123   5.867   3.785   1.871 -1.3344 -0.8569  0.6565
 8401TIP3   OH225124   7.308   3.078   1.589  0.5617 -0.0369 -0.1175
 8401TIP3    H125125   7.297   3.003   1.647 -1.2535  0.2805  0.0234
 8401TIP3    H225126   7.267   3.051   1.507 -0.3367  0.8507  0.0145
 8402TIP3   OH225127   6.561   7.860   5.439 -0.5368  0.1525 -0.2648
 8402TIP3    H125128   6.539   7.778   5.485 -0.1854  0.0161 -0.3342
 8402TIP3    H225129   6.480   7.887   5.398 -0.9275  0.4083  0.6403
 8403TIP3   OH225130   3.884   6.572   6.486  0.1489  0.0527 -0.3095
 8403TIP3    H125131   3.832   6.639   6.530 -0.4276  0.2223 -1.2067
 8403TIP3    H225132   3.962   6.562   6.540 -0.1572  0.8229  0.2976
 8404TIP3   OH225133   2.984   0.519   1.704  0.4838  0.1099  0.4218
 8404TIP3    H125134   3.004   0.602   1.661 -0.0265 -0.0104 -0.0698
 8404TIP3    H225135   3.045   0.457   1.664 -0.1829 -0.0604 -0.3635
 8405TIP3   OH225136   1.659   1.305   3.829 -0.2108  0.3410 -0.0792
 8405TIP3    H125137   1.754   1.310   3.823  0.1998  1.3620  4.1421
 8405TIP3    H225138   1.630   1.396   3.815 -0.5670  0.1112 -0.8996
 8406TIP3   OH225139   2.428   4.552   6.703 -0.7501 -0.3699  0.1581
 8406TIP3    H125140   2.360   4.532   6.638 -0.1527 -0.6090 -0.4035
 8406TIP3    H225141   2.396   4.630   6.748 -1.9053 -1.0796  0.6288
 8407TIP3   OH225142   6.898   3.780   5.081 -0.1709 -0.0778  0.5914
 8407TIP3    H125143   6.982   3.761   5.040 -0.2721  0.8820 -0.1084
 8407TIP3    H225144   6.911   3.865   5.122 -1.0368  0.4949 -0.2647
 8408TIP3   OH225145   2.710   0.704   4.488  0.4934 -0.4839  0.0804
 8408TIP3    H125146   2.652   0.628   4.488 -1.1698  0.7373 -0.1810
 8408TIP3    H225147   2.697   0.744   4.402  1.9252 -0.3046 -0.0718
 8409TIP3   OH225148   2.768   3.794   6.685 -0.1825 -0.6333  0.1477
 8409TIP3    H125149   2.823   3.870   6.706 -0.3013 -0.7615  0.9501
 8409TIP3    H225150   2.724   3.773   6.767 -1.8723 -0.1779 -0.5934
 8410TIP3   OH225151   2.340   7.847   3.240 -0.0078 -0.2503 -0.3247
 8410TIP3    H125152   2.357   7.927   3.289  0.8068 -1.5581  1.6611
 8410TIP3    H225153   2.253   7.859   3.202 -0.2779  1.2111  0.6846
 8411TIP3   OH225154   0.757   2.953   1.374 -0.0917 -0.5408  0.6011
 8411TIP3    H125155   0.832   2.971   1.317  0.0850  1.6579  1.4137
 8411TIP3    H225156   0.684   2.937   1.315  0.2605  0.9039 -0.2627
 8412TIP3   OH225157   7.417   5.206   2.280 -0.2567 -0.1164 -0.7291
 8412TIP3    H125158   7.475   5.273   2.245  1.2947 -1.2468 -0.3951
 8412TIP3    H225159   7.331   5.249   2.284  0.4150  1.4018 -1.7726
 8413TIP3   OH225160   5.746   5.958   0.865  0.2898 -0.5353  0.0172
 8413TIP3    H125161   5.660   5.917   0.856 -2.9953  4.6244  2.9058
 8413TIP3    H225162   5.764   5.956   0.959  1.9411  0.8507 -0.2182
 8414TIP3   OH225163   8.095   0.145   0.243 -0.4658 -0.0821  0.5282
 8414TIP3    H125164   8.056   0.232   0.236  0.8203  0.4169 -0.7940
 8414TIP3    H225165   8.020   0.085   0.245 -1.3337  0.9408 -0.2261
 8415TIP3   OH225166   6.029   7.890   5.119  0.1264  0.1845  0.5320
 8415TIP3    H125167   6.100   7.941   5.080  1.6284 -1.7280  0.5731
 8415TIP3    H225168   6.033   7.910   5.212  1.8354 -1.1782  0.8143
 8416TIP3   OH225169   2.497   6.939   1.709 -0.0396 -0.0356  0.2973
 8416TIP3    H125170   2.474   6.977   1.793 -0.6334 -1.2504  0.6983
 8416TIP3    H225171   2.427   6.877   1.690  0.4078 -0.2363 -0.7977
 8417TIP3   OH225172   2.576   2.589   3.634 -0.1591 -0.0381  0.6119
 8417TIP3    H125173   2.599   2.615   3.723 -0.5162 -1.4091  1.1258
 8417TIP3    H225174   2.484   2.613   3.625  0.4079  2.0704 -0.1706
 8418TIP3   OH225175   1.954   0.816   4.462  0.0944  0.0763  0.4820
 8418TIP3    H125176   1.921   0.796   4.375 -0.0732 -0.1546  0.5973
 8418TIP3    H225177   2.035   0.865   4.446  0.5255 -0.7138  0.1888
 8419TIP3   OH225178   4.395   2.895   0.119 -0.0644 -0.1371  0.2394
 8419TIP3    H125179   4.409   2.889   0.024 -0.6977  1.6862 -0.0111
 8419TIP3    H225180   4.453   2.828   0.156  1.3086  0.1043 -1.3448
 8420TIP3   OH225181   2.032   0.362   1.955 -0.1048  0.3509  0.1037
 8420TIP3    H125182   2.053   0.455   1.969 -0.6786  0.6338 -0.8270
 8420TIP3    H225183   2.098   0.332   1.893  1.5587 -0.5265  2.1522
 8421TIP3   OH225184   4.214   4.215   4.940  0.7602  0.6963 -0.0362
 8421TIP3    H125185   4.224   4.124   4.913 -0.1583  1.2292 -2.3978
 8421TIP3    H225186   4.159   4.211   5.018  1.0769 -0.7768  0.1347
 8422TIP3   OH225187   2.638   3.084   2.399 -0.0091 -0.1279  0.0404
 8422TIP3    H125188   2.578   3.100   2.472  0.2492  0.8556  0.0521
 8422TIP3    H225189   2.725   3.103   2.434  0.1498  0.0341 -0.4365
 8423TIP3   OH225190   6.976   4.869   1.400 -0.3440  0.3165 -0.1531
 8423TIP3    H125191   6.882   4.860   1.390 -0.2756 -0.4468 -0.2112
 8423TIP3    H225192   7.012   4.793   1.354  0.1959 -0.6572  1.7651
 8424TIP3   OH225193   3.839   7.324   0.738  0.0955  0.0195 -0.0699
 8424TIP3    H125194   3.776   7.391   0.763  0.3758  0.1962  0.1561
 8424TIP3    H225195   3.855   7.274   0.818  0.7537  0.3913  0.0359
 8425TIP3   OH225196   6.215   5.942   5.042  0.4814 -0.6893  0.3413
 8425TIP3    H125197   6.280   5.975   4.980  1.0058 -1.6905  0.3416
 8425TIP3    H225198   6.165   5.877   4.992 -1.7754  1.3201 -0.2339
 8426TIP3   OH225199   0.266   2.912   5.225 -0.5998 -0.2873  0.6006
 8426TIP3    H125200   0.191   2.925   5.166  0.4858 -1.4542 -1.1650
 8426TIP3    H225201   0.334   2.970   5.190 -0.6562  0.8399  2.2467
 8427TIP3   OH225202   1.530   5.069   6.134  0.1356  0.2217 -0.3181
 8427TIP3    H125203   1.528   5.022   6.217 -1.6729  0.7101 -0.0530
 8427TIP3    H225204   1.570   5.153   6.156  0.1346  0.1524 -0.0437
 8428TIP3   OH225205   8.571   6.239   1.906  0.1764 -0.1294  0.2698
 8428TIP3    H125206   8.545   6.286   1.826 -0.5570  0.2884  0.7452
 8428TIP3    H225207   8.592   6.309   1.968 -0.0197 -0.4462  0.6934
 8429TIP3   OH225208   8.030   5.701   5.995 -0.0108  0.1030 -0.7425
 8429TIP3    H125209   7.959   5.643   5.967 -2.7689  1.8430  1.9849
 8429TIP3    H225210   7.998   5.741   6.076  4.3631  0.6734  1.0031
 8430TIP3   OH225211   3.197   7.377   3.618  0.1469  0.3407  0.6926
 8430TIP3    H125212   3.111   7.411   3.594  0.0382  1.0588  2.0094
 8430TIP3    H225213   3.247   7.378   3.536 -0.4288  1.9315  0.3313
 8431TIP3   OH225214   2.316   0.550   6.681 -0.3395  0.2157 -0.4082
 8431TIP3    H125215   2.230   0.564   6.643  0.0437  0.0220 -1.3828
 8431TIP3    H225216   2.377   0.562   6.608  0.3528 -1.1943 -0.1022
 8432TIP3   OH225217   5.227   4.917   4.762  0.0008  0.0692 -0.1232
 8432TIP3    H125218   5.144   4.870   4.755 -0.6288  1.3049 -1.7605
 8432TIP3    H225219   5.207   5.005   4.729  1.5870  0.8853  1.0020
 8433TIP3   OH225220   3.972   5.387   4.474 -0.3703 -0.2733  0.0379
 8433TIP3    H125221   3.941   5.468   4.433 -2.5477 -1.1530 -0.1791
 8433TIP3    H225222   3.996   5.330   4.401 -0.3818 -0.3952  0.1271
 8434TIP3   OH225223   8.107   2.857   3.572  0.3402 -0.0432  0.5102
 8434TIP3    H125224   8.079   2.816   3.654 -0.8166  0.6417  0.4781
 8434TIP3    H225225   8.056   2.813   3.504 -0.0544  0.6365  0.3546
 8435TIP3   OH225226   1.091   3.392   0.124 -0.1638 -0.0816  0.1426
 8435TIP3    H125227   1.066   3.344   0.045  3.6212  0.7062 -1.8039
 8435TIP3    H225228   1.070   3.483   0.105 -0.0412  0.0077  0.4212
 8436TIP3   OH225229   1.337   2.292   6.387 -0.1524 -0.3692 -0.3220
 8436TIP3    H125230   1.314   2.205   6.417  0.4353 -0.2215  0.5772
 8436TIP3    H225231   1.253   2.335   6.372 -0.5309 -0.1165  2.1076
 8437TIP3   OH225232   8.218   7.401   2.667  0.0316  0.2045 -0.3543
 8437TIP3    H125233   8.132   7.372   2.636 -0.1127 -0.1704  0.3809
 8437TIP3    H225234   8.273   7.323   2.660 -0.3214 -0.2396  1.5017
 8438TIP3   OH225235   5.042   1.020   6.176  0.1529  0.0816  0.3724
 8438TIP3    H125236   5.099   0.960   6.226 -1.3087  0.0309  2.0510
 8438TIP3    H225237   5.045   1.102   6.224 -0.1992  0.4715 -0.2559
 8439TIP3   OH225238   0.498   7.657   4.941  0.5719 -0.4582  0.0999
 8439TIP3    H125239   0.553   7.685   4.867  0.9071 -0.5864  0.2978
 8439TIP3    H225240   0.513   7.722   5.009 -0.1521 -0.0404 -0.1326
 8440TIP3   OH225241   3.604   4.937   0.675  0.5795  0.8249 -0.1858
 8440TIP3    H125242   3.557   4.994   0.737  0.9123  0.4234  0.4501
 8440TIP3    H225243   3.658   4.882   0.731 -0.9574 -1.2826 -0.6609
 8441TIP3   OH225244   2.485   4.242   2.814 -0.5669  0.5037 -0.3617
 8441TIP3    H125245   2.414   4.253   2.878 -1.2567 -0.3883 -0.9500
 8441TIP3    H225246   2.559   4.291   2.852 -1.3699  1.1214  0.4483
 8442TIP3   OH225247   4.907   7.783   4.919 -0.1148  0.5268 -0.3056
 8442TIP3    H125248   4.912   7.854   4.983 -0.4232 -0.5009  0.8889
 8442TIP3    H225249   4.997   7.772   4.888 -0.0190  1.2491 -0.3046
 8443TIP3   OH225250   7.806   5.427   3.901 -0.3220 -0.1738 -0.1941
 8443TIP3    H125251   7.825   5.433   3.808 -0.6827 -1.0489 -0.3262
 8443TIP3    H225252   7.830   5.514   3.935  0.1972  0.0229 -1.0174
 8444TIP3   OH225253   7.289   7.968   3.476 -0.4836 -0.0834 -0.3278
 8444TIP3    H125254   7.355   7.941   3.412 -0.6055  0.7430 -0.8058
 8444TIP3    H225255   7.285   8.063   3.468  1.3913  0.3896  2.6963
 8445TIP3   OH225256   2.038   6.998   0.187  0.1164  0.5398  0.1549
 8445TIP3    H125257   1.968   7.000   0.252 -0.5024  1.8340 -0.5150
 8445TIP3    H225258   2.102   6.936   0.222  0.4754  2.1996  2.7028
 8446TIP3   OH225259   6.595   0.060   5.973 -0.3259  0.0437 -0.3567
 8446TIP3    H125260   6.584   0.146   6.014 -0.8177  0.2360 -0.8815
 8446TIP3    H225261   6.522   0.008   6.007 -1.2245  0.4507 -1.6038
 8447TIP3   OH225262   6.704   1.088   2.719 -0.0543  0.1532  0.7254
 8447TIP3    H125263   6.740   1.000   2.713 -0.3941  0.0167  0.6651
 8447TIP3    H225264   6.618   1.076   2.761 -0.0336  0.4715  0.8619
 8448TIP3   OH225265   8.098   5.954   3.991 -0.4259 -0.3206 -0.0655
 8448TIP3    H125266   8.115   5.870   3.949  0.0863 -0.1540 -0.1913
 8448TIP3    H225267   8.114   6.019   3.923 -1.3124 -0.1417 -0.1140
 8449TIP3   OH225268   0.208   0.737   1.675  0.0953 -0.1387 -0.0503
 8449TIP3    H125269   0.206   0.830   1.651 -0.7578 -0.2723 -0.5206
 8449TIP3    H225270   0.181   0.691   1.596 -0.6000 -0.7252  0.5194
 8450TIP3   OH225271   1.111   7.178   3.840  0.2822  0.3065  0.6967
 8450TIP3    H125272   1.060   7.230   3.778 -0.0226  1.1643  1.6453
 8450TIP3    H225273   1.201   7.211   3.831  0.3453  0.0439  0.3255
 8451TIP3   OH225274   6.452   2.748   5.449 -0.2106  0.2195 -0.0560
 8451TIP3    H125275   6.516   2.703   5.504 -2.2623 -3.0486 -0.0577
 8451TIP3    H225276   6.369   2.735   5.495 -1.9987 -2.4468 -3.5410
 8452TIP3   OH225277   0.406   4.386   3.723  0.0927 -0.1794 -0.0373
 8452TIP3    H125278   0.314   4.367   3.706 -0.2720  0.2109  1.3663
 8452TIP3    H225279   0.422   4.469   3.678 -0.6433  0.4764  0.8857
 8453TIP3   OH225280   6.589   2.422   6.258 -0.2156  0.7458  0.6068
 8453TIP3    H125281   6.575   2.489   6.191  2.8543  2.2176  1.2629
 8453TIP3    H225282   6.591   2.470   6.341  0.0757 -0.4441  1.3179
 8454TIP3   OH225283   2.865   5.407   1.271 -0.1142  0.3405 -0.0594
 8454TIP3    H125284   2.844   5.500   1.264 -0.6866  0.1721 -0.6710
 8454TIP3    H225285   2.827   5.368   1.193  0.3686 -0.3679  0.0517
 8455TIP3   OH225286   6.416   7.622   6.851 -0.2305  0.5304 -0.2839
 8455TIP3    H125287   6.345   7.643   6.790  0.9657  0.0769 -1.8969
 8455TIP3    H225288   6.490   7.675   6.820  1.3972 -2.1880 -1.3904
 8456TIP3   OH225289   7.664   5.698   0.215  0.3160 -0.1733 -0.1664
 8456TIP3    H125290   7.632   5.618   0.174 -0.7504 -0.2909  0.8330
 8456TIP3    H225291   7.713   5.668   0.291  2.8116  0.0161 -1.6003
 8457TIP3   OH225292   4.941   0.296   3.788 -0.1714  0.4339 -0.0679
 8457TIP3    H125293   4.915   0.295   3.880 -1.6220  1.3732 -0.4317
 8457TIP3    H225294   4.996   0.219   3.777  0.5836  0.6706  1.7387
 8458TIP3   OH225295   5.264   2.408   6.691 -0.3426 -0.9305  0.3226
 8458TIP3    H125296   5.239   2.367   6.774  1.6804 -1.9112  0.5122
 8458TIP3    H225297   5.354   2.438   6.705 -0.9133  1.4643 -0.6373
 8459TIP3   OH225298   7.934   0.399   0.301  0.5211 -0.3749 -0.2450
 8459TIP3    H125299   7.952   0.466   0.235 -1.8081  1.3482  0.7236
 8459TIP3    H225300   7.967   0.436   0.383 -1.8096  0.2308  0.5072
 8460TIP3   OH225301   2.552   3.574   1.210  0.2820  0.3619 -0.4412
 8460TIP3    H125302   2.516   3.532   1.288  0.4584  3.1001  1.2571
 8460TIP3    H225303   2.477   3.586   1.152 -0.7571  1.9897  1.1430
 8461TIP3   OH225304   3.410   2.260   2.299 -0.0744 -0.2328  0.0235
 8461TIP3    H125305   3.315   2.266   2.296 -0.0936 -0.3124  0.4453
 8461TIP3    H225306   3.432   2.271   2.392  0.2380 -1.5996  0.1266
 8462TIP3   OH225307   5.251   7.251   0.255 -0.0061  0.8639 -0.0094
 8462TIP3    H125308   5.254   7.203   0.339 -0.1133  0.4300 -0.2503
 8462TIP3    H225309   5.200   7.195   0.197 -0.3308  1.3850 -0.2339
 8463TIP3   OH225310   8.287   7.354   4.855 -0.1762  0.0855 -0.3619
 8463TIP3    H125311   8.267   7.265   4.825 -1.8833 -0.1545  1.2784
 8463TIP3    H225312   8.375   7.347   4.893 -0.8295 -1.2699  0.9982
 8464TIP3   OH225313   6.285   0.087   6.754  0.0265  0.4088 -0.4516
 8464TIP3    H125314   6.193   0.073   6.775  0.0963 -0.4477 -0.6802
 8464TIP3    H225315   6.308   0.012   6.699  1.7792 -1.3053  2.3975
 8465TIP3   OH225316   1.370   1.486   3.542  0.2308 -0.1568 -0.2626
 8465TIP3    H125317   1.394   1.419   3.606 -0.9264  0.2623  0.6503
 8465TIP3    H225318   1.334   1.557   3.595  1.1571  1.0833 -1.2266
 8466TIP3   OH225319   6.934   4.938   2.303 -0.4304 -0.1319 -0.3580
 8466TIP3    H125320   6.962   4.980   2.221 -0.7785  0.4384 -0.1951
 8466TIP3    H225321   6.987   4.859   2.309  1.3187  1.0084  0.0479
 8467TIP3   OH225322   5.751   6.099   6.739 -0.0731  0.2063 -0.3103
 8467TIP3    H125323   5.775   6.012   6.707  1.3202  0.7115 -0.7102
 8467TIP3    H225324   5.806   6.112   6.816 -0.4176  0.6633 -0.1335
 8468TIP3   OH225325   0.159   3.984   0.765  0.2033 -0.6821 -0.3923
 8468TIP3    H125326   0.114   3.965   0.848 -0.1555  0.4799 -0.3050
 8468TIP3    H225327   0.227   3.918   0.759 -1.0546 -2.0572 -0.1669
 8469TIP3   OH225328   5.009   0.389   2.207 -0.0672  0.2332  0.1542
 8469TIP3    H125329   4.915   0.403   2.192 -0.2803  1.5941  2.3721
 8469TIP3    H225330   5.050   0.421   2.126 -1.5006 -0.8073 -1.0475
 8470TIP3   OH225331   1.248   1.054   6.236  0.1341 -0.0430  0.2254
 8470TIP3    H125332   1.283   1.067   6.324  1.7187 -0.3371 -0.3206
 8470TIP3    H225333   1.288   0.972   6.207 -0.9425 -0.3333 -0.5119
 8471TIP3   OH225334   5.535   2.610   2.223  0.1361  0.1113 -0.2997
 8471TIP3    H125335   5.536   2.639   2.314  0.7721  0.5871 -0.4459
 8471TIP3    H225336   5.527   2.515   2.228 -0.2099  0.1647  0.2414
 8472TIP3   OH225337   8.424   7.721   1.464 -0.0861 -0.5651  0.6718
 8472TIP3    H125338   8.489   7.791   1.470  1.5518 -2.0629  1.4002
 8472TIP3    H225339   8.381   7.721   1.549 -0.8005  0.1749  0.3239
 8473TIP3   OH225340   8.481   4.161   6.697  0.0855 -0.5543  0.0160
 8473TIP3    H125341   8.520   4.074   6.685  0.1766 -0.5568  0.3207
 8473TIP3    H225342   8.467   4.193   6.608 -2.3683 -1.9651 -0.2003
 8474TIP3   OH225343   8.172   7.724   6.395 -0.1768 -0.4843 -0.4640
 8474TIP3    H125344   8.083   7.729   6.430  0.2317  0.7540  0.4693
 8474TIP3    H225345   8.163   7.673   6.314 -1.5823 -1.1126  0.0600
 8475TIP3   OH225346   4.822   1.136   6.231 -0.8423  0.8430  0.0797
 8475TIP3    H125347   4.885   1.084   6.182 -1.5067 -1.4257  1.4475
 8475TIP3    H225348   4.875   1.191   6.289 -0.0792 -0.1432  0.3521
 8476TIP3   OH225349   8.422   7.253   5.854 -0.3553  0.1287 -1.0594
 8476TIP3    H125350   8.409   7.182   5.918  2.5027 -0.5446 -1.1067
 8476TIP3    H225351   8.370   7.226   5.778 -1.0985 -0.7849 -0.2538
 8477TIP3   OH225352   0.114   5.947   2.160 -0.6930  0.3351  0.0655
 8477TIP3    H125353   0.117   5.926   2.254 -0.2864 -2.1155 -0.4080
 8477TIP3    H225354   0.179   6.015   2.148  0.7306 -0.7351  1.3081
 8478TIP3   OH225355   2.642   6.696   1.975  0.4230  0.0769  0.1366
 8478TIP3    H125356   2.588   6.720   2.050  0.7330  1.7740 -0.1350
 8478TIP3    H225357   2.719   6.655   2.013  0.1667  0.1035  0.6934
 8479TIP3   OH225358   1.517   6.293   0.565  0.0348  0.3614  0.2159
 8479TIP3    H125359   1.438   6.305   0.618  0.4081  2.9952  0.3046
 8479TIP3    H225360   1.559   6.215   0.601 -2.2280 -0.8176  0.4924
 8480TIP3   OH225361   6.168   4.299   6.598  0.3466  0.7437  0.2403
 8480TIP3    H125362   6.148   4.393   6.594 -1.1887  0.5121  1.6123
 8480TIP3    H225363   6.236   4.293   6.665 -0.2157  0.7944  0.8246
 8481TIP3   OH225364   7.894   1.323   3.559 -0.2304 -0.1605  0.6148
 8481TIP3    H125365   7.872   1.261   3.628 -0.4045  1.4789  2.1075
 8481TIP3    H225366   7.811   1.341   3.515 -0.0028 -1.7470 -0.5606
 8482TIP3   OH225367   4.138   3.385   0.607 -0.8391 -0.3630 -0.6678
 8482TIP3    H125368   4.189   3.466   0.602 -0.7243 -0.4722 -1.3122
 8482TIP3    H225369   4.047   3.414   0.612 -0.8506 -0.1996 -1.6692
 8483TIP3   OH225370   5.692   4.401   5.172 -0.4271  0.1296  0.3691
 8483TIP3    H125371   5.604   4.427   5.145 -0.2070 -0.9913 -1.6149
 8483TIP3    H225372   5.742   4.482   5.171 -0.6419  0.3022 -1.9646
 8484TIP3   OH225373   8.309   2.667   5.157  0.8549  0.1951 -0.0117
 8484TIP3    H125374   8.397   2.703   5.161  0.7592  0.3133  1.7952
 8484TIP3    H225375   8.287   2.647   5.248  0.7399 -4.0521 -0.7713
 8485TIP3   OH225376  -0.010   2.249   0.022 -0.4248  0.2752 -0.3182
 8485TIP3    H125377   0.047   2.208  -0.042  0.0727  1.3742 -0.6156
 8485TIP3    H225378   0.042   2.323   0.055 -0.8017 -0.0663  1.0949
 8486TIP3   OH225379   1.127   7.676   2.970 -0.0397 -0.1334 -0.2875
 8486TIP3    H125380   1.197   7.654   3.031 -0.4446 -1.4448 -0.2667
 8486TIP3    H225381   1.167   7.666   2.883  0.2532  0.7544 -0.2652
 8487TIP3   OH225382   2.460   5.391   6.728  0.0871  0.7155  0.0894
 8487TIP3    H125383   2.522   5.426   6.665  0.0227 -1.4981 -1.2843
 8487TIP3    H225384   2.387   5.453   6.726  0.0505  0.6779 -2.1117
 8488TIP3   OH225385   0.295   8.004   0.963  0.1550 -0.6629 -0.2927
 8488TIP3    H125386   0.366   8.019   1.025 -0.7702 -0.5649  0.7734
 8488TIP3    H225387   0.323   8.048   0.883  0.9971 -0.0749  0.3131
 8489TIP3   OH225388   2.348   3.974   5.008  0.3036 -0.0670 -0.2049
 8489TIP3    H125389   2.310   3.907   5.066 -1.0309 -0.0979 -1.0704
 8489TIP3    H225390   2.292   4.050   5.020 -0.3339 -0.2480 -1.8372
 8490TIP3   OH225391   3.688   7.304  -0.020 -0.0716  0.0901 -0.1411
 8490TIP3    H125392   3.778   7.332  -0.005  0.7867 -2.4890  0.0040
 8490TIP3    H225393   3.673   7.234   0.043 -0.8547 -2.0611 -2.5282
 8491TIP3   OH225394   5.920   5.864   4.572  0.7891  0.3627  0.3477
 8491TIP3    H125395   5.879   5.949   4.552 -0.4007 -0.2556  0.0926
 8491TIP3    H225396   5.858   5.821   4.630  1.7831 -0.0109  1.1661
 8492TIP3   OH225397   2.912   2.129   3.529 -0.2676 -0.2452 -0.1194
 8492TIP3    H125398   2.900   2.095   3.617  0.5557  0.0662  0.1179
 8492TIP3    H225399   2.896   2.223   3.537 -2.4880 -0.5020 -0.7623
 8493TIP3   OH225400   7.496   2.965   6.370 -0.3986  0.1188 -0.3578
 8493TIP3    H125401   7.567   2.963   6.435 -0.9922 -1.2164  0.2821
 8493TIP3    H225402   7.417   2.982   6.421 -0.7043  0.3615 -0.9064
 8494TIP3   OH225403   2.302   3.781   0.384  0.1155  0.8098 -0.2367
 8494TIP3    H125404   2.346   3.717   0.328  0.6027  0.8828  0.0493
 8494TIP3    H225405   2.372   3.815   0.440  0.6590  4.0204 -2.5433
 8495TIP3   OH225406   2.272   4.749   0.064  0.3622 -0.1412  0.2887
 8495TIP3    H125407   2.327   4.822   0.092  0.7691 -0.7814  1.1715
 8495TIP3    H225408   2.207   4.790   0.006  0.5054  0.9388  0.8664
 8496TIP3   OH225409   5.256   5.462   0.202  0.3625  0.0733 -0.1108
 8496TIP3    H125410   5.177   5.515   0.192 -0.0575 -0.7830 -1.6783
 8496TIP3    H225411   5.227   5.372   0.186  1.5917 -0.3027 -0.3461
 8497TIP3   OH225412   0.853   4.097   5.944 -0.4581  0.0865  0.4437
 8497TIP3    H125413   0.935   4.145   5.937 -1.0512  1.1477  0.6387
 8497TIP3    H225414   0.823   4.112   6.034 -0.5280 -0.8663  0.5898
 8498TIP3   OH225415   1.552   5.201   1.345 -0.2899  0.4275 -0.1544
 8498TIP3    H125416   1.619   5.249   1.394 -0.8049 -0.1419  1.1446
 8498TIP3    H225417   1.499   5.269   1.303 -0.3326  0.9668  0.7446
 8499TIP3   OH225418   2.270   1.970   4.632  0.1831 -0.0949 -0.4240
 8499TIP3    H125419   2.235   2.019   4.557 -1.9944 -1.6669 -0.5240
 8499TIP3    H225420   2.242   1.880   4.616 -0.2850 -0.4803  2.2301
 8500TIP3   OH225421   8.253   0.375   0.655 -0.1487  0.0302  0.1405
 8500TIP3    H125422   8.279   0.462   0.686 -0.4042 -0.4804  1.8705
 8500TIP3    H225423   8.312   0.358   0.581  0.1703  1.4943  0.0205
 8501TIP3   OH225424   7.583   7.721   0.838  0.1529  0.3220  0.5157
 8501TIP3    H125425   7.557   7.681   0.755 -0.2911 -0.2287  0.9171
 8501TIP3    H225426   7.668   7.762   0.819  1.2227 -1.8246  0.3950
 8502TIP3   OH225427   0.899   5.648   0.973 -0.1119  0.0302 -0.0505
 8502TIP3    H125428   0.936   5.695   1.049  1.0053 -0.8004 -0.0499
 8502TIP3    H225429   0.967   5.584   0.950  0.1336  1.0739 -2.5460
 8503TIP3   OH225430   6.037   4.442   1.351  0.5463  0.3456  0.0358
 8503TIP3    H125431   6.043   4.538   1.353  1.8018  0.2681  1.9957
 8503TIP3    H225432   5.944   4.424   1.341  0.1781  1.7799  0.6487
 8504TIP3   OH225433   7.034   2.110   1.333  0.2606 -0.1434  0.4477
 8504TIP3    H125434   7.014   2.053   1.407 -0.0652 -0.2169  0.3089
 8504TIP3    H225435   7.109   2.162   1.361  0.3179 -0.3731  0.7195
 8505TIP3   OH225436   7.555   6.164   4.466  0.7248 -0.4498  0.0137
 8505TIP3    H125437   7.537   6.257   4.481 -0.2733 -0.8700  1.6870
 8505TIP3    H225438   7.649   6.155   4.481  0.6005  0.0713  1.2301
 8506TIP3   OH225439   7.237   6.956   3.222  0.4370  0.4516  0.1080
 8506TIP3    H125440   7.174   7.001   3.166  1.4790  2.2204  0.2797
 8506TIP3    H225441   7.266   6.881   3.170 -1.7252 -0.3815  0.0106
 8507TIP3   OH225442   3.687   1.010   4.047 -0.0416  0.4118 -0.2887
 8507TIP3    H125443   3.667   1.102   4.062  1.2178  0.9680 -1.6989
 8507TIP3    H225444   3.627   0.984   3.977 -1.0451 -0.1369  0.7468
 8508TIP3   OH225445   2.758   2.695   0.333  1.0038  0.0673 -0.2972
 8508TIP3    H125446   2.683   2.754   0.339  0.7828 -0.0831 -1.4008
 8508TIP3    H225447   2.821   2.742   0.279  0.8298 -0.6885 -1.1736
 8509TIP3   OH225448   5.846   5.712   4.122  0.5849  0.6237  0.1735
 8509TIP3    H125449   5.887   5.730   4.037  1.2241 -0.4403  0.2335
 8509TIP3    H225450   5.759   5.749   4.115  0.7424  0.8303 -0.8447
 8510TIP3   OH225451   2.186   0.194   3.209 -0.0946 -0.3763 -0.0853
 8510TIP3    H125452   2.201   0.264   3.145 -1.5849  0.5411  0.5168
 8510TIP3    H225453   2.129   0.233   3.275 -0.8519 -2.1202  0.3564
 8511TIP3   OH225454   2.014   1.154   6.297 -0.8671  0.1343 -0.2116
 8511TIP3    H125455   1.919   1.153   6.314 -1.1795  1.4164 -1.6480
 8511TIP3    H225456   2.028   1.233   6.245  0.7527 -0.8615 -1.3905
 8512TIP3   OH225457   5.816   3.573   4.804 -0.5133  0.2444 -0.6843
 8512TIP3    H125458   5.741   3.628   4.828 -0.0098 -0.0715  1.9337
 8512TIP3    H225459   5.884   3.635   4.779  0.1440  1.0034  2.5163
 8513TIP3   OH225460   6.326   1.834   2.451  0.9166  0.1651 -0.2535
 8513TIP3    H125461   6.284   1.850   2.535  0.3963  0.0336 -0.4839
 8513TIP3    H225462   6.279   1.759   2.415  1.8542 -0.4800 -0.1727
 8514TIP3   OH225463   6.465   7.771   6.220  0.3336 -0.3193  0.1129
 8514TIP3    H125464   6.441   7.778   6.312  1.4569 -0.5097  0.4365
 8514TIP3    H225465   6.405   7.831   6.175  0.4595  0.5762  1.0923
 8515TIP3   OH225466   7.805   0.163   1.618 -0.0361  0.7062  0.8594
 8515TIP3    H125467   7.858   0.237   1.649  0.8560  0.1560  0.6754
 8515TIP3    H225468   7.789   0.182   1.526  0.5404  0.4771  0.7082
 8516TIP3   OH225469   5.796   4.798   1.096 -0.0697  0.0162 -0.0925
 8516TIP3    H125470   5.709   4.820   1.061 -0.5113 -1.2721  0.1493
 8516TIP3    H225471   5.851   4.871   1.070 -1.5722  1.6816  1.1770
 8517TIP3   OH225472   4.050   0.595   5.359 -0.3303 -0.0336  0.0162
 8517TIP3    H125473   4.059   0.500   5.367  1.0764  0.0345 -0.4719
 8517TIP3    H225474   4.127   0.623   5.310  0.1234  1.5578  1.5279
 8518TIP3   OH225475   0.499   0.670   4.602  0.3619  0.1996 -0.1184
 8518TIP3    H125476   0.543   0.755   4.603  1.4426 -0.3188 -1.0616
 8518TIP3    H225477   0.464   0.662   4.513  2.3926 -1.3529 -0.8406
 8519TIP3   OH225478   5.159   4.703   2.656 -0.3412  0.0073 -0.2410
 8519TIP3    H125479   5.171   4.745   2.741 -0.3882 -0.8673  0.2183
 8519TIP3    H225480   5.133   4.613   2.678  0.8576 -0.5925 -1.1663
 8520TIP3   OH225481   8.265   1.821   1.006  0.3597  0.2595 -0.5107
 8520TIP3    H125482   8.206   1.793   1.076  0.7467  0.3838 -0.1327
 8520TIP3    H225483   8.298   1.906   1.035  0.6717  0.2216 -0.7553
 8521TIP3   OH225484   3.500   3.567   0.289 -0.6881 -0.1020 -0.2704
 8521TIP3    H125485   3.434   3.507   0.253 -0.7896  0.6186 -1.3493
 8521TIP3    H225486   3.449   3.637   0.331 -0.8143  1.9293 -3.4639
 8522TIP3   OH225487   3.089   7.362   1.097  0.1824  0.5324 -0.3471
 8522TIP3    H125488   3.025   7.300   1.131 -2.6617  2.5694 -1.5037
 8522TIP3    H225489   3.116   7.326   1.013  1.7960 -1.0662  0.7995
 8523TIP3   OH225490   7.754   2.581   2.204 -0.5811  0.5868 -0.1072
 8523TIP3    H125491   7.659   2.566   2.201 -0.5707  0.6817 -1.3021
 8523TIP3    H225492   7.787   2.540   2.124  0.6364 -0.9771  1.1259
 8524TIP3   OH225493   4.521   1.902   5.201 -0.3281  0.1771  0.4700
 8524TIP3    H125494   4.570   1.820   5.205  0.3112  0.5238 -0.1479
 8524TIP3    H225495   4.537   1.936   5.113 -1.2042  0.5928  0.4552
 8525TIP3   OH225496   2.518   6.686   5.699 -0.1290  0.6892  0.4482
 8525TIP3    H125497   2.582   6.731   5.643  0.3526 -1.6077 -0.9889
 8525TIP3    H225498   2.433   6.721   5.672  0.3572  3.1365  1.7685
 8526TIP3   OH225499   7.643   4.869   3.891  0.4237 -0.3562  0.3844
 8526TIP3    H125500   7.593   4.806   3.943  0.8781 -1.0218  0.0323
 8526TIP3    H225501   7.613   4.855   3.801  0.7438 -0.2841  0.2645
 8527TIP3   OH225502   5.026   5.896   4.101 -0.5911 -0.0548  0.1050
 8527TIP3    H125503   5.088   5.966   4.118 -0.9158 -0.1322  1.7483
 8527TIP3    H225504   4.940   5.938   4.108 -0.7695 -0.4387  0.2864
 8528TIP3   OH225505   8.423   4.163   2.367 -0.0008  0.0759  0.0423
 8528TIP3    H125506   8.403   4.070   2.363 -0.1663  0.0628  0.9545
 8528TIP3    H225507   8.471   4.174   2.449 -0.6588  0.9148  0.3331
 8529TIP3   OH225508   6.313   5.769   6.758 -0.1598 -0.2279 -0.6960
 8529TIP3    H125509   6.351   5.729   6.837 -0.1513  2.3574  0.7365
 8529TIP3    H225510   6.277   5.852   6.789 -1.1292  0.3941 -3.2701
 8530TIP3   OH225511   7.989   2.353   3.781  0.2107  0.3861  0.7238
 8530TIP3    H125512   8.077   2.393   3.783 -0.4037  1.8588  0.0913
 8530TIP3    H225513   7.929   2.428   3.781 -1.0063 -0.5290 -0.9419
 8531TIP3   OH225514   7.471   3.311   3.806 -0.1840 -0.1797  0.3781
 8531TIP3    H125515   7.397   3.368   3.789 -0.5526 -0.7894 -0.1328
 8531TIP3    H225516   7.547   3.369   3.807 -0.6545  0.4285  0.7621
 8532TIP3   OH225517   4.933   3.070   4.422  0.1540 -0.6946  0.3244
 8532TIP3    H125518   4.977   3.094   4.503  1.5001  3.2716 -1.3258
 8532TIP3    H225519   4.840   3.080   4.441  0.4820  0.9186  1.2513
 8533TIP3   OH225520   3.767   4.823   5.143 -0.1554 -0.0709 -0.3572
 8533TIP3    H125521   3.773   4.843   5.050  0.5500 -1.4486 -0.6383
 8533TIP3    H225522   3.706   4.750   5.149  1.2253 -1.2592  0.0046
 8534TIP3   OH225523   5.097   6.686   4.832  0.5944 -0.1449  0.5034
 8534TIP3    H125524   5.081   6.593   4.818 -0.6827  0.3018 -1.2583
 8534TIP3    H225525   5.012   6.723   4.855  0.5795  0.9724 -1.1968
 8535TIP3   OH225526   3.367   7.679   3.881  0.1823 -0.3481 -0.2892
 8535TIP3    H125527   3.393   7.684   3.788  1.9859 -2.0296  0.0569
 8535TIP3    H225528   3.428   7.738   3.925  0.5855 -0.9960  0.0296
 8536TIP3   OH225529   0.919   5.632   0.343  0.4674  0.2308 -0.1442
 8536TIP3    H125530   0.895   5.562   0.283  0.1484  0.0954  0.1392
 8536TIP3    H225531   0.853   5.700   0.330  0.7916  0.4963 -0.4399
 8537TIP3   OH225532   2.699   0.316   0.575  0.0952  0.2682 -0.5880
 8537TIP3    H125533   2.611   0.293   0.605  0.3572 -0.4571 -0.3525
 8537TIP3    H225534   2.685   0.386   0.511 -0.7888 -1.0331 -1.8757
 8538TIP3   OH225535   7.034   6.127   5.615  0.6048 -0.3114  0.0524
 8538TIP3    H125536   6.984   6.076   5.551 -1.2744  1.2366  0.1760
 8538TIP3    H225537   6.988   6.113   5.697  0.9772  0.3760  0.3822
 8539TIP3   OH225538   0.776   3.576   6.473  0.0799  0.1595  0.0502
 8539TIP3    H125539   0.817   3.662   6.476 -0.0368  0.2817 -1.2643
 8539TIP3    H225540   0.714   3.582   6.401 -0.3008 -0.8656  0.2829
 8540TIP3   OH225541   6.944   2.579   2.167 -0.6051 -0.0082 -0.1207
 8540TIP3    H125542   6.979   2.492   2.185 -1.0658  0.1397  1.5848
 8540TIP3    H225543   7.006   2.617   2.105  1.1172 -0.5458  1.2016
 8541TIP3   OH225544   0.352   5.376   5.792 -0.2766  0.1231 -0.1444
 8541TIP3    H125545   0.369   5.383   5.698  0.7994 -0.2560 -0.0014
 8541TIP3    H225546   0.394   5.453   5.829  0.1088 -0.2032  0.1084
 8542TIP3   OH225547   1.399   2.331   5.961  0.2431  0.1133 -0.3623
 8542TIP3    H125548   1.438   2.416   5.943  0.7010  0.1957  0.8854
 8542TIP3    H225549   1.406   2.282   5.880  1.4940  0.6896 -0.6104
 8543TIP3   OH225550   6.115   4.374   1.118 -0.2590 -0.3781  0.2181
 8543TIP3    H125551   6.121   4.365   1.213  0.2549 -0.0009  0.2254
 8543TIP3    H225552   6.023   4.396   1.102 -0.6032 -1.5292  0.5303
 8544TIP3   OH225553   7.047   6.756   2.247  0.2592  0.1097 -0.2625
 8544TIP3    H125554   6.962   6.800   2.237 -0.2308 -0.6253  0.4917
 8544TIP3    H225555   7.028   6.680   2.303  1.3113 -0.3772 -0.5410
 8545TIP3   OH225556   2.301   4.309   6.823 -0.3364  0.3797  0.6084
 8545TIP3    H125557   2.364   4.366   6.781 -1.0233  0.4923 -0.2935
 8545TIP3    H225558   2.304   4.334   6.916 -0.9363  2.1908  0.1735
 8546TIP3   OH225559   1.993   5.430   4.523 -0.3809 -0.2997 -0.2016
 8546TIP3    H125560   2.079   5.395   4.545  0.7439  0.6998 -2.5803
 8546TIP3    H225561   1.940   5.353   4.503 -1.0743 -1.1493  4.0880
 8547TIP3   OH225562   3.073   1.389   5.634 -0.4161 -0.1898 -0.1861
 8547TIP3    H125563   3.143   1.344   5.587 -0.3987  0.1538 -0.4927
 8547TIP3    H225564   3.108   1.401   5.722  1.1447  2.5952 -1.0627
 8548TIP3   OH225565   6.864   4.770   4.122 -0.3905 -0.4011  0.2763
 8548TIP3    H125566   6.822   4.781   4.207 -1.6586  0.8616 -0.4736
 8548TIP3    H225567   6.950   4.733   4.142 -1.8444 -3.2385  1.8403
 8549TIP3   OH225568   4.837   0.150   6.950  0.1566  0.3064 -0.0185
 8549TIP3    H125569   4.887   0.211   6.896 -0.0165  0.7523  0.3243
 8549TIP3    H225570   4.747   0.158   6.917  0.1392  0.2135  0.0067
 8550TIP3   OH225571   0.200   1.398   2.961 -0.1639  0.0810  0.6217
 8550TIP3    H125572   0.257   1.369   2.890  1.3555  0.4101  1.6634
 8550TIP3    H225573   0.111   1.391   2.925  0.6041  1.4158 -1.7238
 8551TIP3   OH225574   8.157   7.663   2.740  0.1384 -0.3642  0.0294
 8551TIP3    H125575   8.174   7.572   2.762 -0.9425 -0.9583 -1.4334
 8551TIP3    H225576   8.118   7.700   2.819  3.1307 -0.3279  1.6617
 8552TIP3   OH225577   2.293   5.138   4.359 -0.7745 -0.2739  0.4066
 8552TIP3    H125578   2.246   5.055   4.359 -0.9607 -0.1753 -0.1389
 8552TIP3    H225579   2.382   5.115   4.382 -0.5068 -0.8300 -1.0341
 8553TIP3   OH225580   3.216   7.708   1.617  0.1229 -0.4735  0.1256
 8553TIP3    H125581   3.255   7.626   1.587  0.1099 -0.9825  1.4420
 8553TIP3    H225582   3.291   7.766   1.632  0.1994 -0.5982  0.2246
 8554TIP3   OH225583   1.518   3.267   2.659 -0.1661  0.2192 -0.1047
 8554TIP3    H125584   1.591   3.225   2.705  0.4726  1.6586  0.2501
 8554TIP3    H225585   1.439   3.227   2.697  0.4119 -0.4438  0.4116
 8555TIP3   OH225586   6.924   0.953   2.219  0.0158 -0.0109 -0.0810
 8555TIP3    H125587   6.854   0.887   2.218  0.0056 -0.0062  0.2602
 8555TIP3    H225588   6.897   1.017   2.153 -0.8846  0.5800  0.8282
 8556TIP3   OH225589   3.678   8.156   3.875 -0.1952 -0.2326 -0.2841
 8556TIP3    H125590   3.730   8.076   3.861  2.1423  0.7949  1.7060
 8556TIP3    H225591   3.737   8.227   3.852 -1.5072  0.9845 -0.0154
 8557TIP3   OH225592   6.863   7.404   3.925  0.4241 -0.6526  0.1946
 8557TIP3    H125593   6.794   7.371   3.868  0.6400 -0.0605 -0.4301
 8557TIP3    H225594   6.912   7.466   3.870  0.3961  0.2378  1.1296
 8558TIP3   OH225595   3.048   1.629   2.407 -0.0799 -0.2085 -0.3122
 8558TIP3    H125596   3.140   1.618   2.383  0.0302  0.2404 -0.1099
 8558TIP3    H225597   3.003   1.556   2.365  0.5662 -1.2341  0.7281
 8559TIP3   OH225598   2.443   1.066   4.148  0.1202 -0.0886 -0.1461
 8559TIP3    H125599   2.415   0.988   4.100  0.1549 -0.1023 -0.1437
 8559TIP3    H225600   2.526   1.091   4.108  0.5864 -0.6014  0.4672
 8560TIP3   OH225601   0.660   0.281   0.897 -0.1624  0.2461 -0.2108
 8560TIP3    H125602   0.717   0.280   0.820  0.9271  2.2355  0.4919
 8560TIP3    H225603   0.703   0.341   0.958 -2.4600  0.9953  0.7894
 8561TIP3   OH225604   3.573   3.664   2.787  0.3532 -0.4556  0.1564
 8561TIP3    H125605   3.509   3.653   2.857 -0.5247 -0.3474 -0.6169
 8561TIP3    H225606   3.534   3.622   2.710  0.6913  0.6050 -0.6297
 8562TIP3   OH225607   3.025   4.693   1.562 -0.4743 -0.2260 -0.0843
 8562TIP3    H125608   2.947   4.742   1.587 -0.5748 -0.6123  0.3747
 8562TIP3    H225609   3.015   4.679   1.468  0.2569  1.8683 -0.5313
 8563TIP3   OH225610   6.798   7.169   1.915 -0.1328  0.2360  0.2565
 8563TIP3    H125611   6.867   7.234   1.904 -1.8363  1.9589 -0.9543
 8563TIP3    H225612   6.765   7.184   2.004 -0.7388  1.2985 -0.1329
 8564TIP3   OH225613   0.614   5.030   2.670 -0.7769 -0.0664 -0.6543
 8564TIP3    H125614   0.638   5.015   2.761 -0.4901  0.0546 -0.7094
 8564TIP3    H225615   0.524   4.997   2.663 -2.3232  3.4122  0.6638
 8565TIP3   OH225616   7.108   3.333   5.766  0.7830 -0.1230 -0.6828
 8565TIP3    H125617   7.043   3.371   5.707 -2.4392 -1.8048  1.4636
 8565TIP3    H225618   7.117   3.243   5.736  1.1986 -0.2312 -0.2360
 8566TIP3   OH225619   2.658   3.848   4.063  0.2371  0.2640  0.0751
 8566TIP3    H125620   2.644   3.873   4.155 -4.0336 -3.1288  0.6897
 8566TIP3    H225621   2.703   3.764   4.068 -0.7271 -0.3271 -0.8250
 8567TIP3   OH225622   3.964   6.249   6.992 -0.1776  0.1695  0.0409
 8567TIP3    H125623   4.038   6.308   6.975 -2.1651  2.3402 -1.6458
 8567TIP3    H225624   3.995   6.163   6.964  1.7307  0.9943 -0.5382
 8568TIP3   OH225625   1.349   2.687   3.497 -0.4970  0.3201  0.3562
 8568TIP3    H125626   1.316   2.714   3.583 -0.8919  0.7313  0.0755
 8568TIP3    H225627   1.328   2.594   3.492 -0.4261  0.2826  0.7276
 8569TIP3   OH225628   4.132   6.214   6.703  0.1744  0.1246 -0.2025
 8569TIP3    H125629   4.072   6.216   6.628 -1.9664  0.5028  1.4250
 8569TIP3    H225630   4.114   6.130   6.746  1.4024 -0.1032 -0.0876
 8570TIP3   OH225631   1.035   3.379   5.428 -0.3936  0.2410 -0.7051
 8570TIP3    H125632   1.099   3.370   5.357  0.5901 -0.4572  0.2446
 8570TIP3    H225633   1.053   3.305   5.486 -2.4055 -0.2645 -0.6651
 8571TIP3   OH225634   8.384   4.217   5.216 -0.0308 -0.2764  0.0710
 8571TIP3    H125635   8.389   4.123   5.232  1.3307 -0.3107 -0.3832
 8571TIP3    H225636   8.297   4.231   5.180 -0.4115 -1.2939  0.5755
 8572TIP3   OH225637   4.961   3.619   5.568  0.0415 -0.0390  0.5439
 8572TIP3    H125638   4.961   3.524   5.556 -1.7929 -0.2396  1.8248
 8572TIP3    H225639   4.904   3.653   5.499  0.7401  0.1772  0.0505
 8573TIP3   OH225640   7.145   1.580   3.387  0.0672 -0.1778  0.5990
 8573TIP3    H125641   7.127   1.547   3.299 -1.3442  0.3261  0.6601
 8573TIP3    H225642   7.237   1.606   3.385  0.1373 -0.4649 -0.6331
 8574TIP3   OH225643   1.191   7.984   3.820  0.1535 -0.5125  0.1973
 8574TIP3    H125644   1.198   8.065   3.871 -1.7254 -0.4650  0.4516
 8574TIP3    H225645   1.239   8.002   3.739  1.3298  0.1860  1.0358
 8575TIP3   OH225646   2.340   6.057   5.372  0.3406  0.3223 -0.4933
 8575TIP3    H125647   2.418   6.100   5.409 -0.1720  1.3483 -0.5765
 8575TIP3    H225648   2.344   6.077   5.279  0.7705 -0.9147 -0.7666
 8576TIP3   OH225649   2.964   2.892   2.137  0.1196 -0.1110  0.0467
 8576TIP3    H125650   2.897   2.823   2.130  0.8388 -0.7220 -1.2063
 8576TIP3    H225651   2.916   2.973   2.126 -0.6769 -0.4346  1.0273
 8577TIP3   OH225652   4.623   2.644   2.916 -0.9711 -0.5330  0.0260
 8577TIP3    H125653   4.574   2.658   2.835  1.9627  1.3663 -1.6123
 8577TIP3    H225654   4.710   2.616   2.887  0.0052 -0.3562  2.5333
 8578TIP3   OH225655   8.269   8.192   7.067 -0.1222  0.2899  0.0346
 8578TIP3    H125656   8.267   8.108   7.021 -1.2426  0.5895 -0.4971
 8578TIP3    H225657   8.284   8.257   6.998  3.8606  0.3855  0.7490
 8579TIP3   OH225658   6.983   3.028   1.860  0.0401  0.3008  0.3566
 8579TIP3    H125659   6.975   3.120   1.836  2.5591  0.2800 -0.9833
 8579TIP3    H225660   6.906   2.986   1.820  0.9246  1.2618 -2.6784
 8580TIP3   OH225661   2.586   5.552   2.088  0.2746 -0.0690 -0.2532
 8580TIP3    H125662   2.674   5.565   2.050 -0.0421  1.5582 -0.5159
 8580TIP3    H225663   2.586   5.461   2.118  1.2937 -0.7774 -2.2247
 8581TIP3   OH225664   0.092   0.641   0.367 -0.2528  0.1519  0.1093
 8581TIP3    H125665   0.054   0.580   0.304  1.6968 -0.3256 -0.7022
 8581TIP3    H225666   0.186   0.639   0.348  0.0414  2.3802  0.9887
 8582TIP3   OH225667   5.761   6.523   3.440 -0.1562  0.2033  0.0970
 8582TIP3    H125668   5.824   6.534   3.370 -1.1730  0.2955 -0.8377
 8582TIP3    H225669   5.714   6.442   3.417  0.0443 -0.2110  1.1073
 8583TIP3   OH225670   0.302   6.170   0.482  0.0201 -0.2653 -0.4167
 8583TIP3    H125671   0.299   6.102   0.549 -0.3999  0.9379  0.8182
 8583TIP3    H225672   0.269   6.127   0.403 -1.6297 -1.1194  0.6731
 8584TIP3   OH225673   1.476   7.915   5.369  0.2579  0.2003 -0.4501
 8584TIP3    H125674   1.487   7.853   5.441 -0.3626 -0.4915 -0.9489
 8584TIP3    H225675   1.403   7.971   5.397 -0.1800 -0.2588 -0.6747
 8585TIP3   OH225676   3.665   4.755   3.283  0.0783 -0.2537 -0.3148
 8585TIP3    H125677   3.636   4.834   3.238 -1.2800 -1.1246 -1.0345
 8585TIP3    H225678   3.602   4.688   3.257  0.4664 -1.2877  1.2780
 8586TIP3   OH225679   1.607   2.354   4.426 -0.0838  0.4720  0.4363
 8586TIP3    H125680   1.564   2.360   4.511 -2.4120 -0.5203 -0.6114
 8586TIP3    H225681   1.571   2.276   4.384  1.7609  0.3332 -1.0963
 8587TIP3   OH225682   2.616   6.728   4.869 -0.2676 -0.1508  0.1862
 8587TIP3    H125683   2.634   6.808   4.818 -0.2572 -0.4906 -0.3576
 8587TIP3    H225684   2.667   6.739   4.949  1.1997 -0.4014 -0.6595
 8588TIP3   OH225685   3.450   7.524   1.755 -0.0574  0.6833 -0.0877
 8588TIP3    H125686   3.527   7.508   1.810 -0.6423  0.6470  0.7435
 8588TIP3    H225687   3.400   7.443   1.761 -0.1438  0.6926 -0.6616
 8589TIP3   OH225688   2.218   0.432   1.368 -0.2343  0.1904  0.3756
 8589TIP3    H125689   2.264   0.433   1.452 -1.4915 -1.9002  1.1757
 8589TIP3    H225690   2.261   0.362   1.318 -1.4290 -0.6592  0.4974
 8590TIP3   OH225691   2.680   3.845   1.421  0.1962 -0.0874 -0.0143
 8590TIP3    H125692   2.707   3.932   1.448  0.6962  0.2148 -1.4239
 8590TIP3    H225693   2.603   3.826   1.475  1.8740 -0.0922  2.5749
 8591TIP3   OH225694   2.529   3.023   4.025 -0.3725  0.4982 -0.0713
 8591TIP3    H125695   2.468   2.963   4.067  0.9706 -1.6635 -1.0389
 8591TIP3    H225696   2.486   3.049   3.944 -0.1268 -0.9039 -0.6813
 8592TIP3   OH225697   6.793   5.785   4.417 -0.3998 -0.0503  0.0536
 8592TIP3    H125698   6.784   5.704   4.467  1.6791 -0.8546 -0.7575
 8592TIP3    H225699   6.731   5.776   4.345  0.8200 -1.6905 -0.8896
 8593TIP3   OH225700   0.422   8.155   3.254  0.6796 -0.1612  0.2533
 8593TIP3    H125701   0.354   8.093   3.228  2.5758 -1.7821 -1.1082
 8593TIP3    H225702   0.428   8.216   3.180 -0.5584  1.1587  1.2001
 8594TIP3   OH225703   6.409   3.997   3.164 -0.1040 -0.3667  0.1961
 8594TIP3    H125704   6.477   3.940   3.128 -0.4194 -0.4672 -0.2452
 8594TIP3    H225705   6.429   4.084   3.130 -1.2081 -0.6999 -1.4090
 8595TIP3   OH225706   4.774   2.932   2.196  0.0101 -0.2277  0.0500
 8595TIP3    H125707   4.700   2.950   2.138 -0.0880  0.2503  0.3215
 8595TIP3    H225708   4.804   2.845   2.170 -0.9530 -0.6344  0.2600
 8596TIP3   OH225709   3.097   7.656   2.723 -0.5608 -0.4731  0.6576
 8596TIP3    H125710   3.087   7.691   2.812 -2.1806 -0.5508  0.5472
 8596TIP3    H225711   3.013   7.674   2.681  0.3836  0.0854 -1.0680
 8597TIP3   OH225712   2.352   1.329   0.220 -0.0041  0.1470  0.4275
 8597TIP3    H125713   2.418   1.390   0.254 -0.2555 -0.0280  1.2477
 8597TIP3    H225714   2.352   1.344   0.125  0.9517  0.4082  0.4598
 8598TIP3   OH225715   3.595   7.239   7.097  0.0631 -0.0625  0.2719
 8598TIP3    H125716   3.559   7.213   7.013  1.9104  1.0143 -0.9348
 8598TIP3    H225717   3.687   7.212   7.094  0.6481  1.6537  1.1463
 8599TIP3   OH225718   0.455   2.638   6.906  0.2153 -0.1929 -0.0480
 8599TIP3    H125719   0.543   2.675   6.893  0.1451 -0.1563 -0.4247
 8599TIP3    H225720   0.423   2.681   6.985 -0.3262  1.4538 -1.1092
 8600TIP3   OH225721   7.234   6.056   0.001  0.5264 -0.1801 -0.6378
 8600TIP3    H125722   7.209   5.997   0.073  4.1207 -1.5063 -0.2541
 8600TIP3    H225723   7.171   6.128   0.006 -1.6011 -2.0044  1.4581
 8601TIP3   OH225724   8.485   3.238   4.248  0.2120  0.5770 -0.2445
 8601TIP3    H125725   8.406   3.263   4.297 -0.8823  0.4079 -1.8479
 8601TIP3    H225726   8.470   3.146   4.224  0.9896  0.4865 -0.3954
 8602TIP3   OH225727   3.927   4.386   5.530 -0.4673 -0.2249 -0.0086
 8602TIP3    H125728   3.950   4.475   5.556  0.0514  0.1024 -1.5053
 8602TIP3    H225729   3.995   4.360   5.468 -2.2958 -0.4318 -2.0750
 8603TIP3   OH225730   5.064   2.804   5.993 -0.1198 -0.0895  0.0732
 8603TIP3    H125731   5.133   2.797   6.059  0.4229 -1.6075 -0.6098
 8603TIP3    H225732   5.098   2.866   5.928  1.0241 -1.4564 -0.6921
 8604TIP3   OH225733   7.109   6.052   6.605  0.0529 -0.3368 -0.5471
 8604TIP3    H125734   7.043   6.114   6.634 -0.4108 -1.7364  1.7437
 8604TIP3    H225735   7.169   6.103   6.551 -1.8868  1.3707 -1.2185
 8605TIP3   OH225736   6.472   5.587   6.916 -0.1072 -0.3933 -0.3538
 8605TIP3    H125737   6.508   5.501   6.896  2.5737  0.7372 -0.8439
 8605TIP3    H225738   6.528   5.621   6.985 -0.5877  1.2950 -0.7454
 8606TIP3   OH225739   5.523   5.673   3.696  0.0985  0.5553 -0.3015
 8606TIP3    H125740   5.506   5.589   3.738  2.2060  0.6458  0.8495
 8606TIP3    H225741   5.456   5.732   3.732 -0.8405 -0.3991 -0.4443
 8607TIP3   OH225742   8.489   5.991   2.104 -0.2547  0.2067 -0.2314
 8607TIP3    H125743   8.430   5.944   2.162  0.5056  1.7425  1.8851
 8607TIP3    H225744   8.576   5.977   2.141 -0.0340  3.6337  0.8853
 8608TIP3   OH225745   2.481   1.467   6.779 -0.0676 -0.2697 -0.1895
 8608TIP3    H125746   2.433   1.419   6.846  0.2021 -0.1160  0.1185
 8608TIP3    H225747   2.568   1.481   6.817 -0.3903  1.1993  0.0828
 8609TIP3   OH225748   1.589   2.812   3.540  0.0673 -0.0042  0.4805
 8609TIP3    H125749   1.645   2.753   3.489 -0.2684  1.0147 -1.1421
 8609TIP3    H225750   1.500   2.778   3.526 -0.0906  0.6404 -0.1813
 8610TIP3   OH225751   5.757   2.856   6.996 -0.5193 -0.4090 -0.4721
 8610TIP3    H125752   5.700   2.928   6.972 -0.8197 -0.3694  0.3499
 8610TIP3    H225753   5.738   2.839   7.088  0.5191 -0.6470 -0.2886
 8611TIP3   OH225754   0.378   1.091   4.879 -0.0016  0.5914 -0.1606
 8611TIP3    H125755   0.365   1.051   4.793 -1.2367 -1.3021  0.8400
 8611TIP3    H225756   0.439   1.163   4.863  0.8060 -0.5038 -2.3840
 8612TIP3   OH225757  -0.028   6.801   1.049  0.5756  0.1023 -0.6653
 8612TIP3    H125758   0.058   6.780   1.014  0.7083  1.6340 -1.3023
 8612TIP3    H225759  -0.011   6.824   1.141  1.0859  1.7906 -1.1483
 8613TIP3   OH225760   5.424   6.779   3.393  0.1428  0.4350 -0.0595
 8613TIP3    H125761   5.475   6.717   3.446 -1.1223 -0.3322  0.2926
 8613TIP3    H225762   5.346   6.730   3.368 -0.6935  1.7637 -0.1219
 8614TIP3   OH225763   6.315   1.549   3.466 -0.2990  0.1411 -0.3504
 8614TIP3    H125764   6.406   1.527   3.447  0.4583  0.7315  2.2637
 8614TIP3    H225765   6.313   1.644   3.464 -0.6684  0.1511  0.3596
 8615TIP3   OH225766   2.622   2.641   4.776 -0.0235 -0.1827  0.2990
 8615TIP3    H125767   2.568   2.567   4.751  0.5674 -0.3544 -0.5299
 8615TIP3    H225768   2.560   2.708   4.804 -0.6324 -0.5336 -0.1883
 8616TIP3   OH225769   7.426   4.993   5.689  0.0071 -0.4969 -0.0666
 8616TIP3    H125770   7.519   4.968   5.686  0.1053 -0.1770  0.2794
 8616TIP3    H225771   7.387   4.948   5.614  0.4323 -0.6752 -0.1843
 8617TIP3   OH225772   3.994   0.052   3.068  0.4128  0.0879  0.0156
 8617TIP3    H125773   4.025  -0.038   3.054 -2.1226 -1.2066  1.8923
 8617TIP3    H225774   4.073   0.106   3.063  2.2338 -2.3981  0.1430
 8618TIP3   OH225775   3.567   6.230   1.155 -0.0851 -0.6349 -0.6944
 8618TIP3    H125776   3.553   6.303   1.095 -0.6885  0.6383  0.9004
 8618TIP3    H225777   3.572   6.153   1.099  0.6588  0.6287 -2.4515
 8619TIP3   OH225778   4.679   4.663   2.274 -0.0428  0.3379  0.3677
 8619TIP3    H125779   4.669   4.586   2.218 -2.0355  0.1784  0.8811
 8619TIP3    H225780   4.769   4.693   2.257  0.7198 -1.9532  0.0171
 8620TIP3   OH225781   0.304   3.491   0.887  0.0753  0.5056  0.0008
 8620TIP3    H125782   0.327   3.516   0.976 -3.0442 -1.4874  1.5400
 8620TIP3    H225783   0.215   3.524   0.874 -1.1988 -2.7582 -0.6975
 8621TIP3   OH225784   6.015   3.016   0.820 -0.1683  0.0766  0.3512
 8621TIP3    H125785   5.920   3.028   0.818 -0.2242  0.7356  3.0300
 8621TIP3    H225786   6.048   3.070   0.748 -1.8028 -0.1378 -0.6036
 8622TIP3   OH225787   6.403   3.070   0.486  0.0119 -0.0565  0.4325
 8622TIP3    H125788   6.488   3.060   0.527 -0.1487  0.7477  0.9833
 8622TIP3    H225789   6.422   3.073   0.392  0.6518  0.6441  0.5750
 8623TIP3   OH225790   4.818   5.972   0.660  0.1527 -0.4842  0.3865
 8623TIP3    H125791   4.890   6.001   0.604  0.2064  1.8023  1.5124
 8623TIP3    H225792   4.860   5.915   0.726  1.0951  1.2131  1.3319
 8624TIP3   OH225793   0.013   6.363   0.520  0.4162 -0.4635 -0.5774
 8624TIP3    H125794   0.085   6.337   0.577  0.0128 -0.3279  0.0046
 8624TIP3    H225795   0.040   6.448   0.485  0.2955 -0.1389  0.0947
 8625TIP3   OH225796   6.865   6.404   5.995  0.3526 -0.6939 -0.3157
 8625TIP3    H125797   6.945   6.451   6.019 -0.2178 -0.7505  1.9859
 8625TIP3    H225798   6.836   6.446   5.915  1.9187  0.2794 -0.4314
 8626TIP3   OH225799   6.714   5.015   1.259  0.1033 -0.2562 -0.4383
 8626TIP3    H125800   6.706   5.102   1.219 -0.2339 -0.2977 -0.4637
 8626TIP3    H225801   6.641   5.010   1.321  1.0603  0.0980  0.7478
 8627TIP3   OH225802   4.904   2.382   2.704 -0.3505 -0.7740 -0.0434
 8627TIP3    H125803   4.977   2.375   2.642  0.8292  2.6718  0.7535
 8627TIP3    H225804   4.945   2.413   2.785 -2.4077 -1.2924  1.2718
 8628TIP3   OH225805   0.393   3.873   2.667  1.3423  0.3620 -0.1406
 8628TIP3    H125806   0.403   3.856   2.761  0.4756 -0.2698 -0.1578
 8628TIP3    H225807   0.411   3.967   2.658  1.7669  0.3600  0.6030
 8629TIP3   OH225808   6.242   5.027   7.022 -0.2481 -0.2541  0.0448
 8629TIP3    H125809   6.198   5.101   6.981  0.5329  1.3142  1.8516
 8629TIP3    H225810   6.321   5.013   6.970 -0.4617  0.1018 -0.3763
 8630TIP3   OH225811   3.788   1.933   2.114 -0.4789  0.1444  0.2515
 8630TIP3    H125812   3.772   1.945   2.208 -0.1437 -2.6190  0.7502
 8630TIP3    H225813   3.705   1.956   2.073 -0.8649  0.6715  1.2876
 8631TIP3   OH225814   0.557   2.492   4.916  0.6702 -0.0187  0.3395
 8631TIP3    H125815   0.577   2.582   4.941  1.0531 -0.1196  0.4100
 8631TIP3    H225816   0.560   2.492   4.821  1.6522 -0.1679  0.3594
 8632TIP3   OH225817   6.745   1.954   5.747  0.2643 -0.0170 -0.0900
 8632TIP3    H125818   6.750   1.908   5.663 -0.7996  1.6070 -1.0960
 8632TIP3    H225819   6.703   1.891   5.806 -0.7994 -0.5139 -1.3176
 8633TIP3   OH225820   7.070   5.291   4.185 -0.0196  0.1910 -0.3318
 8633TIP3    H125821   6.980   5.321   4.170 -0.2401  0.9015  2.0119
 8633TIP3    H225822   7.069   5.199   4.160 -1.3096  0.2777 -0.6829
 8634TIP3   OH225823   0.160   2.960   5.484 -0.7507 -0.3621 -0.1812
 8634TIP3    H125824   0.162   2.870   5.515  0.2842 -0.4846 -0.5428
 8634TIP3    H225825   0.200   2.956   5.397 -0.1492  0.5194  0.0383
 8635TIP3   OH225826   7.077   6.836   0.859 -0.0004 -0.2476 -0.5045
 8635TIP3    H125827   7.129   6.758   0.844 -1.3648 -1.3092  0.0564
 8635TIP3    H225828   7.041   6.858   0.773 -0.3901 -0.8369 -0.5009
 8636TIP3   OH225829   3.142   0.167   5.970 -0.2105  0.2361  0.6040
 8636TIP3    H125830   3.237   0.168   5.959 -0.3630  1.0735 -1.0226
 8636TIP3    H225831   3.119   0.259   5.988 -0.8447  0.3885 -0.8193
 8637TIP3   OH225832   7.490   7.982   4.649 -0.2952 -0.2172 -0.1370
 8637TIP3    H125833   7.466   7.914   4.711  0.0724 -0.4751 -0.2729
 8637TIP3    H225834   7.458   8.063   4.687 -0.3454 -0.4148  0.2376
 8638TIP3   OH225835   8.507   0.963   6.777 -0.1667 -0.8674  0.3497
 8638TIP3    H125836   8.600   0.978   6.765 -0.6376  0.7664 -2.1313
 8638TIP3    H225837   8.491   0.978   6.870  1.4648  2.7120  0.1819
 8639TIP3   OH225838   8.685   8.230   2.385 -0.2006 -0.0572 -0.9505
 8639TIP3    H125839   8.638   8.203   2.464  0.2081 -0.3523 -0.8045
 8639TIP3    H225840   8.693   8.151   2.333  0.0846  0.0038 -1.0002
 8640TIP3   OH225841   8.261   3.396   2.298 -0.2255 -0.5056  0.4418
 8640TIP3    H125842   8.342   3.346   2.296  0.5772  0.6868  1.7218
 8640TIP3    H225843   8.221   3.379   2.212  2.1610  0.1365 -0.8958
 8641TIP3   OH225844   0.929   7.518   6.729  0.2825  0.4982  0.1391
 8641TIP3    H125845   0.913   7.599   6.681  1.9359  1.6007  1.3343
 8641TIP3    H225846   0.846   7.499   6.772 -0.4774  0.8688 -1.1180
 8642TIP3   OH225847   4.774   1.669   3.365  0.6324 -0.3304 -0.0372
 8642TIP3    H125848   4.712   1.742   3.358 -0.2507 -0.7213  2.5770
 8642TIP3    H225849   4.719   1.593   3.383  1.7920 -0.8671  1.3840
 8643TIP3   OH225850   4.918   0.852   1.437 -0.0811  0.7375  0.4289
 8643TIP3    H125851   4.921   0.850   1.532 -0.9121 -1.1261  0.4597
 8643TIP3    H225852   5.010   0.861   1.410  0.4242 -0.9772  1.4146
 8644TIP3   OH225853   3.951   0.316   6.427 -0.0361  0.3602 -0.2586
 8644TIP3    H125854   3.887   0.293   6.360  0.9240  1.1209 -1.5019
 8644TIP3    H225855   3.964   0.411   6.415  0.9630  0.3024  0.2647
 8645TIP3   OH225856   0.057   0.446   5.645  0.0002  0.1117  0.0012
 8645TIP3    H125857   0.106   0.529   5.647  2.9406 -1.5117  1.6422
 8645TIP3    H225858  -0.031   0.471   5.673  0.8256  2.6621  0.6741
 8646TIP3   OH225859   8.514   3.435   4.029 -0.1654  0.4054 -0.5398
 8646TIP3    H125860   8.507   3.386   4.111 -0.7984  0.2324 -0.6951
 8646TIP3    H225861   8.492   3.372   3.961  0.9615  0.3830 -0.9029
 8647TIP3   OH225862   4.627   6.527   7.022 -0.6150 -0.8594 -0.4671
 8647TIP3    H125863   4.611   6.439   7.054  1.0682 -1.2661 -0.6241
 8647TIP3    H225864   4.719   6.526   6.994 -0.8990  0.6004 -1.5948
 8648TIP3   OH225865   1.265   7.864   4.442  0.3688  0.2127 -0.3235
 8648TIP3    H125866   1.185   7.835   4.398  0.0224  0.4454  0.1446
 8648TIP3    H225867   1.289   7.946   4.398 -0.0744  0.5377  0.0329
 8649TIP3   OH225868   4.705   3.219   6.918 -0.2157 -0.3136 -0.1142
 8649TIP3    H125869   4.615   3.187   6.922  0.1123 -1.1651  1.4264
 8649TIP3    H225870   4.736   3.191   6.831 -1.1720 -0.7329 -0.3379
 8650TIP3   OH225871   5.595   5.910   4.887  0.0860 -0.7184 -0.1197
 8650TIP3    H125872   5.531   5.981   4.879  1.1868  0.0780 -2.6767
 8650TIP3    H225873   5.591   5.885   4.980 -2.2516  0.8276  0.2934
 8651TIP3   OH225874   4.553   7.983   4.852  0.2047  0.2327  0.0417
 8651TIP3    H125875   4.478   7.985   4.792 -0.6602 -0.7572  1.0261
 8651TIP3    H225876   4.587   7.894   4.844  0.5478  0.3251  0.4392
 8652TIP3   OH225877   7.751   4.206   2.937  0.2439 -0.4714  0.7368
 8652TIP3    H125878   7.694   4.272   2.977  0.5544  0.1200  0.2032
 8652TIP3    H225879   7.830   4.253   2.914  0.1574 -0.8536 -0.3828
 8653TIP3   OH225880   1.710   1.138   1.042  0.3029  0.3211 -0.2120
 8653TIP3    H125881   1.753   1.144   0.957 -0.4447  3.3931 -0.4968
 8653TIP3    H225882   1.625   1.181   1.029  0.7644  2.2574  2.3807
 8654TIP3   OH225883   2.642   7.639   1.620  0.3636 -0.2162 -0.2737
 8654TIP3    H125884   2.685   7.558   1.595 -0.2960 -0.5002 -0.5091
 8654TIP3    H225885   2.645   7.640   1.716 -0.1354 -0.8078 -0.2467
 8655TIP3   OH225886   2.236   6.183   1.752  0.0515  0.3170 -0.3838
 8655TIP3    H125887   2.274   6.155   1.835  0.2192  1.7619  0.0443
 8655TIP3    H225888   2.260   6.275   1.744 -1.8172  0.7988 -0.9848
 8656TIP3   OH225889   6.725   3.396   0.392  0.3261  0.3542  0.2622
 8656TIP3    H125890   6.817   3.389   0.367  0.7534 -1.7919  2.0818
 8656TIP3    H225891   6.683   3.322   0.347 -0.0746  0.1117  1.0172
 8657TIP3   OH225892   7.334   6.361   6.787 -0.2694  0.0632  0.2356
 8657TIP3    H125893   7.325   6.351   6.692  2.1043  1.5082 -0.2345
 8657TIP3    H225894   7.428   6.368   6.801 -0.4794 -1.1754  2.8619
 8658TIP3   OH225895   5.423   4.230   3.817  0.2385  0.3912 -0.7278
 8658TIP3    H125896   5.457   4.151   3.858 -0.0906 -0.5538 -2.1752
 8658TIP3    H225897   5.352   4.259   3.873  1.9553  1.1418  1.1744
 8659TIP3   OH225898   7.287   1.943   0.252 -0.1784 -0.1834 -0.2207
 8659TIP3    H125899   7.305   1.926   0.159 -0.5116 -1.3518 -0.0956
 8659TIP3    H225900   7.264   1.857   0.287 -0.3425  0.3003  0.8836
 8660TIP3   OH225901   0.689   6.173   1.289  0.3681 -0.2540  0.2084
 8660TIP3    H125902   0.641   6.158   1.208 -1.1145 -1.2587  1.2271
 8660TIP3    H225903   0.678   6.266   1.307 -0.3616 -0.2807 -0.0928
 8661TIP3   OH225904   3.346   3.178   0.160 -0.6329 -0.7564 -0.3955
 8661TIP3    H125905   3.341   3.236   0.084 -0.2645 -0.4696 -0.2052
 8661TIP3    H225906   3.277   3.114   0.146  0.3524 -1.5906 -1.6992
 8662TIP3   OH225907   4.544   0.567   4.785 -0.2389 -0.5700  0.3690
 8662TIP3    H125908   4.532   0.651   4.828  0.5031  0.4211 -1.2740
 8662TIP3    H225909   4.516   0.581   4.695  1.5786 -1.5724 -0.4019
 8663TIP3   OH225910   6.116   0.816   6.642 -0.0278 -0.2593  0.2960
 8663TIP3    H125911   6.025   0.817   6.671 -0.1999  1.2736 -0.2443
 8663TIP3    H225912   6.123   0.888   6.580  0.6370 -2.5623 -2.5336
 8664TIP3   OH225913   1.541   5.736   4.899  0.0282  0.1603  0.4997
 8664TIP3    H125914   1.624   5.783   4.908 -0.3760  0.4871  4.1919
 8664TIP3    H225915   1.475   5.805   4.889 -0.1225  0.1097  1.1288
 8665TIP3   OH225916   5.274   5.717   2.738  0.0460  0.0453  0.5159
 8665TIP3    H125917   5.198   5.674   2.699 -0.0482 -1.6381  2.3564
 8665TIP3    H225918   5.314   5.767   2.667 -0.5276 -2.2034 -1.5072
 8666TIP3   OH225919   5.312   0.293   5.676 -0.7374  0.6444 -0.1175
 8666TIP3    H125920   5.340   0.206   5.646  0.1965  1.2276 -0.9940
 8666TIP3    H225921   5.237   0.315   5.620 -2.5186 -0.5416  1.6458
 8667TIP3   OH225922   8.390   8.089   0.393 -0.1692  0.4915 -0.0643
 8667TIP3    H125923   8.315   8.148   0.401  0.3891  1.3633 -1.0611
 8667TIP3    H225924   8.467   8.145   0.400  0.3731  0.0468 -1.8785
 8668TIP3   OH225925   6.588   0.425   1.433  0.3782  0.4078 -0.2422
 8668TIP3    H125926   6.538   0.481   1.374  0.0196 -0.7280 -1.0531
 8668TIP3    H225927   6.606   0.346   1.382  1.0808 -0.1226  0.7849
 8669TIP3   OH225928   4.823   5.839   3.237 -0.1273 -0.5104  0.2308
 8669TIP3    H125929   4.880   5.916   3.244 -1.3456  0.4118  0.3124
 8669TIP3    H225930   4.734   5.873   3.248 -0.7338 -1.8696 -0.1722
 8670TIP3   OH225931   8.346   0.048   4.414  0.1594 -0.0708  0.8390
 8670TIP3    H125932   8.334   0.040   4.319 -0.0693 -0.7702  0.9180
 8670TIP3    H225933   8.291   0.122   4.439 -0.7725 -0.6532  0.5882
 8671TIP3   OH225934   4.737   6.052   4.538 -0.2480  0.0258  0.1979
 8671TIP3    H125935   4.816   6.086   4.497  0.6478  1.7483  3.0799
 8671TIP3    H225936   4.668   6.065   4.473  1.6984 -1.1632 -2.2387
 8672TIP3   OH225937   7.881   0.468   4.947 -0.3475  0.2399 -0.8646
 8672TIP3    H125938   7.853   0.388   4.903 -1.2380 -0.6473  1.1553
 8672TIP3    H225939   7.809   0.529   4.934  0.1625  0.6157 -2.0735
 8673TIP3   OH225940   0.993   0.803   0.250 -0.3570 -0.7033  0.1674
 8673TIP3    H125941   0.965   0.763   0.167  1.2283 -0.4744 -0.5145
 8673TIP3    H225942   1.022   0.891   0.225  3.3072 -1.7429  0.3202
 8674TIP3   OH225943   7.313   5.118   3.529 -0.7431  0.2762  0.4428
 8674TIP3    H125944   7.305   5.086   3.619  0.2462 -0.1076  0.4101
 8674TIP3    H225945   7.286   5.045   3.474 -1.9521  0.7184  0.4275
 8675TIP3   OH225946   6.951   6.010   5.053  0.3130 -0.5417 -0.2953
 8675TIP3    H125947   6.958   5.945   4.983 -1.7462 -2.1650  0.8707
 8675TIP3    H225948   6.880   6.068   5.025 -0.3440 -1.0429  0.2874
 8676TIP3   OH225949   2.425   4.136   1.469 -0.0933 -0.6994  0.3035
 8676TIP3    H125950   2.451   4.056   1.514 -0.6802 -0.8782  0.3295
 8676TIP3    H225951   2.332   4.125   1.451 -0.1686 -0.0460  0.2620
 8677TIP3   OH225952   4.418   1.235   5.523  0.1030  0.2657 -0.2769
 8677TIP3    H125953   4.350   1.223   5.457  0.4615 -0.1764 -0.5696
 8677TIP3    H225954   4.410   1.159   5.580 -0.1938  0.6360  0.1908
 8678TIP3   OH225955   4.522   0.862   7.002  0.2139  0.3810 -0.0353
 8678TIP3    H125956   4.576   0.871   6.923  0.9651  1.0633  0.5391
 8678TIP3    H225957   4.569   0.797   7.055  0.0556  0.4118  0.1430
 8679TIP3   OH225958   2.287   6.936   3.172 -0.2398  0.3135 -0.4684
 8679TIP3    H125959   2.285   6.961   3.265 -1.8626  0.0315 -0.3975
 8679TIP3    H225960   2.340   7.004   3.130  1.4522 -0.1324  0.7967
 8680TIP3   OH225961   4.818   3.851   6.495 -0.1419 -0.2694 -0.0484
 8680TIP3    H125962   4.750   3.865   6.430 -0.3536  1.4711  0.5039
 8680TIP3    H225963   4.772   3.840   6.578  0.2099  0.0691  0.1982
 8681TIP3   OH225964   2.557   2.622   1.611  0.8467 -0.0809 -0.7536
 8681TIP3    H125965   2.649   2.601   1.591  1.1457 -1.0234  1.3190
 8681TIP3    H225966   2.529   2.552   1.671 -1.4018 -0.0901 -1.7148
 8682TIP3   OH225967   0.436   5.620   5.275 -0.1262 -0.1773 -0.0256
 8682TIP3    H125968   0.412   5.711   5.294  0.3729 -0.3597  1.6814
 8682TIP3    H225969   0.381   5.596   5.200 -1.0090  1.2092  0.1326
 8683TIP3   OH225970   0.412   1.321   1.649  0.1747 -0.4961 -0.0485
 8683TIP3    H125971   0.463   1.381   1.704  2.7965 -3.2154  0.7330
 8683TIP3    H225972   0.324   1.325   1.685  0.6660  1.4612  1.1318
 8684TIP3   OH225973   5.017   1.746   6.289 -0.3133  0.4016 -1.0905
 8684TIP3    H125974   4.958   1.680   6.327 -0.3374  0.1338 -1.5863
 8684TIP3    H225975   5.065   1.698   6.222  1.9969  0.0572  0.6793
 8685TIP3   OH225976   2.125   6.242   2.529 -0.1815 -0.0419  0.1633
 8685TIP3    H125977   2.135   6.215   2.437  1.7249  1.3352 -0.0879
 8685TIP3    H225978   2.064   6.178   2.566  0.6543 -1.9236 -1.5247
 8686TIP3   OH225979   3.233   6.194   6.813  0.7346 -0.1020  0.5398
 8686TIP3    H125980   3.235   6.178   6.719  0.3299 -1.0064  0.6731
 8686TIP3    H225981   3.141   6.210   6.833  0.7400 -0.4353  0.8561
 8687TIP3   OH225982   8.072   3.774   6.931 -0.6029 -0.1663  0.1762
 8687TIP3    H125983   8.046   3.809   6.846  1.5736  0.9933 -0.0736
 8687TIP3    H225984   8.067   3.848   6.991  1.0507 -0.1251  0.3130
 8688TIP3   OH225985   7.722   4.695   6.871  0.2666 -0.7830  0.1987
 8688TIP3    H125986   7.658   4.749   6.824 -0.5734  0.6640  2.7601
 8688TIP3    H225987   7.673   4.617   6.897 -0.1101 -0.3038  0.9808
 8689TIP3   OH225988   6.809   3.265   5.799 -0.0972  0.0421  0.2191
 8689TIP3    H125989   6.780   3.353   5.772  3.2123  0.8630 -1.0423
 8689TIP3    H225990   6.869   3.281   5.872  1.0687 -1.1129 -0.4625
 8690TIP3   OH225991   6.904   1.659   3.723 -0.2486 -0.1444  0.1684
 8690TIP3    H125992   6.877   1.750   3.708 -0.5057 -0.5547 -2.2894
 8690TIP3    H225993   6.956   1.637   3.646 -1.1597 -2.4422  0.1384
 8691TIP3   OH225994   4.303   3.325   1.740  0.1307  0.2393  0.1356
 8691TIP3    H125995   4.295   3.230   1.731 -2.0543  0.4174 -0.3577
 8691TIP3    H225996   4.370   3.349   1.676 -0.5961 -0.7951 -1.0775
 8692TIP3   OH225997   0.094   4.719   4.766 -0.2747  0.3368 -0.6237
 8692TIP3    H125998   0.114   4.634   4.807  0.8505  0.2125 -1.3971
 8692TIP3    H225999   0.097   4.781   4.839 -1.7502 -0.3438  0.0725
 8693TIP3   OH226000   1.933   5.521   3.707 -0.2026 -0.1186 -0.1049
 8693TIP3    H126001   1.963   5.543   3.619 -0.8152  1.2621  0.0125
 8693TIP3    H226002   1.855   5.468   3.692  1.1687 -2.1812 -0.3851
 8694TIP3   OH226003   4.240   7.017   2.292 -0.1871  0.3330 -0.1616
 8694TIP3    H126004   4.146   7.031   2.278 -0.1587  0.0393 -0.6911
 8694TIP3    H226005   4.279   7.104   2.280 -0.4593  0.6007  0.7740
 8695TIP3   OH226006   6.660   0.636   3.455  0.0203  0.4113  0.3098
 8695TIP3    H126007   6.700   0.652   3.540 -1.2839  2.7764  0.5549
 8695TIP3    H226008   6.591   0.572   3.474  2.9157 -3.1188  0.0038
 8696TIP3   OH226009   0.727   3.658   3.590 -0.0925  0.3375  0.0032
 8696TIP3    H126010   0.749   3.637   3.499 -1.6544 -1.5417 -0.0286
 8696TIP3    H226011   0.756   3.748   3.602  3.2820 -0.4159 -1.2784
 8697TIP3   OH226012   6.631   7.380   2.991 -0.2808 -1.0982  0.1590
 8697TIP3    H126013   6.654   7.328   3.068 -0.4297 -0.5620  0.5788
 8697TIP3    H226014   6.572   7.447   3.025  0.0444 -0.5527 -0.3325
 8698TIP3   OH226015   6.258   3.528   1.349  0.3794 -1.0974  0.2537
 8698TIP3    H126016   6.218   3.568   1.271 -0.0585 -0.5824  0.7385
 8698TIP3    H226017   6.251   3.434   1.334 -0.8293 -1.0135  0.2315
 8699TIP3   OH226018   4.570   6.634   3.821 -0.0225 -0.0899  0.0782
 8699TIP3    H126019   4.565   6.542   3.797 -2.4906 -0.3021  1.1618
 8699TIP3    H226020   4.541   6.681   3.743  1.3451 -0.1816 -0.5121
 8700TIP3   OH226021   4.862   1.543   2.441 -0.4741 -0.1851  0.4530
 8700TIP3    H126022   4.833   1.633   2.425 -0.5123  0.1450  2.2013
 8700TIP3    H226023   4.828   1.522   2.528  1.5782 -1.0448  1.0928
 8701TIP3   OH226024   5.404   0.911   1.513 -0.1392 -0.1080 -0.2138
 8701TIP3    H126025   5.326   0.904   1.458  0.1633  0.1966 -0.6869
 8701TIP3    H226026   5.449   0.827   1.500 -0.4090 -0.3029  0.0964
 8702TIP3   OH226027   2.909   0.054   1.683  0.4616  0.3172  0.0530
 8702TIP3    H126028   2.980  -0.008   1.671 -0.4299 -0.6356 -0.4801
 8702TIP3    H226029   2.903   0.066   1.778  2.4848  1.8370  0.0594
 8703TIP3   OH226030   5.853   2.372   3.594  0.1802  0.5002 -0.2515
 8703TIP3    H126031   5.800   2.292   3.582 -0.5470  0.9036  0.2030
 8703TIP3    H226032   5.806   2.422   3.660  0.6641  1.2894 -0.4928
 8704TIP3   OH226033   3.434   6.371   6.963 -0.3411 -0.5659 -0.3524
 8704TIP3    H126034   3.406   6.298   6.907 -0.1433 -0.5123 -0.5223
 8704TIP3    H226035   3.529   6.363   6.967 -0.1023  0.8200 -1.9741
 8705TIP3   OH226036   4.763   1.832   0.516  0.8536  0.1033  0.6235
 8705TIP3    H126037   4.847   1.823   0.561  0.3483 -1.3078  1.3518
 8705TIP3    H226038   4.718   1.903   0.562  0.8546 -0.4821  1.5463
 8706TIP3   OH226039   7.434   1.606   1.225  0.3939  0.1210 -0.1177
 8706TIP3    H126040   7.475   1.566   1.301  1.2881  0.7644 -0.2378
 8706TIP3    H226041   7.417   1.533   1.165  1.0168 -0.2119  0.1031
 8707TIP3   OH226042   0.921   4.460   2.273  0.2485 -0.2021 -0.2894
 8707TIP3    H126043   0.831   4.433   2.256  0.5561 -0.4454 -1.6589
 8707TIP3    H226044   0.974   4.388   2.239  0.9734  0.1187  0.1432
 8708TIP3   OH226045   0.417   6.172   4.383 -0.1979 -0.3340 -0.5524
 8708TIP3    H126046   0.394   6.261   4.354 -1.9846 -0.2637  0.8529
 8708TIP3    H226047   0.493   6.148   4.331  0.4701  2.1158 -0.8275
 8709TIP3   OH226048   0.616   4.832   6.927 -0.2859 -0.4499 -0.2752
 8709TIP3    H126049   0.663   4.892   6.868 -0.8475 -0.6507 -0.9337
 8709TIP3    H226050   0.571   4.771   6.868 -1.4662 -0.1917  0.3391
 8710TIP3   OH226051   0.326   1.231   1.213  0.0874  0.2021 -0.0446
 8710TIP3    H126052   0.384   1.226   1.289 -0.8553  1.8807  0.8321
 8710TIP3    H226053   0.360   1.163   1.154  0.6293 -1.4248  1.9792
 8711TIP3   OH226054   6.020   6.060   3.182  0.2284 -0.1673 -0.2417
 8711TIP3    H126055   6.007   6.079   3.275 -0.6941  1.4981 -0.6620
 8711TIP3    H226056   5.945   6.099   3.138 -0.3175 -2.5157 -1.5683
 8712TIP3   OH226057   0.898   4.865   2.682 -0.1582 -0.5760 -0.2476
 8712TIP3    H126058   0.831   4.799   2.698 -1.6867  1.3197  1.7932
 8712TIP3    H226059   0.878   4.899   2.594 -0.9175 -1.0616 -0.2724
 8713TIP3   OH226060   7.660   2.419   5.075  0.5403  0.0080  0.4701
 8713TIP3    H126061   7.716   2.377   5.140  0.9287  0.1235  0.2097
 8713TIP3    H226062   7.584   2.360   5.068  1.4895 -1.1564 -0.5686
 8714TIP3   OH226063   7.379   2.213   5.682 -0.6692 -0.2275 -0.0317
 8714TIP3    H126064   7.365   2.182   5.771 -1.2955 -1.1428 -0.4361
 8714TIP3    H226065   7.368   2.308   5.688  0.4670 -0.1392  1.0685
 8715TIP3   OH226066   3.765   0.056   3.834  0.1031 -0.4571 -0.4606
 8715TIP3    H126067   3.771  -0.040   3.830  0.1563 -0.4918  0.4367
 8715TIP3    H226068   3.724   0.080   3.751  0.0097 -1.2629 -0.6589
 8716TIP3   OH226069   0.313   6.419   5.207  0.1057  0.4107 -0.6359
 8716TIP3    H126070   0.338   6.372   5.127  1.2791  0.8538 -0.5444
 8716TIP3    H226071   0.341   6.362   5.278 -1.2803 -0.1619 -0.5065
 8717TIP3   OH226072   2.469   2.230   2.052  0.0211  0.8224  0.7007
 8717TIP3    H126073   2.548   2.176   2.043  0.5088  1.3211  1.6998
 8717TIP3    H226074   2.410   2.179   2.107 -1.3670 -0.5662 -1.9122
 8718TIP3   OH226075   7.624   7.760   4.420  0.0965 -0.0326  0.0748
 8718TIP3    H126076   7.684   7.767   4.345  1.5176  2.1268  1.2943
 8718TIP3    H226077   7.570   7.840   4.415 -2.8824 -1.9350 -1.0273
 8719TIP3   OH226078   1.268   6.643   4.037 -0.0636 -0.4976  0.9863
 8719TIP3    H126079   1.219   6.581   3.983 -0.8068 -0.7938  1.9632
 8719TIP3    H226080   1.207   6.668   4.107  1.2640 -1.1351  2.4394
 8720TIP3   OH226081   8.519   6.224   0.707  0.4427  0.3035 -0.0249
 8720TIP3    H126082   8.587   6.163   0.735  0.6519  1.0318  1.1239
 8720TIP3    H226083   8.547   6.255   0.621  0.7884 -0.5326 -0.2156
 8721TIP3   OH226084   4.646   5.733   5.237 -0.8975 -0.1941 -0.0973
 8721TIP3    H126085   4.726   5.698   5.199  0.4660  2.1769  0.3778
 8721TIP3    H226086   4.625   5.673   5.309  0.3848 -0.8987 -0.2835
 8722TIP3   OH226087   6.393   2.897   1.096  0.2616 -0.6117  0.1961
 8722TIP3    H126088   6.433   2.868   1.178  0.5181  0.8190  0.5975
 8722TIP3    H226089   6.465   2.940   1.048  0.0512 -1.1897 -0.6716
 8723TIP3   OH226090   4.371   1.511   5.143  0.0434  0.3700  0.7651
 8723TIP3    H126091   4.284   1.493   5.110  0.5537 -0.9296  0.0442
 8723TIP3    H226092   4.422   1.536   5.066  0.7303 -0.6807  0.8408
 8724TIP3   OH226093   6.945   3.393   4.604 -0.2105 -0.7750 -0.5718
 8724TIP3    H126094   6.930   3.339   4.527 -1.3787 -2.1578  0.5656
 8724TIP3    H226095   6.862   3.437   4.619 -0.2411 -1.1134  0.3241
 8725TIP3   OH226096   6.694   6.628   6.752  0.0952  0.2592 -0.2528
 8725TIP3    H126097   6.746   6.552   6.781 -1.9677 -0.6849  1.2314
 8725TIP3    H226098   6.632   6.592   6.689  0.2715  1.0831 -0.9106
 8726TIP3   OH226099   5.072   4.867   2.918 -0.2451  0.4628 -0.4766
 8726TIP3    H126100   5.069   4.954   2.878 -0.1804 -0.5784 -2.9051
 8726TIP3    H226101   5.108   4.883   3.005 -3.2921  3.2698  0.4767
 8727TIP3   OH226102   1.877   6.448   1.744  0.0517 -0.1309 -0.7542
 8727TIP3    H126103   1.938   6.377   1.725  0.9754  0.5549 -0.4229
 8727TIP3    H226104   1.921   6.527   1.711  0.4540  0.7168  1.5977
 8728TIP3   OH226105   3.524   7.337   3.332  0.0055  0.6923  0.5377
 8728TIP3    H126106   3.550   7.424   3.300  0.3585  0.8137  1.1261
 8728TIP3    H226107   3.462   7.305   3.267 -0.3770  1.5257  0.4726
 8729TIP3   OH226108   2.010   0.842   3.339 -0.2576  0.4173 -0.2639
 8729TIP3    H126109   2.072   0.793   3.391  0.3029  1.2772 -0.1128
 8729TIP3    H226110   1.983   0.915   3.395  0.2600  1.2801 -1.1050
 8730TIP3   OH226111   8.283   7.235   5.627 -0.1534 -0.3853  0.1897
 8730TIP3    H126112   8.250   7.187   5.552 -1.4642  2.0740 -0.9486
 8730TIP3    H226113   8.317   7.317   5.590  1.3818 -0.1066  2.0536
 8731TIP3   OH226114   7.754   6.022   5.394 -0.5696  0.2815 -0.1662
 8731TIP3    H126115   7.764   6.004   5.488 -1.3482  0.3434 -0.0595
 8731TIP3    H226116   7.838   6.060   5.367  0.3007 -1.3690  0.1104
 8732TIP3   OH226117   2.497   4.870   7.022 -0.1180  0.0518 -0.0914
 8732TIP3    H126118   2.485   4.883   6.928  1.3811  0.3671 -0.2627
 8732TIP3    H226119   2.446   4.941   7.062 -0.5607  0.0688 -0.6602
 8733TIP3   OH226120   1.895   6.182   3.380  0.3451  0.1415  0.0923
 8733TIP3    H126121   1.908   6.112   3.316 -0.3148  0.7534 -0.7190
 8733TIP3    H226122   1.807   6.214   3.363  1.1840  2.2213 -0.6032
 8734TIP3   OH226123   0.728   3.449   1.570  0.5367  0.1582 -0.1217
 8734TIP3    H126124   0.767   3.368   1.603 -2.0890 -2.0671 -1.9760
 8734TIP3    H226125   0.749   3.449   1.477  0.5381  1.6718 -0.1337
 8735TIP3   OH226126   0.395   7.509   2.511  0.4232  0.8808  0.0363
 8735TIP3    H126127   0.341   7.499   2.589 -0.1968 -0.0448 -0.4895
 8735TIP3    H226128   0.483   7.525   2.545 -0.1845  2.6790  0.9138
 8736TIP3   OH226129   4.515   6.633   0.579 -0.4137 -0.2461 -0.1132
 8736TIP3    H126130   4.420   6.635   0.589 -0.5164  1.0992 -1.1051
 8736TIP3    H226131   4.528   6.630   0.484  0.5268  1.1076 -0.0442
 8737TIP3   OH226132   5.273   3.814   3.106 -0.2315 -0.1733  0.2964
 8737TIP3    H126133   5.277   3.819   3.202 -1.5924 -2.6762  0.5571
 8737TIP3    H226134   5.180   3.823   3.086  0.0781  0.6816 -0.8473
 8738TIP3   OH226135   3.916   1.529   3.877  0.3705  0.4892  0.0522
 8738TIP3    H126136   3.901   1.435   3.887 -0.8643  0.3478 -2.3631
 8738TIP3    H226137   4.005   1.536   3.843  1.2032  0.3891  2.0766
 8739TIP3   OH226138   0.774   4.035   6.204 -0.1103  0.3901  0.5542
 8739TIP3    H126139   0.731   3.950   6.201  0.5809 -0.0338 -3.3587
 8739TIP3    H226140   0.703   4.097   6.221 -1.7101 -0.6084 -1.8806
 8740TIP3   OH226141   2.390   5.896   2.320  0.5930 -0.2039 -0.3088
 8740TIP3    H126142   2.332   5.839   2.370  1.8033 -0.9083  0.3553
 8740TIP3    H226143   2.346   5.909   2.236 -1.1748  0.4624  0.6714
 8741TIP3   OH226144   1.829   0.555   0.545 -0.5705 -0.5894 -0.0506
 8741TIP3    H126145   1.768   0.488   0.514  2.1873 -1.9857 -3.0183
 8741TIP3    H226146   1.811   0.631   0.490  1.5711 -1.6992 -2.4592
 8742TIP3   OH226147   6.552   5.807   1.572  0.3444  0.0426 -0.1409
 8742TIP3    H126148   6.618   5.843   1.513  0.4808  0.1140  0.0556
 8742TIP3    H226149   6.593   5.810   1.658  0.5626 -1.0596 -0.1874
 8743TIP3   OH226150   8.554   6.322   4.503 -0.1605 -0.4767  0.0218
 8743TIP3    H126151   8.616   6.273   4.448  1.3023  1.8294 -0.5010
 8743TIP3    H226152   8.468   6.291   4.475  0.6478 -1.3979 -1.5755
 8744TIP3   OH226153   5.761   3.397   5.337 -0.2639 -0.0622  0.3094
 8744TIP3    H126154   5.710   3.328   5.294  0.6683  0.3540 -1.5987
 8744TIP3    H226155   5.846   3.357   5.353  0.2941  0.6161 -0.8419
 8745TIP3   OH226156   7.518   4.290   2.343 -0.4882 -0.4197 -0.3810
 8745TIP3    H126157   7.424   4.282   2.363 -0.2879 -2.2772  0.0022
 8745TIP3    H226158   7.525   4.268   2.251 -0.2482 -2.1453  0.0208
 8746TIP3   OH226159   3.250   5.381   0.186 -0.6404  0.5511  0.4405
 8746TIP3    H126160   3.264   5.403   0.094  1.9255 -1.6993  0.1776
 8746TIP3    H226161   3.285   5.456   0.234 -0.9275  1.2283 -0.3811
 8747TIP3   OH226162   0.390   4.814   0.157  0.1058  0.0946  0.0747
 8747TIP3    H126163   0.358   4.787   0.071 -1.6558 -0.6132  0.9150
 8747TIP3    H226164   0.343   4.895   0.176  0.9496  0.5843  0.1276
 8748TIP3   OH226165   3.689   6.935   6.897 -0.0803 -0.2238 -0.8192
 8748TIP3    H126166   3.703   6.915   6.990  0.4556 -0.8009 -1.0222
 8748TIP3    H226167   3.600   6.903   6.879 -0.4434  0.4818 -0.3496
 8749TIP3   OH226168   0.366   6.350   3.162  0.1252  0.0210  0.1136
 8749TIP3    H126169   0.416   6.363   3.082 -1.1978 -0.3372 -0.8108
 8749TIP3    H226170   0.285   6.400   3.148 -0.3024 -0.3885  1.0466
 8750TIP3   OH226171   8.531   5.712   4.677  0.4225  0.0281 -0.0969
 8750TIP3    H126172   8.479   5.738   4.601  1.2294  0.8521 -0.3830
 8750TIP3    H226173   8.491   5.758   4.751  1.0877  1.1393 -0.4096
 8751TIP3   OH226174   6.108   1.240   2.436  0.0048  0.3701 -0.7652
 8751TIP3    H126175   6.118   1.303   2.365 -1.1114  1.2029 -0.2024
 8751TIP3    H226176   6.039   1.181   2.406  0.2913  0.0608 -0.8261
 8752TIP3   OH226177   5.059   8.104   4.417  0.1275  0.0867 -0.1488
 8752TIP3    H126178   5.047   8.087   4.323  0.7538 -1.1927 -0.0230
 8752TIP3    H226179   4.978   8.147   4.444 -1.0152 -1.5228 -0.8298
 8753TIP3   OH226180   4.777   7.849   3.942 -0.3943 -0.3649 -0.3735
 8753TIP3    H126181   4.815   7.858   4.029  0.1824 -0.1722 -0.6394
 8753TIP3    H226182   4.794   7.934   3.900 -0.6985 -0.4449 -0.6587
 8754TIP3   OH226183   8.549   5.229   2.801  0.2553  0.0995  0.4644
 8754TIP3    H126184   8.529   5.136   2.797  1.0900 -0.0633 -0.1353
 8754TIP3    H226185   8.486   5.270   2.741 -0.1076 -0.0703  0.7259
 8755TIP3   OH226186   0.406   5.107   6.473  0.3251 -0.4384 -0.0033
 8755TIP3    H126187   0.483   5.093   6.418  0.3046  0.0910 -0.1754
 8755TIP3    H226188   0.334   5.068   6.425  0.4178 -0.5791 -0.0295
 8756TIP3   OH226189   2.319   1.521   1.674 -0.1110  0.6352 -0.4444
 8756TIP3    H126190   2.363   1.564   1.747 -0.6242  0.0913  0.1996
 8756TIP3    H226191   2.277   1.444   1.713  1.1506 -0.7318 -1.6352
 8757TIP3   OH226192   1.122   7.024   3.144  0.2890 -0.2717  0.5639
 8757TIP3    H126193   1.110   6.951   3.083  1.3597 -0.2575  0.3108
 8757TIP3    H226194   1.201   7.001   3.193  1.5925  1.4148 -0.6100
 8758TIP3   OH226195   1.645   3.554   0.277 -0.8213  0.6234 -0.2595
 8758TIP3    H126196   1.681   3.494   0.212 -0.6685 -1.1993  1.4104
 8758TIP3    H226197   1.551   3.557   0.258 -0.8619 -0.3180 -0.2570
 8759TIP3   OH226198   4.455   7.112   5.704 -0.7370  0.3690 -0.3207
 8759TIP3    H126199   4.532   7.085   5.655 -0.8656 -1.2445  0.3056
 8759TIP3    H226200   4.486   7.183   5.760  0.1611  0.0760 -0.4310
 8760TIP3   OH226201   4.968   2.548   3.502 -0.0656 -0.1036  0.2937
 8760TIP3    H126202   5.041   2.505   3.545  0.4061  0.2983 -0.0954
 8760TIP3    H226203   4.897   2.546   3.566 -0.8391 -3.4869 -0.4402
 8761TIP3   OH226204   7.984   6.333   0.865 -0.0178 -0.0941 -0.4059
 8761TIP3    H126205   7.960   6.244   0.839  0.6372  0.2719 -2.4898
 8761TIP3    H226206   7.903   6.370   0.902  0.1712 -2.0804  2.2969
 8762TIP3   OH226207   5.579   1.302   4.484 -0.3036 -0.3215  0.2037
 8762TIP3    H126208   5.657   1.323   4.433  0.0807 -2.6647 -0.3252
 8762TIP3    H226209   5.580   1.206   4.490 -2.4546 -0.3415  1.2869
 8763TIP3   OH226210   7.939   0.045   5.208 -0.0014  0.0133  0.1795
 8763TIP3    H126211   7.941   0.138   5.230 -0.4330  0.2716 -0.8291
 8763TIP3    H226212   7.872   0.037   5.141 -0.5611 -1.1698  0.8446
 8764TIP3   OH226213   8.539   4.135   2.620 -0.1424  0.4277  0.0573
 8764TIP3    H126214   8.627   4.154   2.652 -0.8282 -1.0850  3.1775
 8764TIP3    H226215   8.545   4.046   2.583 -0.1681  0.7141 -0.6525
 8765TIP3   OH226216   2.102   1.308   0.858 -0.3002 -0.6468 -0.0460
 8765TIP3    H126217   2.103   1.376   0.791  0.2453  0.9273  1.5055
 8765TIP3    H226218   2.026   1.254   0.835 -0.0071 -0.3017 -2.0288
 8766TIP3   OH226219   2.100   5.025   3.658 -0.2971  0.4225  0.1076
 8766TIP3    H126220   2.054   5.108   3.648  1.0083  1.1830  0.1773
 8766TIP3    H226221   2.192   5.050   3.666  0.4398 -1.1579 -2.3317
 8767TIP3   OH226222   1.400   0.321   6.329  0.0246  0.2817  0.0198
 8767TIP3    H126223   1.347   0.278   6.396  0.8342 -0.5864  0.1282
 8767TIP3    H226224   1.349   0.398   6.303 -1.0017 -0.2048  0.5394
 8768TIP3   OH226225   6.257   6.864   6.571 -0.2576 -0.6382 -0.1142
 8768TIP3    H126226   6.329   6.910   6.529 -0.4811 -0.6548 -0.5214
 8768TIP3    H226227   6.183   6.924   6.565 -0.3554 -0.7401  0.0363
 8769TIP3   OH226228   2.137   6.757   2.093 -0.2915  0.3915 -0.0155
 8769TIP3    H126229   2.119   6.819   2.164 -0.1396  0.9541 -0.4605
 8769TIP3    H226230   2.075   6.686   2.107 -0.1114  0.3919  0.8103
 8770TIP3   OH226231   6.478   0.288   6.086 -0.2922 -0.1464 -0.2767
 8770TIP3    H126232   6.443   0.349   6.021 -0.0018  2.3823  1.7883
 8770TIP3    H226233   6.406   0.275   6.148  0.7080  1.0189  1.2183
 8771TIP3   OH226234   5.037   3.771   2.001  0.0751  0.4364 -0.5873
 8771TIP3    H126235   5.117   3.717   1.997 -1.0602 -1.2933 -1.0807
 8771TIP3    H226236   4.969   3.710   2.030 -0.7655  2.2734  1.5639
 8772TIP3   OH226237   4.640   5.029   2.604 -0.4646  0.0035  0.2426
 8772TIP3    H126238   4.697   4.992   2.672  0.1581 -0.6626 -0.6268
 8772TIP3    H226239   4.569   4.965   2.596  2.0312 -2.7453 -3.2658
 8773TIP3   OH226240   0.761   2.285   4.349 -0.1300 -0.0835  0.3317
 8773TIP3    H126241   0.827   2.269   4.417  0.3481  0.0188 -0.1020
 8773TIP3    H226242   0.694   2.336   4.393  0.2082  0.0411  0.7141
 8774TIP3   OH226243   3.481   5.964   6.633  0.0419 -0.5577 -0.2978
 8774TIP3    H126244   3.462   5.885   6.685  2.6454 -0.0463  1.6123
 8774TIP3    H226245   3.395   5.999   6.610 -1.4236 -0.3741  4.4610
 8775TIP3   OH226246   4.838   0.612   2.134  0.3553 -0.8685 -0.3671
 8775TIP3    H126247   4.745   0.632   2.142  0.0696 -1.9238 -0.9176
 8775TIP3    H226248   4.882   0.691   2.164 -0.7055 -0.7157  0.8876
 8776TIP3   OH226249   1.406   2.720   6.474  0.5737 -0.5081 -0.6380
 8776TIP3    H126250   1.445   2.641   6.438 -0.5529 -1.0803 -0.6439
 8776TIP3    H226251   1.338   2.744   6.411 -0.9154 -1.0826  0.6851
 8777TIP3   OH226252   7.921   4.064   0.264 -0.4324 -0.5879 -0.4830
 8777TIP3    H126253   7.871   4.015   0.328  0.1241  1.6667  1.8465
 8777TIP3    H226254   7.860   4.130   0.232 -0.4094 -1.0813 -1.5929
 8778TIP3   OH226255   1.503   0.328   1.737  0.3384  0.0988  0.3792
 8778TIP3    H126256   1.582   0.278   1.717 -0.0446  0.0496 -1.1598
 8778TIP3    H226257   1.448   0.319   1.658 -0.3325  1.8051  0.6018
 8779TIP3   OH226258   0.496   5.148   1.092  0.6482 -0.1904  0.4281
 8779TIP3    H126259   0.583   5.186   1.089  1.2523 -1.5604 -0.0468
 8779TIP3    H226260   0.456   5.171   1.008  0.7982 -0.1551  0.3677
 8780TIP3   OH226261   7.124   0.934   6.991 -0.2917 -0.6450 -0.4675
 8780TIP3    H126262   7.200   0.876   6.994  0.0638 -0.1438  0.6598
 8780TIP3    H226263   7.160   1.021   6.974 -0.7721 -0.6316 -1.5424
 8781TIP3   OH226264   0.446   5.818   3.531  0.2916  0.7383 -0.4199
 8781TIP3    H126265   0.416   5.892   3.584 -0.5631  0.4169 -0.4525
 8781TIP3    H226266   0.488   5.858   3.455 -1.5317  1.2141 -1.2275
 8782TIP3   OH226267   5.571   1.169   1.603 -0.0034  0.0171 -0.0740
 8782TIP3    H126268   5.644   1.142   1.547  0.4455 -2.8352  1.6971
 8782TIP3    H226269   5.613   1.206   1.681 -0.4091 -1.1299  0.7136
 8783TIP3   OH226270   0.892   1.545   2.178 -0.1515 -0.0087  0.2588
 8783TIP3    H126271   0.924   1.611   2.117  0.1937 -0.3595  0.0546
 8783TIP3    H226272   0.896   1.463   2.129 -0.9398 -0.1276  0.3830
 8784TIP3   OH226273   1.327   4.468   5.328  0.3205 -0.1881  0.1904
 8784TIP3    H126274   1.376   4.437   5.405  0.5594  0.8019  0.4500
 8784TIP3    H226275   1.235   4.462   5.354  0.4101  0.3986  0.6617
 8785TIP3   OH226276   2.955   4.015   0.827 -0.1301 -0.6852 -0.3534
 8785TIP3    H126277   3.045   3.998   0.800 -0.1847  1.3345 -2.1872
 8785TIP3    H226278   2.903   3.998   0.748 -0.8860  1.3176 -0.3536
 8786TIP3   OH226279   4.417   0.382   5.405  0.2343  0.2676 -0.4377
 8786TIP3    H126280   4.455   0.304   5.364 -0.0894  0.6372 -1.4709
 8786TIP3    H226281   4.493   0.432   5.435  0.4327 -0.6856  0.7331
 8787TIP3   OH226282   0.562   3.170   4.316 -0.0887  0.6365  0.4491
 8787TIP3    H126283   0.488   3.157   4.258  0.2936 -0.6454  0.2307
 8787TIP3    H226284   0.531   3.142   4.402  0.4092 -0.7843  0.1819
 8788TIP3   OH226285   7.219   5.254   1.865  0.3646 -0.4046  0.0944
 8788TIP3    H126286   7.127   5.276   1.848  0.8563  1.2707 -0.5827
 8788TIP3    H226287   7.268   5.332   1.837  2.0274 -1.4162  0.0794
 8789TIP3   OH226288   5.618   4.010   3.662  0.3938  0.2249 -0.1716
 8789TIP3    H126289   5.628   3.963   3.579 -1.9899 -1.9606  0.6619
 8789TIP3    H226290   5.534   4.055   3.655  0.6456  0.8626  0.6922
 8790TIP3   OH226291   4.360   1.091   5.723 -0.2423 -0.2607 -0.3253
 8790TIP3    H126292   4.394   1.136   5.799  1.0609  1.0737 -1.6361
 8790TIP3    H226293   4.346   1.001   5.752 -1.2253  0.5430  1.8615
 8791TIP3   OH226294   8.647   7.819   0.616 -0.1711 -0.0061  0.0567
 8791TIP3    H126295   8.633   7.908   0.650  0.0557  0.2830 -0.5915
 8791TIP3    H226296   8.738   7.799   0.639  0.7470  1.0799 -2.2861
 8792TIP3   OH226297   4.498   3.823   3.412  0.1777  0.7679 -0.1847
 8792TIP3    H126298   4.551   3.811   3.491  0.6617 -1.0224 -0.7285
 8792TIP3    H226299   4.411   3.794   3.437  0.4851 -0.4570 -0.4549
 8793TIP3   OH226300   3.713   8.045   5.347  0.2703  0.0532 -0.1905
 8793TIP3    H126301   3.705   8.129   5.393  0.6325  0.1349 -0.2715
 8793TIP3    H226302   3.794   8.054   5.296 -0.4879  0.2427 -1.4140
 8794TIP3   OH226303   0.289   7.062   5.342 -0.1956  0.0167 -0.4161
 8794TIP3    H126304   0.306   6.975   5.379  0.9563 -0.6409 -2.3439
 8794TIP3    H226305   0.327   7.123   5.406  0.9787 -1.0064 -0.0997
 8795TIP3   OH226306   3.083   6.560   1.328  0.1797  0.1017  0.7384
 8795TIP3    H126307   3.032   6.623   1.379 -1.7588  0.0823 -1.0221
 8795TIP3    H226308   3.018   6.513   1.276  1.8433 -1.4030 -0.0945
 8796TIP3   OH226309   2.302   1.279   0.584 -0.2238 -0.0420 -0.1763
 8796TIP3    H126310   2.230   1.221   0.606  0.1546  0.0689  1.5056
 8796TIP3    H226311   2.359   1.278   0.661  0.7114  1.1627 -0.7999
 8797TIP3   OH226312   8.071   5.373   0.318  0.1020  0.4886  1.0456
 8797TIP3    H126313   8.100   5.296   0.367 -1.4827  0.0305  1.3121
 8797TIP3    H226314   8.073   5.444   0.383  0.4816  0.4348  1.0953
 8798TIP3   OH226315   7.409   1.616   2.881  0.1777 -0.5038 -0.5496
 8798TIP3    H126316   7.455   1.570   2.811  0.7179  0.3025 -0.7374
 8798TIP3    H226317   7.331   1.652   2.838  0.0520 -0.7682 -0.5376
 8799TIP3   OH226318   3.463   6.788   5.742 -0.3542 -0.1039  0.1066
 8799TIP3    H126319   3.418   6.872   5.740  1.0107  0.6666  0.6287
 8799TIP3    H226320   3.480   6.772   5.835  1.0015 -0.0542 -0.1160
 8800TIP3   OH226321   0.233   6.908   2.838  0.3362 -0.1225  0.0599
 8800TIP3    H126322   0.263   6.998   2.821 -1.6662  0.6293  0.2846
 8800TIP3    H226323   0.309   6.854   2.818  2.2168  1.7389  1.6362
 8801TIP3   OH226324   1.593   4.086   5.587 -1.1458  0.2883  0.2970
 8801TIP3    H126325   1.645   4.028   5.532  0.1053  0.5612  1.1552
 8801TIP3    H226326   1.544   4.027   5.645  1.0417  0.0070  2.0081
 8802TIP3   OH226327   1.627   5.903   6.842 -0.6117  0.3453 -0.5417
 8802TIP3    H126328   1.640   5.855   6.760 -0.3028 -0.7996  0.1437
 8802TIP3    H226329   1.715   5.927   6.870 -0.6618  0.2139 -0.2616
 8803TIP3   OH226330   4.549   4.917   2.263  0.0781  0.0407  0.2298
 8803TIP3    H126331   4.597   4.860   2.324  0.3404  1.8049  1.7483
 8803TIP3    H226332   4.617   4.949   2.203  0.6337  1.5140  1.5803
 8804TIP3   OH226333   6.917   6.852   3.266 -0.2011 -0.1644 -0.1883
 8804TIP3    H126334   6.880   6.833   3.352  1.4737 -0.0662  0.6015
 8804TIP3    H226335   6.964   6.772   3.243 -1.2005 -0.4394 -1.3510
 8805TIP3   OH226336   1.031   6.472   1.318  0.2332 -0.1821 -0.2474
 8805TIP3    H126337   1.088   6.413   1.366  0.4619  0.9998  1.0140
 8805TIP3    H226338   0.948   6.469   1.366  0.2436  0.4862 -0.1765
 8806TIP3   OH226339   0.181   4.700   6.377  0.0289  0.1382  0.4070
 8806TIP3    H126340   0.247   4.768   6.383 -1.1302  1.4170 -0.7043
 8806TIP3    H226341   0.221   4.632   6.323  0.6759  0.5968  0.3012
 8807TIP3   OH226342   4.701   6.963   4.032 -0.0623 -0.7631  0.1185
 8807TIP3    H126343   4.679   7.005   4.115 -0.9735 -2.4987  0.7903
 8807TIP3    H226344   4.624   6.913   4.008  0.4282 -0.8402 -1.4552
 8808TIP3   OH226345   3.852   5.355   0.202 -0.4171  0.0440  0.1260
 8808TIP3    H126346   3.859   5.308   0.119 -0.2735 -1.0431  0.7453
 8808TIP3    H226347   3.929   5.413   0.203  0.4573 -1.0935  0.2137
 8809TIP3   OH226348   2.125   4.068   1.450 -0.4716 -0.2270 -0.4614
 8809TIP3    H126349   2.065   4.085   1.377 -1.3445 -0.1075  0.2659
 8809TIP3    H226350   2.107   4.139   1.512 -1.3509 -1.5579  0.8676
 8810TIP3   OH226351   0.166   4.430   1.303  0.1044  0.1476 -0.6469
 8810TIP3    H126352   0.074   4.432   1.327  0.6073 -0.5701  1.5749
 8810TIP3    H226353   0.174   4.355   1.244 -0.3013 -1.8254  1.6205
 8811TIP3   OH226354   7.207   7.486   3.943 -0.3858 -0.2663  0.4948
 8811TIP3    H126355   7.301   7.473   3.930 -0.4460 -1.0307  0.7463
 8811TIP3    H226356   7.180   7.540   3.869  0.5138  1.2432  1.2420
 8812TIP3   OH226357   7.769   1.723   4.794  0.4918  0.5664  0.0968
 8812TIP3    H126358   7.722   1.779   4.732 -0.1072  0.2298  0.2449
 8812TIP3    H226359   7.862   1.738   4.774  0.3117  0.8196 -0.5620
 8813TIP3   OH226360   8.695   3.032   1.719 -0.4155 -0.0738 -0.2947
 8813TIP3    H126361   8.647   2.965   1.768  0.1058 -1.2810 -1.3777
 8813TIP3    H226362   8.627   3.094   1.693 -0.8136  0.1904  1.2655
 8814TIP3   OH226363   2.394   6.651   3.718 -0.1477 -0.7110 -0.2273
 8814TIP3    H126364   2.327   6.654   3.649  0.4433  0.1356 -0.7821
 8814TIP3    H226365   2.346   6.626   3.796 -0.8388 -1.6988 -0.9380
 8815TIP3   OH226366   7.108   0.279   2.898 -0.3303 -0.2370  0.0400
 8815TIP3    H126367   7.149   0.320   2.974  0.3659 -0.1006 -0.3943
 8815TIP3    H226368   7.014   0.298   2.908 -0.2891 -0.4960  1.0179
 8816TIP3   OH226369   3.088   0.631   0.079 -0.5152  0.2666 -0.3296
 8816TIP3    H126370   3.061   0.669  -0.005 -1.3525  0.4020 -0.0113
 8816TIP3    H226371   3.016   0.651   0.138 -0.5072 -0.9346  0.1078
 8817TIP3   OH226372   2.378   7.026   4.177  0.3543 -0.3516  0.0177
 8817TIP3    H126373   2.384   7.009   4.083 -0.6798 -0.0778 -0.1160
 8817TIP3    H226374   2.284   7.019   4.196  0.5729 -0.5957  1.0659
 8818TIP3   OH226375   7.291   4.436   1.487  0.5841  0.0822 -0.1116
 8818TIP3    H126376   7.351   4.510   1.493 -0.5697  0.9332  1.5185
 8818TIP3    H226377   7.316   4.379   1.560 -2.1330  1.7075  2.2582
 8819TIP3   OH226378   1.722   2.457   6.189 -0.0724  0.5523 -0.0405
 8819TIP3    H126379   1.719   2.384   6.127 -0.3278  1.3564 -0.9953
 8819TIP3    H226380   1.815   2.465   6.213  0.0183  0.2139 -0.2864
 8820TIP3   OH226381   3.265   0.745   0.864  0.2588  0.1871  0.5608
 8820TIP3    H126382   3.345   0.766   0.816 -0.4754 -0.1812 -0.8721
 8820TIP3    H226383   3.277   0.787   0.949  1.2654  1.5549 -0.2151
 8821TIP3   OH226384   4.381   4.946   1.532 -0.1835  0.9315  0.5462
 8821TIP3    H126385   4.435   4.867   1.536 -1.0601  0.2148 -0.9679
 8821TIP3    H226386   4.362   4.967   1.623 -0.1446 -0.7681  0.9755
 8822TIP3   OH226387   6.578   2.014   2.004  0.3259  0.3284  0.1930
 8822TIP3    H126388   6.614   1.952   1.940 -2.8034 -1.5149 -0.0095
 8822TIP3    H226389   6.500   2.050   1.961 -1.3594 -0.2644  2.5385
 8823TIP3   OH226390   5.049   2.848   4.211 -0.0594  0.1967 -0.6051
 8823TIP3    H126391   4.965   2.878   4.176 -0.8565  1.3467  2.0292
 8823TIP3    H226392   5.027   2.778   4.272  0.9155  0.3674 -0.0255
 8824TIP3   OH226393   0.489   7.674   5.653 -0.1533 -0.1002 -0.2939
 8824TIP3    H126394   0.444   7.739   5.600  0.2085  0.9690  0.6689
 8824TIP3    H226395   0.447   7.679   5.739 -0.6302 -1.6897 -0.3900
 8825TIP3   OH226396   1.306   1.273   5.120 -0.5054  0.1126  0.4936
 8825TIP3    H126397   1.248   1.197   5.113  0.3907 -0.4862 -1.1797
 8825TIP3    H226398   1.368   1.249   5.188 -0.0615 -0.8082 -0.2072
 8826TIP3   OH226399   6.170   0.782   3.384  0.0849 -0.4483 -1.1004
 8826TIP3    H126400   6.218   0.828   3.452 -2.8374 -0.9913  1.5638
 8826TIP3    H226401   6.205   0.693   3.385  1.2427 -0.0144 -1.5910
 8827TIP3   OH226402   5.720   4.855   2.613  0.4775 -0.0725 -0.9367
 8827TIP3    H126403   5.677   4.772   2.637  2.3479 -0.9881 -0.5386
 8827TIP3    H226404   5.699   4.868   2.521 -0.0519 -0.8652 -0.9343
 8828TIP3   OH226405   0.537   4.104   3.273  0.0316  0.4610 -0.4200
 8828TIP3    H126406   0.552   4.172   3.339  2.2865  0.9459 -1.3189
 8828TIP3    H226407   0.487   4.149   3.204 -1.3636  0.2492  0.4079
 8829TIP3   OH226408   5.564   0.207   6.263 -0.0333  0.6069 -0.1521
 8829TIP3    H126409   5.534   0.208   6.354  3.3050  3.9975  1.1929
 8829TIP3    H226410   5.505   0.266   6.217 -0.7439  0.1702  0.1855
 8830TIP3   OH226411   6.759   7.606   4.084 -0.2224 -1.0077  0.3427
 8830TIP3    H126412   6.812   7.554   4.023 -0.9302 -0.4812 -0.7390
 8830TIP3    H226413   6.809   7.686   4.098 -1.3335  0.1363 -1.8185
 8831TIP3   OH226414   0.693   2.056   3.026 -0.5640  0.0454 -0.0118
 8831TIP3    H126415   0.762   2.066   3.092 -0.6081 -0.7236  0.1644
 8831TIP3    H226416   0.726   2.101   2.949 -0.9425  1.8391  0.8379
 8832TIP3   OH226417   2.844   4.952   2.341 -0.2282 -0.2029 -0.0014
 8832TIP3    H126418   2.766   5.007   2.341  0.6951  1.2839 -2.2533
 8832TIP3    H226419   2.907   5.000   2.394 -0.3181 -0.5563  0.4268
 8833TIP3   OH226420   5.933   3.938   1.301 -0.3936  0.6158  0.3964
 8833TIP3    H126421   6.024   3.941   1.270  0.2199 -0.2188  2.0186
 8833TIP3    H226422   5.896   4.021   1.272  1.2622  1.5553  0.8241
 8834TIP3   OH226423   6.953   1.379   2.395  0.0823 -0.1055  0.5380
 8834TIP3    H126424   6.870   1.397   2.351  0.7943 -0.4742 -1.0136
 8834TIP3    H226425   6.954   1.283   2.405  1.6841 -0.4864 -2.3851
 8835TIP3   OH226426   6.821   4.245   1.858  0.4289  0.5680  0.3189
 8835TIP3    H126427   6.826   4.283   1.770  2.4348  0.5546  0.3842
 8835TIP3    H226428   6.831   4.319   1.917  0.5658  0.4069  0.4989
 8836TIP3   OH226429   2.415   7.749   1.029 -0.5683  0.0067  0.1433
 8836TIP3    H126430   2.458   7.755   0.944 -1.5287  1.4177 -0.2774
 8836TIP3    H226431   2.396   7.656   1.040  2.9215 -0.8053  0.5662
 8837TIP3   OH226432   1.731   6.705   1.363 -0.6592  0.2779 -0.9674
 8837TIP3    H126433   1.811   6.731   1.317 -0.5804  2.2840  0.1835
 8837TIP3    H226434   1.751   6.618   1.399  1.3400  1.0843  0.0113
 8838TIP3   OH226435   4.846   7.871   4.253  0.0167  0.5813  0.4002
 8838TIP3    H126436   4.919   7.811   4.269  2.5689  3.5146  0.6349
 8838TIP3    H226437   4.798   7.871   4.336 -2.3049 -3.6175 -0.6374
 8839TIP3   OH226438   6.884   2.136   0.134 -0.1967  0.2652  0.0311
 8839TIP3    H126439   6.812   2.148   0.072  1.2990  2.2505 -1.4671
 8839TIP3    H226440   6.923   2.052   0.109 -0.3952  0.4357 -0.8851
 8840TIP3   OH226441   2.197   5.286   0.794 -0.0781 -0.4275 -0.6378
 8840TIP3    H126442   2.112   5.262   0.757 -0.8396 -0.4886  1.0705
 8840TIP3    H226443   2.249   5.206   0.787 -1.0991 -1.2702  0.8344
 8841TIP3   OH226444   1.226   6.527   6.361 -0.1613 -0.3312 -0.2974
 8841TIP3    H126445   1.248   6.568   6.444  0.4765 -1.4060  0.0748
 8841TIP3    H226446   1.259   6.438   6.368  0.8032 -0.1611 -2.0744
 8842TIP3   OH226447   0.328   3.659   4.053  0.3341  0.2342  0.8069
 8842TIP3    H126448   0.419   3.675   4.079  0.0412  2.2949  0.7746
 8842TIP3    H226449   0.295   3.596   4.117  1.6629 -0.1901  1.0882
 8843TIP3   OH226450   7.472   7.468   3.894  0.0747  0.2479 -0.2993
 8843TIP3    H126451   7.518   7.383   3.893  2.2724  1.2862  1.8627
 8843TIP3    H226452   7.536   7.530   3.861  0.3780  1.7761  2.8496
 8844TIP3   OH226453   6.905   4.070   5.126  0.5936  0.3541  0.2860
 8844TIP3    H126454   6.854   4.136   5.173 -1.5265  0.8507 -2.4420
 8844TIP3    H226455   6.967   4.120   5.073 -0.2689  0.1817 -0.9473
 8845TIP3   OH226456   0.135   3.435   1.534  0.8460 -0.0114 -0.1965
 8845TIP3    H126457   0.046   3.445   1.501  1.0934  1.3301 -0.5386
 8845TIP3    H226458   0.152   3.341   1.529 -0.3364 -0.2219 -0.6747
 8846TIP3   OH226459   5.548   2.048   0.110  0.0639 -0.1886 -0.6009
 8846TIP3    H126460   5.580   2.135   0.088 -2.2807  1.1363  0.7201
 8846TIP3    H226461   5.567   2.039   0.204  0.7236 -1.3371 -0.8282
 8847TIP3   OH226462   4.044   1.875   6.336 -0.1851 -0.3899 -0.3969
 8847TIP3    H126463   3.957   1.867   6.297  0.0982 -2.2277 -0.7538
 8847TIP3    H226464   4.027   1.897   6.427 -0.9516  0.9404 -0.8334
 8848TIP3   OH226465   6.117   6.808   6.332 -0.0263 -0.0846  0.0275
 8848TIP3    H126466   6.179   6.834   6.265 -0.6783  0.7256 -0.2846
 8848TIP3    H226467   6.163   6.824   6.415  0.7841 -1.1105 -0.2098
 8849TIP3   OH226468   5.585   7.477   2.447  1.0194 -0.4844 -0.4437
 8849TIP3    H126469   5.662   7.439   2.405  0.4352 -0.0181 -2.0197
 8849TIP3    H226470   5.603   7.471   2.541  3.0026 -0.3171 -0.7671
 8850TIP3   OH226471   0.585   0.584   3.480 -0.1336 -0.3760  0.1913
 8850TIP3    H126472   0.516   0.581   3.545 -2.2321  0.9894 -1.8134
 8850TIP3    H226473   0.653   0.640   3.518 -0.4404 -1.0901  1.8689
 8851TIP3   OH226474   6.279   4.006   4.126  0.0501  0.7459 -0.4504
 8851TIP3    H126475   6.198   4.024   4.173 -0.4036 -2.6125  0.3356
 8851TIP3    H226476   6.345   4.061   4.169 -1.2767  1.3668  0.8581
 8852TIP3   OH226477   3.175   4.875   1.362  1.0337  0.2230  0.5911
 8852TIP3    H126478   3.101   4.890   1.420 -1.0437 -2.7264 -1.0106
 8852TIP3    H226479   3.213   4.792   1.393  0.8041 -0.6204 -1.2259
 8853TIP3   OH226480   1.261   1.438   4.792  0.4765  0.2289  0.5104
 8853TIP3    H126481   1.204   1.421   4.867  1.5337  0.9380  1.5010
 8853TIP3    H226482   1.277   1.352   4.753 -0.7142 -0.0524  0.6044
 8854TIP3   OH226483   1.240   2.724   0.873  0.6608 -0.3049 -0.2735
 8854TIP3    H126484   1.198   2.642   0.898  0.4146 -0.3713 -0.8796
 8854TIP3    H226485   1.186   2.792   0.912  1.0665 -0.4305  0.5322
 8855TIP3   OH226486   8.239   5.529   3.373  0.3400 -0.4692  0.5323
 8855TIP3    H126487   8.283   5.470   3.434  2.1874 -0.3473 -0.5943
 8855TIP3    H226488   8.309   5.587   3.342 -0.8599  0.4692 -0.5171
 8856TIP3   OH226489   1.747   3.360   3.470 -0.7298 -0.7591 -0.0168
 8856TIP3    H126490   1.735   3.387   3.561  0.4454 -1.4083  0.3473
 8856TIP3    H226491   1.831   3.398   3.444 -0.9867 -0.7039 -0.7807
 8857TIP3   OH226492   3.122   5.256   6.322 -0.5303 -0.1723 -0.0776
 8857TIP3    H126493   3.116   5.185   6.259 -1.3113 -1.2792  1.1846
 8857TIP3    H226494   3.037   5.254   6.368 -0.4622  1.4031  0.1587
 8858TIP3   OH226495   5.726   0.965   6.510  0.3543 -0.1524  0.7388
 8858TIP3    H126496   5.739   1.039   6.449 -2.1601 -0.8852 -0.8426
 8858TIP3    H226497   5.753   0.888   6.460 -2.9224 -0.9066 -0.0673
 8859TIP3   OH226498   6.563   5.623   2.270  0.2857  0.2488 -0.2313
 8859TIP3    H126499   6.498   5.658   2.210  0.8308  0.7280 -0.5602
 8859TIP3    H226500   6.513   5.591   2.345 -0.4351 -0.7470 -1.1120
 8860TIP3   OH226501   4.156   4.371   3.938 -0.4097  0.2302 -0.2552
 8860TIP3    H126502   4.174   4.445   3.996  0.0771  0.6657 -0.9450
 8860TIP3    H226503   4.158   4.409   3.850 -0.7092 -0.5012 -0.5846
 8861TIP3   OH226504   7.419   0.511   6.461  0.5772  0.2872  0.5455
 8861TIP3    H126505   7.329   0.490   6.435  1.1272 -0.2025 -1.1383
 8861TIP3    H226506   7.446   0.580   6.400  1.1855  0.7844  1.3548
 8862TIP3   OH226507   5.469   1.382   2.352 -0.0970 -0.6089 -0.5473
 8862TIP3    H126508   5.544   1.342   2.308  1.0028  0.3813  0.3766
 8862TIP3    H226509   5.442   1.318   2.417 -0.4684 -1.2305 -1.2956
 8863TIP3   OH226510   1.524   6.296   2.440 -0.0390  0.6086  0.8961
 8863TIP3    H126511   1.558   6.316   2.353 -0.2032  0.6943  0.8524
 8863TIP3    H226512   1.447   6.352   2.449  0.3030  1.0212  1.3162
 8864TIP3   OH226513   0.492   2.811   4.892  0.2945  0.0940  0.6135
 8864TIP3    H126514   0.474   2.860   4.972 -2.5405  1.2414 -0.5945
 8864TIP3    H226515   0.558   2.863   4.847 -1.2727  1.9117  0.2547
 8865TIP3   OH226516   1.402   6.339   4.116  0.1228  0.1594  0.5004
 8865TIP3    H126517   1.410   6.398   4.041 -1.5716 -0.9887 -0.6894
 8865TIP3    H226518   1.471   6.365   4.176  0.7456  1.9449 -0.9151
 8866TIP3   OH226519   1.756   1.239   0.581 -0.5849 -0.8331  0.1226
 8866TIP3    H126520   1.744   1.147   0.557 -0.9150 -0.2853 -1.9395
 8866TIP3    H226521   1.800   1.278   0.506 -1.8490  1.0303  0.2795
 8867TIP3   OH226522   0.119   2.326   1.436  1.1659  0.6898 -0.2917
 8867TIP3    H126523   0.187   2.372   1.387  1.5443  0.2892 -0.1441
 8867TIP3    H226524   0.045   2.321   1.376  2.6222 -2.6101 -2.0857
 8868TIP3   OH226525   2.349   5.997   3.616  0.0270  0.0342  0.1950
 8868TIP3    H126526   2.365   6.079   3.663  1.1896 -0.1014  0.0694
 8868TIP3    H226527   2.435   5.971   3.584 -0.7369  0.2826 -2.2806
 8869TIP3   OH226528   7.379   1.086   2.992 -0.1836 -0.1873 -0.4507
 8869TIP3    H126529   7.441   1.158   2.977 -0.5232  0.1353 -0.3104
 8869TIP3    H226530   7.417   1.012   2.945  0.9012 -0.2996  0.5504
 8870TIP3   OH226531   1.722   4.179   6.011  0.3039 -0.2211 -0.3772
 8870TIP3    H126532   1.754   4.100   6.055  0.0389 -0.2468 -0.2334
 8870TIP3    H226533   1.723   4.246   6.079 -1.5128 -0.6055  0.0698
 8871TIP3   OH226534   7.696   3.606   0.720 -0.0296 -0.2607 -0.2525
 8871TIP3    H126535   7.602   3.613   0.706 -0.3093 -1.1424  0.9648
 8871TIP3    H226536   7.731   3.576   0.636 -0.7805  0.3391 -0.7973
 8872TIP3   OH226537   8.253   0.502   1.936 -0.3737 -0.0741 -0.3907
 8872TIP3    H126538   8.313   0.519   2.009 -0.0737  0.1245 -0.6802
 8872TIP3    H226539   8.189   0.440   1.972 -2.0856  2.3536  0.9948
 8873TIP3   OH226540   2.805   6.350   5.654  0.2630  0.0188 -0.1605
 8873TIP3    H126541   2.718   6.379   5.681  1.3205  1.9591  1.4118
 8873TIP3    H226542   2.826   6.279   5.714  0.0510  0.0058 -0.0983
 8874TIP3   OH226543   5.455   4.773   4.816  0.0437 -0.3232  0.1130
 8874TIP3    H126544   5.369   4.817   4.816 -0.2324 -0.8319  1.0207
 8874TIP3    H226545   5.516   4.842   4.842 -0.5253 -0.6378  2.6006
 8875TIP3   OH226546   3.382   2.763   2.448  0.0340  0.1466 -0.0510
 8875TIP3    H126547   3.392   2.681   2.401 -0.0455  1.0185 -1.6484
 8875TIP3    H226548   3.287   2.771   2.463  0.1544 -0.6536  1.2744
 8876TIP3   OH226549   7.026   3.547   0.674 -0.3524  0.0996 -0.1184
 8876TIP3    H126550   6.972   3.468   0.681 -0.7693  0.3169 -0.7450
 8876TIP3    H226551   7.007   3.596   0.754 -0.9027  0.0564 -0.2164
 8877TIP3   OH226552   2.575   1.018   3.450  0.2243  0.0009  0.3970
 8877TIP3    H126553   2.506   0.955   3.467  1.3383 -0.7960  2.1995
 8877TIP3    H226554   2.541   1.101   3.482  0.3199 -0.5164  1.9076
 8878TIP3   OH226555   5.989   3.696   5.300 -0.3793 -0.3174  0.4759
 8878TIP3    H126556   5.908   3.658   5.268 -0.4425  0.6573 -0.5734
 8878TIP3    H226557   5.967   3.787   5.319  0.9085  0.5696 -1.8439
 8879TIP3   OH226558   6.047   2.517   6.394  0.7445 -0.2563 -0.3038
 8879TIP3    H126559   5.987   2.589   6.411  1.3649  0.0498  0.6981
 8879TIP3    H226560   5.992   2.440   6.388  0.2793 -0.0491  1.0368
 8880TIP3   OH226561   7.894   6.837   4.958  0.0308 -0.0225 -0.2174
 8880TIP3    H126562   7.980   6.798   4.949 -0.5145 -0.9618 -1.6471
 8880TIP3    H226563   7.912   6.931   4.970  1.2349 -0.1671 -0.7262
 8881TIP3   OH226564   4.941   6.301   5.648 -0.3484 -0.1588  0.1349
 8881TIP3    H126565   5.013   6.336   5.701  0.3418 -1.0516 -0.1710
 8881TIP3    H226566   4.961   6.207   5.641 -1.1641 -0.2897 -0.5646
 8882TIP3   OH226567   7.057   1.194   6.800  0.1114 -0.3265 -0.5269
 8882TIP3    H126568   7.141   1.169   6.763  1.4285  0.2886  1.8814
 8882TIP3    H226569   6.995   1.129   6.766  1.4092 -0.5042 -2.7366
 8883TIP3   OH226570   4.350   1.698   1.195 -0.2630 -0.0817  0.1312
 8883TIP3    H126571   4.362   1.761   1.124 -0.7104  0.0652  0.1827
 8883TIP3    H226572   4.266   1.657   1.178 -0.9854  0.8547  1.2482
 8884TIP3   OH226573   5.647   4.976   4.857 -0.2037 -0.1861  0.5886
 8884TIP3    H126574   5.604   5.054   4.822 -1.7211 -0.7974  0.9872
 8884TIP3    H226575   5.724   4.964   4.803 -0.0931  1.4331  0.3564
 8885TIP3   OH226576   2.082   3.525   6.144 -1.0379  0.2964 -0.1904
 8885TIP3    H126577   2.086   3.516   6.240 -0.9916  0.9837 -0.1217
 8885TIP3    H226578   2.173   3.537   6.118 -0.8734 -1.3865 -0.4938
 8886TIP3   OH226579   7.655   0.858   3.416 -0.2632  0.1328 -0.4056
 8886TIP3    H126580   7.583   0.797   3.432 -1.7964  1.7630 -0.7816
 8886TIP3    H226581   7.697   0.826   3.336 -1.6097  0.0512 -1.1061
 8887TIP3   OH226582   4.946   7.666   4.393 -0.3504  0.5477 -0.3519
 8887TIP3    H126583   4.999   7.629   4.464  0.4428  2.0548 -0.1200
 8887TIP3    H226584   4.867   7.698   4.436 -0.1239  0.9516 -0.2354
 8888TIP3   OH226585   4.326   7.107   6.416  0.3132 -0.6162 -0.3071
 8888TIP3    H126586   4.283   7.146   6.492  3.3077 -2.5531  2.6506
 8888TIP3    H226587   4.349   7.182   6.361 -0.1438  1.0938  1.6884
 8889TIP3   OH226588   7.644   1.073   6.661 -0.0273 -0.3825  0.6644
 8889TIP3    H126589   7.609   0.984   6.669 -1.4549  0.0130 -0.7040
 8889TIP3    H226590   7.711   1.067   6.593 -1.9186  0.0152 -1.3265
 8890TIP3   OH226591   1.664   4.199   2.772  0.0345 -0.2018 -0.1743
 8890TIP3    H126592   1.608   4.121   2.778 -0.2839 -0.1373 -1.8464
 8890TIP3    H226593   1.603   4.273   2.780 -0.2783 -0.1241 -2.5190
 8891TIP3   OH226594   7.272   1.455   7.035 -0.3698  0.1947  0.7763
 8891TIP3    H126595   7.344   1.484   6.979 -1.1313 -0.6252 -0.6876
 8891TIP3    H226596   7.193   1.488   6.992 -0.9701 -0.3367  1.4433
 8892TIP3   OH226597   3.424   3.982   5.957 -0.6120 -0.0031  0.0170
 8892TIP3    H126598   3.463   4.048   5.899  0.3341 -0.5198  0.0430
 8892TIP3    H226599   3.398   3.911   5.898 -2.0139  0.5385 -0.0629
 8893TIP3   OH226600   4.130   7.336   0.722  0.0300  0.0863 -0.3052
 8893TIP3    H126601   4.142   7.242   0.714 -0.3061 -0.1743  1.6330
 8893TIP3    H226602   4.035   7.349   0.715  0.1427  0.3901 -1.3680
 8894TIP3   OH226603   4.473   0.471   2.720 -0.0844 -0.2191 -0.1675
 8894TIP3    H126604   4.436   0.548   2.677  2.7518  1.3677 -0.0470
 8894TIP3    H226605   4.540   0.440   2.660  0.8824 -0.7227  1.1201
 8895TIP3   OH226606   0.215   3.452   1.222  0.4363  0.5598 -0.7023
 8895TIP3    H126607   0.236   3.543   1.243 -0.8297  0.6118  0.4408
 8895TIP3    H226608   0.275   3.400   1.276 -2.2199  0.7027  2.7607
 8896TIP3   OH226609   3.744   5.855   5.925  0.4071  0.1935 -0.0597
 8896TIP3    H126610   3.677   5.829   5.863 -1.3554  1.8292  1.0228
 8896TIP3    H226611   3.696   5.869   6.007  2.2212  0.6035  0.9871
 8897TIP3   OH226612   6.601   7.776   6.734 -0.0893  0.4531  0.2882
 8897TIP3    H126613   6.553   7.842   6.684 -0.3787 -0.3999 -0.5917
 8897TIP3    H226614   6.663   7.738   6.672  1.1094  0.8914  1.1694
 8898TIP3   OH226615   1.319   0.752   4.087  0.4755  0.1720  0.5012
 8898TIP3    H126616   1.224   0.760   4.088  0.4706  0.0455  1.1995
 8898TIP3    H226617   1.342   0.716   4.172  1.1749  0.5061  0.4664
 8899TIP3   OH226618   2.719   5.643   6.796 -0.2161  0.1176  0.1403
 8899TIP3    H126619   2.729   5.699   6.719  1.2407  2.0176  1.5990
 8899TIP3    H226620   2.809   5.629   6.826 -0.7627 -0.4196  1.5733
 8900TIP3   OH226621   2.103   1.209   2.586  0.1295  0.3540 -0.1285
 8900TIP3    H126622   2.158   1.285   2.601 -1.3712  1.5864 -0.6073
 8900TIP3    H226623   2.079   1.179   2.674 -0.2336  1.1819  0.0621
 8901TIP3   OH226624   0.675   7.374   3.122  0.6724 -0.6882 -0.0364
 8901TIP3    H126625   0.658   7.454   3.172  1.1245  0.1669 -1.2042
 8901TIP3    H226626   0.688   7.405   3.032  1.2501 -2.0424 -0.4360
 8902TIP3   OH226627   7.508   7.825   2.469 -0.5296 -0.0035 -0.1503
 8902TIP3    H126628   7.512   7.920   2.476 -1.6093 -0.0054  0.7918
 8902TIP3    H226629   7.572   7.793   2.534  0.4581  0.0676 -1.0671
 8903TIP3   OH226630   3.227   0.066   4.174 -0.1985 -0.1252 -0.3934
 8903TIP3    H126631   3.322   0.079   4.173  0.0122 -1.4022  0.6358
 8903TIP3    H226632   3.209   0.020   4.092  0.4847 -2.1977  0.5391
 8904TIP3   OH226633   2.398   7.431   5.755 -0.2339 -0.1236  0.0027
 8904TIP3    H126634   2.479   7.472   5.785 -0.1649  0.5439 -1.0203
 8904TIP3    H226635   2.425   7.377   5.681 -0.6605 -0.2164 -0.0874
 8905TIP3   OH226636   6.202   7.865   2.851 -0.3386  0.2513 -0.5235
 8905TIP3    H126637   6.284   7.829   2.819 -0.9583 -0.7582 -1.0259
 8905TIP3    H226638   6.152   7.789   2.882 -1.7300  0.6087 -1.7277
 8906TIP3   OH226639   3.456   3.004   4.636 -0.1001  0.1022 -0.1565
 8906TIP3    H126640   3.537   3.016   4.585 -0.0486  0.4972  0.0100
 8906TIP3    H226641   3.484   2.962   4.717 -0.1049 -0.0336 -0.2249
 8907TIP3   OH226642   6.218   3.267   1.283  0.5896  0.2232  0.1127
 8907TIP3    H126643   6.304   3.254   1.244  0.7181 -1.4381  0.8443
 8907TIP3    H226644   6.167   3.190   1.255  0.2620 -0.3207  2.0048
 8908TIP3   OH226645   2.926   3.017   6.128 -0.1972  0.0902 -0.2448
 8908TIP3    H126646   2.883   2.935   6.151 -0.0813 -0.0252 -0.4384
 8908TIP3    H226647   2.921   3.070   6.208  0.9569 -0.6240  0.3199
 8909TIP3   OH226648   0.829   6.097   6.434 -0.0450  0.7503  0.2282
 8909TIP3    H126649   0.871   6.173   6.394 -0.2051  0.9823  0.4903
 8909TIP3    H226650   0.735   6.110   6.416 -0.0882  0.7007  0.4188
 8910TIP3   OH226651   3.004   4.089   7.029 -0.2643 -0.2841  0.1156
 8910TIP3    H126652   2.935   4.126   7.084 -0.6627 -1.9277  0.7787
 8910TIP3    H226653   3.042   4.165   6.984 -2.9129  0.6061 -0.7833
 8911TIP3   OH226654   4.565   4.890   3.390  0.5771 -0.0434 -0.3946
 8911TIP3    H126655   4.601   4.970   3.350 -0.7961 -0.1798 -1.9887
 8911TIP3    H226656   4.577   4.904   3.484 -1.1222  2.8362 -0.4738
 8912TIP3   OH226657   6.627   3.056   1.879 -0.2172  0.4063 -0.2820
 8912TIP3    H126658   6.624   3.145   1.915 -4.1702  1.1676 -1.9893
 8912TIP3    H226659   6.603   3.000   1.953 -0.4672  1.0482  0.1321
 8913TIP3   OH226660   3.042   4.664   4.701  0.2118  0.2879  0.0667
 8913TIP3    H126661   3.133   4.651   4.673  0.8212 -0.2943  2.1584
 8913TIP3    H226662   3.000   4.580   4.682  0.9131 -0.5072  1.8197
 8914TIP3   OH226663   0.456   4.602   4.046  0.2160  0.7197 -0.1455
 8914TIP3    H126664   0.473   4.644   3.962 -0.8826  0.6499 -0.4228
 8914TIP3    H226665   0.362   4.586   4.046  0.4275 -0.6741  0.4599
 8915TIP3   OH226666   2.740   1.980   3.714 -0.3042  0.4688  0.2305
 8915TIP3    H126667   2.734   2.070   3.682  1.6072  0.5490  0.0150
 8915TIP3    H226668   2.754   1.990   3.808  2.7363  0.5822 -0.1254
 8916TIP3   OH226669   2.549   2.469   6.530  0.0790 -0.3268 -0.1834
 8916TIP3    H126670   2.564   2.562   6.516  0.6317 -0.4374 -0.3365
 8916TIP3    H226671   2.599   2.426   6.460  2.2420 -0.8706  1.6159
 8917TIP3   OH226672   5.422   8.196   4.139 -0.4173 -0.3100  0.3758
 8917TIP3    H126673   5.371   8.260   4.090  1.3761 -0.2233 -1.4993
 8917TIP3    H226674   5.430   8.121   4.080  1.6341 -0.2802  0.5509
 8918TIP3   OH226675   0.971   3.147   4.447 -0.2167 -0.9101  0.1505
 8918TIP3    H126676   1.033   3.215   4.421 -1.0865  0.6107  1.8426
 8918TIP3    H226677   1.008   3.066   4.413  0.3943  0.4746 -2.7600
 8919TIP3   OH226678   4.398   5.664   1.771 -0.4715  0.6477 -0.6431
 8919TIP3    H126679   4.348   5.665   1.690 -0.9859  0.9431 -0.3310
 8919TIP3    H226680   4.383   5.577   1.808  1.8133 -0.4551 -2.0851
 8920TIP3   OH226681   7.671   6.614   3.789 -0.0618 -0.1432 -0.0845
 8920TIP3    H126682   7.586   6.654   3.806 -1.0029 -2.0072 -0.1062
 8920TIP3    H226683   7.664   6.581   3.699  0.7548 -0.1713 -0.1451
 8921TIP3   OH226684   3.439   1.580   4.680 -0.0165  0.1277  0.1925
 8921TIP3    H126685   3.417   1.674   4.682 -0.0316  0.2245 -1.9601
 8921TIP3    H226686   3.377   1.540   4.740 -0.2423  1.4518  0.8954
 8922TIP3   OH226687   3.702   2.738   1.570 -0.0015 -0.0811  0.2067
 8922TIP3    H126688   3.671   2.743   1.661  0.5901  1.2825  0.3526
 8922TIP3    H226689   3.625   2.762   1.518  0.2195  1.3225  0.4767
 8923TIP3   OH226690   6.339   0.180   5.776  0.4160  0.2088  0.1434
 8923TIP3    H126691   6.310   0.140   5.694  1.3338  2.1574 -1.2173
 8923TIP3    H226692   6.325   0.112   5.843 -1.5351 -1.0004 -1.3901
 8924TIP3   OH226693   5.500   3.024   4.670  0.4452  0.2310  0.0551
 8924TIP3    H126694   5.516   3.067   4.586 -2.0446 -0.1130 -0.6878
 8924TIP3    H226695   5.436   3.080   4.714 -1.4023 -1.6075 -0.1145
 8925TIP3   OH226696   0.504   1.021   3.716  0.2786 -1.0689 -0.1967
 8925TIP3    H126697   0.508   1.088   3.647  0.2136 -0.7449  0.1086
 8925TIP3    H226698   0.504   1.071   3.798  0.0015 -1.4332  0.0308
 8926TIP3   OH226699   8.325   5.521   2.991 -0.2223 -0.0492 -0.1616
 8926TIP3    H126700   8.367   5.556   2.912  0.3745  0.1650  0.2448
 8926TIP3    H226701   8.380   5.551   3.063 -1.6823  1.2140  0.5030
 8927TIP3   OH226702   8.651   2.357   4.381 -0.0083 -1.0176 -0.0910
 8927TIP3    H126703   8.718   2.288   4.380  1.2708  0.1784 -0.3941
 8927TIP3    H226704   8.577   2.320   4.334  1.2149 -1.6589 -1.6057
 8928TIP3   OH226705   6.506   2.307   3.069 -1.0462 -0.4485  0.8075
 8928TIP3    H126706   6.560   2.323   3.146 -1.0732 -0.7822  0.8944
 8928TIP3    H226707   6.463   2.224   3.086  0.1223 -1.3029 -0.2267
 8929TIP3   OH226708   0.852   3.736   1.276 -0.5885 -0.7881 -0.3079
 8929TIP3    H126709   0.854   3.656   1.328 -2.7018 -0.1043  0.9593
 8929TIP3    H226710   0.785   3.720   1.210 -1.1410 -0.0427  0.0522
 8930TIP3   OH226711   3.626   4.254   4.737  0.0227 -0.0682  0.3499
 8930TIP3    H126712   3.600   4.205   4.816 -0.6197  0.2390  0.3305
 8930TIP3    H226713   3.651   4.186   4.675  1.7060 -0.2919  1.2011
 8931TIP3   OH226714   8.570   4.804   5.475  0.0323  0.2093  0.1583
 8931TIP3    H126715   8.498   4.829   5.532  0.5700  1.0369  0.4939
 8931TIP3    H226716   8.531   4.799   5.388 -0.4139  0.7416  0.3215
 8932TIP3   OH226717   4.608   4.888   4.192  0.0461 -0.0920  0.4207
 8932TIP3    H126718   4.605   4.832   4.270 -1.3729 -1.5567 -0.6282
 8932TIP3    H226719   4.533   4.946   4.201 -0.1868 -0.3398  0.0950
 8933TIP3   OH226720   6.589   1.087   3.195 -0.0599  0.2328  0.3417
 8933TIP3    H126721   6.615   1.001   3.228  2.4736  0.5387 -0.6760
 8933TIP3    H226722   6.609   1.147   3.267  1.7645  0.4006 -0.2586
 8934TIP3   OH226723   2.419   3.538   3.670  0.7184  0.0801 -0.2880
 8934TIP3    H126724   2.444   3.624   3.702  1.1908  0.6796 -2.1453
 8934TIP3    H226725   2.449   3.478   3.738 -0.9982  1.4369  1.7809
 8935TIP3   OH226726   4.723   5.655   2.483  0.1622 -0.7769  0.0829
 8935TIP3    H126727   4.810   5.615   2.490  0.3677 -0.5404 -0.8822
 8935TIP3    H226728   4.726   5.731   2.541  1.4677  0.6682 -1.7504
 8936TIP3   OH226729   3.646   6.660   3.487  0.2979 -0.5493  0.3924
 8936TIP3    H126730   3.724   6.636   3.436  0.4140  0.6262 -0.0189
 8936TIP3    H226731   3.599   6.577   3.500  1.3252 -1.1846  0.1643
 8937TIP3   OH226732   5.880   6.329   2.947  0.4825  0.8052  0.1509
 8937TIP3    H126733   5.970   6.354   2.928  0.5177  0.4626 -0.1467
 8937TIP3    H226734   5.827   6.395   2.902  0.5752  0.3940 -0.5858
 8938TIP3   OH226735   7.110   0.397   0.960  0.3392  0.1695 -0.3975
 8938TIP3    H126736   7.099   0.410   1.054  0.2141  0.7274 -0.4899
 8938TIP3    H226737   7.143   0.307   0.953 -1.7415 -0.6914  0.0322
 8939TIP3   OH226738   7.721   2.119   4.306  0.3710 -0.7712 -0.1164
 8939TIP3    H126739   7.714   2.034   4.351 -0.9656 -1.2498 -1.1555
 8939TIP3    H226740   7.647   2.120   4.246  1.6704  0.1570 -1.7956
 8940TIP3   OH226741   6.925   4.657   5.353  0.0468 -0.5218  0.0982
 8940TIP3    H126742   7.017   4.638   5.372 -0.0869 -2.2323 -0.7429
 8940TIP3    H226743   6.882   4.655   5.438  0.7089 -0.2137  0.4458
 8941TIP3   OH226744   2.190   6.320   3.401 -0.0845  0.2206 -0.1335
 8941TIP3    H126745   2.160   6.309   3.310  0.8954  0.5242 -0.5068
 8941TIP3    H226746   2.189   6.231   3.437  0.9795 -0.1241 -0.9199
 8942TIP3   OH226747   7.183   5.429   3.180 -0.0061 -0.3641  0.3086
 8942TIP3    H126748   7.217   5.511   3.143 -1.5037 -0.8729 -2.5641
 8942TIP3    H226749   7.260   5.381   3.209  1.0355  1.3868  0.5801
 8943TIP3   OH226750   5.064   4.922   4.483 -0.1399  0.2489  0.7145
 8943TIP3    H126751   5.138   4.952   4.431  0.9330 -0.9116  1.5207
 8943TIP3    H226752   4.994   4.907   4.419  0.3700  1.1348 -0.0812
 8944TIP3   OH226753   8.366   6.886   3.451 -0.0769 -0.3022 -0.2166
 8944TIP3    H126754   8.423   6.822   3.407 -1.3402 -0.9593 -0.9772
 8944TIP3    H226755   8.277   6.857   3.430 -0.6991  1.2763  0.0606
 8945TIP3   OH226756   8.526   6.673   3.343 -0.1942 -0.0012  0.7234
 8945TIP3    H126757   8.530   6.591   3.392  3.4125 -1.1823 -1.1732
 8945TIP3    H226758   8.617   6.701   3.335 -0.8651  1.7878 -2.5149
 8946TIP3   OH226759   4.259   7.283   5.630  0.3361  0.0596 -0.5666
 8946TIP3    H126760   4.233   7.322   5.714 -0.2462  1.0624 -1.1896
 8946TIP3    H226761   4.302   7.201   5.654  0.2411  0.3609  0.7153
 8947TIP3   OH226762   7.455   4.837   1.782 -0.4581 -0.1209  0.1275
 8947TIP3    H126763   7.364   4.855   1.806 -0.4596 -0.1640  0.1539
 8947TIP3    H226764   7.472   4.750   1.817  0.3469  0.8162  2.2459
 8948TIP3   OH226765   5.304   2.375   4.967  0.1542  0.0751 -0.2874
 8948TIP3    H126766   5.219   2.400   4.930  0.4501 -0.2284 -1.1931
 8948TIP3    H226767   5.357   2.350   4.892  0.7845 -0.5369  0.3397
 8949TIP3   OH226768   8.179   0.179   2.197  0.0593 -0.0044 -0.2458
 8949TIP3    H126769   8.252   0.121   2.218 -0.8396 -1.4865 -1.0110
 8949TIP3    H226770   8.191   0.200   2.104 -0.4185 -0.1846 -0.3509
 8950TIP3   OH226771   5.448   7.800   5.573  0.3441 -0.0080 -0.5238
 8950TIP3    H126772   5.475   7.878   5.524  0.0966  0.4398  0.0413
 8950TIP3    H226773   5.353   7.809   5.581  0.3051 -0.4107 -0.5183
 8951TIP3   OH226774   3.022   4.220   2.850 -0.0430  0.2409 -0.3993
 8951TIP3    H126775   3.035   4.267   2.767 -0.8746  2.0781  0.4516
 8951TIP3    H226776   3.066   4.275   2.915 -1.1457 -0.0983  0.6602
 8952TIP3   OH226777   5.632   7.285   3.202  0.8573  0.3144  0.7842
 8952TIP3    H126778   5.550   7.253   3.239  0.1658 -0.4336 -1.2528
 8952TIP3    H226779   5.613   7.376   3.179  0.7387  0.2811  0.7471
 8953TIP3   OH226780   1.065   4.851   6.467 -0.3890  0.1435  0.7694
 8953TIP3    H126781   1.048   4.770   6.516  2.0731 -0.7670  0.2489
 8953TIP3    H226782   1.131   4.897   6.519 -0.2236  0.7981  0.0016
 8954TIP3   OH226783   4.717   6.237   2.166  0.3798  0.4188  0.1936
 8954TIP3    H126784   4.720   6.305   2.233 -1.9327  0.4695  0.3299
 8954TIP3    H226785   4.633   6.250   2.123 -0.1927 -2.3622  0.2755
 8955TIP3   OH226786   1.975   7.817   2.113  0.6732 -0.5006  0.0146
 8955TIP3    H126787   2.010   7.905   2.099 -0.6374 -0.2529 -2.1339
 8955TIP3    H226788   1.882   7.831   2.133  0.3333 -1.4095 -0.8725
 8956TIP3   OH226789   6.853   4.937   4.747 -0.0058  0.2438 -0.1788
 8956TIP3    H126790   6.876   4.952   4.839 -0.0714  0.0900 -0.1377
 8956TIP3    H226791   6.792   4.864   4.749 -0.2716  0.4599 -0.3176
 8957TIP3   OH226792   0.499   6.781   0.070 -0.3544  0.0055 -0.0627
 8957TIP3    H126793   0.455   6.714   0.122  0.3618 -0.9300 -0.6273
 8957TIP3    H226794   0.514   6.853   0.131 -1.0974 -0.3545  0.5700
 8958TIP3   OH226795   7.651   3.289   6.418  0.1026 -0.1308 -0.0323
 8958TIP3    H126796   7.699   3.219   6.461  0.5932 -0.5196 -1.1737
 8958TIP3    H226797   7.638   3.355   6.486  1.0364 -0.6376  0.6546
 8959TIP3   OH226798   8.369   4.235   4.783 -0.5796 -0.5098 -0.4654
 8959TIP3    H126799   8.321   4.178   4.843 -0.8133 -0.0871 -0.2464
 8959TIP3    H226800   8.449   4.187   4.763 -0.5190 -0.6725  0.1498
 8960TIP3   OH226801   1.933   5.078   1.401  0.3514  0.1242 -0.1050
 8960TIP3    H126802   1.879   5.134   1.346 -0.3754 -0.0869  0.3878
 8960TIP3    H226803   1.900   4.989   1.386  1.3520 -0.1676 -0.7113
 8961TIP3   OH226804   8.577   2.896   2.242 -0.3054 -0.8021 -0.1055
 8961TIP3    H126805   8.585   2.989   2.265  0.8234 -0.9975  0.3599
 8961TIP3    H226806   8.495   2.868   2.284 -0.4417 -0.1232  0.0980
 8962TIP3   OH226807   5.063   3.136   4.671  1.2465 -0.1193  0.2578
 8962TIP3    H126808   5.147   3.146   4.627  1.5613  0.2386  0.9220
 8962TIP3    H226809   5.018   3.219   4.657  1.1941 -0.1436  0.2818
 8963TIP3   OH226810   2.845   7.688   0.056  0.3117  0.4262 -0.1626
 8963TIP3    H126811   2.895   7.610   0.080 -0.4591  0.0037  0.1191
 8963TIP3    H226812   2.769   7.653   0.009  0.6700  1.1016 -1.2909
 8964TIP3   OH226813   3.460   3.717   5.814 -0.4107  0.2455  0.2541
 8964TIP3    H126814   3.462   3.732   5.719 -2.0871  2.1429  0.4505
 8964TIP3    H226815   3.551   3.729   5.842  0.0966 -0.2947 -1.0880
 8965TIP3   OH226816   2.428   1.472   2.420  0.7642  0.0520 -0.1371
 8965TIP3    H126817   2.401   1.548   2.369 -1.5388 -0.4336  0.2390
 8965TIP3    H226818   2.366   1.403   2.396 -0.6798 -0.1272  3.3856
 8966TIP3   OH226819   5.847   1.361   1.215  0.3681  0.2601  0.5119
 8966TIP3    H126820   5.874   1.307   1.140  0.0257 -0.2142  0.7242
 8966TIP3    H226821   5.776   1.415   1.182 -0.9990 -1.1935  0.9168
 8967TIP3   OH226822   3.235   1.746   3.949 -0.4056  0.3623 -0.1635
 8967TIP3    H126823   3.175   1.817   3.926  0.0988  0.1126 -2.4595
 8967TIP3    H226824   3.314   1.791   3.979 -0.1766  0.7968 -1.3733
 8968TIP3   OH226825   0.498   4.831   5.740 -0.3434  0.3567  0.2779
 8968TIP3    H126826   0.503   4.920   5.706  1.4706  0.4916  0.7929
 8968TIP3    H226827   0.589   4.803   5.748 -0.8532 -2.3220 -1.7793
 8969TIP3   OH226828   5.083   6.122   4.811 -0.1766 -0.2220  0.2973
 8969TIP3    H126829   5.138   6.077   4.875 -1.0251 -1.2268  0.3504
 8969TIP3    H226830   5.025   6.054   4.777 -1.2241  0.7490  0.0719
 8970TIP3   OH226831   1.531   1.173   0.794  0.0744 -0.2656 -0.7759
 8970TIP3    H126832   1.537   1.246   0.855  0.1702 -0.4999 -0.5038
 8970TIP3    H226833   1.525   1.214   0.708  0.2989  0.0579 -0.6379
 8971TIP3   OH226834   5.366   0.729   0.610 -0.0884  0.0422 -0.7418
 8971TIP3    H126835   5.286   0.742   0.660  1.2722  0.4597  1.4913
 8971TIP3    H226836   5.350   0.650   0.558 -1.6538 -0.3303  0.2511
 8972TIP3   OH226837   0.661   7.886   5.426 -0.1230 -0.5830  0.1852
 8972TIP3    H126838   0.686   7.807   5.475 -0.3515 -1.0249 -0.4041
 8972TIP3    H226839   0.679   7.958   5.487 -1.0636 -1.1640  1.1933
 8973TIP3   OH226840   4.179   2.469   6.562 -0.2733  0.0646 -0.4229
 8973TIP3    H126841   4.085   2.466   6.544 -0.2588  1.6593 -0.8848
 8973TIP3    H226842   4.211   2.542   6.509  1.1875 -0.3041 -0.0771
 8974TIP3   OH226843   6.287   7.254   6.386 -0.3866 -0.6328 -0.2381
 8974TIP3    H126844   6.257   7.256   6.295  1.9897 -3.6017 -1.2472
 8974TIP3    H226845   6.224   7.199   6.431  0.1230 -1.7733 -0.8814
 8975TIP3   OH226846   6.073   2.112   0.047  0.6856 -0.0291 -0.0101
 8975TIP3    H126847   5.995   2.058   0.034  1.1706 -1.5236  2.6742
 8975TIP3    H226848   6.040   2.194   0.084  0.2782 -0.0562 -0.3055
 8976TIP3   OH226849   0.620   5.973   4.140  0.0636  0.0180  0.0779
 8976TIP3    H126850   0.617   5.929   4.054 -1.0983  0.3446 -0.0720
 8976TIP3    H226851   0.665   5.911   4.197  0.1522 -0.5425 -0.5830
 8977TIP3   OH226852   8.547   2.481   1.783 -0.5768  0.2036  0.4024
 8977TIP3    H126853   8.587   2.567   1.776 -0.3205  0.2050  1.6837
 8977TIP3    H226854   8.498   2.471   1.701  0.9675  0.7363 -0.6538
 8978TIP3   OH226855   4.111   6.126   0.565 -0.4399 -0.2612  0.4282
 8978TIP3    H126856   4.084   6.136   0.656  0.2585  4.2290  0.3710
 8978TIP3    H226857   4.048   6.179   0.516  3.6704  4.5972 -0.4939
 8979TIP3   OH226858   3.143   1.755   7.056  0.2591 -0.7262  0.4083
 8979TIP3    H126859   3.087   1.678   7.045 -0.8265  0.2112 -0.9945
 8979TIP3    H226860   3.229   1.726   7.025  0.0856 -1.6093  0.7034
 8980TIP3   OH226861   4.636   8.048   2.834  0.5146 -0.3953 -0.2694
 8980TIP3    H126862   4.642   8.136   2.795 -0.3371  0.2788  1.0272
 8980TIP3    H226863   4.690   8.053   2.913 -2.4440  0.2781  1.9448
 8981TIP3   OH226864   7.308   2.237   6.545 -0.4774  0.3126 -0.4257
 8981TIP3    H126865   7.259   2.316   6.524  0.1601  0.6189 -0.7895
 8981TIP3    H226866   7.338   2.204   6.461 -0.7097 -0.3036 -0.2729
 8982TIP3   OH226867   5.062   4.502   5.177 -0.3218 -0.0499  0.1945
 8982TIP3    H126868   5.028   4.414   5.167 -3.2406  1.0973 -1.2660
 8982TIP3    H226869   5.067   4.536   5.087  2.2946  0.8049  0.5684
 8983TIP3   OH226870   3.498   3.970   0.760 -0.6356  0.0182 -0.0189
 8983TIP3    H126871   3.519   3.890   0.712  0.6189 -0.1906  0.8277
 8983TIP3    H226872   3.578   3.990   0.809 -0.9849  1.7166 -0.1041
 8984TIP3   OH226873   8.185   3.291   1.424  0.0838 -0.4193 -0.4853
 8984TIP3    H126874   8.104   3.295   1.373 -2.3845 -1.1885  2.9530
 8984TIP3    H226875   8.163   3.234   1.498  2.5608  2.1709  2.5490
 8985TIP3   OH226876   8.415   4.004   3.587 -0.2548  0.2838  0.4010
 8985TIP3    H126877   8.428   4.027   3.680  1.9518  0.4842  0.0977
 8985TIP3    H226878   8.452   3.916   3.579  0.5008  0.6635 -0.4653
 8986TIP3   OH226879   2.484   0.802   5.455 -0.0763  0.0172  0.8142
 8986TIP3    H126880   2.537   0.881   5.447 -0.3233  0.0552 -1.0507
 8986TIP3    H226881   2.428   0.817   5.532  0.6371  1.1743  1.1221
 8987TIP3   OH226882   4.982   3.582   3.654  0.3211  0.1620  0.2916
 8987TIP3    H126883   4.918   3.651   3.673 -1.4509 -0.9066 -1.4066
 8987TIP3    H226884   5.010   3.551   3.740 -1.2816  0.8484  1.1066
 8988TIP3   OH226885   0.995   6.321   0.449 -0.3622 -0.8953  0.5533
 8988TIP3    H126886   1.002   6.393   0.387 -2.3614 -1.1298 -0.0221
 8988TIP3    H226887   1.005   6.362   0.535  0.1606 -0.2022  0.1648
 8989TIP3   OH226888   5.457   4.369   6.749  0.3340 -0.1538 -0.5131
 8989TIP3    H126889   5.468   4.333   6.837  1.6617  0.4354 -0.4045
 8989TIP3    H226890   5.372   4.338   6.720  0.6814 -1.9143  0.2530
 8990TIP3   OH226891   5.349   6.745   6.455 -0.6657 -0.6893  0.3950
 8990TIP3    H126892   5.286   6.814   6.472  0.9693  0.7580  0.8390
 8990TIP3    H226893   5.358   6.743   6.360 -0.3038  0.1062  0.4116
 8991TIP3   OH226894   4.433   0.253   2.894 -0.3052 -0.5415 -0.3273
 8991TIP3    H126895   4.471   0.318   2.835 -0.1059 -1.3756 -1.1356
 8991TIP3    H226896   4.452   0.169   2.853  0.9864 -1.2399  1.5617
 8992TIP3   OH226897   4.866   2.958   6.129 -0.1650  0.2518 -0.5461
 8992TIP3    H126898   4.919   2.920   6.059  0.9395  0.6392  0.0482
 8992TIP3    H226899   4.892   3.050   6.131 -1.5213  0.6629 -0.8100
 8993TIP3   OH226900   0.860   5.381   2.811  0.4294  0.0850 -0.3837
 8993TIP3    H126901   0.863   5.390   2.715  1.0014  0.3308 -0.3460
 8993TIP3    H226902   0.877   5.288   2.827  0.2490  0.0270 -0.5222
 8994TIP3   OH226903   8.538   0.887   2.450  0.0481  0.6507  0.1265
 8994TIP3    H126904   8.589   0.807   2.436 -3.7734 -2.1190  0.5456
 8994TIP3    H226905   8.577   0.951   2.390  1.7030 -2.2971 -2.1993
 8995TIP3   OH226906   1.605   7.411   2.756  0.1830 -0.1887  0.0492
 8995TIP3    H126907   1.697   7.387   2.755  0.3425  0.2462 -2.4204
 8995TIP3    H226908   1.603   7.500   2.791  0.5004 -0.7245  1.4869
 8996TIP3   OH226909   3.507   2.613   0.653  0.1581  0.0180  0.6702
 8996TIP3    H126910   3.475   2.524   0.660  2.9699 -1.4008 -2.0206
 8996TIP3    H226911   3.579   2.619   0.716  0.1042  0.3411  0.7069
 8997TIP3   OH226912   1.156   1.585   0.492 -0.2035  0.1509  0.1268
 8997TIP3    H126913   1.129   1.672   0.464 -3.1617 -0.8060 -0.3152
 8997TIP3    H226914   1.202   1.599   0.574 -0.5261  2.1310  0.0177
 8998TIP3   OH226915   6.598   6.130   2.665 -0.7517  0.0807 -0.3293
 8998TIP3    H126916   6.633   6.062   2.723 -0.6702  0.4823  0.1000
 8998TIP3    H226917   6.675   6.177   2.633 -0.8679  0.9963  0.6564
 8999TIP3   OH226918   6.739   0.881   5.274  0.3594 -0.1899 -0.3302
 8999TIP3    H126919   6.809   0.857   5.213 -1.1505 -1.8175 -1.5449
 8999TIP3    H226920   6.659   0.880   5.220 -0.7097  0.8774  1.1475
 9000TIP3   OH226921   8.336   2.671   3.226  0.6500 -0.1916  0.3885
 9000TIP3    H126922   8.378   2.630   3.151 -0.7465  0.8607 -1.0386
 9000TIP3    H226923   8.365   2.620   3.302  2.0418 -1.3202 -0.8689
 9001TIP3   OH226924   8.563   7.478   3.728 -0.1149 -0.2947  0.3583
 9001TIP3    H126925   8.472   7.470   3.701  0.6118 -2.4775 -1.7627
 9001TIP3    H226926   8.560   7.475   3.824 -2.3251  0.8655  0.3615
 9002TIP3   OH226927   5.677   5.359   4.311  0.5485 -0.1949 -0.4207
 9002TIP3    H126928   5.638   5.309   4.239  2.0563  1.3830 -2.4956
 9002TIP3    H226929   5.756   5.398   4.272  0.5724  2.0512  1.6538
 9003TIP3   OH226930   7.071   1.780   2.956  0.3034  0.1891  0.6619
 9003TIP3    H126931   7.123   1.793   2.877 -2.0398 -0.3478 -1.0925
 9003TIP3    H226932   7.101   1.848   3.017  1.7861  0.9879 -0.8881
 9004TIP3   OH226933   2.855   6.875   6.292 -0.8421  0.2892 -0.1673
 9004TIP3    H126934   2.816   6.787   6.284 -3.1055  1.0922  1.1113
 9004TIP3    H226935   2.880   6.898   6.202  1.7569 -2.4181 -0.2938
 9005TIP3   OH226936   7.193   1.748   2.701  0.5127 -0.1908 -0.3706
 9005TIP3    H126937   7.264   1.770   2.641  0.5310  1.1854  0.1147
 9005TIP3    H226938   7.113   1.769   2.652  0.5193  0.6330 -0.0382
 9006TIP3   OH226939   0.435   2.943   1.933 -0.4468  0.0333  0.5826
 9006TIP3    H126940   0.443   3.001   1.857  0.7513 -1.2540 -0.3231
 9006TIP3    H226941   0.371   2.877   1.906  1.2776 -1.4623 -0.0691
 9007TIP3   OH226942   4.786   0.915   2.655 -0.1960 -0.2886  0.8293
 9007TIP3    H126943   4.836   0.848   2.609  0.8994 -0.1450  1.7644
 9007TIP3    H226944   4.802   0.996   2.606  0.7792 -0.1809  1.2942
 9008TIP3   OH226945   1.360   7.139   2.238  0.2948 -0.0030 -0.4567
 9008TIP3    H126946   1.394   7.203   2.176  0.7642 -0.7083 -0.9386
 9008TIP3    H226947   1.408   7.156   2.319  2.1542 -1.2683 -1.2438
 9009TIP3   OH226948   3.449   2.351   6.175 -0.3394  0.2117  0.1541
 9009TIP3    H126949   3.494   2.379   6.096 -0.2956  0.5338  0.2947
 9009TIP3    H226950   3.359   2.334   6.146  0.2304 -2.0145 -0.4743
 9010TIP3   OH226951   1.136   3.680   6.316  0.4247  0.6228  0.4669
 9010TIP3    H126952   1.056   3.666   6.267  0.7514 -0.8612  0.3069
 9010TIP3    H226953   1.206   3.660   6.254  0.8817  0.6398  0.9643
 9011TIP3   OH226954   2.299   6.921   0.436 -0.2454  0.0267  0.0932
 9011TIP3    H126955   2.259   6.848   0.389 -2.0634  1.3175 -0.4423
 9011TIP3    H226956   2.254   6.923   0.520 -1.4326  1.5645 -0.5563
 9012TIP3   OH226957   5.897   1.029   0.463  0.5969 -0.1687  0.5983
 9012TIP3    H126958   5.908   1.123   0.448 -0.7074  0.3853  2.6962
 9012TIP3    H226959   5.973   1.004   0.515  2.2352 -0.8977 -1.9438
 9013TIP3   OH226960   0.850   1.630   6.589 -0.3297  0.3028 -0.2997
 9013TIP3    H126961   0.839   1.551   6.643 -2.4408  1.0994  0.5509
 9013TIP3    H226962   0.915   1.682   6.636  1.2826 -1.0032 -1.0094
 9014TIP3   OH226963   8.695   3.656   0.444  0.3349  0.0495  0.0326
 9014TIP3    H126964   8.690   3.591   0.514  0.5255 -1.5203 -1.3743
 9014TIP3    H226965   8.642   3.729   0.476  1.2073 -0.1918  2.2415
 9015TIP3   OH226966   7.544   6.314   1.748 -0.4379 -0.3655 -0.2928
 9015TIP3    H126967   7.606   6.320   1.820  0.0645  0.5674 -0.7808
 9015TIP3    H226968   7.458   6.325   1.789 -0.4013 -2.5433  0.5111
 9016TIP3   OH226969   1.542   1.987   5.003 -0.8604 -0.5158 -0.0317
 9016TIP3    H126970   1.557   1.981   4.908 -0.4997  1.7182 -0.1770
 9016TIP3    H226971   1.629   1.985   5.041 -1.0560 -3.0665  0.4634
 9017TIP3   OH226972   8.262   5.933   3.666  0.5926  0.3069  0.0734
 9017TIP3    H126973   8.339   5.881   3.689  1.0488  0.7401 -0.4575
 9017TIP3    H226974   8.294   6.024   3.666  0.0666  0.4924 -0.0761
 9018TIP3   OH226975   5.313   7.079   6.822 -0.2158 -0.2108  0.3107
 9018TIP3    H126976   5.347   7.161   6.858 -1.9520  1.3161 -1.2978
 9018TIP3    H226977   5.382   7.015   6.839  0.9450  1.4055  2.1948
 9019TIP3   OH226978   3.921   3.486   6.237 -0.1784 -0.5652  0.3648
 9019TIP3    H126979   3.961   3.444   6.161  0.2038 -2.2204  1.4511
 9019TIP3    H226980   3.994   3.501   6.298 -0.7775 -1.1944  1.2633
 9020TIP3   OH226981   0.123   2.446   0.867 -0.7745  0.0627  0.0156
 9020TIP3    H126982   0.056   2.477   0.806 -0.0539 -0.9499 -1.3499
 9020TIP3    H226983   0.205   2.455   0.819 -0.2606 -1.4101  0.5717
 9021TIP3   OH226984   3.687   1.306   4.456  0.1598 -0.2213  0.2792
 9021TIP3    H126985   3.684   1.400   4.476 -3.0787 -0.9604  4.6989
 9021TIP3    H226986   3.775   1.279   4.481  1.4164  1.5898 -1.7524
 9022TIP3   OH226987   4.334   1.874   6.708  0.2799  0.2490 -0.5496
 9022TIP3    H126988   4.261   1.879   6.769  0.0122  0.5349 -0.8910
 9022TIP3    H226989   4.390   1.949   6.729  0.9631 -0.4789  0.3218
 9023TIP3   OH226990   8.286   2.051   3.552  0.0075  0.3584  0.2192
 9023TIP3    H126991   8.274   2.112   3.480 -0.4295 -0.5215 -0.4681
 9023TIP3    H226992   8.213   1.989   3.544 -0.9779  1.1313  2.3334
 9024TIP3   OH226993   6.844   6.042   4.384  0.0316  0.1309  0.2581
 9024TIP3    H126994   6.817   6.070   4.472 -0.2508  1.2942 -0.1890
 9024TIP3    H226995   6.819   5.949   4.381 -0.0340  0.0936  1.3689
 9025TIP3   OH226996   5.228   4.369   2.332  0.0871 -0.0620 -0.3501
 9025TIP3    H126997   5.281   4.379   2.253 -2.1467  2.2089 -1.7069
 9025TIP3    H226998   5.271   4.426   2.397  0.8727 -0.4533 -0.5186
 9026TIP3   OH226999   0.177   1.916   0.294 -0.1616 -0.6267  0.0668
 9026TIP3    H127000   0.100   1.972   0.287 -0.2147 -0.5388  1.2721
 9026TIP3    H227001   0.143   1.827   0.284 -0.3446 -0.5616  0.1247
 9027TIP3   OH227002   7.275   1.485   0.899 -0.1529  0.3803  0.1610
 9027TIP3    H127003   7.314   1.435   0.971 -1.7899 -0.6111  0.4010
 9027TIP3    H227004   7.265   1.421   0.829 -1.1169  0.6655  0.0333
 9028TIP3   OH227005   6.702   7.489   2.448  0.2092 -0.7395 -0.2573
 9028TIP3    H127006   6.699   7.526   2.536  0.5064  0.4595 -0.7274
 9028TIP3    H227007   6.654   7.407   2.454 -2.6715  0.8598  0.2976
 9029TIP3   OH227008   7.192   7.321   3.144  0.6906 -0.6527  0.9412
 9029TIP3    H127009   7.132   7.319   3.069  1.5455  1.7514  0.1028
 9029TIP3    H227010   7.135   7.341   3.219  0.1609 -0.5595  0.5235
 9030TIP3   OH227011   7.696   0.663   4.959 -0.2123 -0.5223  0.0094
 9030TIP3    H127012   7.638   0.688   5.030 -0.1971 -0.2510 -0.0698
 9030TIP3    H227013   7.666   0.715   4.884  1.0779  0.7943  0.3550
 9031TIP3   OH227014   3.989   7.841   1.632  0.1403 -0.0804  0.3184
 9031TIP3    H127015   4.029   7.783   1.568 -1.0718  0.7197 -1.2126
 9031TIP3    H227016   3.994   7.792   1.714  1.9154 -1.0362 -0.2968
 9032TIP3   OH227017   1.558   4.018   0.909  0.1938  0.3222 -0.9615
 9032TIP3    H127018   1.575   3.928   0.882  1.4234 -0.0185  0.8019
 9032TIP3    H227019   1.536   4.013   1.001 -2.5805  1.5877 -1.4644
 9033TIP3   OH227020   6.474   5.657   1.327 -0.4426  0.1326 -0.0444
 9033TIP3    H127021   6.499   5.656   1.419 -1.9274  0.6920  0.3832
 9033TIP3    H227022   6.493   5.747   1.298  0.5540 -0.1897 -0.4691
 9034TIP3   OH227023   3.318   4.006   5.476  0.0995 -0.5720  0.0506
 9034TIP3    H127024   3.257   4.038   5.409 -1.0997  0.8482  1.7217
 9034TIP3    H227025   3.279   4.033   5.559  1.9596 -1.5208  1.3164
 9035TIP3   OH227026   0.803   6.110   4.649  0.0215 -0.0530  0.3551
 9035TIP3    H127027   0.878   6.117   4.707 -1.3905 -0.0163  2.2843
 9035TIP3    H227028   0.833   6.144   4.565  2.0832  0.0690  1.1073
 9036TIP3   OH227029   2.865   4.458   6.406 -0.2336  0.2241  0.2190
 9036TIP3    H127030   2.813   4.465   6.486 -0.7456 -0.6192 -0.0277
 9036TIP3    H227031   2.932   4.392   6.426 -0.7804 -0.4904 -0.2550
 9037TIP3   OH227032   3.914   0.148   1.760  0.1377  0.0909  0.0864
 9037TIP3    H127033   3.971   0.185   1.693  1.0386 -1.5594 -0.1214
 9037TIP3    H227034   3.826   0.151   1.722  0.1961  1.8220  0.0314
 9038TIP3   OH227035   4.607   4.362   5.174 -0.2713  0.1636  0.1839
 9038TIP3    H127036   4.581   4.366   5.082  0.0409  0.9286  0.1200
 9038TIP3    H227037   4.609   4.269   5.195 -1.0569  0.0087 -0.3783
 9039TIP3   OH227038   6.673   2.884   6.926  0.1680  0.0141 -0.0596
 9039TIP3    H127039   6.724   2.804   6.915 -0.4950 -0.5468  0.8263
 9039TIP3    H227040   6.739   2.954   6.926  0.9225 -0.6681  0.8041
 9040TIP3   OH227041   3.293   6.159   1.194 -0.0959 -0.7234 -0.4336
 9040TIP3    H127042   3.251   6.143   1.110 -0.2248  0.2338 -0.5629
 9040TIP3    H227043   3.343   6.240   1.181  0.2757 -0.8317  0.2675
 9041TIP3   OH227044   2.604   7.829   4.575  0.6516  0.4781  0.0203
 9041TIP3    H127045   2.516   7.805   4.604  0.4854  1.1432  0.0832
 9041TIP3    H227046   2.604   7.812   4.481  0.4849  0.3912  0.0362
 9042TIP3   OH227047   5.447   7.873   5.866 -0.1171  0.0135 -0.3217
 9042TIP3    H127048   5.466   7.841   5.954 -0.7182  0.6663  0.0487
 9042TIP3    H227049   5.401   7.800   5.824 -2.1206  0.5940  0.7524
 9043TIP3   OH227050   1.874   3.368   0.540 -0.1870 -0.4904 -0.4792
 9043TIP3    H127051   1.967   3.360   0.517  0.0722 -0.8506  0.6272
 9043TIP3    H227052   1.833   3.291   0.501  0.2422 -1.0937  0.2407
 9044TIP3   OH227053   3.707   2.123   0.593 -0.1720 -0.1616  0.1284
 9044TIP3    H127054   3.716   2.035   0.630  0.4626 -0.3310 -0.4112
 9044TIP3    H227055   3.638   2.115   0.527 -1.3056  0.1409  1.2425
 9045TIP3   OH227056   4.862   2.502   5.898 -0.4455 -0.2187 -0.2311
 9045TIP3    H127057   4.861   2.583   5.950 -1.9345  1.1076 -2.2078
 9045TIP3    H227058   4.836   2.434   5.960 -2.1205  1.2899  0.8192
 9046TIP3   OH227059   4.509   5.660   6.634 -0.3169  0.1048 -0.0497
 9046TIP3    H127060   4.560   5.689   6.709 -0.0458  1.6223 -0.7962
 9046TIP3    H227061   4.419   5.684   6.655 -0.4552 -0.7787  0.4029
 9047TIP3   OH227062   1.558   4.486   4.830  0.0159  0.4657 -0.2785
 9047TIP3    H127063   1.555   4.525   4.742 -0.8517  0.3573 -0.2955
 9047TIP3    H227064   1.569   4.393   4.815  3.3379  0.7312 -0.2340
 9048TIP3   OH227065   1.376   2.165   0.634 -0.0911  0.2117 -0.2755
 9048TIP3    H127066   1.298   2.206   0.672 -0.4244 -1.3146  0.7641
 9048TIP3    H227067   1.448   2.202   0.684 -0.1916  1.0643 -0.7362
 9049TIP3   OH227068   4.240   7.712   5.866 -0.8268  0.1253  0.2537
 9049TIP3    H127069   4.253   7.774   5.938  0.8984  1.6776 -1.2648
 9049TIP3    H227070   4.327   7.673   5.853 -0.5707  1.3188 -2.1532
 9050TIP3   OH227071   2.121   1.085   1.673 -0.1759 -0.1355  0.4514
 9050TIP3    H127072   2.161   1.168   1.700  0.3758 -0.9429  2.2655
 9050TIP3    H227073   2.163   1.065   1.589  0.5726  0.8254  0.5694
 9051TIP3   OH227074   8.159   2.449   3.033  0.0246  0.5733  0.7970
 9051TIP3    H127075   8.211   2.522   3.067  0.1041 -0.4191  2.9772
 9051TIP3    H227076   8.089   2.438   3.098  0.2035 -1.4691  0.7096
 9052TIP3   OH227077   8.178   4.368   2.400 -0.4454 -0.0991  0.4340
 9052TIP3    H127078   8.086   4.372   2.427 -0.3749  0.3559  0.6094
 9052TIP3    H227079   8.207   4.280   2.425 -0.6970 -0.0747  0.8188
 9053TIP3   OH227080   0.647   5.048   6.376  0.1905  0.2307 -0.0943
 9053TIP3    H127081   0.673   5.037   6.285 -0.2432  0.8146 -0.2887
 9053TIP3    H227082   0.701   4.985   6.424 -0.0927 -0.5907 -0.8345
 9054TIP3   OH227083   3.760   0.781   2.932 -0.4410 -0.0110 -0.0273
 9054TIP3    H127084   3.851   0.777   2.962 -0.3593  3.5403  0.6199
 9054TIP3    H227085   3.763   0.749   2.842  0.9975 -1.9870  0.6517
 9055TIP3   OH227086   7.477   8.122   3.945  0.3346  0.0875 -0.1354
 9055TIP3    H127087   7.394   8.161   3.916 -0.0185 -0.6768 -0.1789
 9055TIP3    H227088   7.494   8.164   4.029  0.3221  0.8346 -0.4945
 9056TIP3   OH227089   2.260   7.232   0.985  0.2827 -0.3429  0.3853
 9056TIP3    H127090   2.195   7.221   0.916  0.4775  1.0869 -0.0550
 9056TIP3    H227091   2.298   7.145   0.997 -1.1030 -1.0169  0.0545
 9057TIP3   OH227092   5.004   6.428   2.551 -0.1125 -0.5118 -0.1926
 9057TIP3    H127093   5.094   6.462   2.548  0.3602 -1.5890  1.2357
 9057TIP3    H227094   4.979   6.434   2.643 -1.6920  0.1913 -0.6417
 9058TIP3   OH227095   3.524   6.874   2.288  0.3675 -0.0829 -0.7996
 9058TIP3    H127096   3.512   6.837   2.200 -0.8261  0.0440 -0.7042
 9058TIP3    H227097   3.571   6.806   2.336 -1.2972 -1.3146 -0.7878
 9059TIP3   OH227098   7.110   6.533   5.847 -0.2509 -0.0651  0.1092
 9059TIP3    H127099   7.070   6.605   5.798  0.3599 -0.6498 -1.2884
 9059TIP3    H227100   7.111   6.564   5.938 -1.7968  0.8728 -0.1604
 9060TIP3   OH227101   8.238   5.453   5.037  0.3449  0.4161  0.0993
 9060TIP3    H127102   8.307   5.456   5.103  1.7250  1.2752 -1.3323
 9060TIP3    H227103   8.284   5.443   4.954 -1.4046 -1.9106 -0.6972
 9061TIP3   OH227104   6.527   7.604   5.585  0.1651 -0.2716  0.8705
 9061TIP3    H127105   6.482   7.634   5.663  1.0404  0.5696  1.0642
 9061TIP3    H227106   6.612   7.574   5.616  0.5962  0.2547  0.2295
 9062TIP3   OH227107   6.381   3.679   3.068 -0.5729  0.0309 -0.0159
 9062TIP3    H127108   6.475   3.695   3.080 -0.8560  1.7882  0.1459
 9062TIP3    H227109   6.375   3.631   2.986  0.4660 -0.1246 -0.0201
 9063TIP3   OH227110   8.219   3.522   3.128  0.2682  0.0669  0.2013
 9063TIP3    H127111   8.280   3.460   3.169 -1.0684  0.0054  2.2888
 9063TIP3    H227112   8.198   3.584   3.198 -2.6068 -0.3609 -0.1515
 9064TIP3   OH227113   1.563   2.024   0.981  0.1022  0.6225  0.2846
 9064TIP3    H127114   1.650   1.987   0.993 -0.5571 -1.5822 -1.3002
 9064TIP3    H227115   1.576   2.099   0.922  0.9414  0.4756  0.2838
 9065TIP3   OH227116   4.914   0.738   0.953  0.6154  0.7485 -0.7937
 9065TIP3    H127117   4.852   0.741   1.025 -2.1202  0.0634 -2.9283
 9065TIP3    H227118   4.902   0.650   0.915  4.8510 -0.4967  0.1442
 9066TIP3   OH227119   0.281   6.786   3.766 -0.0285  0.2755  0.4955
 9066TIP3    H127120   0.335   6.849   3.813  0.5549  0.6735 -0.6456
 9066TIP3    H227121   0.312   6.701   3.795 -1.4127  0.4424  2.7174
 9067TIP3   OH227122   2.705   7.858   4.247 -0.2261 -0.3407 -0.0657
 9067TIP3    H127123   2.653   7.790   4.206 -1.3455  1.0739 -1.1237
 9067TIP3    H227124   2.794   7.843   4.217 -0.6289 -0.7749 -1.0738
 9068TIP3   OH227125   6.506   2.700   5.790  0.0615  0.2500  0.0503
 9068TIP3    H127126   6.484   2.690   5.882 -1.8015  1.2382 -0.2432
 9068TIP3    H227127   6.486   2.615   5.750 -0.4740  0.2511  0.3137
 9069TIP3   OH227128   4.324   1.878   1.433  0.1146  0.3867 -0.1678
 9069TIP3    H127129   4.334   1.822   1.357  0.7990  0.8076 -0.3924
 9069TIP3    H227130   4.280   1.823   1.498 -0.1769 -0.0729 -0.7439
 9070TIP3   OH227131   1.958   5.573   5.631  0.1263 -0.2065  0.1374
 9070TIP3    H127132   2.023   5.545   5.568  0.2778  2.2504 -0.9190
 9070TIP3    H227133   1.876   5.578   5.582 -0.0735  0.2376  0.4951
 9071TIP3   OH227134   1.180   5.164   2.979  0.5095  0.2150 -0.6806
 9071TIP3    H127135   1.271   5.176   3.008  0.1467  0.8441  0.2401
 9071TIP3    H227136   1.131   5.152   3.060 -0.3476  0.7029 -1.1192
 9072TIP3   OH227137   1.131   1.492   6.329 -0.4733 -0.3392 -0.3898
 9072TIP3    H127138   1.039   1.521   6.323  0.1354  1.5775 -1.3535
 9072TIP3    H227139   1.176   1.545   6.263  1.4224 -0.8973  0.4208
 9073TIP3   OH227140   3.341   1.450   2.548 -0.6658  0.1688  0.0540
 9073TIP3    H127141   3.339   1.510   2.473 -1.9472  0.2567  0.1346
 9073TIP3    H227142   3.280   1.380   2.524 -0.4004 -0.2689  0.6379
 9074TIP3   OH227143   6.055   6.201   4.991  0.5548  0.4559  0.0477
 9074TIP3    H127144   5.968   6.196   4.951 -0.0278 -0.3901  1.3334
 9074TIP3    H227145   6.092   6.113   4.977  0.7692  0.4841  0.4357
 9075TIP3   OH227146   6.871   6.983   0.123  0.5205  0.2176 -0.2920
 9075TIP3    H127147   6.866   7.064   0.072  0.4031  1.0018  0.9064
 9075TIP3    H227148   6.822   6.919   0.072  1.4031  0.6382 -1.7294
 9076TIP3   OH227149   4.848   3.274   4.064 -0.0578  0.1512  0.3566
 9076TIP3    H127150   4.831   3.208   3.997  0.3253 -0.5619  0.9360
 9076TIP3    H227151   4.793   3.348   4.040 -0.7886 -0.5222 -0.1014
 9077TIP3   OH227152   3.245   7.831  -0.001  0.0876  0.3355  0.3356
 9077TIP3    H127153   3.300   7.893   0.046  0.8568 -0.2705  0.2506
 9077TIP3    H227154   3.237   7.756   0.059 -1.0593  0.6111  0.5576
 9078TIP3   OH227155   7.377   7.804   5.954  0.1594  0.2470  0.3585
 9078TIP3    H127156   7.378   7.765   5.866  1.4561 -0.5586  0.7007
 9078TIP3    H227157   7.287   7.795   5.983 -0.1620  0.0058 -0.6714
 9079TIP3   OH227158   7.866   7.138   6.162  0.0623  0.4340 -0.0139
 9079TIP3    H127159   7.958   7.164   6.173  0.3647  0.2120 -1.6588
 9079TIP3    H227160   7.851   7.074   6.231  1.4756 -0.2573 -0.2968
 9080TIP3   OH227161   1.536   7.597   3.477 -0.5393 -0.2652  0.0750
 9080TIP3    H127162   1.611   7.539   3.491 -1.2183 -0.7564  1.8727
 9080TIP3    H227163   1.485   7.554   3.408  0.7280  0.0133 -1.0852
 9081TIP3   OH227164   7.189   5.786   0.656 -0.6725 -0.4224 -0.0775
 9081TIP3    H127165   7.261   5.728   0.681  0.2834  1.0482  0.7743
 9081TIP3    H227166   7.164   5.829   0.737 -1.7893 -0.1136 -0.5756
 9082TIP3   OH227167   2.666   3.049   0.628 -0.3240  0.2165 -0.1626
 9082TIP3    H127168   2.761   3.051   0.623 -0.3279  0.4893 -0.1471
 9082TIP3    H227169   2.640   3.141   0.633 -0.5143  0.1058  1.1647
 9083TIP3   OH227170   5.318   3.287   0.211  0.5616 -0.6707  0.5651
 9083TIP3    H127171   5.286   3.207   0.170 -2.6170  0.0089  1.4655
 9083TIP3    H227172   5.286   3.358   0.156  0.2042  0.0884  1.7017
 9084TIP3   OH227173   7.346   0.633   5.670 -0.3425 -0.6296 -0.2111
 9084TIP3    H127174   7.381   0.716   5.636 -0.8124 -0.8344 -1.2330
 9084TIP3    H227175   7.423   0.581   5.692 -0.0260  0.4123  1.3611
 9085TIP3   OH227176   8.083   8.021   5.536  0.5576 -0.1297  0.0804
 9085TIP3    H127177   8.127   7.942   5.503 -0.8113 -0.9512  0.1302
 9085TIP3    H227178   7.995   8.016   5.500  0.4234  1.3858  0.1298
 9086TIP3   OH227179   2.980   7.296   3.320  0.3707 -0.1230 -0.2670
 9086TIP3    H127180   2.912   7.289   3.253 -0.9602  2.3842  0.6604
 9086TIP3    H227181   2.988   7.208   3.356  0.6942 -1.4264 -3.1927
 9087TIP3   OH227182   6.015   5.563   0.457  0.3156  0.0192 -0.0151
 9087TIP3    H127183   6.057   5.540   0.374 -1.7703  1.2447 -1.4940
 9087TIP3    H227184   5.932   5.516   0.456  0.6226 -0.6168  1.8164
 9088TIP3   OH227185   2.909   7.585   5.902  0.2329 -0.3969 -0.2922
 9088TIP3    H127186   2.971   7.592   5.829  0.3829  1.3652 -0.0287
 9088TIP3    H227187   2.964   7.561   5.977  0.6861  1.4084 -0.0058
 9089TIP3   OH227188   4.726   3.971   5.814  0.5252 -0.0135 -0.5042
 9089TIP3    H127189   4.682   4.046   5.774 -1.4903 -1.3206 -0.9171
 9089TIP3    H227190   4.819   3.985   5.797  0.1198  1.8604 -1.4343
 9090TIP3   OH227191   4.400   4.190   5.858  0.0397  0.0390  0.2887
 9090TIP3    H127192   4.438   4.235   5.783  0.6730 -1.3145 -0.2280
 9090TIP3    H227193   4.306   4.209   5.852  0.2349  0.9095 -0.1606
 9091TIP3   OH227194   2.126   4.045   6.156 -0.2039  0.6726  0.2878
 9091TIP3    H127195   2.128   4.140   6.146  2.8266  0.6693 -0.2011
 9091TIP3    H227196   2.148   4.011   6.069  1.4308 -0.3205  1.0378
 9092TIP3   OH227197   4.660   6.334   2.707  0.1528 -0.5160  0.3176
 9092TIP3    H127198   4.673   6.353   2.800  1.7723 -1.4286  0.3217
 9092TIP3    H227199   4.698   6.409   2.661  1.9824 -1.3435  0.3933
 9093TIP3   OH227200   7.018   7.351   1.946 -0.1796  0.2469  0.4880
 9093TIP3    H127201   6.987   7.442   1.942 -0.4061  0.1421 -0.4823
 9093TIP3    H227202   7.113   7.358   1.948 -0.1649  0.5065 -0.4305
 9094TIP3   OH227203   0.475   3.134   2.743  0.1132  0.7967 -0.3431
 9094TIP3    H127204   0.449   3.191   2.670  1.1828  0.6139 -0.9030
 9094TIP3    H227205   0.498   3.051   2.700 -0.0534  0.4123  0.3073
 9095TIP3   OH227206   0.848   7.720   4.619  0.1603 -0.7615  0.1782
 9095TIP3    H127207   0.859   7.814   4.602 -0.4163 -0.6116  0.5933
 9095TIP3    H227208   0.919   7.678   4.571  1.7482  0.0369  1.7221
 9096TIP3   OH227209   6.219   6.539   1.213 -0.3356 -0.2410  0.2646
 9096TIP3    H127210   6.165   6.616   1.229 -0.2153 -0.3715  1.3907
 9096TIP3    H227211   6.305   6.575   1.188 -0.8403 -0.0352 -1.3084
 9097TIP3   OH227212   1.638   0.293   3.906  0.2546  0.2676 -0.4397
 9097TIP3    H127213   1.662   0.377   3.866 -0.1081  0.3140 -0.5614
 9097TIP3    H227214   1.623   0.235   3.832  0.8466 -0.0036 -0.3501
 9098TIP3   OH227215   6.098   0.996   4.326 -0.1176 -0.5128 -1.1421
 9098TIP3    H127216   6.082   1.018   4.418  1.0370  1.6486 -1.4056
 9098TIP3    H227217   6.192   1.011   4.314 -0.1523 -1.2499 -2.5756
 9099TIP3   OH227218   0.205   3.373   0.343 -0.0097  0.0576  0.1379
 9099TIP3    H127219   0.115   3.384   0.372  0.3247 -0.4125  1.4248
 9099TIP3    H227220   0.215   3.278   0.330  0.2220  0.1344 -0.2675
 9100TIP3   OH227221   8.481   1.180   5.948  0.1767 -0.1096 -1.0519
 9100TIP3    H127222   8.483   1.266   5.907  0.1338  0.1726 -0.4718
 9100TIP3    H227223   8.443   1.195   6.035  1.9293 -0.3993 -0.1956
 9101TIP3   OH227224   8.081   3.823   1.196 -0.2097  0.2341  0.1891
 9101TIP3    H127225   8.089   3.731   1.222 -1.0613 -0.2504 -1.1382
 9101TIP3    H227226   7.991   3.846   1.218 -0.9800 -0.2108 -2.2358
 9102TIP3   OH227227   2.800   4.198   6.212  0.0118 -0.5117  0.0786
 9102TIP3    H127228   2.797   4.194   6.307  0.9822 -0.4374  0.1220
 9102TIP3    H227229   2.827   4.288   6.192  2.3513 -1.2144 -0.1699
 9103TIP3   OH227230   7.973   1.485   3.072  0.1344 -0.2071 -0.7338
 9103TIP3    H127231   7.925   1.561   3.104  0.7139 -0.8282  1.7845
 9103TIP3    H227232   7.952   1.415   3.134  1.1165 -1.5991 -1.9009
 9104TIP3   OH227233   2.679   0.902   6.719 -0.1477 -0.0907  0.1347
 9104TIP3    H127234   2.695   0.810   6.737 -4.4081 -0.6557  2.1828
 9104TIP3    H227235   2.641   0.903   6.631  1.2731 -0.0435 -0.4965
 9105TIP3   OH227236   1.827   5.061   2.865 -0.1258  0.1550 -0.1713
 9105TIP3    H127237   1.898   5.019   2.816  0.0189 -0.6201  0.6663
 9105TIP3    H227238   1.757   4.997   2.865 -0.0377  0.0336  0.8151
 9106TIP3   OH227239   5.390   7.539   0.503 -0.5243  0.3700 -0.0209
 9106TIP3    H127240   5.359   7.549   0.593 -1.3626  0.0552 -0.2584
 9106TIP3    H227241   5.417   7.447   0.497 -0.0113  0.5181  0.0486
 9107TIP3   OH227242   8.096   1.748   5.230  0.5015  0.2860 -0.0688
 9107TIP3    H127243   8.064   1.832   5.264  0.7125  0.7328 -0.9442
 9107TIP3    H227244   8.042   1.682   5.274  0.3372  0.8811  0.6324
 9108TIP3   OH227245   3.897   7.294   7.048  0.5477  0.0756 -0.2737
 9108TIP3    H127246   3.896   7.252   6.962  2.1132  2.6621 -1.6831
 9108TIP3    H227247   3.878   7.223   7.109 -1.8727 -1.6638 -2.7641
 9109TIP3   OH227248   0.759   4.843   4.969  1.0002 -0.1132  0.1895
 9109TIP3    H127249   0.817   4.916   4.949  0.8914 -0.2360 -0.6074
 9109TIP3    H227250   0.671   4.878   4.954  0.9873 -0.7060 -1.2639
 9110TIP3   OH227251   0.197   2.654   2.383 -0.4264 -0.2468  0.3436
 9110TIP3    H127252   0.172   2.718   2.449 -0.2201 -0.4482  0.6186
 9110TIP3    H227253   0.287   2.676   2.360  0.1920 -1.3583  1.5570
 9111TIP3   OH227254   1.568   0.964   3.232  0.7455  0.2692 -0.5187
 9111TIP3    H127255   1.522   0.933   3.310  1.7073  1.5548  0.6089
 9111TIP3    H227256   1.518   0.928   3.158 -0.6506 -0.3216  0.6765
 9112TIP3   OH227257   6.956   4.922   6.392  0.1879  0.1056 -0.4581
 9112TIP3    H127258   6.902   4.863   6.444 -0.6513 -0.0026 -1.4089
 9112TIP3    H227259   6.918   4.918   6.304  0.9470  1.0313 -0.8520
 9113TIP3   OH227260   5.245   6.258   1.253  0.0385  0.4380  0.1626
 9113TIP3    H127261   5.244   6.345   1.213 -0.0442  0.1574 -0.4519
 9113TIP3    H227262   5.193   6.268   1.333 -1.0003  0.6770 -0.5183
 9114TIP3   OH227263   0.417   1.946   5.057 -0.5890 -0.1412  0.0998
 9114TIP3    H127264   0.355   1.956   5.130 -2.4296  0.3000 -1.4304
 9114TIP3    H227265   0.409   2.028   5.008 -0.6224 -1.0457 -1.4783
 9115TIP3   OH227266   8.642   5.316   6.436  0.1598  0.1219 -0.1852
 9115TIP3    H127267   8.605   5.273   6.359  1.4647 -2.1469  0.3690
 9115TIP3    H227268   8.652   5.407   6.410 -0.8500 -0.2689 -2.1449
 9116TIP3   OH227269   5.090   2.110   4.600 -0.1296  0.2545 -0.3375
 9116TIP3    H127270   5.178   2.090   4.632 -0.4708 -0.8284 -0.0533
 9116TIP3    H227271   5.105   2.149   4.514  0.7254  2.0209  0.5544
 9117TIP3   OH227272   2.123   3.927   2.614 -0.3089  0.0379  0.6821
 9117TIP3    H127273   2.069   4.001   2.584 -2.1268 -0.3761  2.5994
 9117TIP3    H227274   2.068   3.850   2.600  1.6362 -1.0684 -1.4667
 9118TIP3   OH227275   5.250   6.662   5.833 -0.0755  0.0746  0.2960
 9118TIP3    H127276   5.336   6.663   5.876 -0.0861 -1.4866  0.3956
 9118TIP3    H227277   5.232   6.570   5.818 -1.0972  0.4663 -1.0504
 9119TIP3   OH227278   6.920   4.361   4.602  0.2649  0.4911 -0.6252
 9119TIP3    H127279   6.993   4.335   4.659 -0.1726  2.0423  0.7282
 9119TIP3    H227280   6.951   4.441   4.560  0.2936 -0.2410 -2.0663
 9120TIP3   OH227281   7.120   1.249   1.989  1.1283 -0.1941  0.3852
 9120TIP3    H127282   7.126   1.323   2.050  1.7348 -0.9248  1.2466
 9120TIP3    H227283   7.076   1.285   1.912  3.6162  1.7818 -0.2822
 9121TIP3   OH227284   3.109   0.928   1.903 -0.6622 -0.4050  0.5948
 9121TIP3    H127285   3.183   0.868   1.917 -2.2162 -2.2726  1.1486
 9121TIP3    H227286   3.140   0.987   1.833  2.0387  0.1391  2.1026
 9122TIP3   OH227287   1.093   6.015   3.613 -0.2888 -0.3220 -0.4185
 9122TIP3    H127288   1.057   6.053   3.694 -3.6903 -1.2681 -1.3286
 9122TIP3    H227289   1.089   6.087   3.550 -2.2342 -0.7724 -0.8972
 9123TIP3   OH227290   4.914   2.212   0.699  0.2827 -0.8369  0.0675
 9123TIP3    H127291   4.845   2.193   0.762 -0.8462 -3.1204 -1.7098
 9123TIP3    H227292   4.904   2.306   0.681  0.4548 -0.1622  2.9157
 9124TIP3   OH227293   0.739   0.172   4.214  0.3312 -0.2855 -0.4172
 9124TIP3    H127294   0.814   0.182   4.274  0.3267 -1.2802 -0.2258
 9124TIP3    H227295   0.749   0.244   4.151  0.9180  0.1585  0.1619
 9125TIP3   OH227296   6.599   4.366   0.829 -0.2379 -0.1487  0.2237
 9125TIP3    H127297   6.616   4.445   0.882  0.4202 -0.5339  0.6059
 9125TIP3    H227298   6.599   4.294   0.893  1.2820 -0.7117 -0.3764
 9126TIP3   OH227299   0.763   6.509   1.381 -0.2186  0.3716 -0.3063
 9126TIP3    H127300   0.749   6.457   1.460  0.0955  2.1938  1.0053
 9126TIP3    H227301   0.674   6.532   1.351 -0.3230  0.6272  0.1885
 9127TIP3   OH227302   5.753   3.179   6.065 -0.0306  0.4594 -0.1820
 9127TIP3    H127303   5.675   3.186   6.119 -1.3512  0.3730 -1.9883
 9127TIP3    H227304   5.753   3.259   6.011  0.3995 -0.1439 -1.1128
 9128TIP3   OH227305   5.068   0.297   5.538 -0.1448  0.0602 -0.6820
 9128TIP3    H127306   5.016   0.277   5.616  0.2862  0.5261 -0.2566
 9128TIP3    H227307   5.014   0.271   5.464  0.0748 -1.9242 -0.2053
 9129TIP3   OH227308   2.798   3.862   0.096 -0.3285 -0.4069 -0.1601
 9129TIP3    H127309   2.708   3.875   0.067 -0.0192 -0.4099 -1.1348
 9129TIP3    H227310   2.832   3.794   0.039  0.5455  0.1677 -0.3420
 9130TIP3   OH227311   2.240   4.068   3.534  0.3589 -0.5489 -0.0100
 9130TIP3    H127312   2.150   4.090   3.510  0.2849 -1.7697 -0.9696
 9130TIP3    H227313   2.290   4.081   3.454  0.7033 -1.5970  0.0204
 9131TIP3   OH227314   2.789   0.292   6.977  0.0374 -0.1033 -0.0065
 9131TIP3    H127315   2.873   0.272   7.019  0.2341  0.5689 -0.0632
 9131TIP3    H227316   2.809   0.293   6.884  0.3463  1.6669  0.0482
 9132TIP3   OH227317   4.562   4.420   6.813 -0.1344  0.0106 -0.0041
 9132TIP3    H127318   4.554   4.424   6.717  2.9865  1.0058 -0.3457
 9132TIP3    H227319   4.656   4.429   6.829 -0.2992 -2.2656  3.1121
 9133TIP3   OH227320   4.683   0.587   0.490 -0.3784 -0.3247  0.4180
 9133TIP3    H127321   4.640   0.506   0.463 -0.1136 -0.0995 -0.7078
 9133TIP3    H227322   4.768   0.560   0.524 -0.5249 -0.5666  0.5917
 9134TIP3   OH227323   4.680   2.626   5.238  0.1351 -0.6437 -0.0646
 9134TIP3    H127324   4.771   2.615   5.263  0.1633  2.7551  2.0608
 9134TIP3    H227325   4.632   2.562   5.291  1.1677 -1.3351  0.0473
 9135TIP3   OH227326   8.652   5.383   2.988  0.9010 -0.3015  0.1332
 9135TIP3    H127327   8.598   5.433   3.049  1.9208  0.2471  0.6051
 9135TIP3    H227328   8.589   5.339   2.931 -0.0478 -0.0446  0.9566
 9136TIP3   OH227329   6.299   8.197   6.343 -0.6961 -0.2264 -0.0743
 9136TIP3    H127330   6.211   8.203   6.306 -1.0990  1.0902  1.0257
 9136TIP3    H227331   6.332   8.112   6.313 -1.4623  0.2338 -2.3572
 9137TIP3   OH227332   1.713   0.402   4.601 -0.4434 -0.1404 -0.2609
 9137TIP3    H127333   1.725   0.497   4.592 -1.9461 -0.0605 -2.0261
 9137TIP3    H227334   1.772   0.364   4.536  0.8030 -0.5151  1.0296
 9138TIP3   OH227335   4.895   4.774   6.784  0.0297  0.2193  0.2016
 9138TIP3    H127336   4.910   4.693   6.734 -0.4867 -0.2279  0.7546
 9138TIP3    H227337   4.957   4.768   6.857 -0.1069  0.2587  0.3192
 9139TIP3   OH227338   6.038   2.600   0.968  0.7179 -0.8729  0.1811
 9139TIP3    H127339   6.067   2.691   0.971  1.1829 -1.0282  0.4333
 9139TIP3    H227340   5.961   2.601   0.910  0.7503 -0.3321  0.1447
 9140TIP3   OH227341   3.494   4.185   1.562  0.3550 -0.2185  0.0578
 9140TIP3    H127342   3.570   4.200   1.506  0.0449  0.7270 -0.1214
 9140TIP3    H227343   3.529   4.187   1.651  0.7602 -1.1915 -0.0698
 9141TIP3   OH227344   5.282   0.373   3.857 -0.5122  0.8331  0.0062
 9141TIP3    H127345   5.252   0.399   3.769 -2.6082 -0.4949  0.2518
 9141TIP3    H227346   5.376   0.388   3.855 -0.5320  1.1594 -2.3682
 9142TIP3   OH227347   6.358   5.551   3.068 -0.0959 -0.2392  0.1315
 9142TIP3    H127348   6.427   5.600   3.023  0.1830 -0.1243  0.6836
 9142TIP3    H227349   6.292   5.617   3.090 -0.8239 -0.4765 -1.1804
 9143TIP3   OH227350   4.106   4.126   3.244  0.1329  0.3218  0.3129
 9143TIP3    H127351   4.077   4.217   3.250  0.0494  0.2969  0.2784
 9143TIP3    H227352   4.081   4.098   3.156 -1.5890 -0.3504  0.9785
 9144TIP3   OH227353   6.773   5.301   5.510  0.1202  0.7404  0.4866
 9144TIP3    H127354   6.845   5.308   5.447  0.1416  2.5551  0.6424
 9144TIP3    H227355   6.804   5.239   5.576  1.8241  1.9244  0.8568
 9145TIP3   OH227356   1.850   4.420   5.946 -0.5358  0.0726 -0.5357
 9145TIP3    H127357   1.805   4.481   5.887  1.1417  0.6325 -1.3110
 9145TIP3    H227358   1.834   4.334   5.908 -2.0585  0.0815 -0.0124
 9146TIP3   OH227359   3.607   0.120   2.180  0.4181  0.0037 -0.4803
 9146TIP3    H127360   3.681   0.060   2.166  1.6433  0.8186  2.0479
 9146TIP3    H227361   3.532   0.062   2.192  0.6119 -0.8534 -2.7768
 9147TIP3   OH227362   1.341   1.094   0.288  0.2485 -0.2213 -0.3097
 9147TIP3    H127363   1.353   1.008   0.248  2.2959 -0.4431  0.6355
 9147TIP3    H227364   1.338   1.076   0.382 -1.0456  0.6033 -0.1702
 9148TIP3   OH227365   7.256   4.319   5.798  0.0883 -0.1500 -0.1844
 9148TIP3    H127366   7.321   4.285   5.859 -0.4023 -4.0610 -1.5639
 9148TIP3    H227367   7.283   4.286   5.713 -0.5571  3.1320 -1.8156
 9149TIP3   OH227368   7.888   3.503   5.652 -0.0599 -0.1665  0.1234
 9149TIP3    H127369   7.894   3.562   5.577  1.7216 -0.0331  0.3371
 9149TIP3    H227370   7.903   3.559   5.728  2.4154 -0.9354  0.2849
 9150TIP3   OH227371   1.203   3.184   5.531 -0.7602  0.2209  0.6858
 9150TIP3    H127372   1.187   3.103   5.482  2.9315 -1.4301  1.8998
 9150TIP3    H227373   1.270   3.230   5.480  0.2485  0.3997  2.1310
 9151TIP3   OH227374   7.900   5.519   4.205  0.0064  0.6914  0.2096
 9151TIP3    H127375   7.822   5.559   4.166 -0.6210 -1.3705 -0.7883
 9151TIP3    H227376   7.870   5.484   4.289 -0.3988 -0.8144 -0.5319
 9152TIP3   OH227377   2.202   4.680   3.501  0.4707  0.0851  0.3452
 9152TIP3    H127378   2.157   4.711   3.580  0.5847 -0.9206  0.8241
 9152TIP3    H227379   2.289   4.720   3.505  0.1528  0.7953  0.2283
 9153TIP3   OH227380   3.621   5.516   3.305  0.0430  0.1518  0.1125
 9153TIP3    H127381   3.716   5.505   3.316 -0.0739  0.0266  1.1344
 9153TIP3    H227382   3.583   5.456   3.370 -0.7282  0.4895 -0.0232
 9154TIP3   OH227383   0.827   2.273   3.563  0.1433  0.3319  0.1884
 9154TIP3    H127384   0.851   2.330   3.636  1.1288  1.8818 -1.2867
 9154TIP3    H227385   0.757   2.217   3.599  1.3933  0.1923  2.6502
 9155TIP3   OH227386   3.240   2.718   2.891  0.7345 -0.3337 -0.5114
 9155TIP3    H127387   3.274   2.750   2.807  0.2301 -0.5434 -0.8035
 9155TIP3    H227388   3.293   2.762   2.957  0.5880  0.4777 -0.9237
 9156TIP3   OH227389   5.736   2.107   3.563 -0.3241 -0.2384  0.2662
 9156TIP3    H127390   5.744   2.012   3.556  0.0245 -0.0950 -1.8340
 9156TIP3    H227391   5.665   2.129   3.502 -0.9596  0.7819  1.3392
 9157TIP3   OH227392   6.111   0.526   2.916 -0.4064 -0.3049 -0.3774
 9157TIP3    H127393   6.120   0.621   2.918  0.6217 -0.3411 -1.4578
 9157TIP3    H227394   6.031   0.510   2.866  0.7810  0.0134 -2.5022
 9158TIP3   OH227395   2.283   1.473   5.125 -0.4275 -0.3460  0.2863
 9158TIP3    H127396   2.355   1.409   5.120 -1.1777 -1.3336  1.4750
 9158TIP3    H227397   2.209   1.422   5.158 -1.6862  0.6621 -0.9266
 9159TIP3   OH227398   7.099   1.474   5.570  0.2765  0.5402  0.0034
 9159TIP3    H127399   7.169   1.447   5.629  0.2988  0.4473 -0.0653
 9159TIP3    H227400   7.108   1.416   5.494 -0.1030  0.2825  0.1539
 9160TIP3   OH227401   6.928   1.241   5.953 -0.0367  0.5609 -0.6542
 9160TIP3    H127402   6.951   1.329   5.985 -0.4675  0.4597 -0.0533
 9160TIP3    H227403   6.994   1.223   5.886  1.0147  0.7128  0.2894
 9161TIP3   OH227404   5.524   7.863   2.576  0.3621 -0.3225 -0.0140
 9161TIP3    H127405   5.486   7.895   2.494 -0.3301 -0.0621  0.3962
 9161TIP3    H227406   5.468   7.901   2.644  2.5330  1.7712  0.7441
 9162TIP3   OH227407   2.972   0.227   3.328 -0.1059  0.3184 -0.3621
 9162TIP3    H127408   2.979   0.216   3.234 -0.2238 -2.3296 -0.1243
 9162TIP3    H227409   2.877   0.232   3.345 -0.0883  0.6770 -0.3459
 9163TIP3   OH227410   5.261   4.358   0.168  0.0384 -0.0010 -0.6843
 9163TIP3    H127411   5.304   4.377   0.085  0.5551 -1.4206 -0.7670
 9163TIP3    H227412   5.167   4.360   0.147  0.1672 -2.9315 -1.9788
 9164TIP3   OH227413   4.902   3.411   6.807  0.2965 -0.6857  0.1153
 9164TIP3    H127414   4.966   3.464   6.854  0.7895 -0.8847 -0.3203
 9164TIP3    H227415   4.872   3.347   6.872 -1.0785  0.7281  0.9591
 9165TIP3   OH227416   0.436   5.813   1.122  0.2126  0.2365 -0.0352
 9165TIP3    H127417   0.474   5.730   1.096 -0.2057 -0.2583  0.8873
 9165TIP3    H227418   0.494   5.845   1.191  0.6414  0.9544 -0.7097
 9166TIP3   OH227419   5.655   5.294   0.247 -0.6043 -0.5955  0.2171
 9166TIP3    H127420   5.610   5.212   0.265  0.8766 -1.3117  0.8505
 9166TIP3    H227421   5.741   5.284   0.288  0.8924 -0.0646 -2.5489
 9167TIP3   OH227422   2.176   0.439   5.360 -0.3443 -0.8997  0.8499
 9167TIP3    H127423   2.170   0.515   5.301  1.9526 -2.7131 -2.0277
 9167TIP3    H227424   2.263   0.445   5.399 -1.1733 -0.6915  2.7733
 9168TIP3   OH227425   8.653   5.692   0.498 -0.2083 -0.1539 -0.2187
 9168TIP3    H127426   8.631   5.634   0.425 -0.7816 -0.4756  0.2004
 9168TIP3    H227427   8.741   5.723   0.478  0.2612 -1.4820 -0.2485
 9169TIP3   OH227428   2.271   1.732   4.276  0.3270  0.5383 -0.5361
 9169TIP3    H127429   2.198   1.696   4.327  0.5359 -0.8847 -1.1903
 9169TIP3    H227430   2.240   1.819   4.249 -1.4815 -0.3039 -1.4235
 9170TIP3   OH227431   3.558   4.915   3.503 -0.1025  0.4567  0.5541
 9170TIP3    H127432   3.599   4.844   3.453 -0.3379  0.8405 -0.2009
 9170TIP3    H227433   3.632   4.966   3.536  0.0648  1.4585 -1.2560
 9171TIP3   OH227434   3.668   4.897   0.085 -0.5648 -0.0596  0.0325
 9171TIP3    H127435   3.583   4.863   0.111  0.6172 -1.4278  2.4720
 9171TIP3    H227436   3.702   4.940   0.164  1.7379 -1.1435 -0.2744
 9172TIP3   OH227437   7.936   1.456   0.134  0.1074  0.5635  0.2326
 9172TIP3    H127438   7.904   1.421   0.217  0.0331  1.8526  0.7748
 9172TIP3    H227439   7.997   1.390   0.101 -2.3614 -1.5683 -0.3963
 9173TIP3   OH227440   8.379   5.735   2.797 -0.6395 -0.5412  0.4903
 9173TIP3    H127441   8.325   5.770   2.726 -0.2668  0.6909  0.7826
 9173TIP3    H227442   8.379   5.805   2.863  0.6475 -0.8481  0.8427
 9174TIP3   OH227443   4.498   1.619   5.876 -0.4671  0.3583 -0.1706
 9174TIP3    H127444   4.581   1.584   5.907  0.4129  0.8837 -1.8078
 9174TIP3    H227445   4.519   1.708   5.846 -1.1895 -0.1312 -2.3070
 9175TIP3   OH227446   3.593   2.822   1.869  0.0435  0.1952  0.1209
 9175TIP3    H127447   3.609   2.910   1.903  0.2117  0.1032  0.2763
 9175TIP3    H227448   3.672   2.773   1.890  0.0238  0.0543 -0.1263
 9176TIP3   OH227449   0.802   3.876   2.268 -0.6086 -0.6178  0.0261
 9176TIP3    H127450   0.747   3.905   2.340 -0.0543  1.9616 -0.4779
 9176TIP3    H227451   0.890   3.873   2.304 -0.3824  0.3125 -0.4295
 9177TIP3   OH227452   2.517   0.456   6.054  0.1395  0.0775 -1.0853
 9177TIP3    H127453   2.597   0.404   6.045  0.1333  0.2331 -2.0659
 9177TIP3    H227454   2.449   0.404   6.010 -0.2146  0.1550 -0.6417
 9178TIP3   OH227455   3.133   0.812   3.470 -0.3769 -0.0080 -0.3858
 9178TIP3    H127456   3.211   0.816   3.413 -0.1857 -1.3098 -0.2443
 9178TIP3    H227457   3.063   0.784   3.412 -1.2113  2.8991 -0.9274
 9179TIP3   OH227458   4.080   0.127   3.735 -0.1941  0.2799  0.3086
 9179TIP3    H127459   4.036   0.075   3.803  0.0032  1.6958  1.5619
 9179TIP3    H227460   4.022   0.122   3.659  0.1786 -2.3909  0.0731
 9180TIP3   OH227461   2.298   1.452   4.250 -0.1998  0.0608  0.3842
 9180TIP3    H127462   2.290   1.534   4.299 -1.5768  0.2728 -0.1624
 9180TIP3    H227463   2.234   1.460   4.179  2.9303  0.5836 -2.6419
 9181TIP3   OH227464   4.158   4.070   4.389 -0.6272 -0.2632  0.1559
 9181TIP3    H127465   4.083   4.085   4.331  0.1641 -0.1040 -0.8718
 9181TIP3    H227466   4.208   4.001   4.345 -0.0272 -0.1682  0.6765
 9182TIP3   OH227467   5.290   0.928   4.627 -0.5906  0.6316  0.0940
 9182TIP3    H127468   5.346   0.927   4.549  1.1779 -0.7244  1.3193
 9182TIP3    H227469   5.224   0.861   4.610 -1.0092  1.2460 -0.7660
 9183TIP3   OH227470   7.313   2.041   2.037 -0.4149 -0.0153  0.4297
 9183TIP3    H127471   7.401   2.022   2.069  0.0261  1.2397  0.0208
 9183TIP3    H227472   7.284   1.959   1.998 -0.2629 -1.0657  2.3659
 9184TIP3   OH227473   4.596   3.708   3.636 -0.5533  0.2822 -0.3673
 9184TIP3    H127474   4.529   3.714   3.704  0.2723 -0.1104  0.5003
 9184TIP3    H227475   4.676   3.737   3.680  0.7029 -3.1126 -0.1530
 9185TIP3   OH227476   5.248   6.272   2.329 -0.4776  0.2760 -0.2317
 9185TIP3    H127477   5.156   6.297   2.323 -0.8193 -1.0064 -0.7002
 9185TIP3    H227478   5.286   6.298   2.244 -0.3484  0.9811  0.0350
 9186TIP3   OH227479   7.188   6.382   4.421  0.3620 -0.1209  0.5252
 9186TIP3    H127480   7.248   6.394   4.495 -0.5972  0.9513  1.1663
 9186TIP3    H227481   7.158   6.471   4.400  1.4868 -0.2605 -1.9342
 9187TIP3   OH227482   7.872   5.013   1.543  0.1786 -0.0091  0.1105
 9187TIP3    H127483   7.792   4.962   1.554 -0.0113  0.0510 -0.9083
 9187TIP3    H227484   7.874   5.034   1.450  0.6236  1.2360  0.3843
 9188TIP3   OH227485   6.591   3.775   1.698 -0.1133  0.0363 -0.2225
 9188TIP3    H127486   6.601   3.870   1.691 -2.3540  0.3148 -0.5594
 9188TIP3    H227487   6.626   3.741   1.615  0.3309  0.6076 -0.2749
 9189TIP3   OH227488   6.712   1.434   6.137  0.0714  0.5398  0.4288
 9189TIP3    H127489   6.714   1.482   6.220 -0.0868 -1.2922  1.5396
 9189TIP3    H227490   6.802   1.435   6.106 -0.0570  2.1844  0.0125
 9190TIP3   OH227491   1.307   4.467   0.635  0.0406  0.0890  0.0313
 9190TIP3    H127492   1.248   4.541   0.627 -1.1143 -0.8576 -0.4107
 9190TIP3    H227493   1.294   4.434   0.724 -0.7744 -0.6559 -0.3494
 9191TIP3   OH227494   5.934   7.613   3.098 -0.0389 -0.1901  0.1294
 9191TIP3    H127495   5.844   7.643   3.112  0.1047 -0.3250  1.4773
 9191TIP3    H227496   5.929   7.518   3.102  0.3822 -0.1690  1.8627
 9192TIP3   OH227497   1.880   6.824   3.152 -0.3497  0.6934 -0.2441
 9192TIP3    H127498   1.819   6.811   3.080 -1.7266 -1.4796  1.1685
 9192TIP3    H227499   1.962   6.783   3.122 -0.5887  0.7189 -0.9379
 9193TIP3   OH227500   5.086   2.081   2.895 -0.0605  0.7828 -0.0431
 9193TIP3    H127501   5.091   1.985   2.891 -1.5883  0.6221  1.0298
 9193TIP3    H227502   5.001   2.102   2.857 -0.5091  1.5611  1.3370
 9194TIP3   OH227503   8.005   7.968   2.300 -0.4452  0.4631  0.0348
 9194TIP3    H127504   7.918   7.950   2.265 -0.2530 -0.6556  0.0842
 9194TIP3    H227505   8.025   7.892   2.354 -0.4041  1.7880  1.9610
 9195TIP3   OH227506   7.528   5.942   1.192 -0.0636  0.1745  0.0272
 9195TIP3    H127507   7.522   5.861   1.143 -1.5400 -0.3978  1.0952
 9195TIP3    H227508   7.525   5.915   1.284 -2.4220  1.5127  0.4151
 9196TIP3   OH227509   5.576   3.695   6.555  0.2583  0.2010 -0.3272
 9196TIP3    H127510   5.591   3.783   6.519  1.3556  0.2605  0.2401
 9196TIP3    H227511   5.511   3.709   6.624  1.0650  0.7266  0.3507
 9197TIP3   OH227512   6.053   2.944   2.930  0.1469  1.0218  0.2007
 9197TIP3    H127513   6.051   2.879   2.859  1.5979  0.7255  0.4016
 9197TIP3    H227514   6.047   2.892   3.010  0.1488  1.2328  0.3376
 9198TIP3   OH227515   5.177   6.393   5.761  0.4945  0.4322 -0.0434
 9198TIP3    H127516   5.216   6.380   5.675 -1.7419 -2.0437 -0.8429
 9198TIP3    H227517   5.235   6.347   5.821  0.9401  0.2965 -0.5663
 9199TIP3   OH227518   3.368   6.038   0.771 -0.2352  0.3638  0.0458
 9199TIP3    H127519   3.374   6.123   0.728 -2.7418  0.3783 -0.4249
 9199TIP3    H227520   3.301   5.991   0.722  0.8138 -1.7822  0.5294
 9200TIP3   OH227521   7.698   2.916   4.824  0.1065  0.3861  0.2826
 9200TIP3    H127522   7.765   2.937   4.889 -0.0825  1.2280  0.2185
 9200TIP3    H227523   7.710   2.823   4.806  1.1386  0.4875  0.3989
 9201TIP3   OH227524   1.562   5.968   7.108 -0.2362 -0.2177  0.3245
 9201TIP3    H127525   1.621   6.037   7.079  0.4151 -0.9581 -0.1683
 9201TIP3    H227526   1.554   5.910   7.032 -0.6183 -0.7778  0.7842
 9202TIP3   OH227527   3.620   3.350   1.343  0.2348  0.4135 -0.4139
 9202TIP3    H127528   3.634   3.429   1.289  1.2716  1.1124  0.8335
 9202TIP3    H227529   3.675   3.283   1.302  0.5273  0.7604 -0.5958
 9203TIP3   OH227530   3.981   4.307   0.031 -0.3676  0.0916 -0.2742
 9203TIP3    H127531   3.997   4.229  -0.023 -1.5792  1.5576 -2.9501
 9203TIP3    H227532   4.068   4.334   0.060  0.2274 -1.3391 -0.6070
 9204TIP3   OH227533   2.294   2.200   6.837  0.2457 -0.3388 -0.0235
 9204TIP3    H127534   2.354   2.126   6.850  0.3776 -0.5135 -1.4569
 9204TIP3    H227535   2.210   2.169   6.873  0.1857 -1.3679 -0.9860
 9205TIP3   OH227536   2.362   2.867   0.093 -0.2485 -0.1991  0.2319
 9205TIP3    H127537   2.400   2.784   0.064 -1.3822 -0.7935  0.3691
 9205TIP3    H227538   2.437   2.924   0.110  0.5765 -1.3957  0.7159
 9206TIP3   OH227539   8.465   0.073   0.992 -0.3498  0.3699  0.9694
 9206TIP3    H127540   8.519   0.005   1.032  0.3984  0.2137 -0.2608
 9206TIP3    H227541   8.461   0.049   0.899 -1.0307  1.3858  0.7182
 9207TIP3   OH227542   1.611   4.591   0.032  0.2790 -0.4016  0.4229
 9207TIP3    H127543   1.652   4.631   0.109 -0.8279  0.6640  0.4853
 9207TIP3    H227544   1.568   4.664  -0.012 -1.5480 -1.4714  0.3596
 9208TIP3   OH227545   6.478   1.751   0.622 -0.2566  0.1908  0.2281
 9208TIP3    H127546   6.444   1.823   0.569  1.0960  1.8510  1.4993
 9208TIP3    H227547   6.412   1.738   0.690 -0.9804 -0.4872 -0.5851
 9209TIP3   OH227548   0.920   6.968   0.337 -0.0224  0.2711 -0.0686
 9209TIP3    H127549   0.891   7.040   0.393 -1.3174 -1.0127  0.9786
 9209TIP3    H227550   0.863   6.973   0.260 -0.8507 -0.2574  0.4933
 9210TIP3   OH227551   3.400   2.843   1.486 -0.9670 -0.9635 -0.3476
 9210TIP3    H127552   3.408   2.804   1.573  2.1275  0.9588  0.4043
 9210TIP3    H227553   3.328   2.905   1.493 -0.6948 -0.7644  0.8830
 9211TIP3   OH227554   2.071   2.521   7.007 -0.0959  0.2747 -0.6655
 9211TIP3    H127555   2.000   2.576   7.039 -0.2713 -0.0465 -0.4922
 9211TIP3    H227556   2.149   2.553   7.053 -0.6360 -1.4378  1.6880
 9212TIP3   OH227557   2.984   5.753   5.999  0.2193  0.5301 -0.3612
 9212TIP3    H127558   3.018   5.664   6.014 -0.5331  0.3466  0.3430
 9212TIP3    H227559   2.889   5.742   6.001  0.1236  1.3478 -0.3330
 9213TIP3   OH227560   0.248   2.722   1.468 -0.1734  0.3133  0.4512
 9213TIP3    H127561   0.308   2.756   1.535  2.2316  0.5390 -1.6623
 9213TIP3    H227562   0.161   2.739   1.503  0.9428  0.3020  3.5517
 9214TIP3   OH227563   6.791   7.571   3.482  0.1077  0.0590  0.6470
 9214TIP3    H127564   6.794   7.580   3.386 -1.1730 -2.5291  0.2825
 9214TIP3    H227565   6.730   7.639   3.510  0.6990  1.0299 -0.3142
 9215TIP3   OH227566   1.111   5.850   0.170 -0.4405  0.3222 -0.2486
 9215TIP3    H127567   1.077   5.771   0.210  1.1446 -0.3013 -0.0673
 9215TIP3    H227568   1.086   5.921   0.229 -0.4597 -0.2579  0.4402
 9216TIP3   OH227569   2.787   8.181   3.461 -0.0620  0.0958 -0.1577
 9216TIP3    H127570   2.720   8.114   3.459 -0.4927  0.5187 -0.1095
 9216TIP3    H227571   2.868   8.135   3.440  0.0969 -0.9371  2.4036
 9217TIP3   OH227572   8.509   7.787   2.280 -0.5886  0.2189  0.4721
 9217TIP3    H127573   8.487   7.696   2.296  1.9657 -0.2010  2.1676
 9217TIP3    H227574   8.533   7.821   2.367 -0.4859  2.2053 -0.2868
 9218TIP3   OH227575   1.807   4.296   6.259 -0.0945  0.6967  0.2990
 9218TIP3    H127576   1.840   4.244   6.332 -0.3777 -0.4774 -0.3817
 9218TIP3    H227577   1.839   4.384   6.277 -0.8469  0.6171  2.2555
 9219TIP3   OH227578   7.491   7.932   6.675 -0.3089  0.3866 -0.1476
 9219TIP3    H127579   7.513   7.918   6.583  0.1351  0.9447 -0.1320
 9219TIP3    H227580   7.571   7.909   6.723 -0.3457  0.6657  0.0520
 9220TIP3   OH227581   6.074   1.699   1.794  0.9608  0.0808  0.4150
 9220TIP3    H127582   6.139   1.658   1.738  0.2198 -1.4312  0.6001
 9220TIP3    H227583   6.110   1.785   1.815  1.3077  0.6773 -2.2862
 9221TIP3   OH227584   4.341   6.842   5.664 -0.2715 -0.2903 -0.2684
 9221TIP3    H127585   4.344   6.780   5.737 -1.8829  0.6117  0.6326
 9221TIP3    H227586   4.369   6.925   5.702 -1.2950  0.2268 -0.5991
 9222TIP3   OH227587   7.154   1.484   4.964 -0.2294 -0.0307  0.2030
 9222TIP3    H127588   7.086   1.464   5.029 -1.8017 -1.8653 -1.8813
 9222TIP3    H227589   7.109   1.534   4.896  1.5171  2.3736  0.6652
 9223TIP3   OH227590   5.574   7.810   4.704  0.0495  0.4436  0.1234
 9223TIP3    H127591   5.585   7.721   4.738 -0.5747 -0.0578 -0.9629
 9223TIP3    H227592   5.568   7.865   4.783  1.7873 -0.2818  0.8034
 9224TIP3   OH227593   0.327   5.082   0.303 -0.4777 -0.0644  0.2667
 9224TIP3    H127594   0.335   5.171   0.337 -0.4129 -0.0536  0.2212
 9224TIP3    H227595   0.258   5.043   0.357 -1.2792  0.3587 -0.4332
 9225TIP3   OH227596   6.295   2.180   5.499  0.4021  0.4824 -0.0020
 9225TIP3    H127597   6.348   2.149   5.426 -0.4704  1.7545 -1.2272
 9225TIP3    H227598   6.298   2.276   5.492  1.2389  0.6949  2.3403
 9226TIP3   OH227599   2.166   1.807   2.566 -0.3437 -0.5134 -0.0460
 9226TIP3    H127600   2.114   1.745   2.617  0.1052 -1.6487 -0.9136
 9226TIP3    H227601   2.140   1.790   2.475  0.3977  0.0027 -0.3604
 9227TIP3   OH227602   7.720   0.955   3.056  0.2933  0.5966  0.7665
 9227TIP3    H127603   7.776   1.028   3.029 -1.0142  1.3437 -0.0126
 9227TIP3    H227604   7.672   0.931   2.978 -1.3066  0.7297  1.6746
 9228TIP3   OH227605   0.228   6.583   3.006  0.4590 -0.0178  0.0889
 9228TIP3    H127606   0.134   6.601   2.998  0.6355  0.7860 -0.3559
 9228TIP3    H227607   0.259   6.581   2.916  1.0132  0.6149  0.2562
 9229TIP3   OH227608   8.406   0.125   3.291 -0.0345  0.0206 -0.3847
 9229TIP3    H127609   8.427   0.058   3.355 -1.6284 -0.2811 -0.1409
 9229TIP3    H227610   8.478   0.121   3.227  1.3139 -0.0010  1.0848
 9230TIP3   OH227611   8.632   7.233   1.930  0.2944 -0.0669  0.1298
 9230TIP3    H127612   8.620   7.320   1.967 -1.5597  0.0868 -0.7533
 9230TIP3    H227613   8.693   7.190   1.990  0.8438  1.6524  0.8535
 9231TIP3   OH227614   5.661   5.476   1.317 -0.2495  0.0290  0.2052
 9231TIP3    H127615   5.641   5.564   1.285  1.4832 -0.0367 -1.2280
 9231TIP3    H227616   5.605   5.418   1.265 -1.1573  0.2480  0.9246
 9232TIP3   OH227617   1.558   7.231   5.654  0.3751  0.0219  0.8072
 9232TIP3    H127618   1.514   7.255   5.736  1.1781 -0.4805  1.4024
 9232TIP3    H227619   1.642   7.277   5.657 -1.3000  3.6845 -1.8588
 9233TIP3   OH227620   5.231   4.874   3.397 -0.2831 -0.5293  0.1317
 9233TIP3    H127621   5.142   4.861   3.431  0.3478 -0.2168  2.0406
 9233TIP3    H227622   5.241   4.969   3.395  0.3223 -0.5598  0.9113
 9234TIP3   OH227623   6.750   3.530   6.597  0.2582 -0.1796  0.8345
 9234TIP3    H127624   6.761   3.583   6.518  0.4565  0.5605  1.3574
 9234TIP3    H227625   6.655   3.521   6.607  0.2089 -2.0286 -0.6301
 9235TIP3   OH227626   4.844   4.388   6.859  0.1907  0.6814  0.0552
 9235TIP3    H127627   4.871   4.419   6.946  0.4941 -0.0858  0.2437
 9235TIP3    H227628   4.808   4.300   6.875  1.1466  0.1309 -0.7249
 9236TIP3   OH227629   7.024   3.306   1.537  0.6784 -0.9279  0.1163
 9236TIP3    H127630   6.930   3.296   1.553  0.9117 -1.5797  1.1886
 9236TIP3    H227631   7.037   3.273   1.448 -0.1277 -0.6786 -0.1036
 9237TIP3   OH227632   8.277   2.584   1.201 -0.1112  0.1570 -0.1452
 9237TIP3    H127633   8.234   2.563   1.118  0.6948 -1.5455 -0.1899
 9237TIP3    H227634   8.289   2.679   1.199  0.3154  0.1149 -2.1971
 9238TIP3   OH227635   2.868   1.151   5.309 -0.0205 -0.1753  0.6823
 9238TIP3    H127636   2.816   1.138   5.230  0.0890  0.5648  0.4734
 9238TIP3    H227637   2.952   1.186   5.277 -0.1677  0.6383  1.1426
 9239TIP3   OH227638   5.042   6.472   4.093 -0.3115  0.1759 -0.2324
 9239TIP3    H127639   4.980   6.540   4.122 -2.4452 -2.1650  1.0819
 9239TIP3    H227640   4.992   6.418   4.033  0.0978 -2.2831  1.5032
 9240TIP3   OH227641   6.442   3.008   0.096 -0.5538 -0.0268  0.1740
 9240TIP3    H127642   6.437   2.916   0.122 -1.3696  0.2985  1.2627
 9240TIP3    H227643   6.382   3.015   0.022  0.9258 -0.7301 -1.1513
 9241TIP3   OH227644   3.618   4.667   0.373  0.0920  0.0805  0.2243
 9241TIP3    H127645   3.635   4.573   0.371  0.8579  0.2152 -0.7107
 9241TIP3    H227646   3.673   4.702   0.303  0.1409  1.2796  0.8376
 9242TIP3   OH227647   7.975   2.859   2.843 -0.0607  0.0185  0.2198
 9242TIP3    H127648   7.913   2.821   2.781  0.8817 -1.2551  0.0096
 9242TIP3    H227649   7.991   2.948   2.811 -1.1784  0.0950 -0.1524
 9243TIP3   OH227650   6.084   0.681   4.410  0.4113  0.5852  0.2720
 9243TIP3    H127651   6.029   0.619   4.362 -0.1112  1.5695 -0.4440
 9243TIP3    H227652   6.166   0.682   4.362  0.5396  0.1952  0.4835
 9244TIP3   OH227653   3.961   4.209   0.340 -0.2590  0.4231 -0.2476
 9244TIP3    H127654   3.986   4.267   0.412 -1.5429  0.7983 -0.0836
 9244TIP3    H227655   4.034   4.214   0.279  0.6117  0.5256  0.7639
 9245TIP3   OH227656   4.589   3.865   6.684 -0.3559 -0.4550 -0.0922
 9245TIP3    H127657   4.655   3.843   6.749 -0.5895  1.9198  1.0485
 9245TIP3    H227658   4.506   3.843   6.726 -0.4191 -1.5900 -0.7575
 9246TIP3   OH227659   0.541   4.892   1.705  0.7881  0.1643  0.2352
 9246TIP3    H127660   0.608   4.826   1.689 -0.0401 -0.7790  0.5786
 9246TIP3    H227661   0.548   4.912   1.798  1.7475  1.3722 -0.0762
 9247TIP3   OH227662   4.135   0.875   1.985 -0.2199 -0.8108  0.7834
 9247TIP3    H127663   4.083   0.954   1.998  0.5729 -0.1691  0.1618
 9247TIP3    H227664   4.141   0.866   1.890 -0.4628 -1.7393  0.8474
 9248TIP3   OH227665   4.359   6.211   4.480  0.3974  0.1233 -0.0884
 9248TIP3    H127666   4.446   6.243   4.455  0.9674 -0.4481  1.0462
 9248TIP3    H227667   4.323   6.282   4.533  0.8321 -0.2455  0.7332
 9249TIP3   OH227668   0.081   4.336   3.428  0.5710  0.1905  0.0566
 9249TIP3    H127669   0.172   4.314   3.444  0.5169 -0.5344 -0.5843
 9249TIP3    H227670   0.036   4.252   3.424 -0.2007  0.5504  0.7574
 9250TIP3   OH227671   1.877   3.479   2.345 -0.1749  0.3564 -0.7022
 9250TIP3    H127672   1.800   3.510   2.297  0.9306  0.3406 -2.5838
 9250TIP3    H227673   1.927   3.559   2.364 -0.7793  0.3977  0.7823
 9251TIP3   OH227674   6.434   2.401   5.213  0.4448  0.3444 -0.1523
 9251TIP3    H127675   6.457   2.491   5.191  1.7927  0.5510  1.7935
 9251TIP3    H227676   6.368   2.409   5.282 -1.2395 -0.2230 -1.6414
 9252TIP3   OH227677   0.050   7.755   3.232 -0.8351 -0.5915  0.4327
 9252TIP3    H127678   0.017   7.676   3.275 -3.8619  0.4524  0.2948
 9252TIP3    H227679  -0.011   7.824   3.259  0.3253  1.2185 -1.2971
 9253TIP3   OH227680   4.470   2.994   1.041 -0.2489  0.1790  0.3541
 9253TIP3    H127681   4.419   2.942   0.979 -0.2404 -0.3445  0.7887
 9253TIP3    H227682   4.496   3.071   0.991  0.9882 -0.9106 -0.7458
 9254TIP3   OH227683   2.316   2.586   4.474 -0.0166 -0.0325 -0.3276
 9254TIP3    H127684   2.377   2.516   4.452  2.3902  0.9904  2.5282
 9254TIP3    H227685   2.270   2.555   4.552 -0.5412  0.6802 -0.3389
 9255TIP3   OH227686   6.962   5.387   5.306 -0.5485 -0.4773  0.3748
 9255TIP3    H127687   6.971   5.355   5.216 -0.3656 -1.5757  0.7704
 9255TIP3    H227688   6.953   5.482   5.297  1.3326 -0.3489 -0.7017
 9256TIP3   OH227689   0.484   0.671   6.097  0.2948 -0.2539 -0.2976
 9256TIP3    H127690   0.491   0.576   6.111 -0.3999 -0.2645  0.0552
 9256TIP3    H227691   0.390   0.689   6.105  0.2015  0.2105 -2.1207
 9257TIP3   OH227692   0.063   4.640   2.389 -0.1908 -0.1644 -1.0246
 9257TIP3    H127693   0.125   4.568   2.403 -0.8779 -0.7931 -1.1316
 9257TIP3    H227694  -0.013   4.617   2.443 -0.4674  0.4156 -1.1612
 9258TIP3   OH227695   7.028   7.052   3.046  0.1754 -0.3512 -0.3736
 9258TIP3    H127696   6.982   6.969   3.060  0.8450 -0.7472 -0.4951
 9258TIP3    H227697   6.967   7.118   3.078 -1.2935 -0.7044 -2.2702
 9259TIP3   OH227698   1.362   0.444   5.447 -0.2151 -0.1787  0.0030
 9259TIP3    H127699   1.431   0.411   5.505  0.1131  0.4506 -0.0150
 9259TIP3    H227700   1.292   0.472   5.505  0.0724  0.3588  0.0932
 9260TIP3   OH227701   4.370   6.349   5.189  0.2186  0.0419  0.4510
 9260TIP3    H127702   4.463   6.329   5.182  0.2051  0.3580 -0.8393
 9260TIP3    H227703   4.366   6.429   5.242  0.5888 -0.5920  1.4675
 9261TIP3   OH227704   3.075   2.364   2.828  0.3048 -0.2284 -0.1472
 9261TIP3    H127705   3.016   2.439   2.825  0.8234  0.1957  0.0716
 9261TIP3    H227706   3.037   2.307   2.895  0.1888  0.0801  0.0529
 9262TIP3   OH227707   8.548   6.430   0.913  0.0087  0.7923 -0.0099
 9262TIP3    H127708   8.631   6.441   0.958  1.3548  1.5793 -2.5267
 9262TIP3    H227709   8.569   6.381   0.834 -1.8952  1.0721 -0.7583
 9263TIP3   OH227710   3.645   3.487   3.091 -0.1395  0.7356  0.0210
 9263TIP3    H127711   3.684   3.415   3.142  0.4052  0.3002 -0.9766
 9263TIP3    H227712   3.610   3.444   3.013 -1.5832  1.2973  0.3290
 9264TIP3   OH227713   2.064   4.157   5.246 -0.0288 -0.1466  0.2165
 9264TIP3    H127714   2.057   4.107   5.165 -0.3979  2.1088 -1.2320
 9264TIP3    H227715   2.156   4.149   5.272  0.1238 -0.7803 -0.4944
 9265TIP3   OH227716   2.377   5.664   4.897 -0.3089  0.4267  0.5385
 9265TIP3    H127717   2.378   5.664   4.802 -1.1050  2.5076  0.4812
 9265TIP3    H227718   2.288   5.689   4.921  0.1432  0.9543  1.7937
 9266TIP3   OH227719   6.312   5.727   4.423 -0.4594  0.3429  0.3095
 9266TIP3    H127720   6.220   5.702   4.432 -0.3808  0.4630  1.6184
 9266TIP3    H227721   6.358   5.677   4.491  0.5141 -0.0367 -0.6032
 9267TIP3   OH227722   8.004   4.673   1.061  0.0389 -0.2153  0.0802
 9267TIP3    H127723   8.098   4.683   1.070 -0.1199  1.7240  0.1834
 9267TIP3    H227724   7.981   4.731   0.988 -1.3300  1.2244  1.5608
 9268TIP3   OH227725   1.736   5.998   5.743 -0.2002  0.3892  0.7774
 9268TIP3    H127726   1.800   5.973   5.676 -2.1511 -2.4003 -0.2207
 9268TIP3    H227727   1.759   5.946   5.819 -1.7503 -1.4698  0.0731
 9269TIP3   OH227728   6.450   0.732   3.930  0.2754  0.7951  0.0385
 9269TIP3    H127729   6.396   0.761   4.003  0.6046  0.0968  0.5623
 9269TIP3    H227730   6.414   0.647   3.906 -2.0160  2.3788 -2.8283
 9270TIP3   OH227731   4.616   0.964   2.853  0.0462  0.1455  0.0162
 9270TIP3    H127732   4.679   0.959   2.781  0.2906  1.8240  0.0746
 9270TIP3    H227733   4.531   0.959   2.810  0.0989 -3.1755  0.0121
 9271TIP3   OH227734   6.888   1.292   3.406 -0.5423 -0.3994  0.2219
 9271TIP3    H127735   6.795   1.274   3.417 -0.3793 -0.9595  0.7392
 9271TIP3    H227736   6.895   1.330   3.319 -0.9925 -2.3255 -0.7152
 9272TIP3   OH227737   2.855   6.057   4.056 -0.1723  0.2081  0.1563
 9272TIP3    H127738   2.902   6.105   4.124  0.8257 -0.5975  0.0681
 9272TIP3    H227739   2.925   6.021   4.001 -0.9249 -0.5701 -0.2968
 9273TIP3   OH227740   1.418   5.652   5.726  0.0560 -0.3517  0.1640
 9273TIP3    H127741   1.503   5.692   5.707  0.0740 -0.5376 -0.1503
 9273TIP3    H227742   1.403   5.591   5.653 -2.1279  2.4410 -1.9335
 9274TIP3   OH227743   3.047   4.004   3.018  0.1183  0.1993 -0.2793
 9274TIP3    H127744   3.042   4.082   2.963 -1.0620 -0.6157 -1.3775
 9274TIP3    H227745   2.972   4.012   3.077  0.6708  0.4480  0.4151
 9275TIP3   OH227746   0.061   1.501   5.111 -0.0343  0.3985 -0.1878
 9275TIP3    H127747   0.005   1.437   5.067  0.4188 -1.9975  2.4082
 9275TIP3    H227748   0.150   1.479   5.082  0.0863  0.0903  0.4022
 9276TIP3   OH227749   3.183   0.908   3.184  0.2474 -0.1274 -0.2674
 9276TIP3    H127750   3.212   0.950   3.265 -0.5649 -0.5547  0.2487
 9276TIP3    H227751   3.234   0.828   3.178  0.7769  0.2184 -0.5271
 9277TIP3   OH227752   0.683   4.655   4.204 -0.3077  0.5065 -0.3691
 9277TIP3    H127753   0.726   4.572   4.227 -0.9219  0.5153  0.9342
 9277TIP3    H227754   0.595   4.629   4.176 -0.1714  0.6547 -0.9587
 9278TIP3   OH227755   6.304   3.710   7.085 -0.3607 -0.3511  0.0418
 9278TIP3    H127756   6.230   3.649   7.084 -1.0351  0.3594  1.9018
 9278TIP3    H227757   6.329   3.719   6.993 -1.6534 -1.7207 -0.4879
 9279TIP3   OH227758   7.952   1.538   6.485  0.5052 -0.3059 -0.3685
 9279TIP3    H127759   7.922   1.618   6.444 -0.2676 -0.4166 -0.0450
 9279TIP3    H227760   7.935   1.551   6.578  0.4542 -0.8134 -0.3044
 9280TIP3   OH227761   1.476   7.237   2.949  0.3958 -0.3050  0.0558
 9280TIP3    H127762   1.529   7.231   3.028 -0.2524  0.0890  0.5370
 9280TIP3    H227763   1.530   7.284   2.886  0.4934  0.3826  0.6462
 9281TIP3   OH227764   5.282   2.365   0.019 -0.5952 -0.0906 -0.4178
 9281TIP3    H127765   5.244   2.292   0.068 -1.4958 -0.3819 -1.5250
 9281TIP3    H227766   5.248   2.443   0.062 -0.8831 -0.3307 -0.2045
 9282TIP3   OH227767   1.335   7.039   6.470  0.2503  0.0029 -0.0006
 9282TIP3    H127768   1.337   7.011   6.378 -1.2105 -1.8933  0.4676
 9282TIP3    H227769   1.408   6.993   6.510  1.6255  1.7552 -0.3905
 9283TIP3   OH227770   6.097   4.458   2.259 -0.1684  0.1142  0.1632
 9283TIP3    H127771   6.039   4.394   2.301  0.1388 -0.6873 -0.6086
 9283TIP3    H227772   6.162   4.405   2.214 -0.9170  0.9251 -1.9576
 9284TIP3   OH227773   4.314   7.516   5.317  0.5440 -0.1301 -0.0900
 9284TIP3    H127774   4.235   7.544   5.363  1.0732 -0.9409  1.3709
 9284TIP3    H227775   4.384   7.566   5.358  0.8744  0.2028 -1.0314
 9285TIP3   OH227776   1.303   2.882   1.512 -0.6765 -0.1289 -0.1277
 9285TIP3    H127777   1.369   2.949   1.526 -0.4303 -0.8005  2.2958
 9285TIP3    H227778   1.345   2.819   1.453  0.7352 -0.3168  1.0182
 9286TIP3   OH227779   4.743   3.582   2.695 -0.4439  0.1452  0.2425
 9286TIP3    H127780   4.754   3.663   2.746 -1.1568  0.4715 -0.0972
 9286TIP3    H227781   4.681   3.606   2.626 -3.7654 -1.6547  2.3594
 9287TIP3   OH227782   7.387   3.283   0.339 -0.7717 -0.3543 -0.8227
 9287TIP3    H127783   7.376   3.205   0.284 -0.9671 -0.4720 -0.6153
 9287TIP3    H227784   7.314   3.280   0.401 -0.0545 -0.6988  0.0226
 9288TIP3   OH227785   1.860   7.089   2.910 -0.1623 -0.0673 -0.8067
 9288TIP3    H127786   1.950   7.118   2.897  0.8849 -2.6432  0.0542
 9288TIP3    H227787   1.835   7.127   2.994 -0.3597  1.6141 -1.5828
 9289TIP3   OH227788   7.527   5.887   4.556  0.1448 -0.1267 -0.8926
 9289TIP3    H127789   7.457   5.848   4.610  0.2155 -0.0071 -0.7122
 9289TIP3    H227790   7.577   5.941   4.618  1.1686 -1.2030 -0.7355
 9290TIP3   OH227791   3.584   2.236   2.947 -0.5312 -0.5513 -0.3499
 9290TIP3    H127792   3.606   2.325   2.922 -1.0386 -0.6732 -1.2921
 9290TIP3    H227793   3.616   2.227   3.037 -0.2892  0.5029 -0.3202
 9291TIP3   OH227794   0.096   4.501   3.620 -0.1874 -0.6627  0.1872
 9291TIP3    H127795   0.059   4.449   3.548 -0.1947 -0.4064  0.0039
 9291TIP3    H227796   0.026   4.563   3.643  0.6783  0.9543 -1.2834
 9292TIP3   OH227797   8.279   6.615   2.313  0.5708 -0.1389  0.2083
 9292TIP3    H127798   8.229   6.537   2.288  1.9358 -1.4391  1.3327
 9292TIP3    H227799   8.234   6.648   2.391  1.5895 -1.4963  1.4126
 9293TIP3   OH227800   0.348   1.139   2.290 -0.0398  0.4375 -0.3716
 9293TIP3    H127801   0.425   1.189   2.317  0.3174  0.7855 -1.9252
 9293TIP3    H227802   0.289   1.143   2.366  1.7342 -0.4734  1.1488
 9294TIP3   OH227803   0.635   8.066   4.411  0.4630 -0.2916  0.1919
 9294TIP3    H127804   0.563   8.026   4.460  0.1106  0.1136  0.0046
 9294TIP3    H227805   0.656   8.145   4.459 -0.0522  0.2403 -0.4387
 9295TIP3   OH227806   0.096   4.007   6.153  0.7296  0.3230 -0.0755
 9295TIP3    H127807   0.041   4.041   6.083  1.8090  0.7060 -0.7749
 9295TIP3    H227808   0.185   4.035   6.129  1.3630 -1.0850  0.5004
 9296TIP3   OH227809   7.696   3.415   5.950  0.6121 -0.0526  0.4089
 9296TIP3    H127810   7.606   3.408   5.918  0.9385  0.4275 -0.7032
 9296TIP3    H227811   7.693   3.387   6.041 -0.6823  0.0659  0.4124
 9297TIP3   OH227812   1.748   2.854   0.265 -0.3731 -1.1666 -0.4713
 9297TIP3    H127813   1.787   2.774   0.302  0.7126 -1.3579 -1.9820
 9297TIP3    H227814   1.654   2.833   0.259 -0.7178 -0.9500  2.5439
 9298TIP3   OH227815   2.332   5.624   4.632 -0.1704 -0.1802 -0.4785
 9298TIP3    H127816   2.402   5.567   4.600  0.1234  0.0425 -0.2416
 9298TIP3    H227817   2.259   5.608   4.573  1.0058  1.7741 -2.6564
 9299TIP3   OH227818   6.398   3.681   1.101  0.2427 -0.1008 -0.6864
 9299TIP3    H127819   6.399   3.613   1.169 -0.5700  0.8760  0.3492
 9299TIP3    H227820   6.466   3.742   1.129 -0.9807  0.9853  0.0049
 9300TIP3   OH227821   3.024   3.512   0.499 -0.1205 -0.1055  0.0904
 9300TIP3    H127822   3.039   3.446   0.431  0.5648 -0.0249  0.1516
 9300TIP3    H227823   3.037   3.464   0.581  2.0019  0.4196  0.1335
 9301TIP3   OH227824   3.211   0.805   1.279  0.0281  0.0290  0.0705
 9301TIP3    H127825   3.254   0.845   1.203 -0.5219 -0.0359 -0.2865
 9301TIP3    H227826   3.230   0.864   1.352  3.1727 -1.4429  0.6143
 9302TIP3   OH227827   3.327   6.300   5.147 -0.3172 -0.0064 -0.1394
 9302TIP3    H127828   3.367   6.268   5.066 -2.5927 -0.9234 -1.0145
 9302TIP3    H227829   3.397   6.301   5.211  1.1016 -1.2988 -1.5972
 9303TIP3   OH227830   1.080   2.499   0.923  0.0884  0.0091  0.4262
 9303TIP3    H127831   1.003   2.547   0.891 -0.3875 -1.3311 -0.5154
 9303TIP3    H227832   1.061   2.481   1.015 -0.1030  0.8634  0.5633
 9304TIP3   OH227833   7.075   8.211   4.811  0.2445  0.3053 -0.2357
 9304TIP3    H127834   7.008   8.156   4.770 -1.3388  2.7258 -1.1343
 9304TIP3    H227835   7.072   8.187   4.904 -0.1001 -1.3440 -0.6341
 9305TIP3   OH227836   6.673   1.681   0.013  0.3954 -0.6390  0.5550
 9305TIP3    H127837   6.681   1.601   0.066 -0.6810 -1.9446 -1.1677
 9305TIP3    H227838   6.667   1.751   0.078  0.5924 -2.0067  2.1351
 9306TIP3   OH227839   8.023   1.526   1.657 -0.3014 -0.7772  0.1934
 9306TIP3    H127840   7.961   1.565   1.596 -0.3607 -0.0480  0.6992
 9306TIP3    H227841   7.978   1.529   1.742 -0.3353 -2.0259  0.2337
 9307TIP3   OH227842   5.467   7.967   7.060 -0.7056  0.0119  0.1283
 9307TIP3    H127843   5.377   7.998   7.054 -1.8322 -3.1291 -0.8578
 9307TIP3    H227844   5.466   7.879   7.023  2.9886  0.1699 -0.8084
 9308TIP3   OH227845   5.704   0.743   2.618  0.0508  0.3729 -0.4699
 9308TIP3    H127846   5.617   0.721   2.653  0.8503 -0.3070  1.1953
 9308TIP3    H227847   5.743   0.658   2.598  1.1634  0.5031  0.9758
 9309TIP3   OH227848   3.494   2.702   7.036 -0.1494  0.1712  0.1716
 9309TIP3    H127849   3.498   2.794   7.009 -0.0014 -0.2832 -1.4366
 9309TIP3    H227850   3.448   2.658   6.965 -0.2446 -1.0027  0.9383
 9310TIP3   OH227851   0.068   2.523   3.063 -0.1773 -0.1205 -0.6025
 9310TIP3    H127852   0.118   2.600   3.036 -1.3888  0.9178  0.0241
 9310TIP3    H227853   0.133   2.453   3.070  1.0739  1.0311 -0.4345
 9311TIP3   OH227854   0.579   3.130   5.309  0.4729 -0.2238 -0.4801
 9311TIP3    H127855   0.610   3.184   5.381  1.2045 -2.6885  1.1747
 9311TIP3    H227856   0.653   3.075   5.286 -0.9759 -2.4628 -0.1538
 9312TIP3   OH227857   5.382   4.262   5.736 -0.1405 -0.2999 -0.1989
 9312TIP3    H127858   5.386   4.213   5.655 -0.6994  0.6150 -0.8013
 9312TIP3    H227859   5.461   4.317   5.735  0.3089 -0.9187  0.3108
 9313TIP3   OH227860   6.905   2.488   5.530  0.5288  0.7420  0.3159
 9313TIP3    H127861   6.922   2.549   5.458 -1.4354 -0.8954 -1.6667
 9313TIP3    H227862   6.898   2.402   5.488 -2.1061 -0.1015  2.1905
 9314TIP3   OH227863   5.759   0.624   6.934 -0.0254 -0.1136 -0.3606
 9314TIP3    H127864   5.798   0.614   7.021  0.7306  1.5998 -0.4617
 9314TIP3    H227865   5.779   0.542   6.890  2.2032  0.0934  0.1264
 9315TIP3   OH227866   4.216   5.568   4.077  0.6516 -0.3087 -0.4499
 9315TIP3    H127867   4.223   5.479   4.112  2.5673 -0.0334 -0.0547
 9315TIP3    H227868   4.292   5.578   4.020  0.4624  1.0836 -0.4896
 9316TIP3   OH227869   3.266   0.446   5.176  0.2946  0.3059 -0.7553
 9316TIP3    H127870   3.286   0.397   5.096  1.0513 -1.4630  0.4498
 9316TIP3    H227871   3.227   0.381   5.234  2.4582  0.7564  1.3640
 9317TIP3   OH227872   8.701   7.765   4.080  0.1929  0.4881  0.2441
 9317TIP3    H127873   8.669   7.688   4.034  0.4629 -0.5379  1.7061
 9317TIP3    H227874   8.633   7.832   4.066  0.5340  0.4194 -2.0568
 9318TIP3   OH227875   7.522   5.431   0.256  0.3733 -0.5156  0.0407
 9318TIP3    H127876   7.445   5.418   0.311  0.0312  0.8805 -0.0493
 9318TIP3    H227877   7.570   5.349   0.261 -0.7573 -1.1605  0.6777
 9319TIP3   OH227878   1.637   2.542   4.237  0.0005  0.5009 -0.2628
 9319TIP3    H127879   1.630   2.488   4.315 -1.4335  0.6314 -0.2607
 9319TIP3    H227880   1.653   2.480   4.166 -1.1092  0.0931 -0.1841
 9320TIP3   OH227881   4.457   0.269   7.064  1.0935 -0.2064 -0.3246
 9320TIP3    H127882   4.518   0.290   7.134  1.9527  0.1983 -1.1605
 9320TIP3    H227883   4.425   0.353   7.033  1.8456 -0.2725 -1.3599
 9321TIP3   OH227884   7.233   7.154   1.250  0.1765 -0.3054  0.4239
 9321TIP3    H127885   7.301   7.097   1.286  1.3157  0.8894  0.2284
 9321TIP3    H227886   7.217   7.119   1.162  0.4969 -0.6352  0.4939
 9322TIP3   OH227887   6.382   7.593   1.444 -0.4119  0.3284  0.6610
 9322TIP3    H127888   6.291   7.608   1.469 -0.4470  0.7178  0.3030
 9322TIP3    H227889   6.433   7.649   1.502 -0.2038 -1.6446  2.5436
 9323TIP3   OH227890   1.578   7.812   1.209  0.3207  0.4329 -0.6708
 9323TIP3    H127891   1.664   7.808   1.251  0.4773  0.6272 -0.9709
 9323TIP3    H227892   1.516   7.817   1.282  0.5787  0.5427 -0.4592
 9324TIP3   OH227893   0.771   6.626   1.769 -0.4445 -0.3865 -0.0195
 9324TIP3    H127894   0.697   6.676   1.804  0.3771  0.3261  0.7264
 9324TIP3    H227895   0.734   6.540   1.747 -1.3102 -0.3179  1.1330
 9325TIP3   OH227896   1.343   3.366   3.942 -0.2115 -0.1288 -0.1468
 9325TIP3    H127897   1.365   3.285   3.897  2.6651  0.2915  0.3445
 9325TIP3    H227898   1.415   3.381   4.003 -1.2013  2.2139  0.5842
 9326TIP3   OH227899   1.643   3.180   5.696  0.1941  0.6587 -0.3150
 9326TIP3    H127900   1.599   3.192   5.612  0.5359  0.0008 -0.5915
 9326TIP3    H227901   1.694   3.100   5.685 -2.0036 -1.0985  1.4554
 9327TIP3   OH227902   0.033   0.109   5.897 -0.2691 -0.0506 -0.1502
 9327TIP3    H127903   0.092   0.037   5.917 -1.6672 -1.1071  0.3080
 9327TIP3    H227904   0.062   0.181   5.953  3.0525  0.8583 -2.7183
 9328TIP3   OH227905   0.280   1.795   3.351 -0.6880  0.8108  0.3945
 9328TIP3    H127906   0.357   1.846   3.377 -1.3842  1.0819  2.0431
 9328TIP3    H227907   0.308   1.748   3.273  1.7667 -0.5307  1.9619
 9329TIP3   OH227908   7.582   7.251   4.504  0.2710 -0.2035 -0.1382
 9329TIP3    H127909   7.549   7.331   4.545  1.7550 -0.4779  1.7092
 9329TIP3    H227910   7.514   7.227   4.441 -0.8112  1.7795  0.1910
 9330TIP3   OH227911   2.315   0.771   5.775 -0.2664  0.2554 -0.4074
 9330TIP3    H127912   2.280   0.716   5.846 -1.0361  1.0407 -0.1629
 9330TIP3    H227913   2.402   0.797   5.805 -0.3739  0.1377  0.0075
 9331TIP3   OH227914   5.649   3.303   2.441 -0.3415  0.6726  0.1772
 9331TIP3    H127915   5.602   3.381   2.473  2.0753  3.2781 -2.0311
 9331TIP3    H227916   5.632   3.303   2.347  2.9494  1.0890 -0.5329
 9332TIP3   OH227917   7.198   4.071   4.219  0.1277  0.3642  0.3228
 9332TIP3    H127918   7.112   4.096   4.251 -0.2547  0.5702 -0.8239
 9332TIP3    H227919   7.216   3.987   4.260 -1.2410 -0.3579 -0.5061
 9333TIP3   OH227920   6.254   0.429   0.869 -0.3724 -0.4438 -0.3034
 9333TIP3    H127921   6.219   0.384   0.945 -1.1976  1.5633  0.5717
 9333TIP3    H227922   6.349   0.426   0.880 -0.4921  0.1210  1.0150
 9334TIP3   OH227923   0.107   0.178   2.140 -0.1242 -0.3267 -0.3159
 9334TIP3    H127924   0.126   0.116   2.210 -1.5705 -0.2286  0.1928
 9334TIP3    H227925   0.069   0.254   2.185 -1.0566 -0.2496 -1.2013
 9335TIP3   OH227926   4.610   1.579   0.554 -0.1568  0.0809  0.6707
 9335TIP3    H127927   4.634   1.643   0.488  1.0695 -1.2272 -0.2244
 9335TIP3    H227928   4.662   1.501   0.532 -1.1264 -1.0202  2.0629
 9336TIP3   OH227929   5.939   7.031   5.178  0.3515 -0.0894 -0.2694
 9336TIP3    H127930   5.946   7.075   5.093 -0.0782 -1.5739 -1.1029
 9336TIP3    H227931   6.006   7.073   5.233  0.6111  0.9108 -1.3155
 9337TIP3   OH227932   6.643   3.279   2.439  0.1676 -0.6564  0.3023
 9337TIP3    H127933   6.634   3.226   2.517  1.9264 -1.0071  0.2904
 9337TIP3    H227934   6.587   3.236   2.374  0.9319 -2.0456  0.5334
 9338TIP3   OH227935   7.238   6.726   3.034 -0.1875  0.1336  0.0227
 9338TIP3    H127936   7.167   6.753   2.976 -0.9225  0.4209  1.0368
 9338TIP3    H227937   7.195   6.708   3.118  0.7744 -0.8247  0.3331
 9339TIP3   OH227938   1.926   3.314   2.565 -0.4360  0.5515 -0.2290
 9339TIP3    H127939   1.998   3.324   2.502 -1.9477  1.0793 -1.9721
 9339TIP3    H227940   1.879   3.396   2.560 -0.8963  0.4047  1.2787
 9340TIP3   OH227941   4.630   5.192   4.389 -0.2113  0.1593 -0.2854
 9340TIP3    H127942   4.659   5.106   4.360 -1.1431 -0.0199 -0.7175
 9340TIP3    H227943   4.676   5.206   4.472  0.9596 -0.1746 -0.8546
 9341TIP3   OH227944   7.940   7.522   6.399  0.7070 -0.5893  0.0815
 9341TIP3    H127945   7.906   7.530   6.310 -0.6965  0.1608  0.6561
 9341TIP3    H227946   8.034   7.508   6.387  0.8664  1.3774 -1.4899
 9342TIP3   OH227947   6.165   3.634   2.341  0.4242  0.5640 -0.5571
 9342TIP3    H127948   6.112   3.589   2.275 -0.1491 -1.1534  0.9938
 9342TIP3    H227949   6.224   3.566   2.374  0.9446  1.4758  0.4409
 9343TIP3   OH227950   1.891   1.053   5.996  0.1729  0.1106 -0.2107
 9343TIP3    H127951   1.855   1.009   6.073  0.4966  0.1484 -0.0414
 9343TIP3    H227952   1.828   1.123   5.977  0.0779  0.0811 -0.0031
 9344TIP3   OH227953   5.903   7.342   1.851  0.1090  0.5334 -0.0377
 9344TIP3    H127954   5.872   7.307   1.767 -0.8306  0.8386  0.1682
 9344TIP3    H227955   5.908   7.436   1.837 -0.4588  0.6274  0.3747
 9345TIP3   OH227956   3.448   1.950   4.031 -0.6064 -0.0195 -0.2060
 9345TIP3    H127957   3.507   1.932   4.104 -0.5732 -2.2165 -0.6996
 9345TIP3    H227958   3.432   2.044   4.036  2.5217  0.5989  0.2436
 9346TIP3   OH227959   8.494   2.096   1.463 -0.6659  0.3255 -0.2147
 9346TIP3    H127960   8.561   2.077   1.529 -0.7241  0.6709 -0.0528
 9346TIP3    H227961   8.538   2.083   1.379 -0.9822 -1.5492 -0.1335
 9347TIP3   OH227962   5.661   0.710   2.923 -0.3610  0.0895  0.3776
 9347TIP3    H127963   5.583   0.759   2.898 -0.6004  1.3331  3.2779
 9347TIP3    H227964   5.711   0.769   2.979  1.8209 -1.3057  0.0502
 9348TIP3   OH227965   3.318   2.345   7.037  0.9583 -0.2060  0.0333
 9348TIP3    H127966   3.354   2.430   7.010 -1.1498  0.5954 -0.4590
 9348TIP3    H227967   3.239   2.335   6.983  0.1472 -1.5928  1.4131
 9349TIP3   OH227968   0.323   3.766   0.796  0.2998  0.4060 -0.1256
 9349TIP3    H127969   0.357   3.746   0.709 -3.6812 -0.9041 -1.6021
 9349TIP3    H227970   0.333   3.685   0.846  1.9032  0.9416  0.5194
 9350TIP3   OH227971   2.546   7.435   6.533 -0.2146  0.2340 -0.6113
 9350TIP3    H127972   2.539   7.471   6.621 -0.4656  0.4655 -0.7238
 9350TIP3    H227973   2.535   7.341   6.545  1.5705  0.0413 -0.1765
 9351TIP3   OH227974   5.291   0.374   2.633 -0.1335  0.3681  0.2278
 9351TIP3    H127975   5.275   0.307   2.699 -2.1641  0.6043  0.0426
 9351TIP3    H227976   5.220   0.438   2.645  0.1756  1.0760 -1.3386
 9352TIP3   OH227977   6.481   6.696   0.170 -0.0785 -0.0551 -0.7494
 9352TIP3    H127978   6.483   6.608   0.132 -3.0209 -0.7466  0.4482
 9352TIP3    H227979   6.434   6.749   0.107 -2.0175 -0.4136  0.3184
 9353TIP3   OH227980   3.936   7.301   5.569 -0.2863 -0.2460  0.1968
 9353TIP3    H127981   3.895   7.295   5.483  1.7695 -1.2791 -0.7808
 9353TIP3    H227982   3.940   7.211   5.600 -0.4978  0.0600  1.1390
 9354TIP3   OH227983   2.851   7.356   5.442 -0.3091  0.0721  0.1350
 9354TIP3    H127984   2.775   7.363   5.500 -1.3257 -1.1922 -0.9719
 9354TIP3    H227985   2.905   7.432   5.463 -0.9045 -0.0452  2.3401
 9355TIP3   OH227986   6.099   4.174   6.372  0.9742  0.4002  0.3295
 9355TIP3    H127987   6.134   4.189   6.460 -1.0046 -1.2528  1.4927
 9355TIP3    H227988   6.009   4.146   6.387 -0.0150  1.8014 -2.3486
 9356TIP3   OH227989   2.828   3.349   3.259 -0.1402 -0.7053  0.1382
 9356TIP3    H127990   2.826   3.257   3.233 -0.1820 -0.2942 -1.4553
 9356TIP3    H227991   2.736   3.373   3.270 -0.2546 -0.4362 -1.1837
 9357TIP3   OH227992   2.856   0.807   0.130 -0.5040 -0.3402 -0.1778
 9357TIP3    H127993   2.798   0.732   0.119 -2.0962  0.6412  1.0730
 9357TIP3    H227994   2.857   0.849   0.043 -0.4813 -1.1724 -0.5915
 9358TIP3   OH227995   1.385   5.192   3.702  0.7524 -0.1308  0.1635
 9358TIP3    H127996   1.373   5.223   3.792 -0.7937 -1.8236  0.6074
 9358TIP3    H227997   1.301   5.208   3.660 -0.1543 -3.5112  0.4264
 9359TIP3   OH227998   0.079   1.279   5.697 -0.4887 -0.3535  0.2864
 9359TIP3    H127999  -0.001   1.331   5.706 -0.1687  0.6559 -2.0527
 9359TIP3    H228000   0.150   1.343   5.703  0.1449 -1.1484  1.6620
 9360TIP3   OH228001   8.288   1.826   4.679 -0.4288 -0.2281 -0.4747
 9360TIP3    H128002   8.367   1.869   4.712 -0.1564  0.5278 -2.0196
 9360TIP3    H228003   8.298   1.735   4.704  0.5728  0.0043  0.0219
 9361TIP3   OH228004   1.423   2.596   5.129  0.6282 -0.3430 -0.4232
 9361TIP3    H128005   1.440   2.690   5.131  0.0588 -0.1937 -1.5030
 9361TIP3    H228006   1.382   2.577   5.213  3.4557 -0.2188  1.0866
 9362TIP3   OH228007   0.507   4.235   4.325 -0.6730 -0.2751  0.5067
 9362TIP3    H128008   0.602   4.248   4.326 -0.5116 -1.2104 -0.7790
 9362TIP3    H228009   0.476   4.280   4.404  0.6044  1.7632 -0.0675
 9363TIP3   OH228010   5.358   6.960   2.681  0.1172  0.1318  0.3838
 9363TIP3    H128011   5.363   7.054   2.696  1.1510  0.1009  0.2836
 9363TIP3    H228012   5.264   6.943   2.669 -0.0131  1.2767 -0.4131
 9364TIP3   OH228013   6.818   5.539   2.297  0.1820 -0.0084  0.4712
 9364TIP3    H128014   6.803   5.486   2.375 -0.1281  1.5469  1.5010
 9364TIP3    H228015   6.732   5.550   2.258  0.2741 -0.4050  0.1482
 9365TIP3   OH228016   5.455   8.165   2.167 -0.2927  0.2989 -0.3300
 9365TIP3    H128017   5.399   8.122   2.102 -0.0648  0.9122 -0.9545
 9365TIP3    H228018   5.525   8.205   2.115  0.0262  0.6048  0.3221
 9366TIP3   OH228019   5.654   6.792   4.517  0.1811  0.6960  0.5152
 9366TIP3    H128020   5.588   6.856   4.543  0.2452 -0.0883  2.8434
 9366TIP3    H228021   5.604   6.715   4.491  0.0844 -0.0123  2.5860
 9367TIP3   OH228022   7.479   5.624   1.920  0.2776  0.1207  0.4003
 9367TIP3    H128023   7.446   5.602   1.833 -0.4287  0.1313  0.6593
 9367TIP3    H228024   7.524   5.545   1.950 -1.3140 -0.6250  0.8914
 9368TIP3   OH228025   7.811   2.487   5.876  0.2699  0.3681  0.0259
 9368TIP3    H128026   7.783   2.566   5.831  1.3482 -0.3724 -2.0838
 9368TIP3    H228027   7.761   2.416   5.835  2.1153 -0.4665 -0.9686
 9369TIP3   OH228028   6.619   6.297   4.139  0.2895 -0.1993  0.1716
 9369TIP3    H128029   6.700   6.342   4.116 -0.6358  1.4384 -0.0199
 9369TIP3    H228030   6.569   6.362   4.189 -1.8919 -0.2963 -1.7061
 9370TIP3   OH228031   5.867   4.699   1.613  0.8595 -0.0032 -0.1722
 9370TIP3    H128032   5.812   4.623   1.634  0.8136  0.3233  0.9480
 9370TIP3    H228033   5.805   4.767   1.587  0.8280 -0.0222 -0.1463
 9371TIP3   OH228034   7.177   5.208   6.384  0.0836 -0.8456 -0.1879
 9371TIP3    H128035   7.186   5.253   6.468 -1.5504 -1.0723  0.1411
 9371TIP3    H228036   7.192   5.116   6.405 -1.1118 -1.0050  0.0332
 9372TIP3   OH228037   8.393   7.599   4.390 -0.1927 -0.0985 -0.1915
 9372TIP3    H128038   8.308   7.608   4.348 -0.4362  0.8821  0.4519
 9372TIP3    H228039   8.443   7.540   4.334 -1.7104 -1.6910  0.0778
 9373TIP3   OH228040   6.559   6.653   5.450 -0.1026 -0.0727  0.1785
 9373TIP3    H128041   6.629   6.701   5.495 -0.3597  2.5079 -1.9326
 9373TIP3    H228042   6.606   6.589   5.397  0.3563 -1.1177  1.7648
 9374TIP3   OH228043   7.990   8.044   6.815  0.4750  0.6049  0.1191
 9374TIP3    H128044   8.034   8.027   6.899 -0.7300 -0.6311  0.5261
 9374TIP3    H228045   7.959   8.134   6.822 -0.7826  0.0923  1.5763
 9375TIP3   OH228046   4.740   5.975   5.858  0.2600  0.1237 -0.1498
 9375TIP3    H128047   4.768   5.931   5.778  3.0763  0.3061  0.6231
 9375TIP3    H228048   4.753   6.068   5.840  1.3146  0.1435  0.5987
 9376TIP3   OH228049   7.032   1.635   2.294  0.0529  0.1217  0.1027
 9376TIP3    H128050   7.085   1.578   2.238  0.9701  1.4786 -0.4625
 9376TIP3    H228051   6.956   1.582   2.317  1.6137 -1.8899  0.9287
 9377TIP3   OH228052   7.931   2.863   4.125  0.2068 -0.4216 -0.5268
 9377TIP3    H128053   8.010   2.814   4.148  0.8715  1.3464  1.2323
 9377TIP3    H228054   7.888   2.879   4.209 -1.4153 -0.3149 -1.3416
 9378TIP3   OH228055   3.147   4.701   0.063 -0.4269  0.0355  0.1890
 9378TIP3    H128056   3.052   4.705   0.053 -0.5959 -1.5480  0.7856
 9378TIP3    H228057   3.160   4.685   0.157  0.0771 -4.8092 -0.4125
 9379TIP3   OH228058   5.511   7.753   6.105  0.3908 -1.1386 -0.5248
 9379TIP3    H128059   5.453   7.761   6.181 -0.5408  0.2127 -1.3405
 9379TIP3    H228060   5.553   7.668   6.116  0.8828 -0.6553  1.9244
 9380TIP3   OH228061   8.681   6.725   0.591  0.5307 -0.1866  0.4481
 9380TIP3    H128062   8.746   6.687   0.649  0.5726  1.6301  1.6585
 9380TIP3    H228063   8.612   6.758   0.649 -0.1534  0.3624 -0.6337
 9381TIP3   OH228064   5.743   1.255   1.791  0.2322 -0.1072 -0.6158
 9381TIP3    H128065   5.769   1.344   1.817 -0.6338 -0.2067  0.6932
 9381TIP3    H228066   5.780   1.199   1.859 -1.8111 -0.4161  0.3063
 9382TIP3   OH228067   6.200   8.101   3.756  0.1209  0.5693 -0.3248
 9382TIP3    H128068   6.278   8.079   3.807 -0.3941 -0.4476  0.0561
 9382TIP3    H228069   6.222   8.074   3.667  0.6612  1.4410 -0.4611
 9383TIP3   OH228070   6.062   2.384   3.416  0.0475  0.1141 -0.4507
 9383TIP3    H128071   6.088   2.474   3.440  0.9276 -0.3871  0.5700
 9383TIP3    H228072   5.979   2.371   3.463 -0.0339  0.3603 -0.5208
 9384TIP3   OH228073   8.372   1.578   6.539 -0.4436 -0.3757  0.0340
 9384TIP3    H128074   8.428   1.502   6.526  1.2840  0.9965 -1.1462
 9384TIP3    H228075   8.339   1.599   6.451 -0.0229  0.8119  0.1336
 9385TIP3   OH228076   8.463   7.282   2.434 -0.1144 -0.3031  0.1487
 9385TIP3    H128077   8.504   7.265   2.519  1.0508  0.3516 -0.2562
 9385TIP3    H228078   8.485   7.205   2.381 -0.4259 -0.4908  0.2907
 9386TIP3   OH228079   7.258   6.527   3.762 -0.0843 -0.8330 -0.1124
 9386TIP3    H128080   7.173   6.485   3.777 -0.1684 -1.0392 -1.0860
 9386TIP3    H228081   7.321   6.457   3.776  0.0213 -0.4324  1.6455
 9387TIP3   OH228082   5.734   2.433   5.664 -0.3309  0.2135 -0.0720
 9387TIP3    H128083   5.681   2.507   5.692  0.4694  0.2842  1.3038
 9387TIP3    H228084   5.741   2.377   5.741  0.6003 -0.3853 -0.5645
 9388TIP3   OH228085   6.550   1.295   5.255  0.6255 -0.2122  0.3776
 9388TIP3    H128086   6.479   1.230   5.261 -1.7200  2.0184 -0.8682
 9388TIP3    H228087   6.541   1.347   5.335 -1.3145  1.9472 -1.0934
 9389TIP3   OH228088   2.280   7.074   5.337  0.0760  0.1357  0.3669
 9389TIP3    H128089   2.371   7.054   5.359  0.1810  0.3588  0.1445
 9389TIP3    H228090   2.274   7.169   5.345 -0.6474 -0.0326  2.2410
 9390TIP3   OH228091   1.490   3.057   3.650  0.0958  0.3787 -0.1831
 9390TIP3    H128092   1.556   3.008   3.602  0.9498  0.7263  0.5892
 9390TIP3    H228093   1.420   3.073   3.587  0.4930 -0.5029 -0.8568
 9391TIP3   OH228094   7.521   3.793   4.619 -0.0907 -0.1132  0.3951
 9391TIP3    H128095   7.565   3.711   4.641  0.7884  0.3050  0.2240
 9391TIP3    H228096   7.567   3.825   4.542 -0.4474  0.5359  0.4474
 9392TIP3   OH228097   7.880   3.103   0.634 -0.1686  0.2621  0.1871
 9392TIP3    H128098   7.905   3.193   0.610 -0.7442  0.5110  0.4960
 9392TIP3    H228099   7.910   3.050   0.560 -0.1742  0.7626 -0.1882
 9393TIP3   OH228100   8.590   5.109   1.064  0.0102  0.2242 -0.2460
 9393TIP3    H128101   8.661   5.138   1.120  1.8730 -1.3544 -1.6675
 9393TIP3    H228102   8.614   5.139   0.976 -2.2292  1.5908 -0.4949
 9394TIP3   OH228103   4.730   6.620   5.949  0.4058 -0.6151 -0.3071
 9394TIP3    H128104   4.684   6.566   6.012  0.2444 -0.0248  0.0933
 9394TIP3    H228105   4.820   6.590   5.951  0.3854 -0.6419  0.1531
 9395TIP3   OH228106   8.080   0.086   2.729  0.5190 -0.4674 -0.1292
 9395TIP3    H128107   8.003   0.030   2.714  0.2533 -0.0779 -0.2223
 9395TIP3    H228108   8.126   0.043   2.801  0.4357 -0.9306 -0.3466
 9396TIP3   OH228109   0.358   5.935   4.157  0.6316 -0.8887  0.3138
 9396TIP3    H128110   0.377   5.855   4.207  0.8268 -1.1984 -0.2369
 9396TIP3    H228111   0.444   5.964   4.126  0.2964 -2.4938 -2.4915
 9397TIP3   OH228112   4.314   3.314   0.088  0.2090 -0.8550  0.2005
 9397TIP3    H128113   4.260   3.381   0.047 -0.4440 -2.0229 -0.9567
 9397TIP3    H228114   4.361   3.359   0.158 -0.0609  0.8230 -0.6577
 9398TIP3   OH228115   8.096   1.498   3.465 -0.4002 -0.2712 -0.1221
 9398TIP3    H128116   8.051   1.556   3.404 -0.0340 -0.0261 -0.1614
 9398TIP3    H228117   8.029   1.474   3.529 -0.3684  0.8532  0.3674
 9399TIP3   OH228118   0.157   5.753   3.549  0.7163  0.5374 -0.0269
 9399TIP3    H128119   0.238   5.801   3.570  0.4150  0.5695  1.1210
 9399TIP3    H228120   0.162   5.674   3.603  0.2616  0.2483 -0.4104
 9400TIP3   OH228121   7.636   3.528   4.556  0.1359  0.3763 -0.1551
 9400TIP3    H128122   7.543   3.538   4.535 -0.1117  0.1669  0.8259
 9400TIP3    H228123   7.667   3.463   4.492 -1.0364 -1.6459  1.2129
 9401TIP3   OH228124   7.158   6.181   0.415 -0.0197  0.1477 -0.6459
 9401TIP3    H128125   7.088   6.235   0.450  0.0244  1.0805 -1.9537
 9401TIP3    H228126   7.236   6.237   0.416  0.5452 -0.6070  0.0107
 9402TIP3   OH228127   5.931   0.433   1.706 -0.0146  0.4151  0.4557
 9402TIP3    H128128   6.001   0.469   1.761  0.3208 -0.4844  0.6328
 9402TIP3    H228129   5.906   0.351   1.749 -1.2002  0.7281  0.4067
 9403TIP3   OH228130   2.438   4.824   4.435 -0.1336  0.3389 -0.2072
 9403TIP3    H128131   2.492   4.760   4.481 -1.0313 -1.2905 -1.3484
 9403TIP3    H228132   2.486   4.843   4.355  0.3027  1.4001  0.2897
 9404TIP3   OH228133   2.264   2.198   2.741 -0.2316 -0.6117  0.3613
 9404TIP3    H128134   2.179   2.193   2.784 -0.7077 -0.6742 -0.5570
 9404TIP3    H228135   2.253   2.149   2.660  0.3853  0.2070 -0.2395
 9405TIP3   OH228136   0.641   6.227   0.332 -0.1321  0.0277 -0.6622
 9405TIP3    H128137   0.700   6.177   0.389  2.2895  2.7797 -0.5120
 9405TIP3    H228138   0.629   6.311   0.378 -3.5109 -0.0403 -1.1683
 9406TIP3   OH228139   0.126   6.003   1.438 -0.0256  0.3363  0.3764
 9406TIP3    H128140   0.134   5.909   1.420  0.4832  0.3042  0.7555
 9406TIP3    H228141   0.099   6.008   1.529 -0.4613  0.5528  0.2375
 9407TIP3   OH228142   3.579   6.482   5.856 -0.0952  0.0733  0.3325
 9407TIP3    H128143   3.537   6.401   5.828  0.5654 -0.3910  0.6658
 9407TIP3    H228144   3.506   6.543   5.871 -0.6535 -0.7524  1.0272
 9408TIP3   OH228145   5.282   1.370   7.034  0.6898  0.5596  0.2868
 9408TIP3    H128146   5.189   1.362   7.054 -0.1783 -1.4906 -3.5868
 9408TIP3    H228147   5.292   1.459   7.001  0.1002  0.8169  0.7847
 9409TIP3   OH228148   5.608   4.248   2.041  0.2578 -0.3812 -0.0238
 9409TIP3    H128149   5.669   4.191   1.994 -0.8215 -2.1147  0.5771
 9409TIP3    H228150   5.577   4.194   2.115 -0.1004  1.3305  1.1300
 9410TIP3   OH228151   6.798   0.428   6.759 -0.2868  0.7095 -0.3542
 9410TIP3    H128152   6.880   0.447   6.806 -0.1851  2.1678 -1.0640
 9410TIP3    H228153   6.729   0.447   6.823 -0.1040 -0.8423  0.3562
 9411TIP3   OH228154   7.732   7.216   1.470 -0.2409 -0.6107 -0.3716
 9411TIP3    H128155   7.767   7.299   1.437 -0.2215 -0.4000  0.1787
 9411TIP3    H228156   7.637   7.227   1.467 -0.2513 -0.7721 -0.8058
 9412TIP3   OH228157   5.682   1.376   2.996  0.2914 -0.1106  0.0830
 9412TIP3    H128158   5.723   1.315   2.936  0.6860 -0.6582  0.8850
 9412TIP3    H228159   5.590   1.350   2.999  0.6523 -1.3434  1.1982
 9413TIP3   OH228160   7.106   2.896   4.375 -0.0830 -0.1972  0.1856
 9413TIP3    H128161   7.086   2.942   4.293  0.2565 -0.6780 -0.1744
 9413TIP3    H228162   7.025   2.901   4.425 -0.2193  0.3195 -0.0736
 9414TIP3   OH228163   0.385   6.579   2.220  0.2463 -0.0633 -0.0380
 9414TIP3    H128164   0.476   6.555   2.239  0.2465  0.3582  0.5234
 9414TIP3    H228165   0.390   6.632   2.140  0.8930  2.5965  1.6400
 9415TIP3   OH228166   2.172   4.888   4.413 -0.3167 -0.2554 -0.3698
 9415TIP3    H128167   2.257   4.850   4.433  0.4277  1.2564 -0.4778
 9415TIP3    H228168   2.109   4.822   4.441  0.8161 -0.5650  1.7332
 9416TIP3   OH228169   2.281   0.299   4.871 -0.4079  0.2535 -0.2430
 9416TIP3    H128170   2.210   0.235   4.876 -1.5546  1.4881 -0.2301
 9416TIP3    H228171   2.239   0.380   4.841  0.8241  1.2698  0.6523
 9417TIP3   OH228172   5.729   1.672   2.684 -0.2601  0.0057  0.6305
 9417TIP3    H128173   5.681   1.608   2.632 -0.4162 -0.1769  1.0044
 9417TIP3    H228174   5.672   1.692   2.758 -0.7351  1.4658 -0.0915
 9418TIP3   OH228175   4.573   3.084   5.627  0.2052  0.2165 -0.1699
 9418TIP3    H128176   4.520   3.055   5.701  1.5186  2.3956  1.7640
 9418TIP3    H228177   4.662   3.054   5.647  0.2345 -1.2781 -2.1550
 9419TIP3   OH228178   6.866   0.457   3.654 -0.3954  0.1989  0.1505
 9419TIP3    H128179   6.861   0.473   3.560 -0.2919  1.7625  0.3754
 9419TIP3    H228180   6.956   0.480   3.678 -0.4039 -0.2361  0.6149
 9420TIP3   OH228181   5.824   2.167   6.151  0.2953  0.5366  0.0946
 9420TIP3    H128182   5.805   2.184   6.243 -0.1815  0.1818  0.0703
 9420TIP3    H228183   5.915   2.192   6.139  0.9511 -1.2122  1.1215
 9421TIP3   OH228184   4.867   7.498   3.535 -0.0656  0.1682 -0.1000
 9421TIP3    H128185   4.835   7.460   3.616 -1.7692  1.9950  0.1611
 9421TIP3    H228186   4.810   7.461   3.467 -0.2074  0.4539 -0.1388
 9422TIP3   OH228187   7.337   4.232   5.288  0.3572 -0.0228 -0.1598
 9422TIP3    H128188   7.401   4.303   5.286  1.7059 -1.1804  0.3164
 9422TIP3    H228189   7.375   4.164   5.232 -0.6982 -0.5582 -0.2510
 9423TIP3   OH228190   5.246   3.034   2.831  0.5683  0.0944 -0.0629
 9423TIP3    H128191   5.180   3.081   2.780  0.3739 -1.5351 -1.4022
 9423TIP3    H228192   5.215   3.039   2.921 -1.2921 -0.4397 -0.6251
 9424TIP3   OH228193   5.120   3.297   0.938 -0.2523  0.0530 -0.0868
 9424TIP3    H128194   5.060   3.229   0.968 -0.1030  0.9109  2.4309
 9424TIP3    H228195   5.069   3.350   0.877 -1.2419 -0.7054  0.0692
 9425TIP3   OH228196   1.998   1.611   4.713  0.1125 -0.5573  0.2677
 9425TIP3    H128197   2.046   1.642   4.790 -0.6785  0.5399  0.3344
 9425TIP3    H228198   1.933   1.679   4.696 -0.5059 -1.3566 -0.6618
 9426TIP3   OH228199   1.296   0.823   2.201 -0.0560 -0.4538 -0.0177
 9426TIP3    H128200   1.252   0.763   2.261  2.4499 -1.2002  1.2023
 9426TIP3    H228201   1.339   0.767   2.136 -0.5611  0.2246 -0.9678
 9427TIP3   OH228202   1.893   5.570   4.889  0.2021 -0.1230 -0.5532
 9427TIP3    H128203   1.935   5.640   4.840  2.4006 -1.0407 -0.0889
 9427TIP3    H228204   1.960   5.503   4.898 -0.6477 -0.7550  2.1517
 9428TIP3   OH228205   5.517   6.106   5.804  0.0071  0.3139 -0.1471
 9428TIP3    H128206   5.514   6.055   5.723  0.3440 -0.0541  0.0689
 9428TIP3    H228207   5.604   6.090   5.839 -0.6510 -0.7886  1.0952
 9429TIP3   OH228208   1.332   6.591   6.990 -0.4952 -0.2140  0.3532
 9429TIP3    H128209   1.347   6.542   7.071 -1.1397 -1.1916 -0.0950
 9429TIP3    H228210   1.413   6.640   6.975 -0.1967 -0.3915  1.3288
 9430TIP3   OH228211   3.450   6.471   1.421  0.4240  0.3366  0.6505
 9430TIP3    H128212   3.502   6.534   1.372  1.9220 -0.9829  0.4798
 9430TIP3    H228213   3.377   6.523   1.457  0.7404  1.8272 -0.7572
 9431TIP3   OH228214   5.283   3.160   4.528 -0.3870  0.3695 -0.3470
 9431TIP3    H128215   5.271   3.087   4.468  1.0517  0.1167 -0.3445
 9431TIP3    H228216   5.372   3.191   4.512  0.0931  0.1895  1.7593
 9432TIP3   OH228217   4.314   5.052   2.508 -0.2285 -0.2323 -0.0456
 9432TIP3    H128218   4.375   4.984   2.537 -0.9700 -1.1635 -0.6338
 9432TIP3    H228219   4.371   5.125   2.482  0.5134  0.2578  2.6148
 9433TIP3   OH228220   1.689   1.332   6.253 -0.0682  0.2070 -0.4723
 9433TIP3    H128221   1.758   1.396   6.267 -1.1111  1.5955 -1.4157
 9433TIP3    H228222   1.614   1.366   6.301 -0.4854 -0.5817 -0.5508
 9434TIP3   OH228223   5.952   0.598   0.311  0.1490  0.5015  0.4721
 9434TIP3    H128224   5.861   0.611   0.283  0.8998 -0.2175 -2.7428
 9434TIP3    H228225   5.968   0.504   0.299  2.0560  1.0227 -1.9592
 9435TIP3   OH228226   6.329   6.423   3.660 -0.5426  0.3996  0.4281
 9435TIP3    H128227   6.378   6.439   3.741  1.3299 -1.7465 -0.1802
 9435TIP3    H228228   6.346   6.500   3.606 -1.0275  1.4162  1.6654
 9436TIP3   OH228229   3.799   0.375   2.907  0.4134 -0.0987 -0.0308
 9436TIP3    H128230   3.801   0.284   2.877  1.3986 -0.0401 -0.1649
 9436TIP3    H228231   3.714   0.408   2.879 -0.0142 -1.0210  0.1524
 9437TIP3   OH228232   1.823   0.055   4.924  0.3489 -0.5423 -0.1057
 9437TIP3    H128233   1.795   0.132   4.973 -1.7953 -0.4913 -1.2758
 9437TIP3    H228234   1.746   0.031   4.872  2.1938 -1.0865 -2.7905
 9438TIP3   OH228235   6.728   4.484   5.231  0.0296  0.2589 -0.3724
 9438TIP3    H128236   6.650   4.540   5.227  0.3252  0.8311  1.2103
 9438TIP3    H228237   6.797   4.540   5.266  1.3541 -0.0772 -2.2934
 9439TIP3   OH228238   6.732   7.624   1.247 -0.4953 -0.5075 -0.0235
 9439TIP3    H128239   6.823   7.650   1.238 -0.6881  0.2675  0.1526
 9439TIP3    H228240   6.735   7.535   1.280  0.2051 -0.1174  1.0114
 9440TIP3   OH228241   3.865   3.463   0.658  0.1673 -0.2359 -0.3542
 9440TIP3    H128242   3.807   3.451   0.583  0.9864 -1.0591 -0.8863
 9440TIP3    H228243   3.818   3.522   0.717 -1.6189 -1.6217 -0.3119
 9441TIP3   OH228244   0.669   3.674   2.614 -0.1579  0.4062  0.3894
 9441TIP3    H128245   0.641   3.756   2.653 -0.3565  0.0847  0.9265
 9441TIP3    H228246   0.592   3.641   2.569  0.9622  2.6599 -3.6961
 9442TIP3   OH228247   3.549   5.608   2.431 -0.2405 -0.2310  0.1977
 9442TIP3    H128248   3.567   5.701   2.417 -0.3005 -0.3285 -0.5507
 9442TIP3    H228249   3.455   5.599   2.414 -0.2085 -0.4528  0.1365
 9443TIP3   OH228250   0.804   4.568   1.942  0.3799  0.0277  0.1854
 9443TIP3    H128251   0.788   4.590   1.850  2.0161  2.1816  0.3285
 9443TIP3    H228252   0.851   4.485   1.939 -0.4690 -0.4368 -0.8453
 9444TIP3   OH228253   0.555   2.739   6.023 -0.3944  0.6460 -0.2559
 9444TIP3    H128254   0.460   2.743   6.006 -0.5275  0.6679  0.4814
 9444TIP3    H228255   0.583   2.830   6.024 -0.5931  0.7005  0.7736
 9445TIP3   OH228256   2.764   0.140   5.779  0.4689 -0.0269 -0.2160
 9445TIP3    H128257   2.740   0.104   5.694  1.9018  0.0746 -0.7003
 9445TIP3    H228258   2.725   0.080   5.843 -1.8860  0.7236 -0.8767
 9446TIP3   OH228259   0.075   1.503   3.256  0.1126 -0.0898 -0.5861
 9446TIP3    H128260   0.088   1.538   3.344 -1.3573  1.5015 -0.9538
 9446TIP3    H228261   0.163   1.498   3.219  0.6944 -0.2222  0.7514
 9447TIP3   OH228262   5.864   6.925   5.483 -0.3063  0.3632  0.2976
 9447TIP3    H128263   5.771   6.919   5.460  0.1404 -3.0839 -1.1524
 9447TIP3    H228264   5.868   6.895   5.574 -0.6120  0.9604  0.5172
 9448TIP3   OH228265   3.255   7.893   5.991  0.4215 -0.0143  0.2599
 9448TIP3    H128266   3.182   7.897   5.929  0.4448 -0.2157  0.2191
 9448TIP3    H228267   3.312   7.826   5.956 -0.9548 -2.2430  1.9905
 9449TIP3   OH228268   0.178   3.682   5.214  0.2219 -0.3828  0.0810
 9449TIP3    H128269   0.111   3.734   5.168  0.5034  0.6519  0.8094
 9449TIP3    H228270   0.251   3.677   5.152  0.2500  0.2314  0.0587
 9450TIP3   OH228271   2.166   6.758   1.096  0.0339  0.2728  0.2447
 9450TIP3    H128272   2.166   6.674   1.050 -1.3143  0.2957  0.1564
 9450TIP3    H228273   2.150   6.823   1.028  2.9222  0.8464  0.0018
 9451TIP3   OH228274   8.555   7.539   2.406 -0.2302 -0.4154 -0.1469
 9451TIP3    H128275   8.476   7.577   2.444 -0.4100 -0.7740 -0.1557
 9451TIP3    H228276   8.542   7.444   2.414 -0.1864 -0.4904 -0.9310
 9452TIP3   OH228277   5.470   1.484   2.836  0.3790 -0.3207 -0.2203
 9452TIP3    H128278   5.405   1.549   2.809 -1.9861 -0.9400  3.3893
 9452TIP3    H228279   5.527   1.531   2.897  1.8666 -0.4597 -1.4322
 9453TIP3   OH228280   6.546   1.097   0.414 -0.5205  0.8247  0.2765
 9453TIP3    H128281   6.552   1.042   0.492 -0.1516 -1.0274 -0.9854
 9453TIP3    H228282   6.602   1.172   0.432 -0.6554  0.5720  1.8734
 9454TIP3   OH228283   8.192   5.070   3.046  0.5446  0.4451 -0.0963
 9454TIP3    H128284   8.111   5.020   3.059  1.6818 -1.4027  0.1532
 9454TIP3    H228285   8.171   5.130   2.974 -0.7100 -0.8021 -0.8249
 9455TIP3   OH228286   5.246   7.672   0.316 -0.6120 -0.1136 -0.3003
 9455TIP3    H128287   5.156   7.639   0.316 -1.8395  2.8413  1.1518
 9455TIP3    H228288   5.283   7.640   0.399 -0.8021 -0.1776 -0.2400
 9456TIP3   OH228289   3.460   1.301   4.750  0.6167 -0.2183 -0.3022
 9456TIP3    H128290   3.520   1.243   4.704 -0.2877 -0.7388 -0.8545
 9456TIP3    H228291   3.455   1.379   4.694  0.8867 -0.1111 -0.1796
 9457TIP3   OH228292   2.323   6.210   6.828  0.0026  0.1686 -0.2081
 9457TIP3    H128293   2.316   6.181   6.919  1.0531  0.1776 -0.1152
 9457TIP3    H228294   2.320   6.306   6.832 -0.8952  0.1520 -0.2799
 9458TIP3   OH228295   7.292   1.265   2.353 -0.1270 -0.1628 -0.0855
 9458TIP3    H128296   7.202   1.282   2.327 -0.1717 -0.4537 -0.1252
 9458TIP3    H228297   7.287   1.186   2.407  0.2242 -0.7790 -0.9172
 9459TIP3   OH228298   3.711   0.324   0.777  0.2444  0.5160  0.3066
 9459TIP3    H128299   3.728   0.267   0.852  2.7514  0.6481 -0.0613
 9459TIP3    H228300   3.688   0.408   0.816 -0.6987  0.0103  0.8815
 9460TIP3   OH228301   8.647  -0.012   5.389 -0.3202 -0.5041  0.1383
 9460TIP3    H128302   8.647  -0.033   5.482  0.5673 -0.6319  0.1139
 9460TIP3    H228303   8.683   0.076   5.384  0.3059 -0.7677 -0.1316
 9461TIP3   OH228304   2.526   2.896   3.443  0.7670  0.7980  0.3034
 9461TIP3    H128305   2.582   2.845   3.501 -0.3609  0.8864  1.5205
 9461TIP3    H228306   2.586   2.934   3.379  1.7275 -1.3945 -0.1758
 9462TIP3   OH228307   6.035   7.222   4.356 -0.1922 -0.2788 -0.1422
 9462TIP3    H128308   6.115   7.274   4.366  0.3913 -0.6983 -2.1715
 9462TIP3    H228309   5.996   7.254   4.275 -1.1611 -1.3000 -0.1015
 9463TIP3   OH228310   5.242   0.951   6.572  0.1583  0.0515  0.0956
 9463TIP3    H128311   5.196   0.926   6.652 -1.1612 -1.0092 -0.9286
 9463TIP3    H228312   5.326   0.985   6.601 -1.0848  1.6370  2.0514
 9464TIP3   OH228313   7.481   0.285   2.067  0.2197 -0.3725  0.2698
 9464TIP3    H128314   7.467   0.379   2.072  0.7679 -0.2910  0.3712
 9464TIP3    H228315   7.563   0.276   2.018 -0.7370 -0.8575 -1.3408
 9465TIP3   OH228316   6.457   4.378   1.128 -0.3851  0.1686 -0.0448
 9465TIP3    H128317   6.505   4.451   1.089  0.9871 -0.1294  1.0091
 9465TIP3    H228318   6.368   4.412   1.140 -0.0035  1.3507 -0.3847
 9466TIP3   OH228319   5.729   4.549   2.311  0.7924  0.2181 -0.1207
 9466TIP3    H128320   5.767   4.462   2.317  2.1956  0.7211 -1.1767
 9466TIP3    H228321   5.672   4.545   2.233 -1.0655 -0.3990  1.1920
 9467TIP3   OH228322   5.105   3.158   2.587  0.2220 -0.4114  0.0627
 9467TIP3    H128323   5.064   3.242   2.606  0.9688  0.4274 -1.8206
 9467TIP3    H228324   5.038   3.109   2.539 -0.6430 -1.4419  2.1380
 9468TIP3   OH228325   1.059   3.458   1.616 -0.4293  0.1111 -0.2538
 9468TIP3    H128326   0.991   3.447   1.550  0.3946 -0.5246 -1.0197
 9468TIP3    H228327   1.066   3.553   1.627 -0.3887  0.2379 -1.2819
 9469TIP3   OH228328   1.190   6.807   1.415 -0.2558 -0.5882  0.2559
 9469TIP3    H128329   1.228   6.719   1.407 -1.2470 -0.8867 -1.6204
 9469TIP3    H228330   1.253   6.865   1.373 -0.9109 -0.8248 -1.1095
 9470TIP3   OH228331   1.849   6.952   0.402 -0.0411  0.1292 -0.2517
 9470TIP3    H128332   1.870   6.984   0.489  2.1351 -0.4070 -0.5217
 9470TIP3    H228333   1.863   6.857   0.408  0.7177  0.1648 -1.3341
 9471TIP3   OH228334   0.667   6.571   2.288  0.1553  0.2245  0.3752
 9471TIP3    H128335   0.750   6.551   2.245 -0.7339 -4.0575  0.2429
 9471TIP3    H228336   0.668   6.666   2.298  4.2246  0.5562 -1.2251
 9472TIP3   OH228337   8.550   6.493   3.582  0.4797 -0.1756 -0.3784
 9472TIP3    H128338   8.644   6.502   3.595  0.7224 -0.7103 -1.6514
 9472TIP3    H228339   8.535   6.399   3.580 -0.2203 -0.1021  0.6141
 9473TIP3   OH228340   2.678   3.248   4.795  0.5970 -0.3449  0.3526
 9473TIP3    H128341   2.620   3.226   4.722  0.1037 -1.6259  1.0978
 9473TIP3    H228342   2.706   3.163   4.829  1.6264  0.2480  1.0266
 9474TIP3   OH228343   1.219   2.768   1.753 -0.5315  0.1431 -0.3195
 9474TIP3    H128344   1.262   2.834   1.808  0.0424 -0.0607 -0.5218
 9474TIP3    H228345   1.246   2.790   1.664 -0.3599 -0.3578 -0.3882
 9475TIP3   OH228346   6.820   6.793   3.494 -0.0087 -0.4924  0.7020
 9475TIP3    H128347   6.879   6.771   3.566 -1.3276 -0.1037  1.9356
 9475TIP3    H228348   6.755   6.853   3.532 -0.9992 -0.6250 -0.6844
 9476TIP3   OH228349   2.294   3.094   0.796 -0.7729  0.0103  0.0935
 9476TIP3    H128350   2.347   3.152   0.851 -0.9258  1.0217 -0.7790
 9476TIP3    H228351   2.348   3.016   0.784 -0.1370  0.3782  0.4775
 9477TIP3   OH228352   8.192   2.018   3.964  0.2471  0.0368 -0.2715
 9477TIP3    H128353   8.191   1.984   3.875 -0.6948 -0.0894 -0.2185
 9477TIP3    H228354   8.135   2.095   3.962  1.7746  1.2127 -0.2162
 9478TIP3   OH228355   5.391   0.538   6.324  0.1461 -0.1384 -0.3484
 9478TIP3    H128356   5.443   0.566   6.399  2.2969  0.8819 -2.1112
 9478TIP3    H228357   5.320   0.486   6.363  0.9840  0.5611  2.3796
 9479TIP3   OH228358   4.509   3.176   4.119  0.4374  0.3027  0.0671
 9479TIP3    H128359   4.534   3.258   4.077  0.5970  0.3286  0.2131
 9479TIP3    H228360   4.413   3.175   4.113  0.5058 -0.3103 -1.4595
 9480TIP3   OH228361   5.724   1.137   2.549 -0.2415  0.2166  0.7185
 9480TIP3    H128362   5.815   1.124   2.576  0.4826  1.3434 -0.9553
 9480TIP3    H228363   5.700   1.056   2.505 -0.1781 -0.2253  1.4938
 9481TIP3   OH228364   8.179   7.938   1.097 -0.5673  0.5463  0.4160
 9481TIP3    H128365   8.233   7.995   1.043 -0.4175 -0.8105 -0.9242
 9481TIP3    H228366   8.234   7.862   1.114 -0.9550  0.5322  1.7268
 9482TIP3   OH228367   4.202   7.315   3.336  0.1904 -0.2887 -0.2506
 9482TIP3    H128368   4.134   7.329   3.401 -0.7304 -1.4685 -0.9170
 9482TIP3    H228369   4.218   7.401   3.298 -0.2756  0.1565  0.5440
 9483TIP3   OH228370   0.805   3.512   2.838 -0.1892 -0.3084 -0.2226
 9483TIP3    H128371   0.735   3.566   2.801  0.2314  1.2125  1.0518
 9483TIP3    H228372   0.880   3.527   2.781  0.1205  1.0608  0.5030
 9484TIP3   OH228373   7.239   2.826   2.606  0.1764  0.5556  0.1023
 9484TIP3    H128374   7.266   2.814   2.697 -1.6831 -2.0270  0.4345
 9484TIP3    H228375   7.147   2.853   2.612 -0.5678 -1.5196 -0.9374
 9485TIP3   OH228376   0.808   4.522   6.076  0.5517 -0.0614 -0.2227
 9485TIP3    H128377   0.833   4.615   6.071  1.2242  0.0506  3.1656
 9485TIP3    H228378   0.876   4.482   6.130  0.1022 -2.5328 -1.3622
 9486TIP3   OH228379   3.158   4.785   6.211  0.0156 -0.5192  0.5544
 9486TIP3    H128380   3.251   4.778   6.194  0.1461 -0.0218  1.0159
 9486TIP3    H228381   3.143   4.730   6.288 -0.2555 -1.3953 -0.1197
 9487TIP3   OH228382   0.174   8.012   7.078  0.1815  0.5042  0.7017
 9487TIP3    H128383   0.092   8.037   7.036  0.5538  0.4723 -0.0544
 9487TIP3    H228384   0.188   8.079   7.145  0.9799  2.1459 -1.0456
 9488TIP3   OH228385   4.974   3.414   2.640  0.1553 -0.3179 -0.5591
 9488TIP3    H128386   4.898   3.462   2.674 -0.2827 -0.9214 -0.6750
 9488TIP3    H228387   5.012   3.473   2.575 -1.1087 -0.6223 -1.6003
 9489TIP3   OH228388   3.767   7.065   3.966  0.1604 -0.8662  0.3330
 9489TIP3    H128389   3.679   7.032   3.988 -1.0566  1.8479 -0.0005
 9489TIP3    H228390   3.775   7.145   4.018  1.2132  0.5034 -1.8181
 9490TIP3   OH228391   2.116   6.752   5.116  0.1260 -0.2660  0.4888
 9490TIP3    H128392   2.149   6.697   5.187 -0.8362  0.1386  1.2763
 9490TIP3    H228393   2.177   6.738   5.044  0.9217 -0.9634  1.2783
 9491TIP3   OH228394   7.897   6.968   3.062 -0.0660  0.0553  0.4708
 9491TIP3    H128395   7.820   7.023   3.076 -1.5062 -0.9459 -2.5731
 9491TIP3    H228396   7.908   6.967   2.967  2.6669 -1.2994  0.6994
 9492TIP3   OH228397   8.478   5.028   2.513 -0.0319 -0.0251  0.4029
 9492TIP3    H128398   8.458   5.005   2.603  1.4406 -0.8420  0.5576
 9492TIP3    H228399   8.574   5.024   2.508 -0.1276 -2.0808 -1.7013
 9493TIP3   OH228400   1.713   3.320   0.108  0.2770 -0.1428  0.3377
 9493TIP3    H128401   1.790   3.319   0.165  0.0850  0.7885  0.6421
 9493TIP3    H228402   1.700   3.229   0.083  1.6414 -0.2722  0.0484
 9494TIP3   OH228403   0.843   2.030   2.323  0.2068  0.1760 -0.2670
 9494TIP3    H128404   0.771   2.075   2.280 -0.6893 -0.5037  0.4514
 9494TIP3    H228405   0.903   2.006   2.253 -0.9727 -0.4786 -1.0893
 9495TIP3   OH228406   7.669   3.473   6.617 -0.2796  0.2333 -0.2761
 9495TIP3    H128407   7.694   3.418   6.692 -1.5210  1.6969  1.3094
 9495TIP3    H228408   7.628   3.550   6.657  1.0467  2.1634 -2.4144
 9496TIP3   OH228409   5.137   6.466   0.119 -0.0886  0.3688 -0.3672
 9496TIP3    H128410   5.204   6.402   0.139 -0.5960  0.6994  3.1701
 9496TIP3    H228411   5.181   6.551   0.128 -0.1180  0.5992 -2.0472
 9497TIP3   OH228412   1.361   7.107   0.159 -0.1143 -0.0282  0.3642
 9497TIP3    H128413   1.435   7.066   0.204  0.2959  0.4187  0.1073
 9497TIP3    H228414   1.342   7.048   0.086  1.6503  1.0955 -1.0933
 9498TIP3   OH228415   2.882   2.726   4.891 -0.4024 -0.5585  0.0937
 9498TIP3    H128416   2.807   2.680   4.853 -0.9450  0.9404 -0.7598
 9498TIP3    H228417   2.957   2.698   4.838 -0.2773 -2.2669  1.1184
 9499TIP3   OH228418   4.817   5.236   6.815 -0.1391 -0.2177 -0.1153
 9499TIP3    H128419   4.843   5.241   6.907  0.2090  1.1867 -0.2572
 9499TIP3    H228420   4.891   5.194   6.771  0.0326 -0.1752  0.1310
 9500TIP3   OH228421   1.263   6.002   5.840 -0.1851 -0.0558  0.1362
 9500TIP3    H128422   1.179   6.026   5.877  0.2060 -0.8432  1.6206
 9500TIP3    H228423   1.316   5.974   5.915  1.0242 -0.6426 -0.8838
 9501TIP3   OH228424   1.067   7.551   4.779  0.4175  0.7191  0.0054
 9501TIP3    H128425   1.082   7.549   4.684  0.0391 -0.4029 -0.0491
 9501TIP3    H228426   1.107   7.470   4.810 -1.7099 -0.2308  0.4363
 9502TIP3   OH228427   4.098   7.230   5.138  0.7075  0.0848 -0.5104
 9502TIP3    H128428   4.088   7.145   5.095  0.8538 -0.5697  0.6984
 9502TIP3    H228429   4.183   7.225   5.182  1.0936  1.1779 -1.0980
 9503TIP3   OH228430   8.665   3.456   0.628 -0.1078 -0.0659 -0.4052
 9503TIP3    H128431   8.602   3.395   0.666  0.0077  1.0551  1.7272
 9503TIP3    H228432   8.702   3.502   0.703  1.3784  1.1224 -1.7974
 9504TIP3   OH228433   2.581   6.443   4.743  0.1949  0.0141  0.4469
 9504TIP3    H128434   2.614   6.487   4.821  2.9216 -2.1270  0.6337
 9504TIP3    H228435   2.557   6.514   4.684 -0.2144  1.6774  2.4931
 9505TIP3   OH228436   5.903   6.463   6.444 -0.1576  0.1619 -0.0978
 9505TIP3    H128437   5.959   6.456   6.521 -1.7829 -2.6266  0.9859
 9505TIP3    H228438   5.817   6.487   6.479 -0.6266  0.1836 -1.2123
 9506TIP3   OH228439   8.251   4.570   2.796  0.4724  0.0210  0.1393
 9506TIP3    H128440   8.266   4.611   2.711 -0.9971 -1.8259 -1.1136
 9506TIP3    H228441   8.258   4.476   2.778  0.4848 -0.3994  2.1583
 9507TIP3   OH228442   2.968   1.484   6.063 -0.2363  0.1989 -0.5078
 9507TIP3    H128443   3.020   1.404   6.065  0.3986  0.5818 -1.3641
 9507TIP3    H228444   2.877   1.452   6.058 -0.1082 -0.4639  0.8737
 9508TIP3   OH228445   1.504   6.245   3.121 -0.6013 -0.5594  0.6066
 9508TIP3    H128446   1.446   6.321   3.125 -1.3307 -1.0716  0.0565
 9508TIP3    H228447   1.511   6.225   3.028 -0.5427 -1.2649  0.7574
 9509TIP3   OH228448   8.303   5.771   0.576  0.0517 -0.2705  0.5792
 9509TIP3    H128449   8.332   5.688   0.612 -1.9799 -1.4174 -0.2416
 9509TIP3    H228450   8.380   5.807   0.531  1.6211 -0.5090  2.9234
 9510TIP3   OH228451   4.897   0.742   3.151  0.3389 -0.7439  0.2941
 9510TIP3    H128452   4.976   0.795   3.162  0.2950 -0.7207  0.5144
 9510TIP3    H228453   4.831   0.803   3.118 -0.0813 -0.3361  1.7861
 9511TIP3   OH228454   2.931   7.830   3.440 -0.1025  0.0526 -0.1051
 9511TIP3    H128455   3.006   7.812   3.495  0.3473  1.4470 -0.2274
 9511TIP3    H228456   2.961   7.898   3.380 -1.1904 -0.0050 -0.7363
 9512TIP3   OH228457   2.005   1.781   6.418  0.0531  0.1634  0.0815
 9512TIP3    H128458   2.084   1.751   6.463  0.7030  0.8184 -0.5941
 9512TIP3    H228459   1.957   1.829   6.484  0.3795  0.0306  0.4190
 9513TIP3   OH228460   2.100   4.750   3.743 -0.0332 -0.2109  0.7492
 9513TIP3    H128461   2.009   4.762   3.769 -0.1432 -0.6086  0.5468
 9513TIP3    H228462   2.130   4.838   3.719 -0.7602 -0.2750 -0.4759
 9514TIP3   OH228463   8.312   1.907   5.352 -0.0392  0.1697  0.0666
 9514TIP3    H128464   8.329   1.980   5.293  0.9052  0.2260  0.3853
 9514TIP3    H228465   8.257   1.848   5.301 -0.7714  1.0704 -0.2091
 9515TIP3   OH228466   1.707   7.214   1.396 -0.2446 -0.1835 -0.3727
 9515TIP3    H128467   1.763   7.250   1.465 -0.3793  0.3845 -0.5526
 9515TIP3    H228468   1.765   7.159   1.344  0.0542  0.0667 -0.3105
 9516TIP3   OH228469   4.816   1.837   4.352  0.3524  0.1907 -0.6008
 9516TIP3    H128470   4.843   1.854   4.442  0.5408  0.1068 -0.6419
 9516TIP3    H228471   4.762   1.759   4.358  1.6196 -0.7274 -0.7648
 9517TIP3   OH228472   5.430   3.495   4.207 -0.1272 -0.2487  1.3929
 9517TIP3    H128473   5.387   3.456   4.131  0.2003  0.6370  0.7335
 9517TIP3    H228474   5.402   3.441   4.281 -2.7347  0.5734  1.0830
 9518TIP3   OH228475   8.342   1.023   3.385 -0.1842  0.3103  0.2453
 9518TIP3    H128476   8.336   1.114   3.413  0.5699  0.6460 -0.6173
 9518TIP3    H228477   8.404   1.024   3.312 -0.8812 -0.7534 -0.3949
 9519TIP3   OH228478   7.174   3.485   2.450  0.5409 -0.0004 -0.4841
 9519TIP3    H128479   7.100   3.426   2.433  0.1891  1.0025 -2.8642
 9519TIP3    H228480   7.235   3.468   2.379  2.0318  0.1248  0.7237
 9520TIP3   OH228481   4.396   7.443   2.835 -0.5269 -0.2270 -0.4175
 9520TIP3    H128482   4.393   7.430   2.930 -0.8541 -0.1112 -0.4118
 9520TIP3    H228483   4.324   7.389   2.801  0.9612 -2.1001 -0.8132
 9521TIP3   OH228484   1.444   7.404   6.431  0.0547 -0.4079 -0.1441
 9521TIP3    H128485   1.432   7.498   6.414 -0.9565 -0.1794  1.6405
 9521TIP3    H228486   1.523   7.400   6.486  2.3919 -1.0083 -3.2496
 9522TIP3   OH228487   0.540   6.072   6.338  0.0723  0.4022 -0.4320
 9522TIP3    H128488   0.504   6.149   6.293  0.6007  0.2582 -1.1164
 9522TIP3    H228489   0.525   6.000   6.277  0.1012  0.0621 -0.0383
 9523TIP3   OH228490   0.692   3.439   0.313  0.4159  0.0855  0.1384
 9523TIP3    H128491   0.717   3.432   0.405 -2.3798  1.3648  1.1181
 9523TIP3    H228492   0.715   3.529   0.289 -0.4025  0.3034  0.1382
 9524TIP3   OH228493   3.539   5.633   4.386 -0.3229 -0.2970 -0.0139
 9524TIP3    H128494   3.471   5.615   4.321 -1.0706  0.9323  0.3947
 9524TIP3    H228495   3.596   5.697   4.344 -0.6462  0.2883  0.4392
 9525TIP3   OH228496   0.202   0.832   5.843 -0.0487 -0.1297 -0.6010
 9525TIP3    H128497   0.219   0.914   5.797 -0.4914  0.5785  0.4532
 9525TIP3    H228498   0.114   0.844   5.881  0.0765 -0.8926 -0.0428
 9526TIP3   OH228499   7.582   7.510   6.871 -0.2240 -0.0518  0.1391
 9526TIP3    H128500   7.507   7.466   6.911 -0.3930 -1.0543 -1.1848
 9526TIP3    H228501   7.584   7.597   6.911 -1.7767 -0.1944  0.5746
 9527TIP3   OH228502   1.865   5.198   0.071  0.2871  0.7396 -0.4838
 9527TIP3    H128503   1.936   5.154   0.116  0.7370  0.6565 -1.2494
 9527TIP3    H228504   1.796   5.132   0.066 -0.3851  1.2355  1.4359
 9528TIP3   OH228505   4.272   3.770   6.549 -0.0857  0.5193  0.5785
 9528TIP3    H128506   4.239   3.775   6.459 -0.2997 -0.5011  0.5975
 9528TIP3    H228507   4.353   3.720   6.543 -0.1829  0.3075  0.9794
 9529TIP3   OH228508   2.073   7.994   4.572  0.0265 -0.3523  0.2185
 9529TIP3    H128509   2.064   7.905   4.537 -1.5755  0.4175 -1.4796
 9529TIP3    H228510   2.143   8.034   4.520 -0.2189 -0.1816  0.0184
 9530TIP3   OH228511   3.768   5.926   1.782  0.1390  0.8022  0.2160
 9530TIP3    H128512   3.757   5.955   1.873  0.2115 -0.0776  0.5182
 9530TIP3    H228513   3.742   5.834   1.783  0.8622  0.5731 -0.4980
 9531TIP3   OH228514   0.232   7.941   5.252 -0.2909 -0.3593  0.1525
 9531TIP3    H128515   0.192   7.855   5.268  0.4686 -1.0284 -1.3443
 9531TIP3    H228516   0.199   7.967   5.165  1.3380 -0.2677 -0.4806
 9532TIP3   OH228517   5.571   0.705   1.723  0.2977  0.3657  0.3015
 9532TIP3    H128518   5.513   0.631   1.742 -0.5456  0.9453  0.0536
 9532TIP3    H228519   5.633   0.671   1.658  0.3049 -0.2878  0.6385
 9533TIP3   OH228520   4.812   7.838   1.598  0.6244 -0.0444 -0.2811
 9533TIP3    H128521   4.768   7.780   1.536 -0.4303  1.3334 -0.8844
 9533TIP3    H228522   4.790   7.927   1.568  1.5063  0.6759  1.0699
 9534TIP3   OH228523   8.459   6.201  -0.003  0.1486 -0.2226 -0.3833
 9534TIP3    H128524   8.379   6.249   0.020  0.4167  0.3774 -0.6676
 9534TIP3    H228525   8.487   6.160   0.079  0.6027  1.1444  0.1811
 9535TIP3   OH228526   5.900   2.074   5.694  0.1924  0.4730  0.3521
 9535TIP3    H128527   5.986   2.097   5.730  0.6667  0.7629 -0.8973
 9535TIP3    H228528   5.915   1.990   5.649 -1.1485 -1.6394  3.4985
 9536TIP3   OH228529   7.542   3.061   3.805 -0.0344  0.0389 -0.0551
 9536TIP3    H128530   7.522   3.154   3.811 -0.3329 -0.0291  0.0102
 9536TIP3    H228531   7.598   3.043   3.881  2.4923  0.7792 -1.6128
 9537TIP3   OH228532   8.033   3.042   5.756 -0.5226 -0.4409  0.4857
 9537TIP3    H128533   8.075   3.001   5.832 -1.3515 -0.7167  0.8097
 9537TIP3    H228534   7.991   3.120   5.792 -1.7954 -1.1247  0.5234
 9538TIP3   OH228535   8.117   2.125   6.514  0.0080  0.6947  0.4602
 9538TIP3    H128536   8.097   2.061   6.583  1.3811 -1.0567 -0.6569
 9538TIP3    H228537   8.201   2.163   6.541 -0.3525  1.3721  0.6509
 9539TIP3   OH228538   1.685   2.384   0.236 -0.3145 -0.0620 -0.1937
 9539TIP3    H128539   1.637   2.461   0.205 -0.2763 -0.2967 -0.8504
 9539TIP3    H228540   1.618   2.319   0.256 -0.2643 -0.6333 -1.7700
 9540TIP3   OH228541   4.350   0.449   3.218  0.5689  0.5133 -0.2146
 9540TIP3    H128542   4.410   0.418   3.150 -0.2159 -0.4460 -0.5007
 9540TIP3    H228543   4.335   0.372   3.274 -0.5443  0.6680 -0.2690
 9541TIP3   OH228544   6.379   5.644   2.505 -0.1768  0.1214 -0.6785
 9541TIP3    H128545   6.345   5.626   2.592  3.6924  1.4984  1.3565
 9541TIP3    H228546   6.358   5.565   2.454 -1.2032 -1.4016  1.9199
 9542TIP3   OH228547   3.207   1.420   5.890  0.1829 -0.0020  0.2705
 9542TIP3    H128548   3.201   1.507   5.931  1.3688  0.3887 -0.3403
 9542TIP3    H228549   3.209   1.359   5.963 -2.3457  0.3159  0.7046
 9543TIP3   OH228550   0.076   3.853   1.000  0.2184 -0.3684 -0.0366
 9543TIP3    H128551   0.123   3.827   1.080  1.8361  1.4768 -0.3342
 9543TIP3    H228552  -0.003   3.897   1.032  0.5358 -0.2075  0.5380
 9544TIP3   OH228553   5.488   4.332   1.312 -0.4737 -0.4880 -0.0642
 9544TIP3    H128554   5.470   4.347   1.404 -0.4466 -3.4390  0.5030
 9544TIP3    H228555   5.410   4.287   1.279  0.0463 -0.6146 -1.1719
 9545TIP3   OH228556   3.578   7.690   0.016 -0.4110 -0.0180 -0.0852
 9545TIP3    H128557   3.553   7.598   0.007  0.0105 -0.0532 -1.0000
 9545TIP3    H228558   3.504   7.739  -0.019 -0.6159 -0.0029  0.3596
 9546TIP3   OH228559   7.633   1.265   0.754 -0.2820 -0.0422  0.2611
 9546TIP3    H128560   7.575   1.193   0.732 -0.1460 -0.2157  0.4637
 9546TIP3    H228561   7.588   1.344   0.723 -1.5036  0.0246  2.0846
 9547TIP3   OH228562   5.075   1.925   1.298  0.0296  0.9768 -0.6759
 9547TIP3    H128563   5.147   1.864   1.278 -0.5656  0.7075 -2.1593
 9547TIP3    H228564   5.025   1.881   1.367 -0.0410  0.0240 -1.3032
 9548TIP3   OH228565   0.334   5.191   5.171  0.0975 -0.2018  0.0450
 9548TIP3    H128566   0.276   5.225   5.103 -0.0659 -0.6598 -0.0477
 9548TIP3    H228567   0.341   5.098   5.152  1.1829 -0.0787 -0.1692
 9549TIP3   OH228568   1.764   2.936   6.274  0.0659  0.0686 -0.4674
 9549TIP3    H128569   1.696   2.947   6.341 -0.1019  1.0256 -0.7815
 9549TIP3    H228570   1.826   2.874   6.313  0.7219  1.6674  1.1699
 9550TIP3   OH228571   5.345   2.562   3.171 -0.5645  0.3524 -0.7341
 9550TIP3    H128572   5.343   2.649   3.131 -1.1169  1.4464  1.4953
 9550TIP3    H228573   5.253   2.542   3.190 -0.2320  0.8778  1.8407
 9551TIP3   OH228574   7.780   5.736   1.720  0.2206  0.8391 -0.0796
 9551TIP3    H128575   7.751   5.657   1.676  0.7513 -0.4286  1.7489
 9551TIP3    H228576   7.766   5.806   1.656 -1.9911 -0.4363 -1.0898
 9552TIP3   OH228577   2.117   7.125   0.777  0.0146  0.5467  0.4234
 9552TIP3    H128578   2.168   7.080   0.710  0.1170  0.1188  0.7883
 9552TIP3    H228579   2.026   7.119   0.747  0.1101  0.7523  0.0951
 9553TIP3   OH228580   5.247   6.598   5.308 -0.1366  0.1513  0.1410
 9553TIP3    H128581   5.186   6.565   5.242  2.1413 -0.3289 -1.8432
 9553TIP3    H228582   5.249   6.529   5.375  1.4406 -1.9613 -1.9228
 9554TIP3   OH228583   4.452   3.168   7.032 -0.0829 -0.5591 -0.1405
 9554TIP3    H128584   4.422   3.079   7.016 -0.4074 -0.7689  1.4099
 9554TIP3    H228585   4.470   3.170   7.126 -0.0096  0.9923 -0.1617
 9555TIP3   OH228586   7.777   0.788   6.469 -0.1793  0.0122  0.4975
 9555TIP3    H128587   7.746   0.851   6.404 -0.3486 -0.5957 -0.0117
 9555TIP3    H228588   7.706   0.785   6.534 -0.0275  0.5840  0.7017
 9556TIP3   OH228589   1.705   4.775   0.669 -0.4020 -0.0359  0.3036
 9556TIP3    H128590   1.718   4.684   0.644 -0.6389  0.2089 -0.7788
 9556TIP3    H228591   1.626   4.802   0.622 -0.1720  0.8139  0.3759
 9557TIP3   OH228592   4.100   1.474   1.700 -1.0039 -0.0129  0.2331
 9557TIP3    H128593   4.162   1.420   1.749 -0.9918  0.8169  1.1402
 9557TIP3    H228594   4.151   1.550   1.672 -0.8919 -0.6531 -1.4736
 9558TIP3   OH228595   6.325   7.891   3.117 -0.4005 -0.1977 -0.2731
 9558TIP3    H128596   6.264   7.860   3.184  0.5684  0.5710  0.9993
 9558TIP3    H228597   6.324   7.822   3.050 -1.6146 -0.8380  0.3607
 9559TIP3   OH228598   1.076   8.185   6.058 -0.2928  0.4091 -0.2076
 9559TIP3    H128599   1.055   8.193   5.965  0.7138  1.1852 -0.3950
 9559TIP3    H228600   1.129   8.106   6.065 -1.6980 -0.5539 -0.0142
 9560TIP3   OH228601   6.644   7.104   4.513 -0.5417 -0.1403  0.2088
 9560TIP3    H128602   6.725   7.155   4.507  0.0222 -0.9391  0.8231
 9560TIP3    H228603   6.580   7.156   4.466  0.6318 -0.1112 -1.4307
 9561TIP3   OH228604   5.928   0.400   2.754 -0.5682 -0.0149 -0.5383
 9561TIP3    H128605   5.896   0.413   2.665 -0.0349  0.2921 -0.6866
 9561TIP3    H228606   5.983   0.322   2.750  0.4346  0.6918 -0.7369
 9562TIP3   OH228607   8.088   4.076   5.958 -0.3591  0.4034 -0.0722
 9562TIP3    H128608   8.017   4.013   5.967 -0.2383  0.2695 -0.0441
 9562TIP3    H228609   8.047   4.153   5.920 -0.4085  0.1105 -0.6371
 9563TIP3   OH228610   2.304   2.521   2.949  0.1225  0.3002 -0.0086
 9563TIP3    H128611   2.228   2.542   2.895  0.2945  0.9161 -0.0232
 9563TIP3    H228612   2.275   2.449   3.005 -0.8311  1.2801  0.7766
 9564TIP3   OH228613   6.610   2.157   0.997 -0.5520  0.0175 -0.1468
 9564TIP3    H128614   6.545   2.195   0.939 -2.2888 -0.6830  1.2421
 9564TIP3    H228615   6.607   2.063   0.980 -0.5830 -0.1201  0.5584
 9565TIP3   OH228616   1.780   1.800   0.354  0.0922  0.7026 -0.5405
 9565TIP3    H128617   1.752   1.885   0.388  0.1518  0.0843  1.1615
 9565TIP3    H228618   1.700   1.748   0.352  0.2141  0.5204 -0.6928
 9566TIP3   OH228619   0.722   7.633   1.651 -0.4469  0.1631 -0.4310
 9566TIP3    H128620   0.724   7.578   1.573  3.7758 -0.5581 -0.0222
 9566TIP3    H228621   0.710   7.721   1.617 -1.7873 -0.4132 -1.5702
 9567TIP3   OH228622   4.006   5.312   0.638  0.0019 -0.1907  0.1490
 9567TIP3    H128623   3.930   5.287   0.585  0.2939  0.6042 -0.6702
 9567TIP3    H228624   4.076   5.254   0.608 -0.0944 -0.4385  0.3993
 9568TIP3   OH228625   1.136   6.942   1.933 -0.3459  0.5580  0.0312
 9568TIP3    H128626   1.193   6.931   2.009 -0.8957  1.1746  0.5469
 9568TIP3    H228627   1.048   6.936   1.968 -0.6650  2.8865 -0.1631
 9569TIP3   OH228628   2.853   1.954   1.705 -0.2166 -0.3068 -0.2127
 9569TIP3    H128629   2.813   2.007   1.637 -0.7710 -0.1485  0.2311
 9569TIP3    H228630   2.788   1.887   1.726 -0.8966  0.8049  1.5097
 9570TIP3   OH228631   7.715   8.066   3.443  0.2627 -0.7126  0.2129
 9570TIP3    H128632   7.804   8.075   3.476  0.3949  0.4244 -0.4090
 9570TIP3    H228633   7.660   8.067   3.521  0.7648 -0.9744  0.5729
 9571TIP3   OH228634   3.459   5.284   3.456  0.1685  0.4999  0.1391
 9571TIP3    H128635   3.389   5.225   3.429  1.5893 -1.2882  0.2008
 9571TIP3    H228636   3.489   5.248   3.540 -0.4918  2.7393  1.4251
 9572TIP3   OH228637   6.230   1.732   6.607  0.1164  0.7313  0.4030
 9572TIP3    H128638   6.250   1.689   6.524 -1.0492  0.0638  0.4443
 9572TIP3    H228639   6.203   1.820   6.583  1.5251  1.1552  0.2391
 9573TIP3   OH228640   8.360   5.368   3.561  0.6077 -0.1743 -0.2194
 9573TIP3    H128641   8.322   5.402   3.643  3.4176 -0.3086  1.2521
 9573TIP3    H228642   8.356   5.273   3.571  1.5107 -0.1883  0.0685
 9574TIP3   OH228643   3.478   6.515   3.344  0.3376 -0.1165 -0.5764
 9574TIP3    H128644   3.437   6.535   3.428  1.0356  0.5908 -0.3877
 9574TIP3    H228645   3.413   6.538   3.278 -0.0866 -0.3522 -0.2415
 9575TIP3   OH228646   5.259   2.318   5.366 -0.3098  0.0530 -0.3060
 9575TIP3    H128647   5.203   2.308   5.443 -1.6761  0.5145 -1.1941
 9575TIP3    H228648   5.232   2.402   5.327  1.2972  0.4939 -0.5581
 9576TIP3   OH228649   3.824   0.663   4.460 -0.9171  0.0091 -0.3472
 9576TIP3    H128650   3.840   0.739   4.516  2.3015  0.7354 -2.0644
 9576TIP3    H228651   3.760   0.693   4.396  0.0601  1.2063 -0.7950
 9577TIP3   OH228652   4.761   7.261   2.394  0.2124  0.2993  0.1866
 9577TIP3    H128653   4.776   7.209   2.473  2.7407  0.0903 -0.3360
 9577TIP3    H228654   4.672   7.294   2.403  0.5081  0.5012  3.2313
 9578TIP3   OH228655   7.118   7.696   2.552 -0.1856 -0.5258 -0.0145
 9578TIP3    H128656   7.129   7.765   2.486  0.2860  0.1177  0.7171
 9578TIP3    H228657   7.077   7.624   2.505  0.3320 -0.1550 -1.0574
 9579TIP3   OH228658   4.670   7.741   4.796  0.4258  0.4270  0.0853
 9579TIP3    H128659   4.757   7.734   4.836 -0.0930 -0.7476  1.0536
 9579TIP3    H228660   4.634   7.653   4.799 -0.2905  0.6175 -1.5604
 9580TIP3   OH228661   5.116   1.214   4.354 -0.3209  0.4415  0.1161
 9580TIP3    H128662   5.183   1.278   4.331  0.2303 -0.4919 -0.9456
 9580TIP3    H228663   5.070   1.197   4.272 -1.9760  1.1626  0.8474
 9581TIP3   OH228664   4.305   6.936   0.064  0.3533 -0.0464  0.3729
 9581TIP3    H128665   4.327   6.846   0.086  1.4057 -0.5346 -2.2879
 9581TIP3    H228666   4.232   6.929   0.002 -0.1170  1.0035  0.7702
 9582TIP3   OH228667   8.259   1.070   0.653 -0.5436 -0.3804 -0.0700
 9582TIP3    H128668   8.197   1.128   0.698  1.2264  1.0081  0.7337
 9582TIP3    H228669   8.224   1.062   0.564 -0.7407  2.1979 -0.3102
 9583TIP3   OH228670   1.956   1.388   5.940 -0.6413  0.3991 -0.1940
 9583TIP3    H128671   1.863   1.367   5.940 -0.4073 -0.9960 -2.2737
 9583TIP3    H228672   1.991   1.341   6.015 -1.1394 -1.9093 -1.3005
 9584TIP3   OH228673   2.483   5.514   1.593 -0.2265 -0.1006 -0.1980
 9584TIP3    H128674   2.512   5.425   1.574  0.1728 -0.1551  0.6204
 9584TIP3    H228675   2.392   5.503   1.623 -0.5704 -0.0986 -1.2022
 9585TIP3   OH228676   1.342   7.310   3.918 -0.6840 -0.1021  0.4305
 9585TIP3    H128677   1.372   7.321   4.009  1.9302  0.9828 -0.4646
 9585TIP3    H228678   1.416   7.338   3.865 -0.9961 -3.4411 -2.1273
 9586TIP3   OH228679   7.639   5.310   2.763  0.5170  0.2835 -0.1573
 9586TIP3    H128680   7.561   5.273   2.721 -1.0654 -1.7979  4.0218
 9586TIP3    H228681   7.701   5.237   2.767 -1.0576 -1.1637  4.5248
 9587TIP3   OH228682   2.408   7.360   1.332 -0.4710 -0.1440  0.8839
 9587TIP3    H128683   2.367   7.447   1.337  1.2584  0.6692  1.6644
 9587TIP3    H228684   2.343   7.301   1.369 -1.7348  0.7722  0.2209
 9588TIP3   OH228685   1.214   8.010   5.321  0.0812  0.8705 -0.1644
 9588TIP3    H128686   1.185   8.097   5.350  0.7735  1.2606 -0.6286
 9588TIP3    H228687   1.133   7.959   5.318 -0.6700  2.0703 -1.8897
 9589TIP3   OH228688   4.147   2.540   5.976  0.3494 -0.3543  0.0319
 9589TIP3    H128689   4.172   2.484   6.049  1.2386 -0.3612 -0.2686
 9589TIP3    H228690   4.203   2.617   5.984  0.9288 -0.6441 -1.0067
 9590TIP3   OH228691   0.885   4.881   1.864  0.0241 -0.1530  0.2504
 9590TIP3    H128692   0.878   4.826   1.942 -1.7313  0.0977  0.3091
 9590TIP3    H228693   0.863   4.822   1.791  0.3295 -0.0589  0.0800
 9591TIP3   OH228694   3.675   6.741   4.050 -0.2157  0.2049 -0.2026
 9591TIP3    H128695   3.643   6.830   4.038  0.6883  0.3758 -1.5354
 9591TIP3    H228696   3.597   6.687   4.048 -0.8669  1.0043  1.4436
 9592TIP3   OH228697   1.350   7.060   6.134 -0.4751  0.2417 -0.2238
 9592TIP3    H128698   1.421   6.999   6.117 -0.0140  0.7834 -0.2819
 9592TIP3    H228699   1.290   7.048   6.059  0.2077  0.7002 -0.8588
 9593TIP3   OH228700   3.920   7.914   2.137 -0.2294  0.5656 -0.0281
 9593TIP3    H128701   3.862   7.935   2.064  0.0966 -0.2915 -0.5382
 9593TIP3    H228702   3.891   7.973   2.208 -1.9541 -0.0791 -0.1422
 9594TIP3   OH228703   6.637   7.279   6.201 -0.3008  0.1443 -0.2042
 9594TIP3    H128704   6.583   7.301   6.125 -2.0544  2.0272  1.4634
 9594TIP3    H228705   6.649   7.363   6.246  0.6746 -0.9098  1.5970
 9595TIP3   OH228706   4.813   5.813   1.636 -0.0720 -0.3518  0.1211
 9595TIP3    H128707   4.807   5.762   1.717  0.7074 -0.6582 -0.0012
 9595TIP3    H228708   4.760   5.763   1.573  0.0159 -0.5766  0.2218
 9596TIP3   OH228709   0.353   5.975   6.792  0.2412  0.1127  0.4128
 9596TIP3    H128710   0.421   5.950   6.729  0.6159 -0.3225  0.9689
 9596TIP3    H228711   0.289   5.904   6.787  0.9080 -0.5857  1.4217
 9597TIP3   OH228712   2.890   4.816   3.173 -0.3131 -0.0787 -0.2592
 9597TIP3    H128713   2.836   4.781   3.102  1.4410  2.5663 -3.1641
 9597TIP3    H228714   2.953   4.747   3.191 -0.1832 -0.4682 -2.0279
 9598TIP3   OH228715   0.799   2.366   6.214 -0.1252 -0.0218  0.0942
 9598TIP3    H128716   0.763   2.398   6.131  1.3930 -0.1906 -0.6544
 9598TIP3    H228717   0.744   2.291   6.236 -1.3617  0.8001 -0.0637
 9599TIP3   OH228718   1.881   5.908   0.008  0.0602 -0.8622 -0.1706
 9599TIP3    H128719   1.827   5.936   0.082  0.6705  1.2289 -0.4292
 9599TIP3    H228720   1.829   5.842  -0.037 -1.7288  0.1367  0.3366
 9600TIP3   OH228721   5.571   6.947   6.873  0.1296 -0.1445 -0.5326
 9600TIP3    H128722   5.601   6.921   6.960 -1.9516  2.3154  1.0802
 9600TIP3    H228723   5.651   6.961   6.823  1.4436 -0.0014  1.4976
 9601TIP3   OH228724   0.435   7.228   6.422  0.2069  0.6451  0.6206
 9601TIP3    H128725   0.510   7.194   6.470 -0.8563 -2.0998  0.5368
 9601TIP3    H228726   0.472   7.262   6.340  1.4377 -0.1045  0.8434
 9602TIP3   OH228727   6.282   5.074   4.124 -0.1568  0.1379 -0.1452
 9602TIP3    H128728   6.296   4.983   4.153 -0.5512 -0.1742 -0.9042
 9602TIP3    H228729   6.230   5.113   4.194 -0.5684 -0.4254 -0.1262
 9603TIP3   OH228730   8.068   4.331   4.312  0.1323  0.3047 -0.0691
 9603TIP3    H128731   8.147   4.386   4.313 -0.1458  0.7341  1.8878
 9603TIP3    H228732   8.100   4.243   4.293  1.2359  0.3162  1.5324
 9604TIP3   OH228733   7.572   1.268   2.147 -0.2031  0.1905  0.0396
 9604TIP3    H128734   7.578   1.361   2.170 -2.3752  0.3016  0.3710
 9604TIP3    H228735   7.508   1.265   2.076 -0.6316 -1.1011  0.4525
 9605TIP3   OH228736   8.351   2.572  -0.005 -0.1979  0.5354 -0.0590
 9605TIP3    H128737   8.378   2.529   0.077 -1.4608  0.1243  0.1594
 9605TIP3    H228738   8.371   2.664   0.009  0.5373  0.3277  0.3159
 9606TIP3   OH228739   4.090   3.170   6.395 -0.1000 -0.3364  0.0550
 9606TIP3    H128740   4.131   3.254   6.418 -1.0166 -0.0059  0.5389
 9606TIP3    H228741   4.117   3.110   6.464  0.3687 -0.3802 -0.1640
 9607TIP3   OH228742   1.971   1.351   3.230  0.2146  0.3644  0.2873
 9607TIP3    H128743   1.891   1.314   3.269 -0.0233  1.2442  0.6497
 9607TIP3    H228744   2.006   1.280   3.176 -0.2132 -0.4018  0.9998
 9608TIP3   OH228745   4.401   7.297   1.476 -0.5011 -0.2407 -0.3146
 9608TIP3    H128746   4.315   7.268   1.445 -0.8351 -0.1396  0.4825
 9608TIP3    H228747   4.397   7.283   1.571  0.2433  0.0812 -0.2342
 9609TIP3   OH228748   8.519   6.511   6.909 -0.3117 -0.0626 -0.1513
 9609TIP3    H128749   8.474   6.430   6.885 -2.4886  0.4354  1.8617
 9609TIP3    H228750   8.502   6.521   7.003  1.3185  1.8981  0.0142
 9610TIP3   OH228751   5.465   2.778   1.549  0.5915 -0.1363  0.3142
 9610TIP3    H128752   5.431   2.721   1.617  0.1732  0.3660  0.5345
 9610TIP3    H228753   5.549   2.808   1.582 -0.3746  1.5148  1.4555
 9611TIP3   OH228754   3.267   3.155   3.946  0.0277 -0.1289 -0.0634
 9611TIP3    H128755   3.363   3.154   3.945  0.0539  0.2838 -1.8434
 9611TIP3    H228756   3.243   3.076   3.897 -0.5446 -0.0930  0.1583
 9612TIP3   OH228757   5.182   3.809   4.145  0.0342  0.0169 -0.3363
 9612TIP3    H128758   5.184   3.713   4.151  0.2868  0.0420  0.0803
 9612TIP3    H228759   5.130   3.827   4.067 -1.1321 -0.4456  0.2946
 9613TIP3   OH228760   7.968   6.751   1.618 -0.1533  0.0174  0.0189
 9613TIP3    H128761   8.063   6.743   1.629 -0.1482 -0.6339 -0.4720
 9613TIP3    H228762   7.953   6.845   1.612  0.4478  0.1311  0.2187
 9614TIP3   OH228763   0.557   4.578   1.703 -0.0136  0.1204  0.3514
 9614TIP3    H128764   0.644   4.564   1.666 -0.3739  0.3405 -0.6090
 9614TIP3    H228765   0.507   4.499   1.679 -0.8217  1.0917 -1.4266
 9615TIP3   OH228766   2.015   7.857   3.609  0.4363  0.9053 -0.2165
 9615TIP3    H128767   2.012   7.888   3.700  0.7421  0.0731  0.0912
 9615TIP3    H228768   1.966   7.923   3.560 -0.6133  0.8484  0.7044
 9616TIP3   OH228769   1.435   8.116   5.127  0.8401 -0.3303 -0.0017
 9616TIP3    H128770   1.433   8.152   5.216  0.0296 -0.6444  0.1182
 9616TIP3    H228771   1.409   8.024   5.138  1.7951 -0.6668 -0.4345
 9617TIP3   OH228772   5.859   3.765   1.004 -0.0908  0.1306 -0.2526
 9617TIP3    H128773   5.809   3.834   0.959  1.9082  0.4656 -2.1149
 9617TIP3    H228774   5.948   3.776   0.973  1.1343 -0.7349  2.5983
 9618TIP3   OH228775   2.157   0.472   3.089 -0.6433  0.2560  0.2851
 9618TIP3    H128776   2.234   0.506   3.135  0.0250  0.9117 -1.2234
 9618TIP3    H228777   2.084   0.522   3.125 -0.1950  0.5189  0.8601
 9619TIP3   OH228778   1.411   3.271   0.909  0.1721  0.2135  0.3215
 9619TIP3    H128779   1.485   3.326   0.883 -0.1182  0.1641 -0.6394
 9619TIP3    H228780   1.416   3.194   0.853 -1.5550  0.9761 -0.9790
 9620TIP3   OH228781   7.802   4.692   6.237  0.5527 -0.1588 -0.3665
 9620TIP3    H128782   7.727   4.644   6.203 -0.8990  2.2259 -0.8275
 9620TIP3    H228783   7.873   4.629   6.239 -1.0640 -2.1149 -1.4375
 9621TIP3   OH228784   3.759   7.810   1.444 -0.1135 -0.2351 -0.0012
 9621TIP3    H128785   3.829   7.801   1.509 -0.7348  0.0819  0.7444
 9621TIP3    H228786   3.774   7.740   1.381 -0.7464 -1.9853  1.6953
 9622TIP3   OH228787   8.204   5.442   3.795  0.2896 -0.0639 -0.3362
 9622TIP3    H128788   8.144   5.368   3.797 -0.5909  0.6500  0.3409
 9622TIP3    H228789   8.226   5.459   3.886  1.0125  0.0985 -0.5289
 9623TIP3   OH228790   4.204   0.715   1.235  0.4620 -0.7866 -0.1330
 9623TIP3    H128791   4.114   0.728   1.264  0.0883 -0.0468 -1.5535
 9623TIP3    H228792   4.257   0.744   1.309 -0.4585  0.3507  0.1164
 9624TIP3   OH228793   7.298   4.509   2.412  0.2404 -0.1386  0.1606
 9624TIP3    H128794   7.280   4.498   2.506 -0.6830  1.9173  0.2605
 9624TIP3    H228795   7.276   4.423   2.374 -0.2702 -0.7192  1.6836
 9625TIP3   OH228796   8.396   4.041   3.873 -0.9095 -0.1927  0.4515
 9625TIP3    H128797   8.328   4.059   3.937 -2.3597 -2.4049 -0.3512
 9625TIP3    H228798   8.464   3.995   3.922 -0.6810  0.6174  0.9247
 9626TIP3   OH228799   5.746   6.121   3.572 -0.7339  0.2677  0.2099
 9626TIP3    H128800   5.716   6.100   3.660 -3.1851 -3.1058 -1.1787
 9626TIP3    H228801   5.665   6.140   3.523  0.5220  1.8467 -1.4280
 9627TIP3   OH228802   3.033   1.501   3.601  0.0070  0.1147  0.3763
 9627TIP3    H128803   3.006   1.431   3.660 -2.7193 -0.6100 -1.5213
 9627TIP3    H228804   3.012   1.581   3.648 -0.3646 -0.4093  1.1284
 9628TIP3   OH228805   5.454   6.216   1.582  0.7967  0.2051 -0.0361
 9628TIP3    H128806   5.377   6.272   1.573  1.8094  1.8618  1.1258
 9628TIP3    H228807   5.418   6.130   1.605 -0.7820  0.3799 -1.6358
 9629TIP3   OH228808   5.849   6.285   1.405  0.8001  0.1460 -0.1024
 9629TIP3    H128809   5.873   6.226   1.477  1.1067  1.4709  0.9254
 9629TIP3    H228810   5.878   6.372   1.434 -2.1886  1.3166 -0.2923
 9630TIP3   OH228811   8.328   6.150   4.920 -0.1888 -0.5076  0.0248
 9630TIP3    H128812   8.345   6.057   4.931  1.0427 -0.1744  1.1352
 9630TIP3    H228813   8.415   6.189   4.909 -0.6869  0.5250 -0.4103
 9631TIP3   OH228814   6.451   2.579   3.502 -0.3286  0.3286 -0.0886
 9631TIP3    H128815   6.458   2.490   3.470  0.5914 -0.5807  2.3985
 9631TIP3    H228816   6.513   2.629   3.448  0.0628 -0.7885 -0.7089
 9632TIP3   OH228817   5.847   5.925   5.396 -0.1672  1.2092  0.7777
 9632TIP3    H128818   5.836   5.966   5.481  2.4485  0.7737  1.4266
 9632TIP3    H228819   5.942   5.924   5.382 -0.1614 -2.6947 -0.1029
 9633TIP3   OH228820   6.784   4.723   1.637 -0.1233  0.3161 -0.0627
 9633TIP3    H128821   6.692   4.696   1.634  0.0211 -0.1669 -0.2988
 9633TIP3    H228822   6.811   4.727   1.545 -0.2353  1.6465 -0.0590
 9634TIP3   OH228823   5.424   8.014   1.223  0.0649 -0.4610  0.3335
 9634TIP3    H128824   5.469   7.968   1.152 -1.0057 -0.6170 -0.2555
 9634TIP3    H228825   5.492   8.025   1.290  0.8988 -0.9768 -0.3947
 9635TIP3   OH228826   5.136   1.613   4.421  0.4735 -0.5504 -0.1219
 9635TIP3    H128827   5.210   1.552   4.419  0.8815 -0.1421  1.4292
 9635TIP3    H228828   5.174   1.696   4.451 -0.4488 -0.0703 -0.2325
 9636TIP3   OH228829   3.287   5.724   4.207  0.7794 -0.2461 -0.4866
 9636TIP3    H128830   3.224   5.652   4.199  0.2060  0.1080  0.5960
 9636TIP3    H228831   3.278   5.754   4.298  2.6356 -0.2991 -0.2323
 9637TIP3   OH228832   6.701   1.203   4.550 -0.1448 -0.2400 -0.1703
 9637TIP3    H128833   6.615   1.220   4.588  0.0709 -0.0520  0.2425
 9637TIP3    H228834   6.710   1.108   4.554 -0.0621 -0.2139  0.4021
 9638TIP3   OH228835   6.911   3.563   4.313  0.2102 -0.3963  0.6466
 9638TIP3    H128836   6.853   3.623   4.360 -1.5533 -0.9120 -0.7721
 9638TIP3    H228837   6.986   3.616   4.288 -0.5930  0.8161  0.7458
 9639TIP3   OH228838   0.088   6.661   5.895 -0.4327  0.2674  0.1752
 9639TIP3    H128839   0.133   6.744   5.882  0.4609 -0.2196  0.0525
 9639TIP3    H228840   0.139   6.598   5.844 -0.6139 -0.5014  0.9098
 9640TIP3   OH228841   3.614   1.545   2.160  0.1858 -0.0721  0.0277
 9640TIP3    H128842   3.695   1.595   2.145 -0.8315  1.7125  0.1927
 9640TIP3    H228843   3.616   1.524   2.254  1.3973 -1.8631 -0.3370
 9641TIP3   OH228844   4.614   2.897   5.250 -0.3273 -0.2751 -0.5284
 9641TIP3    H128845   4.545   2.878   5.313  1.7881 -1.2667  1.6946
 9641TIP3    H228846   4.649   2.811   5.227  0.3686  0.2144 -1.3616
 9642TIP3   OH228847   7.917   4.908   6.100  0.2022 -0.3243  0.4967
 9642TIP3    H128848   7.964   4.860   6.033  0.3957 -0.5494  0.7917
 9642TIP3    H228849   7.883   4.841   6.159 -2.3809 -0.3617 -0.8727
 9643TIP3   OH228850   4.581   6.219   1.854 -0.0483  0.6805 -0.7382
 9643TIP3    H128851   4.600   6.311   1.875 -1.7663  1.5069 -2.4554
 9643TIP3    H228852   4.589   6.214   1.759  1.2506 -1.3039 -0.5731
 9644TIP3   OH228853   7.051   4.783   2.627 -0.2504  0.8117 -0.4169
 9644TIP3    H128854   6.961   4.797   2.597 -0.1573  0.1908 -1.0214
 9644TIP3    H228855   7.065   4.851   2.692 -0.8291  1.5472 -1.0329
 9645TIP3   OH228856   0.655   1.784   6.451  0.0161 -0.1265  0.4949
 9645TIP3    H128857   0.662   1.871   6.490 -2.1213  0.9163 -1.2336
 9645TIP3    H228858   0.703   1.727   6.511  2.4548  2.3688  1.1270
 9646TIP3   OH228859   3.179   4.784   4.323  0.0780 -0.0244  0.4918
 9646TIP3    H128860   3.192   4.871   4.284 -0.7584 -0.2940 -0.4440
 9646TIP3    H228861   3.085   4.769   4.316  0.1306 -0.7354  1.2447
 9647TIP3   OH228862   2.807   1.554   2.063  0.5838 -0.0468 -0.0999
 9647TIP3    H128863   2.843   1.504   1.990  0.2383 -2.1087  1.0532
 9647TIP3    H228864   2.842   1.512   2.141  0.8543  2.0169  0.9786
 9648TIP3   OH228865   3.776   0.142   6.229 -0.3594  0.1004  0.3570
 9648TIP3    H128866   3.839   0.134   6.157 -2.7736 -1.3135 -1.7613
 9648TIP3    H228867   3.797   0.068   6.287  0.2106 -0.0932 -0.0834
 9649TIP3   OH228868   0.615   0.869   5.899 -0.0676  0.4960  0.0583
 9649TIP3    H128869   0.612   0.912   5.984 -0.4491  0.8713 -0.1471
 9649TIP3    H228870   0.575   0.783   5.914  0.3304  0.3616  0.3719
 9650TIP3   OH228871   4.590   6.623   0.321  0.6499  0.0850 -0.2571
 9650TIP3    H128872   4.590   6.529   0.340 -0.3008  0.1077 -0.1305
 9650TIP3    H228873   4.572   6.628   0.227  0.7772  0.1472 -0.2791
 9651TIP3   OH228874   1.477   2.207   4.180 -0.2422 -0.2750  0.1142
 9651TIP3    H128875   1.546   2.248   4.128 -2.1229  1.9890 -0.7821
 9651TIP3    H228876   1.401   2.262   4.166 -1.7862 -1.6200  2.5141
 9652TIP3   OH228877   2.359   7.895   3.951  0.0923  0.3055  0.2794
 9652TIP3    H128878   2.304   7.858   4.019 -2.5202 -1.0095 -2.3206
 9652TIP3    H228879   2.415   7.823   3.923 -1.9936 -0.6013 -1.8706
 9653TIP3   OH228880   1.579   1.452   1.217 -0.1413  0.1915 -0.3243
 9653TIP3    H128881   1.639   1.413   1.281 -0.4397  0.3857  0.0792
 9653TIP3    H228882   1.500   1.398   1.223 -0.2991  0.4270 -0.2718
 9654TIP3   OH228883   2.335   5.148   4.752  0.5551  0.1569 -0.0303
 9654TIP3    H128884   2.417   5.098   4.743 -0.2250 -1.2001  0.0942
 9654TIP3    H228885   2.266   5.083   4.736 -0.5085  1.1856  0.2793
 9655TIP3   OH228886   3.432   0.664   2.961 -0.3859 -0.2506  0.1923
 9655TIP3    H128887   3.472   0.750   2.972  1.9283 -1.4134  1.6626
 9655TIP3    H228888   3.385   0.649   3.043  2.3399 -1.8203  1.5924
 9656TIP3   OH228889   2.980   3.554   4.636  0.2672  0.0237 -0.2735
 9656TIP3    H128890   2.911   3.563   4.702  0.5007 -0.2406  0.0070
 9656TIP3    H228891   3.002   3.644   4.613 -0.8281  0.1141 -1.0605
 9657TIP3   OH228892   7.265   5.547   5.193  0.0206  0.2470 -0.4092
 9657TIP3    H128893   7.190   5.562   5.251  1.1881 -0.9606  1.5294
 9657TIP3    H228894   7.311   5.631   5.191 -0.3792  0.4772 -0.1002
 9658TIP3   OH228895   1.543   2.824   4.862 -0.4968 -0.0729 -0.1939
 9658TIP3    H128896   1.470   2.884   4.877 -0.4394  0.8689 -3.0559
 9658TIP3    H228897   1.616   2.864   4.909 -0.7937  1.4286 -0.9345
 9659TIP3   OH228898   1.052   0.994   3.508  0.4957 -0.0289 -0.4126
 9659TIP3    H128899   1.081   1.084   3.514 -0.1228  0.2764 -1.5948
 9659TIP3    H228900   1.086   0.951   3.587 -0.2024  1.4984  0.7634
 9660TIP3   OH228901   2.575   0.472   4.475 -0.2161 -0.2120  0.6232
 9660TIP3    H128902   2.510   0.403   4.466 -0.0708 -0.4105  1.0776
 9660TIP3    H228903   2.640   0.453   4.407 -1.4123  0.8916 -0.9078
 9661TIP3   OH228904   5.423   3.247   6.837 -0.0530  0.1148 -0.2195
 9661TIP3    H128905   5.463   3.332   6.818  0.4335  0.3797  1.7791
 9661TIP3    H228906   5.384   3.220   6.754  2.3417  0.8890 -1.7050
 9662TIP3   OH228907   7.515   4.453   4.180 -0.0123 -0.4393  0.0775
 9662TIP3    H128908   7.580   4.428   4.245 -1.3232 -0.9586  1.2657
 9662TIP3    H228909   7.513   4.379   4.118 -0.7522 -1.3104  1.0959
 9663TIP3   OH228910   7.983   2.815   4.384 -0.2934 -0.0685 -0.0792
 9663TIP3    H128911   7.992   2.739   4.441 -2.4021  0.6073  1.2619
 9663TIP3    H228912   8.035   2.884   4.426 -1.3268  0.2438  0.7195
 9664TIP3   OH228913   8.603   5.125   3.498 -0.7995 -0.4412 -0.3340
 9664TIP3    H128914   8.625   5.184   3.570 -1.2780  3.1860 -2.8805
 9664TIP3    H228915   8.531   5.072   3.532 -0.7439  0.8011  1.9576
 9665TIP3   OH228916   3.604   0.503   3.790 -0.4096  0.4781 -0.8288
 9665TIP3    H128917   3.633   0.472   3.876  1.1699  1.0565 -1.1107
 9665TIP3    H228918   3.666   0.464   3.729 -2.9347 -1.9494 -2.0538
 9666TIP3   OH228919   0.100   1.666   2.061  0.0159  0.0916  0.1106
 9666TIP3    H128920   0.119   1.579   2.026  0.4932  0.1971  0.1020
 9666TIP3    H228921   0.144   1.668   2.146  0.0147  0.3271  0.1063
 9667TIP3   OH228922   5.613   0.084   0.786 -0.0322 -0.0550  0.4660
 9667TIP3    H128923   5.564   0.016   0.831  0.4055 -0.3558  0.4887
 9667TIP3    H228924   5.578   0.084   0.697  1.5798 -1.9402 -0.2251
 9668TIP3   OH228925   8.537   6.035   2.486  0.0324 -0.0700 -0.6819
 9668TIP3    H128926   8.464   6.088   2.456 -0.2419  0.4941  0.8775
 9668TIP3    H228927   8.538   6.047   2.581  1.0735 -1.4487 -0.4794
 9669TIP3   OH228928   5.966   2.369   5.501 -0.2037  0.0440 -0.3415
 9669TIP3    H128929   5.900   2.382   5.569 -0.2118 -1.4586 -0.0373
 9669TIP3    H228930   5.962   2.276   5.481  1.4344  0.0279 -0.7199
 9670TIP3   OH228931   4.678   5.249   4.087 -0.2426  0.7476  0.5670
 9670TIP3    H128932   4.651   5.267   4.177  1.2250  1.9287  0.8094
 9670TIP3    H228933   4.691   5.335   4.049 -1.9025  0.3075 -1.1705
 9671TIP3   OH228934   4.624   1.115   3.339  0.5678  0.4347  0.0856
 9671TIP3    H128935   4.538   1.124   3.381  0.9305 -0.1198  0.9614
 9671TIP3    H228936   4.681   1.082   3.408  1.3762  0.3238 -0.6287
 9672TIP3   OH228937   7.129   2.320   5.921  0.4615  0.2899  0.3118
 9672TIP3    H128938   7.074   2.388   5.959  0.2386  0.1502  0.2417
 9672TIP3    H228939   7.068   2.267   5.869  0.5488 -0.2417  0.7447
 9673TIP3   OH228940   2.288   4.067   4.721 -0.0234 -0.7580  0.3786
 9673TIP3    H128941   2.244   4.103   4.797  0.9083  1.5498 -0.0787
 9673TIP3    H228942   2.363   4.018   4.757 -0.0785 -0.4146  0.9611
 9674TIP3   OH228943   8.347   2.022   2.493 -0.5273 -0.3077 -0.2624
 9674TIP3    H128944   8.404   1.979   2.557 -1.0616 -2.6955 -1.2689
 9674TIP3    H228945   8.308   2.096   2.540  0.9133 -0.5479  1.3979
 9675TIP3   OH228946   6.563   3.437   2.772 -0.5647  0.0914 -0.2657
 9675TIP3    H128947   6.641   3.419   2.824 -0.7258  0.9191  0.2911
 9675TIP3    H228948   6.595   3.443   2.682  0.4553  2.6752  0.1788
 9676TIP3   OH228949   5.243   6.059   0.009  0.1772  0.2282 -0.5835
 9676TIP3    H128950   5.299   6.072  -0.067  2.3926 -0.6673  0.7744
 9676TIP3    H228951   5.256   6.137   0.063  1.0763 -0.4833  0.2712
 9677TIP3   OH228952   7.632   1.549   5.642  0.1037 -0.4109 -0.2572
 9677TIP3    H128953   7.646   1.455   5.656  2.0704 -0.0756  0.4596
 9677TIP3    H228954   7.636   1.587   5.730  2.8699  0.6676 -0.7345
 9678TIP3   OH228955   7.245   4.239   2.327 -0.5345  0.0485 -0.7833
 9678TIP3    H128956   7.245   4.185   2.247 -1.7714 -0.9015 -0.1696
 9678TIP3    H228957   7.205   4.183   2.394  0.4017  0.8531  0.5030
 9679TIP3   OH228958   8.552   6.512   4.715 -0.1225 -0.4832  0.0969
 9679TIP3    H128959   8.622   6.494   4.777 -1.1656  1.4350  1.9945
 9679TIP3    H228960   8.548   6.434   4.659  2.5756 -1.2010  0.7670
 9680TIP3   OH228961   2.204   3.343   0.397 -0.2312 -0.0192 -1.0613
 9680TIP3    H128962   2.230   3.273   0.338  1.9792 -0.4288  0.2432
 9680TIP3    H228963   2.246   3.320   0.480  0.4167  2.7111 -0.5304
 9681TIP3   OH228964   2.469   4.601   3.606 -0.1713  0.6737 -0.2593
 9681TIP3    H128965   2.498   4.548   3.680 -3.6135  1.5410  1.9516
 9681TIP3    H228966   2.469   4.691   3.640 -0.0764  1.3417 -1.9510
 9682TIP3   OH228967   5.114   5.092   5.347 -0.1784  0.1329 -0.5266
 9682TIP3    H128968   5.055   5.156   5.387 -1.5649 -0.8693 -0.8701
 9682TIP3    H228969   5.121   5.022   5.412  0.1676 -0.0272 -0.7346
 9683TIP3   OH228970   5.878   1.804   5.112 -0.2596  0.0702 -0.3593
 9683TIP3    H128971   5.821   1.830   5.185  0.6341 -0.1569  0.4312
 9683TIP3    H228972   5.828   1.829   5.033 -0.4783  1.9452  0.3222
 9684TIP3   OH228973   2.157   0.453   3.903 -0.0733 -0.6082 -0.2148
 9684TIP3    H128974   2.123   0.460   3.992  1.0826 -1.0433  0.2927
 9684TIP3    H228975   2.091   0.495   3.848 -0.3743  0.5019  0.9524
 9685TIP3   OH228976   7.097   0.314   4.643  0.5340  0.5926  0.2105
 9685TIP3    H128977   7.157   0.270   4.704  0.6910  0.5600  0.0326
 9685TIP3    H228978   7.016   0.324   4.693  0.6989  0.6721  0.4680
 9686TIP3   OH228979   8.178   4.262   0.464 -0.0680  0.0377 -0.3508
 9686TIP3    H128980   8.139   4.326   0.523 -3.2831  0.1712 -2.4153
 9686TIP3    H228981   8.136   4.179   0.488 -0.5115 -0.1240 -1.6269
 9687TIP3   OH228982   1.244   1.660   1.305  0.1180 -0.3587 -0.2191
 9687TIP3    H128983   1.222   1.596   1.238  0.5299  0.4718 -1.1857
 9687TIP3    H228984   1.331   1.693   1.279  0.1309  0.2273  0.5281
 9688TIP3   OH228985   7.451   6.702   6.342 -0.0999  0.1677 -0.3116
 9688TIP3    H128986   7.480   6.629   6.396 -2.7751 -0.7167  0.0836
 9688TIP3    H228987   7.408   6.661   6.267  0.2039  1.3814 -1.1888
 9689TIP3   OH228988   0.836   6.386   4.871  0.3001 -0.0842 -0.3328
 9689TIP3    H128989   0.865   6.448   4.938 -1.0157 -0.5044  0.6752
 9689TIP3    H228990   0.740   6.394   4.871  0.1992 -1.0859 -1.1912
 9690TIP3   OH228991   6.356   0.206   6.999 -0.7554 -0.2218 -0.1805
 9690TIP3    H128992   6.289   0.160   7.050  0.8217 -1.3218  0.9922
 9690TIP3    H228993   6.341   0.179   6.909 -0.5956 -2.1798  0.3384
 9691TIP3   OH228994   1.853   2.763   1.246 -0.5146  0.5401  0.1126
 9691TIP3    H128995   1.923   2.766   1.311  0.4121 -3.3392 -0.4682
 9691TIP3    H228996   1.893   2.797   1.166  0.3980 -0.6560  0.0471
 9692TIP3   OH228997   0.333   4.834   2.807  0.2108  0.0356 -0.2301
 9692TIP3    H128998   0.258   4.792   2.850  0.6974 -0.5988  0.0226
 9692TIP3    H228999   0.295   4.908   2.760 -0.6581 -0.5806 -0.5346
 9693TIP3   OH229000   0.923   4.023   3.128  0.4840 -0.2678 -0.2203
 9693TIP3    H129001   0.973   3.973   3.063  0.0698 -0.5913 -0.2940
 9693TIP3    H229002   0.900   4.104   3.084  0.0795 -0.5480 -0.5292
 9694TIP3   OH229003   3.253   2.006   6.252  0.2240  0.5116 -0.0207
 9694TIP3    H129004   3.256   2.070   6.181  0.2630 -0.9646 -1.4243
 9694TIP3    H229005   3.194   1.938   6.219  3.2254 -2.1399 -0.4086
 9695TIP3   OH229006   4.579   6.354   3.254 -0.2949 -0.2252 -0.2364
 9695TIP3    H129007   4.499   6.384   3.298 -0.4442  0.2872 -0.8441
 9695TIP3    H229008   4.633   6.433   3.245  0.1537 -0.5113 -0.1021
 9696TIP3   OH229009   7.027   3.562   3.847 -0.2975  0.3231 -0.2241
 9696TIP3    H129010   7.079   3.595   3.919 -1.1658 -0.1049  0.6223
 9696TIP3    H229011   6.995   3.641   3.802  2.8412  0.6479 -2.1557
 9697TIP3   OH229012   3.926   4.120   5.635 -0.1223 -0.4131  0.0015
 9697TIP3    H129013   3.906   4.210   5.610  0.6163 -0.2817 -0.1574
 9697TIP3    H229014   3.904   4.068   5.557 -0.8469 -0.4172  0.2017
 9698TIP3   OH229015   2.560   5.971   5.128 -0.1292  0.3820  0.2324
 9698TIP3    H129016   2.485   6.030   5.117  0.0771  0.4274 -1.1952
 9698TIP3    H229017   2.573   5.933   5.041  0.2133 -1.2106  0.9482
 9699TIP3   OH229018   6.514   4.103   6.229  0.9990 -0.1169  0.5007
 9699TIP3    H129019   6.538   4.101   6.322  3.5725 -0.1628 -0.0826
 9699TIP3    H229020   6.509   4.196   6.207  1.1317 -0.1087  0.5076
 9700TIP3   OH229021   5.647   5.971   2.642  1.3419 -0.2314  0.1576
 9700TIP3    H129022   5.742   5.967   2.626  1.2014 -1.3494 -0.4657
 9700TIP3    H229023   5.617   6.045   2.590  1.6598 -0.7778 -0.8296
 9701TIP3   OH229024   3.807   0.690   5.900 -0.3701  0.1619 -0.0614
 9701TIP3    H129025   3.745   0.618   5.890  0.3685 -0.4762 -0.1093
 9701TIP3    H229026   3.787   0.748   5.826  0.4999 -1.1114 -1.3299
 9702TIP3   OH229027   7.069   0.896   5.322 -0.0203  0.0411  0.4496
 9702TIP3    H129028   6.990   0.846   5.342 -0.9632  1.4258  0.3481
 9702TIP3    H229029   7.055   0.929   5.234  0.9943 -0.2687  0.1608
 9703TIP3   OH229030   5.371   4.617   1.397  0.0080  0.4970  0.0448
 9703TIP3    H129031   5.461   4.649   1.396  0.9769 -1.9255  1.3853
 9703TIP3    H229032   5.377   4.528   1.362 -2.0262  0.5373 -0.5754
 9704TIP3   OH229033   5.613   6.740   3.838  0.9776  0.1374 -0.2835
 9704TIP3    H129034   5.662   6.792   3.775  1.0502  0.6123  0.1538
 9704TIP3    H229035   5.537   6.707   3.790  0.3140  1.5992 -0.2676
 9705TIP3   OH229036   8.606   1.953   1.250 -0.0785  0.3530 -0.1637
 9705TIP3    H129037   8.665   1.988   1.184  0.4020 -1.8821 -1.0223
 9705TIP3    H229038   8.519   1.957   1.209  0.0273  0.1952 -0.4061
 9706TIP3   OH229039   0.238   1.094   5.830  0.4681  0.1508 -0.1185
 9706TIP3    H129040   0.182   1.136   5.764 -1.8496  0.7326  2.0826
 9706TIP3    H229041   0.257   1.163   5.893 -0.8130 -1.2331  1.9198
 9707TIP3   OH229042   3.439   2.683   3.320 -0.3916 -0.2070 -0.1864
 9707TIP3    H129043   3.352   2.679   3.358  0.0622 -0.3176  0.8739
 9707TIP3    H229044   3.485   2.607   3.356 -0.1660 -0.7686 -1.5766
 9708TIP3   OH229045   2.398   4.981   3.441  0.3062 -0.5741  0.1945
 9708TIP3    H129046   2.317   5.006   3.396  0.9530 -1.5200 -1.5738
 9708TIP3    H229047   2.445   4.926   3.378  2.0599 -0.5479  1.4105
 9709TIP3   OH229048   5.146   0.260   7.091 -0.3956 -0.3840 -0.4640
 9709TIP3    H129049   5.209   0.274   7.020  0.4845  0.7570  0.4974
 9709TIP3    H229050   5.192   0.203   7.153  0.2045  1.3960  0.8055
 9710TIP3   OH229051   3.509   4.771   5.222  1.0305  0.3244 -0.2418
 9710TIP3    H129052   3.551   4.773   5.308  0.9969  0.2375 -0.2236
 9710TIP3    H229053   3.419   4.801   5.239  1.3037  1.2779 -0.4038
 9711TIP3   OH229054   4.383   4.298   3.278 -0.3116 -0.1890  0.3787
 9711TIP3    H129055   4.359   4.342   3.197  0.1750 -0.4861  0.0685
 9711TIP3    H229056   4.479   4.295   3.277 -0.2636  0.4493  1.3134
 9712TIP3   OH229057   4.198   0.867   5.374 -0.2037  0.8131  0.3419
 9712TIP3    H129058   4.293   0.870   5.384 -0.2370  0.7877  0.6866
 9712TIP3    H229059   4.164   0.896   5.459 -0.5130 -2.2088  1.3835
 9713TIP3   OH229060   4.288   2.979   4.294 -0.4260  0.4165  0.3634
 9713TIP3    H129061   4.198   2.958   4.319  0.4934 -1.5903  2.4384
 9713TIP3    H229062   4.280   3.026   4.211 -3.3361 -0.1293  0.2230
 9714TIP3   OH229063   1.889   5.038   6.110  0.7651  0.4061  0.4944
 9714TIP3    H129064   1.980   5.056   6.134  0.0075  0.7843  3.5397
 9714TIP3    H229065   1.839   5.112   6.147 -1.0178 -1.1108  1.3046
 9715TIP3   OH229066   3.280   7.719   1.947  0.2932 -0.1442 -0.5654
 9715TIP3    H129067   3.375   7.727   1.954  0.3191 -1.4542  2.1306
 9715TIP3    H229068   3.266   7.675   1.863  2.0377  0.2536 -1.1148
 9716TIP3   OH229069   0.284   0.579   1.194  0.3170  0.7703  0.3906
 9716TIP3    H129070   0.369   0.547   1.223  0.2998  1.1410  0.8573
 9716TIP3    H229071   0.231   0.500   1.184  0.9552  0.4627 -0.7126
 9717TIP3   OH229072   2.105   6.122   4.819 -0.4217 -0.3276  0.1301
 9717TIP3    H129073   2.071   6.209   4.799 -0.9814 -0.5021  0.3001
 9717TIP3    H229074   2.157   6.099   4.742  0.9001  0.7196  0.6577
 9718TIP3   OH229075   5.722   0.457   5.482  0.5034  0.3796 -0.1613
 9718TIP3    H129076   5.662   0.520   5.525  0.4055 -0.2897  0.7059
 9718TIP3    H229077   5.664   0.395   5.439  0.5285 -0.8125  1.4624
 9719TIP3   OH229078   4.263   5.297   1.429 -0.0067  0.3415  0.0601
 9719TIP3    H129079   4.187   5.349   1.453 -2.3985 -2.7304 -0.2054
 9719TIP3    H229080   4.283   5.246   1.507 -0.2434 -1.1143 -0.7999
 9720TIP3   OH229081   4.204   7.206   6.850  0.0466  0.0836 -0.1369
 9720TIP3    H129082   4.167   7.165   6.772 -0.3659  1.6041 -0.7748
 9720TIP3    H229083   4.154   7.169   6.923 -0.3202 -0.5160 -0.6786
 9721TIP3   OH229084   7.425   4.221   7.038  0.5064 -0.4483  1.0501
 9721TIP3    H129085   7.392   4.158   7.103  1.4116 -2.0907 -0.0096
 9721TIP3    H229086   7.513   4.190   7.017 -0.0031 -0.3825 -1.4457
 9722TIP3   OH229087   6.025   3.299   6.572 -0.4274 -0.2656 -0.0849
 9722TIP3    H129088   5.946   3.314   6.521 -0.6714  1.3046  0.6923
 9722TIP3    H229089   6.040   3.204   6.566 -2.7227 -0.7046  0.2844
 9723TIP3   OH229090   2.422   1.895   2.584 -0.4429 -0.3741 -0.1550
 9723TIP3    H129091   2.437   1.980   2.544 -1.1636 -0.2877 -0.2535
 9723TIP3    H229092   2.334   1.870   2.555 -0.8174 -0.4962  1.0278
 9724TIP3   OH229093   3.354   7.517   1.475  0.0476  0.2977 -0.2075
 9724TIP3    H129094   3.321   7.457   1.408 -0.8695  0.0926  0.4059
 9724TIP3    H229095   3.394   7.460   1.540 -0.5542  0.3727  0.2293
 9725TIP3   OH229096   0.565   1.032   5.238 -0.1839 -0.4423 -0.0035
 9725TIP3    H129097   0.592   1.124   5.234  0.4574 -0.6508 -0.9797
 9725TIP3    H229098   0.470   1.034   5.235 -0.1484  0.1657 -1.1520
 9726TIP3   OH229099   1.478   1.948   4.154 -0.0750  0.3772 -0.7750
 9726TIP3    H129100   1.460   2.038   4.181  0.4899  0.0903  0.6172
 9726TIP3    H229101   1.571   1.949   4.131  0.2686 -0.1476  0.5488
 9727TIP3   OH229102   3.236   1.694   1.050 -0.0427 -0.4839  0.3237
 9727TIP3    H129103   3.221   1.645   1.131  0.8304 -0.8563  0.2617
 9727TIP3    H229104   3.172   1.658   0.988 -0.1550 -0.7617  0.5995
 9728TIP3   OH229105   4.735   3.319   0.454  0.1804  0.2101  0.0826
 9728TIP3    H129106   4.720   3.270   0.535  2.1560  1.5625  1.3610
 9728TIP3    H229107   4.815   3.281   0.418  0.5616  1.0990 -0.0221
 9729TIP3   OH229108   6.237   1.994   3.655  0.5837  0.0098 -0.4918
 9729TIP3    H129109   6.196   2.076   3.682 -0.2347 -0.6756  0.4492
 9729TIP3    H229110   6.331   2.012   3.658  0.5064  0.3037  1.8893
 9730TIP3   OH229111   4.046   3.238   0.368 -0.2973  0.3256  0.6165
 9730TIP3    H129112   4.096   3.279   0.438  1.0853 -1.3239  0.6568
 9730TIP3    H229113   4.099   3.163   0.341 -1.5243  0.0277 -1.1531
 9731TIP3   OH229114   7.285   6.164   5.838 -0.0953 -0.3738 -0.2974
 9731TIP3    H129115   7.259   6.093   5.779  1.1543 -2.2234  1.2510
 9731TIP3    H229116   7.284   6.125   5.925  2.0728  1.0496  0.4661
 9732TIP3   OH229117   6.350   5.536   4.200 -0.3809  0.5455  0.4815
 9732TIP3    H129118   6.330   5.614   4.252  1.5407  1.1782  0.3245
 9732TIP3    H229119   6.418   5.563   4.139  0.0907 -1.1772  0.1765
 9733TIP3   OH229120   1.065   3.136   0.552 -0.4029 -0.1548  0.6001
 9733TIP3    H129121   1.008   3.182   0.490 -1.2843  0.0254  1.5062
 9733TIP3    H229122   1.044   3.176   0.637  1.2775  0.0867  0.9313
 9734TIP3   OH229123   3.973   3.154   5.805  0.6282 -0.0358  0.0384
 9734TIP3    H129124   4.037   3.085   5.787  1.2845  0.0534  1.7992
 9734TIP3    H229125   4.012   3.233   5.767  0.3211 -0.4396 -1.1500
 9735TIP3   OH229126   8.354   2.534   5.511  0.3574  0.2340 -0.3695
 9735TIP3    H129127   8.380   2.445   5.536  0.6215  0.5193  0.3796
 9735TIP3    H229128   8.264   2.524   5.479  1.5795 -0.9411 -3.9923
 9736TIP3   OH229129   1.111   2.529   7.021 -0.0356  0.1438  0.8652
 9736TIP3    H129130   1.134   2.577   7.101  0.5162  3.7879 -1.2374
 9736TIP3    H229131   1.017   2.542   7.012 -0.1609 -0.5831  1.0801
 9737TIP3   OH229132   4.280   4.713   1.135 -0.4089 -0.1063  0.0602
 9737TIP3    H129133   4.249   4.748   1.219  1.7509  0.1128  0.8299
 9737TIP3    H229134   4.290   4.789   1.079 -0.3484 -0.0614  0.1315
 9738TIP3   OH229135   5.760   3.615   1.615  0.0584 -0.4343  0.0837
 9738TIP3    H129136   5.798   3.647   1.533  0.9027  1.1268  1.0250
 9738TIP3    H229137   5.695   3.550   1.589  0.1466  0.2047 -1.8185
 9739TIP3   OH229138   1.516   2.633   1.979 -0.3056  0.3068 -0.5472
 9739TIP3    H129139   1.483   2.722   1.992  1.5057  0.8952  0.5113
 9739TIP3    H229140   1.601   2.645   1.936 -0.2143 -0.9474 -0.7594
 9740TIP3   OH229141   0.626   0.697   1.665 -0.0916 -0.7349 -0.2339
 9740TIP3    H129142   0.555   0.633   1.653 -0.2990 -0.6462  0.4206
 9740TIP3    H229143   0.649   0.689   1.758 -1.8376  1.8521  0.5531
 9741TIP3   OH229144   5.952   5.956   1.997 -0.3256  0.0813 -0.2639
 9741TIP3    H129145   6.030   5.910   1.967 -0.1186  0.4890 -0.3558
 9741TIP3    H229146   5.953   6.039   1.950 -1.1399 -0.1544 -0.7257
 9742TIP3   OH229147   6.523   7.158   6.722  0.7383  0.5308 -0.3152
 9742TIP3    H129148   6.499   7.191   6.635  2.1337  0.2230 -0.8343
 9742TIP3    H229149   6.614   7.184   6.734  0.8752 -0.3161  0.6289
 9743TIP3   OH229150   7.790   5.531   2.261  0.3647  0.3344 -0.7123
 9743TIP3    H129151   7.821   5.582   2.186  0.2665  1.7635  0.1763
 9743TIP3    H229152   7.849   5.556   2.333  0.0329 -0.4859 -0.1364
 9744TIP3   OH229153   0.099   7.348   2.404 -0.4517 -0.0056  0.4463
 9744TIP3    H129154   0.028   7.293   2.437 -2.0759  2.0952  0.6712
 9744TIP3    H229155   0.104   7.421   2.465  0.5940  0.8836 -0.6368
 9745TIP3   OH229156   7.936   2.633   6.926  0.3218 -0.5293 -0.1032
 9745TIP3    H129157   7.856   2.619   6.977  0.0448  0.3196 -0.2925
 9745TIP3    H229158   7.974   2.713   6.962  0.9867 -0.8105 -0.1566
 9746TIP3   OH229159   6.698   6.383   0.367  0.0933 -0.0903  0.0230
 9746TIP3    H129160   6.687   6.429   0.450  0.0373  0.9988 -0.5786
 9746TIP3    H229161   6.708   6.452   0.302 -2.0307 -0.8822 -1.2138
 9747TIP3   OH229162   2.309   2.552   5.500  0.0091 -0.5792  0.4587
 9747TIP3    H129163   2.257   2.624   5.535 -1.1853 -0.3122 -1.6782
 9747TIP3    H229164   2.256   2.474   5.517 -1.1381 -0.3229 -1.5923
 9748TIP3   OH229165   3.591   7.316   6.521 -0.2405  0.3167 -0.1243
 9748TIP3    H129166   3.632   7.238   6.484  1.8390  1.4129 -0.3021
 9748TIP3    H229167   3.661   7.359   6.571 -1.2167  2.2092 -0.2738
 9749TIP3   OH229168   4.770   5.038   2.119  0.0275  0.5778 -0.0771
 9749TIP3    H129169   4.742   5.129   2.124 -0.7512  0.4085 -0.9450
 9749TIP3    H229170   4.776   5.020   2.025  0.2038 -0.2489  0.0831
 9750TIP3   OH229171   6.058   7.001   5.980 -0.2220 -0.4377 -0.0109
 9750TIP3    H129172   6.070   7.022   6.072 -2.5013 -1.2105  0.5405
 9750TIP3    H229173   6.031   6.909   5.980  0.9182 -0.8096 -1.5734
 9751TIP3   OH229174   7.938   0.568   5.705  0.0126 -0.6579  0.0786
 9751TIP3    H129175   7.880   0.549   5.631 -0.9408 -1.1127  0.9196
 9751TIP3    H229176   8.004   0.628   5.669 -0.1588 -1.2388 -1.2433
 9752TIP3   OH229177   8.204   7.358   4.320 -0.1644 -0.4770 -0.7251
 9752TIP3    H129178   8.184   7.416   4.394 -0.5198 -0.4295 -0.8561
 9752TIP3    H229179   8.163   7.401   4.245  2.6349  1.0596 -1.5457
 9753TIP3   OH229180   4.387   6.655   5.881  0.4558  0.1714 -0.0460
 9753TIP3    H129181   4.424   6.600   5.951  0.3414 -2.8521 -2.1502
 9753TIP3    H229182   4.295   6.630   5.878 -0.0323  1.8350  0.0079
 9754TIP3   OH229183   5.342   8.188   2.946 -0.2457 -0.0952 -0.3186
 9754TIP3    H129184   5.394   8.141   3.010 -3.7894 -1.7032  1.6788
 9754TIP3    H229185   5.294   8.253   2.997 -2.4152 -0.7115 -1.4471
 9755TIP3   OH229186   3.749   7.335   0.323 -0.0537 -0.6608  0.1581
 9755TIP3    H129187   3.844   7.320   0.329  0.3330  0.9914 -1.1290
 9755TIP3    H229188   3.716   7.257   0.279  0.6268 -1.4513  0.9968
 9756TIP3   OH229189   2.035   1.461   0.228  0.0112  0.1148  0.0227
 9756TIP3    H129190   2.059   1.538   0.177  0.4475 -0.9131 -1.3809
 9756TIP3    H229191   2.078   1.388   0.184 -0.3304 -0.9456  1.3526
 9757TIP3   OH229192   0.301   7.213   0.537 -0.1525  0.1330  0.3789
 9757TIP3    H129193   0.377   7.265   0.512  1.6446 -2.6922 -0.3807
 9757TIP3    H229194   0.258   7.265   0.605  3.7227  0.8621  2.5429
 9758TIP3   OH229195   6.174   4.075   6.131  0.1096 -0.3818 -0.1033
 9758TIP3    H129196   6.170   4.098   6.224  1.3107 -1.6690  0.2956
 9758TIP3    H229197   6.121   4.142   6.088  2.1268  2.2284  1.1357
 9759TIP3   OH229198   4.686   2.270   6.781 -0.3581 -0.0068 -0.3696
 9759TIP3    H129199   4.769   2.259   6.829 -0.3786  0.2029 -0.2846
 9759TIP3    H229200   4.712   2.267   6.689 -0.2176  0.3262 -0.3433
 9760TIP3   OH229201   5.733   4.976   6.529  0.2099 -0.0917  0.1024
 9760TIP3    H129202   5.644   4.951   6.504 -1.2817  3.2010  1.4854
 9760TIP3    H229203   5.760   5.038   6.462  1.2334 -0.5698  0.0607
 9761TIP3   OH229204   7.437   1.460   6.376  0.2917  0.5315  0.5038
 9761TIP3    H129205   7.415   1.511   6.454  0.3779 -0.0824  0.9406
 9761TIP3    H229206   7.512   1.406   6.404  0.6532  0.6817 -0.1581
 9762TIP3   OH229207   7.917   0.317   2.831 -0.4238 -0.7814 -0.3992
 9762TIP3    H129208   7.881   0.271   2.908 -1.2969  0.3686 -0.0882
 9762TIP3    H229209   7.950   0.247   2.775 -0.0953 -1.6747  0.8604
 9763TIP3   OH229210   3.037   5.784   1.697  0.3089 -0.2397 -0.1203
 9763TIP3    H129211   3.010   5.806   1.787  0.6149  1.5255 -0.4357
 9763TIP3    H229212   3.045   5.868   1.653  3.3517 -0.8274 -0.9002
 9764TIP3   OH229213   1.277   0.858   1.120  0.0494 -0.7899  0.2689
 9764TIP3    H129214   1.249   0.914   1.192 -0.4004  0.8375 -1.1008
 9764TIP3    H229215   1.197   0.820   1.086  0.2717 -1.6492  0.6863
 9765TIP3   OH229216   3.722   6.179   0.415 -0.1135 -0.0025 -0.0392
 9765TIP3    H129217   3.764   6.100   0.382 -0.6141  0.2538 -1.3524
 9765TIP3    H229218   3.755   6.249   0.358 -0.1641  0.6449  0.7012
 9766TIP3   OH229219   2.442   3.473   1.438 -0.3527  0.1237 -0.4300
 9766TIP3    H129220   2.475   3.384   1.429 -0.8380 -0.1776  0.6154
 9766TIP3    H229221   2.467   3.500   1.526 -1.1291  0.6254 -0.3520
 9767TIP3   OH229222   0.120   2.765   4.589 -0.2290  0.2512 -0.2931
 9767TIP3    H129223   0.134   2.739   4.680  0.1740  1.7274  0.0941
 9767TIP3    H229224   0.149   2.689   4.538 -0.6833 -0.6864  0.7974
 9768TIP3   OH229225   6.383   5.588   4.753 -0.0415 -0.3257 -0.0963
 9768TIP3    H129226   6.320   5.557   4.818 -1.8871  0.4304 -1.4590
 9768TIP3    H229227   6.465   5.544   4.776 -0.5228  0.1469  2.9081
 9769TIP3   OH229228   0.083   6.449   1.040 -0.9499 -0.4824 -0.4741
 9769TIP3    H129229   0.062   6.443   1.133 -1.2020  0.1080 -0.4904
 9769TIP3    H229230   0.176   6.427   1.034 -0.6330  0.6624  0.0648
 9770TIP3   OH229231   7.064   1.076   3.341  0.5067 -0.4523 -0.0330
 9770TIP3    H129232   7.132   1.062   3.406  0.1858  0.0540  0.4126
 9770TIP3    H229233   7.026   1.161   3.362 -1.6520 -1.6022  1.0129
 9771TIP3   OH229234   1.207   6.449   6.801  0.1943 -0.5190 -0.0364
 9771TIP3    H129235   1.114   6.439   6.823  0.0691  0.9674  0.2252
 9771TIP3    H229236   1.241   6.508   6.868  1.3903 -1.2008 -0.0183
 9772TIP3   OH229237   3.520   6.415   3.603  0.1295 -0.0515 -0.1617
 9772TIP3    H129238   3.594   6.389   3.659  0.9500  0.7990 -0.8289
 9772TIP3    H229239   3.495   6.334   3.558  0.2547 -0.4784  0.5106
 9773TIP3   OH229240   4.081   8.122   0.491  0.0499 -0.2073  0.4742
 9773TIP3    H129241   4.107   8.086   0.407  0.7526  0.7875  0.2413
 9773TIP3    H229242   3.996   8.163   0.475  0.4296  0.4515  0.0999
 9774TIP3   OH229243   6.380   3.301   0.652 -0.3912  0.2012 -0.6150
 9774TIP3    H129244   6.394   3.243   0.577  1.4672  1.8246 -1.6350
 9774TIP3    H229245   6.434   3.264   0.722 -0.3833 -0.1098 -0.7850
 9775TIP3   OH229246   5.595   3.227   5.201  0.2249 -0.1373  0.5701
 9775TIP3    H129247   5.622   3.198   5.114 -0.0209  0.5665  0.2466
 9775TIP3    H229248   5.557   3.150   5.242  0.6248 -0.5545  0.1674
 9776TIP3   OH229249   1.274   0.265   0.117 -0.1634 -0.2442  0.0169
 9776TIP3    H129250   1.290   0.172   0.131  3.0785  0.6231  4.6488
 9776TIP3    H229251   1.184   0.279   0.146 -1.4852 -2.0358 -2.8024
 9777TIP3   OH229252   7.710   7.632   3.286  0.2111 -0.7416  0.1264
 9777TIP3    H129253   7.774   7.701   3.306  0.0294 -0.4169 -0.4037
 9777TIP3    H229254   7.678   7.653   3.199 -0.3063 -1.1478  0.2114
 9778TIP3   OH229255   6.022   7.691   2.097  0.1049  0.4430 -0.2291
 9778TIP3    H129256   5.996   7.756   2.032 -0.5150  1.2035  0.7463
 9778TIP3    H229257   6.107   7.658   2.067 -0.9049 -0.4323 -2.2859
 9779TIP3   OH229258   0.263   6.200   1.158  0.9530  0.4952 -0.1910
 9779TIP3    H129259   0.353   6.209   1.128  0.9771  0.1872 -0.2194
 9779TIP3    H229260   0.235   6.115   1.124  1.2640 -0.2516  1.3244
 9780TIP3   OH229261   1.320   5.669   0.771 -0.5568  0.0176  0.1002
 9780TIP3    H129262   1.270   5.721   0.708 -2.9725 -0.6073  1.3777
 9780TIP3    H229263   1.279   5.582   0.767  1.7005 -1.1053 -0.1148
 9781TIP3   OH229264   2.837   1.337   3.784  0.2412 -0.3827 -0.2768
 9781TIP3    H129265   2.893   1.267   3.817  0.9982  0.2574 -0.1987
 9781TIP3    H229266   2.833   1.400   3.855 -1.0454 -0.6778 -0.0618
 9782TIP3   OH229267   0.371   0.965   6.436 -0.2327 -0.0419  0.4480
 9782TIP3    H129268   0.282   0.946   6.466 -0.6856  2.3176  0.8231
 9782TIP3    H229269   0.359   1.022   6.360  0.9768 -0.5509 -0.1595
 9783TIP3   OH229270   0.431   7.717   3.280 -0.1095 -0.1675  0.1786
 9783TIP3    H129271   0.356   7.730   3.338 -0.6918  0.2946 -0.6639
 9783TIP3    H229272   0.425   7.788   3.217  0.6290 -0.5545 -0.3331
 9784TIP3   OH229273   6.898   7.893   3.043 -0.5336  0.4982 -0.8626
 9784TIP3    H129274   6.922   7.949   2.969 -0.5364  1.0297 -0.4681
 9784TIP3    H229275   6.959   7.917   3.112 -0.8596  0.3663 -0.5280
 9785TIP3   OH229276   2.177   6.272   2.871  0.5442 -0.0533  0.0231
 9785TIP3    H129277   2.210   6.319   2.794 -0.2630  1.8364  0.7492
 9785TIP3    H229278   2.143   6.341   2.928 -2.1063 -1.6216  0.5374
 9786TIP3   OH229279   5.942   3.724   3.035  0.0076  0.3095 -0.0565
 9786TIP3    H129280   5.913   3.795   3.092  1.5616 -0.1413  1.3894
 9786TIP3    H229281   5.899   3.646   3.070  0.5554  0.1128  0.1964
 9787TIP3   OH229282   8.632   0.713   5.101 -0.3331 -0.4336 -0.4529
 9787TIP3    H129283   8.608   0.667   5.020 -0.0713 -1.2268 -0.0900
 9787TIP3    H229284   8.728   0.718   5.098 -0.2126 -1.7356  0.4672
 9788TIP3   OH229285   3.744   4.685   4.856 -0.0744 -0.6593  0.0353
 9788TIP3    H129286   3.718   4.615   4.796  0.0056 -0.7168  0.0685
 9788TIP3    H229287   3.730   4.649   4.943  2.3428 -1.5588  0.1181
 9789TIP3   OH229288   7.254   1.797   1.279 -0.0371 -0.3867 -0.3178
 9789TIP3    H129289   7.209   1.769   1.359  1.8826  0.0694  0.9918
 9789TIP3    H229290   7.318   1.728   1.263 -0.4808 -0.5241 -1.5423
 9790TIP3   OH229291   3.920   5.587   5.880  0.1347  0.4083  0.4680
 9790TIP3    H129292   4.002   5.628   5.852  0.6028 -1.0672 -0.4478
 9790TIP3    H229293   3.852   5.627   5.825  1.0691 -2.7089 -3.4086
 9791TIP3   OH229294   3.108   2.965   4.739  0.0312 -0.5480 -0.1933
 9791TIP3    H129295   3.106   2.975   4.834  0.2413 -1.4058 -0.0894
 9791TIP3    H229296   3.117   2.871   4.725  1.1864 -0.3291 -1.0554
 9792TIP3   OH229297   0.796   3.356   3.057  0.3022  0.2152  0.1901
 9792TIP3    H129298   0.803   3.409   2.978  0.8161  0.1838  0.2086
 9792TIP3    H229299   0.703   3.359   3.080  0.0928 -0.0621 -0.6068
 9793TIP3   OH229300   3.954   2.644   5.464  0.1384 -0.0795  0.3101
 9793TIP3    H129301   3.864   2.673   5.449  0.6618  1.0234 -0.9346
 9793TIP3    H229302   3.945   2.558   5.506 -1.4774  0.6197  1.4904
 9794TIP3   OH229303   2.634   3.130   1.850 -0.4465 -0.2422 -0.0326
 9794TIP3    H129304   2.599   3.055   1.897  0.9935 -0.6106  0.5076
 9794TIP3    H229305   2.715   3.098   1.810 -1.1481  0.3271 -1.9812
 9795TIP3   OH229306   2.493   7.830   2.463 -0.0712 -0.0285 -0.1085
 9795TIP3    H129307   2.453   7.871   2.539  1.2978 -0.9088  1.1511
 9795TIP3    H229308   2.421   7.785   2.419 -1.1140  1.5711 -0.0902
 9796TIP3   OH229309   6.438   7.309   0.825  0.3647 -0.6038  0.6316
 9796TIP3    H129310   6.466   7.357   0.902 -0.4869  1.8667 -0.4864
 9796TIP3    H229311   6.343   7.323   0.820  0.0735 -2.3961  0.1957
 9797TIP3   OH229312   8.238   7.044   5.245 -0.1387 -0.2604  0.1458
 9797TIP3    H129313   8.306   7.095   5.202  0.4607  0.1687  1.5552
 9797TIP3    H229314   8.160   7.100   5.241  0.2638  0.3624  0.8131
 9798TIP3   OH229315   1.815   5.975   4.681  0.0436 -0.1081  0.0096
 9798TIP3    H129316   1.725   5.973   4.713  0.2165 -1.2196  0.4711
 9798TIP3    H229317   1.807   5.961   4.586 -0.2522 -0.6091  0.1048
 9799TIP3   OH229318   0.991   7.307   4.476 -0.5216  0.6769  0.1738
 9799TIP3    H129319   0.987   7.248   4.551 -0.2799 -0.9280 -1.0097
 9799TIP3    H229320   0.899   7.320   4.452 -0.6256  1.5983  1.0230
 9800TIP3   OH229321   1.229   0.847   4.409  0.1180  0.0835  0.1404
 9800TIP3    H129322   1.268   0.934   4.403  0.1538  0.1339  0.9481
 9800TIP3    H229323   1.139   0.859   4.377 -0.4423  0.8180  1.8848
 9801TIP3   OH229324   8.676   7.821   5.575 -0.6187 -0.3696  0.6211
 9801TIP3    H129325   8.679   7.889   5.508 -0.2104 -0.7873  0.1997
 9801TIP3    H229326   8.654   7.867   5.656 -1.8152  0.0389  0.0776
 9802TIP3   OH229327   7.801   5.904   2.347 -0.7987 -0.2510 -0.2563
 9802TIP3    H129328   7.753   5.877   2.269 -1.0810 -2.2593  0.5732
 9802TIP3    H229329   7.893   5.905   2.319 -1.0833  1.5563 -1.2670
 9803TIP3   OH229330   7.523   6.535   2.523 -0.3990  0.8543 -0.4243
 9803TIP3    H129331   7.591   6.472   2.546 -0.7647  0.0280 -1.5053
 9803TIP3    H229332   7.482   6.557   2.607  1.0502  1.2371  0.2226
 9804TIP3   OH229333   6.941   3.161   4.874 -0.4668 -0.6143 -0.2139
 9804TIP3    H129334   6.891   3.241   4.894  1.1142  0.4536 -0.3397
 9804TIP3    H229335   6.875   3.099   4.843 -1.7356  0.6662 -0.2059
 9805TIP3   OH229336   5.061   6.872   0.763 -0.2737 -0.1397  0.0831
 9805TIP3    H129337   4.993   6.896   0.701  0.4961 -1.2157 -1.2471
 9805TIP3    H229338   5.032   6.907   0.847 -1.7384  0.6569 -0.7343
 9806TIP3   OH229339   3.457   2.496   2.073 -0.6180 -0.2241  0.5809
 9806TIP3    H129340   3.502   2.428   2.122 -0.6322  0.7469  2.0078
 9806TIP3    H229341   3.396   2.449   2.017 -0.7048 -1.3856  1.6131
 9807TIP3   OH229342   7.375   7.402   5.745 -0.1147  0.5463  0.1760
 9807TIP3    H129343   7.328   7.345   5.805 -1.1324 -0.7239 -1.7292
 9807TIP3    H229344   7.307   7.454   5.702  0.6039  1.5319  0.1826
 9808TIP3   OH229345   4.622   1.339   2.855 -0.0596  0.2583  0.3828
 9808TIP3    H129346   4.632   1.346   2.950  0.6992  0.4781  0.2923
 9808TIP3    H229347   4.532   1.366   2.838 -0.3854 -0.3292  1.0964
 9809TIP3   OH229348   6.823   7.258   0.015 -0.2215  0.0694  0.0218
 9809TIP3    H129349   6.816   7.259   0.111 -0.1452 -0.1435  0.0313
 9809TIP3    H229350   6.889   7.324  -0.005  1.9460 -1.8765  0.3221
 9810TIP3   OH229351   6.378   0.231   3.657 -0.0124  0.6768  0.1373
 9810TIP3    H129352   6.311   0.279   3.706 -0.3288 -0.0325  0.4025
 9810TIP3    H229353   6.360   0.139   3.675  0.4767  0.4456 -0.5201
 9811TIP3   OH229354   5.834   4.956   6.956 -0.6108  0.4774  0.5896
 9811TIP3    H129355   5.851   5.041   6.916  0.6363  0.1001  0.2689
 9811TIP3    H229356   5.755   4.924   6.913  0.8555 -0.0598 -1.8751
 9812TIP3   OH229357   5.586   7.580   4.847  0.0645  0.1155  0.0217
 9812TIP3    H129358   5.659   7.518   4.848  0.3565  0.4572  0.1430
 9812TIP3    H229359   5.539   7.563   4.928  2.5160  2.8254  2.2020
 9813TIP3   OH229360   6.720   6.098   0.166 -0.4167  0.5664 -0.6524
 9813TIP3    H129361   6.741   6.152   0.090  1.5533  2.6429  1.2011
 9813TIP3    H229362   6.748   6.010   0.142  0.1628  1.1767 -2.3382
 9814TIP3   OH229363   2.165   4.951   4.805 -0.2364 -0.1124  0.4674
 9814TIP3    H129364   2.174   4.911   4.892  0.1630  1.4605  1.1895
 9814TIP3    H229365   2.160   4.877   4.745  0.7169 -1.2431  1.7076
 9815TIP3   OH229366   2.147   5.906   1.618  0.7044 -0.0958  0.2028
 9815TIP3    H129367   2.149   6.000   1.635 -2.0991 -0.0915  1.0826
 9815TIP3    H229368   2.229   5.873   1.653  1.5589  1.9505  0.2573
 9816TIP3   OH229369   7.128   3.638   4.973 -0.2280 -0.1578 -0.1933
 9816TIP3    H129370   7.107   3.569   5.036 -0.7454 -0.9773 -1.2434
 9816TIP3    H229371   7.142   3.592   4.890 -1.1110  1.0318 -1.0389
 9817TIP3   OH229372   1.500   5.625   1.376  0.7754 -0.0088  0.0191
 9817TIP3    H129373   1.565   5.589   1.316  0.7527 -1.3988  0.7859
 9817TIP3    H229374   1.548   5.641   1.457  1.0256  2.7650 -0.5932
 9818TIP3   OH229375   7.539   4.098   0.017  0.9001 -0.1378  0.2708
 9818TIP3    H129376   7.495   4.175  -0.018  0.3708 -0.4260  0.2921
 9818TIP3    H229377   7.619   4.132   0.058  0.7368  0.3786  0.1616
 9819TIP3   OH229378   5.731   0.758   3.547 -0.0299  0.2518 -0.0390
 9819TIP3    H129379   5.639   0.734   3.554 -0.3939  1.5255 -0.1280
 9819TIP3    H229380   5.778   0.675   3.549 -1.2197 -0.4683 -0.7632
 9820TIP3   OH229381   5.572   7.439   6.102 -0.4586 -0.0101  0.0806
 9820TIP3    H129382   5.584   7.357   6.054 -2.8969 -0.1203 -0.4671
 9820TIP3    H229383   5.639   7.498   6.066  0.4372 -1.3374 -0.4955
 9821TIP3   OH229384   5.327   0.357   0.718 -0.2691 -0.1417  0.4675
 9821TIP3    H129385   5.271   0.396   0.786 -1.1707 -1.9414  0.8120
 9821TIP3    H229386   5.416   0.383   0.744 -0.6123 -0.5309  2.1965
 9822TIP3   OH229387   2.813   3.807   2.306 -0.0437  0.2800 -0.2669
 9822TIP3    H129388   2.891   3.860   2.295  0.3728  0.0925  1.4419
 9822TIP3    H229389   2.742   3.860   2.268  0.5500  1.5198  0.3002
 9823TIP3   OH229390   4.999   3.306   3.305  0.5994 -0.1391  1.0218
 9823TIP3    H129391   4.960   3.393   3.299  0.9662  0.0227  0.9327
 9823TIP3    H229392   4.949   3.262   3.373 -1.5954 -0.9193 -0.9400
 9824TIP3   OH229393   7.642   7.525   4.226  0.4909  0.7295  0.1242
 9824TIP3    H129394   7.676   7.555   4.310  1.6322  2.2881 -0.8091
 9824TIP3    H229395   7.682   7.439   4.213 -0.3880  0.0793  1.5283
 9825TIP3   OH229396   7.635   3.136   5.719 -0.7200  0.1221 -0.1431
 9825TIP3    H129397   7.608   3.053   5.679  1.2726  0.3066 -2.0570
 9825TIP3    H229398   7.704   3.111   5.780  0.8495  0.4438 -1.7274
 9826TIP3   OH229399   8.115   7.920   6.625 -0.7347 -0.0004 -0.3330
 9826TIP3    H129400   8.049   7.947   6.688 -0.4276 -1.4931  0.6594
 9826TIP3    H229401   8.069   7.859   6.566 -0.4969 -0.2340 -0.2767
 9827TIP3   OH229402   1.410   3.470   5.792 -0.5130 -0.1858  0.0102
 9827TIP3    H129403   1.492   3.458   5.838  1.0586  0.1356 -2.5048
 9827TIP3    H229404   1.364   3.539   5.840  0.5021 -0.6170  1.6465
 9828TIP3   OH229405   5.360   6.421   7.108  0.1254  0.3904 -0.1381
 9828TIP3    H129406   5.436   6.478   7.115  0.5183 -0.1563  0.1549
 9828TIP3    H229407   5.314   6.450   7.030  1.6645 -0.4891 -1.4294
 9829TIP3   OH229408   5.060   2.179   2.052 -0.2921 -0.2204  0.1748
 9829TIP3    H129409   5.145   2.171   2.009 -0.4597 -1.6662  0.0689
 9829TIP3    H229410   5.004   2.115   2.008 -1.2468  0.2213  0.7102
 9830TIP3   OH229411   3.113   7.258   4.082 -0.0676  0.1244 -0.3006
 9830TIP3    H129412   3.146   7.330   4.028 -1.5780  1.4199  0.4181
 9830TIP3    H229413   3.053   7.300   4.144  0.0916 -1.5783  1.0898
 9831TIP3   OH229414   4.075   6.083   6.010  0.0310 -0.1902  0.1107
 9831TIP3    H129415   4.149   6.131   6.047  2.4890 -0.8454 -3.5071
 9831TIP3    H229416   4.022   6.151   5.967 -0.1723  0.0040  0.6591
 9832TIP3   OH229417   2.257   6.468   6.822  0.1365  0.6050 -0.6048
 9832TIP3    H129418   2.229   6.517   6.744  0.2723  0.3688 -0.8043
 9832TIP3    H229419   2.196   6.496   6.890 -0.5855  0.1099 -1.0321
 9833TIP3   OH229420   4.041   5.930   2.710  0.6475 -0.1715 -0.0211
 9833TIP3    H129421   4.078   5.970   2.631 -1.2113 -0.7551 -1.2738
 9833TIP3    H229422   4.115   5.919   2.769  1.9904  0.8882 -1.4228
 9834TIP3   OH229423   4.125   0.967   6.797 -0.0504  0.2175 -0.0607
 9834TIP3    H129424   4.067   0.939   6.726  0.5460  2.5250 -1.5960
 9834TIP3    H229425   4.211   0.974   6.756  0.4554  0.9035  1.0700
 9835TIP3   OH229426   4.799   3.236   2.763 -0.6218  0.7832  0.2559
 9835TIP3    H129427   4.809   3.228   2.858 -0.3830  0.6935  0.2240
 9835TIP3    H229428   4.877   3.282   2.735  1.9572 -3.4577 -0.5130
 9836TIP3   OH229429   6.545   0.286   6.424 -0.4520  0.3394  0.1593
 9836TIP3    H129430   6.480   0.328   6.480  0.2020  2.9090 -0.8724
 9836TIP3    H229431   6.524   0.317   6.335  1.2126 -0.0381 -0.4030
 9837TIP3   OH229432   0.566   7.829   6.904 -0.3105 -0.1190  0.2289
 9837TIP3    H129433   0.639   7.773   6.930 -0.8219 -1.4001 -0.9931
 9837TIP3    H229434   0.536   7.869   6.986  1.2458 -0.1634  0.8614
 9838TIP3   OH229435   2.411   0.580   1.136  0.2910  0.5246 -0.5873
 9838TIP3    H129436   2.372   0.627   1.210  1.2782  0.6126 -0.1070
 9838TIP3    H229437   2.464   0.511   1.177  1.5594  1.1285 -1.1775
 9839TIP3   OH229438   4.041   1.083   4.787  0.5178  0.4256 -0.0431
 9839TIP3    H129439   4.014   1.099   4.877  1.0391  0.3256  0.1351
 9839TIP3    H229440   4.136   1.076   4.792  0.4174 -2.0394 -0.1964
 9840TIP3   OH229441   0.370   2.002   5.842 -0.4079  0.0493  0.5150
 9840TIP3    H129442   0.409   1.916   5.858  1.8358  0.4231 -2.2638
 9840TIP3    H229443   0.411   2.060   5.906 -0.1170 -0.4896  0.8174
 9841TIP3   OH229444   6.297   7.266   0.148  0.6496 -0.4619 -0.6481
 9841TIP3    H129445   6.206   7.295   0.143  1.3394  2.2533  0.6821
 9841TIP3    H229446   6.292   7.178   0.185 -1.3852  0.7713  2.3770
 9842TIP3   OH229447   2.735   0.660   0.726  0.3001 -0.1869 -0.0023
 9842TIP3    H129448   2.670   0.695   0.787  1.9766  2.4907  0.4112
 9842TIP3    H229449   2.789   0.602   0.778 -0.3858 -0.6538  0.1967
 9843TIP3   OH229450   3.261   1.742   3.489 -0.5441 -0.4962  0.0611
 9843TIP3    H129451   3.192   1.808   3.492 -0.7014 -0.5372 -1.7759
 9843TIP3    H229452   3.275   1.718   3.581 -3.2077 -0.7661  0.4838
 9844TIP3   OH229453   6.144   5.442   5.448 -0.4604 -0.5392 -0.2391
 9844TIP3    H129454   6.193   5.361   5.433  0.7181  0.2780 -0.9857
 9844TIP3    H229455   6.056   5.413   5.473 -0.1030 -2.0419 -0.6330
 9845TIP3   OH229456   6.333   1.888   1.555 -0.4710  0.4201 -0.1116
 9845TIP3    H129457   6.369   1.934   1.479 -0.0535 -1.9154 -1.4231
 9845TIP3    H229458   6.256   1.842   1.521  0.8989 -2.3763  0.2303
 9846TIP3   OH229459   5.146   0.786   0.777  0.3711 -0.1145 -0.2655
 9846TIP3    H129460   5.066   0.735   0.786  1.9714 -2.7454 -0.0532
 9846TIP3    H229461   5.175   0.801   0.867 -0.4095  1.8547 -0.2893
 9847TIP3   OH229462   7.278   3.705   6.128 -0.1971  0.8128 -0.1555
 9847TIP3    H129463   7.271   3.640   6.059 -1.0541  1.7680 -1.0047
 9847TIP3    H229464   7.248   3.660   6.207 -1.1992  0.2937 -0.8120
 9848TIP3   OH229465   8.075   2.125   1.972  0.1720 -0.5256  0.0576
 9848TIP3    H129466   8.040   2.055   1.917 -0.2413 -0.2298 -0.0564
 9848TIP3    H229467   8.165   2.097   1.991  0.0594 -1.0165 -0.1056
 9849TIP3   OH229468   4.671   7.061   1.372  0.3845 -0.0084 -0.2819
 9849TIP3    H129469   4.683   7.017   1.456 -0.4529 -1.0040 -0.6590
 9849TIP3    H229470   4.601   7.125   1.388  1.1874  0.7844  0.1157
 9850TIP3   OH229471   3.290   3.671   0.457  0.5708  0.1108  0.1354
 9850TIP3    H129472   3.239   3.594   0.431  1.0890  0.0659 -0.7911
 9850TIP3    H229473   3.275   3.678   0.551  0.1306 -0.8412  0.1547
 9851TIP3   OH229474   8.565   1.628   3.558 -0.2363  0.4099  0.0134
 9851TIP3    H129475   8.508   1.633   3.635  0.1970  1.0604  0.2972
 9851TIP3    H229476   8.549   1.710   3.511  0.6873  0.7371  0.2576
 9852TIP3   OH229477   4.290   0.620   5.224 -0.2874  0.0753  0.0814
 9852TIP3    H129478   4.315   0.528   5.233 -0.8243 -0.0192  0.6525
 9852TIP3    H229479   4.362   0.668   5.265  0.6199 -0.0018 -1.3345
 9853TIP3   OH229480   0.607   6.447   0.036  0.8461  0.2077  1.0697
 9853TIP3    H129481   0.634   6.498   0.112  1.3862  1.3541  0.1439
 9853TIP3    H229482   0.545   6.504  -0.010  0.2772 -0.6009  0.8021
 9854TIP3   OH229483   0.543   2.446   6.460 -0.1728  0.2300  0.5991
 9854TIP3    H129484   0.542   2.353   6.482  2.8038  0.3100  1.4710
 9854TIP3    H229485   0.528   2.448   6.366 -3.1070 -0.8485  0.9287
 9855TIP3   OH229486   2.975   0.499   5.086  0.0500  0.3204  0.1114
 9855TIP3    H129487   2.965   0.514   4.992  0.6056  0.9935  0.1523
 9855TIP3    H229488   2.962   0.585   5.125 -0.1782  0.0451  0.6569
 9856TIP3   OH229489   0.646   5.640   6.216  0.4025 -0.4467  0.3696
 9856TIP3    H129490   0.680   5.577   6.279 -0.1260 -0.8008  0.3086
 9856TIP3    H229491   0.682   5.724   6.244  2.5103 -0.9669 -0.5163
 9857TIP3   OH229492   2.951   1.794   1.110  0.3021 -0.0313  0.0817
 9857TIP3    H129493   2.925   1.813   1.200 -2.1636  0.1316 -0.5942
 9857TIP3    H229494   3.032   1.844   1.097  1.8565 -1.6159  2.7652
 9858TIP3   OH229495   2.607   6.737   4.170 -0.3617 -0.1316  0.2026
 9858TIP3    H129496   2.672   6.744   4.101  0.2921  0.5555  0.8708
 9858TIP3    H229497   2.600   6.643   4.188  0.9717 -0.1614  0.6137
 9859TIP3   OH229498   4.181   0.342   5.572  0.3754 -0.3252 -0.2525
 9859TIP3    H129499   4.267   0.368   5.539  0.7072 -0.4721  0.4866
 9859TIP3    H229500   4.154   0.415   5.628  0.8679 -1.0958  1.0300
 9860TIP3   OH229501   7.293   5.807   2.900 -0.0770  0.0815  0.0094
 9860TIP3    H129502   7.303   5.714   2.883  2.4032 -0.1836  2.2456
 9860TIP3    H229503   7.321   5.849   2.819 -1.2451 -1.0592 -1.0332
 9861TIP3   OH229504   5.197   5.939   2.889  0.3393  0.2131 -0.4127
 9861TIP3    H129505   5.222   5.855   2.851  0.4987 -0.4140  1.0258
 9861TIP3    H229506   5.251   5.947   2.967 -1.1630  0.6598  0.6277
 9862TIP3   OH229507   4.354   2.129   5.193  0.0525  0.3595  0.2249
 9862TIP3    H129508   4.408   2.177   5.131  2.1634  0.1301  1.7568
 9862TIP3    H229509   4.394   2.042   5.197  0.5519  0.6289  2.4811
 9863TIP3   OH229510   6.696   5.951   0.673  0.0047  0.0331 -0.0008
 9863TIP3    H129511   6.725   5.861   0.691  1.8159  0.7439  0.8400
 9863TIP3    H229512   6.672   5.986   0.758 -0.9571  0.2849 -0.3630
 9864TIP3   OH229513   4.022   1.176   3.227 -0.2791  0.4919  0.3664
 9864TIP3    H129514   3.955   1.178   3.296 -0.3218  2.3294  0.3279
 9864TIP3    H229515   4.029   1.267   3.198  1.1986  0.0892 -0.6550
 9865TIP3   OH229516   7.240   3.925   5.992  0.0120 -0.3209 -0.1379
 9865TIP3    H129517   7.257   3.854   6.054  1.1293  0.4831  0.5127
 9865TIP3    H229518   7.265   3.888   5.907  1.8085 -0.3386  0.3503
 9866TIP3   OH229519   5.757   3.918   2.231  0.3409 -0.2283 -0.3622
 9866TIP3    H129520   5.720   3.831   2.244 -0.3999 -0.0305 -1.0508
 9866TIP3    H229521   5.845   3.912   2.266 -0.5042 -0.5494  1.9090
 9867TIP3   OH229522   7.526   2.729   6.761 -0.2368 -0.1866 -0.1398
 9867TIP3    H129523   7.524   2.692   6.849  1.1706 -2.0763 -0.8429
 9867TIP3    H229524   7.451   2.789   6.759 -1.4677 -1.5492  1.7065
 9868TIP3   OH229525   5.843   5.365   2.503  0.3426  0.1911 -0.8570
 9868TIP3    H129526   5.771   5.316   2.463  1.2724 -1.1194 -0.9890
 9868TIP3    H229527   5.819   5.373   2.595 -0.2763  0.3467 -1.0270
 9869TIP3   OH229528   7.165   3.164   2.482  0.1836 -0.1849  0.3317
 9869TIP3    H129529   7.121   3.210   2.410  1.3782 -1.0469 -0.9935
 9869TIP3    H229530   7.258   3.180   2.467  0.4401 -0.2197  1.8148
 9870TIP3   OH229531   4.558   8.176   2.286 -0.2007 -0.4384 -0.0046
 9870TIP3    H129532   4.518   8.090   2.271 -2.4333  0.4259  0.5138
 9870TIP3    H229533   4.652   8.161   2.279 -0.5730 -2.6931 -1.0300
 9871TIP3   OH229534   2.478   0.432   6.411  0.1886 -0.2695 -0.3805
 9871TIP3    H129535   2.540   0.373   6.369  1.4556  0.8751 -0.1656
 9871TIP3    H229536   2.477   0.510   6.355  1.3428  0.9815  1.2396
 9872TIP3   OH229537   1.494   0.977   2.308 -0.0353 -0.3816  0.0447
 9872TIP3    H129538   1.424   0.932   2.261  0.7204 -0.2520 -1.2527
 9872TIP3    H229539   1.458   1.063   2.328 -0.6598 -0.7287  0.4660
 9873TIP3   OH229540   1.055   7.850   0.243 -0.0677  0.1936 -0.8189
 9873TIP3    H129541   1.136   7.883   0.281 -0.6159  1.1920 -0.4622
 9873TIP3    H229542   1.082   7.800   0.166  0.9107  0.0399 -0.3817
 9874TIP3   OH229543   6.327   7.905   6.424 -0.2052 -0.7484 -0.0135
 9874TIP3    H129544   6.404   7.944   6.465  0.8530 -2.1658 -0.5660
 9874TIP3    H229545   6.253   7.949   6.465  0.8945  1.1269  0.0686
 9875TIP3   OH229546   5.551   7.775   3.191 -0.3717 -0.2899 -0.4810
 9875TIP3    H129547   5.565   7.754   3.283 -1.2613 -0.1727 -0.3017
 9875TIP3    H229548   5.549   7.691   3.146 -0.6246 -0.3959 -0.2761
 9876TIP3   OH229549   8.489   0.470   1.244  0.3582  0.3400  0.6623
 9876TIP3    H129550   8.496   0.488   1.338 -0.4666  1.7607  0.4831
 9876TIP3    H229551   8.406   0.510   1.218 -0.8371 -2.4269 -0.1618
 9877TIP3   OH229552   7.104   0.330   2.578 -0.1377 -0.0769  0.3636
 9877TIP3    H129553   7.158   0.396   2.534  1.2113 -0.5645  1.1927
 9877TIP3    H229554   7.142   0.324   2.666 -2.1792  0.2239  1.3041
 9878TIP3   OH229555   7.515   0.276   4.338  0.2602  0.1121  0.4894
 9878TIP3    H129556   7.498   0.370   4.326  2.3574  0.3261 -1.3490
 9878TIP3    H229557   7.478   0.235   4.260  2.1183 -0.1522 -0.3130
 9879TIP3   OH229558   8.392   5.542   6.803  0.0081 -0.1843  0.1928
 9879TIP3    H129559   8.311   5.563   6.757  0.0320 -0.4363  0.0317
 9879TIP3    H229560   8.427   5.466   6.756  0.2468 -0.1844  0.3695
 9880TIP3   OH229561   8.186   2.829   1.748 -0.2011 -0.1096 -0.3123
 9880TIP3    H129562   8.276   2.809   1.777 -0.2196 -0.0662 -0.2245
 9880TIP3    H229563   8.186   2.808   1.655  0.7753  2.7608 -1.0573
 9881TIP3   OH229564   8.206   7.654   2.279 -0.1234  0.1411  0.3268
 9881TIP3    H129565   8.264   7.687   2.348 -3.1443  2.5360  1.9913
 9881TIP3    H229566   8.186   7.564   2.305  0.0934  0.4622  1.6785
 9882TIP3   OH229567   3.728   2.174   6.790  0.3292  0.0821 -0.0523
 9882TIP3    H129568   3.635   2.188   6.809  0.0957  0.5669 -1.4332
 9882TIP3    H229569   3.728   2.117   6.713  1.1563  0.6798 -0.5097
 9883TIP3   OH229570   5.483   1.166   0.065 -0.8152 -0.7240  0.2244
 9883TIP3    H129571   5.574   1.172   0.093 -1.0802  0.0150  0.9490
 9883TIP3    H229572   5.481   1.090   0.006  0.1274 -1.1473  0.7210
 9884TIP3   OH229573   4.673   8.043   1.487 -0.0223 -0.6903 -0.1054
 9884TIP3    H129574   4.709   8.112   1.431 -0.1861 -0.6539 -0.1684
 9884TIP3    H229575   4.629   7.984   1.426 -0.9983 -0.1647  0.0575
 9885TIP3   OH229576   1.152   0.439   2.618 -0.4755 -0.1234 -0.1545
 9885TIP3    H129577   1.246   0.427   2.629 -0.3283  1.3196  0.3774
 9885TIP3    H229578   1.112   0.370   2.670  0.2822  0.3104  1.0254
 9886TIP3   OH229579   8.300   3.366   3.465  0.3923 -0.6527 -0.0008
 9886TIP3    H129580   8.335   3.352   3.377 -0.7240 -3.0452 -0.1482
 9886TIP3    H229581   8.280   3.278   3.497 -3.3660  0.3269  0.8862
 9887TIP3   OH229582   2.064   7.946   0.093 -0.5386 -0.3783  0.1576
 9887TIP3    H129583   2.010   7.867   0.098 -1.2848 -0.0888 -2.1267
 9887TIP3    H229584   2.154   7.914   0.101 -0.8637 -1.3514  0.1276
 9888TIP3   OH229585   6.310   3.518   2.867  0.2671  0.3937  0.1510
 9888TIP3    H129586   6.401   3.496   2.847 -0.0874 -1.5299  0.5286
 9888TIP3    H229587   6.285   3.457   2.936 -0.8596  1.9440  1.1644
 9889TIP3   OH229588   6.897   3.628   2.165  0.7269 -0.4880 -0.5836
 9889TIP3    H129589   6.870   3.677   2.087 -0.5922 -0.0370  0.1200
 9889TIP3    H229590   6.977   3.672   2.194 -0.1069  0.9090 -0.3123
 9890TIP3   OH229591   3.576   4.468   1.302 -0.1287 -0.0895 -0.0967
 9890TIP3    H129592   3.546   4.507   1.384  1.1411  0.2581  0.2380
 9890TIP3    H229593   3.565   4.538   1.237  1.2763  0.5647  0.3197
 9891TIP3   OH229594   6.602   2.537   0.079  0.4318  0.1420 -0.2723
 9891TIP3    H129595   6.638   2.564   0.163 -1.4811 -1.9305  1.3634
 9891TIP3    H229596   6.678   2.514   0.026  1.6673  0.4086  1.3275
 9892TIP3   OH229597   1.089   2.725   4.718  0.3878  0.9214  0.0431
 9892TIP3    H129598   1.150   2.726   4.645  0.7685  1.5606  0.3568
 9892TIP3    H229599   1.137   2.684   4.790 -0.5090 -1.1766 -0.4663
 9893TIP3   OH229600   7.397   8.145   3.047 -0.0867  0.4690  0.0210
 9893TIP3    H129601   7.438   8.104   2.971  1.1308  0.7711  0.4922
 9893TIP3    H229602   7.469   8.160   3.108 -0.4521  3.2209 -0.0810
 9894TIP3   OH229603   0.604   5.623   6.783 -0.4221 -0.1684  0.4903
 9894TIP3    H129604   0.563   5.555   6.729  0.3977 -0.3743  0.1106
 9894TIP3    H229605   0.592   5.704   6.733 -0.8738 -0.1321  0.6570
 9895TIP3   OH229606   1.963   2.843   5.458  0.1973  0.2876  0.3125
 9895TIP3    H129607   1.977   2.751   5.439 -0.1722  0.1893  0.5114
 9895TIP3    H229608   1.901   2.844   5.531 -0.4837  0.7010 -0.2554
 9896TIP3   OH229609   6.063   0.523   5.955 -0.2743 -0.1975 -0.5177
 9896TIP3    H129610   6.051   0.430   5.972 -2.3267 -0.0416 -0.8927
 9896TIP3    H229611   5.994   0.545   5.892 -1.8255  2.2113  1.8435
 9897TIP3   OH229612   6.522   3.174   6.985 -0.4228 -0.5841 -0.1565
 9897TIP3    H129613   6.440   3.211   6.953 -1.4533 -2.5504  0.0209
 9897TIP3    H229614   6.505   3.080   6.991  1.7426 -1.0105  0.2450
 9898TIP3   OH229615   7.657   2.532   6.575  0.2377  0.7764  0.1955
 9898TIP3    H129616   7.619   2.610   6.614 -0.3064  0.5658  0.1021
 9898TIP3    H229617   7.604   2.460   6.609  0.2863  0.5143 -0.2724
 9899TIP3   OH229618   3.754   2.244   0.870 -0.1327  0.5824  0.5831
 9899TIP3    H129619   3.724   2.164   0.914 -0.3135  1.2278  1.6783
 9899TIP3    H229620   3.724   2.235   0.780  0.0297 -0.6798  0.6372
 9900TIP3   OH229621   2.819   4.798   2.665 -0.2924  0.6015  1.0230
 9900TIP3    H129622   2.886   4.759   2.610 -0.8448  0.0429  0.7313
 9900TIP3    H229623   2.738   4.787   2.615 -0.7999  0.1280  1.9157
 9901TIP3   OH229624   7.409   3.984   1.876 -0.1997 -0.0016  0.7612
 9901TIP3    H129625   7.429   3.899   1.837 -0.7297  0.6759 -1.1139
 9901TIP3    H229626   7.461   4.047   1.826 -1.9775  1.0652  0.1240
 9902TIP3   OH229627   7.974   4.071   6.290 -0.6941 -0.3639 -0.1867
 9902TIP3    H129628   8.022   4.151   6.313 -2.0267  0.3182  0.3091
 9902TIP3    H229629   8.040   4.015   6.249  0.7139  0.2090  1.2012
 9903TIP3   OH229630   3.993   6.727   6.710  0.1613 -0.1055  0.0309
 9903TIP3    H129631   3.926   6.789   6.738  0.4602 -0.3251  1.3076
 9903TIP3    H229632   3.989   6.656   6.775 -0.1306 -1.4032 -1.3469
 9904TIP3   OH229633   7.411   5.185   2.651 -0.3860  0.1554  0.4514
 9904TIP3    H129634   7.429   5.091   2.656  0.4862  0.2446 -0.5766
 9904TIP3    H229635   7.325   5.191   2.612 -0.3341 -0.2099  0.2733
 9905TIP3   OH229636   8.576   1.761   1.575  0.0729 -0.0457 -0.5995
 9905TIP3    H129637   8.593   1.828   1.641  1.1011 -0.5946 -0.2858
 9905TIP3    H229638   8.634   1.783   1.502  1.6306 -1.4660  0.1432
 9906TIP3   OH229639   3.890   3.920   4.420 -0.6152  0.4213 -0.3225
 9906TIP3    H129640   3.796   3.905   4.425 -0.4708 -0.7400 -0.7430
 9906TIP3    H229641   3.905   3.953   4.331 -0.4645 -0.8718 -0.8036
 9907TIP3   OH229642   6.098   7.822   5.697  0.3416 -0.4915 -0.0725
 9907TIP3    H129643   6.089   7.749   5.758  1.9172  0.2234  1.0893
 9907TIP3    H229644   6.009   7.838   5.665 -0.2406 -2.0239  0.6750
 9908TIP3   OH229645   4.490   5.107   1.890 -0.2850  0.2010 -0.2488
 9908TIP3    H129646   4.455   5.083   1.976  2.0843 -1.1535  0.4280
 9908TIP3    H229647   4.413   5.106   1.832 -1.7410 -0.1108  1.5765
 9909TIP3   OH229648   6.889   1.019   6.709 -0.2024  0.1196 -0.2097
 9909TIP3    H129649   6.799   1.051   6.702 -0.3803 -0.4453 -0.5499
 9909TIP3    H229650   6.890   0.937   6.659 -0.3229 -1.5996  2.3923
 9910TIP3   OH229651   5.498   2.815   6.079 -0.4110  0.1093 -0.1411
 9910TIP3    H129652   5.526   2.747   6.019 -0.4635  0.6540 -0.7877
 9910TIP3    H229653   5.417   2.780   6.118  0.6551 -1.0921  1.1089
 9911TIP3   OH229654   0.346   7.036   1.433  0.2096  0.5041 -0.2242
 9911TIP3    H129655   0.266   7.005   1.475  0.5828  0.5374  0.5294
 9911TIP3    H229656   0.362   7.121   1.474  0.6078  0.5132 -0.4020
 9912TIP3   OH229657   2.048   3.458   5.006 -0.0264 -0.1005  0.3287
 9912TIP3    H129658   2.003   3.542   5.004 -0.3984 -0.2997 -1.0186
 9912TIP3    H229659   2.069   3.443   5.098  1.0973  2.0012  0.4619
 9913TIP3   OH229660   4.530   2.155   3.897  1.0980  0.2717 -0.2424
 9913TIP3    H129661   4.523   2.205   3.978  0.8907  0.2938 -0.2727
 9913TIP3    H229662   4.444   2.166   3.855  0.4655 -1.3802  0.4962
 9914TIP3   OH229663   4.361   3.156   3.738  0.5429  0.1365  0.2544
 9914TIP3    H129664   4.401   3.106   3.809  1.1550  1.2884  0.7459
 9914TIP3    H229665   4.411   3.237   3.734  0.6697  0.0207 -1.6591
 9915TIP3   OH229666   3.835   7.340   6.096  0.5204 -0.2620  0.2214
 9915TIP3    H129667   3.903   7.383   6.044  0.9519 -0.3801  0.6775
 9915TIP3    H229668   3.822   7.256   6.052 -1.9607  1.1435 -2.0533
 9916TIP3   OH229669   4.952   0.653   5.588  0.2442 -0.6235 -0.3902
 9916TIP3    H129670   4.981   0.723   5.647  0.4172 -0.3321 -0.8137
 9916TIP3    H229671   4.994   0.674   5.504 -0.8137 -0.4541 -0.8872
 9917TIP3   OH229672   2.224   3.419   5.559 -0.3837  0.5154  0.2295
 9917TIP3    H129673   2.129   3.418   5.566 -0.4016  2.2005  0.5347
 9917TIP3    H229674   2.255   3.406   5.649 -0.3302  0.6623  0.2322
 9918TIP3   OH229675   8.057   3.670   1.484  0.6964 -0.0501 -0.2137
 9918TIP3    H129676   8.047   3.747   1.428  1.9851  0.3170  0.0228
 9918TIP3    H229677   8.093   3.603   1.425 -0.8515 -0.6463 -0.5301
 9919TIP3   OH229678   4.380   6.381   0.382 -0.1222  0.6530  0.0403
 9919TIP3    H129679   4.388   6.376   0.477 -1.3201 -0.4783  0.1209
 9919TIP3    H229680   4.467   6.360   0.348  0.1367  0.3604  0.8779
 9920TIP3   OH229681   6.249   6.419   5.090 -0.0577 -0.6376 -0.1797
 9920TIP3    H129682   6.206   6.334   5.082 -1.0251 -0.4128  1.8485
 9920TIP3    H229683   6.219   6.468   5.014 -1.8124 -1.1828  0.1099
 9921TIP3   OH229684   7.768   0.551   3.606  0.0652  0.1049 -0.2495
 9921TIP3    H129685   7.767   0.583   3.696 -1.4261  0.3019 -0.3113
 9921TIP3    H229686   7.823   0.613   3.559 -0.0947  0.6670  0.2941
 9922TIP3   OH229687   5.389   3.308   0.867  0.5462 -0.2556 -0.5750
 9922TIP3    H129688   5.430   3.372   0.926 -0.2580 -0.1070 -0.1619
 9922TIP3    H229689   5.298   3.305   0.895  0.0501  0.1221 -2.0974
 9923TIP3   OH229690   4.069   4.115   6.304  0.5166 -0.4342 -0.3962
 9923TIP3    H129691   4.100   4.206   6.299  0.4876 -0.3873  0.1676
 9923TIP3    H229692   3.996   4.119   6.366  1.6623 -1.1379  1.0556
 9924TIP3   OH229693   2.507   5.048   1.299  0.0086  0.2030 -0.2988
 9924TIP3    H129694   2.554   5.131   1.307 -0.0194  0.1530  0.4276
 9924TIP3    H229695   2.414   5.073   1.299  0.0142  0.2337 -0.8924
 9925TIP3   OH229696   7.457   2.911   1.309 -0.1957 -0.3971  0.0527
 9925TIP3    H129697   7.528   2.973   1.293 -1.5752  0.7599 -1.9918
 9925TIP3    H229698   7.498   2.841   1.361  1.6275  1.7577  1.7454
 9926TIP3   OH229699   5.696   3.551   0.461  0.3599  0.1218 -0.2813
 9926TIP3    H129700   5.632   3.481   0.468  0.3100  0.2108  0.2087
 9926TIP3    H229701   5.652   3.628   0.497 -0.3472  0.9363 -2.7184
 9927TIP3   OH229702   1.462   5.139   2.333  0.0604 -0.8204  0.3219
 9927TIP3    H129703   1.421   5.225   2.319 -1.6785 -1.5217  0.8644
 9927TIP3    H229704   1.465   5.100   2.246 -0.2222 -0.6714  0.2449
 9928TIP3   OH229705   6.933   7.558   6.330 -0.7066 -0.8797  0.5444
 9928TIP3    H129706   6.949   7.594   6.243 -0.3539  1.2423  1.4170
 9928TIP3    H229707   6.865   7.492   6.317 -0.7117 -0.5613 -1.3146
 9929TIP3   OH229708   1.361   2.984   4.383  0.1009  0.0804  0.1374
 9929TIP3    H129709   1.451   3.006   4.404  1.0636 -1.6946 -1.7588
 9929TIP3    H229710   1.345   3.025   4.298  0.4242 -2.4631 -1.2616
 9930TIP3   OH229711   6.611   1.014   0.655  0.4666 -0.2340  0.4540
 9930TIP3    H129712   6.581   0.929   0.687  2.4290 -1.3170 -0.4657
 9930TIP3    H229713   6.624   1.066   0.734  0.1302 -1.0745  1.0803
 9931TIP3   OH229714   8.018   0.544   0.608  0.4252 -0.0166 -0.3007
 9931TIP3    H129715   7.926   0.518   0.608  0.2729  0.4966 -0.5780
 9931TIP3    H229716   8.066   0.462   0.603 -0.0087 -0.3089  0.1868
 9932TIP3   OH229717   1.259   3.708   3.416 -0.5945 -0.0490 -0.2327
 9932TIP3    H129718   1.251   3.733   3.508 -2.6746 -0.6805 -0.1889
 9932TIP3    H229719   1.194   3.638   3.405  1.8055 -2.2429 -1.4296
 9933TIP3   OH229720   6.113   4.868   0.354  0.4539 -0.0951  0.5804
 9933TIP3    H129721   6.051   4.919   0.407 -1.6577 -3.2364  1.4600
 9933TIP3    H229722   6.186   4.850   0.413  2.8117  4.1860 -0.6579
 9934TIP3   OH229723   0.766   3.256   2.728 -0.1387 -0.4645  0.0429
 9934TIP3    H129724   0.741   3.340   2.766  2.7173  0.0909  0.9646
 9934TIP3    H229725   0.708   3.192   2.771  0.6810  0.5602  2.9015
 9935TIP3   OH229726   1.969   6.461   2.962 -0.2123  0.0653 -0.3977
 9935TIP3    H129727   2.016   6.455   3.045  0.0743  0.4617 -0.5282
 9935TIP3    H229728   1.914   6.383   2.960  0.6368 -0.5566 -0.3582
 9936TIP3   OH229729   7.288   4.818   3.445  0.1774  0.0786 -0.2507
 9936TIP3    H129730   7.207   4.780   3.479 -0.9430  0.4855 -2.3169
 9936TIP3    H229731   7.283   4.805   3.351  2.1090  0.9444 -0.5208
 9937TIP3   OH229732   7.110   6.608   4.303 -0.0181  0.4492 -0.3562
 9937TIP3    H129733   7.045   6.648   4.246  0.1150 -1.6545 -2.0826
 9937TIP3    H229734   7.194   6.627   4.262  0.2654  0.6937  0.3089
 9938TIP3   OH229735   6.169   1.101   2.170  0.5401  0.2463  0.6439
 9938TIP3    H129736   6.139   1.059   2.250 -1.3182  0.4149  0.0739
 9938TIP3    H229737   6.241   1.157   2.197  0.4406 -0.2819  2.0576
 9939TIP3   OH229738   4.803   3.350   0.182  0.4554 -0.1039 -0.3124
 9939TIP3    H129739   4.882   3.320   0.227  0.4249  0.5993  0.2232
 9939TIP3    H229740   4.750   3.389   0.251 -0.3076 -0.4559 -0.6923
 9940TIP3   OH229741   5.901   6.104   1.649  0.4380  0.0255 -0.0920
 9940TIP3    H129742   5.860   6.020   1.671  2.0562 -0.5032  1.0659
 9940TIP3    H229743   5.897   6.155   1.730 -1.2078  1.4228 -0.9740
 9941TIP3   OH229744   7.933   5.389   6.598  0.4326  0.5914 -0.5732
 9941TIP3    H129745   7.938   5.456   6.665  1.8965  1.0342 -1.0733
 9941TIP3    H229746   7.914   5.308   6.645  3.2046  0.5612  0.6729
 9942TIP3   OH229747   5.029   6.368   6.217 -0.1319 -0.7637 -0.5347
 9942TIP3    H129748   5.089   6.298   6.244 -1.0548 -0.6077  2.2262
 9942TIP3    H229749   4.944   6.325   6.209 -0.4303 -0.2348 -0.2657
 9943TIP3   OH229750   3.575   2.138   6.268  0.5280  0.2003 -0.2744
 9943TIP3    H129751   3.507   2.204   6.256  1.2647  0.8378 -1.0734
 9943TIP3    H229752   3.529   2.055   6.259  0.0417  0.6195 -2.1108
 9944TIP3   OH229753   2.444   6.293   3.282 -0.2950 -0.1762 -0.3708
 9944TIP3    H129754   2.375   6.339   3.329  0.3789  0.8984 -0.3968
 9944TIP3    H229755   2.401   6.214   3.247 -1.4567  0.3856 -0.2627
 9945TIP3   OH229756   1.913   8.148   5.124  1.4063 -0.4321 -0.1845
 9945TIP3    H129757   1.882   8.230   5.086  0.0483  0.2225  2.1116
 9945TIP3    H229758   1.891   8.081   5.060 -0.4072  0.6391 -0.7368
 9946TIP3   OH229759   6.831   0.471   1.164 -0.6538 -0.1367  0.3825
 9946TIP3    H129760   6.806   0.559   1.137  1.7365  0.2958 -0.6386
 9946TIP3    H229761   6.861   0.480   1.254  0.3507  0.2742  0.0162
 9947TIP3   OH229762   5.795   0.218   4.251  0.4667  0.3662  0.1493
 9947TIP3    H129763   5.805   0.142   4.308  1.7180 -0.3897 -1.0205
 9947TIP3    H229764   5.789   0.292   4.311 -1.1473 -0.6503  1.3287
 9948TIP3   OH229765   7.434   4.955   6.864  0.0503 -0.2500 -0.1437
 9948TIP3    H129766   7.473   4.880   6.819 -0.8281 -0.9353  0.2051
 9948TIP3    H229767   7.500   4.981   6.929  0.1927 -1.0144  0.0341
 9949TIP3   OH229768   8.516   0.788   4.501 -0.3868 -0.5755 -0.2846
 9949TIP3    H129769   8.474   0.850   4.560  0.6993  0.5920 -0.6975
 9949TIP3    H229770   8.595   0.761   4.548 -0.4561 -1.0532 -0.4391
 9950TIP3   OH229771   4.482   2.815   0.516 -0.0996 -0.0004  0.3439
 9950TIP3    H129772   4.469   2.910   0.520 -0.6184 -0.0286 -0.5654
 9950TIP3    H229773   4.507   2.791   0.606 -1.3408  0.7903  0.9346
 9951TIP3   OH229774   5.464   7.303   1.879  0.9461 -0.1099 -0.3512
 9951TIP3    H129775   5.516   7.371   1.836 -0.7209  1.6465  0.2102
 9951TIP3    H229776   5.388   7.351   1.914 -0.0906 -2.2269  0.4534
 9952TIP3   OH229777   6.554   4.526   2.934  0.4146 -0.2953  0.1362
 9952TIP3    H129778   6.619   4.596   2.941 -0.8126  0.7503  1.8199
 9952TIP3    H229779   6.498   4.553   2.861 -0.9783  1.3594  1.7433
 9953TIP3   OH229780   3.405   0.143   0.018 -0.8348  0.3233 -0.3753
 9953TIP3    H129781   3.358   0.213   0.064 -1.3332  0.4896 -1.1234
 9953TIP3    H229782   3.498   0.167   0.027 -0.9489  0.5553  0.2099
 9954TIP3   OH229783   0.195   2.188   4.501  0.3405 -0.8607 -0.3159
 9954TIP3    H129784   0.226   2.273   4.530 -0.2822 -0.5312 -0.6082
 9954TIP3    H229785   0.124   2.166   4.562  0.5872 -1.2379 -0.1563
 9955TIP3   OH229786   7.466   5.556   6.124 -0.3016  0.0486  0.1159
 9955TIP3    H129787   7.495   5.617   6.192  0.4867 -0.6219  0.4002
 9955TIP3    H229788   7.390   5.512   6.161 -0.3464  0.2440  0.2542
 9956TIP3   OH229789   5.302   6.465   1.590  0.1046  0.1132  0.5160
 9956TIP3    H129790   5.281   6.519   1.514  0.5206  1.1319  1.1023
 9956TIP3    H229791   5.342   6.526   1.652  0.8202 -0.9234  1.1027
 9957TIP3   OH229792   2.372   7.899   4.354 -0.5267 -0.0511 -0.6310
 9957TIP3    H129793   2.352   7.825   4.411 -2.2903  0.8362 -0.0200
 9957TIP3    H229794   2.344   7.976   4.404  0.6617  0.9874 -1.5052
 9958TIP3   OH229795   2.481   6.066   4.657  0.0345 -0.3033  0.8307
 9958TIP3    H129796   2.420   6.139   4.670 -1.6409 -1.6756  1.1348
 9958TIP3    H229797   2.431   6.004   4.604  0.6949 -2.0365  2.1683
 9959TIP3   OH229798   4.195   3.482   6.404  0.1099  0.7902 -0.0417
 9959TIP3    H129799   4.186   3.570   6.367  0.0014  0.3619 -1.0710
 9959TIP3    H229800   4.251   3.494   6.480 -0.1198  1.7925 -0.0124
 9960TIP3   OH229801   6.362   7.385   3.776 -0.3806  0.3927  0.2682
 9960TIP3    H129802   6.349   7.407   3.868  0.2777 -0.0348  0.4750
 9960TIP3    H229803   6.328   7.296   3.767  0.0984  0.2048  0.2455
 9961TIP3   OH229804   0.447   0.885   2.610  0.2570  0.3324 -0.0266
 9961TIP3    H129805   0.402   0.936   2.676  0.8185  0.4802  0.2517
 9961TIP3    H229806   0.494   0.818   2.659  0.3962  0.2241 -0.3030
 9962TIP3   OH229807   3.734   5.411   2.459 -0.2462  0.0094  0.2319
 9962TIP3    H129808   3.702   5.495   2.425  1.1225  0.7788  0.7951
 9962TIP3    H229809   3.673   5.388   2.529  0.3858  1.4513  1.2860
 9963TIP3   OH229810   5.493   5.832   0.179  0.7978  0.2248 -0.0974
 9963TIP3    H129811   5.405   5.814   0.212  1.3431 -3.0139 -0.0118
 9963TIP3    H229812   5.528   5.745   0.158  2.6161  1.6444 -3.7817
 9964TIP3   OH229813   8.512   6.220   4.124  0.0703 -0.6898  0.3636
 9964TIP3    H129814   8.553   6.250   4.043  0.1385 -0.9088  0.3160
 9964TIP3    H229815   8.464   6.296   4.157  1.9792  0.1448  1.3593
 9965TIP3   OH229816   6.611   6.679   5.038 -0.0799 -0.6746 -0.1784
 9965TIP3    H129817   6.642   6.685   4.948  0.2313  0.8282  0.0047
 9965TIP3    H229818   6.523   6.641   5.031 -0.2865 -0.0444 -1.1775
 9966TIP3   OH229819   8.050   4.960   0.385 -0.1539 -0.0189  0.2492
 9966TIP3    H129820   8.089   5.044   0.411 -0.3236  0.2225 -0.2767
 9966TIP3    H229821   8.102   4.931   0.310 -1.6764  0.8572 -1.1968
 9967TIP3   OH229822   0.313   6.138   2.476  0.7051  0.1571 -0.9603
 9967TIP3    H129823   0.351   6.144   2.563 -1.1047 -0.6249 -0.0565
 9967TIP3    H229824   0.244   6.072   2.485 -0.6168  1.2453 -2.5591
 9968TIP3   OH229825   2.998   1.876   6.743  0.2617  0.0831  0.0476
 9968TIP3    H129826   3.016   1.841   6.656 -0.5044  0.5944 -0.3197
 9968TIP3    H229827   3.025   1.968   6.738 -1.8287  0.7243 -0.3455
 9969TIP3   OH229828   7.432   5.747   6.323 -0.0611 -0.6285  0.0391
 9969TIP3    H129829   7.400   5.833   6.351 -0.2363 -0.3483 -0.9847
 9969TIP3    H229830   7.377   5.685   6.370  0.8115 -0.2263  1.6751
 9970TIP3   OH229831   4.344   4.684   0.806 -0.0867 -0.4893  0.0355
 9970TIP3    H129832   4.379   4.724   0.886  2.0006 -1.6426 -0.2272
 9970TIP3    H229833   4.267   4.635   0.835  1.0669 -1.4991  1.5047
 9971TIP3   OH229834   3.514   1.026   6.170 -0.5108  0.7845  0.2971
 9971TIP3    H129835   3.484   1.030   6.080 -1.0807 -0.4459  0.4052
 9971TIP3    H229836   3.609   1.025   6.164 -0.5394 -0.7251 -0.4006
 9972TIP3   OH229837   1.476   7.799   3.892  0.0504 -0.1609  0.3346
 9972TIP3    H129838   1.435   7.880   3.862 -1.3885 -1.1524 -0.5205
 9972TIP3    H229839   1.541   7.780   3.824 -0.0603 -0.0518  0.1950
 9973TIP3   OH229840   1.897   7.980   6.409 -0.3078 -0.0339  0.0730
 9973TIP3    H129841   1.870   7.964   6.499  1.3639  0.8645  0.7677
 9973TIP3    H229842   1.987   7.950   6.405 -0.1593  0.5153 -1.1315
 9974TIP3   OH229843   5.087   7.606   1.786  0.3868  0.4731  0.5079
 9974TIP3    H129844   4.996   7.578   1.793  0.3834  0.7532  2.0318
 9974TIP3    H229845   5.090   7.661   1.708 -0.3269 -1.0219 -0.6151
 9975TIP3   OH229846   2.161   3.748   5.208 -0.4688 -0.4112 -0.2216
 9975TIP3    H129847   2.154   3.811   5.279  0.2014 -0.9293  0.3242
 9975TIP3    H229848   2.142   3.663   5.250 -0.5968 -0.6579 -0.7744
 9976TIP3   OH229849   2.958   6.157   2.036  0.0964  0.6353 -0.4981
 9976TIP3    H129850   3.017   6.185   1.966 -0.0933 -1.5753 -1.6425
 9976TIP3    H229851   3.016   6.112   2.098 -0.3523 -2.8296 -2.3213
 9977TIP3   OH229852   1.592   6.828   6.298 -0.3470 -0.0402  0.4864
 9977TIP3    H129853   1.565   6.788   6.216  0.6777  1.4404 -0.6074
 9977TIP3    H229854   1.683   6.854   6.283  0.0349 -0.2094  2.2759
 9978TIP3   OH229855   0.751   6.335   1.600 -0.3375 -0.4538  0.4533
 9978TIP3    H129856   0.734   6.242   1.610 -1.3126 -0.2604  0.7947
 9978TIP3    H229857   0.846   6.344   1.607 -0.2993 -1.3264  1.2325
 9979TIP3   OH229858   6.652   2.254   0.619 -0.0814 -0.8559  0.4025
 9979TIP3    H129859   6.696   2.175   0.650  0.7892 -0.2773  0.6687
 9979TIP3    H229860   6.718   2.323   0.625 -0.8105 -0.1114  0.1221
 9980TIP3   OH229861   0.145   6.859   6.816  0.0236  0.4553  0.3214
 9980TIP3    H129862   0.220   6.915   6.835 -1.9675  3.4790 -0.0885
 9980TIP3    H229863   0.182   6.770   6.814  3.7278  1.8233 -0.7987
 9981TIP3   OH229864   5.508   3.543   1.808  0.3018  0.2087 -0.0728
 9981TIP3    H129865   5.436   3.482   1.791 -0.8429  1.4677  0.0733
 9981TIP3    H229866   5.579   3.514   1.750 -0.5203 -0.7332 -0.6273
 9982TIP3   OH229867   4.232   5.956   1.677  0.2648 -0.2874 -0.0465
 9982TIP3    H129868   4.301   5.961   1.743  1.3714 -2.6676 -0.9018
 9982TIP3    H229869   4.279   5.937   1.595 -1.2228  0.5636 -1.1460
 9983TIP3   OH229870   4.245   1.680   3.555  0.1646  0.1745  0.6657
 9983TIP3    H129871   4.216   1.642   3.472  0.6638 -1.9606  1.4084
 9983TIP3    H229872   4.284   1.764   3.530 -0.2297 -0.1349 -1.1752
 9984TIP3   OH229873   8.255   6.286   0.784  0.2708 -0.2883  0.0281
 9984TIP3    H129874   8.342   6.272   0.746  1.1006  2.3411  0.6918
 9984TIP3    H229875   8.258   6.240   0.868  0.7678 -0.7951 -0.2593
 9985TIP3   OH229876   8.111   3.554   1.247  1.1018  0.1982  0.1442
 9985TIP3    H129877   8.060   3.472   1.246  1.7679 -0.3884  3.4921
 9985TIP3    H229878   8.179   3.540   1.181  0.0556 -1.1288 -0.7263
 9986TIP3   OH229879   7.823   6.155   0.056 -0.7130 -0.1243  0.0387
 9986TIP3    H129880   7.729   6.170   0.063 -0.5962  0.8089 -0.3043
 9986TIP3    H229881   7.846   6.109   0.136 -1.2609  0.6924  0.6761
 9987TIP3   OH229882   5.976   6.164   6.031  0.2721 -0.1036  0.0216
 9987TIP3    H129883   6.029   6.225   5.980 -1.5020  1.1907 -0.3645
 9987TIP3    H229884   6.010   6.077   6.008  0.9843  0.5703 -1.6331
 9988TIP3   OH229885   0.573   5.305   4.001 -0.3770  0.3795  0.2473
 9988TIP3    H129886   0.654   5.295   4.050  1.1440  1.7492 -1.8361
 9988TIP3    H229887   0.569   5.228   3.944 -0.8353  0.0584  0.7019
 9989TIP3   OH229888   3.290   2.509   3.075  0.3478  0.0471 -0.2654
 9989TIP3    H129889   3.236   2.584   3.050  0.0246 -0.6762 -1.7983
 9989TIP3    H229890   3.265   2.491   3.166 -2.1442 -0.3722 -0.9721
 9990TIP3   OH229891   0.150   2.549   4.424  0.4998 -0.1523 -0.2707
 9990TIP3    H129892   0.085   2.481   4.403  0.0159  0.0789  0.4522
 9990TIP3    H229893   0.175   2.584   4.338 -1.2168  0.5617 -0.5389
 9991TIP3   OH229894   5.041   7.102   1.960  0.3482  0.6413  0.4632
 9991TIP3    H129895   5.062   7.195   1.951  0.1191  0.9917  2.9176
 9991TIP3    H229896   5.125   7.057   1.956  0.4628  0.9253 -0.7184
 9992TIP3   OH229897   2.796   7.971   1.036 -1.1003  0.2413 -0.1272
 9992TIP3    H129898   2.764   8.049   1.082 -1.7505  0.8173 -1.5017
 9992TIP3    H229899   2.847   8.006   0.963  1.7439 -0.6584  1.2838
 9993TIP3   OH229900   8.085   8.139   5.099 -0.6602 -0.3297  0.4092
 9993TIP3    H129901   8.126   8.169   5.180 -0.3594 -1.2647  0.6091
 9993TIP3    H229902   8.157   8.111   5.044 -0.8307  0.7134 -0.3698
 9994TIP3   OH229903   4.412   2.319   5.968 -0.1966  0.3323 -0.1558
 9994TIP3    H129904   4.493   2.293   5.923  0.1956  0.1973  0.5935
 9994TIP3    H229905   4.442   2.344   6.056 -0.8142  1.5117 -0.2665
 9995TIP3   OH229906   6.196   7.978   0.370  0.1801 -0.2334  0.1302
 9995TIP3    H129907   6.185   8.035   0.294 -1.4197 -1.0521 -0.2957
 9995TIP3    H229908   6.242   8.032   0.434  1.3765  0.5341 -1.3314
 9996TIP3   OH229909   6.404   0.141   0.920 -0.4748  0.5645 -0.3258
 9996TIP3    H129910   6.449   0.058   0.936 -0.4155  0.2162 -2.1499
 9996TIP3    H229911   6.451   0.180   0.847 -1.2268  1.6755 -0.2416
 9997TIP3   OH229912   6.505   4.850   6.664  0.0008  0.0911  0.2646
 9997TIP3    H129913   6.473   4.908   6.594  2.0571  0.7437 -0.2035
 9997TIP3    H229914   6.492   4.762   6.630 -0.2884  0.3692 -0.3612
 9998TIP3   OH229915   4.448   0.022   1.168 -0.5429  0.3333 -0.3060
 9998TIP3    H129916   4.539   0.025   1.195 -0.6433 -1.0738  0.2520
 9998TIP3    H229917   4.434   0.105   1.122  1.2701  0.1595 -1.2576
 9999TIP3   OH229918   6.501   5.333   5.577  0.2276 -0.7113  0.3023
 9999TIP3    H129919   6.448   5.253   5.586 -2.2157  0.7656 -0.0168
 9999TIP3    H229920   6.591   5.302   5.575 -0.6609 -3.5424 -0.6211
10000TIP3   OH229921   1.879   3.979   0.527  0.3701 -0.1263  0.4883
10000TIP3    H129922   1.962   4.008   0.489 -0.1491  1.2057  0.3433
10000TIP3    H229923   1.829   3.946   0.453  1.0351 -1.6772  0.6802
10001TIP3   OH229924   5.114   5.328   1.962 -0.0699 -0.5608 -0.0764
10001TIP3    H129925   5.188   5.271   1.937  1.0451  0.4641  0.8001
10001TIP3    H229926   5.128   5.347   2.054  0.2920  2.1396 -0.6204
10002TIP3   OH229927   2.701   3.079   3.298  0.7756  0.7024 -0.0006
10002TIP3    H129928   2.786   3.068   3.342  0.0450 -0.3479  1.2450
10002TIP3    H229929   2.702   3.014   3.228  0.1118 -1.1023  1.5495
10003TIP3   OH229930   5.166   3.038   1.257  0.1100  0.1258  0.3516
10003TIP3    H129931   5.259   3.053   1.236 -0.0231  0.8170  0.2172
10003TIP3    H229932   5.124   3.123   1.241 -0.3555  0.1225  1.4626
10004TIP3   OH229933   0.499   5.025   5.525 -0.0365 -0.4964  0.3457
10004TIP3    H129934   0.408   5.026   5.496 -0.0549 -0.1333  0.4068
10004TIP3    H229935   0.550   5.012   5.445 -0.0736  0.7716  0.0882
10005TIP3   OH229936   0.011   1.636   6.700  0.0943 -0.2647 -0.4169
10005TIP3    H129937   0.088   1.584   6.678  0.0195 -0.4339 -0.2852
10005TIP3    H229938  -0.063   1.584   6.667  0.0424 -0.0681 -0.6085
10006TIP3   OH229939   3.241   2.147   1.512  0.2250 -0.0443  0.3112
10006TIP3    H129940   3.174   2.178   1.572  0.1439 -0.4715  0.4380
10006TIP3    H229941   3.247   2.216   1.445  0.0208  0.2286  0.5761
10007TIP3   OH229942   2.452   1.225   6.379  0.0698  0.7047  0.0707
10007TIP3    H129943   2.497   1.283   6.318 -0.2222 -0.5007 -1.3402
10007TIP3    H229944   2.521   1.169   6.415  0.1521  1.0245  0.4243
10008TIP3   OH229945   8.149   6.403   2.775 -0.0884 -0.1720  0.0984
10008TIP3    H129946   8.200   6.435   2.850  0.6580 -0.1149 -0.4249
10008TIP3    H229947   8.211   6.352   2.724 -0.5952 -0.2214 -0.4767
10009TIP3   OH229948   7.160   5.375   2.830 -0.0049  0.1189  0.4771
10009TIP3    H129949   7.067   5.369   2.808  0.5392  0.2497 -2.2278
10009TIP3    H229950   7.184   5.287   2.858 -0.9265  0.0987  1.2475
10010TIP3   OH229951   7.359   1.789   6.905 -0.7087  0.0691 -0.0131
10010TIP3    H129952   7.403   1.727   6.964 -0.7307 -0.6638 -0.7398
10010TIP3    H229953   7.268   1.759   6.902 -0.4836 -0.5958 -1.2536
10011TIP3   OH229954   4.657   4.163   1.216  0.4621  0.0483 -0.1320
10011TIP3    H129955   4.563   4.171   1.198  0.1780 -0.7880  0.8225
10011TIP3    H229956   4.679   4.075   1.186  0.8986  0.1827 -0.2039
10012TIP3   OH229957   7.131   1.340   5.324  0.4398  0.0684 -0.0756
10012TIP3    H129958   7.200   1.273   5.321  0.4070  0.0494 -0.4661
10012TIP3    H229959   7.134   1.381   5.237 -0.5423 -0.4411 -0.3667
10013TIP3   OH229960   3.296   6.754   2.875  0.4067 -0.3799  0.1593
10013TIP3    H129961   3.336   6.841   2.876  1.2157 -0.5771 -3.0273
10013TIP3    H229962   3.370   6.694   2.885  0.2763 -0.7038 -0.7496
10014TIP3   OH229963   1.594   8.210   6.575  0.0896  0.3979  0.5782
10014TIP3    H129964   1.543   8.186   6.497  1.6540 -0.2338 -0.2902
10014TIP3    H229965   1.662   8.143   6.581  0.9179  1.2964  1.6127
10015TIP3   OH229966   4.220   5.847   0.826 -0.1847  0.0170 -0.1299
10015TIP3    H129967   4.170   5.772   0.793 -0.7004  0.2393  0.1399
10015TIP3    H229968   4.154   5.914   0.844  0.3377  0.8507 -1.1725
10016TIP3   OH229969   0.655   3.472   4.301 -0.4070  0.1237 -0.6845
10016TIP3    H129970   0.613   3.386   4.304 -0.6322  0.2484  2.2797
10016TIP3    H229971   0.749   3.452   4.294 -0.4891 -0.3388 -0.5364
10017TIP3   OH229972   0.532   2.157   6.969 -0.4237 -0.3761 -0.0111
10017TIP3    H129973   0.508   2.097   7.039  2.6481 -1.1178  0.5869
10017TIP3    H229974   0.628   2.156   6.969 -0.1682  4.0420 -0.4217
10018TIP3   OH229975   8.631   7.474   1.184  0.0659  0.4368  0.4761
10018TIP3    H129976   8.649   7.390   1.142  1.2823  2.3429 -3.2630
10018TIP3    H229977   8.709   7.492   1.237  0.8949  0.2207 -0.6330
10019TIP3   OH229978   7.707   4.079   7.027  0.3227  0.2718 -0.3120
10019TIP3    H129979   7.774   4.016   7.052 -0.1255  0.5380  1.7734
10019TIP3    H229980   7.626   4.046   7.067 -0.6212  0.4756 -1.9378
10020TIP3   OH229981   8.151   1.000   6.963  0.3175  0.3351  0.1585
10020TIP3    H129982   8.059   1.016   6.945  0.4216  0.7183 -0.0409
10020TIP3    H229983   8.196   1.025   6.883  0.5576 -0.3006  0.0855
10021TIP3   OH229984   8.376   6.701   4.674 -0.1709 -0.0603 -0.0267
10021TIP3    H129985   8.430   6.627   4.703  0.1207  0.1353 -0.0738
10021TIP3    H229986   8.334   6.669   4.594 -0.9135 -0.5712  0.5455
10022TIP3   OH229987   7.090   1.727   5.483 -0.0990  0.0353 -0.0626
10022TIP3    H129988   7.138   1.735   5.400 -2.6315 -1.9493 -1.8832
10022TIP3    H229989   7.111   1.639   5.514 -1.7677 -0.5160 -0.4177
10023TIP3   OH229990   8.269   3.658   0.474  0.1017  0.1492 -0.3752
10023TIP3    H129991   8.314   3.739   0.449  0.3281 -0.4142 -1.9637
10023TIP3    H229992   8.182   3.667   0.436 -0.0004 -0.1854 -0.2226
10024TIP3   OH229993   0.026   0.465   4.003  0.4693 -0.0010  0.0197
10024TIP3    H129994   0.051   0.382   4.044  0.4204 -0.2119 -0.3729
10024TIP3    H229995   0.072   0.466   3.919  0.3850  0.3196 -0.0259
10025TIP3   OH229996   2.888   0.760   3.649 -0.3151  0.4126  0.3865
10025TIP3    H129997   2.982   0.778   3.641 -0.3510  0.8320  0.8435
10025TIP3    H229998   2.853   0.779   3.562 -0.0589  0.7721  0.3589
10026TIP3   OH229999   5.470   8.022   3.153  1.2230  0.0233 -0.0221
10026TIP3    H130000   5.512   7.939   3.132  0.9868 -0.1030 -0.0043
10026TIP3    H230001   5.498   8.041   3.243  4.1006  1.7107 -1.1364
10027TIP3   OH230002   0.502   4.735   3.805  0.1328 -0.6078 -0.0779
10027TIP3    H130003   0.568   4.788   3.849 -1.2111  1.2446 -0.1453
10027TIP3    H230004   0.525   4.741   3.712 -0.2735  0.3072 -0.1332
10028TIP3   OH230005   5.131   0.713   3.460 -0.1821  0.1746 -0.5481
10028TIP3    H130006   5.075   0.700   3.537 -2.5301  1.0532 -2.0135
10028TIP3    H230007   5.191   0.638   3.462 -0.7719 -0.3112  1.6204
10029TIP3   OH230008   5.310   2.456   4.586  0.2812 -0.1410 -0.3509
10029TIP3    H130009   5.244   2.419   4.645  1.5001 -0.7768  0.6500
10029TIP3    H230010   5.379   2.488   4.644  0.6282  1.0000 -1.3563
10030TIP3   OH230011   0.621   0.923   3.123  0.0046 -0.1598 -0.2862
10030TIP3    H130012   0.596   0.834   3.146 -0.7476  0.3863  1.1611
10030TIP3    H230013   0.698   0.941   3.177  0.7632 -0.2465 -1.3032
10031TIP3   OH230014   3.746   3.618   6.883  0.4789 -0.0083 -0.3243
10031TIP3    H130015   3.807   3.650   6.816  1.2240 -0.7620 -0.0217
10031TIP3    H230016   3.791   3.635   6.966  0.1355 -0.2913 -0.0780
10032TIP3   OH230017   3.289   1.787   4.797 -0.5635  0.1946 -0.8119
10032TIP3    H130018   3.328   1.763   4.881 -0.2334  0.5383 -0.8611
10032TIP3    H230019   3.350   1.850   4.760 -1.1323  0.6824 -0.9313
10033TIP3   OH230020   7.115   4.598   0.784 -0.2934 -0.8915 -0.3691
10033TIP3    H130021   7.208   4.580   0.794 -0.2750 -1.0776 -0.8635
10033TIP3    H230022   7.077   4.515   0.755 -0.6338 -0.8493 -0.0591
10034TIP3   OH230023   5.198   5.164   4.656 -0.2242 -0.3030 -0.1074
10034TIP3    H130024   5.168   5.253   4.639  0.5799 -0.0857 -0.3812
10034TIP3    H230025   5.194   5.120   4.571 -3.2035 -1.3526  0.4336
10035TIP3   OH230026   7.662   2.781   5.155  0.1279 -0.1713  0.0909
10035TIP3    H130027   7.625   2.707   5.107 -0.7663  1.1364 -1.3385
10035TIP3    H230028   7.588   2.840   5.169  0.7168  0.2446  1.6592
10036TIP3   OH230029   7.484   1.936   6.419  0.3271 -0.1139 -0.0752
10036TIP3    H130030   7.420   1.908   6.353 -0.6720  0.0951  0.7797
10036TIP3    H230031   7.555   1.975   6.368 -1.3138  1.8884 -0.9586
10037TIP3   OH230032   4.584   0.125   6.818  0.3235 -0.1640 -0.3797
10037TIP3    H130033   4.552   0.106   6.730  0.3979 -1.4505 -0.1455
10037TIP3    H230034   4.510   0.164   6.863 -0.0295 -0.4562 -0.7043
10038TIP3   OH230035   8.542   6.758   6.186 -0.6807 -0.4615 -0.0735
10038TIP3    H130036   8.568   6.789   6.272 -2.3056 -1.0757  0.6865
10038TIP3    H230037   8.552   6.834   6.129 -0.5273  0.2367  0.8663
10039TIP3   OH230038   6.995   7.830   0.249 -0.3839 -1.0515  0.3022
10039TIP3    H130039   7.072   7.773   0.248 -0.6019 -1.4002  1.4845
10039TIP3    H230040   6.995   7.869   0.336 -2.3301 -2.1784  0.8812
10040TIP3   OH230041   6.074   6.506   1.816  0.3343 -0.2613  0.0043
10040TIP3    H130042   6.129   6.512   1.737  0.6665 -0.4157  0.2195
10040TIP3    H230043   6.018   6.431   1.801 -0.2488  0.2650 -0.4834
10041TIP3   OH230044   1.578   5.211   2.864 -0.1254 -0.5135  0.0829
10041TIP3    H130045   1.667   5.224   2.895 -0.4500  0.0198  0.8270
10041TIP3    H230046   1.586   5.147   2.793  0.9192 -0.0008 -0.2817
10042TIP3   OH230047   3.958   0.946   0.819 -0.3379 -0.7422  0.0306
10042TIP3    H130048   3.976   0.887   0.892  1.7077 -0.4024 -0.1426
10042TIP3    H230049   4.010   1.024   0.838 -2.3465  0.7172 -0.1685
10043TIP3   OH230050   7.228   1.651   5.233 -0.2652  0.0683 -0.1020
10043TIP3    H130051   7.235   1.585   5.163 -0.6457 -1.1964  1.0157
10043TIP3    H230052   7.281   1.724   5.201 -0.9636 -0.1850 -2.0241
10044TIP3   OH230053   0.140   4.832   6.624 -0.1760  0.0924 -0.2087
10044TIP3    H130054   0.151   4.779   6.545  1.2766  0.7301 -0.4791
10044TIP3    H230055   0.143   4.923   6.591 -3.8873  0.4945  0.0495
10045TIP3   OH230056   4.441   0.041   0.574  0.2882 -0.2277  0.0086
10045TIP3    H130057   4.385   0.096   0.521 -1.2028 -0.9065  0.8042
10045TIP3    H230058   4.483  -0.019   0.512 -0.1165  0.0796 -0.5627
10046TIP3   OH230059   7.954   1.347   1.469 -0.1268  0.1969 -0.4388
10046TIP3    H130060   8.015   1.396   1.524  0.6897 -0.8883 -0.3287
10046TIP3    H230061   8.004   1.270   1.442 -1.1399 -0.2259 -1.1596
10047TIP3   OH230062   3.025   1.141   3.887  0.4973  0.2856  0.2530
10047TIP3    H130063   3.064   1.190   3.959 -0.3135 -0.2153  1.0487
10047TIP3    H230064   3.099   1.095   3.847  1.1273  1.4657  0.0273
10048TIP3   OH230065   3.036   4.801   2.217 -0.1158 -0.3996 -0.5921
10048TIP3    H130066   2.998   4.713   2.214  0.8403 -1.0377  2.3287
10048TIP3    H230067   2.966   4.854   2.256 -0.6065  0.1250 -2.1367
10049TIP3   OH230068   2.892   7.006   7.038 -0.2506  0.1871  0.6775
10049TIP3    H130069   2.949   6.939   7.076  0.8639  0.4487 -0.4800
10049TIP3    H230070   2.921   7.087   7.079 -1.5275  0.0133  1.9961
10050TIP3   OH230071   1.196   2.101   3.806  0.3930 -0.3795 -0.7294
10050TIP3    H130072   1.277   2.072   3.847  0.3768  1.2566  0.6042
10050TIP3    H230073   1.161   2.024   3.762  1.6417 -1.6273  0.3899
10051TIP3   OH230074   2.051   7.487   0.258  0.1880  0.0825  0.0594
10051TIP3    H130075   2.078   7.400   0.229  2.2764  1.1311 -1.4323
10051TIP3    H230076   2.088   7.495   0.346 -1.9272 -1.2798  1.1621
10052TIP3   OH230077   8.600   7.481   2.137 -0.7607 -0.2766 -0.2125
10052TIP3    H130078   8.580   7.467   2.229 -0.1416  0.6371  0.0857
10052TIP3    H230079   8.521   7.519   2.100 -0.9961 -0.6083 -0.0529
10053TIP3   OH230080   8.079   5.279   0.701  0.2494  0.5484  0.6558
10053TIP3    H130081   8.013   5.262   0.768 -0.9782  0.7290 -0.4605
10053TIP3    H230082   8.044   5.352   0.650 -0.0089 -1.0404 -1.5926
10054TIP3   OH230083   1.056   7.118   6.302  0.1684  0.5871  0.1535
10054TIP3    H130084   1.108   7.051   6.346  0.5186  1.7112  1.5304
10054TIP3    H230085   1.056   7.092   6.210  0.1063 -1.4059  0.6648
10055TIP3   OH230086   3.464   3.610   1.500  0.0940  0.3533  0.2320
10055TIP3    H130087   3.496   3.640   1.415 -0.2401  0.1093  0.0190
10055TIP3    H230088   3.375   3.578   1.482  1.0964 -2.5935  0.0477
10056TIP3   OH230089   4.167   2.177   5.978 -0.1596 -0.2343 -0.4100
10056TIP3    H130090   4.255   2.213   5.963  0.2918 -1.4270 -0.7870
10056TIP3    H230091   4.114   2.212   5.906  0.4867 -0.9767 -1.2816
10057TIP3   OH230092   6.595   5.635   2.967  0.0906 -0.0214 -0.4953
10057TIP3    H130093   6.659   5.598   2.906 -0.6945 -3.8976  0.7752
10057TIP3    H230094   6.646   5.661   3.044  0.4813  0.1563 -0.8094
10058TIP3   OH230095   7.886   1.069   0.096 -0.4978 -0.1446  0.5531
10058TIP3    H130096   7.874   1.138   0.161  0.8890 -1.5955  2.4620
10058TIP3    H230097   7.822   1.001   0.121 -1.9846  0.4625 -1.4121
10059TIP3   OH230098   4.058   6.172   1.707  0.1299  0.1886  0.0262
10059TIP3    H130099   4.112   6.094   1.711  0.2991  0.2532 -0.8104
10059TIP3    H230100   3.973   6.141   1.673 -0.0216  0.2558  0.3429
10060TIP3   OH230101   6.531   3.139   2.224 -0.0769 -0.4217 -0.4974
10060TIP3    H130102   6.541   3.060   2.172 -0.6591 -1.0257  0.2908
10060TIP3    H230103   6.569   3.209   2.170  0.1237 -1.1753 -1.3390
10061TIP3   OH230104   4.477   5.495   4.319 -0.3694  0.0451 -0.4892
10061TIP3    H130105   4.403   5.519   4.376  0.0876 -0.9436  0.5544
10061TIP3    H230106   4.443   5.426   4.263 -0.4799  0.1959 -0.6097
10062TIP3   OH230107   2.674   5.008   6.446  0.1147  0.3030 -0.5639
10062TIP3    H130108   2.601   5.068   6.431  0.7196  1.3017  0.3736
10062TIP3    H230109   2.662   4.976   6.535  1.7961  1.9506  0.3310
10063TIP3   OH230110   7.037   6.745   6.926 -0.1260 -0.2988 -0.2200
10063TIP3    H130111   6.984   6.739   7.005 -1.2976 -0.6597 -0.9975
10063TIP3    H230112   7.089   6.665   6.926  1.7071  0.8099  1.3889
10064TIP3   OH230113   0.658   7.575   3.321 -0.0510  0.1259  0.1637
10064TIP3    H130114   0.572   7.610   3.302 -0.0611  1.0175  1.7078
10064TIP3    H230115   0.717   7.650   3.315  0.7459 -0.5899 -1.5029
10065TIP3   OH230116   7.395   0.685   6.661  0.3668  0.4863 -0.0077
10065TIP3    H130117   7.304   0.661   6.648  0.2220  1.3887 -0.7182
10065TIP3    H230118   7.445   0.619   6.612 -0.0025  1.2439 -1.4414
10066TIP3   OH230119   7.545   7.650   2.253  0.1023  0.3853  0.1019
10066TIP3    H130120   7.560   7.570   2.303  1.1536  1.2878  1.3203
10066TIP3    H230121   7.534   7.718   2.320 -0.7149  1.2723 -0.8960
10067TIP3   OH230122   0.388   6.092   3.854 -0.4680  0.0838 -0.0609
10067TIP3    H130123   0.380   6.099   3.759  0.2347  0.5492 -0.0993
10067TIP3    H230124   0.482   6.082   3.869 -0.5376  0.3546  0.6001
10068TIP3   OH230125   1.119   6.333   0.949 -0.4493 -0.0324  0.3520
10068TIP3    H130126   1.057   6.266   0.978 -0.3573 -0.1569  0.2625
10068TIP3    H230127   1.096   6.411   1.000 -1.4529  0.2784 -0.5318
10069TIP3   OH230128   8.503   2.195   0.682 -0.2941  0.3662  0.3511
10069TIP3    H130129   8.409   2.187   0.696 -0.4143 -2.0458 -1.2361
10069TIP3    H230130   8.510   2.236   0.595  0.1565  0.7543  0.5643
10070TIP3   OH230131   3.161   4.763   2.874  0.2500 -0.3029 -0.4392
10070TIP3    H130132   3.143   4.759   2.968  1.7426  1.2904 -0.0375
10070TIP3    H230133   3.143   4.854   2.850 -0.9017 -0.8895 -1.8906
10071TIP3   OH230134   4.495   5.772   2.378  0.2230  0.1021  0.2036
10071TIP3    H130135   4.531   5.801   2.294 -1.2371  1.4141 -0.0207
10071TIP3    H230136   4.571   5.755   2.432  1.1869  0.2164 -1.0669
10072TIP3   OH230137   5.409   7.130   0.913  0.9696  0.2216 -0.2883
10072TIP3    H130138   5.405   7.107   1.006 -1.2761  1.7040  0.0757
10072TIP3    H230139   5.502   7.134   0.893  1.5004 -1.1997  1.5989
10073TIP3   OH230140   6.627   4.323   1.398 -0.1368  0.2114 -0.2455
10073TIP3    H130141   6.615   4.230   1.380  0.2851  0.5269 -2.5006
10073TIP3    H230142   6.705   4.328   1.453  0.4125 -0.7195 -0.9227
10074TIP3   OH230143   7.578   0.846   1.809  0.0810  0.4046  0.2035
10074TIP3    H130144   7.603   0.872   1.898 -0.8303  0.3567  0.4841
10074TIP3    H230145   7.523   0.918   1.778  2.6664  1.8621 -1.4489
10075TIP3   OH230146   0.000   6.161   1.260 -0.3476 -0.4189 -0.7547
10075TIP3    H130147   0.041   6.098   1.320 -1.0202 -1.1591 -1.0475
10075TIP3    H230148   0.071   6.220   1.235 -0.0917  0.0519  0.9251
10076TIP3   OH230149   6.752   6.178   4.982 -0.4772 -0.2008 -0.4061
10076TIP3    H130150   6.693   6.234   5.032  2.9509  2.5260  1.0475
10076TIP3    H230151   6.759   6.222   4.896 -2.0697 -1.7389 -1.3871
10077TIP3   OH230152   2.974   3.852   5.175  0.7711  0.0950  0.9605
10077TIP3    H130153   3.030   3.909   5.228 -0.5588  0.8773  1.5896
10077TIP3    H230154   2.963   3.773   5.227  2.0057 -0.4569  0.4232
10078TIP3   OH230155   1.292   5.117   1.180 -0.0131 -0.4348  0.0209
10078TIP3    H130156   1.252   5.116   1.267 -0.0597  0.2056  0.0130
10078TIP3    H230157   1.359   5.049   1.184 -0.5498 -0.9589  0.2981
10079TIP3   OH230158   5.898   3.349   1.182  0.5568 -0.0347  0.2460
10079TIP3    H130159   5.971   3.354   1.120  1.5074  4.1195  1.3898
10079TIP3    H230160   5.820   3.356   1.127  1.2811  1.2978 -0.6590
10080TIP3   OH230161   6.432   1.434   4.072 -0.4046  0.0199 -0.3101
10080TIP3    H130162   6.363   1.429   4.005 -0.4932  1.1992 -0.3225
10080TIP3    H230163   6.495   1.496   4.036  1.5056 -2.1738 -1.0286
10081TIP3   OH230164   5.413   7.545   0.164  0.5651 -0.0593 -0.0367
10081TIP3    H130165   5.348   7.605   0.201 -0.1885  1.5345 -3.4786
10081TIP3    H230166   5.461   7.511   0.239 -3.7629 -0.8358  2.6641
10082TIP3   OH230167   4.587   6.253   4.359  0.2409 -0.0339 -0.3880
10082TIP3    H130168   4.660   6.293   4.407  0.1531  1.5945 -1.5360
10082TIP3    H230169   4.617   6.252   4.268 -0.4836 -0.9818 -0.6207
10083TIP3   OH230170   1.275   3.002   0.456 -0.2411 -0.4908  0.0253
10083TIP3    H130171   1.264   2.913   0.489  2.7406 -0.2540  2.0982
10083TIP3    H230172   1.205   3.052   0.499  0.6307 -1.1168  2.3273
10084TIP3   OH230173   7.419   4.985   2.869  0.1897 -0.6732 -0.7482
10084TIP3    H130174   7.403   4.923   2.798 -0.3147 -0.7559 -0.5686
10084TIP3    H230175   7.514   4.998   2.869  0.4833 -2.5340  0.1013
10085TIP3   OH230176   7.198   6.065   0.905 -0.0879  0.2363 -0.3410
10085TIP3    H130177   7.196   6.144   0.960  0.0724 -0.0870  0.1308
10085TIP3    H230178   7.131   6.082   0.838 -0.9246  0.2543  0.4741
10086TIP3   OH230179   8.099   4.808   5.038 -0.5103  0.3908 -0.2644
10086TIP3    H130180   8.047   4.844   5.110 -1.0076 -0.2977 -0.2651
10086TIP3    H230181   8.035   4.788   4.970 -0.5235 -1.9921  0.3389
10087TIP3   OH230182   3.769   6.880   0.397  0.1256  0.0153  0.5868
10087TIP3    H130183   3.738   6.815   0.460 -1.9994  1.6515  1.3505
10087TIP3    H230184   3.824   6.940   0.448  1.0938 -0.4662  0.1415
10088TIP3   OH230185   3.515   6.210   1.836 -0.2181  0.0389 -0.3001
10088TIP3    H130186   3.561   6.292   1.852  0.4101 -0.6878  2.1013
10088TIP3    H230187   3.429   6.223   1.877 -0.6469 -0.0178 -1.1697
10089TIP3   OH230188   2.916   2.537   0.521  0.3747  0.0182 -0.5898
10089TIP3    H130189   2.892   2.594   0.448  1.1427 -0.9085 -1.6057
10089TIP3    H230190   2.986   2.482   0.486  0.4231 -0.7856  0.7062
10090TIP3   OH230191   1.819   6.668   6.752  0.6981 -0.1229 -0.5607
10090TIP3    H130192   1.877   6.649   6.826  0.7856 -1.6060 -0.9855
10090TIP3    H230193   1.874   6.714   6.689  1.0541 -0.3070 -0.3844
10091TIP3   OH230194   3.465   4.232   3.051 -0.3592  0.1129 -0.5428
10091TIP3    H130195   3.528   4.236   2.979  0.0139 -1.9368 -0.3757
10091TIP3    H230196   3.444   4.139   3.060 -0.1633  0.2607  2.1888
10092TIP3   OH230197   0.038   4.661   2.726  0.0614 -0.0901 -0.2510
10092TIP3    H130198   0.048   4.755   2.712 -0.6439  0.1074  0.4555
10092TIP3    H230199  -0.036   4.636   2.671  0.2543 -0.2305 -0.4453
10093TIP3   OH230200   7.987   1.976   4.221 -0.2236  0.3925 -0.1999
10093TIP3    H130201   7.894   1.991   4.235 -0.1042  1.6986 -0.7263
10093TIP3    H230202   8.030   2.053   4.259  0.5432  0.4712 -1.1811
10094TIP3   OH230203   5.554   3.235   2.879 -0.1997  0.8644 -0.4966
10094TIP3    H130204   5.585   3.213   2.791  2.3860 -0.9935  0.7359
10094TIP3    H230205   5.628   3.280   2.920 -0.5675 -0.1159  1.3419
10095TIP3   OH230206   4.090   0.755   0.958 -0.5315 -0.2223 -0.1496
10095TIP3    H130207   4.126   0.737   1.045 -1.5791  0.2704  0.4085
10095TIP3    H230208   4.060   0.670   0.926 -1.2838 -0.2168  0.5155
10096TIP3   OH230209   2.682   1.333   2.408 -0.1918 -1.0827 -0.0245
10096TIP3    H130210   2.609   1.388   2.379 -0.2412 -1.2960 -0.2975
10096TIP3    H230211   2.654   1.301   2.494  0.2810  0.1643  0.6270
10097TIP3   OH230212   7.216   5.049   1.674  0.6793  0.1917 -0.8905
10097TIP3    H130213   7.232   5.135   1.714  1.2993  0.1186 -0.9660
10097TIP3    H230214   7.132   5.059   1.630  0.6378  0.6927 -0.7104
10098TIP3   OH230215   6.057   0.141   1.527  0.3817  0.0583  0.3322
10098TIP3    H130216   6.014   0.057   1.541 -0.5563  0.5990  0.7799
10098TIP3    H230217   6.150   0.120   1.520  0.2190 -0.9410  1.0967
10099TIP3   OH230218   1.150   0.412   3.856 -0.1115 -0.0572  0.3013
10099TIP3    H130219   1.101   0.468   3.797 -0.9834  0.1168  1.1547
10099TIP3    H230220   1.238   0.449   3.858 -0.3289  0.4852 -0.1606
10100TIP3   OH230221   7.859   1.797   2.183  0.0689 -0.0912 -0.1526
10100TIP3    H130222   7.773   1.778   2.220  1.1203 -1.0949  1.9467
10100TIP3    H230223   7.884   1.718   2.136 -0.2755  0.3338 -1.0803
10101TIP3   OH230224   7.765   3.099   5.975 -0.3492 -0.5506  0.4522
10101TIP3    H130225   7.748   3.015   6.018 -0.2597  0.0633  1.7472
10101TIP3    H230226   7.838   3.136   6.024  0.1166 -0.0538 -0.5979
10102TIP3   OH230227   0.226   1.131   0.216 -0.2410 -0.1360  0.4816
10102TIP3    H130228   0.132   1.119   0.207 -0.0868 -0.8013 -0.3999
10102TIP3    H230229   0.245   1.109   0.308 -1.0901  1.1476  0.9833
10103TIP3   OH230230   8.342   7.869   1.932  0.0392 -0.1461 -0.2675
10103TIP3    H130231   8.316   7.949   1.977  0.7314  0.5488 -1.0591
10103TIP3    H230232   8.352   7.804   2.002  2.8668  1.3677  0.9085
10104TIP3   OH230233   0.551   1.198   2.628 -0.4585 -0.1064  0.4871
10104TIP3    H130234   0.485   1.214   2.695  0.0506 -0.1797  1.0133
10104TIP3    H230235   0.634   1.213   2.672 -0.1428  1.1620 -0.4864
10105TIP3   OH230236  -0.021   1.090   5.531  0.3033  0.1625 -0.0946
10105TIP3    H130237   0.018   1.130   5.609  0.8523 -0.2309 -0.1573
10105TIP3    H230238   0.037   1.116   5.460 -0.2516  0.5997 -0.3929
10106TIP3   OH230239   1.566   2.945   6.453  0.3629  0.4668 -0.1308
10106TIP3    H130240   1.538   2.856   6.473  0.6059  0.5337  0.5510
10106TIP3    H230241   1.592   2.981   6.538 -0.7634  1.5459 -0.2205
10107TIP3   OH230242   0.167   8.110   6.792  0.4558 -0.2356 -0.0381
10107TIP3    H130243   0.232   8.048   6.759 -0.6739 -2.0195  0.8849
10107TIP3    H230244   0.101   8.054   6.834 -1.5094  1.5114 -0.6689
10108TIP3   OH230245   1.446   7.250   3.515  0.1234  0.3132  0.0747
10108TIP3    H130246   1.476   7.164   3.483 -0.9389 -0.5181  1.2396
10108TIP3    H230247   1.361   7.263   3.472 -0.7972 -0.3061  1.6413
10109TIP3   OH230248   1.278   5.882   1.939  0.4328 -0.6168  0.6200
10109TIP3    H130249   1.335   5.852   2.010  0.5467 -0.7873  0.4569
10109TIP3    H230250   1.303   5.974   1.927  0.5376 -0.6362  0.6813
10110TIP3   OH230251   5.235   0.270   5.273 -0.5764  0.4553 -0.5477
10110TIP3    H130252   5.202   0.205   5.335  0.9197  1.9386  1.9443
10110TIP3    H230253   5.157   0.320   5.248 -0.9648  1.2684  1.9849
10111TIP3   OH230254   7.612   7.336   2.780  1.0111  0.6153 -0.7997
10111TIP3    H130255   7.520   7.364   2.780  1.1827  1.2759  0.7412
10111TIP3    H230256   7.608   7.240   2.770  0.2595  0.7643 -2.3279
10112TIP3   OH230257   3.882   2.516   4.534  0.2190  0.0816  0.3353
10112TIP3    H130258   3.850   2.567   4.609 -0.3456  0.1129  0.0760
10112TIP3    H230259   3.948   2.457   4.572  0.9064  1.0060  0.6346
10113TIP3   OH230260   1.092   2.548   3.884 -0.0142  0.3425 -0.4232
10113TIP3    H130261   1.057   2.521   3.969 -2.3655  0.8365 -1.1681
10113TIP3    H230262   1.072   2.474   3.826  0.1557  0.6627 -0.8911
10114TIP3   OH230263   5.156   5.722   2.254 -0.4752  0.5463 -0.5735
10114TIP3    H130264   5.174   5.814   2.271  0.0317  0.6074 -1.4139
10114TIP3    H230265   5.099   5.722   2.177 -2.5729  0.2671  0.8759
10115TIP3   OH230266   3.227   6.951   7.040  0.1242  0.3857  0.5163
10115TIP3    H130267   3.166   6.878   7.052  1.6831 -0.9116  1.0112
10115TIP3    H230268   3.257   6.972   7.128  0.9958  0.4193  0.2211
10116TIP3   OH230269   8.539   5.014   0.417  0.6370 -0.2470 -0.8239
10116TIP3    H130270   8.526   5.100   0.377 -0.6661 -0.0946 -0.1539
10116TIP3    H230271   8.496   4.953   0.357  0.1698 -0.2190 -0.5303
10117TIP3   OH230272   8.093   8.005   3.927 -0.4074  0.3978 -0.2127
10117TIP3    H130273   8.168   8.033   3.875 -0.6248  1.3336 -0.0314
10117TIP3    H230274   8.028   8.074   3.916 -0.9287  0.0002  0.2977
10118TIP3   OH230275   8.225   4.369   3.891 -0.1354 -0.3014  0.0834
10118TIP3    H130276   8.170   4.441   3.923  0.7480 -0.1526  1.3551
10118TIP3    H230277   8.212   4.298   3.954 -1.3107 -1.4492 -1.3834
10119TIP3   OH230278   6.750   7.370   2.153  0.3634  0.5166  0.4321
10119TIP3    H130279   6.793   7.361   2.238  1.6196 -0.1555 -0.2411
10119TIP3    H230280   6.776   7.456   2.122  2.0661 -0.2445 -0.3797
10120TIP3   OH230281   2.536   3.460   3.282  0.1062  1.0353 -0.3139
10120TIP3    H130282   2.469   3.490   3.220  0.4123  0.1373 -1.1098
10120TIP3    H230283   2.568   3.540   3.324  0.4963  1.7567 -1.9336
10121TIP3   OH230284   2.997   2.682   5.996 -0.5258 -1.3805  0.1852
10121TIP3    H130285   2.969   2.592   6.007  2.3703 -2.2990  0.8454
10121TIP3    H230286   2.950   2.731   6.064  0.8671 -3.1731  2.5901
10122TIP3   OH230287   3.083   6.255   0.488  0.3722  0.2810 -0.1422
10122TIP3    H130288   3.146   6.325   0.474  0.0132  1.9747  4.7612
10122TIP3    H230289   3.136   6.176   0.495  1.1612  0.5702 -2.0970
10123TIP3   OH230290   4.018   0.898   6.538  0.0801 -0.0332  0.2496
10123TIP3    H130291   4.084   0.958   6.505 -1.0980  1.2532  0.1316
10123TIP3    H230292   3.935   0.931   6.501 -0.7858 -0.8380  1.3903
10124TIP3   OH230293   4.272   6.486   1.336 -0.5441 -0.4998  0.7399
10124TIP3    H130294   4.211   6.429   1.382  0.3929 -0.6877  1.8081
10124TIP3    H230295   4.342   6.427   1.307 -1.8016 -0.6735 -2.3422
10125TIP3   OH230296   5.542   7.268   4.792  0.5007  0.0257 -0.6731
10125TIP3    H130297   5.585   7.197   4.841 -0.9942  0.1669  0.9158
10125TIP3    H230298   5.612   7.332   4.777  1.4441 -0.9237 -0.4657
10126TIP3   OH230299   3.913   6.575   4.584  0.5135  0.1549  0.3731
10126TIP3    H130300   3.887   6.658   4.625  1.2050  0.3022  0.5354
10126TIP3    H230301   3.885   6.583   4.493 -0.9090 -0.1138  0.7574
10127TIP3   OH230302   8.211   4.973   2.740 -0.2212 -0.2767  0.3795
10127TIP3    H130303   8.143   5.024   2.696  0.2342  0.4435  0.4846
10127TIP3    H230304   8.167   4.893   2.768 -0.8960 -0.0516 -0.0126
10128TIP3   OH230305   8.041   7.782   0.468  0.0876 -0.0815 -0.1660
10128TIP3    H130306   7.977   7.833   0.419 -0.3429  0.4189  0.8876
10128TIP3    H230307   8.116   7.841   0.477  0.5030 -0.4794 -0.9468
10129TIP3   OH230308   5.618   4.024   5.881 -0.1175 -0.7912  0.0718
10129TIP3    H130309   5.625   4.049   5.789  1.0405 -1.8146 -0.1399
10129TIP3    H230310   5.580   3.936   5.880  0.6755 -1.1453  0.5258
10130TIP3   OH230311   6.550   6.941   4.910 -0.2408 -0.0531  0.5995
10130TIP3    H130312   6.558   6.851   4.878  1.0987  0.0811  0.4914
10130TIP3    H230313   6.640   6.967   4.930 -0.5461  1.4325  0.1602
10131TIP3   OH230314   2.473   1.922   5.533  0.0011 -0.3237  0.3967
10131TIP3    H130315   2.453   1.918   5.627 -0.1098 -0.2265  0.3774
10131TIP3    H230316   2.526   2.001   5.523  1.2586 -1.1072  0.6053
10132TIP3   OH230317   2.562   3.062   4.597  0.0857 -0.0531  0.0504
10132TIP3    H130318   2.573   3.083   4.505  2.5697 -0.9876  0.0551
10132TIP3    H230319   2.528   2.972   4.598 -0.7822  0.2703  0.0573
10133TIP3   OH230320   0.901   7.895   1.829  0.2979  0.1264 -0.3486
10133TIP3    H130321   0.882   7.832   1.760  0.4306 -0.7285  0.3703
10133TIP3    H230322   0.994   7.915   1.819  0.2025  0.3783 -0.7187
10134TIP3   OH230323   8.627   2.381   2.826  0.1154  0.7289  0.0964
10134TIP3    H130324   8.655   2.471   2.815  1.0086  0.4871  0.3635
10134TIP3    H230325   8.538   2.388   2.861  0.2780  1.4987  0.3727
10135TIP3   OH230326   2.525  -0.022   1.779 -0.5429 -0.2106  0.2052
10135TIP3    H130327   2.567  -0.024   1.865  0.9077 -0.0209 -0.4648
10135TIP3    H230328   2.532   0.069   1.751  1.9232 -0.7947 -1.4244
10136TIP3   OH230329   7.582   7.589   1.088  0.1184  0.0724  0.3682
10136TIP3    H130330   7.665   7.628   1.062  0.5747 -0.5219  0.8800
10136TIP3    H230331   7.524   7.602   1.013  0.9152 -0.1928 -0.3093
10137TIP3   OH230332   0.225   4.771   3.281  0.3412  0.8322  0.6284
10137TIP3    H130333   0.252   4.851   3.236  1.0478  0.5749  0.5703
10137TIP3    H230334   0.273   4.772   3.363 -0.0265  0.7091  0.8461
10138TIP3   OH230335   1.150   6.395   5.246 -0.5577 -0.0413 -0.4893
10138TIP3    H130336   1.138   6.303   5.224  0.9940 -0.8060  1.5633
10138TIP3    H230337   1.130   6.401   5.340 -1.5827  1.9382 -0.7589
10139TIP3   OH230338   2.771   4.160   4.190 -0.3767  0.3856 -0.0695
10139TIP3    H130339   2.851   4.138   4.143 -0.3052  0.3384  0.0729
10139TIP3    H230340   2.710   4.188   4.122 -0.0739  0.9161 -0.1277
10140TIP3   OH230341  -0.004   0.397   1.699 -0.4902 -0.2763  0.4998
10140TIP3    H130342  -0.026   0.475   1.748 -0.6078 -1.3743  2.2829
10140TIP3    H230343   0.088   0.379   1.721 -0.4562 -0.6319  0.0916
10141TIP3   OH230344   6.556   7.847   5.031  0.1142  0.2477  0.1520
10141TIP3    H130345   6.473   7.804   5.050  1.4324 -1.9163  1.4542
10141TIP3    H230346   6.605   7.783   4.979  1.8353  0.4524  1.4185
10142TIP3   OH230347   2.209   1.921   6.030 -0.5968 -0.0830 -0.2999
10142TIP3    H130348   2.270   1.926   6.104  0.3747  0.9988 -1.1525
10142TIP3    H230349   2.156   2.000   6.037  0.3249  0.6695 -1.4338
10143TIP3   OH230350   2.794   6.083   3.079  0.1121  0.2443  0.4174
10143TIP3    H130351   2.716   6.099   3.026 -1.1799 -2.0922  1.4627
10143TIP3    H230352   2.819   5.993   3.058  1.2377  0.2280  1.6887
10144TIP3   OH230353   3.998   4.455   2.403 -0.1178 -0.2112 -0.0877
10144TIP3    H130354   4.024   4.450   2.310 -0.3502 -0.0250 -0.1623
10144TIP3    H230355   3.909   4.422   2.405 -0.7330  1.3719 -0.1918
10145TIP3   OH230356   4.715   3.386   5.593 -0.1995 -0.1760  0.0173
10145TIP3    H130357   4.660   3.387   5.515  0.0064  2.0402 -0.1658
10145TIP3    H230358   4.805   3.393   5.559 -0.1777  2.8521  0.3547
10146TIP3   OH230359   0.449   7.970   4.627  0.4140  0.8402  0.2677
10146TIP3    H130360   0.498   7.915   4.688  0.7196  0.4142 -0.3499
10146TIP3    H230361   0.448   8.057   4.668  2.5574  1.1169 -0.1557
10147TIP3   OH230362   4.719   7.297   0.683  0.4422 -0.0147  0.4728
10147TIP3    H130363   4.675   7.231   0.631 -1.0814  1.5353 -0.2766
10147TIP3    H230364   4.812   7.278   0.672  0.0571 -1.4731 -0.4488
10148TIP3   OH230365   7.049   0.593   1.857  0.1362  0.1336 -0.1654
10148TIP3    H130366   7.139   0.623   1.848  0.6984 -0.9302  1.4482
10148TIP3    H230367   7.056   0.497   1.861 -0.9842  0.0725  0.7830
10149TIP3   OH230368   4.039   0.603   3.634  0.3924  0.2643  0.5629
10149TIP3    H130369   4.019   0.650   3.553 -0.2369 -0.3095  0.3782
10149TIP3    H230370   4.053   0.672   3.699  1.4139  0.7479 -0.1409
10150TIP3   OH230371   2.397   3.246   1.856  0.0519 -0.7990  0.5593
10150TIP3    H130372   2.380   3.330   1.813 -3.2358 -0.8175  1.5492
10150TIP3    H230373   2.492   3.235   1.850  0.2321  1.1226 -2.9646
10151TIP3   OH230374   2.679   6.695   6.689  0.6807  0.1898  0.7055
10151TIP3    H130375   2.632   6.630   6.741  2.2430 -1.8744 -0.3054
10151TIP3    H230376   2.621   6.771   6.687 -0.9697 -0.9475  2.4435
10152TIP3   OH230377   8.003   6.988   0.556  0.1604  0.0969 -0.4400
10152TIP3    H130378   8.021   7.073   0.516 -0.1006 -0.8217 -2.6890
10152TIP3    H230379   7.962   6.937   0.486 -2.2052 -1.0391  1.6100
10153TIP3   OH230380   6.535   5.190   0.128 -0.1569  0.1979 -0.0782
10153TIP3    H130381   6.472   5.119   0.144 -0.1232 -0.2202 -1.6009
10153TIP3    H230382   6.599   5.151   0.069  0.4301  1.2184 -0.1269
10154TIP3   OH230383   2.894   1.564   3.938  0.0794 -0.0555  0.1225
10154TIP3    H130384   2.915   1.640   3.884  1.1778 -0.0507  0.5419
10154TIP3    H230385   2.958   1.565   4.008 -1.0659 -0.3078  1.2109
10155TIP3   OH230386   6.734   6.609   0.215 -0.0154  0.2002  0.1832
10155TIP3    H130387   6.648   6.651   0.214 -0.7202 -1.1588 -1.7508
10155TIP3    H230388   6.743   6.569   0.129  2.6576  0.4229  0.2589
10156TIP3   OH230389   3.706   2.815   4.311 -0.7954 -0.1198 -0.1548
10156TIP3    H130390   3.677   2.853   4.394 -0.5175  0.5784 -0.3645
10156TIP3    H230391   3.759   2.884   4.271 -1.6371 -0.1146 -1.3113
10157TIP3   OH230392   5.002   1.260   1.170  0.1271  0.1870  0.3268
10157TIP3    H130393   5.002   1.233   1.078 -0.1617  2.5864 -0.4714
10157TIP3    H230394   4.961   1.188   1.217  1.3546 -1.6251 -1.2357
10158TIP3   OH230395   3.477   5.379   2.022  0.0302 -0.7092  0.6717
10158TIP3    H130396   3.531   5.446   1.980 -0.7702  0.3683  1.3186
10158TIP3    H230397   3.412   5.355   1.955 -0.4189  0.0343  0.8357
10159TIP3   OH230398   0.034   6.284   5.983 -0.1701  0.4263  0.3782
10159TIP3    H130399   0.048   6.357   6.044  1.1959  1.4392 -1.0496
10159TIP3    H230400  -0.046   6.308   5.936 -0.8300 -0.0143  1.2247
10160TIP3   OH230401   2.514   2.732   6.853 -0.1355  0.4102 -0.1536
10160TIP3    H130402   2.587   2.741   6.914  0.7589 -2.1428 -0.7498
10160TIP3    H230403   2.516   2.641   6.826 -3.6505  0.2182 -0.1440
10161TIP3   OH230404   2.572   4.510   4.370  0.5596 -0.6270  0.3355
10161TIP3    H130405   2.509   4.580   4.389  1.4579  0.2790  0.0501
10161TIP3    H230406   2.526   4.429   4.393 -0.3411  0.0840  1.0824
10162TIP3   OH230407   8.126   3.048   0.813  0.5814 -0.2312 -0.2994
10162TIP3    H130408   8.046   3.087   0.776  0.9644 -1.4514 -2.6578
10162TIP3    H230409   8.095   2.983   0.875 -0.4208 -1.6528 -2.1717
10163TIP3   OH230410   1.221   1.685   3.723  0.0532  0.1170  0.1114
10163TIP3    H130411   1.254   1.722   3.805 -0.6416 -1.6287  1.2210
10163TIP3    H230412   1.147   1.631   3.748 -1.0853  0.6512 -1.8582
10164TIP3   OH230413   6.539   0.899   5.051 -0.6576  0.2492  0.1772
10164TIP3    H130414   6.511   0.817   5.010 -0.1366 -0.9580  2.1195
10164TIP3    H230415   6.548   0.960   4.978 -0.8359 -1.4717 -1.3616
10165TIP3   OH230416   3.058   5.694   6.862 -0.4652  0.1842 -0.3102
10165TIP3    H130417   3.135   5.699   6.919  0.8135 -0.6580 -1.8842
10165TIP3    H230418   3.027   5.604   6.871  0.3770 -0.2711 -1.6738
10166TIP3   OH230419   6.395   4.439   3.841 -0.1275 -0.7767 -0.2243
10166TIP3    H130420   6.477   4.444   3.792 -0.6601  0.0804 -1.0767
10166TIP3    H230421   6.379   4.345   3.852  0.9811 -0.9500  0.0005
10167TIP3   OH230422   8.007   5.327   4.063 -0.4259 -0.4943  0.4981
10167TIP3    H130423   7.947   5.353   3.993  0.5404  0.1000 -0.1398
10167TIP3    H230424   7.985   5.386   4.136 -0.4037 -0.0495  0.1538
10168TIP3   OH230425   0.846   5.442   4.304  0.8599 -0.8874 -0.4307
10168TIP3    H130426   0.895   5.519   4.332 -0.6445  0.6839 -1.9304
10168TIP3    H230427   0.786   5.423   4.376  1.5106 -0.9343  0.1080
10169TIP3   OH230428   5.176   7.221   6.414  0.0219  0.6560 -0.2277
10169TIP3    H130429   5.144   7.227   6.324  3.3482 -0.3421 -1.6380
10169TIP3    H230430   5.217   7.306   6.431  0.0322  0.5982  0.0444
10170TIP3   OH230431   1.310   0.111   2.515 -0.0978 -0.1592  0.3196
10170TIP3    H130432   1.402   0.111   2.539 -0.2679 -1.2064  1.0540
10170TIP3    H230433   1.280   0.022   2.535 -1.4835  0.4247  1.0005
10171TIP3   OH230434   7.300   6.073   4.425 -0.0343 -0.1665 -0.0913
10171TIP3    H130435   7.387   6.095   4.458  0.3414 -1.5952 -0.0914
10171TIP3    H230436   7.248   6.152   4.442  1.0249  0.3883  0.7225
10172TIP3   OH230437   6.749   6.671   1.269 -0.3060 -0.1085 -0.6614
10172TIP3    H130438   6.683   6.733   1.239 -0.6028  0.1878  0.5277
10172TIP3    H230439   6.700   6.594   1.297  0.0234 -0.6877 -1.6484
10173TIP3   OH230440   2.644   2.256   4.596 -0.2537 -0.6234  0.2006
10173TIP3    H130441   2.577   2.202   4.554 -0.9399  0.7390 -0.5128
10173TIP3    H230442   2.606   2.278   4.681 -0.8874  0.3847 -0.3142
10174TIP3   OH230443   4.682   6.470   2.314  0.1428 -0.3099  0.3845
10174TIP3    H130444   4.625   6.522   2.256 -0.2093 -0.3618  0.6787
10174TIP3    H230445   4.747   6.532   2.346 -0.5573  0.0764  1.1098
10175TIP3   OH230446   2.513   3.919   5.717  0.5573 -0.4798 -0.0531
10175TIP3    H130447   2.451   3.992   5.720  0.6216 -0.4432  0.8964
10175TIP3    H230448   2.468   3.851   5.669  0.6750  0.3410 -1.3664
10176TIP3   OH230449   0.258   7.196   2.862  0.0497 -0.0609  0.5665
10176TIP3    H130450   0.324   7.195   2.931  0.7296 -2.3323 -0.0231
10176TIP3    H230451   0.287   7.263   2.800  1.0374 -0.0660  1.0183
10177TIP3   OH230452   4.122   2.887   0.237 -0.6840  0.1773 -0.6908
10177TIP3    H130453   4.139   2.805   0.283 -1.2308  0.2666 -0.3124
10177TIP3    H230454   4.206   2.932   0.235 -1.0609  1.1929  2.2247
10178TIP3   OH230455   1.968   1.125   2.831 -0.1762  0.4036 -0.2455
10178TIP3    H130456   1.884   1.083   2.815  0.3932 -1.4711  1.3092
10178TIP3    H230457   1.998   1.087   2.914  3.3984 -1.0181 -2.0074
10179TIP3   OH230458   2.476   5.964   6.779  0.1760  0.7725  0.0974
10179TIP3    H130459   2.560   5.976   6.735  0.8177  1.9478  1.5387
10179TIP3    H230460   2.436   6.051   6.778 -0.8720  0.2951 -0.2675
10180TIP3   OH230461   0.664   7.678   1.975  0.5887  0.2156  0.1563
10180TIP3    H130462   0.684   7.595   2.018 -0.1150 -0.4022 -0.6776
10180TIP3    H230463   0.686   7.664   1.883  1.5644  1.3441  0.1865
10181TIP3   OH230464   0.269   5.699   4.511  0.1699  0.2778  0.0244
10181TIP3    H130465   0.253   5.754   4.587  0.4874 -1.0123  1.0486
10181TIP3    H230466   0.347   5.737   4.470  0.1307  0.8412  0.4606
10182TIP3   OH230467   5.358   2.705   3.496 -0.4268  0.0436 -0.7089
10182TIP3    H130468   5.374   2.800   3.492 -0.4995  0.1642  1.0628
10182TIP3    H230469   5.292   2.689   3.429 -0.5286  1.2750 -0.9249
10183TIP3   OH230470   2.041   6.209   0.967 -0.0806  0.3809  0.7169
10183TIP3    H130471   2.095   6.164   1.032  1.4882  1.2229  0.0555
10183TIP3    H230472   2.085   6.293   0.953 -0.2116  0.1296 -1.6059
10184TIP3   OH230473   0.854   2.830   3.921 -0.7190 -0.0214 -0.4319
10184TIP3    H130474   0.917   2.899   3.939  0.0507 -0.3604 -1.6898
10184TIP3    H230475   0.851   2.779   4.002  1.1071 -0.3542 -0.5145
10185TIP3   OH230476   3.475   3.880   4.115 -0.1533 -0.0415 -0.5202
10185TIP3    H130477   3.440   3.791   4.106 -1.3827  0.4748 -1.0876
10185TIP3    H230478   3.513   3.900   4.029 -0.0178  0.0423 -0.4420
10186TIP3   OH230479   7.160   4.939   6.734 -0.6762  0.6544  0.5609
10186TIP3    H130480   7.109   4.909   6.809  0.5654 -0.1349  1.1187
10186TIP3    H230481   7.249   4.948   6.767 -0.2748  1.1780 -0.5986
10187TIP3   OH230482   6.104   1.682   2.520  0.2697  0.2805  0.5726
10187TIP3    H130483   6.017   1.722   2.512 -0.2263 -0.9626 -0.7363
10187TIP3    H230484   6.109   1.654   2.611 -1.3677 -1.0145  0.3103
10188TIP3   OH230485   5.814   3.974   3.137  0.4116  0.6289  0.1698
10188TIP3    H130486   5.903   3.997   3.111  0.7085  0.6853  1.1849
10188TIP3    H230487   5.758   4.031   3.084  0.9571  0.3604 -0.7157
10189TIP3   OH230488   0.552   0.960   2.008 -0.4730 -0.0512  0.6194
10189TIP3    H130489   0.629   0.943   2.062 -1.1687 -0.9024  1.3866
10189TIP3    H230490   0.587   0.980   1.921  0.6598  1.1538  1.3327
10190TIP3   OH230491   1.634   1.588   4.101  0.3844 -0.0627 -0.0146
10190TIP3    H130492   1.674   1.503   4.118  1.1582  0.2097 -0.4132
10190TIP3    H230493   1.638   1.634   4.184 -1.3682 -0.9264  0.5957
10191TIP3   OH230494   5.219   6.433   0.986 -0.0112  0.1191  0.0694
10191TIP3    H130495   5.313   6.415   0.995  0.1268 -0.8846 -2.5930
10191TIP3    H230496   5.215   6.509   0.928 -0.8619  0.4810  0.5913
10192TIP3   OH230497   5.773   6.974   4.351  0.3994  0.1547 -0.1988
10192TIP3    H130498   5.745   6.906   4.413  1.9364  0.0822  0.4579
10192TIP3    H230499   5.815   7.040   4.405  2.0130 -0.0340 -1.1549
10193TIP3   OH230500   3.767   7.709   2.541  0.1262  1.1719  0.2987
10193TIP3    H130501   3.767   7.631   2.486 -0.4691  3.5296 -3.3631
10193TIP3    H230502   3.858   7.719   2.569  0.6478  0.3621 -1.0451
10194TIP3   OH230503   7.522   7.194   0.909  0.1022  0.6723 -1.1587
10194TIP3    H130504   7.483   7.199   0.821 -1.9927 -1.3673 -0.4592
10194TIP3    H230505   7.486   7.114   0.946  2.0483  0.7423  1.0835
10195TIP3   OH230506   5.241   3.363   3.398  0.4030  0.4293  0.7586
10195TIP3    H130507   5.214   3.343   3.488 -0.1674  1.3062  0.7894
10195TIP3    H230508   5.177   3.316   3.343 -0.0558  0.9745  0.8223
10196TIP3   OH230509   5.154   2.712   0.533 -0.0462 -0.5552 -0.6149
10196TIP3    H130510   5.237   2.760   0.530 -1.3945  2.0196  0.2646
10196TIP3    H230511   5.147   2.682   0.624 -1.0058  1.0916 -0.1153
10197TIP3   OH230512   4.060   7.924   0.996 -0.4124  0.3073 -0.1147
10197TIP3    H130513   4.069   7.912   1.090 -2.5877 -3.2825 -0.1758
10197TIP3    H230514   4.148   7.907   0.961  0.2723  1.0591  1.1384
10198TIP3   OH230515   6.954   0.461   3.384 -0.6669  0.6352 -0.5679
10198TIP3    H130516   6.999   0.380   3.361 -0.1720  1.2797 -2.0022
10198TIP3    H230517   6.901   0.481   3.306 -2.1307  0.7908  0.4271
10199TIP3   OH230518   6.230   0.534   3.907 -0.2318  0.6339 -0.5488
10199TIP3    H130519   6.199   0.602   3.967 -1.0869  0.1046 -0.3717
10199TIP3    H230520   6.182   0.550   3.826 -0.0773  0.5304 -0.6617
10200TIP3   OH230521   7.498   2.867   1.024 -0.3841  0.6652 -0.3340
10200TIP3    H130522   7.467   2.783   0.990 -1.7614  1.3570 -0.8682
10200TIP3    H230523   7.453   2.877   1.108  1.5084 -0.1329  0.8418
10201TIP3   OH230524   2.838   6.541   2.085  0.3017  0.3786 -0.2334
10201TIP3    H130525   2.881   6.513   2.004  1.0321  1.1178 -0.1174
10201TIP3    H230526   2.802   6.461   2.122  1.5981 -0.2716 -0.3436
10202TIP3   OH230527   0.240   4.992   1.119 -0.2710  0.0220 -0.2004
10202TIP3    H130528   0.203   5.067   1.167 -0.9422 -1.0752  1.0510
10202TIP3    H230529   0.317   5.028   1.075  1.7595  0.7006  3.5027
10203TIP3   OH230530   1.638   7.465   6.611  0.2220  0.4549 -0.0859
10203TIP3    H130531   1.704   7.409   6.570 -0.9679 -0.4499 -0.8190
10203TIP3    H230532   1.637   7.437   6.703 -1.4711 -1.9496 -0.7339
10204TIP3   OH230533   2.750   6.421   4.388 -0.1928  0.6344 -0.2949
10204TIP3    H130534   2.718   6.508   4.411 -0.1898  0.7609 -0.7692
10204TIP3    H230535   2.718   6.365   4.459 -1.4439  0.7586 -0.7338
10205TIP3   OH230536   6.817   3.361   5.235 -0.3322 -0.3491 -0.3997
10205TIP3    H130537   6.785   3.303   5.304  2.0952  0.0951  1.2352
10205TIP3    H230538   6.784   3.448   5.260  1.2433 -0.0413  0.7830
10206TIP3   OH230539   6.993   5.830  -0.008  0.2022 -0.5022 -0.0448
10206TIP3    H130540   7.040   5.842   0.075 -1.5912 -0.1260  0.9629
10206TIP3    H230541   7.001   5.736  -0.027  1.4586 -0.4260  0.0026
10207TIP3   OH230542   6.426   3.997   4.867 -0.0542 -0.5041 -0.0387
10207TIP3    H130543   6.384   4.017   4.951 -1.1991 -0.8565 -0.5250
10207TIP3    H230544   6.519   3.985   4.890  0.0321  1.4252  0.8714
10208TIP3   OH230545   4.522   3.066   6.037  0.1458  0.4267 -0.1445
10208TIP3    H130546   4.577   3.138   6.006 -0.9752  2.2567  1.8297
10208TIP3    H230547   4.457   3.054   5.968  0.3813  1.2974 -0.5303
10209TIP3   OH230548   0.740   4.732   5.229 -0.5094  0.1396 -0.0336
10209TIP3    H130549   0.726   4.797   5.160 -0.8915  0.4701  0.3470
10209TIP3    H230550   0.800   4.668   5.190 -2.4785 -0.9468 -1.4862
10210TIP3   OH230551   8.621   5.534   6.974 -0.1834  0.3622  0.4506
10210TIP3    H130552   8.538   5.502   6.938  0.4068 -1.3072  0.4705
10210TIP3    H230553   8.633   5.484   7.055  2.3331 -1.8902 -1.1260
10211TIP3   OH230554   4.024   0.455   0.282 -0.2255 -0.4655  0.3907
10211TIP3    H130555   4.036   0.367   0.246 -0.1645 -0.6079  0.7603
10211TIP3    H230556   3.994   0.507   0.207  1.6093 -0.3418 -0.3287
10212TIP3   OH230557   5.168   6.685   6.907  0.3087 -0.0782  0.0480
10212TIP3    H130558   5.237   6.709   6.968  0.4899 -0.9667  0.2130
10212TIP3    H230559   5.206   6.615   6.854 -0.4553 -0.5922  0.1552
10213TIP3   OH230560   1.489   7.487   1.545  0.4576  0.1048  0.4424
10213TIP3    H130561   1.494   7.392   1.542  0.8533  0.0813  1.6155
10213TIP3    H230562   1.402   7.507   1.510  0.6691 -0.6300 -0.5404
10214TIP3   OH230563   7.383   2.022   2.739  0.0418 -0.7981 -0.1907
10214TIP3    H130564   7.308   2.039   2.682 -0.2994  0.5300  0.6088
10214TIP3    H230565   7.455   2.006   2.678 -0.5468 -0.5096 -0.9894
10215TIP3   OH230566   4.342   6.291   3.827 -0.0747  0.0818 -0.3488
10215TIP3    H130567   4.336   6.354   3.899  1.7505  0.7976 -0.7500
10215TIP3    H230568   4.338   6.206   3.870 -1.7838  0.4458  0.2888
10216TIP3   OH230569   2.874   0.830   5.359 -0.2329 -0.4247 -0.4320
10216TIP3    H130570   2.827   0.860   5.281 -1.9542 -0.3056  0.5865
10216TIP3    H230571   2.948   0.889   5.367 -0.3811 -0.0582 -1.6410
10217TIP3   OH230572   1.112   4.786   4.778 -0.4491  0.1181 -0.6946
10217TIP3    H130573   1.204   4.770   4.756  0.0489  0.7554  0.8531
10217TIP3    H230574   1.075   4.820   4.697  0.9598  0.9414 -1.0338
10218TIP3   OH230575   1.351   3.890   6.102 -0.2300 -0.0577 -0.1340
10218TIP3    H130576   1.439   3.890   6.065  0.5611  0.2479  1.6511
10218TIP3    H230577   1.355   3.827   6.174 -1.3665  0.2388  0.2138
10219TIP3   OH230578   6.925   2.397   3.156  0.5310  0.1463 -0.0689
10219TIP3    H130579   6.951   2.365   3.242  0.7916  1.7836  0.5076
10219TIP3    H230580   6.897   2.487   3.172 -0.2731  0.1885 -1.5641
10220TIP3   OH230581   6.514   6.635   6.121 -0.1038  0.0510 -0.1115
10220TIP3    H130582   6.462   6.562   6.152 -0.1337  0.1712  0.1309
10220TIP3    H230583   6.468   6.713   6.153  0.8372  0.1340  1.1388
10221TIP3   OH230584   7.947   4.195   3.892  0.2591  0.0564  0.1336
10221TIP3    H130585   7.874   4.132   3.890  2.0562 -2.1736 -1.7221
10221TIP3    H230586   7.948   4.233   3.804  0.6189  0.9850  0.5239
10222TIP3   OH230587   6.773   3.055   4.202 -0.2282  0.1899 -0.2180
10222TIP3    H130588   6.700   2.994   4.193  0.0632 -0.0928 -0.7244
10222TIP3    H230589   6.790   3.087   4.114  1.8311 -1.6328 -0.5806
10223TIP3   OH230590   2.497   4.320   2.551  0.0737 -0.3415 -1.0215
10223TIP3    H130591   2.591   4.311   2.570  0.0571 -0.5882 -1.0490
10223TIP3    H230592   2.454   4.298   2.634  0.0828  1.4886 -0.4820
10224TIP3   OH230593   3.139   2.011   1.088 -0.5564  0.0386  0.0475
10224TIP3    H130594   3.066   2.071   1.074  0.0670  0.9123  0.4450
10224TIP3    H230595   3.210   2.046   1.035  0.3643  0.7071  1.6601
10225TIP3   OH230596   1.910   1.457   6.666 -0.2647  0.0548 -0.3222
10225TIP3    H130597   1.925   1.549   6.688 -1.5950  0.4935 -1.1028
10225TIP3    H230598   1.994   1.414   6.682  0.0968  1.2075  1.0147
10226TIP3   OH230599   7.718   6.057   3.902  0.2737  0.5419 -0.1091
10226TIP3    H130600   7.630   6.018   3.907  1.0843 -1.4732 -0.8703
10226TIP3    H230601   7.759   6.032   3.985  0.3409  0.9950 -0.0028
10227TIP3   OH230602   7.141   6.956   3.499 -0.5755  0.0575 -0.1706
10227TIP3    H130603   7.168   6.961   3.407 -0.4885 -0.4986 -0.1737
10227TIP3    H230604   7.117   6.865   3.513  0.7428 -0.1696  0.7345
10228TIP3   OH230605   1.816   2.184   3.731  0.2153  0.7938  0.3221
10228TIP3    H130606   1.760   2.258   3.710  0.2264  0.8323  0.4250
10228TIP3    H230607   1.782   2.112   3.679  0.6149  1.0360 -0.2843
10229TIP3   OH230608   2.259   3.536   0.720  0.4569 -0.6899  0.2641
10229TIP3    H130609   2.195   3.483   0.769  0.7752 -1.2879  0.0418
10229TIP3    H230610   2.210   3.568   0.645  0.0164  0.0770  0.8570
10230TIP3   OH230611   6.878   1.873   6.994  0.1543 -0.4001  0.4086
10230TIP3    H130612   6.865   1.881   7.088  1.7959 -0.7387  0.6839
10230TIP3    H230613   6.793   1.842   6.961 -0.8991  1.1372  1.5491
10231TIP3   OH230614   0.649   1.452   4.594  0.7520 -0.3389  0.2025
10231TIP3    H130615   0.743   1.439   4.611  1.6565  3.7647 -0.4184
10231TIP3    H230616   0.647   1.509   4.517 -1.9911  2.3452  2.0115
10232TIP3   OH230617   6.892   2.960   5.864 -0.1651  0.1764  0.3861
10232TIP3    H130618   6.815   2.932   5.814 -0.1755  1.9249 -0.6673
10232TIP3    H230619   6.929   3.033   5.813  0.6947  1.0787  2.1825
10233TIP3   OH230620   2.184   5.884   6.885  0.0930 -0.0245  0.0713
10233TIP3    H130621   2.139   5.807   6.920  0.2660  0.1514  0.6891
10233TIP3    H230622   2.269   5.884   6.929  0.6822 -0.3267 -1.0520
10234TIP3   OH230623   1.834   4.986   2.112 -0.3727 -0.1026 -0.2101
10234TIP3    H130624   1.926   5.011   2.123 -0.4560  0.2658 -0.3648
10234TIP3    H230625   1.785   5.053   2.159 -0.5937  0.0225 -0.6202
10235TIP3   OH230626   1.246   4.291   2.943 -0.2984 -0.3857  0.2613
10235TIP3    H130627   1.255   4.291   2.848  2.0828 -3.3655  0.3351
10235TIP3    H230628   1.249   4.383   2.967  0.1819  0.4164 -2.4623
10236TIP3   OH230629   3.778   0.176   6.990  0.4154  0.0518  0.2546
10236TIP3    H130630   3.751   0.166   7.081 -2.8379 -0.9215 -0.6863
10236TIP3    H230631   3.752   0.265   6.967 -0.8043 -0.4292 -0.2885
10237TIP3   OH230632   2.037   4.780   6.304  0.0581  0.1887 -0.2911
10237TIP3    H130633   1.962   4.795   6.246  2.2260  3.5654 -2.5765
10237TIP3    H230634   2.104   4.744   6.247  0.8215 -1.0558  1.3162
10238TIP3   OH230635   1.994   6.224   1.590 -0.0826  0.2824  0.1770
10238TIP3    H130636   2.070   6.218   1.649  0.3718  1.9604 -0.1659
10238TIP3    H230637   2.032   6.220   1.502 -0.3634  1.1998  0.0027
10239TIP3   OH230638   0.320   7.114   4.125  0.1994 -0.1863 -0.0963
10239TIP3    H130639   0.294   7.168   4.051  1.2945  0.2615 -0.1835
10239TIP3    H230640   0.312   7.171   4.201 -0.4827 -0.5034  0.0756
10240TIP3   OH230641   0.311   4.408   1.524  0.2160 -0.4082  0.5370
10240TIP3    H130642   0.365   4.348   1.472 -2.2829 -3.1665  0.8540
10240TIP3    H230643   0.260   4.457   1.460  0.1720 -0.7471  0.3118
10241TIP3   OH230644   6.837   6.852   1.588 -0.4130 -0.1103 -0.1776
10241TIP3    H130645   6.752   6.813   1.564 -0.0799  0.1300 -1.9151
10241TIP3    H230646   6.876   6.876   1.504  1.5307 -0.5076  0.5634
10242TIP3   OH230647   0.757   0.420   5.681  0.1103  0.2738  0.1257
10242TIP3    H130648   0.786   0.491   5.625  2.3581  0.5630  1.5588
10242TIP3    H230649   0.807   0.344   5.652 -0.5337 -0.1642  0.1417
10243TIP3   OH230650   6.038   2.044   1.546 -0.0468 -0.0743 -0.0674
10243TIP3    H130651   5.959   2.050   1.599 -0.5906  0.5637 -0.9150
10243TIP3    H230652   6.028   1.963   1.497 -0.1061 -0.0718 -0.0603
10244TIP3   OH230653   1.535   3.346   2.384 -0.3049 -0.3865  0.2262
10244TIP3    H130654   1.449   3.311   2.363 -0.3825 -0.3526  0.4836
10244TIP3    H230655   1.573   3.282   2.445  0.0330 -0.6299 -0.2398
10245TIP3   OH230656   0.990   0.934   2.702  0.1024 -0.1056 -0.0008
10245TIP3    H130657   0.966   0.869   2.769  0.7319 -0.4465 -0.1028
10245TIP3    H230658   0.947   0.903   2.622  1.2934 -1.0273 -0.3184
10246TIP3   OH230659   2.517   3.510   2.656  0.3529 -0.6742  0.0767
10246TIP3    H130660   2.454   3.526   2.586 -0.5807  2.1715  1.3947
10246TIP3    H230661   2.602   3.504   2.612 -0.2839  0.3962 -1.3547
10247TIP3   OH230662   1.667   0.883   1.448 -0.5257  0.1235  0.5798
10247TIP3    H130663   1.651   0.921   1.534  2.9270  0.1823  1.3203
10247TIP3    H230664   1.694   0.793   1.465  2.1389  0.6868 -0.1397
10248TIP3   OH230665   5.529   6.692   4.923 -0.6546  0.5266  0.2994
10248TIP3    H130666   5.440   6.728   4.915 -0.1468  2.0029  0.9899
10248TIP3    H230667   5.541   6.680   5.017  0.9853  3.4065  0.5649
10249TIP3   OH230668   6.257   0.973   5.595 -0.1778  0.5172 -0.9013
10249TIP3    H130669   6.218   0.912   5.533  0.8481 -0.8021 -0.2904
10249TIP3    H230670   6.255   0.928   5.679  0.4564  1.3765 -0.4059
10250TIP3   OH230671   4.748   7.594   2.524 -0.4640  0.0147 -0.0309
10250TIP3    H130672   4.788   7.594   2.611 -0.3650  1.0169 -0.0615
10250TIP3    H230673   4.814   7.636   2.468  0.2001 -2.1269 -0.9593
10251TIP3   OH230674   6.501   3.242   3.537 -0.1392  0.0537  0.3337
10251TIP3    H130675   6.566   3.172   3.543 -0.8249 -0.5994  0.2890
10251TIP3    H230676   6.527   3.305   3.605  1.0215  0.2212 -0.2490
10252TIP3   OH230677   5.994   1.522   7.013 -0.4954 -0.7609 -0.2152
10252TIP3    H130678   6.020   1.546   6.924  0.2791 -1.5657 -0.2263
10252TIP3    H230679   5.907   1.559   7.024 -0.1400  0.3171 -0.9056
10253TIP3   OH230680   2.484   3.326   3.869 -0.0271 -0.2019 -0.1322
10253TIP3    H130681   2.554   3.279   3.824 -0.8761 -2.2217  0.5440
10253TIP3    H230682   2.407   3.269   3.859 -1.3455  1.4845 -0.0266
10254TIP3   OH230683   4.776   8.006   2.420 -0.2142  0.1596  0.0297
10254TIP3    H130684   4.737   7.921   2.438 -1.8085  1.0048  0.8230
10254TIP3    H230685   4.837   8.020   2.493  0.4624 -0.5123 -0.3935
10255TIP3   OH230686   0.934   3.695   4.454 -0.5298 -0.0151 -0.3614
10255TIP3    H130687   1.013   3.727   4.410  0.6544 -1.3632  0.6796
10255TIP3    H230688   0.937   3.600   4.441 -1.5819 -0.1587  0.3368
10256TIP3   OH230689   0.489   5.867   6.153 -0.0739 -0.0802 -0.4101
10256TIP3    H130690   0.457   5.874   6.063  2.1197 -0.1361 -1.2477
10256TIP3    H230691   0.508   5.774   6.165 -2.4149 -0.4682  0.9369
10257TIP3   OH230692   3.972   2.997   3.603  0.2777  0.1067 -0.1573
10257TIP3    H130693   3.951   2.914   3.647 -0.7208  0.4832  0.1063
10257TIP3    H230694   3.887   3.031   3.576  0.7803  0.4773 -1.3130
10258TIP3   OH230695   2.956   6.752   4.435  0.5575 -0.2887 -0.0476
10258TIP3    H130696   2.966   6.828   4.377 -0.6973 -0.2701 -0.2692
10258TIP3    H230697   2.989   6.678   4.385 -0.3708 -0.2477 -0.7517
10259TIP3   OH230698   0.726   1.145   5.759  0.6775  0.5370 -0.1535
10259TIP3    H130699   0.767   1.062   5.784 -0.2420  0.5052  1.3233
10259TIP3    H230700   0.647   1.120   5.712  1.6526  0.6076 -1.9295
10260TIP3   OH230701   0.465   6.501   6.946 -0.5250  0.0666 -0.2346
10260TIP3    H130702   0.468   6.431   6.881 -1.5528  0.7717 -1.0649
10260TIP3    H230703   0.524   6.568   6.911 -0.5745  0.1714 -0.1168
10261TIP3   OH230704   1.732   7.384   4.046 -0.3021  0.4265  0.3800
10261TIP3    H130705   1.775   7.426   4.121 -0.1838  0.8196  0.0955
10261TIP3    H230706   1.666   7.447   4.018  1.2476  1.3746 -1.3482
10262TIP3   OH230707   3.823   5.738   1.510  0.6212  0.4717  0.4277
10262TIP3    H130708   3.849   5.822   1.547  2.4593 -0.2770  0.9415
10262TIP3    H230709   3.873   5.673   1.559 -1.0157 -0.9808  0.2792
10263TIP3   OH230710   4.092   4.542   1.301  0.2609 -0.2410 -0.2977
10263TIP3    H130711   4.183   4.569   1.314  0.1666  0.1927 -0.5277
10263TIP3    H230712   4.041   4.622   1.312 -0.2365 -0.7496  1.3306
10264TIP3   OH230713   3.161   3.462   5.839  0.6297  0.1763 -0.7531
10264TIP3    H130714   3.244   3.462   5.887  1.9484 -1.6969 -2.8223
10264TIP3    H230715   3.180   3.512   5.760 -0.5750  0.6550 -0.7568
10265TIP3   OH230716   5.187   1.624   6.109  0.3254 -0.2088 -0.0197
10265TIP3    H130717   5.212   1.532   6.108  1.0130 -0.0361  0.2405
10265TIP3    H230718   5.225   1.661   6.030  0.0304 -0.1522 -0.1365
10266TIP3   OH230719   7.185   5.912   5.769  0.3374 -0.5493  0.0702
10266TIP3    H130720   7.106   5.901   5.822 -0.9450  0.1472 -1.5763
10266TIP3    H230721   7.238   5.836   5.789  0.1758 -0.0826  2.6935
10267TIP3   OH230722   5.009   7.189   5.853 -0.2996 -0.6018  0.0961
10267TIP3    H130723   4.931   7.141   5.823 -0.1057 -0.0717 -1.2887
10267TIP3    H230724   5.082   7.141   5.815  0.1181 -1.3526  1.7451
10268TIP3   OH230725   8.182   5.698   4.779  0.1269  0.2796  0.0403
10268TIP3    H130726   8.087   5.701   4.791  0.2297  2.2196  0.7885
10268TIP3    H230727   8.214   5.648   4.853 -0.2321  0.7753  0.5426
10269TIP3   OH230728   4.777   3.789   1.685 -0.9488 -0.3002  0.2269
10269TIP3    H130729   4.774   3.882   1.707 -2.5219 -0.2368 -0.1346
10269TIP3    H230730   4.685   3.763   1.679 -0.5469 -1.5542 -1.0439
10270TIP3   OH230731   4.398   0.257   1.003  0.2441 -0.0098  0.2350
10270TIP3    H130732   4.412   0.346   1.033 -0.7385 -0.0021  0.7199
10270TIP3    H230733   4.439   0.254   0.916  2.3718  0.2025  1.1834
10271TIP3   OH230734   8.027   6.460   1.436  0.0889  0.4234 -0.1268
10271TIP3    H130735   8.049   6.367   1.443 -1.3189  0.0572 -0.2618
10271TIP3    H230736   7.947   6.470   1.489  0.8466  1.8017  0.8305
10272TIP3   OH230737   4.234   6.820   6.410  0.7816  0.1927  0.0373
10272TIP3    H130738   4.238   6.814   6.505  0.6134 -0.6450 -0.0048
10272TIP3    H230739   4.278   6.903   6.389  0.6657  0.4682  0.8483
10273TIP3   OH230740   7.213   6.234   4.156  0.0097  0.3749 -0.1074
10273TIP3    H130741   7.226   6.145   4.191  1.6454 -0.1950 -1.9824
10273TIP3    H230742   7.226   6.291   4.232  0.2562 -0.9152  0.8681
10274TIP3   OH230743   2.443   3.724   4.826  0.4636  0.2971  0.0640
10274TIP3    H130744   2.417   3.795   4.886  1.9604  0.8488  0.1033
10274TIP3    H230745   2.397   3.743   4.745  1.7628  2.0689 -0.3274
10275TIP3   OH230746   2.644   3.131   3.734 -0.2113  0.0503 -0.7401
10275TIP3    H130747   2.702   3.057   3.717 -0.0160  0.4667 -2.0068
10275TIP3    H230748   2.609   3.154   3.648 -1.1482  0.7201 -0.2003
10276TIP3   OH230749   7.612   7.136   4.189  0.1707 -0.7295 -0.0911
10276TIP3    H130750   7.640   7.061   4.138  0.3429 -0.7047 -0.0348
10276TIP3    H230751   7.690   7.163   4.238 -0.2739 -1.4572  1.0575
10277TIP3   OH230752   2.811   5.936   5.261  0.5075  0.2774  0.5116
10277TIP3    H130753   2.722   5.952   5.229  0.6455 -0.4609 -0.2669
10277TIP3    H230754   2.850   5.877   5.197  1.9092  1.3651  0.3126
10278TIP3   OH230755   3.382   2.501   1.181  0.0047 -0.3403 -0.4227
10278TIP3    H130756   3.339   2.582   1.152  1.2100  0.6884  0.4926
10278TIP3    H230757   3.430   2.471   1.104  0.0851  0.2069 -0.5930
10279TIP3   OH230758   6.356   0.380   1.972 -0.0977  0.3910  0.6238
10279TIP3    H130759   6.286   0.331   2.015 -0.8642  0.4163 -0.5344
10279TIP3    H230760   6.311   0.435   1.908  1.0074  0.0455 -0.5005
10280TIP3   OH230761   3.020   5.328   5.757  0.0522  0.9291 -0.1335
10280TIP3    H130762   3.043   5.268   5.828 -0.1198 -0.0629 -0.8956
10280TIP3    H230763   3.082   5.400   5.766  1.2770 -0.0822 -0.1130
10281TIP3   OH230764   6.414   4.075   1.872  0.5561 -0.1058  0.3382
10281TIP3    H130765   6.429   4.162   1.908  0.7431 -0.3754  0.9165
10281TIP3    H230766   6.420   4.087   1.777  1.5401  0.3243  0.4458
10282TIP3   OH230767   6.639   0.563   6.297  0.7921 -0.0503  0.0841
10282TIP3    H130768   6.560   0.617   6.299  1.7026  1.4409 -1.4208
10282TIP3    H230769   6.678   0.575   6.383  0.5195  0.9985  0.0787
10283TIP3   OH230770   1.077   1.062   0.199 -0.2147 -0.0730  0.2500
10283TIP3    H130771   1.049   1.129   0.136  1.4125 -0.3215 -0.7988
10283TIP3    H230772   1.160   1.095   0.234  0.3511 -1.2875  0.1064
10284TIP3   OH230773   0.770   4.218   2.368  0.2508  0.0516 -0.1636
10284TIP3    H130774   0.778   4.257   2.454  0.1104  2.0360 -0.9984
10284TIP3    H230775   0.857   4.226   2.329  0.1594 -0.2832 -0.4475
10285TIP3   OH230776   8.440   2.844   0.017  0.0420 -0.3948 -0.4282
10285TIP3    H130777   8.528   2.870  -0.008  0.2601 -0.1290  0.5671
10285TIP3    H230778   8.408   2.918   0.069  0.2676 -1.6333  1.5510
10286TIP3   OH230779   6.677   2.215   5.794 -0.1275 -0.0165 -0.3803
10286TIP3    H130780   6.689   2.201   5.888  0.3222  0.8815 -0.2958
10286TIP3    H230781   6.703   2.132   5.754 -3.7452 -1.7704  0.4733
10287TIP3   OH230782   1.860   3.124   6.843  0.0362  0.2163 -0.3633
10287TIP3    H130783   1.945   3.161   6.818  0.0523  1.2275  1.0336
10287TIP3    H230784   1.854   3.141   6.937 -0.9011 -1.5306 -0.0677
10288TIP3   OH230785   5.178   8.094   3.284  0.1842  0.2420  0.1313
10288TIP3    H130786   5.101   8.126   3.332 -0.4297 -1.0642  0.0657
10288TIP3    H230787   5.233   8.172   3.272  0.0368  0.7348  2.3192
10289TIP3   OH230788   5.317   5.900   5.369 -0.3926 -0.4668  0.0749
10289TIP3    H130789   5.286   5.870   5.284 -0.8190  0.3589 -0.0734
10289TIP3    H230790   5.253   5.866   5.432 -1.9342  1.6152 -0.2749
10290TIP3   OH230791   0.135   7.496   5.059 -0.2093 -0.4857  0.8248
10290TIP3    H130792   0.214   7.492   5.004 -0.6252  0.6411  0.0904
10290TIP3    H230793   0.134   7.414   5.107  1.1774 -0.7055  0.5149
10291TIP3   OH230794   3.754   4.957   4.125 -0.2393  0.0462  0.7222
10291TIP3    H130795   3.802   4.963   4.208  1.5531 -1.3494 -0.1505
10291TIP3    H230796   3.763   5.045   4.087  0.1668  0.2825  1.3373
10292TIP3   OH230797   4.227   2.462   3.922  0.3379 -0.5438 -0.1678
10292TIP3    H130798   4.220   2.555   3.900 -0.1319 -0.5080  0.1152
10292TIP3    H230799   4.263   2.461   4.010  3.7815 -0.7207 -1.4466
10293TIP3   OH230800   7.651   2.079   2.643  0.3261  0.3602 -0.4886
10293TIP3    H130801   7.695   2.160   2.670  0.4805  0.0017  0.3700
10293TIP3    H230802   7.681   2.013   2.706 -1.4342  0.0897  0.1229
10294TIP3   OH230803   2.327   2.041   0.359  0.0445  0.6736 -0.1426
10294TIP3    H130804   2.249   2.035   0.304 -0.4378 -0.4515  0.6310
10294TIP3    H230805   2.294   2.045   0.449  0.8717 -0.2773  0.2304
10295TIP3   OH230806   2.947   7.422   4.206 -0.3407 -0.3174  0.2904
10295TIP3    H130807   2.910   7.429   4.294 -0.3530 -0.2945  0.2831
10295TIP3    H230808   2.892   7.478   4.151 -1.6802 -1.9974 -0.1722
10296TIP3   OH230809   8.367   5.446   1.644 -0.1574 -0.1800 -0.6297
10296TIP3    H130810   8.372   5.399   1.727  0.2928 -0.7271 -0.9549
10296TIP3    H230811   8.318   5.526   1.664  0.6602  0.0993  0.3537
10297TIP3   OH230812   2.405   0.210   5.573  0.3909 -0.0289  0.3705
10297TIP3    H130813   2.327   0.264   5.584  1.9938  2.3500  1.0496
10297TIP3    H230814   2.477   0.267   5.599  2.5286 -1.5518 -1.6973
10298TIP3   OH230815   2.306   7.441   0.755  0.8735 -0.0185 -0.3178
10298TIP3    H130816   2.330   7.432   0.847 -0.2530 -2.8348 -0.2179
10298TIP3    H230817   2.243   7.513   0.754 -0.9524 -1.4671  1.5677
10299TIP3   OH230818   7.645   0.981   2.075 -0.0253 -0.2053  0.1146
10299TIP3    H130819   7.611   1.016   2.157 -1.9989 -0.8077 -0.3927
10299TIP3    H230820   7.675   1.058   2.026  1.0348  0.1662  1.3142
10300TIP3   OH230821   3.968   6.885   3.498  0.0890  0.0521 -0.0823
10300TIP3    H130822   3.933   6.881   3.587  1.2049  1.1919  0.4528
10300TIP3    H230823   3.960   6.796   3.464 -0.0783 -0.4708  1.2819
10301TIP3   OH230824   2.867   4.735   1.326  0.8752  0.0573 -0.2170
10301TIP3    H130825   2.840   4.809   1.272 -0.8491 -0.9748 -0.8752
10301TIP3    H230826   2.811   4.663   1.297  1.3507 -1.0796  1.5248
10302TIP3   OH230827   3.507   7.311   1.933 -0.0239 -0.1197  0.0402
10302TIP3    H130828   3.440   7.363   1.977  0.1649 -0.5741  0.8825
10302TIP3    H230829   3.513   7.231   1.984 -0.7728 -1.2834 -1.6045
10303TIP3   OH230830   4.438   3.409   0.804 -0.1506  0.7296 -0.0822
10303TIP3    H130831   4.397   3.462   0.735 -2.8692 -1.0463  0.0124
10303TIP3    H230832   4.407   3.449   0.886 -1.6029 -0.4787 -0.0065
10304TIP3   OH230833   0.011   3.030   4.807  0.3860  0.2546  0.0538
10304TIP3    H130834  -0.033   2.980   4.738  0.0258 -0.6971  0.9539
10304TIP3    H230835   0.104   3.025   4.784  0.2309  0.4039 -0.6440
10305TIP3   OH230836   2.005   7.613   3.276  0.2240  0.0876  0.7104
10305TIP3    H130837   2.031   7.588   3.364 -0.5632 -1.2176  0.5977
10305TIP3    H230838   1.950   7.541   3.245 -1.4872  1.5776  0.0455
10306TIP3   OH230839   2.387   6.407   0.193  0.3922  0.4508  0.4416
10306TIP3    H130840   2.376   6.467   0.119  0.9852  0.1302  0.0770
10306TIP3    H230841   2.402   6.464   0.268 -0.2416  0.7814  0.3177
10307TIP3   OH230842   6.980   5.602   4.101  0.2270  0.1127 -0.1690
10307TIP3    H130843   6.970   5.688   4.060 -1.0959  0.7269  1.3572
10307TIP3    H230844   7.023   5.549   4.034 -0.7683  1.3960 -1.9055
10308TIP3   OH230845   1.901   4.821   1.602  0.2710 -0.0903  0.4018
10308TIP3    H130846   1.879   4.742   1.552  0.2732 -0.8861  1.6188
10308TIP3    H230847   1.995   4.833   1.587  0.1250  0.1294 -0.3921
10309TIP3   OH230848   1.446   7.197   1.390  0.6059  0.8365 -0.6670
10309TIP3    H130849   1.416   7.123   1.443 -0.4456  1.8518  0.2423
10309TIP3    H230850   1.540   7.202   1.406  0.5037  0.3715  0.1592
10310TIP3   OH230851   6.673   0.806   2.749 -0.6494 -0.3244  0.1112
10310TIP3    H130852   6.744   0.743   2.760  2.0813  2.7881  2.2857
10310TIP3    H230853   6.624   0.802   2.831  1.6133  2.4525  1.7845
10311TIP3   OH230854   8.103   6.680   2.519 -0.3625  0.4649 -0.2941
10311TIP3    H130855   8.154   6.727   2.585 -0.3477 -0.9261  0.7320
10311TIP3    H230856   8.024   6.732   2.508 -0.8404  0.2032  1.6202
10312TIP3   OH230857   1.119   5.208   3.577  0.4872 -0.0900  0.4239
10312TIP3    H130858   1.079   5.196   3.663 -0.2728  0.9767  0.2302
10312TIP3    H230859   1.073   5.147   3.520  1.7160 -1.5964  0.9505
10313TIP3   OH230860   5.663   2.441   3.374 -0.7856 -1.3600 -0.5757
10313TIP3    H130861   5.673   2.472   3.284 -0.0440 -2.4505 -0.8885
10313TIP3    H230862   5.747   2.461   3.416 -1.9141  1.3621  0.6304
10314TIP3   OH230863   0.221   2.728   6.656  0.9035  0.4390 -0.8430
10314TIP3    H130864   0.298   2.785   6.649  1.7937 -0.1614  2.3829
10314TIP3    H230865   0.254   2.641   6.635  1.4420  0.0382  1.3711
10315TIP3   OH230866   4.204   3.170   6.803 -0.5648  0.2358 -0.0275
10315TIP3    H130867   4.255   3.175   6.884 -1.0177  0.0991  0.2685
10315TIP3    H230868   4.261   3.121   6.743 -0.3945 -0.0164  0.3342
10316TIP3   OH230869   5.769   7.456   4.482  0.7661  0.2683 -0.3931
10316TIP3    H130870   5.851   7.465   4.529  1.9094 -0.3524 -2.1536
10316TIP3    H230871   5.737   7.546   4.471  2.0192  0.6553 -1.0133
10317TIP3   OH230872   1.836   1.016   5.177 -0.0955  0.0433 -0.0966
10317TIP3    H130873   1.837   1.083   5.108 -2.8955  1.7425  1.3227
10317TIP3    H230874   1.912   1.036   5.231 -1.2624  2.7154  0.7239
10318TIP3   OH230875   2.764   0.851   6.066  0.2936  0.4918  0.3422
10318TIP3    H130876   2.816   0.918   6.021  0.1329  0.0195 -0.5701
10318TIP3    H230877   2.794   0.768   6.027 -0.7129  0.1672  0.2492
10319TIP3   OH230878   3.526   0.318   3.109  0.6305  0.1807  0.0132
10319TIP3    H130879   3.541   0.229   3.077  0.1952  0.3680 -0.7474
10319TIP3    H230880   3.505   0.368   3.030 -0.3127  0.7012  0.5718
10320TIP3   OH230881   2.422   5.805   6.559  0.0244  0.6502  0.1581
10320TIP3    H130882   2.439   5.862   6.634 -0.6754  0.5668  0.3901
10320TIP3    H230883   2.408   5.865   6.486 -1.0658  0.8073  0.4755
10321TIP3   OH230884   1.915   5.222   3.585 -0.4640 -0.5144 -0.0104
10321TIP3    H130885   1.846   5.281   3.614 -0.2243  0.0865 -0.6247
10321TIP3    H230886   1.871   5.159   3.527 -0.5744 -0.4128 -0.0367
10322TIP3   OH230887   6.708   5.436   1.996  0.4909 -0.5249 -0.0371
10322TIP3    H130888   6.696   5.528   1.976  1.7068 -0.9463 -3.3397
10322TIP3    H230889   6.625   5.409   2.037 -0.3067  1.7412 -0.0401
10323TIP3   OH230890   7.301   7.348   6.739  0.6859 -0.2823  0.0042
10323TIP3    H130891   7.334   7.290   6.808 -0.6433 -2.9281 -1.4230
10323TIP3    H230892   7.356   7.328   6.663 -1.3317 -1.6059 -1.2029
10324TIP3   OH230893   7.789   1.420   6.873 -0.0596  0.0374  0.3966
10324TIP3    H130894   7.863   1.471   6.905 -0.1376  0.1844  0.3429
10324TIP3    H230895   7.727   1.485   6.842 -0.2034 -0.0869  0.4224
10325TIP3   OH230896   6.012   0.888   6.031 -0.0013 -0.4398 -0.6610
10325TIP3    H130897   5.977   0.953   5.971  1.7688  1.0102 -0.2253
10325TIP3    H230898   6.096   0.862   5.992 -0.4536 -2.1776 -0.5900
10326TIP3   OH230899   1.544   8.158   4.584 -0.0027 -0.5887 -0.0814
10326TIP3    H130900   1.575   8.141   4.673  2.1025 -0.1326 -0.6637
10326TIP3    H230901   1.616   8.128   4.528 -1.0679 -0.3724 -1.6059
10327TIP3   OH230902   7.682   5.671   4.717  0.2070  0.5812 -0.0332
10327TIP3    H130903   7.638   5.670   4.632  1.7551 -2.1066 -0.9246
10327TIP3    H230904   7.613   5.695   4.780 -1.7678 -0.4349 -1.6898
10328TIP3   OH230905   5.768   8.003   6.691  0.4562  0.1035 -0.1771
10328TIP3    H130906   5.677   8.010   6.720  0.4550 -1.3464  0.2336
10328TIP3    H230907   5.819   8.041   6.762  0.1832  0.9600 -0.4250
10329TIP3   OH230908   2.632   4.737   2.458  0.3768 -0.3536 -0.2935
10329TIP3    H130909   2.661   4.710   2.371 -0.6994  0.3959 -0.9178
10329TIP3    H230910   2.590   4.822   2.443 -1.5973 -1.1087  0.5908
10330TIP3   OH230911   5.167   2.537   5.201  0.0753  0.2494  0.3165
10330TIP3    H130912   5.152   2.465   5.140 -1.0083  1.2297 -0.6017
10330TIP3    H230913   5.156   2.616   5.149  4.9439  1.2341  0.3142
10331TIP3   OH230914   7.095   2.796   7.088  0.0310 -0.5774  0.2783
10331TIP3    H130915   7.069   2.711   7.124  1.5721 -0.2521  2.3316
10331TIP3    H230916   7.062   2.795   6.998 -3.2339 -1.8437  1.3277
10332TIP3   OH230917   6.025   3.755   3.639 -0.1120 -0.4381 -0.4554
10332TIP3    H130918   6.017   3.752   3.543  0.5495 -1.0228 -0.5009
10332TIP3    H230919   5.935   3.762   3.670 -0.3109  0.1142 -1.1305
10333TIP3   OH230920   3.332   6.387   6.516  0.4141  0.0266  0.1080
10333TIP3    H130921   3.330   6.454   6.584  1.3570 -1.9982  2.2492
10333TIP3    H230922   3.425   6.380   6.492  0.1619  0.3337 -1.0522
10334TIP3   OH230923   8.022   1.280   6.395 -0.0200 -0.0065 -0.2050
10334TIP3    H130924   8.016   1.358   6.451 -0.5351  1.0435 -1.6684
10334TIP3    H230925   7.965   1.216   6.438 -1.8234  1.3798 -0.4176
10335TIP3   OH230926   0.168   6.060   6.147  0.3624 -0.4207 -0.2318
10335TIP3    H130927   0.190   5.983   6.199  2.6821  0.9622  0.9995
10335TIP3    H230928   0.178   6.032   6.056 -1.5609 -2.2537  0.0353
10336TIP3   OH230929   6.615   5.538   5.755 -0.0151 -0.2495  0.3885
10336TIP3    H130930   6.701   5.497   5.757  0.8713  1.4941 -0.1871
10336TIP3    H230931   6.571   5.499   5.680  0.3640 -0.9554  0.5300
10337TIP3   OH230932   7.187   4.778   6.505 -0.2615 -0.1013  0.2186
10337TIP3    H130933   7.184   4.853   6.446 -0.3431  0.2802  0.6960
10337TIP3    H230934   7.152   4.812   6.588  0.3697 -0.4812  0.6439
10338TIP3   OH230935   1.713   5.488   6.139 -0.1251 -0.4714 -0.3547
10338TIP3    H130936   1.742   5.455   6.054 -1.8564 -0.6456 -0.9359
10338TIP3    H230937   1.617   5.487   6.132 -0.2740  1.6615  0.7843
10339TIP3   OH230938   3.260   3.828   6.131  0.5063 -0.4268  0.4588
10339TIP3    H130939   3.243   3.760   6.195 -2.1600  0.8622  1.2381
10339TIP3    H230940   3.226   3.793   6.049 -1.8635  0.2905  1.0725
10340TIP3   OH230941   3.060   1.962   5.749 -0.4225 -0.1782 -0.3270
10340TIP3    H130942   3.044   1.882   5.698  1.4648  0.0099 -1.2931
10340TIP3    H230943   3.140   1.945   5.797  0.7022  1.5172 -1.4690
10341TIP3   OH230944   2.775   3.843   3.698 -0.5478  0.1621 -0.8184
10341TIP3    H130945   2.847   3.809   3.644 -0.4357  0.1944 -0.6914
10341TIP3    H230946   2.818   3.899   3.762 -0.0277 -3.5483  2.4392
10342TIP3   OH230947   6.957   7.624   1.851 -0.4813 -0.0526  0.3251
10342TIP3    H130948   6.900   7.643   1.777 -0.0790 -2.1828 -0.5931
10342TIP3    H230949   7.037   7.590   1.812  0.4269  0.4374  1.6960
10343TIP3   OH230950   5.134   2.078   0.808  0.0225  0.5897  0.1404
10343TIP3    H130951   5.087   2.044   0.885  1.0655 -0.7964  0.1997
10343TIP3    H230952   5.064   2.095   0.744 -0.6824 -0.3176  0.6337
10344TIP3   OH230953   5.373   6.353   2.115  0.3797  0.1186 -1.0104
10344TIP3    H130954   5.313   6.387   2.049 -0.5893  0.1493 -0.1328
10344TIP3    H230955   5.391   6.263   2.088  1.2402  0.6170 -2.1635
10345TIP3   OH230956   3.897   1.595   6.420  0.1005  0.5048  0.3708
10345TIP3    H130957   3.960   1.627   6.486  0.6362 -0.3875  0.3130
10345TIP3    H230958   3.904   1.658   6.348  2.7054 -0.8201 -0.6505
10346TIP3   OH230959   7.400   6.216   2.437 -0.1082  0.2056  0.4100
10346TIP3    H130960   7.327   6.154   2.434 -0.6779  0.8347 -3.1811
10346TIP3    H230961   7.412   6.235   2.531 -2.5010 -2.2188  1.3363
10347TIP3   OH230962   2.605   6.533   2.367  0.6884 -0.2036 -0.0032
10347TIP3    H130963   2.635   6.459   2.315 -1.2046 -0.7818 -0.3554
10347TIP3    H230964   2.638   6.610   2.320  0.8170 -0.7747 -0.8751
10348TIP3   OH230965   4.720   0.374   4.809 -0.7697 -0.0487 -0.2009
10348TIP3    H130966   4.648   0.436   4.822 -0.5439  0.2068 -0.1675
10348TIP3    H230967   4.766   0.407   4.732  0.1120  0.5559  0.5751
10349TIP3   OH230968   3.099   1.489   2.697 -0.0121  0.0385 -0.1489
10349TIP3    H130969   3.191   1.494   2.671  0.3240  0.0853  1.0152
10349TIP3    H230970   3.052   1.528   2.623  0.7520 -1.4395 -1.4701
10350TIP3   OH230971   0.166   2.274   2.798  0.1585  0.6164 -0.0421
10350TIP3    H130972   0.082   2.306   2.829 -1.1614 -1.2639 -1.4560
10350TIP3    H230973   0.155   2.265   2.703  2.1408  0.7985 -0.3438
10351TIP3   OH230974   3.853   2.526   3.098 -0.2262 -0.5007 -0.2816
10351TIP3    H130975   3.758   2.521   3.082 -0.3186 -0.1220  0.1334
10351TIP3    H230976   3.892   2.485   3.021 -0.7301 -0.7101 -0.4318
10352TIP3   OH230977   5.450   0.614   1.399 -0.4162  0.0733  0.4278
10352TIP3    H130978   5.421   0.572   1.480 -0.6380  0.8296  0.7433
10352TIP3    H230979   5.431   0.549   1.331  0.7968 -1.0210  1.0876
10353TIP3   OH230980   7.598   5.072   3.563 -0.2228 -0.5905  0.2350
10353TIP3    H130981   7.502   5.069   3.566 -0.1935 -0.5820  1.9780
10353TIP3    H230982   7.623   5.112   3.646  1.3393 -1.8644  0.4167
10354TIP3   OH230983   4.469   6.409   1.608 -0.4134  0.2347  0.5454
10354TIP3    H130984   4.388   6.439   1.650 -0.7870  2.0332 -1.2962
10354TIP3    H230985   4.443   6.389   1.518  1.1026  0.2989  0.0728
10355TIP3   OH230986   6.874   1.334   4.347 -0.5006 -0.1134  0.3815
10355TIP3    H130987   6.824   1.416   4.342 -1.2598 -0.5709  0.2293
10355TIP3    H230988   6.834   1.286   4.419  0.4207 -0.0448  0.9472
10356TIP3   OH230989   4.711   0.246   0.979  0.8027  0.5566 -0.2267
10356TIP3    H130990   4.686   0.184   0.910  0.9567 -0.5936  0.7199
10356TIP3    H230991   4.700   0.197   1.060  1.8492  1.4738  0.4936
10357TIP3   OH230992   2.437   4.679   2.000 -0.0219 -0.0224  0.2427
10357TIP3    H130993   2.419   4.724   1.918 -1.8950 -0.0201  0.6132
10357TIP3    H230994   2.366   4.707   2.058  0.7822 -0.7060  1.5889
10358TIP3   OH230995   8.522   5.950   4.229  0.1738 -0.2182 -0.0374
10358TIP3    H130996   8.527   6.034   4.184 -0.1806  0.1260  0.5573
10358TIP3    H230997   8.517   5.972   4.322  0.9650 -0.9187  0.1912
10359TIP3   OH230998   1.611   6.008   6.522  0.4636  0.3509 -0.2740
10359TIP3    H130999   1.583   6.061   6.596  2.5826  2.4581 -0.8407
10359TIP3    H231000   1.589   6.061   6.445  0.2755 -0.8024 -1.0466
10360TIP3   OH231001   4.633   0.483   2.455  0.0118  0.6639 -0.5183
10360TIP3    H131002   4.680   0.429   2.391  0.6015  0.9727 -0.3538
10360TIP3    H231003   4.696   0.498   2.525 -0.9636 -0.5209  0.6403
10361TIP3   OH231004   2.515   7.140   6.545  0.6766 -0.4328  1.0578
10361TIP3    H131005   2.491   7.048   6.554  1.5849 -1.3126 -3.3516
10361TIP3    H231006   2.601   7.138   6.503  0.5538  2.4036  0.5058
10362TIP3   OH231007   7.673   5.659   0.621  0.4110 -0.2084  0.1416
10362TIP3    H131008   7.750   5.676   0.566  1.1939 -0.2866  1.1805
10362TIP3    H231009   7.687   5.570   0.655  0.9835  0.5465  2.0406
10363TIP3   OH231010   0.590   4.618   1.129  0.0107 -0.4145  0.1536
10363TIP3    H131011   0.682   4.594   1.145  0.4224  0.2583 -1.1309
10363TIP3    H231012   0.542   4.536   1.139  1.0434 -1.2459 -1.3231
10364TIP3   OH231013   3.226   4.045   1.134 -0.0513  0.3305  0.6423
10364TIP3    H131014   3.288   4.003   1.074 -0.1370  0.7218  0.2753
10364TIP3    H231015   3.273   4.048   1.217  0.2805  0.2773  0.4599
10365TIP3   OH231016   2.428   4.756   5.989 -0.2067 -0.2975 -0.5364
10365TIP3    H131017   2.437   4.681   5.930  1.7837 -2.0274  1.7636
10365TIP3    H231018   2.513   4.800   5.984  0.1018 -0.6415  1.1711
10366TIP3   OH231019   2.602   0.482   3.520  0.6345  0.3896 -0.6161
10366TIP3    H131020   2.549   0.406   3.542 -0.8053  1.0328 -1.7202
10366TIP3    H231021   2.689   0.462   3.555 -0.4602 -0.3925  1.9028
10367TIP3   OH231022   0.635   5.465   5.719  0.4361 -0.2779  0.0897
10367TIP3    H131023   0.631   5.384   5.668  1.7173 -1.7973  2.2411
10367TIP3    H231024   0.718   5.505   5.695 -0.6178  0.9726 -1.6805
10368TIP3   OH231025   3.168   4.556   5.380 -0.5790  0.1580  0.1588
10368TIP3    H131026   3.188   4.650   5.383  2.2324 -0.3903  1.1885
10368TIP3    H231027   3.112   4.547   5.302 -1.5962  2.7494  0.4583
10369TIP3   OH231028   3.221   3.765   0.713  0.4891 -0.2163  0.0030
10369TIP3    H131029   3.125   3.756   0.705  0.5489 -2.2692  1.0774
10369TIP3    H231030   3.233   3.844   0.766 -0.5898  0.1971 -0.3235
10370TIP3   OH231031   3.189   7.293   4.895  0.2076  0.0233 -1.0132
10370TIP3    H131032   3.152   7.310   4.982  0.7667  1.1598 -0.9803
10370TIP3    H231033   3.113   7.268   4.841  0.0604 -2.3771  0.1555
10371TIP3   OH231034   0.515   6.607   0.365  0.0068  0.5816 -0.3040
10371TIP3    H131035   0.479   6.655   0.440  0.0199  0.0980  0.0239
10371TIP3    H231036   0.606   6.588   0.391  0.1745  0.8715 -0.6719
10372TIP3   OH231037   0.451   6.952   6.359  0.0546  0.1119 -0.7068
10372TIP3    H131038   0.358   6.951   6.336 -0.4157  2.1637  0.8665
10372TIP3    H231039   0.463   6.875   6.414 -0.9406  0.3413 -0.1558
10373TIP3   OH231040   3.774   0.739   1.083 -0.6035  0.5799  0.0386
10373TIP3    H131041   3.728   0.686   1.149  0.0149 -0.3415 -0.2515
10373TIP3    H231042   3.715   0.813   1.067 -1.3665  0.1258  0.6575
10374TIP3   OH231043   7.392   6.271   1.491 -0.1049  0.0885 -0.0789
10374TIP3    H131044   7.404   6.249   1.583  1.1443 -0.7342 -0.4094
10374TIP3    H231045   7.334   6.347   1.491 -0.0254  0.1681  1.3816
10375TIP3   OH231046   7.830   5.427   4.743  0.2097 -0.6175 -0.3179
10375TIP3    H131047   7.789   5.388   4.666  0.1910  0.6238 -0.9678
10375TIP3    H231048   7.796   5.517   4.745  2.5413  0.3159 -0.6217
10376TIP3   OH231049   2.747   6.270   2.189 -0.6828  0.0043 -0.1279
10376TIP3    H131050   2.663   6.225   2.179 -0.7309  0.4555 -2.3118
10376TIP3    H231051   2.808   6.219   2.137  0.7298 -0.9370  2.2835
10377TIP3   OH231052   5.287   0.413   3.197  0.3715  0.0069 -0.7606
10377TIP3    H131053   5.318   0.378   3.113  1.2881 -2.8989  0.6503
10377TIP3    H231054   5.367   0.434   3.245 -0.1454  1.5277 -0.5145
10378TIP3   OH231055   3.653   7.249   4.166 -0.2955 -0.2196 -0.4194
10378TIP3    H131056   3.684   7.336   4.141 -1.2478 -0.1966 -1.6164
10378TIP3    H231057   3.575   7.265   4.218  0.7730 -0.3240  1.2888
10379TIP3   OH231058   0.831   6.976   0.626 -0.0733 -0.3428 -0.0125
10379TIP3    H131059   0.753   7.006   0.673 -0.1685  2.4347 -1.7725
10379TIP3    H231060   0.903   7.025   0.665  0.7174 -2.0249  0.7869
10380TIP3   OH231061   6.751   2.788   0.537  0.0222  0.2589  0.0828
10380TIP3    H131062   6.809   2.793   0.461 -0.0020 -1.1868 -0.0650
10380TIP3    H231063   6.765   2.700   0.572 -1.4772  0.1664  0.5218
10381TIP3   OH231064   8.008   6.023   0.951 -0.0466 -0.6588 -0.4623
10381TIP3    H131065   8.013   6.032   0.856  0.6161 -1.4119 -0.5042
10381TIP3    H231066   8.078   6.079   0.984  0.3247 -1.1263 -0.4592
10382TIP3   OH231067   0.641   4.378   0.614  0.2372  0.0154  0.3086
10382TIP3    H131068   0.728   4.413   0.634  0.0764  1.4217 -1.1921
10382TIP3    H231069   0.652   4.283   0.615  1.8660  0.1699 -0.1238
10383TIP3   OH231070   1.483   6.925   0.625 -0.2019 -0.1182 -0.1848
10383TIP3    H131071   1.398   6.884   0.607  0.3633 -1.0225 -0.8138
10383TIP3    H231072   1.547   6.854   0.617  0.5091  0.2712  1.4959
10384TIP3   OH231073   1.105   7.348   5.265 -0.1660  0.7118 -0.3130
10384TIP3    H131074   1.117   7.254   5.249  0.2453  0.8613 -0.8869
10384TIP3    H231075   1.130   7.360   5.357  2.0830  0.6646 -0.8769
10385TIP3   OH231076   5.326   4.861   1.919  0.0174  0.0342 -0.6891
10385TIP3    H131077   5.296   4.950   1.939  0.4747 -0.3206  1.9294
10385TIP3    H231078   5.270   4.804   1.972  0.3399 -1.1884 -1.6126
10386TIP3   OH231079   1.850   2.001   1.868  0.0536  0.3451 -0.3096
10386TIP3    H131080   1.889   1.981   1.953 -1.1917  1.9158  0.6910
10386TIP3    H231081   1.920   2.044   1.818  0.6450 -0.1462  0.0865
10387TIP3   OH231082   0.909   2.607   6.841  0.0968 -0.5305 -0.0470
10387TIP3    H131083   0.815   2.607   6.822  0.1651 -0.9706 -0.4039
10387TIP3    H231084   0.949   2.634   6.758  0.2170  1.0925  0.5132
10388TIP3   OH231085   0.067   1.059   4.690  0.7548 -0.4171 -0.2763
10388TIP3    H131086   0.151   1.026   4.657  0.7558 -0.2936 -0.4001
10388TIP3    H231087   0.076   1.154   4.685  1.4052 -0.3342  1.7181
10389TIP3   OH231088   1.649   6.939   4.545 -0.4817  0.1396 -0.2062
10389TIP3    H131089   1.719   6.976   4.492 -0.4696  1.7631  0.8652
10389TIP3    H231090   1.693   6.905   4.623 -0.8994  2.2740  1.0610
10390TIP3   OH231091   6.379   5.780   5.969  0.4168  0.2145  0.4250
10390TIP3    H131092   6.342   5.694   5.954  1.7792 -0.5276  1.0862
10390TIP3    H231093   6.473   5.764   5.984  0.8538  1.8774 -0.2120
10391TIP3   OH231094   7.788   4.107   5.688 -0.1025  0.2981 -0.4961
10391TIP3    H131095   7.788   4.203   5.686  0.7845  0.3607  0.9676
10391TIP3    H231096   7.832   4.082   5.606  1.8635  1.2458  0.1980
10392TIP3   OH231097   5.260   5.211   3.477  0.1923  0.0291  0.6240
10392TIP3    H131098   5.257   5.305   3.491  0.0857  0.0433  0.5125
10392TIP3    H231099   5.215   5.174   3.553 -0.4409  0.1079  0.3009
10393TIP3   OH231100   7.433   6.916   0.499 -0.1600  0.5136 -0.1469
10393TIP3    H131101   7.395   6.958   0.576 -0.2812  0.9211 -0.4263
10393TIP3    H231102   7.398   6.826   0.501  0.1414  0.4053  0.4775
10394TIP3   OH231103   0.644   1.062   6.461  0.0376 -0.5998  0.5190
10394TIP3    H131104   0.557   1.028   6.441  0.1159 -0.7624  0.4555
10394TIP3    H231105   0.631   1.156   6.474  0.1932 -0.2283 -1.7030
10395TIP3   OH231106   8.005   1.570   6.956 -0.7293  0.4471 -0.0171
10395TIP3    H131107   8.010   1.628   7.032 -0.1048 -2.1568  2.0717
10395TIP3    H231108   8.094   1.536   6.946 -0.9203  0.3477 -1.6147
10396TIP3   OH231109   6.994   0.665   6.367 -0.3074 -0.0619  0.2269
10396TIP3    H131110   6.935   0.609   6.418  2.7991 -2.2165  1.7046
10396TIP3    H231111   6.972   0.646   6.276 -2.3756 -0.1620  0.6864
10397TIP3   OH231112   5.418   5.368   3.136  0.1094 -0.3745  0.3744
10397TIP3    H131113   5.364   5.439   3.171 -0.3316 -0.9455  0.8631
10397TIP3    H231114   5.475   5.343   3.209  0.2209 -0.5673  0.2223
10398TIP3   OH231115   7.934   6.726   6.838 -0.3106 -0.2690  0.0089
10398TIP3    H131116   7.873   6.798   6.820  0.1368  0.1112  0.0025
10398TIP3    H231117   7.978   6.752   6.918  0.0087 -0.4338 -0.1132
10399TIP3   OH231118   6.896   5.552   6.685 -0.5776  0.8641 -0.0523
10399TIP3    H131119   6.923   5.481   6.626  1.2946  1.8494 -0.4680
10399TIP3    H231120   6.801   5.559   6.673 -0.5572 -0.4823 -1.2250
10400TIP3   OH231121   6.723   5.668   7.020  0.2071  0.3385 -0.4059
10400TIP3    H131122   6.786   5.599   7.004  0.8464  0.9306 -0.4885
10400TIP3    H231123   6.737   5.694   7.112 -0.5677 -0.1673 -0.1295
10401TIP3   OH231124   7.075   7.719   6.669  0.3404  0.1479 -0.4535
10401TIP3    H131125   7.035   7.635   6.690  0.7475 -0.5567 -2.3370
10401TIP3    H231126   7.166   7.711   6.699  0.6987 -0.5417 -1.6867
10402TIP3   OH231127   7.784   1.892   5.782 -0.3949  0.2739 -0.4000
10402TIP3    H131128   7.874   1.864   5.766 -1.0457 -2.0036 -0.5611
10402TIP3    H231129   7.783   1.920   5.873 -0.1211 -2.9384  0.7448
10403TIP3   OH231130   0.668   6.816   6.919 -0.0440  0.2797 -0.2791
10403TIP3    H131131   0.702   6.736   6.878  0.8395 -0.0552  1.0302
10403TIP3    H231132   0.742   6.851   6.969 -0.6604  1.4649 -0.1588
10404TIP3   OH231133   4.323   6.137   6.370  0.2105  0.2229  0.0469
10404TIP3    H131134   4.314   6.062   6.429  3.3634 -1.8169 -1.7432
10404TIP3    H231135   4.357   6.207   6.426  1.0031 -0.9606  1.1094
10405TIP3   OH231136   1.322   4.953   0.823 -0.2481  0.1621  0.0082
10405TIP3    H131137   1.248   4.988   0.872 -0.7575 -0.7296 -0.0985
10405TIP3    H231138   1.373   4.905   0.889 -1.5888 -2.0856 -0.5000
10406TIP3   OH231139   6.019   4.956   6.387  0.0359 -0.3163  0.1373
10406TIP3    H131140   5.994   5.021   6.453 -1.6829 -0.2689 -0.5229
10406TIP3    H231141   6.010   4.872   6.432 -0.3259 -0.2407  0.2085
10407TIP3   OH231142   0.568   6.845   1.599 -0.3288 -0.4519 -0.2251
10407TIP3    H131143   0.502   6.907   1.630 -0.2537 -0.1307 -0.6812
10407TIP3    H231144   0.582   6.785   1.672 -2.0162 -1.2837 -0.5362
10408TIP3   OH231145   6.659   5.435   2.559 -0.8611 -0.4970  0.3063
10408TIP3    H131146   6.625   5.521   2.534  0.3573  0.3693  1.4701
10408TIP3    H231147   6.589   5.395   2.610 -0.7168  0.6586  1.4649
10409TIP3   OH231148   7.467   7.680   3.657  0.7403 -0.1214  0.1833
10409TIP3    H131149   7.525   7.719   3.723  2.2078  0.2279 -1.2422
10409TIP3    H231150   7.381   7.716   3.677  1.1041 -0.1366  1.9794
10410TIP3   OH231151   0.803   8.086   2.027 -0.2499 -0.2287 -0.6163
10410TIP3    H131152   0.747   8.147   1.978 -2.5446 -2.5255 -1.0557
10410TIP3    H231153   0.812   8.010   1.969  1.0427 -1.0691  0.6109
10411TIP3   OH231154   2.081   0.078   6.878 -0.5455  0.0228  0.1075
10411TIP3    H131155   2.126   0.156   6.846 -0.9572  0.2081 -0.0294
10411TIP3    H231156   2.104   0.073   6.970 -2.4350  1.6987  0.7507
10412TIP3   OH231157   4.993   6.040   3.310 -0.8109  0.0374 -0.1395
10412TIP3    H131158   5.077   6.053   3.355 -0.4759 -2.5537  0.1064
10412TIP3    H231159   4.990   6.110   3.245  0.5561  1.4366  1.2128
10413TIP3   OH231160   3.005   5.241   0.517  0.5359 -0.4811  0.1593
10413TIP3    H131161   3.060   5.205   0.447  0.2629  1.9443 -1.4324
10413TIP3    H231162   2.925   5.267   0.473 -0.3915 -0.5121  1.7521
10414TIP3   OH231163   2.125   0.900   6.198  0.2816 -0.7057 -0.0056
10414TIP3    H131164   2.172   0.941   6.125 -1.9626 -1.1758 -1.8127
10414TIP3    H231165   2.101   0.973   6.255 -0.8570  0.1518 -1.5099
10415TIP3   OH231166   0.947   2.418   5.596 -0.2757 -0.0999 -0.3863
10415TIP3    H131167   0.907   2.342   5.636 -1.7391  1.5949  1.5626
10415TIP3    H231168   1.030   2.430   5.643  0.7814 -1.3436 -1.8051
10416TIP3   OH231169   3.325   4.514   2.757 -0.2235  0.1422  0.5147
10416TIP3    H131170   3.275   4.594   2.776  0.2344  0.6295 -0.2472
10416TIP3    H231171   3.259   4.445   2.753 -0.7489  0.6380  0.3200
10417TIP3   OH231172   5.862   0.962   1.477  0.1703 -0.4065 -0.5801
10417TIP3    H131173   5.823   1.002   1.400 -0.7757  0.7838  0.4805
10417TIP3    H231174   5.841   0.869   1.468 -0.1272 -0.2545 -1.6272
10418TIP3   OH231175   7.018   4.309   0.629 -0.3067  0.2683  0.1033
10418TIP3    H131176   7.071   4.273   0.700 -1.2676 -2.6485 -0.5469
10418TIP3    H231177   7.074   4.302   0.552 -0.3595  0.5973  0.0331
10419TIP3   OH231178   5.498   4.057   6.646  0.9451 -0.1572  0.5779
10419TIP3    H131179   5.587   4.056   6.612  1.0981 -2.4966  0.8892
10419TIP3    H231180   5.443   4.036   6.570  0.7719  0.0930  0.6319
10420TIP3   OH231181   2.998   3.482   1.614 -0.3381  0.1148 -0.3350
10420TIP3    H131182   2.934   3.534   1.566 -0.5801  1.0290  0.9572
10420TIP3    H231183   2.990   3.394   1.577 -1.1279  0.6007 -1.3535
10421TIP3   OH231184   2.620   3.397   0.219  0.1204  0.2639 -0.0383
10421TIP3    H131185   2.542   3.451   0.231  0.1852  0.0233  1.9060
10421TIP3    H231186   2.586   3.311   0.193 -0.2988  0.1343  0.8879
10422TIP3   OH231187   6.576   2.567   2.608 -0.0716 -0.0060 -0.4439
10422TIP3    H131188   6.665   2.599   2.620  0.1285 -0.3260 -1.0801
10422TIP3    H231189   6.532   2.587   2.691  0.7949 -0.5227  0.1548
10423TIP3   OH231190   5.339   2.206   6.075 -0.2206  0.5619  0.2977
10423TIP3    H131191   5.271   2.144   6.102 -1.2127  0.5919 -1.9126
10423TIP3    H231192   5.391   2.156   6.011  0.6212  1.1751  0.4975
10424TIP3   OH231193   0.878   1.022   0.742  0.0731  0.1028 -0.4120
10424TIP3    H131194   0.927   1.026   0.825 -0.2654  0.9179 -0.2401
10424TIP3    H231195   0.935   1.065   0.679 -0.3078  0.8429 -0.2627
10425TIP3   OH231196   1.190   5.365   3.263  0.1841 -0.0643  0.0480
10425TIP3    H131197   1.119   5.312   3.227 -0.1534  1.0448 -0.9832
10425TIP3    H231198   1.261   5.357   3.199  0.3221  0.3056  0.1518
10426TIP3   OH231199   1.138   1.490   1.845 -0.1000  1.2992  0.0565
10426TIP3    H131200   1.072   1.539   1.893 -0.3827  3.5560 -2.3475
10426TIP3    H231201   1.106   1.400   1.842 -0.3202  1.1676  3.4040
10427TIP3   OH231202   2.526   7.712   6.106  0.2811  0.3587  0.3316
10427TIP3    H131203   2.558   7.623   6.124 -0.1210  0.1379 -0.0397
10427TIP3    H231204   2.552   7.763   6.183 -0.3943 -0.3074  1.0131
10428TIP3   OH231205   1.117   2.875   2.329 -0.2402  0.5041  0.3022
10428TIP3    H131206   1.047   2.938   2.310  0.5760  0.8268 -2.0065
10428TIP3    H231207   1.121   2.821   2.250  2.4945  0.8995  0.0958
10429TIP3   OH231208   6.828   2.286   1.341 -0.1359 -0.4319 -0.0958
10429TIP3    H131209   6.889   2.222   1.377  0.2986  0.6271  1.1137
10429TIP3    H231210   6.877   2.368   1.338 -1.3279  0.3263  0.4289
10430TIP3   OH231211   5.917   1.219   0.012  0.6857 -0.3948  0.1006
10430TIP3    H131212   5.969   1.219   0.092  1.9628 -1.0252 -0.7005
10430TIP3    H231213   5.969   1.269  -0.051  0.6260 -1.5102 -0.8825
10431TIP3   OH231214   0.746   2.783   5.769  0.0206 -0.0032  0.1731
10431TIP3    H131215   0.717   2.694   5.785  1.1138 -0.6527 -1.2137
10431TIP3    H231216   0.676   2.822   5.716  0.4611 -0.7293 -0.9829
10432TIP3   OH231217   8.394   6.278   2.383 -0.5631 -0.1417 -0.0378
10432TIP3    H131218   8.478   6.271   2.337 -0.6611 -0.1280 -0.2202
10432TIP3    H231219   8.332   6.304   2.315 -0.4220  1.3876  0.3803
10433TIP3   OH231220   0.756   0.346   1.647  0.8177  0.2051  0.1065
10433TIP3    H131221   0.787   0.369   1.734  1.9220 -1.3788  0.1718
10433TIP3    H231222   0.683   0.286   1.662 -1.6976  3.0190 -0.0667
10434TIP3   OH231223   3.274   7.938   2.688  0.5903 -0.3992 -0.5643
10434TIP3    H131224   3.335   8.011   2.692  0.8274 -0.5407 -1.5166
10434TIP3    H231225   3.301   7.880   2.760  1.3861 -0.3173 -0.7960
10435TIP3   OH231226   7.744   2.478   3.211  0.1786  0.3668 -0.1175
10435TIP3    H131227   7.803   2.412   3.247  0.0470  0.9932  1.3165
10435TIP3    H231228   7.663   2.430   3.194  0.8058 -0.3188 -1.3307
10436TIP3   OH231229   2.889   1.000   4.565 -0.0031 -0.7886  0.2476
10436TIP3    H131230   2.873   0.986   4.472  0.9515  2.0880 -0.4469
10436TIP3    H231231   2.936   0.922   4.594  1.1848 -1.0202 -2.0952
10437TIP3   OH231232   8.071   6.975   3.276  0.8318  0.5458  0.6566
10437TIP3    H131233   8.018   6.971   3.196  0.2832 -0.8459  1.0582
10437TIP3    H231234   8.161   6.978   3.244  0.5994  0.5104 -0.0197
10438TIP3   OH231235   2.473   7.035   4.632 -0.8512 -1.0255 -0.1058
10438TIP3    H131236   2.563   7.001   4.639  0.3338  1.4583 -1.8446
10438TIP3    H231237   2.468   7.072   4.544 -2.8188  0.9528  0.7578
10439TIP3   OH231238   3.767   6.551   1.136 -0.3741 -0.5161 -0.1286
10439TIP3    H131239   3.782   6.482   1.071 -0.1424 -0.9815  0.4171
10439TIP3    H231240   3.844   6.548   1.193  0.4300  1.2799 -1.0447
10440TIP3   OH231241   8.034   0.390   1.241  0.2485 -0.2808 -0.3360
10440TIP3    H131242   8.115   0.434   1.269  1.0663 -1.3145 -1.0077
10440TIP3    H231243   8.044   0.300   1.273 -0.7154 -0.3774 -0.2972
10441TIP3   OH231244   5.773   7.561   2.135 -0.1207  0.8559 -0.1834
10441TIP3    H131245   5.777   7.466   2.124 -0.6052  0.7438  0.5403
10441TIP3    H231246   5.862   7.591   2.120  0.3714  0.1121  1.0984
10442TIP3   OH231247   7.891   6.005   0.294  0.6536 -0.0771 -0.0454
10442TIP3    H131248   7.974   5.961   0.315  0.4831  0.8588  3.0338
10442TIP3    H231249   7.828   5.968   0.356 -0.8221  0.5313 -1.1231
10443TIP3   OH231250   5.057   3.233   4.224  0.3560  0.2346 -0.1108
10443TIP3    H131251   4.974   3.254   4.181  0.4317  0.5342 -0.1154
10443TIP3    H231252   5.036   3.161   4.284  0.0498  0.4434  0.0353
10444TIP3   OH231253   4.337   2.744   1.262 -0.1964  0.1708 -0.1566
10444TIP3    H131254   4.307   2.717   1.349 -0.2652 -0.2379 -0.3070
10444TIP3    H231255   4.427   2.713   1.257 -0.1524  0.3035 -0.1855
10445TIP3   OH231256   1.106   2.232   2.156 -0.2036 -0.2498 -0.1931
10445TIP3    H131257   1.169   2.175   2.113  1.3508  0.6168  0.8290
10445TIP3    H231258   1.158   2.306   2.189 -1.3557 -0.5090  2.5155
10446TIP3   OH231259   2.475   1.057   1.070 -0.5770 -0.3438 -0.3628
10446TIP3    H131260   2.419   0.980   1.060 -0.4783 -0.4467 -0.1240
10446TIP3    H231261   2.555   1.023   1.110 -1.4101  0.2288  1.9948
10447TIP3   OH231262   1.086   5.901   4.744  0.4487 -0.8637  0.4577
10447TIP3    H131263   1.044   5.831   4.793  1.0253  0.3146  2.7618
10447TIP3    H231264   1.064   5.981   4.792  1.0071  0.3998 -1.2639
10448TIP3   OH231265   1.548   1.877   3.679  0.5743 -0.2666 -0.5853
10448TIP3    H131266   1.612   1.806   3.672  2.7160  1.1854  2.1239
10448TIP3    H231267   1.549   1.919   3.593  0.6382 -2.3183 -1.6534
10449TIP3   OH231268   2.947   6.549   5.790 -0.1525  0.0111  0.0067
10449TIP3    H131269   2.878   6.610   5.815 -0.2552 -0.2683  0.4327
10449TIP3    H231270   2.901   6.480   5.741 -0.5027 -1.0967  1.7855
10450TIP3   OH231271   5.936   3.485   4.406  0.3207  0.6381  0.2560
10450TIP3    H131272   6.010   3.426   4.392  0.2184  0.1284  1.7016
10450TIP3    H231273   5.869   3.431   4.447 -1.1250  0.9392 -1.5767
10451TIP3   OH231274   0.567   4.218   2.969  0.4684 -0.0115 -0.3833
10451TIP3    H131275   0.507   4.178   3.033 -0.4709 -0.9515 -1.7878
10451TIP3    H231276   0.511   4.270   2.912  1.2647  0.6597 -0.5799
10452TIP3   OH231277   7.453   0.353   4.980 -0.1308 -0.4547 -0.1573
10452TIP3    H131278   7.433   0.431   5.033 -1.2240  0.2037 -1.4674
10452TIP3    H231279   7.374   0.300   4.986  0.8608 -1.8662  1.3016
10453TIP3   OH231280   6.760   2.242   1.992 -0.5025  0.2954 -0.0765
10453TIP3    H131281   6.716   2.325   2.010  0.3509  0.6145  0.6237
10453TIP3    H231282   6.688   2.179   1.982 -1.1331  0.8517  0.7517
10454TIP3   OH231283   0.898   1.496   2.851 -0.1861  0.3034  0.4740
10454TIP3    H131284   0.821   1.516   2.904 -1.5063  1.9310 -1.8733
10454TIP3    H231285   0.939   1.581   2.834  0.0783 -0.1150 -1.2072
10455TIP3   OH231286   4.603   2.120   1.454 -0.1909 -0.1992 -0.5004
10455TIP3    H131287   4.513   2.090   1.461  0.7238 -3.2624 -0.4646
10455TIP3    H231288   4.628   2.141   1.544 -0.2568 -1.3636 -0.2020
10456TIP3   OH231289   2.868   2.895   2.831  0.3267 -0.3531 -0.2480
10456TIP3    H131290   2.934   2.964   2.830  0.8597 -0.8486  0.0096
10456TIP3    H231291   2.909   2.823   2.880  0.2345 -1.2957 -1.4988
10457TIP3   OH231292   1.190   3.292   4.386  0.1771 -0.5264  0.7347
10457TIP3    H131293   1.282   3.318   4.390  0.6096 -1.5159 -1.3676
10457TIP3    H231294   1.165   3.308   4.295 -2.4733  1.9039  1.7397
10458TIP3   OH231295   3.892   6.559   6.915  0.6635  0.1646  0.4049
10458TIP3    H131296   3.979   6.528   6.941  0.5568 -0.0489  0.5046
10458TIP3    H231297   3.852   6.588   6.996  0.4437 -0.2225  0.4350
10459TIP3   OH231298   4.469   6.905   2.373 -0.2320 -0.4028  0.5940
10459TIP3    H131299   4.468   6.819   2.417 -1.5810 -1.9268 -2.1172
10459TIP3    H231300   4.379   6.916   2.341  0.6936  0.3139 -2.0615
10460TIP3   OH231301   4.731   5.286   1.841  0.3009 -0.7025  0.2716
10460TIP3    H131302   4.646   5.245   1.831  0.2691 -0.8073  0.9297
10460TIP3    H231303   4.750   5.281   1.935  0.8113 -0.2469  0.2020
10461TIP3   OH231304   1.399   1.245   2.648  0.8957 -0.2456  0.5096
10461TIP3    H131305   1.320   1.293   2.672  0.4423 -1.1149  0.7533
10461TIP3    H231306   1.369   1.158   2.623  1.7224 -0.4320  0.1292
10462TIP3   OH231307   4.229   0.546   0.419 -0.7057 -0.3333  0.5249
10462TIP3    H131308   4.146   0.512   0.386 -1.7584  0.5352  2.1126
10462TIP3    H231309   4.244   0.497   0.500  1.9313 -2.6065 -1.1811
10463TIP3   OH231310   5.668   2.159   5.284 -0.2722  0.3839  0.5495
10463TIP3    H131311   5.575   2.157   5.262  0.1035 -0.4855 -1.1919
10463TIP3    H231312   5.684   2.075   5.328 -0.1821  0.2310  0.2274
10464TIP3   OH231313   4.079   3.400   5.701 -0.5032 -0.0556  0.7333
10464TIP3    H131314   4.082   3.348   5.620 -0.0085  0.5792  0.3334
10464TIP3    H231315   4.150   3.463   5.691 -1.0338  0.6349  1.2597
10465TIP3   OH231316   0.497   1.317   3.666  0.0804  0.0585 -0.0443
10465TIP3    H131317   0.418   1.347   3.621  1.2606  1.0673 -1.5320
10465TIP3    H231318   0.523   1.392   3.720  0.5736  0.0996 -0.3355
10466TIP3   OH231319   7.302   6.505   1.372  0.1214  0.0631  0.3051
10466TIP3    H131320   7.213   6.538   1.356 -0.2775 -1.0924  0.0602
10466TIP3    H231321   7.329   6.467   1.288  0.8489  0.3936  0.3837
10467TIP3   OH231322   7.958   1.214   6.701  0.3094 -0.3933  0.2150
10467TIP3    H131323   8.046   1.240   6.727  0.0756 -0.2714  0.8853
10467TIP3    H231324   7.902   1.286   6.730 -0.1551 -0.9759  0.7737
10468TIP3   OH231325   5.559   5.137   2.009  0.0907  0.3245 -0.0064
10468TIP3    H131326   5.558   5.203   2.078 -2.4636 -0.4802  0.8583
10468TIP3    H231327   5.546   5.054   2.055 -1.5464 -0.2594 -1.3966
10469TIP3   OH231328   0.802   5.387   2.552 -0.4370 -0.0765 -0.1585
10469TIP3    H131329   0.725   5.421   2.507 -0.6297 -1.4266 -0.8864
10469TIP3    H231330   0.808   5.295   2.525  0.0026 -0.6793  1.8236
10470TIP3   OH231331   4.801   7.546   1.868  0.2227 -0.3854 -0.0897
10470TIP3    H131332   4.790   7.476   1.931  0.1976  0.7104  1.1591
10470TIP3    H231333   4.717   7.593   1.868 -0.0833 -0.8624 -1.5888
10471TIP3   OH231334   6.037   0.950   4.002 -0.3290 -0.2901 -0.3446
10471TIP3    H131335   6.076   1.037   4.004  1.4477 -1.0131  1.9702
10471TIP3    H231336   5.970   0.952   4.070 -0.1633 -0.7688 -0.1638
10472TIP3   OH231337   1.631   6.965   2.791  0.0288  0.6555  0.1417
10472TIP3    H131338   1.648   6.941   2.700 -1.3620  0.7913 -0.1783
10472TIP3    H231339   1.714   7.001   2.822  0.4381  0.9118 -1.1723
10473TIP3   OH231340   1.656   6.471   0.420 -0.1896 -0.0232  0.5081
10473TIP3    H131341   1.593   6.411   0.459  0.4004  0.7315  2.7541
10473TIP3    H231342   1.623   6.558   0.443  1.1226  0.4090  0.8541
10474TIP3   OH231343   0.046   6.068   0.774  0.0188  0.5785  0.1485
10474TIP3    H131344   0.050   6.008   0.848 -1.2399  0.7609  0.3898
10474TIP3    H231345   0.135   6.070   0.740  0.1342 -1.2518  0.2618
10475TIP3   OH231346   7.148   3.501   4.739 -0.0698  0.4831  0.1116
10475TIP3    H131347   7.223   3.507   4.679  0.2746  0.1767  0.5048
10475TIP3    H231348   7.075   3.474   4.684 -0.3232  2.4838 -0.6182
10476TIP3   OH231349   0.470   2.460   6.165 -0.2798  0.3629 -0.2145
10476TIP3    H131350   0.424   2.381   6.138 -0.7480  0.4902  0.2023
10476TIP3    H231351   0.419   2.532   6.128 -0.3270  0.4978  0.1071
10477TIP3   OH231352   0.800   5.135   2.464 -0.5060  0.1793 -0.6210
10477TIP3    H131353   0.743   5.108   2.536 -1.2240  1.2652 -0.7667
10477TIP3    H231354   0.839   5.054   2.432 -2.1767 -0.6191 -0.6971
10478TIP3   OH231355   1.469   2.093   5.430  0.5206  0.0574 -0.6655
10478TIP3    H131356   1.489   2.029   5.498  1.7328 -0.0857 -1.1347
10478TIP3    H231357   1.373   2.097   5.428  0.4613 -0.0332  0.9395
10479TIP3   OH231358   3.299   2.604   6.833  0.1534  0.0351 -0.3930
10479TIP3    H131359   3.235   2.674   6.842  0.2837  0.2250 -0.9279
10479TIP3    H231360   3.371   2.643   6.783  1.5336  0.4035  1.7137
10480TIP3   OH231361   4.552  -0.008   3.322  0.5285  0.4147 -0.2450
10480TIP3    H131362   4.462   0.022   3.332  0.2951  0.0436 -1.1136
10480TIP3    H231363   4.600   0.035   3.393 -0.3937  0.3379  0.4341
10481TIP3   OH231364   3.466   0.826   1.455  0.0138  0.0459  0.1920
10481TIP3    H131365   3.403   0.867   1.396 -0.4903 -1.1910 -0.1562
10481TIP3    H231366   3.414   0.768   1.510  0.5907  0.5519  1.3264
10482TIP3   OH231367   2.157   2.337   0.876  0.2469 -0.6087  0.1372
10482TIP3    H131368   2.238   2.367   0.835  0.1122 -1.0640 -0.4871
10482TIP3    H231369   2.179   2.324   0.968  0.5073  0.6202  0.2707
10483TIP3   OH231370   4.936   1.458   4.522 -0.3834 -0.9521 -0.5433
10483TIP3    H131371   4.873   1.486   4.456 -0.4545  0.5497  0.1327
10483TIP3    H231372   5.016   1.507   4.502 -0.4522 -0.3666  0.5499
10484TIP3   OH231373   6.892   3.088   2.387  0.5612 -0.0476 -0.0477
10484TIP3    H131374   6.946   3.019   2.348  0.0324 -0.1246 -0.6538
10484TIP3    H231375   6.807   3.046   2.403  0.0340  0.6334 -1.0132
10485TIP3   OH231376   7.822   1.773   3.655 -0.3770  0.0740 -0.4512
10485TIP3    H131377   7.781   1.825   3.724 -0.7995 -0.1871 -0.5012
10485TIP3    H231378   7.855   1.695   3.700 -1.4823 -0.5472 -0.6801
10486TIP3   OH231379   2.681   6.199   6.445 -0.3326  0.2325 -0.0110
10486TIP3    H131380   2.605   6.171   6.394 -2.5732  0.9100  2.7129
10486TIP3    H231381   2.687   6.293   6.430  0.5807  0.0460 -0.9153
10487TIP3   OH231382   0.524   5.728   0.315  0.1799 -0.0253 -0.1529
10487TIP3    H131383   0.458   5.698   0.252  0.4220  0.5125 -0.6674
10487TIP3    H231384   0.567   5.647   0.344  0.1392 -0.2655 -0.7533
10488TIP3   OH231385   5.869   4.266   5.570  0.2819  0.3574 -0.0431
10488TIP3    H131386   5.920   4.188   5.593 -0.9242  0.1138  2.1253
10488TIP3    H231387   5.848   4.254   5.477 -0.2437 -2.1786  0.3178
10489TIP3   OH231388   3.488   3.467   1.725  0.5180 -0.2495  0.2236
10489TIP3    H131389   3.464   3.516   1.646  1.7654  1.1918  0.6810
10489TIP3    H231390   3.574   3.430   1.705  1.1855  0.7561  1.1371
10490TIP3   OH231391   6.567   0.028   2.566 -0.1751  0.4288 -0.2939
10490TIP3    H131392   6.567  -0.006   2.477  2.5052 -0.8400  0.0709
10490TIP3    H231393   6.585   0.121   2.557  3.1438 -0.1423 -1.1401
10491TIP3   OH231394   4.538   5.531   5.403 -0.3268 -0.0493  0.3644
10491TIP3    H131395   4.523   5.467   5.472  0.9658  0.2888  1.0020
10491TIP3    H231396   4.452   5.567   5.383 -0.7902 -0.5431  1.4311
10492TIP3   OH231397   1.730   2.149   6.787 -0.1609 -0.0125 -0.5752
10492TIP3    H131398   1.726   2.136   6.882  3.1591 -1.6813 -0.5426
10492TIP3    H231399   1.649   2.109   6.755 -1.3968  0.6508  1.5071
10493TIP3   OH231400   0.142   3.764   6.949 -0.5240  0.1638  0.0156
10493TIP3    H131401   0.233   3.763   6.980 -0.6370  0.2094  0.3585
10493TIP3    H231402   0.100   3.693   6.997 -0.2473 -1.0735 -1.4907
10494TIP3   OH231403   7.018   7.884   3.622  0.4393 -0.2243 -0.5643
10494TIP3    H131404   7.007   7.871   3.528 -1.9662  0.1404 -0.4012
10494TIP3    H231405   7.020   7.979   3.634 -0.4889 -0.2446 -0.1622
10495TIP3   OH231406   6.917  -0.001   6.475 -0.4025  0.0484 -0.5917
10495TIP3    H131407   6.993   0.044   6.436  0.4887 -1.3219 -0.4952
10495TIP3    H231408   6.863   0.070   6.510  0.9847  1.0591 -0.4063
10496TIP3   OH231409   1.735   7.111   4.064  0.0605 -0.2447  0.0922
10496TIP3    H131410   1.771   7.069   3.986 -1.0359 -2.3958  0.6723
10496TIP3    H231411   1.723   7.203   4.038  1.7726 -0.4088 -1.5113
10497TIP3   OH231412   4.984   4.221   5.063 -0.0324  0.4989  0.1640
10497TIP3    H131413   4.927   4.148   5.037  0.6058 -0.3249  0.9587
10497TIP3    H231414   5.038   4.184   5.134  0.5670  1.6440  0.3273
10498TIP3   OH231415   6.329   2.446   2.620 -0.0459  0.1426  0.0636
10498TIP3    H131416   6.389   2.508   2.578 -0.3513  0.4145  0.0260
10498TIP3    H231417   6.385   2.393   2.677  0.0042  1.5777  1.4149
10499TIP3   OH231418   7.623   5.418   4.175  0.2316  0.4061  0.0505
10499TIP3    H131419   7.541   5.369   4.166  0.0397  0.9679 -1.5253
10499TIP3    H231420   7.685   5.354   4.210 -0.6949 -0.2163  0.6076
10500TIP3   OH231421   4.406   1.491   1.542 -0.4355 -0.4353 -0.1405
10500TIP3    H131422   4.430   1.409   1.585 -2.1180 -1.3763 -0.9442
10500TIP3    H231423   4.470   1.501   1.472 -0.2116 -1.0312 -0.0266
10501TIP3   OH231424   5.347   4.600   4.381 -0.4141  0.3790  0.2764
10501TIP3    H131425   5.417   4.647   4.336 -1.9545  0.6284 -1.9851
10501TIP3    H231426   5.384   4.580   4.467  2.1833  1.0476 -0.5900
10502TIP3   OH231427   6.221   7.426   4.391  0.2586 -0.0933  0.1149
10502TIP3    H131428   6.283   7.478   4.442 -0.4552  1.8773 -0.9204
10502TIP3    H231429   6.149   7.486   4.373 -1.6926 -2.1053  0.7050
10503TIP3   OH231430   7.149   2.355   4.968 -0.4684  0.9055  0.1068
10503TIP3    H131431   7.228   2.391   4.928 -0.0618 -0.9899 -0.9264
10503TIP3    H231432   7.106   2.307   4.897 -0.4245 -1.4591  1.5673
10504TIP3   OH231433   6.213   7.927   2.561  0.6017 -0.2372 -0.2563
10504TIP3    H131434   6.289   7.904   2.616 -0.6213 -0.4258  1.4494
10504TIP3    H231435   6.146   7.864   2.588 -0.7601  1.1579 -0.3090
10505TIP3   OH231436   2.964   3.093   3.366  0.0046 -0.3500  0.4016
10505TIP3    H131437   3.032   3.040   3.325 -0.7297 -0.6529 -0.4652
10505TIP3    H231438   3.012   3.156   3.420  0.9925 -0.1412 -0.6840
10506TIP3   OH231439   5.092   7.445   5.822  0.5932  0.2044 -0.3108
10506TIP3    H131440   5.113   7.468   5.913  0.7448  0.6401 -0.4539
10506TIP3    H231441   5.050   7.360   5.828 -0.3806  0.7088  0.2830
10507TIP3   OH231442   1.804   5.802   5.947 -0.6945 -0.2428 -0.1133
10507TIP3    H131443   1.890   5.811   5.905  0.7017  0.0154  2.5651
10507TIP3    H231444   1.792   5.707   5.955 -0.5688 -0.2760 -0.2969
10508TIP3   OH231445   0.511   6.051   4.616 -0.1842 -0.9673 -0.3365
10508TIP3    H131446   0.582   6.100   4.656  1.9700 -3.1831 -1.1634
10508TIP3    H231447   0.486   6.102   4.539  1.6314 -0.8217 -0.8881
10509TIP3   OH231448   6.249   7.932   6.707 -0.4104  0.4686 -0.1203
10509TIP3    H131449   6.260   7.898   6.795 -2.0783 -1.0760 -0.4476
10509TIP3    H231450   6.165   7.898   6.678 -0.9050  2.6676 -1.5572
10510TIP3   OH231451   2.369   0.573   6.960 -0.0646  0.0722 -0.1262
10510TIP3    H131452   2.405   0.490   6.992  0.3834  0.9050  1.6518
10510TIP3    H231453   2.357   0.559   6.866  0.1584 -1.9394  0.0928
10511TIP3   OH231454   6.751   2.184   1.639  0.0898  0.2603 -0.2848
10511TIP3    H131455   6.809   2.242   1.590  0.6721 -1.1813 -1.3572
10511TIP3    H231456   6.664   2.222   1.628  0.4985  1.0873 -0.7202
10512TIP3   OH231457   2.018   8.185   3.258  0.2272  0.2950  0.5915
10512TIP3    H131458   1.941   8.162   3.311 -0.1905 -2.1700 -0.9840
10512TIP3    H231459   1.983   8.205   3.172  1.2926 -0.2903  0.0031
10513TIP3   OH231460   4.936   2.196   0.256 -1.4449 -0.4951 -0.2088
10513TIP3    H131461   4.905   2.277   0.296 -2.1727 -0.2920 -1.1514
10513TIP3    H231462   4.884   2.187   0.176 -0.0070 -0.8629 -1.1463
10514TIP3   OH231463   5.246   4.621   4.928 -0.2016 -0.2214 -0.2755
10514TIP3    H131464   5.331   4.652   4.897 -0.3012  2.0547  1.4639
10514TIP3    H231465   5.191   4.699   4.931 -2.3288 -1.6031 -1.1495
10515TIP3   OH231466   5.005   3.230   6.289 -0.4045 -0.6723 -0.2311
10515TIP3    H131467   4.942   3.247   6.220 -1.6695 -0.5047  0.9213
10515TIP3    H231468   4.963   3.264   6.368  1.5832  0.4357  0.4141
10516TIP3   OH231469   6.690   0.350   5.581 -0.4182 -0.1694  0.1446
10516TIP3    H131470   6.676   0.331   5.673 -0.2963 -0.8726  0.0205
10516TIP3    H231471   6.717   0.442   5.580  1.8746 -0.7740  1.0444
10517TIP3   OH231472   2.721   2.649   1.122  0.1564 -0.2994  0.0448
10517TIP3    H131473   2.812   2.650   1.091  0.3298 -0.8983  0.5143
10517TIP3    H231474   2.725   2.693   1.207 -0.2770  1.1289 -0.6473
10518TIP3   OH231475   0.373   7.344   0.123 -0.1463  0.1525 -0.3389
10518TIP3    H131476   0.443   7.329   0.186  0.0961  1.2574 -0.3250
10518TIP3    H231477   0.297   7.300   0.161  0.3848 -0.5404 -0.0620
10519TIP3   OH231478   1.410   0.069   2.837 -0.2188 -0.5355  0.3893
10519TIP3    H131479   1.344   0.099   2.900 -2.7002 -1.2234 -1.7152
10519TIP3    H231480   1.460   0.148   2.816 -0.2379 -0.0180  2.1263
10520TIP3   OH231481   6.168   0.423   5.233 -0.2345  0.3641 -0.3788
10520TIP3    H131482   6.155   0.377   5.316  2.0753 -1.7172 -1.0669
10520TIP3    H231483   6.100   0.387   5.176 -0.7313  0.5433  0.0799
10521TIP3   OH231484   0.512   5.677   4.711 -0.6175  0.2856  0.4728
10521TIP3    H131485   0.429   5.654   4.752 -0.4358  0.1198  0.7611
10521TIP3    H231486   0.493   5.752   4.656 -1.0185  0.0578  0.3019
10522TIP3   OH231487   2.311   0.714   6.331 -0.3303  0.6111  0.0060
10522TIP3    H131488   2.295   0.762   6.250  0.8626 -0.8879 -1.1737
10522TIP3    H231489   2.327   0.624   6.303 -4.5097 -1.1238  2.2080
10523TIP3   OH231490   3.672   0.557   0.891 -0.1126  0.1226 -0.1406
10523TIP3    H131491   3.634   0.635   0.851  0.1873  0.9669  1.1919
10523TIP3    H231492   3.713   0.588   0.972  1.1641 -1.1997 -0.2458
10524TIP3   OH231493   5.714   0.199   2.131 -0.4104  0.4095  0.3634
10524TIP3    H131494   5.667   0.141   2.071 -0.9311  2.1303 -0.9665
10524TIP3    H231495   5.805   0.170   2.124 -0.5825  0.0458 -0.6734
10525TIP3   OH231496   4.902   4.302   3.359  0.1031 -0.2226  0.3134
10525TIP3    H131497   4.934   4.220   3.395 -1.0962 -0.2941  1.2756
10525TIP3    H231498   4.979   4.359   3.355  0.8097 -1.1674  0.2567
10526TIP3   OH231499   2.199   3.867   6.456  0.4962  0.2247  0.2954
10526TIP3    H131500   2.244   3.784   6.437 -0.9104 -0.4586 -0.2015
10526TIP3    H231501   2.108   3.842   6.469  0.2248  1.5885  1.1669
10527TIP3   OH231502   1.249   4.397   2.669  0.2183 -0.1458  0.2901
10527TIP3    H131503   1.306   4.416   2.595  1.3361 -1.2670  0.8150
10527TIP3    H231504   1.189   4.471   2.673  1.6458  1.1083 -0.2817
10528TIP3   OH231505   5.445   6.126   7.048 -0.1008 -0.3632 -0.2578
10528TIP3    H131506   5.459   6.045   6.998 -1.1226 -0.8035  0.1278
10528TIP3    H231507   5.461   6.196   6.985  0.4318 -0.8768 -0.7012
10529TIP3   OH231508   2.205   4.425   4.735  0.1097  0.6617  0.0931
10529TIP3    H131509   2.267   4.433   4.808 -0.4256  0.2061  0.6124
10529TIP3    H231510   2.203   4.331   4.716 -0.5214  0.6535  0.1791
10530TIP3   OH231511   2.932   7.786   4.146 -0.1024  0.4007 -0.0977
10530TIP3    H131512   2.897   7.716   4.090  0.3203 -0.4732  0.7019
10530TIP3    H231513   2.969   7.849   4.084 -3.1631  1.4747 -1.0044
10531TIP3   OH231514   7.047   4.861   0.790  0.1453 -0.1834  0.2042
10531TIP3    H131515   6.956   4.854   0.817 -0.3448 -2.1383 -1.6871
10531TIP3    H231516   7.079   4.771   0.787  1.4814  0.2803 -1.2305
10532TIP3   OH231517   6.902   3.020   6.973 -0.3318  0.2339 -0.3223
10532TIP3    H131518   6.942   3.003   7.058  0.5321  1.0893 -0.5355
10532TIP3    H231519   6.851   3.100   6.986 -2.7529 -1.2847  0.1691
10533TIP3   OH231520   7.680   1.484   3.421  0.7244 -0.5908 -0.4263
10533TIP3    H131521   7.644   1.489   3.510  1.6847  0.1565 -0.0630
10533TIP3    H231522   7.623   1.421   3.376 -0.7134  0.1590  0.2582
10534TIP3   OH231523   5.980   2.564   4.398  0.4314  0.2265  0.2678
10534TIP3    H131524   6.072   2.589   4.398  0.2945  0.9423 -1.6977
10534TIP3    H231525   5.933   2.647   4.403 -0.0914 -0.0284 -0.3108
10535TIP3   OH231526   2.906   3.675   6.116  0.2080  0.1679  0.4483
10535TIP3    H131527   2.970   3.676   6.188 -1.1376 -0.8963  1.7171
10535TIP3    H231528   2.858   3.757   6.126 -0.3524 -0.2342  1.1418
10536TIP3   OH231529   7.954   6.465   2.584 -0.2969 -0.8464  0.4700
10536TIP3    H131530   8.020   6.516   2.537 -1.3327  0.5293  0.4495
10536TIP3    H231531   8.000   6.434   2.662  1.2001 -2.4425 -0.9729
10537TIP3   OH231532   5.038   7.638   4.012  0.2178 -0.3087  0.2635
10537TIP3    H131533   5.049   7.723   3.971  1.0818 -0.8696 -0.7082
10537TIP3    H231534   5.105   7.635   4.080  1.4238 -0.9038 -0.9089
10538TIP3   OH231535   6.076   1.728   3.690  0.0621  0.2401 -0.5270
10538TIP3    H131536   6.143   1.723   3.758  0.7284 -0.1629 -1.1975
10538TIP3    H231537   6.123   1.752   3.611 -0.5804 -0.0869 -1.0209
10539TIP3   OH231538   7.505   6.923   5.813  0.3211  0.5302 -0.5990
10539TIP3    H131539   7.425   6.976   5.811 -0.5245 -0.5108  1.9457
10539TIP3    H231540   7.549   6.945   5.731 -1.5453  2.6922 -1.1538
10540TIP3   OH231541   8.322   5.545   4.046  0.0792 -0.2487 -0.6376
10540TIP3    H131542   8.296   5.519   4.134 -1.5249  1.5837 -0.5010
10540TIP3    H231543   8.407   5.503   4.032 -0.3429 -1.8222  1.1687
10541TIP3   OH231544   1.964   4.527   5.510 -0.1706 -0.0024  0.1887
10541TIP3    H131545   1.981   4.450   5.455 -0.1324  0.1355  0.0070
10541TIP3    H231546   2.016   4.512   5.589  0.0452 -0.0393  0.0406
10542TIP3   OH231547   6.174   3.273   5.233  0.7668  0.0998  0.1871
10542TIP3    H131548   6.182   3.215   5.157  0.7402 -0.9701  0.9751
10542TIP3    H231549   6.227   3.231   5.300  0.4930  0.8355  0.8749
10543TIP3   OH231550   1.520   6.587   4.827 -0.0716  0.2309  0.5758
10543TIP3    H131551   1.594   6.628   4.782 -0.2477 -0.7647 -0.6723
10543TIP3    H231552   1.551   6.500   4.851 -0.8452 -0.2152 -0.0023
10544TIP3   OH231553   0.471   4.418   2.638 -0.0175 -0.4188 -0.0728
10544TIP3    H131554   0.481   4.474   2.561  1.0330 -0.1580  0.2442
10544TIP3    H231555   0.469   4.478   2.712  0.7487 -0.7678  0.2404
10545TIP3   OH231556   6.575   4.021   1.439 -0.7134  0.1590  0.1568
10545TIP3    H131557   6.490   4.064   1.440 -0.3744  0.8605  1.1589
10545TIP3    H231558   6.609   4.034   1.527  0.3807 -0.2050 -0.1934
10546TIP3   OH231559   6.691   1.337   0.674  0.8186 -0.1142  0.2021
10546TIP3    H131560   6.608   1.289   0.674 -0.3634  1.7888 -1.4379
10546TIP3    H231561   6.730   1.318   0.589  1.0063  0.7192  0.0927
10547TIP3   OH231562   6.136   0.517   2.482  0.0214 -0.8403  0.3115
10547TIP3    H131563   6.161   0.609   2.497 -0.7323 -0.7151  0.8832
10547TIP3    H231564   6.042   0.520   2.467  0.2247 -1.3598 -1.2816
10548TIP3   OH231565   1.737   7.839   2.275  0.0064 -0.5531  0.1362
10548TIP3    H131566   1.802   7.814   2.340 -0.1946  0.6954  0.8385
10548TIP3    H231567   1.682   7.904   2.318 -2.2213 -2.1003 -0.1662
10549TIP3   OH231568   2.158   4.766   1.987  0.9187  0.2102 -0.1910
10549TIP3    H131569   2.107   4.800   1.913  1.0835 -0.2375 -0.5159
10549TIP3    H231570   2.118   4.681   2.005  1.2995  0.0341 -0.1852
10550TIP3   OH231571   5.036   0.640   1.939  0.4859 -0.0800 -0.6847
10550TIP3    H131572   4.993   0.602   1.863 -2.0344  1.8497 -0.3620
10550TIP3    H231573   4.984   0.611   2.014  2.2137 -0.9724  0.2443
10551TIP3   OH231574   5.816   1.812   5.599  0.1177  0.2781 -0.0730
10551TIP3    H131575   5.758   1.812   5.674 -0.5319 -2.3777 -0.4850
10551TIP3    H231576   5.883   1.747   5.620  2.7092  2.7923  0.1188
10552TIP3   OH231577   5.529   1.165   5.840 -0.2676  0.5611 -0.3771
10552TIP3    H131578   5.611   1.135   5.801 -0.5576 -0.3116 -0.3364
10552TIP3    H231579   5.496   1.230   5.779 -0.1733 -0.0001 -1.0380
10553TIP3   OH231580   8.515   3.160   1.964  0.2526 -0.1064 -0.2867
10553TIP3    H131581   8.488   3.169   1.873 -0.6399 -1.2340 -0.1659
10553TIP3    H231582   8.578   3.088   1.964 -0.1939 -0.5065  0.0504
10554TIP3   OH231583   6.169   3.199   2.028 -0.3172 -0.0990 -0.2786
10554TIP3    H131584   6.136   3.203   1.938  0.8858  0.3176 -0.7331
10554TIP3    H231585   6.264   3.191   2.018 -0.1553  0.0132  0.9599
10555TIP3   OH231586   4.503   7.112   6.749  0.2054  0.0436  0.3306
10555TIP3    H131587   4.412   7.135   6.768  1.0946  1.5909  3.4211
10555TIP3    H231588   4.554   7.185   6.783  2.7149 -1.6928  0.6263
10556TIP3   OH231589   4.219   7.526   1.204  0.5735  0.4074  0.0518
10556TIP3    H131590   4.198   7.481   1.122  1.3084 -0.7407  0.4484
10556TIP3    H231591   4.221   7.619   1.182  1.5532  0.0714 -1.4378
10557TIP3   OH231592   4.079   7.753   1.933  0.0815 -0.2371  0.3143
10557TIP3    H131593   4.024   7.796   1.998 -0.4749  0.1238 -0.3857
10557TIP3    H231594   4.135   7.823   1.899  1.4776 -0.7195  1.4870
10558TIP3   OH231595   5.016   1.543   1.154 -0.0967 -0.2296 -0.3045
10558TIP3    H131596   5.003   1.448   1.149  1.0770 -0.3938 -0.6859
10558TIP3    H231597   5.001   1.573   1.064  1.6412 -0.3815 -0.6836
10559TIP3   OH231598   0.683   3.180   2.024 -0.0172 -0.2547  0.1584
10559TIP3    H131599   0.700   3.138   1.940  2.4789 -1.7940  1.3387
10559TIP3    H231600   0.747   3.251   2.029 -0.6801  0.3412  0.4618
10560TIP3   OH231601   8.325   3.649   2.367 -0.7491 -0.2753  0.8492
10560TIP3    H131602   8.242   3.610   2.339 -0.3521 -1.6766  1.5063
10560TIP3    H231603   8.391   3.601   2.317 -0.0669 -2.3974  3.5832
10561TIP3   OH231604   2.883   5.887   0.764  0.0928  0.0108 -0.0485
10561TIP3    H131605   2.869   5.876   0.670  0.5961 -1.0347 -0.0221
10561TIP3    H231606   2.940   5.963   0.772 -0.3116  0.3711 -0.5567
10562TIP3   OH231607   3.604   7.910   6.303  0.5103 -0.5530  0.2224
10562TIP3    H131608   3.680   7.894   6.246  0.8626 -2.3289  1.1308
10562TIP3    H231609   3.578   8.000   6.283  2.1506 -0.2904 -0.9366
10563TIP3   OH231610   0.849   0.934   6.311 -0.0842  0.3464 -0.1696
10563TIP3    H131611   0.773   0.965   6.360 -0.3600 -0.2836 -0.1844
10563TIP3    H231612   0.901   0.886   6.376 -0.8585 -1.1979 -0.6435
10564TIP3   OH231613   3.329   6.444   2.134 -0.1723 -0.1624 -0.0529
10564TIP3    H131614   3.394   6.502   2.093  3.1676 -2.3148  1.7193
10564TIP3    H231615   3.289   6.498   2.203  0.6953  0.8937 -0.3465
10565TIP3   OH231616   2.017   6.942   7.124 -0.7688  0.0847 -0.1374
10565TIP3    H131617   2.047   6.986   7.045 -1.1754  1.2520  0.3377
10565TIP3    H231618   1.930   6.909   7.102 -0.6722 -0.0474 -0.3285
10566TIP3   OH231619   5.279   0.638   2.981  0.6357  0.5985 -0.1245
10566TIP3    H131620   5.291   0.577   3.054  0.3115  0.9676  0.2443
10566TIP3    H231621   5.330   0.600   2.910  0.5941 -0.0068  0.1548
10567TIP3   OH231622   1.134   5.147   1.446  0.2705 -0.1639 -0.1498
10567TIP3    H131623   1.124   5.240   1.466 -1.4032 -0.3482 -0.0180
10567TIP3    H231624   1.052   5.106   1.474 -0.1033 -1.2763 -2.5373
10568TIP3   OH231625   0.551   6.753   1.870  0.1942 -0.3853 -0.1175
10568TIP3    H131626   0.482   6.818   1.857 -0.5937 -1.1548  0.1230
10568TIP3    H231627   0.504   6.671   1.887  1.1627 -1.0626 -0.6026
10569TIP3   OH231628   2.108   4.448   3.726  0.2693  0.2330 -0.1134
10569TIP3    H131629   2.118   4.540   3.748  0.7347 -0.0215  0.7913
10569TIP3    H231630   2.014   4.437   3.710  0.4502  1.2360 -2.0541
10570TIP3   OH231631   1.595   6.953   2.098  0.2548  0.0434  0.0364
10570TIP3    H131632   1.648   6.889   2.145  0.0296  0.3100  0.6742
10570TIP3    H231633   1.644   7.034   2.103 -1.3329  0.9823  2.9733
10571TIP3   OH231634   6.412   3.691   1.873 -0.3907 -0.3743 -0.4398
10571TIP3    H131635   6.475   3.740   1.821  0.4079  1.2738  1.9045
10571TIP3    H231636   6.465   3.648   1.940 -1.4829 -1.4849 -0.2560
10572TIP3   OH231637   0.787   5.815   4.605  0.3043  0.5080 -0.5287
10572TIP3    H131638   0.730   5.782   4.674 -2.7761  0.0107 -3.0963
10572TIP3    H231639   0.800   5.907   4.627 -0.2448  0.2676  0.9033
10573TIP3   OH231640   2.324   6.340   4.587  0.3848 -0.2244 -0.3038
10573TIP3    H131641   2.409   6.353   4.629  0.3163 -1.8437  0.4257
10573TIP3    H231642   2.345   6.297   4.504  0.3433  0.3526 -0.6136
10574TIP3   OH231643   0.687   1.772   4.809  0.1758  0.1914 -0.2349
10574TIP3    H131644   0.701   1.690   4.856 -0.7628  0.1050 -0.0837
10574TIP3    H231645   0.720   1.755   4.721  1.0612  0.0381  0.1160
10575TIP3   OH231646   0.287   1.075   2.808  0.2095 -0.0550  0.0104
10575TIP3    H131647   0.343   1.098   2.882  0.5412 -0.3625 -0.1394
10575TIP3    H231648   0.207   1.041   2.847 -0.5956  1.9888  0.2534
10576TIP3   OH231649   8.106   1.850   1.222 -0.3793 -0.4289 -0.0660
10576TIP3    H131650   8.145   1.914   1.281 -0.2459 -0.7833  0.2321
10576TIP3    H231651   8.029   1.818   1.269 -0.3028 -0.6721 -0.1053
10577TIP3   OH231652   3.497   1.883   6.352  0.1924  0.5231 -0.7443
10577TIP3    H131653   3.403   1.900   6.339 -0.7135 -0.4739  2.9794
10577TIP3    H231654   3.499   1.801   6.402  2.9985  0.9392 -0.0174
10578TIP3   OH231655   7.098   3.513   1.072  0.3502 -0.0501  0.3972
10578TIP3    H131656   7.161   3.512   1.001  0.5840 -1.4322  0.5931
10578TIP3    H231657   7.119   3.591   1.122  1.4012 -0.0781  0.0159
10579TIP3   OH231658   2.482   5.852   1.013  0.6624 -0.0721  0.1764
10579TIP3    H131659   2.454   5.859   1.105 -1.5458  3.9496 -0.5684
10579TIP3    H231660   2.422   5.788   0.975  0.4429 -0.4736  1.1589
10580TIP3   OH231661   4.093   4.602   0.883  0.3956 -0.0983 -0.0010
10580TIP3    H131662   4.045   4.636   0.958  0.7600  0.3077  0.0500
10580TIP3    H231663   4.024   4.575   0.821  0.0986  0.9615 -0.1504
10581TIP3   OH231664   2.460   5.393   2.466  0.8670 -0.6456 -0.4192
10581TIP3    H131665   2.549   5.371   2.439  1.1752  0.0221  0.0384
10581TIP3    H231666   2.407   5.317   2.439  1.7923 -1.6586  0.5080
10582TIP3   OH231667   0.780   6.735   0.388 -0.1228 -0.0171  0.3391
10582TIP3    H131668   0.790   6.827   0.412  1.0227 -0.2569  0.8380
10582TIP3    H231669   0.802   6.731   0.295 -0.7506  0.2921  0.1700
10583TIP3   OH231670   8.513   2.566   1.346  0.2369 -0.2272 -0.0190
10583TIP3    H131671   8.430   2.581   1.301  0.3635 -4.4740 -2.1749
10583TIP3    H231672   8.580   2.583   1.279  0.8098 -0.6543  0.4322
10584TIP3   OH231673   5.603   1.479   5.907  0.5439 -0.0301 -0.2312
10584TIP3    H131674   5.612   1.573   5.896  1.4957 -0.1410 -0.4695
10584TIP3    H231675   5.543   1.452   5.838  0.2664  0.3984 -0.1606
10585TIP3   OH231676   3.120   5.615   0.621 -0.3907 -0.3521  0.2977
10585TIP3    H131677   3.043   5.609   0.678 -1.7277 -0.2145 -1.4311
10585TIP3    H231678   3.099   5.558   0.547  1.1670 -0.2603 -0.2465
10586TIP3   OH231679   5.028   4.719   5.372  0.3005  0.3850  0.2318
10586TIP3    H131680   4.947   4.767   5.353  1.0647  1.4612 -0.4052
10586TIP3    H231681   5.021   4.640   5.319 -0.9670 -0.2460  1.2783
10587TIP3   OH231682   4.018   7.531   4.772  0.2991  0.5956  0.1852
10587TIP3    H131683   3.938   7.562   4.729  0.6805  1.9282  0.3797
10587TIP3    H231684   4.086   7.593   4.745  0.9335  0.3883  1.2419
10588TIP3   OH231685   3.655   3.047   3.029 -0.6913 -0.2256  0.6079
10588TIP3    H131686   3.700   3.057   3.113  0.9336  1.5313 -0.3881
10588TIP3    H231687   3.706   2.981   2.983  0.0374  0.7184  0.0303
10589TIP3   OH231688   3.453   5.173  -0.021  0.5357 -0.6430 -0.3830
10589TIP3    H131689   3.547   5.155  -0.020  0.5887 -0.5129  1.5135
10589TIP3    H231690   3.424   5.152   0.068 -0.4854  2.9903  0.2890
10590TIP3   OH231691   7.837   6.954   4.611 -0.7904  0.4077 -0.3623
10590TIP3    H131692   7.805   7.037   4.644 -0.6024  0.0606  0.7159
10590TIP3    H231693   7.845   6.898   4.688  1.4569  0.1706 -0.6773
10591TIP3   OH231694   2.455   1.531   6.514  0.0986  0.2379 -0.0501
10591TIP3    H131695   2.523   1.500   6.454 -0.1553  0.8446 -0.6567
10591TIP3    H231696   2.468   1.478   6.593  0.5325 -0.4621 -0.5767
10592TIP3   OH231697   4.629   7.850   3.203 -0.2127  0.0529  0.5838
10592TIP3    H131698   4.586   7.818   3.282 -0.6379 -0.8299  0.0100
10592TIP3    H231699   4.723   7.843   3.223 -0.3074 -0.7153  0.8090
10593TIP3   OH231700   4.844   2.879   1.178 -0.1750 -0.2380  0.0406
10593TIP3    H131701   4.761   2.890   1.223 -0.4077 -0.3867 -0.3526
10593TIP3    H231702   4.908   2.864   1.249 -0.5530 -0.5782  0.3116
10594TIP3   OH231703   0.493   2.783   2.283 -0.4244 -0.3728  0.3671
10594TIP3    H131704   0.513   2.750   2.195  0.3022 -0.0880  0.4214
10594TIP3    H231705   0.523   2.714   2.342 -1.0215 -0.6165  0.3959
10595TIP3   OH231706   6.034   7.138   5.619 -0.1504 -0.1951 -0.1898
10595TIP3    H131707   5.978   7.061   5.610 -0.5229 -0.1259  1.2445
10595TIP3    H231708   5.999   7.184   5.696 -0.0849  1.5275 -1.1353
10596TIP3   OH231709   6.713   2.020   3.893 -0.0986  0.0677  0.1205
10596TIP3    H131710   6.718   2.088   3.826 -1.0458 -0.2277 -0.2790
10596TIP3    H231711   6.622   1.991   3.890 -0.4017  0.6778  2.1959
10597TIP3   OH231712   6.037   7.558   2.389  0.0090 -0.3031  0.1757
10597TIP3    H131713   6.105   7.512   2.340  1.2442  1.0015  0.5592
10597TIP3    H231714   5.993   7.612   2.323  0.7698  0.4286  0.2415
10598TIP3   OH231715   6.146   1.551   1.283  0.4293 -0.7235 -0.4519
10598TIP3    H131716   6.235   1.575   1.309 -0.0140 -0.5804  1.0403
10598TIP3    H231717   6.124   1.477   1.340 -0.3986 -0.7684 -0.8161
10599TIP3   OH231718   6.486   5.053   5.355  0.2063  0.6517  0.2272
10599TIP3    H131719   6.550   5.020   5.291  0.6611  1.1034  0.4482
10599TIP3    H231720   6.423   5.101   5.302  0.1200  0.3210  0.0241
10600TIP3   OH231721   2.611   4.046   4.902 -0.0784 -0.1402 -0.5024
10600TIP3    H131722   2.617   3.972   4.841  0.7700 -0.5245  0.0284
10600TIP3    H231723   2.553   4.016   4.971  1.8558 -1.1108  0.7702
10601TIP3   OH231724   5.392   6.232   3.145  0.0472  0.3245  0.4134
10601TIP3    H131725   5.333   6.279   3.085 -1.4148 -1.0617  0.7083
10601TIP3    H231726   5.452   6.185   3.087 -1.4795 -1.1714 -0.0569
10602TIP3   OH231727   7.914   1.040   0.969  0.1332  0.2523 -0.3033
10602TIP3    H131728   7.938   1.015   1.059 -1.7313  0.2582  0.2274
10602TIP3    H231729   7.828   1.080   0.978 -0.8573 -1.2728 -2.3014
10603TIP3   OH231730   8.317   6.536   6.576  1.2522  0.5137  0.2558
10603TIP3    H131731   8.400   6.551   6.620  1.7065 -0.1848 -0.3512
10603TIP3    H231732   8.262   6.610   6.603  1.3338 -0.1422  2.3895
10604TIP3   OH231733   2.188   4.736   3.222  0.4467 -0.4720  0.9304
10604TIP3    H131734   2.192   4.701   3.311 -1.9772  0.1301  1.3508
10604TIP3    H231735   2.132   4.674   3.175 -2.0515  1.5112  1.0930
10605TIP3   OH231736   7.581   1.569   0.680 -0.8215  0.5866  0.1663
10605TIP3    H131737   7.608   1.632   0.747  0.8216 -1.3885  1.4924
10605TIP3    H231738   7.485   1.570   0.683 -0.8230  2.4622  0.6178
10606TIP3   OH231739   4.039   3.445   3.618 -0.1918 -1.1125 -0.4952
10606TIP3    H131740   4.134   3.433   3.618 -0.3875 -2.9369 -0.5868
10606TIP3    H231741   4.026   3.534   3.651  1.4831 -1.5132  1.4232
10607TIP3   OH231742   2.222   5.348   0.009  0.3069 -0.1549  0.1483
10607TIP3    H131743   2.193   5.416   0.070  1.1129  0.9697 -0.6855
10607TIP3    H231744   2.153   5.343  -0.057 -0.4076 -1.1390  0.9426
10608TIP3   OH231745   2.514   1.152   0.826  0.4444  0.1926 -0.2597
10608TIP3    H131746   2.529   1.067   0.785 -2.2289 -0.6842  0.3901
10608TIP3    H231747   2.496   1.133   0.917 -1.1143  1.3264 -0.2871
10609TIP3   OH231748   2.614   0.286   3.908 -0.1868  0.1521  0.1100
10609TIP3    H131749   2.549   0.344   3.868  1.7512  0.7276 -2.4528
10609TIP3    H231750   2.607   0.304   4.002 -2.1820  1.7629 -0.2652
10610TIP3   OH231751   7.564   6.235   2.181 -0.1034  0.2584 -0.2332
10610TIP3    H131752   7.506   6.215   2.254  1.5868 -1.1363  0.8151
10610TIP3    H231753   7.618   6.308   2.211  1.3533 -1.0281  0.4372
10611TIP3   OH231754   3.242   7.537   6.152 -0.3665 -0.1492  1.1249
10611TIP3    H131755   3.288   7.617   6.178 -1.0799  0.5836  0.1916
10611TIP3    H231756   3.265   7.524   6.060 -0.9368 -0.5401  1.0309
10612TIP3   OH231757   3.965   6.308   4.417 -0.2967 -0.5242  0.2312
10612TIP3    H131758   3.949   6.348   4.332  1.5991  0.4295  0.2633
10612TIP3    H231759   4.009   6.377   4.468  0.6617 -1.7910  1.1916
10613TIP3   OH231760   5.856   4.434   3.006 -0.0621  0.4915 -0.2771
10613TIP3    H131761   5.923   4.436   2.937  0.7883 -0.7690  0.4736
10613TIP3    H231762   5.780   4.478   2.967  0.1065 -0.9063 -2.3302
10614TIP3   OH231763   0.988   2.951   3.593  0.2261 -0.0190  0.2402
10614TIP3    H131764   1.008   3.008   3.519 -1.8103  1.6984  0.8949
10614TIP3    H231765   0.979   3.010   3.668 -1.3054 -1.2367  1.1003
10615TIP3   OH231766   0.554   5.419   2.853 -0.1380  0.2631  0.4858
10615TIP3    H131767   0.643   5.426   2.820 -0.2536 -0.1602  0.0666
10615TIP3    H231768   0.559   5.451   2.943  0.4502  0.1717  0.4913
10616TIP3   OH231769   4.352   7.873   5.638  1.0240  0.5481  0.7496
10616TIP3    H131770   4.272   7.851   5.686 -0.1349  0.7306 -1.0224
10616TIP3    H231771   4.421   7.872   5.705 -0.1470 -1.3298  2.0394
10617TIP3   OH231772   5.718   5.327   5.719  0.3427  0.2243 -0.7035
10617TIP3    H131773   5.659   5.340   5.644 -1.5584  1.0641  0.8389
10617TIP3    H231774   5.700   5.237   5.748 -1.5064  0.9684  0.7234
10618TIP3   OH231775   1.041   6.574   1.066 -0.3673 -0.1433 -0.7767
10618TIP3    H131776   0.948   6.551   1.061  0.0028 -2.3210  1.1214
10618TIP3    H231777   1.065   6.559   1.157  2.2989 -1.5169 -1.6100
10619TIP3   OH231778   8.663   7.665   5.971 -0.3695  0.0964 -0.0922
10619TIP3    H131779   8.579   7.621   5.961  0.5097 -1.7756  0.2977
10619TIP3    H231780   8.658   7.741   5.912 -1.9141 -0.5634 -0.8618
10620TIP3   OH231781   1.368   5.816   5.146 -0.3208  0.1012 -0.2825
10620TIP3    H131782   1.439   5.766   5.106 -1.1451 -1.2669 -0.0903
10620TIP3    H231783   1.401   5.840   5.233 -0.4188 -1.3581  0.1858
10621TIP3   OH231784   8.607   1.642   2.538 -0.3275 -0.4950 -0.0258
10621TIP3    H131785   8.701   1.637   2.558 -0.1335  0.0433 -0.7549
10621TIP3    H231786   8.596   1.730   2.501 -0.5449 -1.5990 -2.8061
10622TIP3   OH231787   8.240   7.568   3.111  0.2530 -0.0375 -0.2971
10622TIP3    H131788   8.217   7.517   3.189  0.8709  1.2191  0.7363
10622TIP3    H231789   8.304   7.513   3.065 -0.2435 -0.8666 -0.0201
10623TIP3   OH231790   7.417   6.314   0.450 -0.6150  0.3121 -0.2759
10623TIP3    H131791   7.498   6.355   0.421 -0.2467 -0.8955 -1.0274
10623TIP3    H231792   7.420   6.318   0.546  0.5389 -0.0790 -0.2817
10624TIP3   OH231793   1.884   0.295   4.427  0.5907  0.3197 -0.3876
10624TIP3    H131794   1.941   0.240   4.481  1.1015  0.4032 -0.8294
10624TIP3    H231795   1.917   0.283   4.338 -0.6918 -0.3820 -0.7944
10625TIP3   OH231796   4.251   2.680   0.993 -0.1460  0.1811 -0.1198
10625TIP3    H131797   4.338   2.691   0.954  0.1952  1.6124  0.9700
10625TIP3    H231798   4.261   2.710   1.084 -1.2531 -1.7260  0.7033
10626TIP3   OH231799   8.050   1.706   4.554 -0.7851  0.8244  0.3849
10626TIP3    H131800   8.049   1.671   4.643  1.8154 -1.3191 -0.2898
10626TIP3    H231801   8.131   1.757   4.550  0.6953 -1.4473 -1.4322
10627TIP3   OH231802   0.423   6.047   3.323  0.0309 -0.2312  0.1835
10627TIP3    H131803   0.350   6.092   3.280 -1.9226 -2.6785  0.7079
10627TIP3    H231804   0.493   6.048   3.258 -0.8505  1.1526 -0.8082
10628TIP3   OH231805   6.601   1.842   4.643  0.1695  0.0505  0.5141
10628TIP3    H131806   6.694   1.820   4.657  0.3020 -0.2070 -0.6665
10628TIP3    H231807   6.603   1.917   4.583 -0.3921 -0.3792 -0.0507
10629TIP3   OH231808   6.756   4.232   0.611 -0.5158 -0.3821  0.0620
10629TIP3    H131809   6.844   4.269   0.601 -0.5996  0.0985  1.0078
10629TIP3    H231810   6.709   4.295   0.666 -0.5353 -2.0937  2.1241
10630TIP3   OH231811   1.113   6.194   6.602 -0.3583 -0.5202  0.4228
10630TIP3    H131812   1.187   6.241   6.564 -0.0726 -0.2911  1.2388
10630TIP3    H231813   1.039   6.255   6.596 -0.1954 -0.2943  0.6834
10631TIP3   OH231814   2.412   7.703   0.364  0.2782  0.5484  0.1650
10631TIP3    H131815   2.437   7.711   0.457 -2.0894 -0.8409  1.0051
10631TIP3    H231816   2.480   7.648   0.326  0.5785  0.0191  1.4049
10632TIP3   OH231817   7.013   2.324   1.547  0.0548  0.1589  0.3590
10632TIP3    H131818   7.105   2.337   1.522  0.2616 -1.8390 -0.0867
10632TIP3    H231819   7.015   2.319   1.643  0.5114 -0.3528  0.3307
10633TIP3   OH231820   2.635   4.234   4.662 -0.2132 -0.6022  0.1942
10633TIP3    H131821   2.601   4.187   4.738 -1.2893  0.2351  0.2548
10633TIP3    H231822   2.662   4.164   4.602  0.5595 -1.2778  1.2734
10634TIP3   OH231823   0.296   7.483   6.194 -0.0267 -0.4447  0.3996
10634TIP3    H131824   0.340   7.447   6.118 -1.1939 -0.1331 -0.4458
10634TIP3    H231825   0.358   7.548   6.229  0.4655 -0.5010 -0.3490
10635TIP3   OH231826   0.910   5.406   2.246  0.2382  0.3423  0.2049
10635TIP3    H131827   0.865   5.355   2.179 -0.9524  0.7698  0.6491
10635TIP3    H231828   0.901   5.354   2.326  0.8443  0.2712  0.2312
10636TIP3   OH231829   3.957   6.853   1.284  0.1699  0.7457  0.7811
10636TIP3    H131830   3.909   6.868   1.365  1.0300  2.1378  1.0845
10636TIP3    H231831   4.033   6.912   1.290  0.2721  0.8750 -1.0082
10637TIP3   OH231832   6.719   5.902   1.353  0.8361 -0.1770 -0.0841
10637TIP3    H131833   6.742   5.995   1.353 -1.4806  0.4869  1.7298
10637TIP3    H231834   6.672   5.888   1.271  1.4858  0.1399 -0.5207
10638TIP3   OH231835   5.971   4.715   1.339 -0.7723 -0.3774  0.0665
10638TIP3    H131836   5.934   4.773   1.273  1.5149  0.3678 -0.6392
10638TIP3    H231837   5.913   4.726   1.415  0.3375  4.1896  0.5796
10639TIP3   OH231838   2.436   8.171   1.786 -0.0380  0.2138  0.1468
10639TIP3    H131839   2.459   8.085   1.749 -1.6591 -0.2551  0.1515
10639TIP3    H231840   2.423   8.227   1.710  0.8316  0.4269  0.1400
10640TIP3   OH231841   7.395   4.587   6.586 -0.0858  0.1300 -0.8238
10640TIP3    H131842   7.327   4.597   6.519  0.0208  0.0382 -0.9460
10640TIP3    H231843   7.346   4.573   6.667 -0.2279  1.0254 -0.7500
10641TIP3   OH231844   3.269   6.789   2.553  0.5432 -0.1559  0.0505
10641TIP3    H131845   3.351   6.829   2.583  1.9321 -2.2840 -0.7192
10641TIP3    H231846   3.268   6.702   2.593 -1.1121 -0.3659 -0.3726
10642TIP3   OH231847   2.537   2.009   2.871  0.1275 -0.5437 -0.0249
10642TIP3    H131848   2.547   2.095   2.831  0.4825 -1.5038 -2.1593
10642TIP3    H231849   2.602   1.954   2.827  1.2447 -1.5250  2.6155
10643TIP3   OH231850   1.484   6.709   3.120 -0.7116 -0.0878  0.2278
10643TIP3    H131851   1.521   6.668   3.042  0.3140 -0.0345  0.6769
10643TIP3    H231852   1.462   6.798   3.092  0.7749  0.3250  0.2969
10644TIP3   OH231853   5.642   2.468   0.974 -0.0691 -0.6026  0.1964
10644TIP3    H131854   5.713   2.520   0.937 -1.6291  0.9871 -0.7548
10644TIP3    H231855   5.584   2.532   1.015 -0.8186 -1.8745  1.2142
10645TIP3   OH231856   4.197   1.530   6.189 -0.1538  0.1399  0.2136
10645TIP3    H131857   4.269   1.542   6.251  0.5256 -0.9881 -0.3128
10645TIP3    H231858   4.226   1.576   6.110 -1.3442  2.2058  0.9386
10646TIP3   OH231859   7.861   5.270   2.386  0.4301 -1.0873 -0.0201
10646TIP3    H131860   7.849   5.287   2.479  0.9236  1.0591 -0.3062
10646TIP3    H231861   7.811   5.339   2.342 -0.7885 -2.7473 -1.4038
10647TIP3   OH231862   6.483   7.985   0.956 -0.5738 -0.4650 -0.5361
10647TIP3    H131863   6.413   7.986   0.890 -0.7793 -0.6620 -0.3209
10647TIP3    H231864   6.455   7.920   1.020 -2.4547  2.5056  1.9513
10648TIP3   OH231865   5.222   8.107   5.643 -0.3182  0.5761  0.4427
10648TIP3    H131866   5.177   8.136   5.722  1.4227  0.8604  1.3810
10648TIP3    H231867   5.160   8.048   5.600 -3.2948  4.1066 -0.5956
10649TIP3   OH231868   4.741   2.162   2.317 -0.5595  0.3115 -0.0978
10649TIP3    H131869   4.659   2.210   2.308  0.4145  1.6703 -2.4485
10649TIP3    H231870   4.738   2.096   2.248  1.2312  1.8451 -1.7247
10650TIP3   OH231871   7.752   1.172   5.931  0.2537 -0.7209  0.0686
10650TIP3    H131872   7.805   1.209   5.860  1.0243 -0.8658  0.5566
10650TIP3    H231873   7.806   1.183   6.010 -0.1929 -1.4065  0.4827
10651TIP3   OH231874   3.155   3.461   5.026 -0.5356 -0.0058 -0.1561
10651TIP3    H131875   3.090   3.394   5.003 -0.6073  0.2368 -0.6540
10651TIP3    H231876   3.117   3.505   5.102 -0.7318 -0.1849 -0.1482
10652TIP3   OH231877   4.424   3.010   2.572  0.1769 -0.1934 -0.5492
10652TIP3    H131878   4.361   2.944   2.598 -1.1315  0.2917 -2.2972
10652TIP3    H231879   4.498   2.959   2.537  0.4374 -0.7489  0.7593
10653TIP3   OH231880   8.155   6.370   3.296  0.2243 -0.2669 -0.5115
10653TIP3    H131881   8.158   6.458   3.333  1.0114 -1.0873  1.4853
10653TIP3    H231882   8.247   6.341   3.294 -0.0916 -1.3253 -0.4473
10654TIP3   OH231883   0.548   2.397   5.847  0.2132  0.1784 -0.9523
10654TIP3    H131884   0.576   2.306   5.853  0.4928  0.3060 -0.1588
10654TIP3    H231885   0.605   2.444   5.909 -2.4663  0.2745  1.7028
10655TIP3   OH231886   5.939   7.881   0.392  0.0135  0.6098 -0.2075
10655TIP3    H131887   6.022   7.928   0.393 -0.0537  0.7772 -1.3362
10655TIP3    H231888   5.877   7.942   0.351 -0.3938  0.0539 -0.4393
10656TIP3   OH231889   6.465   4.272   0.583  0.1933  0.2336 -0.4760
10656TIP3    H131890   6.496   4.266   0.673 -0.0482 -1.6489 -0.4681
10656TIP3    H231891   6.544   4.277   0.530  0.3281  2.0429 -0.1613
10657TIP3   OH231892   1.113   8.119   5.696 -0.7327 -0.0463 -0.0556
10657TIP3    H131893   1.199   8.083   5.677 -0.4115  0.2946  0.7284
10657TIP3    H231894   1.130   8.206   5.731 -1.4247  0.2350 -0.3868
10658TIP3   OH231895   7.599   1.088   3.674  0.2563  0.1622  0.3656
10658TIP3    H131896   7.531   1.021   3.681  0.4171 -0.0566 -0.1316
10658TIP3    H231897   7.570   1.144   3.601  1.4671 -0.9455 -1.0183
10659TIP3   OH231898   6.314   6.207   4.331  0.5872  0.2796  0.3223
10659TIP3    H131899   6.300   6.129   4.278 -0.1915  0.1803  0.6565
10659TIP3    H231900   6.406   6.202   4.357  0.9207  0.2121 -0.8095
10660TIP3   OH231901   8.653   1.636   0.643  0.5435  0.0266  0.1597
10660TIP3    H131902   8.682   1.710   0.589 -0.1490 -0.1807 -0.5227
10660TIP3    H231903   8.727   1.576   0.642  0.1895 -0.4276 -1.4303
10661TIP3   OH231904   5.587   1.598   3.137  0.2229 -0.6856  0.3671
10661TIP3    H131905   5.593   1.687   3.102 -0.4427 -0.7777  0.0100
10661TIP3    H231906   5.523   1.605   3.208  1.0115 -0.6539  1.0904
10662TIP3   OH231907   2.350   1.652   5.845  0.4549 -0.1940  0.1244
10662TIP3    H131908   2.320   1.673   5.933  0.3005 -0.8453  0.2322
10662TIP3    H231909   2.281   1.596   5.809  0.9476 -0.6788 -0.0778
10663TIP3   OH231910   1.693   4.483   1.825 -0.3376 -0.4020  0.2204
10663TIP3    H131911   1.683   4.389   1.813  2.3845 -0.7458 -0.0502
10663TIP3    H231912   1.674   4.521   1.740  1.8061 -1.1121 -0.6524
10664TIP3   OH231913   8.647   2.526   5.688 -0.8542  0.2123 -0.3190
10664TIP3    H131914   8.620   2.520   5.779  0.4570  0.4033  0.0966
10664TIP3    H231915   8.694   2.444   5.671  0.2227  0.8221 -0.3579
10665TIP3   OH231916   3.144   0.986   5.413  0.3219  0.0459 -0.1959
10665TIP3    H131917   3.129   1.081   5.409  1.1856  0.2468  0.8574
10665TIP3    H231918   3.234   0.975   5.384  0.5451 -0.3378  0.6238
10666TIP3   OH231919   0.573   5.881   1.888 -0.0126  0.0571 -0.3375
10666TIP3    H131920   0.505   5.945   1.870 -1.3693 -0.7829  1.5441
10666TIP3    H231921   0.654   5.932   1.889 -0.8367  1.4151 -0.6928
10667TIP3   OH231922   3.670   0.742   6.812  0.3110 -0.1960  0.2353
10667TIP3    H131923   3.605   0.702   6.756 -0.1164 -0.4050  0.8683
10667TIP3    H231924   3.750   0.743   6.760 -0.4452  1.0691 -0.9684
10668TIP3   OH231925   1.794   1.381   4.180  0.5919 -0.0047 -0.1026
10668TIP3    H131926   1.820   1.289   4.187  2.1941  0.3763 -0.7356
10668TIP3    H231927   1.843   1.426   4.248  1.7813  0.7504 -1.4088
10669TIP3   OH231928   1.879   2.630   4.383 -0.2311  0.4180  0.2600
10669TIP3    H131929   1.807   2.626   4.319 -1.4792 -0.9499  1.6754
10669TIP3    H231930   1.947   2.575   4.345 -0.5972  0.3415 -0.3043
10670TIP3   OH231931   7.785   7.323   0.893 -0.1432  0.3313 -0.4892
10670TIP3    H131932   7.700   7.287   0.917 -0.2596  0.9111 -0.0197
10670TIP3    H231933   7.846   7.284   0.955 -0.4340  1.7769  0.7445
10671TIP3   OH231934   5.355   6.139   6.517 -0.7415  0.4741 -0.4407
10671TIP3    H131935   5.409   6.152   6.595  0.3914 -1.3232 -0.8685
10671TIP3    H231936   5.288   6.208   6.522 -1.3072 -0.1485  2.6212
10672TIP3   OH231937   4.894   2.390   3.006 -0.4423 -0.0505 -0.1508
10672TIP3    H131938   4.921   2.481   2.996  0.9315 -0.3064  0.9812
10672TIP3    H231939   4.838   2.391   3.083  0.4234 -0.3188  0.4902
10673TIP3   OH231940   0.121   4.663   2.989  0.6478 -0.7724  0.1632
10673TIP3    H131941   0.053   4.724   3.017  2.4373  0.8897  1.1406
10673TIP3    H231942   0.105   4.651   2.896 -0.5348  0.1373  0.2182
10674TIP3   OH231943   7.486   4.187   5.907  0.3097  0.3018 -0.0044
10674TIP3    H131944   7.470   4.094   5.886 -1.6264  0.5482  0.1633
10674TIP3    H231945   7.535   4.184   5.990  1.5233 -0.5636 -0.7144
10675TIP3   OH231946   2.007   1.089   3.128 -0.1129  0.4044  0.0408
10675TIP3    H131947   2.039   1.018   3.183  0.3357  1.4637  1.2115
10675TIP3    H231948   1.912   1.082   3.131 -0.0738 -0.8561 -0.8625
10676TIP3   OH231949   7.471   7.065   5.289  0.0821  0.4374  0.4056
10676TIP3    H131950   7.394   7.100   5.334 -0.8843 -0.6483 -0.3331
10676TIP3    H231951   7.489   6.983   5.335 -0.4060 -0.2672 -0.6162
10677TIP3   OH231952   3.506   6.543   0.697  0.2410  0.1896  0.1156
10677TIP3    H131953   3.568   6.556   0.625  0.5950  0.2205  0.4242
10677TIP3    H231954   3.508   6.626   0.745 -0.3872  0.3541 -0.1399
10678TIP3   OH231955   4.821   5.325   0.985 -0.0025 -0.2115  0.0856
10678TIP3    H131956   4.765   5.250   0.965  0.0105 -0.1675 -0.1108
10678TIP3    H231957   4.803   5.389   0.917  1.3356 -0.7586 -0.8341
10679TIP3   OH231958   3.088   5.638   3.864 -0.4071  0.1356  0.2863
10679TIP3    H131959   3.167   5.671   3.822 -0.7728 -1.3485 -1.7189
10679TIP3    H231960   3.119   5.598   3.945  0.8138  0.2097 -0.1194
10680TIP3   OH231961   6.819   1.133   2.445  0.3892  0.0084  0.0055
10680TIP3    H131962   6.762   1.110   2.518  2.1499 -1.5859  0.9785
10680TIP3    H231963   6.778   1.092   2.368  0.7617 -2.1245  0.8788
10681TIP3   OH231964   2.716   2.409   2.586 -0.3342  0.0550  0.4283
10681TIP3    H131965   2.677   2.383   2.503 -0.3222 -0.8582  0.6986
10681TIP3    H231966   2.653   2.382   2.653 -0.1370  0.3682  0.7495
10682TIP3   OH231967   7.944   1.041   2.213  0.3690 -0.1073 -0.6570
10682TIP3    H131968   7.911   0.988   2.285  1.3060 -0.0398 -0.1550
10682TIP3    H231969   7.973   0.978   2.147  1.0736 -0.2309 -0.2460
10683TIP3   OH231970   4.229   0.584   1.500 -0.1572  0.6937 -0.1362
10683TIP3    H131971   4.256   0.517   1.562 -1.2253  1.8609  1.6607
10683TIP3    H231972   4.290   0.574   1.426  0.5554 -1.3349  0.6467
10684TIP3   OH231973   7.515   4.130   1.298  0.1798  0.6862 -0.3258
10684TIP3    H131974   7.539   4.109   1.208 -0.6828  0.0251 -0.4160
10684TIP3    H231975   7.562   4.211   1.317  3.0480 -0.8569 -0.2222
10685TIP3   OH231976   1.287   7.136   0.739 -0.1265  0.2744 -0.0468
10685TIP3    H131977   1.329   7.110   0.657 -0.2698 -1.4600  0.3927
10685TIP3    H231978   1.208   7.082   0.744 -0.6844  1.1332  0.7300
10686TIP3   OH231979   7.320   3.148   6.105  0.5647 -0.5170  0.3454
10686TIP3    H131980   7.413   3.142   6.127  0.6281  0.8004  0.4991
10686TIP3    H231981   7.300   3.064   6.064  2.4743  0.0667 -2.0597
10687TIP3   OH231982   6.161   7.233   1.892 -0.0827  0.5009  0.3998
10687TIP3    H131983   6.148   7.150   1.847  0.6595 -0.4727  1.8849
10687TIP3    H231984   6.076   7.277   1.888 -1.4206 -1.7069  2.1592
10688TIP3   OH231985   5.561   5.743   1.223  0.0555 -0.3013  0.1530
10688TIP3    H131986   5.605   5.820   1.258  2.3844 -1.1797 -0.6308
10688TIP3    H231987   5.514   5.775   1.146  0.9054  0.3636 -0.0974
10689TIP3   OH231988   0.615   3.050   2.254  0.2987 -0.0492  0.1371
10689TIP3    H131989   0.634   3.094   2.172  1.3133 -0.3685  0.1797
10689TIP3    H231990   0.665   2.969   2.250 -1.0066 -0.9005  0.3424
10690TIP3   OH231991   0.706   7.858   1.066  0.0591 -0.2209 -0.0722
10690TIP3    H131992   0.780   7.875   1.007  0.1189 -0.9992 -0.2319
10690TIP3    H231993   0.704   7.763   1.075 -0.4078 -0.1561  0.6031
10691TIP3   OH231994   1.580   2.262   0.852  0.1636 -0.3148  0.4602
10691TIP3    H131995   1.542   2.332   0.906  1.3414  0.7612 -0.0629
10691TIP3    H231996   1.674   2.277   0.857  0.3569 -1.0455 -0.7835
10692TIP3   OH231997   7.466   3.443   3.050 -0.2625  0.4630  0.0967
10692TIP3    H131998   7.426   3.356   3.054 -0.7846  0.6769 -0.3778
10692TIP3    H231999   7.476   3.461   2.956 -1.3485  1.4388  0.1368
10693TIP3   OH232000   3.167   5.836   7.093  0.1862 -0.4448 -0.1747
10693TIP3    H132001   3.177   5.906   7.029 -0.7976  0.8504  1.0289
10693TIP3    H232002   3.252   5.831   7.137  0.5882 -0.7510 -0.9585
10694TIP3   OH232003   8.029   5.794   2.882  0.2983 -0.3650 -0.3187
10694TIP3    H132004   7.956   5.855   2.893  0.1019 -0.8373  1.3205
10694TIP3    H232005   8.107   5.847   2.893  0.1333 -0.3260  0.8037
10695TIP3   OH232006   5.635   1.547   5.286  0.0966 -0.4738 -0.8128
10695TIP3    H132007   5.585   1.601   5.225  0.2962 -0.8231 -1.2947
10695TIP3    H232008   5.657   1.468   5.235 -2.2966 -2.1699  0.5778
10696TIP3   OH232009   2.942   0.268   5.227 -0.0364  0.4214  0.5815
10696TIP3    H132010   2.963   0.357   5.197 -0.6871  0.0298 -1.1257
10696TIP3    H232011   3.024   0.236   5.265  0.6819  1.1572 -0.2842
10697TIP3   OH232012   7.350   7.459   5.065 -0.1375 -0.3752 -0.1441
10697TIP3    H132013   7.350   7.434   5.157  0.2976  0.6388  0.1460
10697TIP3    H232014   7.265   7.500   5.051 -0.5203 -1.2405 -0.4073
10698TIP3   OH232015   4.999   6.763   5.805 -0.2365 -0.3464 -0.1140
10698TIP3    H132016   4.963   6.769   5.893 -0.4277 -1.5217 -0.0933
10698TIP3    H232017   5.092   6.745   5.818 -0.3597 -1.0131 -0.1477
10699TIP3   OH232018   1.480   7.233   5.383 -0.3292 -0.4703  0.3922
10699TIP3    H132019   1.508   7.215   5.473 -0.1289  0.6605  0.5604
10699TIP3    H232020   1.399   7.183   5.374 -0.3096 -0.6632  1.1755
10700TIP3   OH232021   6.918   6.259   6.573 -0.1162  0.1898  0.3244
10700TIP3    H132022   6.883   6.177   6.536  0.3741  0.1637 -0.0987
10700TIP3    H232023   6.841   6.309   6.597 -0.4582  0.1453 -0.6282
10701TIP3   OH232024   6.991   7.622   1.160 -0.1417  0.9046 -0.3541
10701TIP3    H132025   7.046   7.546   1.179 -1.8737  0.0152  1.4398
10701TIP3    H232026   7.043   7.675   1.099  1.4429 -1.2930 -1.0154
10702TIP3   OH232027   6.066   5.632   2.054 -0.1694 -0.1463 -0.2661
10702TIP3    H132028   6.119   5.711   2.053 -2.5036  1.5333 -1.1354
10702TIP3    H232029   6.030   5.628   2.143  0.9615 -1.0255  0.1811
10703TIP3   OH232030   4.967   0.882  -0.008 -0.5078 -0.5736 -0.0916
10703TIP3    H132031   4.967   0.788   0.012  0.5116 -1.1334 -2.3468
10703TIP3    H232032   5.027   0.921   0.055 -1.0582 -1.3987  0.9707
10704TIP3   OH232033   6.074   0.413   4.696 -0.1730  0.4191  0.6534
10704TIP3    H132034   6.170   0.410   4.689 -0.2958  0.1595 -1.7237
10704TIP3    H232035   6.057   0.425   4.789  2.2285  2.5686  0.9311
10705TIP3   OH232036   6.324   0.920   4.807 -0.0732  0.2238  0.1582
10705TIP3    H132037   6.299   0.941   4.897 -2.5417 -0.3988 -0.2972
10705TIP3    H232038   6.352   0.829   4.810  1.0419  0.5695  0.4841
10706TIP3   OH232039   8.198   1.108   5.753  0.4367 -0.6618 -0.2478
10706TIP3    H132040   8.107   1.080   5.737  0.0765 -1.9511  3.2646
10706TIP3    H232041   8.250   1.055   5.693 -0.9718 -1.0818 -1.1676
10707TIP3   OH232042   2.413   6.026   0.118  0.4215  0.0524 -0.0726
10707TIP3    H132043   2.459   5.948   0.149 -0.1440  0.3234  1.5252
10707TIP3    H232044   2.465   6.099   0.152 -1.1597  0.3629  1.8062
10708TIP3   OH232045   1.478   4.736   6.593  0.9502  0.7275  0.0747
10708TIP3    H132046   1.415   4.693   6.536 -0.2334 -0.2415  2.0085
10708TIP3    H232047   1.561   4.694   6.574  0.4283 -0.1079 -0.3995
10709TIP3   OH232048   6.941   3.252   4.318  0.3407  0.2715 -0.5927
10709TIP3    H132049   6.903   3.174   4.277 -1.4560  0.6134  0.3100
10709TIP3    H232050   6.875   3.320   4.306  0.7608  0.9655  0.8545
10710TIP3   OH232051   5.266   1.169   1.516  0.3849  0.4417 -0.8158
10710TIP3    H132052   5.277   1.201   1.427  1.0949  1.0498 -0.5211
10710TIP3    H232053   5.172   1.171   1.531  0.3951  2.6984 -0.7139
10711TIP3   OH232054   2.570   5.880   1.894 -0.3046 -0.4011  0.3167
10711TIP3    H132055   2.591   5.889   1.987  2.1216  2.7158 -0.3422
10711TIP3    H232056   2.615   5.800   1.866 -1.9125 -1.9553  1.9222
10712TIP3   OH232057   0.369   5.008   6.760 -0.1657  0.0898  0.7374
10712TIP3    H132058   0.326   5.015   6.675  0.6762 -2.4239  0.0113
10712TIP3    H232059   0.301   4.977   6.819 -0.3747  0.3019  0.6078
10713TIP3   OH232060   3.613   7.828   2.352 -0.1384 -0.0852 -0.1653
10713TIP3    H132061   3.681   7.808   2.416 -1.1414  0.8647  1.2399
10713TIP3    H232062   3.537   7.777   2.381 -0.8383  0.9670 -0.1213
10714TIP3   OH232063   3.284   2.675   2.166 -0.2870 -0.7272  0.4800
10714TIP3    H132064   3.342   2.600   2.153 -1.1397 -1.3917  0.3924
10714TIP3    H232065   3.198   2.645   2.136 -0.0388  1.3604 -2.7492
10715TIP3   OH232066   0.175   1.763   3.781  0.1965 -0.1248 -0.5940
10715TIP3    H132067   0.083   1.786   3.797  0.3190 -0.2643  0.3555
10715TIP3    H232068   0.213   1.841   3.741 -0.2845  0.0124 -0.7901
10716TIP3   OH232069   0.522   1.422   2.026 -0.1799 -0.0215 -0.1577
10716TIP3    H132070   0.482   1.439   2.111  1.3006  0.3511  0.4996
10716TIP3    H232071   0.500   1.331   2.007 -1.5355  0.2432  0.0396
10717TIP3   OH232072   1.838   2.999   3.685 -0.1478 -0.3015 -0.2513
10717TIP3    H132073   1.847   3.082   3.731 -4.2116 -1.1015  2.5035
10717TIP3    H232074   1.787   3.020   3.607 -1.5254 -0.1688  0.6515
10718TIP3   OH232075   7.436   2.353   1.859  0.1581 -0.4132 -0.2426
10718TIP3    H132076   7.472   2.442   1.855  1.9281 -0.9820  1.4149
10718TIP3    H232077   7.480   2.313   1.935 -0.0381 -2.9302 -1.3663
10719TIP3   OH232078   2.387   5.753   5.306  0.2139  0.3731  0.2131
10719TIP3    H132079   2.426   5.735   5.221  0.7533 -0.0337  0.5401
10719TIP3    H232080   2.453   5.805   5.352  1.1570 -1.7369  1.3986
10720TIP3   OH232081   7.443   4.217   4.847 -0.0352 -0.4370  0.2285
10720TIP3    H132082   7.411   4.283   4.908  2.0903  0.8866 -0.0120
10720TIP3    H232083   7.465   4.142   4.902  0.6960  0.2952  0.9641
10721TIP3   OH232084   3.795   0.213   0.022 -0.2722  0.4529  0.1648
10721TIP3    H132085   3.880   0.189   0.060  0.1722 -0.5101 -1.3539
10721TIP3    H232086   3.807   0.302  -0.010 -0.8225  1.5148  2.6392
10722TIP3   OH232087   0.939   7.739   6.540 -0.3750 -0.0758 -0.3539
10722TIP3    H132088   0.923   7.827   6.504 -0.7231 -0.0496 -0.1418
10722TIP3    H232089   0.885   7.681   6.486 -0.8856 -0.0379  0.1107
10723TIP3   OH232090   6.223   6.000   5.961  0.5524  0.0829  0.0275
10723TIP3    H132091   6.245   5.908   5.974 -0.7619 -0.3413 -0.6043
10723TIP3    H232092   6.267   6.025   5.880  1.5550  0.2463  0.6118
10724TIP3   OH232093   5.476   4.852   6.414  0.6442  0.0746 -0.1096
10724TIP3    H132094   5.391   4.810   6.399  0.0679  1.0974  0.1691
10724TIP3    H232095   5.454   4.941   6.443  1.7706 -0.1147  1.4799
10725TIP3   OH232096   3.583   3.796   1.318  0.2282 -0.4383  0.5848
10725TIP3    H132097   3.506   3.852   1.311  0.5295 -0.1962 -1.5031
10725TIP3    H232098   3.643   3.846   1.374 -0.4765  0.1241  0.8660
10726TIP3   OH232099   2.651   6.163   0.489 -0.1371  0.1487  1.1654
10726TIP3    H132100   2.613   6.083   0.527 -0.5395  0.6832  1.9025
10726TIP3    H232101   2.724   6.131   0.437 -1.0278 -0.8211  0.4612
10727TIP3   OH232102   1.564   3.970   6.944 -0.3404  0.2584  0.1976
10727TIP3    H132103   1.571   3.898   6.881  0.5755  0.8301 -0.3935
10727TIP3    H232104   1.504   4.032   6.903 -2.7341 -0.9942  1.5921
10728TIP3   OH232105   2.777   0.493   5.783 -0.1173  0.0730 -0.0649
10728TIP3    H132106   2.816   0.525   5.702  0.9773  1.6708  1.0340
10728TIP3    H232107   2.796   0.561   5.848 -0.8016 -1.2282  1.5848
10729TIP3   OH232108   6.581   2.063   4.481 -0.0362  0.5699 -0.2133
10729TIP3    H132109   6.544   2.137   4.530 -0.1523  1.2402 -1.2788
10729TIP3    H232110   6.553   2.078   4.391 -1.1683 -1.4952 -0.2575
10730TIP3   OH232111   6.876   7.276   4.477 -0.2904 -0.1691 -0.1997
10730TIP3    H132112   6.971   7.290   4.482 -0.3569  0.0874  0.3901
10730TIP3    H232113   6.858   7.270   4.384  0.5038 -1.5605 -0.2914
10731TIP3   OH232114   8.553   3.263   5.280  0.1060  0.0917  0.1114
10731TIP3    H132115   8.512   3.280   5.196 -1.5924 -0.6456  0.7475
10731TIP3    H232116   8.639   3.304   5.273  0.0589 -0.0517 -2.0048
10732TIP3   OH232117   2.041   3.360   1.784  0.1083 -0.0671  0.1431
10732TIP3    H132118   1.975   3.428   1.787  0.6348  0.8046 -3.7509
10732TIP3    H232119   2.121   3.403   1.815 -0.2998 -0.0969  1.3224
10733TIP3   OH232120   2.695   4.055   5.507  0.3964  0.1234 -0.4242
10733TIP3    H132121   2.683   4.066   5.601 -0.5759  0.6764 -0.5952
10733TIP3    H232122   2.789   4.042   5.496  0.4265 -0.8098  0.6961
10734TIP3   OH232123   4.515   4.336   1.403 -0.3478  0.4069 -0.2436
10734TIP3    H132124   4.490   4.269   1.339  2.5625  0.5263 -1.6719
10734TIP3    H232125   4.490   4.419   1.361 -0.3055  0.3979 -0.2867
10735TIP3   OH232126   2.255   5.761   3.769  0.4506  0.3302  0.1618
10735TIP3    H132127   2.274   5.795   3.682  0.5638 -0.3511 -0.0845
10735TIP3    H232128   2.163   5.782   3.785 -0.2437 -1.5625 -1.0734
10736TIP3   OH232129   0.201   3.904   4.842  0.2165 -0.2190  0.2370
10736TIP3    H132130   0.218   3.941   4.755 -0.5552 -0.0156  0.1619
10736TIP3    H232131   0.160   3.820   4.824 -1.0952  0.3643  0.3809
10737TIP3   OH232132   0.628   2.438   7.099 -0.2947  0.8907 -0.0624
10737TIP3    H132133   0.676   2.355   7.097 -0.9762  0.4624  0.8147
10737TIP3    H232134   0.590   2.445   7.011 -2.8005 -1.3015  0.6960
10738TIP3   OH232135   5.860   8.035   3.524 -0.3877  0.5772  0.3633
10738TIP3    H132136   5.853   7.982   3.604  1.6092 -0.2830  0.0388
10738TIP3    H232137   5.884   7.972   3.456  1.7944  1.7864 -0.0898
10739TIP3   OH232138   1.780   3.818   0.726 -0.6984  0.0176 -0.1266
10739TIP3    H132139   1.823   3.887   0.676 -1.8687 -0.3991 -1.8180
10739TIP3    H232140   1.726   3.771   0.661 -0.6937 -1.8754  1.1371
10740TIP3   OH232141   3.463   1.114   4.196  0.8016  0.1210  0.2991
10740TIP3    H132142   3.384   1.135   4.147  0.0520 -0.6100  1.1508
10740TIP3    H232143   3.511   1.197   4.201  0.4528  0.4085 -0.8529
10741TIP3   OH232144   3.111   1.621   2.078 -0.4052 -0.2873 -0.2676
10741TIP3    H132145   3.054   1.562   2.028 -0.3399  1.2188 -2.1998
10741TIP3    H232146   3.167   1.562   2.130 -1.0942 -1.8813 -1.2686
10742TIP3   OH232147   5.252   7.438   2.572  0.6890 -0.1551  0.1284
10742TIP3    H132148   5.163   7.403   2.568  0.9907 -1.2094  1.6882
10742TIP3    H232149   5.249   7.516   2.516 -0.0668 -2.4457 -3.3585
10743TIP3   OH232150   5.388   2.851   6.912  0.2880 -0.4964  0.0995
10743TIP3    H132151   5.334   2.910   6.965 -1.1583 -2.4022  0.8743
10743TIP3    H232152   5.396   2.772   6.965  0.3372 -1.7961 -1.7541
10744TIP3   OH232153   0.058   4.791   0.639 -0.0327 -1.0145  0.1004
10744TIP3    H132154   0.027   4.769   0.727 -0.5415 -1.2910 -0.1422
10744TIP3    H232155   0.152   4.773   0.642  0.1610  0.0290  0.9034
10745TIP3   OH232156   3.340   0.230   6.654 -0.0578 -0.4770 -0.2352
10745TIP3    H132157   3.370   0.298   6.593  2.4929 -2.1697 -1.0523
10745TIP3    H232158   3.305   0.161   6.598  1.0355 -1.4667  0.2645
10746TIP3   OH232159   3.661   5.160   2.402 -0.1649  0.1762  0.7064
10746TIP3    H132160   3.586   5.183   2.347 -0.9200  0.4096  1.7932
10746TIP3    H232161   3.713   5.240   2.406  1.7796 -0.7275 -2.4009
10747TIP3   OH232162   4.427   1.578   3.911 -0.3143  0.1097 -0.1367
10747TIP3    H132163   4.519   1.589   3.885 -0.3488  0.2463 -0.1997
10747TIP3    H232164   4.397   1.666   3.932 -0.0830 -0.0759  1.0576
10748TIP3   OH232165   5.669   3.041   1.094 -0.3906  0.2581  0.2811
10748TIP3    H132166   5.730   2.970   1.074 -0.0660  0.9839 -1.5179
10748TIP3    H232167   5.706   3.118   1.050 -1.8047  1.0594  0.4293
10749TIP3   OH232168   4.025   6.832   5.883  0.1359  0.7513  0.5493
10749TIP3    H132169   3.946   6.777   5.879  0.6347  0.0742 -1.5005
10749TIP3    H232170   4.054   6.826   5.974 -1.0345 -0.6514  0.8737
10750TIP3   OH232171   8.470   5.401   5.589 -0.5218 -0.3281 -0.3317
10750TIP3    H132172   8.409   5.461   5.546  0.5357  0.7190 -0.4219
10750TIP3    H232173   8.442   5.400   5.681 -1.3883 -0.7975 -0.5871
10751TIP3   OH232174   5.655   4.219   0.525  0.0868  0.2080  0.3193
10751TIP3    H132175   5.718   4.153   0.552  0.3202  0.7607  1.1807
10751TIP3    H232176   5.682   4.299   0.571  0.1625  1.0623 -1.1310
10752TIP3   OH232177   1.848   6.826   6.513 -0.7365 -0.1283  0.0900
10752TIP3    H132178   1.807   6.747   6.479 -3.1644  0.0909  2.1774
10752TIP3    H232179   1.869   6.877   6.435 -2.1080 -1.4462 -1.2241
10753TIP3   OH232180   6.566   1.740   5.157  0.0308  0.2180  0.1073
10753TIP3    H132181   6.653   1.779   5.154  1.3467 -2.4096  1.2492
10753TIP3    H232182   6.545   1.734   5.250 -1.2351  0.4623 -0.1451
10754TIP3   OH232183   8.039   3.667   0.776 -0.4278  0.6405 -0.8307
10754TIP3    H132184   7.997   3.636   0.696  0.4099 -0.1869 -0.9581
10754TIP3    H232185   8.052   3.761   0.761  1.1338  0.2283 -2.3216
10755TIP3   OH232186   0.876   8.105   3.562 -0.0623  0.0536 -0.2792
10755TIP3    H132187   0.819   8.055   3.503 -1.2964 -0.1756  1.0353
10755TIP3    H232188   0.834   8.191   3.568  1.1414  0.7379 -1.2361
10756TIP3   OH232189   5.082   2.080   2.331  0.2151  0.2569  0.3263
10756TIP3    H132190   5.165   2.037   2.307  0.3804  0.1803  1.0124
10756TIP3    H232191   5.055   2.126   2.252  1.2839  0.8639  0.3010
10757TIP3   OH232192   2.982   4.859   5.527  0.5055  0.6420  0.2705
10757TIP3    H132193   2.972   4.774   5.483  1.8681  0.3197  0.5514
10757TIP3    H232194   3.072   4.885   5.509  0.3093  1.7025  0.7733
10758TIP3   OH232195   2.787   5.118   6.123  0.3282  0.2721  0.4844
10758TIP3    H132196   2.692   5.104   6.131  0.1029  1.0668 -0.6019
10758TIP3    H232197   2.817   5.047   6.067  0.1811  0.6454 -0.0778
10759TIP3   OH232198   1.558   3.020   4.102  0.4195  0.5770  0.2412
10759TIP3    H132199   1.576   2.928   4.086  0.7421  0.7224 -0.2481
10759TIP3    H232200   1.576   3.033   4.195  0.0765  0.0802  0.3779
10760TIP3   OH232201   3.040   0.348   1.269 -0.2797  0.2651 -0.0542
10760TIP3    H132202   3.109   0.382   1.327  0.0441 -0.4770 -0.0038
10760TIP3    H232203   3.026   0.258   1.298 -0.3853  0.0051 -0.8882
10761TIP3   OH232204   3.885   7.055   4.801  0.1623 -0.3654  0.4083
10761TIP3    H132205   3.819   7.070   4.869  0.1453 -1.5814  0.7012
10761TIP3    H232206   3.940   7.133   4.803 -2.4901  1.6909 -1.3423
10762TIP3   OH232207   8.532   1.028   0.698 -0.8019 -0.0701 -0.1918
10762TIP3    H132208   8.437   1.038   0.693 -0.7662 -0.3240 -1.6352
10762TIP3    H232209   8.545   0.940   0.734 -1.0857  0.6780  1.8685
10763TIP3   OH232210   4.757   4.485   3.017  0.6323  0.7460 -0.1919
10763TIP3    H132211   4.688   4.515   3.076 -0.3294  1.7253 -1.7366
10763TIP3    H232212   4.839   4.508   3.061 -0.0603  2.3698  0.3218
10764TIP3   OH232213   8.602   4.487   3.993  0.7483 -0.0472 -0.5204
10764TIP3    H132214   8.601   4.582   4.006  1.7128  0.0521 -1.0793
10764TIP3    H232215   8.670   4.456   4.053 -0.4186 -0.5637  0.6075
10765TIP3   OH232216   4.706   1.626   6.860 -0.0136  0.0973  0.9422
10765TIP3    H132217   4.638   1.630   6.928 -0.8587 -0.6028  0.1686
10765TIP3    H232218   4.757   1.706   6.872 -0.1626  0.0101  2.3713
10766TIP3   OH232219   4.248   6.020   5.465 -0.0559 -0.1804  0.2218
10766TIP3    H132220   4.240   5.994   5.373  1.3817 -0.1412  0.0618
10766TIP3    H232221   4.194   5.956   5.513 -2.5927  1.0786 -0.7799
10767TIP3   OH232222   3.209   7.480   6.740  0.2725  0.1969  0.1688
10767TIP3    H132223   3.143   7.458   6.806  0.0567 -0.6967 -0.3311
10767TIP3    H232224   3.217   7.401   6.687  2.1378  0.1124  0.5227
10768TIP3   OH232225   8.301   2.722   3.945  0.4109  0.2065 -0.0690
10768TIP3    H132226   8.374   2.785   3.942 -0.2060  0.9214 -1.2752
10768TIP3    H232227   8.285   2.708   4.038  1.6720  0.5310  0.2179
10769TIP3   OH232228   6.136   6.006   6.698 -0.0862 -0.4727 -0.1398
10769TIP3    H132229   6.126   6.100   6.684 -0.2287 -0.6140 -1.0833
10769TIP3    H232230   6.193   5.977   6.626 -0.2401 -1.1418 -0.0024
10770TIP3   OH232231   2.106   1.781   1.863 -0.0318 -0.0393 -0.5558
10770TIP3    H132232   2.019   1.747   1.885  0.0184  0.3258  0.2409
10770TIP3    H232233   2.092   1.832   1.784 -0.3575 -0.7926 -0.9970
10771TIP3   OH232234   6.750   8.189   4.815 -0.0118 -0.0424  0.0147
10771TIP3    H132235   6.762   8.241   4.895 -3.6358 -0.3498  0.9390
10771TIP3    H232236   6.775   8.101   4.840  2.4871  0.4864 -0.4098
10772TIP3   OH232237   1.289   6.257   6.363  0.3065  0.0615  0.1224
10772TIP3    H132238   1.303   6.262   6.269 -0.4330 -0.6498 -0.0249
10772TIP3    H232239   1.373   6.225   6.398 -0.5153 -3.3300 -0.6764
10773TIP3   OH232240   3.778   1.036   3.418 -0.0786  0.2581  0.0994
10773TIP3    H132241   3.823   1.109   3.462  2.7733 -0.0681 -1.9937
10773TIP3    H232242   3.845   0.967   3.413 -1.5139 -1.0873 -1.3540
10774TIP3   OH232243   0.422   3.703   5.079 -0.3544  0.2843 -0.4867
10774TIP3    H132244   0.468   3.623   5.105 -0.6185  0.2957  0.0286
10774TIP3    H232245   0.451   3.719   4.989  0.0880 -0.1103 -0.4201
10775TIP3   OH232246   4.720   6.426   4.741  0.1124 -0.1782 -0.8629
10775TIP3    H132247   4.640   6.476   4.761  0.3797 -0.9105  2.7419
10775TIP3    H232248   4.724   6.359   4.809  2.3425 -2.0388 -2.6569
10776TIP3   OH232249   0.975   7.090   2.834 -1.0118 -0.4858 -0.2939
10776TIP3    H132250   1.050   7.146   2.853 -2.3629  1.0147  0.9318
10776TIP3    H232251   0.911   7.113   2.901 -2.4288 -2.0211 -1.0486
10777TIP3   OH232252   7.255   1.044   3.529 -0.1495  0.1372 -0.2551
10777TIP3    H132253   7.321   0.978   3.508 -1.2403 -0.9831 -0.3145
10777TIP3    H232254   7.304   1.118   3.564  1.0949 -0.8485  0.1446
10778TIP3   OH232255   3.166   4.551   1.116  0.3848  0.0013  0.1725
10778TIP3    H132256   3.198   4.546   1.206 -0.2518 -1.3329  0.3455
10778TIP3    H232257   3.147   4.461   1.092 -1.9554  0.5733 -0.3860
10779TIP3   OH232258   7.055   5.688   1.355  0.3928  0.1187 -0.2199
10779TIP3    H132259   7.054   5.646   1.269  0.1063  0.1164 -0.2172
10779TIP3    H232260   6.972   5.662   1.395  0.6030 -0.0240  0.1281
10780TIP3   OH232261   2.458   3.080   6.654 -0.1468 -0.2239 -0.3842
10780TIP3    H132262   2.399   3.146   6.618 -0.2312 -0.5399 -0.8374
10780TIP3    H232263   2.406   3.033   6.719 -0.5104 -0.7392 -1.0409
10781TIP3   OH232264   0.762   2.595   2.167  0.0423 -0.0274 -0.2120
10781TIP3    H132265   0.807   2.566   2.089 -0.7590 -1.6006 -0.1401
10781TIP3    H232266   0.794   2.538   2.237  2.1591  2.5266  1.1028
10782TIP3   OH232267   1.086   4.271   0.991  0.3700 -0.2390 -0.3360
10782TIP3    H132268   1.163   4.294   0.940 -0.3291  1.9115 -0.5233
10782TIP3    H232269   1.029   4.224   0.929  0.9675 -0.7016 -0.5406
10783TIP3   OH232270   0.410   4.684   6.782 -0.2788 -0.7990 -0.6093
10783TIP3    H132271   0.324   4.718   6.760 -0.8244 -1.3941  0.4919
10783TIP3    H232272   0.393   4.596   6.817  0.6448 -0.5484  0.5656
10784TIP3   OH232273   0.051   4.330   6.328  0.5170  0.4447 -0.0293
10784TIP3    H132274   0.113   4.389   6.285 -0.3265 -0.0567 -2.1017
10784TIP3    H232275  -0.011   4.306   6.258 -0.9153 -0.5231  1.4879
10785TIP3   OH232276   8.397   0.395   4.695 -0.1075  0.1906  0.6753
10785TIP3    H132277   8.481   0.359   4.722 -0.9868 -1.5965  1.1289
10785TIP3    H232278   8.349   0.409   4.777 -0.9761 -0.6794  0.3365
10786TIP3   OH232279   1.857   0.287   7.105  0.0502 -0.5101  0.5144
10786TIP3    H132280   1.790   0.281   7.037  0.4132 -2.0950  0.2560
10786TIP3    H232281   1.914   0.358   7.076  0.5695 -1.5739 -1.2185
10787TIP3   OH232282   4.744   4.354   5.947  0.1187 -0.4396 -0.6328
10787TIP3    H132283   4.745   4.412   5.870  0.9281 -0.2798 -0.5093
10787TIP3    H232284   4.651   4.343   5.967 -0.0585  0.4717 -0.9190
10788TIP3   OH232285   5.707   2.212   2.860  0.2114  0.1893  0.0490
10788TIP3    H132286   5.668   2.291   2.823  0.9648  0.4519 -0.2212
10788TIP3    H232287   5.738   2.239   2.946  1.9031  0.6625 -0.6605
10789TIP3   OH232288   4.673   1.447   0.122  0.2210  0.3018 -0.1830
10789TIP3    H132289   4.717   1.531   0.111  1.5228 -0.1802  0.9463
10789TIP3    H232290   4.582   1.469   0.142  1.0206  1.5692  2.4587
10790TIP3   OH232291   6.425   0.836   0.316  0.3622 -0.0723 -0.1373
10790TIP3    H132292   6.346   0.838   0.370  1.5023  0.2623  1.6021
10790TIP3    H232293   6.434   0.926   0.284  0.1452 -0.0638 -0.1749
10791TIP3   OH232294   7.697   1.273   1.540  0.1427 -0.2201 -0.6535
10791TIP3    H132295   7.710   1.179   1.536  2.0918 -0.1091  1.3027
10791TIP3    H232296   7.785   1.310   1.542 -0.5557  1.5479 -0.0750
10792TIP3   OH232297   5.931   8.005   3.798  0.0067  0.7503 -0.5625
10792TIP3    H132298   6.023   8.030   3.792 -0.2161  1.7428 -0.0589
10792TIP3    H232299   5.901   8.043   3.881 -0.8562  0.4433 -0.7182
10793TIP3   OH232300   6.132   6.581   5.533  0.1459 -0.4009 -0.7477
10793TIP3    H132301   6.167   6.518   5.470  0.2956 -0.4510 -0.6140
10793TIP3    H232302   6.074   6.637   5.481  1.2760  0.3839 -1.1835
10794TIP3   OH232303  -0.035   8.179   4.611  0.0594  0.2465 -0.2917
10794TIP3    H132304   0.020   8.207   4.537  0.2364  1.3764  0.2437
10794TIP3    H232305   0.027   8.152   4.679 -0.1009 -0.6179 -0.4754
10795TIP3   OH232306   7.345   6.777   6.813 -0.0501  0.1006 -0.3191
10795TIP3    H132307   7.433   6.744   6.795  0.0897 -0.6063  1.3988
10795TIP3    H232308   7.287   6.715   6.770  0.2871 -0.0704 -0.5303
10796TIP3   OH232309   5.850   3.135   0.455 -0.0519 -0.4233  0.4614
10796TIP3    H132310   5.878   3.165   0.542  2.0652  0.8226 -0.5547
10796TIP3    H232311   5.925   3.086   0.421  0.3434  1.5000 -1.7155
10797TIP3   OH232312   8.682   0.246   2.573  0.1581  0.1026  0.1076
10797TIP3    H132313   8.601   0.297   2.565 -1.2880 -2.0055  0.3131
10797TIP3    H232314   8.662   0.182   2.642  0.6080 -2.8279 -2.2762
10798TIP3   OH232315   0.503   2.655   2.557  0.0341 -0.5852  0.1625
10798TIP3    H132316   0.505   2.560   2.547  1.2027 -0.6786  1.0555
10798TIP3    H232317   0.441   2.670   2.629  0.7220 -0.7745  0.8111
10799TIP3   OH232318   2.664   4.284   5.743 -0.1558 -0.4783  0.6799
10799TIP3    H132319   2.633   4.329   5.822 -0.1861  2.0229 -0.6599
10799TIP3    H232320   2.759   4.294   5.746 -0.2747  2.0725 -0.8310
10800TIP3   OH232321   2.106   2.143   1.710  0.3349  0.0888 -0.1428
10800TIP3    H132322   2.129   2.169   1.621 -0.0272  0.8405 -0.0189
10800TIP3    H232323   2.060   2.218   1.747  1.8973  0.4329  1.2245
10801TIP3   OH232324   5.925   3.593   3.913  0.3290 -0.1551  0.2271
10801TIP3    H132325   5.939   3.687   3.901  1.3522 -0.4774 -1.3235
10801TIP3    H232326   5.837   3.586   3.949 -0.3798  1.3231 -1.1356
10802TIP3   OH232327   3.063   6.515   0.067  0.0724 -0.1461  0.4115
10802TIP3    H132328   3.046   6.488   0.157 -0.5275 -2.0114 -0.2008
10802TIP3    H232329   3.120   6.446   0.032  1.2015  1.1226 -0.3425
10803TIP3   OH232330   8.600   1.827   2.758 -0.0600  0.1038  0.1351
10803TIP3    H132331   8.506   1.808   2.754 -0.0301 -0.0548  0.1795
10803TIP3    H232332   8.642   1.743   2.740  0.0749  0.1969  0.0069
10804TIP3   OH232333   7.854   6.870   5.823  0.0855  0.1137  0.2620
10804TIP3    H132334   7.909   6.881   5.746 -1.4058  0.8142 -0.7552
10804TIP3    H232335   7.899   6.805   5.876  1.2639 -0.2199 -1.1017
10805TIP3   OH232336   3.772   3.342   3.571  0.2710 -0.1174 -0.7838
10805TIP3    H132337   3.856   3.386   3.579  0.8681 -1.0350 -1.7351
10805TIP3    H232338   3.792   3.249   3.583 -0.4994 -0.4157 -1.6832
10806TIP3   OH232339   4.285   5.217   2.852  0.3941  0.0156 -0.4505
10806TIP3    H132340   4.287   5.307   2.884 -0.5666 -0.3060  0.5578
10806TIP3    H232341   4.368   5.207   2.805  0.5210  1.4134 -0.5766
10807TIP3   OH232342   4.187   4.782   3.710  0.5531  0.0047  0.3880
10807TIP3    H132343   4.264   4.774   3.654  0.4551 -0.5213  0.3247
10807TIP3    H232344   4.138   4.701   3.695  0.4239 -0.0463  1.0839
10808TIP3   OH232345   7.078   0.866   0.167 -0.1226 -0.0629 -0.1916
10808TIP3    H132346   7.119   0.944   0.129 -1.6470  2.0128  2.0805
10808TIP3    H232347   7.119   0.858   0.253 -3.1130  1.1331  1.5036
10809TIP3   OH232348   3.901   6.283   1.208 -0.0707  0.2177 -0.3861
10809TIP3    H132349   3.966   6.315   1.145 -0.0980  0.4487 -0.2984
10809TIP3    H232350   3.894   6.354   1.272  0.7572 -0.4594  0.4782
10810TIP3   OH232351   2.101   3.011   6.418 -0.4689 -0.2870 -0.2727
10810TIP3    H132352   2.130   2.950   6.350  0.6775 -0.2396  0.1499
10810TIP3    H232353   2.102   2.960   6.499 -0.9343 -0.0997 -0.1431
10811TIP3   OH232354   3.317   4.627   4.689 -0.0081 -0.1111 -0.3339
10811TIP3    H132355   3.358   4.640   4.603 -1.7803 -0.3597 -1.2548
10811TIP3    H232356   3.334   4.535   4.709 -0.7950 -0.4505 -1.1187
10812TIP3   OH232357   8.394   0.644   6.379  0.1438  0.2031 -0.0953
10812TIP3    H132358   8.462   0.580   6.400  0.5931  0.6968 -0.0130
10812TIP3    H232359   8.380   0.692   6.460 -0.2154  0.1847 -0.1466
10813TIP3   OH232360   3.190   0.271   5.359  0.3153 -0.0485 -0.4125
10813TIP3    H132361   3.281   0.249   5.381 -0.1002 -1.3195  0.0998
10813TIP3    H232362   3.152   0.299   5.443  0.4629  1.4108 -0.7998
10814TIP3   OH232363   4.792   6.134   3.796 -0.3675 -0.3685 -0.3274
10814TIP3    H132364   4.886   6.147   3.806 -0.2361 -1.2839 -0.2694
10814TIP3    H232365   4.784   6.078   3.719 -0.7761 -1.2455  0.3253
10815TIP3   OH232366   4.105   2.986   0.521  0.2435  0.1829 -0.4421
10815TIP3    H132367   4.169   2.988   0.449  0.3462  0.0568 -0.3542
10815TIP3    H232368   4.132   2.912   0.575  0.0913  0.2013 -0.3413
10816TIP3   OH232369   6.084   0.810   3.764  0.4249  0.0119  0.2805
10816TIP3    H132370   6.082   0.890   3.712  0.6983  0.9270  1.6333
10816TIP3    H232371   6.057   0.837   3.851  0.7944 -1.3172  0.8353
10817TIP3   OH232372   7.757   1.277   2.667 -0.4458 -0.5733 -0.1646
10817TIP3    H132373   7.711   1.297   2.749 -1.1116 -1.5145 -0.3047
10817TIP3    H232374   7.688   1.267   2.602 -0.1585 -2.8501 -0.2020
10818TIP3   OH232375   7.559   1.341   5.799  0.2407 -0.2052 -0.0258
10818TIP3    H132376   7.598   1.255   5.814  0.6019 -0.0666 -0.1530
10818TIP3    H232377   7.611   1.400   5.855  1.1068  0.2019 -1.2213
10819TIP3   OH232378   2.112   5.310   6.185  0.1449  0.3612 -0.1153
10819TIP3    H132379   2.130   5.217   6.201 -0.7807 -0.3761 -2.7598
10819TIP3    H232380   2.184   5.356   6.227  0.2963 -1.4664  1.8433
10820TIP3   OH232381   2.910   2.185   0.982  0.2480 -0.1106 -0.6030
10820TIP3    H132382   2.968   2.185   0.906  1.1082 -1.5635  0.0282
10820TIP3    H232383   2.822   2.196   0.945  0.8716  2.6723 -1.5427
10821TIP3   OH232384   4.101   1.378   5.759  0.5658 -0.7860 -0.1008
10821TIP3    H132385   4.179   1.421   5.725  0.3508 -1.0647 -0.9663
10821TIP3    H232386   4.126   1.349   5.847  0.7461  0.9795  0.4728
10822TIP3   OH232387   4.927   7.815   6.247 -0.0605 -0.3643  0.4391
10822TIP3    H132388   5.011   7.821   6.202 -0.4691 -0.7253 -0.3903
10822TIP3    H232389   4.929   7.730   6.291 -0.6334 -1.1417 -0.9572
10823TIP3   OH232390   4.134   1.436   0.298  0.2517  0.4765  0.7094
10823TIP3    H132391   4.052   1.397   0.266  0.0234  0.1420  1.6572
10823TIP3    H232392   4.199   1.366   0.291 -0.4199 -0.5907  3.5387
10824TIP3   OH232393   5.092   7.803   3.577 -0.2981 -0.5243 -0.2692
10824TIP3    H132394   5.002   7.798   3.608 -0.3073 -0.5141 -0.2948
10824TIP3    H232395   5.121   7.712   3.575 -0.2945 -0.5246 -0.2217
10825TIP3   OH232396   6.215   3.985   7.034  0.5415 -0.0013 -0.2536
10825TIP3    H132397   6.242   4.066   7.076 -0.3304 -0.7843  2.0068
10825TIP3    H232398   6.255   3.916   7.087 -0.5300 -1.0657 -0.7700
10826TIP3   OH232399   7.101   0.697   2.428  0.2162 -0.6434 -0.0179
10826TIP3    H132400   7.184   0.654   2.451 -1.2129 -2.8399  1.4044
10826TIP3    H232401   7.100   0.776   2.481  1.0519 -1.0039  0.5717
10827TIP3   OH232402   5.632   0.601   5.715 -0.0471  0.4498  0.1178
10827TIP3    H132403   5.719   0.602   5.755  0.1741 -0.6189 -0.3024
10827TIP3    H232404   5.572   0.589   5.789  0.2696 -0.2142  0.2794
10828TIP3   OH232405   6.948   4.359   3.165 -0.4826 -0.0956  1.0072
10828TIP3    H132406   6.988   4.367   3.251  0.0426  0.6826  0.7009
10828TIP3    H232407   6.858   4.391   3.177 -0.6322 -0.6518  1.4130
10829TIP3   OH232408   6.249   5.202   1.850 -0.0251 -0.3353 -0.3898
10829TIP3    H132409   6.344   5.191   1.847  0.1180  0.0583  1.3878
10829TIP3    H232410   6.235   5.273   1.913 -1.5230 -1.2205  0.3446
10830TIP3   OH232411   6.835   5.880   6.842 -0.2316 -0.4277  0.6275
10830TIP3    H132412   6.919   5.844   6.812 -0.0877  1.2201 -1.1403
10830TIP3    H232413   6.798   5.811   6.897  1.4894 -1.9115  0.0325
10831TIP3   OH232414   3.729   5.117   3.714 -0.0338  0.0689 -0.2992
10831TIP3    H132415   3.759   5.152   3.798 -0.6433 -0.8047  0.3049
10831TIP3    H232416   3.786   5.158   3.649  1.3860 -0.3024  0.6693
10832TIP3   OH232417   0.307   4.186   3.505  0.1003 -0.0507  0.5148
10832TIP3    H132418   0.303   4.117   3.439  0.8270  0.0598  0.3435
10832TIP3    H232419   0.380   4.160   3.562 -0.7691 -0.3462  1.5080
10833TIP3   OH232420   7.191   3.307   4.399 -0.5442 -0.1686 -0.3210
10833TIP3    H132421   7.186   3.319   4.494 -0.7278  0.4992 -0.4054
10833TIP3    H232422   7.100   3.294   4.372 -0.5101 -0.1972 -0.4198
10834TIP3   OH232423   2.750   1.470   6.811  0.1372 -0.0312 -0.5626
10834TIP3    H132424   2.750   1.553   6.765  1.5452  0.7418  0.7357
10834TIP3    H232425   2.841   1.457   6.838 -0.2505 -1.4653  0.1897
10835TIP3   OH232426   7.738   1.214   4.070 -0.1108  0.2449  0.5822
10835TIP3    H132427   7.792   1.258   4.136  0.3690  0.2872  0.1681
10835TIP3    H232428   7.671   1.168   4.120 -1.1281  2.0833  1.0101
10836TIP3   OH232429   3.189   7.021   1.227  0.4771  0.2170 -0.4328
10836TIP3    H132430   3.256   7.062   1.282  1.1332 -1.8578  0.3964
10836TIP3    H232431   3.108   7.030   1.277  0.6207  0.4069 -0.2323
10837TIP3   OH232432   7.183   0.031   2.782 -0.1667  0.6219 -0.0018
10837TIP3    H132433   7.166   0.123   2.805 -2.2369  0.3592 -0.2625
10837TIP3    H232434   7.198  -0.012   2.866 -0.5783  0.9676  0.2582
10838TIP3   OH232435   3.871   8.078   4.416 -0.1946  0.0979 -0.2959
10838TIP3    H132436   3.906   8.158   4.455 -1.5364  0.2447  0.6726
10838TIP3    H232437   3.885   8.089   4.322  1.9746  0.2941 -0.0102
10839TIP3   OH232438   2.085   0.839   3.789  0.3823  0.0374 -0.0509
10839TIP3    H132439   2.069   0.825   3.882 -1.9631 -0.4024 -0.4598
10839TIP3    H232440   2.088   0.935   3.779 -1.1040  0.1462  0.2729
10840TIP3   OH232441   1.269   3.348   1.480 -0.1370  0.1798  0.0888
10840TIP3    H132442   1.358   3.374   1.505  0.5200 -0.1287 -1.7762
10840TIP3    H232443   1.212   3.395   1.541  1.3287 -1.0445  2.5498
10841TIP3   OH232444   7.612   1.890   6.644  0.4082  0.8547  0.3606
10841TIP3    H132445   7.564   1.902   6.562 -0.2025  1.2940  0.7737
10841TIP3    H232446   7.620   1.978   6.681  1.5664  0.7966  0.2897
10842TIP3   OH232447   5.301   1.014   2.921 -0.3186 -0.1712 -0.0525
10842TIP3    H132448   5.235   1.012   2.852  0.2026  0.1100 -0.5644
10842TIP3    H232449   5.371   1.070   2.887  1.0983 -2.0032 -0.3631
10843TIP3   OH232450   1.211   4.953   2.358  0.4060  0.1064 -0.1129
10843TIP3    H132451   1.243   5.042   2.347 -1.2840  1.1493  2.5529
10843TIP3    H232452   1.220   4.914   2.271  0.7706  2.9970 -1.4970
10844TIP3   OH232453   6.199   4.472   0.002  0.0172 -0.3372 -0.1259
10844TIP3    H132454   6.260   4.516   0.062 -0.9326 -0.4428  0.9413
10844TIP3    H232455   6.246   4.393  -0.026  0.5829 -0.1443  0.2562
10845TIP3   OH232456   2.607   2.197   6.648 -0.3615 -0.2128  0.0999
10845TIP3    H132457   2.673   2.155   6.592  0.1542  0.1768  0.4093
10845TIP3    H232458   2.614   2.290   6.627 -0.5507 -0.1278  0.4126
10846TIP3   OH232459   6.705   1.025   1.524 -0.5278  0.4002  0.2374
10846TIP3    H132460   6.731   1.051   1.612 -0.1214  0.2051  0.1770
10846TIP3    H232461   6.642   0.954   1.538 -0.3963  0.3097  0.3681
10847TIP3   OH232462   3.276   2.547   5.411  0.4554 -0.0917  0.3299
10847TIP3    H132463   3.352   2.525   5.356  0.7948 -1.3103  1.2521
10847TIP3    H232464   3.224   2.467   5.413 -0.8127  0.6970 -0.1869
10848TIP3   OH232465   7.749   0.283   1.381 -0.3675 -0.2888 -0.0535
10848TIP3    H132466   7.708   0.367   1.400  0.1542  0.1821 -0.9531
10848TIP3    H232467   7.811   0.302   1.310  1.7265 -0.8596  1.5190
10849TIP3   OH232468   2.370   6.989   3.424 -0.1371  0.2735 -0.8573
10849TIP3    H132469   2.358   6.932   3.500  1.6497  0.6113 -0.2514
10849TIP3    H232470   2.413   7.066   3.459 -1.1284  1.3448 -1.9160
10850TIP3   OH232471   7.024   1.893   1.179 -0.2228 -0.3031  0.6759
10850TIP3    H132472   7.112   1.859   1.194  0.6043  1.8313  0.9686
10850TIP3    H232473   7.025   1.981   1.217 -2.3716 -0.0649  0.3366
10851TIP3   OH232474   4.268   7.976   6.568  0.1349  0.3389  0.7698
10851TIP3    H132475   4.255   7.882   6.582  1.5242 -0.2512 -1.4197
10851TIP3    H232476   4.191   8.004   6.520  0.3399 -0.0062  0.2291
10852TIP3   OH232477   2.303   0.747   2.395 -0.4229 -0.5510  0.4421
10852TIP3    H132478   2.318   0.744   2.490  0.8547 -1.2742  0.2285
10852TIP3    H232479   2.264   0.833   2.380 -1.6584 -0.8299  1.7520
10853TIP3   OH232480   7.151   7.065   0.554 -0.4067 -0.3389 -0.3562
10853TIP3    H132481   7.092   6.989   0.556 -0.7366 -0.0856 -0.3655
10853TIP3    H232482   7.163   7.083   0.461  0.5001 -1.0129 -0.3792
10854TIP3   OH232483   2.534   2.495   5.314  0.2784 -0.4218 -0.2118
10854TIP3    H132484   2.613   2.519   5.363 -0.0702 -0.7607  0.5337
10854TIP3    H232485   2.462   2.514   5.374 -0.1506 -0.9378 -0.5601
10855TIP3   OH232486   6.832   7.007   4.267 -0.0514 -0.1889  0.5990
10855TIP3    H132487   6.740   6.989   4.248  0.2679 -1.2749 -0.0462
10855TIP3    H232488   6.849   7.093   4.229 -0.6339 -0.2825  0.1288
10856TIP3   OH232489   6.660   3.639   4.436  0.0879 -0.0413 -0.2600
10856TIP3    H132490   6.624   3.551   4.429  0.4427 -0.2036 -0.0840
10856TIP3    H232491   6.632   3.683   4.356 -0.4927 -0.1647 -0.1286
10857TIP3   OH232492   1.454   6.683   0.312 -0.0554 -0.3815 -0.4675
10857TIP3    H132493   1.451   6.632   0.231 -0.6082 -1.7239  0.3483
10857TIP3    H232494   1.372   6.660   0.357 -0.6815  1.8260 -0.3780
10858TIP3   OH232495   8.250   4.224   6.127 -0.7822 -0.6003 -0.0071
10858TIP3    H132496   8.198   4.172   6.065 -0.0983 -0.4112 -0.7506
10858TIP3    H232497   8.249   4.313   6.091 -1.0233 -0.3232  0.6708
10859TIP3   OH232498   8.139   2.954  -0.029 -0.0541  0.1701  0.0356
10859TIP3    H132499   8.065   2.966   0.030  1.0550 -3.5216  2.5588
10859TIP3    H232500   8.215   2.944   0.029  1.4275 -1.8382 -2.0455
10860TIP3   OH232501   8.173   7.087   4.738 -0.5108  0.3141  0.3628
10860TIP3    H132502   8.135   7.092   4.650  1.2187 -2.2703 -0.6332
10860TIP3    H232503   8.267   7.090   4.724 -0.1285 -1.9621  1.9105
10861TIP3   OH232504   7.555   0.858   6.075  0.5201 -0.6616 -0.2041
10861TIP3    H132505   7.572   0.861   5.981  0.4255  2.0151 -0.1949
10861TIP3    H232506   7.461   0.843   6.081  0.7596 -2.5994 -0.4407
10862TIP3   OH232507   7.640   7.942   5.022  0.3441  0.0118  0.6248
10862TIP3    H132508   7.669   7.885   4.951  0.6227 -1.5307  1.9012
10862TIP3    H232509   7.620   8.025   4.980 -1.3182 -1.3753 -1.5677
10863TIP3   OH232510   2.013   1.684   0.050  0.3307 -0.0956 -0.1901
10863TIP3    H132511   1.919   1.697   0.062  0.3036 -0.1440 -0.3396
10863TIP3    H232512   2.047   1.770   0.028  0.6111  0.2859  1.6132
10864TIP3   OH232513   3.502   7.460   3.572  0.1232  0.2521  0.1409
10864TIP3    H132514   3.551   7.402   3.513 -1.7946 -0.1507 -1.1514
10864TIP3    H232515   3.489   7.407   3.651  1.4601  0.2522  0.3762
10865TIP3   OH232516   2.850   5.776   3.097  0.2260  0.0008 -0.1910
10865TIP3    H132517   2.776   5.722   3.069  1.5526 -1.5883 -0.8131
10865TIP3    H232518   2.866   5.750   3.188 -0.2612  0.6982  0.1029
10866TIP3   OH232519   1.006   4.713   5.021  0.0831 -0.1343 -0.6664
10866TIP3    H132520   1.032   4.720   4.929 -2.3320  2.5897 -1.2973
10866TIP3    H232521   0.913   4.736   5.021  0.2552  1.0627  2.5948
10867TIP3   OH232522   8.502   1.749   4.030 -0.6794 -0.3427 -0.5020
10867TIP3    H132523   8.481   1.673   4.084  2.5567 -0.8180  0.3123
10867TIP3    H232524   8.497   1.824   4.090  0.4359 -0.5433 -0.1312
10868TIP3   OH232525   5.618   6.129   4.599 -0.3895 -0.2922  0.1268
10868TIP3    H132526   5.694   6.092   4.554 -0.0990  0.7467 -0.2640
10868TIP3    H232527   5.631   6.107   4.691 -0.3247 -1.3158 -0.1187
10869TIP3   OH232528   7.477   5.915   3.584  0.3860 -0.2231  0.6115
10869TIP3    H132529   7.410   5.920   3.653  0.3191  2.0956  0.4474
10869TIP3    H232530   7.558   5.898   3.631  0.2249  0.6045  1.2142
10870TIP3   OH232531   4.005   0.480   3.048 -0.2263  0.8124  0.0049
10870TIP3    H132532   3.924   0.463   2.999 -1.1312  0.5224  1.5406
10870TIP3    H232533   4.055   0.398   3.040 -0.9032  0.3304  0.5281
10871TIP3   OH232534   8.008   2.020   5.262 -0.3857 -0.0808 -0.4173
10871TIP3    H132535   8.005   2.032   5.357  0.3286  0.9523 -0.5164
10871TIP3    H232536   8.018   2.108   5.226 -0.6306 -0.4530 -1.4629
10872TIP3   OH232537   4.323   0.938   0.986  0.1205  0.4044  0.1234
10872TIP3    H132538   4.355   0.990   0.912  1.1850 -1.0830 -0.5050
10872TIP3    H232539   4.278   0.864   0.945 -1.0920  0.6260  1.0015
10873TIP3   OH232540   8.131   4.204   5.083  0.2344 -0.2568 -0.0646
10873TIP3    H132541   8.081   4.224   5.162  0.3622 -1.4300  0.3375
10873TIP3    H232542   8.082   4.133   5.041  2.2280 -2.4965  1.1079
10874TIP3   OH232543   3.826   7.573   4.575  0.0025  0.1445  0.0948
10874TIP3    H132544   3.818   7.659   4.533 -2.0595 -1.7779 -4.1292
10874TIP3    H232545   3.741   7.559   4.617  0.1350 -0.0105  0.3091
10875TIP3   OH232546   2.055   2.497   1.131 -0.1816  0.4690  0.1090
10875TIP3    H132547   2.139   2.539   1.152 -1.3700  2.4717  1.0732
10875TIP3    H232548   1.996   2.569   1.111 -1.9118 -0.8501  0.2477
10876TIP3   OH232549   6.703   5.523   0.442 -0.5155  0.2734 -0.3065
10876TIP3    H132550   6.786   5.535   0.488 -0.9932 -0.1170  0.6740
10876TIP3    H232551   6.661   5.449   0.486 -1.0026 -0.1005 -1.3583
10877TIP3   OH232552   6.419   2.297   0.038  0.3326  0.2374 -0.5947
10877TIP3    H132553   6.381   2.351  -0.031  1.0315 -0.0202 -1.1917
10877TIP3    H232554   6.361   2.221   0.045 -1.3746  1.5851  1.1007
10878TIP3   OH232555   6.762   7.024   5.191  0.6042 -0.1181 -0.2562
10878TIP3    H132556   6.723   7.051   5.274 -1.3659 -1.4847 -0.6565
10878TIP3    H232557   6.790   6.934   5.207 -1.3059 -1.0046 -1.4466
10879TIP3   OH232558   4.743   1.017   2.248 -0.4602  0.9966 -0.2587
10879TIP3    H132559   4.778   1.100   2.280 -1.4994  1.4522 -0.2899
10879TIP3    H232560   4.666   1.001   2.302  0.1643 -0.3590  0.2773
10880TIP3   OH232561   3.841   0.712   7.049 -0.1480 -0.5187 -0.0267
10880TIP3    H132562   3.848   0.807   7.053  0.8686 -0.4455 -1.8695
10880TIP3    H232563   3.820   0.694   6.957 -0.6670 -2.0606  0.3661
10881TIP3   OH232564   0.254   5.138   3.507 -0.0094 -0.2036  0.0257
10881TIP3    H132565   0.204   5.208   3.465  1.6582  1.0124 -0.0384
10881TIP3    H232566   0.192   5.095   3.566 -2.4919 -1.9341 -3.4828
10882TIP3   OH232567   2.024   1.384   2.113 -0.5523 -0.4056  0.3263
10882TIP3    H132568   2.094   1.320   2.113 -0.6712 -0.5356  0.6817
10882TIP3    H232569   1.952   1.342   2.065 -0.3731 -0.2550 -0.0767
10883TIP3   OH232570   2.393   0.045   2.714  0.0963 -0.1821  0.3517
10883TIP3    H132571   2.463   0.013   2.658  1.0124  2.1296  0.0240
10883TIP3    H232572   2.359   0.122   2.668 -1.5464 -0.3140  1.2924
10884TIP3   OH232573   1.309   5.966   5.565 -0.5684 -0.1667  0.4043
10884TIP3    H132574   1.216   5.966   5.545 -0.8718 -3.4614  1.1228
10884TIP3    H232575   1.314   5.985   5.659 -0.5728 -0.2186  0.4156
10885TIP3   OH232576   7.637   7.101   6.893  0.1349 -0.1437 -0.1583
10885TIP3    H132577   7.669   7.159   6.824  0.2432 -2.1099 -1.8798
10885TIP3    H232578   7.667   7.141   6.975  0.1951  2.1546 -1.2495
10886TIP3   OH232579   4.569   4.696   4.816  0.1609  0.4513 -0.2157
10886TIP3    H132580   4.501   4.729   4.757  0.3510  0.8723 -0.2034
10886TIP3    H232581   4.539   4.719   4.904 -0.1308 -0.1924 -0.1399
10887TIP3   OH232582   4.548   6.434   5.764 -0.2374 -0.0198  0.1759
10887TIP3    H132583   4.532   6.521   5.801  0.3376  0.4227 -0.5983
10887TIP3    H232584   4.539   6.446   5.669  0.0430 -0.7669  0.0498
10888TIP3   OH232585   5.906   5.665   5.615 -0.3920 -0.3916 -0.0540
10888TIP3    H132586   5.891   5.604   5.543 -0.3437 -0.3403 -0.1069
10888TIP3    H232587   5.818   5.695   5.640 -0.4776 -1.0050  0.4260
10889TIP3   OH232588   8.688   5.702   2.086  0.0113  0.3007  0.1946
10889TIP3    H132589   8.643   5.675   2.166  2.1752 -2.2365  0.7464
10889TIP3    H232590   8.733   5.783   2.110  0.5508 -0.3610  1.6020
10890TIP3   OH232591   3.432   3.098   6.537 -0.0849 -0.0117 -0.0652
10890TIP3    H132592   3.399   3.062   6.455 -1.4725  1.1073 -0.0213
10890TIP3    H232593   3.362   3.084   6.601 -0.3547  2.0027  0.1434
10891TIP3   OH232594   1.418   5.220   0.766 -0.0826 -0.3071  0.6277
10891TIP3    H132595   1.404   5.283   0.695  1.6551 -1.1725 -0.5301
10891TIP3    H232596   1.394   5.136   0.728  2.7760 -1.0766  0.3011
10892TIP3   OH232597   3.543   1.941   5.243  0.0230 -0.1870  0.0900
10892TIP3    H132598   3.630   1.981   5.247 -0.1023  0.0244  0.7456
10892TIP3    H232599   3.491   1.990   5.307 -0.2948 -0.9999  0.4684
10893TIP3   OH232600   1.420   4.020   0.052  0.6655 -0.0545  0.1941
10893TIP3    H132601   1.358   3.977  -0.007  0.2899 -2.3808  2.1149
10893TIP3    H232602   1.380   4.104   0.074  0.4533  0.5214 -2.1486
10894TIP3   OH232603   6.958   6.586   2.482  0.3271  0.3743  0.0001
10894TIP3    H132604   7.038   6.538   2.504  0.2497  0.2719  0.0570
10894TIP3    H232605   6.888   6.540   2.529  0.6026  2.2339  2.4170
10895TIP3   OH232606   3.638   2.105   0.093  0.0302  0.2192 -0.1300
10895TIP3    H132607   3.695   2.043   0.048  0.4909  1.1892 -0.9478
10895TIP3    H232608   3.656   2.189   0.049 -0.7036  0.8853  0.8100
10896TIP3   OH232609   4.253   6.658   2.595  0.7751 -0.4240 -0.1188
10896TIP3    H132610   4.341   6.686   2.570  1.0568  0.4799  1.7404
10896TIP3    H232611   4.267   6.595   2.665 -0.0730  1.1448  1.5207
10897TIP3   OH232612   2.504   5.363   3.581 -0.0874 -0.1701 -0.1319
10897TIP3    H132613   2.546   5.296   3.634  0.7234 -1.3524 -2.1634
10897TIP3    H232614   2.572   5.430   3.567 -1.0499  1.4572  2.3424
10898TIP3   OH232615   2.293   5.836   5.637  0.1679 -0.7705  0.5019
10898TIP3    H132616   2.377   5.881   5.630 -0.1827 -0.0170  0.9760
10898TIP3    H232617   2.316   5.743   5.640  0.9981 -0.5656  0.8698
10899TIP3   OH232618   6.521   5.975   3.892 -0.1239  0.3146 -0.0389
10899TIP3    H132619   6.553   6.056   3.931  0.6789 -0.6413  1.4041
10899TIP3    H232620   6.581   5.958   3.820  0.6871  0.2237  0.6332
10900TIP3   OH232621   0.176   1.643   2.724  0.1793 -0.0916 -0.1973
10900TIP3    H132622   0.252   1.699   2.737  0.2624 -0.2706  0.1079
10900TIP3    H232623   0.140   1.630   2.812 -1.0890  1.2021 -0.4982
10901TIP3   OH232624   7.213   5.101   3.212  0.1162 -0.0088 -0.2328
10901TIP3    H132625   7.229   5.142   3.127  0.7495 -0.9313 -0.5670
10901TIP3    H232626   7.279   5.140   3.269 -0.4398  0.7651 -0.0921
10902TIP3   OH232627   8.026   5.811   5.588  1.2037  0.1672 -0.2587
10902TIP3    H132628   7.971   5.883   5.618  2.0673  0.0520  1.7854
10902TIP3    H232629   7.966   5.751   5.544 -0.0893  0.6271  0.8178
10903TIP3   OH232630   0.166   5.209   6.084 -0.7311 -0.1554  0.1030
10903TIP3    H132631   0.166   5.189   5.990 -1.0431  1.0767 -0.1767
10903TIP3    H232632   0.136   5.129   6.126 -1.6871 -0.3668 -0.9426
10904TIP3   OH232633   7.884   1.016   6.871  0.3622 -0.2278 -0.2653
10904TIP3    H132634   7.790   1.007   6.853  0.6018 -1.9532 -0.8573
10904TIP3    H232635   7.913   1.082   6.809 -0.0865 -1.3136 -1.7111
10905TIP3   OH232636   6.747   0.513   5.281 -0.0583  0.3604  0.5335
10905TIP3    H132637   6.688   0.437   5.288 -1.5516  1.5629  1.4574
10905TIP3    H232638   6.736   0.543   5.190  2.6603 -2.0938 -0.7806
10906TIP3   OH232639   2.614   3.340   5.622  0.1362 -0.2711  0.0719
10906TIP3    H132640   2.581   3.342   5.711 -0.8894  0.1079 -0.2996
10906TIP3    H232641   2.707   3.318   5.631  0.2991  0.7999  1.2960
10907TIP3   OH232642   7.863   1.735   0.712  0.2300  0.0773 -0.0131
10907TIP3    H132643   7.820   1.816   0.739 -0.7946 -0.2572 -0.5519
10907TIP3    H232644   7.890   1.694   0.794  0.4647  0.8031  0.2793
10908TIP3   OH232645   5.854   6.623   0.667  0.5124  0.1249 -0.2450
10908TIP3    H132646   5.772   6.598   0.710  0.1888 -1.2797 -1.5975
10908TIP3    H232647   5.828   6.685   0.599  0.5999 -0.0955 -0.4818
10909TIP3   OH232648   8.449   7.462   6.872  0.4615  0.0905  0.3206
10909TIP3    H132649   8.473   7.471   6.965  0.5408 -0.3939  0.3494
10909TIP3    H232650   8.403   7.378   6.868  0.5435  0.0676 -0.0983
10910TIP3   OH232651   1.935   3.774   2.466  0.9898  0.1446 -0.3472
10910TIP3    H132652   1.863   3.817   2.511  0.2645 -1.7794  0.4308
10910TIP3    H232653   1.964   3.837   2.400 -0.4976  1.4803  0.2319
10911TIP3   OH232654   4.626   3.935   1.925  0.2944  0.2494 -0.7586
10911TIP3    H132655   4.542   3.927   1.971  0.5670 -0.2027 -0.3293
10911TIP3    H232656   4.606   3.988   1.848 -0.0455  1.5791  0.2084
10912TIP3   OH232657   5.959   1.336   2.167  0.8943 -0.0648  0.1931
10912TIP3    H132658   6.020   1.282   2.116  1.7375  0.0150  1.0769
10912TIP3    H232659   6.012   1.410   2.198 -0.4387  1.8231 -1.7509
10913TIP3   OH232660   5.779   0.154   6.906  0.1777 -0.2617  0.2642
10913TIP3    H132661   5.854   0.125   6.958  0.1881 -0.7984 -0.0377
10913TIP3    H232662   5.716   0.186   6.970  0.2806 -0.7064  0.5929
10914TIP3   OH232663   6.102   4.698   3.579 -0.2353  0.4621 -0.3931
10914TIP3    H132664   6.171   4.756   3.609 -0.0149  0.9957 -1.8764
10914TIP3    H232665   6.030   4.712   3.641  0.8988 -0.0026  1.0888
10915TIP3   OH232666   5.706   0.643   4.245  0.1428  0.4477 -0.2255
10915TIP3    H132667   5.744   0.567   4.289 -1.6359 -0.1868  0.2994
10915TIP3    H232668   5.764   0.715   4.269  0.7877 -0.3885  0.8611
10916TIP3   OH232669   3.587   2.346   5.866 -0.5032  0.8767 -0.6286
10916TIP3    H132670   3.587   2.417   5.803  1.1211  1.7840  0.3159
10916TIP3    H232671   3.679   2.321   5.875 -0.5693  1.1780  1.7412
10917TIP3   OH232672   2.577   3.948   2.540  0.5525  0.1565 -0.5266
10917TIP3    H132673   2.603   4.013   2.475  1.2325 -0.7140 -1.1515
10917TIP3    H232674   2.567   3.998   2.621 -0.1193  1.2293 -1.2453
10918TIP3   OH232675   5.334   1.084   3.654 -0.1169  0.0541  0.2887
10918TIP3    H132676   5.386   1.126   3.585 -0.1624 -0.8210 -0.2900
10918TIP3    H232677   5.350   0.990   3.643 -0.4950 -0.1314  1.1775
10919TIP3   OH232678   5.572   4.867   2.094 -0.0186  0.1513 -0.0051
10919TIP3    H132679   5.654   4.843   2.053 -0.1416  1.6293 -1.2012
10919TIP3    H232680   5.505   4.823   2.043  0.0132 -2.1852  1.7984
10920TIP3   OH232681   0.119   7.565   4.231 -0.2790 -0.3285  0.1204
10920TIP3    H132682   0.214   7.577   4.232 -0.2791 -0.2616 -0.5760
10920TIP3    H232683   0.086   7.633   4.173 -0.8120  0.0083  0.7987
10921TIP3   OH232684   6.390   8.051   3.934 -0.0585  0.5830  0.0360
10921TIP3    H132685   6.345   8.111   3.993  1.0618  1.5714 -0.0668
10921TIP3    H232686   6.475   8.037   3.974  0.1160 -0.0399 -0.5281
10922TIP3   OH232687   4.437   4.948   6.574 -0.3367  1.0733 -0.0253
10922TIP3    H132688   4.463   4.976   6.662  3.2881 -2.1800  0.2268
10922TIP3    H232689   4.493   4.999   6.516  0.2871  0.3092 -0.1105
10923TIP3   OH232690   6.609   1.078   1.973  0.4737  0.1307  0.2677
10923TIP3    H132691   6.670   1.091   1.901 -1.3134  0.3278 -1.3016
10923TIP3    H232692   6.546   1.013   1.940 -0.7580  0.6939  1.3914
10924TIP3   OH232693   4.228   1.673   5.952 -0.0303  0.2865 -0.4292
10924TIP3    H132694   4.315   1.639   5.932  0.7888  0.5487  2.3409
10924TIP3    H232695   4.229   1.761   5.914  0.9817  0.3674 -0.2528
10925TIP3   OH232696   5.340   2.604   1.763  0.0732 -0.5100 -0.1588
10925TIP3    H132697   5.311   2.634   1.849  0.9458  0.4118 -0.1641
10925TIP3    H232698   5.390   2.525   1.780  2.2942  0.9422  0.5082
10926TIP3   OH232699   4.071   6.818   4.838  0.5353 -0.5959  0.3342
10926TIP3    H132700   3.978   6.805   4.825  0.8028 -1.3516 -1.0325
10926TIP3    H232701   4.097   6.882   4.771  1.3913 -2.1697 -0.9092
10927TIP3   OH232702   1.979   7.201   5.607  0.3610  0.0605  0.1369
10927TIP3    H132703   1.917   7.274   5.612  0.9836  0.5429  1.0012
10927TIP3    H232704   2.041   7.217   5.677  1.9550  0.0179 -1.2207
10928TIP3   OH232705   4.266   5.329   1.723 -0.2776 -0.3110 -0.4966
10928TIP3    H132706   4.220   5.245   1.735  0.3277 -0.7024 -0.8641
10928TIP3    H232707   4.200   5.387   1.685 -0.5482 -0.7856 -0.7659
10929TIP3   OH232708   2.716   5.499   4.881  0.0727 -0.4365  0.0180
10929TIP3    H132709   2.653   5.453   4.937  0.7048 -1.9288 -0.4549
10929TIP3    H232710   2.796   5.504   4.934  0.0757 -0.0443 -0.0170
10930TIP3   OH232711   2.195   0.392   5.645  0.1332  0.2512 -0.0357
10930TIP3    H132712   2.128   0.355   5.702 -0.0309  0.3880 -0.1352
10930TIP3    H232713   2.145   0.434   5.574  0.3314  0.1529 -0.2338
10931TIP3   OH232714   6.046   5.380   1.634 -0.2685  0.2544 -0.1835
10931TIP3    H132715   6.007   5.454   1.681  1.7125  1.0404  0.2967
10931TIP3    H232716   6.006   5.302   1.674  0.4824  0.9464  2.0332
10932TIP3   OH232717   2.654   7.360   5.637 -0.4162  0.1835 -0.0888
10932TIP3    H132718   2.654   7.350   5.732  2.4169  0.2784 -0.0008
10932TIP3    H232719   2.667   7.272   5.603  0.7016  0.4161 -0.2870
10933TIP3   OH232720   5.784   3.375   2.978  0.4960  0.8328  0.3177
10933TIP3    H132721   5.844   3.303   2.999  3.0516  2.7071 -0.0956
10933TIP3    H232722   5.792   3.435   3.052 -1.6474  0.7552  0.6862
10934TIP3   OH232723   0.676   4.104   3.931  0.0336 -0.1294 -0.7116
10934TIP3    H132724   0.675   4.030   3.991 -0.7384  1.3405  1.1732
10934TIP3    H232725   0.767   4.134   3.931 -0.1296  0.4127  0.4737
10935TIP3   OH232726   5.705   4.486   1.623  0.0177 -0.0263 -0.7464
10935TIP3    H132727   5.642   4.443   1.566 -0.6183 -0.0431 -0.0519
10935TIP3    H232728   5.739   4.416   1.679 -0.3563  0.2093 -0.2147
10936TIP3   OH232729   6.806   1.866   4.096 -0.3910 -0.2450  0.0281
10936TIP3    H132730   6.755   1.917   4.033 -0.7319 -0.1159  0.4033
10936TIP3    H232731   6.870   1.928   4.131  0.2454 -0.4911 -0.6822
10937TIP3   OH232732   1.533   7.863   4.620  0.7217  0.4696 -0.1743
10937TIP3    H132733   1.521   7.942   4.674 -0.3500 -0.5520  1.1524
10937TIP3    H232734   1.459   7.865   4.558  1.1426  0.9024 -0.6700
10938TIP3   OH232735   3.341   6.983   5.181  0.3171 -0.1566 -0.7013
10938TIP3    H132736   3.287   6.955   5.108 -2.2535 -2.0350  1.7371
10938TIP3    H232737   3.413   6.921   5.184 -1.3018 -2.1081  0.1449
10939TIP3   OH232738   3.527   4.621   3.811  0.4163  0.1995  0.9126
10939TIP3    H132739   3.515   4.620   3.716 -1.9540  1.1319  1.1265
10939TIP3    H232740   3.601   4.563   3.827  1.2893  0.5189 -1.5414
10940TIP3   OH232741   8.286   6.981   0.491 -0.2737  0.3453 -0.6806
10940TIP3    H132742   8.234   6.944   0.563  0.3935  0.4760 -0.1252
10940TIP3    H232743   8.226   7.042   0.447 -1.0636 -0.6382 -0.9866
10941TIP3   OH232744   8.537   4.592   6.095 -0.0350  0.2960  0.4433
10941TIP3    H132745   8.516   4.549   6.178  0.5868  1.1901  1.0861
10941TIP3    H232746   8.580   4.524   6.043 -2.7655 -1.0606 -0.2334
10942TIP3   OH232747   8.723   5.012   1.549  0.2437  0.0489  0.2973
10942TIP3    H132748   8.649   4.951   1.556  1.9872 -2.0396  2.1726
10942TIP3    H232749   8.702   5.083   1.610 -0.0032 -0.8272  1.2691
10943TIP3   OH232750   6.791   5.288   1.622  0.1024  0.8141  0.0279
10943TIP3    H132751   6.715   5.325   1.668 -0.7579 -0.0017 -0.6936
10943TIP3    H232752   6.853   5.265   1.691 -0.8510  0.3141  0.7297
10944TIP3   OH232753   2.927   4.465   3.431  0.7350  0.0041 -0.0545
10944TIP3    H132754   3.006   4.482   3.381  0.6904 -0.4759 -0.2957
10944TIP3    H232755   2.941   4.379   3.471  0.3234 -0.1023 -0.1269
10945TIP3   OH232756   8.153   2.847   5.977 -0.0853 -0.3131 -0.2076
10945TIP3    H132757   8.185   2.805   5.897 -0.6091 -0.8348 -0.1426
10945TIP3    H232758   8.065   2.813   5.989  0.3269 -0.9804  1.1181
10946TIP3   OH232759   6.298   6.810   1.369 -0.1365 -0.1934 -0.0221
10946TIP3    H132760   6.238   6.878   1.338  0.4376  0.5057  0.3649
10946TIP3    H232761   6.381   6.856   1.383  0.9178 -1.4055 -1.8798
10947TIP3   OH232762   0.585   3.639   4.099 -0.0837 -0.9211  0.3574
10947TIP3    H132763   0.646   3.643   4.026  0.2051  0.6264  0.6471
10947TIP3    H232764   0.627   3.579   4.162  1.0810 -0.0225  0.4760
10948TIP3   OH232765   6.340   0.128   3.374 -0.5692 -0.2250 -0.1399
10948TIP3    H132766   6.298   0.146   3.458 -0.3732 -0.1980 -0.0478
10948TIP3    H232767   6.271   0.144   3.309 -0.1488  1.8748 -0.1560
10949TIP3   OH232768   7.979   3.109   3.058 -0.1864  0.4798  0.0579
10949TIP3    H132769   8.019   3.195   3.049  0.9847 -0.0401  0.1207
10949TIP3    H232770   7.976   3.074   2.970  1.3491 -0.2680  0.2692
10950TIP3   OH232771   7.588   0.386   6.642 -0.6268 -0.2550 -0.7535
10950TIP3    H132772   7.510   0.412   6.593 -1.3753 -0.6678  0.1859
10950TIP3    H232773   7.660   0.427   6.596 -1.4254  0.3224 -1.5148
10951TIP3   OH232774   0.381   4.893   3.475  0.4777 -0.1695 -0.0876
10951TIP3    H132775   0.454   4.913   3.533  0.9682 -1.3919 -0.2422
10951TIP3    H232776   0.319   4.964   3.488  1.6179  0.8004  0.1840
10952TIP3   OH232777   6.310   4.842   2.249 -0.0641  0.9001 -0.0307
10952TIP3    H132778   6.281   4.865   2.160 -0.1581 -1.6911 -0.7538
10952TIP3    H232779   6.401   4.816   2.238 -0.1723  0.2564  0.5615
10953TIP3   OH232780   2.677   5.793   3.405 -0.5337 -0.2602 -0.1065
10953TIP3    H132781   2.771   5.802   3.395 -0.2516 -1.9996  0.5453
10953TIP3    H232782   2.655   5.714   3.354 -1.7223  0.4135 -0.6775
10954TIP3   OH232783   3.737   5.334   5.801 -0.3166 -0.5149 -0.1763
10954TIP3    H132784   3.770   5.403   5.857 -0.6465 -0.8077  0.3848
10954TIP3    H232785   3.701   5.269   5.861 -0.0059 -1.1767 -0.6890
10955TIP3   OH232786   1.378   7.236   5.871 -0.4454 -0.3228 -0.3415
10955TIP3    H132787   1.296   7.280   5.894  0.0275  0.2432  0.3376
10955TIP3    H232788   1.445   7.288   5.916  0.2834 -0.7572 -0.9186
10956TIP3   OH232789   3.333   4.455   0.488 -0.3378 -0.8441  0.6763
10956TIP3    H132790   3.379   4.433   0.570  0.8205 -1.0019  0.0072
10956TIP3    H232791   3.385   4.413   0.420 -1.6141 -1.1988 -0.1105
10957TIP3   OH232792   2.909   7.162   6.680 -0.0756  0.0083 -0.4719
10957TIP3    H132793   3.000   7.145   6.655  0.3319 -0.9303  1.4238
10957TIP3    H232794   2.875   7.076   6.707 -1.0228  0.6062  0.3166
10958TIP3   OH232795   7.494   1.976   2.431  0.5869 -0.3376 -0.1680
10958TIP3    H132796   7.429   2.047   2.431 -0.0539 -0.9082 -0.7431
10958TIP3    H232797   7.578   2.020   2.446  0.1586  0.4994 -0.1697
10959TIP3   OH232798   6.070   0.441   3.173  0.3262  0.0222  0.4771
10959TIP3    H132799   6.119   0.453   3.092 -2.6760 -4.1630 -2.3917
10959TIP3    H232800   6.008   0.514   3.175 -0.4321 -0.4779 -1.8591
10960TIP3   OH232801   5.079   2.426   7.006 -0.2431 -0.4184  0.4502
10960TIP3    H132802   5.149   2.437   7.071 -0.7844 -0.9438  1.1375
10960TIP3    H232803   5.017   2.496   7.025  0.6485  0.8089 -0.9359
10961TIP3   OH232804   4.386   0.991   6.723  0.5140 -0.4148  0.1034
10961TIP3    H132805   4.433   1.066   6.759 -0.3715  0.2637 -0.1201
10961TIP3    H232806   4.420   0.984   6.633 -1.6534  1.7828 -1.0176
10962TIP3   OH232807   3.373   6.318   6.123 -0.1022  0.2759  0.6487
10962TIP3    H132808   3.466   6.296   6.131 -0.4719 -0.9028  2.2128
10962TIP3    H232809   3.345   6.274   6.043  1.0442  2.1413 -0.8528
10963TIP3   OH232810   0.795   2.084   3.854  0.5962 -0.4569 -0.5750
10963TIP3    H132811   0.703   2.079   3.828  0.0443  1.8183  0.7138
10963TIP3    H232812   0.812   2.177   3.867  2.9008 -0.8840 -0.0796
10964TIP3   OH232813   0.279   5.834   3.031  0.5972  0.3592 -0.3519
10964TIP3    H132814   0.284   5.775   2.955 -0.6295 -1.3018  0.7994
10964TIP3    H232815   0.317   5.784   3.103 -2.3025  0.0801  1.1236
10965TIP3   OH232816   5.560   7.692   6.514 -0.2051  0.1766 -0.3867
10965TIP3    H132817   5.530   7.721   6.601 -0.4464  1.1881 -0.7933
10965TIP3    H232818   5.492   7.723   6.454  0.4764  0.4064 -1.0509
10966TIP3   OH232819   4.231   5.058   6.234 -0.7751  0.6308  0.3522
10966TIP3    H132820   4.312   5.088   6.193 -1.2086  0.7109 -0.4542
10966TIP3    H232821   4.255   4.975   6.275 -0.4278  0.3497 -0.4036
10967TIP3   OH232822   6.511   0.673   4.833 -0.1945 -0.1156  0.3070
10967TIP3    H132823   6.461   0.601   4.871 -0.1959  0.5154  1.5479
10967TIP3    H232824   6.583   0.630   4.787 -0.4685 -0.9326  0.6245
10968TIP3   OH232825   5.347   5.176   0.570 -0.2375 -0.0462  0.3691
10968TIP3    H132826   5.423   5.146   0.519 -0.3545  1.1296 -0.5333
10968TIP3    H232827   5.383   5.195   0.657  0.5159  0.5311 -0.0606
10969TIP3   OH232828   3.875   1.999   0.389 -0.1312  0.3501 -0.0839
10969TIP3    H132829   3.936   1.998   0.463 -0.7766 -0.6513  0.4578
10969TIP3    H232830   3.826   2.080   0.399  1.0126  1.1185 -0.4658
10970TIP3   OH232831   3.914   4.375   0.795 -0.1869 -0.2638  0.1599
10970TIP3    H132832   3.895   4.378   0.888 -0.5328 -0.5311  0.1035
10970TIP3    H232833   3.861   4.446   0.757  0.3456  0.1717  0.2301
10971TIP3   OH232834   5.075   6.398   4.766  0.0328 -0.2108 -0.0750
10971TIP3    H132835   5.095   6.306   4.779 -0.9577 -0.3342  0.6719
10971TIP3    H232836   5.001   6.416   4.825 -0.0879  0.9399 -0.5394
10972TIP3   OH232837   2.447   0.125   2.992 -0.4945  0.1111 -0.3615
10972TIP3    H132838   2.417   0.215   3.004 -0.3415  0.4143 -2.0339
10972TIP3    H232839   2.411   0.098   2.907 -1.5977 -1.8748  0.6648
10973TIP3   OH232840   7.255   1.922   1.539 -0.3484  0.0009  0.0427
10973TIP3    H132841   7.265   1.990   1.607 -0.9893 -2.1303  2.4418
10973TIP3    H232842   7.162   1.902   1.539 -0.0741 -1.3696 -0.0431
10974TIP3   OH232843   8.324   8.134   1.499 -0.0939  0.2414  0.1923
10974TIP3    H132844   8.420   8.143   1.494 -0.0790  0.2280  0.4196
10974TIP3    H232845   8.304   8.144   1.592 -0.2860 -0.0392  0.1806
10975TIP3   OH232846   5.317   3.833   4.836 -0.3381 -0.2536 -0.0004
10975TIP3    H132847   5.222   3.847   4.838 -0.0450  2.8830 -1.8363
10975TIP3    H232848   5.350   3.882   4.911 -0.0033  1.2318 -1.0768
10976TIP3   OH232849   8.593   5.510   3.581  0.3126  0.0444 -0.0350
10976TIP3    H132850   8.508   5.466   3.575  0.3427 -0.0292  0.0946
10976TIP3    H232851   8.582   5.590   3.530  0.0111  0.2816  0.3990
10977TIP3   OH232852   3.830   6.094   1.575  0.4838  0.0912  0.2062
10977TIP3    H132853   3.786   6.059   1.653  0.4591 -0.4048 -0.0295
10977TIP3    H232854   3.768   6.158   1.540  1.1561  1.4975  1.4827
10978TIP3   OH232855   8.371   4.145   0.823  0.0373 -0.3966 -0.3641
10978TIP3    H132856   8.341   4.066   0.778 -1.3688 -0.1019  0.0119
10978TIP3    H232857   8.457   4.122   0.857 -0.7265 -2.0757  0.5312
10979TIP3   OH232858   3.618   5.319   6.529  0.4846  0.7235 -0.4213
10979TIP3    H132859   3.619   5.257   6.602 -0.0859  0.6253 -0.4964
10979TIP3    H232860   3.527   5.321   6.500  0.6105  1.1595 -0.7951
10980TIP3   OH232861   7.428   6.711   3.867 -0.2178 -0.0084  0.0150
10980TIP3    H132862   7.374   6.789   3.881 -1.5999 -0.6754 -1.2347
10980TIP3    H232863   7.367   6.647   3.829  1.1099 -1.3575  0.0717
10981TIP3   OH232864   4.591   0.823   4.845 -0.4068  0.3503  0.6293
10981TIP3    H132865   4.643   0.863   4.775 -1.4751  1.5106  0.4551
10981TIP3    H232866   4.593   0.887   4.916 -0.9198  0.0440  0.9230
10982TIP3   OH232867   6.900   2.304   6.575 -0.3269  0.4177 -0.1230
10982TIP3    H132868   6.830   2.240   6.562 -0.3860  0.4452  0.0504
10982TIP3    H232869   6.921   2.296   6.668  0.1038  0.2013 -0.2395
10983TIP3   OH232870   7.745   2.138   6.024  0.1295 -0.3800 -0.4774
10983TIP3    H132871   7.812   2.205   6.038  0.2061 -0.5299 -0.1058
10983TIP3    H232872   7.699   2.166   5.945  0.2539  0.0334 -0.4066
10984TIP3   OH232873   2.943   1.855   4.940  0.0587  0.0825 -0.1153
10984TIP3    H132874   2.962   1.834   4.848  0.8238  1.0330 -0.1939
10984TIP3    H232875   2.850   1.837   4.950  0.1746 -1.0255 -0.7918
10985TIP3   OH232876   6.609   5.745   0.287 -0.3729  0.1161 -0.4058
10985TIP3    H132877   6.649   5.662   0.315 -0.3356 -0.0816 -1.0228
10985TIP3    H232878   6.659   5.770   0.209 -1.9872 -0.5725 -1.7026
10986TIP3   OH232879   4.735   1.531   4.363 -0.2756 -0.5193  0.7614
10986TIP3    H132880   4.656   1.576   4.332  0.2796  0.6822  1.0163
10986TIP3    H232881   4.751   1.463   4.299 -0.9758 -0.1518  0.1826
10987TIP3   OH232882   5.214   4.667   3.161  0.3421 -0.6107 -0.1442
10987TIP3    H132883   5.304   4.634   3.155  0.0549 -1.6157  0.6865
10987TIP3    H232884   5.223   4.756   3.194  0.9500 -1.7561  3.1378
10988TIP3   OH232885   4.745   0.797   3.722 -0.3578  0.0618  0.3557
10988TIP3    H132886   4.803   0.781   3.648 -1.6863 -0.0736 -0.6743
10988TIP3    H232887   4.800   0.844   3.785  1.0808 -0.7209 -0.2644
10989TIP3   OH232888   0.552   0.506   2.472 -0.4040 -0.3930  0.1596
10989TIP3    H132889   0.508   0.573   2.525  0.1359  1.1170 -1.1956
10989TIP3    H232890   0.645   0.521   2.488 -0.2873 -2.3436  1.5699
10990TIP3   OH232891   2.876   4.568   5.344 -0.0589  0.4401  0.0620
10990TIP3    H132892   2.824   4.606   5.415  0.4407 -0.6260  1.0422
10990TIP3    H232893   2.898   4.480   5.375 -0.7428 -0.4783 -1.8952
10991TIP3   OH232894   0.303   0.243   4.539  0.3186 -0.3283  0.0095
10991TIP3    H132895   0.331   0.275   4.624  1.3272 -0.2379 -0.3472
10991TIP3    H232896   0.242   0.172   4.559  2.1440 -1.7379  0.8561
10992TIP3   OH232897   8.386   3.891   3.313 -0.3633 -0.1860  0.4426
10992TIP3    H132898   8.364   3.801   3.289 -0.7333 -0.2825  1.1210
10992TIP3    H232899   8.404   3.888   3.407  0.0809  0.3635  0.3822
10993TIP3   OH232900   2.196   0.968   2.755  0.1085  0.7168  0.5175
10993TIP3    H132901   2.263   1.023   2.714  1.1199 -0.1439  0.9771
10993TIP3    H232902   2.167   1.019   2.831  1.2262  0.5465  1.0904
10994TIP3   OH232903   4.387   5.841   6.129  0.4488  0.2175  0.4576
10994TIP3    H132904   4.378   5.745   6.123  1.3232  0.2010 -0.8043
10994TIP3    H232905   4.332   5.874   6.058  0.3081  0.6487  0.7689
10995TIP3   OH232906   1.197   0.505   0.306  0.0516  0.2361 -0.4273
10995TIP3    H132907   1.134   0.518   0.235  1.3999  3.3404 -1.2073
10995TIP3    H232908   1.259   0.442   0.272 -0.2247  0.4608 -1.3757
10996TIP3   OH232909   1.931   5.957   3.224 -0.2317  0.3028  1.1347
10996TIP3    H132910   1.980   5.880   3.196  0.4267  1.6070 -1.6176
10996TIP3    H232911   1.842   5.925   3.240  0.0260 -1.0332  0.0254
10997TIP3   OH232912   0.891   7.830   1.370 -0.7719  0.9683  0.0426
10997TIP3    H132913   0.932   7.913   1.347  0.8930 -0.0063 -0.6961
10997TIP3    H232914   0.921   7.769   1.302 -2.4316 -0.1141  0.2190
10998TIP3   OH232915   0.640   2.832   6.711  0.7830 -0.3727  0.0776
10998TIP3    H132916   0.697   2.865   6.781 -0.3573  1.1733  0.3164
10998TIP3    H232917   0.560   2.884   6.718 -0.6574 -2.4215 -0.3112
10999TIP3   OH232918   2.080   6.015   4.153  0.2813  0.0088 -0.0712
10999TIP3    H132919   2.147   5.967   4.202 -0.2311  0.7433  1.4281
10999TIP3    H232920   2.099   6.107   4.172 -1.5466  0.2141  1.0028
11000TIP3   OH232921   5.951   6.456   2.591 -0.2415 -0.1369 -0.1784
11000TIP3    H132922   5.933   6.495   2.677  2.8447  0.7626  0.1807
11000TIP3    H232923   5.916   6.518   2.528 -0.7777  0.1857  0.4329
11001TIP3   OH232924   5.629   5.109   5.866 -0.2239  0.5786  0.4823
11001TIP3    H132925   5.592   5.022   5.857 -0.8235  0.8964 -0.1518
11001TIP3    H232926   5.586   5.146   5.943 -0.4350  0.5513  0.3770
11002TIP3   OH232927   0.813   0.950   0.008 -0.3153  0.0824  0.2095
11002TIP3    H132928   0.872   1.021   0.033 -1.2907  0.7161  0.7672
11002TIP3    H232929   0.727   0.992  -0.002 -0.8186 -0.9322  0.0946
11003TIP3   OH232930   2.000   1.620   7.108  0.2105  0.9068 -0.2741
11003TIP3    H132931   1.918   1.589   7.071 -0.6465  2.4118  0.2724
11003TIP3    H232932   2.011   1.709   7.073  0.7971  1.3060  0.8636
11004TIP3   OH232933   4.549   3.506   5.771 -0.1398  0.1741 -0.3164
11004TIP3    H132934   4.616   3.473   5.711  0.1033  0.8660 -0.4311
11004TIP3    H232935   4.567   3.462   5.854 -0.5230 -0.8479 -0.7526
11005TIP3   OH232936   2.953   3.228   5.355  0.1564 -0.1688  0.5836
11005TIP3    H132937   2.934   3.258   5.444 -0.5714  1.2971 -0.0311
11005TIP3    H232938   3.047   3.239   5.346  0.0388  1.1167  0.7009
11006TIP3   OH232939   2.409   6.715   0.688 -0.5396 -0.3503 -0.2476
11006TIP3    H132940   2.499   6.718   0.654 -0.0758 -0.1153  0.9626
11006TIP3    H232941   2.417   6.673   0.773 -1.2512  1.5878  0.8361
11007TIP3   OH232942   5.658   4.401   4.885 -0.1313 -0.6372  0.1214
11007TIP3    H132943   5.672   4.368   4.974 -1.3122  2.7756  1.7174
11007TIP3    H232944   5.663   4.496   4.893  1.2521 -0.1895 -3.7957
11008TIP3   OH232945   7.521   4.682   2.409 -0.5770  0.1824  0.7058
11008TIP3    H132946   7.517   4.760   2.354 -2.1001  0.8971  1.7505
11008TIP3    H232947   7.440   4.634   2.388  0.2759 -1.0737  0.1705
11009TIP3   OH232948   1.216   5.960   1.078 -0.5238  0.3455  0.0741
11009TIP3    H132949   1.175   5.947   0.992  2.8796  1.5677 -1.9243
11009TIP3    H232950   1.171   6.035   1.116 -0.7938  1.0509 -1.5726
11010TIP3   OH232951   1.108   1.959   2.460 -0.2136 -0.5919 -0.2249
11010TIP3    H132952   1.107   2.011   2.540  0.2703 -0.8786 -0.0297
11010TIP3    H232953   1.131   2.021   2.391  0.9501 -0.6491  0.0885
11011TIP3   OH232954   7.031   2.425   3.525 -0.1552 -0.3870  0.1129
11011TIP3    H132955   7.090   2.353   3.500  0.7921  0.5960 -0.5547
11011TIP3    H232956   7.038   2.430   3.620  0.0595 -0.9228  0.1323
11012TIP3   OH232957   4.135   3.976   1.648  0.0380 -0.4630 -0.0819
11012TIP3    H132958   4.130   4.065   1.613 -2.9362  0.2534  1.7735
11012TIP3    H232959   4.086   3.923   1.586  1.0762 -0.6696 -0.7428
11013TIP3   OH232960   1.582   3.480   6.011 -0.3604 -0.6578 -0.2351
11013TIP3    H132961   1.671   3.511   6.029  0.3480 -0.6337 -3.2638
11013TIP3    H232962   1.573   3.400   6.062  1.2150 -0.4185  0.4680
11014TIP3   OH232963   2.610   5.324   1.853  0.2271 -0.1119 -0.1841
11014TIP3    H132964   2.607   5.420   1.856  2.0713  0.1816 -3.5396
11014TIP3    H232965   2.663   5.300   1.929 -1.9836  1.2357  1.9613
11015TIP3   OH232966   2.855   2.181   6.505  0.3449 -0.2735  0.3624
11015TIP3    H132967   2.939   2.170   6.550  1.0977  2.0209 -0.3356
11015TIP3    H232968   2.877   2.184   6.412 -0.6299 -0.4581  0.1092
11016TIP3   OH232969   2.252   4.221   3.313  0.3027  1.1085  0.6623
11016TIP3    H132970   2.161   4.245   3.300 -0.0445 -0.0699  0.8016
11016TIP3    H232971   2.281   4.276   3.387 -0.5990  0.7702  1.2836
11017TIP3   OH232972   8.222   6.376   3.910 -0.3774 -0.0827  0.1868
11017TIP3    H132973   8.183   6.459   3.884 -1.0868 -0.5585 -0.3017
11017TIP3    H232974   8.155   6.310   3.891  0.7307 -0.9534 -0.9152
11018TIP3   OH232975   7.780   1.654   1.544 -0.2420 -0.2810 -0.5608
11018TIP3    H132976   7.728   1.635   1.466  1.1700  1.3314 -1.9791
11018TIP3    H232977   7.786   1.749   1.547  1.5714 -0.3720  0.2382
11019TIP3   OH232978   0.718   4.806   6.101 -1.0206  0.0233 -0.1631
11019TIP3    H132979   0.774   4.798   6.178  0.1420 -3.1289 -1.1881
11019TIP3    H232980   0.723   4.898   6.077  0.2814  0.6596  2.2519
11020TIP3   OH232981   0.158   0.718   4.019  0.1914  0.2052  0.0881
11020TIP3    H132982   0.095   0.760   3.960 -0.3396  1.4415  1.4629
11020TIP3    H232983   0.113   0.640   4.051 -0.7006  1.0513  1.0186
11021TIP3   OH232984   1.590   8.040   6.861  0.2110  0.2539 -0.2408
11021TIP3    H132985   1.638   8.110   6.904  0.4884  1.0155 -1.7353
11021TIP3    H232986   1.528   8.085   6.803 -1.1980 -0.7248  0.4296
11022TIP3   OH232987   4.006   1.341   6.438 -0.0143 -0.0869  0.0365
11022TIP3    H132988   3.923   1.383   6.415 -0.4255 -0.9150 -0.0520
11022TIP3    H232989   4.059   1.411   6.476 -0.3819  0.6785 -0.8198
11023TIP3   OH232990   6.349   3.972   1.001 -0.3302 -0.0196 -0.3154
11023TIP3    H132991   6.294   4.048   0.986 -0.4094 -0.0941 -0.4080
11023TIP3    H232992   6.437   4.007   1.016 -0.7824  0.2494  2.0399
11024TIP3   OH232993   5.847   4.972   3.396 -0.6423  0.1954  0.1134
11024TIP3    H132994   5.881   4.958   3.307  0.2134 -0.8231  0.5751
11024TIP3    H232995   5.925   4.975   3.451 -1.2010  0.0038  0.9372
11025TIP3   OH232996   2.520   1.404   7.066 -0.1811  0.1483 -0.1094
11025TIP3    H132997   2.497   1.327   7.015 -1.6117 -0.3736  1.2567
11025TIP3    H232998   2.472   1.394   7.148 -1.6563  3.2027 -0.4417
11026TIP3   OH232999   3.631   2.021   6.586  0.0468 -0.3374 -0.2037
11026TIP3    H133000   3.556   1.968   6.612  0.7045 -1.2161 -0.0390
11026TIP3    H233001   3.604   2.063   6.505 -0.5156 -0.9009 -0.3175
11027TIP3   OH233002   0.734   4.265   2.627  0.2329 -0.2700 -0.2431
11027TIP3    H133003   0.657   4.318   2.647  0.2167 -0.8451  1.3866
11027TIP3    H233004   0.808   4.325   2.640  0.2558 -0.7461  2.2622
11028TIP3   OH233005   0.165   7.146   3.194  0.2959  0.2866 -0.6100
11028TIP3    H133006   0.219   7.223   3.176 -0.2635  0.8301 -0.0099
11028TIP3    H233007   0.225   7.072   3.186  1.7162  0.9916  2.1738
11029TIP3   OH233008   2.828   3.591   5.740  0.5601  0.5577  0.4553
11029TIP3    H133009   2.790   3.606   5.654 -0.9172  1.7243  1.2635
11029TIP3    H233010   2.827   3.677   5.782 -0.0629 -0.2221  2.1374
11030TIP3   OH233011   5.425   1.124   4.099  0.1698 -0.3185 -0.3411
11030TIP3    H133012   5.432   1.045   4.153 -2.2883 -1.1989 -1.1679
11030TIP3    H233013   5.369   1.183   4.151  0.4862  0.1441 -0.5224
11031TIP3   OH233014   0.931   6.878   2.655  0.0020  0.1838 -0.3741
11031TIP3    H133015   0.854   6.877   2.712  1.0553 -3.1842  1.2726
11031TIP3    H233016   0.980   6.956   2.683 -1.3380  0.6979  0.6646
11032TIP3   OH233017   6.332   1.546   6.122 -0.7871  0.0708 -0.1586
11032TIP3    H133018   6.246   1.513   6.148 -1.1737  2.2532  1.6082
11032TIP3    H233019   6.393   1.479   6.153 -1.7942 -1.9400 -2.1835
11033TIP3   OH233020   5.981   0.266   4.468 -0.0857 -0.3230 -0.1953
11033TIP3    H133021   5.981   0.180   4.509  1.0692 -0.1216  0.2434
11033TIP3    H233022   5.996   0.328   4.539 -1.4757  0.3194 -0.4072
11034TIP3   OH233023   5.727   8.058   1.090 -0.5879 -0.3084  0.2329
11034TIP3    H133024   5.701   7.987   1.031 -1.4897  0.3334 -0.1671
11034TIP3    H233025   5.791   8.018   1.149 -0.1029 -1.1211 -0.8063
11035TIP3   OH233026   6.108   4.976   4.850  0.6372  0.5141 -0.4685
11035TIP3    H133027   6.069   4.971   4.763  1.4232  0.7140 -0.8430
11035TIP3    H233028   6.163   5.054   4.848  2.5256 -0.7326 -0.6108
11036TIP3   OH233029   0.930   5.497   5.781  0.2339  0.3347 -1.0167
11036TIP3    H133030   0.955   5.414   5.822 -0.3464  0.2528 -0.8221
11036TIP3    H233031   0.863   5.533   5.838  0.3182  0.8336 -1.2241
11037TIP3   OH233032   0.582   5.024   5.266 -0.4121  0.0796  0.1626
11037TIP3    H133033   0.625   5.107   5.245  1.9128 -0.9176  0.5790
11037TIP3    H233034   0.532   5.002   5.188 -0.8597  1.7064 -0.0579
11038TIP3   OH233035   1.471   1.939   5.905  0.2556 -0.2456 -0.2859
11038TIP3    H133036   1.421   1.992   5.843  0.5945  2.0692  1.2823
11038TIP3    H233037   1.415   1.935   5.983  1.3987  0.2110  0.5894
11039TIP3   OH233038   8.122   5.279   2.877  0.3466 -0.0973  0.5131
11039TIP3    H133039   8.075   5.329   2.810 -1.3364 -0.0335  1.6772
11039TIP3    H233040   8.186   5.341   2.912  0.8261  0.0561 -0.6086
11040TIP3   OH233041   8.023   5.493   1.037  0.0471  0.7661 -0.0646
11040TIP3    H133042   8.040   5.514   1.129 -0.3638  1.0654 -0.0497
11040TIP3    H233043   8.102   5.519   0.991 -0.0851  1.4724  0.0898
11041TIP3   OH233044   5.025   1.542   4.834 -0.1059 -0.3779  0.8135
11041TIP3    H133045   4.984   1.560   4.749 -1.0832 -2.1462  0.8747
11041TIP3    H233046   5.118   1.562   4.820 -0.4761  0.7778 -0.2180
11042TIP3   OH233047   4.120   8.089   5.677 -0.1285 -0.3003  0.1006
11042TIP3    H133048   4.172   8.068   5.599  1.1261 -0.6985  1.0048
11042TIP3    H233049   4.181   8.138   5.733 -0.5296 -1.2868  1.4477
11043TIP3   OH233050   2.228   8.015   5.671 -0.3957 -0.2614 -0.1512
11043TIP3    H133051   2.162   8.026   5.603  2.2758  1.8916 -2.6552
11043TIP3    H233052   2.305   7.984   5.625  1.4605  0.9013  1.9704
11044TIP3   OH233053   4.376   0.224   3.665  0.3502  0.0825 -0.0993
11044TIP3    H133054   4.469   0.243   3.659  0.7936 -0.2764  3.2676
11044TIP3    H233055   4.346   0.215   3.575  3.3078  1.3302 -1.3060
11045TIP3   OH233056   2.008   5.830   0.295 -0.4525  0.5210  0.4266
11045TIP3    H133057   2.010   5.835   0.391 -0.1650 -0.9775  0.5275
11045TIP3    H233058   1.989   5.919   0.267 -1.4956  0.8103  1.9074
11046TIP3   OH233059   8.237   1.679   5.489  0.0947  0.0181  0.8113
11046TIP3    H133060   8.262   1.763   5.450  1.1539 -1.5175 -2.1187
11046TIP3    H233061   8.320   1.634   5.504 -0.5093 -1.3253  0.2726
11047TIP3   OH233062   8.295   2.875   1.162 -0.3457  0.0557 -0.0462
11047TIP3    H133063   8.335   2.957   1.193 -0.5476 -0.1408  0.7657
11047TIP3    H233064   8.341   2.855   1.081  0.7526  0.1913  0.5259
11048TIP3   OH233065   7.099   2.044   6.403  0.1436  0.3843  0.0239
11048TIP3    H133066   7.127   2.035   6.494  1.5806 -1.2594 -0.5215
11048TIP3    H233067   7.157   2.111   6.367  1.4888 -0.9347 -0.3518
11049TIP3   OH233068   8.334   6.385   1.317  0.3173 -0.4304 -0.3033
11049TIP3    H133069   8.289   6.314   1.363  0.9220 -1.1898 -0.8490
11049TIP3    H233070   8.418   6.346   1.290  1.0192  0.7427  0.1063
11050TIP3   OH233071   5.689   4.512   0.647 -0.4565  0.3334  0.0812
11050TIP3    H133072   5.670   4.515   0.740  0.4968 -1.5904  0.3744
11050TIP3    H233073   5.754   4.581   0.634  0.4322 -0.2837  1.1153
11051TIP3   OH233074   3.476   0.274   3.450  0.2181 -0.0732 -0.2888
11051TIP3    H133075   3.415   0.254   3.379  1.0963  0.0813 -1.1156
11051TIP3    H233076   3.464   0.368   3.467 -0.0342 -0.1227 -0.1930
11052TIP3   OH233077   4.285   3.547   1.354 -0.3847 -0.4839 -0.0448
11052TIP3    H133078   4.228   3.481   1.313 -2.1783  0.4740  0.8175
11052TIP3    H233079   4.226   3.619   1.376  0.6109 -0.5565  3.3753
11053TIP3   OH233080   3.879   7.661   5.053  0.0162  0.1707  0.3385
11053TIP3    H133081   3.808   7.723   5.038  0.2034  0.2119 -0.4020
11053TIP3    H233082   3.917   7.646   4.967  1.2501  0.5525  0.7854
11054TIP3   OH233083   3.974   5.173   5.477  0.1544  0.1907 -0.1196
11054TIP3    H133084   4.020   5.206   5.554  0.8303 -1.0856  0.0578
11054TIP3    H233085   4.043   5.138   5.421 -0.3349  1.0689 -1.3101
11055TIP3   OH233086   4.202   2.572   2.954  0.8009 -0.0830  0.7063
11055TIP3    H133087   4.140   2.606   3.018 -0.1791  1.4371 -0.9827
11055TIP3    H233088   4.287   2.608   2.982  0.5146 -0.0197  1.5264
11056TIP3   OH233089   3.329   5.912   2.681  0.6127 -0.1262  0.0922
11056TIP3    H133090   3.324   5.969   2.604 -1.4915 -1.5143 -0.8754
11056TIP3    H233091   3.238   5.898   2.708  1.0326 -2.7503  0.4688
11057TIP3   OH233092   2.903   7.075   4.048 -0.1132  0.4414  0.1657
11057TIP3    H133093   2.968   7.146   4.040  0.2004  0.0609 -0.9617
11057TIP3    H233094   2.820   7.117   4.024 -0.2287  0.8339  1.2161
11058TIP3   OH233095   4.594   3.424   4.002  0.3092  0.0818  0.6068
11058TIP3    H133096   4.559   3.429   3.913  1.0695  0.4492  0.3229
11058TIP3    H233097   4.595   3.514   4.032 -1.0948 -0.1529  1.4599
11059TIP3   OH233098   2.541   3.433   4.147  0.8475  0.6741  0.2973
11059TIP3    H133099   2.598   3.506   4.168  0.2789  1.5000 -0.8822
11059TIP3    H233100   2.571   3.402   4.062 -0.1391  0.8128 -0.1184
11060TIP3   OH233101   5.670   5.498   0.740 -0.0437 -0.5984  0.0263
11060TIP3    H133102   5.610   5.424   0.752 -1.6332  0.5289 -0.5760
11060TIP3    H233103   5.632   5.548   0.667  0.9219  0.8431  0.4729
11061TIP3   OH233104   2.567   7.202   3.448 -0.0744  0.3920 -0.2002
11061TIP3    H133105   2.584   7.272   3.385  1.3941  0.1657 -0.1037
11061TIP3    H233106   2.628   7.132   3.422 -1.0441 -0.5891  0.1095
11062TIP3   OH233107   2.370   7.931   2.050 -0.4975 -0.2768 -0.4545
11062TIP3    H133108   2.457   7.921   2.012 -1.3278 -1.0981 -2.2639
11062TIP3    H233109   2.322   7.984   1.987 -1.4460 -0.2235  0.2940
11063TIP3   OH233110   2.305   7.506   2.842  0.1422 -0.2094  0.2777
11063TIP3    H133111   2.326   7.472   2.930  0.6532  0.3217  0.3688
11063TIP3    H233112   2.305   7.601   2.853 -2.4545 -0.1504  0.2831
11064TIP3   OH233113   6.391   1.144   4.625  0.7521  0.0790 -0.5003
11064TIP3    H133114   6.372   1.068   4.679  0.6513 -0.8103 -1.7543
11064TIP3    H233115   6.308   1.166   4.583 -0.0322  2.8716  2.2192
11065TIP3   OH233116   4.852   4.848   0.019 -0.4068  0.6881  0.3501
11065TIP3    H133117   4.785   4.796   0.063  0.0731 -0.5152 -0.2968
11065TIP3    H233118   4.825   4.939   0.033 -2.0246  0.2447  0.3316
11066TIP3   OH233119   5.229   1.423   5.511  0.6926  0.6016  0.1707
11066TIP3    H133120   5.241   1.445   5.419  0.5756 -1.6104 -0.4300
11066TIP3    H233121   5.146   1.375   5.514  1.3402 -0.5105  1.1936
11067TIP3   OH233122   5.769   2.252   2.185  0.2122 -0.2289 -0.4705
11067TIP3    H133123   5.853   2.243   2.229  0.7784  1.6454 -1.0870
11067TIP3    H233124   5.783   2.211   2.099  0.5611  0.2344 -0.6380
11068TIP3   OH233125   4.913   5.589   1.078 -0.0714 -0.0071  0.2572
11068TIP3    H133126   4.975   5.663   1.075 -0.3603  0.2190 -0.2439
11068TIP3    H233127   4.963   5.515   1.043  0.4978 -0.2669  1.5613
11069TIP3   OH233128   4.281   6.872   6.911  0.0203 -0.1416  0.2864
11069TIP3    H133129   4.220   6.943   6.931  2.2374  1.4500  1.9588
11069TIP3    H233130   4.280   6.818   6.990  0.4815 -0.3060  0.1822
11070TIP3   OH233131   1.814   5.838   5.036  0.3170 -0.0352 -0.0726
11070TIP3    H133132   1.855   5.752   5.027 -0.9027 -0.7514  0.8781
11070TIP3    H233133   1.887   5.898   5.045  1.2616 -0.7453 -2.1779
11071TIP3   OH233134   8.520   5.968   6.018 -0.2548 -0.3209 -0.7242
11071TIP3    H133135   8.454   6.029   6.050 -0.0998  0.6989 -2.2569
11071TIP3    H233136   8.537   5.910   6.093 -1.1935  0.8243  0.4275
11072TIP3   OH233137   5.754   7.827   3.715 -0.1571  0.1735  0.2637
11072TIP3    H133138   5.805   7.878   3.778  0.4365  1.4824 -1.2201
11072TIP3    H233139   5.679   7.882   3.694 -1.2526 -0.9538  1.0173
11073TIP3   OH233140   6.657   1.638   1.551  0.1805  0.5424  0.6381
11073TIP3    H133141   6.614   1.711   1.595 -3.0012 -0.9630  0.2789
11073TIP3    H233142   6.677   1.576   1.621 -0.2249  0.3255  0.5649
11074TIP3   OH233143   6.155   3.771   0.914  0.0043 -0.0247  0.0680
11074TIP3    H133144   6.196   3.841   0.966 -1.7787 -0.2738  1.9571
11074TIP3    H233145   6.220   3.701   0.912  0.0842 -0.0792  2.2187
11075TIP3   OH233146   1.753   1.699   1.490 -0.6726 -0.0195 -0.0145
11075TIP3    H133147   1.712   1.763   1.549 -0.8564 -0.8992  0.8393
11075TIP3    H233148   1.772   1.624   1.546  0.0066 -0.5227 -0.8949
11076TIP3   OH233149   3.192   0.194   2.378 -0.5774 -0.1854 -0.5217
11076TIP3    H133150   3.106   0.177   2.341 -0.2414 -2.2512 -0.4704
11076TIP3    H233151   3.199   0.133   2.452  1.1627 -0.5641 -0.9401
11077TIP3   OH233152   6.344   8.170   3.534  0.0559 -0.3600 -0.4276
11077TIP3    H133153   6.326   8.129   3.449  0.5388  2.5963 -2.0976
11077TIP3    H233154   6.435   8.148   3.553 -0.6271 -2.7046  0.4088
11078TIP3   OH233155   3.982   1.697   1.250 -0.1615 -0.2466  0.1216
11078TIP3    H133156   4.036   1.649   1.313  1.3642  0.2179 -0.7702
11078TIP3    H233157   3.935   1.761   1.302  3.0369  1.9415  0.6275
11079TIP3   OH233158   0.023   7.126   4.671 -0.2889  0.0461 -0.0521
11079TIP3    H133159   0.050   7.117   4.579  1.8321  0.0136  0.5274
11079TIP3    H233160  -0.017   7.042   4.693 -1.7842  0.4097 -1.2127
11080TIP3   OH233161   5.660   1.899   3.099 -0.4596  0.0161 -0.9387
11080TIP3    H133162   5.718   1.970   3.126  1.2829 -1.1770 -1.3076
11080TIP3    H233163   5.590   1.899   3.164  0.3349  1.1001 -0.0380
11081TIP3   OH233164   8.354   3.040   0.159 -0.0740  0.6612 -0.5277
11081TIP3    H133165   8.339   3.133   0.146 -0.0830  0.7780  0.2952
11081TIP3    H233166   8.392   3.033   0.247 -1.8094 -0.2622  0.2113
11082TIP3   OH233167   3.894   1.490   6.828  0.3352  0.1728 -0.2765
11082TIP3    H133168   3.926   1.484   6.918 -3.2328  1.7409  1.2899
11082TIP3    H233169   3.961   1.540   6.782  1.9466 -0.0699  1.6442
11083TIP3   OH233170   7.533   7.572   1.454 -0.0914  0.2619 -0.1518
11083TIP3    H133171   7.551   7.600   1.544 -1.4709 -0.4061  0.3630
11083TIP3    H233172   7.442   7.599   1.438  0.1705  0.4596 -1.3902
11084TIP3   OH233173   2.493   1.853   3.982  0.1422 -0.5123  0.3097
11084TIP3    H133174   2.477   1.859   4.076 -0.7652 -1.7406  0.2591
11084TIP3    H233175   2.578   1.895   3.969  0.4498 -0.6559  1.7229
11085TIP3   OH233176   5.752   6.551   2.816 -0.3236 -0.0685  0.2365
11085TIP3    H133177   5.670   6.572   2.771 -0.6080  0.3966  0.9517
11085TIP3    H233178   5.748   6.601   2.898 -0.6080 -2.2350  1.6132
11086TIP3   OH233179   7.688   0.461   0.898 -0.3467  0.4278 -0.7790
11086TIP3    H133180   7.721   0.525   0.960  0.1901  1.4034 -2.0356
11086TIP3    H233181   7.599   0.442   0.928 -0.1073  0.8863  0.2540
11087TIP3   OH233182   7.120   3.848   3.872 -0.2278 -0.4843 -0.3481
11087TIP3    H133183   7.133   3.801   3.954 -0.7109 -0.9369 -0.5256
11087TIP3    H233184   7.030   3.882   3.879  0.4285  1.2506  0.1965
11088TIP3   OH233185   4.302   4.676   6.164 -0.2160 -0.4944 -0.4132
11088TIP3    H133186   4.287   4.758   6.117 -0.6826 -0.3355 -0.0032
11088TIP3    H233187   4.332   4.704   6.251  2.1208 -0.8008 -1.0511
11089TIP3   OH233188   6.447   1.094   5.807 -0.6323  0.5426 -0.3401
11089TIP3    H133189   6.412   1.022   5.860  0.9440 -0.9354 -1.2399
11089TIP3    H233190   6.413   1.173   5.850 -0.6708 -0.6393  1.9604
11090TIP3   OH233191   3.798   5.157   1.161 -0.1791  0.0278  0.1553
11090TIP3    H133192   3.723   5.186   1.213  1.0946  0.9901  1.5413
11090TIP3    H233193   3.849   5.236   1.146  1.4741 -0.8734  0.8106
11091TIP3   OH233194   3.382   5.651   1.961  0.5566  0.2753 -0.2379
11091TIP3    H133195   3.313   5.586   1.954 -0.0704  0.5107  2.5394
11091TIP3    H233196   3.363   5.714   1.892 -3.0470  1.1625  1.3126
11092TIP3   OH233197   6.113   1.032   1.262  0.4588 -0.1421 -0.0546
11092TIP3    H133198   6.203   1.035   1.295  0.6248 -0.5904 -0.4675
11092TIP3    H233199   6.060   1.005   1.338  0.9195 -1.8210 -0.3054
11093TIP3   OH233200   6.321   6.203   3.930 -0.1892  0.4802 -0.0561
11093TIP3    H133201   6.237   6.158   3.923  0.0954 -0.2019  0.7814
11093TIP3    H233202   6.386   6.133   3.919  0.2707  0.9539 -0.3834
11094TIP3   OH233203   2.892   4.810   4.211  0.4396  0.2705 -0.4497
11094TIP3    H133204   2.832   4.816   4.285  0.5444  1.0314 -0.4201
11094TIP3    H233205   2.881   4.893   4.164  1.0281  0.1691 -0.7755
11095TIP3   OH233206   0.792   2.636   3.704 -0.0657  0.1779 -0.3373
11095TIP3    H133207   0.832   2.691   3.771  0.2832  0.8037 -1.0428
11095TIP3    H233208   0.836   2.661   3.623 -1.4975  0.4751 -1.0466
11096TIP3   OH233209   0.570   1.715   4.219  0.0620  0.0283 -0.3874
11096TIP3    H133210   0.532   1.803   4.212 -1.0512 -0.3610  0.5174
11096TIP3    H233211   0.664   1.731   4.233 -0.2435  1.1015  0.5778
11097TIP3   OH233212   4.129   2.858   3.436 -0.0456 -0.0156 -0.3387
11097TIP3    H133213   4.052   2.885   3.486 -0.5365  1.6487 -1.8680
11097TIP3    H233214   4.179   2.939   3.423  1.2754 -0.8338 -0.5169
11098TIP3   OH233215   0.834   4.846   4.372 -0.2993 -0.5807  0.3304
11098TIP3    H133216   0.801   4.789   4.303 -1.0218 -0.2078  0.3633
11098TIP3    H233217   0.881   4.915   4.326 -2.2177  0.6223  0.0770
11099TIP3   OH233218   3.339   7.260   0.960  0.0105 -0.1304  0.5309
11099TIP3    H133219   3.302   7.345   0.938 -3.4557 -1.0545  2.1100
11099TIP3    H233220   3.390   7.277   1.040  0.5925  0.6645  0.0115
11100TIP3   OH233221   3.067   3.806   1.465 -0.4081 -0.3248  0.0611
11100TIP3    H133222   3.019   3.787   1.546 -0.8994  0.1650 -0.1090
11100TIP3    H233223   3.147   3.850   1.494 -0.5604 -0.1894  0.2816
11101TIP3   OH233224   5.028   5.336   3.150  0.9231 -0.1542 -0.2797
11101TIP3    H133225   5.037   5.354   3.056  1.7610  0.2886 -0.1212
11101TIP3    H233226   4.985   5.414   3.185  1.0378 -0.1177 -0.2202
11102TIP3   OH233227   0.348   0.988   1.063 -0.0687 -0.6345 -0.3436
11102TIP3    H133228   0.412   0.975   0.993  0.1659  0.1653 -0.2945
11102TIP3    H233229   0.265   1.004   1.018 -0.1300 -1.1501 -0.4165
11103TIP3   OH233230   6.118   6.939   3.916  0.5573 -0.4353  0.4032
11103TIP3    H133231   6.052   6.885   3.872  0.1659  1.0072 -0.8707
11103TIP3    H233232   6.082   6.955   4.003  0.7851 -2.3508  0.8928
11104TIP3   OH233233   0.020   7.395   6.617  0.3012  0.1246  0.0668
11104TIP3    H133234   0.013   7.439   6.701 -0.9365  0.1350 -0.0096
11104TIP3    H233235  -0.000   7.303   6.636 -0.8297  0.2686 -0.3137
11105TIP3   OH233236   3.161   0.170   3.527  0.0703 -0.0486  0.2501
11105TIP3    H133237   3.150   0.254   3.573  0.6079  0.0791  0.1576
11105TIP3    H233238   3.112   0.181   3.445 -0.7073 -0.1965  0.6829
11106TIP3   OH233239   4.342   6.668   1.533  0.2872  0.3791  0.2668
11106TIP3    H133240   4.273   6.666   1.599  1.2341 -1.3297  1.2944
11106TIP3    H233241   4.315   6.605   1.466  1.2995 -1.1790  1.2456
11107TIP3   OH233242   0.143   6.174   2.758 -0.0006  0.2724 -0.6981
11107TIP3    H133243   0.111   6.228   2.829  1.5067 -0.7136  0.8169
11107TIP3    H233244   0.137   6.084   2.791  2.0511 -0.1122 -1.1952
11108TIP3   OH233245   4.966   2.877   3.657  0.2157 -1.1422  0.3566
11108TIP3    H133246   5.036   2.839   3.709  0.4154 -0.7274  0.3952
11108TIP3    H233247   4.989   2.857   3.566 -0.0830 -1.7821  0.4149
11109TIP3   OH233248   0.950   8.110   1.505 -0.1297 -0.0676  0.1436
11109TIP3    H133249   0.905   8.194   1.514 -1.8690 -0.9607  0.2871
11109TIP3    H233250   0.882   8.045   1.525 -0.1412 -1.7004 -4.1955
11110TIP3   OH233251   4.389   0.515   1.109 -0.2006  0.0724  0.8368
11110TIP3    H133252   4.462   0.573   1.091  0.9389 -1.6458 -0.3247
11110TIP3    H233253   4.315   0.574   1.124  0.8833  1.8106 -0.3182
11111TIP3   OH233254   7.765   0.267   6.296 -0.0591  0.1345  0.1289
11111TIP3    H133255   7.802   0.332   6.356 -1.1310 -0.2123  1.2252
11111TIP3    H233256   7.677   0.299   6.277  0.5278  0.6381 -1.9395
11112TIP3   OH233257   8.253   6.716   5.442 -0.3305  0.2727  0.2405
11112TIP3    H133258   8.342   6.695   5.414 -0.6392  0.2439 -0.7648
11112TIP3    H233259   8.258   6.808   5.468 -0.3884  0.8332 -1.5928
11113TIP3   OH233260   8.441   4.968   2.233  0.3551  0.5153  0.3582
11113TIP3    H133261   8.373   4.901   2.248  0.7746  0.1779  0.8159
11113TIP3    H233262   8.523   4.918   2.232  0.4330  0.4700 -3.2506
11114TIP3   OH233263   1.058   8.091   6.951 -0.5764 -0.4606  0.1499
11114TIP3    H133264   1.088   8.182   6.954 -1.9729  0.0372  3.0080
11114TIP3    H233265   0.992   8.090   6.882  0.3384  0.3313 -0.7852
11115TIP3   OH233266   6.720   1.824   5.985 -0.0096  0.4067  0.2817
11115TIP3    H133267   6.656   1.753   5.982 -0.6888  0.9294  1.3467
11115TIP3    H233268   6.713   1.857   6.075 -0.4830  2.4925 -0.4616
11116TIP3   OH233269   3.102   4.884   3.618  0.4012 -0.3861 -0.3801
11116TIP3    H133270   3.089   4.791   3.638  0.6165  0.1339  2.5740
11116TIP3    H233271   3.187   4.905   3.658  0.7374  0.9359 -1.7011
11117TIP3   OH233272   3.847   6.059   2.252  0.1847  0.2798 -0.4486
11117TIP3    H133273   3.914   6.127   2.239  0.1548  0.1630 -1.2929
11117TIP3    H233274   3.793   6.064   2.173 -2.0860  1.7573  1.1184
11118TIP3   OH233275   2.093   5.252   5.368  0.1796 -0.1921  0.0445
11118TIP3    H133276   2.072   5.183   5.430  0.2714 -0.3947 -0.1507
11118TIP3    H233277   2.010   5.272   5.325  0.5337 -1.6645 -1.4180
11119TIP3   OH233278   3.172   1.906   0.188 -0.4932 -0.7142  0.2574
11119TIP3    H133279   3.220   1.955   0.121  1.0513 -0.6183  1.3697
11119TIP3    H233280   3.216   1.821   0.192  0.2672 -0.2890  1.9646
11120TIP3   OH233281   2.113   3.015   4.410  0.3328  1.2507  0.6299
11120TIP3    H133282   2.062   3.093   4.432 -0.5072  1.2913 -1.2835
11120TIP3    H233283   2.172   3.043   4.340 -1.0200 -0.0964 -1.1536
11121TIP3   OH233284   3.935   6.698   0.818 -0.7362  0.1118 -0.0089
11121TIP3    H133285   3.989   6.704   0.896 -0.0299  0.9243 -0.5368
11121TIP3    H233286   3.998   6.688   0.746 -1.3248  0.1662 -0.5443
11122TIP3   OH233287   8.243   1.159   3.986 -0.2372 -0.1863 -0.4332
11122TIP3    H133288   8.286   1.079   4.017  0.6346  0.2694 -0.4508
11122TIP3    H233289   8.207   1.135   3.900 -0.8940 -0.8552  0.0138
11123TIP3   OH233290   6.688   4.265   4.473  0.1531  0.2185  0.2967
11123TIP3    H133291   6.653   4.221   4.551 -0.4576 -0.4107 -0.3180
11123TIP3    H233292   6.775   4.295   4.500 -0.8813  1.9475  1.9058
11124TIP3   OH233293   1.169   6.848   0.677 -0.4432 -0.5731 -0.1103
11124TIP3    H133294   1.138   6.885   0.760  0.7767  0.5831 -0.1282
11124TIP3    H233295   1.229   6.778   0.702  0.4114  0.1865  0.0231
11125TIP3   OH233296   7.922   6.347   5.120 -0.0145 -0.1618  0.0684
11125TIP3    H133297   7.934   6.361   5.026 -0.6593 -1.3337 -0.2021
11125TIP3    H233298   7.951   6.430   5.160  0.7438  0.1747 -1.1112
11126TIP3   OH233299   0.321   2.291   5.178  0.1695  0.0762 -0.1518
11126TIP3    H133300   0.299   2.353   5.108 -1.3550  0.1113  0.3254
11126TIP3    H233301   0.366   2.219   5.133 -0.4607  0.2652 -1.1211
11127TIP3   OH233302   5.968   6.729   1.291  0.1581 -0.6428  0.2053
11127TIP3    H133303   5.899   6.790   1.316 -1.8398 -1.9379 -1.7968
11127TIP3    H233304   6.004   6.766   1.210  1.1533 -0.5313  0.6769
11128TIP3   OH233305   2.595   0.238   1.582  0.3611  0.5597 -0.0851
11128TIP3    H133306   2.665   0.203   1.527 -0.0506  1.7547 -1.4149
11128TIP3    H233307   2.635   0.312   1.628 -0.2027  1.7823 -1.4887
11129TIP3   OH233308   4.987   6.864   3.107  0.1295 -0.5550  0.4298
11129TIP3    H133309   5.080   6.882   3.096  1.3386 -5.0193  1.1943
11129TIP3    H233310   4.974   6.857   3.202 -1.3579  1.2551  0.4141
11130TIP3   OH233311   3.184   5.538   5.771  0.4230 -0.0700 -0.1133
11130TIP3    H133312   3.186   5.576   5.684  0.5492 -0.5231 -0.3107
11130TIP3    H233313   3.203   5.611   5.830  0.0563  0.2971 -0.4418
11131TIP3   OH233314   4.869   3.897   3.257 -0.1193 -0.8032  0.8027
11131TIP3    H133315   4.919   3.817   3.239  1.5956 -0.3778  3.1418
11131TIP3    H233316   4.929   3.951   3.308 -1.9910  1.0534  1.1546
11132TIP3   OH233317   4.464   7.552   6.158  0.2498 -0.0789  0.2603
11132TIP3    H133318   4.522   7.609   6.208  0.3786 -0.3468  0.4222
11132TIP3    H233319   4.386   7.542   6.213 -0.4622  1.2346 -0.4791
11133TIP3   OH233320   2.648   7.937   0.337 -0.2560  1.0060 -0.0023
11133TIP3    H133321   2.709   7.937   0.263  0.3259  0.1203  0.4646
11133TIP3    H233322   2.593   7.860   0.323 -1.5573  2.0087 -0.6254
11134TIP3   OH233323   6.234   4.533   5.772  0.2707 -0.7252  0.1766
11134TIP3    H133324   6.158   4.481   5.748 -1.2425  2.0245 -1.5427
11134TIP3    H233325   6.199   4.604   5.825  1.4016  1.2040 -1.5208
11135TIP3   OH233326   5.558   4.502   5.965  0.9431  0.1562 -0.5574
11135TIP3    H133327   5.587   4.427   5.914  1.9391 -0.1477  0.4078
11135TIP3    H233328   5.608   4.497   6.047  0.8094  1.7021 -0.3367
11136TIP3   OH233329   7.552   0.896   0.909  0.0640 -0.9007  0.0878
11136TIP3    H133330   7.531   0.836   0.837 -0.2334 -2.7031  1.5708
11136TIP3    H233331   7.523   0.848   0.987 -0.5937  1.4216  1.3378
11137TIP3   OH233332   8.021   7.458   3.680  0.1790 -0.1137  0.2408
11137TIP3    H133333   8.002   7.531   3.621  0.4827  0.6217  1.0367
11137TIP3    H233334   7.950   7.460   3.745 -0.3160 -1.0944 -0.2402
11138TIP3   OH233335   3.164   2.102   2.036  0.2805  0.4579 -0.0287
11138TIP3    H133336   3.158   2.108   2.132 -0.4851 -3.4943  0.3394
11138TIP3    H233337   3.075   2.115   2.005  0.0810 -0.6244  0.0567
11139TIP3   OH233338   8.317   7.445   0.281 -0.3432 -0.2676  0.6644
11139TIP3    H133339   8.237   7.487   0.315 -0.7244 -1.5273  1.3542
11139TIP3    H233340   8.341   7.499   0.205 -1.7705  0.2193  0.5243
11140TIP3   OH233341   2.115   4.467   5.743  0.2057  0.0700  0.3248
11140TIP3    H133342   2.185   4.480   5.807 -1.6556  0.3148  2.4401
11140TIP3    H233343   2.079   4.382   5.765 -0.7773  0.3766 -0.0730
11141TIP3   OH233344   7.067   3.140   1.333  0.6375  0.8102 -0.0190
11141TIP3    H133345   7.093   3.169   1.246  0.7967  1.2773  0.1792
11141TIP3    H233346   7.084   3.045   1.333 -0.5886  0.5729 -0.9178
11142TIP3   OH233347   2.484   7.273   0.299 -0.1878  0.0693  0.0420
11142TIP3    H133348   2.442   7.328   0.366  0.4191  1.7403 -0.8946
11142TIP3    H233349   2.577   7.278   0.319 -0.1309 -0.7646  0.0233
11143TIP3   OH233350   2.292   6.938   0.935  0.3222 -0.1299  0.0988
11143TIP3    H133351   2.234   6.989   0.879  0.5118  1.9797  1.6964
11143TIP3    H233352   2.357   6.901   0.876  1.0443  2.6983 -1.0329
11144TIP3   OH233353   8.033   3.917   2.933 -0.1703 -0.1330  0.0960
11144TIP3    H133354   7.995   3.939   2.848 -1.0040 -1.6847  0.0228
11144TIP3    H233355   7.957   3.908   2.992  0.3227 -0.0259  0.7574
11145TIP3   OH233356   7.298   6.815   5.463  0.4028 -0.1271 -0.3065
11145TIP3    H133357   7.356   6.800   5.538  2.3100  1.0880 -1.4610
11145TIP3    H233358   7.314   6.740   5.405 -0.9151 -0.9566  0.3472
11146TIP3   OH233359   7.516   5.700   3.866 -0.5120 -0.4302  0.0152
11146TIP3    H133360   7.587   5.677   3.926  1.4281 -0.3196 -2.1355
11146TIP3    H233361   7.495   5.791   3.887 -0.1370 -0.5131  0.7875
11147TIP3   OH233362   1.876   7.774   2.494 -0.2453  0.0571  0.0458
11147TIP3    H133363   1.912   7.717   2.562 -0.0830 -0.4643 -0.4687
11147TIP3    H233364   1.942   7.842   2.482 -0.4790  0.4098  0.7250
11148TIP3   OH233365   5.898   2.445   6.714  0.0293  0.0479 -0.1221
11148TIP3    H133366   5.897   2.524   6.769  0.2637 -0.6025  0.8448
11148TIP3    H233367   5.990   2.418   6.713 -0.2622 -1.0238  0.7697
11149TIP3   OH233368   7.735   1.777   0.429 -0.1863  0.2721 -0.1091
11149TIP3    H133369   7.809   1.791   0.489  0.8508 -0.7600 -1.0719
11149TIP3    H233370   7.658   1.807   0.477  0.8812  1.5287  0.8724
11150TIP3   OH233371   1.447   3.144   1.727  0.6320 -0.0655 -0.0810
11150TIP3    H133372   1.363   3.107   1.755  0.8204  0.3251  1.0361
11150TIP3    H233373   1.450   3.126   1.633 -0.8367  0.1729 -0.2067
11151TIP3   OH233374   6.164   4.885   2.626  0.5017  0.0361 -0.3250
11151TIP3    H133375   6.252   4.919   2.609  0.1876  0.2023 -1.7714
11151TIP3    H233376   6.164   4.798   2.587  0.0670 -0.0161 -0.2149
11152TIP3   OH233377   8.393   7.133   3.567  0.3426  0.0169  0.3243
11152TIP3    H133378   8.394   7.084   3.649  0.8416 -1.5258 -0.5650
11152TIP3    H233379   8.365   7.069   3.501 -0.2863  1.2772 -0.6908
11153TIP3   OH233380   5.360   7.972   2.775  0.6609  0.1546  0.0987
11153TIP3    H133381   5.354   8.052   2.827 -0.2163 -0.0771  0.3729
11153TIP3    H233382   5.295   7.913   2.813  0.2253 -0.1420 -1.0399
11154TIP3   OH233383   7.818   5.392   4.453  0.1199 -0.4230 -0.1370
11154TIP3    H133384   7.731   5.353   4.445  1.2405 -2.6065 -3.5646
11154TIP3    H233385   7.874   5.321   4.483  0.7507  1.1557  2.8629
11155TIP3   OH233386   4.170   4.689   4.813 -0.2337  0.0414 -0.2953
11155TIP3    H133387   4.160   4.594   4.812 -0.8055  0.1018 -1.3551
11155TIP3    H233388   4.187   4.710   4.905 -0.7256 -1.0139  0.0538
11156TIP3   OH233389   2.251   4.753   2.396  0.0410  0.6270  0.1363
11156TIP3    H133390   2.284   4.736   2.485 -0.6848  0.1091  0.3149
11156TIP3    H233391   2.313   4.708   2.338 -0.9424 -1.3753  0.5219
11157TIP3   OH233392   0.598   8.107   3.716  0.1382  0.0746 -0.2434
11157TIP3    H133393   0.603   8.012   3.704 -0.0489 -0.1196  1.0615
11157TIP3    H233394   0.529   8.135   3.655  0.1677 -0.6288 -0.6118
11158TIP3   OH233395   6.086   6.573   4.843  0.9779  0.2242  1.1933
11158TIP3    H133396   6.129   6.655   4.819  0.8830  0.0162  0.2494
11158TIP3    H233397   5.995   6.597   4.861  1.0084  0.3650  1.1591
11159TIP3   OH233398   3.895   2.236   3.637  0.8217  0.0056 -0.2891
11159TIP3    H133399   3.869   2.310   3.581 -1.0199 -0.5032 -0.1640
11159TIP3    H233400   3.918   2.277   3.720  0.8611  0.5369 -0.5533
11160TIP3   OH233401   8.462   3.003   4.592 -0.1486  0.6962 -0.3018
11160TIP3    H133402   8.543   3.034   4.551  1.4306  0.6541  2.4759
11160TIP3    H233403   8.487   2.920   4.632 -2.0165 -0.0391 -0.5804
11161TIP3   OH233404   8.262   5.485   2.178  0.0764 -0.2021  0.3891
11161TIP3    H133405   8.219   5.459   2.260 -0.4425  0.2552  0.2664
11161TIP3    H233406   8.338   5.426   2.171  0.6439  0.3416  1.6542
11162TIP3   OH233407   7.931   3.270   2.432  0.0751 -0.0767 -0.3553
11162TIP3    H133408   7.994   3.201   2.410 -0.5739 -0.4252 -1.1636
11162TIP3    H233409   7.977   3.352   2.412  0.4316 -0.3172 -0.5301
11163TIP3   OH233410   5.475   7.955   0.411 -0.0496 -0.4202  0.9792
11163TIP3    H133411   5.468   7.906   0.493 -1.1963 -0.8528  0.6422
11163TIP3    H233412   5.421   8.033   0.426  0.1213 -0.2659  0.7924
11164TIP3   OH233413   2.284   4.862   3.984  0.0258  0.0803 -0.1328
11164TIP3    H133414   2.203   4.826   4.022 -0.3167  0.6411 -0.3251
11164TIP3    H233415   2.334   4.785   3.958 -0.3380 -0.2797  0.2118
11165TIP3   OH233416   2.144   3.883   5.430  0.4112  0.1650  0.3862
11165TIP3    H133417   2.199   3.861   5.505  0.1756  1.0939  0.8418
11165TIP3    H233418   2.129   3.977   5.437 -3.3188 -0.3544  1.7704
11166TIP3   OH233419   0.913   6.884   7.049 -0.2906  0.5323  0.0628
11166TIP3    H133420   0.967   6.817   7.091 -0.8416  0.5718  0.8702
11166TIP3    H233421   0.969   6.962   7.047 -0.3000  0.5673  0.8790
11167TIP3   OH233422   2.423   2.795   2.641 -0.1708  1.0516  0.0942
11167TIP3    H133423   2.509   2.753   2.645 -0.9854 -0.6138  2.1552
11167TIP3    H233424   2.391   2.792   2.731 -1.6794  3.2366 -0.2980
11168TIP3   OH233425   1.298   7.934   0.323 -0.4438  0.6137  0.1074
11168TIP3    H133426   1.354   7.884   0.382 -0.2055 -0.5699 -1.0755
11168TIP3    H233427   1.357   7.993   0.277 -0.8009  2.4864  1.9162
11169TIP3   OH233428   3.758   7.801   6.764  0.4341 -0.3780  0.5932
11169TIP3    H133429   3.831   7.763   6.812  1.2072  1.6445  1.1092
11169TIP3    H233430   3.798   7.855   6.696 -0.5969 -0.0882  0.1911
11170TIP3   OH233431   0.409   5.439   6.960  0.3864  0.5293  0.1207
11170TIP3    H133432   0.483   5.495   6.981  0.3611  0.2519  1.0287
11170TIP3    H233433   0.438   5.351   6.981  0.9679 -0.0593 -2.7623
11171TIP3   OH233434   1.020   1.584   6.910  0.2533 -0.3684  0.5853
11171TIP3    H133435   0.943   1.526   6.916  0.7439 -1.1593 -0.3600
11171TIP3    H233436   1.095   1.525   6.919  0.7738  0.0645 -0.6191
11172TIP3   OH233437   1.932   4.511   6.336  0.2101  0.1284  0.2577
11172TIP3    H133438   1.925   4.594   6.288 -1.4909  0.7580  1.5014
11172TIP3    H233439   2.003   4.525   6.398 -0.5620  0.9573  0.9791
11173TIP3   OH233440   3.111   8.134   0.150 -0.2657 -0.0006  0.7202
11173TIP3    H133441   3.150   8.091   0.226  0.3491 -1.0087 -0.1385
11173TIP3    H233442   3.182   8.138   0.085 -1.3896 -1.4781 -0.7179
11174TIP3   OH233443   7.325   4.423   6.226 -0.1068  0.3625  0.2565
11174TIP3    H133444   7.276   4.430   6.308  0.0460  1.0467  0.2909
11174TIP3    H233445   7.315   4.331   6.201 -3.9093  0.9723 -1.2865
11175TIP3   OH233446   5.870   3.357   5.012 -0.8900  0.6750  0.0681
11175TIP3    H133447   5.920   3.277   5.002 -0.2947  1.0178  0.2773
11175TIP3    H233448   5.783   3.336   4.976 -0.8015 -0.1119  0.3117
11176TIP3   OH233449   3.956   7.585   4.332 -0.2464  0.1260 -0.2460
11176TIP3    H133450   4.048   7.605   4.319 -0.1396 -0.7722 -0.9615
11176TIP3    H233451   3.949   7.569   4.426 -0.0118  1.7365  0.0781
11177TIP3   OH233452   7.914   2.549   4.019  0.0455  0.5212  0.4078
11177TIP3    H133453   7.890   2.461   4.048  0.0585  0.2411 -0.3995
11177TIP3    H233454   7.843   2.605   4.052 -0.1877  0.1425  0.5535
11178TIP3   OH233455   1.379   1.455   6.625  0.4757 -0.1663 -0.4166
11178TIP3    H133456   1.459   1.491   6.664  0.5710 -1.3439  0.5098
11178TIP3    H233457   1.396   1.456   6.530  0.9855  0.9613 -0.3317
11179TIP3   OH233458   6.429   7.764   2.744 -0.0334 -0.1639  0.0429
11179TIP3    H133459   6.444   7.670   2.736  2.7977  0.0247  1.4995
11179TIP3    H233460   6.504   7.804   2.699 -0.6652  1.3771  0.2846
11180TIP3   OH233461   1.752   8.019   0.075 -0.3673 -0.0732  0.6909
11180TIP3    H133462   1.725   7.974  -0.006  1.9549 -2.4775  1.1167
11180TIP3    H233463   1.669   8.035   0.121 -1.7755  1.3829 -2.0747
11181TIP3   OH233464   3.469   0.876   6.424 -0.9911 -0.4057  0.7463
11181TIP3    H133465   3.494   0.931   6.349  0.8446  0.1176  1.6897
11181TIP3    H233466   3.488   0.931   6.501 -0.1095 -1.9561  1.6821
11182TIP3   OH233467   3.604   3.404   4.768 -0.0760 -0.0255 -0.4338
11182TIP3    H133468   3.583   3.427   4.859  0.9107 -2.2663  0.4309
11182TIP3    H233469   3.690   3.444   4.753 -0.9389  1.7355 -1.0035
11183TIP3   OH233470   4.057   7.553   5.480 -0.7758 -0.3593  0.4175
11183TIP3    H133471   4.034   7.460   5.471 -2.5575  0.0426  0.5101
11183TIP3    H233472   4.019   7.580   5.563 -1.3342  0.7368 -0.1705
11184TIP3   OH233473   6.230   3.993   0.341 -0.6228 -0.2577 -0.2549
11184TIP3    H133474   6.322   3.985   0.318 -0.8292  1.3822 -1.8703
11184TIP3    H233475   6.229   4.004   0.436  0.8704 -0.0420 -0.2523
11185TIP3   OH233476   5.631   6.516   0.108 -0.1972 -0.3890 -0.4230
11185TIP3    H133477   5.696   6.448   0.090 -1.5750 -1.5703 -1.1854
11185TIP3    H233478   5.595   6.538   0.022 -0.2855  0.7879 -0.1026
11186TIP3   OH233479   2.651   7.401   3.268 -0.3322 -0.1384 -0.0860
11186TIP3    H133480   2.677   7.481   3.314 -1.3871  0.2429 -0.1212
11186TIP3    H233481   2.723   7.385   3.207 -0.4575  1.2384 -0.6369
11187TIP3   OH233482   6.979   7.096   6.603  0.4136 -0.4217 -0.4320
11187TIP3    H133483   7.067   7.069   6.628  0.7566  0.3089 -0.8254
11187TIP3    H233484   6.993   7.165   6.538 -0.4487 -0.4967 -0.7026
11188TIP3   OH233485   4.854   5.606   2.202  0.0699  0.0081 -0.5830
11188TIP3    H133486   4.767   5.642   2.188 -0.1356  0.8042  2.1760
11188TIP3    H233487   4.914   5.676   2.174 -0.2491  0.6484  0.3096
11189TIP3   OH233488   6.421   1.653   4.678  0.0616 -0.2071 -0.1703
11189TIP3    H133489   6.482   1.726   4.673 -0.8579  0.6254  0.3325
11189TIP3    H233490   6.370   1.670   4.757 -0.7926 -0.8989 -0.5568
11190TIP3   OH233491   5.667   2.323   4.316 -0.3083  0.0379  0.2206
11190TIP3    H133492   5.652   2.415   4.294  1.0495  0.6174  1.5768
11190TIP3    H233493   5.754   2.304   4.281  0.5208  0.0505  2.1514
11191TIP3   OH233494   7.073   3.251   3.937 -0.1680  0.2378 -0.5532
11191TIP3    H133495   7.110   3.299   3.863 -0.7016 -1.2619 -1.8710
11191TIP3    H233496   6.982   3.280   3.942 -0.1306  0.3437 -0.4762
11192TIP3   OH233497   7.445   6.669   4.846  0.1441 -0.4366  0.2050
11192TIP3    H133498   7.403   6.597   4.892  0.0382 -1.3712 -1.3015
11192TIP3    H233499   7.539   6.653   4.858  0.1731  0.9216  2.4434
11193TIP3   OH233500   6.459   2.734   0.725  0.1414 -0.5970 -0.0248
11193TIP3    H133501   6.416   2.793   0.663  1.0300  0.1107  0.0087
11193TIP3    H233502   6.450   2.648   0.686  2.9678  0.0768 -2.5914
11194TIP3   OH233503   3.931   6.706   5.583 -0.4803 -0.3755  0.1472
11194TIP3    H133504   3.988   6.644   5.538  0.7802  0.3310  0.7207
11194TIP3    H233505   3.924   6.671   5.672 -0.1937  0.0177  0.3261
11195TIP3   OH233506   0.035   7.259   0.057  0.7984  0.0091 -0.6248
11195TIP3    H133507  -0.035   7.197   0.038  0.5662  0.7812 -2.5315
11195TIP3    H233508   0.049   7.251   0.151 -2.5833  0.5979  0.0611
11196TIP3   OH233509   7.734   6.387   1.962 -0.1304 -0.8871 -0.4352
11196TIP3    H133510   7.667   6.394   2.030  0.1997 -2.5657  0.1196
11196TIP3    H233511   7.785   6.467   1.970 -0.4108 -0.8245  0.9776
11197TIP3   OH233512   4.244   4.459   3.698  0.5165  0.3354  0.2539
11197TIP3    H133513   4.338   4.443   3.697  0.2130 -1.9387  1.8945
11197TIP3    H233514   4.210   4.411   3.622  0.7378  2.1968 -1.1043
11198TIP3   OH233515   7.958   7.006   2.797  0.2397  0.0846 -0.4376
11198TIP3    H133516   7.868   6.989   2.770 -0.0076 -1.1724  1.0474
11198TIP3    H233517   7.997   6.920   2.810  1.6417  0.6075 -0.9263
11199TIP3   OH233518   4.477   4.550   1.229 -0.0727  0.2104 -0.1768
11199TIP3    H133519   4.539   4.556   1.156  0.8319  1.2290  0.6466
11199TIP3    H233520   4.400   4.599   1.200 -0.1291 -0.2517 -0.8305
11200TIP3   OH233521   2.990   6.494   4.325  0.4048 -0.5674  0.2692
11200TIP3    H133522   2.987   6.494   4.229 -0.9739  1.0787  0.2603
11200TIP3    H233523   2.906   6.458   4.352 -0.1867  1.1269  0.8086
11201TIP3   OH233524   7.153   7.660   6.144  0.0204  0.0257 -0.1675
11201TIP3    H133525   7.183   7.580   6.101  0.1051 -0.7400  1.2891
11201TIP3    H233526   7.225   7.686   6.200  0.1868  1.4267 -0.9829
11202TIP3   OH233527   6.271   6.456   7.058  0.3887  0.5509  0.1337
11202TIP3    H133528   6.307   6.467   6.970  0.1438  0.4508  0.0190
11202TIP3    H233529   6.266   6.544   7.094 -4.7574  1.5378 -2.0141
11203TIP3   OH233530   7.472   7.213   0.185 -0.1807 -0.3741 -0.2465
11203TIP3    H133531   7.456   7.125   0.152 -2.5245  0.0125 -0.3531
11203TIP3    H233532   7.452   7.208   0.279  2.2212 -0.4793  0.3397
11204TIP3   OH233533   8.235   7.940   6.969  0.9896  0.4215  0.3465
11204TIP3    H133534   8.245   7.862   7.023  0.8031  0.3651  0.2968
11204TIP3    H233535   8.289   7.923   6.892  0.6295  0.1787  0.1503
11205TIP3   OH233536   0.245   0.782   6.136 -0.5030  0.7177  0.4110
11205TIP3    H133537   0.194   0.846   6.187 -0.0050  1.3669  0.1103
11205TIP3    H233538   0.208   0.787   6.048 -0.4289  0.6342  0.3751
11206TIP3   OH233539   0.347   2.456   1.619  0.0561  0.0430  0.0893
11206TIP3    H133540   0.387   2.522   1.676  0.9652  2.0089 -2.6096
11206TIP3    H233541   0.282   2.504   1.568 -0.0081 -1.3842 -1.2450
11207TIP3   OH233542   5.950   2.156   5.303 -0.2086 -0.0139 -0.6873
11207TIP3    H133543   5.956   2.081   5.363 -0.4934  1.2573  1.0116
11207TIP3    H233544   5.861   2.151   5.268  0.1556 -1.1113 -1.5220
11208TIP3   OH233545   1.973   1.686   2.712  0.9245  0.0559 -0.0566
11208TIP3    H133546   1.881   1.690   2.685  0.6614  1.8714  0.9513
11208TIP3    H233547   1.983   1.598   2.748 -0.1859 -0.4546 -0.9105
11209TIP3   OH233548   1.856   1.007   3.894 -0.2966 -0.3274  0.4461
11209TIP3    H133549   1.894   0.983   3.979 -0.0878  0.5401  0.6113
11209TIP3    H233550   1.842   1.102   3.901 -0.5711 -0.3063 -0.3756
11210TIP3   OH233551   5.002   4.669   5.990  0.2911  0.5145 -0.2250
11210TIP3    H133552   5.074   4.619   5.953  0.2147  0.7952 -0.7526
11210TIP3    H233553   4.951   4.604   6.039 -0.2235 -0.0847 -1.5043
11211TIP3   OH233554   0.910   0.124   2.018  0.1246  0.1251 -0.1574
11211TIP3    H133555   0.853   0.050   2.040 -0.2692 -0.1074 -1.8701
11211TIP3    H233556   0.984   0.084   1.972  0.8853  0.6071  0.6195
11212TIP3   OH233557   1.469   6.038   4.323  0.1744 -0.3409 -0.7499
11212TIP3    H133558   1.515   5.962   4.358  1.9515  1.2036  0.4030
11212TIP3    H233559   1.438   6.086   4.400 -0.6636  0.2874 -1.4476
11213TIP3   OH233560   7.143   1.974   4.901  0.1199 -0.5966 -0.0540
11213TIP3    H133561   7.157   1.886   4.866 -1.3326 -1.3855  1.2521
11213TIP3    H233562   7.223   1.994   4.949 -0.1460 -1.9060  0.9982
11214TIP3   OH233563   4.307   5.534   4.724 -0.3166  0.1093 -0.0536
11214TIP3    H133564   4.292   5.605   4.786 -0.5625  1.2682 -1.3899
11214TIP3    H233565   4.308   5.577   4.638  0.4097 -1.3846 -0.8271
11215TIP3   OH233566   3.887   6.054   3.559  0.7433  0.2247  0.3943
11215TIP3    H133567   3.909   6.141   3.593  1.4336  0.1407  0.1801
11215TIP3    H233568   3.961   5.999   3.584  0.7973 -0.0672 -0.3705
11216TIP3   OH233569   3.049   0.598   1.149  0.1909 -0.0967 -0.2434
11216TIP3    H133570   3.117   0.627   1.210 -0.9125 -1.5173  1.7530
11216TIP3    H233571   3.054   0.503   1.151 -1.3575 -0.2146 -0.6105
11217TIP3   OH233572   2.810   7.934   5.964 -0.2508 -0.3779 -0.2208
11217TIP3    H133573   2.876   7.900   6.025 -1.9021 -0.9902  1.3173
11217TIP3    H233574   2.742   7.866   5.963 -0.0830 -0.6150 -3.1768
11218TIP3   OH233575   1.318   3.231   3.283  0.2198 -0.1196 -0.6954
11218TIP3    H133576   1.409   3.202   3.293  0.5903  1.0351 -0.6336
11218TIP3    H233577   1.294   3.203   3.195  0.1773 -1.6141 -0.2388
11219TIP3   OH233578   7.325   7.250   6.251  0.3999 -0.4212  0.2277
11219TIP3    H133579   7.289   7.304   6.321  0.6507 -2.6060  2.1596
11219TIP3    H233580   7.417   7.237   6.274  0.1141 -2.4683  0.4388
11220TIP3   OH233581   6.806   1.790   0.757  0.4865  0.2505 -0.0442
11220TIP3    H133582   6.745   1.851   0.800 -0.0046 -0.4856  0.3219
11220TIP3    H233583   6.776   1.703   0.784  0.5416 -0.2134 -1.3743
11221TIP3   OH233584   8.119   1.916   2.202  0.7510 -0.0305 -0.4001
11221TIP3    H133585   8.025   1.908   2.189  0.6291  0.3933  0.1797
11221TIP3    H233586   8.141   1.847   2.265  0.9500 -0.5887 -1.0757
11222TIP3   OH233587   2.732   5.409   5.924 -0.0639  0.4680 -0.1283
11222TIP3    H133588   2.811   5.357   5.941 -0.7307 -0.2827  0.8140
11222TIP3    H233589   2.666   5.344   5.900 -0.9089  0.8572  1.0324
11223TIP3   OH233590   4.699   7.316   6.897 -0.0292  0.7957 -0.6298
11223TIP3    H133591   4.730   7.267   6.973  0.0553  1.3509 -0.2985
11223TIP3    H233592   4.605   7.326   6.912  0.0969  1.4757 -0.2625
11224TIP3   OH233593   1.474   5.668   6.339 -0.3100 -0.3773 -0.8921
11224TIP3    H133594   1.498   5.759   6.325 -1.5566  0.0874 -0.0748
11224TIP3    H233595   1.379   5.665   6.325 -0.6237 -1.1234  1.0472
11225TIP3   OH233596   5.978   5.125   6.614  0.0555  0.6662 -0.4446
11225TIP3    H133597   6.070   5.134   6.640  0.6773  0.2728 -2.3733
11225TIP3    H233598   5.956   5.210   6.576 -0.3748  0.7352 -0.0516
11226TIP3   OH233599   4.029   1.536   3.351  0.1960  0.4175 -0.3636
11226TIP3    H133600   3.995   1.488   3.275  3.4335 -1.5087 -0.8220
11226TIP3    H233601   4.090   1.600   3.313 -2.3438  3.5273  0.4095
11227TIP3   OH233602   2.891   7.345   5.043 -0.0278 -0.2267  0.2507
11227TIP3    H133603   2.834   7.365   5.117  0.6656  1.2300  0.4192
11227TIP3    H233604   2.857   7.262   5.009 -1.2514 -0.1960  1.3078
11228TIP3   OH233605   2.827   3.283   0.427 -0.1174 -1.0851  0.0553
11228TIP3    H133606   2.841   3.321   0.513  1.7535 -1.1709 -0.1511
11228TIP3    H233607   2.778   3.349   0.379 -1.9824 -1.4146  1.4221
11229TIP3   OH233608   2.670   4.555   4.077 -0.0109 -0.5944 -0.0512
11229TIP3    H133609   2.586   4.583   4.039 -0.3545  0.1083  1.1803
11229TIP3    H233610   2.645   4.513   4.159  0.8748 -0.1191  0.4614
11230TIP3   OH233611   2.544   6.235   5.484  0.5765  0.4164 -0.5167
11230TIP3    H133612   2.568   6.313   5.535  1.5202  0.9694 -1.7645
11230TIP3    H233613   2.592   6.164   5.527 -1.1025  0.3020  1.2678
11231TIP3   OH233614   7.793   2.826   6.759 -0.0030 -0.1732  0.1404
11231TIP3    H133615   7.773   2.831   6.852 -0.3024  1.2492  0.0191
11231TIP3    H233616   7.712   2.794   6.719  0.2294 -1.1000  0.3891
11232TIP3   OH233617   8.576   4.770   6.458  0.4915 -0.0336 -0.2719
11232TIP3    H133618   8.652   4.762   6.401 -0.0712  0.9581 -1.1923
11232TIP3    H233619   8.556   4.863   6.458 -1.4742 -0.4217 -1.0499
11233TIP3   OH233620   2.945   4.595   2.783 -0.1922  0.0808 -0.0176
11233TIP3    H133621   2.898   4.668   2.743 -1.3310  0.1120  1.3116
11233TIP3    H233622   3.030   4.632   2.808 -0.8150  1.0373  0.7888
11234TIP3   OH233623   4.636   4.448   2.078 -0.1202  0.2481 -0.1536
11234TIP3    H133624   4.678   4.447   1.992 -1.1702  2.2454 -0.7562
11234TIP3    H233625   4.556   4.398   2.066 -0.6419  1.1558 -0.5893
11235TIP3   OH233626   3.026   3.233   4.974 -0.1577  0.1834 -0.1580
11235TIP3    H133627   3.063   3.145   4.984 -0.5515  0.0953  0.6065
11235TIP3    H233628   2.932   3.219   4.970 -0.1795  0.4986 -1.0034
11236TIP3   OH233629   1.238   3.145   2.972 -0.5980 -0.7338  0.7514
11236TIP3    H133630   1.229   3.147   2.876 -0.7086  0.1688  0.7673
11236TIP3    H233631   1.148   3.146   3.004 -0.5765  0.7118  0.8588
11237TIP3   OH233632   3.520   1.847   4.557 -0.2567  0.2460 -0.4280
11237TIP3    H133633   3.443   1.837   4.501  0.5058 -0.1856 -1.4313
11237TIP3    H233634   3.540   1.941   4.554 -0.5521  0.3086 -0.4226
11238TIP3   OH233635   3.091   2.436   6.293  0.7630  0.1234  0.1009
11238TIP3    H133636   3.061   2.350   6.322  1.5736 -0.0390  0.4736
11238TIP3    H233637   3.022   2.466   6.233  1.0575 -1.3358 -1.0409
11239TIP3   OH233638   0.339   0.780   1.953 -0.3652  0.2349  0.6694
11239TIP3    H133639   0.311   0.723   1.882  1.8153 -0.6375  0.4438
11239TIP3    H233640   0.433   0.790   1.941  0.2262 -0.3994  3.7361
11240TIP3   OH233641   0.549   4.170   6.289  1.0098 -0.3048  0.1889
11240TIP3    H133642   0.490   4.119   6.345  0.6957 -0.0926  0.0515
11240TIP3    H233643   0.591   4.231   6.349  3.1301 -2.2149  0.8072
11241TIP3   OH233644   7.744   1.736   6.112  0.3468  0.0261 -0.0373
11241TIP3    H133645   7.721   1.655   6.157  0.5596 -0.1050 -0.1641
11241TIP3    H233646   7.830   1.760   6.148  1.6625 -1.3418 -2.0534
11242TIP3   OH233647   2.357   2.150   3.699  0.0745 -0.2895 -0.5691
11242TIP3    H133648   2.284   2.091   3.677 -0.5262 -0.5926  1.9177
11242TIP3    H233649   2.366   2.142   3.794  1.3368  2.1112 -0.4208
11243TIP3   OH233650   1.650   3.602   5.651  0.1379 -0.6970  0.2857
11243TIP3    H133651   1.560   3.604   5.685  0.9532 -0.2778  2.5354
11243TIP3    H233652   1.692   3.531   5.699  0.7396 -1.7020 -1.6259
11244TIP3   OH233653   5.539   3.036   1.403 -0.7483  0.5300  0.0517
11244TIP3    H133654   5.628   3.045   1.368 -0.5329 -1.1018  0.0922
11244TIP3    H233655   5.525   2.941   1.409 -1.9176  0.7516  1.5044
11245TIP3   OH233656   4.136   3.895   4.006  0.2004 -0.0909  0.3224
11245TIP3    H133657   4.097   3.901   3.919  3.2700  1.1948 -1.0901
11245TIP3    H233658   4.169   3.983   4.024 -0.0850 -0.3952  2.6983
11246TIP3   OH233659   1.082   0.211   5.314  0.4240  0.2757 -0.1331
11246TIP3    H133660   1.115   0.126   5.342  0.9451  0.4225 -0.2946
11246TIP3    H233661   1.022   0.238   5.384 -0.3640 -0.5752 -0.4572
11247TIP3   OH233662   7.029   6.129   3.817  0.4448 -0.1476 -0.4893
11247TIP3    H133663   6.977   6.177   3.882  1.3223 -0.6988  0.6480
11247TIP3    H233664   7.076   6.197   3.769  1.2271  0.1957  0.7120
11248TIP3   OH233665   6.867   2.392   4.276 -0.0805 -0.5731  0.0981
11248TIP3    H133666   6.925   2.338   4.329 -0.1751 -0.3117  0.4736
11248TIP3    H233667   6.889   2.482   4.301  0.1479 -0.4337 -0.5921
11249TIP3   OH233668   7.849   6.073   2.748 -0.3290  0.3487 -0.3587
11249TIP3    H133669   7.818   6.147   2.697 -0.7292  0.0748 -0.5220
11249TIP3    H233670   7.777   6.054   2.809 -1.4226 -1.5910 -2.1135
11250TIP3   OH233671   8.544   8.019   3.867 -0.0624 -0.3988  0.0950
11250TIP3    H133672   8.610   8.081   3.899  0.6614 -1.6647  1.1327
11250TIP3    H233673   8.586   7.974   3.794 -0.4445  0.0199 -0.3969
11251TIP3   OH233674   3.592   0.928   1.041  0.1782 -0.2018  0.4834
11251TIP3    H133675   3.506   0.950   1.075 -0.9979 -1.1309 -1.6963
11251TIP3    H233676   3.621   1.007   0.995 -0.1928 -0.3821 -0.0624
11252TIP3   OH233677   4.246   6.875   3.181  0.1313 -0.8633 -0.1275
11252TIP3    H133678   4.269   6.960   3.218 -1.1063 -0.8967  0.7681
11252TIP3    H233679   4.241   6.817   3.257 -2.6163 -0.9046 -0.2474
11253TIP3   OH233680   2.676   0.297   0.146  0.1134 -0.3564  0.0201
11253TIP3    H133681   2.614   0.326   0.214  0.5883  0.9929 -0.0871
11253TIP3    H233682   2.756   0.276   0.194  0.3151  0.1917 -0.0688
11254TIP3   OH233683   0.915   6.557   6.884 -0.4215 -0.9470 -0.4976
11254TIP3    H133684   0.968   6.635   6.865 -0.7170 -0.5589  0.2090
11254TIP3    H233685   0.836   6.569   6.833 -1.3381  0.2331  1.1070
11255TIP3   OH233686   0.940   4.666   0.122 -0.6249 -0.1264 -0.3205
11255TIP3    H133687   0.849   4.674   0.150 -0.7372  1.0573 -0.9205
11255TIP3    H233688   0.940   4.700   0.032  0.2718 -0.8671 -0.6215
11256TIP3   OH233689   1.414   8.059   3.662 -0.4058  0.5143 -0.1534
11256TIP3    H133690   1.412   8.155   3.653 -1.5428  0.4161 -1.1946
11256TIP3    H233691   1.405   8.027   3.572 -1.5427 -0.5739  0.3272
11257TIP3   OH233692   8.405   2.623   2.751 -0.2737 -0.0113 -0.0106
11257TIP3    H133693   8.417   2.697   2.811 -0.6622  1.6167 -1.8267
11257TIP3    H233694   8.313   2.599   2.762 -0.5364  0.7591 -0.4342
11258TIP3   OH233695   1.797   5.734   2.795  0.2036 -0.0803  0.2581
11258TIP3    H133696   1.713   5.741   2.750  0.4275 -1.1881 -0.3573
11258TIP3    H233697   1.773   5.722   2.888 -0.2751  1.1458  0.3018
11259TIP3   OH233698   3.289   7.343   1.273  0.2644 -0.4366  0.1030
11259TIP3    H133699   3.364   7.368   1.219  0.7853 -1.6369  0.2292
11259TIP3    H233700   3.214   7.348   1.214  0.7976 -1.5384 -0.7191
11260TIP3   OH233701   1.875   4.854   1.192 -0.7860 -0.2350 -0.0478
11260TIP3    H133702   1.854   4.836   1.100  0.5855  0.7024 -0.5817
11260TIP3    H233703   1.800   4.902   1.225 -0.0416  2.1980 -1.6110
11261TIP3   OH233704   8.204   6.609   0.836 -0.2722  0.0711 -0.6839
11261TIP3    H133705   8.160   6.694   0.835  0.5107  0.4893 -0.4226
11261TIP3    H233706   8.293   6.628   0.866 -0.4774 -1.0300  0.7129
11262TIP3   OH233707   3.907   1.249   3.570 -0.0732 -0.2369  0.6234
11262TIP3    H133708   3.838   1.310   3.545 -0.3291 -0.7711 -0.0117
11262TIP3    H233709   3.989   1.298   3.557 -0.2703 -0.0570  0.0452
11263TIP3   OH233710   3.100   4.447   7.095 -0.3437  0.0554 -0.0321
11263TIP3    H133711   3.132   4.377   7.039 -1.3774 -1.2319  0.9077
11263TIP3    H233712   3.108   4.526   7.042  0.7682 -0.7695 -1.1594
11264TIP3   OH233713   2.831   1.269   6.256 -0.1990  0.4252 -0.5034
11264TIP3    H133714   2.909   1.218   6.231 -1.1260 -1.6432  0.5056
11264TIP3    H233715   2.776   1.269   6.178 -0.3634 -0.5725 -0.4137
11265TIP3   OH233716   5.290   2.180   0.466  0.9638  0.1674  0.1081
11265TIP3    H133717   5.211   2.126   0.477  1.2350  0.0044  1.3764
11265TIP3    H233718   5.342   2.162   0.543  1.0436  2.3116  0.6198
11266TIP3   OH233719   0.184   5.837   0.478  0.4828  0.4327 -0.6653
11266TIP3    H133720   0.222   5.863   0.562  0.4603  0.3065 -0.6163
11266TIP3    H233721   0.227   5.895   0.414 -1.2918  2.2643 -0.3106
11267TIP3   OH233722   4.576   5.992   3.208  0.2124  0.3046  0.5723
11267TIP3    H133723   4.494   5.942   3.203  0.7080 -0.4131 -0.8820
11267TIP3    H233724   4.564   6.049   3.284 -1.4141 -0.1726  0.7205
11268TIP3   OH233725   4.873   4.336   4.223 -0.5404 -0.1845 -0.2901
11268TIP3    H133726   4.937   4.405   4.242 -0.7894 -0.5400  2.0528
11268TIP3    H233727   4.851   4.349   4.130  1.8868  0.7756 -0.7939
11269TIP3   OH233728   0.465   3.237   6.425  0.2464 -0.0075  0.0837
11269TIP3    H133729   0.531   3.177   6.459 -0.5106 -1.4535 -0.8902
11269TIP3    H233730   0.500   3.268   6.342  0.5277  0.7554  0.4702
11270TIP3   OH233731   4.060   7.708   1.393 -0.0265 -0.3562 -0.0001
11270TIP3    H133732   4.040   7.786   1.342 -0.8117 -0.0008  0.8191
11270TIP3    H233733   4.154   7.694   1.381  0.6100  1.9932  1.5389
11271TIP3   OH233734   5.253   5.733   6.900 -0.3325 -0.4995 -0.2461
11271TIP3    H133735   5.321   5.800   6.892  0.5808 -1.5311 -1.3599
11271TIP3    H233736   5.200   5.743   6.822  0.8766 -2.1883 -1.3482
11272TIP3   OH233737   4.320   7.809   0.278 -0.5064  0.6988  0.0501
11272TIP3    H133738   4.332   7.801   0.184 -1.4568 -1.2123  0.0519
11272TIP3    H233739   4.327   7.720   0.312  2.6595  1.5834  2.2052
11273TIP3   OH233740   3.273   6.539   3.189  0.7371  1.2693  0.3307
11273TIP3    H133741   3.191   6.498   3.218  1.0225 -0.2858 -0.8955
11273TIP3    H233742   3.258   6.633   3.200 -0.8395  0.9736  1.0573
11274TIP3   OH233743   5.866   3.694   4.231 -0.3800 -0.0341  0.4738
11274TIP3    H133744   5.843   3.633   4.161  1.4553 -1.4207  0.9903
11274TIP3    H233745   5.918   3.641   4.292  1.1086  2.0143  1.0764
11275TIP3   OH233746   1.317   5.921   4.888  0.5214  0.1652 -0.3221
11275TIP3    H133747   1.246   5.865   4.856  1.0559 -0.0956 -1.1054
11275TIP3    H233748   1.310   5.917   4.983  0.7643 -1.5451 -0.3317
11276TIP3   OH233749   0.493   4.614   2.818 -0.2809  0.1605  0.3684
11276TIP3    H133750   0.448   4.697   2.807  0.6922  0.7111  0.4039
11276TIP3    H233751   0.506   4.606   2.912 -0.8419 -0.2965  0.4115
11277TIP3   OH233752   2.080   5.327   3.218 -0.2784  0.1902  0.2430
11277TIP3    H133753   2.098   5.233   3.226 -0.6823  0.0234 -0.6053
11277TIP3    H233754   2.119   5.352   3.134 -1.5619  0.4059 -0.3247
11278TIP3   OH233755   4.833   8.041   6.382 -0.2245  0.0126 -0.5701
11278TIP3    H133756   4.860   7.950   6.378  1.9248  0.5000  1.0146
11278TIP3    H233757   4.743   8.039   6.413  0.6726 -1.5334  2.2582
11279TIP3   OH233758   7.163   2.184   3.297 -0.3345  0.0069  0.3400
11279TIP3    H133759   7.258   2.170   3.306 -0.4979 -0.4798  1.4140
11279TIP3    H233760   7.143   2.153   3.208  0.5465  0.3560  0.0037
11280TIP3   OH233761   5.550   0.249   6.523 -0.1339 -0.3131 -0.2613
11280TIP3    H133762   5.514   0.321   6.575 -0.7974 -0.6588 -0.2315
11280TIP3    H233763   5.627   0.220   6.572  0.7297  1.0145 -0.7726
11281TIP3   OH233764   5.953   1.798   3.203 -0.2774 -0.1226 -0.0260
11281TIP3    H133765   6.007   1.875   3.190 -0.2029 -0.2865 -0.7565
11281TIP3    H233766   5.934   1.767   3.114 -1.3232 -0.2340  0.2177
11282TIP3   OH233767   7.510   0.536   2.828  0.0969 -0.2892 -0.3550
11282TIP3    H133768   7.509   0.468   2.895 -1.2755 -1.5258 -1.5613
11282TIP3    H233769   7.599   0.534   2.794 -0.2352 -2.5082 -1.2939
11283TIP3   OH233770   6.129   0.990   2.713  0.3732  0.4981  0.6541
11283TIP3    H133771   6.033   0.990   2.711  0.3546  0.8865  1.3840
11283TIP3    H233772   6.152   1.069   2.760  1.0506  0.1816  0.8664
11284TIP3   OH233773   3.978   3.748   6.821  0.2046 -0.6877  0.5623
11284TIP3    H133774   3.979   3.807   6.897  0.9638  0.3167 -0.1883
11284TIP3    H233775   4.054   3.691   6.834 -0.2540 -1.1894  1.0558
11285TIP3   OH233776   8.093   0.938   6.444  0.2772  0.6235 -0.1318
11285TIP3    H133777   8.070   0.845   6.446 -1.3830  1.0199  0.8542
11285TIP3    H233778   8.170   0.942   6.387  0.6243 -1.3944  0.1096
11286TIP3   OH233779   6.675   3.971   4.964  0.0140 -0.4631  0.2439
11286TIP3    H133780   6.756   4.000   5.005 -0.1041  1.8691 -1.0377
11286TIP3    H233781   6.664   3.880   4.994  1.7495 -0.0223  2.4472
11287TIP3   OH233782   8.314   2.119   4.375  0.7585  0.3751  0.3277
11287TIP3    H133783   8.358   2.125   4.460 -0.3426 -1.8704  1.1376
11287TIP3    H233784   8.225   2.152   4.391  0.5259 -0.1141  0.0726
11288TIP3   OH233785   6.939   6.349   1.864 -0.4163  0.1624 -0.1331
11288TIP3    H133786   6.932   6.391   1.778 -1.5065  0.4803  0.1034
11288TIP3    H233787   6.927   6.420   1.927 -1.2183 -0.3250  0.2743
11289TIP3   OH233788   6.308   7.467   4.046 -0.0066 -0.0319 -0.1041
11289TIP3    H133789   6.309   7.540   4.108 -0.4244  0.8559 -1.1017
11289TIP3    H233790   6.226   7.422   4.063 -0.6077  0.8134 -0.6493
11290TIP3   OH233791   4.612   1.446   3.342  0.1793 -0.2032  0.5187
11290TIP3    H133792   4.527   1.411   3.368 -0.5245  0.3692 -0.9096
11290TIP3    H233793   4.664   1.369   3.321  0.3714 -0.6121  2.3531
11291TIP3   OH233794   0.045   5.067   4.037  0.6663  0.2154 -0.0205
11291TIP3    H133795   0.111   4.997   4.037  1.1771  0.6893 -0.6341
11291TIP3    H233796  -0.000   5.057   4.121  1.9584  0.2853  0.7172
11292TIP3   OH233797   4.643   4.280   3.226  0.0430  0.6369  0.4246
11292TIP3    H133798   4.734   4.284   3.255  0.1821 -0.4631  0.1729
11292TIP3    H233799   4.628   4.188   3.206 -0.4809  1.1131 -1.5899
11293TIP3   OH233800   1.214   5.302   5.312 -0.4462  0.2282 -0.1963
11293TIP3    H133801   1.288   5.361   5.302 -0.8445  0.6901 -0.5066
11293TIP3    H233802   1.164   5.338   5.386  0.7144 -1.2644  1.3986
11294TIP3   OH233803   4.281   3.605   1.745 -0.6638 -0.6783 -0.0106
11294TIP3    H133804   4.263   3.519   1.706 -0.0315 -1.0267  0.4427
11294TIP3    H233805   4.299   3.585   1.837  0.4538 -0.1841 -0.1024
11295TIP3   OH233806   1.984   4.131   2.473 -0.4368  0.2406 -0.2012
11295TIP3    H133807   1.899   4.134   2.430 -0.8017  3.0500  0.5207
11295TIP3    H233808   2.043   4.177   2.413 -0.2794  1.5046  0.8850
11296TIP3   OH233809   3.492   3.294   3.666  0.5344 -0.4968  0.4179
11296TIP3    H133810   3.584   3.296   3.642  0.6260 -1.2069  0.6928
11296TIP3    H233811   3.445   3.310   3.584  0.9089  1.2439  0.4975
11297TIP3   OH233812   5.654   5.157   6.722  0.2478  0.4012 -0.2018
11297TIP3    H133813   5.706   5.084   6.688  1.2873  0.7370  0.6267
11297TIP3    H233814   5.710   5.197   6.789 -0.0427  2.3197 -1.0418
11298TIP3   OH233815   1.683   3.703   3.054 -0.4807  0.0929  0.0080
11298TIP3    H133816   1.588   3.696   3.046 -0.3398 -2.1785 -0.1905
11298TIP3    H233817   1.712   3.616   3.082  1.6846  0.2547 -1.4759
11299TIP3   OH233818   8.048   6.357   5.554  0.3871  0.3170 -0.3070
11299TIP3    H133819   8.143   6.360   5.566  0.1965 -0.0206  1.7373
11299TIP3    H233820   8.032   6.402   5.471  2.4100 -0.6599 -1.2807
11300TIP3   OH233821   5.585   3.536   6.987 -0.1037 -0.4251  0.4855
11300TIP3    H133822   5.594   3.619   7.034  0.8412 -0.0757 -0.2829
11300TIP3    H233823   5.666   3.488   7.005 -0.4240 -0.9675  0.5133
11301TIP3   OH233824   8.095   6.434   5.941  0.0655  0.2189 -0.1041
11301TIP3    H133825   8.178   6.458   5.983  0.1263  0.1502 -0.1854
11301TIP3    H233826   8.098   6.476   5.856 -0.2841  0.7817  0.1573
11302TIP3   OH233827   3.986   4.766   0.048  0.3658 -0.4691 -0.2060
11302TIP3    H133828   4.051   4.742   0.113 -0.0896 -0.0171  0.4346
11302TIP3    H233829   3.959   4.854   0.072 -0.2067 -0.5026 -0.6858
11303TIP3   OH233830   5.300   4.344   5.348  0.5427 -0.4348 -0.4839
11303TIP3    H133831   5.252   4.351   5.431  0.3695 -0.3868 -0.5856
11303TIP3    H233832   5.249   4.399   5.288 -0.1675 -1.6239 -1.0076
11304TIP3   OH233833   7.181   2.889   1.364 -0.0789 -0.0163 -0.1135
11304TIP3    H133834   7.143   2.801   1.355 -0.7362  0.1430  0.9610
11304TIP3    H233835   7.275   2.873   1.365 -0.1500 -0.5976 -1.0056
11305TIP3   OH233836   8.308   0.596   3.432  0.4352  0.5477  1.2183
11305TIP3    H133837   8.258   0.659   3.381  0.7857  0.0737  0.2583
11305TIP3    H233838   8.370   0.649   3.481  1.2810  0.9144 -0.1977
11306TIP3   OH233839   1.537   4.951   5.069  0.0333 -0.5074 -0.3980
11306TIP3    H133840   1.552   4.878   5.128 -0.4230 -1.6232 -1.6104
11306TIP3    H233841   1.454   4.989   5.098 -1.0705 -2.1029 -1.3168
11307TIP3   OH233842   3.840   1.358   2.065 -0.0120  0.2052 -0.2594
11307TIP3    H133843   3.789   1.392   1.993  0.4182  1.6270  0.0813
11307TIP3    H233844   3.856   1.433   2.122  1.5446 -0.4023  0.1810
11308TIP3   OH233845   1.056   0.641   1.376 -0.2226 -0.8321  0.7067
11308TIP3    H133846   1.058   0.553   1.339  0.8885  0.2087 -1.9486
11308TIP3    H233847   1.147   0.658   1.402  0.1281  0.3629 -1.1179
11309TIP3   OH233848   3.825   6.916   3.744 -0.4379 -0.2669  0.5630
11309TIP3    H133849   3.739   6.881   3.719  0.4700 -1.6777 -0.7710
11309TIP3    H233850   3.806   6.979   3.813 -2.6775  0.4450 -0.6021
11310TIP3   OH233851   2.738   2.450  -0.015 -0.1423 -0.3890 -0.8807
11310TIP3    H133852   2.802   2.517  -0.039 -1.5986  2.4799  2.3121
11310TIP3    H233853   2.776   2.407   0.061 -2.1631  2.1474  1.8041
11311TIP3   OH233854   1.094   2.801   2.991 -0.3017 -0.4129  0.6301
11311TIP3    H133855   1.160   2.858   3.031  2.0627 -0.1332 -3.1334
11311TIP3    H233856   1.019   2.858   2.975  0.9015  0.9482 -0.3908
11312TIP3   OH233857   1.435   7.387   4.157  0.0672 -0.9772 -0.2218
11312TIP3    H133858   1.371   7.424   4.218  0.1992 -0.8451 -0.1630
11312TIP3    H233859   1.481   7.463   4.121  1.2940 -1.1339  0.9495
11313TIP3   OH233860   5.123   5.707   4.276  0.3492 -0.0795  0.0696
11313TIP3    H133861   5.080   5.752   4.203 -0.2479 -2.2016 -0.9824
11313TIP3    H233862   5.205   5.674   4.239 -0.0896 -1.4187  0.2122
11314TIP3   OH233863   7.119   6.648   3.289  0.0950 -0.4696 -0.4947
11314TIP3    H133864   7.194   6.651   3.349  0.5299 -1.1386 -0.9790
11314TIP3    H233865   7.074   6.566   3.312 -0.6107  0.0187 -0.0821
11315TIP3   OH233866   5.522   3.045   1.908 -0.8914 -0.0573 -0.2868
11315TIP3    H133867   5.514   2.972   1.970  1.8782 -1.4453 -1.3772
11315TIP3    H233868   5.568   3.113   1.956 -0.9551 -0.1350 -0.1144
11316TIP3   OH233869   2.828   7.769   2.159  0.1150 -0.8658 -0.0409
11316TIP3    H133870   2.837   7.679   2.130  0.6071 -0.6966 -0.4242
11316TIP3    H233871   2.903   7.815   2.121 -1.1035  0.0991 -1.4217
11317TIP3   OH233872   1.775   6.085   3.746 -0.5097 -0.0128 -0.4709
11317TIP3    H133873   1.787   6.045   3.833 -0.0401 -1.6205 -1.2326
11317TIP3    H233874   1.864   6.100   3.714 -0.6793  1.5494 -0.2816
11318TIP3   OH233875   0.711   0.314   5.252  0.0979  0.4333  0.2146
11318TIP3    H133876   0.785   0.341   5.198  1.6477  0.3734  2.2353
11318TIP3    H233877   0.646   0.282   5.189  2.4000 -1.0463 -1.5347
11319TIP3   OH233878   7.340   5.460   2.533 -0.0438 -0.4829  0.1497
11319TIP3    H133879   7.411   5.396   2.541 -1.2425 -1.9832 -0.6975
11319TIP3    H233880   7.354   5.502   2.449  0.3543 -0.1071  0.3998
11320TIP3   OH233881   7.220   2.233   2.236  0.2066 -0.0742  0.0258
11320TIP3    H133882   7.293   2.262   2.291 -0.0078  0.1938  0.1771
11320TIP3    H233883   7.261   2.182   2.167  0.6975  1.2731 -0.7153
11321TIP3   OH233884   7.573   7.744   6.992 -0.4686  0.2819  0.1235
11321TIP3    H133885   7.649   7.797   6.967 -0.0940 -0.5055 -0.4932
11321TIP3    H233886   7.548   7.776   7.078 -0.4332  1.6369 -0.3461
11322TIP3   OH233887   6.087   7.485   1.524 -0.2025 -0.1761  0.0064
11322TIP3    H133888   6.031   7.482   1.602 -1.5693 -0.5536 -0.9645
11322TIP3    H233889   6.081   7.397   1.487 -1.7227  0.6881 -1.9711
11323TIP3   OH233890   2.552   2.788   1.386  0.4244  0.0154  0.7730
11323TIP3    H133891   2.647   2.798   1.374  0.5739 -1.9564 -0.0512
11323TIP3    H233892   2.542   2.704   1.431 -0.9868 -0.7578 -0.8704
11324TIP3   OH233893   0.977   2.310   1.645 -0.5436  0.1875  0.2145
11324TIP3    H133894   1.049   2.306   1.707  0.2024  1.7078 -0.5017
11324TIP3    H233895   0.953   2.403   1.643  0.0022  0.3290 -2.3614
11325TIP3   OH233896   6.089   2.059   0.347  0.4071  0.3037  0.3933
11325TIP3    H133897   6.108   2.019   0.262  0.2358 -0.1994  0.5870
11325TIP3    H233898   6.096   2.153   0.331  0.7892  0.2011 -0.0775
11326TIP3   OH233899   0.772   2.819   1.954 -0.3992  0.2080 -0.2810
11326TIP3    H133900   0.692   2.838   2.002  0.8954  0.6233  1.8059
11326TIP3    H233901   0.748   2.832   1.862 -2.7023  0.3106  0.2707
11327TIP3   OH233902   2.101   8.124   1.544  0.4641 -0.4950 -0.4160
11327TIP3    H133903   2.157   8.155   1.473  2.2622  1.7964  1.8340
11327TIP3    H233904   2.037   8.194   1.555 -1.0756 -1.7422 -0.9809
11328TIP3   OH233905   4.334   2.441   5.731 -0.8921  0.0624  0.0648
11328TIP3    H133906   4.275   2.376   5.693 -0.9792 -0.2039  0.6555
11328TIP3    H233907   4.363   2.403   5.813  0.4974 -0.0340 -0.4393
11329TIP3   OH233908   8.219   1.360   2.473  0.0050 -0.8524  0.1918
11329TIP3    H133909   8.263   1.316   2.400 -0.0092 -0.1445 -0.2531
11329TIP3    H233910   8.195   1.289   2.533  0.5945 -1.3745 -0.1817
11330TIP3   OH233911   1.254   3.582   6.577  0.1911  0.4921 -0.4736
11330TIP3    H133912   1.183   3.580   6.513 -1.0155 -3.0544  0.7403
11330TIP3    H233913   1.209   3.592   6.661  0.6400 -4.3214  0.5881
11331TIP3   OH233914   3.700   3.020   3.536  0.0744 -0.1566  0.3173
11331TIP3    H133915   3.618   2.988   3.574  0.8422 -1.8160  0.6638
11331TIP3    H233916   3.696   2.991   3.445  0.6401 -1.0262  0.5565
11332TIP3   OH233917   4.949   5.732   0.795  0.0191  0.1398  0.3857
11332TIP3    H133918   4.981   5.732   0.885  0.3119 -0.2420  0.2822
11332TIP3    H233919   4.883   5.663   0.792 -0.2503  0.3925  0.3949
11333TIP3   OH233920   0.786   0.751   3.549 -0.3379  0.0430  0.1298
11333TIP3    H133921   0.858   0.689   3.561 -0.7120 -0.5543 -0.5884
11333TIP3    H233922   0.797   0.783   3.460 -1.2364 -0.4332 -0.1639
11334TIP3   OH233923   1.804   6.307   0.856 -0.6425 -0.1707 -0.5443
11334TIP3    H133924   1.882   6.273   0.900 -0.5207  2.3957  1.4231
11334TIP3    H233925   1.815   6.280   0.765  2.4321 -0.1059 -0.2964
11335TIP3   OH233926   5.511   0.959   4.463 -0.1170 -0.1717  0.4457
11335TIP3    H133927   5.598   0.955   4.503  0.0803  0.9264  0.1650
11335TIP3    H233928   5.523   0.922   4.376  0.2086  0.5110  0.1950
11336TIP3   OH233929   5.204   0.688   3.834  0.3022 -0.2702 -0.2486
11336TIP3    H133930   5.282   0.677   3.779 -1.1634 -0.0189 -2.5469
11336TIP3    H233931   5.142   0.622   3.801 -0.4015 -0.6284  1.6681
11337TIP3   OH233932   7.158   3.752   2.148  0.1034 -0.1142 -0.3538
11337TIP3    H133933   7.159   3.817   2.218  0.2796 -1.7314  1.2309
11337TIP3    H233934   7.248   3.751   2.116  0.5204 -0.6810  0.7515
11338TIP3   OH233935   4.115   2.008   2.821 -0.4000 -0.0963 -0.2618
11338TIP3    H133936   4.129   1.965   2.905 -0.2595  0.6449  0.0990
11338TIP3    H233937   4.048   2.074   2.839 -1.0307 -0.5331 -0.9371
11339TIP3   OH233938   5.514   3.229   2.085  0.3946 -0.2177 -0.0692
11339TIP3    H133939   5.454   3.159   2.110  1.3461 -0.5644  1.3552
11339TIP3    H233940   5.466   3.310   2.104 -0.5069 -0.4466 -1.2242
11340TIP3   OH233941   0.754   8.102   6.931 -0.6274 -0.0792 -0.7020
11340TIP3    H133942   0.673   8.088   6.980  0.5222  0.8143  1.5744
11340TIP3    H233943   0.797   8.175   6.975  2.0834 -1.4098 -0.9365
11341TIP3   OH233944   5.211   7.535   6.966  0.5276  0.0511  0.2304
11341TIP3    H133945   5.266   7.460   6.989  2.0942  0.8377 -0.8302
11341TIP3    H233946   5.138   7.496   6.916  1.4887 -0.7597 -0.5877
11342TIP3   OH233947   3.999   5.769   0.452  0.4500  0.3295  0.3713
11342TIP3    H133948   4.072   5.731   0.405 -0.4540  1.0648 -1.7319
11342TIP3    H233949   3.955   5.694   0.493  2.8883 -0.0341  2.6437
11343TIP3   OH233950   5.015   3.466   0.068 -0.0607  0.0099  0.9154
11343TIP3    H133951   5.039   3.512   0.148 -1.8025 -0.0734  1.5262
11343TIP3    H233952   4.927   3.433   0.085  0.4189 -2.0297 -0.1571
11344TIP3   OH233953   5.431   3.820   0.253  0.1423 -0.2518  0.0465
11344TIP3    H133954   5.398   3.887   0.313 -1.6907  1.4848 -2.6432
11344TIP3    H233955   5.508   3.860   0.212  1.3151 -1.3710  1.1019
11345TIP3   OH233956   2.729   6.282   3.254  0.8027 -0.0094  0.3436
11345TIP3    H133957   2.766   6.200   3.222  1.8445  1.2127 -1.8441
11345TIP3    H233958   2.634   6.266   3.256  0.9644 -1.1843 -0.3558
11346TIP3   OH233959   8.301   1.529   7.069 -0.0212 -0.4549 -0.1688
11346TIP3    H133960   8.297   1.434   7.086 -1.1364 -0.6562 -1.4119
11346TIP3    H233961   8.349   1.536   6.987 -3.1256 -0.2906 -2.1342
11347TIP3   OH233962   6.180   7.462   5.337  0.3149 -0.3075  0.0873
11347TIP3    H133963   6.274   7.460   5.321  0.0125 -0.7266 -1.7789
11347TIP3    H233964   6.164   7.551   5.370  0.7472  1.6502 -4.2347
11348TIP3   OH233965   0.697   5.568   5.253  0.1830 -0.1707  0.4184
11348TIP3    H133966   0.602   5.578   5.252  0.1611 -0.3164 -1.5274
11348TIP3    H233967   0.717   5.546   5.344 -1.5532  0.5586  1.0307
11349TIP3   OH233968   6.107   3.089   2.724  0.1602 -0.6457 -0.1884
11349TIP3    H133969   6.031   3.087   2.666 -0.2874  0.0175  0.3698
11349TIP3    H233970   6.077   3.047   2.805  0.0184  0.6494  0.4571
11350TIP3   OH233971   2.010   7.676   4.222 -0.2363  0.3737 -0.0581
11350TIP3    H133972   2.006   7.704   4.313 -2.1105  1.0795 -0.3063
11350TIP3    H233973   1.983   7.584   4.223 -0.6080  0.4834  0.0683
11351TIP3   OH233974   3.303   6.257   5.478  0.2134  0.7967  0.0718
11351TIP3    H133975   3.381   6.284   5.430 -0.0425 -0.5750 -1.1780
11351TIP3    H233976   3.231   6.303   5.436  0.0485 -0.0244 -0.5729
11352TIP3   OH233977   0.524   1.214   0.508 -0.1497 -0.3298  0.2529
11352TIP3    H133978   0.474   1.137   0.479 -0.5627 -0.7338  1.9163
11352TIP3    H233979   0.496   1.284   0.449  0.8970 -1.6115 -1.8725
11353TIP3   OH233980   5.938   0.649   0.578  0.0748 -0.1982  0.3365
11353TIP3    H133981   5.977   0.567   0.606  1.4659  0.7120  1.2122
11353TIP3    H233982   5.934   0.643   0.483 -1.6232 -2.0103  0.4657
11354TIP3   OH233983   0.075   4.676   0.113  0.1155  0.2606 -0.0355
11354TIP3    H133984   0.099   4.584   0.122  3.1520  0.8988 -0.3776
11354TIP3    H233985   0.079   4.710   0.202  0.6082  0.3758 -0.0977
11355TIP3   OH233986   0.232   0.775   2.909 -0.6678 -1.3755 -0.1472
11355TIP3    H133987   0.171   0.820   2.849 -0.7084 -1.1268  0.0749
11355TIP3    H233988   0.272   0.846   2.960  0.0022 -1.5182 -0.4660
11356TIP3   OH233989   7.369   7.402   2.368  0.1017 -0.4975  0.5730
11356TIP3    H133990   7.457   7.408   2.404 -0.0128 -0.7541  0.9063
11356TIP3    H233991   7.341   7.313   2.389  0.7142 -1.3020 -1.7535
11357TIP3   OH233992   5.663   1.304   2.179  0.2311  0.9246  0.4281
11357TIP3    H133993   5.749   1.334   2.209  0.0960  0.7024  1.0484
11357TIP3    H233994   5.682   1.230   2.122  0.5327  1.8044 -0.6561
11358TIP3   OH233995   4.951   5.589   6.950 -0.0532  0.5481  0.6854
11358TIP3    H133996   5.017   5.612   6.885 -1.5800  0.0598 -1.1038
11358TIP3    H233997   4.958   5.659   7.016  1.7198  0.9047  0.1887
11359TIP3   OH233998   6.417   3.138   5.979  0.2046  1.3345 -0.1844
11359TIP3    H133999   6.405   3.229   5.951  1.2722  1.6159  0.2156
11359TIP3    H234000   6.453   3.093   5.902  3.8930  2.2800  0.7609
11360TIP3   OH234001   6.600   5.256   2.311  0.1790  0.0569 -0.1428
11360TIP3    H134002   6.595   5.256   2.407  0.6582  1.7385 -0.0971
11360TIP3    H234003   6.693   5.266   2.292 -0.1633  3.2359 -0.7050
11361TIP3   OH234004   3.292   8.011   6.894 -0.2381 -0.2027  0.6856
11361TIP3    H134005   3.268   7.924   6.926 -0.5514 -0.9377 -1.3691
11361TIP3    H234006   3.299   8.000   6.799 -1.4853  2.2839  0.2244
11362TIP3   OH234007   1.378   0.761   3.353 -0.1421  0.7243 -0.0031
11362TIP3    H134008   1.369   0.774   3.447 -1.7569  1.0211 -0.1711
11362TIP3    H234009   1.391   0.667   3.343  1.4707  0.8626  0.5883
11363TIP3   OH234010   1.688   4.520   0.625 -0.1745  0.1852  0.1086
11363TIP3    H134011   1.696   4.432   0.588  0.6132 -0.2303  1.2055
11363TIP3    H234012   1.605   4.519   0.672 -0.9497  0.5645 -1.2082
11364TIP3   OH234013   1.450   3.187   0.364  0.5386  0.3226  0.2324
11364TIP3    H134014   1.402   3.112   0.398  0.5455 -0.2041 -0.8946
11364TIP3    H234015   1.479   3.161   0.277 -1.8989  2.6122 -1.4142
11365TIP3   OH234016   5.480   0.591   1.003 -0.0081 -0.1008 -0.0487
11365TIP3    H134017   5.464   0.553   0.917  2.1089 -2.4872  0.4909
11365TIP3    H234018   5.565   0.555   1.030  0.6592  2.6092  1.9648
11366TIP3   OH234019   7.991   4.779   3.344 -0.7026  0.3846 -0.5045
11366TIP3    H134020   8.008   4.685   3.341 -1.3265  0.0929  2.4646
11366TIP3    H234021   7.912   4.788   3.397 -0.6692  2.5901 -0.7187
11367TIP3   OH234022   5.481   5.338   6.568  0.3905  0.1478 -0.2231
11367TIP3    H134023   5.510   5.422   6.602  0.6254 -0.3796  0.8973
11367TIP3    H234024   5.558   5.282   6.571 -0.1971 -0.6370  0.7576
11368TIP3   OH234025   6.310   3.741   4.789 -0.4537 -0.1636 -0.9695
11368TIP3    H134026   6.369   3.670   4.765 -0.7382 -1.6976  2.4044
11368TIP3    H234027   6.359   3.793   4.853 -2.1259 -0.5395  0.6956
11369TIP3   OH234028   5.694   5.154   5.460 -0.6414  0.0781  0.0613
11369TIP3    H134029   5.756   5.085   5.485 -0.6002  0.0066 -0.2428
11369TIP3    H234030   5.612   5.128   5.503 -0.4358  0.2355  0.5625
11370TIP3   OH234031   5.435   6.999   2.422  0.6651  0.0637 -0.2508
11370TIP3    H134032   5.415   6.981   2.514  0.0418  0.4846 -0.2957
11370TIP3    H234033   5.410   7.091   2.410  0.5024 -0.0653 -0.9047
11371TIP3   OH234034   1.572   0.051   3.424  0.3083  0.1087  0.5345
11371TIP3    H134035   1.533   0.138   3.429 -0.9565 -0.4334  0.4651
11371TIP3    H234036   1.635   0.057   3.352 -0.0588  0.8502  0.2664
11372TIP3   OH234037   4.316   7.649   4.817  0.1437  0.1372 -0.4756
11372TIP3    H134038   4.368   7.709   4.871 -2.0264  1.7493 -0.0543
11372TIP3    H234039   4.293   7.578   4.877 -1.7269  1.6108  0.6990
11373TIP3   OH234040   1.836   3.586   6.038  0.4372 -0.1295 -0.4219
11373TIP3    H134041   1.929   3.593   6.059  0.7731 -1.1906 -1.3972
11373TIP3    H234042   1.816   3.667   5.991  0.5031  0.7269  0.9709
11374TIP3   OH234043   6.942   1.951   3.754 -0.0038  0.2134  0.0644
11374TIP3    H134044   7.027   1.993   3.766  0.2813  0.0590 -1.2080
11374TIP3    H234045   6.892   1.975   3.831  0.5524  1.8880 -0.0631
11375TIP3   OH234046   3.383   4.795   2.612  0.6297 -0.4052 -0.2033
11375TIP3    H134047   3.426   4.834   2.688  0.1399 -0.9482  0.3699
11375TIP3    H234048   3.347   4.713   2.645 -0.0428 -0.3993 -0.8954
11376TIP3   OH234049   5.543   5.978   5.538 -0.5953  0.0632  0.2924
11376TIP3    H134050   5.461   5.971   5.490  0.2910 -2.1288 -1.0591
11376TIP3    H234051   5.583   6.059   5.505 -0.3458 -0.9897 -2.2988
11377TIP3   OH234052   5.460   7.053   5.962 -0.1927  0.3446 -0.3245
11377TIP3    H134053   5.425   7.078   6.047  1.7351  0.3980  0.4858
11377TIP3    H234054   5.480   7.135   5.918 -1.6890  0.3408 -1.1210
11378TIP3   OH234055   6.506   6.413   0.027  0.4967 -0.2479 -0.0446
11378TIP3    H134056   6.474   6.375  -0.055 -0.2830  0.8677 -0.2831
11378TIP3    H234057   6.450   6.374   0.094 -0.5927  0.7412 -0.3333
11379TIP3   OH234058   0.548   7.268   6.701  0.1241  0.4428  0.1674
11379TIP3    H134059   0.616   7.262   6.768  0.5093  0.4928 -0.2157
11379TIP3    H234060   0.527   7.176   6.680  0.5323  0.4242 -0.1723
11380TIP3   OH234061   3.976   3.874   1.846  0.3068  0.3672  0.3824
11380TIP3    H134062   4.034   3.937   1.803 -0.0601  1.4807  1.4646
11380TIP3    H234063   4.021   3.853   1.928  0.8593 -1.5139 -0.3367
11381TIP3   OH234064   7.751   3.988   3.875  0.2327 -1.1823 -0.2246
11381TIP3    H134065   7.659   3.987   3.900  0.6641 -0.6615  1.5469
11381TIP3    H234066   7.786   3.905   3.908  0.8264 -0.4696  1.0047
11382TIP3   OH234067   0.842   2.921   2.942 -0.3309  0.2036 -0.2177
11382TIP3    H134068   0.845   2.854   2.874 -0.8438 -0.8142  0.7414
11382TIP3    H234069   0.752   2.917   2.975 -0.0446  0.5808  0.6268
11383TIP3   OH234070   6.488   4.271   3.013 -0.2411  0.2413  0.8248
11383TIP3    H134071   6.567   4.220   2.996 -0.5527  0.3414 -1.1927
11383TIP3    H234072   6.515   4.362   2.999 -1.0262  0.1763 -1.5391
11384TIP3   OH234073   5.210   3.432   4.881 -0.1990  0.1773 -0.0888
11384TIP3    H134074   5.176   3.494   4.947  0.0958  0.7536 -0.4734
11384TIP3    H234075   5.199   3.478   4.798 -2.1174 -1.1829 -0.6651
11385TIP3   OH234076   3.771   3.813   3.494 -0.3465  0.4147 -0.0430
11385TIP3    H134077   3.701   3.877   3.510 -1.9430 -1.6092  1.7181
11385TIP3    H234078   3.727   3.728   3.498  1.9821 -0.9029 -0.4679
11386TIP3   OH234079   1.610   4.116   0.268 -0.0042 -0.2262 -0.2599
11386TIP3    H134080   1.589   4.189   0.327  0.4909  0.1828 -0.5840
11386TIP3    H234081   1.532   4.106   0.214  0.4110  0.9434 -1.1064
11387TIP3   OH234082   6.486   7.700   0.850  0.0215  0.9703  0.1211
11387TIP3    H134083   6.481   7.618   0.899  2.0322  0.1360 -0.9182
11387TIP3    H234084   6.550   7.753   0.897  1.6356  0.3389 -1.2522
11388TIP3   OH234085   4.565   2.095   6.401  0.1612 -0.1864  0.0993
11388TIP3    H134086   4.469   2.095   6.405  0.1979 -1.0940  1.8371
11388TIP3    H234087   4.585   2.055   6.316 -0.9783  1.0024 -0.7709
11389TIP3   OH234088   8.580   2.235   2.487 -0.4823 -0.5469  0.1243
11389TIP3    H134089   8.625   2.288   2.553  0.3660 -0.4161 -0.5492
11389TIP3    H234090   8.495   2.215   2.527  0.0523 -0.5609  1.2979
11390TIP3   OH234091   1.416   7.559   1.854  0.0805 -0.2185 -0.2777
11390TIP3    H134092   1.373   7.526   1.775 -0.3898  0.8848 -0.4997
11390TIP3    H234093   1.345   7.591   1.909  0.4754 -0.0825  0.1668
11391TIP3   OH234094   3.854   4.536   5.799 -0.0968 -0.0421 -0.1038
11391TIP3    H134095   3.929   4.572   5.752  0.6928 -1.5829 -0.0654
11391TIP3    H234096   3.885   4.529   5.890 -0.8335  0.7584  0.2237
11392TIP3   OH234097   1.840   4.883   2.549 -0.0352 -0.0861 -0.4931
11392TIP3    H134098   1.900   4.855   2.619  0.0520 -2.0202 -1.2750
11392TIP3    H234099   1.891   4.874   2.469 -0.8271 -0.0368 -1.0135
11393TIP3   OH234100   5.637   5.333   5.184  0.2488  0.0108  0.6441
11393TIP3    H134101   5.682   5.250   5.170  3.5056  1.0817  3.3259
11393TIP3    H234102   5.551   5.308   5.218  0.0208 -2.1621 -1.2777
11394TIP3   OH234103   4.768   3.819   2.830 -0.1995  0.2170  0.5189
11394TIP3    H134104   4.823   3.890   2.797 -1.5854  1.7867  1.4388
11394TIP3    H234105   4.725   3.855   2.908 -2.6521 -0.8243 -0.2327
11395TIP3   OH234106   2.058   3.377   1.507  0.2609  0.0220  0.4606
11395TIP3    H134107   2.070   3.328   1.588 -0.0978 -1.1055 -0.1439
11395TIP3    H234108   2.026   3.462   1.534  0.0037 -0.3953  1.4936
11396TIP3   OH234109   8.160   7.376   0.650 -0.5974 -0.1446 -0.2143
11396TIP3    H134110   8.120   7.295   0.681 -1.0740 -0.6311 -2.0199
11396TIP3    H234111   8.253   7.367   0.671 -0.9481 -0.2298  1.4565
11397TIP3   OH234112   0.420   3.822   0.182 -0.0738 -0.0641  0.1358
11397TIP3    H134113   0.500   3.874   0.188  0.7276 -1.2972  0.6420
11397TIP3    H234114   0.433   3.750   0.245 -1.6147 -0.2508  0.2815
11398TIP3   OH234115   4.132   5.632   6.145 -0.2092  0.7612 -0.4792
11398TIP3    H134116   4.169   5.675   6.222 -2.7934  0.2306  1.1836
11398TIP3    H234117   4.066   5.693   6.112 -2.6659 -0.9871  0.8457
11399TIP3   OH234118   5.597   5.675   0.519  0.2129  0.3867  0.1722
11399TIP3    H134119   5.648   5.737   0.468  0.2785 -0.7928 -1.2660
11399TIP3    H234120   5.569   5.608   0.456 -0.6299 -0.5553  1.4750
11400TIP3   OH234121   5.511   2.218   4.828  0.1003  0.3477  0.2588
11400TIP3    H134122   5.567   2.212   4.905 -0.0022 -1.0509  0.2430
11400TIP3    H234123   5.572   2.234   4.756  0.5783 -1.5679  0.1838
11401TIP3   OH234124   2.510   6.653   1.361  0.4394  0.0510 -0.8946
11401TIP3    H134125   2.459   6.592   1.307  1.3265 -0.4980 -1.1344
11401TIP3    H234126   2.450   6.725   1.378 -0.6058 -0.8340 -0.6915
11402TIP3   OH234127   8.206   0.237   4.029 -0.2227  0.0253  0.2214
11402TIP3    H134128   8.143   0.301   4.063 -0.5510 -0.1090 -0.1102
11402TIP3    H234129   8.268   0.289   3.978 -0.9172  0.0117 -0.6621
11403TIP3   OH234130   0.798   7.234   0.417 -0.1915  0.1849  0.3217
11403TIP3    H134131   0.772   7.272   0.500 -1.9270 -0.1993 -0.0080
11403TIP3    H234132   0.883   7.274   0.398 -0.6777  1.7806  1.3066
11404TIP3   OH234133   1.776   1.352   5.664  0.1587  0.5577 -0.0014
11404TIP3    H134134   1.798   1.361   5.571 -0.7801  1.7448 -0.1351
11404TIP3    H234135   1.852   1.308   5.702  0.2039 -0.7557 -1.4759
11405TIP3   OH234136   0.167   2.621   3.794  0.1976 -0.4345  0.0574
11405TIP3    H134137   0.182   2.701   3.744  1.1718 -0.6425  0.0002
11405TIP3    H234138   0.216   2.554   3.747  0.9459 -0.6747  1.1480
11406TIP3   OH234139   6.119   0.262   1.087  0.4227  1.0065 -0.1487
11406TIP3    H134140   6.044   0.221   1.044  1.2663 -0.5165 -0.2095
11406TIP3    H234141   6.084   0.345   1.120 -0.9240  0.9880 -1.4035
11407TIP3   OH234142   6.599   0.638   5.785 -0.5976  0.1147  0.1307
11407TIP3    H134143   6.529   0.586   5.826  0.0516  1.4719  3.2440
11407TIP3    H234144   6.552   0.701   5.729 -1.6382 -0.9605 -0.2511
11408TIP3   OH234145   8.187   7.480   4.584 -0.6180 -0.7210  0.1144
11408TIP3    H134146   8.219   7.436   4.662 -1.8819 -1.1215  0.4272
11408TIP3    H234147   8.213   7.571   4.595  0.9329 -1.1143  0.0478
11409TIP3   OH234148   0.623   5.460   0.362 -0.5755  0.4526  0.6487
11409TIP3    H134149   0.560   5.436   0.430 -0.4608 -1.1944  0.2266
11409TIP3    H234150   0.606   5.398   0.291  1.0519  0.4326  0.2402
11410TIP3   OH234151   8.323   7.455   1.065  0.1965  0.6061 -0.0352
11410TIP3    H134152   8.375   7.398   1.122  0.2251  1.2933  0.6539
11410TIP3    H234153   8.232   7.431   1.083  0.2163  0.6150  0.0784
11411TIP3   OH234154   4.562   0.579   1.823  0.5099 -0.0834  0.1895
11411TIP3    H134155   4.566   0.607   1.731 -0.3473 -0.2939  0.0752
11411TIP3    H234156   4.550   0.660   1.873 -1.4764 -0.1258 -0.1006
11412TIP3   OH234157   3.714   4.075   4.008 -0.3583  0.1369  0.1034
11412TIP3    H134158   3.767   4.105   3.934 -2.0722  2.7421 -0.1773
11412TIP3    H234159   3.703   3.981   3.993  2.3062 -0.0867 -0.9577
11413TIP3   OH234160   6.844   4.406   3.494 -0.6154 -0.5072 -0.0915
11413TIP3    H134161   6.876   4.316   3.502 -0.1519 -0.2148  1.8444
11413TIP3    H234162   6.806   4.410   3.407 -0.5718 -2.5542 -0.2531
11414TIP3   OH234163   0.455   2.194   1.539 -0.0242 -0.0040  0.2054
11414TIP3    H134164   0.424   2.283   1.558  0.8398  0.8335 -1.8972
11414TIP3    H234165   0.536   2.186   1.590 -0.4366  0.1700  0.8999
11415TIP3   OH234166   3.165   0.347   6.229 -0.2296 -0.1266  0.1558
11415TIP3    H134167   3.200   0.262   6.258 -0.5896 -0.6496 -0.8623
11415TIP3    H234168   3.240   0.407   6.234 -0.2307 -0.2377  1.8842
11416TIP3   OH234169   0.182   2.400   2.496 -0.5228 -0.1723 -0.5441
11416TIP3    H134170   0.165   2.493   2.485 -0.7100 -0.1541 -0.0921
11416TIP3    H234171   0.187   2.366   2.406  0.3209  0.4082 -0.7296
11417TIP3   OH234172   3.373   6.095   5.902 -0.1565  0.3821 -0.4663
11417TIP3    H134173   3.455   6.053   5.929  0.1212  2.2123  1.8978
11417TIP3    H234174   3.306   6.046   5.949 -0.0190  1.2680  0.6875
11418TIP3   OH234175   0.008   6.728   5.584  0.3609  0.3668 -0.2339
11418TIP3    H134176   0.022   6.818   5.555  1.7100 -0.1862 -1.4328
11418TIP3    H234177   0.091   6.702   5.625 -0.1887 -0.1662  0.5689
11419TIP3   OH234178   3.389   0.149   6.271  0.2398 -0.6200  0.3701
11419TIP3    H134179   3.414   0.216   6.207  0.7659 -0.5753  0.6125
11419TIP3    H234180   3.461   0.149   6.334 -0.5749 -0.1941  1.3319
11420TIP3   OH234181   5.277   7.984   6.241  0.3436 -0.3979  0.5145
11420TIP3    H134182   5.334   8.046   6.196 -0.6449 -0.4650 -0.8978
11420TIP3    H234183   5.247   8.030   6.319 -2.9092  2.3217 -2.0162
11421TIP3   OH234184   0.090   7.210   1.447 -0.0458  0.4115 -0.1626
11421TIP3    H134185   0.013   7.185   1.498 -1.6698  0.7247 -2.3233
11421TIP3    H234186   0.158   7.226   1.513 -2.0591  1.0260  1.9029
11422TIP3   OH234187   1.197   0.217   6.527  0.4800 -0.0718 -0.4953
11422TIP3    H134188   1.150   0.247   6.449 -0.0383 -0.4879 -0.3482
11422TIP3    H234189   1.166   0.274   6.597  0.7916  0.1685 -0.5517
11423TIP3   OH234190   4.167   7.013   1.352  0.3541 -0.3011 -0.4199
11423TIP3    H134191   4.205   6.958   1.284  0.4514 -0.0415 -0.5775
11423TIP3    H234192   4.222   6.999   1.429 -1.0974 -2.4022  0.3404
11424TIP3   OH234193   7.046   1.777   6.710 -0.5404  0.2255  0.2894
11424TIP3    H134194   7.120   1.800   6.653 -1.6247  1.3482 -0.7513
11424TIP3    H234195   7.024   1.859   6.754 -0.1760 -0.4752  1.8061
11425TIP3   OH234196   2.760   3.030   4.933 -0.6106 -0.0283 -0.6833
11425TIP3    H134197   2.788   2.940   4.917  0.5327 -0.3153  2.1977
11425TIP3    H234198   2.718   3.027   5.019 -0.8840  2.1238 -0.6797
11426TIP3   OH234199   5.036   2.064   4.968  0.0920  0.0339  0.3826
11426TIP3    H134200   4.989   2.014   4.900 -1.1550 -0.1628  1.3574
11426TIP3    H234201   5.124   2.026   4.968 -0.2374 -0.7771 -0.3036
11427TIP3   OH234202   4.194   6.691   0.282 -0.3839  0.2609 -0.4369
11427TIP3    H134203   4.184   6.596   0.278 -0.3085  0.2161  0.2721
11427TIP3    H234204   4.111   6.726   0.250 -1.6795 -0.0709  2.2805
11428TIP3   OH234205   3.828   5.000   6.668 -0.0325  0.8920  0.1184
11428TIP3    H134206   3.907   4.961   6.704  1.0744  1.9636 -1.0785
11428TIP3    H234207   3.845   5.009   6.574 -1.1362  2.1610  0.0067
11429TIP3   OH234208   0.444   4.923   4.404  0.3408  0.1088 -0.0424
11429TIP3    H134209   0.513   4.945   4.467 -0.9413  1.5909  0.9350
11429TIP3    H234210   0.379   4.876   4.456 -0.3432  0.5848 -0.4510
11430TIP3   OH234211   6.139   4.718   5.497 -0.0993 -0.1571  0.9372
11430TIP3    H134212   6.152   4.697   5.405  1.6681  0.4370  1.0020
11430TIP3    H234213   6.092   4.643   5.534 -1.0210 -0.2999 -0.4694
11431TIP3   OH234214   3.679   5.459   1.813  0.6515  0.2401 -0.2802
11431TIP3    H134215   3.627   5.494   1.740  0.8590 -1.4098 -1.2556
11431TIP3    H234216   3.714   5.537   1.857 -1.3585  1.3545 -0.5269
11432TIP3   OH234217   4.547   2.567   4.790  0.0986 -0.1250 -0.2296
11432TIP3    H134218   4.613   2.543   4.855 -0.0491  0.2666  0.0678
11432TIP3    H234219   4.531   2.660   4.806 -1.0822 -0.3870  0.2054
11433TIP3   OH234220   2.787   1.406   3.462 -0.9043  0.2807 -0.1448
11433TIP3    H134221   2.852   1.476   3.471  0.0626 -0.3527 -1.7666
11433TIP3    H234222   2.728   1.419   3.536  0.9207  1.0328  1.2847
11434TIP3   OH234223   7.771   6.922   6.747  0.1878  0.4747  0.5084
11434TIP3    H134224   7.703   6.911   6.680  1.7548  1.1336 -1.2884
11434TIP3    H234225   7.733   6.983   6.810 -1.5121 -0.5153  0.4950
11435TIP3   OH234226   5.855   4.255   6.942 -0.0481 -0.1262  0.0939
11435TIP3    H134227   5.825   4.340   6.974  0.8249  0.7548 -1.3095
11435TIP3    H234228   5.905   4.218   7.015 -0.4954  0.5303  0.7435
11436TIP3   OH234229   7.359   4.481   4.699  0.0144 -0.5214 -0.0510
11436TIP3    H134230   7.409   4.405   4.727  0.5494 -0.0648  0.2508
11436TIP3    H234231   7.348   4.534   4.777 -0.3684 -0.2864 -0.2559
11437TIP3   OH234232   4.411   7.617   2.323  0.1050  0.0814 -0.0128
11437TIP3    H134233   4.436   7.668   2.400 -0.9444 -0.5480  0.7689
11437TIP3    H234234   4.339   7.666   2.284  0.3319  0.1605 -0.3289
11438TIP3   OH234235   5.632   6.947   1.942  0.3941 -0.4215 -0.0835
11438TIP3    H134236   5.580   6.941   2.022  0.3693 -0.2405 -0.0846
11438TIP3    H234237   5.570   6.979   1.876  0.5493 -0.0301 -0.0433
11439TIP3   OH234238   7.438   4.150   4.412 -0.5406  0.0435  0.0499
11439TIP3    H134239   7.508   4.117   4.357 -1.1524  0.1628 -0.8165
11439TIP3    H234240   7.366   4.168   4.352 -1.4358 -0.3905  0.9618
11440TIP3   OH234241   5.038   6.457   4.446 -0.4445 -0.2796 -0.3204
11440TIP3    H134242   5.003   6.484   4.362  0.1068  0.4678 -0.3188
11440TIP3    H234243   5.056   6.538   4.493 -0.6940 -0.6849  0.5042
11441TIP3   OH234244   4.396   5.287   3.804  1.2020 -0.0371 -0.3526
11441TIP3    H134245   4.313   5.263   3.847  0.6121  1.3576 -0.6745
11441TIP3    H234246   4.459   5.225   3.840  0.0295 -1.1341 -0.0911
11442TIP3   OH234247   6.586   4.086   6.489 -0.1695  0.6000  0.0012
11442TIP3    H134248   6.493   4.081   6.513 -0.0295 -0.6507  0.3427
11442TIP3    H234249   6.622   4.001   6.514  0.5736  0.1917 -2.2148
11443TIP3   OH234250   6.428   5.416   6.507 -0.3633  0.1010 -0.2263
11443TIP3    H134251   6.444   5.505   6.477  0.6855 -0.1559 -0.4749
11443TIP3    H234252   6.432   5.363   6.428 -0.4317 -0.2307 -0.0085
11444TIP3   OH234253   7.939   5.472   0.102 -0.4761 -0.6415  0.5474
11444TIP3    H134254   7.968   5.418   0.176  1.1911  0.2791  0.6147
11444TIP3    H234255   7.975   5.559   0.121  2.4795 -0.9649 -2.6322
11445TIP3   OH234256   3.215   1.954   2.368 -0.0766 -0.3762  0.7443
11445TIP3    H134257   3.218   2.009   2.447 -0.2134  0.0740  0.4419
11445TIP3    H234258   3.302   1.915   2.363  0.3057  0.4965  0.4877
11446TIP3   OH234259   1.327   5.739   4.447  0.6107 -0.3337 -0.0918
11446TIP3    H134260   1.385   5.691   4.506 -0.0091 -1.2191 -0.1659
11446TIP3    H234261   1.381   5.759   4.371  1.2680  0.3377  0.5317
11447TIP3   OH234262   6.290   4.159   3.891 -0.0550  0.5017  0.3360
11447TIP3    H134263   6.210   4.121   3.927  0.3288 -0.6800  0.0085
11447TIP3    H234264   6.303   4.112   3.808  1.1910  0.3681  0.5897
11448TIP3   OH234265   1.485   0.294   4.327  0.2468  0.9792  0.3852
11448TIP3    H134266   1.450   0.205   4.333  1.9474  0.3097  0.8887
11448TIP3    H234267   1.411   0.350   4.351 -1.2768 -0.1749 -1.2971
11449TIP3   OH234268   5.803   7.777   0.094 -0.2236 -0.0787  0.1755
11449TIP3    H134269   5.786   7.725   0.173 -0.1343 -0.2598  0.0758
11449TIP3    H234270   5.898   7.786   0.091 -0.1553 -0.9076 -0.4390
11450TIP3   OH234271   3.691   3.136   4.852  0.0166 -0.3319  0.2163
11450TIP3    H134272   3.651   3.222   4.843  1.2328  0.3217  0.9196
11450TIP3    H234273   3.620   3.080   4.885 -0.2186  0.9232  1.9598
11451TIP3   OH234274   2.340   5.547   6.929 -0.4661 -0.0093  0.2166
11451TIP3    H134275   2.335   5.452   6.922  0.3743 -0.0616  0.2509
11451TIP3    H234276   2.257   5.578   6.892 -0.5251 -0.7288 -0.2690
11452TIP3   OH234277   6.821   0.962   4.583 -0.4982  0.0997  0.0524
11452TIP3    H134278   6.866   0.934   4.663 -1.5724 -0.8963  0.3170
11452TIP3    H234279   6.734   0.924   4.589 -1.1430  1.3489 -0.8407
11453TIP3   OH234280   5.242   1.657   2.253  0.1765  0.0922  0.0072
11453TIP3    H134281   5.191   1.627   2.328 -0.6216 -0.9675 -0.9212
11453TIP3    H234282   5.319   1.601   2.251  0.0191 -0.1242 -0.1538
11454TIP3   OH234283   3.747   1.930   5.829  0.1602  0.3049  0.3472
11454TIP3    H134284   3.698   1.848   5.827  0.9721 -0.1909 -1.2371
11454TIP3    H234285   3.759   1.950   5.922  1.1761 -2.1264  0.7949
11455TIP3   OH234286   1.539   5.335   0.486  0.0529 -0.0389 -0.2160
11455TIP3    H134287   1.597   5.380   0.548  0.3576  1.0672 -1.2689
11455TIP3    H234288   1.569   5.363   0.400 -2.2183  0.8402 -0.8095
11456TIP3   OH234289   5.032   3.742   4.817  0.6972 -0.2357  0.3577
11456TIP3    H134290   5.016   3.702   4.903  0.5892  0.9107  0.9013
11456TIP3    H234291   4.945   3.764   4.785  0.6687 -1.5096 -0.4954
11457TIP3   OH234292   2.274   6.091   0.659  0.1011 -0.4101  0.1388
11457TIP3    H134293   2.359   6.085   0.703  0.0023 -2.0397  0.1681
11457TIP3    H234294   2.239   6.176   0.686  1.3916 -0.0365  0.7202
11458TIP3   OH234295   7.288   1.912   6.672 -0.6344  0.2504 -0.4362
11458TIP3    H134296   7.357   1.911   6.605 -1.0419  1.9479 -0.9351
11458TIP3    H234297   7.322   1.857   6.742  0.5388 -0.2201 -1.3363
11459TIP3   OH234298   1.992   1.711   5.708 -0.0968 -0.1111  0.4435
11459TIP3    H134299   1.930   1.725   5.780 -1.3142  2.1138 -0.9155
11459TIP3    H234300   2.021   1.621   5.718 -2.2222 -0.6814  2.1799
11460TIP3   OH234301  -0.006   4.455   5.925 -0.2237 -0.0142  0.3031
11460TIP3    H134302   0.087   4.433   5.920 -0.4015 -0.4835 -2.4521
11460TIP3    H234303  -0.014   4.534   5.871 -1.2322  0.8761  1.7039
11461TIP3   OH234304   1.048   2.477   4.439 -0.3300 -0.2529  0.0339
11461TIP3    H134305   0.984   2.539   4.472  0.7319  0.3224  1.0563
11461TIP3    H234306   1.113   2.531   4.393  0.8949 -0.5142  1.4038
11462TIP3   OH234307   4.632   5.064   4.916 -0.2018 -0.0224 -0.1867
11462TIP3    H134308   4.687   5.012   4.857 -0.1890 -1.6218  1.1395
11462TIP3    H234309   4.586   5.125   4.859  3.1967  1.7143 -1.3271
11463TIP3   OH234310   8.282   3.855   1.956  0.3147 -0.6843 -0.1451
11463TIP3    H134311   8.220   3.887   2.021 -1.0489 -1.3359 -1.0817
11463TIP3    H234312   8.365   3.898   1.978 -0.9216  1.8311 -0.0640
11464TIP3   OH234313   5.277   5.013   0.812 -0.4262  0.0933 -0.1882
11464TIP3    H134314   5.329   5.028   0.733  2.2169  0.7025  1.5227
11464TIP3    H234315   5.340   4.980   0.876 -2.8835 -2.5050  1.1093
11465TIP3   OH234316   7.779   6.648   2.693 -0.7914 -0.0351  0.0702
11465TIP3    H134317   7.731   6.600   2.761 -0.2611  1.1021  1.2928
11465TIP3    H234318   7.833   6.581   2.651 -0.9268 -0.7286  0.9555
11466TIP3   OH234319   3.061   5.230   5.468 -1.0161  0.2809  0.0463
11466TIP3    H134320   3.109   5.284   5.405  0.3052 -0.6697  0.2222
11466TIP3    H234321   2.982   5.282   5.488 -0.9283  1.0774 -1.5512
11467TIP3   OH234322   1.866   0.239   4.117  0.0557 -0.7751  0.4515
11467TIP3    H134323   1.819   0.264   4.038  0.6004 -0.8145  0.1142
11467TIP3    H234324   1.813   0.169   4.155  0.3897 -1.5571 -0.4888
11468TIP3   OH234325   5.367   4.440   0.914  0.1476 -0.4352 -0.5720
11468TIP3    H134326   5.364   4.482   0.827  0.3895  0.5276 -0.1327
11468TIP3    H234327   5.279   4.405   0.926 -0.7683  1.8387 -0.0826
11469TIP3   OH234328   1.337   7.778   2.317  0.0098 -0.5712  0.6945
11469TIP3    H134329   1.372   7.792   2.229  1.3900  0.2257  1.3352
11469TIP3    H234330   1.324   7.866   2.352 -2.0872 -0.8364  0.7457
11470TIP3   OH234331   3.024   7.621   0.884 -0.6319 -0.3395  0.1639
11470TIP3    H134332   3.034   7.528   0.863 -2.2791 -0.9745  1.8545
11470TIP3    H234333   2.959   7.653   0.822 -2.4963 -1.1961  1.5681
11471TIP3   OH234334   4.873   3.619   4.247 -0.3674  0.0184 -0.1741
11471TIP3    H134335   4.850   3.559   4.317  2.7190 -0.5100  0.5357
11471TIP3    H234336   4.886   3.703   4.290 -0.1079  0.0930 -0.3932
11472TIP3   OH234337   8.097   0.787   5.622 -0.2261 -0.0451 -0.0611
11472TIP3    H134338   8.078   0.751   5.536 -1.6696  1.2382 -0.3034
11472TIP3    H234339   8.192   0.779   5.630 -0.1579 -0.9918 -1.3791
11473TIP3   OH234340   0.795   1.326   1.574  0.1246 -0.1313 -0.4175
11473TIP3    H134341   0.774   1.327   1.667  0.5423  2.4141 -0.2550
11473TIP3    H234342   0.839   1.243   1.559 -0.0020 -0.6134  1.6481
11474TIP3   OH234343   4.552   3.721   5.145 -0.2551  0.2878  0.4085
11474TIP3    H134344   4.505   3.800   5.118  1.0566  1.1432  0.5293
11474TIP3    H234345   4.557   3.726   5.241 -0.3035 -0.0209  0.4302
11475TIP3   OH234346   2.386   5.011   0.129 -0.2834  0.1619  0.5681
11475TIP3    H134347   2.440   5.073   0.178  0.3813 -0.8573  1.1784
11475TIP3    H234348   2.366   5.055   0.047  0.1229  1.1927  1.0123
11476TIP3   OH234349   6.266   5.067   4.446  0.2352 -0.9120 -0.2277
11476TIP3    H134350   6.318   5.067   4.527 -1.0923 -0.3799  0.6498
11476TIP3    H234351   6.255   4.974   4.424 -0.8666 -1.1488  1.2038
11477TIP3   OH234352   3.325   3.531   6.709  0.0171  0.0683  0.1128
11477TIP3    H134353   3.393   3.496   6.767  0.6172 -0.6881 -1.0082
11477TIP3    H234354   3.336   3.482   6.628 -1.1473  0.7405 -0.4693
11478TIP3   OH234355   7.754   7.934   0.045  0.0572 -0.0421  0.3091
11478TIP3    H134356   7.707   8.009   0.010  2.2424  1.1477 -0.2303
11478TIP3    H234357   7.764   7.953   0.139  1.5006  0.9090 -0.0035
11479TIP3   OH234358   6.144   6.287   2.837 -0.0554 -0.2347 -0.1361
11479TIP3    H134359   6.104   6.265   2.753 -1.1504  3.1187 -0.6359
11479TIP3    H234360   6.238   6.292   2.819 -0.0304 -1.7363 -0.5490
11480TIP3   OH234361   2.372   6.830   6.888  0.3240  0.1446 -0.0540
11480TIP3    H134362   2.368   6.887   6.965  1.0065  0.7875 -0.4947
11480TIP3    H234363   2.302   6.766   6.903 -1.4505  1.9421 -0.2516
11481TIP3   OH234364   7.483   3.307   6.979 -0.5115 -0.4456 -0.4617
11481TIP3    H134365   7.418   3.237   6.982 -1.4497  0.4220 -0.4356
11481TIP3    H234366   7.515   3.313   7.069 -1.1453 -0.1740 -0.2504
11482TIP3   OH234367   1.233   5.130   4.881 -0.0388 -0.3888  0.3249
11482TIP3    H134368   1.244   5.058   4.943  2.4704 -0.3002  0.0689
11482TIP3    H234369   1.253   5.209   4.931 -1.6804  0.0635  0.3174
11483TIP3   OH234370   3.607   0.317   1.809  0.7252 -0.0464  0.3857
11483TIP3    H134371   3.564   0.371   1.742  2.5870 -0.4866 -1.2696
11483TIP3    H234372   3.576   0.353   1.892 -3.4871 -0.8550 -0.5707
11484TIP3   OH234373   6.559   4.719   7.003  0.2752 -0.2027  0.5116
11484TIP3    H134374   6.471   4.687   6.982  0.1269  0.7110 -0.3340
11484TIP3    H234375   6.547   4.773   7.081  0.1301 -0.2701  0.5376
11485TIP3   OH234376   7.998   7.070   4.141  0.3675  0.2454 -0.0876
11485TIP3    H134377   7.999   7.008   4.213  1.0552 -0.6464 -0.8235
11485TIP3    H234378   7.925   7.042   4.086 -0.7618  1.5093  0.7233
11486TIP3   OH234379   7.929   1.242   6.147  0.4358 -0.3372 -0.4176
11486TIP3    H134380   7.952   1.239   6.240 -0.7032 -0.4035 -0.1174
11486TIP3    H234381   8.013   1.239   6.101  1.0323  0.0384  0.6111
11487TIP3   OH234382   6.859   4.283   5.325  0.1148  0.3109 -0.3829
11487TIP3    H134383   6.794   4.335   5.277 -0.5040 -1.8148 -1.9508
11487TIP3    H234384   6.943   4.318   5.297 -0.2706 -0.1305 -2.1681
11488TIP3   OH234385   4.965   0.366   6.806 -0.0256 -0.0913 -0.2244
11488TIP3    H134386   4.928   0.374   6.718  0.7874 -0.4174 -0.6074
11488TIP3    H234387   5.053   0.332   6.792  0.1941  0.0603  0.7072
11489TIP3   OH234388   7.397   0.032   2.630  0.0935  0.7254 -0.1013
11489TIP3    H134389   7.373  -0.029   2.560  0.4696  0.2724  0.1550
11489TIP3    H234390   7.322   0.030   2.689 -0.0900  0.8641 -0.3259
11490TIP3   OH234391   5.959   8.031   2.816 -0.3159 -0.0054 -0.2448
11490TIP3    H134392   5.882   7.979   2.838  0.1549 -0.9693 -0.7910
11490TIP3    H234393   6.032   7.969   2.819  0.1463  0.4065 -1.7632
11491TIP3   OH234394   4.431   3.141   2.892 -0.1598 -0.7491 -0.8335
11491TIP3    H134395   4.479   3.059   2.891  0.2956 -0.4877 -0.5045
11491TIP3    H234396   4.463   3.188   2.815  2.4137  0.7216  0.9774
11492TIP3   OH234397   0.392   6.333   5.899  0.0154 -0.8955  0.4791
11492TIP3    H134398   0.423   6.422   5.882 -1.7916  0.2665  2.7664
11492TIP3    H234399   0.341   6.311   5.821  2.2506 -0.8571 -1.0767
11493TIP3   OH234400   8.046   5.302   5.425  0.3012 -0.4705  0.9373
11493TIP3    H134401   8.109   5.235   5.452  1.1498 -0.0388  0.1018
11493TIP3    H234402   7.986   5.309   5.499  2.0190  0.0670  2.3644
11494TIP3   OH234403   8.466   1.587   0.963 -0.0179  0.5064  0.3039
11494TIP3    H134404   8.557   1.615   0.949 -0.0039  1.9691  2.7041
11494TIP3    H234405   8.473   1.513   1.023 -0.3639 -0.4678 -0.8402
11495TIP3   OH234406   5.295   2.325   2.491  0.4966 -0.2664  0.4194
11495TIP3    H134407   5.201   2.336   2.482  0.6554  1.1593  0.2536
11495TIP3    H234408   5.311   2.325   2.585  0.2575 -1.3154  0.4663
11496TIP3   OH234409   6.887   0.125   2.571 -0.5578 -0.3732 -0.7275
11496TIP3    H134410   6.964   0.183   2.577 -1.1251  0.5893 -2.3021
11496TIP3    H234411   6.834   0.148   2.648 -0.8972  1.4261 -1.4523
11497TIP3   OH234412   6.675   6.753   3.989 -0.4165 -0.1439  0.0817
11497TIP3    H134413   6.613   6.777   4.059  0.0599  0.9589  0.1488
11497TIP3    H234414   6.761   6.765   4.028 -0.1100  1.7489 -1.0464
11498TIP3   OH234415   1.372   7.810   1.386  0.0117  0.1439 -0.1300
11498TIP3    H134416   1.311   7.837   1.455 -0.1737 -0.3756 -0.0897
11498TIP3    H234417   1.338   7.727   1.355  0.4230  0.0946 -0.4534
11499TIP3   OH234418   5.739   4.601   6.780  0.0375 -0.1442  0.1940
11499TIP3    H134419   5.655   4.576   6.742 -0.3558  0.6120  0.5439
11499TIP3    H234420   5.718   4.674   6.839  0.6437 -1.1754  1.7569
11500TIP3   OH234421   2.963  -0.014   3.707 -0.1495 -0.6178 -0.0004
11500TIP3    H134422   2.913   0.064   3.730  2.3524  1.6282 -1.5612
11500TIP3    H234423   3.000   0.006   3.621 -1.5304 -4.6862 -1.7654
11501TIP3   OH234424   1.151   1.074   2.896  0.2165  0.1675  0.2586
11501TIP3    H134425   1.185   0.987   2.874 -0.1022 -0.0421  0.5905
11501TIP3    H234426   1.087   1.092   2.827  1.3961  0.8202 -0.7170
11502TIP3   OH234427   8.635   5.505   1.696 -0.0708  0.2589  0.1686
11502TIP3    H134428   8.636   5.594   1.732 -0.2722 -0.3088  1.6643
11502TIP3    H234429   8.550   5.498   1.652 -0.5160  0.4705  0.9745
11503TIP3   OH234430   2.707   6.228   4.623 -0.1704  0.2876 -0.1721
11503TIP3    H134431   2.673   6.293   4.684 -1.4220 -0.5911  0.1023
11503TIP3    H234432   2.651   6.151   4.636  0.3076 -0.3282 -1.5613
11504TIP3   OH234433   2.085   2.029   3.708  0.0565  0.4065 -0.2906
11504TIP3    H134434   1.998   2.001   3.680  0.4691 -0.4672 -0.7697
11504TIP3    H234435   2.117   1.956   3.761  0.8890  0.2519 -0.9739
11505TIP3   OH234436   0.212   6.245   2.228 -0.1404  1.0873  0.1615
11505TIP3    H134437   0.259   6.186   2.169 -3.7795 -2.0487 -0.0464
11505TIP3    H234438   0.232   6.212   2.315 -0.0714  1.3314  0.2394
11506TIP3   OH234439   7.810   4.544   4.634 -0.0236  0.3112 -0.2990
11506TIP3    H134440   7.867   4.470   4.655 -1.2249 -0.3871  0.6709
11506TIP3    H234441   7.737   4.505   4.586 -0.1488  1.0464 -0.7257
11507TIP3   OH234442   8.249   4.814   1.046  0.1879 -0.0981  0.2080
11507TIP3    H134443   8.335   4.831   1.085 -0.6451  0.1413  2.0208
11507TIP3    H234444   8.213   4.901   1.030  0.1265 -0.1985 -0.2077
11508TIP3   OH234445   4.741   7.793   4.507  0.3251 -0.7276 -0.1859
11508TIP3    H134446   4.729   7.772   4.600  0.2194  0.0504 -0.0149
11508TIP3    H234447   4.654   7.779   4.468  0.4872 -1.5317 -0.2704
11509TIP3   OH234448   6.401   4.146   2.307 -0.1335 -0.1115 -0.0341
11509TIP3    H134449   6.376   4.069   2.357 -0.7306 -0.0336 -0.1988
11509TIP3    H234450   6.478   4.119   2.257  1.3370  0.2102  1.9385
11510TIP3   OH234451   4.828   1.293   2.311 -0.6169 -0.1692 -0.1190
11510TIP3    H134452   4.880   1.289   2.231 -0.3625 -0.6945  0.0643
11510TIP3    H234453   4.836   1.384   2.340 -0.0104 -0.1805 -0.2326
11511TIP3   OH234454   2.626   7.610   0.233 -0.1351 -0.3014  0.2491
11511TIP3    H134455   2.621   7.519   0.206 -1.0037  0.3980 -2.2440
11511TIP3    H234456   2.706   7.643   0.193 -0.2718  0.2522  0.4201
11512TIP3   OH234457   5.820   0.697   3.996  0.0031  0.1921 -0.1148
11512TIP3    H134458   5.903   0.714   4.039 -0.1249  2.5731 -0.6888
11512TIP3    H234459   5.763   0.663   4.065  0.3110  2.3007  1.2498
11513TIP3   OH234460   2.786   1.803   4.621 -0.8644 -0.1973 -0.2388
11513TIP3    H134461   2.881   1.796   4.637 -0.6396 -1.0330 -1.7977
11513TIP3    H234462   2.776   1.888   4.578 -0.7567 -0.3530 -0.5693
11514TIP3   OH234463   3.123   1.086   4.852  0.3406  0.4099 -0.3862
11514TIP3    H134464   3.120   1.130   4.767  0.0122  0.3132 -0.4280
11514TIP3    H234465   3.139   1.156   4.915  0.6921  0.4670 -0.5388
11515TIP3   OH234466   1.050   0.210   0.628 -0.5238 -0.4768  0.2268
11515TIP3    H134467   1.125   0.269   0.618  0.7922 -1.6485  2.3972
11515TIP3    H234468   0.982   0.264   0.668 -0.1083  0.1110  0.1494
11516TIP3   OH234469   1.051   7.730   2.408  0.3253 -0.3730 -0.3784
11516TIP3    H134470   1.035   7.773   2.324  1.5446  0.7889 -0.0399
11516TIP3    H234471   1.143   7.746   2.427  0.9009 -3.2741 -0.2726
11517TIP3   OH234472   6.444   4.605   4.927  0.1989 -0.1967 -0.2395
11517TIP3    H134473   6.535   4.635   4.933 -0.0072  1.1504 -2.5296
11517TIP3    H234474   6.403   4.667   4.868 -2.0480 -1.2241  0.1630
11518TIP3   OH234475   3.939   8.052   6.823 -0.1402  0.0502  0.1088
11518TIP3    H134476   3.887   7.974   6.805 -1.8824  0.9826  0.7997
11518TIP3    H234477   3.883   8.125   6.795  1.4310  1.0655 -0.5218
11519TIP3   OH234478   3.060   6.213   3.152  0.2519  0.4279  0.1835
11519TIP3    H134479   2.992   6.148   3.134  0.7218 -0.4141  1.3383
11519TIP3    H234480   3.033   6.290   3.102 -0.5490 -0.4969 -0.8620
11520TIP3   OH234481   3.965   0.825   3.358 -0.4262 -0.1927  0.5171
11520TIP3    H134482   3.895   0.761   3.353  0.5358 -1.1827 -1.4001
11520TIP3    H234483   4.000   0.830   3.269  0.8091  1.5505  1.0364
11521TIP3   OH234484   4.172   1.183   4.146  0.9140  0.0480 -0.2675
11521TIP3    H134485   4.253   1.131   4.154  1.1153  0.1865 -1.3185
11521TIP3    H234486   4.102   1.120   4.165  1.2184 -0.2876 -0.2320
11522TIP3   OH234487   5.778   2.210   6.627 -0.0794 -0.0710 -0.1571
11522TIP3    H134488   5.819   2.289   6.661  2.3241 -0.7941 -1.1617
11522TIP3    H234489   5.740   2.236   6.543  0.5150  0.0768 -0.3814
11523TIP3   OH234490   1.808   1.134   4.870  0.3799 -0.0805 -0.5877
11523TIP3    H134491   1.838   1.215   4.828 -0.0367  0.9062  0.9244
11523TIP3    H234492   1.714   1.148   4.882  0.4509 -0.4199  0.4377
11524TIP3   OH234493   3.431   5.402   0.676 -0.8490 -0.2933 -0.0066
11524TIP3    H134494   3.405   5.493   0.690  0.5131 -0.0759  1.3326
11524TIP3    H234495   3.361   5.350   0.717 -1.8177  0.1259 -1.1090
11525TIP3   OH234496   4.353   3.215   4.404  0.0703  0.0607  0.1922
11525TIP3    H134497   4.289   3.147   4.384  0.7130 -0.4377 -0.1987
11525TIP3    H234498   4.326   3.290   4.350 -0.3604 -0.0383  0.2653
11526TIP3   OH234499   2.873   7.977   4.450 -0.3695 -0.4410 -0.1524
11526TIP3    H134500   2.926   8.021   4.384 -0.5158 -0.2062 -0.1182
11526TIP3    H234501   2.792   7.953   4.404 -1.3599  1.5786  0.4191
11527TIP3   OH234502   0.956   5.005   6.038 -0.4550 -0.2274  0.0233
11527TIP3    H134503   1.001   4.924   6.016 -1.2044 -1.2233  1.9199
11527TIP3    H234504   1.001   5.038   6.116 -0.4728  0.9413 -0.4331
11528TIP3   OH234505   3.849   3.487   4.662 -0.4414  0.1956  0.3721
11528TIP3    H134506   3.911   3.554   4.632 -1.7508  1.6968  0.8649
11528TIP3    H234507   3.899   3.406   4.659  1.1549  1.1392 -0.4711
11529TIP3   OH234508   7.160   7.833   6.439 -0.0116  0.2484  0.6176
11529TIP3    H134509   7.146   7.927   6.451 -0.2290  0.3475 -0.3164
11529TIP3    H234510   7.112   7.792   6.511 -2.3405  0.7463 -0.5600
11530TIP3   OH234511   1.545   0.765   0.676 -0.4206 -0.3220 -0.0615
11530TIP3    H134512   1.482   0.710   0.629  1.9650 -1.5601 -2.0320
11530TIP3    H234513   1.492   0.838   0.709 -2.8703 -1.2463 -1.6078
11531TIP3   OH234514   3.327   1.434   3.531  0.6728 -0.3294  0.2637
11531TIP3    H134515   3.233   1.445   3.544  0.5257 -1.5403  0.3374
11531TIP3    H234516   3.367   1.498   3.590 -0.0954  1.3801 -0.9713
11532TIP3   OH234517   4.861   4.285   1.822  0.1420  0.1282 -0.4980
11532TIP3    H134518   4.821   4.199   1.833  0.4810  0.2552  2.5514
11532TIP3    H234519   4.795   4.337   1.778 -0.8327 -1.1803 -0.6274
11533TIP3   OH234520   5.003   2.788   6.363 -0.1685  0.4874 -0.6492
11533TIP3    H134521   4.965   2.847   6.299 -0.7534 -0.1460 -0.9032
11533TIP3    H234522   4.955   2.805   6.443  0.4926  1.2061 -0.3907
11534TIP3   OH234523   3.791   5.320   0.467  0.4209  0.1713  0.0607
11534TIP3    H134524   3.704   5.281   0.471  0.6608 -0.3283  0.5170
11534TIP3    H234525   3.813   5.322   0.374 -0.8197  1.9830 -0.2546
11535TIP3   OH234526   6.210   4.894   0.635  0.7453  0.3895  0.0216
11535TIP3    H134527   6.287   4.922   0.685  0.1743  2.0814  0.0105
11535TIP3    H234528   6.152   4.856   0.700  2.2089 -2.4391 -0.1939
11536TIP3   OH234529   7.245   0.896   2.616  0.0205 -0.1908  0.2992
11536TIP3    H134530   7.174   0.926   2.559 -0.1319 -1.3610 -0.1536
11536TIP3    H234531   7.224   0.933   2.701 -1.2671 -0.6666  0.2256
11537TIP3   OH234532   4.961   5.818   2.035  0.0504  0.0802 -0.1377
11537TIP3    H134533   4.918   5.903   2.050  1.6324  0.9675 -0.3934
11537TIP3    H234534   5.033   5.838   1.975  0.0406 -1.5886 -0.7467
11538TIP3   OH234535   2.464   6.910   1.146 -0.7539 -0.4975 -0.2590
11538TIP3    H134536   2.381   6.909   1.099 -1.5759  1.3063  1.0316
11538TIP3    H234537   2.441   6.886   1.235  0.1709 -0.4006  0.0121
11539TIP3   OH234538   2.764   7.474   1.327  0.3597 -0.3231  0.6781
11539TIP3    H134539   2.714   7.505   1.252  2.8288 -2.6893 -2.2143
11539TIP3    H234540   2.841   7.530   1.329  0.9345 -1.0890  0.5776
11540TIP3   OH234541   0.113   4.464   4.874  0.6127 -0.0789 -0.1937
11540TIP3    H134542   0.113   4.401   4.802 -0.6422  1.7297 -1.8610
11540TIP3    H234543   0.032   4.446   4.922  0.6803 -0.2635 -0.1454
11541TIP3   OH234544   6.195   6.869   1.869 -0.1487  0.0449 -0.2501
11541TIP3    H134545   6.284   6.860   1.902  0.6504 -1.3286 -2.5965
11541TIP3    H234546   6.148   6.794   1.905  0.3091 -0.5776 -0.9141
11542TIP3   OH234547   7.026   3.714   5.832 -0.6464 -0.6543 -0.1708
11542TIP3    H134548   7.030   3.794   5.884  1.1463 -0.0273 -1.1957
11542TIP3    H234549   7.062   3.646   5.890 -0.1276 -0.2769 -0.0441
11543TIP3   OH234550   6.182   3.922   1.510 -0.0225  0.4692 -0.6247
11543TIP3    H134551   6.171   3.844   1.564  2.3233  0.3626 -0.1811
11543TIP3    H234552   6.185   3.888   1.420 -0.0705  0.1865 -0.5205
11544TIP3   OH234553   2.981   5.003   0.030  0.5885  0.6339 -0.1382
11544TIP3    H134554   3.074   4.991   0.049  0.8511  1.9152 -0.5621
11544TIP3    H234555   2.949   5.061   0.099 -0.1698 -0.6620  0.6431
11545TIP3   OH234556   5.096   7.773   1.575  0.0576 -0.5158 -0.0970
11545TIP3    H134557   5.139   7.769   1.490  0.1457 -1.2318 -0.0257
11545TIP3    H234558   5.004   7.791   1.554  0.3615  1.0152 -0.2477
11546TIP3   OH234559   1.798   7.742   6.912  0.2254 -0.0841 -0.0383
11546TIP3    H134560   1.775   7.835   6.917  0.4871  0.0086 -0.4453
11546TIP3    H234561   1.718   7.700   6.879  0.1991  0.0430 -0.1412
11547TIP3   OH234562   7.059   3.083   5.668  0.3602 -0.0843 -0.0509
11547TIP3    H134563   7.121   3.013   5.691  2.1015  0.9451 -1.3384
11547TIP3    H234564   7.105   3.134   5.602 -0.0434  3.4586  2.1698
11548TIP3   OH234565   5.803   0.438   6.248  0.5447 -0.9567 -0.3753
11548TIP3    H134566   5.855   0.405   6.175  1.0635 -1.4352  0.2019
11548TIP3    H234567   5.731   0.376   6.256 -1.2869  0.7587 -2.4319
11549TIP3   OH234568   6.167   1.991   6.676 -0.1853  0.0877 -0.4124
11549TIP3    H134569   6.208   1.981   6.762 -1.8262 -2.1707  0.1912
11549TIP3    H234570   6.213   2.066   6.637  2.0338 -0.1134  1.5570
11550TIP3   OH234571   5.291   2.322   2.223  0.1963  0.3622 -0.1250
11550TIP3    H134572   5.309   2.308   2.316 -0.0138 -0.2759 -0.1770
11550TIP3    H234573   5.358   2.271   2.178 -0.6720 -0.6643 -0.3163
11551TIP3   OH234574   8.567   0.122   4.102 -0.4487 -0.2676 -0.0162
11551TIP3    H134575   8.542   0.162   4.019 -1.0154 -0.7903 -0.1093
11551TIP3    H234576   8.493   0.065   4.124  0.4458 -1.4785 -0.0418
11552TIP3   OH234577   1.834   5.318   3.014 -0.4372  0.4874 -0.3471
11552TIP3    H134578   1.762   5.305   3.077  1.0593 -1.3182  1.1167
11552TIP3    H234579   1.858   5.229   2.987  1.1050  1.0568 -0.9520
11553TIP3   OH234580   2.175   2.327   0.463  0.0347 -0.2114  0.5184
11553TIP3    H134581   2.094   2.318   0.413 -1.0559 -0.1802  2.1610
11553TIP3    H234582   2.157   2.279   0.545  0.6177  2.0726  2.0774
11554TIP3   OH234583   1.936   1.296   1.119 -0.3387  0.5588 -0.1079
11554TIP3    H134584   1.866   1.254   1.069 -0.4514 -0.2431  0.7024
11554TIP3    H234585   1.982   1.224   1.162  0.3008  1.1629  0.2498
11555TIP3   OH234586   3.805   0.948   2.428  0.1220 -0.0261 -0.7969
11555TIP3    H134587   3.900   0.940   2.434  0.0587 -0.1303  0.2453
11555TIP3    H234588   3.771   0.882   2.488 -0.6181 -0.0632 -1.2344
11556TIP3   OH234589   2.013   6.498   2.012 -0.0134  0.4455 -0.3696
11556TIP3    H134590   1.959   6.468   2.085 -0.6801 -1.3748 -1.5380
11556TIP3    H234591   2.102   6.472   2.035  0.2681  2.4073  1.0256
11557TIP3   OH234592   2.437   6.966   3.912 -0.3928 -0.2405  0.8514
11557TIP3    H134593   2.423   6.875   3.937  0.4626 -0.6597 -0.1418
11557TIP3    H234594   2.404   6.972   3.823  0.5797  0.1328  0.5052
11558TIP3   OH234595   5.197   7.262   4.193  0.2821  0.0022  0.3251
11558TIP3    H134596   5.192   7.354   4.167  0.8829 -0.0876 -0.1336
11558TIP3    H234597   5.225   7.264   4.284  0.4221  0.2728  0.2761
11559TIP3   OH234598   3.704   5.484   5.575 -0.7214  0.6555 -0.2696
11559TIP3    H134599   3.718   5.425   5.501 -0.2343  1.4874 -0.8557
11559TIP3    H234600   3.709   5.427   5.652  0.8942  0.0817 -0.7483
11560TIP3   OH234601   6.848   6.196   3.214 -0.0338 -0.1817  0.0217
11560TIP3    H134602   6.847   6.158   3.126  0.1583 -1.8383  0.6902
11560TIP3    H234603   6.756   6.195   3.242  0.1503 -1.8640  0.6922
11561TIP3   OH234604   3.354   0.738   0.468 -0.3151  0.2600 -0.1565
11561TIP3    H134605   3.279   0.790   0.496  1.3311  2.0508  1.2357
11561TIP3    H234606   3.359   0.750   0.373 -0.8201  1.4853 -0.0318
11562TIP3   OH234607   6.481   5.853   0.507 -0.2226 -0.5570 -0.2730
11562TIP3    H134608   6.543   5.910   0.554 -0.8096 -0.3022  0.2160
11562TIP3    H234609   6.531   5.819   0.433  0.5834 -0.5753  0.2641
11563TIP3   OH234610   1.366   4.784   7.063  0.0317  0.3718  0.1987
11563TIP3    H134611   1.451   4.739   7.060 -0.2989 -0.2731  0.2022
11563TIP3    H234612   1.374   4.843   7.137 -0.2645 -1.2799  1.6239
11564TIP3   OH234613   7.433   5.575   3.160 -0.4278  0.3218 -0.1768
11564TIP3    H134614   7.470   5.659   3.132 -0.9834  0.6254 -0.0228
11564TIP3    H234615   7.478   5.510   3.107 -1.6703  0.9000 -2.0555
11565TIP3   OH234616   4.178   1.886   4.262 -0.5597 -0.7025  0.0024
11565TIP3    H134617   4.146   1.914   4.348 -3.4678 -0.4448 -1.0607
11565TIP3    H234618   4.114   1.822   4.232  0.0876 -0.4129 -2.1764
11566TIP3   OH234619   4.674   0.561   5.941 -0.1571 -0.4164 -0.0431
11566TIP3    H134620   4.655   0.591   6.029  0.6272  1.1660 -0.3806
11566TIP3    H234621   4.627   0.623   5.884 -0.8135 -1.5283 -0.7523
11567TIP3   OH234622   6.575   7.750   1.547  0.4950  0.6192  0.2650
11567TIP3    H134623   6.669   7.738   1.536  0.4284  0.5667 -0.2510
11567TIP3    H234624   6.557   7.837   1.512  0.1316  0.0685 -0.9946
11568TIP3   OH234625   2.853   5.638   2.020  0.4255  0.1802 -0.2601
11568TIP3    H134626   2.909   5.594   2.085 -0.7158  0.3880  0.8925
11568TIP3    H234627   2.908   5.708   1.985  1.7529 -1.1831 -1.0118
11569TIP3   OH234628   2.311   4.337   5.957 -0.7046 -0.7124  0.5548
11569TIP3    H134629   2.249   4.320   6.028  1.2388 -1.4968  2.1842
11569TIP3    H234630   2.391   4.291   5.984  0.9067  1.0617 -0.9284
11570TIP3   OH234631   4.645   6.181   0.773  0.9842 -0.0198 -0.7888
11570TIP3    H134632   4.710   6.134   0.721  1.6931 -1.5286  1.3151
11570TIP3    H234633   4.644   6.135   0.857 -4.4364 -1.6099 -1.3299
11571TIP3   OH234634   8.113   8.106   0.509 -0.2597  0.1846 -0.2829
11571TIP3    H134635   8.121   8.185   0.456 -0.2165  1.5751  1.6734
11571TIP3    H234636   8.055   8.131   0.581  1.9920 -0.6304  1.9694
11572TIP3   OH234637   3.827   6.904   2.223  0.4775  0.6464 -0.0781
11572TIP3    H134638   3.761   6.967   2.195  0.1667  0.7185  0.7939
11572TIP3    H234639   3.781   6.820   2.228  0.1339  0.8991  1.6458
11573TIP3   OH234640   0.328   4.789   2.134  0.3122 -0.2859  0.2584
11573TIP3    H134641   0.269   4.852   2.091  1.6471  1.5233  0.9663
11573TIP3    H234642   0.319   4.709   2.082  0.1471  1.1167 -2.0054
11574TIP3   OH234643   5.803   6.544   4.014  0.3421 -0.7518 -0.2892
11574TIP3    H134644   5.802   6.453   4.045 -1.4188 -1.2828 -1.7147
11574TIP3    H234645   5.710   6.569   4.011  0.8211  1.2344  0.4274
11575TIP3   OH234646   0.080   0.283   1.447  0.1954  0.0874  0.1177
11575TIP3    H134647  -0.003   0.241   1.424 -1.0640  2.4426  0.0277
11575TIP3    H234648   0.074   0.299   1.541  0.0908  1.1544 -0.0607
11576TIP3   OH234649   0.897   0.860   1.698  0.1531  0.4606 -0.1811
11576TIP3    H134650   0.976   0.822   1.736 -0.6846  0.0686  1.2754
11576TIP3    H234651   0.838   0.786   1.687  0.2626  0.6233 -2.0390
11577TIP3   OH234652   1.056   7.829   3.310 -0.0127  0.3098  0.6534
11577TIP3    H134653   1.129   7.819   3.249 -1.3902 -0.8220 -0.8912
11577TIP3    H234654   1.092   7.881   3.382  2.8362 -1.6421  0.8335
11578TIP3   OH234655   4.721   1.942   2.149  0.0140 -0.1274 -0.4655
11578TIP3    H134656   4.674   1.861   2.168 -1.4050  1.2894  2.9931
11578TIP3    H234657   4.656   2.000   2.110  0.1194  0.3366  0.0231
11579TIP3   OH234658   8.349   5.842   2.305 -0.2034 -0.6605  0.5790
11579TIP3    H134659   8.305   5.789   2.371 -0.9655  0.5501  1.0799
11579TIP3    H234660   8.441   5.814   2.309 -0.4083 -1.2366  1.5152
11580TIP3   OH234661   6.862   4.372   1.610  0.0073  0.2299 -0.1841
11580TIP3    H134662   6.913   4.306   1.564 -2.5023 -0.9673 -1.4646
11580TIP3    H234663   6.913   4.453   1.602  2.1978 -1.1021 -0.3203
11581TIP3   OH234664   8.453   1.720   2.159  0.5490  0.3618 -0.0109
11581TIP3    H134665   8.371   1.672   2.146  1.3408 -1.2674  0.7399
11581TIP3    H234666   8.514   1.654   2.193  2.1514  1.5559 -0.4720
11582TIP3   OH234667   7.375   2.074   4.458 -0.1449  0.5734  0.1935
11582TIP3    H134668   7.386   2.022   4.538 -1.1375 -0.4286 -0.3007
11582TIP3    H234669   7.434   2.148   4.470  0.3161  0.0278  1.5066
11583TIP3   OH234670   1.154   1.331   2.228  0.1135 -0.0655  0.2406
11583TIP3    H134671   1.226   1.357   2.170 -1.7301  0.3705 -1.9951
11583TIP3    H234672   1.077   1.328   2.171 -1.7529 -0.1035  2.6054
11584TIP3   OH234673   4.625   7.410   5.316 -0.1437  0.5934 -0.6253
11584TIP3    H134674   4.601   7.373   5.231 -0.4039  0.4025 -0.4716
11584TIP3    H234675   4.542   7.415   5.364  0.1539 -0.3309  0.0132
11585TIP3   OH234676   4.426   7.141   5.080  0.0022 -0.1905 -0.7506
11585TIP3    H134677   4.406   7.094   4.998 -0.8700  0.0102 -0.6610
11585TIP3    H234678   4.467   7.222   5.051 -1.2311  0.3455 -1.0484
11586TIP3   OH234679   7.540   5.956   1.511  0.2990 -0.4482 -0.3299
11586TIP3    H134680   7.600   6.008   1.565  0.7489 -1.7489  0.4644
11586TIP3    H234681   7.453   5.992   1.531  0.7031  0.9822 -0.9595
11587TIP3   OH234682   7.340   6.254   6.526  0.0094  0.0035 -0.1444
11587TIP3    H134683   7.425   6.270   6.485 -0.2764  0.2062 -0.6739
11587TIP3    H234684   7.277   6.263   6.454 -0.5174  0.5176  0.3711
11588TIP3   OH234685   6.761   5.069   0.016 -0.1750 -0.4840 -0.1589
11588TIP3    H134686   6.807   5.128  -0.044 -0.4862  1.3846  1.3532
11588TIP3    H234687   6.825   5.049   0.084 -0.7453 -0.0718  0.5110
11589TIP3   OH234688   3.553   8.022   4.375  0.7780  0.1440 -0.1842
11589TIP3    H134689   3.575   8.115   4.383  0.2598  0.3088 -0.6379
11589TIP3    H234690   3.550   7.991   4.466 -1.5500  1.1770  0.1626
11590TIP3   OH234691   8.241   2.840   4.785  0.6246  0.6790 -0.4476
11590TIP3    H134692   8.235   2.881   4.871 -1.8661 -3.6244  1.7694
11590TIP3    H234693   8.311   2.776   4.793  0.5639  0.4081 -1.7702
11591TIP3   OH234694   6.045   2.689   5.772 -0.7659 -0.7420  0.2858
11591TIP3    H134695   6.080   2.744   5.842 -1.0822 -1.0962  0.7265
11591TIP3    H234696   5.986   2.628   5.816 -0.4079 -1.4506 -0.1935
11592TIP3   OH234697   6.954   0.354   6.366 -0.0461  0.0912  0.1561
11592TIP3    H134698   6.891   0.357   6.293  0.6115  0.7452 -0.3941
11592TIP3    H234699   6.903   0.319   6.439 -0.7627 -0.4339 -0.5689
11593TIP3   OH234700   6.166   1.069   6.536  0.1305 -0.0379 -0.0116
11593TIP3    H134701   6.163   1.154   6.582 -0.8915  0.0668 -0.2366
11593TIP3    H234702   6.163   1.092   6.444  4.5043 -0.1298 -0.3604
11594TIP3   OH234703   6.001   1.666   0.786  0.7868 -0.1671  0.0690
11594TIP3    H134704   5.985   1.714   0.867 -1.3791  0.5056 -0.6912
11594TIP3    H234705   6.006   1.733   0.718  1.2286 -0.8092 -0.5560
11595TIP3   OH234706   5.969   5.157   0.032  0.0480  0.6495 -0.2155
11595TIP3    H134707   5.946   5.145   0.124  0.0594  1.3209 -0.1189
11595TIP3    H234708   6.051   5.109   0.022 -1.2183 -1.6047 -0.5212
11596TIP3   OH234709   5.048   4.337   0.837 -0.1148  0.0715 -0.1490
11596TIP3    H134710   5.026   4.429   0.852 -1.7272 -0.2027 -0.6138
11596TIP3    H234711   5.009   4.317   0.752  0.4317 -0.9831 -0.1602
11597TIP3   OH234712   7.411   8.196   2.339 -0.4893 -0.2179 -0.5002
11597TIP3    H134713   7.362   8.124   2.301  0.3765  0.0491 -2.2279
11597TIP3    H234714   7.499   8.161   2.353 -0.6027 -0.0940  0.6346
11598TIP3   OH234715   8.456   2.229   3.076  0.0283 -0.4758 -0.4278
11598TIP3    H134716   8.505   2.162   3.028 -0.4774 -1.3482  0.2357
11598TIP3    H234717   8.365   2.197   3.075 -0.5195  1.0416 -1.5251
11599TIP3   OH234718   1.313   6.890   2.493 -0.0109  0.0779  0.3860
11599TIP3    H134719   1.348   6.809   2.456 -1.4966 -0.9121  1.0689
11599TIP3    H234720   1.294   6.944   2.417  0.3554 -0.4821 -0.1151
11600TIP3   OH234721   1.502   7.369   2.078  0.2760 -0.2586  0.3154
11600TIP3    H134722   1.421   7.419   2.082  0.5368  0.2325 -0.4395
11600TIP3    H234723   1.564   7.419   2.132  0.2657 -0.2873  0.3543
11601TIP3   OH234724   4.331   6.070   1.431 -0.2767 -0.8503  0.2199
11601TIP3    H134725   4.404   6.077   1.493  1.0504 -1.2867 -1.2305
11601TIP3    H234726   4.368   6.095   1.347 -2.1951  0.3768 -0.3411
11602TIP3   OH234727   7.253   3.415   0.576  0.7603  0.4015 -0.4262
11602TIP3    H134728   7.311   3.489   0.595  1.2241 -0.1455  0.3564
11602TIP3    H234729   7.166   3.445   0.604  0.8994  0.7487 -0.3634
11603TIP3   OH234730   5.798   5.545   5.899 -0.1888 -0.1291  0.0476
11603TIP3    H134731   5.740   5.473   5.873 -0.9154  0.6238 -0.4853
11603TIP3    H234732   5.869   5.543   5.835  0.5461 -1.2151  0.8521
11604TIP3   OH234733   5.359   6.639   3.004  0.0219  0.7180  0.6212
11604TIP3    H134734   5.424   6.625   2.935 -0.9335  1.2745 -0.4177
11604TIP3    H234735   5.386   6.720   3.046  0.9654  0.0508  1.3354
11605TIP3   OH234736   5.339   4.368   0.437 -0.3947  0.5377 -0.3916
11605TIP3    H134737   5.301   4.392   0.353 -1.8437  0.3167  0.1616
11605TIP3    H234738   5.266   4.331   0.487  0.5077  0.3100  0.8272
11606TIP3   OH234739   0.173   7.723   3.867 -0.0378  0.6603 -0.2383
11606TIP3    H134740   0.132   7.740   3.952 -1.5009  0.2588 -0.8400
11606TIP3    H234741   0.211   7.808   3.842 -1.0321  1.2169  0.0716
11607TIP3   OH234742   6.934   5.746   0.572 -0.3060  0.2765 -0.1402
11607TIP3    H134743   7.015   5.750   0.623 -0.5447  2.8551  0.1810
11607TIP3    H234744   6.865   5.739   0.638 -0.5577  2.6643 -0.0822
11608TIP3   OH234745   5.302   2.686   2.638  0.3580 -0.0603 -1.0188
11608TIP3    H134746   5.344   2.672   2.724 -1.6167 -0.0074  0.0133
11608TIP3    H234747   5.211   2.706   2.659  0.4839  3.1962 -2.9728
11609TIP3   OH234748   7.336   1.336   0.573  0.3427  0.5885  0.2584
11609TIP3    H134749   7.260   1.371   0.619  0.5195 -0.1892  1.1747
11609TIP3    H234750   7.323   1.242   0.572  1.6041  0.3713  1.0441
11610TIP3   OH234751   8.216   5.145   2.442 -0.3721 -0.0457  0.2327
11610TIP3    H134752   8.282   5.082   2.470 -0.2212 -0.2733 -0.6180
11610TIP3    H234753   8.133   5.106   2.470 -0.1787  0.0734  0.9870
11611TIP3   OH234754   8.060   2.119   2.611 -0.0968 -0.2666  0.9430
11611TIP3    H134755   8.078   2.106   2.704  2.4475 -0.8087  0.4422
11611TIP3    H234756   8.024   2.035   2.582 -2.3566  0.3677  1.6652
11612TIP3   OH234757   4.942   2.019   5.546  0.2275 -0.2669 -0.1684
11612TIP3    H134758   4.967   1.929   5.567 -0.1666 -0.1172  1.0210
11612TIP3    H234759   4.907   2.014   5.457  2.0729 -0.9228 -0.9020
11613TIP3   OH234760   4.678   0.134   1.256 -0.1432  0.5060 -0.2116
11613TIP3    H134761   4.750   0.071   1.254  0.7552  1.4935  0.2342
11613TIP3    H234762   4.704   0.200   1.320 -1.6123  0.7027  0.2326
11614TIP3   OH234763   1.025   2.925   2.015  0.8083  0.0466 -0.2381
11614TIP3    H134764   0.938   2.898   1.986  1.2854 -1.2292 -0.5772
11614TIP3    H234765   1.009   2.981   2.090 -0.3399  0.7679 -0.9990
11615TIP3   OH234766   0.925   7.335   2.203  0.1805 -0.3959 -0.3790
11615TIP3    H134767   0.994   7.299   2.259  0.9235 -0.0065 -1.0104
11615TIP3    H234768   0.955   7.316   2.114 -0.6966 -0.5016 -0.6631
11616TIP3   OH234769   2.770   6.712   5.918  0.5601 -0.0935 -0.1717
11616TIP3    H134770   2.685   6.756   5.927 -0.4399 -1.8756 -0.2016
11616TIP3    H234771   2.835   6.781   5.928 -0.9069  1.4106 -0.5870
11617TIP3   OH234772   7.462   4.833   6.247 -0.2913  0.3192 -0.5506
11617TIP3    H134773   7.369   4.853   6.240 -0.5953  0.2073  2.1219
11617TIP3    H234774   7.471   4.744   6.213 -1.5562 -0.4430  1.0184
11618TIP3   OH234775   7.467   1.880   0.462  0.6458  0.1205 -0.0640
11618TIP3    H134776   7.402   1.891   0.392 -0.3399  1.2570  0.9749
11618TIP3    H234777   7.417   1.844   0.535  0.8629  2.2181  1.1811
11619TIP3   OH234778   1.906   3.875   3.151  0.3724  0.7714 -0.2989
11619TIP3    H134779   1.839   3.808   3.135 -1.2576  2.1610  0.3389
11619TIP3    H234780   1.927   3.908   3.063  0.0430  0.4608 -0.5005
11620TIP3   OH234781   8.529   6.186   3.513 -0.6004 -0.2222  0.2510
11620TIP3    H134782   8.611   6.160   3.555 -0.2031 -0.7581 -0.8374
11620TIP3    H234783   8.461   6.153   3.572 -0.0499 -0.1056  0.9708
11621TIP3   OH234784   1.578   0.207   2.525 -0.2117  0.2969  0.1981
11621TIP3    H134785   1.601   0.133   2.468 -0.0691  0.4549  0.0484
11621TIP3    H234786   1.646   0.272   2.507  0.3094  0.0285  1.1622
11622TIP3   OH234787   0.894   1.405   0.194 -0.3781  0.2366  0.5180
11622TIP3    H134788   0.987   1.394   0.217 -0.8372 -0.8442  2.0173
11622TIP3    H234789   0.869   1.488   0.235 -0.0754  0.5649  0.0531
11623TIP3   OH234790   0.972   3.441   3.695 -0.6303 -0.7553 -0.1351
11623TIP3    H134791   1.021   3.408   3.619 -0.1039  0.8281 -0.5125
11623TIP3    H234792   0.881   3.441   3.666 -0.2744  1.4900 -1.4650
11624TIP3   OH234793   4.138   2.589   7.044 -0.7511 -0.1580 -0.2708
11624TIP3    H134794   4.077   2.635   6.987 -1.2484 -0.9864 -0.4150
11624TIP3    H234795   4.183   2.527   6.987  0.2970  0.4775 -0.1840
11625TIP3   OH234796   8.103   4.353   1.792 -0.5969  0.0104  0.1512
11625TIP3    H134797   8.087   4.444   1.768 -0.4544  0.0342  0.1429
11625TIP3    H234798   8.049   4.339   1.869 -0.7989  0.0326  0.0154
11626TIP3   OH234799   7.029   7.302   1.323  0.1471 -0.8272 -0.5971
11626TIP3    H134800   7.107   7.253   1.295  0.1679 -2.2956  1.7055
11626TIP3    H234801   6.957   7.261   1.277  0.5987 -0.1415 -1.9600
11627TIP3   OH234802   0.713   6.861   2.807 -0.2957 -0.5230  0.1520
11627TIP3    H134803   0.634   6.839   2.757 -0.1600 -0.5354 -0.0591
11627TIP3    H234804   0.687   6.935   2.862 -0.4264 -0.4627  0.0105
11628TIP3   OH234805   0.243   6.792   5.719  0.4356 -0.4240  0.1239
11628TIP3    H134806   0.202   6.861   5.668  0.7202 -1.2279 -1.2357
11628TIP3    H234807   0.337   6.811   5.715  0.3768  0.3755  1.6872
11629TIP3   OH234808   3.230   5.992   6.574  0.6359 -0.2452  0.0306
11629TIP3    H134809   3.215   5.905   6.537 -0.8397 -0.4646  1.0600
11629TIP3    H234810   3.143   6.031   6.581  1.0834  0.5805  1.3343
11630TIP3   OH234811   0.064   1.676   3.002  0.0051  0.1422 -0.5748
11630TIP3    H134812   0.062   1.586   3.034  0.1888 -0.0613 -1.1143
11630TIP3    H234813  -0.021   1.713   3.028  0.0401 -0.0974 -0.1106
11631TIP3   OH234814   0.349   4.616   3.571 -0.0065 -0.1596  0.2478
11631TIP3    H134815   0.258   4.587   3.560  0.0564 -0.6754  0.9783
11631TIP3    H234816   0.345   4.711   3.559 -0.7743 -0.0818  0.9572
11632TIP3   OH234817   3.652   3.186   7.031  0.3165 -0.3698  0.6301
11632TIP3    H134818   3.698   3.177   6.948  1.2845 -0.7968  1.1978
11632TIP3    H234819   3.721   3.199   7.096 -0.3832 -0.6005  1.4435
11633TIP3   OH234820   5.011   0.937   4.343 -0.5119  0.5747 -0.1518
11633TIP3    H134821   4.925   0.969   4.315 -0.1173  0.0725 -2.0900
11633TIP3    H234822   5.072   1.005   4.314 -0.2058  0.7739  0.9183
11634TIP3   OH234823   7.651   2.751   2.433  0.0980 -0.1922 -0.2292
11634TIP3    H134824   7.646   2.674   2.490 -0.8773  0.4789  0.6208
11634TIP3    H234825   7.659   2.715   2.345 -0.3888 -1.2789  0.1523
11635TIP3   OH234826   7.967   7.667   1.452 -0.2556  0.7784 -0.3884
11635TIP3    H134827   7.940   7.744   1.401 -2.5148  0.6105  0.4263
11635TIP3    H234828   8.019   7.703   1.524 -0.5616  1.4658 -0.4957
11636TIP3   OH234829   8.295   2.630   2.483 -0.3793 -0.6152  0.2746
11636TIP3    H134830   8.342   2.551   2.455  1.6293 -0.0349  1.8201
11636TIP3    H234831   8.298   2.627   2.578 -1.8588  0.4459  0.3874
11637TIP3   OH234832   7.662   6.180   1.034 -0.1419  0.5761 -0.1416
11637TIP3    H134833   7.619   6.240   1.095 -3.2565 -0.2233 -1.3638
11637TIP3    H234834   7.652   6.094   1.074  0.5287  0.3905 -0.3649
11638TIP3   OH234835   0.682   7.443   1.404  0.3192 -0.1511 -0.0963
11638TIP3    H134836   0.654   7.360   1.366  0.0126  0.8237 -2.1932
11638TIP3    H234837   0.775   7.430   1.422  0.2695 -0.9585 -0.3646
11639TIP3   OH234838   1.920   1.897   6.156 -0.1418 -0.1515 -0.2958
11639TIP3    H134839   1.941   1.857   6.241 -0.3218  2.1576  0.9018
11639TIP3    H234840   1.846   1.845   6.124  0.4495 -1.5910  0.5332
11640TIP3   OH234841   6.620   7.227   0.564 -0.5087 -0.2517  0.5326
11640TIP3    H134842   6.612   7.312   0.606  1.2708 -0.0392  0.4870
11640TIP3    H234843   6.534   7.186   0.577 -0.9511  0.9916  1.7226
11641TIP3   OH234844   0.897   4.532   3.838  0.0770  0.3503  0.0605
11641TIP3    H134845   0.989   4.528   3.813 -0.1343  0.6161 -0.7902
11641TIP3    H234846   0.896   4.588   3.916  0.5869  0.7217 -0.1883
11642TIP3   OH234847   4.269   3.055   1.670 -0.2057  0.0298  0.9484
11642TIP3    H134848   4.227   3.031   1.587  0.1495  2.0719  0.1141
11642TIP3    H234849   4.197   3.067   1.731 -0.7371  1.3443  0.1202
11643TIP3   OH234850   8.317   7.269   2.082  0.1994  0.2040 -0.2518
11643TIP3    H134851   8.381   7.227   2.025 -0.4930  2.3343 -2.7654
11643TIP3    H234852   8.246   7.205   2.090  1.0321 -0.7651 -0.4050
11644TIP3   OH234853   3.442   5.854   2.124  0.2216  0.3017 -0.5437
11644TIP3    H134854   3.358   5.884   2.090 -2.1285 -1.3484  3.1886
11644TIP3    H234855   3.437   5.759   2.118  2.0215  0.1720 -0.5141
11645TIP3   OH234856   7.275   1.382   3.060  0.2860  0.0796  0.0909
11645TIP3    H134857   7.235   1.295   3.066 -1.2991  0.6776 -1.0104
11645TIP3    H234858   7.269   1.404   2.967  0.2513  1.5450  0.4134
11646TIP3   OH234859   1.638   0.955   1.719  0.3187 -0.4145  0.8280
11646TIP3    H134860   1.564   1.014   1.711  0.5597 -0.2459 -0.3457
11646TIP3    H234861   1.610   0.888   1.782 -0.4417  0.1982  1.1473
11647TIP3   OH234862   8.160   1.996   0.652  0.4301 -0.1050  0.1301
11647TIP3    H134863   8.130   1.941   0.724 -1.5828 -0.7847 -1.1298
11647TIP3    H234864   8.220   1.940   0.602  0.9059 -0.0336  0.6164
11648TIP3   OH234865   7.052   7.988   1.513 -0.3857 -0.7136 -0.5167
11648TIP3    H134866   7.117   7.985   1.443  0.1142 -2.0160 -0.0258
11648TIP3    H234867   7.104   8.010   1.591 -0.6790 -0.8542 -0.2823
11649TIP3   OH234868   4.545   4.904   0.222  0.5583 -0.0981  0.8169
11649TIP3    H134869   4.467   4.942   0.182  0.7741  1.1248  1.5099
11649TIP3    H234870   4.518   4.881   0.311  0.9699  0.2899  1.0464
11650TIP3   OH234871   7.382   7.881   0.960  0.0323 -0.5033  0.1199
11650TIP3    H134872   7.422   7.965   0.937  0.7818 -0.1439  2.4785
11650TIP3    H234873   7.448   7.816   0.937 -0.5328 -0.5092 -1.6727
11651TIP3   OH234874   1.696   3.995   3.551 -1.0647 -0.4853  0.0561
11651TIP3    H134875   1.617   3.982   3.604 -2.1217  0.0642 -1.3223
11651TIP3    H234876   1.719   3.908   3.520 -0.9617 -0.6866  0.6944
11652TIP3   OH234877   4.247   5.741   4.897  0.0952  0.3818 -0.3111
11652TIP3    H134878   4.169   5.735   4.951  0.6018 -1.8495  0.2530
11652TIP3    H234879   4.311   5.786   4.952 -0.3355  0.9303 -0.2484
11653TIP3   OH234880   3.046   3.308   0.157 -0.2405 -0.3826 -0.0185
11653TIP3    H134881   3.050   3.229   0.103 -0.5583 -0.7091  0.4373
11653TIP3    H234882   2.975   3.360   0.119  0.5334  0.0969 -0.8642
11654TIP3   OH234883   1.711   5.542   4.377  0.1123  0.7633  0.2619
11654TIP3    H134884   1.699   5.489   4.456  2.7488  1.0349  0.9398
11654TIP3    H234885   1.761   5.485   4.318  1.0191  1.6882  0.1164
11655TIP3   OH234886   0.917   3.889   4.151  0.5007  0.1239 -0.3649
11655TIP3    H134887   0.825   3.861   4.143  0.1980  1.1652 -0.6625
11655TIP3    H234888   0.916   3.981   4.126  1.4694  0.4108  0.5928
11656TIP3   OH234889   0.529   4.212   5.682 -0.3288 -0.0615  0.3902
11656TIP3    H134890   0.595   4.219   5.614 -1.4285 -1.2173 -0.8537
11656TIP3    H234891   0.448   4.241   5.639 -0.6396  1.5493  1.9393
11657TIP3   OH234892   4.564   5.080   1.004  0.2895 -0.2084 -0.5777
11657TIP3    H134893   4.502   5.008   1.000  0.1161 -0.2073  1.3934
11657TIP3    H234894   4.587   5.089   1.096  0.5785  2.0259 -0.7899
11658TIP3   OH234895   4.223   4.151   4.063  0.0529 -0.0896  0.5145
11658TIP3    H134896   4.215   4.231   4.011  0.3412 -0.2178  0.2685
11658TIP3    H234897   4.262   4.180   4.145  2.1481 -0.2571 -0.3607
11659TIP3   OH234898   4.856   1.637   2.931 -0.5806 -0.3173  0.2125
11659TIP3    H134899   4.780   1.681   2.970 -0.2135  1.2214 -0.6960
11659TIP3    H234900   4.929   1.661   2.988 -0.3983  0.1795 -0.2199
11660TIP3   OH234901   5.489   3.425   3.786 -0.2558  0.1638  0.4504
11660TIP3    H134902   5.556   3.427   3.854  1.1438 -0.0679 -0.8674
11660TIP3    H234903   5.497   3.338   3.747 -0.3607  0.6178 -0.6276
11661TIP3   OH234904   5.812   4.178   6.364  0.5428 -0.1891  0.2086
11661TIP3    H134905   5.751   4.200   6.435  0.5318  1.5284 -0.2989
11661TIP3    H234906   5.758   4.179   6.285  0.7912 -0.9213  0.0249
11662TIP3   OH234907   1.064   1.415   5.358 -0.0214  0.2532  0.4777
11662TIP3    H134908   1.022   1.337   5.322  0.9464  1.2513 -3.2358
11662TIP3    H234909   0.998   1.484   5.347  0.4516  0.6677  0.2208
11663TIP3   OH234910   1.437   5.396   5.576  0.7442 -0.3639  0.0987
11663TIP3    H134911   1.407   5.316   5.620  0.3985 -0.9353 -1.1223
11663TIP3    H234912   1.529   5.378   5.555  1.3263  0.4617  1.7716
11664TIP3   OH234913   4.754   3.618   0.410 -0.1074  0.0643  0.3371
11664TIP3    H134914   4.659   3.615   0.413 -0.1620 -0.4376 -1.0429
11664TIP3    H234915   4.782   3.531   0.435 -0.1245 -0.4534 -1.3094
11665TIP3   OH234916   6.601   6.258   3.850  0.4009 -0.4384 -0.4398
11665TIP3    H134917   6.587   6.352   3.843  2.0716 -0.0032  1.2172
11665TIP3    H234918   6.680   6.250   3.903  1.2554 -2.7496 -1.9044
11666TIP3   OH234919   7.094   5.986   1.609  0.7140 -0.7453 -0.5055
11666TIP3    H134920   7.032   6.028   1.668  0.4636 -0.2011 -1.1401
11666TIP3    H234921   7.180   6.008   1.644  0.5719 -0.2038 -0.4939
11667TIP3   OH234922   0.918   0.800   2.946 -0.4858 -1.1084 -0.2815
11667TIP3    H134923   0.870   0.718   2.956  1.0172 -2.0104 -0.1063
11667TIP3    H234924   0.869   0.864   2.997 -1.4417 -1.9910 -0.0651
11668TIP3   OH234925   8.338   3.185   6.099  0.2520  0.1137  0.1011
11668TIP3    H134926   8.395   3.119   6.138 -1.1936 -0.8133  0.7617
11668TIP3    H234927   8.272   3.202   6.166 -0.5697  0.7350 -0.8306
11669TIP3   OH234928   7.030   5.004   4.112 -0.2427 -0.2434 -0.5515
11669TIP3    H134929   6.966   4.934   4.121  0.1105 -0.5533 -0.4255
11669TIP3    H234930   7.112   4.959   4.094  0.7386 -0.1370  2.9136
11670TIP3   OH234931   3.148   6.511   5.100  0.5363 -0.4789  0.2023
11670TIP3    H134932   3.208   6.437   5.092  1.0222  0.0225 -0.8859
11670TIP3    H234933   3.172   6.553   5.183  0.8893 -0.9810  0.3576
11671TIP3   OH234934   4.246   0.202   0.492 -0.7357  0.0652 -0.0998
11671TIP3    H134935   4.160   0.162   0.480 -1.2333  0.9436  0.4569
11671TIP3    H234936   4.272   0.231   0.404 -1.0146 -0.1676 -0.2600
11672TIP3   OH234937   5.759   3.265   6.834  0.5307  0.2042  0.1121
11672TIP3    H134938   5.677   3.278   6.882  1.5521  1.7846  1.5502
11672TIP3    H234939   5.799   3.188   6.874 -0.0329 -0.3153 -0.3063
11673TIP3   OH234940   6.578   4.633   3.245  0.4762  0.4009  0.2166
11673TIP3    H134941   6.501   4.641   3.189  0.3147  1.5649  0.5716
11673TIP3    H234942   6.552   4.674   3.328  0.9493 -0.6331  0.9064
11674TIP3   OH234943   7.977   5.620   2.421 -0.5692  0.0931  0.1683
11674TIP3    H134944   8.069   5.646   2.410 -0.5552  0.0910  0.2810
11674TIP3    H234945   7.947   5.669   2.497 -0.6206 -0.0146  0.2178
11675TIP3   OH234946   1.826   7.800   3.226  0.3205  1.2916 -0.9279
11675TIP3    H134947   1.788   7.783   3.139 -1.2564  0.0410 -0.0396
11675TIP3    H234948   1.880   7.723   3.244  0.3806  1.4025 -0.6363
11676TIP3   OH234949   5.876   6.292   1.875 -0.1580  0.6196  0.0804
11676TIP3    H134950   5.905   6.348   1.948 -0.6919 -0.3666  1.0714
11676TIP3    H234951   5.786   6.271   1.896 -0.0467 -0.3935 -0.4239
11677TIP3   OH234952   0.536   6.737   3.322 -0.3611 -0.0170  0.2784
11677TIP3    H134953   0.610   6.797   3.315 -1.4755  1.2791 -1.1547
11677TIP3    H234954   0.507   6.744   3.413  1.3878 -0.7372  0.9249
11678TIP3   OH234955   6.642   4.551   1.029 -0.0447  0.6562  0.0086
11678TIP3    H134956   6.616   4.639   1.056  0.9507  0.2414  2.6303
11678TIP3    H234957   6.735   4.545   1.054 -0.4831 -1.6326  1.3579
11679TIP3   OH234958   7.964   7.819   2.545  0.5717 -0.2140  0.2070
11679TIP3    H134959   7.983   7.908   2.573  0.4130 -0.2923  0.5736
11679TIP3    H234960   8.005   7.764   2.612 -2.5066 -0.3945  2.1729
11680TIP3   OH234961   6.884   6.125   5.882 -0.5401 -0.3500 -0.2958
11680TIP3    H134962   6.898   6.220   5.886  1.0843 -0.5907  1.2201
11680TIP3    H234963   6.789   6.115   5.881 -0.7533  1.2966 -1.7537
11681TIP3   OH234964   8.019   3.973   2.652 -0.4292  0.0045 -0.1274
11681TIP3    H134965   8.027   4.066   2.631  1.2909  0.4321  2.1089
11681TIP3    H234966   7.950   3.942   2.593  0.7842  2.0480 -2.8657
11682TIP3   OH234967   5.703   1.603   1.995  0.1660 -0.4505  0.1657
11682TIP3    H134968   5.644   1.556   2.053  1.6158 -3.3055 -0.5107
11682TIP3    H234969   5.651   1.676   1.961 -2.1022 -1.3298  1.5678
11683TIP3   OH234970   8.623   3.788   2.662  0.2130 -0.3842  0.1086
11683TIP3    H134971   8.578   3.820   2.740  0.5251  1.2211 -0.3421
11683TIP3    H234972   8.552   3.765   2.602 -0.0583  1.0325 -0.1585
11684TIP3   OH234973   2.510   7.103   0.054 -0.3862  0.4457 -0.3706
11684TIP3    H134974   2.530   7.028   0.109  2.0455  1.7531  0.6848
11684TIP3    H234975   2.470   7.167   0.113 -1.0490  0.5611 -0.9246
11685TIP3   OH234976   2.959   1.250   0.048  0.1970  0.4673  0.0971
11685TIP3    H134977   2.887   1.193   0.074  1.7535 -1.4243  0.4493
11685TIP3    H234978   2.974   1.230  -0.044  1.4932 -0.6162  0.5073
11686TIP3   OH234979   4.443   7.552   0.347  0.1446 -0.4330 -0.2848
11686TIP3    H134980   4.378   7.547   0.417  0.3651  2.5124  0.2309
11686TIP3    H234981   4.456   7.461   0.320 -1.0779 -1.5194  2.4525
11687TIP3   OH234982   5.966   0.126   2.076 -0.1769 -0.6295  0.0942
11687TIP3    H134983   5.974   0.148   1.983 -3.3290 -0.0070 -0.1373
11687TIP3    H234984   5.980   0.032   2.080  0.8069 -0.5411 -0.8720
11688TIP3   OH234985   1.642   1.349   2.725  0.6856  0.2065  0.1261
11688TIP3    H134986   1.626   1.383   2.813  0.2084 -0.1425  0.1785
11688TIP3    H234987   1.556   1.317   2.696  0.7555  0.6806 -0.6199
11689TIP3   OH234988   0.752   5.619   1.343  0.0776 -0.4162 -0.1589
11689TIP3    H134989   0.827   5.560   1.354 -1.5272 -2.7709 -0.9860
11689TIP3    H234990   0.723   5.638   1.432  0.5855 -0.9465  0.1264
11690TIP3   OH234991   4.960   6.020   5.254 -0.6731 -0.2538 -0.5464
11690TIP3    H134992   4.986   5.950   5.314  0.6022  0.8781  0.2930
11690TIP3    H234993   5.011   6.004   5.175 -1.1067 -0.8112 -0.7178
11691TIP3   OH234994   0.076   5.293   0.301 -0.2194  0.1398  0.0744
11691TIP3    H134995  -0.020   5.289   0.305 -0.1773  0.3773  1.5513
11691TIP3    H234996   0.102   5.204   0.277 -0.7340 -0.4780  1.6949
11692TIP3   OH234997   0.153   4.204   1.996  0.2361 -0.3838  0.5645
11692TIP3    H134998   0.197   4.258   1.930  0.4277  0.2950  1.2285
11692TIP3    H234999   0.131   4.266   2.066  3.4630 -1.6263  2.9246
11693TIP3   OH235000   1.964   7.973   3.856  0.3955  0.2706  0.4281
11693TIP3    H135001   1.897   8.040   3.866  0.1953  0.6220 -2.4208
11693TIP3    H235002   2.041   8.008   3.900 -0.5430  1.0246  1.5026
11694TIP3   OH235003   7.944   6.416   0.336  0.0654 -0.0102  0.6379
11694TIP3    H135004   7.910   6.502   0.362 -2.2751 -0.6315 -0.1273
11694TIP3    H235005   7.975   6.428   0.247 -1.6976 -0.2723 -0.0396
11695TIP3   OH235006   5.522   6.652   5.247 -0.3991  0.6998 -0.5962
11695TIP3    H135007   5.428   6.658   5.264 -0.1357  0.0624  1.3068
11695TIP3    H235008   5.535   6.563   5.214 -0.3130  0.3538  0.3502
11696TIP3   OH235009   3.389   7.726   2.833  0.1548 -0.5443  0.1733
11696TIP3    H135010   3.355   7.711   2.922  0.0610 -1.4567 -0.0022
11696TIP3    H235011   3.429   7.642   2.808 -1.7102 -1.0304 -1.4577
11697TIP3   OH235012   5.711   0.082   6.042 -0.4151  0.7212 -0.0941
11697TIP3    H135013   5.643   0.071   5.976 -0.9875 -3.3045  0.8944
11697TIP3    H235014   5.664   0.117   6.118 -0.9954 -0.0376 -0.0868
11698TIP3   OH235015   4.937   2.994   2.479  0.2726 -0.2887  0.4920
11698TIP3    H135016   4.912   3.056   2.410  2.4924  1.0126  0.7919
11698TIP3    H235017   4.917   2.908   2.441 -1.0716  0.4869 -0.6796
11699TIP3   OH235018   2.451   4.547   2.942 -0.1187 -0.3419 -0.0194
11699TIP3    H135019   2.378   4.510   2.894  1.1023 -3.5823  0.3447
11699TIP3    H235020   2.461   4.489   3.019  1.5612  1.1868  0.9936
11700TIP3   OH235021   1.442   3.700   1.354 -0.8116 -0.1377  0.0172
11700TIP3    H135022   1.526   3.739   1.328  0.4009 -1.9733  0.8908
11700TIP3    H235023   1.444   3.612   1.315 -2.5429 -0.0517 -0.3041
11701TIP3   OH235024   3.633   0.473   5.903  0.2943  0.4348 -0.0643
11701TIP3    H135025   3.581   0.483   5.983 -0.8950  1.4510 -0.9350
11701TIP3    H235026   3.603   0.390   5.865 -0.3860  0.8002 -0.3338
11702TIP3   OH235027   5.318   4.549   6.257 -0.6240  0.2601 -0.6684
11702TIP3    H135028   5.313   4.489   6.183 -1.3401 -0.1706 -0.2849
11702TIP3    H235029   5.409   4.544   6.286 -0.5628 -0.2696 -0.9496
11703TIP3   OH235030   2.204   7.353   6.398  0.0278  0.3690  0.1044
11703TIP3    H135031   2.163   7.438   6.387 -0.6011  0.2773  1.5513
11703TIP3    H235032   2.225   7.348   6.491 -0.2600 -1.1842  0.1174
11704TIP3   OH235033   0.808   5.283   6.804 -0.0591 -0.2189 -0.0767
11704TIP3    H135034   0.783   5.326   6.886  2.8234  1.0091  0.2926
11704TIP3    H235035   0.742   5.215   6.791 -1.2172  0.2361  2.6961
11705TIP3   OH235036   8.204   2.911   4.501  0.1268 -0.3705  0.2447
11705TIP3    H135037   8.190   2.860   4.581  0.3415  0.7511  1.0247
11705TIP3    H235038   8.293   2.944   4.508 -0.5047  1.3997  0.5492
11706TIP3   OH235039   2.588   0.819   2.488  0.0870 -0.5653 -0.1074
11706TIP3    H135040   2.560   0.788   2.402  0.2428 -2.3302  0.4204
11706TIP3    H235041   2.647   0.892   2.470 -2.2409  1.1374 -1.3531
11707TIP3   OH235042   7.585   1.790   2.266  0.1512 -0.0110 -0.0396
11707TIP3    H135043   7.582   1.857   2.198 -2.2079  0.8839  0.8607
11707TIP3    H235044   7.553   1.834   2.345  0.2496 -1.7404  1.0148
11708TIP3   OH235045   8.214   8.213   6.150 -0.1043 -0.3116  0.4117
11708TIP3    H135046   8.159   8.155   6.203 -0.3331 -1.8187 -1.3761
11708TIP3    H235047   8.303   8.195   6.180 -0.3579  0.3718  1.6555
11709TIP3   OH235048   2.455   5.961   6.101  0.3762 -0.0956  0.3687
11709TIP3    H135049   2.413   5.878   6.077  0.9168 -0.3738  0.3836
11709TIP3    H235050   2.417   6.025   6.041 -0.2461 -0.3003  0.5342
11710TIP3   OH235051   3.978   1.118   1.570 -0.1625 -0.2955 -0.3120
11710TIP3    H135052   3.896   1.102   1.523 -0.0490  0.1257 -0.6571
11710TIP3    H235053   3.990   1.213   1.567 -0.0907 -0.2747  0.4680
11711TIP3   OH235054   7.667   5.017   4.574 -0.0681  0.0877  0.3881
11711TIP3    H135055   7.748   5.047   4.616  0.7127  1.4103 -1.9094
11711TIP3    H235056   7.630   5.095   4.534 -0.4966 -1.1543 -1.7686
11712TIP3   OH235057   1.174   5.190   0.561 -0.0279  0.2505 -0.2918
11712TIP3    H135058   1.094   5.211   0.513 -1.6371 -0.5605  1.8681
11712TIP3    H235059   1.166   5.097   0.581  0.7315  0.4942  1.2449
11713TIP3   OH235060   1.476   8.183   6.272  0.6826 -0.7353 -0.2130
11713TIP3    H135061   1.552   8.234   6.243 -0.6976  1.5497 -0.0341
11713TIP3    H235062   1.425   8.169   6.193 -0.1677  0.3917  0.1064
11714TIP3   OH235063   7.510   3.032   0.048  0.4381  0.1167  0.0755
11714TIP3    H135064   7.552   2.993  -0.029 -0.2971 -0.9428  0.1831
11714TIP3    H235065   7.579   3.083   0.091  0.9561  0.4147 -1.0716
11715TIP3   OH235066   5.898   3.642   2.020 -0.3605  0.2131 -0.5965
11715TIP3    H135067   5.989   3.635   2.047 -0.5230  1.9451  0.6025
11715TIP3    H235068   5.861   3.555   2.038  0.6609 -0.0183  0.5257
11716TIP3   OH235069   1.607   3.744   6.757 -0.0383  0.2341 -0.1816
11716TIP3    H135070   1.550   3.808   6.713 -0.4110  2.0327  2.6605
11716TIP3    H235071   1.557   3.663   6.755 -2.6503  1.6190  1.7476
11717TIP3   OH235072   4.612   1.297   7.025  0.1805 -0.1592  0.6834
11717TIP3    H135073   4.569   1.251   6.953  2.2757 -0.0295 -0.7524
11717TIP3    H235074   4.550   1.365   7.052 -0.8743 -0.5780 -0.6215
11718TIP3   OH235075   5.881   4.012   4.788  0.3381 -0.5326 -0.4453
11718TIP3    H135076   5.904   3.967   4.869  0.9450 -0.7732 -0.7512
11718TIP3    H235077   5.964   4.026   4.743  0.1378  0.6376 -0.4923
11719TIP3   OH235078   0.297   5.535   4.798 -0.2229  0.1628  0.0681
11719TIP3    H135079   0.236   5.602   4.767 -1.0712 -0.2055  0.8970
11719TIP3    H235080   0.285   5.461   4.739  0.9693  0.8323 -1.0679
11720TIP3   OH235081   5.999   1.775   4.553 -0.5276  0.3202  0.3446
11720TIP3    H135082   5.957   1.694   4.582 -0.7550  0.6023  0.8184
11720TIP3    H235083   5.926   1.834   4.533 -0.3707  0.8473  1.2643
11721TIP3   OH235084   5.101   0.736   5.377  0.5152 -0.2781  0.1128
11721TIP3    H135085   5.174   0.788   5.411  0.8101 -0.1140 -0.7421
11721TIP3    H235086   5.125   0.718   5.286  0.0716 -1.2959  0.1838
11722TIP3   OH235087   2.301   4.396   3.516 -0.4816  0.6032 -0.0710
11722TIP3    H135088   2.279   4.368   3.605  2.6299 -1.4383  0.2335
11722TIP3    H235089   2.380   4.450   3.527  0.7715 -0.7986 -1.6036
11723TIP3   OH235090   6.913   2.477   1.816  0.5285 -0.2626 -0.3614
11723TIP3    H135091   6.971   2.427   1.874  0.0096  0.4169  0.7655
11723TIP3    H235092   6.827   2.470   1.856 -0.0309 -0.5665 -1.5796
11724TIP3   OH235093   1.172   4.447   3.763  0.4137 -0.4661  0.2324
11724TIP3    H135094   1.225   4.397   3.825 -0.0760 -0.8092  0.3837
11724TIP3    H235095   1.171   4.393   3.683  1.4388  0.1992 -0.2501
11725TIP3   OH235096   2.441   1.142   3.819  0.3755 -0.0867 -0.1932
11725TIP3    H135097   2.410   1.159   3.907  1.0875  1.1060 -0.1539
11725TIP3    H235098   2.535   1.126   3.829  0.5536  0.5654 -0.7907
11726TIP3   OH235099   4.946   3.975   2.321 -0.0154 -0.1075 -0.0069
11726TIP3    H135100   4.882   4.033   2.279 -0.9309 -0.3763  0.9668
11726TIP3    H235101   4.989   3.930   2.249 -0.5778  0.4548 -0.7044
11727TIP3   OH235102   6.722   7.683   5.321  0.4643  0.1472  0.3795
11727TIP3    H135103   6.815   7.706   5.323 -0.0031  2.2764  0.7082
11727TIP3    H235104   6.677   7.764   5.346 -1.5840 -0.2179 -1.7490
11728TIP3   OH235105   6.974   4.611   0.436  0.0461 -0.1351 -0.8081
11728TIP3    H135106   6.950   4.553   0.508 -0.3137 -0.8434 -1.4846
11728TIP3    H235107   6.925   4.578   0.361 -0.1356  1.0196 -1.2295
11729TIP3   OH235108   8.107   2.347   1.632 -0.0293  0.1985  0.8223
11729TIP3    H135109   8.184   2.291   1.644 -0.2005  0.0847  1.4079
11729TIP3    H235110   8.080   2.370   1.721 -1.0291 -0.2384  0.6386
11730TIP3   OH235111   4.188   0.236   6.936  0.0133 -0.0314  0.2212
11730TIP3    H135112   4.226   0.265   6.853 -0.6419 -1.6139 -0.6601
11730TIP3    H235113   4.264   0.216   6.991  0.5574 -2.2581 -1.1935
11731TIP3   OH235114   7.741   1.837   4.320  0.2788 -0.2386 -0.0166
11731TIP3    H135115   7.820   1.784   4.327 -0.6928 -1.7814 -0.2887
11731TIP3    H235116   7.691   1.797   4.249 -0.4173  1.1640 -0.3567
11732TIP3   OH235117   7.982   4.453   6.843 -0.0755  0.1538  0.1680
11732TIP3    H135118   7.927   4.473   6.767  1.1948  0.9237 -0.5720
11732TIP3    H235119   8.070   4.445   6.808  0.7812  1.9564  1.7259
11733TIP3   OH235120   0.063   5.028   2.489 -0.4365  0.0786 -0.3473
11733TIP3    H135121   0.084   4.989   2.574 -0.2519  1.3841  0.2234
11733TIP3    H235122   0.091   5.119   2.497 -2.3112  0.7610 -1.0892
11734TIP3   OH235123   2.381   6.056   2.624  0.2124  0.1836  0.0189
11734TIP3    H135124   2.312   6.105   2.577  1.0304  1.2208 -0.1292
11734TIP3    H235125   2.335   6.017   2.699 -1.0255 -1.0996 -1.3281
11735TIP3   OH235126   8.617   3.639   4.392 -0.0190  0.3649  0.2148
11735TIP3    H135127   8.558   3.707   4.425 -0.0906  0.4896 -0.1721
11735TIP3    H235128   8.691   3.687   4.356 -1.7458  0.5488 -3.6592
11736TIP3   OH235129   0.961   7.134   4.709  0.0591 -0.3278  0.1675
11736TIP3    H135130   1.022   7.084   4.764 -0.6098  0.9286  2.1800
11736TIP3    H235131   0.885   7.148   4.765 -0.2139  2.0003 -0.6869
11737TIP3   OH235132   1.181   2.408   5.716 -0.6564  0.0916 -0.5242
11737TIP3    H135133   1.235   2.329   5.722 -0.3069  0.4102  0.9038
11737TIP3    H235134   1.125   2.405   5.793 -1.5843  0.5726 -1.1604
11738TIP3   OH235135   1.143   3.120   6.163 -0.3333  0.7397  0.0303
11738TIP3    H135136   1.206   3.179   6.123  0.2533  1.6418  2.1634
11738TIP3    H235137   1.174   3.108   6.252 -0.9819 -2.0407 -0.0085
11739TIP3   OH235138   0.308   5.928   6.423  0.0557  0.9662  0.1230
11739TIP3    H135139   0.361   6.008   6.421  1.6499 -0.0591 -0.4350
11739TIP3    H235140   0.356   5.868   6.480  1.4017 -1.1854 -2.9696
11740TIP3   OH235141   7.176   2.859   3.863  0.0979  0.1235  0.0680
11740TIP3    H135142   7.202   2.935   3.812 -0.9697 -0.8483 -2.0529
11740TIP3    H235143   7.249   2.797   3.854 -0.5533 -0.4896 -1.3245
11741TIP3   OH235144   3.191   7.770   3.563 -0.2441 -0.0127  0.1971
11741TIP3    H135145   3.248   7.710   3.514 -0.0457  0.4552 -0.1571
11741TIP3    H235146   3.241   7.851   3.567 -0.3124 -0.0052  1.0741
11742TIP3   OH235147   7.767   0.506   5.896  0.3410  0.3443 -0.1206
11742TIP3    H135148   7.804   0.433   5.945 -0.3832 -0.0006 -0.0802
11742TIP3    H235149   7.842   0.541   5.847  0.9940  0.4452  0.9012
11743TIP3   OH235150   5.744   7.053   2.714 -0.7983 -0.1541 -0.2846
11743TIP3    H135151   5.721   7.069   2.805 -1.1182 -0.4932 -0.2984
11743TIP3    H235152   5.822   7.106   2.698  0.5349 -1.6918  0.7902
11744TIP3   OH235153   0.850   1.312   3.206  0.1566 -0.5975 -0.1608
11744TIP3    H135154   0.879   1.400   3.180  0.5008 -0.9448 -0.9887
11744TIP3    H235155   0.758   1.324   3.231 -0.0538 -0.1381 -1.0953
11745TIP3   OH235156   8.486   8.174   6.140 -0.4459 -0.3318  0.0099
11745TIP3    H135157   8.556   8.215   6.191 -0.9821  1.9349 -0.9519
11745TIP3    H235158   8.520   8.087   6.118  1.4379  0.1494  0.8090
11746TIP3   OH235159   6.840   4.048   3.195 -0.1565 -0.2651  0.3743
11746TIP3    H135160   6.837   3.955   3.172  0.1036 -0.7544  2.1727
11746TIP3    H235161   6.930   4.064   3.222  0.2006  0.9251 -1.3694
11747TIP3   OH235162   3.873   8.028   2.804  0.2824 -0.0835 -0.5249
11747TIP3    H135163   3.922   7.995   2.879 -1.8268 -0.1555  0.9063
11747TIP3    H235164   3.801   7.965   2.792 -2.1820  2.3395  0.4674
11748TIP3   OH235165   7.272   4.421   1.213 -0.0902  0.0147  0.3830
11748TIP3    H135166   7.314   4.506   1.198  1.3145 -0.2764  2.3489
11748TIP3    H235167   7.272   4.410   1.308  0.7227 -2.6280  0.1571
11749TIP3   OH235168   7.432   7.453   4.628  0.1512 -0.3858  0.8874
11749TIP3    H135169   7.434   7.391   4.701 -0.6521 -1.3428  0.1283
11749TIP3    H235170   7.352   7.503   4.641  1.0116  0.8133  1.7312
11750TIP3   OH235171   1.388   3.519   2.547  0.1239 -0.8820 -0.7430
11750TIP3    H135172   1.443   3.443   2.526 -0.9537 -1.9157  0.0584
11750TIP3    H235173   1.299   3.491   2.527 -0.2828  0.2152 -0.5391
11751TIP3   OH235174   0.163   4.176   4.383  0.0792 -0.7551 -0.3788
11751TIP3    H135175   0.096   4.216   4.327 -0.1118 -1.4595 -0.6771
11751TIP3    H235176   0.212   4.249   4.419  0.2826 -0.2899 -1.5701
11752TIP3   OH235177   0.997   3.639   0.097 -0.0793  0.3645 -0.6190
11752TIP3    H135178   0.917   3.639   0.046  0.2521  0.1918 -1.1485
11752TIP3    H235179   1.022   3.732   0.103 -0.2077  0.3993 -0.6162
11753TIP3   OH235180   0.034   3.158   2.301  0.0326 -0.5553  0.3441
11753TIP3    H135181   0.081   3.111   2.370  0.3627  1.5255  1.6088
11753TIP3    H235182   0.060   3.250   2.312 -1.5454  0.1336 -1.2285
11754TIP3   OH235183   0.559   7.314   2.751  0.4510  0.1473  0.3371
11754TIP3    H135184   0.467   7.341   2.745  0.6865  1.8096  2.7443
11754TIP3    H235185   0.607   7.382   2.704  0.6856  1.7423  2.6757
11755TIP3   OH235186   1.953   5.720   0.590 -0.0375 -0.1125  0.1543
11755TIP3    H135187   1.880   5.673   0.549 -0.1493  1.4965 -1.6178
11755TIP3    H235188   1.917   5.755   0.671 -1.4737  1.1313 -0.9574
11756TIP3   OH235189   3.899   6.433   3.117 -0.0687 -0.1925 -0.6611
11756TIP3    H135190   3.903   6.500   3.048  0.8316  0.0036 -0.4367
11756TIP3    H235191   3.851   6.360   3.077  0.0366  0.0974 -1.3349
11757TIP3   OH235192   1.596   4.101   3.821  0.5082 -0.2849 -0.1448
11757TIP3    H135193   1.690   4.107   3.801  0.9275 -1.6180  1.1965
11757TIP3    H235194   1.585   4.014   3.858 -1.3544 -0.2869 -0.6011
11758TIP3   OH235195   2.044   4.391   6.652  0.4642 -0.0219  0.3943
11758TIP3    H135196   1.953   4.374   6.628 -0.2891  2.2630  1.3404
11758TIP3    H235197   2.086   4.305   6.651 -1.3869 -0.9840 -1.2508
11759TIP3   OH235198   7.489   4.519   2.066  0.6002 -0.4354  0.0738
11759TIP3    H135199   7.518   4.429   2.084 -0.3349 -0.7453  0.0980
11759TIP3    H235200   7.393   4.515   2.072  0.3793  0.0362 -2.2329
11760TIP3   OH235201   2.186   2.776   4.284  0.3595 -0.0003 -0.0478
11760TIP3    H135202   2.145   2.843   4.338  0.4918 -0.1570  0.2446
11760TIP3    H235203   2.235   2.721   4.345  0.9377  0.1312 -0.3854
11761TIP3   OH235204   2.229   4.439   7.066  0.2693 -0.0674  0.0235
11761TIP3    H135205   2.145   4.439   7.019  0.5925 -1.0839 -0.5719
11761TIP3    H235206   2.227   4.520   7.118 -1.6581 -0.7126  1.0604
11762TIP3   OH235207   8.601   0.020   1.416 -0.0612 -0.1488  0.0241
11762TIP3    H135208   8.537   0.023   1.488  0.2337  1.6525  0.2580
11762TIP3    H235209   8.565   0.078   1.349  0.6759 -0.1753 -0.4095
11763TIP3   OH235210   2.402   4.322   4.519  0.2917  0.0006  0.1127
11763TIP3    H135211   2.370   4.259   4.454 -0.6498 -0.4825  1.0098
11763TIP3    H235212   2.475   4.277   4.561  0.4887  0.0598 -0.1579
11764TIP3   OH235213   8.356   7.637   6.705 -0.0213 -0.1656 -0.5047
11764TIP3    H135214   8.263   7.614   6.706 -0.1086  0.1782 -0.4843
11764TIP3    H235215   8.399   7.567   6.755 -0.3811  0.1380  0.2359
11765TIP3   OH235216   8.382   6.529   6.284  0.4688  0.0311 -0.5262
11765TIP3    H135217   8.411   6.618   6.263 -0.3998  0.1986 -1.0769
11765TIP3    H235218   8.342   6.537   6.370  0.7040  0.0933 -0.4194
11766TIP3   OH235219   5.578   1.798   2.872  0.3240 -0.0627  0.0545
11766TIP3    H135220   5.544   1.876   2.828 -0.4567  0.1517  1.0246
11766TIP3    H235221   5.632   1.832   2.943  1.4102 -0.4142 -0.5683
11767TIP3   OH235222   6.435   7.933   1.984  0.4638 -0.1357 -0.0599
11767TIP3    H135223   6.372   8.000   1.958  1.4226  0.4025 -1.0996
11767TIP3    H235224   6.497   7.979   2.041 -0.4585 -0.8324  1.5655
11768TIP3   OH235225   2.336   0.668   0.761  0.3685  0.0290 -0.5165
11768TIP3    H135226   2.292   0.600   0.812 -0.2613  0.2071 -0.8163
11768TIP3    H235227   2.272   0.694   0.694  1.7279 -1.3914 -2.5072
11769TIP3   OH235228   7.877   2.140   3.066 -0.3483 -0.4013  0.3871
11769TIP3    H135229   7.844   2.063   3.112 -1.1466 -0.4863 -0.3055
11769TIP3    H235230   7.905   2.199   3.136 -1.7642 -0.4308  1.0235
11770TIP3   OH235231   6.820   6.213   2.130  0.3582  0.2340 -0.3866
11770TIP3    H135232   6.769   6.295   2.134 -1.3181 -0.8075  0.7364
11770TIP3    H235233   6.909   6.240   2.155 -0.3449  1.5903  0.8699
11771TIP3   OH235234   2.402   5.741   0.687  0.2359 -0.0803 -0.5625
11771TIP3    H135235   2.439   5.654   0.696  0.5599  0.1175  0.0868
11771TIP3    H235236   2.368   5.762   0.774 -0.1679  0.2939 -0.8030
11772TIP3   OH235237   4.765   2.536   5.570 -0.5830 -0.4365 -0.3664
11772TIP3    H135238   4.813   2.487   5.503 -0.6665 -1.1780  0.1137
11772TIP3    H235239   4.801   2.505   5.653 -1.1637 -0.2326 -0.0359
11773TIP3   OH235240   7.451   0.743   0.672 -0.3139  0.3810 -1.3927
11773TIP3    H135241   7.376   0.753   0.731  0.3656 -0.1602 -0.4086
11773TIP3    H235242   7.426   0.672   0.613 -0.0596 -0.7773 -0.1675
11774TIP3   OH235243   5.413   2.208   5.155 -0.8327  0.0196  0.2937
11774TIP3    H135244   5.364   2.235   5.233  0.2914  0.9496  0.7057
11774TIP3    H235245   5.388   2.272   5.088 -1.3516 -0.4311  0.0502
11775TIP3   OH235246   3.088   0.474   5.898 -0.3631 -0.1212  0.2858
11775TIP3    H135247   3.062   0.438   5.813 -1.2353  0.9384  0.0829
11775TIP3    H235248   3.172   0.517   5.881 -0.2105 -0.4773  0.1193
11776TIP3   OH235249   5.818   0.889   1.749 -0.3516 -0.0733  0.1332
11776TIP3    H135250   5.855   0.929   1.671  0.3927 -1.5803 -0.3152
11776TIP3    H235251   5.725   0.879   1.729 -0.4227  0.7835 -0.0072
11777TIP3   OH235252   7.572   0.124   2.840 -0.6489  0.6927 -0.4064
11777TIP3    H135253   7.661   0.156   2.820 -1.1458  2.4212 -0.0179
11777TIP3    H235254   7.522   0.142   2.760 -1.1874  1.8882  0.1914
11778TIP3   OH235255   4.353   4.048   6.421  0.2855 -0.3426 -0.0828
11778TIP3    H135256   4.266   4.027   6.387 -0.3266  2.6169 -0.6486
11778TIP3    H235257   4.409   4.046   6.344 -0.3785  2.6560 -0.8046
11779TIP3   OH235258   0.374   5.529   0.881  0.2216  0.1615 -0.6118
11779TIP3    H135259   0.463   5.563   0.885  0.8610 -1.0999 -2.5877
11779TIP3    H235260   0.337   5.549   0.967  2.1574  1.3257  0.0237
11780TIP3   OH235261   0.181   0.018   1.153 -0.3332  0.3954  0.2827
11780TIP3    H135262   0.197   0.084   1.085  0.9583 -0.5339 -0.3692
11780TIP3    H235263   0.087   0.004   1.150 -0.4831  1.3835 -0.3590
11781TIP3   OH235264   2.811   0.398   4.289  0.1804  0.5563 -0.1085
11781TIP3    H135265   2.784   0.308   4.272 -3.3991  1.8370 -2.6083
11781TIP3    H235266   2.880   0.415   4.225  1.8567 -0.7214  1.3015
11782TIP3   OH235267   0.509   5.387   6.662  0.2964 -0.0499  0.2568
11782TIP3    H135268   0.535   5.314   6.718 -0.2294 -0.6215 -0.2416
11782TIP3    H235269   0.414   5.387   6.663  0.2734 -0.0734 -0.6387
11783TIP3   OH235270   5.132   0.176   6.665 -0.3205  0.1438  0.6348
11783TIP3    H135271   5.081   0.120   6.607 -0.6161  1.1909 -0.1522
11783TIP3    H235272   5.199   0.119   6.701  0.2788 -0.4022 -1.2392
11784TIP3   OH235273   2.296   4.439   0.957  0.0807  0.4682 -0.1303
11784TIP3    H135274   2.272   4.360   0.909 -0.8538  0.5137  0.2376
11784TIP3    H235275   2.212   4.479   0.981  0.5380  1.1123  0.4380
11785TIP3   OH235276   6.398   6.279   2.754 -0.1549 -0.0465 -0.0945
11785TIP3    H135277   6.468   6.216   2.732  0.3213  0.3073  0.3839
11785TIP3    H235278   6.409   6.295   2.848 -0.8531  0.0538 -0.0242
11786TIP3   OH235279   4.002   2.672   1.376 -0.2906  0.1970  0.6917
11786TIP3    H135280   4.081   2.619   1.375 -0.1626  0.3720  1.3367
11786TIP3    H235281   3.931   2.608   1.369 -0.0771  0.1454 -1.7686
11787TIP3   OH235282   4.937   3.553   2.375 -0.3057  0.2032  0.2654
11787TIP3    H135283   5.012   3.563   2.317 -2.3377  0.5082 -2.5007
11787TIP3    H235284   4.938   3.632   2.429  1.0675  0.4092 -0.0173
11788TIP3   OH235285   6.661   6.734   4.308  0.0036  0.4525  0.4522
11788TIP3    H135286   6.598   6.801   4.333 -1.0634 -0.6978  0.9759
11788TIP3    H235287   6.733   6.743   4.370 -1.3293 -0.5372  2.2324
11789TIP3   OH235288   2.094   6.687   1.346  0.4432 -0.0802 -0.4077
11789TIP3    H135289   2.169   6.637   1.378  0.5931  0.3299 -0.1105
11789TIP3    H235290   2.124   6.726   1.264  0.7928  0.6528  0.0622
11790TIP3   OH235291   8.610   6.181   4.809  0.5205 -0.5285  0.0995
11790TIP3    H135292   8.658   6.109   4.767  0.1096 -0.4887 -0.4518
11790TIP3    H235293   8.674   6.251   4.816  0.6925 -0.6560 -0.1499
11791TIP3   OH235294   8.499   5.019   6.362  0.4689 -0.0501  0.2499
11791TIP3    H135295   8.467   4.982   6.280 -0.3565 -2.8200  1.6955
11791TIP3    H235296   8.421   5.058   6.403  0.7250  0.6446  0.0956
11792TIP3   OH235297   2.399   5.809   1.673  0.4749  0.0305  0.3097
11792TIP3    H135298   2.445   5.836   1.752 -1.1378  0.3130  1.2067
11792TIP3    H235299   2.412   5.714   1.668  2.2194  0.2648 -0.2157
11793TIP3   OH235300   3.266   0.527   6.878 -0.2730  0.3383 -0.0097
11793TIP3    H135301   3.283   0.476   6.957  0.7958  2.2783  1.0812
11793TIP3    H235302   3.322   0.487   6.811 -0.3623 -0.6419  0.4855
11794TIP3   OH235303   4.608   1.315   6.205 -0.1154 -0.6019 -0.3776
11794TIP3    H135304   4.689   1.265   6.218  0.3138 -1.1088 -3.9962
11794TIP3    H235305   4.632   1.406   6.225  1.0002 -0.9115 -0.2523
11795TIP3   OH235306   6.930   1.473   0.277 -0.1261 -0.9554 -0.3877
11795TIP3    H135307   6.935   1.550   0.333  0.9911  0.2708 -2.0649
11795TIP3    H235308   7.016   1.431   0.286  0.4825 -0.1413 -1.9032
11796TIP3   OH235309   4.269   5.222   3.168 -0.3103  0.3086  0.2319
11796TIP3    H135310   4.267   5.127   3.162 -1.2101  0.2930  0.5952
11796TIP3    H235311   4.294   5.252   3.081 -2.3924 -0.2077 -0.5884
11797TIP3   OH235312   1.032   2.124   0.258  0.1728  0.4003 -0.3523
11797TIP3    H135313   1.037   2.064   0.333  0.2694 -0.4401 -1.0146
11797TIP3    H235314   0.942   2.156   0.259 -0.5279 -1.3794 -1.1813
11798TIP3   OH235315   5.690   0.936   6.053 -0.2517 -0.1937 -0.9736
11798TIP3    H135316   5.655   0.851   6.026  0.4986 -0.3866 -1.3638
11798TIP3    H235317   5.780   0.918   6.079  0.0966  0.5751 -1.6078
11799TIP3   OH235318   0.096   1.998   2.294  0.8128 -0.4892  0.1371
11799TIP3    H135319   0.130   2.035   2.376  0.2309 -1.1490  0.6888
11799TIP3    H235320   0.029   1.936   2.322 -1.6580  1.5062 -0.9320
11800TIP3   OH235321   5.429   4.696   2.503  0.2752 -0.7779 -0.9560
11800TIP3    H135322   5.360   4.722   2.564  1.1115 -1.3733  0.2802
11800TIP3    H235323   5.424   4.600   2.501 -0.9255 -0.7504 -3.2733
11801TIP3   OH235324   4.843   5.431   1.628  0.4328  0.3715  0.3757
11801TIP3    H135325   4.883   5.495   1.686 -0.0490  1.1060 -0.0925
11801TIP3    H235326   4.783   5.382   1.685  0.9307  0.2005  0.7700
11802TIP3   OH235327   0.740   1.929   6.886  0.0049 -0.0205 -0.1330
11802TIP3    H135328   0.800   1.897   6.953  0.0355 -0.1959 -0.2438
11802TIP3    H235329   0.788   1.998   6.841  0.1817 -0.2634 -0.3203
11803TIP3   OH235330   1.588   4.228   0.755  0.0726 -0.3257  0.7697
11803TIP3    H135331   1.675   4.228   0.716  0.6564 -1.1580  1.9923
11803TIP3    H235332   1.585   4.147   0.807 -1.0436  0.1935  1.5522
11804TIP3   OH235333   5.572   2.378   2.381 -0.1249 -0.3252 -0.0725
11804TIP3    H135334   5.495   2.355   2.433 -2.0194 -0.2530 -2.6480
11804TIP3    H235335   5.619   2.295   2.370 -0.5462 -0.6367  0.4237
11805TIP3   OH235336   6.953   6.521   0.763  0.1756 -0.3403 -0.1613
11805TIP3    H135337   6.969   6.513   0.857  2.3818 -2.1521 -0.6059
11805TIP3    H235338   7.018   6.583   0.732 -0.7152  0.4542 -0.4903
11806TIP3   OH235339   5.919   3.551   6.184  0.1036 -0.0034  0.5380
11806TIP3    H135340   6.013   3.543   6.201  0.1112 -0.5434  0.2642
11806TIP3    H235341   5.906   3.505   6.102 -0.5521 -0.7687  1.0592
11807TIP3   OH235342   7.810   3.859   4.814 -0.2460  0.8921 -0.0873
11807TIP3    H135343   7.794   3.765   4.830  1.5589  0.7008  0.9732
11807TIP3    H235344   7.863   3.886   4.889 -0.0833  2.5858 -0.7852
11808TIP3   OH235345   7.766   5.783   6.797 -0.0488 -0.0747  0.7284
11808TIP3    H135346   7.732   5.872   6.787  1.4635  0.7918  2.6404
11808TIP3    H235347   7.697   5.737   6.844 -0.8903  0.0274 -0.3651
11809TIP3   OH235348   4.218   3.627   0.706  0.1357  0.5363 -0.1247
11809TIP3    H135349   4.239   3.719   0.686 -1.7446  0.6704 -1.7694
11809TIP3    H235350   4.136   3.631   0.755 -0.1934 -0.2761 -0.5904
11810TIP3   OH235351   6.768   2.729   4.584 -0.1581 -0.0171 -0.0549
11810TIP3    H135352   6.781   2.769   4.670  2.0025  1.3930 -0.9689
11810TIP3    H235353   6.784   2.800   4.522  0.7396 -1.5848 -1.6870
11811TIP3   OH235354   5.070   0.598   6.638  0.4822  0.4236 -0.2184
11811TIP3    H135355   4.983   0.608   6.675  0.6378 -0.6223  0.4462
11811TIP3    H235356   5.061   0.529   6.573  0.6623  0.8379 -0.6953
11812TIP3   OH235357   3.890   5.946   5.007 -0.2291 -0.5440  0.1634
11812TIP3    H135358   3.962   5.976   4.953 -0.5817 -1.9105 -1.1309
11812TIP3    H235359   3.876   5.855   4.980 -1.8059 -0.6048  1.0608
11813TIP3   OH235360   4.359   1.069   7.077 -0.2062  0.4158 -0.5027
11813TIP3    H135361   4.422   1.016   7.029 -1.1763 -1.6114  0.3612
11813TIP3    H235362   4.281   1.014   7.084 -1.5383  2.2381 -0.1614
11814TIP3   OH235363   1.519   0.616   5.644 -0.1139 -0.3522 -0.8020
11814TIP3    H135364   1.563   0.653   5.568 -1.3972  1.3280 -0.7939
11814TIP3    H235365   1.557   0.529   5.655  0.3906 -0.4671 -3.1095
11815TIP3   OH235366   0.741   6.058   2.896 -0.0682 -0.7229 -0.3044
11815TIP3    H135367   0.742   6.125   2.828  1.5401  0.1934  0.5586
11815TIP3    H235368   0.825   6.067   2.940 -1.6012 -0.2572  2.8063
11816TIP3   OH235369   4.074   1.475   7.053 -0.0656  0.5134 -0.0718
11816TIP3    H135370   4.149   1.435   7.008 -0.5706 -0.5458  0.0166
11816TIP3    H235371   4.068   1.429   7.136 -2.7454 -1.6993 -1.3449
11817TIP3   OH235372   3.412   7.260   1.602 -0.3168 -0.1262 -0.4566
11817TIP3    H135373   3.458   7.185   1.640  0.3288  0.7004  0.4515
11817TIP3    H235374   3.323   7.254   1.638 -0.5579 -0.9794 -1.1587
11818TIP3   OH235375   1.254  -0.010   3.653  0.1877  0.3305 -0.4926
11818TIP3    H135376   1.174   0.044   3.657  0.5201  0.9310 -1.5792
11818TIP3    H235377   1.285   0.001   3.563  2.2434  1.2160  0.2699
11819TIP3   OH235378   2.584   6.178   1.951 -0.2690  0.8897  0.0378
11819TIP3    H135379   2.618   6.094   1.920 -2.5574 -0.8271  1.7727
11819TIP3    H235380   2.630   6.243   1.899  0.9746 -1.4572 -2.0403
11820TIP3   OH235381   7.369   3.412   5.023 -0.1701 -0.7564  0.3834
11820TIP3    H135382   7.302   3.354   4.986 -0.3784  0.4714 -1.3234
11820TIP3    H235383   7.447   3.395   4.970 -0.9271  2.2194 -1.9791
11821TIP3   OH235384   4.526   3.792   0.601 -0.0549 -0.5768 -0.3546
11821TIP3    H135385   4.447   3.845   0.590  1.4960  1.6085 -1.9456
11821TIP3    H235386   4.596   3.857   0.614  1.8399 -2.2777 -1.5031
11822TIP3   OH235387   5.840   1.789   7.129  0.3929  0.0245 -0.7322
11822TIP3    H135388   5.791   1.808   7.049  0.3203  3.0689 -0.0900
11822TIP3    H235389   5.926   1.827   7.114  0.6048  0.0270  0.3946
11823TIP3   OH235390   5.728   7.700   5.909 -0.5125 -0.0496  0.1232
11823TIP3    H135391   5.694   7.716   5.821 -0.5813 -0.1384  0.1324
11823TIP3    H235392   5.662   7.738   5.967 -1.2032 -1.2706  0.1703
11824TIP3   OH235393   2.218   1.546   1.306 -0.2350  0.0452  0.2341
11824TIP3    H135394   2.226   1.506   1.219 -0.3297  0.3539  0.0824
11824TIP3    H235395   2.168   1.626   1.291 -0.3868  0.0205  0.5975
11825TIP3   OH235396   4.480   7.415   3.474 -1.0485  0.3006  0.2360
11825TIP3    H135397   4.390   7.385   3.480 -0.8733 -0.2775  0.0385
11825TIP3    H235398   4.494   7.465   3.554 -2.1039  1.9717 -0.5671
11826TIP3   OH235399   0.677   1.183   6.091 -0.0337 -0.2370 -0.8517
11826TIP3    H135400   0.754   1.138   6.057  1.1358 -0.0997  1.4683
11826TIP3    H235401   0.618   1.113   6.119 -0.0852 -0.3297 -1.1861
11827TIP3   OH235402   2.694   2.780   2.374 -0.2471 -0.3590 -0.3678
11827TIP3    H135403   2.695   2.873   2.354  1.8909 -0.5501 -1.4177
11827TIP3    H235404   2.625   2.744   2.318 -1.3012  0.6255  0.2852
11828TIP3   OH235405   3.969   1.857   0.110  0.3333  0.2548 -0.2584
11828TIP3    H135406   3.941   1.913   0.182  0.1530 -2.1352  1.6691
11828TIP3    H235407   4.061   1.840   0.126  0.2242 -0.5381 -0.4201
11829TIP3   OH235408   3.943   1.034   0.154  0.3257 -0.0706  0.0409
11829TIP3    H135409   3.913   0.971   0.088 -1.3716  0.3174  0.3954
11829TIP3    H235410   4.025   1.068   0.119 -0.2140 -0.3292 -1.5663
11830TIP3   OH235411   7.127   4.678   4.175 -0.1599 -0.0658  0.1136
11830TIP3    H135412   7.147   4.644   4.262  0.5261 -0.0395 -0.0300
11830TIP3    H235413   7.179   4.624   4.116 -0.5201  0.0070 -0.2729
11831TIP3   OH235414   6.039   4.733   3.319  0.9006 -0.3118  0.2090
11831TIP3    H135415   5.956   4.684   3.318  1.6148 -1.5711 -0.0134
11831TIP3    H235416   6.071   4.723   3.408  0.5936  0.5815  0.4257
11832TIP3   OH235417   5.669   7.132   5.377  0.0137 -0.0249 -0.5517
11832TIP3    H135418   5.693   7.213   5.334  0.2534 -0.0295 -0.4268
11832TIP3    H235419   5.750   7.081   5.380  0.3315  0.5211  1.1074
11833TIP3   OH235420   1.136   5.719   3.987 -0.2840 -0.5140  0.3031
11833TIP3    H135421   1.097   5.779   3.923 -0.0133  0.2842  0.8670
11833TIP3    H235422   1.063   5.668   4.021 -0.9814  1.3780  1.7918
11834TIP3   OH235423   6.765   7.012   0.777  0.2346 -0.2464  0.2378
11834TIP3    H135424   6.750   6.956   0.700 -0.9445 -0.0159  0.2786
11834TIP3    H235425   6.855   6.992   0.804  0.7854 -0.1413 -1.3563
11835TIP3   OH235426   0.844   0.397   1.050  0.2408 -0.2871 -0.0162
11835TIP3    H135427   0.926   0.390   1.098  0.5081  0.3398 -0.3794
11835TIP3    H235428   0.829   0.491   1.041 -1.0839 -0.3533  1.0203
11836TIP3   OH235429   8.028   6.144   3.791  0.2837  0.4471  0.2755
11836TIP3    H135430   8.049   6.145   3.698  2.2811  0.1086  0.6833
11836TIP3    H235431   7.939   6.180   3.796  0.3515  0.9955 -1.6881
11837TIP3   OH235432   8.619   0.425   3.286  0.2956 -0.8330 -0.6575
11837TIP3    H135433   8.596   0.351   3.342  0.2337 -0.7664 -0.5937
11837TIP3    H235434   8.581   0.403   3.200 -0.2352 -0.6050 -0.4847
11838TIP3   OH235435   4.528   6.958   7.014  0.1384 -0.0670 -0.7973
11838TIP3    H135436   4.601   6.921   6.964  1.3561 -0.7368  1.3228
11838TIP3    H235437   4.455   6.961   6.952  1.7442 -0.1034 -2.7881
11839TIP3   OH235438   0.260   0.424   6.547 -0.0665 -0.5184 -0.4015
11839TIP3    H135439   0.186   0.380   6.588 -0.0965 -0.5254 -0.4635
11839TIP3    H235440   0.298   0.477   6.618 -0.0090 -0.6695 -0.3187
11840TIP3   OH235441   1.895   3.015   1.105  0.4623  0.0776 -0.0241
11840TIP3    H135442   1.981   3.052   1.085 -0.4680  1.3994 -1.9309
11840TIP3    H235443   1.839   3.047   1.035 -1.1102 -2.6093 -0.1277
11841TIP3   OH235444   1.088   1.603   0.904  0.2864 -0.5432  0.2909
11841TIP3    H135445   1.015   1.549   0.872  0.0677 -0.1251  0.0839
11841TIP3    H235446   1.106   1.569   0.992  0.3546 -1.1600  0.0411
11842TIP3   OH235447   7.057   5.242   7.040 -0.7802  0.2520  0.1280
11842TIP3    H135448   7.106   5.268   7.118 -2.1027  0.4037  0.9516
11842TIP3    H235449   7.121   5.202   6.983  0.1905 -0.0586  1.3924
11843TIP3   OH235450   7.944   7.442   5.186 -0.3001  0.0958  0.3738
11843TIP3    H135451   7.881   7.514   5.187  0.8849  1.1997  1.8648
11843TIP3    H235452   7.975   7.438   5.095 -2.4549 -0.5004 -0.4011
11844TIP3   OH235453   6.493   4.107   5.256 -0.1859  0.7260  0.6197
11844TIP3    H135454   6.531   4.019   5.258 -2.0965 -0.1898 -0.2488
11844TIP3    H235455   6.487   4.133   5.348  1.0775  0.2709  0.8440
11845TIP3   OH235456   8.475   1.348   0.607  0.2391  0.5279 -0.0305
11845TIP3    H135457   8.417   1.274   0.591  3.3866 -2.5865  1.5476
11845TIP3    H235458   8.456   1.374   0.698 -2.1659  3.1695 -1.1308
11846TIP3   OH235459   8.669   1.897   5.263  0.0706 -0.0125  0.0699
11846TIP3    H135460   8.625   1.814   5.244  2.2290 -1.3482  0.5624
11846TIP3    H235461   8.642   1.919   5.352 -1.7564  0.7269 -0.6031
11847TIP3   OH235462   5.085   2.903   5.479 -0.4348 -0.6106 -0.4226
11847TIP3    H135463   5.039   2.980   5.445  0.1522 -0.8463 -1.8393
11847TIP3    H235464   5.096   2.921   5.572  0.3985  1.4038 -0.8407
11848TIP3   OH235465   5.458   1.231   3.184 -0.0865 -0.3599  0.1865
11848TIP3    H135466   5.419   1.218   3.271 -1.3044 -2.0124 -0.5385
11848TIP3    H235467   5.401   1.296   3.142  0.7105  0.7058  0.7201
11849TIP3   OH235468   2.060   2.044   0.229  0.0668  0.7064 -0.0956
11849TIP3    H135469   2.026   2.022   0.143 -2.9890 -1.2434  1.4241
11849TIP3    H235470   2.011   2.122   0.255  2.1625  2.3068 -0.6624
11850TIP3   OH235471   1.513   4.988   2.083 -0.3439 -0.8186 -0.0882
11850TIP3    H135472   1.552   4.900   2.084  1.2564 -0.1720 -1.0170
11850TIP3    H235473   1.552   5.030   2.006  0.2075  1.2564  1.2636
11851TIP3   OH235474   8.321   1.011   4.933 -0.2870  0.3252  0.5362
11851TIP3    H135475   8.413   1.036   4.925 -0.4477  1.8634  2.6531
11851TIP3    H235476   8.318   0.952   5.009 -0.9501 -0.3287  0.0180
11852TIP3   OH235477   7.654   4.466   6.465  0.4537 -0.1854 -0.5954
11852TIP3    H135478   7.563   4.493   6.460  0.5679  0.2294 -0.4045
11852TIP3    H235479   7.698   4.534   6.515  0.4088 -1.5907  1.4969
11853TIP3   OH235480   1.751   7.081   4.819  0.5178 -0.2400 -0.5155
11853TIP3    H135481   1.838   7.042   4.821  0.7155  0.0805 -1.9841
11853TIP3    H235482   1.744   7.120   4.732 -0.2569  1.6344  0.3324
11854TIP3   OH235483   7.348   1.269   3.666  0.8854 -0.3957 -0.1217
11854TIP3    H135484   7.270   1.319   3.645  1.0037 -0.6228 -1.1861
11854TIP3    H235485   7.419   1.333   3.664  0.6011  0.0879  2.2129
11855TIP3   OH235486   7.719   0.056   4.042 -0.5054  0.3173  0.1030
11855TIP3    H135487   7.705   0.145   4.010 -0.5370  0.3980  0.3378
11855TIP3    H235488   7.763   0.068   4.127 -0.3908  0.1064  0.0743
11856TIP3   OH235489   5.392   0.275   2.005  0.1409  0.2020  0.3225
11856TIP3    H135490   5.426   0.298   1.918  1.3833 -1.4114  0.3262
11856TIP3    H235491   5.460   0.220   2.043 -1.9287 -2.1170  0.8980
11857TIP3   OH235492   4.348   8.090   5.482 -0.4202  0.7628  0.4254
11857TIP3    H135493   4.350   8.015   5.541 -1.9553  1.5145  1.4813
11857TIP3    H235494   4.419   8.147   5.513 -0.4711  0.6225  0.8065
11858TIP3   OH235495   1.701   1.693   4.884  0.1514 -0.4581 -0.1458
11858TIP3    H135496   1.612   1.673   4.855 -0.9873 -0.2417  2.8711
11858TIP3    H235497   1.735   1.610   4.916 -0.4324  0.1070  2.1216
11859TIP3   OH235498   5.670   5.773   5.712  0.0856  0.0723  0.0560
11859TIP3    H135499   5.641   5.834   5.644  0.8123  1.0231  0.5802
11859TIP3    H235500   5.590   5.731   5.743 -0.4240  0.7438 -0.3319
11860TIP3   OH235501   3.007   0.646   0.407 -0.1636  0.8139  0.4741
11860TIP3    H135502   2.988   0.738   0.389 -1.1131  0.6765  0.6729
11860TIP3    H235503   3.030   0.645   0.500  0.8374  0.9789  0.2382
11861TIP3   OH235504   0.976   2.669   6.023  0.0757 -0.1677  0.1867
11861TIP3    H135505   0.936   2.748   6.059 -2.1971 -0.4766 -1.4820
11861TIP3    H235506   1.026   2.699   5.947 -2.0203 -0.4125 -1.3680
11862TIP3   OH235507   6.955   0.748   3.197  0.2939 -0.0191 -0.3493
11862TIP3    H135508   6.972   0.806   3.270  0.3252  2.1801 -2.0156
11862TIP3    H235509   7.039   0.705   3.180  0.0137 -1.4242  1.5464
11863TIP3   OH235510   8.393   7.782   4.908 -0.4230  0.6037  0.0951
11863TIP3    H135511   8.480   7.807   4.877 -0.7839 -0.3813 -1.9210
11863TIP3    H235512   8.406   7.756   4.999  1.2448  1.1984  0.0563
11864TIP3   OH235513   8.663   5.916   6.450 -0.2798 -0.0875  0.6606
11864TIP3    H135514   8.603   5.916   6.375 -0.0155 -1.2226  0.4259
11864TIP3    H235515   8.694   5.825   6.456  0.0468  0.0829  1.8763
11865TIP3   OH235516   6.607   1.675   4.138 -0.0788 -0.6588  0.7290
11865TIP3    H135517   6.678   1.739   4.140 -0.4853 -0.1214 -0.8036
11865TIP3    H235518   6.532   1.722   4.174 -1.3450  1.0938 -3.6352
11866TIP3   OH235519   1.150   0.078   1.572 -0.9744 -0.2863  0.4042
11866TIP3    H135520   1.151  -0.003   1.520  2.4470 -0.3321  0.2611
11866TIP3    H235521   1.104   0.141   1.517  0.8838 -0.8418 -1.9888
11867TIP3   OH235522   7.526   1.390   3.184  0.3104 -0.2623 -0.0381
11867TIP3    H135523   7.432   1.372   3.180  0.2775  0.0204 -0.6467
11867TIP3    H235524   7.532   1.485   3.176  0.6041 -0.1927  0.9086
11868TIP3   OH235525   7.629   1.614   2.644  0.1075 -0.8035  0.3405
11868TIP3    H135526   7.718   1.601   2.612  0.3479 -0.6353  0.9169
11868TIP3    H235527   7.590   1.676   2.582  0.6842 -0.1963  0.5717
11869TIP3   OH235528   8.113   1.885   1.802  0.1022  0.0059 -0.6296
11869TIP3    H135529   8.031   1.858   1.841 -1.5087  2.3866 -2.1372
11869TIP3    H235530   8.165   1.804   1.799 -1.1463 -1.0750  2.5787
11870TIP3   OH235531   3.138   5.778   6.454  0.7392 -0.5888  0.0928
11870TIP3    H135532   3.103   5.689   6.444 -1.1497 -0.3172  3.1284
11870TIP3    H235533   3.078   5.833   6.404 -0.6785 -0.6308  1.6592
11871TIP3   OH235534   6.889   5.318   2.825 -0.4799  0.2694 -0.4508
11871TIP3    H135535   6.800   5.305   2.858 -0.7379  1.3660 -0.6652
11871TIP3    H235536   6.891   5.271   2.742 -1.2034  1.1187 -0.9624
11872TIP3   OH235537   5.897   5.251   3.712 -0.0711  0.3325  0.5166
11872TIP3    H135538   5.819   5.197   3.723 -0.8850  1.3428 -0.1871
11872TIP3    H235539   5.926   5.269   3.802 -1.0630  0.5536  0.7961
11873TIP3   OH235540   8.218   0.282   1.623 -0.5076 -0.4045 -0.1713
11873TIP3    H135541   8.172   0.257   1.703 -0.9165 -0.4613 -0.4207
11873TIP3    H235542   8.311   0.278   1.646 -0.6010  2.8620  1.3204
11874TIP3   OH235543   3.127   7.424   0.111  0.9083  0.5854  0.7640
11874TIP3    H135544   3.201   7.473   0.146 -1.5202  3.9622  1.7103
11874TIP3    H235545   3.123   7.449   0.019  1.2358  0.0131  0.5949
11875TIP3   OH235546   3.583   6.851   5.201 -0.3266 -0.2305 -0.5458
11875TIP3    H135547   3.649   6.804   5.251 -1.2474 -0.2139  0.7238
11875TIP3    H235548   3.557   6.789   5.132  0.4490 -0.5169 -0.5913
11876TIP3   OH235549   7.440   2.048   1.058  0.5313  0.1865  0.0522
11876TIP3    H135550   7.500   2.118   1.034  0.7550  0.3142  0.9543
11876TIP3    H235551   7.356   2.093   1.074 -0.0033 -0.0594 -1.8000
11877TIP3   OH235552   2.847   3.968   6.043 -0.0524  0.2272  0.6733
11877TIP3    H135553   2.817   4.049   6.084 -0.5426  1.1910 -1.4602
11877TIP3    H235554   2.910   3.997   5.977  0.7767 -1.2675  0.7740
11878TIP3   OH235555   6.936   7.619   2.906 -0.4211  0.0126  0.2242
11878TIP3    H135556   6.904   7.663   2.827 -0.3635 -1.4750 -0.6753
11878TIP3    H235557   7.003   7.678   2.941  0.4138  0.1705 -1.5289
11879TIP3   OH235558   8.471   3.865   2.932  0.2381  0.5858  0.1413
11879TIP3    H135559   8.425   3.781   2.937 -0.4866  0.9133 -0.7319
11879TIP3    H235560   8.552   3.851   2.981 -0.6970 -0.0593  1.5488
11880TIP3   OH235561   3.679   3.024   4.487 -0.1601  0.7024 -0.5085
11880TIP3    H135562   3.635   3.091   4.434 -1.0779  0.0619 -0.5731
11880TIP3    H235563   3.770   3.053   4.491  0.1349  0.3220 -3.1466
11881TIP3   OH235564   4.171   6.434   4.023  0.2992 -0.0528  0.1489
11881TIP3    H135565   4.205   6.369   4.085 -0.0557 -1.3428 -0.9387
11881TIP3    H235566   4.079   6.447   4.049 -0.2056 -1.5013 -0.7585
11882TIP3   OH235567   0.997   1.181   2.590 -0.2857 -0.3294 -0.3466
11882TIP3    H135568   1.011   1.096   2.632  2.1110  0.1095 -0.0921
11882TIP3    H235569   1.030   1.169   2.500 -1.1576 -0.0134 -0.7182
11883TIP3   OH235570   0.372   0.585   2.666  0.2293 -0.4671  0.1901
11883TIP3    H135571   0.363   0.638   2.745  0.9564 -0.0317 -0.0044
11883TIP3    H235572   0.304   0.519   2.673  0.2478 -0.3943  1.1502
11884TIP3   OH235573   2.710   2.039   4.824 -0.0450 -0.2790 -0.3372
11884TIP3    H135574   2.637   2.025   4.763 -0.5857  1.8403 -0.2458
11884TIP3    H235575   2.687   1.985   4.900 -0.8459 -0.6618 -0.8285
11885TIP3   OH235576   1.583   6.974   0.267 -1.0608 -0.5137  0.0767
11885TIP3    H135577   1.588   6.889   0.310  0.6771 -0.9901 -0.9801
11885TIP3    H235578   1.628   7.034   0.327  1.8267 -1.2758 -1.1753
11886TIP3   OH235579   2.653   1.487   3.230  0.0223 -0.1112  0.5110
11886TIP3    H135580   2.656   1.572   3.274 -0.7016 -0.1823  0.7167
11886TIP3    H235581   2.708   1.430   3.283 -1.6090 -0.4549  1.9482
11887TIP3   OH235582   8.134   5.551   2.676 -0.3085  0.3169 -0.6401
11887TIP3    H135583   8.104   5.637   2.704  0.8430  0.4730  0.2065
11887TIP3    H235584   8.147   5.559   2.581 -1.2728  0.7222 -0.7478
11888TIP3   OH235585   8.560   6.643   2.281  0.2741 -0.4730 -0.3890
11888TIP3    H135586   8.466   6.626   2.285 -0.1261  1.4942 -0.5921
11888TIP3    H235587   8.591   6.587   2.210 -0.6583 -1.4762 -0.0292
11889TIP3   OH235588   0.957   2.271   4.565 -0.1960  0.0942  0.3329
11889TIP3    H135589   1.003   2.345   4.526 -2.4162  2.5948  2.0882
11889TIP3    H235590   0.971   2.279   4.659 -0.7490 -1.5732  0.6077
11890TIP3   OH235591   7.158   3.622   2.922 -0.0713  0.2259  0.0372
11890TIP3    H135592   7.159   3.527   2.905 -0.9165 -0.2118  2.0760
11890TIP3    H235593   7.066   3.647   2.909  0.1045  0.7142 -0.2679
11891TIP3   OH235594   2.934   6.617   4.672 -0.1745 -0.0464 -0.2876
11891TIP3    H135595   3.012   6.562   4.669  0.3996  0.6698  0.7268
11891TIP3    H235596   2.939   6.671   4.593  0.3683  0.0011 -0.2275
11892TIP3   OH235597   4.674   4.398   4.627 -0.4254  0.3361 -0.0123
11892TIP3    H135598   4.738   4.382   4.697 -0.0514 -1.5497 -0.7055
11892TIP3    H235599   4.590   4.371   4.664 -0.7376  2.1011  0.6459
11893TIP3   OH235600   4.511   0.770   5.370 -0.1602  0.0702 -0.5753
11893TIP3    H135601   4.576   0.801   5.432  0.5681 -0.7487 -0.9025
11893TIP3    H235602   4.492   0.846   5.314  0.0860  0.4676 -0.1205
11894TIP3   OH235603   3.868   0.603   0.442  0.2155  0.3357  0.4492
11894TIP3    H135604   3.911   0.634   0.522  1.8093 -0.4278 -0.0586
11894TIP3    H235605   3.913   0.520   0.422  0.4642  0.9334 -1.6997
11895TIP3   OH235606   0.139   1.188   5.313  0.1068 -0.2866 -0.3271
11895TIP3    H135607   0.225   1.228   5.324  0.6944 -1.7468  0.8171
11895TIP3    H235608   0.151   1.122   5.245 -0.0206 -0.6887  0.0341
11896TIP3   OH235609   3.738   4.257   5.220 -0.7264  0.8499  0.0117
11896TIP3    H135610   3.771   4.183   5.168  1.5617  1.1928  0.8552
11896TIP3    H235611   3.678   4.217   5.283 -1.5294  0.0948 -1.1741
11897TIP3   OH235612   5.453   7.481   5.718 -0.1468  0.2310  0.2608
11897TIP3    H135613   5.392   7.552   5.740 -0.7049 -0.4101  0.8372
11897TIP3    H235614   5.527   7.525   5.676 -1.1123  0.9943 -0.6806
11898TIP3   OH235615   4.063   7.273   4.640  0.1082  0.0079  0.2486
11898TIP3    H135616   4.015   7.333   4.697  0.6602  0.0026  0.7282
11898TIP3    H235617   3.996   7.215   4.604 -0.4616  0.9754 -0.3167
11899TIP3   OH235618   5.030   0.037   3.704 -0.0376 -0.1839 -0.2896
11899TIP3    H135619   5.009  -0.023   3.775 -0.3679  0.0211 -0.2124
11899TIP3    H235620   5.123   0.022   3.686  0.6210  1.2754  1.6280
11900TIP3   OH235621   0.599   7.278   1.617  0.2357 -0.4586 -0.1925
11900TIP3    H135622   0.664   7.332   1.572  0.1474 -0.3183 -0.1526
11900TIP3    H235623   0.641   7.192   1.626  0.1952 -0.5389 -0.6937
11901TIP3   OH235624   2.459   5.017   5.785  0.0751 -0.4353  0.5361
11901TIP3    H135625   2.529   4.968   5.827 -0.4298 -2.2469 -0.6243
11901TIP3    H235626   2.478   5.011   5.692 -0.4541  0.9350  0.3099
11902TIP3   OH235627   8.133   4.448   0.678 -0.3539 -0.3052  0.7271
11902TIP3    H135628   8.209   4.476   0.730  0.6085 -0.8559 -0.3513
11902TIP3    H235629   8.115   4.523   0.621 -1.8713  0.5919  2.2879
11903TIP3   OH235630   4.567   5.107   3.885 -0.2432 -0.4773  0.1804
11903TIP3    H135631   4.580   5.127   3.978  0.2070 -0.7213  0.1732
11903TIP3    H235632   4.553   5.012   3.882 -0.5602 -0.4290  0.0271
11904TIP3   OH235633   6.798   4.760   3.159  0.3557  0.1241  0.0315
11904TIP3    H135634   6.837   4.801   3.237 -1.2369  0.6316  0.6174
11904TIP3    H235635   6.720   4.715   3.193 -0.0452 -0.1295 -1.1948
11905TIP3   OH235636   6.296   3.502   0.835 -1.0359  0.1660  0.9539
11905TIP3    H135637   6.381   3.475   0.869 -0.8950 -2.0616 -0.8807
11905TIP3    H235638   6.299   3.478   0.742 -3.4033  0.6520  0.6930
11906TIP3   OH235639   8.244   2.240   0.758  0.3662  0.2445  0.3754
11906TIP3    H135640   8.164   2.293   0.762 -0.2983 -0.7996  2.2243
11906TIP3    H235641   8.213   2.150   0.751  1.4569 -0.0575 -1.1399
11907TIP3   OH235642   8.048   1.160   2.583 -0.0522 -0.3397  0.2794
11907TIP3    H135643   8.020   1.084   2.532  1.4390 -1.0843  0.5308
11907TIP3    H235644   7.968   1.189   2.627 -0.6369 -1.8570  0.2979
11908TIP3   OH235645   4.793   4.928   2.803  0.2022  0.0896 -0.6379
11908TIP3    H135646   4.789   4.834   2.783  0.4859  0.2502 -1.4955
11908TIP3    H235647   4.884   4.952   2.785  0.5307  0.2294  1.0405
11909TIP3   OH235648   6.059   3.703   0.649  0.2255  0.1789 -0.6916
11909TIP3    H135649   6.114   3.625   0.636 -1.8084 -0.9543 -3.2854
11909TIP3    H235650   6.085   3.736   0.735  3.4239 -1.4824 -0.8750
11910TIP3   OH235651   7.581   1.290   2.926 -0.2094  0.0898  0.1387
11910TIP3    H135652   7.558   1.354   2.994 -0.2840 -1.3555  1.5451
11910TIP3    H235653   7.662   1.251   2.957 -0.2878 -0.6530 -0.5723
11911TIP3   OH235654   3.552   0.969   2.181  0.2756 -0.3023  0.1642
11911TIP3    H135655   3.599   0.978   2.264 -0.5122  0.9231  0.5003
11911TIP3    H235656   3.520   1.057   2.161  0.6592 -0.5094 -1.5867
11912TIP3   OH235657   4.178   6.433   2.418  0.3379 -0.4661 -0.2731
11912TIP3    H135658   4.263   6.437   2.462  0.9495 -2.1483 -1.1976
11912TIP3    H235659   4.197   6.396   2.332 -1.3750 -1.1703 -0.3985
11913TIP3   OH235660   5.209   1.209   4.619  0.0882 -0.5856  0.6463
11913TIP3    H135661   5.252   1.124   4.631 -0.7882 -0.9779  1.0575
11913TIP3    H235662   5.145   1.194   4.550  0.5839 -0.0008  0.0428
11914TIP3   OH235663   1.975   5.772   1.402  0.2937 -0.3188 -0.2027
11914TIP3    H135664   1.978   5.709   1.331  1.0444  0.0273 -0.4974
11914TIP3    H235665   2.067   5.788   1.424  0.1378  0.8583 -0.3096
11915TIP3   OH235666   4.341   3.639   0.055  0.6198 -0.0399  0.7235
11915TIP3    H135667   4.288   3.627   0.134  0.5767  0.8442  0.8388
11915TIP3    H235668   4.291   3.596  -0.014 -1.7902  3.1789  0.2152
11916TIP3   OH235669   1.096   4.843   5.238  0.5297  0.4809  0.2413
11916TIP3    H135670   1.085   4.774   5.303  1.9835 -0.1903 -0.1691
11916TIP3    H235671   1.064   4.804   5.156  2.1935 -0.1132 -0.1834
11917TIP3   OH235672   7.245   0.955   3.186  0.0893  0.1009 -0.7385
11917TIP3    H135673   7.280   1.012   3.118 -2.3006 -0.1300 -2.3007
11917TIP3    H235674   7.185   1.011   3.236  0.8260 -0.0695  0.3950
11918TIP3   OH235675   3.657   6.968   0.777  0.0848  0.2159  0.6431
11918TIP3    H135676   3.700   6.940   0.697 -2.0951 -1.0123 -0.1858
11918TIP3    H235677   3.656   6.890   0.833  0.2511  0.6486  1.2654
11919TIP3   OH235678   0.113   2.161   1.985 -0.1386  0.2195 -0.0014
11919TIP3    H135679   0.085   2.070   1.996  0.8049 -0.0206  0.4910
11919TIP3    H235680   0.077   2.187   1.901  0.5361 -0.9832 -0.6913
11920TIP3   OH235681   6.928   6.554   2.054  0.0905  0.0007  0.0610
11920TIP3    H135682   6.852   6.609   2.073  0.6528  0.8407 -0.0695
11920TIP3    H235683   6.995   6.615   2.023  1.3983 -0.4742  1.7752
11921TIP3   OH235684   1.338   4.114   3.627  0.2605 -0.1179  0.5668
11921TIP3    H135685   1.378   4.053   3.565  0.9424  0.6546  0.2235
11921TIP3    H235686   1.244   4.101   3.616  0.3841 -1.5266  0.9326
11922TIP3   OH235687   4.889   4.783   2.597  0.1754 -0.0574  0.3770
11922TIP3    H135688   4.833   4.713   2.633 -0.0423  0.2144  0.5735
11922TIP3    H235689   4.977   4.762   2.629 -0.1514  0.6745  1.8552
11923TIP3   OH235690   1.489   8.200   1.649 -0.2246 -0.0776  0.1978
11923TIP3    H135691   1.430   8.156   1.710  0.1239  0.3101  0.8230
11923TIP3    H235692   1.567   8.221   1.702 -1.1958  3.2060  0.5367
11924TIP3   OH235693   3.163   3.709   3.800 -0.2202 -0.3504 -0.0836
11924TIP3    H135694   3.150   3.737   3.891 -0.7146  0.0300 -0.2663
11924TIP3    H235695   3.252   3.673   3.799 -0.5720 -1.3017  0.7882
11925TIP3   OH235696   2.679   5.724   0.881  0.5767 -0.3061  0.6196
11925TIP3    H135697   2.728   5.795   0.838  0.7989 -1.0585 -0.4179
11925TIP3    H235698   2.623   5.769   0.944 -1.1045  1.0777 -1.7000
11926TIP3   OH235699   5.269   6.813   4.097 -0.3386  0.2526  0.6110
11926TIP3    H135700   5.320   6.738   4.128 -0.2417  0.1581  0.2221
11926TIP3    H235701   5.197   6.819   4.159 -1.4307 -1.3418 -0.4189
11927TIP3   OH235702   8.093   3.509   1.809  0.0879  0.1754  0.4397
11927TIP3    H135703   8.046   3.591   1.795 -0.1079 -0.0815 -0.4571
11927TIP3    H235704   8.056   3.473   1.890  0.4392  1.1476  1.0417
11928TIP3   OH235705   7.629   5.123   6.501  0.3792  0.1699 -0.0872
11928TIP3    H135706   7.618   5.032   6.474  1.2375  0.2395 -0.7366
11928TIP3    H235707   7.651   5.169   6.420 -0.1172  0.9705  0.2242
11929TIP3   OH235708   4.741   2.161   0.051  0.2750  0.2051  0.6382
11929TIP3    H135709   4.754   2.166  -0.043  0.2071 -1.2306  0.5202
11929TIP3    H235710   4.665   2.216   0.068  1.8145  2.5689  0.2617
11930TIP3   OH235711   3.629   4.178   2.653  0.5420  0.0509  0.2384
11930TIP3    H135712   3.627   4.083   2.639  1.6536  0.0149  0.2490
11930TIP3    H235713   3.539   4.201   2.677  0.1106 -0.8966 -0.4207
11931TIP3   OH235714   4.217   3.150   4.080  0.1415  0.6229  0.8718
11931TIP3    H135715   4.212   3.135   3.986  1.8609 -1.1038  0.9975
11931TIP3    H235716   4.129   3.179   4.104 -0.2232  1.5033 -1.2986
11932TIP3   OH235717   5.047   1.439   6.781 -0.0030 -0.1216 -0.3919
11932TIP3    H135718   5.064   1.355   6.738  1.3686 -0.3268  0.4551
11932TIP3    H235719   4.989   1.418   6.854  2.9703 -1.0585  1.9189
11933TIP3   OH235720   6.970   6.325   0.541  0.3477  0.2660  0.3029
11933TIP3    H135721   6.897   6.338   0.481  0.6856  0.1905 -0.1339
11933TIP3    H235722   6.962   6.395   0.606 -1.0344 -0.6892  1.2065
11934TIP3   OH235723   3.561   4.478   6.856  0.2092 -0.3778  0.0913
11934TIP3    H135724   3.576   4.485   6.761 -0.3192 -2.8885 -0.2535
11934TIP3    H235725   3.495   4.544   6.874 -0.2988 -0.4082 -1.4702
11935TIP3   OH235726   3.576   2.029   5.638 -0.4722 -0.5535  0.0255
11935TIP3    H135727   3.626   2.066   5.565 -1.9792  1.8109  0.0557
11935TIP3    H235728   3.642   2.003   5.702  0.8076 -0.8722 -1.3772
11936TIP3   OH235729   2.339   3.349   6.670 -0.3301 -0.2798  0.6434
11936TIP3    H135730   2.350   3.360   6.575 -0.3563 -0.2390  0.6450
11936TIP3    H235731   2.320   3.437   6.701  0.2157 -0.1976  0.7551
11937TIP3   OH235732   2.435   4.751   5.454  0.3669 -0.6802  0.3506
11937TIP3    H135733   2.383   4.780   5.529  0.8194 -0.3458  0.5333
11937TIP3    H235734   2.419   4.656   5.450 -0.4336 -0.5483  0.2672
11938TIP3   OH235735   3.967   2.702   1.673  0.5163  0.8037  0.4025
11938TIP3    H135736   4.004   2.789   1.659 -2.4436  2.4209  1.7328
11938TIP3    H235737   3.904   2.691   1.603 -2.5276  1.9027  2.7680
11939TIP3   OH235738   1.464   2.935   6.071  0.4714 -0.1367  0.5403
11939TIP3    H135739   1.419   2.880   6.007 -1.2515  1.6963  0.0753
11939TIP3    H235740   1.519   2.874   6.121 -0.8274 -2.1456 -0.3559
11940TIP3   OH235741   3.101   2.687   2.469 -0.7805 -0.4524 -0.4409
11940TIP3    H135742   3.043   2.650   2.403 -0.3788 -1.5008 -0.2233
11940TIP3    H235743   3.075   2.644   2.551  0.2279 -0.8727 -0.3301
11941TIP3   OH235744   7.838   5.540   5.843  0.0364 -0.2377 -0.1105
11941TIP3    H135745   7.768   5.600   5.817  0.4057  0.6801  0.8983
11941TIP3    H235746   7.868   5.500   5.762  1.6609  3.0263 -1.3219
11942TIP3   OH235747   7.544   3.401   2.784 -0.3311 -0.2944  0.3121
11942TIP3    H135748   7.592   3.318   2.794 -0.7186 -0.7027 -0.9653
11942TIP3    H235749   7.564   3.429   2.695 -0.0588  1.1074  0.7915
11943TIP3   OH235750   7.110   0.387   1.610 -0.3401  0.2271 -0.1335
11943TIP3    H135751   7.190   0.364   1.656 -0.9354  0.8090  1.2393
11943TIP3    H235752   7.040   0.360   1.669 -1.1393  0.6585 -0.8644
11944TIP3   OH235753   7.289   1.908   3.795 -0.0522 -0.6714  0.2634
11944TIP3    H135754   7.351   1.875   3.859  1.1332 -1.3314 -1.1561
11944TIP3    H235755   7.218   1.946   3.847  1.8425  0.7418  1.9762
11945TIP3   OH235756   5.029   5.937   1.469 -0.3090 -0.2223 -1.2231
11945TIP3    H135757   5.111   5.889   1.470  0.6116  1.2628  0.4629
11945TIP3    H235758   4.965   5.876   1.506  0.7974 -0.2577  0.7820
11946TIP3   OH235759   8.329   6.024   1.354 -0.0742  0.3352  0.3179
11946TIP3    H135760   8.415   5.993   1.327  1.1309  1.8456  2.1958
11946TIP3    H235761   8.299   5.957   1.416 -0.2142 -0.1278 -0.2412
11947TIP3   OH235762   3.165   6.998   3.488 -0.2696 -0.1808 -0.2083
11947TIP3    H135763   3.077   6.993   3.451 -0.1134 -1.5298 -0.4553
11947TIP3    H235764   3.204   6.913   3.468  1.2425  0.5437 -0.4671
11948TIP3   OH235765   3.573   0.048   5.288 -0.1143  0.1101 -0.0427
11948TIP3    H135766   3.501  -0.008   5.260 -0.7446  0.1333  1.4746
11948TIP3    H235767   3.652   0.001   5.260 -0.6201 -1.6285  1.3061
11949TIP3   OH235768   7.402   6.018   6.375 -0.0776 -0.5518  0.6200
11949TIP3    H135769   7.350   6.094   6.402 -1.1695 -0.5533 -1.3041
11949TIP3    H235770   7.493   6.048   6.378 -0.5230  1.0057 -0.5307
11950TIP3   OH235771   3.712   2.561   4.187 -0.1388  0.7840  0.0514
11950TIP3    H135772   3.742   2.625   4.252 -1.8374  1.1922  0.5003
11950TIP3    H235773   3.630   2.599   4.154  0.1258  0.0331 -1.5243
11951TIP3   OH235774   7.530   4.791   4.727  0.0401  0.6423 -0.2981
11951TIP3    H135775   7.577   4.874   4.725 -0.0549  0.6993 -0.1108
11951TIP3    H235776   7.534   4.759   4.637  0.5290  0.5972 -0.2618
11952TIP3   OH235777   5.628   6.248   5.456  0.0413 -0.0078 -0.2517
11952TIP3    H135778   5.613   6.279   5.367  0.8669  1.8025  0.2123
11952TIP3    H235779   5.715   6.281   5.479 -0.2163 -0.3270  1.2744
11953TIP3   OH235780   0.580   3.001   2.524  0.4329  0.4789 -0.1962
11953TIP3    H135781   0.565   2.999   2.429  2.1060 -1.2181 -0.4965
11953TIP3    H235782   0.640   2.928   2.540  1.8305  1.9863  1.9065
11954TIP3   OH235783   6.062   3.137   0.156  0.3704 -0.3352  0.8510
11954TIP3    H135784   6.035   3.227   0.139 -3.0782 -1.3181  0.4736
11954TIP3    H235785   6.118   3.114   0.082  0.2021  1.0347  0.2701
11955TIP3   OH235786   1.542   3.611   3.688 -0.3345 -0.4220 -0.1107
11955TIP3    H135787   1.463   3.615   3.635 -0.8434 -1.1714  0.5801
11955TIP3    H235788   1.551   3.519   3.713  0.3152 -0.2147  0.4704
11956TIP3   OH235789   3.629   0.111   0.192  0.4964  0.0215  0.4231
11956TIP3    H135790   3.686   0.124   0.117 -0.3090 -0.9158 -0.3771
11956TIP3    H235791   3.588   0.026   0.177  0.0940 -0.0529  1.7820
11957TIP3   OH235792   3.535   0.893   3.860  0.7005  0.0832 -0.0748
11957TIP3    H135793   3.553   0.821   3.799  2.1867 -0.1620  0.6239
11957TIP3    H235794   3.553   0.972   3.809 -0.9519  0.0109 -0.8511
11958TIP3   OH235795   2.697   6.834   2.561 -0.6185  0.1523 -1.0237
11958TIP3    H135796   2.732   6.790   2.483 -0.4136 -0.6410 -0.4914
11958TIP3    H235797   2.665   6.918   2.528 -2.3434 -0.9403 -2.3384
11959TIP3   OH235798   3.774   4.687   3.585 -0.3641  0.1485  0.2572
11959TIP3    H135799   3.692   4.650   3.554 -0.6027  0.1516  0.8668
11959TIP3    H235800   3.831   4.611   3.598 -0.8075 -0.0163  1.3736
11960TIP3   OH235801   5.916   4.780   2.330  0.1390  0.1950  0.6081
11960TIP3    H135802   6.000   4.754   2.367 -0.8779 -1.4822  1.8948
11960TIP3    H235803   5.872   4.697   2.309 -0.0703  1.0413 -2.8504
11961TIP3   OH235804   5.621   7.787   2.004  0.5264 -0.2559 -0.2554
11961TIP3    H135805   5.536   7.770   1.963  1.1989  0.0636 -1.8520
11961TIP3    H235806   5.656   7.700   2.023 -0.7387 -0.4015  1.8092
11962TIP3   OH235807   5.470   3.317   6.006 -0.0229 -0.2728  0.3237
11962TIP3    H135808   5.420   3.241   6.035 -1.6345  0.4606 -0.4343
11962TIP3    H235809   5.534   3.331   6.076 -2.3415  0.1228  2.4874
11963TIP3   OH235810   2.151   5.309   3.880 -0.1517 -0.3556 -0.1920
11963TIP3    H135811   2.200   5.354   3.949  1.9824  0.5364 -2.1840
11963TIP3    H235812   2.064   5.294   3.919  0.6542  0.9201  2.3258
11964TIP3   OH235813   2.378   5.691   0.417 -0.2422 -0.2461 -0.2156
11964TIP3    H135814   2.336   5.775   0.396  0.4967 -0.0216 -0.8690
11964TIP3    H235815   2.379   5.687   0.513 -1.3534 -0.0666 -0.1858
11965TIP3   OH235816   0.008   1.214   6.972  0.2456  0.5011 -0.2260
11965TIP3    H135817   0.078   1.195   7.035 -0.0350  0.7877  0.1793
11965TIP3    H235818   0.046   1.192   6.887  0.7858  0.5317  0.0004
11966TIP3   OH235819   1.332   4.715   2.474 -0.8311 -0.0052  0.3873
11966TIP3    H135820   1.305   4.779   2.408  0.3493 -0.0608 -0.1894
11966TIP3    H235821   1.411   4.753   2.512 -0.1166 -1.0926  0.0502
11967TIP3   OH235822   7.302   3.463   6.535  0.2893  0.3025  0.0796
11967TIP3    H135823   7.324   3.403   6.464  0.5860  0.5280 -0.0234
11967TIP3    H235824   7.223   3.507   6.505 -0.1255 -0.2777  0.3054
11968TIP3   OH235825   2.639   7.999   3.941  0.3345  0.5069 -0.2243
11968TIP3    H135826   2.545   7.985   3.949  0.6155 -1.1045  0.5509
11968TIP3    H235827   2.652   8.090   3.968 -0.6737 -0.0829  2.5209
11969TIP3   OH235828   6.787   7.603   3.210  0.4451  0.2512 -0.0379
11969TIP3    H135829   6.779   7.697   3.225  0.7615  0.4099 -0.8038
11969TIP3    H235830   6.805   7.595   3.116 -2.3104 -0.6946 -0.5981
11970TIP3   OH235831   3.986   3.244   4.633 -0.6949 -0.1716 -0.4024
11970TIP3    H135832   3.993   3.171   4.694 -1.7764 -0.5772 -0.7333
11970TIP3    H235833   4.068   3.293   4.643 -1.0120  0.0144  1.6607
11971TIP3   OH235834   8.226   5.076   7.027  0.3481 -0.8420 -0.7043
11971TIP3    H135835   8.156   5.126   7.069  0.3117 -1.3833 -0.1090
11971TIP3    H235836   8.216   4.987   7.061  1.3335 -0.9201 -0.5846
11972TIP3   OH235837   7.172   0.214   4.289  0.5812  0.0812 -0.7140
11972TIP3    H135838   7.166   0.223   4.194  0.8040 -3.3082 -1.1825
11972TIP3    H235839   7.198   0.123   4.303 -1.5754 -0.2076  2.6516
11973TIP3   OH235840   2.078   7.314   3.118  0.5408 -0.5647 -0.1077
11973TIP3    H135841   2.032   7.243   3.163  1.3504 -0.2724  1.2206
11973TIP3    H235842   2.166   7.314   3.155  0.1396  2.0969  1.0843
11974TIP3   OH235843   4.349   5.385   5.167 -0.0063  0.0080  0.2457
11974TIP3    H135844   4.434   5.420   5.142  0.7780 -1.5125  0.6642
11974TIP3    H235845   4.297   5.462   5.190  1.4817  0.9210  0.6907
11975TIP3   OH235846   4.415   2.743   4.504 -0.1542 -0.0275  0.4050
11975TIP3    H135847   4.502   2.763   4.538 -0.4553  0.8099  0.7110
11975TIP3    H235848   4.403   2.805   4.431 -0.1393 -0.7424 -0.2096
11976TIP3   OH235849   6.948   7.364   5.177  0.4007 -0.5440  0.1529
11976TIP3    H135850   6.995   7.281   5.172 -1.1034 -1.5520  1.5382
11976TIP3    H235851   6.909   7.364   5.265 -1.3671  0.6548 -0.5853
11977TIP3   OH235852   1.015   0.816   6.512 -0.0990 -0.5343  0.2001
11977TIP3    H135853   1.072   0.762   6.457  0.0591 -0.5555  0.3868
11977TIP3    H235854   1.020   0.776   6.599 -2.0536 -1.8403 -0.2213
11978TIP3   OH235855   6.816   3.388   2.883 -0.3328  0.2258 -0.1202
11978TIP3    H135856   6.842   3.477   2.858  0.1041  0.7619  2.0080
11978TIP3    H235857   6.868   3.370   2.961  0.2410 -2.2742 -1.0154
11979TIP3   OH235858   3.830   6.549   2.862  0.2991  0.2695  0.2622
11979TIP3    H135859   3.806   6.474   2.807 -1.3614  1.4727 -0.7526
11979TIP3    H235860   3.925   6.555   2.854  0.3300 -0.9370 -0.6788
11980TIP3   OH235861   7.805   5.696   5.421 -0.6098  0.2254 -0.5410
11980TIP3    H135862   7.834   5.750   5.348 -0.3436 -1.0171 -1.3980
11980TIP3    H235863   7.712   5.683   5.406 -0.6815  0.4713 -0.3147
11981TIP3   OH235864   0.738   8.056   0.394  0.1365 -0.3728 -0.2619
11981TIP3    H135865   0.814   8.005   0.422  0.6117  1.0672  1.1617
11981TIP3    H235866   0.749   8.142   0.435 -0.9828  0.6971 -2.0558
11982TIP3   OH235867   1.888   0.855   2.407  0.1986 -0.3602  0.3231
11982TIP3    H135868   1.859   0.870   2.317  1.1470 -2.2679 -0.3355
11982TIP3    H235869   1.838   0.919   2.458 -1.7499 -0.4790 -1.3008
11983TIP3   OH235870   6.144   2.114   5.125 -0.3248  0.7797  0.6042
11983TIP3    H135871   6.218   2.167   5.153 -0.1397  0.2789  1.0875
11983TIP3    H235872   6.078   2.127   5.193  0.0413 -0.2635  1.1897
11984TIP3   OH235873   1.952   0.481   1.529  0.0428 -0.1059 -0.0550
11984TIP3    H135874   1.917   0.568   1.546 -1.3157 -0.4815 -0.7206
11984TIP3    H235875   1.900   0.448   1.456 -1.7781 -2.7129  2.1707
11985TIP3   OH235876   6.784   4.341   4.086  0.3068 -0.0266  0.0105
11985TIP3    H135877   6.699   4.308   4.117 -0.0615  2.7934  2.4977
11985TIP3    H235878   6.841   4.335   4.163  0.7728  2.9047 -0.0033
11986TIP3   OH235879   4.155   1.680   4.562 -0.4858 -0.6105  0.1710
11986TIP3    H135880   4.223   1.693   4.496  0.3551  1.0573  1.2678
11986TIP3    H235881   4.099   1.612   4.526  0.0486  0.0749 -2.1581
11987TIP3   OH235882   3.811   4.685   2.925 -0.2472  0.0443  0.4260
11987TIP3    H135883   3.791   4.615   2.863  0.7581 -3.0326  3.2843
11987TIP3    H235884   3.726   4.713   2.958 -0.7033  0.7182 -1.2163
11988TIP3   OH235885   5.142   6.172   1.738 -0.2361 -0.3501  0.1437
11988TIP3    H135886   5.182   6.099   1.690  0.7358 -0.5338  1.1776
11988TIP3    H235887   5.048   6.156   1.733 -0.0177 -3.1613  2.5056
11989TIP3   OH235888   0.587   3.699   1.592  0.5526  0.1792 -0.6012
11989TIP3    H135889   0.673   3.719   1.555  1.7714  0.5542  2.1734
11989TIP3    H235890   0.597   3.611   1.629 -0.0982  0.4029  0.1333
11990TIP3   OH235891   3.508   6.529   5.510  0.1564  0.6940  0.1322
11990TIP3    H135892   3.467   6.489   5.587  0.4728 -1.6970 -0.8414
11990TIP3    H235893   3.441   6.588   5.474 -0.1594  1.4895  1.9304
11991TIP3   OH235894   3.243   0.639   3.166  0.6765 -0.2042 -0.0316
11991TIP3    H135895   3.157   0.637   3.124  1.1629 -1.9028 -1.0608
11991TIP3    H235896   3.248   0.556   3.212  2.0323 -0.4308 -0.5640
11992TIP3   OH235897   7.001   0.367   5.336  0.2646 -0.6872  0.0659
11992TIP3    H135898   6.920   0.415   5.324  1.0803  0.7563  0.1531
11992TIP3    H235899   6.994   0.327   5.423  0.5107  1.1969  0.9906
11993TIP3   OH235900   8.467   3.582   0.008 -0.3136 -0.0072  0.0413
11993TIP3    H135901   8.558   3.568   0.034 -0.2244 -0.1619 -0.3489
11993TIP3    H235902   8.454   3.677   0.016 -0.2773 -0.0447  0.6041
11994TIP3   OH235903   5.571   0.379   0.812  0.2962  0.8570 -0.7728
11994TIP3    H135904   5.621   0.415   0.738  1.3786  0.6362 -0.1666
11994TIP3    H235905   5.624   0.305   0.843 -0.3899  0.6482 -0.0716
11995TIP3   OH235906   5.490   0.187   4.398  0.0681  0.1062  0.8850
11995TIP3    H135907   5.501   0.124   4.470  1.3573  0.1685  0.7707
11995TIP3    H235908   5.484   0.132   4.319 -0.6312  0.0658  0.9614
11996TIP3   OH235909   5.600   2.071   5.685  0.0176 -0.1664  0.2627
11996TIP3    H135910   5.692   2.056   5.667 -0.3574 -2.1439 -0.2686
11996TIP3    H235911   5.579   2.153   5.639  1.3793  0.0259 -0.0438
11997TIP3   OH235912   6.498   2.905   2.058 -0.9999 -0.1147  0.1290
11997TIP3    H135913   6.440   2.875   1.988  0.8976 -1.8927 -0.7531
11997TIP3    H235914   6.506   2.830   2.117  1.7336 -0.5798 -0.7105
11998TIP3   OH235915   4.289   1.232   0.179  0.4099 -0.3949  0.4088
11998TIP3    H135916   4.377   1.250   0.148  0.5377  1.8993  1.8180
11998TIP3    H235917   4.300   1.169   0.250  0.7679 -1.0469 -0.2214
11999TIP3   OH235918   2.149   6.299   4.192  0.2135  0.8126 -0.2252
11999TIP3    H135919   2.142   6.345   4.109 -3.6721  0.0068 -0.5212
11999TIP3    H235920   2.070   6.324   4.240  0.4215 -1.6778  1.6166
12000TIP3   OH235921   7.684   7.382   0.626 -0.2292 -0.8556 -0.8853
12000TIP3    H135922   7.718   7.407   0.712  1.7778 -0.3671 -1.7578
12000TIP3    H235923   7.736   7.305   0.601 -0.2595 -0.5494 -1.9496
12001TIP3   OH235924   8.212   7.379   2.345  0.6498  0.4117  0.0174
12001TIP3    H135925   8.283   7.367   2.408 -0.1446  2.3103  1.3585
12001TIP3    H235926   8.251   7.355   2.261  1.4827 -3.0535  1.2332
12002TIP3   OH235927   1.463   2.077   3.875 -0.6584  0.1812 -0.4061
12002TIP3    H135928   1.501   1.999   3.835  0.1996  0.4784 -0.1885
12002TIP3    H235929   1.488   2.073   3.967 -2.8547 -0.6405  0.2253
12003TIP3   OH235930   8.601   6.050   6.687 -0.0641  0.2117 -0.2335
12003TIP3    H135931   8.576   6.017   6.601 -0.1597  0.9723 -0.5058
12003TIP3    H235932   8.675   6.108   6.670  0.2820 -0.0804  0.2651
12004TIP3   OH235933   3.299   3.666   1.076  0.0590 -0.5295 -0.1019
12004TIP3    H135934   3.310   3.577   1.042  0.6627 -0.6014  0.2652
12004TIP3    H235935   3.213   3.694   1.043  0.4993 -0.6939 -1.4518
12005TIP3   OH235936   7.699   7.519   3.640  0.0729  0.2498 -0.1095
12005TIP3    H135937   7.676   7.435   3.601  0.1216  0.0609  0.2672
12005TIP3    H235938   7.625   7.576   3.618 -0.3995 -0.1471  0.4379
12006TIP3   OH235939   0.228   3.909   2.005 -0.0325 -0.6472  0.0257
12006TIP3    H135940   0.175   3.835   1.975  1.6124 -1.0875 -2.0063
12006TIP3    H235941   0.194   3.984   1.956 -0.2634 -0.4836  0.4341
12007TIP3   OH235942   4.009   3.676   0.881 -0.0300 -0.1776  0.1293
12007TIP3    H135943   4.035   3.726   0.958  1.0221 -0.6641  0.1092
12007TIP3    H235944   3.919   3.651   0.898 -1.4474  3.5273 -0.7975
12008TIP3   OH235945   4.683   5.889   0.268  0.3656 -0.1287  0.4024
12008TIP3    H135946   4.633   5.956   0.315 -0.3096 -0.1620 -0.2413
12008TIP3    H235947   4.714   5.933   0.189  1.0597 -0.2133  0.6210
12009TIP3   OH235948   4.413   2.932   3.209 -0.0873 -0.2170  0.1250
12009TIP3    H135949   4.410   2.948   3.304  2.4299 -0.9237  0.4055
12009TIP3    H235950   4.482   2.991   3.177 -0.6588 -0.2463 -1.2066
12010TIP3   OH235951   1.936   0.327   5.476  0.3133  0.1671 -0.0617
12010TIP3    H135952   1.966   0.365   5.394 -2.1926  0.2890 -1.0165
12010TIP3    H235953   1.925   0.233   5.457 -3.5395  0.6465 -1.1155
12011TIP3   OH235954   0.337   0.547   0.930 -0.2653 -0.3212 -0.0933
12011TIP3    H135955   0.255   0.578   0.891 -0.0273  0.5249  0.0754
12011TIP3    H235956   0.329   0.567   1.023 -0.4630 -1.5537  0.1804
12012TIP3   OH235957   0.947   4.564   4.473 -0.7290  0.0263  0.2430
12012TIP3    H135958   0.969   4.533   4.385 -1.4095 -0.3820  0.2121
12012TIP3    H235959   1.032   4.577   4.515 -0.4013 -0.0704 -0.3699
12013TIP3   OH235960   8.144   1.112   3.644 -0.2649 -0.3504 -0.5424
12013TIP3    H135961   8.053   1.096   3.618 -0.3190 -1.2546  0.1341
12013TIP3    H235962   8.170   1.031   3.687  0.8339 -0.0544 -0.6333
12014TIP3   OH235963   4.575   0.633   1.542 -0.3022 -0.1211  0.1798
12014TIP3    H135964   4.548   0.725   1.537 -1.6420 -0.4448  0.9475
12014TIP3    H235965   4.527   0.590   1.471  0.1369 -0.2810 -0.0240
12015TIP3   OH235966   6.476   5.295   6.256  0.1402  0.0482  0.4494
12015TIP3    H135967   6.536   5.225   6.283  2.0521  1.5804  0.4236
12015TIP3    H235968   6.526   5.346   6.193 -1.8853  0.3942 -0.9544
12016TIP3   OH235969   4.774   4.939   6.973  0.4860 -0.0801  0.1263
12016TIP3    H135970   4.789   4.883   7.050  0.1063  0.9810  1.0041
12016TIP3    H235971   4.807   4.888   6.899  2.5196 -0.4136  1.1974
12017TIP3   OH235972   0.378   2.369   6.833  0.4266  0.2361 -0.2542
12017TIP3    H135973   0.393   2.456   6.870 -0.1817 -0.2992  1.3223
12017TIP3    H235974   0.402   2.309   6.903 -3.1713 -0.7896  0.2680
12018TIP3   OH235975   4.925   1.751   5.619 -0.2212  0.2959  0.6368
12018TIP3    H135976   4.875   1.705   5.551  0.8647  1.1963 -0.8215
12018TIP3    H235977   4.892   1.714   5.702 -2.2579 -0.1483 -0.3102
12019TIP3   OH235978   4.168   3.741   6.305 -0.0890 -0.1768  0.4807
12019TIP3    H135979   4.230   3.758   6.233  0.7862  1.3977  1.5490
12019TIP3    H235980   4.093   3.797   6.285 -0.0457 -0.0918  0.5590
12020TIP3   OH235981   7.775   0.335   5.376 -0.2333 -0.2567 -0.4485
12020TIP3    H135982   7.866   0.321   5.400 -0.2284  0.3225 -0.1100
12020TIP3    H235983   7.774   0.419   5.330 -1.1667  2.1137  3.3901
12021TIP3   OH235984   3.039   1.296   1.317 -0.1054 -0.2576 -0.5838
12021TIP3    H135985   3.014   1.385   1.292 -1.6589  0.1888  2.1536
12021TIP3    H235986   2.960   1.244   1.301  0.2913 -0.8307 -0.7101
12022TIP3   OH235987   7.504   5.669   1.581  0.2392  0.3906  0.0876
12022TIP3    H135988   7.570   5.601   1.567 -0.2440 -0.2657  0.9247
12022TIP3    H235989   7.552   5.752   1.572  1.2222 -0.0754  0.8988
12023TIP3   OH235990   8.672   4.079   3.465  0.3782  0.0977 -0.2501
12023TIP3    H135991   8.734   4.041   3.527  0.4601  0.1437 -0.3028
12023TIP3    H235992   8.587   4.049   3.495  0.4289  0.0057 -0.1963
12024TIP3   OH235993   5.289   1.383   6.171  0.2414 -0.5198  0.1097
12024TIP3    H135994   5.282   1.446   6.243 -0.8765  0.6733 -1.0024
12024TIP3    H235995   5.289   1.298   6.214 -1.4599  0.1193  1.4821
12025TIP3   OH235996   8.669   1.918   1.989 -0.4704  0.6046  0.2231
12025TIP3    H135997   8.577   1.893   1.987 -0.7561  1.6165 -0.1766
12025TIP3    H235998   8.717   1.836   1.984 -1.3334 -0.0541  1.8731
12026TIP3   OH235999   7.788   5.533   3.130 -0.2894 -0.0552 -0.3619
12026TIP3    H136000   7.735   5.612   3.141 -0.8043 -0.4311 -0.0559
12026TIP3    H236001   7.870   5.563   3.091 -0.2129  0.7220  0.3814
12027TIP3   OH236002   0.968   2.677   0.570  0.9134  0.0588  0.0574
12027TIP3    H136003   0.985   2.582   0.569  3.3289  0.4164 -0.1785
12027TIP3    H236004   0.918   2.692   0.649 -0.7638 -1.5670 -0.6122
12028TIP3   OH236005   1.001   3.492   0.921 -0.2229  0.3386  0.6460
12028TIP3    H136006   1.047   3.471   0.840 -3.1998  0.6279 -1.2880
12028TIP3    H236007   0.935   3.556   0.895 -1.6733  0.0308  3.2038
12029TIP3   OH236008   0.509   6.114   1.040 -0.2937 -0.2725  0.3185
12029TIP3    H136009   0.540   6.139   0.953 -0.3942 -0.8141  0.1221
12029TIP3    H236010   0.517   6.019   1.042 -1.7122 -0.4175  0.3397
12030TIP3   OH236011   2.942   0.697   5.944  0.0228 -0.7036 -0.0401
12030TIP3    H136012   2.989   0.617   5.920  1.1100 -0.2650  0.5647
12030TIP3    H236013   3.008   0.752   5.985 -0.7121  0.5232 -0.4642
12031TIP3   OH236014   5.302   6.266   3.956 -0.1694  0.3439 -0.3772
12031TIP3    H136015   5.370   6.223   3.905 -0.8000  0.5991 -1.4621
12031TIP3    H236016   5.328   6.358   3.959  0.1980  0.2244  0.3280
12032TIP3   OH236017   6.205   0.230   0.087  0.2618 -0.1531  0.8234
12032TIP3    H136018   6.158   0.194   0.162 -0.0230 -2.0912 -0.2220
12032TIP3    H236019   6.283   0.175   0.080  0.4607  0.2337 -0.0765
12033TIP3   OH236020   0.685   4.649   5.469  0.2119 -0.1357  0.1506
12033TIP3    H136021   0.672   4.686   5.381  1.0850 -0.2804 -0.0564
12033TIP3    H236022   0.601   4.659   5.512 -0.1143  0.3261 -0.5653
12034TIP3   OH236023   7.227   2.610   6.239 -0.7637 -0.2859  0.2785
12034TIP3    H136024   7.197   2.565   6.318 -0.2278 -3.8259 -1.3375
12034TIP3    H236025   7.155   2.599   6.176 -0.7852  1.6211 -0.1088
12035TIP3   OH236026   0.586   5.303   5.299 -0.0587 -0.0940  0.9485
12035TIP3    H136027   0.630   5.315   5.215  0.6780  1.6577  1.5365
12035TIP3    H236028   0.495   5.285   5.275  0.1075  0.4865 -0.2414
12036TIP3   OH236029   2.462   6.642   2.565  0.6523  0.3984  0.0845
12036TIP3    H136030   2.539   6.650   2.620  0.2518 -2.0459  1.1293
12036TIP3    H236031   2.491   6.592   2.489  0.8875  2.6244 -1.3786
12037TIP3   OH236032   5.434   3.082   5.588 -0.4068 -0.3775 -0.1535
12037TIP3    H136033   5.353   3.037   5.610  0.1844 -0.9031  1.0523
12037TIP3    H236034   5.438   3.156   5.649  0.3642 -0.7800  0.3052
12038TIP3   OH236035   5.230   7.221   4.921 -0.4899 -0.3286  0.3524
12038TIP3    H136036   5.284   7.300   4.933  1.6728 -1.8458  1.1356
12038TIP3    H236037   5.232   7.177   5.006 -0.6564 -1.8260 -0.3906
12039TIP3   OH236038   2.684   2.717   2.669  0.1138 -0.1500 -0.4434
12039TIP3    H136039   2.702   2.766   2.589 -0.4842  0.5414 -0.1614
12039TIP3    H236040   2.771   2.697   2.704  0.3678  0.2738 -0.8236
12040TIP3   OH236041   2.637   2.219   3.663 -0.5898  0.3013  0.2383
12040TIP3    H136042   2.641   2.315   3.657  1.5676  0.1581 -2.2079
12040TIP3    H236043   2.543   2.200   3.666 -1.0870  2.4705  0.4821
12041TIP3   OH236044   6.889   1.163   0.178  0.2674 -0.0594  0.2392
12041TIP3    H136045   6.926   1.142   0.264  1.3648  3.6095  0.8362
12041TIP3    H236046   6.959   1.208   0.132 -0.6064 -1.1123 -2.3036
12042TIP3   OH236047   6.449   5.033   6.855  0.0593  0.0980  0.2202
12042TIP3    H136048   6.495   4.999   6.932 -0.0978 -2.5723 -0.7820
12042TIP3    H236049   6.490   4.989   6.781 -2.9644 -1.1330 -0.8602
12043TIP3   OH236050   6.132   5.449   4.054  0.1834  0.0606 -0.1676
12043TIP3    H136051   6.146   5.522   3.994 -1.2259  1.2452  0.8572
12043TIP3    H236052   6.201   5.457   4.120  2.0497 -1.5437 -1.8002
12044TIP3   OH236053   3.831   2.430   5.270  0.1551 -0.3836  0.0783
12044TIP3    H136054   3.793   2.442   5.356  0.9914  0.0269  0.4034
12044TIP3    H236055   3.759   2.446   5.209 -0.4683 -0.7929  0.6934
12045TIP3   OH236056   2.971   7.269   2.295 -0.0548 -0.4002  0.1659
12045TIP3    H136057   3.029   7.323   2.349  0.3387 -1.0307  0.3877
12045TIP3    H236058   2.908   7.331   2.257  0.0945  0.1443  0.7918
12046TIP3   OH236059   1.503   2.405   2.251 -0.4496 -0.3467 -0.3506
12046TIP3    H136060   1.539   2.467   2.188 -2.9347  0.8790 -0.6913
12046TIP3    H236061   1.572   2.395   2.317  0.4700  1.9453 -0.8627
12047TIP3   OH236062   2.337   4.130   5.276  0.5967 -0.3974  0.4722
12047TIP3    H136063   2.343   4.225   5.268 -0.9494 -0.4259 -1.9454
12047TIP3    H236064   2.422   4.098   5.246  0.1131  0.1781 -1.6915
12048TIP3   OH236065   4.081   7.068   7.061  0.2907  0.4025  0.0703
12048TIP3    H136066   4.001   7.022   7.087  0.5117  0.0667  0.1736
12048TIP3    H236067   4.105   7.119   7.139 -0.0008  0.7638 -0.0726
12049TIP3   OH236068   6.759   6.397   3.532 -0.2398 -0.0116 -0.1405
12049TIP3    H136069   6.668   6.371   3.548  0.0595 -0.3451  1.1629
12049TIP3    H236070   6.753   6.468   3.468 -1.5215  0.8530  0.8846
12050TIP3   OH236071   2.388   3.100   5.734  0.1854  0.0629 -0.4781
12050TIP3    H136072   2.364   3.090   5.642  0.1660 -1.4583 -0.3252
12050TIP3    H236073   2.480   3.072   5.738 -0.2109 -1.2206  0.1779
12051TIP3   OH236074   3.955   1.879   6.602  0.1412 -0.0777  0.0304
12051TIP3    H136075   3.864   1.851   6.613 -0.4737  1.6058 -0.5097
12051TIP3    H236076   4.000   1.844   6.679 -1.3721  0.6888  1.3226
12052TIP3   OH236077   5.668   5.092   3.693  0.4483 -0.1515 -0.4765
12052TIP3    H136078   5.715   5.009   3.680  0.2809  0.0431 -2.6828
12052TIP3    H236079   5.578   5.065   3.713  1.0766 -0.4952  2.2851
12053TIP3   OH236080   8.335   2.675   6.874  0.0650  0.0415 -0.0332
12053TIP3    H136081   8.380   2.760   6.868 -1.2438  0.9007  1.4857
12053TIP3    H236082   8.292   2.665   6.789  3.0084 -0.8219 -1.5592
12054TIP3   OH236083   6.238   7.885   3.537 -0.0719  0.2117  0.2897
12054TIP3    H136084   6.299   7.847   3.600 -1.2974  1.3227  2.2677
12054TIP3    H236085   6.168   7.820   3.530  0.1459  0.0134 -0.0748
12055TIP3   OH236086   8.536   3.202   1.015 -0.7153  0.0376  0.1345
12055TIP3    H136087   8.447   3.167   1.020 -0.2654 -1.1456  0.2443
12055TIP3    H236088   8.535   3.261   0.940 -1.6473  0.2078  0.2682
12056TIP3   OH236089   5.962   2.789   6.663  0.1999  0.1077 -0.4207
12056TIP3    H136090   5.911   2.749   6.592 -3.5169  0.3007  1.8959
12056TIP3    H236091   5.943   2.735   6.740  2.1595  1.3003  1.0061
12057TIP3   OH236092   5.039   8.152   4.829 -0.2939  0.4801 -0.3465
12057TIP3    H136093   4.997   8.174   4.913 -0.5892  2.7085 -1.0036
12057TIP3    H236094   4.969   8.116   4.776  0.2218 -2.4704  0.7993
12058TIP3   OH236095   8.311   7.696   1.210 -0.1829  0.6614  0.1392
12058TIP3    H136096   8.329   7.608   1.176 -4.1085 -0.6412  0.9528
12058TIP3    H236097   8.317   7.686   1.305 -1.9404  0.8524  0.3017
12059TIP3   OH236098   5.964   1.278   4.361  0.3244 -0.3444 -0.4377
12059TIP3    H136099   5.949   1.283   4.266  0.9319 -0.1083 -0.5225
12059TIP3    H236100   5.919   1.198   4.387  1.6014 -1.3592 -1.2095
12060TIP3   OH236101   8.043   5.945   5.013 -0.1646  0.4774 -0.4898
12060TIP3    H136102   8.022   5.858   4.980  0.4007  0.5915 -1.1764
12060TIP3    H236103   8.057   5.998   4.935  1.4803  0.6897 -0.0863
12061TIP3   OH236104   1.763   1.784   1.131 -0.0260  0.0945 -0.1225
12061TIP3    H136105   1.830   1.720   1.108  0.7343  1.2500 -1.2752
12061TIP3    H236106   1.779   1.858   1.072 -0.8407  1.3697  1.1847
12062TIP3   OH236107   8.357   6.182   3.726  0.3339  0.0366 -0.1852
12062TIP3    H136108   8.293   6.235   3.774  1.5560 -0.0219  1.5694
12062TIP3    H236109   8.438   6.190   3.776  1.2246 -1.4276 -1.3129
12063TIP3   OH236110   5.946   7.364   0.433  0.9091  0.7628  0.5375
12063TIP3    H136111   6.005   7.369   0.509  0.6292  0.6137  0.7683
12063TIP3    H236112   5.937   7.455   0.404  2.3034  0.6556 -0.3277
12064TIP3   OH236113   3.984   5.344   1.143 -0.4473 -0.4262 -0.1528
12064TIP3    H136114   4.059   5.399   1.167  1.2810 -2.9543  0.7201
12064TIP3    H236115   3.960   5.373   1.055 -0.1622  2.1564  0.5334
12065TIP3   OH236116   4.564   3.908   4.320  0.5667  0.0486  0.4226
12065TIP3    H136117   4.564   3.912   4.416  2.1584 -0.1958  0.4628
12065TIP3    H236118   4.652   3.936   4.295 -0.6660  2.9777 -1.1328
12066TIP3   OH236119   8.557   5.750   1.838 -0.2784  0.3404  0.1181
12066TIP3    H136120   8.585   5.762   1.929 -0.4319  0.7495  0.1135
12066TIP3    H236121   8.464   5.728   1.844  0.2629 -2.1855  0.2032
12067TIP3   OH236122   2.419   1.707   6.191 -0.5875 -0.5818 -0.5856
12067TIP3    H136123   2.416   1.663   6.276 -0.3584  0.2653 -0.1181
12067TIP3    H236124   2.347   1.669   6.142  0.4209 -2.4402 -0.7143
12068TIP3   OH236125   0.563   0.943   6.150 -0.0946 -0.9203  0.0615
12068TIP3    H136126   0.621   0.934   6.226 -0.4608 -1.6279  0.2711
12068TIP3    H236127   0.509   0.864   6.153 -0.4047 -0.7396 -0.6906
12069TIP3   OH236128   3.470   7.476   2.813 -0.5233  0.4585 -0.1898
12069TIP3    H136129   3.378   7.452   2.822 -0.5136  0.3861 -0.2864
12069TIP3    H236130   3.505   7.470   2.901 -0.5029  0.0546 -0.2268
12070TIP3   OH236131   0.010   7.223   1.190  0.1214  0.1216 -0.2108
12070TIP3    H136132   0.073   7.164   1.150  0.8755  1.0011 -0.3586
12070TIP3    H236133   0.037   7.228   1.282 -1.2109 -1.3820  0.2986
12071TIP3   OH236134   7.718   1.885   2.829  0.1627  0.3697 -0.1683
12071TIP3    H136135   7.783   1.871   2.898 -1.0412  0.6918  1.0702
12071TIP3    H236136   7.683   1.797   2.811 -0.1029  0.3949  0.2234
12072TIP3   OH236137   2.197   3.868   1.644  0.2775 -0.0183  0.3970
12072TIP3    H136138   2.165   3.923   1.572 -1.8235 -0.5652  0.8573
12072TIP3    H236139   2.181   3.920   1.723 -2.2223 -1.3817  0.8919
12073TIP3   OH236140   1.965   1.622   2.404 -0.4574  0.5284 -0.2105
12073TIP3    H136141   1.928   1.622   2.316  1.4446  0.1149 -1.0702
12073TIP3    H236142   1.951   1.532   2.435 -1.0067  0.6337 -0.1567
12074TIP3   OH236143   0.215   0.328   4.814  0.0452 -0.2126 -0.3705
12074TIP3    H136144   0.249   0.264   4.876  0.5891  1.0587  0.6859
12074TIP3    H236145   0.288   0.387   4.797 -0.5440  0.3586 -1.0283
12075TIP3   OH236146   3.850   8.227   0.664 -0.2661 -0.4482  0.4821
12075TIP3    H136147   3.885   8.164   0.728 -0.0254 -0.5186  0.2830
12075TIP3    H236148   3.842   8.176   0.583 -0.9009 -0.4536  0.5419
12076TIP3   OH236149   1.463   1.356   0.225 -0.6363  0.1237  0.2981
12076TIP3    H136150   1.506   1.384   0.305  2.9716 -0.7006 -1.1547
12076TIP3    H236151   1.425   1.271   0.246 -1.7458  0.9163  1.6644
12077TIP3   OH236152   0.149   7.400   4.554 -0.2734  0.3725  0.1596
12077TIP3    H136153   0.117   7.486   4.528 -2.2507  0.3546  2.2880
12077TIP3    H236154   0.075   7.358   4.598  0.5208 -2.5717 -1.0269
12078TIP3   OH236155   8.235   2.734   6.611 -0.0845 -0.2203  0.0826
12078TIP3    H136156   8.186   2.809   6.645 -0.1109 -0.2453  0.1012
12078TIP3    H236157   8.169   2.679   6.569 -0.0319 -0.1268 -0.1195
12079TIP3   OH236158   8.475   1.791   3.138 -0.0810  0.7886 -0.1139
12079TIP3    H136159   8.398   1.751   3.099  0.9364 -0.7324 -0.6484
12079TIP3    H236160   8.498   1.862   3.079  0.0213  0.0445 -0.9789
12080TIP3   OH236161   3.070   0.648   0.698 -0.1148  0.0942 -0.4604
12080TIP3    H136162   3.132   0.644   0.770 -0.6683  1.9396  0.1815
12080TIP3    H236163   3.002   0.585   0.721  0.5144 -0.4911 -0.1798
12081TIP3   OH236164   1.759   2.255   0.525 -0.3117  0.3975 -0.1518
12081TIP3    H136165   1.712   2.302   0.594 -0.5700  0.3816 -0.3130
12081TIP3    H236166   1.690   2.225   0.466 -0.4361 -2.3849  1.2642
12082TIP3   OH236167   1.666   0.262   5.032 -0.0181 -0.0352 -0.2805
12082TIP3    H136168   1.650   0.338   5.089  1.0762 -0.4523  0.6061
12082TIP3    H236169   1.637   0.292   4.945 -3.5542 -0.0081  0.7192
12083TIP3   OH236170   7.518   4.861   5.255  0.0258  0.1324 -0.4905
12083TIP3    H136171   7.559   4.882   5.338 -0.2259  0.3482 -0.4164
12083TIP3    H236172   7.492   4.946   5.219  1.6574  0.2118 -1.6041
12084TIP3   OH236173   7.621   2.523   5.375 -0.2368  0.4743  0.2104
12084TIP3    H136174   7.652   2.469   5.302  1.6030  1.7052  0.0115
12084TIP3    H236175   7.535   2.487   5.397  0.0419 -1.1994 -1.2378
12085TIP3   OH236176   6.928   2.690   3.252 -0.0103 -0.1031  0.2778
12085TIP3    H136177   6.964   2.696   3.164  0.1687  0.2495  0.3738
12085TIP3    H236178   6.962   2.767   3.297 -0.2917 -0.1574  0.5862
12086TIP3   OH236179   2.238   2.055   0.622 -0.7236 -0.1348  0.3210
12086TIP3    H136180   2.145   2.075   0.634 -0.5551  0.3405  0.8922
12086TIP3    H236181   2.271   2.043   0.711 -0.5840 -1.9751  0.0611
12087TIP3   OH236182   0.923   2.061   0.511  0.0944  0.5213  0.2952
12087TIP3    H136183   0.830   2.069   0.489  0.4265  1.3598 -0.9753
12087TIP3    H236184   0.925   2.005   0.588 -1.4842  0.7174  0.5224
12088TIP3   OH236185   6.563   6.984   4.229  0.2485  0.2804 -0.2629
12088TIP3    H136186   6.503   7.054   4.253 -0.2852 -0.2182 -0.1104
12088TIP3    H236187   6.589   7.005   4.139 -1.3164 -0.2531 -0.8925
12089TIP3   OH236188   3.376   8.170   4.108  0.2916  0.5508  0.1732
12089TIP3    H136189   3.291   8.130   4.090  1.0839 -0.8416 -0.7167
12089TIP3    H236190   3.431   8.096   4.135  1.3688  1.3340  0.1628
12090TIP3   OH236191   3.280   4.859   3.129  0.1258  0.1522  0.5106
12090TIP3    H136192   3.352   4.810   3.089  0.8542  1.2291  0.4478
12090TIP3    H236193   3.214   4.793   3.150  1.0360 -0.8280  0.3551
12091TIP3   OH236194   0.408   1.454   3.948  0.1055  0.1716 -0.7893
12091TIP3    H136195   0.329   1.506   3.964 -0.9681 -1.0481 -1.9325
12091TIP3    H236196   0.451   1.497   3.874  0.6108  0.8808 -0.1187
12092TIP3   OH236197   7.287   4.586   0.187 -0.3804  0.2161  0.4953
12092TIP3    H136198   7.278   4.638   0.108  0.6781 -0.1963  0.0882
12092TIP3    H236199   7.198   4.583   0.224 -0.7002  1.1903 -0.1617
12093TIP3   OH236200   3.310   3.857   6.451 -0.5892  0.0510 -0.3047
12093TIP3    H136201   3.300   3.828   6.541 -1.0625  1.8443  0.2698
12093TIP3    H236202   3.340   3.779   6.403  0.8417 -0.6377  1.6023
12094TIP3   OH236203   4.983   4.219   5.920 -0.3943 -0.5584 -0.1374
12094TIP3    H136204   4.913   4.284   5.913 -0.5546 -0.9253 -2.4438
12094TIP3    H236205   4.968   4.178   6.005 -2.5113 -0.0929 -0.2323
12095TIP3   OH236206   3.686   4.945   4.824  0.0474  0.7213  0.5978
12095TIP3    H136207   3.740   4.866   4.827  0.1769  0.7656 -0.3011
12095TIP3    H236208   3.596   4.913   4.836 -0.0958  0.1976 -1.5294
12096TIP3   OH236209   5.130   6.016   2.548  0.1392  0.7666 -0.5463
12096TIP3    H136210   5.135   6.088   2.610 -0.1431  0.9043 -0.6810
12096TIP3    H236211   5.217   5.976   2.550  0.3333  1.1886 -0.5703
12097TIP3   OH236212   5.811   8.009   3.171 -0.0492 -0.2141 -0.4871
12097TIP3    H136213   5.755   7.942   3.130 -0.6742 -0.0459  0.0596
12097TIP3    H236214   5.869   7.959   3.229 -0.1342 -0.3302 -0.5023
12098TIP3   OH236215   5.870   3.337   1.466  0.3200 -0.6074 -0.0623
12098TIP3    H136216   5.895   3.337   1.374  0.2741 -0.8757 -0.0765
12098TIP3    H236217   5.774   3.340   1.465  0.1839 -2.9230 -0.0828
12099TIP3   OH236218   4.589   2.939   2.912  0.3403 -0.4755 -0.3606
12099TIP3    H136219   4.647   2.891   2.853  0.6389 -1.5169  0.7247
12099TIP3    H236220   4.630   2.930   2.998 -0.5450  0.2371  0.1600
12100TIP3   OH236221   5.003   4.012   1.299 -0.1661  0.2070  0.0433
12100TIP3    H136222   4.952   4.001   1.219 -0.4935 -0.7294  0.3565
12100TIP3    H236223   5.093   3.994   1.273 -0.3066 -0.3573 -0.0692
12101TIP3   OH236224   0.882   4.384   6.980 -0.3459  0.1287  0.1235
12101TIP3    H136225   0.857   4.464   6.934  0.9296  0.5884  0.2036
12101TIP3    H236226   0.896   4.410   7.070  0.3143 -0.1204  0.1019
12102TIP3   OH236227   2.748   4.737   7.067  0.0760 -1.0707  0.3191
12102TIP3    H136228   2.812   4.805   7.088  1.5451 -2.3901  0.2948
12102TIP3    H236229   2.665   4.784   7.058  0.1241  0.2168  4.5525
12103TIP3   OH236230   4.668   1.801   3.006 -0.3422  0.5358 -0.4179
12103TIP3    H136231   4.618   1.847   2.939  0.8324  1.1982 -0.8769
12103TIP3    H236232   4.720   1.869   3.049  0.3690 -0.1577 -0.1544
12104TIP3   OH236233   2.925   7.612   5.039  0.2046  0.2376  0.2014
12104TIP3    H136234   2.895   7.522   5.029 -0.2129  0.2202  1.3660
12104TIP3    H236235   2.845   7.663   5.049  0.4795  0.4744  1.3475
12105TIP3   OH236236   2.693  -0.023   2.944 -0.0432  0.3671  0.0392
12105TIP3    H136237   2.732   0.051   2.991 -1.3026 -0.1017  1.9262
12105TIP3    H236238   2.598  -0.010   2.953 -0.2900 -1.1590 -0.1146
12106TIP3   OH236239   3.666   7.359   2.976  0.3277 -0.0250  0.3747
12106TIP3    H136240   3.609   7.283   2.965  0.2993 -0.2893  2.1179
12106TIP3    H236241   3.754   7.322   2.987  0.6734  0.3245 -0.9142
12107TIP3   OH236242   2.467   2.475   3.973 -0.5882  0.0427  0.4172
12107TIP3    H136243   2.525   2.536   3.927  0.9103 -2.8096 -1.8171
12107TIP3    H236244   2.379   2.508   3.956  0.1261  1.2487 -1.2228
12108TIP3   OH236245   6.411   2.509   1.769 -0.2028  0.1535 -0.1262
12108TIP3    H136246   6.411   2.485   1.676 -0.9362  0.7211 -0.2805
12108TIP3    H236247   6.415   2.604   1.769  1.3720  0.0996  0.4610
12109TIP3   OH236248   4.998   7.109   0.261  0.5300 -0.1354  0.0054
12109TIP3    H136249   4.974   7.194   0.298  1.1286 -0.2602  0.7077
12109TIP3    H236250   5.034   7.060   0.335  0.4986 -0.8853 -0.4600
12110TIP3   OH236251   0.798   3.488   5.982  0.3143  0.0228 -0.3589
12110TIP3    H136252   0.812   3.400   6.018  1.2058  0.4854  0.4785
12110TIP3    H236253   0.886   3.525   5.976 -0.0893  1.0115 -0.3120
12111TIP3   OH236254   2.193   4.722   4.653 -0.6639  0.3796 -0.0609
12111TIP3    H136255   2.125   4.657   4.673 -0.1302 -1.2342 -2.9537
12111TIP3    H236256   2.272   4.670   4.637  0.3102  1.9241 -0.4673
12112TIP3   OH236257   3.185   6.761   6.697  0.1970 -0.0481  0.3812
12112TIP3    H136258   3.110   6.714   6.660  0.7588  0.9009 -2.2158
12112TIP3    H236259   3.252   6.695   6.708  0.4765 -0.1912 -1.7883
12113TIP3   OH236260   3.210   0.768   6.383  0.7178 -0.3145 -0.0505
12113TIP3    H136261   3.162   0.744   6.462  0.8687 -0.2827  0.0510
12113TIP3    H236262   3.279   0.826   6.414 -0.6358  1.6345 -0.4896
12114TIP3   OH236263   8.386   3.040   0.449 -0.1030 -0.9567  0.2543
12114TIP3    H136264   8.413   3.045   0.541  0.3852 -2.3247  0.1996
12114TIP3    H236265   8.348   3.126   0.431  1.4251 -0.0407  1.2152
12115TIP3   OH236266   5.013   0.298   0.596  0.0295 -0.3896 -0.1436
12115TIP3    H136267   5.033   0.246   0.674 -1.9921 -5.4493 -2.4858
12115TIP3    H236268   5.096   0.301   0.548  0.7554  0.8309  1.1272
12116TIP3   OH236269   6.079   3.384   0.983 -0.0971 -0.3529 -0.3095
12116TIP3    H136270   6.089   3.292   0.957  0.1512 -1.0706  2.0855
12116TIP3    H236271   6.148   3.430   0.936  1.5916 -1.8917  0.5706
12117TIP3   OH236272   1.807   4.445   3.717  0.6163  0.0372 -0.4439
12117TIP3    H136273   1.801   4.377   3.785  1.7063  0.5449  0.1882
12117TIP3    H236274   1.800   4.398   3.635  0.3626 -0.7254  0.0038
12118TIP3   OH236275   2.419   5.571   1.327 -0.1536  0.4780  0.0405
12118TIP3    H136276   2.413   5.666   1.315  2.4695  0.9307  1.4821
12118TIP3    H236277   2.431   5.559   1.421  0.5676 -1.2149 -0.2273
12119TIP3   OH236278   2.713   4.949   1.184  0.2501  0.0306 -0.0027
12119TIP3    H136279   2.736   4.987   1.100 -0.7393  0.8746  0.0828
12119TIP3    H236280   2.618   4.962   1.191 -0.0664 -2.0270  0.2589
12120TIP3   OH236281   3.791   0.623   1.797  0.1598  0.5213 -0.3678
12120TIP3    H136282   3.847   0.698   1.816  0.1958  0.1944  0.9532
12120TIP3    H236283   3.707   0.661   1.772 -0.2721  1.0332  1.7117
12121TIP3   OH236284   6.463   4.839   2.705 -0.6609 -0.3862 -0.3767
12121TIP3    H136285   6.470   4.826   2.800 -0.8587  2.6676  0.1399
12121TIP3    H236286   6.471   4.751   2.669 -0.4968 -1.6482  2.4544
12122TIP3   OH236287   2.298   7.561   3.765  0.3469 -0.3064  0.6441
12122TIP3    H136288   2.358   7.634   3.780 -0.6360  0.8842 -0.9103
12122TIP3    H236289   2.347   7.501   3.708  1.0655 -0.7661  1.7186
12123TIP3   OH236290   6.198   8.041   1.528  0.9099  0.4153 -0.1035
12123TIP3    H136291   6.167   8.129   1.507  2.0596  0.5567 -1.3559
12123TIP3    H236292   6.233   8.008   1.445 -1.4199 -2.0875 -0.1993
12124TIP3   OH236293   5.422   1.689   2.454 -0.0608  0.1041  0.1311
12124TIP3    H136294   5.422   1.785   2.459  0.9166  0.0701  1.6208
12124TIP3    H236295   5.397   1.661   2.542  3.2723 -0.9545  0.8824
12125TIP3   OH236296   1.110   5.861   0.855 -0.3419  0.3677  0.6210
12125TIP3    H136297   1.111   5.777   0.901  0.7053  0.5122  0.8868
12125TIP3    H236298   1.093   5.838   0.764  1.2373 -0.2916  0.4466
12126TIP3   OH236299   6.157   5.582   5.212 -0.0053  0.3390  0.1991
12126TIP3    H136300   6.117   5.529   5.281  0.9597 -2.2916 -1.1472
12126TIP3    H236301   6.243   5.606   5.246  0.3315 -0.6651  0.0998
12127TIP3   OH236302   0.083   4.013   6.867 -0.3689 -0.1103 -1.0943
12127TIP3    H136303   0.028   4.055   6.934  2.7934  2.3259  0.2299
12127TIP3    H236304   0.098   3.924   6.901 -1.1108  0.1489 -0.0249
12128TIP3   OH236305   5.152   3.856   0.499 -0.1667  0.2562 -0.3785
12128TIP3    H136306   5.092   3.812   0.559 -0.3945  1.1691  0.0691
12128TIP3    H236307   5.098   3.878   0.423 -0.1760  0.2526 -0.3730
12129TIP3   OH236308   6.602   3.914   6.032  0.1928  0.6281 -0.1526
12129TIP3    H136309   6.626   3.950   5.947  2.5676  1.6107  0.8372
12129TIP3    H236310   6.586   3.991   6.087 -0.2194  0.0356  0.5798
12130TIP3   OH236311   3.709   1.215   2.301 -0.1697  0.0215  0.3888
12130TIP3    H136312   3.775   1.258   2.246  0.3550 -0.9981  0.2007
12130TIP3    H236313   3.757   1.144   2.344 -1.2390 -1.0050 -0.0689
12131TIP3   OH236314   1.980   6.380   5.380  0.1764  0.3688 -0.0870
12131TIP3    H136315   1.908   6.441   5.396  0.3898  0.9700 -1.2811
12131TIP3    H236316   1.991   6.334   5.463 -2.3014 -0.5413 -0.1642
12132TIP3   OH236317   3.107   7.800   3.898  0.1618  0.3310  0.0920
12132TIP3    H136318   3.037   7.739   3.872 -0.9425  2.3970 -2.0917
12132TIP3    H236319   3.184   7.744   3.911 -0.7146 -1.5196 -2.1461
12133TIP3   OH236320   4.662   7.099   4.352 -0.2049 -0.1931 -0.3407
12133TIP3    H136321   4.658   7.039   4.427 -1.7615  0.3340  0.0353
12133TIP3    H236322   4.751   7.133   4.354  0.6082 -2.1518 -0.3205
12134TIP3   OH236323   2.545   3.947   4.281 -0.1053 -0.4446 -0.1430
12134TIP3    H136324   2.612   4.006   4.317 -0.9913  2.9536 -3.4698
12134TIP3    H236325   2.462   3.987   4.306 -0.8101 -1.5877 -0.5896
12135TIP3   OH236326   6.654   6.836   2.747  0.3788 -0.2255 -0.3424
12135TIP3    H136327   6.692   6.809   2.830  1.0424  0.2339 -0.4948
12135TIP3    H236328   6.567   6.869   2.771  0.3451 -0.6201  0.0944
12136TIP3   OH236329   8.559   7.935   5.793  0.2449  0.0801 -0.3397
12136TIP3    H136330   8.632   7.978   5.837 -0.4922  0.5439  0.4478
12136TIP3    H236331   8.483   7.957   5.846 -0.2398 -1.7415 -0.2390
12137TIP3   OH236332   5.784   1.937   1.624  0.8813  0.0411  0.1280
12137TIP3    H136333   5.759   2.003   1.560 -1.6779  0.5003  1.4844
12137TIP3    H236334   5.721   1.866   1.611  2.5253 -1.4329 -0.1561
12138TIP3   OH236335   4.673   5.485   5.768  0.4258 -0.2269 -0.0864
12138TIP3    H136336   4.633   5.561   5.812 -1.3749 -1.0447 -0.2686
12138TIP3    H236337   4.654   5.411   5.826 -0.4396 -1.0322 -1.3757
12139TIP3   OH236338   1.008   4.802   0.361  0.4838  0.0076 -0.4219
12139TIP3    H136339   0.929   4.825   0.410  0.4466 -0.3912 -0.2963
12139TIP3    H236340   0.975   4.769   0.277  0.4919 -0.8012 -0.1099
12140TIP3   OH236341   7.013   2.708   2.996  0.3077  0.2501  0.3760
12140TIP3    H136342   7.063   2.781   2.958 -1.0563  0.2391 -1.6003
12140TIP3    H236343   7.033   2.634   2.939 -0.7450 -0.1317  0.4922
12141TIP3   OH236344   6.844   4.559   3.899  0.4006 -0.3608 -0.1745
12141TIP3    H136345   6.902   4.617   3.948  0.3857  0.0440 -0.6246
12141TIP3    H236346   6.846   4.477   3.947 -2.0920  0.8872  2.3777
12142TIP3   OH236347   8.179   4.810   7.095 -0.0101 -0.1824 -0.0322
12142TIP3    H136348   8.087   4.784   7.099  0.2163 -1.3532 -1.3564
12142TIP3    H236349   8.206   4.787   7.006  2.0453 -1.5980  0.8774
12143TIP3   OH236350   6.026   6.648   2.032  0.3385  0.6188  0.0254
12143TIP3    H136351   5.975   6.577   2.070 -2.0540  1.7286 -0.9062
12143TIP3    H236352   6.045   6.619   1.942  0.2140  0.7369 -0.0400
12144TIP3   OH236353   6.084   2.098   4.236  0.2401 -0.6196  0.0700
12144TIP3    H136354   6.011   2.156   4.215  1.5560  1.9168  1.9056
12144TIP3    H236355   6.159   2.157   4.248  1.9936 -2.8507  0.7963
12145TIP3   OH236356   6.025   3.612   7.050 -0.1149  0.2465  0.3419
12145TIP3    H136357   6.089   3.544   7.032 -1.1800 -0.6072 -0.3372
12145TIP3    H236358   5.942   3.565   7.062 -1.1755  1.4838 -1.5383
12146TIP3   OH236359   2.944   7.607   3.801  0.7141 -0.4916 -0.3227
12146TIP3    H136360   2.881   7.678   3.798 -2.5666 -3.2018 -1.5496
12146TIP3    H236361   2.957   7.582   3.709  0.0823 -2.7737  0.1524
12147TIP3   OH236362   7.154   8.209   0.233 -0.1592  0.0810  0.3065
12147TIP3    H136363   7.098   8.134   0.215  0.2881 -0.0118 -0.7552
12147TIP3    H236364   7.215   8.178   0.301  0.1648 -0.5894 -0.2790
12148TIP3   OH236365   5.835   6.682   0.206 -0.2456 -0.4085  0.4109
12148TIP3    H136366   5.919   6.645   0.235 -0.1756  0.1393  0.9299
12148TIP3    H236367   5.778   6.606   0.194  0.5573 -0.8467 -0.7211
12149TIP3   OH236368   5.682   1.575   3.845 -0.3826  0.0187 -0.2777
12149TIP3    H136369   5.741   1.650   3.834 -1.6701  1.5024  2.1004
12149TIP3    H236370   5.595   1.614   3.847 -1.0094 -1.3090  2.4015
12150TIP3   OH236371   5.262   4.294   2.719 -0.7123 -0.3966  0.3935
12150TIP3    H136372   5.327   4.325   2.656 -1.3933  1.5827  0.5718
12150TIP3    H236373   5.298   4.319   2.804 -0.5931 -1.5037  0.6755
12151TIP3   OH236374   1.917   6.411   4.321 -0.2708 -0.4732  0.3233
12151TIP3    H136375   1.876   6.488   4.282 -1.3181 -0.8856  0.5481
12151TIP3    H236376   1.974   6.445   4.389  0.5037  0.1786 -0.6151
12152TIP3   OH236377   3.271   1.647   0.242 -1.5629  0.5349 -0.0467
12152TIP3    H136378   3.243   1.574   0.187 -0.9203  1.3329 -1.5003
12152TIP3    H236379   3.348   1.682   0.197 -1.8255  2.0660  0.6338
12153TIP3   OH236380   1.461   5.384   3.498 -0.2306 -0.7222  0.0009
12153TIP3    H136381   1.410   5.383   3.417 -0.6767 -1.5561  0.2772
12153TIP3    H236382   1.407   5.336   3.561  0.4597 -0.7660  0.5734
12154TIP3   OH236383   1.540   0.139   6.530 -0.1557 -0.0522 -0.0218
12154TIP3    H136384   1.578   0.226   6.544 -0.0458  0.1089 -1.2139
12154TIP3    H236385   1.542   0.098   6.617  1.7438  0.3556  0.1834
12155TIP3   OH236386   7.422   4.019   3.533  0.5765 -0.0338 -0.1517
12155TIP3    H136387   7.509   4.058   3.527  0.9230 -0.9979 -2.1940
12155TIP3    H236388   7.433   3.931   3.497 -0.5315 -1.4638  2.7348
12156TIP3   OH236389   6.322   0.512   0.241 -0.7021  0.7335 -0.1622
12156TIP3    H136390   6.387   0.539   0.176  2.0201  0.5118  2.2483
12156TIP3    H236391   6.313   0.587   0.299 -1.2495  0.1433  0.5396
12157TIP3   OH236392   6.296   6.375   3.166  0.0346 -0.4317  0.2681
12157TIP3    H136393   6.388   6.366   3.139  0.2965 -0.4149  1.1283
12157TIP3    H236394   6.255   6.424   3.095  0.9223  0.4390  0.3361
12158TIP3   OH236395   2.454   4.235   2.109  0.2319 -0.5265  0.1292
12158TIP3    H136396   2.446   4.283   2.026  0.3233  0.3714  0.6267
12158TIP3    H236397   2.391   4.163   2.101  0.6321 -0.7733 -0.9357
12159TIP3   OH236398   5.670   3.949   1.441  0.2193  0.2321  0.0703
12159TIP3    H136399   5.612   3.995   1.380  0.2671  1.8143  1.1609
12159TIP3    H236400   5.758   3.967   1.408  0.2444  1.0763  0.5676
12160TIP3   OH236401   0.049   7.566   0.768 -0.1384  0.1217  0.7243
12160TIP3    H136402   0.122   7.623   0.789  0.2017 -0.2217  0.4764
12160TIP3    H236403  -0.025   7.604   0.815  0.0279  0.9032  0.3663
12161TIP3   OH236404   5.172   2.886   7.072  0.2719  1.1042 -0.0707
12161TIP3    H136405   5.084   2.894   7.037 -0.2069 -0.4629  0.6887
12161TIP3    H236406   5.171   2.938   7.152 -0.2825  0.2501  0.4822
12162TIP3   OH236407   0.087   2.630   5.057  0.4905 -0.4334 -0.0131
12162TIP3    H136408   0.162   2.605   5.110  0.6391  1.0778  0.5422
12162TIP3    H236409   0.068   2.720   5.083 -1.7863 -0.9003  0.1899
12163TIP3   OH236410   7.701   6.324   4.828 -0.5222 -0.3041  0.6409
12163TIP3    H136411   7.622   6.376   4.839 -0.6362 -0.5692  1.1280
12163TIP3    H236412   7.764   6.363   4.889 -0.3526 -0.2411  0.4269
12164TIP3   OH236413   6.939   5.642   6.019 -0.4070 -0.0217  0.1502
12164TIP3    H136414   6.938   5.644   6.115 -2.5052 -0.9485  0.2043
12164TIP3    H236415   6.979   5.725   5.994 -1.7831  1.2115  1.8269
12165TIP3   OH236416   0.925   0.164   2.491 -0.1630  0.1180  0.1426
12165TIP3    H136417   0.970   0.149   2.574 -0.6168 -0.6115  0.2719
12165TIP3    H236418   0.988   0.136   2.424 -0.7292 -1.8161  0.3582
12166TIP3   OH236419   0.330   6.087   2.029 -0.1955  0.4821  0.3098
12166TIP3    H136420   0.409   6.043   2.059 -0.8466 -0.4021  0.7833
12166TIP3    H236421   0.361   6.163   1.979  0.9385  1.3309  2.1876
12167TIP3   OH236422   7.249   7.643   1.377  0.2811  0.1482  0.4622
12167TIP3    H136423   7.267   7.736   1.365 -0.9199  0.7367  2.6697
12167TIP3    H236424   7.157   7.640   1.405 -0.0106 -1.8112 -0.5425
12168TIP3   OH236425   1.582   7.582   5.819 -0.2769  0.1645  0.0174
12168TIP3    H136426   1.572   7.500   5.868  0.0958  0.0030 -0.1729
12168TIP3    H236427   1.676   7.588   5.801 -0.5554 -0.4545 -1.8341
12169TIP3   OH236428   0.684   3.988   2.506 -0.1528 -0.3530  0.3819
12169TIP3    H136429   0.714   4.059   2.450 -1.5852 -0.0839 -0.0666
12169TIP3    H236430   0.692   4.023   2.595 -1.2887  0.5517  0.1411
12170TIP3   OH236431   2.685   2.732   5.909  0.2850 -0.2097  0.0197
12170TIP3    H136432   2.632   2.804   5.875  0.1522  0.5098  1.6440
12170TIP3    H236433   2.716   2.686   5.831  1.0341  2.0681 -1.1227
12171TIP3   OH236434   8.389   4.537   6.881 -0.6632  0.2941 -0.4426
12171TIP3    H136435   8.473   4.573   6.852 -0.2444 -0.1276  0.2157
12171TIP3    H236436   8.325   4.605   6.860  0.1432  1.5481  1.0271
12172TIP3   OH236437   5.891   5.549   2.988  0.0198 -0.6868  1.0213
12172TIP3    H136438   5.912   5.639   2.962  1.1611 -1.3119 -0.3599
12172TIP3    H236439   5.806   5.556   3.032 -1.9450  0.5697 -2.5804
12173TIP3   OH236440   0.423   3.565   0.337  0.1884 -0.1096  0.0978
12173TIP3    H136441   0.502   3.513   0.320 -0.0647 -0.5471  0.2529
12173TIP3    H236442   0.352   3.501   0.335 -0.4073  0.5576 -1.9501
12174TIP3   OH236443   3.705   5.684   6.946 -0.2865 -0.2970  0.7783
12174TIP3    H136444   3.686   5.777   6.954 -1.8622 -0.5561  0.4457
12174TIP3    H236445   3.784   5.671   6.998 -0.3599  1.1245  1.2917
12175TIP3   OH236446   8.639   0.857   3.348 -0.1870 -0.0121 -0.1218
12175TIP3    H136447   8.729   0.854   3.314  0.3157 -2.5905  1.2244
12175TIP3    H236448   8.640   0.930   3.411  0.1967  1.6206 -1.9219
12176TIP3   OH236449   3.028   4.117   4.104  0.2686 -0.1104  0.3474
12176TIP3    H136450   3.098   4.056   4.128 -0.3494 -0.6184  0.8766
12176TIP3    H236451   3.075   4.197   4.077  1.2530 -1.5816 -2.8710
12177TIP3   OH236452   3.733   0.435   1.419  0.2451 -0.5782 -0.6588
12177TIP3    H136453   3.753   0.399   1.332 -0.8188  1.1551 -1.6854
12177TIP3    H236454   3.816   0.472   1.449  0.0022  1.6554 -2.4275
12178TIP3   OH236455   6.949   7.636   7.065 -0.1790  0.0763  0.4059
12178TIP3    H136456   6.858   7.622   7.039 -0.3414 -0.4056  1.1767
12178TIP3    H236457   6.946   7.715   7.119 -0.2437 -0.2302  0.8658
12179TIP3   OH236458   1.927   6.116   2.680 -0.0849 -0.3547  0.2234
12179TIP3    H136459   1.849   6.086   2.729  1.0499 -1.0134  1.7080
12179TIP3    H236460   1.986   6.150   2.747 -0.8734  4.6929 -1.2066
12180TIP3   OH236461   7.773   3.404   1.774  0.2993  0.3582 -0.0683
12180TIP3    H136462   7.840   3.402   1.842  0.4952  1.2431 -0.2221
12180TIP3    H236463   7.705   3.343   1.805  1.3339 -0.8588 -0.1051
12181TIP3   OH236464   5.264   3.042   1.759 -0.7222  0.7202 -0.0850
12181TIP3    H136465   5.228   3.113   1.706  1.9705  2.0297 -0.3148
12181TIP3    H236466   5.347   3.076   1.792 -0.8062 -1.2238  2.4103
12182TIP3   OH236467   2.226   5.313   4.557 -0.4789 -0.6941  0.0705
12182TIP3    H136468   2.272   5.284   4.636 -1.2235  0.3764  0.9213
12182TIP3    H236469   2.265   5.261   4.486  0.2614 -1.6082  1.1196
12183TIP3   OH236470   6.539   1.059   2.363 -0.3159  0.2222 -0.5457
12183TIP3    H136471   6.472   1.081   2.428 -1.1113 -0.7097 -1.0230
12183TIP3    H236472   6.522   1.119   2.290  2.0022  2.8642  0.9230
12184TIP3   OH236473  -0.008   0.500   2.235  0.0747 -0.2469  0.0822
12184TIP3    H136474   0.078   0.505   2.193  0.2039 -0.5212  0.3134
12184TIP3    H236475  -0.003   0.563   2.307 -0.8203  1.7228 -1.4895
12185TIP3   OH236476   1.530   0.298   4.783  0.1885  0.1617  0.6556
12185TIP3    H136477   1.569   0.353   4.715 -2.7473  1.4875 -0.1207
12185TIP3    H236478   1.441   0.283   4.753 -0.0879 -2.3768  2.4642
12186TIP3   OH236479   2.807   5.767   0.511  0.2844  0.3377  0.1600
12186TIP3    H136480   2.881   5.750   0.453 -0.3660  0.0853 -0.6039
12186TIP3    H236481   2.801   5.688   0.566  0.9507  0.6138  0.6451
12187TIP3   OH236482   7.653   1.993   0.212  0.3639 -0.0910 -0.2008
12187TIP3    H136483   7.617   2.050   0.144 -1.4463 -0.9996 -0.0498
12187TIP3    H236484   7.633   2.038   0.294 -1.7343 -1.1936 -0.0321
12188TIP3   OH236485   8.076   4.488   7.103 -0.5051  0.6233  0.7523
12188TIP3    H136486   8.056   4.491   7.009  0.1414  1.8193  0.6385
12188TIP3    H236487   8.017   4.421   7.138 -0.2942 -0.3229 -0.6160
12189TIP3   OH236488   1.753   3.657   6.375  0.2942 -0.7098 -0.5251
12189TIP3    H136489   1.817   3.589   6.359  0.1240 -0.9640 -0.1569
12189TIP3    H236490   1.682   3.612   6.422 -0.0941 -0.4101 -0.8221
12190TIP3   OH236491   1.919   2.342   1.703 -0.8337  0.0814  0.3069
12190TIP3    H136492   1.909   2.431   1.670  0.8009  0.0743 -0.2650
12190TIP3    H236493   1.859   2.290   1.649 -1.6034  0.7660  0.4706
12191TIP3   OH236494   5.464   1.680   5.740 -0.3661 -0.0665 -0.1396
12191TIP3    H136495   5.465   1.675   5.644  0.2720  0.9620 -0.2010
12191TIP3    H236496   5.552   1.710   5.763 -0.8723  0.8360  0.6828
12192TIP3   OH236497   5.959   3.020   2.052  0.1807 -0.0117  0.6002
12192TIP3    H136498   6.044   3.063   2.055 -0.8681  2.1190  2.2625
12192TIP3    H236499   5.929   3.020   2.142 -1.8474 -0.1675 -0.0255
12193TIP3   OH236500   4.073   3.791   2.076 -0.6614 -0.0263  0.3084
12193TIP3    H136501   4.109   3.875   2.106 -0.9164 -0.6608  2.6277
12193TIP3    H236502   4.016   3.764   2.147 -0.6341 -2.1392 -0.4216
12194TIP3   OH236503   7.045   7.422   6.681 -0.1938 -0.1480  0.6765
12194TIP3    H136504   6.991   7.386   6.751 -0.0542  1.0988  1.4507
12194TIP3    H236505   7.131   7.433   6.721  0.1350 -0.2804  0.0232
12195TIP3   OH236506   1.550   2.695   0.460  0.1285 -0.4549 -0.0711
12195TIP3    H136507   1.495   2.643   0.519 -0.4622  1.9064  1.6027
12195TIP3    H236508   1.639   2.664   0.478 -0.1017 -0.2203  1.6898
12196TIP3   OH236509   8.526   3.330   2.512 -0.4227  0.6194 -0.3407
12196TIP3    H136510   8.598   3.362   2.456 -0.6812  0.0456 -1.0116
12196TIP3    H236511   8.496   3.251   2.468 -0.8474  0.3407  0.4536
12197TIP3   OH236512   0.518   5.833   4.432  0.1979 -0.2541  0.3175
12197TIP3    H136513   0.508   5.899   4.501  0.9757  0.1435  0.0671
12197TIP3    H236514   0.613   5.819   4.427  0.1023 -0.6832 -0.2948
12198TIP3   OH236515   0.398   6.639   2.770 -0.0455 -0.2333  0.2734
12198TIP3    H136516   0.425   6.688   2.692  2.5283 -0.5733  0.8608
12198TIP3    H236517   0.315   6.599   2.745  0.7347 -0.4367 -2.3786
12199TIP3   OH236518   0.133   1.575   5.378 -0.7144  0.1892 -0.5588
12199TIP3    H136519   0.142   1.667   5.405 -0.2114  0.2363 -0.8709
12199TIP3    H236520   0.103   1.579   5.288  2.0216  0.1232 -1.5824
12200TIP3   OH236521   4.460   5.408   1.955  0.6290  0.0458 -0.2651
12200TIP3    H136522   4.503   5.357   2.024  0.5299  0.8516  0.4047
12200TIP3    H236523   4.395   5.348   1.918  1.8092 -0.9495 -0.8081
12201TIP3   OH236524   6.597   3.838   3.338  0.3157 -0.1183 -0.0261
12201TIP3    H136525   6.680   3.838   3.290  0.6854 -1.3162  0.5709
12201TIP3    H236526   6.613   3.781   3.414 -0.0504  2.1663  1.8900
12202TIP3   OH236527   6.270   8.017   5.673 -0.3075 -0.1024  0.1883
12202TIP3    H136528   6.211   7.951   5.711  0.5677 -1.5457 -0.8592
12202TIP3    H236529   6.339   8.027   5.738 -0.5203 -0.1035  0.4170
12203TIP3   OH236530   0.755   8.084   5.579 -0.8547 -0.1053 -0.0287
12203TIP3    H136531   0.785   8.104   5.667 -0.4417 -0.0220 -0.1876
12203TIP3    H236532   0.788   8.155   5.525 -1.7508  0.2534 -0.1285
12204TIP3   OH236533   5.680   0.445   2.866  0.5294  0.0161 -0.1591
12204TIP3    H136534   5.774   0.446   2.847  0.3568  0.0705 -1.0644
12204TIP3    H236535   5.660   0.534   2.894  0.4779  0.4238 -1.4274
12205TIP3   OH236536   2.561   2.882   2.001 -0.1380  0.1677 -0.4579
12205TIP3    H136537   2.622   2.818   2.039 -1.2043  0.5945  2.2256
12205TIP3    H236538   2.501   2.831   1.948  1.6098 -0.4390 -1.9497
12206TIP3   OH236539   7.651   1.062   2.394  0.6731 -0.1168 -0.0807
12206TIP3    H136540   7.570   1.019   2.365  0.9252 -0.1415 -0.7687
12206TIP3    H236541   7.624   1.150   2.420  0.3276 -0.3302  0.2918
12207TIP3   OH236542   1.215   5.629   1.372  0.3499 -0.1283  0.2141
12207TIP3    H136543   1.311   5.625   1.380  0.6442  0.0779 -2.4241
12207TIP3    H236544   1.197   5.721   1.353 -0.2516 -0.3836 -0.4589
12208TIP3   OH236545   2.359   3.581   1.043  0.2962 -0.1150  0.1723
12208TIP3    H136546   2.308   3.652   1.004 -2.0047 -0.2706  2.5597
12208TIP3    H236547   2.303   3.504   1.034  0.7941 -0.6586  1.4660
12209TIP3   OH236548   6.971   0.587   2.832 -0.3730  0.0038  0.0413
12209TIP3    H136549   6.960   0.497   2.799 -0.1758 -0.3735  0.9828
12209TIP3    H236550   7.062   0.609   2.808 -0.3309 -0.1517  0.0548
12210TIP3   OH236551   3.990   0.010   3.969 -1.0321  0.0556  0.0517
12210TIP3    H136552   3.907   0.033   3.928 -2.2563 -0.4021  2.1421
12210TIP3    H236553   3.966  -0.025   4.055  1.3766  0.9508  1.1955
12211TIP3   OH236554   6.569   6.291   6.153  0.4307  0.0909 -0.3631
12211TIP3    H136555   6.616   6.327   6.228  0.2436 -0.4096 -0.0060
12211TIP3    H236556   6.533   6.368   6.109 -1.2250  0.3010  1.2260
12212TIP3   OH236557   4.175   2.046   3.970  0.1686  0.3673  0.4094
12212TIP3    H136558   4.189   2.109   4.040 -1.5606  0.6493  0.5492
12212TIP3    H236559   4.213   2.086   3.892 -0.5276  1.4146  0.5892
12213TIP3   OH236560   6.441   5.626   0.670  0.9288 -0.1224 -0.3285
12213TIP3    H136561   6.443   5.539   0.630  0.5380  0.1495 -0.9598
12213TIP3    H236562   6.443   5.687   0.596  0.4781  0.3950  0.0735
12214TIP3   OH236563   4.743   4.523   5.729 -0.1976 -0.6319 -0.5427
12214TIP3    H136564   4.667   4.558   5.682 -0.3956  0.1215  0.3158
12214TIP3    H236565   4.816   4.577   5.700 -0.1784 -0.6612 -0.5493
12215TIP3   OH236566   4.140   4.336   5.344  0.1848 -0.1961 -0.0756
12215TIP3    H136567   4.223   4.374   5.313 -0.1944  0.5540 -0.2141
12215TIP3    H236568   4.133   4.254   5.296  1.3776 -0.8101  0.7601
12216TIP3   OH236569   0.395   5.180   2.944  0.2973 -0.7036  0.0611
12216TIP3    H136570   0.331   5.192   2.873 -0.2183  1.7852  0.8432
12216TIP3    H236571   0.450   5.258   2.940  2.1643 -1.9199  0.5933
12217TIP3   OH236572   3.492   5.569   6.009 -0.1957 -0.5219  0.4139
12217TIP3    H136573   3.447   5.503   5.957 -0.4730 -0.7902  0.9888
12217TIP3    H236574   3.494   5.647   5.952  0.1571 -1.0183 -0.2764
12218TIP3   OH236575   8.406   3.796   4.901  0.4517 -0.4357  0.1679
12218TIP3    H136576   8.438   3.725   4.846  2.3816  1.3809 -1.2088
12218TIP3    H236577   8.363   3.856   4.840 -1.0817 -0.3313  1.2887
12219TIP3   OH236578   6.254   3.890   3.730  0.3716 -0.0103  0.4868
12219TIP3    H136579   6.190   3.842   3.677  1.3905 -0.3938 -0.4361
12219TIP3    H236580   6.215   3.894   3.817 -1.6424  1.1772 -0.3916
12220TIP3   OH236581   1.287   1.632   0.733 -0.5479  0.1915 -0.0879
12220TIP3    H136582   1.363   1.635   0.791  1.0497 -0.0017 -2.0441
12220TIP3    H236583   1.212   1.635   0.791  0.9144 -1.9418  2.1194
12221TIP3   OH236584   2.368   4.011   6.891  0.7649 -0.0439  0.5167
12221TIP3    H136585   2.352   4.091   6.841 -3.3098  0.6664  2.5025
12221TIP3    H236586   2.382   4.041   6.981  1.0945 -1.5166  0.9911
12222TIP3   OH236587   8.613   3.207   1.414 -0.6865 -0.3923  0.3068
12222TIP3    H136588   8.695   3.197   1.464 -0.5506 -0.5042  0.0596
12222TIP3    H236589   8.600   3.302   1.409 -0.4636 -0.3677  0.1711
12223TIP3   OH236590   6.875   2.559   1.529  0.3563 -0.4016 -0.0196
12223TIP3    H136591   6.914   2.607   1.603 -1.4059 -1.0756  1.4027
12223TIP3    H236592   6.906   2.470   1.540 -2.1024 -1.1504  1.6367
12224TIP3   OH236593   1.748   5.893   1.443 -0.0234 -0.2699 -0.4729
12224TIP3    H136594   1.692   5.838   1.497 -1.5310  0.7286 -0.9541
12224TIP3    H236595   1.829   5.844   1.435 -0.9165 -1.8982  0.0124
12225TIP3   OH236596   3.919   2.934   1.074  0.4430  0.7173  0.1041
12225TIP3    H136597   3.993   2.919   1.015 -0.2666 -1.0894 -0.4140
12225TIP3    H236598   3.843   2.936   1.016 -0.1789 -0.2501  0.8395
12226TIP3   OH236599   6.477   7.043   2.018  0.3294  0.5417  0.0096
12226TIP3    H136600   6.473   7.135   2.043  1.3219  0.7258 -0.4864
12226TIP3    H236601   6.440   6.997   2.093  0.0231  1.3202  0.3539
12227TIP3   OH236602   3.129   4.104   2.454  0.4029 -0.5027 -0.7748
12227TIP3    H136603   3.148   4.010   2.456 -1.5958 -0.9181  0.4585
12227TIP3    H236604   3.040   4.112   2.487  0.6911  1.8869 -0.3890
12228TIP3   OH236605   3.638   0.661   1.302 -0.3425  0.4992 -0.2007
12228TIP3    H136606   3.670   0.596   1.365  0.0806  0.6154 -0.2999
12228TIP3    H236607   3.590   0.724   1.356 -1.1097 -0.1058 -0.1450
12229TIP3   OH236608   1.906   0.784   6.120  0.8243  0.1120 -0.0454
12229TIP3    H136609   1.992   0.825   6.123  1.2795 -0.8280  0.0477
12229TIP3    H236610   1.920   0.701   6.075  1.0823 -2.5438  4.4057
12230TIP3   OH236611   6.397   1.074   4.336  0.0994 -0.1577 -0.0773
12230TIP3    H136612   6.365   1.147   4.389  0.0290 -0.1416 -0.1436
12230TIP3    H236613   6.472   1.110   4.288  0.2749 -0.2202  0.1452
12231TIP3   OH236614   7.788   3.441   4.334  0.1884 -0.2709  0.1868
12231TIP3    H136615   7.841   3.517   4.357  4.8513 -2.4840 -1.6986
12231TIP3    H236616   7.741   3.468   4.255  1.8309  0.6835 -0.5172
12232TIP3   OH236617   8.029   3.067   4.818 -0.2192 -0.4911  0.5313
12232TIP3    H136618   8.105   3.108   4.778 -1.3388  1.0766 -0.1099
12232TIP3    H236619   8.065   2.999   4.875  1.7491  1.2601  1.4973
12233TIP3   OH236620   2.665   4.127   0.296  0.0097  0.8394 -0.4963
12233TIP3    H136621   2.664   4.058   0.362 -3.0064  0.2455 -1.0382
12233TIP3    H236622   2.747   4.114   0.249 -0.4137 -2.4017 -0.5510
12234TIP3   OH236623   3.577   3.224   3.907  0.0040  0.3154 -0.5673
12234TIP3    H136624   3.663   3.182   3.896 -1.4097 -3.1362  0.2182
12234TIP3    H236625   3.542   3.231   3.819  0.0439 -0.8501 -0.6962
12235TIP3   OH236626   0.780   1.415   6.943 -0.1377  0.0931 -0.9167
12235TIP3    H136627   0.813   1.348   6.882 -0.0852 -0.2196 -0.5498
12235TIP3    H236628   0.691   1.387   6.964  0.7240 -1.2961  1.2196
12236TIP3   OH236629   6.422   2.239   1.621  0.6051  0.2639 -0.0884
12236TIP3    H136630   6.450   2.178   1.553  0.9315  0.9099 -0.5422
12236TIP3    H236631   6.327   2.246   1.608  0.3569 -1.1221  0.7878
12237TIP3   OH236632   1.114   2.450   5.017 -0.2608 -0.5416 -0.2669
12237TIP3    H136633   1.178   2.388   5.053  0.1541 -0.4557 -0.8569
12237TIP3    H236634   1.167   2.517   4.975 -0.7202  0.0382  0.0655
12238TIP3   OH236635   2.926   1.170   2.606 -0.7831  0.3582  0.4111
12238TIP3    H136636   2.928   1.110   2.680  0.4922  2.2850  2.0308
12238TIP3    H236637   2.834   1.195   2.598 -1.0165 -0.2962  0.9913
12239TIP3   OH236638   7.901   3.286   5.819 -0.0933  0.2109  0.0180
12239TIP3    H136639   7.816   3.263   5.857  0.4087 -1.2770  0.3011
12239TIP3    H236640   7.880   3.345   5.747 -1.3522 -0.0515  0.1443
12240TIP3   OH236641   5.810   6.575   6.844  0.3005  0.1934 -0.3221
12240TIP3    H136642   5.838   6.661   6.813 -2.6994  1.4346  0.0104
12240TIP3    H236643   5.763   6.537   6.770  1.3296 -1.0482 -0.3591
12241TIP3   OH236644   2.842   3.753   3.295  0.2454  0.8582 -0.3298
12241TIP3    H136645   2.921   3.731   3.344 -1.4467 -1.5773  1.5767
12241TIP3    H236646   2.844   3.694   3.220 -0.4899 -0.4383  0.6189
12242TIP3   OH236647   2.032   1.419   6.207 -0.2458  0.0152 -0.5935
12242TIP3    H136648   1.953   1.453   6.251  0.4702 -0.9148  1.5162
12242TIP3    H236649   2.104   1.447   6.263  0.6211 -2.1961 -0.5290
12243TIP3   OH236650   5.782   0.127   4.981  0.1898  0.2312 -0.2765
12243TIP3    H136651   5.835   0.056   5.017 -0.0717 -0.0592 -0.4533
12243TIP3    H236652   5.737   0.164   5.056  1.9446  1.6259  0.1509
12244TIP3   OH236653   1.688   1.714   2.616 -0.2942 -0.1116 -0.2768
12244TIP3    H136654   1.606   1.666   2.618 -0.1910 -0.2760  0.6816
12244TIP3    H236655   1.744   1.664   2.557  0.3932 -2.2043  1.9735
12245TIP3   OH236656   7.387   7.815   0.575 -0.3586  0.0283  0.4022
12245TIP3    H136657   7.367   7.782   0.662 -0.5499 -0.2145  0.2672
12245TIP3    H236658   7.354   7.747   0.515 -2.2104  1.1409  0.0622
12246TIP3   OH236659   4.736   0.729   4.283 -0.1182  0.1210  0.5730
12246TIP3    H136660   4.689   0.645   4.281 -1.2450  0.7138  0.8808
12246TIP3    H236661   4.772   0.735   4.372  1.3377 -0.7354  0.0674
12247TIP3   OH236662   5.542   7.963   3.953  0.0127 -0.1969 -0.0099
12247TIP3    H136663   5.613   7.960   4.017  1.0582 -0.2101 -1.1298
12247TIP3    H236664   5.475   7.904   3.988  0.1186  0.5643  1.5473
12248TIP3   OH236665   5.193   4.064   2.130  0.0567 -0.5948 -0.2851
12248TIP3    H136666   5.196   4.147   2.177 -1.3897 -0.4504 -0.3847
12248TIP3    H236667   5.158   4.087   2.044 -0.1060 -1.2743 -0.4039
12249TIP3   OH236668   1.170   0.488   0.607  0.1310 -0.1204 -0.1060
12249TIP3    H136669   1.221   0.496   0.526 -0.5477  0.7759 -0.4650
12249TIP3    H236670   1.090   0.538   0.590  0.2003  0.5179  1.3041
12250TIP3   OH236671   8.295   7.108   2.721  0.4495  0.1846  0.7250
12250TIP3    H136672   8.363   7.052   2.760  0.0980 -0.2835  0.6664
12250TIP3    H236673   8.253   7.053   2.656 -2.1769 -0.6793  2.9335
12251TIP3   OH236674   8.074   5.140   2.200 -0.0826 -0.6901  0.2537
12251TIP3    H136675   8.012   5.184   2.258  3.4648  1.8091  2.5653
12251TIP3    H236676   8.146   5.114   2.257  1.8002 -1.9429 -2.4838
12252TIP3   OH236677   0.905   3.901   5.764  0.9667  0.1887  0.3484
12252TIP3    H136678   0.939   3.971   5.708 -0.5993  1.1908  0.5786
12252TIP3    H236679   0.856   3.946   5.832 -1.2756 -1.1234 -0.2785
12253TIP3   OH236680   0.645   5.479   4.524  0.2305  0.1700  0.7912
12253TIP3    H136681   0.569   5.421   4.525 -1.4014  1.8818 -2.7723
12253TIP3    H236682   0.616   5.558   4.570  0.7260 -0.0890  1.5443
12254TIP3   OH236683   1.772   6.423   1.422 -0.2051 -0.4214  0.0317
12254TIP3    H136684   1.779   6.330   1.442 -0.8017 -0.6685 -0.8608
12254TIP3    H236685   1.837   6.437   1.353  1.9589  0.4578  2.1066
12255TIP3   OH236686   6.327   5.927   2.440  0.3035 -0.2958 -0.2047
12255TIP3    H136687   6.272   5.962   2.510 -0.3920  2.1477 -1.8496
12255TIP3    H236688   6.350   5.839   2.469 -3.4639 -1.0150  1.1303
12256TIP3   OH236689   0.813   5.336   6.219  0.2865  0.5609 -0.4350
12256TIP3    H136690   0.763   5.271   6.170  1.9655 -2.7138  1.8275
12256TIP3    H236691   0.765   5.346   6.302  3.0943 -2.8326  1.8859
12257TIP3   OH236692   5.920   2.519   4.016  0.5454  0.5768 -0.5239
12257TIP3    H136693   5.855   2.508   3.946 -0.0824 -0.1979  0.1590
12257TIP3    H236694   5.897   2.602   4.057 -0.1717  0.1865 -0.1301
12258TIP3   OH236695   6.485   4.606   6.529  0.4419 -0.0953  0.9047
12258TIP3    H136696   6.396   4.579   6.506  0.5620 -0.1134  0.4501
12258TIP3    H236697   6.530   4.525   6.553  0.6988 -0.2613 -0.1079
12259TIP3   OH236698   2.312   6.982   5.071  0.6339  0.3604  0.3696
12259TIP3    H136699   2.336   6.890   5.060  0.2282  0.3544 -0.5088
12259TIP3    H236700   2.295   6.990   5.165  2.6487  0.0388  0.8036
12260TIP3   OH236701   5.461   4.999   1.574 -0.3191 -0.4792 -0.1074
12260TIP3    H136702   5.454   4.993   1.479  1.0320  3.4014 -0.6092
12260TIP3    H236703   5.398   5.067   1.599 -1.0152 -1.7693  1.9103
12261TIP3   OH236704   1.061  -0.024   5.836 -0.6157 -0.3240 -0.0668
12261TIP3    H136705   1.115   0.047   5.869  0.2891 -1.3958  0.8590
12261TIP3    H236706   1.003   0.017   5.772 -0.6599  1.3727  1.0058
12262TIP3   OH236707   5.401   4.357   3.564  0.5453  0.0686  0.1065
12262TIP3    H136708   5.442   4.437   3.599 -0.2618  0.7286 -0.4077
12262TIP3    H236709   5.390   4.301   3.641  0.4205  0.7718  0.6145
12263TIP3   OH236710   4.209   4.123   6.676  0.2483 -0.2941  0.4040
12263TIP3    H136711   4.139   4.179   6.711  0.6830  0.3636  0.2270
12263TIP3    H236712   4.209   4.047   6.734 -0.5290 -0.2421  0.4863
12264TIP3   OH236713   0.133   5.396   3.408 -0.0172 -0.3539 -0.1369
12264TIP3    H136714   0.051   5.444   3.419  0.1438  0.1676 -1.1195
12264TIP3    H236715   0.137   5.376   3.314  0.1472 -1.8840  0.1703
12265TIP3   OH236716   4.786   1.304   3.991  0.4443 -0.1583 -0.1308
12265TIP3    H136717   4.771   1.399   3.985  0.2371 -0.0450  1.6385
12265TIP3    H236718   4.708   1.265   3.951 -0.1520  0.4317  0.4248
12266TIP3   OH236719   1.045   7.267   2.490  0.2571 -0.4638  0.0610
12266TIP3    H136720   1.093   7.331   2.438 -0.9462  0.9388  0.5993
12266TIP3    H236721   1.022   7.314   2.571  0.1548 -1.8802  0.8914
12267TIP3   OH236722   6.413   0.386   5.506 -0.4997 -0.0921  0.0220
12267TIP3    H136723   6.505   0.359   5.509  0.2177  2.1917  0.7128
12267TIP3    H236724   6.416   0.480   5.487 -2.6930  0.0280  0.0277
12268TIP3   OH236725   7.910   6.114   0.697 -0.2860  0.4369  0.3125
12268TIP3    H136726   7.928   6.122   0.603 -0.0932 -1.2003  0.1862
12268TIP3    H236727   7.816   6.099   0.702 -0.0248 -1.4353  0.2095
12269TIP3   OH236728   3.376   0.564   3.607  0.1794  0.1412 -0.4534
12269TIP3    H136729   3.432   0.630   3.566 -0.6469  1.7742  0.9484
12269TIP3    H236730   3.423   0.538   3.686 -0.2820  0.2922 -0.1291
12270TIP3   OH236731   6.528   6.327   5.035  0.4410 -0.3608  0.5733
12270TIP3    H136732   6.515   6.307   4.942 -2.2769  4.3748 -0.4197
12270TIP3    H236733   6.446   6.368   5.062  2.2569  1.3725  4.1308
12271TIP3   OH236734   0.832   2.889   0.803 -0.3544 -0.1542 -0.1837
12271TIP3    H136735   0.786   2.806   0.816 -1.8622  0.5688 -0.6844
12271TIP3    H236736   0.769   2.945   0.757  1.2378  0.7072 -1.4310
12272TIP3   OH236737   5.506   7.072   1.468  0.0710  0.3380  0.0103
12272TIP3    H136738   5.441   7.126   1.422  0.3324  0.9528  0.3524
12272TIP3    H236739   5.495   7.093   1.560  0.1040 -0.2837  0.1644
12273TIP3   OH236740   3.830   1.469   4.922  0.2325  0.4024  0.0186
12273TIP3    H136741   3.813   1.392   4.868  0.4637 -1.7124  2.7231
12273TIP3    H236742   3.780   1.453   5.002  1.8203  2.1288  1.4392
12274TIP3   OH236743   6.796   6.142   1.547  0.3286 -0.5235 -0.9025
12274TIP3    H136744   6.852   6.220   1.545 -1.3702  0.7537 -0.8021
12274TIP3    H236745   6.730   6.162   1.614  0.3241 -2.4130 -0.2950
12275TIP3   OH236746   3.335   4.673   6.639  0.1199  0.2581  0.0113
12275TIP3    H136747   3.332   4.769   6.642 -0.8145  0.2429 -0.0108
12275TIP3    H236748   3.259   4.645   6.691  1.4075 -0.5145  1.5511
12276TIP3   OH236749   6.048   7.468   2.849  0.5171  0.4133 -0.3951
12276TIP3    H136750   6.010   7.406   2.913 -1.7786  0.4699 -1.5973
12276TIP3    H236751   6.122   7.507   2.895  1.0257 -1.9797  1.0191
12277TIP3   OH236752   2.738   7.265   0.046  0.5621 -0.1193  0.3496
12277TIP3    H136753   2.800   7.206   0.088  1.2339 -0.5513 -1.1814
12277TIP3    H236754   2.658   7.214   0.037 -0.0086  0.3766  2.1547
12278TIP3   OH236755   3.142   1.948   0.695  0.6231 -0.1208  0.0622
12278TIP3    H136756   3.091   1.892   0.754  1.4801 -1.1864 -0.1858
12278TIP3    H236757   3.159   1.894   0.618  0.7554  0.7721 -0.5546
12279TIP3   OH236758   5.144   1.241   2.462 -0.4783 -0.0143  0.1222
12279TIP3    H136759   5.208   1.225   2.393 -1.0608 -0.8795 -0.2431
12279TIP3    H236760   5.194   1.234   2.543  0.1481  0.6955 -0.1983
12280TIP3   OH236761   3.070   2.331   6.898 -0.0403 -0.6244  0.1830
12280TIP3    H136762   3.043   2.396   6.834 -0.5810  0.3756  1.3827
12280TIP3    H236763   3.009   2.342   6.971  1.0527 -1.1526  1.2221
12281TIP3   OH236764   0.748   5.900   3.388  0.0466  0.0195 -0.6998
12281TIP3    H136765   0.830   5.863   3.355  0.4539  1.0614 -0.9190
12281TIP3    H236766   0.695   5.914   3.310  0.5018  1.2786 -0.8188
12282TIP3   OH236767   7.133   1.880   4.466  0.7147 -0.2934 -0.2092
12282TIP3    H136768   7.085   1.798   4.477 -0.6886  0.6003  0.7621
12282TIP3    H236769   7.090   1.941   4.526  1.1893  1.3807 -1.4766
12283TIP3   OH236770   4.186   3.967   5.582 -0.2119 -0.2479 -0.4267
12283TIP3    H136771   4.136   4.041   5.616 -0.1550 -0.2924 -0.2447
12283TIP3    H236772   4.137   3.890   5.612  0.6436 -0.3276  0.8376
12284TIP3   OH236773   1.722   6.148   1.543  0.5846  0.2521 -1.0550
12284TIP3    H136774   1.742   6.058   1.516  0.2809 -0.0807 -0.2309
12284TIP3    H236775   1.780   6.164   1.617 -0.9360 -0.1098  0.2750
12285TIP3   OH236776   1.935   7.291   6.758 -0.1409  0.4259 -0.0815
12285TIP3    H136777   1.992   7.217   6.779  0.8037  1.0085 -0.4809
12285TIP3    H236778   1.884   7.305   6.838 -0.4665 -0.7568 -0.0613
12286TIP3   OH236779   6.492   6.947   6.492 -0.5070  0.1215  0.3960
12286TIP3    H136780   6.536   7.021   6.533 -0.5748 -0.5860  1.7731
12286TIP3    H236781   6.520   6.950   6.400 -1.0289  2.2261  0.2691
12287TIP3   OH236782   0.154   7.998   1.935 -0.2315 -0.3797 -0.0760
12287TIP3    H136783   0.070   8.023   1.974 -0.8078 -1.8159 -0.3120
12287TIP3    H236784   0.200   7.950   2.004 -0.2268 -0.8233 -0.3783
12288TIP3   OH236785   3.165   6.396   7.029 -0.9072  0.1277  0.1092
12288TIP3    H136786   3.255   6.381   7.003 -0.9053  2.2708 -1.3428
12288TIP3    H236787   3.114   6.333   6.978 -0.4140  0.4538 -0.7930
12289TIP3   OH236788   8.105   0.912   1.959 -1.0291  0.0435 -0.5681
12289TIP3    H136789   8.123   0.872   2.044 -1.5376  1.8655  0.4557
12289TIP3    H236790   8.158   0.992   1.959  0.6752 -0.9724 -2.9209
12290TIP3   OH236791   4.315   7.987   4.309 -0.9090  0.1413 -0.2584
12290TIP3    H136792   4.322   8.042   4.387  1.5275  1.8750 -1.5670
12290TIP3    H236793   4.284   8.046   4.241 -0.8787 -0.7988 -1.1102
12291TIP3   OH236794   2.999   7.124   5.743 -0.2779 -0.0098  0.1389
12291TIP3    H136795   2.930   7.145   5.806 -0.4699 -2.6320  0.9447
12291TIP3    H236796   3.072   7.093   5.797  0.9154  1.0737 -0.7951
12292TIP3   OH236797   2.934   0.298   6.739  0.6032  0.2416  0.3338
12292TIP3    H136798   2.990   0.228   6.773 -0.4856 -0.7366  0.1739
12292TIP3    H236799   2.939   0.287   6.644 -0.1468 -0.1025  0.3271
12293TIP3   OH236800   5.920   6.744   4.636  0.2484  0.3956  0.2680
12293TIP3    H136801   5.931   6.666   4.582  0.5928  0.5103  0.1700
12293TIP3    H236802   5.837   6.782   4.606  0.5874  0.6255 -0.3973
12294TIP3   OH236803   6.264   0.977   0.081 -0.3046  0.2655 -0.1460
12294TIP3    H136804   6.244   0.883   0.077 -1.5645  0.4342  1.4016
12294TIP3    H236805   6.321   0.992   0.006 -1.5408 -1.3872 -1.5032
12295TIP3   OH236806   6.277   0.903   0.952  0.2022  0.0823  0.1740
12295TIP3    H136807   6.337   0.930   1.021 -0.6601  0.2830  0.8574
12295TIP3    H236808   6.318   0.826   0.913  1.2565  0.6491  0.1342
12296TIP3   OH236809   8.101   7.132   4.494  0.0650  0.0602  0.1869
12296TIP3    H136810   8.117   7.086   4.412  1.6859 -2.8797  1.9392
12296TIP3    H236811   8.141   7.218   4.482  2.5531 -1.1819 -1.3102
12297TIP3   OH236812   7.436   7.402   1.735  0.0289  0.2328  0.1898
12297TIP3    H136813   7.471   7.372   1.819 -0.6698 -0.0929  0.3677
12297TIP3    H236814   7.477   7.344   1.670  1.2299  1.0232  0.2015
12298TIP3   OH236815   2.057   0.817   4.075  0.2108 -0.2203  0.3582
12298TIP3    H136816   1.985   0.776   4.123 -0.6374  1.3358  0.4645
12298TIP3    H236817   2.134   0.803   4.131 -0.2813 -0.6416  0.9404
12299TIP3   OH236818   4.462   7.223   2.116 -0.1978  0.4937  0.2910
12299TIP3    H136819   4.409   7.183   2.047  1.3935  1.7406 -1.7724
12299TIP3    H236820   4.541   7.169   2.120  0.0084  0.8168  0.6663
12300TIP3   OH236821   2.318   7.761   5.222  0.0745 -0.2203 -0.1483
12300TIP3    H136822   2.248   7.753   5.157 -0.8422 -0.5767  0.8338
12300TIP3    H236823   2.367   7.678   5.215  1.4071  0.6617 -1.9063
12301TIP3   OH236824   7.031   6.565   1.295 -0.2861  0.5047  0.4351
12301TIP3    H136825   6.999   6.497   1.355 -0.4319  0.4285  0.2702
12301TIP3    H236826   6.952   6.601   1.255 -0.1080 -1.3094 -1.7776
12302TIP3   OH236827   6.726   7.995   1.736  0.0049  0.0841  0.1982
12302TIP3    H136828   6.662   8.066   1.730 -0.2199 -0.0109  1.2883
12302TIP3    H236829   6.766   7.992   1.649 -1.8814 -0.2653 -0.7033
12303TIP3   OH236830   7.871   4.769   4.418 -0.1138 -0.0581 -0.0555
12303TIP3    H136831   7.959   4.807   4.427  0.3751 -1.0154 -0.6865
12303TIP3    H236832   7.872   4.692   4.474 -0.3475 -0.4120 -0.5342
12304TIP3   OH236833   7.338   5.559   3.412  0.4152  0.1117  0.3401
12304TIP3    H136834   7.421   5.512   3.423  1.4043  1.5299 -0.6690
12304TIP3    H236835   7.349   5.607   3.330 -2.2113 -1.2310 -0.9191
12305TIP3   OH236836   1.038   4.114   5.618 -0.5532  0.0132 -0.0073
12305TIP3    H136837   1.053   4.205   5.645 -0.4982  0.6384 -1.9755
12305TIP3    H236838   1.057   4.114   5.524 -5.3000 -0.8676 -1.2190
12306TIP3   OH236839   3.673   6.152   0.695 -0.1234 -0.5450  0.2576
12306TIP3    H136840   3.751   6.204   0.715  0.8875 -1.4856 -1.0555
12306TIP3    H236841   3.677   6.140   0.600 -1.3845 -1.3830  0.2979
12307TIP3   OH236842   8.475   8.124   3.602  0.1207 -0.4510 -0.2977
12307TIP3    H136843   8.524   8.173   3.668 -1.3502  0.1329  0.4020
12307TIP3    H236844   8.499   8.033   3.618  2.2680 -0.0786 -1.0962
12308TIP3   OH236845   0.528   1.263   6.892  0.5987 -0.0153  0.2212
12308TIP3    H136846   0.552   1.212   6.970  0.4752 -0.5455 -0.0845
12308TIP3    H236847   0.449   1.220   6.859  0.3726  0.5067  0.0785
12309TIP3   OH236848   0.017   3.609   3.041  0.1066  0.4225  0.1431
12309TIP3    H136849   0.061   3.612   2.956  0.3552  0.1836  0.2595
12309TIP3    H236850  -0.076   3.620   3.021 -0.0063 -1.0941 -0.3122
12310TIP3   OH236851   2.001   1.799   5.305 -0.1007  0.0022 -0.0186
12310TIP3    H136852   1.933   1.775   5.241 -0.9150 -1.0180  1.1689
12310TIP3    H236853   2.038   1.715   5.333 -0.9174  0.2554  2.0299
12311TIP3   OH236854   5.923   3.226   5.728  0.4205 -0.3932  0.4104
12311TIP3    H136855   5.889   3.202   5.642 -0.6606  0.1364  0.6697
12311TIP3    H236856   5.932   3.143   5.775  0.6215 -0.6440 -0.0725
12312TIP3   OH236857   5.752   5.692   5.284 -0.1599 -0.3027 -0.3754
12312TIP3    H136858   5.774   5.767   5.339  1.4847 -1.1107  0.1385
12312TIP3    H236859   5.658   5.680   5.295 -0.1440  0.6000  0.9142
12313TIP3   OH236860   5.778   0.874   0.275  0.1289 -0.4701  0.1593
12313TIP3    H136861   5.697   0.840   0.313  0.1826 -0.9091 -0.1176
12313TIP3    H236862   5.814   0.931   0.343 -1.6826  1.7890 -0.6514
12314TIP3   OH236863   5.569   0.037   4.626  0.3791 -0.0549  0.2922
12314TIP3    H136864   5.599  -0.047   4.659  0.9468 -0.6831 -1.7275
12314TIP3    H236865   5.645   0.095   4.635  1.2364 -0.7774 -1.7474
12315TIP3   OH236866   6.512   7.701   1.813 -0.4946 -0.2069  0.8473
12315TIP3    H136867   6.551   7.690   1.726  0.0335 -0.4391  1.1096
12315TIP3    H236868   6.520   7.794   1.831  0.7313 -0.3784  1.2581
12316TIP3   OH236869   0.145   6.534   3.641 -0.1703  0.6539  0.3399
12316TIP3    H136870   0.189   6.465   3.691 -1.2531  0.0177  0.4387
12316TIP3    H236871   0.187   6.615   3.671 -0.7212  0.2836  2.2486
12317TIP3   OH236872   1.273   1.178   5.409  0.2427 -0.0388  0.5502
12317TIP3    H136873   1.359   1.167   5.450  0.1755 -0.1124  0.6710
12317TIP3    H236874   1.245   1.090   5.385  0.2906  0.0070  0.3278
12318TIP3   OH236875   1.932   4.926   0.697  0.2289 -0.7368  0.2236
12318TIP3    H136876   1.901   5.009   0.662  0.4752 -0.7394 -0.0057
12318TIP3    H236877   1.858   4.866   0.686 -0.9690  0.1043  2.8899
12319TIP3   OH236878   2.761   1.765   6.818  0.5979  0.1779  0.1095
12319TIP3    H136879   2.737   1.816   6.740  0.4171 -0.3498 -0.1840
12319TIP3    H236880   2.857   1.769   6.821  0.7969 -1.6581 -1.4480
12320TIP3   OH236881   0.048   0.833   1.423 -0.4196  0.1390 -0.2334
12320TIP3    H136882   0.061   0.739   1.414  0.8728  0.0483  1.8315
12320TIP3    H236883   0.137   0.869   1.422 -0.7141  1.0228  1.4481
12321TIP3   OH236884   6.448   0.896   2.657 -0.1768  0.4339 -0.1064
12321TIP3    H136885   6.538   0.864   2.666  0.5823  2.4026 -0.3046
12321TIP3    H236886   6.436   0.953   2.732 -1.4351 -0.1134  0.1328
12322TIP3   OH236887   5.672   2.308   4.610  0.4320 -0.4472  0.1490
12322TIP3    H136888   5.744   2.365   4.636  0.1605 -0.6721  1.4646
12322TIP3    H236889   5.663   2.321   4.516  0.2464  1.8345  0.4273
12323TIP3   OH236890   7.517   5.876   4.286 -0.1139 -0.3187 -0.0956
12323TIP3    H136891   7.513   5.850   4.379 -0.5674 -0.6869 -0.2110
12323TIP3    H236892   7.505   5.971   4.287 -0.2099 -0.3319  0.2195
12324TIP3   OH236893   1.643   1.036   6.798  0.0134 -0.0947 -0.3308
12324TIP3    H136894   1.662   1.078   6.715  1.0822  1.3985  0.6081
12324TIP3    H236895   1.728   1.001   6.828  0.2957  1.8786  1.3988
12325TIP3   OH236896   7.761   0.517   6.440  0.2715  0.3267  0.4270
12325TIP3    H136897   7.688   0.560   6.396  0.0536  0.2739  0.7424
12325TIP3    H236898   7.812   0.589   6.478  0.4567  0.3722  0.0960
12326TIP3   OH236899   6.830   2.969   4.454  0.8275  0.2937 -0.3711
12326TIP3    H136900   6.814   2.983   4.361 -0.0533  0.6106 -0.1812
12326TIP3    H236901   6.774   3.033   4.498  0.4712 -0.5347  0.4049
12327TIP3   OH236902   2.317   2.890   6.212 -0.1385  0.2639 -0.2436
12327TIP3    H136903   2.299   2.915   6.122  2.0508 -0.1411 -0.8484
12327TIP3    H236904   2.348   2.971   6.253 -3.0799  0.9620  0.7846
12328TIP3   OH236905   2.860   6.903   6.779  0.0998 -0.7668  0.6629
12328TIP3    H136906   2.828   6.896   6.869 -1.3714 -0.0712  0.2287
12328TIP3    H236907   2.846   6.815   6.742 -2.7339 -0.1705  0.0879
12329TIP3   OH236908   4.777   7.347   3.266 -0.6325  0.1877  0.2624
12329TIP3    H136909   4.730   7.395   3.197 -1.9244  2.0374  2.2696
12329TIP3    H236910   4.728   7.265   3.276 -0.2597 -0.2261 -1.1690
12330TIP3   OH236911   6.692   0.137   4.109  0.3193  0.9127  0.1790
12330TIP3    H136912   6.741   0.131   4.027  0.2697  0.6665  0.1659
12330TIP3    H236913   6.603   0.162   4.082 -0.3617 -1.5256 -0.0878
12331TIP3   OH236914   7.352   4.496   0.836  0.2676  0.7414  0.1640
12331TIP3    H136915   7.358   4.419   0.892  1.2007  0.4914 -0.2559
12331TIP3    H236916   7.420   4.554   0.868  1.2107  0.3534 -1.0457
12332TIP3   OH236917   7.910   7.722   6.914 -0.2586  0.2395 -0.4548
12332TIP3    H136918   7.912   7.666   6.991 -0.3341  0.9341  0.0633
12332TIP3    H236919   7.939   7.666   6.842  1.7073  0.0924  0.3892
12333TIP3   OH236920   4.901   7.928   3.291  0.1735  0.5698 -0.6035
12333TIP3    H136921   4.957   7.882   3.354 -1.3162  0.2790  0.5636
12333TIP3    H236922   4.886   8.014   3.331 -1.7358 -0.0279  0.0591
12334TIP3   OH236923   6.474   2.805   6.728  0.1118 -0.0575  0.1303
12334TIP3    H136924   6.515   2.719   6.718  0.6228  0.2648 -0.6003
12334TIP3    H236925   6.523   2.847   6.798 -0.6932 -0.6744  1.0967
12335TIP3   OH236926   8.344   6.384   0.448 -0.2279  0.1755  0.0012
12335TIP3    H136927   8.363   6.397   0.355 -2.3045  1.3412 -0.3096
12335TIP3    H236928   8.400   6.447   0.493  1.1131 -0.6932 -0.3702
12336TIP3   OH236929   0.711   0.359   4.776 -0.0091 -0.7134 -1.1768
12336TIP3    H136930   0.803   0.359   4.805  0.1238 -0.9351 -1.5918
12336TIP3    H236931   0.711   0.305   4.697 -0.3048  0.1509 -1.7866
12337TIP3   OH236932   0.306   3.012   2.374  0.3251 -0.0630 -0.2551
12337TIP3    H136933   0.384   2.967   2.341  0.2423  0.4600 -1.2010
12337TIP3    H236934   0.271   2.952   2.440  1.1254 -0.6312 -0.3168
12338TIP3   OH236935   1.244   0.490   6.662 -0.4517  0.0472 -0.6690
12338TIP3    H136936   1.273   0.566   6.713  2.7621 -0.4730 -1.5203
12338TIP3    H236937   1.278   0.506   6.574 -0.0532 -2.1573 -0.9685
12339TIP3   OH236938   5.968   5.232   3.988 -0.3977 -0.0080  0.2214
12339TIP3    H136939   6.040   5.290   3.964 -1.7778  1.0805 -1.5666
12339TIP3    H236940   6.000   5.183   4.064  2.9990 -1.0571 -1.6741
12340TIP3   OH236941   0.693   1.274   5.382  0.5320 -0.9839  0.5222
12340TIP3    H136942   0.624   1.286   5.447 -0.3055 -1.7041 -0.2138
12340TIP3    H236943   0.739   1.358   5.379 -2.9366  1.0738 -2.0027
12341TIP3   OH236944   7.323   1.724   0.668 -0.5469 -0.1660 -0.1201
12341TIP3    H136945   7.236   1.714   0.705 -0.2304 -2.0096  0.2781
12341TIP3    H236946   7.369   1.782   0.729 -1.6414  1.3528 -0.6826
12342TIP3   OH236947   5.525   2.284   5.531  0.2508  0.2363 -0.0234
12342TIP3    H136948   5.587   2.354   5.509 -1.1775  1.8110  0.7098
12342TIP3    H236949   5.460   2.288   5.461  0.2713 -0.5383 -0.0926
12343TIP3   OH236950   7.894   2.817   0.479  0.2652 -0.4083 -0.1382
12343TIP3    H136951   7.954   2.743   0.474 -0.0271 -0.5845 -1.6358
12343TIP3    H236952   7.842   2.802   0.558  1.2756 -0.9561  0.4307
12344TIP3   OH236953   0.341   3.124   4.169 -0.1651 -0.4508 -0.2332
12344TIP3    H136954   0.248   3.117   4.193 -0.7025  1.0427 -1.6976
12344TIP3    H236955   0.350   3.068   4.092  0.1064 -0.4592 -0.1946
12345TIP3   OH236956   4.180   5.062   4.597 -0.0056  0.4370 -0.0442
12345TIP3    H136957   4.260   5.115   4.600 -0.7102  1.5450 -0.3375
12345TIP3    H236958   4.156   5.060   4.504  1.2258 -2.3265 -0.4047
12346TIP3   OH236959   1.103   3.539   2.858 -0.2670 -0.1880 -0.1598
12346TIP3    H136960   1.118   3.537   2.952 -0.0687  2.4003 -0.0657
12346TIP3    H236961   1.176   3.591   2.823 -0.1316 -1.4084 -1.7996
12347TIP3   OH236962   5.690   4.974   4.276 -0.7737 -0.9275  0.5886
12347TIP3    H136963   5.712   5.065   4.260 -2.0509 -0.8104 -0.6859
12347TIP3    H236964   5.714   4.959   4.368 -1.9503  1.1152  1.2799
12348TIP3   OH236965   5.378   2.044   5.828  0.6868 -0.1610 -0.2308
12348TIP3    H136966   5.346   1.956   5.848 -0.2058  0.3503  0.7149
12348TIP3    H236967   5.457   2.030   5.777 -0.3567 -1.5024 -1.5722
12349TIP3   OH236968   5.719   6.632   1.385 -0.3580  0.3049 -0.0207
12349TIP3    H136969   5.780   6.627   1.313  0.4377 -1.1070  0.7188
12349TIP3    H236970   5.705   6.726   1.398  3.2015  0.8390  1.0452
12350TIP3   OH236971   1.331   4.687   1.954 -0.1663  0.3713  0.2938
12350TIP3    H136972   1.314   4.593   1.951  0.7104  0.2202 -0.2559
12350TIP3    H236973   1.424   4.694   1.977  0.1833  1.0624 -1.2382
12351TIP3   OH236974   7.385   6.855   2.865 -0.0729 -0.4770  0.1893
12351TIP3    H136975   7.373   6.807   2.947 -1.0494 -1.7113 -0.6452
12351TIP3    H236976   7.334   6.936   2.877  1.6890  0.4950  1.6523
12352TIP3   OH236977   1.247   5.580   2.572  0.1411 -0.6910 -0.0214
12352TIP3    H136978   1.302   5.517   2.618 -0.5223 -1.4024 -0.1724
12352TIP3    H236979   1.157   5.551   2.592 -0.1729  0.2767  0.0034
12353TIP3   OH236980   6.504   8.158   2.144 -0.6598 -0.5890  0.1646
12353TIP3    H136981   6.480   8.218   2.215 -0.0247  1.2133 -1.0736
12353TIP3    H236982   6.430   8.164   2.083  0.3477  0.7010 -1.0070
12354TIP3   OH236983   7.722   3.595   2.841  0.3937 -0.3749 -0.0089
12354TIP3    H136984   7.664   3.534   2.796  1.9128 -0.1220 -2.5065
12354TIP3    H236985   7.698   3.681   2.806  1.7417 -0.1952 -0.5703
12355TIP3   OH236986   3.654   0.180   5.860 -0.0531  1.0230 -0.0776
12355TIP3    H136987   3.666   0.086   5.876 -1.5864  0.8163 -0.0010
12355TIP3    H236988   3.680   0.193   5.769 -0.0831  0.4773 -0.1644
12356TIP3   OH236989   5.772   1.049   6.911  0.2197  0.4616  0.4806
12356TIP3    H136990   5.710   1.072   6.981  0.5139  1.8164  0.3192
12356TIP3    H236991   5.781   1.130   6.860  0.2107 -0.4334 -0.9795
12357TIP3   OH236992   7.952   0.767   6.943 -0.1250 -0.5415  0.3537
12357TIP3    H136993   7.999   0.740   6.864 -0.1525  0.7683 -0.1504
12357TIP3    H236994   7.916   0.853   6.920  0.8243  0.3872  2.1663
12358TIP3   OH236995   8.384   4.569   5.298 -0.5547  0.5597  0.3378
12358TIP3    H136996   8.412   4.530   5.215  1.0799 -0.0053  1.1188
12358TIP3    H236997   8.369   4.661   5.278  0.7931  0.6400 -0.3779
12359TIP3   OH236998   2.085   1.191   4.610 -0.1901  0.7479  0.0334
12359TIP3    H136999   2.120   1.129   4.675 -0.5281 -0.1095 -0.5873
12359TIP3    H237000   2.006   1.226   4.651  0.2318  1.1080  0.5656
12360TIP3   OH237001   0.853   5.215   0.402 -0.1418 -0.3249  0.3561
12360TIP3    H137002   0.924   5.151   0.404 -1.8188 -2.2750  2.5088
12360TIP3    H237003   0.775   5.164   0.380 -1.4939  1.0098  1.8560
12361TIP3   OH237004   1.095   5.100   4.646 -0.6175  0.4469  0.0217
12361TIP3    H137005   1.041   5.180   4.650 -2.3838 -0.6751 -0.0412
12361TIP3    H237006   1.122   5.085   4.736 -4.6586 -1.6090  1.1648
12362TIP3   OH237007   2.506   1.217   1.929  0.2378 -0.4458 -0.4738
12362TIP3    H137008   2.580   1.175   1.972 -0.9159 -1.4074  0.6505
12362TIP3    H237009   2.482   1.289   1.986  0.3931 -0.0359 -0.9172
12363TIP3   OH237010   3.290   1.822   2.003 -0.3735  0.0618 -0.0592
12363TIP3    H137011   3.215   1.775   2.038 -1.3709  0.7872 -1.1586
12363TIP3    H237012   3.307   1.892   2.065 -0.8624  0.1384 -0.0145
12364TIP3   OH237013   4.599   6.677   4.098 -0.1619 -0.5453  0.0534
12364TIP3    H137014   4.523   6.634   4.139 -0.1735 -0.1976  0.4110
12364TIP3    H237015   4.584   6.669   4.004 -0.8231 -0.1728  0.1218
12365TIP3   OH237016   4.349   0.868   3.170 -0.1856  0.3348 -0.0598
12365TIP3    H137017   4.370   0.856   3.263  0.3520 -0.2614 -0.2519
12365TIP3    H237018   4.337   0.962   3.160 -2.2215  0.2472  1.0269
12366TIP3   OH237019   6.657   1.375   2.747 -0.0135  0.0945  0.1534
12366TIP3    H137020   6.618   1.391   2.833  2.8548 -0.1484  1.5853
12366TIP3    H237021   6.646   1.281   2.733 -0.3738  0.1116  0.3025
12367TIP3   OH237022   4.217   5.158   1.208 -0.3471  0.1019 -0.9805
12367TIP3    H137023   4.236   5.218   1.280  0.0861  0.9589 -1.7770
12367TIP3    H237024   4.130   5.124   1.226 -0.3500  0.5157 -0.1982
12368TIP3   OH237025   7.449   5.959   3.108  0.3287 -0.2104  0.0390
12368TIP3    H137026   7.398   5.923   3.036 -0.2266  1.0420 -0.2256
12368TIP3    H237027   7.400   5.936   3.186 -0.1071  0.0796 -0.1401
12369TIP3   OH237028   6.330   4.833   1.519 -0.3401 -0.3826  0.6316
12369TIP3    H137029   6.259   4.804   1.576 -1.1893  0.2044 -0.1065
12369TIP3    H237030   6.307   4.799   1.433  0.5297 -0.5950  0.4748
12370TIP3   OH237031   3.393   1.057   0.481 -0.0897 -0.2243 -0.4550
12370TIP3    H137032   3.401   0.999   0.556 -0.4905  1.0205  0.5997
12370TIP3    H237033   3.394   1.145   0.519  1.3181  0.5104 -2.0550
12371TIP3   OH237034   7.685   2.277   5.753  0.2462  0.5916 -0.2029
12371TIP3    H137035   7.605   2.233   5.724  0.7488 -0.5855  0.1665
12371TIP3    H237036   7.739   2.282   5.674  0.0622  0.8435 -0.3162
12372TIP3   OH237037   2.249   3.117   4.822  0.0762 -0.8213  1.2909
12372TIP3    H137038   2.277   3.103   4.913  1.1754 -1.1039  0.9217
12372TIP3    H237039   2.299   3.052   4.772 -0.2629 -0.4310  0.4390
12373TIP3   OH237040   2.285   5.069   5.288 -0.2342 -0.2647  0.6940
12373TIP3    H137041   2.226   5.144   5.289 -1.5821 -1.1948 -1.0531
12373TIP3    H237042   2.249   5.009   5.353 -2.1612 -1.3917 -1.2576
12374TIP3   OH237043   4.430   4.720   3.612  0.0296 -0.6255 -0.2007
12374TIP3    H137044   4.432   4.626   3.629 -1.4872 -0.3936  1.6552
12374TIP3    H237045   4.519   4.749   3.632  0.3625 -1.5857 -0.2288
12375TIP3   OH237046   7.652   6.657   0.900 -0.8097 -0.8311 -0.0307
12375TIP3    H137047   7.672   6.656   0.806 -1.7181  0.7670 -0.2886
12375TIP3    H237048   7.729   6.619   0.942 -0.3133 -1.4072 -1.4178
12376TIP3   OH237049   5.015   0.794   2.526 -0.5522  0.0571  0.2492
12376TIP3    H137050   5.032   0.703   2.500 -0.9445  0.0061  0.1690
12376TIP3    H237051   4.999   0.840   2.444  0.2667  0.3325  0.2412
12377TIP3   OH237052   5.642   4.042   7.007  0.8965  0.2060  0.4178
12377TIP3    H137053   5.680   4.125   6.979  0.3790 -0.3259 -2.1019
12377TIP3    H237054   5.716   3.993   7.045  1.2102  1.7320  1.8831
12378TIP3   OH237055   6.338   4.984   6.456  0.5753  0.3666  0.1401
12378TIP3    H137056   6.360   4.928   6.382 -0.5852  2.3449 -1.8374
12378TIP3    H237057   6.246   5.007   6.442  0.8856  2.3974  1.0707
12379TIP3   OH237058   2.484   3.595   2.041  0.0197  0.5412 -0.0421
12379TIP3    H137059   2.489   3.529   2.110 -1.7505  1.7396  1.3305
12379TIP3    H237060   2.575   3.623   2.029  0.5320 -0.6596  0.8447
12380TIP3   OH237061   0.408   1.755   1.994 -0.0629  0.0722  0.5872
12380TIP3    H137062   0.320   1.778   2.023 -0.5328 -1.6405  0.6325
12380TIP3    H237063   0.465   1.816   2.041 -1.1182  0.1973  1.7623
12381TIP3   OH237064   3.163   2.081   4.708 -0.2420  0.5556 -0.1955
12381TIP3    H137065   3.221   2.152   4.738 -0.8753  0.7529  0.6083
12381TIP3    H237066   3.076   2.109   4.735 -0.6779  0.1017 -1.0948
12382TIP3   OH237067   8.044   3.298   4.376 -0.1883 -0.3260  0.1920
12382TIP3    H137068   7.959   3.339   4.367  0.6850  2.1812  2.2196
12382TIP3    H237069   8.032   3.232   4.444 -0.5502 -0.1003  0.3481
12383TIP3   OH237070   7.626   0.592   6.116  0.0967  0.0383  0.0087
12383TIP3    H137071   7.577   0.673   6.107 -0.8194 -0.6014 -0.9860
12383TIP3    H237072   7.662   0.575   6.029 -0.2511 -0.9312  0.0352
12384TIP3   OH237073   7.529   6.947   5.053 -0.0487  0.2327  0.0557
12384TIP3    H137074   7.496   6.954   5.143 -1.2947  0.5915 -0.4081
12384TIP3    H237075   7.597   6.880   5.058  0.1883  0.5443  1.3452
12385TIP3   OH237076   1.066   5.846   6.210  0.5564 -0.8242 -0.0565
12385TIP3    H137077   0.978   5.873   6.239  0.7548  0.4573 -0.5731
12385TIP3    H237078   1.056   5.832   6.115  0.8208 -1.0909 -0.0449
12386TIP3   OH237079   2.183   7.711   5.729 -0.2517  0.0215  0.1363
12386TIP3    H137080   2.192   7.628   5.776 -2.3375  0.0576  0.7033
12386TIP3    H237081   2.243   7.770   5.774  0.0307 -0.7453  0.7936
12387TIP3   OH237082   3.254   7.538   5.857 -0.0017 -0.1678 -0.2373
12387TIP3    H137083   3.274   7.459   5.807 -0.1650 -0.7451  0.5857
12387TIP3    H237084   3.263   7.609   5.794 -1.1850 -0.9525 -1.3324
12388TIP3   OH237085   1.403   2.576   2.891 -0.5861  0.3630  0.4881
12388TIP3    H137086   1.443   2.493   2.863  1.5922  1.1419  1.1185
12388TIP3    H237087   1.419   2.580   2.985 -0.4929  1.5786  0.4387
12389TIP3   OH237088   8.638   5.055   1.960 -0.6548  0.2738 -0.1937
12389TIP3    H137089   8.669   4.992   1.894 -1.2168 -0.3094  0.0957
12389TIP3    H237090   8.569   5.009   2.007 -0.0466  0.5697  1.0285
12390TIP3   OH237091   8.227   5.467   6.166 -0.4609  0.4235 -0.1377
12390TIP3    H137092   8.267   5.547   6.132  1.3061 -0.3334  0.0760
12390TIP3    H237093   8.182   5.496   6.246 -1.4349  1.5136 -1.0426
12391TIP3   OH237094   6.192   7.067   2.560 -0.3258 -0.3609 -0.0263
12391TIP3    H137095   6.266   7.016   2.594 -0.0256  0.8186  1.2084
12391TIP3    H237096   6.121   7.003   2.549 -0.5567 -0.8666  3.2375
12392TIP3   OH237097   5.502   2.036   2.760 -0.1626  0.2604  0.2269
12392TIP3    H137098   5.428   2.092   2.784  0.9114  1.3094  1.2253
12392TIP3    H237099   5.579   2.086   2.786  0.8820 -1.1712 -0.0039
12393TIP3   OH237100   3.912   2.506   2.082  0.4771 -0.1585 -0.0214
12393TIP3    H137101   3.878   2.498   2.170  1.2417 -0.6567  0.2436
12393TIP3    H237102   3.944   2.418   2.060  3.2743  0.6092  0.4981
12394TIP3   OH237103   0.243   0.386   1.805  0.1691 -0.5666  0.0296
12394TIP3    H137104   0.237   0.427   1.891  2.2440  0.1001 -0.0811
12394TIP3    H237105   0.322   0.332   1.810  0.8943  0.2566 -1.7424
12395TIP3   OH237106   5.777   4.577   3.834  0.1583 -0.0776 -0.1334
12395TIP3    H137107   5.866   4.610   3.849  0.9957 -1.2782 -1.9738
12395TIP3    H237108   5.784   4.483   3.851 -0.8381 -0.1267  0.0103
12396TIP3   OH237109   8.064   7.230   1.599 -0.5399 -0.0402  0.0220
12396TIP3    H137110   8.016   7.155   1.634 -0.2856 -0.1402  0.1606
12396TIP3    H237111   8.004   7.304   1.609 -1.6918 -0.5964 -2.1782
12397TIP3   OH237112   4.557   5.694   2.832 -0.4488  0.3232  0.3269
12397TIP3    H137113   4.500   5.631   2.787  0.3490 -0.0298 -0.2064
12397TIP3    H237114   4.617   5.639   2.884 -0.6105  0.6935  0.9154
12398TIP3   OH237115   1.026   1.157   1.848 -0.1311 -0.4844 -0.0383
12398TIP3    H137116   1.055   1.074   1.885 -1.8219 -1.0772  0.0446
12398TIP3    H237117   1.070   1.162   1.763  0.6632 -1.0306  0.3287
12399TIP3   OH237118   4.305   5.835   1.967 -0.2257  0.1505 -0.5719
12399TIP3    H137119   4.305   5.930   1.955 -0.7831  0.1006 -1.0275
12399TIP3    H237120   4.329   5.801   1.881  0.3681 -0.1191 -0.3062
12400TIP3   OH237121   0.061   4.382   4.221 -0.0783  0.2838  0.5173
12400TIP3    H137122   0.146   4.357   4.186  0.8102  0.8632  2.1640
12400TIP3    H237123   0.072   4.474   4.247 -1.0562  0.2220  1.1936
12401TIP3   OH237124   1.110   1.246   5.649 -0.5381 -0.3798  0.1051
12401TIP3    H137125   1.127   1.154   5.666 -2.1684 -0.6924  0.1699
12401TIP3    H237126   1.076   1.280   5.731  0.5596  0.4345  0.2471
12402TIP3   OH237127   5.369   3.378   5.309 -0.0358 -0.0145 -0.0679
12402TIP3    H137128   5.451   3.337   5.281 -1.1198 -1.5928 -1.1831
12402TIP3    H237129   5.363   3.458   5.257  1.1132  0.4900  0.5520
12403TIP3   OH237130   8.053   4.525   6.289 -0.0379 -0.4385  0.1369
12403TIP3    H137131   8.047   4.447   6.344 -2.7218 -1.3251 -1.2667
12403TIP3    H237132   8.099   4.495   6.210  0.1360 -0.2242  0.1544
12404TIP3   OH237133   3.539   7.455   5.868 -0.0115 -0.5085 -0.1114
12404TIP3    H137134   3.515   7.547   5.878 -1.6345 -0.9034 -0.0919
12404TIP3    H237135   3.620   7.456   5.818 -0.1872  0.9143 -0.3986
12405TIP3   OH237136   7.687   4.485   2.490 -0.1906  0.5197  0.3369
12405TIP3    H137137   7.621   4.554   2.481 -1.5360 -0.8831 -1.3053
12405TIP3    H237138   7.651   4.411   2.441  1.9145 -0.8369  0.7091
12406TIP3   OH237139   8.552   0.101   2.023 -0.2280  0.0327 -0.1563
12406TIP3    H137140   8.647   0.101   2.011  0.2098 -0.6939  2.4836
12406TIP3    H237141   8.536   0.174   2.084 -0.8778 -1.7587  1.9303
12407TIP3   OH237142   3.498   4.702   4.491 -0.3608 -0.3651 -0.0176
12407TIP3    H137143   3.531   4.791   4.495 -2.3029  0.3739  1.2539
12407TIP3    H237144   3.478   4.688   4.399 -0.2809  0.6324 -0.1963
12408TIP3   OH237145   8.561   4.386   2.831 -0.4798 -0.2672  0.0545
12408TIP3    H137146   8.562   4.452   2.900  2.9309  0.7078 -0.7260
12408TIP3    H237147   8.577   4.303   2.876 -2.3791 -0.2617  0.7966
12409TIP3   OH237148   7.935   7.381   2.682 -0.2947 -0.2867 -0.4287
12409TIP3    H137149   7.957   7.451   2.744 -0.8264 -1.4373  1.1302
12409TIP3    H237150   7.839   7.378   2.684 -0.2669 -2.2869  1.0427
12410TIP3   OH237151   8.176   7.390   3.319  0.5368  0.4789 -0.3283
12410TIP3    H137152   8.206   7.402   3.409  0.9043 -0.1946 -0.3522
12410TIP3    H237153   8.153   7.297   3.314 -1.4253  0.9166 -0.3588
12411TIP3   OH237154   1.386   3.103   3.887 -0.2049 -0.3016  0.0652
12411TIP3    H137155   1.414   3.077   3.799 -1.1369  0.0864 -0.3595
12411TIP3    H237156   1.465   3.095   3.941  0.5738  0.1992 -0.9684
12412TIP3   OH237157   3.518   7.740   3.651  0.5097  0.0237 -0.0147
12412TIP3    H137158   3.527   7.654   3.609  1.1065  0.2098 -0.2840
12412TIP3    H237159   3.564   7.800   3.592 -2.2139  1.0284 -1.2673
12413TIP3   OH237160   0.770   0.063   5.403  0.6077  0.2977 -0.3425
12413TIP3    H137161   0.850   0.028   5.362  0.2618  0.6196 -1.3359
12413TIP3    H237162   0.746   0.137   5.348 -0.4462  0.1257 -0.1258
12414TIP3   OH237163   0.374   3.979   4.325 -0.0548 -0.1983 -0.5025
12414TIP3    H137164   0.447   4.036   4.349 -0.7101  0.3435  0.2790
12414TIP3    H237165   0.313   4.036   4.279 -0.6734 -0.2771  0.2023
12415TIP3   OH237166   7.262   3.130   0.125 -0.1686 -0.1503 -0.7516
12415TIP3    H137167   7.225   3.044   0.108 -0.7276 -0.1538  0.3606
12415TIP3    H237168   7.355   3.122   0.102 -0.4673 -0.6692 -1.8443
12416TIP3   OH237169   8.281   6.263   6.588 -0.7156 -0.7359  0.3511
12416TIP3    H137170   8.297   6.357   6.584 -0.0561 -0.8598  0.0292
12416TIP3    H237171   8.187   6.256   6.607 -1.6271  0.0080 -3.0682
12417TIP3   OH237172   0.238   0.716   3.431  0.1391  0.2785  0.0503
12417TIP3    H137173   0.188   0.731   3.511  0.3623  0.4592  0.1578
12417TIP3    H237174   0.240   0.621   3.422  1.0086  0.2114  0.8381
12418TIP3   OH237175   4.972   3.473   3.038  0.2848 -0.0676 -0.4310
12418TIP3    H137176   4.983   3.538   2.969  1.1932 -0.5915 -0.7961
12418TIP3    H237177   5.060   3.460   3.074 -0.3321  1.0191  1.6179
12419TIP3   OH237178   1.231   0.112   6.804 -0.0014  0.3172 -0.2082
12419TIP3    H137179   1.229   0.205   6.826 -0.3717  0.5584 -1.2173
12419TIP3    H237180   1.240   0.110   6.708  0.3659 -0.6841 -0.1682
12420TIP3   OH237181   5.810   0.667   1.536 -0.7368 -0.5415 -0.4186
12420TIP3    H137182   5.864   0.691   1.460  0.1624 -2.2571 -0.3660
12420TIP3    H237183   5.858   0.596   1.578 -1.9261 -0.5591  0.9713
12421TIP3   OH237184   1.613   1.078   2.048  0.2435 -0.4948 -0.2302
12421TIP3    H137185   1.573   1.051   2.130  1.4507  0.1429  0.5921
12421TIP3    H237186   1.649   0.997   2.011 -1.7356 -1.0815 -0.9908
12422TIP3   OH237187   7.303   5.396   4.111 -0.0400  0.0901 -0.2748
12422TIP3    H137188   7.283   5.434   4.026 -1.1701  0.5725  0.1801
12422TIP3    H237189   7.217   5.382   4.152  0.4834  2.1065  1.7229
12423TIP3   OH237190   4.263   8.025   2.595 -0.0944 -0.0351  0.5201
12423TIP3    H137191   4.168   8.026   2.585 -0.0150  0.8573 -0.2770
12423TIP3    H237192   4.281   8.095   2.658  0.1296  0.7660 -0.4131
12424TIP3   OH237193   7.783   4.683   5.186  0.1958  0.5353  0.5754
12424TIP3    H137194   7.716   4.683   5.118  1.7210  0.5412 -0.9789
12424TIP3    H237195   7.783   4.773   5.220  1.2197  1.2826 -1.2866
12425TIP3   OH237196   0.987   7.887   2.190  0.5907  0.0415  0.1329
12425TIP3    H137197   0.919   7.945   2.155 -0.1722  0.0089  1.4826
12425TIP3    H237198   0.974   7.804   2.145 -0.9965 -0.2926  1.1246
12426TIP3   OH237199   8.407   2.790   5.431  0.0998  0.0434 -0.7383
12426TIP3    H137200   8.472   2.818   5.496 -0.4273  0.4061 -0.3619
12426TIP3    H237201   8.381   2.703   5.459 -1.1131  0.7119  0.3332
12427TIP3   OH237202   5.180   6.133   6.798 -0.4297  0.7080  0.1782
12427TIP3    H137203   5.087   6.153   6.802 -0.0500  2.4118  1.5349
12427TIP3    H237204   5.209   6.132   6.889  0.8505 -0.0625 -0.1943
12428TIP3   OH237205   2.380   3.759   4.145 -0.0707  0.2780  0.4655
12428TIP3    H137206   2.401   3.797   4.060  0.6701  1.8691  1.3344
12428TIP3    H237207   2.463   3.758   4.193 -0.6248  0.0940  1.4444
12429TIP3   OH237208   8.533   1.927   6.672  0.3996 -0.2577  0.4473
12429TIP3    H137209   8.542   2.023   6.670 -2.7450  0.1692  1.6029
12429TIP3    H237210   8.465   1.909   6.607 -0.0597 -1.5439  1.2648
12430TIP3   OH237211   0.703   3.567   2.224 -0.3598 -0.8163  0.3028
12430TIP3    H137212   0.762   3.518   2.280  1.6584  0.1190 -0.8706
12430TIP3    H237213   0.735   3.658   2.230 -1.2886 -0.3901 -0.8515
12431TIP3   OH237214   6.669   5.261   1.150 -0.1336 -0.2110  0.0157
12431TIP3    H137215   6.741   5.320   1.129  0.4020  0.1074  2.3828
12431TIP3    H237216   6.606   5.317   1.196 -0.5057 -1.0816  0.5775
12432TIP3   OH237217   5.475   5.245   0.810 -0.0433  0.0392 -0.8255
12432TIP3    H137218   5.428   5.328   0.816  1.1678  0.7122 -0.3736
12432TIP3    H237219   5.481   5.214   0.901  1.3937  0.5539 -0.7273
12433TIP3   OH237220   8.471   1.277   1.777  0.2022 -0.6757  0.8469
12433TIP3    H137221   8.564   1.255   1.764  0.2506  0.0433 -0.1360
12433TIP3    H237222   8.470   1.372   1.788 -0.5853 -0.4191 -1.0901
12434TIP3   OH237223   6.080   2.424   2.733  0.0156  0.0384  0.3330
12434TIP3    H137224   6.019   2.416   2.660  0.7233  1.2826 -0.4329
12434TIP3    H237225   6.166   2.435   2.692  0.2207  2.7725  1.2338
12435TIP3   OH237226   0.611   5.049   3.915  0.4207  0.3762 -0.1420
12435TIP3    H137227   0.607   5.003   3.999 -1.0316  0.7699  0.0243
12435TIP3    H237228   0.704   5.054   3.896  0.7998  0.4488  1.5393
12436TIP3   OH237229   1.336   6.571   3.614  0.1247 -0.3304 -0.5523
12436TIP3    H137230   1.432   6.563   3.615  0.0862 -1.6322  2.1373
12436TIP3    H237231   1.320   6.662   3.636  0.7969 -0.5744  1.0836
12437TIP3   OH237232   2.338   6.682   3.277  0.4351 -0.1686  0.0122
12437TIP3    H137233   2.351   6.777   3.280  0.3735 -0.1919  1.7672
12437TIP3    H237234   2.270   6.670   3.210 -0.1197  1.0915  0.3168
12438TIP3   OH237235   3.587   5.982   0.953 -0.1482  0.0455 -0.3157
12438TIP3    H137236   3.518   5.979   0.887  0.2755 -1.3871 -0.7365
12438TIP3    H237237   3.669   5.989   0.903  0.1897 -1.2642  0.0072
12439TIP3   OH237238   5.937   1.532   3.558 -0.3399  0.7812  0.8147
12439TIP3    H137239   5.996   1.593   3.602  1.9559 -1.3599  0.9693
12439TIP3    H237240   5.980   1.447   3.569 -1.0155 -0.2556 -3.2281
12440TIP3   OH237241   6.098   1.795   0.566  0.3219  0.1207 -0.0230
12440TIP3    H137242   6.073   1.749   0.486 -0.5306 -0.9007  0.8108
12440TIP3    H237243   6.177   1.844   0.541 -0.4591  0.5721 -1.7295
12441TIP3   OH237244   5.212   1.240   2.074  0.4152  0.4028 -0.2399
12441TIP3    H137245   5.125   1.274   2.095  0.2975  1.8961 -2.7715
12441TIP3    H237246   5.227   1.171   2.139 -3.3023 -1.0353 -0.6943
12442TIP3   OH237247   4.643   6.955   5.537 -0.2279  0.0198 -0.4070
12442TIP3    H137248   4.615   6.981   5.449  1.3369  1.0529 -0.6413
12442TIP3    H237249   4.625   6.861   5.541 -0.5617  0.0043 -1.7419
12443TIP3   OH237250   3.429   4.438   5.937  0.6891 -0.0883  0.0119
12443TIP3    H137251   3.446   4.526   5.971  1.5253 -1.2384  2.8715
12443TIP3    H237252   3.490   4.382   5.985 -0.8291 -2.4234 -0.6365
12444TIP3   OH237253   7.809   2.194   2.051 -0.1551 -0.6007 -0.2559
12444TIP3    H137254   7.774   2.151   1.974 -1.2604 -1.0534  0.4765
12444TIP3    H237255   7.901   2.211   2.029 -0.2484 -1.4061 -1.3678
12445TIP3   OH237256   2.536   6.430   5.696 -0.1647 -0.1388 -0.9014
12445TIP3    H137257   2.546   6.525   5.697 -1.0693  0.1233 -4.0364
12445TIP3    H237258   2.451   6.414   5.737  0.5222  0.2547  0.7242
12446TIP3   OH237259   6.066   5.511   3.727  0.1461 -0.1837  0.7219
12446TIP3    H137260   6.000   5.580   3.732 -0.3968 -0.6594  0.2261
12446TIP3    H237261   6.149   5.557   3.739  0.1762  1.2287 -3.3619
12447TIP3   OH237262   1.236   0.467   4.723 -0.0034  0.0288  0.2970
12447TIP3    H137263   1.260   0.377   4.702  0.3869  0.6620 -2.3689
12447TIP3    H237264   1.153   0.481   4.677  0.1305  1.1212  0.3655
12448TIP3   OH237265   7.372   4.239   4.019 -0.0637 -0.4792  0.1867
12448TIP3    H137266   7.344   4.235   3.927 -1.7061 -1.0114  0.6771
12448TIP3    H237267   7.296   4.210   4.068  0.3700  1.0088  1.8191
12449TIP3   OH237268   4.610   5.658   0.599  0.5848  0.1621 -0.1275
12449TIP3    H137269   4.665   5.653   0.520  1.3453 -0.4800  0.4157
12449TIP3    H237270   4.521   5.646   0.568  0.9171 -0.4913 -0.8510
12450TIP3   OH237271   1.492   2.733   5.644 -0.3972  0.1569  0.2708
12450TIP3    H137272   1.463   2.823   5.655  2.4791  1.6475 -2.6136
12450TIP3    H237273   1.425   2.693   5.589 -0.0392  1.6848 -1.3724
12451TIP3   OH237274   1.148   4.236   0.540  0.1996  0.1041  0.1825
12451TIP3    H137275   1.196   4.311   0.575 -0.3113 -0.0540  1.2517
12451TIP3    H237276   1.183   4.161   0.588 -0.9152 -0.0460  0.7859
12452TIP3   OH237277   5.754   6.057   2.884  0.8485 -0.1502  0.4770
12452TIP3    H137278   5.716   6.029   2.801  0.5670 -0.6408  0.7621
12452TIP3    H237279   5.783   6.147   2.869  0.1933 -0.0065  0.0482
12453TIP3   OH237280   0.255   0.129   3.820 -0.7336  1.0612 -0.1095
12453TIP3    H137281   0.292   0.052   3.778  1.0199  1.4140  0.7245
12453TIP3    H237282   0.226   0.097   3.906  0.3290  1.3778  0.3822
12454TIP3   OH237283   7.242   4.503   3.975  0.1731 -0.3277 -0.0001
12454TIP3    H137284   7.180   4.435   3.952  0.2956 -0.1673 -0.8415
12454TIP3    H237285   7.328   4.463   3.962  0.2475 -0.2998  0.3926
12455TIP3   OH237286   4.774   5.088   0.061  0.6468  0.2752 -0.3895
12455TIP3    H137287   4.830   5.143   0.005 -1.4880  2.0370 -0.9350
12455TIP3    H237288   4.698   5.143   0.080 -0.2985 -1.5336  1.4387
12456TIP3   OH237289   0.247   7.793   4.513  0.0214 -0.1485 -0.0339
12456TIP3    H137290   0.308   7.865   4.533  1.1584 -0.8538 -0.8597
12456TIP3    H237291   0.279   7.758   4.430 -0.7190 -1.4067  0.2004
12457TIP3   OH237292   8.447   6.850   0.708  0.4420  0.4187 -0.5560
12457TIP3    H137293   8.382   6.862   0.778  1.0236  2.5404 -0.3230
12457TIP3    H237294   8.408   6.893   0.632  0.2434 -1.0306 -1.3095
12458TIP3   OH237295   2.525   7.561   0.627 -0.0740  0.2017  0.5186
12458TIP3    H137296   2.444   7.524   0.661  0.0199  0.0535  0.5815
12458TIP3    H237297   2.539   7.640   0.679  0.5116 -0.4642  1.4074
12459TIP3   OH237298   5.987   1.971   2.098 -0.4134  0.7336 -0.5791
12459TIP3    H137299   5.910   1.960   2.154 -0.2821  1.7713 -0.1679
12459TIP3    H237300   5.956   2.025   2.026  0.6729  4.2808  1.3825
12460TIP3   OH237301   2.381   5.878   1.304  0.3678  0.1495  0.1116
12460TIP3    H137302   2.437   5.935   1.356  0.3773  0.4829 -0.2595
12460TIP3    H237303   2.308   5.934   1.276  1.7823  0.8027 -2.6142
12461TIP3   OH237304   1.909   1.982   6.576 -0.5629  0.3891  0.4679
12461TIP3    H137305   1.913   2.064   6.527 -1.1026  0.4324  0.4930
12461TIP3    H237306   1.816   1.959   6.578 -0.2858 -0.9657 -0.7531
12462TIP3   OH237307   1.380   3.825   0.288  0.3939  0.4139  0.5235
12462TIP3    H137308   1.334   3.883   0.226  0.4012  0.4626  0.5633
12462TIP3    H237309   1.460   3.800   0.242  1.0732  1.5452  1.0313
12463TIP3   OH237310   6.864   8.181   6.519  0.5390  0.5801 -0.0681
12463TIP3    H137311   6.899   8.270   6.523  0.7412  0.4805  0.3183
12463TIP3    H237312   6.939   8.124   6.535  0.4942  0.3193 -0.7216
12464TIP3   OH237313   7.387   6.536   0.236  0.7249 -0.0486  0.5449
12464TIP3    H137314   7.470   6.503   0.202 -0.1678  0.2816 -2.1707
12464TIP3    H237315   7.325   6.465   0.220  0.1216  0.3919  0.9026
12465TIP3   OH237316   2.802   4.240   0.878 -0.3263 -0.3644  0.0942
12465TIP3    H137317   2.879   4.197   0.840 -0.1713 -1.1671  1.2505
12465TIP3    H237318   2.796   4.203   0.967 -1.2191  0.7371  0.5122
12466TIP3   OH237319   7.636   1.434   4.786  0.2994 -0.0236  0.4133
12466TIP3    H137320   7.707   1.376   4.760 -1.6887 -3.0711  1.2708
12466TIP3    H237321   7.679   1.516   4.810  3.3895 -1.4124  0.0298
12467TIP3   OH237322   5.627   4.252   0.249 -0.6232  0.2907  0.0735
12467TIP3    H137323   5.626   4.247   0.345 -0.5936  2.5369  0.2312
12467TIP3    H237324   5.558   4.192   0.222 -1.9345  1.0067  1.6042
12468TIP3   OH237325   7.411   0.183   0.305  0.5810 -0.4044  0.5927
12468TIP3    H137326   7.361   0.260   0.279  1.4916 -0.7190 -2.5440
12468TIP3    H237327   7.349   0.131   0.356 -1.1122  0.9001 -0.0215
12469TIP3   OH237328   0.578   4.815   3.280 -0.0616  0.0027  0.1546
12469TIP3    H137329   0.637   4.886   3.253  0.1366  0.1127  0.8736
12469TIP3    H237330   0.493   4.857   3.290  0.3680  0.4676  2.0900
12470TIP3   OH237331   6.951   0.095   1.040  0.0750  0.6947 -0.0886
12470TIP3    H137332   6.996   0.170   1.001  1.0266  0.5571  0.7157
12470TIP3    H237333   6.977   0.021   0.985 -1.1350  0.9792 -1.0888
12471TIP3   OH237334   0.808   3.103   4.159  0.3907  0.2408  0.0118
12471TIP3    H137335   0.767   3.189   4.167  1.9122  0.8812  1.3814
12471TIP3    H237336   0.734   3.042   4.159 -0.7750  1.5571 -2.0988
12472TIP3   OH237337   0.318   1.726   0.851  0.3591  0.1749 -0.1890
12472TIP3    H137338   0.320   1.796   0.917  1.3899  1.3191 -1.4001
12472TIP3    H237339   0.359   1.651   0.895  3.5940  1.6950 -0.3310
12473TIP3   OH237340   8.323   2.276   2.628 -0.5953  0.2274 -0.2915
12473TIP3    H137341   8.282   2.253   2.711  0.7402  0.9434  0.5825
12473TIP3    H237342   8.285   2.360   2.605 -2.3955 -0.8170 -1.4215
12474TIP3   OH237343   1.769   5.941   0.741  0.1935 -0.0667  0.4477
12474TIP3    H137344   1.853   5.963   0.700  1.1776 -0.7079  2.0184
12474TIP3    H237345   1.793   5.894   0.821 -1.6704  0.0686  1.1347
12475TIP3   OH237346   6.903   5.973   0.965  0.1249  0.5633 -0.5341
12475TIP3    H137347   6.894   6.052   0.910  0.2148 -0.0998 -1.5338
12475TIP3    H237348   6.949   6.004   1.043  0.2988  1.4802 -0.9781
12476TIP3   OH237349   5.017   0.123   0.804  0.1836 -0.2527 -0.4059
12476TIP3    H137350   4.934   0.087   0.838 -1.4364  2.7088 -0.8821
12476TIP3    H237351   5.042   0.062   0.735 -2.0210 -0.9147 -0.7175
12477TIP3   OH237352   5.951   3.051   6.203 -0.0540  0.0537 -0.1350
12477TIP3    H137353   5.928   2.997   6.278 -0.7602 -0.6058 -0.7981
12477TIP3    H237354   5.873   3.106   6.188  0.5554  1.0935  0.3747
12478TIP3   OH237355   0.563   0.556   5.849  0.6295  0.3542 -0.2810
12478TIP3    H137356   0.574   0.513   5.934  1.1732  1.8204  0.4183
12478TIP3    H237357   0.603   0.495   5.786 -0.6141 -1.1910  0.3444
12479TIP3   OH237358   5.696   6.853   3.604  0.0087 -0.2073  0.2341
12479TIP3    H137359   5.784   6.886   3.587 -0.5172  1.2062  0.1406
12479TIP3    H237360   5.650   6.864   3.521 -0.1439 -1.3840  0.1444
12480TIP3   OH237361   8.227   2.225   4.654  0.0171 -0.1163 -0.1019
12480TIP3    H137362   8.322   2.224   4.661 -0.0188  0.8723  0.7424
12480TIP3    H237363   8.196   2.210   4.744 -0.6202  0.1744 -0.2674
12481TIP3   OH237364   2.965   7.559   6.182 -0.6780  0.4127  0.3552
12481TIP3    H137365   3.059   7.547   6.172 -0.7723  0.2892 -0.5101
12481TIP3    H237366   2.930   7.470   6.190 -0.5111  0.5256  3.1126
12482TIP3   OH237367   3.205   0.697   4.152 -0.1853  0.2396  0.1941
12482TIP3    H137368   3.248   0.778   4.122 -1.1968  0.7792  0.1634
12482TIP3    H237369   3.144   0.675   4.081 -0.5993 -0.0189  0.6275
12483TIP3   OH237370   1.339   4.254   0.853 -0.1030  0.1323  0.3061
12483TIP3    H137371   1.329   4.160   0.841 -0.9538  0.5419 -3.3358
12483TIP3    H237372   1.433   4.270   0.840 -0.4430  0.0682 -3.2260
12484TIP3   OH237373   4.929   4.536   6.618 -0.4705  0.3733 -0.1123
12484TIP3    H137374   4.911   4.443   6.631 -2.2031  0.5206 -1.0585
12484TIP3    H237375   4.986   4.539   6.542 -2.2844  0.1133 -1.5723
12485TIP3   OH237376   3.505   6.741   3.108  0.2430 -0.3106  0.4234
12485TIP3    H137377   3.584   6.737   3.161  0.4731  1.2779  0.2561
12485TIP3    H237378   3.534   6.722   3.019  0.2479 -0.7105  0.5064
12486TIP3   OH237379   5.180   6.939   6.611 -0.1523  0.4712  0.1307
12486TIP3    H137380   5.107   7.000   6.610 -0.3423  0.2433  0.1219
12486TIP3    H237381   5.245   6.980   6.670 -0.6752  0.2169  0.8995
12487TIP3   OH237382   7.945   4.508   0.360  0.0923  0.5072 -0.3686
12487TIP3    H137383   7.896   4.489   0.280  1.2815 -3.1511 -0.4201
12487TIP3    H237384   7.886   4.480   0.431 -0.1301  1.7081 -0.0684
12488TIP3   OH237385   1.570   3.477   1.787  0.1387  0.5610 -0.0427
12488TIP3    H137386   1.600   3.405   1.843  1.0152  1.7344  1.0460
12488TIP3    H237387   1.554   3.436   1.702 -0.0728 -1.0440  0.7357
12489TIP3   OH237388   0.897   0.690   0.740  0.5919  0.0160  0.1026
12489TIP3    H137389   0.977   0.736   0.767  1.4794  0.0582 -2.2677
12489TIP3    H237390   0.908   0.679   0.645 -2.0452 -0.3756 -0.2197
12490TIP3   OH237391   3.987   8.016   5.321  0.6425 -0.2474  0.0190
12490TIP3    H137392   4.068   8.044   5.364  0.9857  0.4971 -1.0472
12490TIP3    H237393   4.007   7.928   5.288  0.6649 -0.4747  0.6303
12491TIP3   OH237394   6.398   7.585   6.500  0.4523 -0.5221 -1.0582
12491TIP3    H137395   6.413   7.494   6.527 -1.0931 -0.4555  0.1142
12491TIP3    H237396   6.315   7.610   6.541  0.6168  1.2899 -1.7200
12492TIP3   OH237397   5.290   5.963   1.646 -0.1079  0.3839 -0.0951
12492TIP3    H137398   5.318   5.934   1.560  0.0349  1.9323 -0.6041
12492TIP3    H237399   5.298   5.885   1.702  1.3415 -0.2413 -1.1096
12493TIP3   OH237400   6.095   3.242   0.673 -0.4693 -0.0012 -0.1849
12493TIP3    H137401   6.182   3.279   0.678  0.1254 -1.4274  0.6528
12493TIP3    H237402   6.042   3.310   0.631  1.1197  0.7171 -1.1050
12494TIP3   OH237403   3.626   1.705   3.462  0.3169  0.2029  0.1664
12494TIP3    H137404   3.679   1.712   3.383  2.3735  2.0305  1.5813
12494TIP3    H237405   3.577   1.787   3.466  0.5020  0.2863  0.9438
12495TIP3   OH237406   8.636   6.807   1.948  0.2518  0.2389 -0.4704
12495TIP3    H137407   8.706   6.796   2.012 -0.0986 -0.1248 -0.1492
12495TIP3    H237408   8.682   6.812   1.864  0.8263  2.2019 -0.0788
12496TIP3   OH237409   2.794   6.616   6.216  0.2702 -0.4938  0.2831
12496TIP3    H137410   2.708   6.621   6.175 -0.0755  0.2261  1.0553
12496TIP3    H237411   2.855   6.603   6.144 -0.6226 -2.8295 -0.1467
12497TIP3   OH237412   3.815   5.002   0.924  0.4222 -0.1740  0.0752
12497TIP3    H137413   3.884   5.049   0.878 -0.2598  1.0638  0.2825
12497TIP3    H237414   3.799   5.053   1.004 -1.6547  0.3635 -0.6152
12498TIP3   OH237415   0.494   8.037   5.249  0.0717  0.2109  0.5713
12498TIP3    H137416   0.538   7.976   5.308 -1.0355 -0.1002  1.0817
12498TIP3    H237417   0.403   8.010   5.249 -0.3812  1.6700  0.5512
12499TIP3   OH237418   0.501   6.015   2.252  0.0048 -0.6937 -0.2582
12499TIP3    H137419   0.594   6.036   2.257 -0.2786  1.5550 -2.2931
12499TIP3    H237420   0.464   6.049   2.333  0.9761 -2.2176  0.8922
12500TIP3   OH237421   6.597   2.951   0.888  0.4757  0.0041 -0.0837
12500TIP3    H137422   6.647   2.876   0.919  2.2665  0.8010 -0.9417
12500TIP3    H237423   6.553   2.920   0.809 -1.1031 -0.9313  1.1073
12501TIP3   OH237424   5.163   5.044   6.115  0.4738  0.2377 -0.2972
12501TIP3    H137425   5.202   5.113   6.169 -1.6435  0.4279  1.0681
12501TIP3    H237426   5.203   4.963   6.147  1.8273  0.6403 -0.8715
12502TIP3   OH237427   0.844   4.233   4.429 -0.0506  0.6811  0.2855
12502TIP3    H137428   0.885   4.288   4.496  2.9309  0.8389 -1.5147
12502TIP3    H237429   0.876   4.145   4.447  1.5559  0.8739 -1.4151
12503TIP3   OH237430   7.211  -0.014   4.502 -0.0263 -0.4054 -0.6974
12503TIP3    H137431   7.240   0.070   4.538 -0.7576 -0.1442 -0.7138
12503TIP3    H237432   7.154  -0.051   4.569 -1.1519 -0.0602 -1.4401
12504TIP3   OH237433   1.482   6.151   2.677  0.4898 -0.0129 -0.1345
12504TIP3    H137434   1.483   6.195   2.592 -0.9292  0.9057  0.2901
12504TIP3    H237435   1.406   6.187   2.722  1.0242 -0.7185  1.4129
12505TIP3   OH237436   4.098   4.022   3.498 -0.2572 -0.0642  0.0569
12505TIP3    H137437   4.110   3.928   3.511 -2.2377 -0.1575  1.8974
12505TIP3    H237438   4.095   4.034   3.403  2.3006 -1.4673 -0.2882
12506TIP3   OH237439   8.151   1.598   0.837 -0.0063  0.1690  0.4516
12506TIP3    H137440   8.072   1.582   0.888  0.3796 -0.7600  0.7845
12506TIP3    H237441   8.131   1.562   0.750 -0.8773  2.2686 -0.2877
12507TIP3   OH237442   3.858   3.944   5.420 -0.5379  0.5787  0.1509
12507TIP3    H137443   3.770   3.951   5.383  0.0756  1.9091 -1.1540
12507TIP3    H237444   3.846   3.894   5.501 -2.3293 -0.1287 -0.5022
12508TIP3   OH237445   4.306   5.096   3.621 -0.1829  0.3361 -0.7330
12508TIP3    H137446   4.336   5.171   3.673 -1.1314  0.3913 -0.2482
12508TIP3    H237447   4.336   5.019   3.670 -1.8704  0.3693  0.4421
12509TIP3   OH237448   0.963   6.440   0.708  0.0449 -0.1592 -0.3530
12509TIP3    H137449   0.950   6.533   0.728  0.6813 -0.0269 -0.5589
12509TIP3    H237450   1.024   6.410   0.775 -1.1265 -0.7387  0.4927
12510TIP3   OH237451   8.579   7.721   6.526  0.3432 -0.3599  0.6566
12510TIP3    H137452   8.555   7.728   6.434  1.3132 -0.0093  0.4164
12510TIP3    H237453   8.503   7.680   6.568 -0.6907  0.7647 -0.0354
12511TIP3   OH237454   6.361   0.067   3.025  0.3194  0.4156 -0.5305
12511TIP3    H137455   6.456   0.075   3.030  0.2487  2.0037  5.1873
12511TIP3    H237456   6.331   0.155   3.000  0.4995  1.4765  2.5216
12512TIP3   OH237457   5.950   1.510   2.703  0.1206 -0.2701 -0.2959
12512TIP3    H137458   5.929   1.467   2.785  0.1977  0.6537  0.2230
12512TIP3    H237459   5.891   1.586   2.700  2.3133  1.5918  0.5174
12513TIP3   OH237460   5.970   2.526   2.465 -0.1098 -0.2492 -0.3959
12513TIP3    H137461   6.054   2.571   2.468 -0.2601  0.0353 -0.3590
12513TIP3    H237462   5.950   2.520   2.371  0.2709 -0.9293 -0.4377
12514TIP3   OH237463   0.830   5.517   5.501 -0.1790 -0.3574  0.3822
12514TIP3    H137464   0.902   5.465   5.535  1.7884  0.3659 -2.3316
12514TIP3    H237465   0.872   5.595   5.464 -2.2840 -0.0406 -1.5727
12515TIP3   OH237466   5.955   5.879   6.357  0.2976 -0.1020 -0.6859
12515TIP3    H137467   5.939   5.953   6.416 -1.9580 -1.6238  0.7699
12515TIP3    H237468   6.037   5.902   6.312  0.9422  2.1652  1.3882
12516TIP3   OH237469   7.334   3.871   2.855 -0.3506 -0.5859  0.2780
12516TIP3    H137470   7.298   3.953   2.889  2.5058  0.2655  1.5732
12516TIP3    H237471   7.284   3.803   2.899 -2.5554  0.3962 -0.5537
12517TIP3   OH237472   5.671   3.025   2.421  0.0723  0.3819  0.5268
12517TIP3    H137473   5.628   3.110   2.415  0.5900  0.5629 -3.3370
12517TIP3    H237474   5.600   2.961   2.411 -0.0383  0.4234  1.0187
12518TIP3   OH237475   3.775   7.654   0.335 -0.0642  0.3765  0.1011
12518TIP3    H137476   3.759   7.560   0.339 -1.8180  0.5703 -1.2468
12518TIP3    H237477   3.865   7.661   0.302  0.0286 -0.8274  0.0516
12519TIP3   OH237478   2.666   0.597   0.142 -0.0315 -0.0083 -0.1782
12519TIP3    H137479   2.668   0.577   0.235  0.9823 -1.7509 -0.5276
12519TIP3    H237480   2.662   0.511   0.099  0.8031  0.6985 -1.7594
12520TIP3   OH237481   0.482   4.472   3.319  0.1342 -0.2518  0.5507
12520TIP3    H137482   0.420   4.531   3.362 -0.6682 -0.5100 -0.2274
12520TIP3    H237483   0.530   4.431   3.391 -0.3268  0.2353  1.1515
12521TIP3   OH237484   5.713   1.024   1.251  0.4193 -0.0133 -0.5192
12521TIP3    H137485   5.634   1.078   1.249  0.2347 -0.2502  0.1260
12521TIP3    H237486   5.682   0.936   1.230  0.3090 -0.3360  0.9447
12522TIP3   OH237487   2.250   1.424   1.067  0.7012  0.6562  0.3537
12522TIP3    H137488   2.338   1.444   1.033  1.1162  0.9519  1.5560
12522TIP3    H237489   2.208   1.376   0.996  2.5955 -1.4322  0.5159
12523TIP3   OH237490   0.968   4.156   1.377 -0.2010  0.7459  0.4221
12523TIP3    H137491   0.888   4.196   1.341 -0.8679 -1.3007 -0.5028
12523TIP3    H237492   0.956   4.161   1.472 -2.8392 -1.9798  0.3687
12524TIP3   OH237493   5.319   5.543   1.625  0.3458  0.0153 -0.3426
12524TIP3    H137494   5.344   5.550   1.533  1.4425  2.2183  0.0738
12524TIP3    H237495   5.241   5.599   1.633  0.2510 -0.1735  0.0821
12525TIP3   OH237496   1.654   6.006   3.232  0.0636  0.0656  0.2882
12525TIP3    H137497   1.625   5.964   3.313 -0.0092  0.4887  0.4874
12525TIP3    H237498   1.614   6.093   3.235 -3.5390 -1.2523 -2.2366
12526TIP3   OH237499   1.951   6.236   1.293 -0.6959  0.2188  0.0439
12526TIP3    H137500   1.877   6.191   1.251  1.7648 -0.4871 -4.1484
12526TIP3    H237501   1.966   6.313   1.238  1.1830  0.7814  1.2562
12527TIP3   OH237502   4.149   6.403   1.593  0.1266  0.2758  0.0239
12527TIP3    H137503   4.124   6.314   1.620 -0.9158  0.9110  1.2471
12527TIP3    H237504   4.066   6.450   1.587  0.5571  0.8565 -1.8753
12528TIP3   OH237505   3.919   5.375   2.991  0.1596  0.3377  0.2708
12528TIP3    H137506   4.011   5.357   3.010  0.8836  2.1653 -1.1826
12528TIP3    H237507   3.910   5.469   3.002 -0.6341  0.7608 -2.8761
12529TIP3   OH237508   1.552   7.587   2.273 -0.5028 -0.0692  0.4971
12529TIP3    H137509   1.603   7.664   2.298 -0.6370 -0.3664  1.7475
12529TIP3    H237510   1.463   7.607   2.301 -0.9333  0.1203 -0.9639
12530TIP3   OH237511   5.007   8.133   1.112  0.4327 -0.2163 -0.5974
12530TIP3    H137512   5.101   8.147   1.098  0.4289  1.5366  0.7481
12530TIP3    H237513   4.965   8.183   1.042  0.5146  3.0397  1.4518
12531TIP3   OH237514   6.229   0.789   2.917 -0.0633  0.9663 -0.3532
12531TIP3    H137515   6.210   0.866   2.864  1.3080 -0.1155 -2.5691
12531TIP3    H237516   6.324   0.782   2.916 -0.1913 -1.7721 -1.8688
12532TIP3   OH237517   8.433   3.670   4.188 -0.1239 -0.0896 -0.5008
12532TIP3    H137518   8.487   3.640   4.261 -0.4658 -1.5838 -0.8283
12532TIP3    H237519   8.441   3.602   4.122 -1.7150  0.0634 -0.8969
12533TIP3   OH237520   7.164   0.298   1.209 -0.1851  0.4696  0.2298
12533TIP3    H137521   7.083   0.283   1.258 -0.8704  1.0769 -0.6774
12533TIP3    H237522   7.221   0.226   1.235 -1.4649 -0.6911 -0.0206
12534TIP3   OH237523   4.795   1.501   2.716  0.0602  0.1179  0.1038
12534TIP3    H137524   4.747   1.424   2.747 -1.2714  0.4995 -0.9055
12534TIP3    H237525   4.823   1.546   2.796  0.7723 -1.3442  0.7102
12535TIP3   OH237526   2.911   5.772   5.059 -0.0962  0.3209 -0.3719
12535TIP3    H137527   2.911   5.678   5.045  1.2037  0.1404  0.6132
12535TIP3    H237528   2.914   5.810   4.971 -2.2438 -0.4870 -0.8493
12536TIP3   OH237529   2.680   5.632   2.866  0.5277  0.1907 -0.2626
12536TIP3    H137530   2.636   5.615   2.783 -0.0023  1.2068 -0.2136
12536TIP3    H237531   2.748   5.695   2.845  0.0903  0.8122  0.1356
12537TIP3   OH237532   8.170   4.527   2.078  0.0796 -0.0426  0.3931
12537TIP3    H137533   8.090   4.475   2.086  0.5967 -0.5868  3.0226
12537TIP3    H237534   8.239   4.463   2.063  0.2022  0.3105 -0.6051
12538TIP3   OH237535   7.816   0.607   5.244 -0.3914 -0.2447 -0.1258
12538TIP3    H137536   7.723   0.606   5.266 -0.4547 -1.0628 -0.3893
12538TIP3    H237537   7.818   0.613   5.149 -0.1742 -0.0252 -0.1069
12539TIP3   OH237538   1.057   1.790   0.196  0.4193  0.6793  0.0766
12539TIP3    H137539   1.117   1.822   0.264  0.1750  0.7283  0.2730
12539TIP3    H237540   0.988   1.745   0.245 -0.1642  1.3753 -0.0927
12540TIP3   OH237541   5.345   7.025   3.511  0.0765  0.2117  0.5160
12540TIP3    H137542   5.370   6.945   3.465 -0.3990  0.8260 -0.8444
12540TIP3    H237543   5.279   6.996   3.574  0.3397 -0.5582  0.4548
12541TIP3   OH237544   4.278   1.085   1.586 -0.1891  0.4916 -0.7972
12541TIP3    H137545   4.186   1.088   1.562 -0.2978  0.2636 -0.4307
12541TIP3    H237546   4.280   1.115   1.677 -0.1827 -1.4641 -0.0998
12542TIP3   OH237547   3.104   1.518   0.902  0.0926 -0.2599 -0.4207
12542TIP3    H137548   3.176   1.456   0.913 -1.0329 -1.5667 -0.0912
12542TIP3    H237549   3.025   1.465   0.914 -0.9133  1.3327  0.3380
12543TIP3   OH237550   0.300   5.804   2.649 -0.3165 -0.9606 -0.2752
12543TIP3    H137551   0.350   5.803   2.567  1.9481 -0.6882  1.0106
12543TIP3    H237552   0.337   5.878   2.698 -2.0746 -0.7056  0.7386
12544TIP3   OH237553   0.488   6.393   1.670 -0.3933  0.4505 -0.9419
12544TIP3    H137554   0.573   6.371   1.633  0.2759  0.1377  0.7061
12544TIP3    H237555   0.425   6.344   1.618  0.5424 -0.3269 -1.3619
12545TIP3   OH237556   6.170   7.095   4.708  0.2708 -0.3988  0.0617
12545TIP3    H137557   6.179   7.190   4.702  2.5767 -0.3540  2.4174
12545TIP3    H237558   6.258   7.061   4.692 -0.3315 -2.0850  0.0699
12546TIP3   OH237559   6.284   1.668   5.383 -0.2322 -0.2856  0.4774
12546TIP3    H137560   6.277   1.743   5.324 -2.0256  2.5589  3.8965
12546TIP3    H237561   6.194   1.647   5.406  0.3460  0.4952  4.0152
12547TIP3   OH237562   8.444   2.302   4.184 -0.2108 -0.3188  0.6395
12547TIP3    H137563   8.392   2.381   4.200  0.5191  0.6675 -1.5087
12547TIP3    H237564   8.391   2.231   4.221 -1.0514  1.0912  2.3193
12548TIP3   OH237565   7.903   2.733   5.978 -0.0268  0.6492  0.0255
12548TIP3    H137566   7.896   2.710   5.886 -0.8022 -0.2585  0.2858
12548TIP3    H237567   7.814   2.758   6.003  0.3062  1.4908  0.3781
12549TIP3   OH237568   7.320   5.268   5.977  0.0968 -0.8262 -0.0639
12549TIP3    H137569   7.382   5.205   6.014  0.3954 -0.0032  0.8743
12549TIP3    H237570   7.298   5.325   6.051 -2.3694 -1.5516 -0.1584
12550TIP3   OH237571   5.236   7.377   2.942  0.5993  0.1634 -0.0092
12550TIP3    H137572   5.201   7.461   2.913  0.1006 -1.0394 -3.3503
12550TIP3    H237573   5.161   7.330   2.978  0.1695  0.0337 -1.0465
12551TIP3   OH237574   6.828   7.987   6.118  0.0569 -0.4127  0.4607
12551TIP3    H137575   6.820   8.077   6.087  0.7590 -0.7339 -0.7050
12551TIP3    H237576   6.760   7.978   6.185 -0.1821  0.9021  0.4049
12552TIP3   OH237577   4.828   2.951   4.091  0.8908  0.0795 -0.4157
12552TIP3    H137578   4.811   3.003   4.013 -0.2443  0.7935  0.2731
12552TIP3    H237579   4.748   2.959   4.144  1.0585 -1.5929  0.1599
12553TIP3   OH237580   8.535   4.403   0.446  0.8132 -0.0110 -0.4493
12553TIP3    H137581   8.470   4.469   0.424 -0.0693 -0.7818 -0.2028
12553TIP3    H237582   8.524   4.387   0.540  1.6643  0.1726 -0.3043
12554TIP3   OH237583   4.964   1.036   1.655 -0.1399 -0.2525  0.0438
12554TIP3    H137584   4.947   1.011   1.746 -0.2221  1.2847  0.4712
12554TIP3    H237585   4.964   1.132   1.656  2.2568 -0.1637 -1.1245
12555TIP3   OH237586   8.113   4.835   4.573 -0.2177  0.0679 -0.5412
12555TIP3    H137587   8.146   4.745   4.566 -0.1059  0.0824 -0.1952
12555TIP3    H237588   8.191   4.889   4.560 -0.2826  0.1155 -0.7335
12556TIP3   OH237589   0.380   1.729   6.418  0.3812  0.2702 -0.9798
12556TIP3    H137590   0.350   1.813   6.382  1.6845  2.1957  2.0895
12556TIP3    H237591   0.474   1.728   6.402  0.3734 -0.6438 -1.0114
12557TIP3   OH237592   1.373   3.049   4.901  0.1447  0.7178  0.6458
12557TIP3    H137593   1.345   3.057   4.810  0.4062 -1.1937  0.3556
12557TIP3    H237594   1.439   3.117   4.913  0.2146  0.8847 -0.6408
12558TIP3   OH237595   0.788   4.535   1.326  0.1738  0.4763 -0.3646
12558TIP3    H137596   0.768   4.444   1.348  1.9382  0.3281  0.8117
12558TIP3    H237597   0.751   4.585   1.399 -1.3567  0.7961 -1.3249
12559TIP3   OH237598   2.581   3.567   1.652 -0.5211  0.0449 -0.2063
12559TIP3    H137599   2.630   3.639   1.693  0.4623 -0.9721  0.4632
12559TIP3    H237600   2.597   3.492   1.709 -2.6634 -0.4178 -0.1249
12560TIP3   OH237601   5.780   0.155   5.463  0.3256 -0.0636  0.1022
12560TIP3    H137602   5.839   0.222   5.500  1.4432  1.2946 -3.6339
12560TIP3    H237603   5.838   0.098   5.413 -1.1295 -1.2578 -0.2806
12561TIP3   OH237604   4.324   1.429   0.534 -0.0706 -0.1504  0.5311
12561TIP3    H137605   4.382   1.494   0.573  1.6450 -1.5539  0.4426
12561TIP3    H237606   4.265   1.479   0.478 -0.1791  1.5151  2.0753
12562TIP3   OH237607   1.837   2.486   6.796  0.3578 -0.0273 -0.6869
12562TIP3    H137608   1.827   2.562   6.739 -0.6297  0.3025 -0.1128
12562TIP3    H237609   1.748   2.454   6.809  0.2820  0.9647  2.0241
12563TIP3   OH237610   2.474   0.045   5.847  0.2331 -0.0626 -0.6165
12563TIP3    H137611   2.387   0.076   5.826  0.3475  1.4682  0.9859
12563TIP3    H237612   2.483   0.058   5.941  2.0867 -0.4459 -0.6870
12564TIP3   OH237613   4.131   2.145   7.087 -0.0257 -0.5347  0.2725
12564TIP3    H137614   4.041   2.117   7.070  0.0543 -0.3341 -0.5229
12564TIP3    H237615   4.130   2.240   7.076 -0.1494 -0.2624  2.3010
12565TIP3   OH237616   1.042   0.437   4.499  0.4479  0.2851  0.4235
12565TIP3    H137617   0.956   0.439   4.457  0.6521 -0.5756 -0.0605
12565TIP3    H237618   1.075   0.349   4.482  0.7209  0.0446  2.0387
12566TIP3   OH237619   7.722   7.885   1.078  0.7397 -0.2155 -0.0223
12566TIP3    H137620   7.664   7.922   1.011  0.5443 -1.3406 -0.5070
12566TIP3    H237621   7.806   7.874   1.033  0.6641 -0.7760 -0.0421
12567TIP3   OH237622   5.198   5.454   0.513  0.1930  0.2466  0.2107
12567TIP3    H137623   5.293   5.456   0.526  0.5704  2.0165 -2.0957
12567TIP3    H237624   5.186   5.463   0.419 -2.2855  0.3674  0.4562
12568TIP3   OH237625   5.408   0.786   2.018 -0.5594 -0.2351  0.1066
12568TIP3    H137626   5.320   0.824   2.018 -0.4135  0.1034  0.1672
12568TIP3    H237627   5.461   0.849   1.969 -0.2903 -0.3015  0.3120
12569TIP3   OH237628   8.580   2.827   5.652  0.2156  0.3107  0.2880
12569TIP3    H137629   8.550   2.766   5.720 -0.0491  1.7120  1.4586
12569TIP3    H237630   8.625   2.896   5.699 -1.6086  2.3139 -0.7527
12570TIP3   OH237631   0.375   7.170   7.016 -0.6396  0.3936 -0.0492
12570TIP3    H137632   0.390   7.076   7.010  0.0821  0.5108 -0.2051
12570TIP3    H237633   0.325   7.191   6.937 -1.6503 -0.0050  0.4697
12571TIP3   OH237634   4.843   4.220   1.425 -0.1639 -0.2520 -0.0033
12571TIP3    H137635   4.924   4.172   1.407  0.4578  0.9471 -0.5384
12571TIP3    H237636   4.775   4.167   1.384  0.8243  0.6547 -3.0506
12572TIP3   OH237637   2.195   0.195   1.741  0.5954 -0.2285  0.0919
12572TIP3    H137638   2.109   0.197   1.698  0.1596  0.5389  0.9612
12572TIP3    H237639   2.230   0.108   1.721  0.5160  0.1660 -1.9863
12573TIP3   OH237640   7.257   7.730   4.127  0.4195 -0.1276  0.0040
12573TIP3    H137641   7.232   7.643   4.158 -0.4702 -0.2347 -0.9757
12573TIP3    H237642   7.334   7.715   4.073 -0.3350 -0.4581 -1.0018
12574TIP3   OH237643   6.800   0.299   0.343  0.2209  0.1545 -0.6428
12574TIP3    H137644   6.843   0.220   0.312  2.0386  0.8889 -0.0901
12574TIP3    H237645   6.757   0.334   0.265  0.9816 -0.3841 -1.3179
12575TIP3   OH237646   6.178   6.748   0.518  0.4659  0.6720  0.1196
12575TIP3    H137647   6.117   6.717   0.584  0.8381  1.5891  0.9177
12575TIP3    H237648   6.123   6.764   0.441 -0.3020  1.3475  0.7820
12576TIP3   OH237649   4.558   0.679   2.124  0.4548  0.3488  0.2161
12576TIP3    H137650   4.548   0.770   2.153 -2.2584  0.7108 -1.5352
12576TIP3    H237651   4.484   0.633   2.162  0.1799 -0.4680 -1.2522
12577TIP3   OH237652   8.449   4.689   2.924 -0.0115  0.2786  0.1389
12577TIP3    H137653   8.376   4.657   2.871 -0.6898  0.5866  0.8700
12577TIP3    H237654   8.450   4.631   3.000  1.7190 -0.9309 -0.7328
12578TIP3   OH237655   3.845   4.768   1.874  0.0334  1.0082 -0.4086
12578TIP3    H137656   3.848   4.702   1.944  0.4353  0.1768 -1.1960
12578TIP3    H237657   3.911   4.832   1.901  1.1539  0.0148 -0.6552
12579TIP3   OH237658   8.582   1.837   4.747  0.4178  0.4320  0.4688
12579TIP3    H137659   8.554   1.753   4.785 -0.6169  0.2689 -0.5735
12579TIP3    H237660   8.669   1.852   4.784  0.0064 -0.3459  1.8442
12580TIP3   OH237661   2.801   6.620   0.415  0.0635 -0.3498  0.4016
12580TIP3    H137662   2.805   6.529   0.386  2.9834 -1.1840  2.8932
12580TIP3    H237663   2.727   6.622   0.476 -1.1761 -0.5200 -1.0448
12581TIP3   OH237664   5.536   3.584   4.553  0.3322 -0.4124  0.2293
12581TIP3    H137665   5.455   3.630   4.533 -0.6162 -2.2713 -0.4368
12581TIP3    H237666   5.592   3.599   4.476  0.2916  0.1218  0.2982
12582TIP3   OH237667   6.393   0.348   1.131 -0.2639 -0.1235 -0.0010
12582TIP3    H137668   6.488   0.344   1.121 -0.1230 -1.2787  1.3908
12582TIP3    H237669   6.360   0.274   1.081 -0.3955  0.0157 -0.1215
12583TIP3   OH237670   4.607   6.266   0.003 -0.0165 -0.3483  0.4124
12583TIP3    H137671   4.625   6.345   0.053  0.6830 -0.8933  1.0529
12583TIP3    H237672   4.521   6.281  -0.036  0.5047  1.0789 -0.2275
12584TIP3   OH237673   7.421   0.078   4.163  0.1982  0.1178  0.2031
12584TIP3    H137674   7.430   0.122   4.078 -1.2259  0.3542  0.1448
12584TIP3    H237675   7.447  -0.012   4.146 -0.6807  0.0012 -0.6717
12585TIP3   OH237676   5.431   1.496   1.162 -0.5138 -0.6099  0.8031
12585TIP3    H137677   5.523   1.512   1.142  0.0492 -2.9871  1.1841
12585TIP3    H237678   5.396   1.457   1.082 -0.9111 -0.6985  1.0191
12586TIP3   OH237679   6.637   4.194   2.151 -0.7183 -0.0246 -0.5633
12586TIP3    H137680   6.698   4.193   2.077  0.7462  1.1385  0.5617
12586TIP3    H237681   6.668   4.265   2.207 -1.2824 -1.3587  1.5790
12587TIP3   OH237682   4.638   3.359   1.808  0.2305 -0.0196  0.2603
12587TIP3    H137683   4.640   3.282   1.751 -2.3152  0.4937 -0.6557
12587TIP3    H237684   4.708   3.415   1.774  0.6608 -0.9751 -0.4855
12588TIP3   OH237685   4.492   7.822   2.741 -0.3889  0.3384 -0.1277
12588TIP3    H137686   4.541   7.903   2.753  2.2902 -1.2764  0.5102
12588TIP3    H237687   4.495   7.805   2.647  1.8196 -0.5687  0.0519
12589TIP3   OH237688   0.813   2.577   0.144  0.5799 -0.1519  0.2082
12589TIP3    H137689   0.722   2.563   0.118  0.8106 -0.3263 -0.5067
12589TIP3    H237690   0.840   2.493   0.182 -0.0981  0.4245  2.1166
12590TIP3   OH237691   7.845   6.773   1.245  0.0228 -0.3609 -0.2585
12590TIP3    H137692   7.808   6.745   1.329  0.0814  0.5135  0.0743
12590TIP3    H237693   7.939   6.774   1.260  0.0582 -0.6252 -0.4713
12591TIP3   OH237694   4.811   0.216   5.019 -0.4519 -0.1270 -0.2445
12591TIP3    H137695   4.770   0.272   4.953 -1.9098 -1.4849 -0.5450
12591TIP3    H237696   4.900   0.203   4.987 -0.6418  0.5572 -1.0898
12592TIP3   OH237697   0.034   5.066   0.780 -0.1613  0.2487  0.0381
12592TIP3    H137698   0.038   5.100   0.691  0.8249  1.3320  0.4647
12592TIP3    H237699   0.085   4.984   0.776 -1.0460 -0.2856 -0.6128
12593TIP3   OH237700   5.570   4.555   6.320  0.0505 -0.0942 -0.4592
12593TIP3    H137701   5.628   4.618   6.279 -0.5542  0.4843 -0.4412
12593TIP3    H237702   5.626   4.507   6.381  0.6716 -0.0894 -1.0208
12594TIP3   OH237703   7.236   0.921   1.736  0.4112  0.5476 -0.1721
12594TIP3    H137704   7.194   0.937   1.821  1.8818 -0.7419  0.8444
12594TIP3    H237705   7.244   0.826   1.730 -1.8202  0.3727 -2.9058
12595TIP3   OH237706   2.219   4.065   2.159 -0.0424 -0.2982  0.2692
12595TIP3    H137707   2.164   3.998   2.119  0.5282 -0.0191 -1.0385
12595TIP3    H237708   2.250   4.025   2.240  0.9759 -1.9721 -0.8829
12596TIP3   OH237709   7.267   4.266   2.854  0.8018 -0.2089 -0.3308
12596TIP3    H137710   7.218   4.338   2.892  1.3745  0.7353 -1.3244
12596TIP3    H237711   7.203   4.196   2.841  0.0385  0.4672 -0.2236
12597TIP3   OH237712   8.014   0.972   5.188  0.2312  0.2877  0.6279
12597TIP3    H137713   8.022   0.992   5.281  1.7604  0.4187  0.5048
12597TIP3    H237714   8.076   0.900   5.174 -0.1170  0.1433 -0.2485
12598TIP3   OH237715   5.904   4.045   3.655  0.7352 -0.4536  0.3176
12598TIP3    H137716   5.919   4.029   3.562  0.2380 -1.6936  0.4256
12598TIP3    H237717   5.819   4.003   3.672 -0.1287  1.4395  0.9127
12599TIP3   OH237718   2.667   7.395   5.927 -0.5900  0.0483  0.2137
12599TIP3    H137719   2.721   7.467   5.894 -1.4096  0.4181 -0.3528
12599TIP3    H237720   2.681   7.396   6.022  0.4099  0.1160  0.0721
12600TIP3   OH237721   0.050   0.876   0.500 -0.3181 -0.2217  0.1430
12600TIP3    H137722   0.059   0.792   0.456 -1.0941 -0.9332  1.3016
12600TIP3    H237723  -0.044   0.884   0.518  0.1111 -0.7586  3.1051
12601TIP3   OH237724   3.057   2.981   5.335  0.7148  0.2329  0.0106
12601TIP3    H137725   2.989   3.045   5.315  0.6889 -0.2384 -1.5694
12601TIP3    H237726   3.096   3.011   5.417 -0.4522  1.2866  0.1973
12602TIP3   OH237727   7.436   5.688   0.417  0.4063 -0.0766 -0.6029
12602TIP3    H137728   7.452   5.670   0.510 -0.0095  2.3521 -0.0096
12602TIP3    H237729   7.521   5.718   0.384 -0.3480  3.3437  0.1693
12603TIP3   OH237730   0.486   4.368   1.182 -0.1620  0.3150 -0.2822
12603TIP3    H137731   0.505   4.350   1.089  3.6833 -0.3936  0.4554
12603TIP3    H237732   0.427   4.298   1.208  2.1125 -2.1140 -1.2554
12604TIP3   OH237733   3.049   7.002   0.699 -0.1565  0.2827  0.2106
12604TIP3    H137734   3.096   7.009   0.782  1.8732 -2.2590 -0.6136
12604TIP3    H237735   2.986   6.931   0.713 -0.2777  0.3051 -0.2155
12605TIP3   OH237736   6.737   7.335   4.891  0.3478  0.0595  0.3245
12605TIP3    H137737   6.736   7.246   4.926 -0.7875  0.8486  2.4324
12605TIP3    H237738   6.728   7.391   4.968  0.5011  1.9963 -1.0090
12606TIP3   OH237739   3.594   4.600   6.618 -0.0987 -0.4164 -0.0486
12606TIP3    H137740   3.641   4.644   6.547  0.6179 -0.2251  0.5392
12606TIP3    H237741   3.509   4.643   6.620  0.5328  0.8602  0.4083
12607TIP3   OH237742   5.357   5.542   0.768  0.5474 -0.2194  0.4381
12607TIP3    H137743   5.297   5.595   0.715  1.6068 -0.5060 -1.1126
12607TIP3    H237744   5.347   5.576   0.857 -0.1715  1.3116 -0.1897
12608TIP3   OH237745   8.349   2.016   2.087 -0.2751 -0.2704 -0.2904
12608TIP3    H137746   8.413   2.050   2.150 -1.4990  1.2641  0.1904
12608TIP3    H237747   8.273   1.992   2.141 -0.5177 -1.0411 -0.9618
12609TIP3   OH237748   1.196   3.869   5.697 -0.6346 -0.6801 -0.0144
12609TIP3    H137749   1.221   3.919   5.620 -0.8248 -1.6474 -0.7187
12609TIP3    H237750   1.103   3.886   5.708 -0.3169  0.6430  0.9125
12610TIP3   OH237751   2.982   1.622   0.301 -0.1787  0.0151 -0.5613
12610TIP3    H137752   3.073   1.649   0.313 -0.0042 -0.9365  0.4150
12610TIP3    H237753   2.985   1.526   0.302 -1.1105 -0.0344 -1.2075
12611TIP3   OH237754   0.640   7.175   1.265  0.5228  0.3392  0.4444
12611TIP3    H137755   0.697   7.186   1.188 -0.1046  0.5207 -0.0042
12611TIP3    H237756   0.596   7.091   1.250 -0.7435  1.0899 -0.1695
12612TIP3   OH237757   0.645   6.115   5.921  0.2200  0.4119  0.2489
12612TIP3    H137758   0.709   6.178   5.954  0.2185 -0.8762  3.0293
12612TIP3    H237759   0.568   6.127   5.977 -1.4788  0.9034 -2.0580
12613TIP3   OH237760   4.748   6.629   2.659  0.0195  0.7546  0.1423
12613TIP3    H137761   4.836   6.652   2.629  0.3989 -0.7427  0.0608
12613TIP3    H237762   4.719   6.706   2.709  2.6542  0.1358  2.9282
12614TIP3   OH237763   2.981   1.645   3.341 -0.4020  0.2162  0.0620
12614TIP3    H137764   3.043   1.596   3.287 -1.0332 -0.5154 -0.0179
12614TIP3    H237765   3.012   1.632   3.431 -0.9616 -0.9236  0.0989
12615TIP3   OH237766   7.582   0.481   5.685  0.4825  0.1022 -0.4201
12615TIP3    H137767   7.653   0.516   5.632  1.8641 -2.1327 -0.1475
12615TIP3    H237768   7.620   0.472   5.772  0.1998 -1.9313 -0.4637
12616TIP3   OH237769   7.930   0.501   3.073  0.5437 -0.5603 -0.2883
12616TIP3    H137770   7.887   0.464   2.996  1.0744  0.7149 -1.2289
12616TIP3    H237771   8.023   0.502   3.051  0.6052  0.7177 -0.0464
12617TIP3   OH237772   5.221   2.040   3.249  0.2543  0.1144  0.2029
12617TIP3    H137773   5.135   1.998   3.253  0.0046  0.4612 -0.9888
12617TIP3    H237774   5.204   2.127   3.214  0.9594  0.6544  1.1370
12618TIP3   OH237775   8.588   6.965   4.982  0.3662  0.9203 -0.3890
12618TIP3    H137776   8.547   6.985   4.897 -1.3744  0.2600  0.2601
12618TIP3    H237777   8.677   6.998   4.973  0.6827 -0.4164 -2.9964
12619TIP3   OH237778   0.143   6.151   5.771 -0.5145  0.1831 -0.6167
12619TIP3    H137779   0.117   6.146   5.863  1.3558 -1.0461 -0.0912
12619TIP3    H237780   0.124   6.065   5.736  1.2224 -0.2470 -0.6149
12620TIP3   OH237781   7.233   7.471   1.166  0.0656  0.3781  0.0348
12620TIP3    H137782   7.232   7.379   1.190  1.8443 -0.1783 -1.7889
12620TIP3    H237783   7.243   7.517   1.250  1.8538 -1.2325  0.7794
12621TIP3   OH237784   7.761   4.127   6.131 -0.3963  0.5787  0.6647
12621TIP3    H137785   7.836   4.092   6.179  1.7560  2.2496 -1.2432
12621TIP3    H237786   7.733   4.055   6.075  0.0439  0.0609  1.0984
12622TIP3   OH237787   5.440   1.982   1.476  0.0812 -0.4001  0.2738
12622TIP3    H137788   5.524   2.022   1.454 -0.2027  0.4025  0.6118
12622TIP3    H237789   5.385   1.997   1.399 -0.2583  0.5596  0.6787
12623TIP3   OH237790   7.745   4.382   3.504 -0.8608 -0.5333 -1.1626
12623TIP3    H137791   7.747   4.467   3.458 -2.4109 -0.2805 -0.8434
12623TIP3    H237792   7.747   4.317   3.434  0.4910 -0.2474 -1.4059
12624TIP3   OH237793   4.018   5.130   4.821  0.5463  0.0523 -0.2761
12624TIP3    H137794   4.069   5.073   4.763 -0.1144 -2.2337  1.2266
12624TIP3    H237795   4.077   5.201   4.843  1.4435 -0.0248 -2.2211
12625TIP3   OH237796   1.234   1.101   7.065 -0.0647  0.0101  0.0327
12625TIP3    H137797   1.198   1.095   6.977  0.4267 -0.8777 -0.1203
12625TIP3    H237798   1.262   1.192   7.074  0.5041 -0.0564 -0.9784
12626TIP3   OH237799   2.846   7.043   2.265 -0.2465 -0.2862 -0.9430
12626TIP3    H137800   2.840   7.011   2.175  0.4952  1.5205 -1.6749
12626TIP3    H237801   2.901   7.121   2.259 -0.4433  0.0528  1.0400
12627TIP3   OH237802   7.676   2.661   3.451 -0.5211 -0.2269  0.1396
12627TIP3    H137803   7.711   2.642   3.538  1.9541 -1.2537 -0.9918
12627TIP3    H237804   7.628   2.581   3.426 -1.7999  0.3134  0.7666
12628TIP3   OH237805   3.749   2.849   5.069  0.0735  0.0093 -0.3202
12628TIP3    H137806   3.843   2.866   5.063 -0.0196  1.1209  0.8350
12628TIP3    H237807   3.740   2.789   5.143 -0.1845  0.5653  0.1061
12629TIP3   OH237808   0.929   7.583   3.497 -0.3235  0.0607 -0.1646
12629TIP3    H137809   0.979   7.657   3.533  0.3955 -0.2614 -0.4899
12629TIP3    H237810   0.841   7.594   3.534 -0.2741  1.1728 -0.3360
12630TIP3   OH237811   8.540   7.842   0.086  0.6448 -0.5483 -0.2574
12630TIP3    H137812   8.617   7.884   0.047  1.0620  0.8725  1.8877
12630TIP3    H237813   8.565   7.828   0.178 -1.0793 -1.5770  0.0951
12631TIP3   OH237814   6.920   0.095   2.294  0.3482  0.7479 -0.1560
12631TIP3    H137815   6.849   0.070   2.235  1.4132 -2.1527 -0.4229
12631TIP3    H237816   6.878   0.108   2.379 -0.4806 -1.9944 -0.0451
12632TIP3   OH237817   5.269   4.244   1.156  0.5758 -1.0425 -0.1088
12632TIP3    H137818   5.197   4.254   1.093  1.6437 -1.8762 -1.5190
12632TIP3    H237819   5.230   4.270   1.240 -0.6689  0.9732 -1.2032
12633TIP3   OH237820   4.598   4.752   1.966 -0.6256  0.0687 -0.0963
12633TIP3    H137821   4.652   4.815   1.919 -0.7154  0.1902 -0.0392
12633TIP3    H237822   4.652   4.723   2.039 -0.0717 -0.9641 -0.9073
12634TIP3   OH237823   5.290   5.237   1.605 -0.4342 -0.4109 -0.4730
12634TIP3    H137824   5.258   5.313   1.654  1.0949 -0.6266  0.9728
12634TIP3    H237825   5.286   5.264   1.513 -0.1114  1.3721 -0.0100
12635TIP3   OH237826   5.594   2.689   5.624 -0.6058 -0.5138 -0.4548
12635TIP3    H137827   5.590   2.648   5.537 -1.2858 -2.3176  0.3853
12635TIP3    H237828   5.503   2.690   5.654 -0.2196 -1.0383  0.7481
12636TIP3   OH237829   2.436   2.810   4.581 -0.3416  0.2673 -0.0074
12636TIP3    H137830   2.405   2.744   4.518  1.2176  0.8062 -1.4359
12636TIP3    H237831   2.381   2.798   4.658 -1.0051 -1.7887 -0.7332
12637TIP3   OH237832   7.976   6.578   4.152 -0.2672 -0.4505  0.0663
12637TIP3    H137833   7.929   6.593   4.234  1.3873  3.5544  0.4889
12637TIP3    H237834   8.051   6.524   4.177  0.8260  1.6237  1.5482
12638TIP3   OH237835   6.525   8.121   7.093 -0.4334  0.0915  0.1464
12638TIP3    H137836   6.429   8.114   7.094 -0.5115  0.7976 -0.6713
12638TIP3    H237837   6.554   8.042   7.048 -0.8011  0.9457 -1.7169
12639TIP3   OH237838   5.607   6.825   5.446 -0.3894  0.6881  0.4117
12639TIP3    H137839   5.602   6.791   5.357 -0.0965  0.9084  0.3073
12639TIP3    H237840   5.516   6.832   5.475 -0.5500  1.5677 -0.2399
12640TIP3   OH237841   5.348   2.108   1.222  0.4521  0.3311  0.1713
12640TIP3    H137842   5.406   2.175   1.187 -0.3832  1.4592  0.8749
12640TIP3    H237843   5.260   2.142   1.207 -0.0457 -1.1792 -0.5434
12641TIP3   OH237844   3.220   0.646   2.466  0.2217 -0.0634  0.9800
12641TIP3    H137845   3.132   0.673   2.493  0.1479  0.6369  0.0887
12641TIP3    H237846   3.269   0.728   2.461  1.0262 -0.4882  1.8015
12642TIP3   OH237847   6.339   4.569   1.719 -0.4558 -0.3003  0.1603
12642TIP3    H137848   6.351   4.544   1.627  0.1310 -1.0924  0.4428
12642TIP3    H237849   6.282   4.646   1.716 -0.9927 -0.7210 -0.8316
12643TIP3   OH237850   3.359   1.059   1.342 -0.3913  0.5314  0.1357
12643TIP3    H137851   3.451   1.083   1.347  0.1374 -1.2861 -0.1837
12643TIP3    H237852   3.316   1.114   1.407  1.1343  0.4917  1.2201
12644TIP3   OH237853   3.056   1.443   6.389 -0.2100 -0.3106  0.1554
12644TIP3    H137854   3.101   1.374   6.437  1.3148  1.5293  1.5079
12644TIP3    H237855   2.997   1.396   6.330  0.3564 -2.7350  1.3805
12645TIP3   OH237856   2.207   5.310   3.483 -0.3650 -0.1148  0.0092
12645TIP3    H137857   2.168   5.290   3.397 -1.0532  2.9071 -0.4913
12645TIP3    H237858   2.140   5.285   3.546 -0.3354 -1.2331 -0.3743
12646TIP3   OH237859   0.576   2.719   6.326  0.5428 -0.1795  0.3861
12646TIP3    H137860   0.608   2.644   6.375  0.5448 -0.8343 -0.5853
12646TIP3    H237861   0.567   2.687   6.236 -2.3395  0.1119  0.4896
12647TIP3   OH237862   8.250   2.659   1.520 -0.3089  0.0730 -0.1899
12647TIP3    H137863   8.293   2.574   1.520 -1.5938 -0.6619  2.2030
12647TIP3    H237864   8.168   2.644   1.473 -0.0052  0.3362 -0.8247
12648TIP3   OH237865   7.832   7.984   5.451  0.1131 -0.3079  0.0893
12648TIP3    H137866   7.768   7.914   5.443 -0.4614  0.3250 -1.0386
12648TIP3    H237867   7.781   8.065   5.448  0.8476  0.1805  0.4294
12649TIP3   OH237868   1.274   3.296   5.989  0.0961  0.1148  0.0581
12649TIP3    H137869   1.367   3.293   6.014 -0.1928 -3.7793  1.2943
12649TIP3    H237870   1.271   3.251   5.904 -0.5411  1.6303 -0.7625
12650TIP3   OH237871   5.535   0.352   1.759 -0.2381  0.2271 -0.0945
12650TIP3    H137872   5.592   0.292   1.711  2.1059  1.2898  1.1609
12650TIP3    H237873   5.463   0.370   1.699  0.0851 -2.1239 -1.3126
12651TIP3   OH237874   1.304   4.758   1.661  0.0633  0.1742  0.3278
12651TIP3    H137875   1.296   4.789   1.751  0.4828  0.9368  0.1094
12651TIP3    H237876   1.248   4.816   1.610  1.1370  0.8381 -0.1364
12652TIP3   OH237877   1.744   4.960   4.406  0.6405  0.3212 -0.4407
12652TIP3    H137878   1.667   4.915   4.372  0.5825 -0.1123  0.2383
12652TIP3    H237879   1.783   4.896   4.466  1.3175  0.6783 -0.4945
12653TIP3   OH237880   1.745   5.421   1.415  0.7618  0.5103  0.1435
12653TIP3    H137881   1.748   5.449   1.507  0.9894  0.2922  0.2038
12653TIP3    H237882   1.831   5.444   1.380  1.0177 -0.2624  0.2413
12654TIP3   OH237883   2.476   1.441   0.437  0.0214  0.1340  0.3338
12654TIP3    H137884   2.421   1.364   0.445 -0.3829  0.5441  1.6950
12654TIP3    H237885   2.418   1.508   0.401 -0.5690  0.7169  2.2616
12655TIP3   OH237886   1.229  -0.002   3.393 -0.4241 -0.1185  0.8420
12655TIP3    H137887   1.161   0.065   3.399 -1.8637 -1.3337 -0.8633
12655TIP3    H237888   1.273   0.015   3.310 -1.2029 -1.5507  0.0818
12656TIP3   OH237889   0.468   3.912   3.457 -0.4855 -0.0808  0.5343
12656TIP3    H137890   0.556   3.882   3.481 -0.4441  0.8438  1.6330
12656TIP3    H237891   0.482   3.971   3.384 -0.5425 -2.3822 -1.4846
12657TIP3   OH237892   2.645   2.158   5.136  0.3451 -0.5681 -0.1740
12657TIP3    H137893   2.552   2.159   5.111  0.3930 -2.4423 -0.6262
12657TIP3    H237894   2.645   2.157   5.231 -0.0505  0.4212 -0.1532
12658TIP3   OH237895   5.555   1.257   3.532  1.0222  0.9634  0.6452
12658TIP3    H137896   5.631   1.201   3.516  0.2130  0.2944 -1.1753
12658TIP3    H237897   5.579   1.341   3.494 -0.2584 -0.1553 -3.1016
12659TIP3   OH237898   3.007   7.511   0.459 -0.2517  0.3469  0.1117
12659TIP3    H137899   2.981   7.603   0.465  0.4026  0.5329  0.1052
12659TIP3    H237900   2.999   7.490   0.366 -0.8979  0.2460  0.1847
12660TIP3   OH237901   7.676   1.235   5.204 -0.0680  0.8529  0.4989
12660TIP3    H137902   7.616   1.252   5.131  1.2453  1.0686 -0.5571
12660TIP3    H237903   7.629   1.268   5.281 -2.5370 -1.5531  0.1828
12661TIP3   OH237904   0.127   1.819   5.527 -0.6504 -0.2563 -0.4648
12661TIP3    H137905   0.209   1.833   5.574  0.1729  0.4172 -2.0211
12661TIP3    H237906   0.063   1.872   5.574  0.0567  0.1147  0.0981
12662TIP3   OH237907   3.670   7.952   4.640 -0.5181 -0.4040  0.2289
12662TIP3    H137908   3.726   7.943   4.562  1.5804  2.1072  1.2735
12662TIP3    H237909   3.717   7.905   4.709 -0.0555  1.0206  0.9264
12663TIP3   OH237910   0.772   7.026   1.585 -0.4781  0.1046  0.4884
12663TIP3    H137911   0.820   7.009   1.504 -0.3659 -0.4904  0.6729
12663TIP3    H237912   0.708   6.955   1.589 -0.3312  0.0037  1.0336
12664TIP3   OH237913   4.428   0.064   5.478  0.0367  0.0942 -0.4728
12664TIP3    H137914   4.460   0.131   5.539  0.2535 -2.7236  2.7872
12664TIP3    H237915   4.507   0.018   5.450 -0.3250 -0.4824 -0.5522
12665TIP3   OH237916   4.859   0.052   6.368  0.0765  0.2835 -0.1900
12665TIP3    H137917   4.952   0.035   6.357  0.0345 -1.1051  1.2406
12665TIP3    H237918   4.819  -0.035   6.364 -1.2778  0.9120 -1.5490
12666TIP3   OH237919   1.733   5.546   6.437  0.1208 -0.0559 -0.3353
12666TIP3    H137920   1.689   5.564   6.354 -0.6239 -1.6534 -0.3111
12666TIP3    H237921   1.741   5.451   6.441  0.4221 -0.0015  1.2918
12667TIP3   OH237922   4.250   1.292   6.970  0.0959 -0.1400 -0.6970
12667TIP3    H137923   4.308   1.229   7.013  0.2307  0.1407 -0.4643
12667TIP3    H237924   4.281   1.293   6.879  0.9093  0.5129 -0.4254
12668TIP3   OH237925   1.670   4.458   0.951  0.1767 -0.0520  0.6591
12668TIP3    H137926   1.611   4.436   1.023 -0.8298  1.2370  0.2762
12668TIP3    H237927   1.728   4.383   0.943 -0.5532 -0.7832  1.9406
12669TIP3   OH237928   4.533   2.842   2.065 -0.9680  0.4268 -0.1580
12669TIP3    H137929   4.511   2.836   1.972  2.9751  0.7244 -1.3198
12669TIP3    H237930   4.547   2.752   2.092  0.6491  0.4409 -0.7794
12670TIP3   OH237931   6.963   2.263   2.260  0.1373  0.3396  0.0294
12670TIP3    H137932   6.924   2.261   2.173  0.6788  0.2113 -0.2132
12670TIP3    H237933   7.056   2.248   2.245  0.3411  1.0268  0.5637
12671TIP3   OH237934   2.917   5.441   6.844  0.2297  0.0026 -0.6162
12671TIP3    H137935   2.885   5.417   6.931  0.5034  2.4599  0.2397
12671TIP3    H237936   2.978   5.371   6.821  0.9431 -0.1974  1.6233
12672TIP3   OH237937   7.760   3.880   0.700  0.3521 -0.3154 -0.2218
12672TIP3    H137938   7.740   3.787   0.708  0.5049 -0.3000  0.3292
12672TIP3    H237939   7.733   3.919   0.783 -0.5492  0.2895 -0.7724
12673TIP3   OH237940   3.057   7.845   5.767  0.4276  0.1822 -0.1697
12673TIP3    H137941   3.090   7.760   5.739  2.0341  0.5817  0.3805
12673TIP3    H237942   2.962   7.834   5.773  0.6513 -1.7174  0.4173
12674TIP3   OH237943   1.800   4.662   4.872 -0.1701 -0.2588  0.1262
12674TIP3    H137944   1.861   4.588   4.874 -0.0409 -0.1461  0.5095
12674TIP3    H237945   1.714   4.621   4.871 -0.0977 -0.4203  0.2815
12675TIP3   OH237946   4.896   6.631   3.673 -0.1668  0.1700 -0.5220
12675TIP3    H137947   4.896   6.551   3.726  0.9910 -0.5338 -1.5183
12675TIP3    H237948   4.937   6.697   3.728  0.4503 -0.3858 -0.3070
12676TIP3   OH237949   6.231   7.742   5.997  0.3051 -0.5338 -0.2322
12676TIP3    H137950   6.205   7.794   6.073  0.8845 -1.3418  0.5436
12676TIP3    H237951   6.149   7.705   5.964 -0.0317  0.3542 -0.4162
12677TIP3   OH237952   3.695   0.151   1.558  0.3235  0.3189 -0.3890
12677TIP3    H137953   3.628   0.159   1.490  0.1791  3.1990 -0.0506
12677TIP3    H237954   3.687   0.231   1.610  1.8693 -0.7734  1.7159
12678TIP3   OH237955   3.356   8.047   0.877 -0.3010 -0.3734  0.1600
12678TIP3    H137956   3.401   8.100   0.810 -0.0108 -0.2343  0.4639
12678TIP3    H237957   3.264   8.076   0.872 -0.2702 -0.3178 -0.1315
12679TIP3   OH237958   2.335   6.655   1.885  0.2098 -0.1831  0.0580
12679TIP3    H137959   2.263   6.672   1.946 -0.7690 -0.3232 -1.0194
12679TIP3    H237960   2.413   6.683   1.931 -0.4921 -0.4149  1.4282
12680TIP3   OH237961   8.017   5.963   6.939 -0.2802  0.1385 -0.4744
12680TIP3    H137962   8.041   5.903   6.869  1.1169 -0.6712  0.6438
12680TIP3    H237963   8.093   6.019   6.951 -1.2736  1.6638 -0.9657
12681TIP3   OH237964   7.391   1.190   1.954 -0.0009  0.7016 -0.1283
12681TIP3    H137965   7.297   1.201   1.945  0.1652  0.8002 -2.1682
12681TIP3    H237966   7.402   1.100   1.984 -0.7115 -0.0358 -1.9264
12682TIP3   OH237967   8.700   0.756   6.470 -0.1116 -0.1737  0.0366
12682TIP3    H137968   8.660   0.684   6.518 -1.1747  1.2778  1.4264
12682TIP3    H237969   8.637   0.827   6.475  0.1224  0.3605 -2.8194
12683TIP3   OH237970   5.833   6.626   2.431  0.4216  0.3443  0.2553
12683TIP3    H137971   5.774   6.689   2.470  1.6300  1.7062 -0.0424
12683TIP3    H237972   5.833   6.648   2.338  0.4458 -0.4551  0.0577
12684TIP3   OH237973   5.648   4.839   5.639  0.0918  0.1926  0.1807
12684TIP3    H137974   5.719   4.904   5.643 -0.3572  0.6794  0.2724
12684TIP3    H237975   5.675   4.780   5.568  0.7618  0.1658  0.4437
12685TIP3   OH237976   3.286   1.080   6.311 -0.0523  0.7341  0.1468
12685TIP3    H137977   3.220   1.097   6.244  0.4351 -0.3234 -0.6411
12685TIP3    H237978   3.361   1.045   6.263 -0.1041 -1.1813  1.3269
12686TIP3   OH237979   6.401   4.558   2.678  0.1500  0.6090  0.4442
12686TIP3    H137980   6.427   4.528   2.591  0.6802  1.4991  0.2798
12686TIP3    H237981   6.305   4.568   2.672  0.0447 -0.3776  0.3097
12687TIP3   OH237982   5.277   6.376   2.935  0.5578 -0.3561  0.0097
12687TIP3    H137983   5.252   6.393   2.845 -0.5045 -2.4924 -0.1674
12687TIP3    H237984   5.299   6.462   2.971 -1.7259  0.9496 -1.4783
12688TIP3   OH237985   8.286   0.397   0.970 -0.6278  0.3108  0.0110
12688TIP3    H137986   8.242   0.321   0.931 -0.0017 -0.2030  0.2775
12688TIP3    H237987   8.242   0.411   1.053 -1.9597  1.3995 -0.8444
12689TIP3   OH237988   5.944   0.445   1.252  0.1976 -0.4144 -0.0130
12689TIP3    H137989   5.888   0.399   1.315 -0.6426  2.8922  1.9156
12689TIP3    H237990   6.023   0.466   1.302  0.9792 -0.6108 -1.1473
12690TIP3   OH237991   0.717   7.711   5.806  0.0651  0.4405  0.0173
12690TIP3    H137992   0.666   7.708   5.725  1.0875  1.0692 -0.6733
12690TIP3    H237993   0.669   7.773   5.862  0.1304  1.1172 -0.6639
12691TIP3   OH237994   2.923   2.433   0.210 -0.0037  0.0421 -0.4805
12691TIP3    H137995   2.950   2.514   0.251 -0.6955 -0.8777  1.9707
12691TIP3    H237996   3.004   2.395   0.175  0.1968  2.1530 -2.5930
12692TIP3   OH237997   6.933   7.602   3.731  0.1771  0.0111  0.6292
12692TIP3    H137998   6.874   7.595   3.656  0.8254  0.9284  0.0168
12692TIP3    H237999   6.970   7.690   3.725 -1.0188  0.7571  3.0043
12693TIP3   OH238000   3.175   3.458   6.145 -0.6417 -0.0569 -0.0805
12693TIP3    H138001   3.259   3.470   6.100 -0.2863  0.9864  0.8275
12693TIP3    H238002   3.112   3.446   6.074  0.3366 -1.3913 -0.7656
12694TIP3   OH238003   5.908   5.052   2.310 -0.2551  0.4065 -0.2982
12694TIP3    H138004   5.822   5.094   2.311 -0.4050  0.2084  2.3008
12694TIP3    H238005   5.888   4.959   2.322  0.3054  0.4116  0.7869
12695TIP3   OH238006   8.008   1.432   2.799 -0.1071 -0.5063  0.1184
12695TIP3    H138007   7.941   1.366   2.779 -2.5731  1.6077  0.8445
12695TIP3    H238008   7.991   1.457   2.889  1.2617  0.5945  0.1006
12696TIP3   OH238009   7.569   0.930   6.328  0.1494 -0.2338 -0.4776
12696TIP3    H138010   7.578   0.898   6.238 -1.1034  0.7900 -0.9892
12696TIP3    H238011   7.555   1.024   6.319  2.4252  0.3256  0.9430
12697TIP3   OH238012   0.490   0.231   3.624  0.5503  0.2847  0.6852
12697TIP3    H138013   0.506   0.142   3.594 -0.3940  0.5401 -0.6955
12697TIP3    H238014   0.577   0.267   3.641  1.0007 -0.5882  0.2636
12698TIP3   OH238015   6.408   3.399   0.204 -0.0593  0.2818 -0.2201
12698TIP3    H138016   6.440   3.486   0.228  0.8902  0.5008 -2.1119
12698TIP3    H238017   6.325   3.390   0.251  1.2811  0.9263  2.4658
12699TIP3   OH238018   5.911   5.082   0.286 -0.4838 -0.3254 -0.1584
12699TIP3    H138019   5.874   4.998   0.262 -0.5107 -0.2201 -0.4941
12699TIP3    H238020   5.928   5.075   0.380 -0.5139 -0.6910 -0.1791
12700TIP3   OH238021   0.552   6.468   6.248 -0.2130 -0.4308  0.2308
12700TIP3    H138022   0.471   6.517   6.234 -1.4212 -1.9271  1.6444
12700TIP3    H238023   0.550   6.398   6.183 -0.2097 -0.6566  0.4729
12701TIP3   OH238024   7.676   3.521   3.848  0.3884 -0.3029 -0.3304
12701TIP3    H138025   7.619   3.596   3.830 -1.5767 -1.8681 -1.0141
12701TIP3    H238026   7.700   3.531   3.940 -0.7191  0.5926 -0.1116
12702TIP3   OH238027   4.502   2.533   1.337 -0.1475 -1.0562 -0.2749
12702TIP3    H138028   4.576   2.472   1.329 -0.1317 -1.1784  0.6790
12702TIP3    H238029   4.452   2.500   1.411 -0.5570 -0.3396 -0.2278
12703TIP3   OH238030   6.058   4.658   4.372 -0.1226 -0.3318 -0.9077
12703TIP3    H138031   6.028   4.588   4.314 -1.8479 -1.3523  1.0693
12703TIP3    H238032   6.014   4.736   4.339 -0.1728 -0.6496 -1.6309
12704TIP3   OH238033   4.912   3.848   0.350  0.1034  0.6066  0.0779
12704TIP3    H138034   4.840   3.789   0.326  1.4520 -0.2596 -2.1543
12704TIP3    H238035   4.875   3.936   0.341 -0.6907  0.1792 -1.1535
12705TIP3   OH238036   2.256   3.502   4.095  0.0532 -0.1009  0.3632
12705TIP3    H138037   2.334   3.448   4.108 -0.0605 -0.2783  0.3153
12705TIP3    H238038   2.282   3.589   4.123  0.8595  0.2614 -1.3642
12706TIP3   OH238039   7.594   0.376   6.919 -0.4947 -0.0180 -0.0818
12706TIP3    H138040   7.580   0.410   6.831 -1.1216  0.4628  0.1949
12706TIP3    H238041   7.510   0.391   6.964  0.8873  3.2841  1.7643
12707TIP3   OH238042   7.145   2.614   1.684 -0.0570  0.2959 -0.8323
12707TIP3    H138043   7.128   2.544   1.747 -0.5478 -2.1456 -3.4488
12707TIP3    H238044   7.089   2.686   1.712  0.9990  0.0223  2.3951
12708TIP3   OH238045   0.539   5.735   2.984 -0.1115  0.2538 -0.0816
12708TIP3    H138046   0.468   5.683   2.944  0.1132  0.1196 -0.3064
12708TIP3    H238047   0.607   5.738   2.917  0.1256  0.3251  0.1623
12709TIP3   OH238048   6.078   4.297   0.706  0.1706 -0.2418 -0.2155
12709TIP3    H138049   6.074   4.276   0.612  2.1858 -0.9822 -0.1920
12709TIP3    H238050   6.143   4.367   0.712  1.2674 -1.2999  0.7551
12710TIP3   OH238051   1.390   1.637   2.664 -0.4700  0.2201  0.1142
12710TIP3    H138052   1.327   1.566   2.668 -1.3584  0.9962  0.1310
12710TIP3    H238053   1.368   1.685   2.585  0.6038  0.0484 -0.3020
12711TIP3   OH238054   6.967   6.745   6.583  0.3888  0.6109 -0.6939
12711TIP3    H138055   6.883   6.750   6.628 -0.5174 -3.0064 -1.6619
12711TIP3    H238056   7.030   6.783   6.645 -1.4326  0.0569  1.6246
12712TIP3   OH238057   7.914   7.096   1.964  0.1471 -0.4289 -0.4542
12712TIP3    H138058   7.848   7.165   1.966  1.5415  0.9529 -0.7545
12712TIP3    H238059   7.979   7.122   2.030  0.6332 -1.5289 -0.4678
12713TIP3   OH238060   3.147   2.585   1.858 -0.1158 -0.0808  0.1087
12713TIP3    H138061   3.220   2.539   1.898 -0.8810  0.0683  1.7808
12713TIP3    H238062   3.155   2.567   1.765  1.7470 -0.4668  0.3097
12714TIP3   OH238063   1.520   3.389   1.514  0.4006  0.4534  0.1932
12714TIP3    H138064   1.591   3.337   1.550 -0.2526 -1.0672 -0.5906
12714TIP3    H238065   1.558   3.432   1.437  0.5191 -0.1983 -0.1127
12715TIP3   OH238066   5.917   6.765   3.804 -0.3906 -0.3166  0.0436
12715TIP3    H138067   5.964   6.700   3.751 -0.6647 -0.5812  0.1230
12715TIP3    H238068   5.854   6.714   3.855 -0.5946  0.0089  0.1220
12716TIP3   OH238069   7.771   6.941   6.309 -0.1382  0.3005 -0.1806
12716TIP3    H138070   7.704   6.960   6.243 -0.0060  1.6408  0.0504
12716TIP3    H238071   7.741   6.988   6.388  1.1525  1.0763 -0.1278
12717TIP3   OH238072   4.861   2.993   0.278 -0.4653 -0.3892 -0.8649
12717TIP3    H138073   4.954   3.011   0.268 -0.9077  1.5090 -2.1806
12717TIP3    H238074   4.848   2.984   0.372  0.8140  0.7488 -0.5574
12718TIP3   OH238075   4.187   3.332   2.764  0.3929  0.2679 -0.3584
12718TIP3    H138076   4.130   3.292   2.699  0.0077  2.1526 -1.2419
12718TIP3    H238077   4.191   3.268   2.835 -2.3088 -0.1989 -0.5438
12719TIP3   OH238078   8.246   5.917   1.584  0.0436 -0.0320 -0.0869
12719TIP3    H138079   8.262   5.953   1.671  2.1287  0.3168 -0.5686
12719TIP3    H238080   8.151   5.901   1.582 -0.1853  0.7656  1.9080
12720TIP3   OH238081   5.877   3.553   6.820 -0.7801 -0.0790  0.0361
12720TIP3    H138082   5.851   3.463   6.838  0.7636 -0.3839  0.9043
12720TIP3    H238083   5.945   3.572   6.885 -0.4861  1.4242 -0.6713
12721TIP3   OH238084   7.622   2.148   3.732  0.2955  0.3731  0.3036
12721TIP3    H138085   7.662   2.134   3.817 -0.3149 -1.7731  0.2847
12721TIP3    H238086   7.666   2.086   3.674 -1.6238 -0.6310 -0.1559
12722TIP3   OH238087   4.658   2.610   6.881  0.2005 -0.0452  0.6022
12722TIP3    H138088   4.582   2.577   6.832  0.9011  0.8969 -1.2193
12722TIP3    H238089   4.732   2.565   6.841  0.7148  0.0093  1.4917
12723TIP3   OH238090   7.296   6.907   1.686  0.1727  0.1491  0.1184
12723TIP3    H138091   7.261   6.822   1.660 -1.8922  1.3007 -1.1840
12723TIP3    H238092   7.232   6.942   1.748  1.6441  0.2774  1.6456
12724TIP3   OH238093   8.284   4.528   5.753  0.7852  0.8065 -0.3543
12724TIP3    H138094   8.264   4.538   5.660  1.3194  1.1418 -0.4348
12724TIP3    H238095   8.364   4.475   5.754  0.0862 -0.2844 -0.0439
12725TIP3   OH238096   4.572   2.639   3.208  0.3986 -0.0373  0.3521
12725TIP3    H138097   4.511   2.627   3.135  0.6525 -1.3925  0.3303
12725TIP3    H238098   4.632   2.708   3.178  0.5868 -0.6688 -0.7947
12726TIP3   OH238099   7.122   5.252   4.793  0.2788  0.2727 -0.1395
12726TIP3    H138100   7.102   5.309   4.718  0.6075  0.7280  0.1153
12726TIP3    H238101   7.180   5.185   4.757 -0.2525 -0.0112 -0.4816
12727TIP3   OH238102   7.938   7.925   6.030 -0.5110 -0.4908  0.5814
12727TIP3    H138103   7.881   7.984   6.080 -0.7965  1.0966 -1.4763
12727TIP3    H238104   7.888   7.906   5.950  1.2433 -0.1966 -0.6418
12728TIP3   OH238105   1.423   5.127   1.663  0.0041 -0.0642 -0.2610
12728TIP3    H138106   1.350   5.071   1.693 -1.5738  1.0900 -1.7517
12728TIP3    H238107   1.466   5.075   1.595 -0.7381  0.0330 -0.8243
12729TIP3   OH238108   4.220   1.676   6.445 -0.1984 -0.1077  0.4609
12729TIP3    H138109   4.169   1.739   6.394 -0.8410  0.1678  1.4146
12729TIP3    H238110   4.311   1.689   6.416 -0.3884  0.9047  0.2872
12730TIP3   OH238111   0.769   2.361   3.845 -0.5439  0.0065  0.3247
12730TIP3    H138112   0.783   2.445   3.801  0.7028 -0.0457  0.5636
12730TIP3    H238113   0.743   2.384   3.934 -1.4539  0.1242  0.0326
12731TIP3   OH238114   6.909   5.188   4.427  0.3777 -1.0204 -0.4320
12731TIP3    H138115   6.846   5.137   4.377  0.6799 -0.5789 -1.3001
12731TIP3    H238116   6.994   5.152   4.401  0.4967 -1.8274  0.9669
12732TIP3   OH238117   0.979   0.735   6.779  0.7036 -0.0785  0.4650
12732TIP3    H138118   1.069   0.713   6.806  1.2719  0.0049 -1.2523
12732TIP3    H238119   0.964   0.822   6.818  0.5470 -0.9675  2.5186
12733TIP3   OH238120   1.703   6.286   5.913  0.0786  0.2335 -0.0085
12733TIP3    H138121   1.652   6.310   5.990  0.6873 -1.1298  0.8467
12733TIP3    H238122   1.639   6.247   5.853 -0.2961  0.7762  0.0284
12734TIP3   OH238123   3.410   6.793   5.443  0.2547 -0.6710  0.9182
12734TIP3    H138124   3.462   6.849   5.385 -2.5772  0.4860 -0.7367
12734TIP3    H238125   3.441   6.815   5.531 -0.5729  3.5870  0.3705
12735TIP3   OH238126   2.903   3.482   3.973  0.3405  0.0210  0.0608
12735TIP3    H138127   2.841   3.415   4.002  0.0054 -0.9829 -2.7320
12735TIP3    H238128   2.981   3.466   4.026  0.1074 -2.3177 -0.1795
12736TIP3   OH238129   4.618   7.372   4.057  0.2840 -0.4673 -0.4574
12736TIP3    H138130   4.703   7.409   4.080  0.8792 -0.9112 -1.7877
12736TIP3    H238131   4.631   7.335   3.970 -0.8552 -1.9550 -0.0397
12737TIP3   OH238132   1.154   2.257   0.799 -0.2631  0.1942 -0.4694
12737TIP3    H138133   1.147   2.216   0.885 -0.4887 -1.9663 -1.4608
12737TIP3    H238134   1.117   2.345   0.812  0.1683  0.1127  1.7204
12738TIP3   OH238135   1.092   7.984   2.968  0.2659 -0.6233  0.1613
12738TIP3    H138136   1.110   8.026   2.884 -1.0389 -0.3717 -0.0065
12738TIP3    H238137   1.018   7.925   2.951  0.4421 -1.1000  0.9740
12739TIP3   OH238138   4.306   3.438   3.591 -0.4916 -0.4834  0.2351
12739TIP3    H138139   4.319   3.533   3.582 -0.2022 -0.3947  1.4200
12739TIP3    H238140   4.320   3.404   3.503 -1.8303  0.7004 -0.4868
12740TIP3   OH238141   3.219   5.128   3.079  0.4101  0.3568 -0.0087
12740TIP3    H138142   3.295   5.183   3.096  1.4185 -0.5241 -1.3834
12740TIP3    H238143   3.244   5.041   3.111 -0.9598  0.5299  1.6721
12741TIP3   OH238144   7.291   7.698   2.108 -0.2769  0.4633  0.2049
12741TIP3    H138145   7.302   7.605   2.091 -0.2907  0.4793  0.1051
12741TIP3    H238146   7.372   7.724   2.152  0.3745  0.7149 -1.0831
12742TIP3   OH238147   1.631   1.120   6.533 -0.8014 -0.3516  0.0795
12742TIP3    H138148   1.567   1.161   6.475  0.4425 -0.3369 -1.3503
12742TIP3    H238149   1.693   1.077   6.474  1.8847  1.6595  1.2240
12743TIP3   OH238150   8.604   4.410   1.789  0.1863 -0.2328  0.2242
12743TIP3    H138151   8.594   4.315   1.784 -0.9239 -0.1161 -5.3638
12743TIP3    H238152   8.515   4.444   1.782  0.4923  1.4156  2.7878
12744TIP3   OH238153   6.915   6.250   4.044 -0.0414  0.8913 -0.5124
12744TIP3    H138154   6.988   6.254   4.105 -0.9399  0.5362  0.6161
12744TIP3    H238155   6.915   6.335   4.000  1.2937  0.7415 -0.8402
12745TIP3   OH238156   7.757   6.850   3.351  0.1581  0.1028  0.2866
12745TIP3    H138157   7.705   6.852   3.271 -0.9770 -0.0038  0.9945
12745TIP3    H238158   7.762   6.942   3.379 -1.2494 -0.0541  1.1816
12746TIP3   OH238159   7.065   7.507   4.180 -0.3769  0.0339  0.4971
12746TIP3    H138160   7.119   7.506   4.102  0.5212  0.5205  1.0927
12746TIP3    H238161   7.007   7.432   4.171  2.2948 -2.2490  1.1591
12747TIP3   OH238162   1.709   5.581   7.004  0.0668 -0.4695  0.1097
12747TIP3    H138163   1.716   5.543   6.917  0.5578  1.4257 -0.7234
12747TIP3    H238164   1.777   5.648   7.008  0.7756 -1.2235  2.3630
12748TIP3   OH238165   5.382   2.865   0.549  0.3173  0.5978  0.5302
12748TIP3    H138166   5.414   2.818   0.626  0.2003 -0.6715 -0.1673
12748TIP3    H238167   5.445   2.936   0.536  0.8970  0.2135  1.1861
12749TIP3   OH238168   1.121   3.203   6.444  0.3064  0.2631  0.3318
12749TIP3    H138169   1.041   3.252   6.463  0.5720  1.1156 -0.6404
12749TIP3    H238170   1.169   3.202   6.526 -0.2584  0.5829  0.6715
12750TIP3   OH238171   8.502   7.808   4.514 -0.0405  0.3646 -0.3080
12750TIP3    H138172   8.551   7.873   4.464 -0.0949  0.6308 -0.0181
12750TIP3    H238173   8.465   7.750   4.447  0.2435  0.4607 -0.5533
12751TIP3   OH238174   5.587   3.813   3.124 -0.4300  0.3504  0.4748
12751TIP3    H138175   5.568   3.758   3.200 -1.1785  0.0441  0.0815
12751TIP3    H238176   5.665   3.862   3.148 -0.7473  0.3742  1.4993
12752TIP3   OH238177   5.793   7.672   0.847  0.1722  0.0160 -0.3520
12752TIP3    H138178   5.782   7.585   0.809 -1.9910  0.2966 -0.4730
12752TIP3    H238179   5.787   7.731   0.772 -1.3537  0.4156  0.0648
12753TIP3   OH238180   5.957   3.857   0.463 -0.1900 -0.9184  0.4527
12753TIP3    H138181   6.028   3.902   0.416 -0.1440 -0.1950  1.1979
12753TIP3    H238182   6.001   3.786   0.509 -0.1789 -1.4031 -0.2887
12754TIP3   OH238183   1.919   0.983   3.569  0.0198  0.5003  0.1289
12754TIP3    H138184   1.891   0.908   3.621 -0.7810  0.9266  0.3168
12754TIP3    H238185   1.975   1.034   3.629  0.5268  0.0852  0.0146
12755TIP3   OH238186   7.495   3.738   3.834 -0.1349  0.3613 -0.3931
12755TIP3    H138187   7.432   3.738   3.761 -2.4617  0.2234  1.5053
12755TIP3    H238188   7.487   3.825   3.873 -0.6866 -0.3209  1.0851
12756TIP3   OH238189   4.895   0.187   5.796  0.7940  0.2217 -0.4128
12756TIP3    H138190   4.897   0.139   5.879  1.0969 -1.5144 -1.3881
12756TIP3    H238191   4.919   0.277   5.820 -0.6369  0.1327  1.6009
12757TIP3   OH238192   0.187   0.134   6.694  0.3819 -0.4265 -0.5652
12757TIP3    H138193   0.209   0.142   6.601  2.5092 -2.8555 -0.3666
12757TIP3    H238194   0.093   0.116   6.695  0.4629 -1.0713 -2.2960
12758TIP3   OH238195   2.268   7.088   1.549  0.4430  0.2740  0.0508
12758TIP3    H138196   2.172   7.090   1.546  0.3490 -1.6049  0.1842
12758TIP3    H238197   2.289   7.067   1.640  0.7940 -2.5052 -0.5809
12759TIP3   OH238198   3.888   7.662   3.373 -0.0345  0.0637 -0.7534
12759TIP3    H138199   3.839   7.633   3.450  2.2136  0.3667  0.8959
12759TIP3    H238200   3.894   7.584   3.318 -0.2676 -0.6197  0.1656
12760TIP3   OH238201   6.185   5.232   3.683 -0.3947  0.0840  0.2391
12760TIP3    H138202   6.263   5.242   3.628 -0.9648 -1.4530 -0.9482
12760TIP3    H238203   6.219   5.233   3.773  0.8078  0.8264 -0.1983
12761TIP3   OH238204   4.451   7.198   4.684  0.1344  0.3716 -0.4996
12761TIP3    H138205   4.387   7.251   4.637  0.3219  0.9528 -0.1179
12761TIP3    H238206   4.502   7.262   4.735  2.0843  0.1190 -2.0306
12762TIP3   OH238207   3.317   2.232   3.023  0.0258 -0.4595 -1.0652
12762TIP3    H138208   3.400   2.216   2.978  1.6488  0.1332  1.5229
12762TIP3    H238209   3.309   2.327   3.024 -0.8873 -0.5217 -1.5875
12763TIP3   OH238210   1.098   4.188   4.552  0.0154  0.0328  0.1639
12763TIP3    H138211   1.062   4.106   4.518  0.3790 -0.6245  1.3434
12763TIP3    H238212   1.151   4.163   4.627  1.0596  1.2367 -0.1242
12764TIP3   OH238213   8.214   3.171   3.957  0.2689 -0.0634 -0.1161
12764TIP3    H138214   8.222   3.094   4.014 -1.0390 -0.6535 -0.6962
12764TIP3    H238215   8.131   3.159   3.911  0.6748  1.0415 -1.2030
12765TIP3   OH238216   6.041   1.365   1.451 -0.6902 -0.0806  0.0414
12765TIP3    H138217   5.974   1.345   1.385  0.8136 -0.2640 -1.5024
12765TIP3    H238218   6.048   1.284   1.502  0.0427 -0.9637 -1.3708
12766TIP3   OH238219   1.256   6.476   0.515  0.2745  0.4242 -0.4604
12766TIP3    H138220   1.257   6.400   0.573 -1.0431  0.5779 -0.2202
12766TIP3    H238221   1.165   6.503   0.512  0.6090  1.5272 -1.1733
12767TIP3   OH238222   1.082   4.648   2.723  0.2885 -0.3483  0.0973
12767TIP3    H138223   1.018   4.719   2.711  0.9920  0.1425 -0.9529
12767TIP3    H238224   1.159   4.691   2.760  0.8306 -0.4791 -0.8259
12768TIP3   OH238225   1.905   0.128   5.848  0.5340 -0.5759  0.5237
12768TIP3    H138226   1.874   0.125   5.939  1.4950 -1.1801  0.8489
12768TIP3    H238227   1.860   0.055   5.805  1.7801 -1.7269  1.1030
12769TIP3   OH238228   5.127   0.041   1.311  0.1623 -0.1115  0.2105
12769TIP3    H138229   5.094   0.082   1.232 -0.1688 -1.2923 -0.2823
12769TIP3    H238230   5.208  -0.001   1.285  0.4692  0.1620  0.6960
12770TIP3   OH238231   5.882   7.073   0.487 -0.3070  0.0294 -0.3102
12770TIP3    H138232   5.889   7.168   0.500 -2.9690  0.5140 -1.5958
12770TIP3    H238233   5.836   7.041   0.565 -0.9643  0.1077 -0.6579
12771TIP3   OH238234   0.990   6.723   5.555 -0.6036 -0.4784  0.1931
12771TIP3    H138235   1.012   6.639   5.595 -0.5639 -1.0172 -0.9162
12771TIP3    H238236   0.933   6.700   5.481 -0.6873  0.4824 -0.0562
12772TIP3   OH238237   5.325   3.262   4.090  0.0192 -0.3432 -0.2622
12772TIP3    H138238   5.407   3.213   4.102 -0.7759 -1.7228 -0.2374
12772TIP3    H238239   5.267   3.227   4.157 -0.4254  1.0625  0.1257
12773TIP3   OH238240   2.926   2.059   5.131  0.3590 -0.0743 -0.5062
12773TIP3    H138241   2.939   2.012   5.049 -0.1057  1.3558 -1.4390
12773TIP3    H238242   2.831   2.073   5.136  0.3987 -0.0168  0.1973
12774TIP3   OH238243   3.292   0.903   3.961 -0.0813 -0.1430 -0.3549
12774TIP3    H138244   3.387   0.893   3.968 -0.3265 -1.3629  2.8826
12774TIP3    H238245   3.280   0.957   3.883  3.1732 -0.9255 -1.5942
12775TIP3   OH238246   0.906   7.369   5.029 -0.2998 -0.1822 -0.4882
12775TIP3    H138247   0.977   7.321   4.988  1.6961  1.9358  0.3058
12775TIP3    H238248   0.916   7.352   5.123  0.1142  1.3016 -0.2395
12776TIP3   OH238249   6.082   0.180   5.132  0.0152 -0.3775 -0.2363
12776TIP3    H138250   6.100   0.144   5.219  0.5445 -0.7254 -0.4863
12776TIP3    H238251   6.099   0.108   5.072  1.8211  0.4658 -0.8075
12777TIP3   OH238252   6.187   3.424   7.027  0.2110  0.1877 -0.1550
12777TIP3    H138253   6.175   3.374   7.108  0.1200 -0.9154 -0.8272
12777TIP3    H238254   6.203   3.357   6.960 -1.4896  0.9424 -1.3938
12778TIP3   OH238255   6.351   3.941   0.054 -0.0438  0.2516 -0.2072
12778TIP3    H138256   6.267   3.926   0.098  0.1353  0.6204  0.2852
12778TIP3    H238257   6.411   3.963   0.126 -0.0161  2.0390 -0.7376
12779TIP3   OH238258   6.404   0.648   1.015  0.0545 -0.5237  0.2635
12779TIP3    H138259   6.449   0.661   1.099 -0.2997  2.6097  0.0787
12779TIP3    H238260   6.329   0.592   1.037  1.7398 -2.5416  1.3137
12780TIP3   OH238261   8.286   1.845   6.858  0.0614  0.2649 -0.4618
12780TIP3    H138262   8.249   1.842   6.947 -0.6530 -1.5539 -0.7634
12780TIP3    H238263   8.254   1.927   6.822 -3.2855 -0.8472 -0.4445
12781TIP3   OH238264   8.011   7.818   4.650 -0.2777  0.4558  0.0439
12781TIP3    H138265   8.001   7.808   4.555  0.3390 -0.3459  0.0599
12781TIP3    H238266   8.100   7.790   4.669 -0.1377  1.3188  0.7764
12782TIP3   OH238267   6.714   3.450   4.166 -0.4831 -0.1286  0.2689
12782TIP3    H138268   6.789   3.492   4.207 -0.9055 -0.1467  1.0770
12782TIP3    H238269   6.651   3.438   4.237 -0.5974 -1.6316 -0.0491
12783TIP3   OH238270   0.042   3.594   0.878 -0.4867  0.3761  0.4231
12783TIP3    H138271   0.089   3.677   0.879 -0.6122  0.4649 -0.4905
12783TIP3    H238272  -0.012   3.597   0.957  1.1378  0.1897  1.6080
12784TIP3   OH238273   0.382   6.537   1.871  0.0501  0.0322 -0.1800
12784TIP3    H138274   0.401   6.504   1.783  1.4377 -0.7665  0.3852
12784TIP3    H238275   0.294   6.505   1.891  0.6572 -1.8677 -0.3568
12785TIP3   OH238276   0.303   7.971   2.221 -0.0647  0.2980  0.2579
12785TIP3    H138277   0.379   7.917   2.243 -0.4081  0.0992  0.9858
12785TIP3    H238278   0.242   7.957   2.293 -0.6390  0.7534 -0.1308
12786TIP3   OH238279   3.474   3.928   3.321  0.2202  0.1523  0.4832
12786TIP3    H138280   3.456   3.835   3.305 -0.3956  0.5628 -1.4250
12786TIP3    H238281   3.478   3.967   3.234  2.0318  1.6584  1.1779
12787TIP3   OH238282   0.276   5.541   1.135 -0.1217  0.2711 -0.0027
12787TIP3    H138283   0.338   5.597   1.182  1.5809 -0.3548 -1.3905
12787TIP3    H238284   0.274   5.460   1.185 -0.4044  0.5486  0.4457
12788TIP3   OH238285   5.548   5.804   6.231  0.1662  0.1367 -0.7151
12788TIP3    H138286   5.491   5.739   6.190 -0.0604  0.0510 -0.2691
12788TIP3    H238287   5.613   5.824   6.164  0.1663 -0.4640 -0.9051
12789TIP3   OH238288   3.254   7.058   3.971  0.3745 -0.6398  0.4640
12789TIP3    H138289   3.196   7.113   4.023  0.0730 -0.6439  0.1382
12789TIP3    H238290   3.216   7.060   3.883 -0.5068 -2.5418  0.7418
12790TIP3   OH238291   5.067   2.650   4.433 -0.2950 -0.2015  0.2132
12790TIP3    H138292   5.062   2.642   4.528 -1.0612 -1.3659  0.0996
12790TIP3    H238293   5.015   2.577   4.400 -0.8319  0.7349 -1.1010
12791TIP3   OH238294   6.418   5.316   3.509 -0.1834 -0.0898 -0.0925
12791TIP3    H138295   6.466   5.366   3.576 -0.1338  0.7236 -0.7178
12791TIP3    H238296   6.427   5.369   3.430 -1.3780 -0.3716 -0.4255
12792TIP3   OH238297   3.663   8.133   1.013  0.8017  0.0499 -0.1793
12792TIP3    H138298   3.631   8.055   1.058  0.3035  0.3909  0.0708
12792TIP3    H238299   3.731   8.101   0.954  2.1705 -0.3174  1.4790
12793TIP3   OH238300   4.236   3.556   2.042 -0.6525 -0.6055 -0.6045
12793TIP3    H138301   4.168   3.623   2.043 -2.2440 -2.1216 -1.4035
12793TIP3    H238302   4.290   3.575   2.119 -2.7745 -0.1253  0.8568
12794TIP3   OH238303   6.640   7.764   2.961  0.4533 -0.1840 -0.2557
12794TIP3    H138304   6.719   7.805   2.994  0.1013 -0.8018  1.4586
12794TIP3    H238305   6.603   7.828   2.899  1.0039  1.1634  0.7774
12795TIP3   OH238306   4.365   0.719   3.628 -0.2817  0.1496  0.5948
12795TIP3    H138307   4.295   0.746   3.687  0.4036  1.0573  1.0109
12795TIP3    H238308   4.319   0.680   3.553 -1.1500 -1.3577  1.8465
12796TIP3   OH238309   3.081   3.645   6.321 -0.4326 -0.1031  0.0840
12796TIP3    H138310   3.045   3.624   6.407 -0.4977 -2.9951 -0.5685
12796TIP3    H238311   3.104   3.561   6.283 -0.9162  1.0135 -2.9819
12797TIP3   OH238312   2.449   7.916   1.752 -0.4120  0.7458 -0.3037
12797TIP3    H138313   2.354   7.917   1.757 -0.3518  0.4010  1.4464
12797TIP3    H238314   2.472   7.827   1.726 -0.5575  0.7997 -0.6181
12798TIP3   OH238315   5.213   7.018   3.055 -0.3178 -0.5265 -0.1256
12798TIP3    H138316   5.281   7.020   2.988 -0.2761 -0.0887 -0.0739
12798TIP3    H238317   5.156   7.092   3.034 -0.5698 -0.6665  0.0498
12799TIP3   OH238318   0.605   4.015   1.533 -0.2829  0.5324 -0.2395
12799TIP3    H138319   0.676   3.953   1.549  0.1644  0.7475 -1.2868
12799TIP3    H238320   0.534   3.961   1.498 -0.8037  0.2557  1.1883
12800TIP3   OH238321   2.174   2.776   5.138  0.0171 -0.1471 -0.1227
12800TIP3    H138322   2.106   2.840   5.160  0.7256  0.2395  1.0223
12800TIP3    H238323   2.126   2.696   5.115 -0.8317  0.0960  0.7618
12801TIP3   OH238324   5.614   5.251   1.768  0.3887  0.1352  0.1669
12801TIP3    H138325   5.537   5.304   1.748 -0.5711 -1.2124  0.1532
12801TIP3    H238326   5.599   5.221   1.858  0.9289 -0.0703  0.1878
12802TIP3   OH238327   2.949   3.739   0.751  0.0095  0.3965 -0.7285
12802TIP3    H138328   2.857   3.717   0.766 -0.3181  1.7913 -0.5573
12802TIP3    H238329   2.980   3.771   0.836  0.4715  0.4980 -0.9351
12803TIP3   OH238330   1.555   0.061   1.333  0.0079 -0.5919  0.2018
12803TIP3    H138331   1.533   0.148   1.367 -0.2236 -1.5400  2.7380
12803TIP3    H238332   1.634   0.074   1.281 -0.6740  1.2870 -0.4217
12804TIP3   OH238333   7.085   6.952   0.294 -0.1387  0.5726 -0.4479
12804TIP3    H138334   7.110   6.860   0.296  1.5197  0.9961 -0.0744
12804TIP3    H238335   6.991   6.951   0.278 -0.1763 -1.1829 -0.3170
12805TIP3   OH238336   5.057   3.678   6.654 -0.4974  1.3156  0.9172
12805TIP3    H138337   5.100   3.642   6.732  0.0373 -0.1358 -0.0127
12805TIP3    H238338   4.964   3.681   6.678 -0.5971 -0.8532  1.0243
12806TIP3   OH238339   0.143   7.120   6.100 -0.6573  0.2887 -0.4107
12806TIP3    H138340   0.235   7.121   6.077 -0.8689 -1.6753 -1.6476
12806TIP3    H238341   0.125   7.206   6.137  1.9893  0.2128  1.2521
12807TIP3   OH238342   6.715   6.714   2.077 -0.1597  0.0622 -0.0032
12807TIP3    H138343   6.728   6.807   2.060 -0.6302 -0.1014 -1.4250
12807TIP3    H238344   6.644   6.711   2.141 -1.4995  0.6851 -1.3722
12808TIP3   OH238345   6.287   7.355   4.711  0.0087  0.1061 -0.1726
12808TIP3    H138346   6.350   7.336   4.780  1.5708 -0.2280 -1.6290
12808TIP3    H238347   6.338   7.395   4.641 -1.8277  2.0761 -0.4963
12809TIP3   OH238348   2.384   4.306   4.054  0.0902  0.1989  0.1566
12809TIP3    H138349   2.316   4.272   4.112  0.4153 -0.5748  0.0949
12809TIP3    H238350   2.450   4.237   4.052 -0.2726 -0.1307 -1.7641
12810TIP3   OH238351   0.630   0.818   2.424 -0.1286 -0.5094 -0.2251
12810TIP3    H138352   0.581   0.833   2.343 -0.5967  0.1048  0.1588
12810TIP3    H238353   0.571   0.847   2.493  0.2714 -1.0202  0.3398
12811TIP3   OH238354   5.626   8.158   0.054 -0.1989 -0.1073  0.2508
12811TIP3    H138355   5.642   8.251   0.041  1.3834 -0.0045  2.4414
12811TIP3    H238356   5.534   8.145   0.028 -0.3823  1.9869 -0.2855
12812TIP3   OH238357   8.287   4.304   2.754 -0.0773 -0.2520 -0.3545
12812TIP3    H138358   8.352   4.289   2.685  1.7711 -0.8913  1.4513
12812TIP3    H238359   8.326   4.268   2.833 -2.0892  0.5475  1.0999
12813TIP3   OH238360   1.812   2.598   0.411 -0.0296  0.3840  0.0393
12813TIP3    H138361   1.870   2.569   0.481 -1.4080 -1.6630  0.4187
12813TIP3    H238362   1.842   2.553   0.333 -0.2656  0.3885 -0.0563
12814TIP3   OH238363   3.849   3.060   4.214  0.4338  0.7675 -0.1259
12814TIP3    H138364   3.927   3.043   4.267  0.3992  0.5599 -0.1382
12814TIP3    H238365   3.806   3.134   4.256 -0.5696 -0.5247  1.2099
12815TIP3   OH238366   0.866   5.821   0.684  0.1606  0.1702  0.3020
12815TIP3    H138367   0.928   5.752   0.661  0.1685  0.0788  0.5909
12815TIP3    H238368   0.883   5.891   0.621  2.0404  1.0417  1.6679
12816TIP3   OH238369   1.459   4.053   2.444 -0.3201  0.2761  0.4443
12816TIP3    H138370   1.514   4.042   2.521 -0.6227 -1.1765  0.4688
12816TIP3    H238371   1.385   3.994   2.458 -1.2329  1.2120 -0.2010
12817TIP3   OH238372   2.304   4.781   5.685  0.4194 -0.6109  0.0289
12817TIP3    H138373   2.349   4.843   5.743 -0.7928  0.9461 -0.6456
12817TIP3    H238374   2.291   4.703   5.739  0.1974  0.4412  1.5562
12818TIP3   OH238375   4.870   4.574   1.918  0.4027  0.0028 -0.8276
12818TIP3    H138376   4.883   4.639   1.987  0.3524  0.0052 -0.8198
12818TIP3    H238377   4.952   4.526   1.913  0.3135 -0.1754 -0.5797
12819TIP3   OH238378   3.031   2.480   5.671  0.5642  0.1287 -0.1477
12819TIP3    H138379   3.064   2.506   5.757  0.1052  1.1710 -0.2631
12819TIP3    H238380   2.939   2.457   5.687  0.3529  0.7492 -0.4090
12820TIP3   OH238381   3.638   4.334   1.069 -0.6331 -0.0334 -0.4410
12820TIP3    H138382   3.598   4.365   1.150 -0.9557 -0.2643 -0.5104
12820TIP3    H238383   3.691   4.408   1.039 -0.0183 -0.1547  0.3022
12821TIP3   OH238384   7.697   6.281   0.378  0.7554 -0.0143 -0.5494
12821TIP3    H138385   7.791   6.293   0.389  0.6126 -0.4996  1.8929
12821TIP3    H238386   7.685   6.187   0.370  0.3969 -0.1068  0.7918
12822TIP3   OH238387   8.288   7.660   3.454 -0.7912 -0.3187 -0.0700
12822TIP3    H138388   8.203   7.702   3.465 -1.1669 -0.8511 -0.8457
12822TIP3    H238389   8.278   7.574   3.496 -0.8075 -0.5770 -0.5847
12823TIP3   OH238390   2.253   3.108   0.238 -0.0186 -0.2062 -0.3836
12823TIP3    H138391   2.165   3.078   0.217 -0.4073  0.1767  0.6887
12823TIP3    H238392   2.281   3.052   0.311  0.3239  0.2017 -0.1983
12824TIP3   OH238393   7.202   6.338   0.178 -0.2785 -0.2213  0.0891
12824TIP3    H138394   7.153   6.279   0.235  0.6790 -1.4257 -0.2879
12824TIP3    H238395   7.174   6.314   0.089  1.8614 -1.8268 -0.2235
12825TIP3   OH238396   3.836   1.859   4.434 -0.5863 -0.4591 -0.3398
12825TIP3    H138397   3.871   1.929   4.379  1.1745 -0.7114  0.4025
12825TIP3    H238398   3.744   1.853   4.409 -0.1815  0.4117 -2.1996
12826TIP3   OH238399   4.247   5.911   5.862  0.2078  1.0211 -0.3881
12826TIP3    H138400   4.170   5.966   5.878  1.3138  1.9012  2.4874
12826TIP3    H238401   4.319   5.973   5.848  1.0521  0.2930  0.5819
12827TIP3   OH238402   3.267   1.934   3.017  0.5125 -0.2716 -0.3550
12827TIP3    H138403   3.238   1.849   3.050 -0.9866  0.3136 -0.0759
12827TIP3    H238404   3.295   1.918   2.927  0.6184 -1.1181 -0.1774
12828TIP3   OH238405   6.317   5.500   1.685 -0.1338  0.8159  0.0250
12828TIP3    H138406   6.232   5.468   1.655 -0.4237  1.1461  0.4714
12828TIP3    H238407   6.312   5.595   1.672  0.9127  0.6550 -1.7995
12829TIP3   OH238408   8.073   0.713   5.034 -0.0799 -0.2844 -0.2767
12829TIP3    H138409   8.160   0.704   4.994  0.9371  0.6978  1.5429
12829TIP3    H238410   8.013   0.677   4.969  1.6390 -0.6262 -1.7796
12830TIP3   OH238411   1.342   2.022   3.177  0.2137  0.2527 -0.0880
12830TIP3    H138412   1.291   2.103   3.178 -0.0731  0.0729 -0.1001
12830TIP3    H238413   1.416   2.041   3.119 -0.1259  0.3413 -0.4969
12831TIP3   OH238414   7.479   1.195   5.515 -0.3163 -0.0089  0.2525
12831TIP3    H138415   7.455   1.217   5.605  1.7871 -0.3421  0.9404
12831TIP3    H238416   7.463   1.275   5.466  0.3353  0.7950  1.3085
12832TIP3   OH238417   8.606   2.275   3.938 -0.4975 -0.0050 -0.2761
12832TIP3    H138418   8.643   2.206   3.993  2.1618 -0.2497 -2.1975
12832TIP3    H238419   8.551   2.325   3.998  0.2516 -1.7166  2.0069
12833TIP3   OH238420   8.183   8.131   3.527  0.5223  0.0048 -0.0677
12833TIP3    H138421   8.197   8.147   3.434  0.6433 -1.1409 -0.2618
12833TIP3    H238422   8.255   8.072   3.552 -1.0708 -1.9561  0.0939
12834TIP3   OH238423   1.520   2.332   3.744  0.3209  0.4954 -0.1943
12834TIP3    H138424   1.466   2.278   3.801 -0.5297  0.9902 -0.5040
12834TIP3    H238425   1.535   2.279   3.666  0.1549  0.4084 -0.1667
12835TIP3   OH238426   7.842   7.994   1.569  0.3706  0.0222 -0.1345
12835TIP3    H138427   7.905   7.971   1.500  0.9784 -0.8974  0.6960
12835TIP3    H238428   7.873   7.946   1.646  0.4618  2.0400  1.1487
12836TIP3   OH238429   4.778   5.453   3.501 -0.3239  0.9134 -0.6893
12836TIP3    H138430   4.805   5.377   3.450 -1.8655 -0.1478 -0.0016
12836TIP3    H238431   4.735   5.511   3.437 -1.4396  0.0051 -0.8070
12837TIP3   OH238432   5.235   2.727   6.223 -0.0424  0.1225 -0.6226
12837TIP3    H138433   5.206   2.639   6.199 -1.1073 -0.1119  1.2783
12837TIP3    H238434   5.154   2.774   6.243  0.6413  0.6461  1.1250
12838TIP3   OH238435   6.326   2.710   5.214  0.5661 -0.0045  0.2807
12838TIP3    H138436   6.254   2.678   5.268  0.1309  0.5522  0.0379
12838TIP3    H238437   6.390   2.745   5.277  0.3618  0.0329  0.4669
12839TIP3   OH238438   3.882   4.857   7.013  0.3075 -0.9248  0.5166
12839TIP3    H138439   3.811   4.920   7.025  1.1221  0.2382 -0.5149
12839TIP3    H238440   3.851   4.799   6.943  0.4589 -0.2669 -0.1061
12840TIP3   OH238441   2.307   7.980   6.159 -0.0976  0.2013 -0.1668
12840TIP3    H138442   2.218   8.014   6.146  0.7708  2.7146 -0.1007
12840TIP3    H238443   2.356   8.055   6.194  1.5069 -1.7696  2.1056
12841TIP3   OH238444   7.644   5.088   6.997 -0.3816 -0.1251 -0.0800
12841TIP3    H138445   7.663   5.180   7.015  2.3045 -0.7162  0.4942
12841TIP3    H238446   7.710   5.039   7.047 -1.0785 -2.3345 -1.1794
12842TIP3   OH238447   7.221   3.114   2.837 -0.2653  0.0577  0.1290
12842TIP3    H138448   7.142   3.115   2.784 -0.5607 -1.3281  0.4834
12842TIP3    H238449   7.261   3.200   2.824 -1.0889  0.2659 -1.1622
12843TIP3   OH238450   4.161   5.237   7.076  0.3229 -0.0816  0.5530
12843TIP3    H138451   4.152   5.146   7.046  1.1275  0.0950 -0.2370
12843TIP3    H238452   4.079   5.279   7.049 -0.0997 -0.5825  1.0104
12844TIP3   OH238453   2.524   4.467   3.821 -0.5119 -0.1316 -0.5335
12844TIP3    H138454   2.456   4.490   3.884 -0.8869 -0.7269 -0.7142
12844TIP3    H238455   2.496   4.384   3.784  1.0566 -1.1896  0.4981
12845TIP3   OH238456   0.334   4.674   0.636 -0.9288  0.4668 -0.2387
12845TIP3    H138457   0.369   4.664   0.724 -0.6921  1.3042 -0.2284
12845TIP3    H238458   0.301   4.587   0.613 -0.9928  0.2380  0.6723
12846TIP3   OH238459   1.348   6.098   3.942  0.3303  0.1261  0.0322
12846TIP3    H138460   1.389   6.134   3.864 -0.0802  0.4178 -0.0541
12846TIP3    H238461   1.351   6.170   4.006 -1.4872  0.7401 -0.4909
12847TIP3   OH238462   0.106   1.397   1.204  0.4576 -0.9374  0.7281
12847TIP3    H138463   0.095   1.393   1.109 -0.8260 -1.4575  0.8802
12847TIP3    H238464   0.189   1.352   1.220  1.4658  0.4879 -0.2497
12848TIP3   OH238465   1.878   5.517   0.046  0.1736 -0.0881  0.5159
12848TIP3    H138466   1.851   5.425   0.051 -0.7259  0.1528  0.2899
12848TIP3    H238467   1.955   5.517  -0.011 -1.4077 -0.3785 -1.7241
12849TIP3   OH238468   7.595   3.275   0.745  0.2900 -0.0275 -0.3512
12849TIP3    H138469   7.588   3.340   0.674 -0.6019  0.5054  0.2049
12849TIP3    H238470   7.592   3.191   0.700 -1.0542  0.2878 -0.9184
12850TIP3   OH238471   0.895   4.448   3.471  0.2163  0.0150 -0.9076
12850TIP3    H138472   0.943   4.507   3.412  0.3720  0.0366 -0.7615
12850TIP3    H238473   0.806   4.483   3.472  0.3890  0.4523 -0.5590
12851TIP3   OH238474   6.917   0.202   6.984  0.2945  0.2486  0.1126
12851TIP3    H138475   6.925   0.296   6.972  0.6583  0.1985 -0.0585
12851TIP3    H238476   6.823   0.185   6.985  0.2369  0.5457 -0.3737
12852TIP3   OH238477   1.173   0.018   5.451 -0.4879 -0.5073  0.1210
12852TIP3    H138478   1.224   0.047   5.527  1.0092  1.3971 -1.4696
12852TIP3    H238479   1.214  -0.064   5.424 -0.4455 -0.7262  0.8534
12853TIP3   OH238480   7.568   0.016   6.214  0.6550 -0.1082 -0.4492
12853TIP3    H138481   7.626  -0.007   6.287  1.5093  0.0228 -1.0703
12853TIP3    H238482   7.543   0.106   6.231 -1.2312 -0.8288  1.0219
12854TIP3   OH238483   6.205   1.334   6.661 -0.3560 -0.2413 -0.0295
12854TIP3    H138484   6.295   1.362   6.681  0.0081 -0.9351 -0.6521
12854TIP3    H238485   6.150   1.393   6.713  0.4061  1.0629 -0.6279
12855TIP3   OH238486   4.868   4.544   3.736 -0.0379 -0.4765  0.1059
12855TIP3    H138487   4.829   4.598   3.805 -1.4153 -0.1957 -0.8543
12855TIP3    H238488   4.802   4.542   3.667  0.5610 -2.2539 -0.4628
12856TIP3   OH238489   4.582   1.397   2.327  0.4745 -0.6889  0.3061
12856TIP3    H138490   4.669   1.362   2.308  0.8081  0.8833 -1.3406
12856TIP3    H238491   4.523   1.322   2.317  1.4359 -1.3566 -0.4590
12857TIP3   OH238492   1.567   7.196   0.856  0.1893  0.2690 -0.2006
12857TIP3    H138493   1.476   7.169   0.865  0.3301  0.5248  3.4748
12857TIP3    H238494   1.616   7.114   0.849 -0.2882  0.1484 -3.1732
12858TIP3   OH238495   1.964   6.873   2.312  0.0952 -0.0877  0.2454
12858TIP3    H138496   1.980   6.862   2.405  1.0394  0.2394  0.1416
12858TIP3    H238497   1.872   6.849   2.299 -0.3782  1.0119  1.4461
12859TIP3   OH238498   0.125   7.091   4.992 -0.3055 -0.3978  0.0736
12859TIP3    H138499   0.160   7.164   5.042  1.1159 -1.3258  0.5244
12859TIP3    H238500   0.175   7.092   4.910 -2.4711  0.9871 -1.3077
12860TIP3   OH238501   4.263   5.474   6.353 -0.2028 -0.1026  0.0269
12860TIP3    H138502   4.211   5.554   6.340 -0.7381 -0.4581 -0.0537
12860TIP3    H238503   4.247   5.449   6.443  1.0318  0.6134  0.4733
12861TIP3   OH238504   5.666   0.490   1.985  0.1926 -0.0722  0.3191
12861TIP3    H138505   5.635   0.451   1.903  0.9746  0.0815 -0.0585
12861TIP3    H238506   5.646   0.425   2.052 -1.3377  0.1965  0.1727
12862TIP3   OH238507   4.974   1.212   2.854  0.1348  0.0388 -0.5229
12862TIP3    H138508   4.892   1.225   2.807  0.9657  1.6949 -1.6039
12862TIP3    H238509   5.020   1.144   2.805 -0.5243 -0.8289  0.0349
12863TIP3   OH238510   0.215   6.462   0.200  0.3906 -0.5780 -0.0847
12863TIP3    H138511   0.306   6.441   0.225 -0.0113 -0.0851  1.9837
12863TIP3    H238512   0.185   6.520   0.269 -0.3763  2.2667 -2.6365
12864TIP3   OH238513   7.623   6.100   2.971 -0.0007  0.0441  0.3120
12864TIP3    H138514   7.572   6.048   3.033 -0.2829 -3.4377 -2.5195
12864TIP3    H238515   7.574   6.182   2.961 -0.5744  0.2396  3.5642
12865TIP3   OH238516   0.729   0.742   6.620 -0.3079 -0.5557 -0.0642
12865TIP3    H138517   0.820   0.732   6.592 -0.4171 -2.8556  0.2059
12865TIP3    H238518   0.724   0.693   6.702 -1.1581  1.9121  1.4699
12866TIP3   OH238519   1.185   5.093   3.991  0.0622 -0.6120 -0.3448
12866TIP3    H138520   1.162   5.177   4.031 -0.0045 -0.4139 -0.7843
12866TIP3    H238521   1.278   5.102   3.967 -0.0931 -0.4399 -0.9145
12867TIP3   OH238522   8.217   7.401   1.835 -0.3511  0.0218  0.4410
12867TIP3    H138523   8.235   7.336   1.903 -0.6679 -1.7027 -1.0468
12867TIP3    H238524   8.250   7.361   1.755 -2.0252  1.0016 -0.7937
12868TIP3   OH238525   5.461   0.461   6.668 -0.8489 -0.1922  0.0717
12868TIP3    H138526   5.402   0.495   6.735 -0.8698 -0.0610 -0.0145
12868TIP3    H238527   5.514   0.536   6.642  1.0673 -0.8023  1.9194
12869TIP3   OH238528   5.613   2.780   3.153  0.2251 -0.3705 -0.2363
12869TIP3    H138529   5.612   2.861   3.103 -0.9832 -0.5425 -0.5391
12869TIP3    H238530   5.609   2.807   3.244  0.2867 -0.0841 -0.3187
12870TIP3   OH238531   2.305   0.859   1.035 -0.4800  0.0673  0.2018
12870TIP3    H138532   2.327   0.776   1.076 -0.8913 -1.1751 -1.9288
12870TIP3    H238533   2.212   0.852   1.014 -1.1188  2.0350  1.9981
12871TIP3   OH238534   8.695   5.758   0.989  0.7376  0.3266 -0.8117
12871TIP3    H138535   8.675   5.710   0.908  1.6833 -0.6577 -0.4937
12871TIP3    H238536   8.698   5.689   1.057 -0.3757  1.1686  0.1392
12872TIP3   OH238537   0.335   2.631   0.514 -0.1270  0.5036  0.2128
12872TIP3    H138538   0.257   2.682   0.538  0.1384  0.9393  0.1637
12872TIP3    H238539   0.408   2.690   0.529  0.0971  0.5888 -1.0594
12873TIP3   OH238540   4.864   0.858   6.518 -0.2502  0.3426  0.3072
12873TIP3    H138541   4.911   0.811   6.449  2.0847  1.5717  0.9467
12873TIP3    H238542   4.850   0.792   6.586  0.7614 -0.0452  0.1680
12874TIP3   OH238543   8.620   8.010   2.124 -0.3033 -0.4671  0.1603
12874TIP3    H138544   8.551   8.073   2.102 -0.3924 -1.1078 -1.5855
12874TIP3    H238545   8.578   7.950   2.186 -1.0559 -0.3420 -0.2179
12875TIP3   OH238546   2.186   7.785   2.872 -0.1720  0.4413 -0.0928
12875TIP3    H138547   2.141   7.843   2.810 -0.5443  1.4933  1.1293
12875TIP3    H238548   2.249   7.841   2.916 -0.9032  0.0814  1.4977
12876TIP3   OH238549   1.310   0.800   6.124 -0.0184  0.2377  0.0485
12876TIP3    H138550   1.251   0.765   6.191 -2.4438  0.7806 -1.6874
12876TIP3    H238551   1.360   0.725   6.095 -0.0456 -0.3146  1.3515
12877TIP3   OH238552   5.928   0.250   2.495 -0.3827  0.0414  0.3516
12877TIP3    H138553   5.956   0.162   2.470  1.0211  0.4003  0.6011
12877TIP3    H238554   5.864   0.274   2.428  0.7404 -0.3685 -0.9074
12878TIP3   OH238555   7.008   3.359   6.944  0.2453 -0.2182  0.0356
12878TIP3    H138556   7.020   3.296   7.016  1.1589 -2.0852 -1.6559
12878TIP3    H238557   6.923   3.336   6.907  0.2566  0.0236 -0.1408
12879TIP3   OH238558   6.795   2.212   3.340  0.3501  0.1599 -0.5923
12879TIP3    H138559   6.842   2.200   3.422 -0.6463 -0.4081 -0.0929
12879TIP3    H238560   6.745   2.293   3.353  1.0901  0.7104 -1.0858
12880TIP3   OH238561   6.210   2.216   3.244  0.1428  0.5010  0.1752
12880TIP3    H138562   6.162   2.259   3.315 -1.3413  0.6867 -0.9028
12880TIP3    H238563   6.167   2.245   3.164  0.9206 -0.7638 -0.7529
12881TIP3   OH238564   7.106   1.352   3.567 -0.2323  0.2669  0.0513
12881TIP3    H138565   7.033   1.303   3.531  0.4768 -1.2153  0.5476
12881TIP3    H238566   7.115   1.428   3.509  0.0014 -1.3095 -2.0919
12882TIP3   OH238567   6.202   5.767   0.519  0.1295  0.4001  0.7182
12882TIP3    H138568   6.129   5.711   0.493 -0.1600  1.2250 -0.3230
12882TIP3    H238569   6.212   5.752   0.613 -0.8869 -0.2796  0.7304
12883TIP3   OH238570   7.726   8.121   2.122  0.4737  0.0551 -0.2068
12883TIP3    H138571   7.680   8.120   2.038  1.0057  1.2881 -0.5248
12883TIP3    H238572   7.663   8.158   2.183  0.4599  0.1514 -0.2793
12884TIP3   OH238573   5.370   1.860   0.316 -0.3497 -0.1884  0.2357
12884TIP3    H138574   5.340   1.877   0.405 -0.6439 -1.8525  0.4925
12884TIP3    H238575   5.439   1.924   0.301 -0.8198  0.6050  1.3782
12885TIP3   OH238576   6.482   4.013   3.686  0.0194  0.3427  0.0218
12885TIP3    H138577   6.410   3.956   3.713 -0.2187  0.8572  0.4940
12885TIP3    H238578   6.438   4.088   3.645  0.2168  1.2945  1.5076
12886TIP3   OH238579   0.191   3.495   4.287  0.2889  0.3779  1.1145
12886TIP3    H138580   0.211   3.589   4.291 -0.5742  0.7416 -1.4136
12886TIP3    H238581   0.103   3.487   4.324  0.9070  0.2863  2.6722
12887TIP3   OH238582   3.617   5.941   3.025 -0.6471 -0.1805  0.1365
12887TIP3    H138583   3.653   5.981   3.104 -1.3689  0.4642  0.1531
12887TIP3    H238584   3.666   5.983   2.953 -0.1575 -0.5929  0.2228
12888TIP3   OH238585   3.498   5.241   5.658 -0.1597 -0.1203  0.0099
12888TIP3    H138586   3.587   5.236   5.693  0.0064  0.3567 -0.3338
12888TIP3    H238587   3.498   5.182   5.583 -0.4068 -0.8450  0.5666
12889TIP3   OH238588   3.055   1.356   0.354  0.5447 -0.2435 -0.0951
12889TIP3    H138589   2.983   1.331   0.412 -2.7144 -0.0607 -3.6422
12889TIP3    H238590   3.087   1.273   0.318  0.4609 -0.1971 -0.2782
12890TIP3   OH238591   1.734   0.198   1.704 -0.0154 -0.4595  0.2073
12890TIP3    H138592   1.825   0.211   1.678 -0.0397 -0.9396 -0.1235
12890TIP3    H238593   1.711   0.112   1.671 -0.9018  0.0521 -0.5653
12891TIP3   OH238594   8.544   7.069   0.426 -0.0032 -0.2843  0.3484
12891TIP3    H138595   8.577   7.098   0.512  1.3813 -2.4194  0.6155
12891TIP3    H238596   8.467   7.016   0.447 -2.8918  3.2558 -0.1746
12892TIP3   OH238597   5.323   0.134   1.561  0.4500 -0.2832 -0.0381
12892TIP3    H138598   5.269   0.177   1.495  3.1216 -0.8266 -2.8034
12892TIP3    H238599   5.409   0.173   1.551  1.7615 -2.7553  0.7710
12893TIP3   OH238600   1.755   6.866   2.568  0.8184  0.3896 -0.3973
12893TIP3    H138601   1.761   6.957   2.539  0.8222 -0.2161 -2.4751
12893TIP3    H238602   1.845   6.837   2.577  0.8524  1.0993  2.1951
12894TIP3   OH238603   0.953   3.967   2.662 -0.0221  0.3224 -0.0078
12894TIP3    H138604   0.863   3.985   2.685 -0.1393  0.5375 -0.6188
12894TIP3    H238605   0.994   4.053   2.653 -0.2179  0.2899 -1.4870
12895TIP3   OH238606   6.501   5.041   0.697 -0.1884 -0.1598  0.1090
12895TIP3    H138607   6.577   5.045   0.638 -0.2778  2.7760  0.0367
12895TIP3    H238608   6.540   5.036   0.784  0.0202 -0.7639 -0.0115
12896TIP3   OH238609   6.507   4.562   4.560 -0.2782  0.2758 -0.2071
12896TIP3    H138610   6.436   4.613   4.522 -1.2239 -1.2986 -0.6475
12896TIP3    H238611   6.572   4.555   4.489 -0.9260 -0.5523 -0.7462
12897TIP3   OH238612   3.414   2.901   2.102 -0.1717 -0.3905  0.5708
12897TIP3    H138613   3.347   2.833   2.113 -1.0425  0.2836 -0.3289
12897TIP3    H238614   3.494   2.862   2.137 -0.4226 -2.2599 -0.7573
12898TIP3   OH238615   6.872   7.129   6.140  0.1802  0.6013  0.6752
12898TIP3    H138616   6.835   7.081   6.066  1.1950 -0.6020  0.9086
12898TIP3    H238617   6.803   7.189   6.166 -1.6873 -1.6073  1.1697
12899TIP3   OH238618   1.936   5.536   2.568  0.4590 -0.6220  0.3133
12899TIP3    H138619   1.989   5.605   2.607 -0.6083  0.9897 -0.9478
12899TIP3    H238620   1.852   5.542   2.613  0.3017 -1.0138  0.0829
12900TIP3   OH238621   6.996   1.575   4.433  0.6481 -0.2900  0.4470
12900TIP3    H138622   6.906   1.578   4.401 -0.2710  0.7149  2.8817
12900TIP3    H238623   7.036   1.501   4.386 -2.0347 -2.0633  0.7305
12901TIP3   OH238624   4.739   4.477   6.388  0.3466 -0.2426  0.1684
12901TIP3    H138625   4.698   4.524   6.460 -0.4262 -0.0180 -0.3949
12901TIP3    H238626   4.798   4.415   6.429 -0.6033 -0.6081  1.0231
12902TIP3   OH238627   2.714   5.652   1.254  0.7834  0.4841 -0.1162
12902TIP3    H138628   2.728   5.739   1.216 -0.1899  0.2988 -0.9404
12902TIP3    H238629   2.658   5.669   1.330  1.5755  0.6955  0.4356
12903TIP3   OH238630   3.298   5.819   4.470  0.5266 -0.5856 -0.3135
12903TIP3    H138631   3.314   5.807   4.564  1.0121 -1.0753 -0.4524
12903TIP3    H238632   3.250   5.902   4.464  3.4358  1.3011  0.1488
12904TIP3   OH238633   6.500   8.203   3.028 -0.1628  0.4530 -0.0333
12904TIP3    H138634   6.505   8.120   2.980 -0.4747  1.6401 -2.2183
12904TIP3    H238635   6.407   8.215   3.046 -0.0827  0.1816  0.5880
12905TIP3   OH238636   5.262   7.971   3.708  0.3426  0.2680  0.5674
12905TIP3    H138637   5.261   8.066   3.703  1.8125  0.2698 -0.0192
12905TIP3    H238638   5.207   7.943   3.634 -2.6372  0.6217  2.4573
12906TIP3   OH238639   0.987   2.389   2.778  0.4105  0.0712 -0.5022
12906TIP3    H138640   1.011   2.448   2.851  1.4048 -1.5145  0.5156
12906TIP3    H238641   1.063   2.333   2.767 -1.4844 -2.9031  0.4888
12907TIP3   OH238642   7.437   5.032   1.014  0.1844  0.1170 -0.2938
12907TIP3    H138643   7.434   4.983   0.931 -0.0334  0.9465 -0.7949
12907TIP3    H238644   7.360   5.089   1.011 -0.3040 -0.4555  0.8847
12908TIP3   OH238645   4.502   3.278   5.115  0.6131  0.4258  0.0235
12908TIP3    H138646   4.467   3.353   5.066  1.5646  1.5366  0.9582
12908TIP3    H238647   4.518   3.313   5.203  2.1289 -0.5626  0.1791
12909TIP3   OH238648   1.934   1.285   3.747  0.3961  0.6016  0.1539
12909TIP3    H138649   1.913   1.337   3.669 -0.6443 -1.0441 -0.7374
12909TIP3    H238650   2.020   1.248   3.728  0.0445  0.0105 -0.3740
12910TIP3   OH238651   2.892   0.498   4.816  0.3538  0.4342  0.0830
12910TIP3    H138652   2.881   0.447   4.736  1.5601  1.8961 -1.0779
12910TIP3    H238653   2.844   0.579   4.800 -1.4066 -0.1884  1.8378
12911TIP3   OH238654   6.420   1.037   6.655  0.1616  0.9010 -0.1333
12911TIP3    H138655   6.373   1.032   6.739  0.3277  0.3773 -0.0684
12911TIP3    H238656   6.350   1.038   6.589  0.0407  0.6165 -0.0150
12912TIP3   OH238657   4.131   0.422   3.821  0.0970  0.2065  0.2834
12912TIP3    H138658   4.179   0.470   3.888 -1.1056  0.2590  1.1273
12912TIP3    H238659   4.104   0.489   3.758  0.1984  0.3255  0.3668
12913TIP3   OH238660   0.689   6.731   4.435 -0.4673 -0.3922 -0.2211
12913TIP3    H138661   0.661   6.739   4.526  1.2552 -1.1040  0.4150
12913TIP3    H238662   0.686   6.637   4.417 -0.8168 -0.2548 -0.9143
12914TIP3   OH238663   5.746   0.952   4.612  0.2219 -0.0165 -0.2254
12914TIP3    H138664   5.832   0.983   4.584 -0.4703  0.6401 -1.7271
12914TIP3    H238665   5.722   1.009   4.685  0.9445 -0.0460  0.0412
12915TIP3   OH238666   7.391   2.503   2.663 -0.0087  0.6373  0.1523
12915TIP3    H138667   7.455   2.522   2.731  0.8785  0.6526 -0.6695
12915TIP3    H238668   7.368   2.411   2.676 -0.2229  0.7735  0.7695
12916TIP3   OH238669   3.591   6.823   1.568  0.4082 -0.3638  0.6081
12916TIP3    H138670   3.606   6.764   1.494 -0.3599 -1.5204  1.3413
12916TIP3    H238671   3.504   6.860   1.553  0.9657  0.7874  0.0473
12917TIP3   OH238672   2.751   3.449   0.714 -0.1350  0.0337  0.3241
12917TIP3    H138673   2.721   3.478   0.801  0.3927  0.6581  0.3027
12917TIP3    H238674   2.676   3.464   0.657 -0.0756  0.8171  0.4339
12918TIP3   OH238675   3.104   1.266   6.621  0.0770  0.2448 -0.4871
12918TIP3    H138676   3.076   1.182   6.585 -2.6433  0.3494  1.1227
12918TIP3    H238677   3.188   1.247   6.663  0.0618 -1.3787 -1.1124
12919TIP3   OH238678   3.694   6.490   6.742  0.5307 -0.4169  0.5904
12919TIP3    H138679   3.712   6.407   6.698 -1.4661  0.0574 -1.2867
12919TIP3    H238680   3.770   6.504   6.799  1.4380 -2.9467  0.1323
12920TIP3   OH238681   1.842   6.902   3.415 -0.0776 -0.0558  0.1957
12920TIP3    H138682   1.905   6.849   3.464 -0.1537  0.2372  0.6185
12920TIP3    H238683   1.847   6.869   3.326  0.6836 -0.0331  0.2252
12921TIP3   OH238684   8.495   4.277   4.216  0.3251 -0.1256  0.3484
12921TIP3    H138685   8.575   4.326   4.196 -0.1059  0.8339  0.8870
12921TIP3    H238686   8.424   4.340   4.202 -0.6868 -1.7685 -3.2149
12922TIP3   OH238687   3.824   1.194   5.097 -0.4602 -0.2359 -0.0460
12922TIP3    H138688   3.799   1.109   5.062 -1.4178 -0.0768  0.2259
12922TIP3    H238689   3.909   1.180   5.138  0.4393 -0.5595 -1.9129
12923TIP3   OH238690   7.841   5.628   1.998 -0.7982 -0.3135 -0.0084
12923TIP3    H138691   7.845   5.592   1.909  0.7812 -0.2606  0.0147
12923TIP3    H238692   7.931   5.654   2.018 -1.1958  0.0463  1.4623
12924TIP3   OH238693   3.351   5.368   1.020 -0.4661 -0.2561  0.2358
12924TIP3    H138694   3.296   5.290   1.023  0.8199 -1.1583  1.9299
12924TIP3    H238695   3.322   5.420   1.094  0.8281 -0.6756  1.0577
12925TIP3   OH238696   8.497   0.170   0.472  0.4416  0.0802 -0.0331
12925TIP3    H138697   8.461   0.186   0.385  2.0874  0.6432 -0.6458
12925TIP3    H238698   8.534   0.254   0.499 -0.0211 -0.0880  1.2238
12926TIP3   OH238699   2.574   8.019   6.748  0.1455  0.5047  0.7155
12926TIP3    H138700   2.642   7.952   6.757  1.4908  1.5461 -1.0654
12926TIP3    H238701   2.496   7.970   6.723  1.0318 -0.4506 -0.3005
12927TIP3   OH238702   4.941   7.376   0.142 -0.3098  0.3615 -0.0924
12927TIP3    H138703   5.023   7.390   0.095 -1.0307 -0.0877 -1.5208
12927TIP3    H238704   4.896   7.308   0.092 -2.6219  2.2692 -0.7474
12928TIP3   OH238705   0.162   7.522   1.335  0.0991  0.4801 -0.1449
12928TIP3    H138706   0.205   7.439   1.353 -0.8456 -0.1700 -0.7749
12928TIP3    H238707   0.154   7.564   1.420  0.4396 -0.1512  0.2070
12929TIP3   OH238708   6.230   6.230   6.396 -0.1852 -0.2275  0.0129
12929TIP3    H138709   6.228   6.137   6.419  0.6249 -1.0006 -2.6940
12929TIP3    H238710   6.211   6.232   6.302  0.9813  2.2474 -0.2405
12930TIP3   OH238711   5.750   7.826   1.584 -0.2956  0.5034  0.1889
12930TIP3    H138712   5.755   7.782   1.499 -1.9127  0.7558 -0.0730
12930TIP3    H238713   5.790   7.911   1.571  1.6150 -0.3206  0.3356
12931TIP3   OH238714   7.881   1.321   5.730  0.1497 -0.0241 -0.1392
12931TIP3    H138715   7.901   1.412   5.750 -2.2936  0.4335  0.6370
12931TIP3    H238716   7.877   1.317   5.634  1.0375  0.4825 -0.2045
12932TIP3   OH238717   5.093   2.996   0.595  0.5289  0.0976  0.0107
12932TIP3    H138718   5.135   2.992   0.681  0.4896  0.4343  0.0464
12932TIP3    H238719   5.107   2.909   0.558 -1.9158 -1.0559  1.5173
12933TIP3   OH238720   5.382   7.263   2.340 -0.3534  0.4408  0.6247
12933TIP3    H138721   5.448   7.268   2.271 -1.3161 -2.1071 -0.6159
12933TIP3    H238722   5.390   7.346   2.387  2.4073  1.0086 -0.6344
12934TIP3   OH238723   2.542   5.080   3.024 -0.4779  0.1799  0.1524
12934TIP3    H138724   2.613   5.046   2.970 -1.3949 -0.3568 -0.7390
12934TIP3    H238725   2.476   5.010   3.025 -0.7116  0.3762  1.5443
12935TIP3   OH238726   8.047   7.500   0.436 -0.2882  0.3070  0.5344
12935TIP3    H138727   8.039   7.594   0.452  0.9468  0.5730 -0.2972
12935TIP3    H238728   8.092   7.466   0.513  0.5083  0.6356  0.2223
12936TIP3   OH238729   7.856   5.044   0.585  0.2535 -0.5510  0.1221
12936TIP3    H138730   7.860   5.134   0.552 -3.0438 -0.0469  0.7831
12936TIP3    H238731   7.887   4.990   0.511  1.0587  1.0105 -0.7364
12937TIP3   OH238732   0.984   7.425   3.262 -0.1378 -0.0547 -0.0222
12937TIP3    H138733   0.900   7.442   3.218  0.7551  3.5788 -0.6586
12937TIP3    H238734   0.987   7.488   3.333  2.2131  0.1799 -0.2580
12938TIP3   OH238735   1.246   5.140   5.703  0.0915 -0.1093  0.6551
12938TIP3    H138736   1.161   5.176   5.677 -0.1991  0.1310  1.8699
12938TIP3    H238737   1.270   5.191   5.780  1.8036  0.4748 -0.2121
12939TIP3   OH238738   2.127   5.489   0.537  0.4264  0.5086  1.1089
12939TIP3    H138739   2.074   5.565   0.517 -1.3235 -0.7059  0.9174
12939TIP3    H238740   2.209   5.503   0.490 -0.7773  1.1626 -0.8911
12940TIP3   OH238741   7.044   3.562   6.614 -0.1887  0.2427  0.5010
12940TIP3    H138742   7.006   3.476   6.593  0.4890  0.1559 -0.4303
12940TIP3    H238743   7.089   3.548   6.697 -2.8481  0.5635  2.1079
12941TIP3   OH238744   1.748   2.147   1.619  0.2427  0.0604 -0.9347
12941TIP3    H138745   1.707   2.063   1.640  0.2821  0.3181  0.2407
12941TIP3    H238746   1.676   2.210   1.619  0.2451  0.0671 -1.6002
12942TIP3   OH238747   6.012   2.658   3.452  0.0882 -0.2252  0.0281
12942TIP3    H138748   5.973   2.642   3.538  0.1889 -0.0711  0.1033
12942TIP3    H238749   6.090   2.710   3.470 -0.9403  1.5090 -0.3198
12943TIP3   OH238750   8.247   2.682   2.196  0.3324 -0.4937  0.0366
12943TIP3    H138751   8.165   2.686   2.245 -0.1605  0.4433 -0.8308
12943TIP3    H238752   8.287   2.600   2.223 -0.8293 -0.9046  0.5657
12944TIP3   OH238753   4.034   3.751   3.601 -0.3560 -0.0679  0.4182
12944TIP3    H138754   4.046   3.796   3.685  0.3610  0.0804  0.2492
12944TIP3    H238755   3.958   3.793   3.561  1.0332  1.9185 -0.3058
12945TIP3   OH238756   2.037   1.444   2.832 -0.3865  0.5966  0.2933
12945TIP3    H138757   2.132   1.430   2.829 -0.5132 -0.2773  0.1671
12945TIP3    H238758   2.001   1.357   2.847 -1.2609  0.6494 -1.3366
12946TIP3   OH238759   0.164   0.760   2.223  0.5435 -0.0536 -0.4891
12946TIP3    H138760   0.139   0.797   2.307 -2.2848  1.5321 -1.8763
12946TIP3    H238761   0.257   0.781   2.213  0.6567  0.6618  1.7169
12947TIP3   OH238762   6.705   6.047   4.644 -0.2197 -0.1188  0.2733
12947TIP3    H138763   6.681   6.135   4.674  0.2884  0.5994 -1.3107
12947TIP3    H238764   6.622   6.002   4.632 -0.7057  1.1741 -1.7696
12948TIP3   OH238765   3.334   5.099   5.440  0.1672 -0.1858 -0.1251
12948TIP3    H138766   3.342   5.061   5.353  0.6641  0.4049 -0.3439
12948TIP3    H238767   3.320   5.193   5.425  1.8380  0.2000  0.4248
12949TIP3   OH238768   6.555   8.007   1.454  0.0674 -0.3993  0.2339
12949TIP3    H138769   6.544   8.074   1.522  0.7031 -0.2927  0.2451
12949TIP3    H238770   6.485   8.025   1.391  1.3062  1.4942 -0.7364
12950TIP3   OH238771   8.166   4.974   3.421  0.6181  0.1994 -0.8088
12950TIP3    H138772   8.104   4.909   3.387  0.9984 -0.5652 -0.0607
12950TIP3    H238773   8.131   5.058   3.391 -2.1348  0.0295  1.5733
12951TIP3   OH238774   2.905   5.073   1.934  0.5990 -0.0535  0.1196
12951TIP3    H138775   2.862   4.989   1.943  0.8632 -0.1451  0.5564
12951TIP3    H238776   2.858   5.117   1.863 -0.8323  0.2458  1.2170
12952TIP3   OH238777   2.031   3.188   6.206  0.6890  0.2090  0.4912
12952TIP3    H138778   2.114   3.201   6.159  0.9100 -1.7156  0.2424
12952TIP3    H238779   2.057   3.146   6.288  0.0308  0.5468  0.8773
12953TIP3   OH238780   1.986   4.938   1.841 -0.2805  0.3983  0.3763
12953TIP3    H138781   1.903   4.961   1.881  0.1442  0.0854  1.4783
12953TIP3    H238782   1.963   4.910   1.752 -1.1790  1.6470  0.1979
12954TIP3   OH238783   8.081   4.285   5.722  0.2909 -0.6845 -0.2242
12954TIP3    H138784   8.143   4.342   5.678  0.7063 -0.6352  0.4160
12954TIP3    H238785   8.093   4.200   5.680 -0.9756 -0.1356 -1.8222
12955TIP3   OH238786   1.909   5.934   6.835  0.3561  0.5755  0.0953
12955TIP3    H138787   1.941   5.919   6.745  0.5458 -1.8256  0.5008
12955TIP3    H238788   1.982   5.907   6.890  0.2217  2.0023  0.9938
12956TIP3   OH238789   1.867   8.093   2.369 -0.0541  0.1298  0.2151
12956TIP3    H138790   1.893   8.156   2.437 -1.4378  0.3005  0.6197
12956TIP3    H238791   1.937   8.098   2.304  1.9092 -0.8816  2.1339
12957TIP3   OH238792   0.926   6.882   6.083  0.2481  0.0683  0.7142
12957TIP3    H138793   0.870   6.925   6.019  2.0748  1.5492 -0.0153
12957TIP3    H238794   0.896   6.916   6.168 -0.7355 -0.1411  0.4608
12958TIP3   OH238795   4.016   6.054   1.368  0.4290  0.6797  0.0868
12958TIP3    H138796   4.108   6.046   1.395  0.2594 -0.5549  0.3627
12958TIP3    H238797   3.967   6.043   1.449 -0.0574 -2.0334 -0.4784
12959TIP3   OH238798   6.516   4.403   5.987  0.2942 -0.0717  0.0380
12959TIP3    H138799   6.451   4.456   6.032 -1.9328 -2.0048 -0.6765
12959TIP3    H238800   6.485   4.398   5.896  1.2822 -1.2634 -0.2723
12960TIP3   OH238801   1.758   5.859   3.506 -0.4114 -0.0317 -0.1609
12960TIP3    H138802   1.768   5.929   3.571 -0.0773 -0.7625  0.5816
12960TIP3    H238803   1.668   5.868   3.476 -0.6142  0.2307  0.5007
12961TIP3   OH238804   8.122   2.198   4.900 -0.3462  0.4778 -0.1659
12961TIP3    H138805   8.121   2.288   4.933 -2.4713  0.0652  1.0800
12961TIP3    H238806   8.177   2.150   4.962  0.4511  0.8256 -0.5962
12962TIP3   OH238807   0.055   1.298   6.005  0.3358  0.4270 -0.2460
12962TIP3    H138808   0.045   1.299   6.100 -1.3638  0.9800 -0.4021
12962TIP3    H238809  -0.020   1.249   5.973  0.5806  0.7355 -1.3481
12963TIP3   OH238810   3.643   6.004   2.039  0.1031 -0.0310 -0.4480
12963TIP3    H138811   3.595   6.065   1.983 -0.5800 -0.2084 -0.0654
12963TIP3    H238812   3.575   5.950   2.080  0.6709 -0.7312 -0.4123
12964TIP3   OH238813   6.988   2.433   3.831  0.4105  0.5312 -0.1619
12964TIP3    H138814   6.912   2.395   3.876  1.2874  0.0852  0.9798
12964TIP3    H238815   7.063   2.404   3.882  1.2858  1.8186 -0.6677
12965TIP3   OH238816   2.759   2.709   2.094  0.0989 -0.5410  0.4305
12965TIP3    H138817   2.793   2.666   2.016  0.7670 -2.3105  1.6250
12965TIP3    H238818   2.708   2.641   2.139 -0.1416  0.3738  1.6024
12966TIP3   OH238819   0.103   5.602   2.521 -0.2132  0.0295  0.3593
12966TIP3    H138820   0.111   5.618   2.615  0.4431 -0.7718  0.4522
12966TIP3    H238821   0.193   5.593   2.490 -0.4421 -0.2292 -0.2526
12967TIP3   OH238822   7.942   7.505   4.470  0.4954  0.2631  0.7034
12967TIP3    H138823   7.851   7.506   4.501 -0.1058 -0.9587 -0.8869
12967TIP3    H238824   7.992   7.467   4.543 -0.6034 -0.9609  0.8662
12968TIP3   OH238825   3.141   2.991   3.154  0.6243  0.2792  0.1885
12968TIP3    H138826   3.101   2.977   3.068  0.3701 -1.6419  0.5577
12968TIP3    H238827   3.235   2.986   3.138  0.5755 -0.2425  0.0178
12969TIP3   OH238828   5.540   3.188   1.654  0.0619  0.8607  0.0759
12969TIP3    H138829   5.565   3.119   1.715  1.5430  0.4463 -0.9283
12969TIP3    H238830   5.496   3.142   1.582 -0.8438  1.2308  0.3809
12970TIP3   OH238831   7.342   5.879   3.347 -0.1443  0.4885  0.4747
12970TIP3    H138832   7.256   5.859   3.384 -0.6851 -0.0378 -0.9812
12970TIP3    H238833   7.399   5.891   3.423 -1.6775  1.7228  1.5128
12971TIP3   OH238834   5.806   1.594   1.398  0.1987 -0.1910  0.4597
12971TIP3    H138835   5.773   1.520   1.347  1.0672  0.4800 -1.1315
12971TIP3    H238836   5.843   1.653   1.334  0.7373  1.0215  1.8302
12972TIP3   OH238837   3.849   2.719   7.048  0.7517 -0.0783  0.2150
12972TIP3    H138838   3.840   2.759   6.961  2.0317 -2.7098 -1.2564
12972TIP3    H238839   3.845   2.625   7.031  0.0654 -0.6904  3.1853
12973TIP3   OH238840   4.221   0.632   2.752  0.0549  0.1258  0.0937
12973TIP3    H138841   4.171   0.670   2.679  0.2171 -0.9428 -0.5965
12973TIP3    H238842   4.186   0.543   2.760 -0.0773  0.2827  1.4448
12974TIP3   OH238843   2.483   3.883   1.104  0.0901 -0.3348  0.1074
12974TIP3    H138844   2.445   3.844   1.183 -1.8354 -1.4769 -1.2953
12974TIP3    H238845   2.577   3.866   1.110  0.2557  1.0483  2.8992
12975TIP3   OH238846   8.539   6.678   6.690  0.5896 -0.1135 -0.2078
12975TIP3    H138847   8.610   6.630   6.648  0.9114 -0.5275  0.7876
12975TIP3    H238848   8.543   6.652   6.782 -0.4397  0.3585 -0.0136
12976TIP3   OH238849   5.392   0.709   4.838 -0.4423 -0.2048 -0.1657
12976TIP3    H138850   5.317   0.701   4.779 -0.3110 -3.3972 -0.0855
12976TIP3    H238851   5.467   0.718   4.780 -0.6408  0.3194 -0.3440
12977TIP3   OH238852   3.177   4.284   0.072 -0.0436 -0.0902  0.2334
12977TIP3    H138853   3.272   4.289   0.057  0.4082 -2.8210  1.4878
12977TIP3    H238854   3.139   4.337   0.003  2.3692 -0.0190 -1.1659
12978TIP3   OH238855   1.159   5.955   4.447  0.4173 -0.2823 -0.2117
12978TIP3    H138856   1.116   5.944   4.532  2.4331  0.8869  1.0516
12978TIP3    H238857   1.238   5.902   4.454  1.0872  0.5883 -0.9928
12979TIP3   OH238858   2.461   2.059   3.173 -0.2621 -0.2103 -0.5582
12979TIP3    H138859   2.370   2.034   3.158 -0.4222 -0.3519  0.5794
12979TIP3    H238860   2.485   2.109   3.095 -0.8227 -1.4747 -1.5779
12980TIP3   OH238861   3.291   0.916   2.423  0.0802  0.1629  0.1910
12980TIP3    H138862   3.268   0.994   2.373  1.1093 -0.0190 -0.6146
12980TIP3    H238863   3.265   0.935   2.513  1.2258  1.8471  0.2071
12981TIP3   OH238864   1.756   5.717   3.761  0.4209  0.2283  0.7857
12981TIP3    H138865   1.769   5.752   3.673 -0.7087  1.5410  1.1153
12981TIP3    H238866   1.817   5.642   3.766  0.8227  0.3976 -0.9308
12982TIP3   OH238867   2.498   3.309   6.896 -0.0610 -0.6664 -0.3209
12982TIP3    H138868   2.435   3.327   6.965 -1.2444 -0.9870 -1.2859
12982TIP3    H238869   2.456   3.341   6.815  1.7303  0.6976 -0.7866
12983TIP3   OH238870   3.633   7.057   6.407  0.3691 -0.1868 -0.1419
12983TIP3    H138871   3.649   7.054   6.313  1.3704  2.6860 -0.1787
12983TIP3    H238872   3.708   7.012   6.446 -0.1164 -1.5034 -0.6650
12984TIP3   OH238873   5.887   7.034   3.150  0.3250 -0.4632  0.4733
12984TIP3    H138874   5.979   7.032   3.124  1.1120  0.0950  2.9843
12984TIP3    H238875   5.878   6.963   3.213 -0.2967  1.0398  2.1595
12985TIP3   OH238876   7.036   2.816   4.768 -0.5729 -0.1073 -0.4575
12985TIP3    H138877   7.128   2.806   4.790 -0.8523 -1.8591  0.1508
12985TIP3    H238878   7.005   2.726   4.756 -2.0084  0.4883 -1.4824
12986TIP3   OH238879   8.198   0.818   4.413  0.4894  0.9536 -0.1828
12986TIP3    H138880   8.225   0.758   4.482 -2.2111 -0.1264  0.0411
12986TIP3    H238881   8.177   0.900   4.459 -2.8241 -0.2258  0.6800
12987TIP3   OH238882   2.079   5.864   1.069 -0.7354  0.2003 -0.0547
12987TIP3    H138883   2.010   5.855   1.003 -0.8877 -0.6885  0.2076
12987TIP3    H238884   2.039   5.917   1.138 -0.9874  0.1078 -0.1291
12988TIP3   OH238885   4.969   1.686   4.167  0.3137 -0.2296 -0.8786
12988TIP3    H138886   4.904   1.744   4.207  0.8030  0.8251 -1.5664
12988TIP3    H238887   5.024   1.659   4.240 -0.6374 -0.8123 -0.3516
12989TIP3   OH238888   6.621   5.282   3.927 -0.1259  0.6675  0.1768
12989TIP3    H138889   6.603   5.319   3.841 -0.1586  0.2214 -0.0102
12989TIP3    H238890   6.713   5.256   3.923 -0.2382  0.2733  0.1358
12990TIP3   OH238891   4.668   6.798   0.713  0.1148 -0.5201  0.1742
12990TIP3    H138892   4.637   6.732   0.651  1.2610 -1.3755  0.4701
12990TIP3    H238893   4.684   6.749   0.794  0.1702  0.2825  0.6569
12991TIP3   OH238894   0.370   3.806   5.385  0.0055 -0.3197 -0.4643
12991TIP3    H138895   0.303   3.779   5.322 -0.5809 -0.8709  0.3768
12991TIP3    H238896   0.393   3.726   5.432  0.4171  0.0857  0.0375
12992TIP3   OH238897   0.892   5.355   4.582  0.2785 -0.2581  1.1695
12992TIP3    H138898   0.802   5.383   4.599 -0.4552 -0.4042 -1.8178
12992TIP3    H238899   0.931   5.429   4.535  0.2329 -1.8071 -1.4914
12993TIP3   OH238900   1.476   7.232   2.482  0.1588 -0.2394  0.1170
12993TIP3    H138901   1.506   7.299   2.543 -1.6988 -0.2634  1.1315
12993TIP3    H238902   1.438   7.163   2.537 -0.6477 -0.7313 -0.9985
12994TIP3   OH238903   4.113   7.484   6.764 -0.0539  0.0434 -0.1148
12994TIP3    H138904   4.069   7.430   6.830 -2.6506  0.6976 -1.1719
12994TIP3    H238905   4.143   7.422   6.698 -1.3640 -0.3234 -0.4048
12995TIP3   OH238906   0.803   0.957   6.959  0.0677 -0.4205 -0.1215
12995TIP3    H138907   0.786   0.879   7.012 -1.8923  0.2529  0.3517
12995TIP3    H238908   0.727   0.962   6.900  1.5247 -0.3862 -2.0932
12996TIP3   OH238909   4.717   1.194   5.855  0.0048 -0.1428  0.3748
12996TIP3    H138910   4.695   1.251   5.782  0.6385 -1.4378 -0.8948
12996TIP3    H238911   4.634   1.178   5.900 -0.1572  1.8105  0.8355
12997TIP3   OH238912   4.206   3.095   6.134  0.1075  0.1945  0.1597
12997TIP3    H138913   4.282   3.152   6.120  0.6027  0.2196  2.5092
12997TIP3    H238914   4.172   3.121   6.220 -1.2826 -1.2661  0.1005
12998TIP3   OH238915   0.637   1.355   6.420 -0.4461 -0.3541  0.9278
12998TIP3    H138916   0.588   1.386   6.343 -0.6371 -1.2130  0.6949
12998TIP3    H238917   0.595   1.399   6.494 -0.6175  0.0524  0.5953
12999TIP3   OH238918   2.905   0.233   1.878 -0.0920  0.4009 -0.2574
12999TIP3    H138919   2.925   0.283   1.798  0.0534  0.8796  0.0743
12999TIP3    H238920   2.980   0.249   1.935 -0.2933  0.2252  0.0539
13000TIP3   OH238921   1.996   5.516   1.293  0.3731  0.2625  0.6189
13000TIP3    H138922   1.960   5.473   1.215 -0.3524  1.3149  0.3362
13000TIP3    H238923   2.088   5.492   1.294  0.3774  0.1750 -0.5378
13001TIP3   OH238924   4.162   5.004   6.621 -1.0855 -0.5727 -0.9209
13001TIP3    H138925   4.252   4.980   6.600 -0.6470 -0.5905  0.8272
13001TIP3    H238926   4.134   4.939   6.685 -1.2000  1.2567  1.0135
13002TIP3   OH238927   4.534   1.776   6.990 -0.1825  0.0798 -0.2378
13002TIP3    H138928   4.459   1.826   7.023  1.2119  0.8489  1.9824
13002TIP3    H238929   4.580   1.837   6.932  0.6879  0.9618  1.2962
13003TIP3   OH238930   3.226   3.426   0.332  0.3059  0.4140 -0.0204
13003TIP3    H138931   3.239   3.353   0.394  0.6066 -0.2965 -0.9065
13003TIP3    H238932   3.177   3.387   0.260  1.1043  0.9258 -0.8436
13004TIP3   OH238933   6.323   2.758   3.030  0.0955 -0.1630  0.4774
13004TIP3    H138934   6.252   2.738   2.970  0.4410  0.7449 -0.2577
13004TIP3    H238935   6.397   2.781   2.974  0.6510 -0.0318  1.2402
13005TIP3   OH238936   0.288   3.835   5.894 -0.0352 -0.5075  0.2413
13005TIP3    H138937   0.378   3.831   5.927  0.8330 -0.4839 -1.9252
13005TIP3    H238938   0.298   3.861   5.802 -2.1083 -2.4172 -0.6103
13006TIP3   OH238939   2.724   3.062   5.384  0.0326  0.0415 -0.3992
13006TIP3    H138940   2.753   3.047   5.474 -1.8699 -1.1019  0.0801
13006TIP3    H238941   2.763   3.145   5.359  1.6928 -0.2614  0.9961
13007TIP3   OH238942   1.193   7.626   2.717  0.3501 -0.1343  1.3114
13007TIP3    H138943   1.192   7.716   2.683 -1.2190  0.2613  2.2576
13007TIP3    H238944   1.262   7.582   2.668 -0.9971  0.6871 -1.5348
13008TIP3   OH238945   8.659   6.734   4.611 -0.6873  0.4573 -0.0237
13008TIP3    H138946   8.617   6.659   4.652 -0.7773 -0.7778 -2.2077
13008TIP3    H238947   8.594   6.767   4.548  0.2840  0.7289 -0.9276
13009TIP3   OH238948   2.045   3.182   5.676  0.3906  0.3236 -0.2585
13009TIP3    H138949   2.121   3.181   5.733 -0.4310  1.7204  0.9218
13009TIP3    H238950   2.001   3.099   5.693  1.8005 -0.6784 -1.2481
13010TIP3   OH238951   0.310   0.909   3.175  0.2899  0.0875  0.1814
13010TIP3    H138952   0.331   0.833   3.230  2.1941  0.6427  0.2576
13010TIP3    H238953   0.326   0.985   3.231  1.7213  0.6441 -0.9437
13011TIP3   OH238954   3.744   0.680   3.267  0.4598 -0.1524 -1.1478
13011TIP3    H138955   3.779   0.683   3.177  1.4737 -0.7376 -0.7887
13011TIP3    H238956   3.726   0.588   3.283  0.9958 -0.1532 -0.4929
13012TIP3   OH238957   6.911   7.139   3.292 -0.1203  0.6123 -0.1116
13012TIP3    H138958   6.896   7.044   3.287 -0.4697  0.7242 -2.4950
13012TIP3    H238959   6.999   7.147   3.330  0.2484 -0.7323 -0.5888
13013TIP3   OH238960   6.111   5.053   1.525 -0.1477 -0.0393  0.4101
13013TIP3    H138961   6.038   5.087   1.577  0.0029 -0.0291  0.6171
13013TIP3    H238962   6.186   5.053   1.585  0.0142 -0.0879  0.2121
13014TIP3   OH238963   0.016   7.297   5.464 -0.3653 -0.2349 -0.9661
13014TIP3    H138964   0.086   7.263   5.520 -0.5883 -0.1002 -0.6008
13014TIP3    H238965  -0.059   7.242   5.484 -0.5911  0.1497 -0.7367
13015TIP3   OH238966   2.923   4.329   5.802 -0.4195 -0.4238  0.0279
13015TIP3    H138967   2.960   4.416   5.820 -0.9616  0.3116 -2.0293
13015TIP3    H238968   2.979   4.269   5.849 -0.3636  1.0719  1.9896
13016TIP3   OH238969   7.446   2.140   4.181 -0.3221 -0.2505 -0.4422
13016TIP3    H138970   7.418   2.232   4.175  1.6582  0.4929  0.6919
13016TIP3    H238971   7.416   2.111   4.267  3.6387  1.1600  1.6623
13017TIP3   OH238972   6.968   6.086   1.851  0.3848  0.4772  0.2797
13017TIP3    H138973   6.888   6.064   1.803  0.3134  0.4753  0.3995
13017TIP3    H238974   6.948   6.169   1.895  0.3197  0.2898  0.6066
13018TIP3   OH238975   4.472   4.593   3.192 -0.6147  1.2633 -0.2901
13018TIP3    H138976   4.429   4.520   3.237 -3.6101  2.4684 -0.9335
13018TIP3    H238977   4.485   4.659   3.260  0.1684  0.9376 -0.1153
13019TIP3   OH238978   8.482   4.406   0.703 -0.4050  0.2683  0.2327
13019TIP3    H138979   8.473   4.492   0.744 -0.1745  0.2891  0.2379
13019TIP3    H238980   8.411   4.354   0.741  1.2889 -0.4838  2.5695
13020TIP3   OH238981   8.085   1.207   0.793  0.4345  0.2924 -0.4176
13020TIP3    H138982   8.026   1.252   0.733 -2.9338 -1.5245  1.2316
13020TIP3    H238983   8.027   1.159   0.853  3.5903 -3.3777  0.1318
13021TIP3   OH238984   0.255   7.383   3.365 -0.3313 -0.1015 -0.4752
13021TIP3    H138985   0.218   7.310   3.415 -0.7654  0.1919 -0.3550
13021TIP3    H238986   0.304   7.434   3.430  1.3287 -1.1323 -0.8526
13022TIP3   OH238987   1.302   2.597   5.512 -0.2206  0.2429  0.1287
13022TIP3    H138988   1.276   2.539   5.584 -0.3636  1.2666  0.9230
13022TIP3    H238989   1.363   2.545   5.460  0.0610 -0.4457  1.1199
13023TIP3   OH238990   0.310   3.176   1.043  0.1868  0.0815  0.1261
13023TIP3    H138991   0.297   3.270   1.028 -0.4885 -0.0397 -0.0703
13023TIP3    H238992   0.265   3.159   1.126 -1.0013 -0.3460 -0.5743
13024TIP3   OH238993   0.139   7.956   2.442 -0.1637  0.0617  0.5535
13024TIP3    H138994   0.058   7.904   2.432 -0.8117  0.9227  1.2343
13024TIP3    H238995   0.139   7.984   2.533  2.0300 -1.6940  1.1931
13025TIP3   OH238996   0.626   0.744   2.817  0.3720  0.0126  0.4959
13025TIP3    H138997   0.659   0.834   2.826  1.4371  0.0336 -2.4739
13025TIP3    H238998   0.684   0.692   2.872  0.6858  0.9634  1.0932
13026TIP3   OH238999   2.791   6.775   2.828 -0.0594  0.3846  0.4510
13026TIP3    H139000   2.885   6.786   2.814 -0.0354 -1.0489 -0.7372
13026TIP3    H239001   2.752   6.791   2.743 -0.9572  1.3498  1.0191
13027TIP3   OH239002   6.344   0.348   5.018 -0.2689 -0.0217  0.3782
13027TIP3    H139003   6.303   0.293   5.085 -1.9086  1.4024  0.6215
13027TIP3    H239004   6.310   0.436   5.036  2.5082  1.1933  0.2402
13028TIP3   OH239005   4.386   5.452   5.763 -0.0225 -0.1927 -0.2179
13028TIP3    H139006   4.467   5.503   5.755  0.4451 -0.8239  0.3914
13028TIP3    H239007   4.403   5.372   5.712 -0.2960 -0.2913 -0.1564
13029TIP3   OH239008   8.578   0.419   5.090 -0.2190  0.0300  0.7728
13029TIP3    H139009   8.540   0.334   5.112 -0.7006  0.1511  0.4343
13029TIP3    H239010   8.554   0.475   5.164  2.7482 -0.8500  2.5585
13030TIP3   OH239011   2.104   5.223   6.480 -0.1884  0.2812  0.4123
13030TIP3    H139012   2.198   5.237   6.468 -0.6185  1.7966 -1.7597
13030TIP3    H239013   2.063   5.286   6.422 -2.5500 -1.3507  0.1672
13031TIP3   OH239014   6.443   5.390   0.313 -0.4355 -0.0236 -0.0578
13031TIP3    H139015   6.465   5.323   0.249 -1.0040  0.0341 -0.3205
13031TIP3    H239016   6.461   5.473   0.268  0.9873  0.0040  0.5273
13032TIP3   OH239017   6.345   7.251   2.429  0.1324  0.1085 -0.0508
13032TIP3    H139018   6.276   7.217   2.487 -0.0313 -0.8792 -0.8095
13032TIP3    H239019   6.303   7.259   2.344  1.1785 -1.3693 -0.7384
13033TIP3   OH239020   1.317   4.700   6.361 -0.1473 -0.0038  0.1365
13033TIP3    H139021   1.393   4.725   6.309 -0.9204  1.3256 -0.4046
13033TIP3    H239022   1.261   4.777   6.361 -2.0055 -1.2655 -0.4049
13034TIP3   OH239023   5.239   2.946   3.749 -0.4080  0.0708  0.4499
13034TIP3    H139024   5.250   2.888   3.824  3.5158  0.9369  0.7619
13034TIP3    H239025   5.185   3.019   3.782  0.4992  0.0010  2.1879
13035TIP3   OH239026   6.859   0.057   3.797  0.7280 -0.2870  0.1881
13035TIP3    H139027   6.844  -0.037   3.801 -0.8689 -0.2688 -2.7096
13035TIP3    H239028   6.899   0.072   3.711  0.4132  1.7416  0.3394
13036TIP3   OH239029   2.806   0.075   5.032  0.9819  0.3055 -0.0105
13036TIP3    H139030   2.824   0.130   5.108  0.2753  0.5192  0.0132
13036TIP3    H239031   2.797  -0.014   5.068  0.6644  0.4033  0.1534
13037TIP3   OH239032   1.873   0.704   4.238 -0.2201 -0.2607  0.6302
13037TIP3    H139033   1.944   0.646   4.263  0.8839  0.7394 -0.0785
13037TIP3    H239034   1.804   0.645   4.205  0.8633 -1.1738 -0.0740
13038TIP3   OH239035   1.727   3.258   1.618 -0.6363 -0.1032  0.5325
13038TIP3    H139036   1.766   3.248   1.531 -0.0735  0.2640  0.7399
13038TIP3    H239037   1.784   3.208   1.676 -0.7414  0.0399  0.7610
13039TIP3   OH239038   0.530   7.829   3.014  0.7504  0.3845  0.0438
13039TIP3    H139039   0.461   7.766   2.995  2.3757 -1.0356 -1.4101
13039TIP3    H239040   0.524   7.894   2.944  1.5281 -0.3198 -0.6903
13040TIP3   OH239041   2.690   1.177   5.779 -0.2343  0.3959 -0.5581
13040TIP3    H139042   2.610   1.172   5.728 -0.3966  0.9222 -0.3687
13040TIP3    H239043   2.761   1.175   5.714 -0.4261  0.6814 -0.7785
13041TIP3   OH239044   1.006   2.120   5.246 -0.4123  0.0439  0.5526
13041TIP3    H139045   0.912   2.111   5.228 -0.7237 -1.3463  2.5584
13041TIP3    H239046   1.049   2.084   5.168 -1.5220  0.1211 -0.1227
13042TIP3   OH239047   1.172   3.066   1.845 -0.4903 -0.5282  0.3908
13042TIP3    H139048   1.108   3.121   1.800 -1.2190 -0.5564  1.3570
13042TIP3    H239049   1.121   3.016   1.909  0.4872 -0.5331  1.2041
13043TIP3   OH239050   2.966   2.835   5.769  0.4307 -0.0124 -0.5762
13043TIP3    H139051   2.983   2.794   5.854  0.1261  1.9489  0.5095
13043TIP3    H239052   2.927   2.766   5.716 -0.5698 -0.9828  1.3240
13044TIP3   OH239053   6.821   7.038   4.930  0.0726 -0.6599  0.5196
13044TIP3    H139054   6.895   7.086   4.893 -2.1464  3.2742  0.6677
13044TIP3    H239055   6.833   7.044   5.025 -0.9391  1.1079  0.5834
13045TIP3   OH239056   6.744   6.759   5.634  0.5130  0.0435  0.0398
13045TIP3    H139057   6.717   6.757   5.726 -0.7609  1.8552 -0.2311
13045TIP3    H239058   6.839   6.762   5.638  0.4812  0.3020  1.3196
13046TIP3   OH239059   5.013   4.762   3.532 -0.6698 -0.2856 -0.3372
13046TIP3    H139060   5.046   4.697   3.594  0.1373  0.2064 -0.2386
13046TIP3    H239061   4.968   4.710   3.466 -2.1392 -0.7778  0.9937
13047TIP3   OH239062   4.836   4.071   6.728  0.5103  0.2005 -0.3031
13047TIP3    H139063   4.916   4.021   6.740 -0.9945 -2.4490 -0.5764
13047TIP3    H239064   4.804   4.088   6.816  0.5720 -0.1169 -0.2208
13048TIP3   OH239065   4.411   6.537   2.167  0.2030  0.0229 -0.4431
13048TIP3    H139066   4.482   6.599   2.183  0.1167 -0.1260  0.6287
13048TIP3    H239067   4.331   6.588   2.178  0.1341  0.1102 -1.2955
13049TIP3   OH239068   8.379   0.554   4.302  0.0944  0.4643  0.1671
13049TIP3    H139069   8.367   0.634   4.354  1.4683  1.1348 -0.4731
13049TIP3    H239070   8.407   0.586   4.216 -1.2591 -0.6519 -0.7318
13050TIP3   OH239071   2.431   6.893   6.623 -0.2101  0.6199  0.2273
13050TIP3    H139072   2.402   6.867   6.711  1.3165  0.4883  0.7170
13050TIP3    H239073   2.372   6.847   6.564  0.4459 -1.4992  1.1389
13051TIP3   OH239074   0.774   4.411   5.362 -0.2876  0.7842  0.5350
13051TIP3    H139075   0.786   4.431   5.269 -0.1581  0.9827  0.5937
13051TIP3    H239076   0.723   4.485   5.396 -1.4489  0.0963  0.3530
13052TIP3   OH239077   6.075   1.224   3.903  0.9565 -0.6978  0.5120
13052TIP3    H139078   6.007   1.253   3.842 -0.6751 -2.9736  1.1490
13052TIP3    H239079   6.132   1.168   3.850  1.9179  0.5267  0.1887
13053TIP3   OH239080   6.942   4.475   2.308  0.1884  0.1207  0.4258
13053TIP3    H139081   6.976   4.420   2.379  0.6878 -0.3521 -0.1674
13053TIP3    H239082   6.975   4.563   2.328 -0.9478  0.3052  1.5944
13054TIP3   OH239083   1.838   5.434   3.313 -0.1593 -0.6426  0.6163
13054TIP3    H139084   1.928   5.401   3.309 -0.0643 -0.5683  1.7616
13054TIP3    H239085   1.843   5.512   3.367 -0.6213  0.4929 -0.8933
13055TIP3   OH239086   3.859   4.532   0.123  0.6540 -0.3030 -0.0772
13055TIP3    H139087   3.912   4.585   0.064  2.1664 -0.0485  1.4342
13055TIP3    H239088   3.879   4.442   0.098  0.1907 -0.2018 -0.8515
13056TIP3   OH239089   6.553   6.647   7.019  0.4621 -0.1698  0.2927
13056TIP3    H139090   6.579   6.560   7.051  1.2688  0.0817  0.3529
13056TIP3    H239091   6.491   6.679   7.084  0.0981 -0.7315  0.2308
13057TIP3   OH239092   6.596   0.309   2.507  0.0789  0.3170  0.5944
13057TIP3    H139093   6.528   0.352   2.455  0.2516  0.5562  0.5643
13057TIP3    H239094   6.678   0.348   2.477  0.4493 -1.4895 -0.8674
13058TIP3   OH239095   0.330   1.485   1.032 -0.1707  0.1474 -0.0627
13058TIP3    H139096   0.365   1.536   1.105  1.1935 -0.8793  0.0234
13058TIP3    H239097   0.294   1.406   1.072 -1.3060  0.5156 -0.3105
13059TIP3   OH239098   1.303   8.151   1.844 -0.5778  0.1867  0.3308
13059TIP3    H139099   1.220   8.137   1.890 -0.4697  0.4069  0.5894
13059TIP3    H239100   1.323   8.244   1.857 -0.3954  0.1829  0.0914
13060TIP3   OH239101   6.014   0.996   4.587  0.2462  0.0932 -0.4747
13060TIP3    H139102   6.060   1.050   4.651 -1.9996 -2.1600  3.4490
13060TIP3    H239103   6.043   0.906   4.607 -2.0110 -0.8816 -1.2455
13061TIP3   OH239104   8.488   3.922   1.066  0.0259 -0.3200 -0.1361
13061TIP3    H139105   8.408   3.975   1.073  1.1406  1.7447 -1.8345
13061TIP3    H239106   8.459   3.840   1.025 -1.1488  0.6529 -1.3354
13062TIP3   OH239107   4.125   7.447   2.221  0.0019  0.1445  0.0772
13062TIP3    H139108   4.123   7.537   2.251 -1.6997 -0.6072  2.4538
13062TIP3    H239109   4.118   7.454   2.125 -1.8124  2.5013  0.2883
13063TIP3   OH239110   6.360   0.478   6.992  0.1505  0.2909 -0.1392
13063TIP3    H139111   6.268   0.504   6.988  0.3067  0.8461 -0.2347
13063TIP3    H239112   6.358   0.382   6.990 -0.3104  0.2787 -3.2834
13064TIP3   OH239113   6.360   0.794   4.293  0.0270 -0.4671  0.3901
13064TIP3    H139114   6.391   0.884   4.303  1.3207 -0.7340 -0.8742
13064TIP3    H239115   6.439   0.744   4.271 -1.1891 -1.2564 -2.6525
13065TIP3   OH239116   7.358   1.601   5.949  0.5628  0.0067 -0.2797
13065TIP3    H139117   7.290   1.668   5.953 -0.2334 -0.8060  0.0271
13065TIP3    H239118   7.428   1.641   5.897  0.4427  1.3581  0.5522
13066TIP3   OH239119   2.870   0.524   0.909  0.0371  0.2443  0.5100
13066TIP3    H139120   2.796   0.479   0.950  0.5689  0.0174  1.2237
13066TIP3    H239121   2.929   0.545   0.981  0.9377 -0.0602 -0.1206
13067TIP3   OH239122   0.115   1.322   0.930 -0.0476  0.2251 -0.0243
13067TIP3    H139123   0.141   1.230   0.938  0.5204  0.4998  1.4456
13067TIP3    H239124   0.184   1.362   0.877 -0.2217 -0.1438 -0.5446
13068TIP3   OH239125   5.832   4.584   5.837 -0.0389  0.9902 -0.0919
13068TIP3    H139126   5.802   4.511   5.891 -0.6092  0.9847 -0.4083
13068TIP3    H239127   5.757   4.644   5.834  0.2648  1.3693 -0.2137
13069TIP3   OH239128   0.711   7.510   6.856 -0.4872 -0.5792 -0.3389
13069TIP3    H139129   0.631   7.460   6.842 -0.8505  0.2082 -1.2277
13069TIP3    H239130   0.704   7.541   6.946 -1.4004 -0.1709 -0.5362
13070TIP3   OH239131   4.277   6.949   0.879  0.4034 -0.6494  0.2426
13070TIP3    H139132   4.252   7.009   0.809 -0.3382 -0.6187  0.5319
13070TIP3    H239133   4.253   6.994   0.960 -0.3469 -1.4136  0.4563
13071TIP3   OH239134   6.100   1.198   4.766  0.2945 -0.1143  0.3539
13071TIP3    H139135   6.143   1.282   4.777 -0.2241  0.4776 -1.7831
13071TIP3    H239136   6.152   1.137   4.819  2.3468  1.0034 -0.2830
13072TIP3   OH239137   3.299   7.424   2.071  0.0303 -0.1692 -0.5876
13072TIP3    H139138   3.217   7.466   2.097  1.0087  0.3708  2.0395
13072TIP3    H239139   3.366   7.490   2.088  1.0633 -0.6784 -2.4403
13073TIP3   OH239140   6.391   7.292   1.265 -0.2896  0.6153 -0.2363
13073TIP3    H139141   6.336   7.269   1.341  1.2285 -3.2404 -0.0445
13073TIP3    H239142   6.329   7.301   1.193 -1.5828  2.0046  0.9832
13074TIP3   OH239143   8.616   5.351   1.387 -0.1513  0.0857 -0.3417
13074TIP3    H139144   8.525   5.345   1.360  0.2433  0.2522 -1.7861
13074TIP3    H239145   8.629   5.444   1.408 -0.9852 -0.3422  2.5450
13075TIP3   OH239146   0.779   4.825   1.414  0.1164  0.4487  0.5889
13075TIP3    H139147   0.794   4.806   1.321  2.4519  1.7948  0.6220
13075TIP3    H239148   0.688   4.855   1.417  0.0244  0.4984 -1.2911
13076TIP3   OH239149  -0.003   7.567   5.671  0.1023 -0.0976 -0.3880
13076TIP3    H139150   0.092   7.573   5.661  0.1043 -1.3177 -1.4100
13076TIP3    H239151  -0.036   7.649   5.634  0.6538 -0.7719 -2.5727
13077TIP3   OH239152   1.553   5.359   4.211  0.6034 -0.0404 -0.0111
13077TIP3    H139153   1.647   5.380   4.213  0.3742  1.0181  0.0930
13077TIP3    H239154   1.530   5.346   4.303  0.8776 -1.4107 -0.1217
13078TIP3   OH239155   0.714   6.663   5.967 -0.3096 -0.4183  0.8338
13078TIP3    H139156   0.724   6.586   6.023  0.3022 -0.1517  1.1046
13078TIP3    H239157   0.708   6.737   6.028  2.5253  0.1271  0.5979
13079TIP3   OH239158   8.123   7.242   6.195 -0.5734  0.1101  0.1609
13079TIP3    H139159   8.204   7.294   6.198 -1.1595  1.0229  0.8356
13079TIP3    H239160   8.067   7.288   6.133  0.3922 -2.0615 -2.4948
13080TIP3   OH239161   5.643   8.175   6.996  0.2674 -0.3518  0.6315
13080TIP3    H139162   5.581   8.102   6.996  1.3998 -1.3656  1.9193
13080TIP3    H239163   5.729   8.133   6.989  0.8774  0.9826 -0.4623
13081TIP3   OH239164   3.718   1.495   1.865  0.1569 -0.1350 -0.1133
13081TIP3    H139165   3.737   1.586   1.843  1.5203  0.0394  1.5496
13081TIP3    H239166   3.706   1.452   1.780 -0.5687  1.5849 -0.9314
13082TIP3   OH239167   4.427   6.702   3.065  0.0998 -0.0979 -0.1904
13082TIP3    H139168   4.353   6.735   3.115  0.2742  1.0917 -0.6813
13082TIP3    H239169   4.425   6.752   2.983  0.5746 -1.0977 -0.8372
13083TIP3   OH239170   3.524   7.171   6.825 -0.1727  0.2129  0.4552
13083TIP3    H139171   3.560   7.083   6.821 -0.8034 -0.0383  0.0808
13083TIP3    H239172   3.515   7.197   6.733 -3.5102 -0.8260  0.3475
13084TIP3   OH239173   4.829   5.253   2.883  0.1628  0.4412 -0.2534
13084TIP3    H139174   4.888   5.185   2.852 -0.4737  1.0172 -2.9691
13084TIP3    H239175   4.886   5.327   2.904  0.6279  0.0048  0.0331
13085TIP3   OH239176   3.968   1.152   6.928  0.0911  0.2073 -0.0086
13085TIP3    H139177   4.033   1.222   6.930 -0.3762  0.6344  0.2470
13085TIP3    H239178   4.013   1.079   6.884  1.4266 -0.1632  1.8298
13086TIP3   OH239179   3.312   5.375   5.037 -0.1164  0.1162  0.1964
13086TIP3    H139180   3.373   5.315   4.994  0.7342  1.2553 -0.2203
13086TIP3    H239181   3.229   5.362   4.991  0.0063 -0.8285  0.2095
13087TIP3   OH239182   2.776   5.919   0.209  0.0683  0.2406 -0.5065
13087TIP3    H139183   2.752   5.950   0.122 -1.4033 -0.7521 -0.4924
13087TIP3    H239184   2.707   5.857   0.233  1.4085 -0.9279  0.5893
13088TIP3   OH239185   0.450   6.928   4.599  0.1966  0.6650  0.2749
13088TIP3    H139186   0.514   6.986   4.557 -0.4719  0.4077 -1.1357
13088TIP3    H239187   0.397   6.894   4.528 -0.0833 -0.9081  1.1702
13089TIP3   OH239188   2.645   6.157   1.288  0.1508 -0.1676 -0.2395
13089TIP3    H139189   2.654   6.236   1.342  1.4901 -0.0720 -0.5573
13089TIP3    H239190   2.688   6.088   1.338  1.4056 -0.0791 -1.1377
13090TIP3   OH239191   5.748   2.606   0.119  0.0471  0.4776 -0.5203
13090TIP3    H139192   5.678   2.542   0.115  0.7841 -0.4561  0.7484
13090TIP3    H239193   5.710   2.679   0.169 -0.0262 -0.0418  0.2035
13091TIP3   OH239194   6.509   6.380   1.117  0.3421 -0.0827  0.1537
13091TIP3    H139195   6.454   6.458   1.124 -1.2037 -1.0525 -0.6853
13091TIP3    H239196   6.471   6.318   1.179  1.5858 -0.1849  0.8465
13092TIP3   OH239197   3.642   7.211   3.537  0.1518  0.2741  0.4589
13092TIP3    H139198   3.606   7.229   3.450 -1.5703  0.0300  1.0819
13092TIP3    H239199   3.735   7.191   3.521 -0.2130 -0.1589 -1.3559
13093TIP3   OH239200   7.754   7.366   3.057  0.2507 -0.7999  0.2076
13093TIP3    H139201   7.750   7.270   3.051  0.9170 -0.8520  0.4273
13093TIP3    H239202   7.840   7.388   3.020  0.3266 -0.3376  0.6556
13094TIP3   OH239203   7.552   3.806   6.930 -0.2778 -0.1172 -0.0709
13094TIP3    H139204   7.509   3.803   6.844 -2.8349 -0.3525  1.1300
13094TIP3    H239205   7.552   3.716   6.961 -1.2178  0.2321  1.0080
13095TIP3   OH239206   2.179   6.562   6.583  0.0793  0.2211  0.7363
13095TIP3    H139207   2.193   6.624   6.511  0.0290  0.0886  0.6130
13095TIP3    H239208   2.101   6.513   6.559 -0.2602  0.5575  1.1511
13096TIP3   OH239209   2.595   4.522   0.108  0.6942  0.1176 -0.3017
13096TIP3    H139210   2.596   4.616   0.128  1.8490 -0.0739  0.6633
13096TIP3    H239211   2.507   4.493   0.130 -0.0384  1.1663 -1.6645
13097TIP3   OH239212   4.309   5.027   0.065 -0.2739 -0.1894 -0.3392
13097TIP3    H139213   4.339   4.981  -0.014  0.4215 -0.0743 -0.1490
13097TIP3    H239214   4.248   5.093   0.033  0.0167 -0.1325 -0.7899
13098TIP3   OH239215   7.553   4.741   4.418 -0.4066 -0.4735  0.5466
13098TIP3    H139216   7.641   4.705   4.406 -0.3342 -0.3060  0.5595
13098TIP3    H239217   7.563   4.834   4.395  0.1293  0.2981  3.4881
13099TIP3   OH239218   4.560   7.893   3.590  0.1622  0.1394  0.5843
13099TIP3    H139219   4.510   7.855   3.517  0.9763 -0.4627  0.3284
13099TIP3    H239220   4.637   7.836   3.598  0.5258  0.7306  1.3323
13100TIP3   OH239221   4.243   6.806   3.668  0.0749 -0.3179 -0.2058
13100TIP3    H139222   4.232   6.757   3.750  1.5302 -0.4946 -0.0959
13100TIP3    H239223   4.179   6.877   3.673  1.2408  0.6625  1.8467
13101TIP3   OH239224   2.414   5.961   3.943 -0.2374 -0.1307  0.3216
13101TIP3    H139225   2.379   5.892   3.886  1.2908  0.1747 -1.0528
13101TIP3    H239226   2.496   5.925   3.977  1.6145  1.6290 -1.9547
13102TIP3   OH239227   8.021   2.412   0.777 -0.0532 -0.2349  0.1943
13102TIP3    H139228   7.966   2.475   0.730  2.0285  1.6305  0.1283
13102TIP3    H239229   8.069   2.464   0.840  1.5897 -1.7954  0.3210
13103TIP3   OH239230   7.841   7.298   3.321 -0.5718 -0.1762  0.3043
13103TIP3    H139231   7.822   7.338   3.407  2.7165  0.6984  0.7544
13103TIP3    H239232   7.824   7.369   3.259 -2.3569 -0.6204  0.2310
13104TIP3   OH239233   0.781   1.757   3.881 -0.0237 -0.2996  0.6330
13104TIP3    H139234   0.771   1.723   3.970  0.4706 -1.1029  0.3925
13104TIP3    H239235   0.715   1.826   3.874  0.4762  0.3344  1.8951
13105TIP3   OH239236   3.787   3.578   4.055 -0.1608 -0.4472  0.4374
13105TIP3    H139237   3.843   3.502   4.038 -1.2050 -1.1160 -0.0885
13105TIP3    H239238   3.728   3.581   3.981 -1.0956  0.0049  1.1863
13106TIP3   OH239239   7.983   0.685   1.857 -0.5414 -0.1868 -0.3005
13106TIP3    H139240   8.067   0.711   1.894 -1.3459  2.4961 -0.0929
13106TIP3    H239241   8.002   0.662   1.766  0.8058 -2.6906  0.5284
13107TIP3   OH239242   5.210  -0.004   3.052  0.6239 -0.4414  0.0722
13107TIP3    H139243   5.303   0.008   3.069  0.4886  1.1352 -0.1541
13107TIP3    H239244   5.167   0.064   3.106 -0.2971 -0.3351 -0.7731
13108TIP3   OH239245   5.060   5.648   0.226 -0.6152 -0.1394 -0.0559
13108TIP3    H139246   5.091   5.734   0.254  0.2417 -0.7501  0.9342
13108TIP3    H239247   4.997   5.667   0.157 -1.4966  1.3513  1.0951
13109TIP3   OH239248   2.131   2.807   2.746 -0.5918 -0.1398  0.7437
13109TIP3    H139249   2.190   2.850   2.684 -0.2277 -0.5243  0.8164
13109TIP3    H239250   2.165   2.832   2.832 -0.5407 -0.3480  0.7857
13110TIP3   OH239251   1.380   6.663   2.334 -0.1176 -0.1674  0.2131
13110TIP3    H139252   1.454   6.649   2.395 -0.2819  0.9207  0.6912
13110TIP3    H239253   1.338   6.578   2.328  1.3636 -0.9080 -0.3273
13111TIP3   OH239254   1.976   7.028   1.663  0.3695 -0.7201 -0.5750
13111TIP3    H139255   1.907   7.088   1.688 -1.5348 -2.7400 -0.6527
13111TIP3    H239256   2.015   7.000   1.745 -0.0897 -0.8658 -0.4019
13112TIP3   OH239257   2.720   0.828   4.226  0.1596  0.1291 -0.1343
13112TIP3    H139258   2.772   0.904   4.252  0.5432  0.9352 -2.8721
13112TIP3    H239259   2.645   0.866   4.180  0.2968 -1.1085 -1.4431
13113TIP3   OH239260   8.550   3.525   2.170  0.1540  0.4968 -0.5572
13113TIP3    H139261   8.492   3.555   2.100 -3.3700 -0.1675  1.8162
13113TIP3    H239262   8.581   3.439   2.140 -0.5106  0.6296 -1.6767
13114TIP3   OH239263   4.314   1.412   3.127 -0.0645 -0.3389  0.4541
13114TIP3    H139264   4.338   1.380   3.214  0.7813  0.7410  0.6337
13114TIP3    H239265   4.224   1.444   3.137 -0.1323 -0.6348  0.8086
13115TIP3   OH239266   1.318   6.417   0.241 -0.6478 -0.6574  0.1240
13115TIP3    H139267   1.289   6.427   0.331 -3.6849 -0.8618 -0.7468
13115TIP3    H239268   1.321   6.323   0.226 -1.8789 -0.6171 -0.4696
13116TIP3   OH239269   5.626   4.534   2.884  0.6762  0.4879 -0.2911
13116TIP3    H139270   5.533   4.520   2.866  0.7269  0.2267 -0.3548
13116TIP3    H239271   5.631   4.624   2.918  0.3487  0.3597  0.0966
13117TIP3   OH239272   0.770   0.464   4.386 -0.1502 -0.1173 -0.0183
13117TIP3    H139273   0.727   0.541   4.422  0.5941  0.9122 -1.2587
13117TIP3    H239274   0.744   0.462   4.294  1.7690  0.1004 -0.6139
13118TIP3   OH239275   6.854   4.162   1.243 -0.2676 -0.1878 -0.4538
13118TIP3    H139276   6.921   4.195   1.184 -0.7473  2.8470  0.5146
13118TIP3    H239277   6.870   4.208   1.326 -3.7577  1.1208 -0.3300
13119TIP3   OH239278   4.979   4.948   0.251 -0.4400  0.0096 -0.3745
13119TIP3    H139279   4.912   4.967   0.316 -1.4279 -1.2639 -0.9802
13119TIP3    H239280   4.942   4.877   0.198  2.0560 -2.0178  0.3535
13120TIP3   OH239281   8.070   7.145   0.797  0.0348 -0.4996  0.0829
13120TIP3    H139282   8.046   7.131   0.888 -1.1125  1.3414  0.1160
13120TIP3    H239283   8.077   7.058   0.759  1.2454 -1.3281  2.0872
13121TIP3   OH239284   0.353   3.710   3.313  0.2226 -0.7282 -0.0652
13121TIP3    H139285   0.418   3.643   3.335  0.6842 -0.7397 -1.3871
13121TIP3    H239286   0.393   3.792   3.344  0.8167 -0.7518 -0.7442
13122TIP3   OH239287   6.165   7.458   0.594 -0.3258  0.4238 -0.3467
13122TIP3    H139288   6.155   7.552   0.577  0.2387 -0.0220 -3.8224
13122TIP3    H239289   6.212   7.424   0.517 -1.5714 -2.9212  0.1964
13123TIP3   OH239290   3.903   7.366   6.390  0.1384 -0.0533 -0.2174
13123TIP3    H139291   3.860   7.433   6.444  0.7744  0.6808 -0.6075
13123TIP3    H239292   3.863   7.377   6.304 -0.0532 -0.4658 -0.1845
13124TIP3   OH239293   1.423   0.674   4.313  0.1115  0.3246  0.5959
13124TIP3    H139294   1.366   0.597   4.317 -1.2189  1.0906 -1.7558
13124TIP3    H239295   1.379   0.738   4.368  0.3543 -0.0499  1.2404
13125TIP3   OH239296   2.325   7.732   4.565  0.1783 -0.3951 -0.3344
13125TIP3    H139297   2.271   7.757   4.640  0.2632 -0.1494 -0.3544
13125TIP3    H239298   2.356   7.644   4.586  0.1504 -0.3518 -0.1100
13126TIP3   OH239299   1.699   0.675   6.776 -0.1050 -0.5912  0.4238
13126TIP3    H139300   1.700   0.690   6.681 -0.5239  1.4293  0.6738
13126TIP3    H239301   1.791   0.669   6.801  0.0336 -0.4128 -0.0365
13127TIP3   OH239302   1.184   2.010   2.741  0.2223 -0.4259  0.0129
13127TIP3    H139303   1.249   1.944   2.718  0.4707 -0.0973 -0.2308
13127TIP3    H239304   1.124   1.965   2.800 -1.3244 -1.7490 -2.4319
13128TIP3   OH239305   4.858   3.305   1.537  0.0884 -0.4009  0.1037
13128TIP3    H139306   4.782   3.247   1.541 -0.1972 -0.0177  0.2569
13128TIP3    H239307   4.843   3.369   1.606 -0.2431  0.6359 -0.8946
13129TIP3   OH239308   0.799   4.804   6.368  0.2645  0.1295 -0.4359
13129TIP3    H139309   0.774   4.735   6.429  3.3796 -1.1675 -0.4397
13129TIP3    H239310   0.882   4.837   6.401  0.3702  1.7731 -2.1470
13130TIP3   OH239311   7.303   5.411   4.919 -0.1100 -0.3321  0.3995
13130TIP3    H139312   7.238   5.344   4.898  1.0659 -1.5045  0.3274
13130TIP3    H239313   7.298   5.419   5.015  0.1423 -0.9773  0.4750
13131TIP3   OH239314   8.309   2.509   1.971 -0.5939 -0.0097  0.0094
13131TIP3    H139315   8.228   2.459   1.978 -0.1132 -0.6853  0.8456
13131TIP3    H239316   8.303   2.575   2.040 -0.1735 -0.4577  0.4898
13132TIP3   OH239317   2.287   1.782   1.562  0.1379 -0.1476 -0.7196
13132TIP3    H139318   2.255   1.699   1.594 -0.1305  0.2300  0.0112
13132TIP3    H239319   2.212   1.841   1.566  0.9275  0.8096  1.2488
13133TIP3   OH239320   2.745   5.469   0.152 -0.4141  0.1914  0.0889
13133TIP3    H139321   2.664   5.420   0.137  0.1972 -0.4877 -1.2039
13133TIP3    H239322   2.766   5.506   0.066  0.6466  0.3546  0.4082
13134TIP3   OH239323   5.600   1.980   2.021 -0.1702  0.9244  0.1546
13134TIP3    H139324   5.662   1.931   1.968 -2.8403 -2.5581 -0.0484
13134TIP3    H239325   5.635   1.974   2.110  1.2884  1.7441 -0.3230
13135TIP3   OH239326   3.416   1.720   5.102 -0.4058 -0.7357 -0.0883
13135TIP3    H139327   3.474   1.780   5.150 -0.2003 -0.8953 -0.1345
13135TIP3    H239328   3.329   1.755   5.116 -0.2995 -0.5015 -0.0010
13136TIP3   OH239329   5.146   6.778   2.852 -0.0462 -0.0584 -0.1934
13136TIP3    H139330   5.115   6.841   2.917 -1.2616 -1.3317  0.5275
13136TIP3    H239331   5.203   6.719   2.901 -2.3200 -2.0675  0.2285
13137TIP3   OH239332   5.856   6.827   6.753 -0.0436  0.0768 -0.0719
13137TIP3    H139333   5.793   6.859   6.689  1.1967  0.2388 -1.2669
13137TIP3    H239334   5.940   6.862   6.723  0.6011  0.0644  1.5933
13138TIP3   OH239335   0.047   1.251   6.275 -0.3719 -0.2090 -0.1760
13138TIP3    H139336   0.026   1.162   6.247 -0.1804 -0.2667 -0.1349
13138TIP3    H239337   0.138   1.247   6.303 -0.0232  0.2597 -1.2161
13139TIP3   OH239338   1.303   8.113   1.201 -0.0579  0.2626 -0.3000
13139TIP3    H139339   1.270   8.131   1.289  0.1025 -0.1371 -0.1572
13139TIP3    H239340   1.395   8.138   1.204  0.2974 -1.0437  0.0489
13140TIP3   OH239341   1.383   5.882   2.192  0.0203  0.0990  0.1518
13140TIP3    H139342   1.459   5.903   2.247  0.3122 -1.9669  0.6218
13140TIP3    H239343   1.322   5.838   2.251 -1.0272  0.6245 -0.5100
13141TIP3   OH239344   4.090   7.770   4.624 -0.7426 -0.7324 -0.0402
13141TIP3    H139345   4.057   7.789   4.535 -1.3865 -0.5032  0.2383
13141TIP3    H239346   4.171   7.820   4.630 -0.3682 -1.2376 -0.7137
13142TIP3   OH239347   3.701   1.187   6.873  0.3351 -0.2452 -0.1543
13142TIP3    H139348   3.796   1.181   6.876  0.4428  0.9379  2.6153
13142TIP3    H239349   3.683   1.275   6.840  0.0400 -1.2526 -2.9330
13143TIP3   OH239350   2.085   3.874   4.983 -0.2603  0.0234  0.1499
13143TIP3    H139351   2.086   3.816   4.907  1.4689  1.4125 -0.9615
13143TIP3    H239352   2.108   3.818   5.057 -0.0772 -0.9825 -0.6485
13144TIP3   OH239353   6.822   0.641   4.343  0.0029 -0.0303 -0.0460
13144TIP3    H139354   6.853   0.554   4.368  2.1583  0.2209 -1.5338
13144TIP3    H239355   6.880   0.668   4.272 -2.8899  1.1392 -2.1832
13145TIP3   OH239356   3.169   7.999   0.371 -0.6902 -0.2389  0.5806
13145TIP3    H139357   3.243   7.944   0.398 -1.3070 -0.5484  1.6853
13145TIP3    H239358   3.173   8.075   0.429  0.2464  1.0102 -1.0344
13146TIP3   OH239359   3.163   5.947   6.039  0.3179  0.3924  0.2775
13146TIP3    H139360   3.093   5.882   6.039  0.9452 -0.2914 -0.2633
13146TIP3    H239361   3.159   5.986   6.126 -1.1155  0.7824  0.0684
13147TIP3   OH239362   2.116   4.015   0.387 -0.1537  0.2734  0.4749
13147TIP3    H139363   2.097   4.033   0.295 -0.9435 -0.9250  0.3784
13147TIP3    H239364   2.175   3.939   0.385 -2.0634 -1.3111  0.9584
13148TIP3   OH239365   4.566   7.052   0.638  0.2360  0.3577 -0.3488
13148TIP3    H139366   4.524   7.045   0.552  0.0274 -0.4789 -0.1943
13148TIP3    H239367   4.585   6.961   0.662 -0.8088  0.4694  1.0294
13149TIP3   OH239368   0.411   7.265   3.084 -0.0806 -0.5597  0.2366
13149TIP3    H139369   0.401   7.351   3.126  0.3267  0.2333 -1.1894
13149TIP3    H239370   0.506   7.256   3.072 -0.1554 -0.9971 -0.0342
13150TIP3   OH239371   8.001   0.199   3.482 -0.7290  0.1109  0.0380
13150TIP3    H139372   8.014   0.159   3.396  0.9748  1.2129 -0.2700
13150TIP3    H239373   8.073   0.262   3.490 -0.1363 -0.8159  2.7885
13151TIP3   OH239374   0.054   6.181   5.129  0.3494  0.2780  0.2116
13151TIP3    H139375   0.139   6.220   5.152 -0.6075  0.8504  3.3286
13151TIP3    H239376  -0.000   6.255   5.103  0.1807  0.2384  0.4444
13152TIP3   OH239377   2.729   2.334   2.959  0.1427  0.0579 -0.1382
13152TIP3    H139378   2.717   2.279   2.881 -2.3650  0.3378 -0.0381
13152TIP3    H239379   2.672   2.409   2.944  0.1600  0.4734  1.6513
13153TIP3   OH239380   4.239   5.651   6.734  0.0411  0.6179  0.2685
13153TIP3    H139381   4.145   5.671   6.728  0.3306  2.1400  0.4957
13153TIP3    H239382   4.271   5.707   6.805  0.8755 -0.8903  1.1284
13154TIP3   OH239383   0.321   1.421   2.693  0.6952  0.2927 -0.2336
13154TIP3    H139384   0.279   1.506   2.705  0.9527  0.2531  1.1571
13154TIP3    H239385   0.387   1.417   2.763  1.9717 -0.2816 -1.4237
13155TIP3   OH239386   6.727   5.794   5.302  0.4700 -0.2093  0.6177
13155TIP3    H139387   6.669   5.797   5.225  1.7247 -0.6187 -0.3683
13155TIP3    H239388   6.703   5.713   5.346  0.9150 -0.8772 -0.3185
13156TIP3   OH239389   3.757   5.973   2.751 -0.0678  0.2397  0.2329
13156TIP3    H139390   3.723   5.991   2.664 -0.9790  3.2895  1.1037
13156TIP3    H239391   3.851   5.959   2.737  0.0518  2.0454 -1.1365
13157TIP3   OH239392   1.506   1.642   6.377 -0.1545  0.2885  0.0520
13157TIP3    H139393   1.455   1.722   6.388  1.0996  1.0136  0.9472
13157TIP3    H239394   1.451   1.585   6.324 -1.6775  1.1941  0.5931
13158TIP3   OH239395   5.949   4.236   2.100 -0.0602 -0.0311 -0.7336
13158TIP3    H139396   6.014   4.280   2.046 -0.8798  0.0722 -1.6750
13158TIP3    H239397   5.895   4.187   2.038 -1.2570  0.3808 -0.0643
13159TIP3   OH239398   7.070   1.531   6.847  0.5455 -0.3749 -0.2224
13159TIP3    H139399   7.068   1.484   6.763  0.8989 -0.4128 -0.2091
13159TIP3    H239400   7.075   1.623   6.823  2.7365 -0.4610 -0.2538
13160TIP3   OH239401   6.288   5.095   0.314 -0.0496  0.2238  0.1317
13160TIP3    H139402   6.248   5.047   0.242  0.3214 -1.0212  0.7275
13160TIP3    H239403   6.215   5.115   0.373 -0.2579  0.7213 -0.2845
13161TIP3   OH239404   5.634   5.843   4.387 -0.1970 -0.8161 -0.2942
13161TIP3    H139405   5.645   5.747   4.388  0.9503 -0.7070  0.2717
13161TIP3    H239406   5.545   5.857   4.357 -0.5470 -2.0902  0.0696
13162TIP3   OH239407   3.450   0.871   4.314 -0.0981 -0.5697 -0.4742
13162TIP3    H139408   3.460   0.951   4.262  0.4314 -1.0480 -1.1134
13162TIP3    H239409   3.481   0.897   4.401  0.2578 -0.1256 -0.7241
13163TIP3   OH239410   2.337   4.127   5.711 -0.0581  0.1649  0.3046
13163TIP3    H139411   2.277   4.188   5.755 -0.2796 -0.2432  0.5757
13163TIP3    H239412   2.387   4.182   5.651 -0.3676  0.5891  0.4284
13164TIP3   OH239413   1.364   5.891   4.090  0.4789 -0.6505  0.3164
13164TIP3    H139414   1.358   5.955   4.019 -0.1086 -1.0683 -0.0210
13164TIP3    H239415   1.378   5.944   4.168 -0.0643 -0.0928  0.0525
13165TIP3   OH239416   7.570   2.137   6.237  0.1159  0.1084  0.0902
13165TIP3    H139417   7.653   2.136   6.190 -0.8955 -0.8456 -1.7846
13165TIP3    H239418   7.549   2.230   6.248 -0.0185  0.3708 -2.1209
13166TIP3   OH239419   6.243   5.478   6.710  0.0053 -0.0061  0.0219
13166TIP3    H139420   6.291   5.449   6.633 -1.1242 -3.4572  0.4638
13166TIP3    H239421   6.274   5.567   6.726  2.3871 -0.2425 -2.6831
13167TIP3   OH239422   5.781   3.367   2.066  0.2169  0.7339 -0.3074
13167TIP3    H139423   5.703   3.317   2.093  0.5543 -0.2921 -1.1606
13167TIP3    H239424   5.805   3.330   1.982  1.4621  1.2514 -0.1992
13168TIP3   OH239425   5.260   0.690   2.635  0.7397  0.1216  0.1262
13168TIP3    H139426   5.170   0.715   2.613  0.5123 -0.9532 -0.2019
13168TIP3    H239427   5.300   0.668   2.551  1.4057  0.8695  0.2373
13169TIP3   OH239428   2.789   8.134   2.521 -0.2472  0.1529 -0.3095
13169TIP3    H139429   2.746   8.100   2.442  0.0110  1.7881 -1.2143
13169TIP3    H239430   2.867   8.080   2.531 -0.4766 -0.3171 -0.9868
13170TIP3   OH239431   6.687   2.891   2.406 -0.3748  0.1108  0.2479
13170TIP3    H139432   6.698   2.837   2.328  2.0688 -0.6563  1.0480
13170TIP3    H239433   6.646   2.833   2.470  0.0874 -0.0915  0.3644
13171TIP3   OH239434   2.278   3.053   5.107 -0.1761  0.5579 -0.2560
13171TIP3    H139435   2.197   3.049   5.158  0.2505  0.1243  0.3907
13171TIP3    H239436   2.311   2.963   5.107  0.9651  0.9612  0.5483
13172TIP3   OH239437   3.229   4.879   0.691 -0.2446 -0.3838 -0.0272
13172TIP3    H139438   3.312   4.895   0.646  0.2841 -0.2133  0.9849
13172TIP3    H239439   3.212   4.786   0.677 -0.2181 -0.2836 -0.7778
13173TIP3   OH239440   3.860   2.412   7.057  0.8970  0.2643 -0.1604
13173TIP3    H139441   3.909   2.357   6.997  0.6966 -1.3906  1.1201
13173TIP3    H239442   3.768   2.392   7.040  0.7808  0.7981 -0.2056
13174TIP3   OH239443   1.512   4.645   4.612 -0.5498 -0.2881 -0.2430
13174TIP3    H139444   1.449   4.689   4.670 -1.5990 -1.1938 -0.6630
13174TIP3    H239445   1.457   4.599   4.548  0.5725  0.4233 -1.7753
13175TIP3   OH239446   5.431   6.105   0.789  0.3183 -0.4966  0.3546
13175TIP3    H139447   5.476   6.154   0.720  0.0379 -0.2135  0.3675
13175TIP3    H239448   5.455   6.014   0.773 -1.6597 -0.7744 -1.6598
13176TIP3   OH239449   4.105   2.923   5.782  0.1554 -0.1972 -0.5138
13176TIP3    H139450   4.110   2.842   5.833 -0.5295  0.2927  0.3584
13176TIP3    H239451   4.126   2.896   5.693  0.4695 -1.2404 -0.1444
13177TIP3   OH239452   5.375   5.658   4.145  0.0738  0.0164  0.5682
13177TIP3    H139453   5.333   5.612   4.073 -1.3180 -0.3492  1.5655
13177TIP3    H239454   5.433   5.593   4.185  0.2770 -0.0070  0.2312
13178TIP3   OH239455   1.403   5.438   2.318  0.1801  0.2737  0.2262
13178TIP3    H139456   1.346   5.419   2.243  1.0992  1.4886 -0.8294
13178TIP3    H239457   1.344   5.480   2.382 -0.2007  1.2629 -0.7375
13179TIP3   OH239458   6.360   0.920   5.996 -0.0394 -0.5685 -0.5486
13179TIP3    H139459   6.402   0.901   6.080 -0.0219 -2.3340 -0.9162
13179TIP3    H239460   6.313   1.002   6.011  0.1573 -0.7225  1.1206
13180TIP3   OH239461   4.014   4.816   6.295 -0.4458  0.4344  0.2487
13180TIP3    H139462   4.077   4.796   6.225 -0.3128  1.7381 -0.0389
13180TIP3    H239463   4.013   4.738   6.350 -1.3033 -1.0317 -1.7459
13181TIP3   OH239464   3.851   7.961   6.525 -0.9357  0.0438 -0.2341
13181TIP3    H139465   3.786   8.018   6.484 -0.7244  0.9636  0.6806
13181TIP3    H239466   3.929   8.015   6.534 -0.6052 -0.5083  0.3046
13182TIP3   OH239467   6.134   6.368   4.191  0.1695  0.1225 -0.6106
13182TIP3    H139468   6.171   6.419   4.120 -1.0029 -1.0780 -2.1606
13182TIP3    H239469   6.209   6.338   4.242  0.9367  2.2646 -0.3941
13183TIP3   OH239470   2.770   7.122   5.929 -0.5402 -1.0511 -0.4546
13183TIP3    H139471   2.723   7.205   5.918 -1.0774 -1.4190 -0.9928
13183TIP3    H239472   2.775   7.110   6.024  3.7803  1.9652  0.0010
13184TIP3   OH239473   2.123   6.749   3.037 -0.4647 -0.3078 -0.9632
13184TIP3    H139474   2.163   6.829   3.072 -0.2775 -0.5899 -0.5176
13184TIP3    H239475   2.184   6.717   2.971 -0.2770 -0.3686 -0.7631
13185TIP3   OH239476   8.313   0.347   0.335  0.3541 -0.4013 -0.8213
13185TIP3    H139477   8.312   0.406   0.260 -0.9151  1.2647  0.4316
13185TIP3    H239478   8.275   0.265   0.302  1.7858 -0.4281 -2.4917
13186TIP3   OH239479   6.095   7.782   1.636 -0.1804  0.0050  0.0225
13186TIP3    H139480   6.150   7.860   1.648 -2.6322  2.3034 -2.3055
13186TIP3    H239481   6.113   7.753   1.547 -1.4514 -0.2190 -0.1834
13187TIP3   OH239482   8.161   2.046   1.403 -0.2031  0.0579  0.3709
13187TIP3    H139483   8.204   2.119   1.359 -0.8670 -0.4983 -1.2741
13187TIP3    H239484   8.085   2.085   1.446  0.8976  0.7441  1.7786
13188TIP3   OH239485   8.446   0.001   1.637  0.0569 -0.4947 -0.0860
13188TIP3    H139486   8.437   0.090   1.672  0.1457 -0.0971 -1.0470
13188TIP3    H239487   8.472  -0.052   1.712  0.7895  0.4404  0.3341
13189TIP3   OH239488   2.753   4.296   2.985  0.6161  0.4065  0.3946
13189TIP3    H139489   2.826   4.259   2.935  0.3781  1.2533 -0.6169
13189TIP3    H239490   2.790   4.372   3.028  0.9427 -0.5889  1.9572
13190TIP3   OH239491   7.619   0.824   6.779  0.0565  0.0572 -0.0259
13190TIP3    H139492   7.534   0.784   6.763 -0.6522  1.4675  0.0296
13190TIP3    H239493   7.632   0.815   6.874 -0.1822  0.1163  0.0132
13191TIP3   OH239494   7.888   4.008   4.159 -0.3943  0.4984  0.4644
13191TIP3    H139495   7.973   4.002   4.203 -0.3979 -0.2534  0.3789
13191TIP3    H239496   7.873   3.921   4.123 -0.6397  0.9611 -0.5828
13192TIP3   OH239497   6.471   6.475   4.308 -0.3739 -0.0471 -0.2152
13192TIP3    H139498   6.551   6.496   4.356 -0.3790 -1.7822  0.6369
13192TIP3    H239499   6.413   6.549   4.324  1.1467  1.4285 -1.1566
13193TIP3   OH239500   1.414   6.408   5.282  0.0495  0.0483 -0.3201
13193TIP3    H139501   1.434   6.316   5.300 -0.2656 -0.2413 -1.3911
13193TIP3    H239502   1.320   6.410   5.265 -0.1220  0.7364  0.6300
13194TIP3   OH239503   5.646   5.245   1.473  0.4765 -0.1377 -0.4653
13194TIP3    H139504   5.682   5.330   1.449 -0.2165  0.1916 -0.3846
13194TIP3    H239505   5.629   5.252   1.567 -0.3058 -0.0747 -0.5985
13195TIP3   OH239506   0.553   7.829   0.695  0.2049 -0.1321  1.2047
13195TIP3    H139507   0.598   7.870   0.768  3.7263 -1.8819  0.2252
13195TIP3    H239508   0.551   7.897   0.627  1.6379 -0.0623  1.2070
13196TIP3   OH239509   6.887   1.381   6.402  0.1277  0.1223 -0.1060
13196TIP3    H139510   6.822   1.444   6.371 -1.2165 -1.6121 -0.9688
13196TIP3    H239511   6.843   1.331   6.471  1.3758  0.4894  1.0087
13197TIP3   OH239512   4.191   6.541   6.379  0.2220 -0.3574  0.0309
13197TIP3    H139513   4.163   6.503   6.463  1.3010 -0.5640  0.3052
13197TIP3    H239514   4.216   6.631   6.401  1.6897 -0.7877  0.1725
13198TIP3   OH239515   3.755   2.457   5.528  0.1085 -0.5855  0.2478
13198TIP3    H139516   3.692   2.388   5.505 -0.2280  0.0535 -0.8136
13198TIP3    H239517   3.710   2.508   5.595 -0.2635 -0.5067 -0.0540
13199TIP3   OH239518   1.725   7.655   1.580  0.5167 -0.4932 -0.4209
13199TIP3    H139519   1.643   7.607   1.571 -0.3309  0.6095  0.9975
13199TIP3    H239520   1.767   7.616   1.656 -1.0600  2.0786  1.9439
13200TIP3   OH239521   7.924   1.542   3.747  0.0562  0.4645  0.6693
13200TIP3    H139522   7.867   1.474   3.710  0.3850  0.1502  0.7383
13200TIP3    H239523   8.008   1.499   3.761  1.0333  1.4771 -1.5596
13201TIP3   OH239524   4.203   0.849   7.081  0.1685  0.2072  0.0245
13201TIP3    H139525   4.157   0.847   6.997 -1.5709 -0.4806  0.9248
13201TIP3    H239526   4.250   0.766   7.085 -0.5261 -0.1915  0.1154
13202TIP3   OH239527   7.556   2.294   2.105  0.4263  0.5395  0.1070
13202TIP3    H139528   7.634   2.308   2.051  0.6597  0.0380  0.2986
13202TIP3    H239529   7.527   2.381   2.129  0.6006  0.7501 -0.4348
13203TIP3   OH239530   6.641   0.120   4.813  1.0067 -0.0777  0.1688
13203TIP3    H139531   6.587   0.042   4.820  1.0458 -0.3155 -1.5927
13203TIP3    H239532   6.655   0.131   4.719  2.1194  1.2859  0.4519
13204TIP3   OH239533   3.449   6.117   3.570 -0.6624 -0.4665 -0.6503
13204TIP3    H139534   3.373   6.149   3.618 -0.0616 -0.5883  0.4203
13204TIP3    H239535   3.488   6.051   3.628  0.5319 -0.0538 -0.9511
13205TIP3   OH239536   2.195   1.643   6.075  0.3218 -0.0606  0.3190
13205TIP3    H139537   2.129   1.581   6.104  0.2936 -1.3367 -2.1887
13205TIP3    H239538   2.145   1.711   6.028  0.6884 -0.9145 -1.3918
13206TIP3   OH239539   3.131   4.089   2.006  0.0463 -0.0528  0.3966
13206TIP3    H139540   3.146   4.008   1.958 -3.2585  0.3362 -1.5868
13206TIP3    H239541   3.157   4.158   1.944  4.3585  0.6670  2.5966
13207TIP3   OH239542   1.913   5.180   4.036  0.2673 -0.1333 -0.1570
13207TIP3    H139543   1.842   5.157   3.976  0.3292 -1.3794  0.2320
13207TIP3    H239544   1.942   5.097   4.072  1.0491  0.4913  0.6891
13208TIP3   OH239545   5.468   2.023   6.289  0.1501  0.4556  0.6115
13208TIP3    H139546   5.441   2.110   6.320  1.5780  0.5234  1.7731
13208TIP3    H239547   5.387   1.975   6.277 -0.8284  2.4980 -1.8710
13209TIP3   OH239548   2.174   7.658   0.687  0.0605  0.5684  0.0344
13209TIP3    H139549   2.090   7.656   0.734 -0.3892  0.4127 -0.7671
13209TIP3    H239550   2.163   7.726   0.621  1.1369  1.6934  0.9395
13210TIP3   OH239551   0.398   2.997   3.922  0.4281  0.0175  0.0598
13210TIP3    H139552   0.350   2.945   3.858 -1.1633  0.3729  0.9242
13210TIP3    H239553   0.478   3.024   3.876  0.6202 -1.9604 -0.8631
13211TIP3   OH239554   1.902   2.141   4.663 -0.3700  0.0967 -0.1165
13211TIP3    H139555   1.920   2.163   4.754 -0.0329 -1.1246  0.1239
13211TIP3    H239556   1.902   2.226   4.617  2.5779  0.4948  0.4644
13212TIP3   OH239557   1.398   1.091   1.845 -0.0211 -0.0344 -0.4201
13212TIP3    H139558   1.375   1.183   1.829 -0.4052 -0.1748 -0.6591
13212TIP3    H239559   1.458   1.095   1.920  1.4220  0.5862 -1.5500
13213TIP3   OH239560   5.173   5.024   1.078  0.0375 -0.2748  0.0525
13213TIP3    H139561   5.173   4.929   1.070 -1.2563 -0.2498 -0.6577
13213TIP3    H239562   5.197   5.055   0.991 -0.4853  0.0335  0.0125
13214TIP3   OH239563   8.224   0.006   0.471  0.1048  0.8026 -0.3452
13214TIP3    H139564   8.285   0.067   0.514 -0.1194  3.2538 -3.1533
13214TIP3    H239565   8.155   0.062   0.437 -0.6871 -1.1996 -2.2256
13215TIP3   OH239566   1.400   4.396   1.624 -0.8342 -0.5122  0.3871
13215TIP3    H139567   1.311   4.414   1.594 -0.4649 -0.5403 -0.7607
13215TIP3    H239568   1.419   4.308   1.592  0.5709  0.5013 -1.7920
13216TIP3   OH239569   5.758   6.669   3.085 -0.2123 -0.1163 -0.6972
13216TIP3    H139570   5.672   6.704   3.108  0.2965  0.3874  0.5219
13216TIP3    H239571   5.817   6.706   3.151  0.9812 -0.2423 -1.6763
13217TIP3   OH239572   6.419   0.991   1.190  0.7667  0.1022  0.0831
13217TIP3    H139573   6.458   1.044   1.260  0.3321  1.0812 -0.3936
13217TIP3    H239574   6.470   0.910   1.189 -2.0730 -2.1541  4.7086
13218TIP3   OH239575   2.896   4.982   5.893  0.8087 -0.1899 -0.1756
13218TIP3    H139576   2.958   4.910   5.898 -0.6895 -1.6554 -1.5667
13218TIP3    H239577   2.901   5.013   5.803  0.5219  0.6221  0.0738
13219TIP3   OH239578   0.257   6.683   3.263  0.8724 -0.3806 -0.5560
13219TIP3    H139579   0.252   6.653   3.172  0.4932 -2.8184  0.1859
13219TIP3    H239580   0.344   6.655   3.292  0.9129  0.2064 -0.0954
13220TIP3   OH239581   3.634   1.444   2.418  0.0902  0.4369  0.5329
13220TIP3    H139582   3.582   1.405   2.489  0.0784  0.9853  0.8353
13220TIP3    H239583   3.670   1.370   2.370 -1.4408  0.0240 -0.0335
13221TIP3   OH239584   0.289   7.470   2.763 -0.3037  0.3434  0.2895
13221TIP3    H139585   0.198   7.499   2.771  0.5842  3.4442  0.2786
13221TIP3    H239586   0.337   7.521   2.829  1.3604 -1.7572  0.8205
13222TIP3   OH239587   1.688   6.056   2.854  0.4872 -0.3184 -0.0043
13222TIP3    H139588   1.680   5.961   2.846 -0.6149 -0.3805  1.3573
13222TIP3    H239589   1.617   6.090   2.799  1.4559 -0.2117 -1.2430
13223TIP3   OH239590   4.126   1.121   5.078  0.3819  0.4479  0.3426
13223TIP3    H139591   4.108   1.029   5.061 -0.8185  1.1138 -2.5117
13223TIP3    H239592   4.184   1.120   5.155 -2.2244 -2.4662  2.5329
13224TIP3   OH239593   6.583   2.153   6.329 -0.2085 -1.0731  0.5132
13224TIP3    H139594   6.635   2.138   6.408  1.1085 -1.1113 -0.3105
13224TIP3    H239595   6.590   2.247   6.313 -1.5426 -0.8496  1.1226
13225TIP3   OH239596   1.711   3.502   4.385 -0.0961 -0.1588 -0.1686
13225TIP3    H139597   1.794   3.484   4.429 -2.0096 -1.7964  3.1401
13225TIP3    H239598   1.716   3.451   4.304  2.6409  1.0226 -0.8771
13226TIP3   OH239599   8.323   0.668   1.744  0.5396 -0.1051 -0.2469
13226TIP3    H139600   8.341   0.759   1.768  1.1298 -0.4327  0.5937
13226TIP3    H239601   8.293   0.627   1.825 -3.9748  0.3214 -1.4499
13227TIP3   OH239602   8.463   6.066   5.541 -0.4877 -0.1320  0.3629
13227TIP3    H139603   8.447   6.007   5.615 -0.5269 -0.0537  0.4175
13227TIP3    H239604   8.378   6.073   5.497 -0.5929  0.2301  0.6119
13228TIP3   OH239605   3.407   0.313   4.940  0.2282  0.3457 -0.1477
13228TIP3    H139606   3.336   0.323   4.877  2.5015  0.4583 -2.9019
13228TIP3    H239607   3.386   0.232   4.988 -1.0108 -0.4389 -1.9192
13229TIP3   OH239608   4.489   4.686   0.558  0.3123  0.1320 -0.3292
13229TIP3    H139609   4.492   4.780   0.542 -1.2165  0.4380  0.9879
13229TIP3    H239610   4.450   4.677   0.645  2.7313 -1.6394  0.7006
13230TIP3   OH239611   7.607   3.715   0.137  0.0271 -0.1725 -0.3644
13230TIP3    H139612   7.647   3.785   0.188  0.3483 -0.5408 -0.1064
13230TIP3    H239613   7.633   3.734   0.047  0.7613 -0.3882 -0.2036
13231TIP3   OH239614   5.318   1.638   3.280  0.2278  0.4385 -0.0069
13231TIP3    H139615   5.305   1.606   3.370  0.3487  2.2643  0.6934
13231TIP3    H239616   5.313   1.559   3.226 -0.4198 -0.6359  1.5430
13232TIP3   OH239617   2.997   3.227   1.254  0.2962 -0.0834 -0.5776
13232TIP3    H139618   2.921   3.191   1.299  0.5338  0.6079  0.4185
13232TIP3    H239619   3.001   3.179   1.171 -3.1217  1.9855 -2.1980
13233TIP3   OH239620   0.745   5.039   0.876 -0.2584 -0.1597 -0.7392
13233TIP3    H139621   0.751   5.109   0.810 -1.4908  1.3584  0.6771
13233TIP3    H239622   0.721   4.961   0.826  0.5730  0.5330 -2.2949
13234TIP3   OH239623   0.178   1.364   1.779 -0.7089  0.0900  0.2456
13234TIP3    H139624   0.111   1.390   1.716  0.2827  0.4783 -0.6856
13234TIP3    H239625   0.132   1.360   1.863 -1.5565  1.9049 -0.0875
13235TIP3   OH239626   7.556   4.580   4.949 -0.8661  0.0184  0.4020
13235TIP3    H139627   7.638   4.530   4.946  1.1131  2.7298  2.9658
13235TIP3    H239628   7.553   4.626   4.865  0.6881  0.3932  0.5125
13236TIP3   OH239629   7.519   7.813   1.278 -0.6053 -0.0256  0.1161
13236TIP3    H139630   7.535   7.719   1.270  0.9476  0.1937  0.2975
13236TIP3    H239631   7.597   7.854   1.240 -1.5090  1.2066 -0.4837
13237TIP3   OH239632   8.486   6.958   2.878  0.1908 -0.1546 -0.6773
13237TIP3    H139633   8.539   7.033   2.904 -0.1534 -0.1227 -0.0631
13237TIP3    H239634   8.470   6.909   2.959 -1.0949  0.0876 -0.7517
13238TIP3   OH239635   1.762   8.164   4.861  0.1616 -1.1178  0.4080
13238TIP3    H139636   1.821   8.219   4.809 -0.8790 -1.0767 -0.7652
13238TIP3    H239637   1.790   8.075   4.843  1.6393 -1.0526  2.0572
13239TIP3   OH239638   7.492   7.273   0.446 -0.3923  0.1869 -0.4540
13239TIP3    H139639   7.494   7.362   0.409 -1.3737  0.3023 -0.2382
13239TIP3    H239640   7.578   7.263   0.487 -0.7475  1.5323  0.6736
13240TIP3   OH239641   7.528   1.711   3.828 -0.0268 -0.0421  0.1595
13240TIP3    H139642   7.549   1.792   3.875 -0.6915  0.0383  0.3234
13240TIP3    H239643   7.524   1.644   3.897  0.5663 -0.2313  0.0191
13241TIP3   OH239644   6.820   6.705   4.537 -0.1213 -0.1865  0.0999
13241TIP3    H139645   6.894   6.673   4.589 -0.1736  0.5454  0.6296
13241TIP3    H239646   6.814   6.798   4.557 -1.2225 -0.2415  0.0924
13242TIP3   OH239647   6.245   5.189   5.226 -0.1198 -0.0998 -0.3180
13242TIP3    H139648   6.309   5.260   5.224 -0.8965  0.6613  1.0199
13242TIP3    H239649   6.160   5.233   5.220 -0.5642 -1.0436 -1.2261
13243TIP3   OH239650   4.154   8.000   3.341  0.2124 -0.5358  0.4696
13243TIP3    H139651   4.190   7.935   3.281  1.2617 -0.9317  1.5112
13243TIP3    H239652   4.061   8.004   3.318  0.6655 -0.2531 -1.5593
13244TIP3   OH239653   8.003   2.892   7.017 -0.2892  0.7941 -0.4615
13244TIP3    H139654   7.925   2.909   7.070  0.3677 -1.2831  1.3483
13244TIP3    H239655   8.076   2.924   7.071  0.4158 -1.5385  0.0979
13245TIP3   OH239656   8.637   4.730   3.643 -0.2949 -0.3937 -0.1757
13245TIP3    H139657   8.709   4.791   3.622  0.1074  0.0568  2.2558
13245TIP3    H239658   8.559   4.772   3.606  0.2847  0.5149 -0.4058
13246TIP3   OH239659   3.547   1.662   0.124 -0.1484 -0.1260 -0.6417
13246TIP3    H139660   3.575   1.573   0.143 -0.6364 -0.2117 -0.2971
13246TIP3    H239661   3.610   1.718   0.170  0.4670 -0.2774 -1.2868
13247TIP3   OH239662   0.979   0.259   5.580 -0.1381 -0.2785  0.7277
13247TIP3    H139663   0.956   0.169   5.605  1.1487 -0.8249  0.0095
13247TIP3    H239664   1.074   0.262   5.588 -0.2085  1.1719  1.1732
13248TIP3   OH239665   4.873   1.579   6.475 -0.4089 -0.4590 -0.0646
13248TIP3    H139666   4.804   1.584   6.541 -1.4178  0.2296 -1.1330
13248TIP3    H239667   4.881   1.485   6.456  0.4420 -0.7471  1.5558
13249TIP3   OH239668   7.046   1.171   1.639  0.1285 -0.4200 -0.0168
13249TIP3    H139669   6.984   1.225   1.592 -1.6441 -0.4762  2.0936
13249TIP3    H239670   7.123   1.227   1.651 -0.6638  0.7200 -0.1122
13250TIP3   OH239671   3.865   0.391   1.928 -0.7669  0.2061  0.2852
13250TIP3    H139672   3.848   0.470   1.876 -0.7357  0.3298  0.4649
13250TIP3    H239673   3.799   0.328   1.897  0.3813 -0.3246 -1.1897
13251TIP3   OH239674   3.745   4.399   3.778 -0.2232 -0.7093 -0.4127
13251TIP3    H139675   3.807   4.410   3.705 -0.5593 -2.1225 -0.9374
13251TIP3    H239676   3.680   4.338   3.744 -0.5221 -1.1887  0.9978
13252TIP3   OH239677   3.450   5.180   3.702 -0.0066 -0.2127 -0.0670
13252TIP3    H139678   3.540   5.167   3.731 -0.2317  0.1095  0.8143
13252TIP3    H239679   3.414   5.092   3.692  0.1309 -0.3299  0.4749
13253TIP3   OH239680   2.010   8.095   0.344  0.8216 -0.2763  0.2499
13253TIP3    H139681   2.007   8.048   0.260  1.3251 -1.0245  0.6351
13253TIP3    H239682   1.937   8.059   0.394  1.7467 -1.3634  0.8877
13254TIP3   OH239683   3.079   0.023   0.053 -0.3115  0.2463 -0.4156
13254TIP3    H139684   3.013   0.070   0.104 -0.6029 -1.3756  0.7830
13254TIP3    H239685   3.155   0.020   0.110 -1.2362 -3.2318  0.8765
13255TIP3   OH239686   3.159   2.424   4.157 -0.5515  0.0865 -0.2562
13255TIP3    H139687   3.137   2.513   4.131 -0.3981  0.2097  0.0292
13255TIP3    H239688   3.088   2.370   4.121  0.1996  0.1082 -1.8265
13256TIP3   OH239689   2.867   2.472   6.083  0.0162  0.2691 -0.2748
13256TIP3    H139690   2.823   2.410   6.025 -0.0149 -0.9286  0.9715
13256TIP3    H239691   2.804   2.487   6.154  1.0058 -0.3087  0.7652
13257TIP3   OH239692   1.389   7.080   5.002  0.2677  0.4344 -0.3296
13257TIP3    H139693   1.437   7.069   5.084 -1.0715  1.2946  0.6129
13257TIP3    H239694   1.434   7.152   4.957 -1.2518  2.6317  1.4763
13258TIP3   OH239695   1.455   3.529   2.822  0.3493 -0.0746 -0.0011
13258TIP3    H139696   1.509   3.477   2.881  0.0713 -0.5682 -0.1725
13258TIP3    H239697   1.467   3.488   2.736  0.8570  0.7154 -0.3300
13259TIP3   OH239698   6.416   0.191   4.038 -0.2965  0.0628  0.7437
13259TIP3    H139699   6.374   0.119   4.085  0.1151 -1.4510 -1.1042
13259TIP3    H239700   6.343   0.243   4.003 -0.6750 -1.3142 -0.6089
13260TIP3   OH239701   2.867   5.854   2.347  0.3583 -0.3463  0.4632
13260TIP3    H139702   2.882   5.928   2.405  1.2693 -0.4927  0.4299
13260TIP3    H239703   2.941   5.795   2.363 -1.1624 -2.0454  1.6758
13261TIP3   OH239704   6.304   7.203   5.626 -0.1693 -0.1115 -0.1786
13261TIP3    H139705   6.209   7.199   5.610 -0.4707  1.2745  1.0125
13261TIP3    H239706   6.343   7.214   5.539 -1.3539  2.4427 -0.4573
13262TIP3   OH239707   5.899   6.891   0.827 -0.6480 -0.0506  0.3138
13262TIP3    H139708   5.834   6.960   0.813  1.3258  1.7421 -0.5408
13262TIP3    H239709   5.857   6.812   0.793 -3.0962  0.5872  1.5872
13263TIP3   OH239710   1.377   7.543   4.505 -0.7896 -0.3358  0.3385
13263TIP3    H139711   1.295   7.505   4.475 -0.0850 -1.2960 -0.3951
13263TIP3    H239712   1.361   7.564   4.597 -1.4962 -1.5701  0.5180
13264TIP3   OH239713   4.936   2.733   0.974 -0.2033 -0.4232  0.4012
13264TIP3    H139714   4.950   2.643   1.004  0.5576 -0.9412 -1.4028
13264TIP3    H239715   4.903   2.778   1.052 -0.8573 -2.2988  1.2892
13265TIP3   OH239716   8.564   3.280   5.556  0.5286  0.2278 -0.7049
13265TIP3    H139717   8.539   3.274   5.464 -0.4125 -0.2714 -0.4295
13265TIP3    H239718   8.565   3.374   5.574 -1.5295  0.2765 -0.6549
13266TIP3   OH239719   5.033   2.850   5.058  0.3023 -0.1681  0.7074
13266TIP3    H139720   5.091   2.918   5.090 -1.6076  1.6498  0.5079
13266TIP3    H239721   5.086   2.799   4.997  1.3987  2.0351 -0.2532
13267TIP3   OH239722   7.713   3.193   5.425 -0.2633  0.1821  0.2079
13267TIP3    H139723   7.659   3.187   5.504 -0.1657  0.4021  0.2910
13267TIP3    H239724   7.783   3.130   5.439 -1.2720 -1.1622 -0.5127
13268TIP3   OH239725   7.739   2.388   1.130 -0.3730  0.2020 -0.1920
13268TIP3    H139726   7.755   2.447   1.204 -1.7932  1.0775 -0.5460
13268TIP3    H239727   7.663   2.425   1.086 -1.0014 -1.6371 -0.7278
13269TIP3   OH239728   6.774   0.206   6.607 -0.0054 -0.0114 -0.3741
13269TIP3    H139729   6.755   0.283   6.661 -2.9564 -1.9489  1.6956
13269TIP3    H239730   6.730   0.223   6.524 -1.3852  0.2518  0.3778
13270TIP3   OH239731   4.211   2.760   0.638 -0.5328 -0.2393 -0.1914
13270TIP3    H139732   4.172   2.675   0.614 -0.7326 -0.1239 -0.2864
13270TIP3    H239733   4.264   2.742   0.715  1.0441 -0.8611 -1.3674
13271TIP3   OH239734   4.674   0.686   2.895  0.2413 -0.0809 -0.2064
13271TIP3    H139735   4.669   0.776   2.862 -0.1175 -0.4422 -1.1573
13271TIP3    H239736   4.584   0.665   2.921  0.1001 -0.5668 -1.0755
13272TIP3   OH239737   5.442   7.289   6.934  0.2797 -0.1845  0.6397
13272TIP3    H139738   5.465   7.368   6.885 -0.2156 -1.0843 -1.1769
13272TIP3    H239739   5.525   7.252   6.961  0.7532 -0.7558 -1.4300
13273TIP3   OH239740   5.479   1.944   5.038 -0.0358 -0.5155 -0.2133
13273TIP3    H139741   5.483   2.039   5.052  0.2170 -0.4824 -0.5111
13273TIP3    H239742   5.553   1.925   4.982 -0.8144 -0.6976 -1.2004
13274TIP3   OH239743   4.322   2.670   6.381 -0.4110 -0.3927 -0.1672
13274TIP3    H139744   4.385   2.721   6.432 -0.6502 -0.0173 -0.2423
13274TIP3    H239745   4.313   2.718   6.299 -1.0848 -0.2296 -0.0031
13275TIP3   OH239746   1.774   2.335   2.427  0.2568  0.2926 -0.5048
13275TIP3    H139747   1.860   2.291   2.422  0.7404  1.3768 -2.6480
13275TIP3    H239748   1.795   2.428   2.435 -0.7272  0.5463 -0.7572
13276TIP3   OH239749   6.266   2.482   1.992  0.0338  0.1158  0.0889
13276TIP3    H139750   6.321   2.506   1.917  2.5970 -0.7934  1.5475
13276TIP3    H239751   6.220   2.563   2.014 -0.1479  0.6190 -1.9033
13277TIP3   OH239752   0.259   1.308   0.004  0.1052 -0.0325  0.1262
13277TIP3    H139753   0.231   1.223   0.038 -0.9220 -0.0774 -0.7863
13277TIP3    H239754   0.222   1.371   0.066 -1.0789 -0.1536 -0.4300
13278TIP3   OH239755   0.459   2.215   3.321 -0.0185 -0.6373 -0.7585
13278TIP3    H139756   0.533   2.236   3.263 -0.0225 -1.5079 -1.0934
13278TIP3    H239757   0.487   2.138   3.369 -0.5679 -0.7591 -0.6271
13279TIP3   OH239758   4.075   7.580   0.187 -0.2240  0.1864 -0.0609
13279TIP3    H139759   4.143   7.609   0.126 -1.1464  0.1386 -1.1499
13279TIP3    H239760   4.107   7.606   0.273  1.2375  0.0233 -0.5260
13280TIP3   OH239761   3.981   3.429   2.263  0.1535  0.4907  0.1692
13280TIP3    H139762   4.024   3.353   2.224  0.2692 -0.1696  1.5132
13280TIP3    H239763   3.935   3.471   2.190 -0.5419 -1.2986 -0.4749
13281TIP3   OH239764   3.513   2.982   1.279  0.1145 -0.2500  0.1436
13281TIP3    H139765   3.482   2.928   1.352  0.7335  0.5883  1.0571
13281TIP3    H239766   3.434   3.007   1.231 -0.1842 -1.9175 -0.2802
13282TIP3   OH239767   8.284   1.620   1.690 -0.0359  0.5447  0.2058
13282TIP3    H139768   8.307   1.629   1.783 -0.6666 -0.8161  0.5202
13282TIP3    H239769   8.203   1.569   1.691  0.3591 -0.1440 -1.1208
13283TIP3   OH239770   6.642   2.606   4.263  0.1879 -0.3807  0.1490
13283TIP3    H139771   6.615   2.578   4.350 -0.4759 -1.4312 -0.3815
13283TIP3    H239772   6.737   2.602   4.264  0.2250  0.5106  1.1107
13284TIP3   OH239773   2.965   1.291   0.894  0.2053  0.4807 -0.1286
13284TIP3    H139774   2.895   1.314   0.833  0.0458 -0.4634 -0.3186
13284TIP3    H239775   2.924   1.233   0.957  0.2299  1.8994  1.2492
13285TIP3   OH239776   6.078   1.043   3.354 -0.2000  0.2273 -0.0440
13285TIP3    H139777   6.088   0.949   3.363  0.3507  0.2902  0.0616
13285TIP3    H239778   6.129   1.066   3.276 -1.7064  0.2234 -1.0761
13286TIP3   OH239779   3.442   6.808   6.981 -0.2204 -0.7068 -0.0383
13286TIP3    H139780   3.416   6.730   7.030 -0.4611 -0.9987 -0.6219
13286TIP3    H239781   3.368   6.868   6.991 -0.7556 -1.1978 -0.9640
13287TIP3   OH239782   6.539   1.638   5.943  0.9360  0.0480  0.3508
13287TIP3    H139783   6.484   1.597   6.010  1.1323  1.7418  1.6153
13287TIP3    H239784   6.590   1.566   5.906  0.9383 -0.9120  2.1425
13288TIP3   OH239785   5.309   1.845   5.279 -0.2748 -0.0258  0.0766
13288TIP3    H139786   5.342   1.906   5.212 -0.3027  0.8835  0.8674
13288TIP3    H239787   5.339   1.882   5.362  0.1642 -1.4031  0.5500
13289TIP3   OH239788   4.025   2.964   4.387 -0.5987 -0.4691  0.0441
13289TIP3    H139789   4.000   2.876   4.358 -0.8991 -0.9964  1.7569
13289TIP3    H239790   4.055   2.951   4.478 -2.6824  1.4705  1.1028
13290TIP3   OH239791   2.712   6.019   6.658  0.1298  0.2383 -0.1658
13290TIP3    H139792   2.707   6.068   6.576 -1.0735 -0.1528 -0.3633
13290TIP3    H239793   2.733   5.929   6.631 -1.4157 -0.1498 -0.1932
13291TIP3   OH239794   0.120   7.040   0.800 -0.0023  0.5996 -0.3351
13291TIP3    H139795   0.148   7.128   0.778 -1.4354  0.9541 -0.7930
13291TIP3    H239796   0.026   7.039   0.785  0.0298 -1.1180 -0.7091
13292TIP3   OH239797   2.497   2.004   1.827  0.0916 -0.0957  0.4826
13292TIP3    H139798   2.495   2.086   1.779 -0.1395  0.4310  1.3574
13292TIP3    H239799   2.411   1.999   1.869 -0.8265 -1.9620 -1.4266
13293TIP3   OH239800   1.934   6.683   0.487  0.2312 -0.1577 -0.5223
13293TIP3    H139801   1.908   6.596   0.457  0.1470 -0.2152 -0.2873
13293TIP3    H239802   1.998   6.666   0.556 -0.4131 -0.0601  0.1173
13294TIP3   OH239803   4.462   6.389   2.485 -0.1103  0.2245  0.1921
13294TIP3    H139804   4.549   6.382   2.446 -0.1667 -1.1032  0.2533
13294TIP3    H239805   4.472   6.348   2.572 -0.9810 -0.7521 -0.1462
13295TIP3   OH239806   2.234   8.225   0.244  0.2881  0.4035  0.2688
13295TIP3    H139807   2.240   8.179   0.161  1.5655  0.4898  0.2920
13295TIP3    H239808   2.167   8.177   0.293  0.6132 -0.5885 -0.2331
13296TIP3   OH239809   0.494   1.334   0.859  0.5265  0.2017  0.1244
13296TIP3    H139810   0.589   1.334   0.860  0.6867  3.0449 -1.8338
13296TIP3    H239811   0.469   1.397   0.926 -0.0188 -0.7730  0.8559
13297TIP3   OH239812   1.904   4.757   5.606 -0.7016  0.3352  0.4091
13297TIP3    H139813   1.935   4.689   5.547  0.7725 -0.7451  2.2752
13297TIP3    H239814   1.833   4.800   5.559  0.1882 -0.6279 -1.9767
13298TIP3   OH239815   6.822   1.606   6.672 -0.0071  0.4446 -0.0869
13298TIP3    H139816   6.895   1.648   6.716 -1.0542  1.3231  0.8858
13298TIP3    H239817   6.767   1.678   6.641 -2.1713 -0.0781  2.1882
13299TIP3   OH239818   0.777   7.052   4.917  0.1492 -0.2679 -0.5161
13299TIP3    H139819   0.699   7.098   4.887  0.7325  0.4148 -1.0378
13299TIP3    H239820   0.767   7.046   5.012 -0.5724 -0.2640 -0.5899
13300TIP3   OH239821   6.911   0.499   2.459  0.3205 -0.3246 -0.6059
13300TIP3    H139822   6.963   0.422   2.484 -0.7787 -1.7733 -2.4920
13300TIP3    H239823   6.974   0.572   2.462  1.3462 -1.2106  1.4459
13301TIP3   OH239824   6.490   6.170   1.305  0.1767  0.3172 -0.2987
13301TIP3    H139825   6.453   6.085   1.281 -0.6608  0.6218 -0.1095
13301TIP3    H239826   6.582   6.163   1.282 -0.1594 -0.1627 -1.5936
13302TIP3   OH239827   1.561   0.252   0.194 -0.4403  0.0047  0.1273
13302TIP3    H139828   1.467   0.269   0.194 -0.5339 -0.4820  0.2507
13302TIP3    H239829   1.568   0.159   0.172 -0.0958 -0.4739  2.1155
13303TIP3   OH239830   0.633   7.880   5.024 -0.7945 -0.1299 -0.0723
13303TIP3    H139831   0.587   7.949   5.071 -0.3034 -0.1201  0.4043
13303TIP3    H239832   0.688   7.927   4.960 -1.3801 -0.1384 -0.5863
13304TIP3   OH239833   5.435   4.999   5.434  0.3297 -0.0422  0.1483
13304TIP3    H139834   5.354   4.999   5.485  0.4825 -0.9106  0.4012
13304TIP3    H239835   5.444   4.910   5.402  1.6268 -0.1873  0.8480
13305TIP3   OH239836   0.929   7.773   4.896  0.2511  1.1564 -0.2451
13305TIP3    H139837   0.881   7.753   4.815 -0.5632 -0.0446  0.5158
13305TIP3    H239838   0.977   7.694   4.916  1.2075  1.7744 -0.0463
13306TIP3   OH239839   0.439   3.271   2.474  0.9023  0.1597 -0.5827
13306TIP3    H139840   0.468   3.319   2.396  0.0358  1.4703 -0.1419
13306TIP3    H239841   0.412   3.186   2.441  1.6276  0.2736 -1.5391
13307TIP3   OH239842   4.506   6.672   2.502  0.7923 -0.3133  0.5315
13307TIP3    H139843   4.598   6.673   2.527  0.7331 -1.9661  0.9405
13307TIP3    H239844   4.483   6.579   2.499 -0.6948  0.0467 -0.1923
13308TIP3   OH239845   5.077   4.881   5.015  0.2376  0.0830 -0.2005
13308TIP3    H139846   5.057   4.939   4.941 -0.0132  0.3762  0.0932
13308TIP3    H239847   4.996   4.880   5.067  1.1577  1.8176  1.3683
13309TIP3   OH239848   1.992   6.363   6.601 -0.7548  0.5294 -0.4198
13309TIP3    H139849   1.913   6.393   6.646 -0.8533  0.9842 -0.8833
13309TIP3    H239850   2.012   6.278   6.640 -1.5363  0.3626 -0.3716
13310TIP3   OH239851   2.340   2.539   5.833  0.1256  0.3327  0.3446
13310TIP3    H139852   2.294   2.611   5.789 -0.2594  1.5064  2.5206
13310TIP3    H239853   2.322   2.553   5.926  0.4786 -2.3150  0.8750
13311TIP3   OH239854   4.634   4.134   0.475  0.0632  0.5869 -0.6506
13311TIP3    H139855   4.709   4.105   0.423 -0.8686  0.1425 -1.8165
13311TIP3    H239856   4.558   4.111   0.421 -0.9355  0.5067  0.7388
13312TIP3   OH239857   4.513   5.244   1.599  0.0776  0.2516  0.6145
13312TIP3    H139858   4.440   5.268   1.657 -0.5944 -1.0436  0.3385
13312TIP3    H239859   4.533   5.324   1.551 -1.7816  0.4051  0.0353
13313TIP3   OH239860   0.772   6.246   2.665  0.1317 -0.3783 -0.0954
13313TIP3    H139861   0.859   6.287   2.659  1.0911 -2.4143 -1.3798
13313TIP3    H239862   0.715   6.303   2.613  1.0923  0.0854 -0.6641
13314TIP3   OH239863   6.177   2.821   0.920  0.5576 -0.0124 -0.2815
13314TIP3    H139864   6.138   2.902   0.887 -0.1262  0.1895  0.9639
13314TIP3    H239865   6.247   2.850   0.979  0.5645 -0.3388 -0.1283
13315TIP3   OH239866   6.703   3.865   0.922 -0.6692  0.5484  0.2148
13315TIP3    H139867   6.703   3.862   1.018  1.8176  0.6202  0.2884
13315TIP3    H239868   6.704   3.773   0.895  0.4973  0.5166  0.3314
13316TIP3   OH239869   1.104   4.989   6.747 -0.3910 -0.6760 -0.6603
13316TIP3    H139870   1.187   4.995   6.700 -0.5282 -1.0831 -0.9583
13316TIP3    H239871   1.123   5.024   6.834  0.1532 -0.9811 -0.6528
13317TIP3   OH239872   1.821   2.576   0.860  0.3100 -0.6322 -0.5908
13317TIP3    H139873   1.884   2.589   0.789  0.9790  0.7250  0.2112
13317TIP3    H239874   1.842   2.645   0.924 -0.0708 -1.9732  1.0566
13318TIP3   OH239875   1.214   2.441   2.346  0.1199  0.2224  0.5671
13318TIP3    H139876   1.266   2.455   2.426  2.6483  3.1670 -1.3336
13318TIP3    H239877   1.149   2.512   2.347 -0.2988 -0.1566  0.3420
13319TIP3   OH239878   0.521   0.741   4.878  0.2893 -0.1237  1.2595
13319TIP3    H139879   0.478   0.826   4.875  0.4563 -0.0407 -1.0393
13319TIP3    H239880   0.491   0.697   4.798  2.8622 -0.8710  0.6297
13320TIP3   OH239881   7.100   4.501   2.995  0.0736 -0.6414 -0.4368
13320TIP3    H139882   7.046   4.577   2.976 -0.4391 -0.4502  1.5573
13320TIP3    H239883   7.046   4.446   3.052  1.9949 -0.3244  1.8626
13321TIP3   OH239884   7.560   4.573   6.113  0.5153 -0.1411 -0.4436
13321TIP3    H139885   7.592   4.540   6.029  2.1277 -1.2050  0.5356
13321TIP3    H239886   7.517   4.498   6.153 -0.6254  0.4798 -0.4595
13322TIP3   OH239887   3.725   3.710   5.905  0.3247 -0.0251  0.1536
13322TIP3    H139888   3.698   3.722   5.996  1.6047  0.8302  0.4480
13322TIP3    H239889   3.766   3.623   5.903  0.0813 -0.1440  0.3381
13323TIP3   OH239890   7.878   3.161   1.590  0.5356 -0.1146  0.3846
13323TIP3    H139891   7.917   3.074   1.594  0.3860 -0.2995 -1.3643
13323TIP3    H239892   7.784   3.146   1.599  0.5789 -0.0238  1.0418
13324TIP3   OH239893   0.953   6.480   2.183 -0.1925  0.0174  0.1588
13324TIP3    H139894   0.978   6.572   2.180 -1.7648  0.4450 -0.5719
13324TIP3    H239895   1.033   6.433   2.158  1.1396  1.0376  2.2646
13325TIP3   OH239896   5.615   7.715   0.405 -0.3415  0.6804  0.2046
13325TIP3    H139897   5.550   7.652   0.438 -1.3196  0.6948 -1.5619
13325TIP3    H239898   5.563   7.791   0.378  0.5395  1.1594 -0.1878
13326TIP3   OH239899   2.703   8.162   6.412  0.3860 -0.2623  0.0607
13326TIP3    H139900   2.756   8.168   6.492 -0.0147 -1.1309  0.4047
13326TIP3    H239901   2.762   8.191   6.342  0.5708  1.0511  0.7254
13327TIP3   OH239902   0.999   0.653   6.131 -0.2614  0.0541 -0.0780
13327TIP3    H139903   1.059   0.643   6.204 -0.0760 -4.8055 -0.5835
13327TIP3    H239904   0.912   0.645   6.169 -0.2029 -1.3622 -0.1985
13328TIP3   OH239905   2.847   3.444   0.044  0.2462  0.2771 -0.0429
13328TIP3    H139906   2.869   3.532   0.013  0.3442 -0.0261 -0.8593
13328TIP3    H239907   2.793   3.459   0.122  1.6552  1.0493  0.8316
13329TIP3   OH239908   6.834   6.896   1.881 -0.4910  0.5945 -0.3949
13329TIP3    H139909   6.804   6.872   1.794  1.6118  0.2898 -1.0749
13329TIP3    H239910   6.808   6.988   1.890 -1.8962  0.2656 -0.7680
13330TIP3   OH239911   5.944   4.028   1.612 -0.1616  0.6621  0.0641
13330TIP3    H139912   5.897   3.949   1.586 -0.2334  0.7775 -0.1562
13330TIP3    H239913   6.034   4.013   1.583  0.8354 -1.0814  3.5318
13331TIP3   OH239914   3.773   1.959   1.717 -0.2034  0.5029 -0.0484
13331TIP3    H139915   3.840   1.893   1.736  0.7232  1.3110 -0.4350
13331TIP3    H239916   3.690   1.918   1.744  0.2655 -1.0564 -0.8427
13332TIP3   OH239917   6.444   3.326   5.597 -0.2210 -0.3527 -0.0017
13332TIP3    H139918   6.402   3.331   5.683 -0.1729 -0.3180  0.0201
13332TIP3    H239919   6.434   3.414   5.560  0.7390 -0.0402  0.4372
13333TIP3   OH239920   1.173   4.403   1.492  0.1547 -0.1007 -0.1323
13333TIP3    H139921   1.091   4.384   1.536  0.5649 -2.4562 -0.2802
13333TIP3    H239922   1.149   4.466   1.424 -0.9807  1.3910  1.5457
13334TIP3   OH239923   5.439   0.608   3.424  0.2664  0.7994 -0.2884
13334TIP3    H139924   5.473   0.658   3.349 -2.0613  0.0930 -1.9417
13334TIP3    H239925   5.493   0.529   3.427  0.8802  1.1919 -0.7340
13335TIP3   OH239926   4.061   5.752   1.993 -0.1690  0.6121 -0.0112
13335TIP3    H139927   4.155   5.766   1.994 -0.3041  1.6551 -0.3729
13335TIP3    H239928   4.027   5.815   2.057 -0.3933 -1.9657  2.6470
13336TIP3   OH239929   7.566   6.921   6.125 -0.0637  0.2571  0.1211
13336TIP3    H139930   7.536   6.830   6.135  0.9337 -0.0293  0.6540
13336TIP3    H239931   7.565   6.936   6.030  1.9624 -1.1165 -0.1787
13337TIP3   OH239932   0.447   2.159   4.904 -0.4225  0.6507 -0.1208
13337TIP3    H139933   0.446   2.242   4.855 -2.8193  0.3022 -0.8395
13337TIP3    H239934   0.435   2.092   4.837  3.3757 -0.5739  0.2081
13338TIP3   OH239935   7.242   1.116   6.588 -0.9547  0.4728 -0.2746
13338TIP3    H139936   7.217   1.024   6.597  0.8448 -0.1565 -1.4193
13338TIP3    H239937   7.220   1.138   6.498 -2.4918  1.5765  0.3138
13339TIP3   OH239938   5.270   0.555   7.034  0.3295 -0.1635 -0.4099
13339TIP3    H139939   5.314   0.473   7.012  0.4739 -0.1282 -0.2530
13339TIP3    H239940   5.284   0.611   6.957  2.0835  0.4781  0.3296
13340TIP3   OH239941   1.844   5.021   3.801  0.4204 -0.1180 -0.1769
13340TIP3    H139942   1.827   5.027   3.707  0.3107  1.4050 -0.0874
13340TIP3    H239943   1.938   5.003   3.808  0.0928 -2.1585 -0.5805
13341TIP3   OH239944   6.808   2.915   4.982 -0.1967  0.4960 -0.1297
13341TIP3    H139945   6.894   2.873   4.973 -0.0290  0.1910  2.2760
13341TIP3    H239946   6.747   2.853   4.940  0.6745  0.5872 -1.6060
13342TIP3   OH239947   2.130   1.106   1.137  0.5847 -0.4255  0.1872
13342TIP3    H139948   2.182   1.111   1.057 -0.3173  0.0196 -0.3899
13342TIP3    H239949   2.186   1.144   1.205  0.8332  0.5168 -0.5232
13343TIP3   OH239950   7.804   3.547   1.536  0.0409  0.0849 -0.0719
13343TIP3    H139951   7.775   3.510   1.619  0.4673 -1.7549 -0.6986
13343TIP3    H239952   7.878   3.602   1.559  0.5679 -0.9152  0.7152
13344TIP3   OH239953   5.480   3.472   1.049 -0.8696  0.3059 -0.3105
13344TIP3    H139954   5.514   3.493   1.136 -1.3584 -1.1134  0.2641
13344TIP3    H239955   5.481   3.555   1.002  0.1818  0.9513  0.7766
13345TIP3   OH239956   6.841   4.744   5.075  0.2215  0.0423  0.6797
13345TIP3    H139957   6.897   4.792   5.014 -0.2461  0.9844  0.9792
13345TIP3    H239958   6.884   4.753   5.160 -0.4349  0.8687  0.9331
13346TIP3   OH239959   7.469   7.849   3.949  0.1063 -0.1925 -0.8412
13346TIP3    H139960   7.393   7.852   3.891  0.4577 -0.7761 -1.3490
13346TIP3    H239961   7.497   7.940   3.956 -0.8262  0.0703 -0.3880
13347TIP3   OH239962   8.004   1.022   4.889  0.0108 -0.3307 -0.1747
13347TIP3    H139963   7.966   0.972   4.961 -0.4681 -0.8856 -0.7971
13347TIP3    H239964   8.099   1.017   4.903 -0.1117  1.2471  1.5202
13348TIP3   OH239965   1.967   4.799   7.088  0.5629 -0.1509  0.4602
13348TIP3    H139966   1.943   4.877   7.138 -0.6556 -0.4017  0.3019
13348TIP3    H239967   1.883   4.762   7.060  1.1872 -0.4580 -1.0950
13349TIP3   OH239968   4.757   7.135   1.940  0.1002  0.2167 -0.2355
13349TIP3    H139969   4.842   7.105   1.974 -1.4191 -1.5153  2.3619
13349TIP3    H239970   4.743   7.219   1.983  0.7196  0.7997 -1.1375
13350TIP3   OH239971   1.790   3.952   2.635  0.0740 -0.1055  0.0762
13350TIP3    H139972   1.769   4.031   2.686  0.7200  1.0688 -1.3941
13350TIP3    H239973   1.775   3.880   2.696 -0.8214  1.1204  1.3911
13351TIP3   OH239974   0.190   3.866   0.420  0.2278 -0.4504  0.4928
13351TIP3    H139975   0.182   3.887   0.327  1.3111  1.7346  0.8185
13351TIP3    H239976   0.142   3.784   0.431  1.8771 -1.9352 -2.3734
13352TIP3   OH239977   7.696   6.028   5.097 -0.3024  0.1051  0.0804
13352TIP3    H139978   7.637   6.087   5.142  0.0268  0.4421  0.0747
13352TIP3    H239979   7.779   6.037   5.143  0.5581  1.8203 -1.6652
13353TIP3   OH239980   6.165   0.279   3.893 -0.2433  0.5091  0.0347
13353TIP3    H139981   6.135   0.254   3.980  4.0341 -1.2478  1.2249
13353TIP3    H239982   6.207   0.364   3.905 -0.0406  0.4822 -0.4473
13354TIP3   OH239983   6.863   1.184   2.096 -0.3290  0.2136 -0.5653
13354TIP3    H139984   6.789   1.168   2.037 -0.1245 -0.0344 -0.7580
13354TIP3    H239985   6.877   1.279   2.090 -0.6472  0.2672 -0.5053
13355TIP3   OH239986   3.355   1.274   7.109 -0.3560  0.1410  0.0614
13355TIP3    H139987   3.357   1.181   7.131  1.7194 -0.0965 -0.8799
13355TIP3    H239988   3.289   1.281   7.040 -0.2077 -0.7221 -0.1786
13356TIP3   OH239989   7.716   4.732   3.448 -0.3778  0.2399  0.2346
13356TIP3    H139990   7.623   4.722   3.467 -0.2899  0.0582  0.5948
13356TIP3    H239991   7.723   4.814   3.400 -0.8036 -0.0814 -0.3763
13357TIP3   OH239992   4.860   2.831   6.633 -0.0528  0.3866  0.2018
13357TIP3    H139993   4.875   2.749   6.681  3.0857  1.2501  0.9148
13357TIP3    H239994   4.896   2.899   6.690 -0.6317  2.0265 -1.3128
13358TIP3   OH239995   0.245   2.778   1.830 -0.2187  0.3940 -0.3321
13358TIP3    H139996   0.164   2.822   1.805 -0.2499 -0.0689 -1.0614
13358TIP3    H239997   0.217   2.692   1.861 -0.0902  0.6014  0.3879
13359TIP3   OH239998   1.618   3.335   6.716  0.2917 -0.5187  0.4118
13359TIP3    H139999   1.660   3.354   6.633 -0.4462  2.7290  0.6244
13359TIP3    H240000   1.597   3.241   6.713 -1.7781 -0.1477 -4.0578
13360TIP3   OH240001   1.386   1.382   6.327 -0.1282 -0.1938 -0.7842
13360TIP3    H140002   1.371   1.289   6.344  0.0287 -0.1395 -0.3114
13360TIP3    H240003   1.299   1.422   6.328 -0.0762 -0.0233  1.0191
13361TIP3   OH240004   7.645   6.410   6.092 -0.5513  0.3054  0.0185
13361TIP3    H140005   7.585   6.430   6.020  0.6585  0.2248 -1.0220
13361TIP3    H240006   7.719   6.469   6.079  0.5768 -1.0612  0.0655
13362TIP3   OH240007   5.714   3.888   3.420 -0.2875  0.1116 -0.3040
13362TIP3    H140008   5.666   3.807   3.404 -0.3952  0.0737  0.1722
13362TIP3    H240009   5.786   3.887   3.357 -2.4165  1.4902 -2.9340
13363TIP3   OH240010   6.828   0.055   3.208 -0.2714 -0.3271 -0.3749
13363TIP3    H140011   6.906   0.089   3.252 -0.1150  0.5339 -1.2782
13363TIP3    H240012   6.858  -0.022   3.160 -0.3545 -1.0176  0.6490
13364TIP3   OH240013   3.107   0.876   5.044 -0.3059 -0.1095 -0.2290
13364TIP3    H140014   3.015   0.880   5.070 -0.7260  1.4474 -1.7221
13364TIP3    H240015   3.123   0.961   5.002  1.5879 -0.6624 -0.7213
13365TIP3   OH240016   7.918   6.904   5.275  0.2707  0.1435 -1.1845
13365TIP3    H140017   7.945   6.985   5.232  1.8933 -0.8620 -2.1538
13365TIP3    H240018   7.833   6.883   5.237 -0.2926  1.4874 -0.7404
13366TIP3   OH240019   2.611   7.162   1.160  0.4451 -0.2827 -0.5203
13366TIP3    H140020   2.579   7.074   1.175  0.3634 -0.4740 -1.7462
13366TIP3    H240021   2.563   7.217   1.223  1.6903 -1.2990  1.4296
13367TIP3   OH240022   8.059   0.584   2.491  0.2439  0.0498 -0.1635
13367TIP3    H140023   8.021   0.512   2.543  1.5570 -0.2842  0.3842
13367TIP3    H240024   8.037   0.562   2.401 -3.6495  1.5583  0.2167
13368TIP3   OH240025   7.745   4.964   4.909 -0.9179  0.4328 -0.7893
13368TIP3    H140026   7.786   4.906   4.844 -0.2300  1.1005 -0.9646
13368TIP3    H240027   7.807   5.036   4.919 -1.1573  0.4934  0.3936
13369TIP3   OH240028   1.983   8.065   2.927  0.3877  0.5963 -0.3901
13369TIP3    H140029   1.957   8.157   2.920  1.8490  0.9956 -1.0205
13369TIP3    H240030   2.017   8.043   2.841  0.9515 -0.2405  0.0299
13370TIP3   OH240031   1.302   1.783   5.553  0.2698  0.0589 -0.3546
13370TIP3    H140032   1.315   1.794   5.459  0.5136 -0.0418 -0.3336
13370TIP3    H240033   1.388   1.799   5.592  0.2830 -0.3771 -0.1935
13371TIP3   OH240034   4.376   3.473   5.999 -0.3231 -0.2968 -0.0607
13371TIP3    H140035   4.372   3.418   6.077 -0.3712 -0.4930 -0.2023
13371TIP3    H240036   4.288   3.512   5.993 -0.6259 -1.0348 -0.5644
13372TIP3   OH240037   4.981   0.491   3.219  0.4937  0.4645 -0.3532
13372TIP3    H140038   4.955   0.581   3.203  0.1354  0.6675  1.2633
13372TIP3    H240039   5.077   0.493   3.218  0.5147  1.1448  0.9981
13373TIP3   OH240040   4.570   1.772   0.307  0.3903 -0.1988 -0.3936
13373TIP3    H140041   4.501   1.836   0.327  0.5352  0.2527 -1.3061
13373TIP3    H240042   4.650   1.814   0.340  0.0015 -1.8447  3.1698
13374TIP3   OH240043   7.576   1.688   4.967 -0.2458 -0.6642 -0.3683
13374TIP3    H140044   7.588   1.693   5.062  1.4322  0.6518 -0.6087
13374TIP3    H240045   7.658   1.722   4.930 -0.9413 -0.9439 -2.2976
13375TIP3   OH240046   6.536   7.178   5.754  0.1813 -0.1344  0.6259
13375TIP3    H140047   6.548   7.258   5.804  2.8464  0.0752 -0.1754
13375TIP3    H240048   6.442   7.167   5.748 -0.2457  2.1920  1.9146
13376TIP3   OH240049   8.029   2.731   2.551 -0.2305 -0.1058  0.7530
13376TIP3    H140050   8.123   2.717   2.538 -0.1967  0.5679  0.2815
13376TIP3    H240051   7.993   2.737   2.463 -0.0940  3.7992  0.7941
13377TIP3   OH240052   1.551   1.438   2.181 -0.1790 -0.1794  0.0089
13377TIP3    H140053   1.525   1.366   2.238 -1.2467  0.5938  0.5446
13377TIP3    H240054   1.474   1.453   2.125 -0.3055  1.0718  0.4764
13378TIP3   OH240055   0.867   7.231   1.773 -0.3774 -0.0651  0.9039
13378TIP3    H140056   0.907   7.207   1.857 -0.1548  0.9309  1.1002
13378TIP3    H240057   0.847   7.148   1.731 -0.9208 -0.5825  2.1540
13379TIP3   OH240058   3.420   4.841   1.001 -0.2399 -0.2745  0.3366
13379TIP3    H140059   3.424   4.904   0.929  3.2228 -0.8888 -0.1943
13379TIP3    H240060   3.333   4.802   0.994 -1.0847  1.7213 -1.6713
13380TIP3   OH240061   5.323   0.867   3.998  0.1221  0.2390 -0.4045
13380TIP3    H140062   5.317   0.960   3.975 -0.6973 -0.1094 -1.7067
13380TIP3    H240063   5.268   0.823   3.934 -1.0216 -0.9765  1.3016
13381TIP3   OH240064   5.416   1.338   3.770  0.3821 -0.2106 -0.4453
13381TIP3    H140065   5.453   1.350   3.683  1.1578  0.1161 -0.0781
13381TIP3    H240066   5.409   1.243   3.780 -1.1472 -0.2258 -1.4419
13382TIP3   OH240067   4.462   4.448   6.270  0.2178  0.8353 -0.4265
13382TIP3    H140068   4.438   4.513   6.204 -1.4569 -0.0160 -0.7142
13382TIP3    H240069   4.490   4.372   6.220  0.3941  0.6970 -0.1217
13383TIP3   OH240070   6.825   0.935   5.913 -0.7016 -0.3025 -0.1111
13383TIP3    H140071   6.813   0.857   5.967  0.2281 -0.0613  0.4781
13383TIP3    H240072   6.865   0.902   5.832 -1.3232 -0.5639 -0.3145
13384TIP3   OH240073   4.262   2.684   1.515 -0.4076  0.5687 -0.0204
13384TIP3    H140074   4.169   2.696   1.535 -0.9533  0.5507 -2.2505
13384TIP3    H240075   4.292   2.617   1.576 -2.0909 -0.0530  0.1643
13385TIP3   OH240076   1.328   1.798   5.215  0.1852 -1.0141  0.2242
13385TIP3    H140077   1.355   1.720   5.167  0.2446 -1.6831  1.3123
13385TIP3    H240078   1.374   1.870   5.171  1.7462 -1.8210  0.4414
13386TIP3   OH240079   1.091   2.656   2.125  0.5936  0.1962 -0.8127
13386TIP3    H140080   1.091   2.721   2.055  2.8691  0.2005 -0.8990
13386TIP3    H240081   1.152   2.589   2.094 -1.4673 -1.8986 -0.6025
13387TIP3   OH240082   2.348   0.492   1.640  0.2370 -0.0719 -0.1727
13387TIP3    H140083   2.442   0.475   1.644 -0.0791 -2.6203 -1.5422
13387TIP3    H240084   2.319   0.489   1.731  1.2927 -0.6185  0.1656
13388TIP3   OH240085   6.254   4.518   0.632 -0.2369 -0.3828  0.3175
13388TIP3    H140086   6.319   4.452   0.609  2.5770  1.6595  1.8380
13388TIP3    H240087   6.212   4.541   0.549  1.5634 -1.2099 -0.8681
13389TIP3   OH240088   1.484   0.497   7.055 -0.0443 -0.0272 -0.2520
13389TIP3    H140089   1.539   0.419   7.042  0.3896  0.4074 -1.1690
13389TIP3    H240090   1.546   0.570   7.054 -0.5589  0.4162 -0.5935
13390TIP3   OH240091   5.856   1.857   2.535  0.2885  0.3413 -0.3241
13390TIP3    H140092   5.794   1.785   2.550  0.3095 -0.0586 -1.9468
13390TIP3    H240093   5.838   1.919   2.606 -1.2527 -0.2483 -0.1499
13391TIP3   OH240094   3.544   4.063   5.329  0.2030 -0.3518  0.8572
13391TIP3    H140095   3.557   3.981   5.282 -1.8223 -0.0454 -0.3469
13391TIP3    H240096   3.470   4.046   5.387  1.1626  0.0006  2.2250
13392TIP3   OH240097   5.827   2.842   5.641  0.9620 -0.3458 -0.0919
13392TIP3    H140098   5.886   2.772   5.668  0.5283 -1.6220 -2.2673
13392TIP3    H240099   5.745   2.798   5.617  0.2798  1.0225 -0.4105
13393TIP3   OH240100   7.176   5.374   3.556  0.3271 -0.1697  0.3373
13393TIP3    H140101   7.200   5.281   3.553 -1.5780 -0.6917 -2.3616
13393TIP3    H240102   7.241   5.417   3.500 -0.0443 -0.2454 -0.1597
13394TIP3   OH240103   7.124   7.151   5.127  0.0220  0.0027 -0.0956
13394TIP3    H140104   7.155   7.166   5.038  0.5754  0.7913  0.2291
13394TIP3    H240105   7.130   7.056   5.138  0.9840  0.0036 -0.5212
13395TIP3   OH240106   2.837   6.135   2.461  0.2192  0.2896 -0.1161
13395TIP3    H140107   2.755   6.111   2.417  0.5014 -2.3402  0.6217
13395TIP3    H240108   2.809   6.172   2.545 -0.2250 -0.5789  0.1268
13396TIP3   OH240109   7.667   2.704   5.723  0.5992 -0.1124  0.2232
13396TIP3    H140110   7.609   2.769   5.763  1.5430  0.5837  0.4757
13396TIP3    H240111   7.679   2.735   5.633  0.8937 -0.0487  0.2851
13397TIP3   OH240112   2.798   6.354   6.709 -0.3674  0.4337 -0.0792
13397TIP3    H140113   2.704   6.339   6.712 -0.2916  0.1187  2.2223
13397TIP3    H240114   2.811   6.406   6.630 -2.3552 -0.1801 -0.8656
13398TIP3   OH240115   5.733   2.249   1.726  0.4121  0.0259 -0.1764
13398TIP3    H140116   5.657   2.299   1.754  0.3496 -0.5050  0.6371
13398TIP3    H240117   5.702   2.196   1.653 -0.2021 -0.7106  0.5951
13399TIP3   OH240118   3.575   7.197   4.539 -0.1605  0.6809  0.5294
13399TIP3    H140119   3.662   7.237   4.536 -0.5391  1.5536  0.7032
13399TIP3    H240120   3.591   7.105   4.558  0.7724  0.6384 -0.4002
13400TIP3   OH240121   0.470   2.395   2.551  0.1970 -0.2089  0.2609
13400TIP3    H140122   0.376   2.382   2.560  0.2467 -0.1344  0.9484
13400TIP3    H240123   0.509   2.331   2.610  0.5120  1.1881  1.6276
13401TIP3   OH240124   0.270   2.034   3.718  0.0560  0.0708  0.2862
13401TIP3    H140125   0.201   2.050   3.653 -0.1414 -0.1729  0.4306
13401TIP3    H240126   0.259   2.104   3.782  0.7164  0.7355 -0.3209
13402TIP3   OH240127   1.785   5.140   1.864  0.0028  0.1204 -0.2202
13402TIP3    H140128   1.836   5.162   1.786 -2.3114  2.6134 -1.1640
13402TIP3    H240129   1.847   5.151   1.936  1.2176  1.4729 -1.4065
13403TIP3   OH240130   7.952   3.378   0.033 -0.2757 -0.3094 -0.0759
13403TIP3    H140131   7.904   3.457   0.008 -1.0169 -1.0258 -0.9783
13403TIP3    H240132   8.033   3.381  -0.016  0.4851  0.7249  1.1807
13404TIP3   OH240133   2.305   0.736   4.180  0.4672  0.1660  0.5723
13404TIP3    H140134   2.353   0.731   4.097  0.5499 -0.9257  0.6707
13404TIP3    H240135   2.373   0.744   4.247  0.3797  1.9257  0.5134
13405TIP3   OH240136   5.552   3.255   6.257 -0.6036 -0.9076  0.4319
13405TIP3    H140137   5.475   3.201   6.278  0.6833 -3.1712 -0.3542
13405TIP3    H240138   5.605   3.253   6.336 -0.3208 -1.2010  0.2345
13406TIP3   OH240139   8.056   1.426   5.021 -0.2776  0.4439 -0.4045
13406TIP3    H140140   8.095   1.509   4.997  1.7781 -0.5316 -0.6766
13406TIP3    H240141   8.038   1.382   4.938  1.3242 -0.5018 -0.3061
13407TIP3   OH240142   4.052   3.740   1.178  0.2446  0.3407  0.1217
13407TIP3    H140143   3.994   3.817   1.173  0.1443  0.5191  2.8505
13407TIP3    H240144   3.997   3.671   1.214  1.3044  0.0728  1.2669
13408TIP3   OH240145   7.401   5.338   5.370 -0.2239  0.3085  0.6539
13408TIP3    H140146   7.359   5.403   5.314  1.3471  0.2960 -0.6274
13408TIP3    H240147   7.413   5.383   5.454  2.0535  2.2503 -0.5854
13409TIP3   OH240148   3.658   3.279   0.768 -0.3540 -0.3568  0.3311
13409TIP3    H140149   3.749   3.274   0.738  0.4396  0.9160  2.3323
13409TIP3    H240150   3.652   3.362   0.815 -2.8155  0.0232 -0.4803
13410TIP3   OH240151   5.740   1.685   0.089  0.6639 -0.1613  0.1894
13410TIP3    H140152   5.695   1.600   0.091  0.3736 -0.0944 -1.5787
13410TIP3    H240153   5.717   1.722   0.003  0.8234  1.6909  0.8932
13411TIP3   OH240154   7.639   0.100   4.658 -0.4912  0.5481  1.0261
13411TIP3    H140155   7.644   0.089   4.563 -1.2271  0.6504  0.9696
13411TIP3    H240156   7.646   0.011   4.692  0.0059  0.5305  0.8944
13412TIP3   OH240157   6.683   6.193   1.821 -0.5612  0.0087 -0.1759
13412TIP3    H140158   6.640   6.147   1.893 -2.2699  0.3496 -0.9275
13412TIP3    H240159   6.703   6.280   1.856 -1.2813  0.1368 -0.0816
13413TIP3   OH240160   5.123   0.528   6.136 -0.3931  0.0226 -0.0095
13413TIP3    H140161   5.154   0.522   6.046  0.1520 -1.2773  0.2433
13413TIP3    H240162   5.154   0.448   6.178 -1.2138  0.2838  1.1625
13414TIP3   OH240163   6.948   3.968   5.938  0.3168 -0.3381 -0.0984
13414TIP3    H140164   6.867   4.012   5.913  0.1142 -1.4433 -1.4910
13414TIP3    H240165   7.016   4.034   5.925 -0.1410  0.0005 -0.8159
13415TIP3   OH240166   7.195   3.533   6.849 -0.2853 -0.7757 -0.3578
13415TIP3    H140167   7.276   3.532   6.900 -0.3783 -0.3048 -0.1988
13415TIP3    H240168   7.133   3.483   6.903  0.2139 -2.1622 -1.0234
13416TIP3   OH240169   4.483   0.671   4.542  0.7286  0.6920  0.6914
13416TIP3    H140170   4.478   0.767   4.548  0.7967  0.7150  0.3704
13416TIP3    H240171   4.394   0.644   4.517  0.6482  0.6517  1.0099
13417TIP3   OH240172   5.198   4.713   6.745 -0.4930  0.6442  0.1309
13417TIP3    H140173   5.285   4.744   6.719  1.1719 -4.5424 -1.8271
13417TIP3    H240174   5.213   4.665   6.826 -1.6328  0.1322  0.0571
13418TIP3   OH240175   3.520   0.750   6.055 -0.5773  0.1588  0.0144
13418TIP3    H140176   3.599   0.767   6.107 -0.7741 -0.7258  0.6209
13418TIP3    H240177   3.536   0.796   5.973  0.1226  0.8592  0.5172
13419TIP3   OH240178   1.811   7.821   0.322 -0.2488  0.0139  0.0729
13419TIP3    H140179   1.874   7.771   0.374  1.8172  0.3538 -1.9045
13419TIP3    H240180   1.789   7.762   0.249  0.9677  1.2745 -1.4046
13420TIP3   OH240181   8.551   2.254   4.870  0.8809  0.1697 -0.0431
13420TIP3    H140182   8.560   2.182   4.932  2.0425 -0.1532 -0.5729
13420TIP3    H240183   8.553   2.333   4.925  1.2195 -0.1386  0.3923
13421TIP3   OH240184   5.953   1.157   3.605  0.4386 -0.1598  0.1171
13421TIP3    H140185   5.877   1.103   3.581  0.9986 -1.4388  1.0767
13421TIP3    H240186   6.011   1.152   3.530 -0.6987  1.4215 -0.9262
13422TIP3   OH240187   2.383   2.126   2.265  0.4789  0.1100  0.0553
13422TIP3    H140188   2.443   2.052   2.263 -2.0607 -2.0774 -0.7277
13422TIP3    H240189   2.320   2.104   2.334 -0.4043  1.4977 -0.2552
13423TIP3   OH240190   3.949   5.869   3.122 -0.1121 -0.5663  0.1636
13423TIP3    H140191   3.880   5.815   3.084 -0.4307 -1.5166  2.0040
13423TIP3    H240192   3.909   5.910   3.199  1.4022 -1.3748  1.4587
13424TIP3   OH240193   0.140   5.002   2.223  0.4948 -0.2858 -0.4874
13424TIP3    H140194   0.107   5.015   2.312  1.6732  0.5184 -0.1323
13424TIP3    H240195   0.081   4.938   2.184 -0.4315 -0.1628  0.6558
13425TIP3   OH240196   6.773   8.039   4.307 -0.3088 -0.2816 -0.0898
13425TIP3    H140197   6.745   8.106   4.369 -0.3493 -1.4010  1.1270
13425TIP3    H240198   6.846   7.995   4.350  1.7951  0.9225 -2.1391
13426TIP3   OH240199   4.360   4.259   4.349  0.3437 -0.0909 -0.0312
13426TIP3    H140200   4.361   4.350   4.380 -1.7443  0.2701 -0.8646
13426TIP3    H240201   4.289   4.218   4.398  0.6596 -1.0324 -0.3461
13427TIP3   OH240202   7.124   6.739   1.930 -0.1099 -0.0037 -0.3951
13427TIP3    H140203   7.218   6.735   1.912 -0.3551  0.8679 -2.0964
13427TIP3    H240204   7.111   6.827   1.967 -0.3449  0.1659 -0.8703
13428TIP3   OH240205   1.594   8.053   2.407 -0.7494  0.2963 -0.6878
13428TIP3    H140206   1.553   8.137   2.422 -0.4531 -0.1930  4.7026
13428TIP3    H240207   1.685   8.074   2.385 -0.1792  1.5865  2.4371
13429TIP3   OH240208   6.616   8.179   0.773 -0.0487  0.2108  0.4938
13429TIP3    H140209   6.682   8.223   0.826  0.1435  1.7245 -0.9050
13429TIP3    H240210   6.591   8.102   0.824  0.1254  1.5570  2.7519
13430TIP3   OH240211   5.613   7.408   1.528  0.0453  0.0045 -0.4603
13430TIP3    H140212   5.522   7.393   1.554  0.0640  0.5164 -0.0854
13430TIP3    H240213   5.607   7.444   1.440 -0.1657  0.9093 -0.0808
13431TIP3   OH240214   3.243   3.585   1.331 -0.1357  0.0768  0.8404
13431TIP3    H140215   3.261   3.656   1.269 -0.3314  0.6272  1.4060
13431TIP3    H240216   3.148   3.578   1.334 -0.1163 -0.6390  0.3265
13432TIP3   OH240217   7.680   1.550   5.934  0.6029 -0.6219  0.3003
13432TIP3    H140218   7.728   1.631   5.952 -0.8050 -0.2103  2.6468
13432TIP3    H240219   7.674   1.507   6.020 -0.1227 -2.3931 -0.6052
13433TIP3   OH240220   8.660   1.431   1.603  0.0933  0.1227 -0.3311
13433TIP3    H140221   8.591   1.431   1.536  1.4216  0.1017 -1.7662
13433TIP3    H240222   8.730   1.484   1.565  1.1683 -0.4658  0.7577
13434TIP3   OH240223   0.066   5.360   0.026  0.7091 -0.3473 -0.3922
13434TIP3    H140224   0.124   5.436   0.027 -1.1992  1.1913 -1.0366
13434TIP3    H240225   0.093   5.309   0.103  2.1827  0.8416 -0.0646
13435TIP3   OH240226   0.872   6.726   3.645  0.7658 -0.1529  0.1779
13435TIP3    H140227   0.901   6.806   3.690 -1.4853  0.9852 -0.2326
13435TIP3    H240228   0.887   6.745   3.553 -0.3981  0.1151  0.0275
13436TIP3   OH240229   2.674   8.147   5.831  0.2365  0.6689 -0.0474
13436TIP3    H140230   2.715   8.086   5.893  1.3813  1.6712  0.2077
13436TIP3    H240231   2.665   8.097   5.750  0.5391 -0.0463  0.3536
13437TIP3   OH240232   2.251   1.801   3.827 -0.1325  0.1269  0.0650
13437TIP3    H140233   2.311   1.822   3.755 -0.0872 -1.8782 -0.5349
13437TIP3    H240234   2.307   1.801   3.905  0.4136 -0.5411 -0.3199
13438TIP3   OH240235   1.516   1.185   4.912 -0.5188  0.1203 -0.2929
13438TIP3    H140236   1.465   1.176   4.832  1.0155  0.1630 -1.3104
13438TIP3    H240237   1.452   1.172   4.983 -1.9369  0.2845 -1.4981
13439TIP3   OH240238   3.619   7.459   0.822  0.7310 -0.4242 -0.3690
13439TIP3    H140239   3.609   7.499   0.908  1.3424 -0.9163 -0.0637
13439TIP3    H240240   3.530   7.435   0.796  0.5656 -0.4491  0.2127
13440TIP3   OH240241   7.553   6.787   1.191 -0.0749 -0.1308 -0.1909
13440TIP3    H140242   7.533   6.725   1.261  0.5555 -0.8362 -0.6270
13440TIP3    H240243   7.648   6.786   1.185 -0.0479  0.9338 -0.1644
13441TIP3   OH240244   4.443   7.959   0.463 -0.3415  0.3473 -0.5605
13441TIP3    H140245   4.393   7.921   0.391  0.8916 -1.0495 -0.7333
13441TIP3    H240246   4.402   7.925   0.543  0.0558 -0.4648 -0.6920
13442TIP3   OH240247   7.858   2.551   4.841 -0.1503 -0.2684  0.0981
13442TIP3    H140248   7.881   2.591   4.925 -1.1186 -0.1146  0.3014
13442TIP3    H240249   7.855   2.457   4.859  0.9874 -0.3616 -0.1059
13443TIP3   OH240250   2.561   8.080   4.230 -0.2565 -0.1969  0.1151
13443TIP3    H140251   2.487   8.038   4.274 -0.4865 -2.5388 -2.2326
13443TIP3    H240252   2.631   8.014   4.235  0.4676  0.4847 -0.8744
13444TIP3   OH240253   3.396   3.086   1.889 -0.0726  0.4103  0.2787
13444TIP3    H140254   3.382   3.015   1.951 -0.9751  1.8211  1.7713
13444TIP3    H240255   3.385   3.166   1.940  2.2166  1.6831 -1.0282
13445TIP3   OH240256   7.853   1.578   0.960  0.2520 -0.8624 -0.1783
13445TIP3    H140257   7.779   1.631   0.989  1.5510 -0.0428  1.8063
13445TIP3    H240258   7.860   1.509   1.025  1.8208 -0.3409  0.2371
13446TIP3   OH240259   7.027   6.654   5.463  0.0674  0.1860 -0.2786
13446TIP3    H140260   7.096   6.692   5.408  0.7116 -1.5203 -0.7174
13446TIP3    H240261   7.042   6.692   5.549  1.6515 -0.1882 -0.3409
13447TIP3   OH240262   6.522   2.461   2.111 -0.3051 -0.3280 -0.6738
13447TIP3    H140263   6.525   2.430   2.202  0.5167  0.2004 -0.5040
13447TIP3    H240264   6.430   2.456   2.087 -0.9355  1.7719  1.0149
13448TIP3   OH240265   7.394   2.791   5.395  0.1155  0.3646  0.1806
13448TIP3    H140266   7.426   2.725   5.333  1.0644  1.2381 -0.2935
13448TIP3    H240267   7.341   2.741   5.458 -1.4985 -0.4535 -1.7202
13449TIP3   OH240268   2.938   4.286   3.730 -0.5319  0.0067 -0.1430
13449TIP3    H140269   2.882   4.349   3.777  0.6229 -0.0232  1.3286
13449TIP3    H240270   3.021   4.289   3.776 -0.0208 -1.6168 -0.9059
13450TIP3   OH240271   8.018   3.214   1.818 -0.2183  0.2690  0.0308
13450TIP3    H140272   7.954   3.207   1.748  0.0886 -0.6083 -0.1698
13450TIP3    H240273   8.084   3.275   1.785 -0.4538  0.4287 -0.1451
13451TIP3   OH240274   7.897   3.599   4.641 -0.3905  0.5130 -0.3007
13451TIP3    H140275   7.813   3.586   4.597 -0.0265 -0.7673 -0.6515
13451TIP3    H240276   7.900   3.533   4.710 -0.0867  1.1939  0.3578
13452TIP3   OH240277   7.478   6.431   5.237 -0.1884  0.0229 -0.3120
13452TIP3    H140278   7.439   6.452   5.322 -0.4311  0.3167 -0.4989
13452TIP3    H240279   7.533   6.355   5.255  0.1021  0.3489  0.2040
13453TIP3   OH240280   7.141   0.659   1.002  0.2986  0.2997 -0.0767
13453TIP3    H140281   7.218   0.659   1.059  0.9809 -1.6653 -0.9212
13453TIP3    H240282   7.140   0.572   0.962 -1.6906  0.6878 -1.0170
13454TIP3   OH240283   8.472   6.282   6.217 -0.2752  0.3281 -0.0777
13454TIP3    H140284   8.565   6.282   6.238 -0.6707  0.5697  1.8669
13454TIP3    H240285   8.439   6.365   6.250 -0.8664  1.1670 -2.5478
13455TIP3   OH240286   3.391   8.146   5.962  0.0807  0.1869  0.1742
13455TIP3    H140287   3.440   8.089   5.903 -0.7220 -0.5642  0.2044
13455TIP3    H240288   3.319   8.091   5.994  0.0346  0.8308  1.2190
13456TIP3   OH240289   2.712   5.835   2.131 -0.4170  0.2854  0.3039
13456TIP3    H140290   2.756   5.847   2.215 -0.5543 -0.6787  0.5229
13456TIP3    H240291   2.742   5.750   2.100 -0.2510  0.7017 -0.7064
13457TIP3   OH240292   8.023   5.150   0.001  0.2591  0.0903 -0.0543
13457TIP3    H140293   8.052   5.236  -0.029  2.2706  0.1505  1.8244
13457TIP3    H240294   7.975   5.168   0.082 -1.2307 -0.4258 -0.7830
13458TIP3   OH240295   1.781   5.609   5.287  0.0857 -0.1041  0.0039
13458TIP3    H140296   1.872   5.581   5.290 -0.4533 -2.8743 -3.1103
13458TIP3    H240297   1.757   5.601   5.194 -3.4970 -0.2045  0.8004
13459TIP3   OH240298   8.257   6.771   4.253 -0.1859  0.0682  0.2635
13459TIP3    H140299   8.224   6.776   4.163 -1.8881 -0.2655  0.8290
13459TIP3    H240300   8.191   6.818   4.305 -0.0042 -1.0259  1.5261
13460TIP3   OH240301   0.572   8.063   6.604 -0.3821  0.1290  0.4527
13460TIP3    H140302   0.491   8.038   6.650 -1.1786  1.3891 -0.2246
13460TIP3    H240303   0.581   7.998   6.534 -0.8837  0.0653  0.4452
13461TIP3   OH240304   5.729   7.254   5.662  0.4615  0.2785 -0.1982
13461TIP3    H140305   5.704   7.271   5.571 -0.7661  2.4259  0.4790
13461TIP3    H240306   5.804   7.311   5.677  0.4089  0.2268  0.2662
13462TIP3   OH240307   1.565   3.109   3.251  0.4230  0.0515 -0.2856
13462TIP3    H140308   1.525   3.043   3.194  1.2612 -0.2173 -0.5749
13462TIP3    H240309   1.631   3.152   3.196  0.9887  0.0337  0.3655
13463TIP3   OH240310   1.884   0.949   0.778  0.4804 -0.2115  0.3230
13463TIP3    H140311   1.879   0.896   0.858 -0.7443  0.1983  0.5457
13463TIP3    H240312   1.823   0.906   0.718 -0.4627  0.8717  0.4795
13464TIP3   OH240313   4.206   8.215   3.178 -0.5197  0.0149 -0.5721
13464TIP3    H140314   4.232   8.153   3.247  1.0255 -0.6938 -1.7388
13464TIP3    H240315   4.235   8.174   3.097 -0.0760  1.9475 -1.4459
13465TIP3   OH240316   5.759   3.246   0.938  0.1531  0.3133  0.3263
13465TIP3    H140317   5.761   3.212   0.848  2.4532 -1.3124  0.8966
13465TIP3    H240318   5.739   3.339   0.928  0.0634  0.1245 -1.8308
13466TIP3   OH240319   4.469   1.213   5.972 -0.3477 -0.6520 -0.2222
13466TIP3    H140320   4.484   1.157   6.049  0.6560  0.1293  0.1727
13466TIP3    H240321   4.471   1.302   6.007 -3.0172 -0.3495 -0.6609
13467TIP3   OH240322   7.007   1.659   4.065 -0.0859  0.2384  0.6037
13467TIP3    H140323   7.102   1.655   4.073 -0.1879 -0.8392  1.5460
13467TIP3    H240324   6.978   1.700   4.147 -0.4513  0.3937  0.3985
13468TIP3   OH240325   5.143   2.278   3.108  0.4462 -0.1686  0.0218
13468TIP3    H140326   5.106   2.205   3.058  1.8429 -0.6275 -0.4105
13468TIP3    H240327   5.071   2.339   3.119 -0.1215 -0.4348 -1.8770
13469TIP3   OH240328   5.543   3.038   0.394 -0.0141  0.4125  0.2804
13469TIP3    H140329   5.474   3.105   0.389 -0.8241 -0.3699  0.7431
13469TIP3    H240330   5.623   3.088   0.409 -0.6886  1.2490  1.2253
13470TIP3   OH240331   7.536   4.524   3.702  0.0070 -0.3381  0.2528
13470TIP3    H140332   7.507   4.487   3.618 -1.0736 -0.6975  0.7747
13470TIP3    H240333   7.504   4.614   3.701  1.5017  0.2218 -0.4480
13471TIP3   OH240334   1.884   1.623   1.881  0.1701 -0.0655 -0.6017
13471TIP3    H140335   1.794   1.621   1.913  0.6076 -0.6332  0.6483
13471TIP3    H240336   1.883   1.566   1.804 -0.3915 -0.6496 -0.1739
13472TIP3   OH240337   0.882   1.175   5.222  0.1317 -0.1634 -0.5547
13472TIP3    H140338   0.840   1.191   5.306  1.7602 -1.0082  0.4770
13472TIP3    H240339   0.810   1.170   5.160 -1.0144  1.8940  0.5253
13473TIP3   OH240340   7.975   2.756   5.651  0.2239 -0.9495  0.1870
13473TIP3    H140341   8.016   2.836   5.683 -1.5120 -0.6821  2.0062
13473TIP3    H240342   7.945   2.778   5.563  0.6915  0.0512  0.2633
13474TIP3   OH240343   0.452   5.270   3.669  0.5467  0.0313  0.0083
13474TIP3    H140344   0.416   5.358   3.656 -0.5680 -0.7140 -2.7314
13474TIP3    H240345   0.386   5.212   3.632  1.6083 -1.9239  1.0524
13475TIP3   OH240346   5.638   0.660   6.081  0.1447  0.4896 -0.4025
13475TIP3    H140347   5.542   0.660   6.083  0.1474  1.5815 -0.0974
13475TIP3    H240348   5.663   0.603   6.154 -0.2660  1.5263  0.5691
13476TIP3   OH240349   3.822   4.625   2.114 -0.2994 -0.1043 -0.4106
13476TIP3    H140350   3.804   4.644   2.206 -1.5201  1.7058 -0.9626
13476TIP3    H240351   3.756   4.562   2.089 -1.9485  1.6838 -0.7715
13477TIP3   OH240352   8.638   4.363   1.461 -0.2839  0.2814  0.0312
13477TIP3    H140353   8.682   4.362   1.545 -2.3812 -1.0416  1.2077
13477TIP3    H240354   8.565   4.424   1.473 -0.8905 -0.2875 -0.6295
13478TIP3   OH240355   3.928   1.721   1.786 -0.0951 -0.2289 -0.4469
13478TIP3    H140356   4.013   1.709   1.829 -1.3837 -2.1562  1.7723
13478TIP3    H240357   3.940   1.681   1.699  1.6502  0.9124 -0.7832
13479TIP3   OH240358   1.618   4.861   2.869 -0.1220 -0.0487 -0.1576
13479TIP3    H140359   1.582   4.819   2.791  1.4591 -3.1857  0.6177
13479TIP3    H240360   1.593   4.803   2.941 -0.5445  2.1358  1.5426
13480TIP3   OH240361   7.866   2.911   5.038 -0.1677 -0.3971 -0.0197
13480TIP3    H140362   7.906   2.978   5.094 -0.5786 -0.3908  0.2784
13480TIP3    H240363   7.799   2.871   5.094 -0.4243 -0.5521 -0.4338
13481TIP3   OH240364   7.078   4.801   6.078 -0.7933  0.0726 -0.1760
13481TIP3    H140365   7.095   4.707   6.082  0.6629  0.3429  0.9275
13481TIP3    H240366   7.143   4.834   6.017 -1.1945  0.3867 -0.4351
13482TIP3   OH240367   0.233   4.774   3.837 -0.2831 -0.4149 -0.4923
13482TIP3    H140368   0.315   4.733   3.813 -0.2067 -1.0016  0.6992
13482TIP3    H240369   0.182   4.704   3.879  0.0419  0.7576  2.0373
13483TIP3   OH240370   3.543   2.955   0.052  0.2689 -0.4574  0.0325
13483TIP3    H140371   3.545   2.985   0.143 -1.5111  0.1380 -0.0766
13483TIP3    H240372   3.566   3.033   0.000 -0.6814 -0.2327 -0.0833
13484TIP3   OH240373   4.321   1.520   2.652 -0.2369  0.1174 -0.4111
13484TIP3    H140374   4.341   1.426   2.650 -2.3446 -0.3815 -1.6819
13484TIP3    H240375   4.227   1.524   2.668 -0.3741  1.9711 -1.3817
13485TIP3   OH240376   5.928   5.268   5.242  0.5005  0.2563 -0.0956
13485TIP3    H140377   5.904   5.312   5.323  1.2015  2.1117 -0.8660
13485TIP3    H240378   5.858   5.203   5.229 -1.0542  1.7159  0.6301
13486TIP3   OH240379   2.191   5.152   3.011  0.5931 -0.4920  0.4496
13486TIP3    H140380   2.159   5.066   3.038 -0.6556  0.5250  2.4563
13486TIP3    H240381   2.210   5.143   2.918 -1.7678 -2.3075  0.0512
13487TIP3   OH240382   1.970   6.293   5.878  0.0064 -0.9900 -0.3082
13487TIP3    H140383   1.976   6.384   5.848  0.6745 -0.9224 -0.0043
13487TIP3    H240384   1.877   6.274   5.878 -0.4452  0.6800  2.5129
13488TIP3   OH240385   4.400   4.167   0.607  0.4893 -0.0334 -0.6110
13488TIP3    H140386   4.429   4.214   0.529  0.0911 -0.8488 -1.2635
13488TIP3    H240387   4.478   4.162   0.662  1.2054 -0.7867 -1.6395
13489TIP3   OH240388   7.411   2.421   6.176 -0.5657  0.4554  0.2311
13489TIP3    H140389   7.506   2.435   6.172 -0.3300 -0.8542  0.8811
13489TIP3    H240390   7.375   2.509   6.192  0.5859  0.8638  0.6882
13490TIP3   OH240391   5.391   7.132   6.243  0.8202 -0.4290  0.6635
13490TIP3    H140392   5.466   7.089   6.286  0.8591 -0.6758  0.3536
13490TIP3    H240393   5.317   7.112   6.300  0.8324 -0.9382  0.5080
13491TIP3   OH240394   6.226   3.688   2.675  0.0638  0.0666 -0.1250
13491TIP3    H140395   6.194   3.639   2.599  1.0329 -0.7427 -0.0511
13491TIP3    H240396   6.262   3.620   2.733  1.1456  0.8330  0.1366
13492TIP3   OH240397   5.799   3.978   2.817  0.5424  0.3807  0.2169
13492TIP3    H140398   5.774   3.998   2.727  1.6053  1.2127  0.0761
13492TIP3    H240399   5.866   3.910   2.808 -0.2471 -0.4483  0.4685
13493TIP3   OH240400   5.543   4.237   2.705 -0.5641 -0.5034  0.1711
13493TIP3    H140401   5.590   4.175   2.650 -1.4228 -0.9322 -0.0929
13493TIP3    H240402   5.567   4.214   2.794  0.2595 -0.2728  0.0182
13494TIP3   OH240403   4.509   4.130   6.724  0.2884 -0.2571  0.2699
13494TIP3    H140404   4.554   4.201   6.769  1.4882  0.5554 -2.0628
13494TIP3    H240405   4.569   4.055   6.732  0.3568 -0.1998  0.2959
13495TIP3   OH240406   8.576   7.518   5.376 -0.6399  0.5068  0.0912
13495TIP3    H140407   8.638   7.452   5.407  0.0008  0.0767 -1.9715
13495TIP3    H240408   8.493   7.494   5.418  0.2687  0.3500  1.9135
13496TIP3   OH240409   4.744   6.204   1.245 -0.0055  0.0573 -0.0537
13496TIP3    H140410   4.816   6.265   1.263  1.1177 -1.1820 -0.1304
13496TIP3    H240411   4.788   6.123   1.221 -1.3705 -1.5348  2.3706
13497TIP3   OH240412   3.297   6.637   1.544 -0.7571 -0.1518  0.1263
13497TIP3    H140413   3.211   6.642   1.502 -0.4704  2.1640 -0.3485
13497TIP3    H240414   3.321   6.729   1.560  1.7115 -0.7125  0.0379
13498TIP3   OH240415   8.388   1.711   0.699 -0.0439  0.2312 -0.3927
13498TIP3    H140416   8.358   1.725   0.609  0.0930 -1.0290 -0.6580
13498TIP3    H240417   8.482   1.695   0.690  0.0213  0.3659  0.0148
13499TIP3   OH240418   2.693   7.275   4.095 -0.2062  0.1035 -0.0871
13499TIP3    H140419   2.687   7.367   4.120  0.7056  0.2009 -0.1897
13499TIP3    H240420   2.606   7.254   4.058 -0.0611  1.2500 -1.1421
13500TIP3   OH240421   0.593   7.362   4.643 -0.2156 -0.0684 -0.9341
13500TIP3    H140422   0.665   7.397   4.695  0.3389  0.7591 -2.2276
13500TIP3    H240423   0.582   7.424   4.571 -2.8613  0.3455 -0.2881
13501TIP3   OH240424   0.873   4.160   0.240 -0.0063  0.3508  0.3862
13501TIP3    H140425   0.890   4.230   0.302 -1.2763  0.7379  0.3241
13501TIP3    H240426   0.867   4.204   0.155 -1.3363  0.2713  0.4153
13502TIP3   OH240427   4.449   2.053   2.153 -0.0951  0.4595  0.3689
13502TIP3    H140428   4.366   2.038   2.108 -0.6276  0.9294  1.1628
13502TIP3    H240429   4.448   1.991   2.225  0.1612  0.5857  0.4801
13503TIP3   OH240430   0.157   0.363   0.526  0.2098 -0.2406  0.4132
13503TIP3    H140431   0.163   0.375   0.431  0.7812 -2.3265  0.1222
13503TIP3    H240432   0.232   0.307   0.548 -0.5359 -0.7117  1.9155
13504TIP3   OH240433   7.104   7.875   0.532  0.7566 -0.0675 -0.2341
13504TIP3    H140434   7.111   7.831   0.616 -0.2177  0.1971 -0.0080
13504TIP3    H240435   7.022   7.925   0.537  1.0861  0.5845 -1.0369
13505TIP3   OH240436   4.794   2.439   3.306 -0.7163 -0.0138 -0.4339
13505TIP3    H140437   4.719   2.497   3.307  0.0345  0.9905 -0.8365
13505TIP3    H240438   4.857   2.480   3.365 -0.0129 -0.1726 -1.0511
13506TIP3   OH240439   0.852   6.914   1.026 -0.2095 -0.0017  0.4651
13506TIP3    H140440   0.923   6.863   0.988 -1.8942 -0.7249 -1.9707
13506TIP3    H240441   0.833   6.871   1.109 -0.3222 -2.2309 -0.6401
13507TIP3   OH240442   3.245   5.301   3.818  0.2717 -0.5133 -0.3458
13507TIP3    H140443   3.319   5.249   3.787  0.4846 -0.7876  0.6110
13507TIP3    H240444   3.284   5.370   3.870  0.0613  1.1668 -2.2750
13508TIP3   OH240445   1.655   3.929   1.970 -0.3017  0.0099 -0.2566
13508TIP3    H140446   1.642   3.968   2.057  0.6840  0.1723 -0.1692
13508TIP3    H240447   1.668   3.836   1.988 -0.9336 -0.0963 -0.3147
13509TIP3   OH240448   7.592   0.212   0.529  0.0267 -0.1747  0.7751
13509TIP3    H140449   7.541   0.202   0.448  0.1373  0.5854  0.6018
13509TIP3    H240450   7.667   0.153   0.518  0.1118  0.0218  0.2617
13510TIP3   OH240451   5.406   1.483   2.087  0.3497  0.4673 -0.2730
13510TIP3    H140452   5.358   1.412   2.044  0.8244 -0.1009  0.1037
13510TIP3    H240453   5.449   1.440   2.161  0.3450  1.2307  0.1796
13511TIP3   OH240454   3.610   1.490   1.315  0.4129 -0.2252  0.6110
13511TIP3    H140455   3.564   1.566   1.279 -1.2765 -1.4229  0.1104
13511TIP3    H240456   3.582   1.486   1.407 -0.8703 -1.1878  0.2033
13512TIP3   OH240457   6.862   2.230   5.378 -0.3402 -0.0491 -0.0396
13512TIP3    H140458   6.898   2.143   5.397 -2.3365 -1.1804 -1.0722
13512TIP3    H240459   6.917   2.263   5.307  1.7113  0.4825  1.6845
13513TIP3   OH240460   3.871   2.661   0.602  0.4023 -0.1754  0.0230
13513TIP3    H140461   3.820   2.681   0.680  1.6969 -0.4442  0.9750
13513TIP3    H240462   3.824   2.589   0.560 -0.0503 -0.3498  0.8148
13514TIP3   OH240463   3.144   2.292   2.295 -0.5688  0.4142  0.7063
13514TIP3    H140464   3.108   2.352   2.230  1.3044  1.5156  0.6139
13514TIP3    H240465   3.076   2.284   2.362 -1.6609  0.9968 -0.3133
13515TIP3   OH240466   0.316   3.643   1.962  0.2101  0.2218 -0.0368
13515TIP3    H140467   0.411   3.657   1.960  0.4203 -0.9568  0.8616
13515TIP3    H240468   0.289   3.676   2.047 -0.0535 -0.2693  0.0680
13516TIP3   OH240469   0.601   0.944   6.764  0.0055 -0.1115  0.3180
13516TIP3    H140470   0.643   0.887   6.699 -0.0248 -0.9645  1.0309
13516TIP3    H240471   0.508   0.922   6.758 -0.3281  1.4210 -0.9084
13517TIP3   OH240472   3.321   3.114   2.863  0.0758  0.1049 -0.2600
13517TIP3    H140473   3.301   3.204   2.836 -1.1134  0.2685  1.0435
13517TIP3    H240474   3.391   3.086   2.803  0.4538  1.8737 -0.7130
13518TIP3   OH240475   7.328   3.080   4.685  0.3818  0.1740  0.1024
13518TIP3    H140476   7.399   3.090   4.749  0.0153 -1.8607  0.9157
13518TIP3    H240477   7.249   3.103   4.733  0.0807 -1.5719  0.5167
13519TIP3   OH240478   5.192   4.060   4.466 -0.1123 -1.3479  0.1217
13519TIP3    H140479   5.204   4.076   4.373  1.5101 -3.8235 -0.1744
13519TIP3    H240480   5.224   4.140   4.508 -1.9192  0.2692 -1.3968
13520TIP3   OH240481   3.718   7.296   2.666  0.3225 -0.4650 -0.5327
13520TIP3    H140482   3.662   7.347   2.725  0.8934 -0.9859  0.4730
13520TIP3    H240483   3.677   7.210   2.662  1.6462 -1.2185  1.1382
13521TIP3   OH240484   5.372   5.893   3.766 -0.0198  0.3570  0.0953
13521TIP3    H140485   5.384   5.985   3.742 -0.2309  0.4463  0.3292
13521TIP3    H240486   5.334   5.896   3.853  0.5294  0.0338  0.3491
13522TIP3   OH240487   3.677   6.373   2.025 -0.1664 -0.3560 -0.6619
13522TIP3    H140488   3.630   6.324   2.093  1.3071 -0.8370  0.0380
13522TIP3    H240489   3.649   6.464   2.038  0.4101 -0.3730  0.8859
13523TIP3   OH240490   6.269   6.024   4.746  0.3572  0.0842  0.2118
13523TIP3    H140491   6.331   5.971   4.696  1.0495  0.7753  0.3165
13523TIP3    H240492   6.204   6.052   4.681  0.3989 -0.2740  0.0115
13524TIP3   OH240493   2.322   4.881   2.759  0.6640  0.0433  0.0351
13524TIP3    H140494   2.362   4.808   2.711  1.2764  0.4904 -0.1506
13524TIP3    H240495   2.344   4.865   2.850  1.8951  0.6484 -0.1322
13525TIP3   OH240496   0.925   0.109   6.133  0.6684 -0.3987  0.3737
13525TIP3    H140497   0.873   0.090   6.211 -0.0801  1.6034  0.4341
13525TIP3    H240498   0.901   0.199   6.110  1.5357 -0.6278 -1.6547
13526TIP3   OH240499   2.737   0.686   6.876 -0.2346  0.1743 -0.2001
13526TIP3    H140500   2.702   0.652   6.958 -3.2692 -0.7011 -1.7048
13526TIP3    H240501   2.816   0.634   6.860  0.4608  0.3894  2.0881
13527TIP3   OH240502   3.874   5.302   2.711  0.1794 -0.8330 -0.2868
13527TIP3    H140503   3.840   5.385   2.677 -1.3958 -1.8042 -1.2124
13527TIP3    H240504   3.864   5.309   2.806 -0.5870 -0.2048 -0.3967
13528TIP3   OH240505   8.656   3.359   4.443 -0.3805 -0.0434  0.3004
13528TIP3    H140506   8.591   3.315   4.388 -0.3731  0.2065  0.0901
13528TIP3    H240507   8.643   3.452   4.425 -0.0146  0.0110  0.3155
13529TIP3   OH240508   5.674   0.231   5.213  0.1261 -0.1763  0.4541
13529TIP3    H140509   5.698   0.219   5.305  0.7288 -0.1310  0.3038
13529TIP3    H240510   5.585   0.196   5.207  0.2226 -0.5235  0.9785
13530TIP3   OH240511   5.004   1.606   3.159 -0.2824 -0.3838 -0.1014
13530TIP3    H140512   4.932   1.620   3.221 -0.0349  0.7110 -0.0364
13530TIP3    H240513   5.010   1.511   3.150 -0.9935 -0.5272  0.7662
13531TIP3   OH240514   5.144   1.523   0.502 -0.2531  0.2338  0.3656
13531TIP3    H140515   5.156   1.428   0.491 -0.7588  0.1487  0.5199
13531TIP3    H240516   5.100   1.551   0.422 -0.8270  0.1989  0.6654
13532TIP3   OH240517   4.926   6.344   2.811 -0.5752  0.3710  0.0418
13532TIP3    H140518   4.878   6.274   2.854 -1.8212  1.7846  1.0801
13532TIP3    H240519   4.946   6.406   2.881  0.2843  1.1723 -0.8687
13533TIP3   OH240520   2.730   5.683   5.995 -0.1636  0.3425 -0.0486
13533TIP3    H140521   2.690   5.755   5.947  1.2226  0.4825 -1.0526
13533TIP3    H240522   2.684   5.605   5.964 -0.4354  0.6091 -0.3168
13534TIP3   OH240523   1.058   3.357   5.062 -0.1213  0.2917  0.2718
13534TIP3    H140524   1.132   3.343   5.122  0.2506 -1.7113 -0.5763
13534TIP3    H240525   0.983   3.320   5.108  0.0576 -0.7113 -0.2037
13535TIP3   OH240526   0.072   5.618   6.745 -0.3149  0.0187 -0.1462
13535TIP3    H140527   0.012   5.592   6.815  1.2706 -0.3817  1.1321
13535TIP3    H240528   0.102   5.705   6.769 -0.4813  0.2799 -0.8522
13536TIP3   OH240529   3.731   3.157   5.614  0.3025  0.3181 -0.4579
13536TIP3    H140530   3.819   3.133   5.643 -0.3800  0.1880  1.5987
13536TIP3    H240531   3.674   3.137   5.687 -1.6070 -0.3828 -2.0458
13537TIP3   OH240532   1.394   7.530   2.569  0.2696  0.7259 -0.1528
13537TIP3    H140533   1.440   7.606   2.535 -1.5403  2.3265  0.7984
13537TIP3    H240534   1.441   7.506   2.648  2.0096 -0.4332 -1.4676
13538TIP3   OH240535   6.994   5.094   6.610  0.2796 -0.1360 -0.2676
13538TIP3    H140536   7.034   5.023   6.660 -2.2121 -0.0244  2.1422
13538TIP3    H240537   6.955   5.052   6.534 -1.6168 -1.5780  1.3936
13539TIP3   OH240538   2.552   2.536   0.236  0.3066 -0.5712  0.1556
13539TIP3    H140539   2.572   2.447   0.265 -0.4500 -0.1858  2.0111
13539TIP3    H240540   2.634   2.585   0.250  0.1740 -0.5670  0.9403
13540TIP3   OH240541   5.274   3.897   1.655 -0.0447 -0.1158  0.3239
13540TIP3    H140542   5.353   3.843   1.649 -0.3616 -0.4600 -0.8932
13540TIP3    H240543   5.209   3.850   1.603  0.2245  2.3883 -2.5142
13541TIP3   OH240544   4.136   2.090   4.816 -0.3483  0.3229 -0.1223
13541TIP3    H140545   4.105   2.015   4.767  0.0115 -0.5540  0.9432
13541TIP3    H240546   4.057   2.134   4.847 -0.5624  0.6337 -1.1024
13542TIP3   OH240547   6.645   3.805   1.171 -0.0595 -0.0370  0.6274
13542TIP3    H140548   6.708   3.741   1.205  0.9533 -0.1983 -1.4089
13542TIP3    H240549   6.635   3.869   1.242  0.2377 -1.4947  2.0382
13543TIP3   OH240550   6.200   0.526   6.209  0.4214  0.2147  0.2369
13543TIP3    H140551   6.291   0.540   6.184  0.2422 -0.1527 -0.6580
13543TIP3    H240552   6.150   0.546   6.129 -0.3371  1.0704  0.9054
13544TIP3   OH240553   0.243   7.801   1.758  0.1378  0.1469 -0.1222
13544TIP3    H140554   0.302   7.735   1.795 -2.3541 -1.1040  1.9711
13544TIP3    H240555   0.186   7.825   1.831 -2.2087  0.9508 -2.1087
13545TIP3   OH240556   8.017   3.427   4.859  0.2623  0.1038  0.7351
13545TIP3    H140557   8.083   3.383   4.913 -0.0565 -0.7225  0.4672
13545TIP3    H240558   7.940   3.370   4.865  0.1740  0.0849 -0.4482
13546TIP3   OH240559   3.325   0.301   3.876  0.1889  0.4232 -0.4525
13546TIP3    H140560   3.349   0.300   3.968 -3.3813  3.0816  0.7147
13546TIP3    H240561   3.391   0.246   3.833  2.3715 -0.3856  3.5161
13547TIP3   OH240562   4.017   1.077   1.250 -0.1215 -0.0790 -0.5523
13547TIP3    H140563   4.028   1.092   1.344 -0.3926 -0.9520 -0.3713
13547TIP3    H240564   4.102   1.043   1.221  0.3414  1.2728 -0.8700
13548TIP3   OH240565   5.469   0.971   0.848  0.1531  0.1791 -0.5983
13548TIP3    H140566   5.546   0.999   0.898 -1.1227  0.3609  1.3871
13548TIP3    H240567   5.505   0.939   0.766  2.1592  2.2492 -0.6388
13549TIP3   OH240568   0.194   8.034   1.415 -0.0222  0.2609  0.0988
13549TIP3    H140569   0.160   7.945   1.406 -0.2925  0.2927  0.7080
13549TIP3    H240570   0.225   8.038   1.506  2.4205 -0.0342 -0.6749
13550TIP3   OH240571   6.486   5.045   5.859 -0.1287 -0.2915 -0.6220
13550TIP3    H140572   6.487   5.025   5.766 -0.6256 -0.4743 -0.5885
13550TIP3    H240573   6.394   5.063   5.879  0.0730  0.4486 -0.3161
13551TIP3   OH240574   3.059   2.232   1.696 -0.0788 -0.5922  0.0351
13551TIP3    H140575   3.022   2.255   1.780  1.6383  0.5629  0.5328
13551TIP3    H240576   3.070   2.316   1.650  1.1077 -0.9580 -0.3947
13552TIP3   OH240577   4.193   2.638   5.369 -0.5914  0.1107  0.2742
13552TIP3    H140578   4.109   2.637   5.416 -1.5310 -0.5818 -1.3449
13552TIP3    H240579   4.172   2.674   5.283  0.7234 -0.3754 -0.2714
13553TIP3   OH240580   7.182   3.693   0.496  0.0764  0.2697  0.1786
13553TIP3    H140581   7.118   3.652   0.553 -0.9754  1.7495  0.1205
13553TIP3    H240582   7.163   3.786   0.501  2.1995  0.7665  0.0995
13554TIP3   OH240583   8.265   0.986   5.309  0.4896  0.2281  0.6967
13554TIP3    H140584   8.355   1.003   5.280  0.3782 -2.3961 -1.5434
13554TIP3    H240585   8.271   0.906   5.361 -0.8704 -2.2861 -2.6535
13555TIP3   OH240586   5.379   3.627   0.053  0.1240  0.5440 -0.5149
13555TIP3    H140587   5.473   3.643   0.043  0.0387  1.4256  0.0345
13555TIP3    H240588   5.346   3.703   0.101 -0.5389 -0.6746  1.0387
13556TIP3   OH240589   2.797   7.650   6.420 -0.4236 -0.1153 -0.2858
13556TIP3    H140590   2.876   7.639   6.368 -0.2406  2.3336 -0.6198
13556TIP3    H240591   2.793   7.571   6.474  1.7563 -0.6959 -0.8821
13557TIP3   OH240592   8.273   6.702   1.839 -0.2981 -0.5349  0.2275
13557TIP3    H140593   8.269   6.747   1.924 -0.7935  1.6746 -0.9051
13557TIP3    H240594   8.259   6.610   1.860  1.2983 -0.3051  2.7351
13558TIP3   OH240595   4.340   6.268   2.220 -0.6392  0.2190 -0.6849
13558TIP3    H140596   4.408   6.334   2.222 -0.5512  0.1147  0.5525
13558TIP3    H240597   4.363   6.208   2.291 -1.3630 -0.4822 -1.0277
13559TIP3   OH240598   0.415   0.497   1.622  0.5269 -0.4060  0.3239
13559TIP3    H140599   0.418   0.424   1.560 -0.8735 -0.6270  0.4974
13559TIP3    H240600   0.327   0.494   1.660  0.6646  0.9759  0.8287
13560TIP3   OH240601   8.149   4.178   0.182  0.0667 -0.2461 -0.1714
13560TIP3    H140602   8.206   4.180   0.258 -0.4455  1.3309  0.1997
13560TIP3    H240603   8.064   4.149   0.216  0.0272 -0.2654 -0.2852
13561TIP3   OH240604   7.602   8.094   5.755 -0.2256 -0.2693  0.0882
13561TIP3    H140605   7.552   8.042   5.693  1.9421 -0.9918 -1.1584
13561TIP3    H240606   7.660   8.031   5.799  0.3981  0.6685  0.6642
13562TIP3   OH240607   7.560   5.128   5.028 -0.3418  0.1904 -0.1425
13562TIP3    H140608   7.603   5.048   4.998 -0.3162  0.2945 -0.3792
13562TIP3    H240609   7.490   5.096   5.086  1.0433  0.0896  1.5271
13563TIP3   OH240610   2.755   0.407   5.389  0.1890  0.4700  0.4618
13563TIP3    H140611   2.678   0.350   5.395  0.3180  0.3348  0.8649
13563TIP3    H240612   2.824   0.351   5.355  0.4197  0.2735  1.2293
13564TIP3   OH240613   7.328   3.806   1.537  0.3440  0.3923 -0.5753
13564TIP3    H140614   7.276   3.789   1.458 -0.3719 -1.4957  0.2261
13564TIP3    H240615   7.332   3.721   1.581  0.6709  1.3981  1.4621
13565TIP3   OH240616   8.360   7.123   1.778 -0.3352  0.4746 -0.8215
13565TIP3    H140617   8.278   7.075   1.784  0.8743 -1.6606 -0.3656
13565TIP3    H240618   8.357   7.166   1.692 -2.3998  1.4777 -0.3105
13566TIP3   OH240619   0.580   4.295   1.605  0.4406  0.2975  0.3755
13566TIP3    H140620   0.571   4.215   1.553  1.5962  0.4233 -0.0500
13566TIP3    H240621   0.564   4.267   1.695 -1.1146 -0.0134  0.0214
13567TIP3   OH240622   3.989   6.609   2.308  0.1950  0.0761  0.3154
13567TIP3    H140623   4.045   6.538   2.339 -0.6742  0.2278  2.4451
13567TIP3    H240624   4.027   6.636   2.224  1.7165 -1.5454  0.4314
13568TIP3   OH240625   6.578   8.201   1.144  0.0077 -0.0079  0.1280
13568TIP3    H140626   6.554   8.112   1.118  0.2259  0.0071 -0.1305
13568TIP3    H240627   6.603   8.244   1.062 -0.8982  0.5484  0.1282
13569TIP3   OH240628   7.918   5.267   0.906 -0.7993 -0.0106  0.5061
13569TIP3    H140629   7.824   5.256   0.920 -0.8264 -1.5849 -0.5689
13569TIP3    H240630   7.941   5.346   0.954 -2.6160  0.2409  1.0312
13570TIP3   OH240631   4.159   1.143   4.479 -0.2508 -0.1316 -0.7687
13570TIP3    H140632   4.171   1.199   4.402 -0.3114  3.0208  1.3450
13570TIP3    H240633   4.246   1.132   4.515 -0.4371 -0.1439 -0.3194
13571TIP3   OH240634   1.633   8.080   4.195  0.1695  0.1475  0.1490
13571TIP3    H140635   1.650   8.076   4.289 -1.5100  0.7543  0.5121
13571TIP3    H240636   1.695   8.018   4.157  2.1896  1.2894  1.4313
13572TIP3   OH240637   0.893   0.939   5.756 -0.2084  0.1298  0.2437
13572TIP3    H140638   0.976   0.967   5.718 -1.2665  2.2918 -0.6564
13572TIP3    H240639   0.917   0.903   5.842  1.6384  0.8231  0.0638
13573TIP3   OH240640   1.548   6.041   0.272 -0.1017 -0.8565  0.2184
13573TIP3    H140641   1.591   5.963   0.236  1.2205  0.1353 -0.4120
13573TIP3    H240642   1.605   6.069   0.344 -2.2348 -2.2863  2.6673
13574TIP3   OH240643   6.334   1.135   2.524 -0.3904  0.3317  0.1167
13574TIP3    H140644   6.248   1.164   2.495 -0.1500 -0.1383 -1.1421
13574TIP3    H240645   6.317   1.065   2.587 -0.9342 -0.2667 -0.6755
13575TIP3   OH240646   1.110   4.459   5.491  0.1640  0.2951  0.3374
13575TIP3    H140647   1.090   4.406   5.568  0.3756  0.7524  0.7096
13575TIP3    H240648   1.079   4.547   5.513  0.4372  0.4805 -0.0068
13576TIP3   OH240649   7.314   6.775   4.175 -0.0188  0.6530  0.6891
13576TIP3    H140650   7.271   6.835   4.114  1.0853  0.6866 -0.0769
13576TIP3    H240651   7.292   6.809   4.262 -0.7846  1.1859  0.2917
13577TIP3   OH240652   2.956   4.431   6.086 -0.0626 -0.1135  0.8338
13577TIP3    H140653   3.050   4.439   6.106 -0.1414  1.7197  0.5999
13577TIP3    H240654   2.926   4.521   6.076 -2.2519 -0.5912  2.5479
13578TIP3   OH240655   7.589   3.144   4.103  0.0234 -0.2891 -0.2872
13578TIP3    H140656   7.512   3.173   4.152  1.1878  0.2445  1.3258
13578TIP3    H240657   7.662   3.154   4.165  1.6420  0.7148 -2.2367
13579TIP3   OH240658  -0.007   3.430   4.898 -0.2413 -0.1910 -0.0913
13579TIP3    H140659   0.078   3.400   4.930  0.2363  1.0776 -0.1066
13579TIP3    H240660  -0.046   3.476   4.972 -0.5166  0.0365 -0.3737
13580TIP3   OH240661   4.155   0.060   6.583  0.5790  0.3044 -0.1729
13580TIP3    H140662   4.118  -0.029   6.585 -0.4264  0.7052 -0.4616
13580TIP3    H240663   4.175   0.079   6.675  0.2419  0.0107 -0.0372
13581TIP3   OH240664   0.772   0.783   4.403  0.4353 -0.1387 -0.0661
13581TIP3    H140665   0.809   0.763   4.317 -0.1422  1.9142 -0.8319
13581TIP3    H240666   0.678   0.770   4.393  0.4371 -0.7363  0.5419
13582TIP3   OH240667   2.711   3.594   5.487 -0.1420  0.1975  0.1512
13582TIP3    H140668   2.653   3.522   5.460  0.2534  0.6509 -2.0544
13582TIP3    H240669   2.669   3.673   5.454  0.6261  0.7648  0.4946
13583TIP3   OH240670   4.582   0.745   5.724 -0.2463 -0.0805  0.4209
13583TIP3    H140671   4.618   0.802   5.656 -0.8423  0.1364  0.2880
13583TIP3    H240672   4.513   0.797   5.765 -0.8557 -0.7299  0.2354
13584TIP3   OH240673   3.048   2.815   1.648 -0.2168 -0.3545  0.1439
13584TIP3    H140674   3.062   2.754   1.576  0.3333 -1.3082  1.0341
13584TIP3    H240675   3.129   2.813   1.698  0.0133  1.5407 -0.1011
13585TIP3   OH240676   2.825   4.084   1.505  0.3767  0.1791  0.1055
13585TIP3    H140677   2.816   4.169   1.463 -1.1937  0.2119  0.4346
13585TIP3    H240678   2.861   4.027   1.437 -2.0136  0.2602 -1.3564
13586TIP3   OH240679   3.929   1.192   5.416  0.5165 -0.2245 -0.8088
13586TIP3    H140680   3.900   1.117   5.363  0.6082  0.4506 -1.8410
13586TIP3    H240681   4.008   1.160   5.461  0.1059 -0.9942 -0.6044
13587TIP3   OH240682   5.646   2.902   3.392 -0.1615 -0.6078  0.2743
13587TIP3    H140683   5.699   2.974   3.358  0.0577 -0.6571  0.5055
13587TIP3    H240684   5.570   2.944   3.431  0.5743 -0.4054  1.5290
13588TIP3   OH240685   8.296   6.453   4.187 -0.5452 -0.4707  0.4055
13588TIP3    H140686   8.378   6.499   4.202 -0.0713 -1.3599  0.6027
13588TIP3    H240687   8.287   6.449   4.092 -0.5642 -0.0427  0.3843
13589TIP3   OH240688   1.566   0.584   2.222  0.1710 -0.4876  0.2308
13589TIP3    H140689   1.496   0.560   2.282 -0.6833 -0.2087 -0.6260
13589TIP3    H240690   1.588   0.502   2.177  2.4439 -1.2265  2.5141
13590TIP3   OH240691   0.238   7.965   3.756  0.1470  0.1319  0.4380
13590TIP3    H140692   0.182   8.042   3.765 -0.6726 -0.5708  1.9288
13590TIP3    H240693   0.297   7.985   3.684 -0.9661  1.5723 -0.1173
13591TIP3   OH240694   0.636   0.077   2.373 -0.3855 -0.1806 -0.1308
13591TIP3    H140695   0.582   0.086   2.452  1.3861  0.3059  1.0991
13591TIP3    H240696   0.715   0.128   2.392 -0.1018  0.3639 -2.4470
13592TIP3   OH240697   8.096   6.003   4.416  0.6039 -0.1482  0.3202
13592TIP3    H140698   8.135   5.925   4.377  0.8701  0.8512 -1.5143
13592TIP3    H240699   8.002   5.994   4.400  0.9181  1.8557 -3.9644
13593TIP3   OH240700   2.551   1.964   0.225 -0.0595  0.5156  0.3991
13593TIP3    H140701   2.487   2.014   0.276  1.3704  1.1126  1.6948
13593TIP3    H240702   2.546   2.001   0.137 -1.1645  0.8516  0.5879
13594TIP3   OH240703   0.881   3.937   4.832 -0.2729 -0.2079 -0.0544
13594TIP3    H140704   0.792   3.920   4.801  0.2599  0.0144 -1.8178
13594TIP3    H240705   0.870   3.997   4.905 -1.5018  1.4046 -1.4839
13595TIP3   OH240706   5.749   3.146   4.388  0.0326 -0.0417 -0.1359
13595TIP3    H140707   5.834   3.184   4.412  0.2310 -1.5149  1.6979
13595TIP3    H240708   5.768   3.054   4.370 -0.9227 -0.0076 -1.5301
13596TIP3   OH240709   4.401   6.343   0.674  0.3049 -0.3774 -0.2612
13596TIP3    H140710   4.473   6.405   0.688  0.6689 -0.6606 -0.8836
13596TIP3    H240711   4.432   6.261   0.712  0.4726 -0.6071 -0.8929
13597TIP3   OH240712   4.930   7.306   5.077  0.0801  0.1863 -0.6184
13597TIP3    H140713   4.901   7.294   5.167 -0.8857  2.0366 -0.6247
13597TIP3    H240714   4.889   7.235   5.028 -0.0790 -0.3411  0.2624
13598TIP3   OH240715   4.489   2.494   6.206 -0.6977  0.2449 -0.2324
13598TIP3    H140716   4.466   2.566   6.146 -0.5184  0.2720 -0.2682
13598TIP3    H240717   4.578   2.471   6.182 -1.0118 -0.4997 -0.7393
13599TIP3   OH240718   5.982   4.441   2.756  0.1159  0.1638 -0.1272
13599TIP3    H140719   5.995   4.363   2.701  0.6317  0.5513 -0.5641
13599TIP3    H240720   5.943   4.505   2.697  0.3803  0.4807  0.0415
13600TIP3   OH240721   0.973   2.012   6.417 -0.2392 -0.2505 -0.1937
13600TIP3    H140722   0.902   2.036   6.476  0.7937  0.6086  0.7412
13600TIP3    H240723   0.952   1.922   6.389 -1.4207 -0.1891  0.4358
13601TIP3   OH240724   7.038   5.565   1.743  0.3499 -0.2152 -0.1541
13601TIP3    H140725   7.120   5.548   1.696 -0.0976 -0.0490 -1.0190
13601TIP3    H240726   6.979   5.598   1.675 -0.4859 -0.4971  0.4278
13602TIP3   OH240727   4.247   3.741   2.855 -0.1910  0.6530 -0.1418
13602TIP3    H140728   4.288   3.819   2.819 -0.0415  1.7675  2.2323
13602TIP3    H240729   4.263   3.673   2.789  1.7232  2.0469 -1.2363
13603TIP3   OH240730   4.387   2.409   4.629  0.2120 -0.2346 -0.2992
13603TIP3    H140731   4.428   2.462   4.697 -0.9363 -0.0916  0.3103
13603TIP3    H240732   4.388   2.466   4.552  0.9917 -0.1782 -0.2605
13604TIP3   OH240733   6.330   4.273   6.821  0.1823  0.2995 -0.3141
13604TIP3    H140734   6.321   4.231   6.906 -1.7818 -0.7042 -0.9578
13604TIP3    H240735   6.406   4.230   6.781 -1.3348 -2.2804 -0.6672
13605TIP3   OH240736   1.136   6.396   4.275  0.3574  0.1861  0.8124
13605TIP3    H140737   1.095   6.481   4.257 -2.6837 -1.2157  0.4458
13605TIP3    H240738   1.220   6.400   4.229  0.9457  3.4106  1.9158
13606TIP3   OH240739   3.399   0.222   5.953 -0.4272  0.0806 -0.3187
13606TIP3    H140740   3.493   0.206   5.946 -0.4341 -0.0200 -0.1956
13606TIP3    H240741   3.392   0.288   6.022 -0.5418 -1.0336  0.7842
13607TIP3   OH240742   4.244   8.138   2.195 -0.1590  0.2548 -0.2990
13607TIP3    H140743   4.180   8.180   2.253  1.1673 -0.7385  2.0200
13607TIP3    H240744   4.294   8.210   2.157 -0.8719  0.9148 -0.0202
13608TIP3   OH240745   8.357   6.307   1.699 -0.2705  0.1418  0.0230
13608TIP3    H140746   8.415   6.250   1.649  0.2545 -0.3784  1.1705
13608TIP3    H240747   8.269   6.288   1.667  0.0199 -0.4612 -0.4127
13609TIP3   OH240748   2.191   6.569   3.503  0.0592  0.2551  0.2212
13609TIP3    H140749   2.252   6.609   3.441 -1.4129  0.9374 -0.8516
13609TIP3    H240750   2.190   6.477   3.479  2.1942 -0.1974  1.6062
13610TIP3   OH240751   1.593   1.567   5.711 -0.1245  0.3837  0.0422
13610TIP3    H140752   1.642   1.486   5.707  0.2976  0.5928  0.8593
13610TIP3    H240753   1.585   1.595   5.619  0.3723 -0.1847 -0.1787
13611TIP3   OH240754   4.153   4.874   6.028  0.0866  0.3831  0.3886
13611TIP3    H140755   4.153   4.952   6.083 -1.7149 -0.2503  1.3802
13611TIP3    H240756   4.072   4.880   5.977 -0.4300 -1.1217  0.9639
13612TIP3   OH240757   0.314   6.387   1.391  0.1357  0.0112  0.0368
13612TIP3    H140758   0.352   6.303   1.418  0.4646 -0.1381 -0.8341
13612TIP3    H240759   0.247   6.363   1.327 -0.6326  0.3487  0.6992
13613TIP3   OH240760   1.234   0.264   2.300 -0.3394 -0.2668  0.2885
13613TIP3    H140761   1.317   0.245   2.255 -0.2221 -0.8043  0.7290
13613TIP3    H240762   1.239   0.216   2.382 -2.5606 -3.3440 -1.1591
13614TIP3   OH240763   6.586   4.132   0.989  0.1340  0.7654 -0.1494
13614TIP3    H140764   6.570   4.161   1.078 -0.2456  0.1153 -0.0036
13614TIP3    H240765   6.661   4.073   0.995 -1.7025 -1.6714  0.2260
13615TIP3   OH240766   8.054   3.925   0.616  0.3884 -0.5458 -0.1523
13615TIP3    H140767   7.976   3.958   0.661  0.3897 -2.2500  1.2121
13615TIP3    H240768   8.032   3.930   0.523 -0.9355 -0.0475  0.1621
13616TIP3   OH240769   5.370   3.689   5.334  0.4860  0.3750  0.0324
13616TIP3    H140770   5.365   3.685   5.430  0.7202 -0.0334  0.0326
13616TIP3    H240771   5.281   3.709   5.306 -0.0035 -1.3009  0.2651
13617TIP3   OH240772   1.224   0.678   6.875  0.3782 -0.3994 -0.0271
13617TIP3    H140773   1.300   0.734   6.890  0.0358  0.7909 -2.2277
13617TIP3    H240774   1.192   0.655   6.962  0.4667  2.9663  1.0316
13618TIP3   OH240775   4.780   7.455   6.666  0.0255 -0.1723  0.1639
13618TIP3    H140776   4.747   7.423   6.750 -0.2869  1.8631  0.8754
13618TIP3    H240777   4.739   7.398   6.601 -2.8788  0.5619  1.1912
13619TIP3   OH240778   8.499   1.006   3.169 -0.2099  0.5679 -0.5343
13619TIP3    H140779   8.545   0.936   3.214  0.7363  1.3663 -0.2248
13619TIP3    H240780   8.555   1.083   3.181 -1.6472  1.5898 -0.0892
13620TIP3   OH240781   7.907   5.777   3.499  0.7187  0.1614 -0.2646
13620TIP3    H140782   7.924   5.683   3.505 -0.1255  0.0191  0.1283
13620TIP3    H240783   7.971   5.810   3.437  0.0066 -0.9508 -1.6451
13621TIP3   OH240784   6.423   2.079   5.283  0.2576  0.1361  0.2118
13621TIP3    H140785   6.449   1.990   5.260 -0.3020  0.3800 -1.5231
13621TIP3    H240786   6.495   2.134   5.252 -0.3751  0.4471 -0.7783
13622TIP3   OH240787   4.434   4.827   2.604  0.0369 -0.1385 -0.1430
13622TIP3    H140788   4.390   4.785   2.679  1.4839  0.7344  1.2529
13622TIP3    H240789   4.445   4.756   2.541 -1.0578 -0.9484  0.5254
13623TIP3   OH240790   1.726   6.627   3.889 -0.2684 -0.3414  0.4306
13623TIP3    H140791   1.650   6.664   3.935 -1.1399 -0.7387 -0.6372
13623TIP3    H240792   1.710   6.648   3.797  1.3021  0.2032  0.2552
13624TIP3   OH240793   6.171   3.554   4.134 -0.2395 -0.0597 -0.4333
13624TIP3    H140794   6.151   3.466   4.104  1.0250  0.2653 -2.4532
13624TIP3    H240795   6.120   3.611   4.075 -2.4691  0.6075  1.9756
13625TIP3   OH240796   8.672   2.759   6.109 -0.0180  0.7840  0.0069
13625TIP3    H140797   8.596   2.705   6.088 -0.8235  0.8658  2.4868
13625TIP3    H240798   8.709   2.781   6.023 -1.9401 -0.4324 -1.2196
13626TIP3   OH240799   6.073   2.654   1.578  0.3222  0.1633  0.1790
13626TIP3    H140800   5.986   2.616   1.584  0.3320  0.0805 -0.2003
13626TIP3    H240801   6.132   2.579   1.568  0.6325  0.0816  2.2361
13627TIP3   OH240802   0.220   5.558   0.652 -0.2946 -0.6435  0.1894
13627TIP3    H140803   0.228   5.650   0.627 -0.9068 -0.9539 -1.2729
13627TIP3    H240804   0.268   5.551   0.734 -0.3250  0.9999  0.3838
13628TIP3   OH240805   5.756   3.840   4.518  0.1275 -0.3078  0.3495
13628TIP3    H140806   5.687   3.793   4.471  0.4859  1.0021 -1.6202
13628TIP3    H240807   5.837   3.812   4.475  0.5998 -0.0016  1.0242
13629TIP3   OH240808   2.087   4.331   0.480 -0.0036 -0.4498 -0.0100
13629TIP3    H140809   2.182   4.327   0.481  0.1070  0.8421 -1.4261
13629TIP3    H240810   2.063   4.348   0.571  1.3599  2.3740 -0.0703
13630TIP3   OH240811   6.240   0.730   2.126 -0.4446  0.6601  0.0043
13630TIP3    H140812   6.204   0.813   2.158  0.9214  1.4968 -0.5342
13630TIP3    H240813   6.296   0.699   2.197  2.1837  2.2601 -1.2377
13631TIP3   OH240814   1.555   7.800   4.943  0.7554 -0.3357  0.2796
13631TIP3    H140815   1.577   7.884   4.903 -0.3108 -0.4017 -0.4954
13631TIP3    H240816   1.461   7.808   4.963  0.4907 -1.5707 -0.4092
13632TIP3   OH240817   3.576   4.900   6.682  0.0035 -0.2309  0.2005
13632TIP3    H140818   3.645   4.965   6.674 -0.1346 -0.1421 -0.3668
13632TIP3    H240819   3.557   4.875   6.591 -0.2193 -0.7653  0.3941
13633TIP3   OH240820   0.859   7.102   4.088 -0.4521 -0.3636  0.0617
13633TIP3    H140821   0.937   7.157   4.088  1.1397 -2.4952  0.5040
13633TIP3    H240822   0.842   7.083   4.180 -2.1252  0.8285  0.0518
13634TIP3   OH240823   3.137   6.994   5.371  0.2030 -0.2768 -0.7925
13634TIP3    H140824   3.083   6.916   5.366 -0.0160 -0.3913  2.0130
13634TIP3    H240825   3.209   6.977   5.311 -1.1876 -1.4779 -2.2070
13635TIP3   OH240826   3.671   0.755   2.072 -0.4941 -0.8924 -0.3247
13635TIP3    H140827   3.640   0.835   2.114  0.2281 -0.3119 -0.8683
13635TIP3    H240828   3.664   0.774   1.978 -0.4654 -1.5282 -0.4567
13636TIP3   OH240829   6.406   0.656   5.444 -0.2476 -0.2379  0.4519
13636TIP3    H140830   6.452   0.725   5.492 -1.7678  0.5665  0.7957
13636TIP3    H240831   6.414   0.681   5.352  1.4385 -1.0323  0.3306
13637TIP3   OH240832   1.115   1.835   1.747  0.1714 -0.0621 -0.1388
13637TIP3    H140833   1.175   1.864   1.678  2.0541 -3.1333  0.0475
13637TIP3    H240834   1.035   1.811   1.700  0.9877 -0.9482 -1.1411
13638TIP3   OH240835   3.500   1.869   2.363 -0.0608  0.1698 -0.6026
13638TIP3    H140836   3.537   1.871   2.275 -0.1640 -3.9157 -0.9477
13638TIP3    H240837   3.568   1.829   2.417 -0.6163  1.0688  0.8112
13639TIP3   OH240838   7.333   5.734   5.956  0.3819 -0.0337  0.1093
13639TIP3    H140839   7.289   5.651   5.975  0.4460  0.0873  0.8146
13639TIP3    H240840   7.424   5.720   5.980  0.3768  0.2644  0.3163
13640TIP3   OH240841   1.328   2.459   2.598 -0.4953  0.8239  0.5292
13640TIP3    H140842   1.418   2.449   2.629  0.3502 -0.7950 -2.1384
13640TIP3    H240843   1.304   2.549   2.623  2.8516  2.3228 -0.9979
13641TIP3   OH240844   2.507   2.030   6.838 -0.5889 -0.7062 -0.1119
13641TIP3    H140845   2.531   2.088   6.765 -1.6364 -0.1837 -0.0669
13641TIP3    H240846   2.557   2.064   6.912 -0.4646 -0.4613 -0.3051
13642TIP3   OH240847   2.598   0.900   6.436  0.3312  0.0218  0.1988
13642TIP3    H140848   2.567   0.922   6.349  1.1091  1.9794  0.3690
13642TIP3    H240849   2.521   0.864   6.481 -0.3822  0.1451 -0.8930
13643TIP3   OH240850   3.238   1.576   3.273 -0.3481 -0.5185 -0.2143
13643TIP3    H140851   3.231   1.490   3.313 -0.9017 -0.0735  0.6752
13643TIP3    H240852   3.285   1.629   3.337  1.9873 -0.6954 -1.6668
13644TIP3   OH240853   7.111   7.687   0.734 -0.2309 -0.3660 -0.4772
13644TIP3    H140854   7.121   7.688   0.829  1.2861  0.2641 -0.6203
13644TIP3    H240855   7.171   7.618   0.704 -0.0355  0.0419 -1.0398
13645TIP3   OH240856   3.975   2.148   5.592 -0.0798 -0.4081  0.3755
13645TIP3    H140857   3.995   2.214   5.658 -2.2280 -0.5136  1.1988
13645TIP3    H240858   3.962   2.067   5.641 -0.9265 -0.6636 -0.2348
13646TIP3   OH240859   6.690   7.037   3.985  0.4431 -0.4400 -0.6622
13646TIP3    H140860   6.780   7.030   3.954  0.6780  2.3516 -0.8564
13646TIP3    H240861   6.664   7.126   3.963 -2.5253 -1.2594 -0.9366
13647TIP3   OH240862   0.348   6.441   4.405 -0.0507 -0.1263 -0.0991
13647TIP3    H140863   0.327   6.375   4.471  1.3214 -1.1668 -0.6609
13647TIP3    H240864   0.276   6.504   4.410 -0.8256 -1.0793  1.2093
13648TIP3   OH240865   7.157   7.312   3.437 -0.6570 -0.5728 -0.1360
13648TIP3    H140866   7.229   7.249   3.430 -0.7460 -0.7093  0.1534
13648TIP3    H240867   7.199   7.397   3.428 -0.6169 -0.6870 -1.1707
13649TIP3   OH240868   6.813   5.225   4.692  0.0701 -0.4720 -0.5396
13649TIP3    H140869   6.816   5.130   4.690  1.9385 -0.4598 -0.4115
13649TIP3    H240870   6.886   5.253   4.636 -1.5828  0.9297 -2.1113
13650TIP3   OH240871   4.496   0.237   6.223 -0.0099 -0.3201 -1.2074
13650TIP3    H140872   4.538   0.261   6.141  0.4458  1.4070 -0.5104
13650TIP3    H240873   4.409   0.278   6.219  0.7338  1.5243 -0.0534
13651TIP3   OH240874   6.784   0.376   6.153  0.4498 -0.3676  0.5498
13651TIP3    H140875   6.744   0.462   6.165  2.1853  0.7364 -1.0302
13651TIP3    H240876   6.714   0.322   6.117 -0.5448  0.4896  1.1332
13652TIP3   OH240877   1.927   0.374   5.749 -0.2908 -0.0301  0.3741
13652TIP3    H140878   1.924   0.284   5.782 -2.1125  0.5079  1.8430
13652TIP3    H240879   1.934   0.364   5.654 -0.2341 -1.7115  0.5227
13653TIP3   OH240880   6.670   3.502   3.175 -0.1939  0.2744  0.4466
13653TIP3    H140881   6.619   3.506   3.256  0.0945  1.3661  0.5804
13653TIP3    H240882   6.720   3.420   3.183  0.5793  0.8453  1.8418
13654TIP3   OH240883   4.469   6.534   1.035 -0.0701  0.2168  0.6217
13654TIP3    H140884   4.486   6.537   1.129  0.3120 -0.0339  0.5656
13654TIP3    H240885   4.432   6.447   1.020  1.8026 -0.5763  0.2535
13655TIP3   OH240886   5.188   6.116   4.144 -0.2644  0.1639 -0.7676
13655TIP3    H140887   5.202   6.155   4.231 -1.4979  0.7853 -0.8257
13655TIP3    H240888   5.224   6.180   4.083 -0.2092  0.1446 -0.7553
13656TIP3   OH240889   3.226   8.125   3.072 -0.4423 -0.0075  0.0585
13656TIP3    H140890   3.182   8.121   2.987 -0.2890 -0.0209 -0.0212
13656TIP3    H240891   3.309   8.170   3.053  0.0440 -0.9141  0.0087
13657TIP3   OH240892   7.295   2.252   1.578 -0.1298 -0.3234 -0.4154
13657TIP3    H140893   7.258   2.210   1.655  0.3963  1.5867  0.9655
13657TIP3    H240894   7.384   2.275   1.604 -0.3384  1.4596 -1.1299
13658TIP3   OH240895   5.836   7.685   6.487 -0.0782  0.0131 -0.1424
13658TIP3    H140896   5.740   7.680   6.482 -0.1363  1.5475 -1.5906
13658TIP3    H240897   5.863   7.597   6.512 -1.8003 -0.8902 -1.2056
13659TIP3   OH240898   2.691   3.485   1.002 -0.0568 -0.4101 -0.9044
13659TIP3    H140899   2.642   3.532   1.069  0.0236 -0.2286 -0.9712
13659TIP3    H240900   2.720   3.405   1.045  1.5237  0.5124 -0.1511
13660TIP3   OH240901   2.650   1.752   1.032  0.0562 -0.2222 -0.0885
13660TIP3    H140902   2.597   1.814   1.083 -0.7152  0.2847 -1.4664
13660TIP3    H240903   2.736   1.794   1.027 -0.0838  0.1011  0.1462
13661TIP3   OH240904   0.197   1.986   2.544  0.1702 -0.2431 -0.2800
13661TIP3    H140905   0.273   1.943   2.584  0.9708  0.7365 -0.6839
13661TIP3    H240906   0.170   2.052   2.608 -0.7098 -0.9656  0.1058
13662TIP3   OH240907   5.997   6.133   3.448  0.2240  0.3521  0.4202
13662TIP3    H140908   5.906   6.126   3.477  0.5893  1.7886  2.0897
13662TIP3    H240909   6.043   6.170   3.523  1.9673  0.7976 -0.8134
13663TIP3   OH240910   6.178   3.873   3.007  0.3845 -0.5116 -0.2366
13663TIP3    H140911   6.139   3.786   3.007 -0.8632 -0.0763  2.8611
13663TIP3    H240912   6.264   3.861   3.048  0.5182 -0.3835 -0.4753
13664TIP3   OH240913   6.321   1.711   0.122  0.3337 -0.2087  0.4394
13664TIP3    H140914   6.363   1.635   0.082 -0.0190  0.2680 -0.8747
13664TIP3    H240915   6.378   1.785   0.101  0.0632  0.0802  0.7016
13665TIP3   OH240916   2.641   4.301   5.007  0.1707 -0.4953 -0.0021
13665TIP3    H140917   2.661   4.214   4.974  0.1015 -0.0479 -1.2696
13665TIP3    H240918   2.606   4.286   5.095  1.1379 -1.6561  0.2036
13666TIP3   OH240919   1.346   1.151   6.470 -0.2189  0.2534  0.2463
13666TIP3    H140920   1.325   1.208   6.544 -4.1491 -0.2435 -0.2821
13666TIP3    H240921   1.336   1.062   6.504  2.7576 -0.2133  0.2275
13667TIP3   OH240922   0.923   1.101   0.447  0.6520  0.0556 -0.0004
13667TIP3    H140923   0.935   1.116   0.354  1.6134  0.5635  0.1868
13667TIP3    H240924   0.903   1.008   0.455  1.1813 -0.1199 -0.6582
13668TIP3   OH240925   7.956   4.173   1.195 -0.2835 -0.4440  0.1670
13668TIP3    H140926   8.030   4.217   1.237  0.3001 -2.0859  0.9103
13668TIP3    H240927   7.919   4.240   1.137  1.2885  0.6484  0.3649
13669TIP3   OH240928   3.847   5.784   2.380  0.3669  0.0784 -0.4981
13669TIP3    H140929   3.759   5.806   2.410 -0.6923 -1.7718 -2.0193
13669TIP3    H240930   3.873   5.858   2.325 -0.8532  0.0346 -1.1737
13670TIP3   OH240931   1.235   3.977   0.963 -0.2227  0.3947  0.3487
13670TIP3    H140932   1.294   3.921   1.012 -0.5188 -0.3499 -0.1264
13670TIP3    H240933   1.165   3.999   1.025  0.3250  0.9331  0.7823
13671TIP3   OH240934   5.005   4.032   1.563 -0.4682  0.0271  0.4104
13671TIP3    H140935   5.005   3.963   1.629  1.1106 -1.3940 -1.0145
13671TIP3    H240936   4.995   3.987   1.479 -2.5672  1.7929 -0.3930
13672TIP3   OH240937   0.317   1.941   1.058 -0.2384 -0.0238 -0.6747
13672TIP3    H140938   0.252   1.987   1.111 -0.2890  0.8021 -1.4237
13672TIP3    H240939   0.388   1.920   1.119  0.8214  3.0389 -0.6765
13673TIP3   OH240940   0.519   1.447   6.670 -0.5706 -0.1467 -0.1835
13673TIP3    H140941   0.518   1.533   6.712 -2.0845 -0.2224 -0.0072
13673TIP3    H240942   0.536   1.386   6.742 -2.9188 -0.2547  0.3392
13674TIP3   OH240943   1.866   6.634   4.178  0.2787  0.0931 -0.2219
13674TIP3    H140944   1.820   6.630   4.094 -0.3657  3.1534 -0.1080
13674TIP3    H240945   1.933   6.701   4.166  1.1995 -0.5091  1.2666
13675TIP3   OH240946   0.749   5.383   1.629  0.7417  0.6360 -0.1936
13675TIP3    H140947   0.747   5.301   1.678 -0.3209  0.2184 -0.8795
13675TIP3    H240948   0.821   5.433   1.667 -0.6285  0.7639  2.4717
13676TIP3   OH240949   6.472   1.949   4.846  0.0986 -0.0075 -0.0155
13676TIP3    H140950   6.546   1.928   4.789 -0.2469  0.4181 -0.6403
13676TIP3    H240951   6.420   1.868   4.848 -0.9817  0.5487 -2.0315
13677TIP3   OH240952   1.030   4.745   6.045 -0.6678 -0.8143  0.0670
13677TIP3    H140953   1.097   4.803   6.082 -0.4825 -0.7180 -0.4101
13677TIP3    H240954   1.050   4.659   6.080 -1.6682 -0.4030  1.7617
13678TIP3   OH240955   7.397   6.208   4.852 -0.4576 -0.2094  0.0864
13678TIP3    H140956   7.320   6.176   4.805  0.5906 -0.8649 -1.2473
13678TIP3    H240957   7.470   6.162   4.812  0.8742  2.0846 -0.2643
13679TIP3   OH240958   2.323   3.694   5.534 -0.1784  0.2971 -0.5832
13679TIP3    H140959   2.300   3.603   5.519 -0.0425  0.2809 -0.6961
13679TIP3    H240960   2.400   3.709   5.480  0.9669 -0.0544  0.9031
13680TIP3   OH240961   7.375   2.639   2.430  0.5500 -0.1521  0.0891
13680TIP3    H140962   7.415   2.590   2.502  1.8129  1.3521  0.4729
13680TIP3    H240963   7.311   2.696   2.472 -0.8898 -1.3618 -0.3534
13681TIP3   OH240964   1.274   5.923   0.477 -1.2125 -0.0253 -0.2822
13681TIP3    H140965   1.310   5.971   0.402  0.3227  1.2438  1.1678
13681TIP3    H240966   1.257   5.991   0.543 -2.6942 -1.0706  0.4818
13682TIP3   OH240967   6.075   7.936   0.654 -0.1888 -0.1934  1.2904
13682TIP3    H140968   6.040   7.893   0.732 -0.7240 -0.0226  1.1513
13682TIP3    H240969   6.083   7.865   0.590  2.2514 -0.7517  2.1257
13683TIP3   OH240970   2.209   3.541   1.317 -1.1727 -0.0312 -0.3064
13683TIP3    H140971   2.255   3.535   1.401 -2.9585  0.5941  0.7523
13683TIP3    H240972   2.257   3.481   1.260  1.3791  1.0815  0.5079
13684TIP3   OH240973   4.090   7.365   1.374 -0.0457  0.3374 -0.0091
13684TIP3    H140974   4.068   7.299   1.308 -0.6732  0.1075  0.4208
13684TIP3    H240975   4.133   7.435   1.324  0.2253 -0.1923 -0.5358
13685TIP3   OH240976   0.367   4.163   1.316  0.5171 -0.3572  0.4394
13685TIP3    H140977   0.313   4.133   1.390  1.6037 -1.8396  0.6638
13685TIP3    H240978   0.377   4.086   1.261  0.4308  0.5219 -0.8491
13686TIP3   OH240979   3.257   8.173   4.373 -0.2210 -0.1008 -0.0110
13686TIP3    H140980   3.329   8.165   4.310  0.2712  0.0541  0.5336
13686TIP3    H240981   3.281   8.114   4.444 -0.9789 -0.5905 -0.1490
13687TIP3   OH240982   4.920   6.819   1.045  0.0258  0.1122  0.2089
13687TIP3    H140983   4.899   6.911   1.028  0.3780  0.1154 -0.2140
13687TIP3    H240984   4.839   6.773   1.023 -0.4766  0.4124  1.3657
13688TIP3   OH240985   3.372   6.567   6.730 -0.0294  0.5125  0.6348
13688TIP3    H140986   3.434   6.633   6.696  0.3779  0.1250  0.6103
13688TIP3    H240987   3.419   6.525   6.802 -0.0151 -0.2066  0.2241
13689TIP3   OH240988   1.874   3.121   1.890 -0.0659  0.1845  0.2830
13689TIP3    H140989   1.915   3.207   1.890  0.9861 -0.3062  0.3331
13689TIP3    H240990   1.923   3.071   1.825 -0.7793 -0.3370  0.1349
13690TIP3   OH240991   4.875   1.250   0.059  0.0077 -0.3516  0.2580
13690TIP3    H140992   4.831   1.330   0.090 -0.0082 -0.4224  0.4178
13690TIP3    H240993   4.872   1.190   0.134 -2.0296 -1.3547 -0.5658
13691TIP3   OH240994   7.973   4.757   5.880  0.0018 -0.2294 -0.3000
13691TIP3    H140995   7.952   4.665   5.866 -1.3502 -0.1573  1.0387
13691TIP3    H240996   7.891   4.804   5.863 -0.2563  0.3631  2.1401
13692TIP3   OH240997   1.317   4.118   5.396  0.1943 -0.2932  0.0075
13692TIP3    H140998   1.332   4.168   5.475 -2.0305  0.1878  0.1797
13692TIP3    H240999   1.320   4.026   5.425  0.4746 -0.1583  0.4160
13693TIP3   OH241000   5.996   7.511   4.659  0.3935 -0.4285 -0.1563
13693TIP3    H141001   6.017   7.583   4.718  0.3525  1.1397 -1.9530
13693TIP3    H241002   6.062   7.444   4.678  0.5123  0.0913  1.4722
13694TIP3   OH241003   1.261   0.885   1.750  0.0885 -0.1565  0.1471
13694TIP3    H141004   1.338   0.853   1.704  1.2814  0.1810  1.7982
13694TIP3    H241005   1.295   0.954   1.808 -1.6447  0.7962  0.0863
13695TIP3   OH241006   7.757   0.724   3.202  0.1950  0.0150  0.2169
13695TIP3    H141007   7.833   0.686   3.158 -0.1667  1.2689 -1.6089
13695TIP3    H241008   7.734   0.800   3.148 -1.9445  0.0527  1.0951
13696TIP3   OH241009   2.399   0.659   4.595 -0.4710  0.2761  0.2290
13696TIP3    H141010   2.326   0.603   4.566 -0.4077  0.2683  0.0860
13696TIP3    H241011   2.477   0.607   4.577 -0.3606  0.7436 -0.6701
13697TIP3   OH241012   5.173   0.818   1.328 -0.0895 -0.6320 -0.1513
13697TIP3    H141013   5.166   0.819   1.233  1.2862  0.2896 -0.2857
13697TIP3    H241014   5.194   0.728   1.350 -0.4196 -0.8528 -0.7267
13698TIP3   OH241015   3.763   0.750   3.679 -0.5473  0.2648  0.3758
13698TIP3    H141016   3.838   0.792   3.721  0.4795 -1.7003  0.6234
13698TIP3    H241017   3.736   0.682   3.741 -2.0810  0.4454 -0.0482
13699TIP3   OH241018   6.076   7.923   4.732 -0.4846  0.1402 -0.4667
13699TIP3    H141019   6.023   7.889   4.659 -0.1844 -1.8553  0.1709
13699TIP3    H241020   6.026   7.997   4.765 -2.1250 -0.7138 -0.8865
13700TIP3   OH241021   0.796   5.889   4.923 -0.1137 -0.7651 -0.1165
13700TIP3    H141022   0.869   5.833   4.949 -0.5686 -0.4228  2.0586
13700TIP3    H241023   0.719   5.848   4.963 -0.7003  0.4252  0.0284
13701TIP3   OH241024   1.977   3.979   1.192  0.1494  0.0767  0.1130
13701TIP3    H141025   2.014   3.891   1.200  1.7432  0.8516  3.0345
13701TIP3    H241026   1.983   3.999   1.099  3.5412 -1.4489 -0.1720
13702TIP3   OH241027   4.870   4.277   4.831 -0.0183  0.0740 -0.1574
13702TIP3    H141028   4.929   4.278   4.906  0.0945 -0.9255 -0.2207
13702TIP3    H241029   4.922   4.241   4.759  0.1541  1.8671 -0.9721
13703TIP3   OH241030   5.728   2.479   1.272  0.1522  0.0184  0.5617
13703TIP3    H141031   5.644   2.525   1.273  0.4949  0.6601  1.3200
13703TIP3    H241032   5.713   2.401   1.219 -1.1422 -0.2883  1.3570
13704TIP3   OH241033   2.926   1.746   3.697  0.0982 -0.4781 -0.1628
13704TIP3    H141034   2.838   1.784   3.689  0.2638  0.6426  2.3470
13704TIP3    H241035   2.983   1.822   3.713  1.0075 -1.4502  1.4201
13705TIP3   OH241036   7.470   3.350   5.675 -0.2615 -0.0763 -0.2642
13705TIP3    H141037   7.513   3.266   5.691 -1.7068 -0.6637  0.6721
13705TIP3    H241038   7.417   3.366   5.753 -0.7970  1.2117 -0.8598
13706TIP3   OH241039   1.988   0.673   4.984 -0.4505  0.5300 -0.1382
13706TIP3    H141040   1.951   0.747   4.935  0.7587  0.8238 -0.6558
13706TIP3    H241041   2.027   0.617   4.917  1.2516  0.9424  0.4354
13707TIP3   OH241042   5.762   5.265   4.586 -0.1465  0.2921 -0.3974
13707TIP3    H141043   5.696   5.271   4.517  0.7899  0.6009 -1.2925
13707TIP3    H241044   5.824   5.335   4.566  1.0759 -0.7173 -0.2657
13708TIP3   OH241045   1.242   2.152   4.477 -0.0973  0.7355  0.1109
13708TIP3    H141046   1.273   2.195   4.396 -0.2487 -0.3103 -0.5206
13708TIP3    H241047   1.215   2.065   4.449 -0.4823  0.4738  1.2472
13709TIP3   OH241048   7.914   3.186   4.580  0.3506  0.0398  0.1962
13709TIP3    H141049   7.968   3.142   4.646 -0.0189  0.7987  1.0203
13709TIP3    H241050   7.834   3.211   4.627 -0.1001  0.2256 -0.6479
13710TIP3   OH241051   4.838   8.138   2.209 -0.2449  0.0809 -0.1828
13710TIP3    H141052   4.826   8.076   2.281 -0.2027  0.3369  0.0436
13710TIP3    H241053   4.879   8.214   2.249 -1.1244  0.6182 -0.2982
13711TIP3   OH241054   3.997   3.308   1.633 -0.0127  0.0122 -1.1150
13711TIP3    H141055   3.993   3.234   1.695 -0.4862  0.2863 -0.8216
13711TIP3    H241056   4.045   3.376   1.680 -2.0399  0.9419 -0.2890
13712TIP3   OH241057   7.476   6.836   3.506  0.0416 -0.0029 -0.4517
13712TIP3    H141058   7.548   6.878   3.458  0.5067  0.2003  0.4051
13712TIP3    H241059   7.479   6.876   3.593 -0.4588 -0.7377 -0.0924
13713TIP3   OH241060   3.125   4.381   5.590  0.1938  0.3629  0.5928
13713TIP3    H141061   3.094   4.429   5.667 -0.2373 -0.0790  0.6987
13713TIP3    H241062   3.167   4.447   5.537 -1.6524  1.1829  0.0504
13714TIP3   OH241063   4.200   4.837   1.373  0.0558 -0.0137  0.3668
13714TIP3    H141064   4.253   4.873   1.444 -1.2934 -0.6163  1.7472
13714TIP3    H241065   4.121   4.892   1.371  0.1753  0.1370 -0.8381
13715TIP3   OH241066   6.770   4.339   5.915 -0.3024  0.3420  0.3002
13715TIP3    H141067   6.699   4.354   5.977 -0.3163  0.6901  0.2015
13715TIP3    H241068   6.760   4.408   5.849 -0.5105 -0.2488 -0.2919
13716TIP3   OH241069   6.941   3.404   1.835 -0.2414  0.4513 -0.0180
13716TIP3    H141070   6.908   3.394   1.924  1.7522 -1.1325  0.6223
13716TIP3    H241071   6.886   3.347   1.782  1.0838 -1.8679  0.9653
13717TIP3   OH241072   7.070   6.869   5.144  0.2036 -0.6624  0.2315
13717TIP3    H141073   7.077   6.828   5.057  1.3755 -0.6695  0.3259
13717TIP3    H241074   6.977   6.860   5.166 -0.3858  0.4331 -1.5514
13718TIP3   OH241075   4.335   6.971   1.591  0.0714  0.0689  0.2321
13718TIP3    H141076   4.425   7.006   1.595  0.5443 -0.6692 -2.0826
13718TIP3    H241077   4.347   6.876   1.593 -0.7415 -0.0265  0.6965
13719TIP3   OH241078   2.553   3.881   2.198  0.2365  0.3448  0.0240
13719TIP3    H141079   2.544   3.875   2.102 -1.9601  0.3225  0.1740
13719TIP3    H241080   2.489   3.818   2.231  0.2916  1.0523  1.5218
13720TIP3   OH241081   0.870   6.861   5.191 -0.1005  0.7470  0.2203
13720TIP3    H141082   0.777   6.875   5.171  0.2458  1.9764 -0.6237
13720TIP3    H241083   0.879   6.766   5.196 -0.9405  0.4791 -2.0625
13721TIP3   OH241084   4.162   1.287   0.828  0.2132  0.7012 -0.0464
13721TIP3    H141085   4.122   1.296   0.914  0.3368 -0.0216  0.0891
13721TIP3    H241086   4.230   1.354   0.825 -0.7915  1.7450 -0.1604
13722TIP3   OH241087   4.576   1.869   3.385  0.2415 -0.2385  0.1698
13722TIP3    H141088   4.487   1.863   3.421 -0.1272 -2.2219 -0.9208
13722TIP3    H241089   4.595   1.963   3.385 -1.7352  0.2202  0.7125
13723TIP3   OH241090   5.115   7.688   0.624  0.8823 -0.6719 -0.2654
13723TIP3    H141091   5.128   7.668   0.717  2.0307 -1.5491 -0.5821
13723TIP3    H241092   5.038   7.637   0.598 -0.2864  0.6396  0.4948
13724TIP3   OH241093   2.079   5.569   2.150 -0.1316 -0.1902 -0.3418
13724TIP3    H141094   2.146   5.584   2.083  1.9498 -0.2527  1.6193
13724TIP3    H241095   2.120   5.595   2.232 -1.8147 -2.0693  1.2191
13725TIP3   OH241096   8.490   2.151   6.335  0.5499 -0.5346  0.3454
13725TIP3    H141097   8.406   2.144   6.381  1.3326  0.9396  2.1622
13725TIP3    H241098   8.471   2.125   6.245 -2.4077  1.8268  0.1138
13726TIP3   OH241099   1.708   5.488   6.750  0.0995  0.9573  0.1740
13726TIP3    H141100   1.620   5.457   6.727  0.1386  0.2822  0.8835
13726TIP3    H241101   1.734   5.544   6.677 -0.8830  1.0838 -0.0878
13727TIP3   OH241102   4.796   1.381   4.910 -0.1403 -0.3443 -0.0060
13727TIP3    H141103   4.758   1.398   4.996  1.1755 -2.0553  0.9711
13727TIP3    H241104   4.856   1.455   4.896 -2.4532  1.5118 -0.8531
13728TIP3   OH241105   1.596   6.208   6.718  0.1180  0.7066 -0.2216
13728TIP3    H141106   1.594   6.293   6.675 -0.2142  0.2880 -1.0609
13728TIP3    H241107   1.546   6.220   6.799 -0.3879  1.1657 -0.6001
13729TIP3   OH241108   2.400   6.266   4.330  0.0886  0.2171 -0.0973
13729TIP3    H141109   2.323   6.299   4.284 -0.0127  0.2878  0.1218
13729TIP3    H241110   2.405   6.174   4.304 -0.1509  0.1766 -0.0047
13730TIP3   OH241111   3.856   4.961   5.633  0.1840 -0.5780 -0.0958
13730TIP3    H141112   3.906   5.042   5.620 -1.7477  1.0019  1.6348
13730TIP3    H241113   3.782   4.968   5.574 -0.5476 -0.5455  0.7956
13731TIP3   OH241114   6.750   5.663   3.844 -0.3599  0.4951  0.3124
13731TIP3    H141115   6.802   5.605   3.789 -0.6310 -0.0360  0.5986
13731TIP3    H241116   6.712   5.727   3.784  0.3229  0.6623  0.0567
13732TIP3   OH241117   1.791   6.566   6.435  0.1520  0.3126  0.2806
13732TIP3    H141118   1.883   6.553   6.409 -0.1805  0.9908 -1.4108
13732TIP3    H241119   1.741   6.549   6.355 -1.1289  0.7474  0.9606
13733TIP3   OH241120   0.185   2.296   2.232  0.1743 -0.6658 -0.0221
13733TIP3    H141121   0.259   2.321   2.177  0.1596  0.2214  0.3470
13733TIP3    H241122   0.146   2.220   2.187  1.2922 -1.1378 -0.2213
13734TIP3   OH241123   2.029   7.235   4.100 -0.0118 -0.0580  0.3053
13734TIP3    H141124   2.041   7.309   4.041 -1.6372 -0.5088 -0.6482
13734TIP3    H241125   2.020   7.159   4.043 -1.6434 -0.5070  1.0908
13735TIP3   OH241126   0.343   5.002   2.572 -0.3201  0.5183  0.4817
13735TIP3    H141127   0.373   5.052   2.496  0.6775  0.3077  0.7187
13735TIP3    H241128   0.352   4.910   2.546 -0.4848  0.4518  0.6575
13736TIP3   OH241129   0.663   1.701   5.802  0.7353 -0.1107  0.0996
13736TIP3    H141130   0.672   1.720   5.708  3.1588  0.0343  0.2797
13736TIP3    H241131   0.744   1.655   5.824 -0.2384 -1.0394  1.9443
13737TIP3   OH241132   6.734   2.188   2.420 -0.1394  0.2397  0.2377
13737TIP3    H141133   6.756   2.095   2.425 -0.2209  0.2272  0.3885
13737TIP3    H241134   6.810   2.229   2.379  0.0062  0.1450  0.4121
13738TIP3   OH241135   6.685   5.408   3.286 -0.3683 -0.0258 -0.2471
13738TIP3    H141136   6.764   5.373   3.245 -0.5837 -0.0355 -0.6552
13738TIP3    H241137   6.704   5.501   3.299 -0.7822  0.2461 -1.5349
13739TIP3   OH241138   0.768   1.417   5.855  1.0650  0.1402  0.3342
13739TIP3    H141139   0.738   1.343   5.803  2.0411 -0.3983  0.4984
13739TIP3    H241140   0.862   1.401   5.866  1.1244  0.9507  1.1059
13740TIP3   OH241141   3.305   4.324   1.378 -0.2051  0.2863 -0.2546
13740TIP3    H141142   3.364   4.304   1.305 -2.2593 -1.0947 -1.6531
13740TIP3    H241143   3.349   4.288   1.455 -0.0149 -2.5323 -1.5402
13741TIP3   OH241144   6.672   4.748   4.778 -0.1780 -0.6599  0.2637
13741TIP3    H141145   6.601   4.714   4.724  0.3156  0.0965 -0.8860
13741TIP3    H241146   6.711   4.669   4.818 -1.0622 -1.1524  0.1931
13742TIP3   OH241147   8.587   0.639   4.806  0.2157  0.1202  0.2245
13742TIP3    H141148   8.592   0.544   4.819  0.3446  0.2152  0.8900
13742TIP3    H241149   8.651   0.657   4.737  0.8633 -0.1641  0.7311
13743TIP3   OH241150   4.319   0.291   5.844 -0.0248 -0.1712  0.2824
13743TIP3    H141151   4.227   0.300   5.869  0.7474 -0.8724  3.9471
13743TIP3    H241152   4.348   0.380   5.825 -0.6494  0.5882  2.5974
13744TIP3   OH241153   0.309   3.489   2.216 -0.1414 -0.5142 -0.1340
13744TIP3    H141154   0.392   3.449   2.192  0.7461  1.2485 -0.1316
13744TIP3    H241155   0.245   3.448   2.157  0.7683 -1.6135 -0.3935
13745TIP3   OH241156   4.733   4.708   0.214 -0.4219 -0.2471 -0.1692
13745TIP3    H141157   4.661   4.769   0.228 -1.1764 -1.5110  1.9080
13745TIP3    H241158   4.742   4.661   0.297  4.0684  1.1167  0.4109
13746TIP3   OH241159   0.216   3.315   5.011 -0.2581 -0.0794  0.1700
13746TIP3    H141160   0.301   3.297   5.051 -0.7473  0.2538  1.4294
13746TIP3    H241161   0.154   3.311   5.084 -1.3931 -0.7440 -0.7940
13747TIP3   OH241162   2.902   7.257   3.784  0.4908  0.2601  0.9838
13747TIP3    H141163   2.964   7.186   3.799  1.1514  0.5924 -0.0665
13747TIP3    H241164   2.954   7.327   3.745 -0.7348  0.1153 -1.0486
13748TIP3   OH241165   5.536   5.577   4.377  0.0827 -0.2422  0.5195
13748TIP3    H141166   5.474   5.554   4.445  2.6412 -2.2796  2.3323
13748TIP3    H241167   5.568   5.493   4.343 -0.2305  0.7062 -2.4719
13749TIP3   OH241168   8.174   1.441   1.238 -0.5659 -0.4191 -0.1473
13749TIP3    H141169   8.082   1.427   1.217 -0.3774 -1.3835 -0.4072
13749TIP3    H241170   8.222   1.391   1.172  0.2129  1.5694 -1.1746
13750TIP3   OH241171   5.007   3.147   5.996 -0.3105  0.4409  0.2500
13750TIP3    H141172   5.088   3.116   5.954 -0.1920  1.7737 -0.5792
13750TIP3    H241173   5.014   3.243   5.993 -2.0059  0.5855 -0.0252
13751TIP3   OH241174   0.524   2.637   2.033  0.6263 -0.9366  0.1790
13751TIP3    H141175   0.528   2.610   1.941  0.6350 -0.6180  0.0837
13751TIP3    H241176   0.614   2.626   2.065  1.3181  1.6187 -0.6354
13752TIP3   OH241177   2.256   5.156   2.743  0.4992  0.0394  0.0783
13752TIP3    H141178   2.291   5.067   2.737  1.4076  0.3705  0.2701
13752TIP3    H241179   2.331   5.209   2.770  0.0235  0.9003 -0.2581
13753TIP3   OH241180   0.466   1.342   0.262 -0.2776 -0.4608  0.1367
13753TIP3    H141181   0.397   1.407   0.270  1.2639  1.1719  0.6437
13753TIP3    H241182   0.480   1.333   0.167  0.1201  0.6368  0.0849
13754TIP3   OH241183   3.582   0.238   4.737  0.5459 -0.9819 -0.7836
13754TIP3    H141184   3.523   0.267   4.806 -0.6828 -3.4434 -0.6975
13754TIP3    H241185   3.664   0.217   4.782  0.7812  0.3276 -0.5737
13755TIP3   OH241186   4.041   2.847   5.106 -0.0099  0.1346  0.2420
13755TIP3    H141187   4.132   2.830   5.083 -0.5173 -1.1428 -0.9839
13755TIP3    H241188   4.041   2.935   5.144  1.9224 -0.3671  1.5192
13756TIP3   OH241189   4.163   5.855   4.367 -0.0106 -0.2545 -0.4313
13756TIP3    H141190   4.167   5.819   4.278  0.2609  0.6860 -0.8047
13756TIP3    H241191   4.084   5.909   4.368  0.7758  0.9299 -0.5673
13757TIP3   OH241192   5.167   6.135   6.269 -0.0619 -0.0627  0.7182
13757TIP3    H141193   5.110   6.058   6.264 -0.8803  0.3317  2.7845
13757TIP3    H241194   5.187   6.143   6.363  1.3704  1.2749  0.3345
13758TIP3   OH241195   2.266   1.915   5.339  0.0435 -0.1741  0.1636
13758TIP3    H141196   2.343   1.883   5.386 -0.6932 -1.8715  0.2916
13758TIP3    H241197   2.302   1.957   5.260  1.0809 -1.6314 -0.1754
13759TIP3   OH241198   1.710   4.231   1.617 -0.7851  0.5613 -0.0807
13759TIP3    H141199   1.713   4.317   1.575 -0.0831  0.8472  0.5443
13759TIP3    H241200   1.637   4.236   1.678 -0.1330  1.0638  0.6790
13760TIP3   OH241201   0.392   4.493   1.906  0.0616 -0.5868 -0.3570
13760TIP3    H141202   0.308   4.475   1.865 -0.0891  0.1298 -0.3840
13760TIP3    H241203   0.439   4.547   1.842 -0.6445  1.5855  0.8369
13761TIP3   OH241204   2.791   2.137   2.759  0.5005  0.1301  0.2621
13761TIP3    H141205   2.884   2.140   2.736  0.9085 -1.5333  1.5177
13761TIP3    H241206   2.749   2.096   2.683  0.7667  0.8972 -0.3157
13762TIP3   OH241207   6.269   5.535   5.947 -0.5349 -0.2430 -0.4239
13762TIP3    H141208   6.247   5.470   6.013  2.4838 -0.4830  0.5094
13762TIP3    H241209   6.252   5.491   5.864 -0.3200 -1.5532  0.1938
13763TIP3   OH241210   1.896   4.003   1.717  0.2060  0.5616  0.1780
13763TIP3    H141211   1.818   3.979   1.668  0.4686 -0.9306  0.4441
13763TIP3    H241212   1.933   4.077   1.669 -1.3500  1.3003  0.0584
13764TIP3   OH241213   2.381   7.357   2.267 -0.6554 -0.4920  0.4345
13764TIP3    H141214   2.293   7.384   2.295 -0.8067  0.3897 -0.7888
13764TIP3    H241215   2.378   7.262   2.267 -2.1020 -0.4895 -0.9897
13765TIP3   OH241216   4.497   2.572   2.146  0.1369 -0.2042  0.1965
13765TIP3    H141217   4.430   2.579   2.214  1.0707  1.2540  0.9951
13765TIP3    H241218   4.502   2.478   2.129 -5.3834 -0.3574 -3.2961
13766TIP3   OH241219   0.809   3.618   4.697 -0.3811 -0.2547  0.2477
13766TIP3    H141220   0.826   3.532   4.735 -1.7945 -1.0454 -0.8129
13766TIP3    H241221   0.884   3.634   4.640 -0.4542 -1.1458 -0.1233
13767TIP3   OH241222   6.175   4.426   6.298 -0.0035 -0.2508 -0.4093
13767TIP3    H141223   6.142   4.343   6.334 -0.3790 -0.7563 -1.8601
13767TIP3    H241224   6.097   4.474   6.271  0.1887  0.7940  0.8170
13768TIP3   OH241225   4.827   3.798   3.745  0.0180  0.0348  0.1385
13768TIP3    H141226   4.873   3.784   3.827  1.0857 -0.7278 -0.5696
13768TIP3    H241227   4.846   3.889   3.721  0.8189 -0.1529  0.0602
13769TIP3   OH241228   8.290   3.890   0.747  0.2107  0.4125 -0.0122
13769TIP3    H141229   8.203   3.897   0.708  0.8928 -2.4719 -2.3895
13769TIP3    H241230   8.279   3.826   0.817 -0.0373  2.0452  1.5061
13770TIP3   OH241231   5.523   6.925   5.074  0.2255 -0.9435 -0.0154
13770TIP3    H141232   5.457   6.941   5.141  0.6425 -0.0449  0.2025
13770TIP3    H241233   5.481   6.948   4.992  0.8578  1.6398  0.3003
13771TIP3   OH241234   3.868   4.805   0.289  0.8013 -0.1760 -0.3736
13771TIP3    H141235   3.853   4.762   0.205  0.0854 -0.8902  0.1076
13771TIP3    H241236   3.959   4.836   0.284  1.0432 -0.9584 -1.0812
13772TIP3   OH241237   0.991   7.622   2.111  0.5506 -0.2922 -0.1435
13772TIP3    H141238   0.982   7.585   2.023  2.4587  0.1100 -0.5590
13772TIP3    H241239   0.958   7.554   2.169  1.3446 -1.5128 -1.0647
13773TIP3   OH241240   5.876   0.837   0.035 -0.4584  0.1385 -0.0581
13773TIP3    H141241   5.831   0.858   0.117 -2.0884  0.0937 -0.9096
13773TIP3    H241242   5.967   0.824   0.061 -0.8364  0.6553  1.6617
13774TIP3   OH241243   1.037   1.574  -0.003  0.4392 -0.5451  0.0205
13774TIP3    H141244   1.051   1.651   0.053  0.5667 -0.6239  0.0972
13774TIP3    H241245   1.125   1.539  -0.018  0.4257 -0.4018 -0.4039
13775TIP3   OH241246   8.129   0.550   6.048 -0.1799 -0.4659  0.2667
13775TIP3    H141247   8.192   0.515   5.984 -0.8187  0.1862 -0.7528
13775TIP3    H241248   8.118   0.641   6.022 -1.1139 -0.4291  0.7849
13776TIP3   OH241249   5.509   6.194   6.755  0.3144 -0.1788  0.0849
13776TIP3    H141250   5.598   6.161   6.759  0.6879  0.8839  1.1138
13776TIP3    H241251   5.518   6.289   6.762 -0.8012  0.0892 -1.4393
13777TIP3   OH241252   2.989   6.408   2.973 -0.0101 -0.0264 -0.2173
13777TIP3    H141253   2.894   6.424   2.972  0.0393  0.2485 -0.3112
13777TIP3    H241254   3.029   6.494   2.968  0.2503 -0.1869 -0.9965
13778TIP3   OH241255   8.413   0.681   3.131 -0.5244  0.0456  0.1902
13778TIP3    H141256   8.438   0.627   3.206 -0.7274 -1.3829 -0.7527
13778TIP3    H241257   8.479   0.662   3.064 -0.2988  1.3698 -0.0073
13779TIP3   OH241258   1.099   2.111   3.490  0.3136 -0.1727 -0.3080
13779TIP3    H141259   1.071   2.131   3.400  1.1910  1.6345 -0.2194
13779TIP3    H241260   1.160   2.038   3.481  0.9853  0.4882 -1.2808
13780TIP3   OH241261   1.591   2.952   2.135 -0.3004  0.4287  0.6624
13780TIP3    H141262   1.636   2.957   2.220 -0.1424 -0.4715  0.6449
13780TIP3    H241263   1.527   3.023   2.137  1.3670  2.0023  0.5318
13781TIP3   OH241264   7.952   2.258   3.289  0.3803 -0.3871  0.7804
13781TIP3    H141265   8.012   2.328   3.316 -1.7353  2.1638 -0.7427
13781TIP3    H241266   7.917   2.224   3.372  1.0690  0.7094  1.5632
13782TIP3   OH241267   2.752   3.260   1.104  0.0594  0.1411 -0.6424
13782TIP3    H141268   2.711   3.179   1.134  0.6954 -0.1717 -0.5923
13782TIP3    H241269   2.843   3.252   1.132  0.7074 -0.1919 -2.7158
13783TIP3   OH241270   1.225   7.334   0.095  0.7965 -0.0142 -0.3626
13783TIP3    H141271   1.268   7.288   0.167 -1.3299 -1.1968  0.2421
13783TIP3    H241272   1.156   7.385   0.138 -0.1938 -0.3600 -1.5014
13784TIP3   OH241273   7.333   4.688   1.194  0.7048  0.2470 -0.3640
13784TIP3    H141274   7.274   4.749   1.150  0.9803  0.0316 -1.0515
13784TIP3    H241275   7.366   4.736   1.270 -1.8979 -0.3095  1.2482
13785TIP3   OH241276   2.793   5.358   0.393  0.0588 -0.0030 -0.3073
13785TIP3    H141277   2.699   5.358   0.411 -0.0339 -0.0027 -0.7799
13785TIP3    H241278   2.801   5.398   0.306  0.3219 -1.6822 -1.1022
13786TIP3   OH241279   5.838   3.237   4.034 -0.1620 -0.3041 -0.7583
13786TIP3    H141280   5.917   3.239   4.088 -0.0349 -0.0028 -0.9546
13786TIP3    H241281   5.862   3.183   3.958  0.2277  0.7368 -1.3893
13787TIP3   OH241282   4.463   3.588   0.439  0.1018  0.1787  0.2210
13787TIP3    H141283   4.390   3.633   0.397  0.5960  0.0636 -0.7736
13787TIP3    H241284   4.493   3.649   0.506 -1.8695 -0.3916  1.7255
13788TIP3   OH241285   1.377   1.170   4.681  0.4822 -0.2607  0.3743
13788TIP3    H141286   1.322   1.092   4.688 -0.8497  0.6957  0.9691
13788TIP3    H241287   1.370   1.197   4.590 -1.7318  0.9824  0.8354
13789TIP3   OH241288   5.398   4.660   5.302  0.2671 -0.6111  0.6677
13789TIP3    H141289   5.387   4.577   5.255  1.3253 -0.1784 -0.4195
13789TIP3    H241290   5.319   4.710   5.282  0.3095 -0.7787  0.0484
13790TIP3   OH241291   1.514   3.589   0.946 -0.2061 -0.4400 -0.6460
13790TIP3    H141292   1.547   3.552   0.864  1.4609 -1.2469  0.3264
13790TIP3    H241293   1.587   3.578   1.008 -2.0024 -1.4500  1.4165
13791TIP3   OH241294   2.212   2.554   3.872  0.0214  0.3899  0.5187
13791TIP3    H141295   2.183   2.566   3.782 -0.4970 -1.8205  0.3272
13791TIP3    H241296   2.174   2.470   3.899  0.6269  0.7175  2.6126
13792TIP3   OH241297   7.607   7.524   5.636 -0.1282  0.5579 -0.4552
13792TIP3    H141298   7.651   7.567   5.710 -0.7819  0.6830 -0.1340
13792TIP3    H241299   7.519   7.505   5.668 -0.1158 -0.2493 -0.8868
13793TIP3   OH241300   3.010   5.064   2.889 -0.4247  0.1686  0.0134
13793TIP3    H141301   2.920   5.085   2.916 -0.3437  1.4689 -0.6397
13793TIP3    H241302   3.065   5.096   2.961 -0.4143  0.5641 -0.1666
13794TIP3   OH241303   8.594   2.663   0.491  0.0961  0.2145  0.0447
13794TIP3    H141304   8.504   2.693   0.499 -0.9934 -2.7768  0.3725
13794TIP3    H241305   8.639   2.733   0.443 -1.5118  3.2956  2.6501
13795TIP3   OH241306   6.926   7.774   5.068 -0.3060 -0.1776  0.2609
13795TIP3    H141307   6.834   7.750   5.057 -0.1985 -0.0334 -1.1015
13795TIP3    H241308   6.930   7.813   5.156 -1.3479 -1.0238  0.7070
13796TIP3   OH241309   2.819   2.354   3.212  0.3362 -0.1480 -0.0394
13796TIP3    H141310   2.804   2.335   3.119 -2.6249 -1.3666  0.5756
13796TIP3    H241311   2.736   2.391   3.242  1.1268 -0.0792  2.2093
13797TIP3   OH241312   7.261   1.716   4.081  0.0131  0.7919  0.3001
13797TIP3    H141313   7.309   1.765   4.148  1.8802 -0.2481 -0.1945
13797TIP3    H241314   7.324   1.651   4.049 -1.4839 -0.0912 -1.0188
13798TIP3   OH241315   1.710   4.480   1.505  0.2162 -0.2450 -0.0032
13798TIP3    H141316   1.784   4.529   1.470 -1.1193  2.3216  0.5448
13798TIP3    H241317   1.634   4.535   1.489 -0.9779 -0.5794  3.5465
13799TIP3   OH241318   4.595   1.738   6.561  0.2158 -0.0139 -0.3620
13799TIP3    H141319   4.526   1.796   6.594 -0.8831 -1.2475 -0.4078
13799TIP3    H241320   4.670   1.755   6.618 -0.0397  1.4793 -0.4168
13800TIP3   OH241321   4.522   7.472   1.869 -0.5923 -0.3753  0.2237
13800TIP3    H141322   4.473   7.549   1.838  2.0661  1.9867  1.4655
13800TIP3    H241323   4.522   7.480   1.964  1.2439 -0.8646  0.3019
13801TIP3   OH241324   5.995   5.701   6.928 -0.0628 -0.0965  0.0221
13801TIP3    H141325   5.941   5.755   6.985 -2.8203 -3.3234  0.7363
13801TIP3    H241326   6.078   5.692   6.975 -0.0469  2.1177  0.5589
13802TIP3   OH241327   7.256   4.742   5.194 -0.2674  0.7490  0.5051
13802TIP3    H141328   7.343   4.766   5.225  0.2440 -0.6427  0.2456
13802TIP3    H241329   7.202   4.820   5.208  0.4324  0.8726  2.8914
13803TIP3   OH241330   4.903   2.903   6.984 -0.1033  0.4730 -0.8487
13803TIP3    H141331   4.880   2.976   7.041  1.0775 -0.8701  1.5104
13803TIP3    H241332   4.819   2.875   6.946 -1.0496  1.0440  0.7435
13804TIP3   OH241333   5.480   6.214   4.864 -0.1067  0.5164 -0.5403
13804TIP3    H141334   5.418   6.177   4.927  1.2510  0.6747  0.9580
13804TIP3    H241335   5.476   6.308   4.877  2.2832  0.4432  1.5184
13805TIP3   OH241336   1.853   1.428   1.697 -0.8765 -0.0258  0.1449
13805TIP3    H141337   1.865   1.336   1.718 -0.1181  0.3193  1.3468
13805TIP3    H241338   1.856   1.432   1.602  0.8606 -1.0264  0.1068
13806TIP3   OH241339   5.015   3.800   3.005  0.3319 -0.0167 -0.1542
13806TIP3    H141340   4.974   3.886   2.998  0.1551 -0.1333 -0.5672
13806TIP3    H241341   5.040   3.777   2.916  0.3667 -0.3978 -0.0498
13807TIP3   OH241342   7.315   2.402   4.201  0.3544  0.4472 -0.3672
13807TIP3    H141343   7.342   2.476   4.146 -1.2752  0.0789 -1.7328
13807TIP3    H241344   7.335   2.431   4.290  2.2304  1.4243 -1.0384
13808TIP3   OH241345   5.892   2.416   1.502 -0.4598  0.9007  0.3517
13808TIP3    H141346   5.833   2.391   1.573  0.1427  1.1592  0.9511
13808TIP3    H241347   5.837   2.414   1.424 -0.7989 -0.8918  0.5747
13809TIP3   OH241348   6.352   6.651   0.813  0.3987 -0.1024  0.1718
13809TIP3    H141349   6.270   6.601   0.812 -0.0285  0.5941 -0.2237
13809TIP3    H241350   6.344   6.711   0.739  1.8513 -0.9680 -0.7365
13810TIP3   OH241351   6.818   1.792   2.866  0.0197 -0.2831  0.3554
13810TIP3    H141352   6.802   1.885   2.849 -0.2112 -0.3121  0.4006
13810TIP3    H241353   6.908   1.788   2.896 -0.0611 -0.0336  0.6389
13811TIP3   OH241354   4.985   4.324   2.232  0.1796 -0.1559 -0.4879
13811TIP3    H141355   5.007   4.370   2.151  2.1236  0.2186  0.1751
13811TIP3    H241356   5.070   4.315   2.277 -0.5340 -2.1911  0.5436
13812TIP3   OH241357   7.143   5.030   4.362 -0.6782  0.6425  0.0753
13812TIP3    H141358   7.170   4.967   4.429  0.5444  1.6178  0.5283
13812TIP3    H241359   7.067   4.989   4.321 -2.7798  0.8216  3.3616
13813TIP3   OH241360   4.031   3.422   1.905 -0.1318 -0.1760  0.1938
13813TIP3    H141361   3.956   3.480   1.889  0.8985  0.4372 -3.2685
13813TIP3    H241362   4.102   3.480   1.930  0.4099 -0.1064 -1.4113
13814TIP3   OH241363   6.805   3.291   3.288 -0.3440 -0.0872  0.3265
13814TIP3    H141364   6.887   3.292   3.338 -0.9206  0.0958  1.2807
13814TIP3    H241365   6.737   3.277   3.353 -1.0287 -0.9249 -0.5431
13815TIP3   OH241366   5.376   2.713   6.453 -0.1333  0.2421 -0.7436
13815TIP3    H141367   5.328   2.746   6.528 -1.6128 -0.4047 -1.3648
13815TIP3    H241368   5.329   2.747   6.377  0.1532 -0.7061 -1.3704
13816TIP3   OH241369   1.739   1.730   5.165 -0.1621  1.2530 -0.3375
13816TIP3    H141370   1.715   1.759   5.077  0.2919  0.1580 -0.8399
13816TIP3    H241371   1.693   1.647   5.176  0.1012  1.1876  0.3152
13817TIP3   OH241372   7.042   3.293   3.438 -0.2822 -0.1016  0.1377
13817TIP3    H141373   7.024   3.236   3.513 -0.2970 -0.3596 -0.0592
13817TIP3    H241374   7.132   3.271   3.413 -0.0180  0.5097  0.5348
13818TIP3   OH241375   8.364   6.538   3.001 -0.0374  0.2238 -0.2716
13818TIP3    H141376   8.386   6.542   2.908  0.0903  0.0770 -0.2478
13818TIP3    H241377   8.341   6.447   3.017 -0.0300  0.2419 -0.1518
13819TIP3   OH241378   2.131   3.144   2.732  0.6808  0.3132 -0.7733
13819TIP3    H141379   2.046   3.101   2.718 -0.4660  2.0526  0.3741
13819TIP3    H241380   2.147   3.193   2.652 -1.1928  2.7139  0.1614
13820TIP3   OH241381   6.725   1.599   6.358 -0.6562 -0.0464 -0.5957
13820TIP3    H141382   6.677   1.621   6.438 -0.7493 -0.1323 -0.6268
13820TIP3    H241383   6.803   1.654   6.360  0.4104 -1.5211  0.6047
13821TIP3   OH241384   0.275   0.049   6.180  0.0253 -0.5754 -0.4473
13821TIP3    H141385   0.225   0.000   6.114 -0.8869  0.8570 -0.8644
13821TIP3    H241386   0.293   0.133   6.138 -2.2471  1.1652  1.7345
13822TIP3   OH241387   5.293   1.770   3.976 -0.0345 -0.1451 -0.0356
13822TIP3    H141388   5.363   1.833   3.995  0.6082 -0.1454 -2.1260
13822TIP3    H241389   5.319   1.730   3.893 -1.8953 -1.0770 -0.2160
13823TIP3   OH241390   4.394   1.688   2.891  0.1243  0.1344  0.1658
13823TIP3    H141391   4.444   1.638   2.828 -1.3100 -2.6276  1.0710
13823TIP3    H241392   4.422   1.656   2.977 -1.0520  0.6497  0.7843
13824TIP3   OH241393   6.435   0.493   3.537 -0.0168 -0.2347  0.8259
13824TIP3    H141394   6.436   0.401   3.563 -0.7115 -0.2868  0.6827
13824TIP3    H241395   6.349   0.506   3.498  0.4887  0.1868 -0.1979
13825TIP3   OH241396   2.787   0.378   2.856  0.4250 -0.3095  0.6163
13825TIP3    H141397   2.736   0.441   2.806  0.2024 -1.2064 -0.3398
13825TIP3    H241398   2.876   0.413   2.856 -0.2603  1.5896  2.8475
13826TIP3   OH241399   2.181   2.062   3.124  0.1016 -0.0418 -0.2567
13826TIP3    H141400   2.160   1.992   3.063  0.2456 -0.0882 -0.2531
13826TIP3    H241401   2.099   2.078   3.171  0.1778 -0.4913  0.0318
13827TIP3   OH241402   8.647   3.790   2.182  1.2771 -0.2469 -0.4694
13827TIP3    H141403   8.714   3.785   2.250 -0.0835 -0.5186  0.9101
13827TIP3    H241404   8.623   3.699   2.164  1.1042 -0.1455 -0.7630
13828TIP3   OH241405   7.214   0.829   2.200  0.6571  0.0206  0.5072
13828TIP3    H141406   7.151   0.766   2.234 -0.3363  0.3117 -0.7018
13828TIP3    H241407   7.183   0.848   2.111  3.2803 -0.9344 -0.6963
13829TIP3   OH241408   3.720   6.056   2.493 -0.0410  0.5020  0.9695
13829TIP3    H141409   3.788   6.060   2.426  1.3201 -0.3602  2.2436
13829TIP3    H241410   3.669   5.978   2.472  1.6738 -1.0017  2.0374
13830TIP3   OH241411   5.451   5.560   6.086  0.5049  0.2118  0.2804
13830TIP3    H141412   5.408   5.579   6.003 -0.3191  1.3245  0.9405
13830TIP3    H241413   5.388   5.506   6.134  0.4276  0.6453  0.6777
13831TIP3   OH241414   8.570   2.165   2.234 -0.1827  0.2762  0.5695
13831TIP3    H141415   8.644   2.107   2.220 -0.0440  0.4524  0.5579
13831TIP3    H241416   8.587   2.206   2.319  1.1587  2.3695 -0.6187
13832TIP3   OH241417   1.621   2.722   1.092 -0.5249  0.0600  0.2189
13832TIP3    H141418   1.687   2.731   1.161  0.7375 -0.5564 -0.8889
13832TIP3    H241419   1.649   2.646   1.041 -1.1926  0.7598 -1.2435
13833TIP3   OH241420   3.420   3.554   4.532 -0.2272 -0.0716 -0.2674
13833TIP3    H141421   3.397   3.499   4.607  1.4366  3.5926  3.3232
13833TIP3    H241422   3.514   3.571   4.542 -0.7483  3.9866 -0.4398
13834TIP3   OH241423   6.223   2.768   1.371 -0.1214  0.0962 -0.2052
13834TIP3    H141424   6.199   2.718   1.293  0.3510  0.9273 -0.9071
13834TIP3    H241425   6.176   2.725   1.443 -1.2369 -0.1820 -1.0717
13835TIP3   OH241426   6.508   1.407   0.340  0.6297  0.3691 -0.4837
13835TIP3    H141427   6.437   1.373   0.286  0.6286  0.0074 -0.2552
13835TIP3    H241428   6.464   1.467   0.401  0.4511 -0.1752 -0.0605
13836TIP3   OH241429   0.929   7.689   0.683 -0.1225  0.5689  0.2050
13836TIP3    H141430   0.902   7.599   0.705  1.5081  0.2823  1.1929
13836TIP3    H241431   0.954   7.684   0.591 -1.0180  0.2629 -0.0334
13837TIP3   OH241432   3.612   0.992   4.529 -0.0353  0.3912 -0.0896
13837TIP3    H141433   3.604   0.935   4.605 -1.5036 -1.4956 -1.5524
13837TIP3    H241434   3.706   1.002   4.516  0.2400 -0.4324  1.1054
13838TIP3   OH241435   8.676   4.026   1.844 -0.1144  0.0841 -0.1196
13838TIP3    H141436   8.716   4.100   1.891 -2.0514  0.1870  1.5358
13838TIP3    H241437   8.609   3.995   1.904 -1.0545 -1.4126 -1.8822
13839TIP3   OH241438   7.020   2.997   2.661 -0.0055 -0.4414  0.1041
13839TIP3    H141439   7.074   3.038   2.594 -1.2182 -0.0552 -0.6621
13839TIP3    H241440   6.938   3.047   2.661  0.5442  0.6927  3.0601
13840TIP3   OH241441   7.076   1.764   0.755  0.2520 -0.4938 -0.0018
13840TIP3    H141442   7.112   1.737   0.840 -0.4048 -2.8285 -0.3998
13840TIP3    H241443   6.982   1.773   0.770  0.1101 -1.0614 -0.4736
13841TIP3   OH241444   8.368   5.695   1.440  0.3374 -0.6149 -0.4664
13841TIP3    H141445   8.345   5.719   1.350 -1.0302  3.1523  0.7219
13841TIP3    H241446   8.288   5.712   1.491  2.2441  1.4404  2.0575
13842TIP3   OH241447   6.938   1.808   3.477 -0.4642 -0.3797 -0.0238
13842TIP3    H141448   6.952   1.729   3.424  1.8604  0.2523 -0.4628
13842TIP3    H241449   7.026   1.834   3.506 -1.3013  1.3378  1.1723
13843TIP3   OH241450   6.680   2.720   3.895 -0.1858  0.0209 -0.1434
13843TIP3    H141451   6.770   2.712   3.926  0.3731 -0.5198 -1.7926
13843TIP3    H241452   6.630   2.746   3.972  1.2013 -0.7277  1.0546
13844TIP3   OH241453   0.894   2.704   4.524 -0.1669 -0.0437  0.7433
13844TIP3    H141454   0.880   2.792   4.491 -1.2856  0.3620  2.2032
13844TIP3    H241455   0.952   2.715   4.599  0.1354 -0.6171  0.6020
13845TIP3   OH241456   7.454   5.817   0.744 -0.1694 -0.1503 -0.1225
13845TIP3    H141457   7.539   5.773   0.753 -0.5986 -0.9944 -0.0349
13845TIP3    H241458   7.459   5.859   0.658 -0.4891 -2.1576 -1.2080
13846TIP3   OH241459   4.917   6.205   6.820 -0.2324  0.0551 -0.0699
13846TIP3    H141460   4.902   6.268   6.890 -1.8977 -0.8770  0.4641
13846TIP3    H241461   4.830   6.191   6.782  0.2679 -1.1991 -0.7827
13847TIP3   OH241462   6.935   1.479   5.121  0.5834  0.3948 -0.1174
13847TIP3    H141463   6.889   1.505   5.201  1.1447  0.1554  0.2905
13847TIP3    H241464   6.865   1.456   5.060  0.1514  0.1672  0.4503
13848TIP3   OH241465   4.126   4.644   4.350  0.3335  0.4019 -0.3977
13848TIP3    H141466   4.035   4.619   4.365  0.1975  0.4103 -1.2012
13848TIP3    H241467   4.131   4.736   4.376 -0.4018  1.0296 -2.3209
13849TIP3   OH241468   1.970   0.767   1.403 -0.1840  0.0930 -0.3398
13849TIP3    H141469   2.023   0.726   1.471 -0.5698  0.0750 -0.0430
13849TIP3    H241470   1.992   0.719   1.323 -0.5787 -0.6578 -0.0085
13850TIP3   OH241471   0.933   4.171   5.322  0.6377 -0.0418 -0.0185
13850TIP3    H141472   0.888   4.234   5.379 -0.0930 -1.1325  0.6504
13850TIP3    H241473   0.907   4.086   5.356  0.3682 -0.7393 -1.8384
13851TIP3   OH241474   0.469   2.477   0.339 -0.3859  0.3208 -0.2088
13851TIP3    H141475   0.440   2.555   0.387 -0.8085  0.2434 -0.3306
13851TIP3    H241476   0.422   2.405   0.381 -2.1052  0.4295 -1.7892
13852TIP3   OH241477   2.048   1.529   5.398 -0.4774  0.0358  0.5999
13852TIP3    H141478   2.057   1.450   5.346 -0.0835  0.0513  0.6380
13852TIP3    H241479   2.109   1.517   5.471  1.2412  1.2903 -0.5479
13853TIP3   OH241480   2.205   4.219   4.966 -0.1818  0.1650 -0.0996
13853TIP3    H141481   2.133   4.273   4.935 -1.3698  0.5842  2.9933
13853TIP3    H241482   2.275   4.281   4.988  0.0343  0.0387 -0.4297
13854TIP3   OH241483   7.389   3.252   6.381 -0.3103  0.3839  0.1237
13854TIP3    H141484   7.370   3.179   6.322  1.4980 -0.6786  0.7628
13854TIP3    H241485   7.485   3.255   6.386 -0.3072  2.8890  0.0562
13855TIP3   OH241486   6.720   2.717   0.994  0.2173 -0.1139  0.5473
13855TIP3    H141487   6.705   2.656   1.067  3.6323  0.2357  1.7181
13855TIP3    H241488   6.753   2.663   0.923  0.0978 -0.0130  0.4130
13856TIP3   OH241489   2.688   6.649   1.671  0.4172  0.0580 -0.0575
13856TIP3    H141490   2.699   6.729   1.620  0.8368 -0.2141 -0.4015
13856TIP3    H241491   2.697   6.677   1.762 -1.1760  0.6828 -0.0782
13857TIP3   OH241492   3.133   4.145   4.768 -0.2394 -0.2329 -0.5946
13857TIP3    H141493   3.097   4.102   4.846 -1.1703 -0.2144 -1.0144
13857TIP3    H241494   3.228   4.130   4.775 -0.1430  0.8537  1.2171
13858TIP3   OH241495   6.469   2.024   5.977  0.0120  0.1200 -0.1334
13858TIP3    H141496   6.552   2.055   6.015  0.1284 -0.9689  0.5571
13858TIP3    H241497   6.403   2.084   6.011  0.3704  0.2632  0.3221
13859TIP3   OH241498   3.243   0.092   1.834 -0.1259  0.4544  0.0497
13859TIP3    H141499   3.255   0.177   1.875 -1.0115 -0.0885  1.5035
13859TIP3    H241500   3.319   0.041   1.862 -0.7160  0.0927  1.0175
13860TIP3   OH241501   0.167   5.174   4.684 -0.3940  0.7668 -0.3322
13860TIP3    H141502   0.191   5.240   4.619  0.0134  0.0280 -0.9583
13860TIP3    H241503   0.077   5.149   4.660 -0.2204  0.4479 -0.6630
13861TIP3   OH241504   7.165   7.218   4.550  0.1230  0.2784  0.1806
13861TIP3    H141505   7.106   7.161   4.500  0.7146  0.1701 -0.4177
13861TIP3    H241506   7.235   7.240   4.488  0.6682  0.4704  0.8517
13862TIP3   OH241507   7.069   5.402   5.684  0.3475 -0.1983  0.1006
13862TIP3    H141508   7.117   5.319   5.687 -0.1644 -0.5497 -0.8701
13862TIP3    H241509   7.126   5.461   5.635  0.8542  0.1374  1.0669
13863TIP3   OH241510   3.917   1.832   0.880 -0.4256  0.5636  0.5144
13863TIP3    H141511   3.999   1.793   0.910 -1.3285 -2.2324 -0.3328
13863TIP3    H241512   3.857   1.821   0.953 -0.2732  2.1079  0.9242
13864TIP3   OH241513   2.570   7.529   4.358  0.0131 -0.3820  0.0010
13864TIP3    H141514   2.494   7.509   4.412  0.2993 -0.4899  0.3674
13864TIP3    H241515   2.644   7.521   4.418  0.2793  0.1002 -0.2599
13865TIP3   OH241516   0.951   7.970   6.391 -0.2486  0.2629  0.1806
13865TIP3    H141517   1.006   7.983   6.314 -0.8131 -1.1423 -0.4995
13865TIP3    H241518   0.936   8.058   6.425 -0.2611  0.9429 -1.5052
13866TIP3   OH241519   5.311   4.535   6.973 -0.1782  0.0636  0.0278
13866TIP3    H141520   5.389   4.480   6.982 -1.2503 -1.2984  1.5983
13866TIP3    H241521   5.260   4.493   6.904 -0.4249 -0.1788  0.3596
13867TIP3   OH241522   6.616   2.295   5.034 -0.2341  0.3635  0.2864
13867TIP3    H141523   6.568   2.338   5.105  1.5114  0.9657  1.1539
13867TIP3    H241524   6.591   2.203   5.042  0.5031  0.2709  2.2126
13868TIP3   OH241525   6.042   4.139   2.733 -0.2431  0.3063  0.2113
13868TIP3    H141526   5.983   4.120   2.806  0.4333 -0.4040  0.5845
13868TIP3    H241527   6.129   4.138   2.771 -0.0328  3.3152  0.0936
13869TIP3   OH241528   2.857   4.142   2.483 -0.2950 -0.2794  0.1387
13869TIP3    H141529   2.832   4.209   2.546  0.8151  0.7310 -0.4566
13869TIP3    H241530   2.784   4.137   2.421 -0.9345 -0.5436  0.8985
13870TIP3   OH241531   2.130   3.584   3.869  0.3983 -0.2208 -0.4518
13870TIP3    H141532   2.154   3.538   3.950  0.3997  0.1942 -0.2142
13870TIP3    H241533   2.214   3.603   3.827  0.4873  0.8891  0.1905
13871TIP3   OH241534   4.766   6.052   1.982 -0.1214  0.0179  0.2826
13871TIP3    H141535   4.771   6.097   2.067  1.2280  0.8587 -0.2149
13871TIP3    H241536   4.683   6.084   1.944 -1.1599 -0.9995  1.5937
13872TIP3   OH241537   4.652   2.037   2.533 -0.4675  0.2976 -0.2179
13872TIP3    H141538   4.570   1.998   2.500 -1.5227  1.1950  1.2020
13872TIP3    H241539   4.690   2.080   2.457 -1.3207 -0.1203 -0.9124
13873TIP3   OH241540   7.927   6.278   3.165 -0.4490 -0.6884 -0.9916
13873TIP3    H141541   7.942   6.299   3.073  2.7766 -1.8309 -0.8594
13873TIP3    H241542   7.980   6.341   3.213 -3.9830  1.5570  0.4136
13874TIP3   OH241543   2.756   1.990   4.409  0.3866  0.7204 -0.2030
13874TIP3    H141544   2.786   1.981   4.318 -0.3928 -0.3437 -0.3813
13874TIP3    H241545   2.701   1.912   4.423 -0.6328  1.5767  0.7374
13875TIP3   OH241546   8.477   1.259   6.712 -0.2419 -0.1061  0.0937
13875TIP3    H141547   8.470   1.265   6.617 -1.2983  0.1658  0.1795
13875TIP3    H241548   8.570   1.244   6.728 -0.0039  0.1575 -0.9644
13876TIP3   OH241549   4.508   6.301   6.524 -0.3282 -0.2256 -0.1343
13876TIP3    H141550   4.601   6.298   6.503  0.1247 -0.4094  1.7317
13876TIP3    H241551   4.487   6.394   6.530  0.1806 -0.1666  1.1034
13877TIP3   OH241552   4.797   0.144   4.419 -0.2380 -0.0308 -0.1476
13877TIP3    H141553   4.863   0.213   4.421  1.7299 -1.8082  2.3445
13877TIP3    H241554   4.724   0.178   4.470  0.2578  0.5805  0.1575
13878TIP3   OH241555   8.146   6.211   1.507 -0.5896 -0.6687 -0.3154
13878TIP3    H141556   8.106   6.164   1.580  1.0043 -2.4007 -0.4655
13878TIP3    H241557   8.189   6.142   1.455  2.2502  0.9387 -0.3296
13879TIP3   OH241558   2.783   3.688   2.912  0.0044 -0.1913  0.4658
13879TIP3    H141559   2.818   3.627   2.977 -1.1318 -0.9729  0.3728
13879TIP3    H241560   2.695   3.710   2.943  0.4647  1.6083  0.6130
13880TIP3   OH241561   3.387   4.808   5.500  0.3008 -0.5597  0.3232
13880TIP3    H141562   3.462   4.751   5.478  0.3594 -0.1790 -0.5185
13880TIP3    H241563   3.339   4.816   5.417  1.0014  1.6468  0.0751
13881TIP3   OH241564   7.025   4.165   2.660 -0.5231  0.1420 -0.2471
13881TIP3    H141565   7.009   4.170   2.754 -1.8164  0.6798 -0.4644
13881TIP3    H241566   6.972   4.090   2.631 -3.0187  2.0564 -1.0226
13882TIP3   OH241567   0.396   4.048   7.020  0.0352  0.3327 -0.2431
13882TIP3    H141568   0.392   4.018   6.929 -2.5152  2.3159 -0.8941
13882TIP3    H241569   0.473   4.104   7.024 -0.2745  0.8821 -1.4587
13883TIP3   OH241570   4.491   3.433   1.490 -0.1325 -0.5601 -0.0054
13883TIP3    H141571   4.513   3.368   1.423  1.1107 -1.0980  0.8683
13883TIP3    H241572   4.427   3.490   1.449  0.7934 -0.7107 -1.7320
13884TIP3   OH241573   3.558   1.702   1.679 -0.5586 -0.8109  0.1688
13884TIP3    H141574   3.564   1.771   1.745  1.0364 -1.2624  0.5345
13884TIP3    H241575   3.471   1.713   1.641 -1.2734 -0.1663  1.9195
13885TIP3   OH241576   3.317   0.773   0.172 -0.2648 -0.2250 -0.6636
13885TIP3    H141577   3.320   0.825   0.092 -1.1527 -0.7476 -1.0590
13885TIP3    H241578   3.235   0.723   0.165 -0.9679  0.5769  1.0946
13886TIP3   OH241579   1.866   2.173   5.748  0.2545  0.3303 -0.0700
13886TIP3    H141580   1.800   2.176   5.678  1.2375 -1.1954 -1.1151
13886TIP3    H241581   1.833   2.108   5.810  0.1738  0.4986  0.0656
13887TIP3   OH241582   1.542   6.986   5.910  0.2591  0.1168 -0.4384
13887TIP3    H141583   1.545   6.890   5.902  0.9466  0.2133 -1.4968
13887TIP3    H241584   1.459   7.010   5.868  0.2664  0.0140 -0.5137
13888TIP3   OH241585   4.460   3.350   0.307 -0.3132  0.3281  0.1165
13888TIP3    H141586   4.447   3.433   0.353  1.0144 -0.8279  2.7987
13888TIP3    H241587   4.527   3.304   0.358 -1.0120 -2.4270 -1.2350
13889TIP3   OH241588   1.157   4.304   3.489  0.0505 -0.1195 -0.2950
13889TIP3    H141589   1.145   4.318   3.395 -0.0557 -1.9300 -0.5968
13889TIP3    H241590   1.117   4.218   3.506  2.5522 -1.1785  0.8279
13890TIP3   OH241591   3.823   3.207   1.959 -0.0347  0.0648 -0.5100
13890TIP3    H141592   3.749   3.199   1.898  2.0411 -1.7555 -3.0237
13890TIP3    H241593   3.879   3.273   1.921 -0.5070  1.8707  1.6971
13891TIP3   OH241594   4.148   7.294   6.557  0.3308 -0.3539  0.2183
13891TIP3    H141595   4.118   7.205   6.576  1.9982 -1.2223 -0.9799
13891TIP3    H241596   4.084   7.327   6.494  0.5276 -1.2901 -0.4944
13892TIP3   OH241597   2.117   7.552   2.097  0.1511 -0.2039  0.0323
13892TIP3    H141598   2.125   7.510   2.183 -0.6683 -1.4317 -0.4626
13892TIP3    H241599   2.068   7.632   2.114  0.8544  0.0649  0.8489
13893TIP3   OH241600   0.975   0.104   5.058  0.9986  0.1235 -0.3327
13893TIP3    H141601   1.046   0.149   5.105 -0.1173  1.5240  0.0704
13893TIP3    H241602   0.953   0.030   5.114 -0.5953  1.9916  1.7216
13894TIP3   OH241603   0.663   7.729   6.681 -0.2090 -0.4780  0.4070
13894TIP3    H141604   0.614   7.785   6.740  1.1414  1.8813 -0.5855
13894TIP3    H241605   0.681   7.650   6.732 -2.8560 -0.4227  1.5753
13895TIP3   OH241606   2.797   2.789   6.155 -0.0808 -0.6257 -0.0264
13895TIP3    H141607   2.715   2.791   6.205 -0.1957  2.1441 -0.1762
13895TIP3    H241608   2.768   2.781   6.064 -0.2185  0.3672 -0.0806
13896TIP3   OH241609   0.068   4.948   2.739 -0.0967 -0.0392 -0.4662
13896TIP3    H141610  -0.020   4.928   2.771 -1.1803  0.7211 -2.7814
13896TIP3    H241611   0.094   5.026   2.788 -1.2587  0.4836 -0.6619
13897TIP3   OH241612   5.493   6.377   1.001  0.1407 -0.3505 -0.6219
13897TIP3    H141613   5.508   6.395   1.094  0.3814 -1.2640 -0.4744
13897TIP3    H241614   5.529   6.290   0.988  0.0753 -0.2412 -1.5720
13898TIP3   OH241615   1.519   2.970   2.741  0.6510 -0.2537  0.0121
13898TIP3    H141616   1.459   3.003   2.674  0.5106  0.8519  0.6557
13898TIP3    H241617   1.581   2.915   2.693  0.1170 -0.0703 -0.9121
13899TIP3   OH241618   3.086   5.239   1.301 -0.5051 -0.5107 -0.0211
13899TIP3    H141619   3.002   5.280   1.281 -0.4135  0.1014  0.7831
13899TIP3    H241620   3.108   5.272   1.389  1.1396  0.2980 -0.6873
13900TIP3   OH241621   7.355   0.748   6.341  0.0524  0.4638 -0.3197
13900TIP3    H141622   7.300   0.749   6.262  0.7379 -0.9496 -0.8537
13900TIP3    H241623   7.405   0.829   6.336 -1.4750  1.4631 -0.1609
13901TIP3   OH241624   5.090   8.193   5.875 -0.3779  0.0348  0.5280
13901TIP3    H141625   5.041   8.126   5.922 -1.7656  0.3680 -0.3695
13901TIP3    H241626   5.026   8.263   5.860  0.9266  1.4057  1.1031
13902TIP3   OH241627   0.336   1.418   7.042  0.2087  0.4285  1.1075
13902TIP3    H141628   0.365   1.373   6.963  0.1522 -2.1017  2.4122
13902TIP3    H241629   0.281   1.490   7.010  0.5776 -0.2192 -1.1454
13903TIP3   OH241630   8.608   3.973   0.231 -0.4026  0.2935 -0.3946
13903TIP3    H141631   8.702   3.972   0.214 -0.4355  1.2093 -0.6945
13903TIP3    H241632   8.594   3.905   0.297  0.5068  0.3608 -0.1289
13904TIP3   OH241633   3.641   6.279   6.104 -0.6828 -0.1709 -0.4485
13904TIP3    H141634   3.683   6.335   6.038  0.4502 -1.0019 -0.4620
13904TIP3    H241635   3.688   6.196   6.098 -0.6257 -0.3046  1.3477
13905TIP3   OH241636   3.928   5.939   6.340 -0.8654  0.2985 -0.5703
13905TIP3    H141637   3.940   5.876   6.269 -2.6991 -1.3562  0.5115
13905TIP3    H241638   3.884   5.891   6.409  0.6567  1.9107  1.6818
13906TIP3   OH241639   0.905   3.482   6.944 -0.2396  0.3922 -0.0108
13906TIP3    H141640   0.942   3.428   7.013 -1.4584 -0.2900  0.1468
13906TIP3    H241641   0.853   3.547   6.990  0.7846  1.3824 -0.2238
13907TIP3   OH241642   8.628   4.698   7.088 -0.6413 -0.2559 -0.2768
13907TIP3    H141643   8.636   4.685   6.994 -2.0994  0.8657 -0.5955
13907TIP3    H241644   8.690   4.767   7.109 -0.5108 -0.3185 -0.4575
13908TIP3   OH241645   5.506   3.745   1.522  0.3874 -0.3991  0.2267
13908TIP3    H141646   5.558   3.707   1.593  0.7516  0.6937  0.5615
13908TIP3    H241647   5.561   3.814   1.485 -0.2190 -0.2502 -0.4338
13909TIP3   OH241648   4.794   6.966   2.903  0.0046  0.2511  0.5969
13909TIP3    H141649   4.723   6.972   2.967  1.1749 -2.0644  2.2412
13909TIP3    H241650   4.871   6.939   2.955  1.0506 -1.5629 -1.7202
13910TIP3   OH241651   5.307   2.673   5.745  0.5849 -0.3689 -0.1916
13910TIP3    H141652   5.303   2.768   5.761  2.6796 -0.1934 -0.4291
13910TIP3    H241653   5.269   2.662   5.658 -0.4915  0.1071  0.1927
13911TIP3   OH241654   4.475   3.446   4.276 -0.2324 -0.0971  0.2199
13911TIP3    H141655   4.559   3.463   4.319 -1.0666 -0.3131  2.0198
13911TIP3    H241656   4.493   3.373   4.216  0.8945 -0.0570  0.4911
13912TIP3   OH241657   2.074   2.063   7.040  0.0481  0.3072 -0.0463
13912TIP3    H141658   2.142   2.007   7.003  0.2426  0.6779 -0.2566
13912TIP3    H241659   2.003   2.003   7.063 -0.4223  0.1416 -1.7731
13913TIP3   OH241660   0.618   3.641   4.511  0.0942  0.2682  0.0411
13913TIP3    H141661   0.678   3.609   4.579 -0.8589 -0.4147  0.5912
13913TIP3    H241662   0.613   3.570   4.448  1.0702  0.9504 -0.8370
13914TIP3   OH241663   5.342   5.904   6.055  0.0869  0.2432 -0.2016
13914TIP3    H141664   5.434   5.919   6.031  0.2262  1.1184  0.8147
13914TIP3    H241665   5.322   5.974   6.117 -1.4130  0.3207 -0.7407
13915TIP3   OH241666   2.561   0.982   6.189 -0.6636  0.0376 -0.4733
13915TIP3    H141667   2.520   1.048   6.132 -0.0013  0.8876  0.0196
13915TIP3    H241668   2.637   0.953   6.139 -1.1150 -0.5946 -0.8188
13916TIP3   OH241669   2.134   3.413   5.876  0.4120  0.2209 -0.3894
13916TIP3    H141670   2.183   3.345   5.922  1.6703  0.7529 -0.8941
13916TIP3    H241671   2.086   3.459   5.945  2.0640  0.8408  0.3973
13917TIP3   OH241672   7.786   2.161   4.593  0.5360  0.1746 -0.1190
13917TIP3    H141673   7.831   2.179   4.676 -1.8192  0.3094  1.2233
13917TIP3    H241674   7.764   2.247   4.558  0.0443  0.1062  0.0077
13918TIP3   OH241675   6.040   3.616   1.158 -0.2181 -0.0148  0.1561
13918TIP3    H141676   5.973   3.663   1.108 -0.0180  0.0326 -0.0724
13918TIP3    H241677   6.048   3.532   1.114 -2.0134 -1.1077  1.7473
13919TIP3   OH241678   6.158   3.415   0.306 -0.4535  0.4682 -0.3220
13919TIP3    H141679   6.084   3.373   0.350 -0.2778  0.4095 -0.0848
13919TIP3    H241680   6.119   3.454   0.227 -0.2489 -2.1443 -1.8349
13920TIP3   OH241681   0.582   6.705   4.712  0.9646  0.9561 -0.5194
13920TIP3    H141682   0.514   6.640   4.694 -0.1400  1.0870  2.6181
13920TIP3    H241683   0.541   6.789   4.690 -0.1852  1.0756  1.7793
13921TIP3   OH241684   8.150   2.467   5.043  0.5920 -0.5294 -0.5251
13921TIP3    H141685   8.224   2.521   5.069  0.4964  0.1564 -1.6028
13921TIP3    H241686   8.076   2.528   5.040  0.1614 -1.0345 -0.2814
13922TIP3   OH241687   3.128   0.901   0.612  0.0789  0.3070 -0.0081
13922TIP3    H141688   3.046   0.906   0.562  0.9620 -0.3301 -1.5995
13922TIP3    H241689   3.120   0.820   0.662  0.0296 -0.1792 -0.7698
13923TIP3   OH241690   0.659   6.062   1.608  0.2345  0.4507  0.0774
13923TIP3    H141691   0.714   5.984   1.615  1.7278  1.4267 -0.2530
13923TIP3    H241692   0.582   6.042   1.662  0.4089 -1.3619 -0.2746
13924TIP3   OH241693   4.278   7.176   0.432 -0.2870 -0.0137 -0.1896
13924TIP3    H141694   4.311   7.167   0.343 -1.4835  0.2855 -0.6803
13924TIP3    H241695   4.331   7.246   0.470 -0.2640  0.3821 -0.9244
13925TIP3   OH241696   5.444   1.876   3.269 -0.1123 -0.0762 -0.4327
13925TIP3    H141697   5.396   1.793   3.272  0.4577 -0.3897  0.5859
13925TIP3    H241698   5.376   1.943   3.261 -0.7970 -0.4778  1.4722
13926TIP3   OH241699   3.915   1.758   5.447 -0.3895 -0.7383 -0.2129
13926TIP3    H141700   4.003   1.762   5.485  0.0250 -0.3685 -1.1794
13926TIP3    H241701   3.929   1.722   5.359 -0.8278  1.8404 -1.4339
13927TIP3   OH241702   6.388   4.089   5.704 -0.0685  0.1527  0.2117
13927TIP3    H141703   6.373   4.119   5.794 -1.2104 -0.0634  0.1095
13927TIP3    H241704   6.312   4.122   5.655 -0.2265 -1.0012 -0.3531
13928TIP3   OH241705   0.509   3.551   2.860  0.2635  1.0894 -0.5111
13928TIP3    H141706   0.494   3.530   2.768 -0.8501  1.1111 -0.3471
13928TIP3    H241707   0.495   3.645   2.867 -2.2657  0.7280  0.1292
13929TIP3   OH241708   1.873   1.472   5.041 -0.0844  0.2534  0.0220
13929TIP3    H141709   1.944   1.533   5.020 -0.0700  0.3669  0.3903
13929TIP3    H241710   1.917   1.392   5.070 -0.0950  0.7634  1.5105
13930TIP3   OH241711   6.788   3.379   0.046  0.9450  0.1506  0.1816
13930TIP3    H141712   6.739   3.381  -0.035  0.4360 -1.0740  0.4318
13930TIP3    H241713   6.747   3.309   0.098  2.0944 -0.0094  0.9373
13931TIP3   OH241714   5.401   4.609   2.229 -0.1268 -0.2968  0.2799
13931TIP3    H141715   5.475   4.563   2.190  1.5483  2.2528  0.2104
13931TIP3    H241716   5.438   4.657   2.303 -1.8167  0.6401  0.5914
13932TIP3   OH241717   4.214   3.974   4.645  0.0064 -0.4744  0.2946
13932TIP3    H141718   4.238   3.884   4.620  4.5202  0.7331 -0.4673
13932TIP3    H241719   4.177   4.011   4.565  0.9541 -0.7926 -0.3026
13933TIP3   OH241720   1.557   7.807   5.610  0.2898 -0.4341 -0.0128
13933TIP3    H141721   1.555   7.726   5.661 -0.5651 -1.6863 -1.9467
13933TIP3    H241722   1.650   7.826   5.598  0.5009 -1.3456  0.1172
13934TIP3   OH241723   0.441   1.931   1.372  0.0549 -0.0513 -0.4212
13934TIP3    H141724   0.366   1.894   1.418  1.3023  0.2452  1.9929
13934TIP3    H241725   0.448   2.021   1.404  2.8400 -0.8001  1.3816
13935TIP3   OH241726   5.348   8.082   1.936 -0.2264  0.0916 -0.2562
13935TIP3    H141727   5.302   7.997   1.935 -3.9006  1.7379 -4.1534
13935TIP3    H241728   5.431   8.064   1.893  0.7735 -2.0762  2.2899
13936TIP3   OH241729   4.624   2.777   3.810 -0.7356  0.0324 -0.1139
13936TIP3    H141730   4.693   2.742   3.868 -1.1103 -0.1000  0.2548
13936TIP3    H241731   4.570   2.701   3.790 -1.1014  0.2465  0.0555
13937TIP3   OH241732   1.279   3.065   4.139 -0.3046 -0.0818  0.3257
13937TIP3    H141733   1.311   3.050   4.050  1.5318 -0.6784  1.0392
13937TIP3    H241734   1.201   3.120   4.128 -0.6131 -0.8494 -1.6823
13938TIP3   OH241735   8.179   7.373   6.476 -0.2223 -0.2661  0.4842
13938TIP3    H141736   8.253   7.336   6.524  0.2329  0.5199  0.4014
13938TIP3    H241737   8.165   7.312   6.404 -0.0349 -0.7291  0.8300
13939TIP3   OH241738   5.177   1.217   6.634 -0.0417  0.3317  0.1576
13939TIP3    H141739   5.205   1.131   6.602 -0.9035 -0.1890  0.7618
13939TIP3    H241740   5.259   1.267   6.642  0.7495 -1.1231  1.8439
13940TIP3   OH241741   0.794   2.071   1.007 -0.7105 -0.6368  0.0830
13940TIP3    H141742   0.884   2.042   1.021 -0.5145  0.4575  1.4469
13940TIP3    H241743   0.754   2.003   0.954  1.1181 -0.8052 -1.1622
13941TIP3   OH241744   3.805   8.053   2.340  0.0283  0.4173  0.2727
13941TIP3    H141745   3.856   8.088   2.413  0.5240 -0.7041  0.4869
13941TIP3    H241746   3.729   8.012   2.382  1.2802 -1.9549  0.3849
13942TIP3   OH241747   8.648   3.340   6.567 -0.2222 -1.1087  0.3408
13942TIP3    H141748   8.650   3.422   6.518  0.4254 -1.7256 -0.6916
13942TIP3    H241749   8.602   3.362   6.648  0.2711  0.3629  0.2494
13943TIP3   OH241750   5.381   7.386   4.584 -0.3171  1.0652 -0.0897
13943TIP3    H141751   5.377   7.480   4.603  1.0938  1.0680  0.3117
13943TIP3    H241752   5.435   7.349   4.654 -1.0875 -0.1094 -0.0743
13944TIP3   OH241753   0.183   2.067   1.503 -0.6764  0.1166 -0.6271
13944TIP3    H141754   0.140   2.142   1.460 -1.8235 -0.8933 -1.2937
13944TIP3    H241755   0.269   2.101   1.529 -0.8598  1.4392 -1.6319
13945TIP3   OH241756   1.495   4.293   0.462  0.5339  0.5536  0.0946
13945TIP3    H141757   1.426   4.359   0.473 -0.6416 -0.6452  0.1733
13945TIP3    H241758   1.503   4.253   0.548  1.2134  0.5530  0.0346
13946TIP3   OH241759   7.244   4.290   1.718  0.2767  0.0753 -0.0062
13946TIP3    H141760   7.169   4.350   1.718 -0.3353 -0.6100  1.9634
13946TIP3    H241761   7.205   4.204   1.702  0.8319 -0.1238 -0.2959
13947TIP3   OH241762   1.688   2.940   1.665 -0.2722  0.0947  0.5028
13947TIP3    H141763   1.646   3.023   1.644  1.3795  1.2455  1.5542
13947TIP3    H241764   1.745   2.922   1.590  0.7656  0.8798  1.0930
13948TIP3   OH241765   2.211   2.053   2.495  0.4990  0.2725 -0.5707
13948TIP3    H141766   2.126   2.058   2.450  0.3890 -0.0773 -0.4119
13948TIP3    H241767   2.218   1.961   2.520  0.6503  0.4251 -0.0475
13949TIP3   OH241768   4.117   4.973   4.274  0.1153  0.5269 -0.2957
13949TIP3    H141769   4.072   4.919   4.208  1.3414  0.5915 -1.2377
13949TIP3    H241770   4.093   5.062   4.252  0.8262  0.5781 -0.9437
13950TIP3   OH241771   5.504   5.060   0.279  0.3000 -0.4008  0.3652
13950TIP3    H141772   5.411   5.039   0.289 -0.4516 -0.3337 -4.2832
13950TIP3    H241773   5.547   4.976   0.268  0.1379 -0.3137 -1.0853
13951TIP3   OH241774   5.320   5.167   5.663  0.0445 -0.0401  0.0968
13951TIP3    H141775   5.405   5.152   5.622 -0.7533  0.0401 -1.6634
13951TIP3    H241776   5.319   5.107   5.737  0.8064 -1.5587 -1.0695
13952TIP3   OH241777   1.318   1.740   2.425 -0.2924  0.0345  0.4716
13952TIP3    H141778   1.269   1.821   2.446  0.1394  1.0797 -2.2072
13952TIP3    H241779   1.250   1.676   2.405 -0.6049  0.1802  1.0233
13953TIP3   OH241780   5.674   7.197   1.084 -0.2637 -0.0737  0.2316
13953TIP3    H141781   5.698   7.158   1.000 -0.1065 -1.3489  0.8606
13953TIP3    H241782   5.596   7.149   1.112 -0.7567  0.8324  0.4883
13954TIP3   OH241783   5.883   2.723   6.383 -0.7008 -0.1609 -0.0998
13954TIP3    H141784   5.879   2.723   6.287  1.0037  0.5959 -0.1983
13954TIP3    H241785   5.791   2.730   6.410 -1.2837 -1.2278 -1.6458
13955TIP3   OH241786   3.862   0.084   5.463  0.4485 -0.2732 -0.5718
13955TIP3    H141787   3.845   0.063   5.371  1.0855 -0.0625 -0.7370
13955TIP3    H241788   3.957   0.079   5.472  0.3347 -1.3897  0.3368
13956TIP3   OH241789   3.474   1.278   3.720  0.4211 -0.4138 -0.1414
13956TIP3    H141790   3.503   1.193   3.687  1.2516  0.4974 -1.9105
13956TIP3    H241791   3.419   1.314   3.650 -2.0234 -0.4962  1.6069
13957TIP3   OH241792   7.028   4.418   2.570 -0.4158  0.0272  0.2859
13957TIP3    H141793   7.051   4.327   2.588 -0.8049 -0.4769 -1.5773
13957TIP3    H241794   6.948   4.433   2.621  0.3834 -0.2349  1.6479
13958TIP3   OH241795   5.995   0.553   3.726 -0.0811  0.0945  0.1499
13958TIP3    H141796   5.900   0.551   3.724 -0.0968  0.0321  0.9312
13958TIP3    H241797   6.017   0.642   3.753  0.1107  0.4935 -1.2420
13959TIP3   OH241798   7.856   2.342   2.442  0.3092 -0.0624  0.3543
13959TIP3    H141799   7.903   2.408   2.391  0.6410 -1.6095 -1.4337
13959TIP3    H241800   7.925   2.288   2.481  0.0498 -0.9504 -0.3863
13960TIP3   OH241801   2.517   2.186   1.026 -0.0433  0.1766 -0.0789
13960TIP3    H141802   2.585   2.239   0.984  1.5470 -2.2556 -0.7968
13960TIP3    H241803   2.550   2.170   1.114 -1.0522  1.2512  0.5155
13961TIP3   OH241804   3.951   1.752   4.960  0.1080 -0.4087  0.2665
13961TIP3    H141805   3.962   1.769   4.867  1.1311  0.9744  0.6030
13961TIP3    H241806   3.915   1.663   4.965  2.5321 -1.5951 -1.3611
13962TIP3   OH241807   1.065   5.315   5.036 -0.4399  0.2329 -1.6277
13962TIP3    H141808   1.092   5.310   5.128  2.5307  1.7893 -2.3084
13962TIP3    H241809   1.016   5.397   5.029 -1.7577 -0.4881 -1.2533
13963TIP3   OH241810   1.297   3.295   7.035  0.2397  0.2240 -0.0299
13963TIP3    H141811   1.349   3.372   7.056 -0.3407  0.8399 -0.7979
13963TIP3    H241812   1.272   3.307   6.943  1.0562 -1.4094 -0.5125
13964TIP3   OH241813   7.224   3.854   6.755  0.7068  0.2678  0.2686
13964TIP3    H141814   7.132   3.834   6.736  1.1003 -1.2153 -0.1544
13964TIP3    H241815   7.230   3.849   6.851  0.2385  0.9767  0.3492
13965TIP3   OH241816   4.313   7.419   4.591  0.3146  0.2056 -0.5882
13965TIP3    H141817   4.324   7.505   4.632  0.3207  0.9020 -1.9692
13965TIP3    H241818   4.232   7.385   4.629  0.9778  0.2405  0.9127
13966TIP3   OH241819   3.245   3.246   5.275 -0.6142 -0.0673  0.0588
13966TIP3    H141820   3.307   3.300   5.325 -0.6355  0.5969 -0.6107
13966TIP3    H241821   3.218   3.302   5.202 -0.2339 -1.1629 -0.9662
13967TIP3   OH241822   2.871   5.068   5.638  0.0470  0.1663 -0.3908
13967TIP3    H141823   2.894   4.990   5.586 -0.4091  0.1801 -0.6210
13967TIP3    H241824   2.942   5.130   5.619 -0.6067  0.5327 -1.7891
13968TIP3   OH241825   1.375   5.319   1.006 -0.0475  0.1033  0.5570
13968TIP3    H141826   1.396   5.271   0.926 -0.8260  0.2663  0.2355
13968TIP3    H241827   1.338   5.253   1.065  0.8998 -0.0940  0.9460
13969TIP3   OH241828   7.022   7.354   2.929  0.0281 -0.2652 -0.5338
13969TIP3    H141829   6.983   7.441   2.918 -0.2376 -0.2175  0.6839
13969TIP3    H241830   6.957   7.294   2.893 -0.0504 -0.0061 -0.8352
13970TIP3   OH241831   6.267   5.792   3.246 -0.0479 -0.1780  0.1495
13970TIP3    H141832   6.175   5.789   3.218 -0.1898  2.0528  0.1869
13970TIP3    H241833   6.266   5.850   3.322  1.1666 -1.5835  1.2911
13971TIP3   OH241834   6.273   2.388   2.271 -0.0006 -0.1995  0.1573
13971TIP3    H141835   6.366   2.378   2.294 -0.5090 -1.7061  1.7716
13971TIP3    H241836   6.243   2.300   2.253 -1.3424  0.1530  0.5835
13972TIP3   OH241837   1.696   2.331   4.039 -0.6526  0.0616  0.2016
13972TIP3    H141838   1.704   2.388   3.963 -0.6660  0.1490  0.2662
13972TIP3    H241839   1.751   2.255   4.018  0.3382  0.6455  0.6339
13973TIP3   OH241840   2.545   5.266   2.783  0.0496 -0.0925  0.3282
13973TIP3    H141841   2.535   5.225   2.869 -0.8239  1.0816  0.8019
13973TIP3    H241842   2.585   5.351   2.801 -1.4317  0.7650 -0.2501
13974TIP3   OH241843   1.907   3.183   6.512 -0.4973 -0.2040 -0.0531
13974TIP3    H141844   1.909   3.177   6.607  0.7840  2.7298  0.2214
13974TIP3    H241845   1.988   3.140   6.483 -2.1771 -3.5895 -0.1649
13975TIP3   OH241846   3.082   5.050   3.401 -0.0178  0.1355  0.4313
13975TIP3    H141847   3.160   5.059   3.346 -2.1841 -1.4961 -3.2982
13975TIP3    H241848   3.096   4.968   3.449  1.0509  0.5031  0.7741
13976TIP3   OH241849   6.461   3.452   1.719  0.1309 -0.2233  0.1863
13976TIP3    H141850   6.435   3.375   1.770 -1.4022  1.1573  1.5977
13976TIP3    H241851   6.451   3.525   1.780  4.1723  0.8950 -0.2288
13977TIP3   OH241852   7.989   2.641   1.395  0.4077 -0.4106  0.2723
13977TIP3    H141853   7.996   2.730   1.428 -1.0351  0.1532 -0.8230
13977TIP3    H241854   7.994   2.650   1.300 -1.0488 -1.3274  0.0744
13978TIP3   OH241855   1.589   6.424   2.780  0.0201 -0.2492  0.0312
13978TIP3    H141856   1.569   6.507   2.823 -0.5676 -0.4397  0.1379
13978TIP3    H241857   1.521   6.365   2.811 -0.1931 -0.4852 -0.8780
13979TIP3   OH241858   6.137   2.540   6.086  0.0938  0.1173 -0.1781
13979TIP3    H141859   6.093   2.570   6.165  1.2576  1.0891  0.1265
13979TIP3    H241860   6.067   2.536   6.020 -0.4343  1.8911  0.2056
13980TIP3   OH241861   1.761   4.492   4.118 -0.0548  0.0099 -0.0451
13980TIP3    H141862   1.779   4.585   4.104  1.0001 -0.0385  0.8202
13980TIP3    H241863   1.675   4.478   4.080 -0.9442  1.6971  1.2449
13981TIP3   OH241864   5.813   2.632   2.162 -0.1216 -0.0426  0.5268
13981TIP3    H141865   5.843   2.558   2.110  0.1138  0.8049 -0.6063
13981TIP3    H241866   5.722   2.612   2.182 -0.2045 -0.4152 -0.1862
13982TIP3   OH241867   3.269   8.056   2.191  0.4128  0.3388  0.0737
13982TIP3    H141868   3.271   7.966   2.221  1.5409  0.1623 -0.4876
13982TIP3    H241869   3.325   8.057   2.113  1.0820  1.6829  0.5453
13983TIP3   OH241870   5.156   0.179   3.959  0.5489  0.1288  0.5264
13983TIP3    H141871   5.129   0.244   4.023 -2.1916  1.5434 -1.8264
13983TIP3    H241872   5.214   0.227   3.899  1.6634 -0.6971  0.9094
13984TIP3   OH241873   6.086   7.746   0.100  0.0994  0.3560 -0.1571
13984TIP3    H141874   6.113   7.672   0.046  0.2880 -0.1715  0.6290
13984TIP3    H241875   6.147   7.744   0.174 -1.4439 -0.2683  1.1753
13985TIP3   OH241876   5.871   6.531   1.033  0.2666  0.1728 -0.3515
13985TIP3    H141877   5.919   6.468   1.085 -0.0409  0.1660 -0.0734
13985TIP3    H241878   5.843   6.483   0.955 -1.5721 -0.5754  0.7073
13986TIP3   OH241879   4.077   2.878   4.676  0.0166  0.8897  0.4926
13986TIP3    H141880   4.019   2.803   4.695 -0.5173  1.0546 -0.4313
13986TIP3    H241881   4.026   2.955   4.702  0.5451  0.9445  1.3918
13987TIP3   OH241882   6.748   2.915   6.454 -0.0664  0.3221  0.1921
13987TIP3    H141883   6.657   2.946   6.450 -0.7290 -1.3555  1.2470
13987TIP3    H241884   6.774   2.929   6.545  0.6869  0.6276 -0.0625
13988TIP3   OH241885   1.270   6.809   5.563 -0.4932 -0.3820 -0.3640
13988TIP3    H141886   1.315   6.847   5.639  0.3127 -2.1036  0.0517
13988TIP3    H241887   1.183   6.785   5.596  0.4545 -2.7769  0.5658
13989TIP3   OH241888   7.854   1.753   1.275 -0.3203 -0.0722  0.4353
13989TIP3    H141889   7.851   1.658   1.264 -2.0678 -0.2977  2.3449
13989TIP3    H241890   7.762   1.780   1.279  0.1123  1.8924 -1.0950
13990TIP3   OH241891   7.623   3.786   5.416  0.3181 -0.2259  0.4430
13990TIP3    H141892   7.562   3.745   5.478 -0.1854 -1.0012 -0.5371
13990TIP3    H241893   7.699   3.728   5.415 -0.5858 -1.4805 -1.2971
13991TIP3   OH241894   2.507   1.731   0.511 -0.6953 -0.1931 -0.6916
13991TIP3    H141895   2.510   1.826   0.517 -1.9319 -0.2133  1.1136
13991TIP3    H241896   2.432   1.713   0.454 -1.1830 -0.0718 -0.1007
13992TIP3   OH241897   3.607   1.046   0.300 -0.2168 -0.2388 -0.3020
13992TIP3    H141898   3.537   1.047   0.365 -1.1316 -0.4861 -1.2658
13992TIP3    H241899   3.670   0.982   0.334  0.5335  1.3969  1.5502
13993TIP3   OH241900   7.881   2.858   6.346 -0.0032  0.3774  0.3460
13993TIP3    H141901   7.965   2.904   6.352 -0.4171  1.0852  0.9340
13993TIP3    H241902   7.902   2.766   6.363  0.8605  0.3165 -0.9413
13994TIP3   OH241903   6.932   4.995   2.854 -0.0835  0.1501  0.5423
13994TIP3    H141904   6.880   5.009   2.775  2.8272  2.3228 -1.1636
13994TIP3    H241905   6.925   5.077   2.903  0.8011  0.0502  0.8578
13995TIP3   OH241906   3.164   6.966   0.460  0.3421  0.4605 -0.2676
13995TIP3    H141907   3.088   6.934   0.410  0.5112  2.7553 -2.1882
13995TIP3    H241908   3.127   6.995   0.543 -0.9174  1.3826 -1.1006
13996TIP3   OH241909   6.487   2.303   6.760 -0.4370 -0.2777 -0.3944
13996TIP3    H141910   6.521   2.392   6.761  0.5590 -0.5652 -2.2935
13996TIP3    H241911   6.528   2.260   6.835 -2.5542  1.3361  1.8111
13997TIP3   OH241912   1.714   8.121   6.031 -0.4182 -0.4803 -0.1545
13997TIP3    H141913   1.632   8.170   6.029 -0.6469 -0.8792 -1.6980
13997TIP3    H241914   1.694   8.043   6.084 -1.9035 -1.9540 -2.6960
13998TIP3   OH241915   5.112   5.175   3.715  0.3110  0.3373 -0.6508
13998TIP3    H141916   5.056   5.233   3.767  0.5294 -0.6220  0.7046
13998TIP3    H241917   5.065   5.092   3.713  2.1024 -0.8677  1.5284
13999TIP3   OH241918   3.257   1.483   1.685  0.1275  0.3138 -0.0636
13999TIP3    H141919   3.225   1.566   1.650  1.2713  1.4344  1.4006
13999TIP3    H241920   3.319   1.508   1.753  0.4056 -1.7593  0.5232
14000TIP3   OH241921   5.793   4.831   4.482  0.1943  0.4538  0.4275
14000TIP3    H141922   5.716   4.861   4.532 -1.2055 -1.5442 -0.4093
14000TIP3    H241923   5.777   4.738   4.466  2.3104  0.2177 -0.7032
14001TIP3   OH241924   7.565   5.267   4.441 -0.4552 -0.6657  0.4998
14001TIP3    H141925   7.506   5.338   4.467  0.9857  0.7169  0.1592
14001TIP3    H241926   7.513   5.214   4.381 -1.3084  0.5980  0.0687
14002TIP3   OH241927   6.716   1.943   2.300  0.1983  0.0579 -0.3938
14002TIP3    H141928   6.690   1.873   2.359 -0.1772  0.2191 -0.3700
14002TIP3    H241929   6.635   1.988   2.277  0.4409  0.5056 -0.3875
14003TIP3   OH241930   8.675   7.820   1.467  0.0449  0.0955 -0.2776
14003TIP3    H141931   8.640   7.868   1.541 -0.3502  0.5563 -0.7550
14003TIP3    H241932   8.706   7.737   1.504 -1.3470 -0.2334  0.1807
14004TIP3   OH241933   4.206   4.271   3.506  0.4279 -0.0461 -0.7322
14004TIP3    H141934   4.263   4.278   3.429  0.3615 -2.4696 -1.0708
14004TIP3    H241935   4.179   4.179   3.508  0.3790 -0.0633  2.1757
14005TIP3   OH241936   1.265   7.877   2.648  0.0003  0.0748 -0.4582
14005TIP3    H141937   1.229   7.932   2.718 -1.0557  0.3104 -1.1691
14005TIP3    H241938   1.289   7.939   2.579 -0.2103 -0.2704 -0.8452
14006TIP3   OH241939   1.477   5.751   5.409  0.2333 -0.3476  0.4950
14006TIP3    H141940   1.427   5.813   5.462  0.4146  0.1398  0.1033
14006TIP3    H241941   1.567   5.760   5.440  0.1795 -0.8056  0.8004
14007TIP3   OH241942   5.217   5.615   5.679 -0.0187  0.3400 -0.1538
14007TIP3    H141943   5.166   5.540   5.649 -0.6776  0.5847  0.3417
14007TIP3    H241944   5.166   5.653   5.750  0.6814  0.8060  0.1172
14008TIP3   OH241945   3.012   8.135   4.271  0.4769 -0.8377  1.0259
14008TIP3    H141946   3.036   8.111   4.181  0.9331  2.3352  0.1951
14008TIP3    H241947   3.093   8.165   4.311  0.1372 -1.5577  2.3000
14009TIP3   OH241948   2.100   3.405   4.298 -0.2122  0.1533 -0.6278
14009TIP3    H141949   2.127   3.316   4.279  1.5085  0.3598  0.6215
14009TIP3    H241950   2.139   3.458   4.228  0.4567  0.1352 -0.2788
14010TIP3   OH241951   7.000   0.688   6.096 -0.4061  0.2118 -0.2729
14010TIP3    H141952   6.912   0.678   6.061 -0.2951  0.2171 -0.5567
14010TIP3    H241953   7.051   0.725   6.024 -1.1315  4.4072  1.1365
14011TIP3   OH241954   7.605   0.840   5.422  0.5716  0.2364  0.0311
14011TIP3    H141955   7.510   0.843   5.411  0.5582 -0.4734 -0.0945
14011TIP3    H241956   7.639   0.854   5.333  0.5988  0.9378  0.1466
14012TIP3   OH241957   3.917   7.143   1.427  0.6640  0.3692 -0.2811
14012TIP3    H141958   3.955   7.231   1.426  0.6507  0.3986  0.5429
14012TIP3    H241959   3.991   7.085   1.409  0.8928  0.4898  0.2520
14013TIP3   OH241960   1.163   5.474   2.099 -0.0581  0.1673 -0.1963
14013TIP3    H141961   1.169   5.379   2.092 -0.3201 -0.0601  1.9919
14013TIP3    H241962   1.083   5.490   2.148 -1.3480  1.6889 -2.6188
14014TIP3   OH241963   7.187   3.629   4.029  0.0246  0.1208 -0.3093
14014TIP3    H141964   7.259   3.567   4.036 -0.7217 -0.8698 -1.0733
14014TIP3    H241965   7.158   3.643   4.119 -1.8020 -3.1206 -0.2468
14015TIP3   OH241966   6.438   7.220   4.360  0.1448  0.0059 -0.2492
14015TIP3    H141967   6.478   7.267   4.287 -1.2933 -0.0265 -1.0787
14015TIP3    H241968   6.364   7.274   4.386  0.7905  0.1597  1.3992
14016TIP3   OH241969   8.269   4.758   5.929  0.2853 -0.0248  0.1266
14016TIP3    H141970   8.182   4.793   5.909  1.1866  1.0358 -2.4831
14016TIP3    H241971   8.272   4.675   5.883  0.3433 -0.5332  1.0322
14017TIP3   OH241972   7.557   0.466   1.463  0.3183 -0.0434 -0.0568
14017TIP3    H141973   7.468   0.469   1.428  0.2820 -0.1358  0.0288
14017TIP3    H241974   7.601   0.542   1.424  0.2021  0.0014 -0.0994
14018TIP3   OH241975   3.593   3.765   0.605  0.1611 -0.2543  0.4748
14018TIP3    H141976   3.519   3.712   0.574 -1.4669  1.3398  1.4196
14018TIP3    H241977   3.636   3.711   0.671 -0.8656 -0.7891  0.7268
14019TIP3   OH241978   3.931   2.256   4.922  0.3613 -0.5743 -0.5184
14019TIP3    H141979   3.850   2.286   4.880 -0.3345 -0.9432  0.5135
14019TIP3    H241980   3.992   2.329   4.913 -0.3065 -0.0378 -0.7277
14020TIP3   OH241981   7.488   5.977   6.963 -0.5253 -0.1295  0.1944
14020TIP3    H141982   7.414   6.037   6.976  0.4168  1.3508 -0.9486
14020TIP3    H241983   7.493   5.965   6.869  0.9970  0.2126  0.2132
14021TIP3   OH241984   7.030   5.080   6.038 -0.6715  0.0649 -0.2523
14021TIP3    H141985   6.948   5.045   6.004 -0.3144 -1.4672  0.3972
14021TIP3    H241986   7.097   5.044   5.980 -0.3401  0.1322  0.0886
14022TIP3   OH241987   2.750   6.498   0.005  0.1444  0.2762  0.0513
14022TIP3    H141988   2.840   6.529   0.016  0.2166 -0.1793  0.7586
14022TIP3    H241989   2.696   6.573   0.030  0.3192 -0.1779  1.8957
14023TIP3   OH241990   3.219   2.879   3.914 -0.1934 -0.6667  0.2691
14023TIP3    H141991   3.222   2.884   4.010  0.3238 -2.5144  0.3850
14023TIP3    H241992   3.274   2.804   3.892 -1.1246 -0.9012 -1.4260
14024TIP3   OH241993   7.939   7.535   0.927 -0.5700 -0.2751  0.4195
14024TIP3    H141994   7.883   7.462   0.903 -0.6949 -0.1176  0.2255
14024TIP3    H241995   7.933   7.596   0.853 -0.4610 -0.0730  0.5736
14025TIP3   OH241996   0.150   7.200   0.300 -0.3554 -0.3004  0.1604
14025TIP3    H141997   0.151   7.221   0.394 -3.0456 -0.0266  0.1898
14025TIP3    H241998   0.185   7.111   0.296 -2.5034 -1.3280  1.8003
14026TIP3   OH241999   3.138   6.379   1.707  0.1383  0.2021  0.1639
14026TIP3    H142000   3.144   6.353   1.615  0.1424  1.3733 -0.1820
14026TIP3    H242001   3.205   6.447   1.716  1.4788 -1.2147  1.5227
14027TIP3   OH242002   4.489   2.905   1.745 -0.0754 -0.4286  0.5708
14027TIP3    H142003   4.418   2.947   1.697 -0.9827 -2.2680  0.2074
14027TIP3    H242004   4.529   2.845   1.681  2.5833  1.3080  0.4167
14028TIP3   OH242005   5.798   5.708   2.274 -0.0415 -0.1076  0.5782
14028TIP3    H142006   5.744   5.648   2.326 -1.1957  0.3552 -0.0406
14028TIP3    H242007   5.884   5.706   2.316 -0.6610 -0.5216  1.8874
14029TIP3   OH242008   2.557   6.194   3.689  0.2609  0.2155  0.4557
14029TIP3    H142009   2.643   6.231   3.706  0.7824  0.4629 -2.2799
14029TIP3    H242010   2.570   6.099   3.693  0.1824  0.2480  1.9500
14030TIP3   OH242011   6.942   3.196   3.665  0.6735  0.0199  0.5339
14030TIP3    H142012   6.857   3.181   3.623  0.9679  0.6932 -0.3318
14030TIP3    H242013   6.927   3.174   3.757  0.1426 -1.9697  0.0181
14031TIP3   OH242014   0.391   0.441   0.173 -0.6197 -0.6038  0.2949
14031TIP3    H142015   0.459   0.374   0.181 -0.7554 -0.9387 -1.1475
14031TIP3    H242016   0.318   0.398   0.129 -1.2787  0.1050  0.6559
14032TIP3   OH242017   1.747   3.694   2.083  0.3573 -0.0006 -0.0142
14032TIP3    H142018   1.836   3.681   2.116  1.0800  0.3280 -1.7161
14032TIP3    H242019   1.704   3.609   2.094  0.9517 -0.2256  0.6241
14033TIP3   OH242020   7.465   7.891   5.581 -0.0105  0.4478  0.2877
14033TIP3    H142021   7.415   7.815   5.610 -0.6765  0.2163 -1.3503
14033TIP3    H242022   7.398   7.952   5.549  0.6738  0.1087 -1.9907
14034TIP3   OH242023   5.570   4.800   0.368 -0.1276 -0.2692 -0.4790
14034TIP3    H142024   5.658   4.804   0.330 -0.2662 -0.9716 -0.8963
14034TIP3    H242025   5.554   4.707   0.384  0.1156  0.0279  1.8236
14035TIP3   OH242026   3.325   4.176   4.529  0.1291  0.2250  0.1300
14035TIP3    H142027   3.378   4.097   4.519  2.3256  1.5951  0.3158
14035TIP3    H242028   3.339   4.225   4.448 -0.5001  0.8309  0.3817
14036TIP3   OH242029   2.192   0.249   3.694 -0.1373  0.0206 -0.4653
14036TIP3    H142030   2.160   0.166   3.730  2.4055 -0.9084 -0.1214
14036TIP3    H242031   2.190   0.310   3.768 -0.2122 -0.3016 -0.2001
14037TIP3   OH242032   5.648   5.209   1.147 -0.3416 -0.1447  0.0330
14037TIP3    H142033   5.645   5.169   1.234  0.8278 -1.4026 -0.4721
14037TIP3    H242034   5.630   5.137   1.086  0.2468  0.4086 -0.8279
14038TIP3   OH242035   1.037   1.792   6.711 -0.0571  0.5634 -0.1243
14038TIP3    H142036   1.083   1.873   6.734  0.2692  0.6039 -0.8703
14038TIP3    H242037   1.044   1.737   6.789 -1.0302  1.5676  0.7043
14039TIP3   OH242038   2.791   2.738   5.147  0.1513  0.8327 -0.0267
14039TIP3    H142039   2.834   2.745   5.062  0.4259 -0.3125 -0.0038
14039TIP3    H242040   2.862   2.718   5.208  0.0616  2.3383  0.6131
14040TIP3   OH242041   6.892   2.940   6.721  0.0924 -0.0570  0.1573
14040TIP3    H142042   6.970   2.908   6.676 -1.2252 -0.8806 -1.6629
14040TIP3    H242043   6.926   2.981   6.801  2.2475 -1.7417  0.2102
14041TIP3   OH242044   6.874   0.957   0.663 -0.6280 -0.3836 -0.4801
14041TIP3    H142045   6.780   0.940   0.661 -0.8731  0.8234 -2.4952
14041TIP3    H242046   6.913   0.880   0.620 -0.8153 -0.3210 -0.7642
14042TIP3   OH242047   2.591   1.652   4.692  0.2755 -0.6839  0.0561
14042TIP3    H142048   2.602   1.634   4.785 -1.6593  3.9250  1.4846
14042TIP3    H242049   2.666   1.707   4.669 -1.3740  1.8014  0.2464
14043TIP3   OH242050   3.246   2.201   6.064 -0.0882 -0.8625 -0.3554
14043TIP3    H142051   3.158   2.208   6.028  0.6846 -0.4181 -2.2559
14043TIP3    H242052   3.298   2.163   5.993  1.2386 -1.2306  0.7758
14044TIP3   OH242053   1.070   4.624   1.735  0.0071  0.4201 -0.4030
14044TIP3    H142054   1.134   4.580   1.791 -1.2512  1.4646  1.9996
14044TIP3    H242055   1.117   4.699   1.700  0.5981  0.1908 -0.1227
14045TIP3   OH242056   8.599   2.379   3.561 -0.0229  0.0569 -0.0251
14045TIP3    H142057   8.512   2.366   3.600  0.3393  1.4985  1.3629
14045TIP3    H242058   8.643   2.295   3.571 -1.3012 -0.7640 -0.9431
14046TIP3   OH242059   7.878   6.056   6.693  0.1874 -0.9395  0.1947
14046TIP3    H142060   7.923   6.014   6.766 -2.3355 -0.6844  2.0330
14046TIP3    H242061   7.921   6.141   6.685 -1.4769  0.4426  3.7031
14047TIP3   OH242062   5.958   8.108   4.326  0.0413  0.3699 -0.0077
14047TIP3    H142063   5.901   8.148   4.391 -0.1800  0.3548 -0.1903
14047TIP3    H242064   6.045   8.110   4.365 -0.0319  0.6890  0.1393
14048TIP3   OH242065   8.100   5.065   0.944  0.5427  0.0169 -0.5741
14048TIP3    H142066   8.039   5.138   0.937  1.0481  0.3356 -1.7643
14048TIP3    H242067   8.082   5.011   0.867  1.2362 -0.3021 -0.5195
14049TIP3   OH242068   0.358   6.540   4.701  0.1624 -0.0626 -0.3671
14049TIP3    H142069   0.299   6.558   4.628  0.1774  1.5225 -0.0211
14049TIP3    H242070   0.306   6.561   4.779  0.5245 -0.6194  0.0306
14050TIP3   OH242071   2.082   6.267   3.157 -0.0294 -0.6626  0.7498
14050TIP3    H142072   2.117   6.194   3.106 -1.2310 -0.6698 -0.0864
14050TIP3    H242073   1.988   6.251   3.162 -0.2971  0.7578  0.6783
14051TIP3   OH242074   3.795   7.494   5.727 -0.2646 -0.2287 -0.0316
14051TIP3    H142075   3.833   7.415   5.691  0.9126 -0.2777  1.2201
14051TIP3    H242076   3.870   7.547   5.755 -1.0542  0.6823  0.4597
14052TIP3   OH242077   7.358   2.509   5.820  0.5900 -0.0548  0.4366
14052TIP3    H142078   7.433   2.459   5.850  1.3807  0.3094 -0.8700
14052TIP3    H242079   7.287   2.484   5.880  1.2231 -1.8971  0.4641
14053TIP3   OH242080   5.009   6.063   1.218  0.1894 -0.1468  0.2964
14053TIP3    H142081   5.018   6.015   1.300  0.1955 -0.3015  0.2062
14053TIP3    H242082   5.058   6.144   1.231 -0.6921  0.3206  0.8262
14054TIP3   OH242083   3.283   5.249   4.694 -0.0076 -0.1049  0.0386
14054TIP3    H142084   3.352   5.304   4.658  0.0601 -0.4286 -0.3276
14054TIP3    H242085   3.295   5.163   4.652  1.0997 -0.9836  2.0314
14055TIP3   OH242086   0.712   4.688   3.021 -0.3426  0.0251 -0.3718
14055TIP3    H142087   0.705   4.602   3.062  0.2103 -0.4401 -1.2426
14055TIP3    H242088   0.805   4.701   3.006 -0.3381  1.1277  0.4569
14056TIP3   OH242089   6.063   3.202   4.197  0.1387 -0.0283 -0.7001
14056TIP3    H142090   6.141   3.163   4.158 -0.2937  0.6802 -2.3883
14056TIP3    H242091   6.049   3.153   4.278  2.4806  0.0334 -0.2029
14057TIP3   OH242092   4.304   2.559   0.115 -0.6945  0.1675  0.4496
14057TIP3    H142093   4.377   2.517   0.068 -1.2455 -0.2463 -0.0605
14057TIP3    H242094   4.340   2.582   0.200  0.3344  0.9307 -0.1716
14058TIP3   OH242095   4.065   3.921   0.378 -0.2195 -0.5082  0.2113
14058TIP3    H142096   4.058   3.987   0.309 -0.2457  0.4901  1.1237
14058TIP3    H242097   3.975   3.899   0.401 -0.2102 -0.9496 -0.1671
14059TIP3   OH242098   1.018   2.715   5.744  0.2758  0.7307 -0.4388
14059TIP3    H142099   0.928   2.748   5.751 -0.3896 -0.9462 -0.7062
14059TIP3    H242100   1.008   2.622   5.728  2.0721 -0.4683  4.0102
14060TIP3   OH242101   5.509   6.179   3.787 -0.4264 -0.5086  0.1221
14060TIP3    H142102   5.559   6.255   3.756 -0.8672 -0.7660 -1.3042
14060TIP3    H242103   5.564   6.141   3.855 -0.5004  1.4600  1.3455
14061TIP3   OH242104   7.137   6.408   5.347 -0.1993 -0.1107 -0.0245
14061TIP3    H142105   7.211   6.357   5.313 -1.3409 -1.6533 -0.3514
14061TIP3    H242106   7.142   6.398   5.442  1.1744  1.5550  0.1245
14062TIP3   OH242107   7.760   0.653   2.427 -0.0030 -0.2296  0.2587
14062TIP3    H142108   7.831   0.649   2.363 -0.2777 -0.0142 -0.0611
14062TIP3    H242109   7.682   0.630   2.378 -0.2988  0.5029  0.3804
14063TIP3   OH242110   1.792   7.741   2.921  0.3752 -0.4355 -0.3029
14063TIP3    H142111   1.856   7.669   2.925 -0.1446 -0.9285 -0.6350
14063TIP3    H242112   1.801   7.775   2.832 -1.8769 -2.4764 -1.4401
14064TIP3   OH242113   2.618   4.172   5.257 -0.0876 -0.3629  0.1712
14064TIP3    H142114   2.639   4.079   5.248 -0.7077 -0.6369  1.2605
14064TIP3    H242115   2.684   4.206   5.318  1.3958  0.4269 -1.7551
14065TIP3   OH242116   5.988   1.251   3.091  0.3463 -0.0891 -0.5893
14065TIP3    H142117   6.075   1.254   3.051  0.7005 -0.6461  0.1186
14065TIP3    H242118   6.003   1.267   3.184 -0.1753 -1.2320 -0.2925
14066TIP3   OH242119   4.143   4.999   2.845 -0.1161 -0.3062  0.2828
14066TIP3    H142120   4.217   4.945   2.818 -0.5486  0.0304 -1.7175
14066TIP3    H242121   4.180   5.085   2.863  0.0526 -0.2703 -0.2306
14067TIP3   OH242122   2.205   1.127   6.492 -0.5235  0.1142 -0.2388
14067TIP3    H142123   2.283   1.164   6.450 -0.3774 -0.2022 -0.2510
14067TIP3    H242124   2.133   1.151   6.433 -0.5766  1.2400  0.2704
14068TIP3   OH242125   4.311   7.909   1.884 -0.2051 -0.4177  0.9257
14068TIP3    H142126   4.367   7.906   1.807  0.2215 -1.6583  1.2478
14068TIP3    H242127   4.272   7.997   1.884 -1.0149 -0.7303 -1.2467
14069TIP3   OH242128   2.938   0.613   2.558 -0.3373  0.7140  0.0877
14069TIP3    H142129   2.886   0.609   2.638  1.5355 -0.7251  1.2787
14069TIP3    H242130   2.922   0.530   2.514  0.3041  0.6059  0.0480
14070TIP3   OH242131   2.038   6.088   3.604  0.0357  0.1082 -0.3061
14070TIP3    H142132   2.014   6.130   3.522  3.0273 -0.0601 -1.3824
14070TIP3    H242133   2.068   6.001   3.578  0.4509 -0.1774  1.0643
14071TIP3   OH242134   4.104   1.477   2.229 -0.1421 -0.1052  0.4625
14071TIP3    H142135   4.194   1.449   2.215 -0.1994 -0.5378  0.8954
14071TIP3    H242136   4.107   1.526   2.312 -0.4096 -0.6994  0.8354
14072TIP3   OH242137   2.273   2.192   6.571 -0.1237 -0.2664 -0.6429
14072TIP3    H142138   2.351   2.143   6.544  0.0859 -0.6499  0.5796
14072TIP3    H242139   2.289   2.214   6.663 -1.1867  0.1860 -0.5490
14073TIP3   OH242140   7.565   4.006   4.235  0.2242 -0.3626  0.1778
14073TIP3    H142141   7.575   3.929   4.291  2.0270 -0.3883 -0.1276
14073TIP3    H242142   7.654   4.030   4.212 -0.3538  1.3852 -0.3452
14074TIP3   OH242143   7.904   1.926   2.459  0.0768 -0.0907  0.0805
14074TIP3    H142144   7.913   1.860   2.390 -0.7170  1.7359 -1.8818
14074TIP3    H242145   7.833   1.983   2.429  0.3854  1.3721  1.9310
14075TIP3   OH242146   8.236   0.357   6.258 -0.0349  0.7255  0.6157
14075TIP3    H142147   8.327   0.340   6.232  0.5014  2.5594  1.1386
14075TIP3    H242148   8.203   0.418   6.193 -0.6075  0.7792  0.9475
14076TIP3   OH242149   5.930   5.594   1.800  0.4230  0.3190 -0.2326
14076TIP3    H142150   5.988   5.617   1.873 -0.9688  1.4140  0.5682
14076TIP3    H242151   5.850   5.562   1.842  0.6234 -1.8541 -1.3103
14077TIP3   OH242152   2.260   1.701   4.641 -0.1719 -0.6261 -0.0565
14077TIP3    H142153   2.318   1.626   4.628 -1.1232 -1.4525  0.3422
14077TIP3    H242154   2.172   1.664   4.644 -0.7473  0.6049 -0.6741
14078TIP3   OH242155   8.067   4.499   5.067 -0.1149  0.0202 -0.2938
14078TIP3    H142156   8.064   4.448   5.147 -1.7959  0.5216  0.0126
14078TIP3    H242157   8.098   4.586   5.094 -2.0709  0.6383  0.1386
14079TIP3   OH242158   0.519   4.559   5.174 -0.0578 -0.0419  0.2405
14079TIP3    H142159   0.460   4.560   5.249 -0.7594 -0.6697 -0.2820
14079TIP3    H242160   0.598   4.605   5.204 -0.7632  0.7085  0.9889
14080TIP3   OH242161   1.389   3.579   0.451  0.6797  0.2450  0.4305
14080TIP3    H142162   1.358   3.536   0.372 -1.9214 -0.1155  1.5589
14080TIP3    H242163   1.355   3.668   0.445  1.1675  0.4587  0.7725
14081TIP3   OH242164   1.038   5.056   5.372 -0.0093  0.1588  0.8331
14081TIP3    H142165   1.028   4.967   5.338 -0.4129  0.3312  0.4860
14081TIP3    H242166   1.016   5.112   5.298 -0.7944  0.5368  1.3438
14082TIP3   OH242167   6.311   4.739   6.310 -0.3157 -0.6637 -0.9221
14082TIP3    H142168   6.400   4.766   6.332 -1.0164  1.5315 -0.5589
14082TIP3    H242169   6.289   4.674   6.376  0.4424  0.0039  0.0196
14083TIP3   OH242170   0.370   1.923   6.857  0.5434  1.1973 -0.0541
14083TIP3    H142171   0.419   2.000   6.888  2.3224  0.4954 -0.9474
14083TIP3    H242172   0.434   1.852   6.861 -0.5520  0.1377 -0.9115
14084TIP3   OH242173   7.657   1.135   1.002 -0.0626 -0.2071 -0.1914
14084TIP3    H142174   7.644   1.193   0.927  1.1970 -0.0693 -0.3269
14084TIP3    H242175   7.618   1.052   0.975 -0.5175  0.1359 -0.6022
14085TIP3   OH242176   6.206   0.784   2.546  0.3506 -0.0312  0.0007
14085TIP3    H142177   6.174   0.843   2.615 -1.8173 -1.8170  0.6378
14085TIP3    H242178   6.302   0.788   2.554  0.2202  1.6018  1.5388
14086TIP3   OH242179   7.641   1.266   1.246  0.3749 -0.2057 -0.7009
14086TIP3    H142180   7.626   1.194   1.308 -0.4160  1.0889  0.6751
14086TIP3    H242181   7.643   1.223   1.160 -0.5459 -1.8108  0.0194
14087TIP3   OH242182   1.753   1.906   4.163  0.3451  0.1474  0.1739
14087TIP3    H142183   1.762   1.834   4.100 -0.3283  1.3541 -1.3542
14087TIP3    H242184   1.830   1.960   4.149  0.6912 -0.0830  1.1073
14088TIP3   OH242185   4.462   5.302   1.189  0.0738  0.1263  0.0180
14088TIP3    H142186   4.418   5.217   1.183 -0.3007  0.2778  0.5021
14088TIP3    H242187   4.544   5.284   1.234 -0.2389  0.0965  0.5883
14089TIP3   OH242188   1.860   8.017   3.429 -0.6736 -0.2652 -0.0206
14089TIP3    H142189   1.859   7.930   3.390 -0.2185 -0.9153  1.3459
14089TIP3    H242190   1.782   8.060   3.395 -0.7984 -1.1396 -0.8587
14090TIP3   OH242191   5.184   6.872   5.345 -0.4115 -0.9520  0.6401
14090TIP3    H142192   5.123   6.878   5.419 -0.8801 -1.0144  0.2670
14090TIP3    H242193   5.184   6.780   5.322 -0.0858 -0.9694  0.7085
14091TIP3   OH242194   2.033   4.909   2.760  0.2476  0.5286  0.3668
14091TIP3    H142195   2.129   4.903   2.762  0.1391 -1.9792  0.8894
14091TIP3    H242196   2.003   4.829   2.802 -2.1191  0.5077 -1.1825
14092TIP3   OH242197   2.704   7.658   2.783  0.3542 -0.1183 -0.6139
14092TIP3    H142198   2.640   7.726   2.805 -0.1554 -0.7394 -0.1230
14092TIP3    H242199   2.696   7.646   2.688 -0.2461 -0.1711 -0.5598
14093TIP3   OH242200   6.367   2.871   6.092 -0.2834 -0.1668 -0.2412
14093TIP3    H142201   6.276   2.901   6.083  0.0530  1.5794  1.4673
14093TIP3    H242202   6.418   2.935   6.042  0.1178 -0.4290 -0.1687
14094TIP3   OH242203   6.258   6.023   1.013 -0.1872  0.7287 -0.2112
14094TIP3    H142204   6.240   5.966   0.939 -1.9836 -0.6541  1.1981
14094TIP3    H242205   6.307   5.969   1.074  0.1923  1.4524  0.1392
14095TIP3   OH242206   7.644   6.063   4.821 -0.0949  0.6844  0.1469
14095TIP3    H142207   7.678   6.152   4.827 -0.1196  0.7715 -0.7804
14095TIP3    H242208   7.640   6.032   4.911  1.0506  1.2014  0.3970
14096TIP3   OH242209   8.651   7.131   3.773  0.0910  0.2635  0.7504
14096TIP3    H142210   8.621   7.074   3.702  0.2068  1.0360  0.0612
14096TIP3    H242211   8.633   7.082   3.853  1.0453 -1.1517  0.1499
14097TIP3   OH242212   8.448   2.826   2.927 -0.0560 -0.6711  0.0495
14097TIP3    H142213   8.526   2.788   2.968 -0.6222 -0.1677  1.6985
14097TIP3    H242214   8.431   2.906   2.978 -0.4180  0.3865 -1.6502
14098TIP3   OH242215   2.323   3.661   2.528  0.4510  0.6350 -0.2425
14098TIP3    H142216   2.252   3.620   2.577  1.5166  0.4085  1.1535
14098TIP3    H242217   2.351   3.594   2.465 -0.4086  0.6595 -0.6743
14099TIP3   OH242218   3.855   7.766   0.696 -0.4918 -0.1295  0.2904
14099TIP3    H142219   3.848   7.699   0.765 -1.0108 -1.2259 -0.7926
14099TIP3    H242220   3.944   7.755   0.662 -1.0965 -1.4279 -0.9840
14100TIP3   OH242221   3.659   6.018   5.188 -0.5410 -0.2383  0.1302
14100TIP3    H142222   3.729   5.999   5.126  1.3402  3.3879  0.8707
14100TIP3    H242223   3.669   5.952   5.257  2.2156  0.1067  0.1868
14101TIP3   OH242224   1.421   5.424   2.738  0.4621  0.0034  0.3533
14101TIP3    H142225   1.336   5.381   2.730  0.4496 -0.0251  0.6165
14101TIP3    H242226   1.474   5.362   2.788  0.8449 -0.2751 -0.3754
14102TIP3   OH242227   5.009   6.514   5.188 -0.1550  0.2848  0.0016
14102TIP3    H142228   4.968   6.495   5.103  1.0844  0.6221 -0.6938
14102TIP3    H242229   4.964   6.457   5.250 -0.1918 -0.9237 -1.1057
14103TIP3   OH242230   0.588   2.947   5.579 -0.4177  0.0568  0.5595
14103TIP3    H142231   0.668   2.982   5.540 -0.7248 -0.8800 -1.0050
14103TIP3    H242232   0.562   3.012   5.644  1.6307  0.3573  1.1594
14104TIP3   OH242233   6.134   8.146   6.876 -0.3968 -0.8023  0.0010
14104TIP3    H142234   6.201   8.115   6.815  1.7663  1.1779  1.1722
14104TIP3    H242235   6.078   8.203   6.824 -0.2532 -1.3102 -0.7137
14105TIP3   OH242236   8.086   1.996   5.908 -0.7339 -0.2150 -0.0962
14105TIP3    H142237   8.052   1.908   5.926  0.0242 -0.4644  0.1210
14105TIP3    H242238   8.085   2.040   5.993  1.3710 -0.8870  0.3336
14106TIP3   OH242239   2.126   7.582   4.747 -0.4567  0.1785 -0.1391
14106TIP3    H142240   2.074   7.504   4.765  2.2856 -1.8984 -0.4878
14106TIP3    H242241   2.132   7.626   4.832  0.6515 -1.8653  0.9394
14107TIP3   OH242242   1.330   7.426   0.849  0.2352 -0.1392 -0.1351
14107TIP3    H142243   1.331   7.340   0.890 -0.0227 -0.1312 -0.1078
14107TIP3    H242244   1.399   7.475   0.894  0.8127 -0.5270 -0.5881
14108TIP3   OH242245   0.412   6.526   5.549 -0.6745 -0.4194 -0.7674
14108TIP3    H142246   0.327   6.549   5.587 -0.6065  1.3035 -1.5973
14108TIP3    H242247   0.398   6.439   5.512 -0.9518 -1.8994  2.4429
14109TIP3   OH242248   8.269   6.119   6.983  0.4676  0.1916  0.1231
14109TIP3    H142249   8.293   6.163   7.064  2.3423 -0.5661  0.0202
14109TIP3    H242250   8.304   6.174   6.913 -1.1571  0.8528 -0.2289
14110TIP3   OH242251   5.750   2.147   3.970  0.3406  0.2628 -0.3464
14110TIP3    H142252   5.684   2.190   3.916  0.2245  1.3055  0.5854
14110TIP3    H242253   5.818   2.121   3.908 -0.2337  0.5571 -1.1167
14111TIP3   OH242254   0.005   1.047   5.015  0.0664  0.2544  0.8641
14111TIP3    H142255  -0.023   1.011   4.931 -0.0925  2.8837 -0.2944
14111TIP3    H242256   0.099   1.032   5.017  0.2929  1.3748 -0.4371
14112TIP3   OH242257   1.934   7.080   3.221 -0.0936  0.1627  0.0886
14112TIP3    H142258   1.943   6.997   3.174  0.3938 -0.3112  0.9927
14112TIP3    H242259   1.901   7.056   3.307 -1.2069  1.0463 -0.0640
14113TIP3   OH242260   6.032   5.050   1.823  0.1473 -0.3240 -0.2155
14113TIP3    H142261   6.115   5.096   1.819  0.4192 -0.8249 -0.4987
14113TIP3    H242262   6.020   5.028   1.915  0.2666 -0.1381 -0.1567
14114TIP3   OH242263   3.625   6.517   4.654  0.2903 -0.2790 -0.2618
14114TIP3    H142264   3.662   6.429   4.657  1.9473  0.3915  0.5014
14114TIP3    H242265   3.678   6.563   4.589  0.3528  0.5307  0.3517
14115TIP3   OH242266   7.988   3.752   1.747 -0.1531  0.3217 -0.0441
14115TIP3    H142267   8.034   3.730   1.666 -0.0115 -1.0856  0.3813
14115TIP3    H242268   8.019   3.839   1.769  0.2768  0.4753 -1.1762
14116TIP3   OH242269   7.929   3.210   6.603  0.4364  0.4174 -0.0661
14116TIP3    H142270   8.022   3.186   6.604  0.1981 -0.6515 -1.0120
14116TIP3    H242271   7.895   3.178   6.686  0.9640  1.0153  0.3830
14117TIP3   OH242272   3.454   7.425   0.014 -0.0631 -0.2125 -0.8295
14117TIP3    H142273   3.542   7.389   0.027  0.3129  0.9415  0.0720
14117TIP3    H242274   3.398   7.349   0.001  0.9581 -1.0123 -0.6938
14118TIP3   OH242275   6.533   6.700   2.270 -0.0976  0.0186 -0.1918
14118TIP3    H142276   6.571   6.743   2.347 -0.6308  2.3960 -1.1803
14118TIP3    H242277   6.459   6.650   2.306 -0.3827  1.1357  0.8847
14119TIP3   OH242278   7.817   0.409   4.339  0.1180 -0.3017  0.0829
14119TIP3    H142279   7.903   0.436   4.370 -0.4032  2.3724 -0.4602
14119TIP3    H242280   7.757   0.438   4.408 -0.4033 -1.5211  0.1534
14120TIP3   OH242281   6.546   0.608   1.965  0.4515  0.6001  0.0953
14120TIP3    H142282   6.519   0.523   2.000 -3.2523  1.4759 -0.2346
14120TIP3    H242283   6.636   0.594   1.934  0.8068 -2.5067  2.1251
14121TIP3   OH242284   7.248   5.492   0.758  0.1348  0.2763  1.0620
14121TIP3    H142285   7.164   5.446   0.761 -0.5630  1.2080 -1.6491
14121TIP3    H242286   7.279   5.481   0.668  1.7833  1.9071  1.3631
14122TIP3   OH242287   2.973   6.249   6.881 -0.3271  0.0227 -0.3994
14122TIP3    H142288   2.926   6.297   6.813  0.4192 -1.0448 -1.7423
14122TIP3    H242289   2.965   6.157   6.854 -1.2531 -0.5882  1.7828
14123TIP3   OH242290   1.237   7.098   5.420  0.3401  0.0073 -0.0611
14123TIP3    H142291   1.176   7.053   5.362 -0.2267  0.2979  0.2888
14123TIP3    H242292   1.247   7.039   5.495  0.0657  0.1870  0.1226
14124TIP3   OH242293   4.604   3.683   1.061 -0.4990  0.6899 -0.2585
14124TIP3    H142294   4.543   3.729   1.003 -1.5260 -0.3526 -0.0433
14124TIP3    H242295   4.566   3.596   1.071  0.7709  0.1795  0.3092
14125TIP3   OH242296   1.047   1.586   4.602 -0.4685  0.1054 -0.3081
14125TIP3    H142297   1.068   1.666   4.650 -2.0989  0.0862  0.5264
14125TIP3    H242298   1.120   1.527   4.623  0.3504  1.0889 -0.2856
14126TIP3   OH242299   6.576   1.821   1.254 -0.0343 -0.2035  0.7065
14126TIP3    H142300   6.648   1.804   1.193  1.4457  1.5177  1.8775
14126TIP3    H242301   6.607   1.893   1.308 -2.8965  1.0297  0.8919
14127TIP3   OH242302   2.040   3.650   0.560  0.4576  0.1978 -0.3872
14127TIP3    H142303   2.079   3.728   0.522  0.4130  0.8770  0.9092
14127TIP3    H242304   1.945   3.664   0.551  0.4581 -0.3711 -1.4179
14128TIP3   OH242305   1.072   2.949   5.342  0.1040  0.0608  0.0820
14128TIP3    H142306   1.082   2.854   5.350  0.5906  0.2262  1.6751
14128TIP3    H242307   1.114   2.970   5.259  4.1497 -0.6012  1.7397
14129TIP3   OH242308   7.886   0.317   6.049  0.7364  0.3505 -0.6408
14129TIP3    H142309   7.965   0.263   6.046  1.5116  1.3431  0.6279
14129TIP3    H242310   7.841   0.290   6.129 -0.3079 -0.2976 -1.4224
14130TIP3   OH242311   5.106   7.162   2.303 -0.1600  0.0489 -1.4450
14130TIP3    H142312   5.184   7.218   2.304 -0.8237  1.1464 -3.9329
14130TIP3    H242313   5.045   7.206   2.245 -1.6473 -2.0833 -1.6279
14131TIP3   OH242314   6.905   4.435   2.031 -0.2222  0.5677 -0.2947
14131TIP3    H142315   6.947   4.517   2.006  1.0330  0.0195 -0.0357
14131TIP3    H242316   6.909   4.434   2.127 -3.5092  1.8685 -0.0246
14132TIP3   OH242317   2.024   0.488   7.055 -0.1621  0.1312  0.7633
14132TIP3    H142318   2.117   0.472   7.039 -0.3072  0.0273 -0.0465
14132TIP3    H242319   2.021   0.576   7.092  0.2973 -0.0541  1.2480
14133TIP3   OH242320   0.655   2.541   6.723 -0.2955 -0.5120  0.2461
14133TIP3    H142321   0.631   2.484   6.650 -0.8744  0.1610 -0.1018
14133TIP3    H242322   0.618   2.626   6.700  1.8084  0.3946  0.0492
14134TIP3   OH242323   1.685   1.847   0.720 -0.4657  0.4057 -0.0678
14134TIP3    H142324   1.667   1.768   0.771 -0.4094 -0.0200 -0.6864
14134TIP3    H242325   1.611   1.855   0.661 -0.1588  0.4474 -0.4540
14135TIP3   OH242326   6.315   5.225   0.731  0.3718  0.2860 -0.0556
14135TIP3    H142327   6.371   5.153   0.759  1.5703  1.2776  0.1534
14135TIP3    H242328   6.318   5.288   0.803 -0.2875  0.7576 -0.4246
14136TIP3   OH242329   5.570   1.032   7.101 -0.2254 -0.4534 -0.1368
14136TIP3    H142330   5.541   0.942   7.116  1.3694 -1.1423 -1.0117
14136TIP3    H242331   5.509   1.066   7.035 -0.8174 -0.8720  0.1826
14137TIP3   OH242332   2.608   1.037   5.443  0.1548 -0.2815 -0.4959
14137TIP3    H142333   2.657   1.074   5.369  0.4839 -0.7799 -0.5334
14137TIP3    H242334   2.675   1.014   5.507 -0.1423  0.3031  0.0364
14138TIP3   OH242335   3.172   0.958   2.675  0.0066  0.6866  0.0042
14138TIP3    H142336   3.165   0.888   2.739  2.0924 -0.5913 -1.0523
14138TIP3    H242337   3.191   1.036   2.726 -0.7135  0.1753  1.0825
14139TIP3   OH242338   5.798   7.187   3.427  0.2039 -0.1029  0.5860
14139TIP3    H142339   5.862   7.254   3.449 -1.3360  1.4155  0.6337
14139TIP3    H242340   5.732   7.233   3.375 -0.0893 -1.9445 -0.7707
14140TIP3   OH242341   2.467   0.379   0.336 -0.0883 -0.4009 -0.2450
14140TIP3    H142342   2.448   0.370   0.429 -0.6935  0.8723 -0.2238
14140TIP3    H242343   2.425   0.461   0.311  1.5359  0.1697 -1.2525
14141TIP3   OH242344   0.279   1.678   0.463  0.4493  0.3483 -0.0354
14141TIP3    H142345   0.341   1.742   0.498 -0.2973  0.3399  1.3918
14141TIP3    H242346   0.283   1.604   0.524 -1.7498  0.8081  0.7794
14142TIP3   OH242347   6.394   6.877   5.795 -0.1801  0.2604  0.4069
14142TIP3    H142348   6.308   6.866   5.753 -0.1069 -0.5011  0.4438
14142TIP3    H242349   6.380   6.944   5.861 -0.9927 -0.5213  1.0585
14143TIP3   OH242350   0.411   1.729   4.849  0.2615  0.1322  0.2456
14143TIP3    H142351   0.498   1.750   4.814 -0.1635  1.0605 -0.2952
14143TIP3    H242352   0.410   1.772   4.935 -0.2884  1.6603 -0.4942
14144TIP3   OH242353   2.624   5.133   5.582  0.3031  0.3875 -0.0742
14144TIP3    H142354   2.638   5.103   5.492  0.0210  0.2173 -0.0622
14144TIP3    H242355   2.704   5.108   5.629 -0.6072 -1.9496  0.3616
14145TIP3   OH242356   5.994   0.063   4.658  0.1750  0.0925 -0.5845
14145TIP3    H142357   6.068   0.090   4.711 -1.2231  2.1312  0.4559
14145TIP3    H242358   5.995  -0.033   4.663  1.2871  0.1463  1.4360
14146TIP3   OH242359   7.838   4.505   0.086 -0.3183  0.2116  0.0391
14146TIP3    H142360   7.823   4.577   0.024 -2.7512  0.4034  0.7651
14146TIP3    H242361   7.879   4.437   0.034  1.2920  1.7876 -0.8632
14147TIP3   OH242362   8.566   0.916   4.795  0.7629  0.3138 -0.6857
14147TIP3    H142363   8.622   0.965   4.735  0.7771  0.3668 -0.6287
14147TIP3    H242364   8.599   0.826   4.789  2.3158  0.7044  1.0063
14148TIP3   OH242365   1.391   4.156   1.515 -0.3206 -0.2644 -0.0789
14148TIP3    H142366   1.476   4.112   1.526 -0.1246  0.5767  2.3012
14148TIP3    H242367   1.372   4.148   1.422  1.6134 -1.8682 -0.3993
14149TIP3   OH242368   3.245   3.982   4.239  0.4675  0.3558 -0.0815
14149TIP3    H142369   3.328   3.965   4.194  0.5174  2.3977 -0.8599
14149TIP3    H242370   3.244   3.920   4.312  2.5145  0.0671 -0.2431
14150TIP3   OH242371   2.621   4.140   0.689 -0.1555 -0.4792 -0.0591
14150TIP3    H142372   2.669   4.191   0.755 -0.4000  1.5380 -1.3393
14150TIP3    H242373   2.690   4.096   0.638  0.1702 -0.1188  0.0647
14151TIP3   OH242374   2.935   5.502   5.043 -0.4417 -0.6392 -0.0252
14151TIP3    H142375   2.906   5.484   5.133 -2.8366 -0.5731 -0.7042
14151TIP3    H242376   2.969   5.419   5.012  0.0601 -0.7602  0.8180
14152TIP3   OH242377   7.278   3.759   3.649  0.0573  0.1841 -0.6801
14152TIP3    H142378   7.241   3.683   3.603  0.3276 -0.8665  0.7549
14152TIP3    H242379   7.219   3.773   3.723  1.1197  0.0846  0.2059
14153TIP3   OH242380   3.933   3.914   4.786 -0.1643 -0.1990  1.1588
14153TIP3    H142381   3.953   3.961   4.706  2.3124 -0.4453  1.5418
14153TIP3    H242382   3.958   3.823   4.768 -0.9191 -0.5469  1.7682
14154TIP3   OH242383   4.083   3.398   6.731 -0.2011 -0.2302 -0.2268
14154TIP3    H142384   4.110   3.458   6.800 -0.3127 -0.0811 -0.3137
14154TIP3    H242385   4.123   3.314   6.756  1.2078  0.2122 -0.8832
14155TIP3   OH242386   5.060   1.919   4.054  0.9211  0.2695  0.8026
14155TIP3    H142387   5.126   1.898   3.988 -0.1492  0.0306 -0.2331
14155TIP3    H242388   5.079   1.859   4.127  1.1365 -0.6207  0.0359
14156TIP3   OH242389   8.173   6.661   3.507 -0.1736  0.3746  0.0940
14156TIP3    H142390   8.080   6.680   3.512  0.0165  1.2822  0.3342
14156TIP3    H242391   8.189   6.636   3.416 -0.9160 -1.3002  0.3806
14157TIP3   OH242392   3.039   5.645   5.317  0.5581  0.2502  0.4171
14157TIP3    H142393   3.042   5.718   5.255 -0.3901  0.7950  0.9657
14157TIP3    H242394   3.060   5.685   5.402 -1.3920  0.2326  0.9709
14158TIP3   OH242395   6.288   0.073   4.688  0.0595  0.0070  0.6531
14158TIP3    H142396   6.319   0.160   4.662 -1.2250  0.4461  0.5046
14158TIP3    H242397   6.306   0.067   4.781 -0.4702  0.7322  0.8149
14159TIP3   OH242398   3.661   5.691   0.096  0.4751  0.2448 -0.3264
14159TIP3    H142399   3.701   5.777   0.085  0.7592 -0.0310 -1.7554
14159TIP3    H242400   3.689   5.642   0.019 -0.5026 -0.8007 -0.0524
14160TIP3   OH242401   7.299   7.189   1.876 -0.3968  0.0942 -0.2879
14160TIP3    H142402   7.340   7.190   1.789 -0.4709  1.5790 -0.3422
14160TIP3    H242403   7.205   7.180   1.858 -0.3279 -0.6327 -0.3017
14161TIP3   OH242404   2.317   0.222   1.241 -0.7297  0.7717  0.4729
14161TIP3    H142405   2.411   0.239   1.233 -1.0193  2.5414  0.2900
14161TIP3    H242406   2.311   0.136   1.281  0.9367 -0.7763 -2.2922
14162TIP3   OH242407   2.386   4.558   5.828 -1.0973 -0.0423 -0.2413
14162TIP3    H142408   2.378   4.480   5.882  0.1642  0.2296  0.3647
14162TIP3    H242409   2.431   4.528   5.749  1.0267  0.3451  0.7374
14163TIP3   OH242410   3.314   4.413   6.576 -0.2857 -0.8141 -0.3045
14163TIP3    H142411   3.330   4.505   6.600 -0.4780 -0.6439 -0.8016
14163TIP3    H242412   3.220   4.401   6.590 -0.4054 -0.7075 -0.9542
14164TIP3   OH242413   1.345   6.328   2.855  0.2057 -0.2524 -0.0217
14164TIP3    H142414   1.325   6.374   2.937 -0.9134  0.5534 -0.7340
14164TIP3    H242415   1.263   6.329   2.806  0.6876 -1.3304 -0.8751
14165TIP3   OH242416   7.926   4.417   1.020 -0.3302  0.4275 -0.1238
14165TIP3    H142417   7.963   4.505   1.027 -0.8298  1.0778 -3.8268
14165TIP3    H242418   7.997   4.365   0.982 -0.6651 -0.3546  0.2934
14166TIP3   OH242419   4.694   2.625   2.339  1.2996 -0.4138 -0.1788
14166TIP3    H142420   4.663   2.618   2.248 -1.2593 -0.1407  0.5966
14166TIP3    H242421   4.678   2.538   2.376  1.2493 -0.1819  0.3418
14167TIP3   OH242422   4.147   7.877   3.604  0.4333 -0.0830  0.1829
14167TIP3    H142423   4.178   7.793   3.570 -1.2196 -0.8609  0.4719
14167TIP3    H242424   4.147   7.935   3.527 -1.3371 -1.2536 -0.7809
14168TIP3   OH242425   3.165   4.616   0.661 -0.4543  0.4500 -0.5092
14168TIP3    H142426   3.217   4.563   0.601  2.5202 -0.4191  2.4831
14168TIP3    H242427   3.137   4.553   0.729 -0.2080  1.9969  1.0910
14169TIP3   OH242428   8.231   6.592   6.878 -0.4691 -0.1359  0.2011
14169TIP3    H142429   8.284   6.668   6.902  0.2554 -0.1610 -1.2077
14169TIP3    H242430   8.222   6.542   6.959  0.3704  0.6526  0.7967
14170TIP3   OH242431   7.502   3.425   0.103 -0.2937 -0.3990  0.2589
14170TIP3    H142432   7.444   3.427   0.179  1.3798 -0.4198  1.5769
14170TIP3    H242433   7.535   3.515   0.096 -0.4753 -0.3830 -0.4895
14171TIP3   OH242434   1.922   8.160   0.899  0.1450 -0.3819  0.0070
14171TIP3    H142435   1.852   8.097   0.889  0.4267 -0.8989  1.1280
14171TIP3    H242436   1.970   8.131   0.977  1.2985  0.2390 -0.4437
14172TIP3   OH242437   8.377   1.973   4.155 -0.2035  0.0640 -0.3136
14172TIP3    H142438   8.328   2.011   4.227 -2.3681  0.1592 -1.7459
14172TIP3    H242439   8.319   1.980   4.079  0.7894 -2.6045 -1.4739
14173TIP3   OH242440   5.528   4.810   5.896 -0.3668  0.1617 -0.2249
14173TIP3    H142441   5.557   4.812   5.805  2.1495 -1.2015  0.4523
14173TIP3    H242442   5.513   4.717   5.914  2.1309  0.0067  1.5246
14174TIP3   OH242443   5.940   3.176   5.337  0.2994  0.4612  0.4982
14174TIP3    H142444   5.877   3.138   5.275  1.4312 -0.1649 -0.3138
14174TIP3    H242445   5.990   3.238   5.285  1.2491 -0.0490  0.7659
14175TIP3   OH242446   2.154   2.509   6.723 -0.2169 -0.0525 -0.0558
14175TIP3    H142447   2.167   2.524   6.630  2.3500 -3.7672 -0.5466
14175TIP3    H242448   2.220   2.563   6.766  1.4142 -1.3466 -0.8208
14176TIP3   OH242449   2.511   1.446   2.081 -0.8300  0.9579 -0.6120
14176TIP3    H142450   2.599   1.484   2.082 -0.9550  1.3822  1.7621
14176TIP3    H242451   2.460   1.506   2.136 -2.2498 -0.0446 -0.8018
14177TIP3   OH242452   0.594   3.482   5.132  0.1469 -0.6758 -0.1868
14177TIP3    H142453   0.580   3.416   5.064  1.1450 -1.5725  0.4318
14177TIP3    H242454   0.677   3.524   5.108 -1.6040  2.1026 -1.8964
14178TIP3   OH242455   7.414   2.668   4.629 -0.5299 -0.1092 -0.5695
14178TIP3    H142456   7.406   2.755   4.589 -0.6645  1.0163  1.7209
14178TIP3    H242457   7.506   2.662   4.653 -0.7435 -0.1175  0.2634
14179TIP3   OH242458   3.761   7.077   5.149  0.0307 -0.4700  0.1704
14179TIP3    H142459   3.687   7.018   5.166 -0.2422 -0.2370 -0.1942
14179TIP3    H242460   3.838   7.021   5.156 -0.1655 -0.6762  0.7627
14180TIP3   OH242461   5.137   3.236   1.590  0.2076 -0.5669 -0.0633
14180TIP3    H142462   5.121   3.303   1.524 -1.3111 -1.4299 -0.6183
14180TIP3    H242463   5.055   3.187   1.596  1.3125 -2.5202  0.1759
14181TIP3   OH242464   8.234   4.741   2.272  0.0146 -0.0464 -0.0631
14181TIP3    H142465   8.141   4.763   2.269  0.5739  2.5046 -0.4494
14181TIP3    H242466   8.247   4.683   2.197 -0.9160  1.0900 -1.1397
14182TIP3   OH242467   3.866   7.167   6.808 -0.0468  0.1305 -0.5273
14182TIP3    H142468   3.822   7.229   6.750  1.2976 -0.5112 -2.3104
14182TIP3    H242469   3.861   7.084   6.762  0.6952 -0.4954  0.4864
14183TIP3   OH242470   5.456   3.950   2.155 -0.6438 -0.2514  0.2550
14183TIP3    H142471   5.366   3.982   2.144 -0.3146  0.7173  0.2509
14183TIP3    H242472   5.479   3.911   2.071 -0.5235  0.9228 -0.2768
14184TIP3   OH242473   2.036   0.839   1.030 -0.6113 -0.4026 -0.0825
14184TIP3    H142474   2.009   0.782   1.102 -1.5783  0.7040  0.4607
14184TIP3    H242475   2.058   0.923   1.072 -0.9993  0.2035 -1.0459
14185TIP3   OH242476   7.416   0.278   2.548 -0.5963 -0.6567 -0.4420
14185TIP3    H142477   7.402   0.276   2.454 -1.2466 -2.7158 -0.3550
14185TIP3    H242478   7.442   0.189   2.571 -0.3793 -0.1909  1.3286
14186TIP3   OH242479   2.289   3.203   3.494  0.0723 -0.0592  0.3800
14186TIP3    H142480   2.377   3.212   3.529  0.1472 -1.3229  0.5692
14186TIP3    H242481   2.239   3.272   3.536  0.8193  0.2486  0.7803
14187TIP3   OH242482   1.913   6.790   5.617 -1.1646 -0.0672  0.2191
14187TIP3    H142483   1.859   6.838   5.555 -0.3620  1.3183  0.5445
14187TIP3    H242484   1.996   6.776   5.572 -0.7263  0.5740  0.7985
14188TIP3   OH242485   0.895   2.185   1.943  0.7081  0.4104 -0.5114
14188TIP3    H142486   0.983   2.200   1.977  1.3300 -0.1201 -1.8270
14188TIP3    H242487   0.885   2.090   1.943  1.1652  0.2914 -2.7235
14189TIP3   OH242488   3.850   3.622   5.313 -0.4816 -0.0183  0.2831
14189TIP3    H142489   3.795   3.552   5.351 -0.7030 -0.4540 -0.7895
14189TIP3    H242490   3.787   3.678   5.266  0.1220 -1.9114 -3.1201
14190TIP3   OH242491   7.122   4.357   3.403 -0.0417 -0.0113  0.0430
14190TIP3    H142492   7.077   4.281   3.439 -1.1419  0.6367  0.0886
14190TIP3    H242493   7.126   4.420   3.475 -1.7050  1.0555 -0.7332
14191TIP3   OH242494   0.792   0.302   3.664  0.0299 -0.1159 -0.3226
14191TIP3    H142495   0.848   0.375   3.691 -0.6195  0.3180 -0.1395
14191TIP3    H242496   0.782   0.313   3.570  1.0172 -0.7389 -0.5165
14192TIP3   OH242497   3.538   0.920   2.968  0.0094 -0.6420 -0.3849
14192TIP3    H142498   3.618   0.884   2.929  0.0875 -1.1878  0.2622
14192TIP3    H242499   3.569   0.993   3.022 -0.1299  0.3062 -1.5529
14193TIP3   OH242500   1.497   7.547   1.066  0.6329 -0.2589 -0.1805
14193TIP3    H142501   1.543   7.586   1.141  0.6967 -0.8487  0.0969
14193TIP3    H242502   1.449   7.620   1.027  0.3314  0.0019  0.6379
14194TIP3   OH242503   3.418   4.836   0.501 -0.0351  0.0455  0.1034
14194TIP3    H142504   3.463   4.757   0.469  1.2394  0.4279  0.8849
14194TIP3    H242505   3.487   4.886   0.544 -1.1421  0.8964  0.9090
14195TIP3   OH242506   8.327   4.828   5.595  0.0430 -0.0416 -0.0267
14195TIP3    H142507   8.255   4.879   5.631 -1.0357 -1.2933 -0.3572
14195TIP3    H242508   8.287   4.775   5.526  1.5704  0.3964 -1.3296
14196TIP3   OH242509   0.927   1.180   7.045 -0.5307 -0.1286 -0.3499
14196TIP3    H142510   0.913   1.091   7.012  0.8375  0.1999 -1.9176
14196TIP3    H242511   0.905   1.237   6.972  1.9446  0.6649 -0.5686
14197TIP3   OH242512   0.870   2.361   2.255 -0.6447 -0.1043  0.0433
14197TIP3    H142513   0.904   2.390   2.340  1.0378  1.4736 -1.0811
14197TIP3    H242514   0.946   2.320   2.212 -0.2141  2.7277 -2.2189
14198TIP3   OH242515   4.553   0.957   2.446  0.6164 -0.2353  0.4118
14198TIP3    H142516   4.585   0.911   2.524  1.6227 -0.8910 -0.3648
14198TIP3    H242517   4.486   0.899   2.410  1.0738 -0.5628  0.0739
14199TIP3   OH242518   5.260   6.253   4.396  0.8666 -0.1146 -0.3045
14199TIP3    H142519   5.289   6.214   4.478  0.1341  0.6044  0.3260
14199TIP3    H242520   5.185   6.307   4.421  2.6826  2.8665 -0.8490
14200TIP3   OH242521   5.551   5.002   3.987 -0.3926 -0.5734 -0.5312
14200TIP3    H142522   5.559   4.910   3.960 -2.0539 -0.6743 -0.7812
14200TIP3    H242523   5.519   5.047   3.908 -2.5959 -0.3609  0.4204
14201TIP3   OH242524   3.636   2.540   3.467  0.7154 -0.4132 -0.1300
14201TIP3    H142525   3.585   2.468   3.429  1.0572 -0.8647  0.2477
14201TIP3    H242526   3.726   2.506   3.469  0.4747 -1.0792  2.6664
14202TIP3   OH242527   3.678   2.973   6.604 -0.6414 -0.4622  0.6665
14202TIP3    H142528   3.592   3.007   6.583 -0.1893  0.1719 -0.1907
14202TIP3    H242529   3.736   3.006   6.535  0.0407 -1.9822  0.4441
14203TIP3   OH242530   2.379   2.596   0.469 -0.2722  0.3401 -0.1616
14203TIP3    H142531   2.442   2.594   0.396  0.2527  1.5120  0.2420
14203TIP3    H242532   2.344   2.506   0.473  1.2090 -0.2803 -0.5303
14204TIP3   OH242533   8.598   4.173   3.038 -0.2602 -0.0085  0.1092
14204TIP3    H142534   8.532   4.163   3.107 -0.0289  0.8729  0.4786
14204TIP3    H242535   8.615   4.084   3.007  1.9137 -0.8895  3.3320
14205TIP3   OH242536   1.971   7.300   2.008  0.0592 -0.4438 -0.3581
14205TIP3    H142537   2.039   7.278   2.071 -1.1996 -0.8337  0.8989
14205TIP3    H242538   1.973   7.396   2.002  0.7645 -0.4577 -0.4127
14206TIP3   OH242539   1.668   7.407   4.462 -0.3948 -0.3483  0.0593
14206TIP3    H142540   1.622   7.339   4.412 -1.3024  0.0860  0.2889
14206TIP3    H242541   1.599   7.468   4.488  0.6838  1.9117 -2.0900
14207TIP3   OH242542   8.272   5.797   5.417  0.4620 -0.4903 -0.1383
14207TIP3    H142543   8.203   5.827   5.477  0.6068  1.6184 -0.9395
14207TIP3    H242544   8.332   5.748   5.473 -0.6186 -0.6091  0.9769
14208TIP3   OH242545   4.113   4.161   0.640  0.4036 -0.0250  0.4698
14208TIP3    H142546   4.067   4.245   0.639 -0.2475 -0.3762  0.1143
14208TIP3    H242547   4.188   4.174   0.582  0.9929  0.6741  1.3630
14209TIP3   OH242548   5.146   7.826   5.595  0.3124  0.2979 -0.2919
14209TIP3    H142549   5.090   7.796   5.667 -0.3347  1.5998 -0.2051
14209TIP3    H242550   5.086   7.835   5.521  0.7122  0.2541 -0.6236
14210TIP3   OH242551   6.365   6.549   6.817  0.5114  0.1379 -0.3262
14210TIP3    H142552   6.376   6.555   6.722  1.0251 -2.0440 -0.4556
14210TIP3    H242553   6.452   6.567   6.852  0.7357 -0.7958 -0.3863
14211TIP3   OH242554   5.515   4.177   2.327 -0.2794  0.3399 -0.3432
14211TIP3    H142555   5.498   4.102   2.270 -1.7865 -0.0492  0.5537
14211TIP3    H242556   5.607   4.197   2.313 -0.4452 -0.1148 -2.4534
14212TIP3   OH242557   4.242   8.129   5.228 -0.4197 -0.2822  0.1558
14212TIP3    H142558   4.263   8.064   5.161  0.4854  1.6048 -1.4974
14212TIP3    H242559   4.291   8.100   5.305  0.1375 -1.4138 -0.5895
14213TIP3   OH242560   8.592   3.316   2.985 -0.5407 -0.4372 -0.5071
14213TIP3    H142561   8.608   3.309   2.891  0.3132 -0.0675 -0.3964
14213TIP3    H242562   8.644   3.245   3.023 -1.6511 -1.2107 -0.3783
14214TIP3   OH242563   5.215   1.449   0.942  0.0659 -0.1142 -0.5405
14214TIP3    H142564   5.139   1.495   0.905  0.5441 -0.5359 -2.1220
14214TIP3    H242565   5.246   1.392   0.871 -0.2801 -2.6474  1.1868
14215TIP3   OH242566   2.543   0.217   5.026  0.3948  0.3299  0.2261
14215TIP3    H142567   2.526   0.227   5.120  0.1017  1.0120  0.1054
14215TIP3    H242568   2.628   0.172   5.022  0.4605  0.3893  0.8188
14216TIP3   OH242569   8.389   1.516   0.408 -0.3539  0.4195 -0.6040
14216TIP3    H142570   8.425   1.475   0.486  0.5516 -0.9408 -1.6969
14216TIP3    H242571   8.296   1.494   0.410 -0.5164  1.1412  0.5234
14217TIP3   OH242572   4.160   6.955   4.317 -0.6454  0.0718 -0.7248
14217TIP3    H142573   4.214   7.032   4.334 -0.9471 -0.0518  1.0420
14217TIP3    H242574   4.142   6.958   4.223  1.6266  0.6120 -1.1932
14218TIP3   OH242575   6.608   4.586   0.591 -0.3780  0.6729 -0.3488
14218TIP3    H142576   6.530   4.631   0.626 -0.5198 -0.6565  1.1853
14218TIP3    H242577   6.626   4.517   0.655  0.9135 -0.2896 -1.6851
14219TIP3   OH242578   1.062   0.372   4.100  0.1845 -0.1411 -0.0478
14219TIP3    H142579   1.080   0.280   4.118 -0.8049 -0.4325 -0.4650
14219TIP3    H242580   1.099   0.388   4.014 -1.2687 -0.6859 -0.8193
14220TIP3   OH242581   5.781   1.447   5.511 -0.1015  0.4965 -0.2164
14220TIP3    H142582   5.773   1.516   5.446  1.0268  0.0400 -0.8568
14220TIP3    H242583   5.719   1.380   5.483 -0.1285  0.6063 -0.4175
14221TIP3   OH242584   0.974   6.732   1.616 -0.1975  0.2218 -0.0419
14221TIP3    H142585   1.021   6.661   1.572 -0.1273 -0.4905  1.1362
14221TIP3    H242586   0.911   6.688   1.672  0.3113  1.0549  1.2346
14222TIP3   OH242587   3.375   3.526   0.788  0.0523 -0.1575 -0.2335
14222TIP3    H142588   3.463   3.552   0.814 -0.2769  1.1370 -0.3094
14222TIP3    H242589   3.325   3.608   0.787 -0.6235 -0.5377 -2.3043
14223TIP3   OH242590   6.415   1.941   6.411  0.1105 -0.2216 -0.3266
14223TIP3    H142591   6.467   2.005   6.363  0.8100  0.4089  1.2097
14223TIP3    H242592   6.362   1.993   6.471  0.4190 -1.0468  0.6952
14224TIP3   OH242593   6.322   7.992   2.330 -0.0908  0.2326  0.1329
14224TIP3    H142594   6.370   8.067   2.367 -0.1629  0.9671 -1.2170
14224TIP3    H242595   6.285   7.948   2.407  2.7844 -0.4392  1.2639
14225TIP3   OH242596   2.675   4.344   3.322 -0.2617  0.4028  0.2421
14225TIP3    H142597   2.724   4.290   3.261 -0.9890  1.4516 -1.3370
14225TIP3    H242598   2.712   4.323   3.408  0.6354 -1.2773 -0.5079
14226TIP3   OH242599   4.681   0.496   5.312  0.8018 -0.1831 -0.0922
14226TIP3    H142600   4.718   0.582   5.293 -1.0048  0.8573  0.8316
14226TIP3    H242601   4.653   0.502   5.404 -0.9506 -1.1417 -0.5203
14227TIP3   OH242602   4.275   0.783   4.995 -0.6154  0.2922 -0.1208
14227TIP3    H142603   4.261   0.720   5.066  1.3744  0.8511  0.8341
14227TIP3    H242604   4.193   0.833   4.991 -1.1666 -0.4779  1.0282
14228TIP3   OH242605   3.093   0.036   2.093 -0.0586  0.2979  0.2781
14228TIP3    H142606   3.105   0.030   1.999 -1.5416 -0.4181  0.0901
14228TIP3    H242607   3.092  -0.055   2.123  2.4440  0.5434  1.3273
14229TIP3   OH242608   1.715   0.513   1.775 -0.2555  0.2912  0.5788
14229TIP3    H142609   1.787   0.464   1.734  0.8087  1.7540  0.6342
14229TIP3    H242610   1.695   0.463   1.855 -0.0502 -0.7313  0.0053
14230TIP3   OH242611   8.572   6.530   6.014 -0.1292 -0.3959 -0.6839
14230TIP3    H142612   8.650   6.564   5.969  0.1879  2.0274  1.4602
14230TIP3    H242613   8.577   6.568   6.102 -2.8680 -1.5549  0.0724
14231TIP3   OH242614   4.107   4.783   5.065 -0.5694 -0.0596  0.0523
14231TIP3    H142615   4.069   4.869   5.080  2.2519  0.9358  2.3913
14231TIP3    H242616   4.060   4.725   5.125  2.0414  1.3986  3.8826
14232TIP3   OH242617   6.842   4.885   3.399  0.1920  0.2682 -0.6745
14232TIP3    H142618   6.819   4.891   3.491  0.7482 -0.4848 -0.4812
14232TIP3    H242619   6.879   4.971   3.378 -1.4187  1.0058 -0.6360
14233TIP3   OH242620   0.198   6.858   1.258 -0.1193 -0.3884  0.3284
14233TIP3    H142621   0.211   6.953   1.265 -1.4470 -0.2560  1.5084
14233TIP3    H242622   0.265   6.829   1.196  1.1392  1.1278  0.9040
14234TIP3   OH242623   7.786   7.176   0.495  0.0128 -0.0963 -0.1044
14234TIP3    H142624   7.741   7.136   0.421  2.1341 -0.5690 -1.2243
14234TIP3    H242625   7.817   7.102   0.547 -0.6208  0.2244  0.7583
14235TIP3   OH242626   4.163   7.603   0.441 -0.5149 -0.5948  0.3473
14235TIP3    H142627   4.205   7.555   0.513  1.5832  0.4131 -0.1217
14235TIP3    H242628   4.149   7.691   0.476 -0.2678 -0.3414 -0.1831
14236TIP3   OH242629   3.515   4.559   3.523  0.3021 -0.1700  0.0408
14236TIP3    H142630   3.520   4.485   3.462 -0.0675 -0.9703  0.9440
14236TIP3    H242631   3.439   4.609   3.495 -0.3879 -1.0182  0.3486
14237TIP3   OH242632   6.487   8.118   4.765 -0.3232 -0.7594 -0.5853
14237TIP3    H142633   6.582   8.129   4.768 -0.4924  0.9752 -0.7066
14237TIP3    H242634   6.474   8.023   4.754  1.3239 -1.4155  2.1653
14238TIP3   OH242635   4.970   4.991   6.417  0.3367  0.0812 -0.7389
14238TIP3    H142636   4.892   4.936   6.402 -0.4607  1.1431 -0.5921
14238TIP3    H242637   5.043   4.929   6.417 -0.8802 -1.9315  4.6530
14239TIP3   OH242638   7.390   2.150   0.696  0.0062 -0.2413 -0.0444
14239TIP3    H142639   7.426   2.093   0.764  1.6208 -1.0392 -1.4918
14239TIP3    H242640   7.305   2.111   0.675  0.9668 -2.0667 -0.8233
14240TIP3   OH242641   2.742   0.513   0.389 -0.0715  0.1855  0.5356
14240TIP3    H142642   2.835   0.532   0.376  0.2820 -0.8735  1.3369
14240TIP3    H242643   2.706   0.592   0.427  0.3799  0.7918 -0.2522
14241TIP3   OH242644   2.582   2.808   6.338 -0.6064  0.0759  0.2156
14241TIP3    H142645   2.534   2.790   6.418 -0.3461 -1.0185  0.1388
14241TIP3    H242646   2.514   2.835   6.275 -1.1647 -1.5822  0.0696
14242TIP3   OH242647   3.910   5.064   6.062  0.1465 -0.2472  0.3106
14242TIP3    H142648   3.846   5.050   6.132  0.5214 -1.9550  0.3563
14242TIP3    H242649   3.931   5.157   6.067 -2.1673  0.3283  0.4224
14243TIP3   OH242650   7.841   0.536   6.808  0.2087 -0.2661 -0.2673
14243TIP3    H142651   7.896   0.612   6.791  0.2360 -0.5721 -1.6889
14243TIP3    H242652   7.790   0.560   6.886  1.4695  0.4892  0.3496
14244TIP3   OH242653   7.183   3.281   4.874  0.5452  0.7459  0.2522
14244TIP3    H142654   7.175   3.361   4.823 -0.3329  0.0627 -0.7273
14244TIP3    H242655   7.095   3.242   4.872  1.2307 -0.8825 -0.4025
14245TIP3   OH242656   1.598   4.294   1.133 -0.1860  0.4601  0.1691
14245TIP3    H142657   1.681   4.278   1.178  0.3069 -0.2922 -0.9848
14245TIP3    H242658   1.562   4.207   1.117  0.7611  0.5220 -2.8951
14246TIP3   OH242659   3.306   0.145   5.698  0.4987  0.4684 -0.5307
14246TIP3    H142660   3.211   0.141   5.690  0.5286 -2.6488 -0.3571
14246TIP3    H242661   3.322   0.180   5.785 -0.4856  0.4645 -0.3409
14247TIP3   OH242662   2.183   7.796   4.983  0.1833 -0.0988  0.0143
14247TIP3    H142663   2.096   7.835   4.978  0.3287  0.2182 -0.0400
14247TIP3    H242664   2.235   7.841   4.917  0.8977  1.0341  1.2904
14248TIP3   OH242665   4.657   7.088   1.694 -0.1927 -0.7410 -0.7047
14248TIP3    H142666   4.574   7.125   1.723 -1.0237 -3.2929  0.4356
14248TIP3    H242667   4.709   7.080   1.774  1.2614  0.9027 -1.4146
14249TIP3   OH242668   7.197   6.813   6.364  0.4453  0.0831 -0.2129
14249TIP3    H142669   7.283   6.772   6.367  0.0419 -0.7877 -0.3686
14249TIP3    H242670   7.137   6.745   6.395 -0.1381  0.8251  0.3314
14250TIP3   OH242671   6.710   2.223   3.719 -0.2985 -0.1085  0.1662
14250TIP3    H142672   6.800   2.252   3.706  0.6226 -2.5558  0.6057
14250TIP3    H242673   6.664   2.302   3.748  1.7862  1.1136  0.3568
14251TIP3   OH242674   4.544   0.442   5.087 -0.0481  0.4156  0.0024
14251TIP3    H142675   4.580   0.452   5.175  1.3622  1.2094 -0.6385
14251TIP3    H242676   4.592   0.505   5.034 -0.4073 -0.5227 -1.4873
14252TIP3   OH242677   1.389   8.175   3.060 -0.2345 -0.5068  0.1863
14252TIP3    H142678   1.477   8.144   3.037 -0.1950 -0.2631  0.0036
14252TIP3    H242679   1.402   8.228   3.138  0.1976  1.7009 -1.2702
14253TIP3   OH242680   1.773   7.856   0.888 -0.4102  0.1619  0.2399
14253TIP3    H142681   1.705   7.923   0.897  0.5847  1.1710  0.3594
14253TIP3    H242682   1.766   7.828   0.797  0.5822  2.0038 -0.4437
14254TIP3   OH242683   4.000   3.976   3.764 -0.0986 -0.5901  0.8598
14254TIP3    H142684   3.973   4.058   3.805  0.6862  0.5969 -0.8648
14254TIP3    H242685   4.033   4.002   3.678 -0.7469 -2.8323 -0.1433
14255TIP3   OH242686   8.425   2.925   3.326 -0.1380  0.3012  0.3485
14255TIP3    H142687   8.380   2.841   3.314 -1.6989  0.5021  3.7163
14255TIP3    H242688   8.356   2.990   3.318  0.4052  0.9922  1.1483
14256TIP3   OH242689   5.094   6.765   0.505  0.3039 -0.3613 -0.2975
14256TIP3    H142690   5.067   6.805   0.588  1.1607  1.0110 -0.6443
14256TIP3    H242691   5.021   6.708   0.481 -0.4338  0.0690  0.8480
14257TIP3   OH242692   6.336   4.376   2.462  0.3669  0.0358 -0.3258
14257TIP3    H142693   6.270   4.368   2.393  0.7223  0.9271 -0.7895
14257TIP3    H242694   6.397   4.304   2.446  1.0352  0.8500 -1.6257
14258TIP3   OH242695   3.883   4.318   4.773  0.0585  0.2548 -0.9066
14258TIP3    H142696   3.788   4.327   4.776 -0.0284 -0.5206 -1.1036
14258TIP3    H242697   3.903   4.316   4.679  0.3907  1.5120 -0.8836
14259TIP3   OH242698   0.244   7.758   3.490  0.0561  0.0866 -0.3520
14259TIP3    H142699   0.197   7.678   3.514 -1.7191  1.1984  0.0872
14259TIP3    H242700   0.175   7.821   3.471  1.3576  2.0805  1.1293
14260TIP3   OH242701   3.600   3.310   2.877  0.1559 -0.4878  0.3584
14260TIP3    H142702   3.584   3.275   2.789 -0.0553 -0.4542  0.3829
14260TIP3    H242703   3.615   3.233   2.931 -0.1047 -0.5298  0.3710
14261TIP3   OH242704   6.096   2.844   1.802  0.1826  0.2432 -0.6598
14261TIP3    H142705   6.090   2.808   1.714 -0.8423 -1.1279 -0.0687
14261TIP3    H242706   6.058   2.932   1.795  2.0140  0.9894 -1.9701
14262TIP3   OH242707   2.884   5.933   6.366  0.4171  0.5273 -0.1802
14262TIP3    H142708   2.793   5.906   6.349  1.1872 -0.7903 -2.7760
14262TIP3    H242709   2.892   6.018   6.323  0.0602  1.4189  1.4179
14263TIP3   OH242710   1.566   6.234   6.351 -0.5093  0.7814 -0.2610
14263TIP3    H142711   1.583   6.213   6.259  0.8667  0.6070  0.0039
14263TIP3    H242712   1.583   6.328   6.358  0.1738  0.6488 -0.0372
14264TIP3   OH242713   3.037   6.139   1.264 -0.0006  0.6731  0.1525
14264TIP3    H142714   3.129   6.138   1.238  0.4784 -0.2847  1.7550
14264TIP3    H242715   3.034   6.195   1.341 -0.8039  0.8954 -0.0323
14265TIP3   OH242716   4.731   1.543   4.687 -0.6120 -0.2571  0.2961
14265TIP3    H142717   4.793   1.491   4.635 -1.1309 -0.7804  0.1873
14265TIP3    H242718   4.693   1.604   4.624 -0.0552  0.2089  0.4086
14266TIP3   OH242719   3.132   5.715   2.307  0.2382  0.1298 -0.1785
14266TIP3    H142720   3.190   5.690   2.379 -1.0364 -1.0123  0.5113
14266TIP3    H242721   3.143   5.646   2.242  0.3795  0.4407 -0.4882
14267TIP3   OH242722   6.072   7.158   6.215 -0.4293 -0.6458  0.9168
14267TIP3    H142723   6.029   7.144   6.300 -1.0912 -1.3759  0.4757
14267TIP3    H242724   6.032   7.238   6.181  0.4614  0.1261  1.6730
14268TIP3   OH242725   7.711   4.624   1.409  0.0620  0.0759 -0.2492
14268TIP3    H142726   7.638   4.643   1.468  1.0702  0.9764  0.7485
14268TIP3    H242727   7.740   4.710   1.378  0.7104 -0.2668 -0.6150
14269TIP3   OH242728   6.856   7.760   1.499 -0.2614 -0.3064 -0.2702
14269TIP3    H142729   6.917   7.833   1.493 -1.0001  0.2940 -0.7243
14269TIP3    H242730   6.909   7.683   1.482  0.7568  0.0025  1.2978
14270TIP3   OH242731   3.197   5.215   0.727 -0.6042 -0.0347  0.6108
14270TIP3    H142732   3.131   5.227   0.659  0.4096  0.5681 -0.2979
14270TIP3    H242733   3.157   5.153   0.789 -1.5807 -0.5163 -0.4670
14271TIP3   OH242734   2.217   5.167   5.891  0.0392 -0.6155  0.1529
14271TIP3    H142735   2.279   5.095   5.883 -0.7800 -1.4555  1.0047
14271TIP3    H242736   2.202   5.174   5.985  1.4873  1.9126  0.2689
14272TIP3   OH242737   0.304   1.010   1.760 -0.3212 -0.0444 -0.0304
14272TIP3    H142738   0.386   1.005   1.710 -0.5173 -1.2151 -0.2625
14272TIP3    H242739   0.326   1.063   1.836  1.2764 -2.0825  1.0350
14273TIP3   OH242740   6.349   5.813   4.005  0.5903  0.0070 -0.3028
14273TIP3    H142741   6.334   5.871   4.080 -4.0560  1.1015 -1.7163
14273TIP3    H242742   6.410   5.862   3.950 -0.6526  2.1436  0.0676
14274TIP3   OH242743   3.094   2.787   0.483 -0.7272 -0.1901 -0.8595
14274TIP3    H142744   3.064   2.789   0.392 -1.1090  0.3158 -0.7290
14274TIP3    H242745   3.188   2.802   0.478 -0.3970 -2.1178 -1.2969
14275TIP3   OH242746   8.598   4.705   6.774 -0.0082  0.1851 -0.1260
14275TIP3    H142747   8.660   4.671   6.709 -2.2493 -0.7367 -1.8978
14275TIP3    H242748   8.593   4.799   6.757  1.5137  0.4309  0.6317
14276TIP3   OH242749   2.378   0.355   1.893  0.4838  0.2904 -0.3456
14276TIP3    H142750   2.331   0.289   1.842 -1.6430 -0.1839  2.0299
14276TIP3    H242751   2.457   0.311   1.923 -0.8922 -1.2845  1.1784
14277TIP3   OH242752   8.002   1.778   4.021 -0.2650 -0.3502  0.8068
14277TIP3    H142753   8.010   1.847   4.087  0.0195  1.1911 -0.7670
14277TIP3    H242754   7.932   1.808   3.964 -0.1796 -1.4108  0.1203
14278TIP3   OH242755   3.859   5.572   0.588 -0.0335 -0.1408 -0.5898
14278TIP3    H142756   3.823   5.487   0.560 -1.2626  0.6218 -1.4423
14278TIP3    H242757   3.799   5.602   0.656  0.9136 -0.3416  0.3590
14279TIP3   OH242758   5.820   4.206   5.303 -0.0128  0.4590  0.0945
14279TIP3    H142759   5.758   4.140   5.274  0.8974  0.1690 -1.2699
14279TIP3    H242760   5.789   4.288   5.264 -0.8364  0.7655  1.3429
14280TIP3   OH242761   5.196   0.834   6.327  0.0637  0.5686 -0.5739
14280TIP3    H142762   5.244   0.752   6.324 -0.5019  0.2136 -0.2221
14280TIP3    H242763   5.229   0.879   6.405 -2.3661 -1.1143  1.6127
14281TIP3   OH242764   0.550   3.111   5.788  0.4283  0.1105 -0.5309
14281TIP3    H142765   0.544   3.042   5.854  1.0731  0.3174 -0.2478
14281TIP3    H242766   0.567   3.190   5.839  0.7967  0.2902 -0.9288
14282TIP3   OH242767   7.951   2.342   6.089  0.3650 -0.3423 -0.2767
14282TIP3    H142768   8.036   2.300   6.079  0.8288  0.4522  0.2759
14282TIP3    H242769   7.945   2.402   6.014  0.8769  0.5834  0.4138
14283TIP3   OH242770   0.354   3.171   5.576 -0.0162 -0.1955  0.2845
14283TIP3    H142771   0.423   3.185   5.641 -0.6858  1.9469  0.6345
14283TIP3    H242772   0.313   3.088   5.601  0.3335  0.1345  2.0516
14284TIP3   OH242773   0.759   7.709   7.052  0.1905  0.5903  0.8891
14284TIP3    H142774   0.840   7.753   7.025  0.2548 -0.1454 -0.2110
14284TIP3    H242775   0.766   7.700   7.147  0.1558  2.9494  1.1846
14285TIP3   OH242776   8.672   0.851   2.749  0.5920  0.1442 -0.2729
14285TIP3    H142777   8.628   0.931   2.776 -0.3856 -0.5757  0.3489
14285TIP3    H242778   8.636   0.832   2.662 -0.0004 -0.1968  0.0411
14286TIP3   OH242779   2.113   0.106   2.044  0.5276 -0.1633 -0.3219
14286TIP3    H142780   2.128   0.106   1.949  1.5835 -0.6287 -0.1731
14286TIP3    H242781   2.042   0.044   2.057  1.3655 -1.2336 -0.6906
14287TIP3   OH242782   3.614   5.045   2.647 -0.1506  0.3681  0.0602
14287TIP3    H142783   3.611   5.071   2.555 -1.1640 -1.1256 -0.3679
14287TIP3    H242784   3.601   5.127   2.696  1.8094  1.4091 -1.0542
14288TIP3   OH242785   7.396   4.000   6.576 -0.4714 -0.4648  0.0283
14288TIP3    H142786   7.360   3.961   6.655 -0.1801 -0.7016  0.0473
14288TIP3    H242787   7.337   3.973   6.506 -0.8929 -0.0137  0.2052
14289TIP3   OH242788   2.961   6.444   6.049 -0.1940  0.0041  0.3984
14289TIP3    H142789   2.982   6.498   5.972 -0.1180  1.0116  1.1144
14289TIP3    H242790   2.907   6.372   6.013 -0.7605  0.8447 -0.4930
14290TIP3   OH242791   0.691   1.559   6.107 -0.0158  0.9388 -0.3279
14290TIP3    H142792   0.767   1.533   6.160 -0.4828 -0.1269 -0.1516
14290TIP3    H242793   0.693   1.499   6.032 -1.1133  0.3645  0.0849
14291TIP3   OH242794   5.710   7.302   3.848  0.1442 -0.1123  0.1319
14291TIP3    H142795   5.789   7.354   3.833  0.9851 -1.5013 -0.4450
14291TIP3    H242796   5.662   7.349   3.916  1.8183  0.3919  1.0074
14292TIP3   OH242797   6.161   1.483   2.283  0.5308 -0.6924  0.0714
14292TIP3    H142798   6.186   1.477   2.375  0.3837 -0.6185  0.1166
14292TIP3    H242799   6.146   1.576   2.269 -1.5103 -0.9071  0.5244
14293TIP3   OH242800   2.486   7.139   1.999  0.2879 -0.5239  0.0023
14293TIP3    H142801   2.477   7.107   2.088  0.9035 -0.0919  0.2261
14293TIP3    H242802   2.402   7.118   1.957 -0.0940 -0.5033  0.7433
14294TIP3   OH242803   2.244   6.454   1.466  0.1947 -0.6728  0.4885
14294TIP3    H142804   2.287   6.374   1.496  0.2494 -0.4614  0.9902
14294TIP3    H242805   2.247   6.449   1.370 -0.0037 -1.3734  0.5169
14295TIP3   OH242806   2.268   5.560   6.591 -0.4064 -0.0256  0.5450
14295TIP3    H142807   2.295   5.652   6.584  0.5654 -0.3660 -0.2667
14295TIP3    H242808   2.185   5.564   6.640 -2.3366  1.6482 -2.4824
14296TIP3   OH242809   8.705   7.287   5.767  0.1873  0.0667 -1.1576
14296TIP3    H142810   8.686   7.366   5.716 -0.3140 -0.6628 -2.1295
14296TIP3    H242811   8.620   7.254   5.795  0.3907 -0.1487 -0.7772
14297TIP3   OH242812   6.636   4.484   0.308  0.2835  0.0293  0.0956
14297TIP3    H142813   6.728   4.464   0.289  0.1885 -0.8626  0.5642
14297TIP3    H242814   6.638   4.522   0.396  0.0268 -1.5139  0.7866
14298TIP3   OH242815   8.564   5.995   0.215 -0.2268  0.2848 -0.3932
14298TIP3    H142816   8.602   6.006   0.302  0.9855  0.1843 -0.8859
14298TIP3    H242817   8.636   5.963   0.161 -0.9268  0.4439 -1.4605
14299TIP3   OH242818   0.941   7.939   6.104 -0.5463 -0.2242  0.5626
14299TIP3    H142819   1.033   7.930   6.082 -0.7131  1.7898 -1.3171
14299TIP3    H242820   0.918   7.857   6.148  1.9282 -1.0689  0.4006
14300TIP3   OH242821   7.579   3.512   2.519 -0.2032 -0.2462 -0.7566
14300TIP3    H142822   7.557   3.583   2.459  0.9839  0.4825 -0.3729
14300TIP3    H242823   7.622   3.446   2.464  3.5305  1.6365 -0.4237
14301TIP3   OH242824   7.210   3.238   6.680  0.2003 -0.3274  0.2683
14301TIP3    H142825   7.267   3.301   6.635 -0.3806  0.1809  0.2247
14301TIP3    H242826   7.121   3.273   6.668  0.0886  0.4240  2.7116
14302TIP3   OH242827   6.639   5.235   2.889  0.5013 -0.2877  0.0292
14302TIP3    H142828   6.571   5.240   2.822  0.7951  0.6202 -0.2246
14302TIP3    H242829   6.592   5.237   2.972  0.1596 -0.9081 -0.1487
14303TIP3   OH242830   3.951   7.354   2.416  0.1974  0.1454 -0.1077
14303TIP3    H142831   3.969   7.260   2.419 -0.6927 -0.0411 -0.1738
14303TIP3    H242832   4.004   7.387   2.344  1.4539 -0.0783  0.6752
14304TIP3   OH242833   6.389   6.280   1.787  0.3540  0.7979  0.1629
14304TIP3    H142834   6.316   6.318   1.837  0.3250 -0.9396  1.5395
14304TIP3    H242835   6.467   6.324   1.821  0.3333 -0.3234  1.8307
14305TIP3   OH242836   4.465   5.162   6.153 -0.1191  0.2010 -0.0682
14305TIP3    H142837   4.472   5.252   6.184 -0.2416  0.8699 -1.8302
14305TIP3    H242838   4.542   5.118   6.189  1.6345  1.8354 -1.5744
14306TIP3   OH242839   6.697   4.036   1.669  0.9270 -0.3119 -0.2645
14306TIP3    H142840   6.735   4.082   1.745  1.6495 -0.5771 -0.4504
14306TIP3    H242841   6.768   3.979   1.638 -0.4037 -2.8229  0.9537
14307TIP3   OH242842   7.934   0.843   0.447 -0.6517  0.2381  0.1483
14307TIP3    H142843   7.859   0.791   0.418  0.6024 -1.0812 -0.8834
14307TIP3    H242844   7.933   0.835   0.543 -1.2288 -0.6281  0.0800
14308TIP3   OH242845   4.450   5.874   5.080 -0.3517  0.1253  0.7586
14308TIP3    H142846   4.496   5.842   5.003 -0.2503  1.6394  0.1568
14308TIP3    H242847   4.506   5.848   5.153 -0.4119 -1.2603  0.3393
14309TIP3   OH242848   4.862   1.446   0.356  0.2474 -0.4124 -0.1708
14309TIP3    H142849   4.878   1.361   0.398  0.5623 -0.4345 -0.3264
14309TIP3    H242850   4.792   1.429   0.294 -1.2705 -0.0516  1.3647
14310TIP3   OH242851   4.737   2.884   3.154 -0.0554 -0.1427  0.0837
14310TIP3    H142852   4.723   2.950   3.222  0.8541 -1.6168  1.8024
14310TIP3    H242853   4.832   2.882   3.143 -0.1862 -0.0357 -1.1478
14311TIP3   OH242854   6.764   4.526   6.949  0.1017  0.2467 -0.6491
14311TIP3    H142855   6.688   4.581   6.929 -0.0323 -0.2732 -1.6230
14311TIP3    H242856   6.780   4.476   6.869  0.2731 -1.0676  0.1654
14312TIP3   OH242857   8.219   7.048   6.450 -0.3566 -0.8669  0.5125
14312TIP3    H142858   8.137   7.071   6.494  0.5785  0.4362  1.6605
14312TIP3    H242859   8.267   6.996   6.515 -0.2712 -1.6580 -0.1695
14313TIP3   OH242860   4.378   1.254   2.650  0.4370  0.9743 -0.3355
14313TIP3    H142861   4.436   1.178   2.642  0.1740  0.7556 -0.1777
14313TIP3    H242862   4.296   1.226   2.610 -1.3306 -0.5658  3.8237
14314TIP3   OH242863   1.973   2.549   6.274  0.1999 -0.3002 -0.5371
14314TIP3    H142864   2.018   2.474   6.311  2.4629  0.9532 -0.5972
14314TIP3    H242865   2.002   2.552   6.183 -1.1453 -0.2591 -0.9887
14315TIP3   OH242866   3.923   4.770   1.424  0.6966  0.8799 -0.0861
14315TIP3    H142867   3.924   4.701   1.491 -2.0714  1.3516  0.5759
14315TIP3    H242868   3.830   4.785   1.407  1.2490  3.4332 -1.2860
14316TIP3   OH242869   1.435   6.645   1.798 -0.1968  0.3499  0.0806
14316TIP3    H142870   1.446   6.739   1.785 -2.3119  0.4226 -1.6490
14316TIP3    H242871   1.503   6.605   1.743 -2.0706  0.8697 -2.7665
14317TIP3   OH242872   5.709   2.945   0.798 -0.2094  1.4088  0.3537
14317TIP3    H142873   5.742   2.914   0.883 -1.3586 -2.9831 -0.5059
14317TIP3    H242874   5.621   2.977   0.817  0.5749  3.2484  1.1337
14318TIP3   OH242875   1.317   7.681   5.345 -0.2619  0.3199 -0.0286
14318TIP3    H142876   1.291   7.774   5.347 -2.1823 -0.1843  0.5407
14318TIP3    H242877   1.345   7.662   5.434 -1.5380 -0.0578  0.3102
14319TIP3   OH242878   2.830   4.863   6.268  0.2051  0.1568 -0.2654
14319TIP3    H142879   2.756   4.914   6.299  0.3374 -0.9275  2.0550
14319TIP3    H242880   2.870   4.827   6.348  1.3410 -1.8480 -1.6375
14320TIP3   OH242881   5.654   4.761   3.412 -0.0662  0.6623  0.3918
14320TIP3    H142882   5.689   4.686   3.459  0.3186  1.1712  0.9411
14320TIP3    H242883   5.728   4.821   3.403 -0.2696  0.8102 -0.3932
14321TIP3   OH242884   8.329   4.474   4.969 -0.4839 -0.1906 -0.3734
14321TIP3    H142885   8.342   4.451   4.877 -0.0410  0.9891 -0.6217
14321TIP3    H242886   8.240   4.444   4.989 -0.5643 -0.5053 -1.1675
14322TIP3   OH242887   1.250   3.057   3.519 -0.2048 -0.3542 -0.1062
14322TIP3    H142888   1.224   2.977   3.473 -1.8634 -0.0530  0.2414
14322TIP3    H242889   1.209   3.128   3.469 -1.2098  0.0487  1.2448
14323TIP3   OH242890   7.440   8.152   1.600  0.9311  0.0820 -0.0693
14323TIP3    H142891   7.421   8.182   1.511 -0.3798 -0.6289 -0.0404
14323TIP3    H242892   7.469   8.062   1.589  2.2756  0.4651  0.1047
14324TIP3   OH242893   1.255   7.463   1.387 -0.2273 -1.0267 -0.3929
14324TIP3    H142894   1.176   7.495   1.431 -0.2637 -1.3356 -0.2314
14324TIP3    H242895   1.222   7.403   1.321 -0.1226 -1.1782 -0.3060
14325TIP3   OH242896   0.197   0.534   2.061 -0.5866 -0.1273  0.4496
14325TIP3    H142897   0.254   0.509   2.133 -0.3193  0.0082  0.2901
14325TIP3    H242898   0.226   0.623   2.037  1.3343 -1.2331 -1.7261
14326TIP3   OH242899   5.855   6.336   4.426  0.3036  0.0828 -0.0971
14326TIP3    H142900   5.857   6.242   4.409  0.3843  0.2111 -0.8646
14326TIP3    H242901   5.762   6.355   4.444  0.2967 -0.1522  0.1131
14327TIP3   OH242902   1.876   3.724   5.391  0.0287 -0.3143 -0.5790
14327TIP3    H142903   1.958   3.770   5.409  0.8442 -1.9734  0.1466
14327TIP3    H242904   1.809   3.791   5.400  1.2766  1.0886 -1.1833
14328TIP3   OH242905   7.117   7.234   3.993  0.6575 -0.3063  0.6720
14328TIP3    H142906   7.148   7.321   3.966  0.3272 -0.3504  0.1466
14328TIP3    H242907   7.181   7.205   4.058  0.7229  0.3689  0.9138
14329TIP3   OH242908   5.355   7.226   2.730  0.0874 -0.1548  0.1412
14329TIP3    H142909   5.328   7.284   2.659 -0.7523 -0.2024  0.4099
14329TIP3    H242910   5.297   7.248   2.803  1.9504  0.9800  1.3490
14330TIP3   OH242911   5.303   4.092   5.508 -0.3612 -0.5921  0.2109
14330TIP3    H142912   5.236   4.044   5.556  0.6635 -2.5371 -0.1945
14330TIP3    H242913   5.370   4.026   5.488  0.3074  0.6351 -1.9216
14331TIP3   OH242914   1.214   5.174   4.392  0.2354 -0.0765  0.3670
14331TIP3    H142915   1.290   5.226   4.363 -1.9423  3.1149 -0.0602
14331TIP3    H242916   1.190   5.210   4.477 -1.2145 -0.5477  0.1888
14332TIP3   OH242917   7.768   4.757   2.743 -0.5366 -0.0524  0.3168
14332TIP3    H142918   7.855   4.774   2.780 -0.1346  0.2089 -0.7024
14332TIP3    H242919   7.753   4.664   2.758  0.2808 -0.2828 -0.2099
14333TIP3   OH242920   5.336   8.163   5.412  0.5204 -0.1213  0.1771
14333TIP3    H142921   5.301   8.158   5.501  0.8262  2.6444  0.5285
14333TIP3    H242922   5.402   8.094   5.408 -0.2407 -0.9734  1.7373
14334TIP3   OH242923   8.287   7.743   1.710  0.2893  0.1132 -0.6558
14334TIP3    H142924   8.312   7.792   1.789  0.6301 -0.3337 -0.4804
14334TIP3    H242925   8.213   7.689   1.739  1.4936 -1.3294 -0.1622
14335TIP3   OH242926   1.871   5.784   2.419  0.4756  0.5943 -0.4405
14335TIP3    H142927   1.784   5.781   2.459 -0.1000  0.6845 -1.6387
14335TIP3    H242928   1.901   5.693   2.420  0.3796  0.5663 -0.0008
14336TIP3   OH242929   0.161   4.015   4.604  0.1023 -0.2953  0.1682
14336TIP3    H142930   0.131   4.050   4.520 -1.0900 -1.6946 -0.0307
14336TIP3    H242931   0.246   3.974   4.584 -0.7331 -1.6974 -0.6656
14337TIP3   OH242932   2.581   0.232   1.152  0.3946  0.1938 -0.4110
14337TIP3    H142933   2.658   0.289   1.152  0.2047  0.4643 -1.0698
14337TIP3    H242934   2.614   0.147   1.126  0.3599  0.4853 -1.4498
14338TIP3   OH242935   2.158   2.187   2.087 -0.2750 -0.4635  0.7755
14338TIP3    H142936   2.137   2.262   2.031  0.5230 -0.6180  0.2389
14338TIP3    H242937   2.212   2.131   2.031 -2.1425 -2.2277  0.6408
14339TIP3   OH242938   5.230   7.084   5.149  0.1990  0.0592 -0.1859
14339TIP3    H142939   5.303   7.123   5.197 -0.1412  1.0629 -0.4578
14339TIP3    H242940   5.192   7.021   5.210  1.5474 -0.8002 -0.1951
14340TIP3   OH242941   8.219   6.099   2.493  0.1757  0.2731 -0.0720
14340TIP3    H142942   8.135   6.138   2.468  0.5503  0.0597 -1.7268
14340TIP3    H242943   8.284   6.166   2.470  0.4795  0.5402  1.4312
14341TIP3   OH242944   5.091   5.240   0.225 -0.3053 -0.2861 -0.4695
14341TIP3    H142945   4.997   5.243   0.207 -1.1234  0.2304  3.2318
14341TIP3    H242946   5.100   5.186   0.303  2.3749  0.4747 -0.1211
14342TIP3   OH242947   8.116   1.536   0.577  0.5193 -0.0684 -0.2843
14342TIP3    H142948   8.026   1.568   0.565  0.1731 -1.1508 -0.7199
14342TIP3    H242949   8.121   1.459   0.521  1.6166 -0.2289  0.0225
14343TIP3   OH242950   4.130   4.053   2.958 -0.0827  0.1559 -0.5380
14343TIP3    H142951   4.080   4.035   2.879 -2.3607 -0.3770  0.9358
14343TIP3    H242952   4.114   3.977   3.015 -1.4467  2.0482  1.8017
14344TIP3   OH242953   7.948   0.894   2.456  0.0239  0.3006 -0.3233
14344TIP3    H142954   8.030   0.845   2.451  0.2238 -0.1067  3.5334
14344TIP3    H242955   7.894   0.844   2.518 -1.2865  2.9306  0.8150
14345TIP3   OH242956   5.272   1.516   5.244  0.5134  0.0070  0.2167
14345TIP3    H142957   5.341   1.471   5.196  1.4121 -0.2496  1.6887
14345TIP3    H242958   5.279   1.607   5.217  0.1968 -0.3194 -1.0361
14346TIP3   OH242959   6.689   5.197   0.489 -0.0250 -0.3211  0.2310
14346TIP3    H142960   6.620   5.236   0.543  1.6102  0.9706  1.4878
14346TIP3    H242961   6.657   5.206   0.399 -1.7045 -0.2280  0.7910
14347TIP3   OH242962   5.445   1.702   1.913  0.2944  0.3258  0.2284
14347TIP3    H142963   5.383   1.774   1.925  0.0596  0.2476 -0.4483
14347TIP3    H242964   5.416   1.635   1.974 -0.5609  0.1209 -0.3827
14348TIP3   OH242965   4.041   5.464   3.684  0.0878 -0.2281  0.2106
14348TIP3    H142966   3.989   5.392   3.650 -0.5383  1.0818 -1.8133
14348TIP3    H242967   4.079   5.431   3.765 -2.3603 -1.8866  0.7973
14349TIP3   OH242968   7.105   2.339   1.968  0.6005  0.0546  0.2520
14349TIP3    H142969   7.199   2.352   1.980  0.9298 -1.8392  0.0364
14349TIP3    H242970   7.094   2.244   1.973 -1.0543  0.1130 -1.5449
14350TIP3   OH242971   4.628   1.155   1.218 -0.5008 -0.1072  0.0723
14350TIP3    H142972   4.719   1.147   1.248 -0.2431  0.3563 -0.5658
14350TIP3    H242973   4.615   1.079   1.161 -0.0643  0.5255 -0.9182
14351TIP3   OH242974   8.042   0.293   5.363  0.3372  0.0958 -0.0864
14351TIP3    H142975   8.115   0.266   5.420  1.6072 -0.2567 -1.7956
14351TIP3    H242976   8.083   0.344   5.294 -0.8345 -1.2039 -1.8261
14352TIP3   OH242977   6.005   1.610   6.413 -0.4633 -0.3519  0.3008
14352TIP3    H142978   6.049   1.582   6.333 -0.9446 -1.1247  0.2961
14352TIP3    H242979   5.970   1.696   6.393  2.7260  1.2556  0.9287
14353TIP3   OH242980   7.404   1.896   4.683 -0.4660  0.0105 -0.2838
14353TIP3    H142981   7.431   1.838   4.612 -0.7787 -0.9995  0.3994
14353TIP3    H242982   7.379   1.837   4.755  1.0469  1.0071  1.1384
14354TIP3   OH242983   2.744   4.999   6.914  0.4499  0.5564 -0.0802
14354TIP3    H142984   2.686   5.067   6.950  0.8340  1.3022 -0.8312
14354TIP3    H242985   2.703   4.975   6.831  0.1504 -0.3709  0.3239
14355TIP3   OH242986   1.948   3.834   3.677  0.6068 -0.7679  0.5224
14355TIP3    H142987   1.889   3.793   3.614  0.3206  3.5930 -2.4774
14355TIP3    H242988   2.031   3.842   3.631  0.6972  1.6060  0.9816
14356TIP3   OH242989   4.690   4.444   0.685  0.1123  0.5247  0.2314
14356TIP3    H142990   4.608   4.428   0.639 -0.0241 -0.4377  0.7868
14356TIP3    H242991   4.664   4.487   0.766  0.1180 -0.1735  0.6039
14357TIP3   OH242992   6.774   1.737   3.173  0.6475  0.5237 -0.1513
14357TIP3    H142993   6.727   1.747   3.090  1.7840 -4.2701 -1.7082
14357TIP3    H242994   6.854   1.789   3.162  1.2627 -0.7923 -2.5960
14358TIP3   OH242995   7.935   2.174   3.965 -0.1339 -0.0816 -0.6610
14358TIP3    H142996   7.952   2.242   3.901  1.2860 -0.0719 -0.3156
14358TIP3    H242997   7.914   2.221   4.046 -1.4241 -0.0918 -0.9679
14359TIP3   OH242998   2.593   5.295   1.535 -0.0475 -0.4395  0.2134
14359TIP3    H142999   2.654   5.240   1.486  0.1262 -2.3998  2.4453
14359TIP3    H243000   2.508   5.255   1.521 -0.1953 -0.1915  0.3936
14360TIP3   OH243001   8.145   8.184   6.585 -0.8690  0.3730  0.1122
14360TIP3    H143002   8.226   8.183   6.534 -0.3214  0.9102  0.9506
14360TIP3    H243003   8.124   8.091   6.598 -0.2315  0.2291  0.1322
14361TIP3   OH243004   4.934   5.156   3.354 -0.5668  0.0375  0.5822
14361TIP3    H143005   5.016   5.203   3.340  0.2700 -1.5963 -0.3726
14361TIP3    H243006   4.891   5.158   3.268 -1.1678  0.2175  0.8828
14362TIP3   OH243007   6.562   8.119   2.560  0.5655 -0.3397 -0.6631
14362TIP3    H143008   6.493   8.155   2.616 -0.3427 -0.7193 -1.5115
14362TIP3    H243009   6.573   8.185   2.490  2.0686  0.3926  0.2117
14363TIP3   OH243010   5.226   7.087   0.458 -0.6937 -0.3738  0.0591
14363TIP3    H143011   5.282   7.013   0.433 -0.3089 -0.1818  0.3402
14363TIP3    H243012   5.235   7.094   0.553 -0.7318  0.0271  0.0372
14364TIP3   OH243013   4.328   6.962   4.877  0.0236  0.0489  0.4337
14364TIP3    H143014   4.240   6.937   4.905 -0.1152 -2.4414 -1.8169
14364TIP3    H243015   4.320   6.978   4.783  2.2324 -2.0231 -0.2124
14365TIP3   OH243016   1.623   6.463   5.637  0.0710 -0.1425 -0.2028
14365TIP3    H143017   1.636   6.525   5.709 -0.0165  0.4777 -0.7105
14365TIP3    H243018   1.676   6.498   5.565 -0.8956 -0.0062 -0.8747
14366TIP3   OH243019   4.643   4.436   0.266  0.1926  0.3717  0.5405
14366TIP3    H143020   4.725   4.462   0.308 -0.6940  1.7026  1.5186
14366TIP3    H243021   4.666   4.423   0.174  1.9801 -1.6427  1.1926
14367TIP3   OH243022   4.692   2.798   4.601 -0.4499 -0.3689  0.0930
14367TIP3    H143023   4.741   2.811   4.682 -1.4551 -0.5129  0.7257
14367TIP3    H243024   4.753   2.750   4.544  0.7492  0.8951  0.2557
14368TIP3   OH243025   5.062   1.776   2.815 -0.2703  0.2778  0.0023
14368TIP3    H143026   5.055   1.823   2.732  1.2834  1.7047  0.5981
14368TIP3    H243027   4.976   1.737   2.829 -1.7454  3.0909 -0.5193
14369TIP3   OH243028   7.032   2.644   6.038  0.3668 -0.0542  0.4110
14369TIP3    H143029   6.995   2.725   6.074  2.2912  1.5351 -0.9567
14369TIP3    H243030   6.975   2.622   5.965 -0.2190 -0.0108  0.8462
14370TIP3   OH243031   6.457   7.618   2.384  0.3405 -0.3123 -0.0681
14370TIP3    H143032   6.528   7.564   2.419  0.5900  0.4718  0.6645
14370TIP3    H243033   6.499   7.701   2.363 -0.1320 -0.2394 -0.7585
14371TIP3   OH243034   5.965   7.857   1.896 -0.2508  0.2050  0.4209
14371TIP3    H143035   5.929   7.945   1.885 -0.8023 -0.0008  0.5407
14371TIP3    H243036   6.026   7.847   1.823 -2.3963 -0.4226 -1.3964
14372TIP3   OH243037   4.119   4.968   0.336 -0.0141  0.5721  0.5604
14372TIP3    H143038   4.117   4.938   0.427  0.3586  0.3559  0.4983
14372TIP3    H243039   4.185   4.913   0.294 -0.8159  0.0721 -0.0611
14373TIP3   OH243040   4.034   3.359   4.222 -0.1006 -0.2513 -0.0126
14373TIP3    H143041   3.953   3.373   4.271  0.4514  0.9801  0.6050
14373TIP3    H243042   4.011   3.378   4.131 -0.1433  1.8452  0.3795
14374TIP3   OH243043   7.105   0.797   4.416  0.0768 -0.0723  0.2142
14374TIP3    H143044   7.142   0.842   4.340  0.5994  0.5963  0.8451
14374TIP3    H243045   7.085   0.709   4.385 -3.4405  1.2231 -1.8507
14375TIP3   OH243046   4.873   2.391   3.972 -0.6704  0.0176  0.4734
14375TIP3    H143047   4.923   2.340   4.035  0.3967  0.5715  0.0981
14375TIP3    H243048   4.863   2.334   3.896 -0.5924 -0.0859  0.5426
14376TIP3   OH243049   0.769   0.412   0.384  0.3119  0.3511 -0.0952
14376TIP3    H143050   0.677   0.409   0.409  0.1801 -1.6491 -0.6329
14376TIP3    H243051   0.787   0.325   0.350  2.5018  0.5978  0.2909
14377TIP3   OH243052   2.435   4.435   1.912  0.3820  0.2092  0.0782
14377TIP3    H143053   2.435   4.433   1.816 -0.9498  1.5521  0.0098
14377TIP3    H243054   2.448   4.527   1.934 -0.6464  0.1219  1.1485
14378TIP3   OH243055   4.369   5.832   3.214  0.1521 -0.6797 -0.2078
14378TIP3    H143056   4.306   5.852   3.283  0.4339 -0.1713 -0.0849
14378TIP3    H243057   4.317   5.799   3.141 -0.4126  0.9722 -0.5908
14379TIP3   OH243058   7.213   2.241   1.039 -0.0790  0.1813 -0.3071
14379TIP3    H143059   7.207   2.153   1.003  1.8291  0.4275 -1.3398
14379TIP3    H243060   7.122   2.269   1.049 -0.7247 -1.8418 -0.0361
14380TIP3   OH243061   7.948   5.730   4.569 -0.0633 -0.0226 -0.2966
14380TIP3    H143062   8.010   5.673   4.524 -1.3928 -1.2551 -0.6167
14380TIP3    H243063   7.880   5.671   4.601 -0.4847  1.1512  1.0760
14381TIP3   OH243064   6.579   3.510   0.814  0.5100  0.6424  0.1067
14381TIP3    H143065   6.586   3.492   0.907  0.3255  1.4606  0.2894
14381TIP3    H243066   6.614   3.432   0.771  1.5790  0.6710  0.8772
14382TIP3   OH243067   8.386   3.339   5.894  0.0321  0.2089  0.3410
14382TIP3    H143068   8.379   3.285   5.972  0.0374 -0.9757 -0.4636
14382TIP3    H243069   8.399   3.277   5.822  0.3282  1.2884 -0.5690
14383TIP3   OH243070   7.875   4.185   0.670  0.1140 -0.2227 -0.2242
14383TIP3    H143071   7.872   4.279   0.654  1.8908 -0.1716 -0.3671
14383TIP3    H243072   7.923   4.176   0.752  0.7789 -1.0367 -0.6853
14384TIP3   OH243073   0.370   4.153   0.751 -0.5034 -0.0565 -0.8482
14384TIP3    H143074   0.284   4.112   0.753 -0.4848 -0.1216 -1.3247
14384TIP3    H243075   0.411   4.120   0.671 -0.1486  0.2016 -0.7782
14385TIP3   OH243076   5.778   7.193   6.014  0.9167 -0.3388  0.0846
14385TIP3    H143077   5.853   7.143   5.981  0.0595 -1.9457  0.4833
14385TIP3    H243078   5.719   7.199   5.939  1.3714  0.8623 -0.2065
14386TIP3   OH243079   5.663   5.965   0.008  0.4577 -0.4306 -0.1386
14386TIP3    H143080   5.632   5.930   0.091 -1.2880  1.0777 -0.0696
14386TIP3    H243081   5.647   5.896  -0.055  0.4799 -1.0693  0.5461
14387TIP3   OH243082   0.081   2.094   1.107 -0.5250  0.5317 -0.1357
14387TIP3    H143083   0.066   2.098   1.013 -0.2598  0.6188 -0.1740
14387TIP3    H243084   0.046   2.177   1.141  2.2116  1.9875 -0.5518
14388TIP3   OH243085   7.522   1.933   3.986 -0.0357 -0.2085 -0.5792
14388TIP3    H143086   7.487   1.856   4.032  1.1427 -0.8800 -0.7635
14388TIP3    H243087   7.491   2.007   4.037  1.3506 -0.9338  1.4661
14389TIP3   OH243088   1.673   0.872   1.155 -0.5819  0.0197  0.2720
14389TIP3    H143089   1.719   0.894   1.236 -0.5130 -0.2033  0.2955
14389TIP3    H243090   1.678   0.951   1.102  0.6321 -0.2925 -0.1031
14390TIP3   OH243091   3.220   4.847   5.238  0.2850 -0.3475 -0.2305
14390TIP3    H143092   3.199   4.798   5.158 -0.6346  1.3479 -1.0876
14390TIP3    H243093   3.161   4.922   5.236  1.7971  0.9373  0.8942
14391TIP3   OH243094   7.208   4.825   4.533  0.5403  0.2476 -0.2565
14391TIP3    H143095   7.120   4.802   4.563  0.3337  0.5966 -0.5742
14391TIP3    H243096   7.252   4.742   4.520  0.6626  0.0747  1.0661
14392TIP3   OH243097   1.833   1.428   2.535 -0.2315 -0.1694 -0.2968
14392TIP3    H143098   1.862   1.340   2.509  0.8534 -0.4853  1.7979
14392TIP3    H243099   1.778   1.413   2.612  0.1848  1.0150  0.2500
14393TIP3   OH243100   2.872   2.119   2.354 -0.8498  0.1533  0.4132
14393TIP3    H143101   2.949   2.145   2.406 -0.0625  2.1239 -1.5381
14393TIP3    H243102   2.884   2.026   2.338  1.5734  0.5244 -0.3824
14394TIP3   OH243103   0.884   6.338   7.064  0.2198  0.0788 -0.0586
14394TIP3    H143104   0.799   6.340   7.108 -0.0462  0.5285 -0.5902
14394TIP3    H243105   0.880   6.408   6.999  0.5557 -0.6560 -0.8946
14395TIP3   OH243106   8.392   4.061   1.380  0.2606  0.1842  1.1394
14395TIP3    H143107   8.344   4.128   1.430 -0.0556  1.1624 -0.4102
14395TIP3    H243108   8.338   4.046   1.302  1.8425  0.3850 -0.0298
14396TIP3   OH243109   0.422   5.392   6.168  0.2682  0.1786  0.1315
14396TIP3    H143110   0.457   5.365   6.253  0.7344 -1.9949 -0.6893
14396TIP3    H243111   0.364   5.321   6.142  0.3211  0.6733 -1.4841
14397TIP3   OH243112   0.764   6.723   4.924 -0.5932 -0.1005 -0.5015
14397TIP3    H143113   0.705   6.705   4.851 -1.0004  0.1979 -0.2528
14397TIP3    H243114   0.773   6.818   4.924 -2.1850  0.1111  1.0284
14398TIP3   OH243115   1.872   2.916   4.324  0.1529 -0.2668  0.1604
14398TIP3    H143116   1.883   2.823   4.304  0.0146 -0.1628 -0.4232
14398TIP3    H243117   1.945   2.937   4.382  0.5461 -0.5866 -0.2145
14399TIP3   OH243118   7.584   8.036   0.570 -0.2922  0.4531 -0.8813
14399TIP3    H143119   7.534   7.955   0.573  1.0531 -0.4471 -1.6507
14399TIP3    H243120   7.590   8.057   0.477  2.5594 -0.6811 -1.0564
14400TIP3   OH243121   5.360   5.561   2.328 -0.1105  0.1672  0.0597
14400TIP3    H143122   5.291   5.625   2.308 -0.4342 -0.5211 -1.1355
14400TIP3    H243123   5.326   5.510   2.401  0.1825  1.3871  1.0836
14401TIP3   OH243124   1.821   3.303   6.033 -0.1706  0.3485  0.1524
14401TIP3    H143125   1.814   3.399   6.040 -0.6251  0.3799 -0.5802
14401TIP3    H243126   1.878   3.278   6.105 -0.4500  1.1246  0.6619
14402TIP3   OH243127   5.830   4.842   4.077 -0.5082  0.9626  0.2348
14402TIP3    H143128   5.768   4.900   4.122 -0.3621  1.2570  0.0503
14402TIP3    H243129   5.801   4.754   4.103  0.3696  1.1392  1.9767
14403TIP3   OH243130   0.252   1.399   6.580 -0.3333  0.4162  0.0532
14403TIP3    H143131   0.252   1.468   6.513  1.2639  0.4132  0.0125
14403TIP3    H243132   0.342   1.396   6.610 -0.9299  0.1159  1.9237
14404TIP3   OH243133   3.071   6.049   2.570 -0.4786 -0.2240  0.6341
14404TIP3    H143134   2.988   6.060   2.524 -0.3465 -1.4127  0.0896
14404TIP3    H243135   3.070   6.117   2.638 -0.2658  2.2864 -1.6809
14405TIP3   OH243136   1.924   7.044   4.504  0.2600 -0.0015  0.1590
14405TIP3    H143137   1.984   7.013   4.435  0.6825  0.8052  0.1459
14405TIP3    H243138   1.966   7.123   4.537 -1.5113  1.4133 -0.8466
14406TIP3   OH243139   6.510   1.534   2.163  0.3277  0.1829 -0.0840
14406TIP3    H143140   6.535   1.605   2.104  0.9320 -0.2491 -0.3485
14406TIP3    H243141   6.424   1.561   2.197  1.1765  1.7571  0.9566
14407TIP3   OH243142   1.384   0.747   3.652  0.1089  0.0821  0.0522
14407TIP3    H143143   1.476   0.760   3.672  0.3419 -0.8252 -0.3758
14407TIP3    H243144   1.375   0.652   3.639 -0.9037  0.1395  0.2047
14408TIP3   OH243145   6.221   2.130   2.174  0.2869 -0.3498  0.0315
14408TIP3    H143146   6.153   2.069   2.145  0.5720 -1.5083  1.6300
14408TIP3    H243147   6.302   2.080   2.169  1.1106  1.0815 -2.0286
14409TIP3   OH243148   2.100   0.080   4.908 -0.2658  0.0290  0.3477
14409TIP3    H143149   2.114   0.075   5.003  0.3593 -1.1028  0.2103
14409TIP3    H243150   2.010   0.048   4.896  0.0478 -0.8936  0.4550
14410TIP3   OH243151   0.882   7.127   3.567 -0.5100  0.0720  0.1073
14410TIP3    H143152   0.850   7.209   3.531  1.2095  0.5486 -0.4421
14410TIP3    H243153   0.862   7.132   3.660  0.2008  1.4421  0.2051
14411TIP3   OH243154   7.563   4.048   6.332  0.5743  0.2610 -0.2381
14411TIP3    H143155   7.612   4.102   6.269  0.8868 -0.7334 -0.8739
14411TIP3    H243156   7.544   3.967   6.284 -1.1944  0.3803  0.1934
14412TIP3   OH243157   1.997   0.209   1.556  0.0187 -0.4693  0.6647
14412TIP3    H143158   2.013   0.299   1.531 -0.9095 -0.2435  0.8530
14412TIP3    H243159   2.009   0.159   1.475 -0.7227 -0.0251  0.2775
14413TIP3   OH243160   8.544   3.472   1.456  0.2781  0.4637  0.3212
14413TIP3    H143161   8.563   3.559   1.421  1.3152  0.3041  0.4587
14413TIP3    H243162   8.463   3.483   1.506 -1.1728  0.7434 -1.9469
14414TIP3   OH243163   7.493   3.509   1.654 -0.7558 -0.2816  0.2092
14414TIP3    H143164   7.569   3.488   1.707  0.7839  0.6517 -1.5392
14414TIP3    H243165   7.451   3.424   1.638  0.1595 -0.8695  0.8180
14415TIP3   OH243166   7.227   1.465   4.274 -0.3179 -0.1679  0.2029
14415TIP3    H143167   7.223   1.554   4.240  0.1273 -0.3455 -0.3281
14415TIP3    H243168   7.321   1.444   4.276 -0.4899 -1.1849 -1.1523
14416TIP3   OH243169   2.170   3.193   2.452  0.0560 -0.0265 -0.0705
14416TIP3    H143170   2.181   3.099   2.434  0.3233 -0.0328  0.1107
14416TIP3    H243171   2.201   3.236   2.373 -1.5058 -0.1273 -0.7635
14417TIP3   OH243172   7.290   7.743   3.274  0.0915 -0.1242  0.4226
14417TIP3    H143173   7.376   7.773   3.305 -0.0339  0.1642  0.4952
14417TIP3    H243174   7.261   7.681   3.341  0.9863 -1.5359 -0.4414
14418TIP3   OH243175   1.654   0.582   4.949  0.1999 -0.3581  0.1907
14418TIP3    H143176   1.597   0.655   4.975  0.8105 -0.4787  1.9997
14418TIP3    H243177   1.709   0.619   4.880 -2.2802 -0.3557 -1.9152
14419TIP3   OH243178   4.496   6.288   1.327 -0.3507  0.2665 -0.4402
14419TIP3    H143179   4.579   6.281   1.281 -1.0843  0.6302 -1.8678
14419TIP3    H243180   4.501   6.222   1.396  1.1188  0.3006 -0.4878
14420TIP3   OH243181   7.428   8.085   5.984 -0.7075 -0.5370 -0.8314
14420TIP3    H143182   7.466   8.021   5.923 -0.8242 -0.3393 -1.1144
14420TIP3    H243183   7.397   8.033   6.058  1.7961 -0.5751  0.3140
14421TIP3   OH243184   5.327   6.357   0.544 -0.3123  0.3626  0.3149
14421TIP3    H143185   5.401   6.386   0.490  0.2931 -1.0444  0.3519
14421TIP3    H243186   5.367   6.310   0.617 -1.2538 -2.4172 -0.8296
14422TIP3   OH243187   0.536   5.380   0.117  0.0798 -0.4699 -0.7533
14422TIP3    H143188   0.557   5.397   0.025  0.7345  0.3709 -0.4619
14422TIP3    H243189   0.484   5.455   0.145  0.7165 -0.2215 -0.1815
14423TIP3   OH243190   8.521   2.472   6.219 -0.6370 -0.0335  0.4029
14423TIP3    H143191   8.515   2.561   6.252  1.2084 -0.5114  2.1957
14423TIP3    H243192   8.532   2.417   6.297  1.4499 -1.4716 -0.8036
14424TIP3   OH243193   5.247   1.273   5.899 -0.2515  0.0751  0.1094
14424TIP3    H143194   5.333   1.240   5.871 -0.5958  1.0045 -2.3260
14424TIP3    H243195   5.265   1.324   5.978  1.5537  0.7147 -0.6640
14425TIP3   OH243196   2.978   2.620   2.937  0.2646 -0.7040  0.6395
14425TIP3    H143197   3.068   2.653   2.933 -0.1425  0.3849  0.3959
14425TIP3    H243198   2.970   2.585   3.026  0.8531 -0.5878  0.7420
14426TIP3   OH243199   4.971   6.895   2.275  0.0410  0.0317 -0.3147
14426TIP3    H143200   5.038   6.960   2.296 -0.0858 -0.3085  1.2514
14426TIP3    H243201   4.921   6.934   2.203  1.6771  0.4515 -1.2678
14427TIP3   OH243202   3.602   3.603   3.805 -0.5584  0.1803 -0.0968
14427TIP3    H143203   3.614   3.562   3.719  1.7642 -0.3371  0.4203
14427TIP3    H243204   3.657   3.681   3.802 -0.0578 -0.1135  1.0736
14428TIP3   OH243205   2.293   8.011   1.033  0.5283  0.2773 -0.3424
14428TIP3    H143206   2.332   7.925   1.021  1.2836  0.7589 -1.5416
14428TIP3    H243207   2.203   8.002   1.004  0.8127  0.0605 -1.1711
14429TIP3   OH243208   7.313   2.505   1.477 -0.2424 -0.1553  0.1218
14429TIP3    H143209   7.314   2.424   1.528  1.4450  0.0713  0.4914
14429TIP3    H243210   7.297   2.574   1.541  2.1427  0.1572  0.4659
14430TIP3   OH243211   5.624   5.241   4.812 -0.2302 -0.1320  0.9856
14430TIP3    H143212   5.649   5.234   4.720 -0.2302  0.2657  0.9533
14430TIP3    H243213   5.693   5.294   4.852  1.4934 -2.8350  1.8978
14431TIP3   OH243214   6.172   1.767   2.232  0.3181 -0.8246  0.0767
14431TIP3    H143215   6.238   1.773   2.164 -1.1260 -0.5436 -1.3658
14431TIP3    H243216   6.092   1.798   2.191 -0.5310 -0.2188  2.0477
14432TIP3   OH243217   2.090   0.799   0.166 -0.0073 -0.5160  0.5431
14432TIP3    H143218   2.080   0.792   0.261 -0.1051  1.3494  0.7135
14432TIP3    H243219   2.058   0.887   0.145  0.5688 -0.6659 -1.1451
14433TIP3   OH243220   0.276   0.073   1.398  0.4352  0.2494 -0.2679
14433TIP3    H143221   0.252   0.038   1.312  0.6627  0.3722 -0.3799
14433TIP3    H243222   0.216   0.146   1.412 -1.3810 -1.3607  0.8119
14434TIP3   OH243223   1.242   1.560   2.976  0.1790  0.3039  0.3606
14434TIP3    H143224   1.168   1.605   2.936  0.7889  0.9131 -0.1055
14434TIP3    H243225   1.282   1.625   3.033  2.2997  1.0985 -1.8595
14435TIP3   OH243226   0.692   1.666   1.334  0.0525 -0.0345  0.2167
14435TIP3    H143227   0.666   1.739   1.390 -1.1598 -1.3854  1.5202
14435TIP3    H243228   0.629   1.597   1.355  0.6451 -1.1838 -1.5804
14436TIP3   OH243229   8.648   4.581   5.248  0.0554  0.0845  0.0362
14436TIP3    H143230   8.645   4.510   5.184 -0.7628  1.0584 -1.0847
14436TIP3    H243231   8.559   4.586   5.283  0.7463 -1.1180  2.0952
14437TIP3   OH243232   2.100   5.181   0.228 -0.3370 -0.2951 -0.4357
14437TIP3    H143233   2.143   5.168   0.313  2.4844 -3.2361 -2.0960
14437TIP3    H243234   2.169   5.216   0.172 -2.5106  2.9217 -1.3254
14438TIP3   OH243235   4.792   5.650   0.397 -0.4261 -0.3422 -0.3455
14438TIP3    H143236   4.884   5.633   0.416 -0.7294  1.0944  3.1839
14438TIP3    H243237   4.791   5.735   0.354 -0.1290  0.6112  1.4260
14439TIP3   OH243238   2.926   2.133   1.908  0.1807 -0.3597  0.5197
14439TIP3    H143239   2.955   2.075   1.838  0.4177 -1.8052  1.7748
14439TIP3    H243240   2.836   2.106   1.926  0.4511 -0.6876  1.4413
14440TIP3   OH243241   2.564   2.447   5.659  0.0300  0.3110 -0.1777
14440TIP3    H143242   2.474   2.457   5.630  0.3326  0.7292 -1.0231
14440TIP3    H243243   2.559   2.443   5.755 -1.0421 -1.5973 -0.2766
14441TIP3   OH243244   5.632   8.032   1.858  0.4547 -0.7114 -0.3178
14441TIP3    H143245   5.699   8.086   1.898 -0.7468  0.3788  0.2957
14441TIP3    H243246   5.638   7.948   1.903  1.4694 -0.6825 -0.3719
14442TIP3   OH243247   4.434   3.082   2.247 -0.4746 -0.5152 -0.0216
14442TIP3    H143248   4.453   3.002   2.198  2.6222  0.5339 -0.7341
14442TIP3    H243249   4.490   3.148   2.208 -1.0133  1.4035  2.2536
14443TIP3   OH243250   8.435   5.993   4.507  0.0737 -0.0297  0.5459
14443TIP3    H143251   8.369   5.924   4.511 -0.8957  0.8151 -0.3289
14443TIP3    H243252   8.389   6.072   4.535  1.1572  0.2995  1.4900
14444TIP3   OH243253   2.903   6.423   1.498 -0.5765 -0.1392 -0.1069
14444TIP3    H143254   2.916   6.435   1.404  1.4376  0.3877  0.1861
14444TIP3    H243255   2.868   6.507   1.527  1.7097  0.8457  0.0265
14445TIP3   OH243256   7.380   3.680   1.146 -0.2149 -0.2532 -0.3083
14445TIP3    H143257   7.472   3.679   1.172 -0.4672 -1.1186  0.6418
14445TIP3    H243258   7.333   3.705   1.226 -0.7595  0.9217 -0.9797
14446TIP3   OH243259   3.223   1.120   4.578  0.7629  0.4546 -0.5088
14446TIP3    H143260   3.291   1.175   4.539 -0.0814  0.3339 -2.2289
14446TIP3    H243261   3.209   1.050   4.514 -0.6842  0.2388  0.0084
14447TIP3   OH243262   1.732   0.118   6.092 -0.3525 -0.1646 -0.0973
14447TIP3    H143263   1.664   0.121   6.159 -0.8705 -0.7747 -0.5796
14447TIP3    H243264   1.726   0.030   6.056  0.3763 -0.0643 -0.4733
14448TIP3   OH243265   4.072   6.679   2.916 -0.5304 -0.0556 -0.1294
14448TIP3    H143266   4.140   6.739   2.885 -2.1936  1.6554 -0.6630
14448TIP3    H243267   4.118   6.621   2.976  1.6576  0.1501 -1.4872
14449TIP3   OH243268   4.537   6.590   5.261  0.4218  0.2061 -0.1595
14449TIP3    H143269   4.612   6.644   5.286 -0.4798  1.2748  0.3346
14449TIP3    H243270   4.473   6.652   5.226 -0.8387 -0.4606  0.8734
14450TIP3   OH243271   3.401   2.446   3.750  0.3062  0.1718  0.3688
14450TIP3    H143272   3.402   2.401   3.665  0.8352 -1.6699  1.2821
14450TIP3    H243273   3.490   2.435   3.784 -0.4332 -0.9987  2.0468
14451TIP3   OH243274   5.931   4.606   0.552  0.3056 -0.2674  0.3454
14451TIP3    H143275   5.930   4.700   0.530  0.9795 -0.6455 -1.4508
14451TIP3    H243276   6.012   4.573   0.514 -0.5986 -1.8597 -0.2952
14452TIP3   OH243277   1.145   3.577   5.644 -0.2069 -0.0474 -0.7203
14452TIP3    H143278   1.205   3.561   5.717  0.1769  0.3681 -0.9402
14452TIP3    H243279   1.058   3.571   5.684  0.0067  1.2031  0.0119
14453TIP3   OH243280   7.554   6.781   3.148  0.0298  0.0570  0.9543
14453TIP3    H143281   7.621   6.718   3.121  0.4816 -0.2380  2.6226
14453TIP3    H243282   7.471   6.740   3.124  0.3918 -0.3320  0.3607
14454TIP3   OH243283   3.655   4.395   5.662 -0.0179 -0.4166  0.1727
14454TIP3    H143284   3.705   4.398   5.581 -1.0483  0.9600 -0.4355
14454TIP3    H243285   3.711   4.440   5.726 -1.1055  2.7330 -0.9220
14455TIP3   OH243286   6.172   7.395   0.847  0.1651 -0.1828  0.3684
14455TIP3    H143287   6.160   7.389   0.753  2.9209  0.6285 -0.1187
14455TIP3    H243288   6.195   7.486   0.864 -0.7697 -0.1895  1.9089
14456TIP3   OH243289   7.386   5.561   2.797  0.1137  0.3188 -0.4972
14456TIP3    H143290   7.328   5.493   2.831  1.8618 -0.2217  1.6325
14456TIP3    H243291   7.395   5.539   2.704  0.8609 -2.6463  0.1570
14457TIP3   OH243292   8.418   1.385   4.895 -0.0022 -0.1957  0.2294
14457TIP3    H143293   8.447   1.335   4.971 -0.1398  0.3639  0.6521
14457TIP3    H243294   8.473   1.353   4.823  1.5122  0.6747  0.9537
14458TIP3   OH243295   2.409   7.076   2.648 -0.3087  0.3156  0.2529
14458TIP3    H143296   2.427   7.070   2.554 -1.0935 -1.3475  0.1742
14458TIP3    H243297   2.429   7.167   2.670  0.5852  0.5605 -1.3710
14459TIP3   OH243298   7.823   4.401   5.003  1.1337  0.0093 -0.0592
14459TIP3    H143299   7.900   4.457   5.003  2.6929 -1.9801  0.3738
14459TIP3    H243300   7.813   4.374   5.095 -1.0270  1.3771  0.1681
14460TIP3   OH243301   7.162   0.813   6.529 -0.0724  0.2346  0.7503
14460TIP3    H143302   7.098   0.779   6.466  1.0442  1.4145 -1.1300
14460TIP3    H243303   7.247   0.801   6.486  0.8593 -0.0332  2.5858
14461TIP3   OH243304   0.265   6.371   0.668  0.1393  0.1635  0.3629
14461TIP3    H143305   0.336   6.371   0.732 -0.3474 -0.2341  0.9250
14461TIP3    H243306   0.290   6.304   0.604  0.7081  0.6769  0.0365
14462TIP3   OH243307   7.279   5.760   7.095  0.4994  0.2266  0.3602
14462TIP3    H143308   7.237   5.785   7.013 -0.1084  0.7718  0.8233
14462TIP3    H243309   7.362   5.807   7.095 -1.0048  3.1525  1.6288
14463TIP3   OH243310   2.265   5.503   3.679  0.2052  0.2228  0.5100
14463TIP3    H143311   2.279   5.590   3.716  1.5252 -0.2047  1.0552
14463TIP3    H243312   2.229   5.451   3.751  0.7269 -0.0398  0.5844
14464TIP3   OH243313   5.766   5.068   5.112  0.0670  0.2105 -0.8026
14464TIP3    H143314   5.745   5.077   5.019 -0.0101  1.0460 -0.7102
14464TIP3    H243315   5.723   4.987   5.138  0.2707 -0.1477 -1.5424
14465TIP3   OH243316   1.406   6.694   6.112 -0.4811 -0.4918 -0.3617
14465TIP3    H143317   1.402   6.709   6.017  1.1184  0.7583 -0.2628
14465TIP3    H243318   1.319   6.659   6.133 -1.1099 -0.1831 -2.1822
14466TIP3   OH243319   4.009   0.495   7.090  0.0540 -0.1963  0.3382
14466TIP3    H143320   3.967   0.456   7.013  1.6145  1.4518 -1.4542
14466TIP3    H243321   3.952   0.567   7.116  0.5281  0.5420 -0.6091
14467TIP3   OH243322   5.731   6.012   1.169  0.1147  0.2278  0.1917
14467TIP3    H143323   5.711   6.061   1.249  2.4584  1.4830  0.0930
14467TIP3    H243324   5.823   6.031   1.151 -0.6973  1.4168 -3.7769
14468TIP3   OH243325   3.079   0.713   1.532 -0.1690  0.0707 -0.2798
14468TIP3    H143326   3.119   0.725   1.446 -1.3059  1.7642 -0.6197
14468TIP3    H243327   2.986   0.732   1.519 -0.2934  0.8702  1.4111
14469TIP3   OH243328   3.573   5.595   3.783 -0.1356  0.2894  0.1229
14469TIP3    H143329   3.539   5.583   3.694 -1.2816  0.7045  0.4895
14469TIP3    H243330   3.667   5.604   3.771 -0.1956 -0.3112 -0.9862
14470TIP3   OH243331   0.386   0.465   2.263  1.2702 -0.1830  0.4537
14470TIP3    H143332   0.349   0.386   2.303  3.1752 -2.0804 -1.3112
14470TIP3    H243333   0.438   0.505   2.333 -0.0886 -0.1814  1.5077
14471TIP3   OH243334   2.876   7.437   6.586  0.4845  0.3619 -0.0206
14471TIP3    H143335   2.856   7.357   6.636 -1.6243 -0.0635 -1.3858
14471TIP3    H243336   2.954   7.414   6.535 -0.5070 -1.1624 -0.9489
14472TIP3   OH243337   7.905   7.820   6.471  0.0470 -0.2758 -0.1683
14472TIP3    H143338   7.893   7.822   6.376  0.8296 -0.0534 -0.2722
14472TIP3    H243339   7.824   7.783   6.505 -1.2558  1.8605 -0.7621
14473TIP3   OH243340   6.811   4.699   5.622 -0.2301 -0.1284 -0.3818
14473TIP3    H143341   6.751   4.773   5.606 -0.1790 -0.2668 -1.2321
14473TIP3    H243342   6.813   4.691   5.718 -2.1255 -0.5640 -0.3405
14474TIP3   OH243343   6.783   4.540   4.909 -0.4637  0.1174  0.0441
14474TIP3    H143344   6.779   4.596   4.986  0.2632 -0.1809  0.3125
14474TIP3    H243345   6.866   4.492   4.919 -0.3687  0.0605 -0.9093
14475TIP3   OH243346   4.622   4.785   6.147 -0.2959 -0.5532 -0.1741
14475TIP3    H143347   4.551   4.725   6.170  0.6852 -1.7623 -0.1963
14475TIP3    H243348   4.599   4.817   6.059 -0.6218 -1.2222 -0.3388
14476TIP3   OH243349   5.813   3.416   5.942  0.4857 -0.1727 -0.6369
14476TIP3    H143350   5.868   3.377   5.874  0.1303 -0.3382 -0.8289
14476TIP3    H243351   5.792   3.503   5.908  1.7346  0.4336  0.0328
14477TIP3   OH243352   3.911   2.444   3.448 -0.4107  0.0289 -0.3548
14477TIP3    H143353   3.988   2.500   3.460 -2.5438  3.0637  0.3034
14477TIP3    H243354   3.916   2.417   3.357  1.8214 -0.6024 -0.1250
14478TIP3   OH243355   2.100   3.987   2.881 -0.2417 -0.4076  0.0376
14478TIP3    H143356   2.166   4.042   2.840  1.5372 -0.6008  2.4420
14478TIP3    H243357   2.091   3.912   2.822  0.7802  0.1997 -0.9354
14479TIP3   OH243358   2.459   8.096   1.258  0.0637  0.3732 -0.1664
14479TIP3    H143359   2.416   8.088   1.173 -1.3800 -0.9490  0.6500
14479TIP3    H243360   2.514   8.018   1.265 -1.3871 -0.6103  0.9169
14480TIP3   OH243361   6.034   4.636   1.943  0.6341 -0.1915  0.7279
14480TIP3    H143362   6.040   4.552   1.897 -1.3744 -0.3874  0.7549
14480TIP3    H243363   6.038   4.612   2.036  1.9670 -0.0429  0.7339
14481TIP3   OH243364   6.834   2.665   6.953  0.5370  0.1003  0.0517
14481TIP3    H143365   6.901   2.676   6.886  0.4638 -1.2914 -0.2837
14481TIP3    H243366   6.872   2.603   7.015 -0.3587 -0.5471 -0.0309
14482TIP3   OH243367   3.257   2.727   1.086 -0.0321 -0.7314  0.5359
14482TIP3    H143368   3.298   2.811   1.107 -1.9465  0.8643 -1.5922
14482TIP3    H243369   3.251   2.727   0.991 -0.5081 -3.1254  0.5066
14483TIP3   OH243370   6.773   1.024   5.506  0.2329 -0.1422  0.4192
14483TIP3    H143371   6.806   1.083   5.438  0.0126 -0.8349 -0.3143
14483TIP3    H243372   6.729   0.954   5.457 -0.2383 -0.4754  1.2945
14484TIP3   OH243373   8.145   2.066   0.001  0.1244 -0.1006  0.1098
14484TIP3    H143374   8.126   1.985   0.048  1.9304 -0.3879  0.3957
14484TIP3    H243375   8.234   2.089   0.027 -0.6047  2.4265  0.6549
14485TIP3   OH243376   7.753   6.925   2.672  0.0004 -0.3592  0.0556
14485TIP3    H143377   7.746   6.830   2.682  1.5728 -0.3715  1.5397
14485TIP3    H243378   7.760   6.939   2.578  0.5112 -1.7740 -0.1359
14486TIP3   OH243379   6.788   1.777   1.094 -0.3460  0.0201 -0.2643
14486TIP3    H143380   6.826   1.726   1.022  0.0609 -1.8640  1.2181
14486TIP3    H243381   6.863   1.810   1.143 -0.6225  0.9770 -0.4741
14487TIP3   OH243382   7.200   0.795   0.419 -0.2286 -0.2116 -0.4069
14487TIP3    H143383   7.133   0.779   0.485 -0.9058 -0.0308 -1.0287
14487TIP3    H243384   7.263   0.725   0.430  0.0486  0.2263  0.9031
14488TIP3   OH243385   3.517   2.927   4.919  0.1286 -0.0835  0.1074
14488TIP3    H143386   3.598   2.902   4.963  0.9095  3.8635  1.3185
14488TIP3    H243387   3.466   2.973   4.987 -2.0475 -0.3691 -1.2489
14489TIP3   OH243388   3.967   4.268   6.771 -0.3408  0.7636 -0.0452
14489TIP3    H143389   3.939   4.311   6.852 -0.9837 -2.2100  1.4506
14489TIP3    H243390   3.904   4.297   6.706 -1.5955  0.9642  1.2145
14490TIP3   OH243391   6.490   5.669   3.408 -0.6369 -0.3441  0.2669
14490TIP3    H143392   6.405   5.670   3.364 -0.1563  1.0271 -0.7016
14490TIP3    H243393   6.488   5.744   3.466  0.2477  0.2828 -0.4798
14491TIP3   OH243394   2.236   1.199   4.940  0.6725 -0.7606  0.9532
14491TIP3    H143395   2.301   1.251   4.892 -2.1220  0.9437 -1.3119
14491TIP3    H243396   2.200   1.259   5.005 -1.8546  0.0207 -1.0030
14492TIP3   OH243397   5.911   6.742   3.310  0.2966  0.4858  1.0600
14492TIP3    H143398   5.880   6.800   3.380 -0.1520 -0.2072  1.4385
14492TIP3    H243399   6.005   6.735   3.325  0.2386  0.5266  1.4517
14493TIP3   OH243400   1.740   3.068   3.444  0.1415  0.4700  0.0160
14493TIP3    H143401   1.675   3.047   3.377 -0.0838 -1.2187  0.7266
14493TIP3    H243402   1.745   3.164   3.442 -1.3693  0.5685 -0.9878
14494TIP3   OH243403   6.334   6.427   2.017 -0.3384 -0.3764  0.6055
14494TIP3    H143404   6.347   6.522   2.012 -0.2674 -0.2927  2.1211
14494TIP3    H243405   6.249   6.416   2.060 -0.6730 -1.0062 -0.1845
14495TIP3   OH243406   1.702   7.428   0.682 -0.0878 -0.2328 -0.3260
14495TIP3    H143407   1.758   7.494   0.723 -2.3312  0.4927  1.7714
14495TIP3    H243408   1.657   7.386   0.755 -1.2622 -1.7464 -1.8476
14496TIP3   OH243409   3.595   4.284   6.100  0.1124  0.2386 -0.0045
14496TIP3    H143410   3.631   4.197   6.119 -2.5611 -0.8168  0.7451
14496TIP3    H243411   3.542   4.305   6.177  0.2800  2.3249 -0.4177
14497TIP3   OH243412   1.372   7.627   4.777 -0.3285  0.1532  0.1307
14497TIP3    H143413   1.450   7.680   4.793  0.8850 -1.8639  1.3360
14497TIP3    H243414   1.326   7.625   4.861 -0.2510 -0.8074  0.1665
14498TIP3   OH243415   6.075   0.533   6.968  0.1948 -0.0926  0.4540
14498TIP3    H143416   5.985   0.519   6.999 -0.6888 -1.4092 -2.3490
14498TIP3    H243417   6.085   0.628   6.967 -1.2077  0.0932  0.7351
14499TIP3   OH243418   3.392   4.177   2.775  0.0336  0.8100  0.6212
14499TIP3    H143419   3.381   4.085   2.799 -1.0875  0.8562  0.3430
14499TIP3    H243420   3.308   4.201   2.736  0.9530  1.4094 -1.0740
14500TIP3   OH243421   2.266   6.741   5.683 -0.4792 -0.0442 -0.2325
14500TIP3    H143422   2.228   6.766   5.599  1.5312  2.0151 -0.6322
14500TIP3    H243423   2.248   6.647   5.691 -1.5349 -0.0893 -2.4905
14501TIP3   OH243424   6.702   3.271   5.456  0.7652  0.4653 -0.4314
14501TIP3    H143425   6.631   3.298   5.515  2.5944  0.9161  1.6896
14501TIP3    H243426   6.691   3.176   5.447 -0.2184  0.5596 -0.3150
14502TIP3   OH243427   2.889   6.422   1.218  0.4657 -0.0851  0.2174
14502TIP3    H143428   2.818   6.453   1.162 -0.5088 -0.6196  1.1084
14502TIP3    H243429   2.851   6.346   1.264  1.8382 -0.7993  0.2099
14503TIP3   OH243430   4.443   0.390   2.046  0.1842 -0.0570  0.0327
14503TIP3    H143431   4.433   0.442   2.126  1.9941  1.2470 -0.5309
14503TIP3    H243432   4.500   0.443   1.990  0.3969 -1.7359 -1.4081
14504TIP3   OH243433   5.162   5.177  -0.026 -0.3144  0.0264 -0.2476
14504TIP3    H143434   5.146   5.082  -0.033 -1.9505  0.3345 -1.2964
14504TIP3    H243435   5.130   5.200   0.062 -2.1423 -0.0610 -0.8326
14505TIP3   OH243436   0.506   4.964   4.992 -0.0683 -0.0596  0.3686
14505TIP3    H143437   0.479   4.983   4.902  1.3785  0.8342  0.0903
14505TIP3    H243438   0.429   4.924   5.032 -0.5490 -1.0523 -1.4358
14506TIP3   OH243439   6.610   6.768   5.884  0.3161  0.3969 -0.2638
14506TIP3    H143440   6.537   6.808   5.836 -0.4321 -0.5189  0.0531
14506TIP3    H243441   6.567   6.717   5.954  1.2556 -0.2733 -0.1525
14507TIP3   OH243442   8.253   6.906   0.194  0.0669  0.2263  0.3324
14507TIP3    H143443   8.290   6.994   0.205 -2.1206  1.0191  2.3584
14507TIP3    H243444   8.203   6.910   0.112  1.2139  0.3643 -0.3723
14508TIP3   OH243445   1.496   4.403   5.513  0.0291 -0.3964 -0.0132
14508TIP3    H143446   1.469   4.325   5.561 -0.8891 -0.3110 -0.3646
14508TIP3    H243447   1.589   4.412   5.531  0.2166 -1.7621 -0.2385
14509TIP3   OH243448   1.647   0.672   0.256  0.7318 -0.1466 -0.0139
14509TIP3    H143449   1.577   0.671   0.191 -0.0448  0.8568  0.7592
14509TIP3    H243450   1.722   0.632   0.212 -0.1761 -0.7872 -1.0325
14510TIP3   OH243451   8.640   7.886   3.659  0.4183  0.8692  0.3060
14510TIP3    H143452   8.717   7.925   3.618 -0.0193  0.6752 -0.7304
14510TIP3    H243453   8.653   7.792   3.651 -1.1448  0.7712 -2.3875
14511TIP3   OH243454   2.596   6.059   2.435  0.4530  0.1455 -0.1334
14511TIP3    H143455   2.538   6.079   2.509 -0.1156  1.0666 -0.8098
14511TIP3    H243456   2.545   6.001   2.379  1.0031 -0.8173  0.3391
14512TIP3   OH243457   2.131   5.744   6.349  0.3105 -0.3539 -0.3496
14512TIP3    H143458   2.098   5.700   6.271 -3.1231  2.7827 -0.9180
14512TIP3    H243459   2.104   5.687   6.421 -0.3210 -1.1761 -1.2089
14513TIP3   OH243460   8.066   6.761   6.022  0.4619  0.3203  0.2236
14513TIP3    H143461   8.153   6.734   5.991  0.6137  2.3583 -1.3035
14513TIP3    H243462   8.084   6.813   6.101  0.6960  1.2422 -0.4294
14514TIP3   OH243463   8.498   4.477   6.348 -0.5173  0.3493  0.7077
14514TIP3    H143464   8.448   4.530   6.410  0.3870  1.3954  0.5587
14514TIP3    H243465   8.588   4.480   6.380 -0.3327 -0.5609  0.3241
14515TIP3   OH243466   6.694   5.677   6.226  0.6205  0.5891  0.3948
14515TIP3    H143467   6.696   5.663   6.131  1.6531  1.8488  0.2044
14515TIP3    H243468   6.706   5.590   6.263 -0.5453 -0.0338 -0.6059
14516TIP3   OH243469   6.569   3.140   5.755  0.5268 -0.3590  0.9036
14516TIP3    H143470   6.583   3.198   5.680  0.6235  0.8032  1.7800
14516TIP3    H243471   6.637   3.165   5.817 -0.2124 -0.5439  1.8104
14517TIP3   OH243472   7.019   0.610   2.165  0.0493  0.9774 -0.1598
14517TIP3    H143473   6.945   0.636   2.220 -0.4420 -2.3157  0.9427
14517TIP3    H243474   7.003   0.518   2.146  1.9730  1.1456 -3.1021
14518TIP3   OH243475   1.841   8.049   0.586 -0.1516 -0.7074  0.8095
14518TIP3    H143476   1.827   7.959   0.617 -0.7057 -0.5789  0.9310
14518TIP3    H243477   1.763   8.069   0.535 -0.1173 -0.2208  0.9489
14519TIP3   OH243478   5.175   0.906   6.844  0.6170 -0.2690 -0.2312
14519TIP3    H143479   5.097   0.954   6.817  1.2054  0.6903 -0.2743
14519TIP3    H243480   5.190   0.934   6.935  0.3989 -1.1482  0.0885
14520TIP3   OH243481   0.034   1.910   6.204  0.1455  0.3559  0.3764
14520TIP3    H143482   0.055   1.975   6.272  0.2377  1.6934 -0.8772
14520TIP3    H243483  -0.034   1.953   6.152  0.3133 -0.5102 -0.5670
14521TIP3   OH243484   5.801   4.680   5.473  0.4769  0.0541  0.3200
14521TIP3    H143485   5.872   4.640   5.523  0.6654 -1.1207 -0.8551
14521TIP3    H243486   5.809   4.642   5.386 -1.7815 -0.3391  0.2408
14522TIP3   OH243487   2.233   5.607   2.366  0.3723 -0.0220 -0.0417
14522TIP3    H143488   2.294   5.546   2.407 -1.4798 -1.6384  0.4486
14522TIP3    H243489   2.207   5.666   2.437 -0.5380 -0.9199  0.3803
14523TIP3   OH243490   8.466   3.436   6.747 -0.3695  0.1622  0.4171
14523TIP3    H143491   8.371   3.448   6.739 -0.3979 -0.1653  0.2558
14523TIP3    H243492   8.501   3.525   6.747 -0.6766  0.2849  0.4767
14524TIP3   OH243493   3.370   2.623   0.091  0.3254  0.6006  0.0325
14524TIP3    H143494   3.339   2.669   0.169  1.8094 -0.1148  1.1017
14524TIP3    H243495   3.357   2.685   0.020  0.6086  1.9875  1.1369
14525TIP3   OH243496   0.502   2.618   3.667  0.0821  0.0406  0.8525
14525TIP3    H143497   0.595   2.610   3.645 -0.1070 -0.4914  0.1990
14525TIP3    H243498   0.501   2.638   3.760  0.8886  1.3998  0.5958
14526TIP3   OH243499   7.174   0.649   3.477  0.3577 -0.6019 -0.4229
14526TIP3    H143500   7.147   0.621   3.565  0.6226 -0.4535 -0.2930
14526TIP3    H243501   7.110   0.610   3.418  0.5714 -1.2666 -0.2193
14527TIP3   OH243502   6.646   0.746   2.447  0.1535  0.0937 -0.1497
14527TIP3    H143503   6.682   0.759   2.535 -0.1307 -0.1600  0.0050
14527TIP3    H243504   6.642   0.834   2.410  0.6113  0.1633 -0.0429
14528TIP3   OH243505   3.361   6.707   0.908 -0.7074 -0.1950  0.6741
14528TIP3    H143506   3.385   6.800   0.906 -1.2245 -0.0697 -0.5161
14528TIP3    H243507   3.334   6.692   0.999 -1.7037  1.1155  0.6348
14529TIP3   OH243508   2.178   2.627   4.749 -0.5966 -0.0565 -0.2813
14529TIP3    H143509   2.121   2.621   4.825 -2.3255 -0.4784 -1.5349
14529TIP3    H243510   2.247   2.563   4.765 -1.5471 -0.9327  0.4483
14530TIP3   OH243511   1.858   4.705   2.183 -0.4005 -0.2895 -0.2215
14530TIP3    H143512   1.920   4.660   2.240 -0.8580  0.4861  0.9377
14530TIP3    H243513   1.878   4.798   2.196 -0.7765 -0.0868 -1.0399
14531TIP3   OH243514   1.430   3.389   5.525 -0.9543 -0.2943  0.2617
14531TIP3    H143515   1.366   3.445   5.480 -2.0977 -1.2652  0.6172
14531TIP3    H243516   1.418   3.409   5.618 -1.9687 -1.6569  0.4682
14532TIP3   OH243517   7.779   6.289   3.551  0.6888 -0.0801  0.3252
14532TIP3    H143518   7.729   6.312   3.629 -0.8073 -0.7821 -0.3808
14532TIP3    H243519   7.757   6.358   3.488  0.4662 -0.4735 -0.0375
14533TIP3   OH243520   4.738   0.397   1.919  0.0250 -0.0006 -0.1502
14533TIP3    H143521   4.758   0.451   1.996 -0.7400  0.3334 -0.1745
14533TIP3    H243522   4.661   0.438   1.881 -0.5347 -1.0890 -0.2095
14534TIP3   OH243523   8.414   7.196   5.102 -0.1158 -0.4282 -0.1796
14534TIP3    H143524   8.431   7.290   5.108  1.0627 -0.6449  0.1491
14534TIP3    H243525   8.467   7.167   5.029  0.9677 -1.1320  0.8518
14535TIP3   OH243526   6.078   3.267   3.409  0.0045  0.1319  0.3948
14535TIP3    H143527   6.147   3.261   3.342 -0.0607  0.8922  0.2472
14535TIP3    H243528   6.048   3.177   3.421 -1.0202  0.1124 -1.7104
14536TIP3   OH243529   6.601   7.350   4.106 -0.8466 -0.1470 -0.3492
14536TIP3    H143530   6.520   7.350   4.055 -1.2064  0.6715  0.2004
14536TIP3    H243531   6.647   7.429   4.079  0.4137 -1.2349 -1.5951
14537TIP3   OH243532   4.557   0.597   3.853  0.0395  0.3309 -0.2546
14537TIP3    H143533   4.620   0.667   3.872 -0.5866  0.4942  1.4099
14537TIP3    H243534   4.508   0.629   3.778  1.3278  0.6024 -1.0093
14538TIP3   OH243535   1.077   4.074   1.957  0.4163 -0.3642 -0.3937
14538TIP3    H143536   1.155   4.031   1.922  1.3221  1.8843 -1.3524
14538TIP3    H243537   1.004   4.020   1.927  1.1216  1.0297 -5.5310
14539TIP3   OH243538   4.913   5.018   0.609  0.0308  0.0444 -0.0812
14539TIP3    H143539   4.877   4.944   0.561 -2.5423  1.9942 -1.4099
14539TIP3    H243540   4.837   5.058   0.652  0.5482  3.8022 -2.1879
14540TIP3   OH243541   3.618   5.458   2.711  0.5379  0.1815 -0.6474
14540TIP3    H143542   3.631   5.378   2.762  1.0889  0.1632 -0.8048
14540TIP3    H243543   3.524   5.476   2.718  0.5719  0.0654  0.1921
14541TIP3   OH243544   5.311   2.271   6.385 -0.1909 -0.2689  0.2801
14541TIP3    H143545   5.362   2.333   6.438 -0.6184 -0.6496  1.1683
14541TIP3    H243546   5.297   2.316   6.302  0.3555  0.4266  0.5538
14542TIP3   OH243547   3.534   7.777   1.653 -0.2228  0.4291  0.0376
14542TIP3    H143548   3.608   7.773   1.594 -1.2394  0.8358 -1.3088
14542TIP3    H243549   3.514   7.686   1.674 -0.9426  0.1555 -1.6906
14543TIP3   OH243550   4.459   4.354   0.843  0.0840 -0.3905 -0.0298
14543TIP3    H143551   4.525   4.285   0.849  0.8198  0.0345 -2.4432
14543TIP3    H243552   4.387   4.316   0.793  1.3657  1.0835 -3.2498
14544TIP3   OH243553   7.626   1.698   0.179 -0.7754 -0.0115  0.3205
14544TIP3    H143554   7.675   1.721   0.258  1.0834  1.5749 -1.2111
14544TIP3    H243555   7.576   1.777   0.158 -1.9396 -0.7097  0.3443
14545TIP3   OH243556   7.638   4.475   5.290  0.1700  0.1669 -0.1748
14545TIP3    H143557   7.683   4.557   5.274  0.6084  0.3334  1.6493
14545TIP3    H243558   7.547   4.500   5.308 -0.7106 -0.1415 -3.5249
14546TIP3   OH243559   2.718   2.080   1.504  0.2313  0.1012 -0.0163
14546TIP3    H143560   2.734   2.100   1.411  1.2323 -0.3895  0.0386
14546TIP3    H243561   2.652   2.011   1.502  0.4297 -0.0850 -0.3852
14547TIP3   OH243562   5.059   4.764   7.006 -0.7125  0.0750 -0.1205
14547TIP3    H143563   5.041   4.802   7.092 -0.6774  0.3176 -0.2206
14547TIP3    H243564   5.136   4.811   6.974 -0.7008 -0.0423 -0.2672
14548TIP3   OH243565   1.525   6.734   4.055  0.5346 -0.4648  0.4151
14548TIP3    H143566   1.441   6.692   4.074  0.4274 -0.3278  0.2459
14548TIP3    H243567   1.509   6.827   4.070  0.8372 -0.5047  1.0291
14549TIP3   OH243568   0.211   0.712   5.041 -0.0944 -0.2921  0.7425
14549TIP3    H143569   0.202   0.637   4.982  0.4344  1.1170 -1.2260
14549TIP3    H243570   0.298   0.702   5.080  0.3680 -0.1964 -0.2559
14550TIP3   OH243571   0.164   5.740   6.191 -0.0008 -0.1877 -0.1996
14550TIP3    H143572   0.199   5.780   6.270 -1.5678 -0.8449  0.8813
14550TIP3    H243573   0.151   5.648   6.214 -1.4071 -0.1870 -0.8677
14551TIP3   OH243574   3.917   2.641   4.793  0.1891  0.4022 -0.3389
14551TIP3    H143575   3.941   2.619   4.883  2.3578  1.0265 -0.7105
14551TIP3    H243576   3.843   2.702   4.801 -0.2378 -0.2644  0.9570
14552TIP3   OH243577   4.335   0.934   4.542 -0.6737 -0.1887  0.2536
14552TIP3    H143578   4.249   0.928   4.501 -0.5096 -1.5728  0.0742
14552TIP3    H243579   4.317   0.937   4.636 -1.0141  2.2049  0.1600
14553TIP3   OH243580   4.201   6.451   6.120 -0.0630 -0.3827  0.2551
14553TIP3    H143581   4.236   6.364   6.137  2.2014  0.1893 -1.1509
14553TIP3    H243582   4.183   6.487   6.207  1.1863 -1.3951  0.9678
14554TIP3   OH243583   0.386   4.443   6.866 -0.3861  0.4464 -0.0893
14554TIP3    H143584   0.371   4.449   6.961 -1.7751  1.2735 -0.3346
14554TIP3    H243585   0.348   4.359   6.841  0.7052 -0.1428  0.2021
14555TIP3   OH243586   1.195   7.307   6.916 -0.6630  0.2469 -0.0136
14555TIP3    H143587   1.179   7.401   6.910  0.2840  0.4250  0.0412
14555TIP3    H243588   1.286   7.296   6.888 -0.7441 -0.6492  0.0300
14556TIP3   OH243589   5.531   1.781   1.646  0.0502 -0.1364  0.6031
14556TIP3    H143590   5.467   1.849   1.622 -0.7409 -0.5636  1.4471
14556TIP3    H243591   5.509   1.757   1.736  1.5395 -0.1668  0.9854
14557TIP3   OH243592   1.892   7.987   7.033 -0.0180  0.1703 -0.7157
14557TIP3    H143593   1.984   8.011   7.024 -0.3167  1.1797 -1.2129
14557TIP3    H243594   1.850   8.065   7.069 -0.3134 -1.0275  1.7291
14558TIP3   OH243595   1.532   5.942   2.434  0.0294  0.0854  0.4288
14558TIP3    H143596   1.605   6.004   2.432 -1.0613  1.4097 -0.7343
14558TIP3    H243597   1.472   5.978   2.500 -0.4921  0.1652 -0.0748
14559TIP3   OH243598   5.714   2.992   6.360 -0.5502  0.3514 -0.1410
14559TIP3    H143599   5.709   3.062   6.424  0.9729  0.6923 -0.3581
14559TIP3    H243600   5.711   2.911   6.412 -0.2726  0.6133  0.2906
14560TIP3   OH243601   6.502   8.148   5.861 -0.5091  0.2505  0.1077
14560TIP3    H143602   6.540   8.212   5.802  0.3532  0.9036  1.3349
14560TIP3    H243603   6.572   8.085   5.878 -0.6558  0.2210  0.6356
14561TIP3   OH243604   1.615   6.483   0.798  0.1280 -0.0573  0.3358
14561TIP3    H143605   1.574   6.445   0.720  0.4518 -0.3667  0.3105
14561TIP3    H243606   1.664   6.410   0.836  0.2450  0.1811  0.6391
14562TIP3   OH243607   4.900   6.585   5.585 -0.3730 -0.3596  0.0913
14562TIP3    H143608   4.949   6.652   5.632 -0.7446  0.4179 -0.6038
14562TIP3    H243609   4.923   6.503   5.629  1.2325  0.0297  0.0414
14563TIP3   OH243610   6.142   1.503   2.003 -0.0949  0.2368 -0.7630
14563TIP3    H143611   6.104   1.587   1.978  2.3020  1.5520 -0.3463
14563TIP3    H243612   6.139   1.501   2.098 -0.3440 -0.2691 -0.7750
14564TIP3   OH243613   2.633   3.184   6.451 -0.7570 -0.5801 -0.2424
14564TIP3    H143614   2.573   3.164   6.523 -0.6266 -1.5437 -0.3862
14564TIP3    H243615   2.661   3.274   6.467 -0.4703 -0.8845  1.0999
14565TIP3   OH243616   5.594   0.790   1.205  0.3936 -0.3968  0.4463
14565TIP3    H143617   5.553   0.735   1.272  0.4010 -0.3849  0.4607
14565TIP3    H243618   5.582   0.741   1.124 -1.3662  0.4590  0.1247
14566TIP3   OH243619   6.872   0.562   4.728 -0.3355  0.3684 -0.0229
14566TIP3    H143620   6.799   0.558   4.668 -2.0282  1.7517  1.8000
14566TIP3    H243621   6.870   0.478   4.775  0.7058 -0.5191 -1.4950
14567TIP3   OH243622   2.629   7.311   5.168 -0.4410 -0.0325  0.6816
14567TIP3    H143623   2.621   7.244   5.236 -0.6121 -0.0985  0.5958
14567TIP3    H243624   2.627   7.261   5.086 -0.8752  0.1067  0.6075
14568TIP3   OH243625   6.222   6.088   0.580 -0.2570 -0.3087 -0.0542
14568TIP3    H143626   6.264   6.170   0.557  0.4276 -0.5861  0.2002
14568TIP3    H243627   6.137   6.114   0.616  0.8365  0.4256  2.1386
14569TIP3   OH243628   0.157   7.274   3.590 -0.5366  0.1827 -0.0384
14569TIP3    H143629   0.067   7.245   3.600 -0.4811 -0.5304 -1.4152
14569TIP3    H243630   0.150   7.365   3.561 -0.7466  0.8697  2.0338
14570TIP3   OH243631   4.734   5.655   1.840 -0.1619  0.1471  0.6188
14570TIP3    H143632   4.644   5.631   1.865 -0.2678  0.6383  0.7182
14570TIP3    H243633   4.789   5.613   1.906 -0.4365  1.3502  1.6551
14571TIP3   OH243634   6.051   1.591   6.137  0.2548 -0.1730 -0.0775
14571TIP3    H143635   6.054   1.677   6.094 -0.4690  0.1357  0.4562
14571TIP3    H243636   5.957   1.572   6.144  0.4122 -1.0758 -0.3047
14572TIP3   OH243637   3.973   6.534   1.341 -0.1231 -0.3058  0.3429
14572TIP3    H143638   4.054   6.582   1.324 -0.0225 -0.9470 -1.1268
14572TIP3    H243639   3.945   6.564   1.428  0.1438  2.1190 -0.3310
14573TIP3   OH243640   5.400   3.907   4.557  0.0014 -0.0012  0.2107
14573TIP3    H143641   5.388   3.878   4.647 -0.5374  0.4670  0.2969
14573TIP3    H243642   5.313   3.937   4.530 -0.1905 -1.4835 -0.9557
14574TIP3   OH243643   1.909   0.401   5.176  0.4439  0.1973  0.2643
14574TIP3    H143644   1.968   0.326   5.179 -1.7681 -1.7347 -1.2580
14574TIP3    H243645   1.913   0.431   5.085 -1.2624 -0.3464 -0.0338
14575TIP3   OH243646   5.172   2.971   0.902 -0.6053 -0.2735 -0.0564
14575TIP3    H143647   5.193   2.904   0.967 -2.4849 -1.1166 -0.2408
14575TIP3    H243648   5.103   3.023   0.943  0.0388  0.8716 -0.3734
14576TIP3   OH243649   5.386   0.487   0.431  0.4860  0.0455  0.4274
14576TIP3    H143650   5.354   0.398   0.415  0.2070 -0.0692  1.5112
14576TIP3    H243651   5.475   0.474   0.463  0.0859  0.0641  1.6067
14577TIP3   OH243652   3.961   4.498   4.966  0.0039  0.0700 -0.0824
14577TIP3    H143653   3.923   4.578   4.928 -0.8616  0.3487  1.3096
14577TIP3    H243654   3.939   4.429   4.903 -0.6988  0.6483 -0.4882
14578TIP3   OH243655   8.645   3.925   3.206 -0.3208 -0.6111 -0.3227
14578TIP3    H143656   8.694   3.959   3.281  1.1646 -0.6839 -1.2259
14578TIP3    H243657   8.559   3.902   3.242 -0.0934  0.5747  1.0743
14579TIP3   OH243658   3.590   5.670   6.265  0.0614 -0.7619 -0.3772
14579TIP3    H143659   3.574   5.624   6.183  0.7186 -0.8989 -0.4338
14579TIP3    H243660   3.656   5.617   6.310 -0.8009 -1.0735  0.5645
14580TIP3   OH243661   3.326   5.204   1.804 -0.0381  0.9407 -0.2606
14580TIP3    H143662   3.280   5.127   1.838 -1.3248  2.1048  0.7987
14580TIP3    H243663   3.397   5.169   1.751 -1.2018 -0.9689 -0.6565
14581TIP3   OH243664   3.962   2.318   0.129 -0.4456  0.3862 -0.5078
14581TIP3    H143665   3.967   2.305   0.224  0.9285 -0.5494 -0.6810
14581TIP3    H243666   3.985   2.410   0.116  0.0490  0.3425  0.0222
14582TIP3   OH243667   3.140   5.925   0.578 -0.4305 -0.4927 -1.3262
14582TIP3    H143668   3.126   5.906   0.486 -3.4615 -1.5672 -0.7622
14582TIP3    H243669   3.117   5.844   0.624  1.0697 -0.0210  0.3971
14583TIP3   OH243670   3.179   7.917   1.098  0.3352  0.3307  0.9419
14583TIP3    H143671   3.265   7.945   1.069 -0.3763  1.7341  0.0733
14583TIP3    H243672   3.181   7.822   1.092  0.7508  0.4513 -2.3834
14584TIP3   OH243673   4.598   7.065   0.345 -0.0622  0.0046  0.5930
14584TIP3    H143674   4.602   7.139   0.285  1.4530  0.5336  1.3038
14584TIP3    H243675   4.517   7.020   0.322  0.1846  0.5109 -1.4428
14585TIP3   OH243676   0.232   6.895   4.241 -0.6700 -0.1139  0.1694
14585TIP3    H143677   0.273   6.974   4.206 -1.4958  0.6040  0.7953
14585TIP3    H243678   0.229   6.835   4.166 -0.5888  0.6700 -0.4720
14586TIP3   OH243679   2.826  -0.020   7.005  0.4697 -0.6592 -0.1749
14586TIP3    H143680   2.784  -0.044   6.922 -0.3436 -0.4177  0.1596
14586TIP3    H243681   2.857   0.069   6.990 -0.4795 -0.2810  0.0777
14587TIP3   OH243682   3.614   1.363   4.193 -0.2127 -0.3549 -0.1297
14587TIP3    H143683   3.688   1.319   4.236 -0.2820  0.0948  0.4742
14587TIP3    H243684   3.613   1.451   4.232 -1.3851 -0.5226  0.2508
14588TIP3   OH243685   6.419   6.611   5.701 -0.1983 -0.1694  0.0316
14588TIP3    H143686   6.447   6.629   5.612 -1.1247 -0.6277 -0.3613
14588TIP3    H243687   6.367   6.687   5.726 -1.6114 -0.9137 -0.5538
14589TIP3   OH243688   2.959   0.908   0.360  0.0704 -0.1951 -0.1546
14589TIP3    H143689   3.029   0.961   0.323 -0.5449 -0.3668 -1.6188
14589TIP3    H243690   2.901   0.890   0.286 -2.0320  0.7339  1.1679
14590TIP3   OH243691   0.348   1.041   4.195  0.3474 -0.3458 -0.3550
14590TIP3    H143692   0.411   1.099   4.239 -0.0143 -0.7187  0.6930
14590TIP3    H243693   0.403   0.979   4.147  0.8359 -1.0349  1.0241
14591TIP3   OH243694   4.630   5.987   0.998  0.5992 -0.6715 -0.0830
14591TIP3    H143695   4.718   6.016   0.975  1.7582 -0.8408  3.4745
14591TIP3    H243696   4.614   5.911   0.942  2.9548 -0.9675 -0.4452
14592TIP3   OH243697   2.260   6.419   2.095 -0.1359  0.5124 -0.2413
14592TIP3    H143698   2.224   6.424   2.184  0.7793 -2.1292  0.3807
14592TIP3    H243699   2.338   6.474   2.098 -0.6667  1.2540  0.2752
14593TIP3   OH243700   0.708   1.167   1.197 -0.1498  0.8028 -0.1568
14593TIP3    H143701   0.637   1.187   1.259 -0.1687  0.9693 -0.2310
14593TIP3    H243702   0.696   1.075   1.175  0.1680  0.6015  0.4865
14594TIP3   OH243703   8.536   0.256   7.061  0.7086 -0.3248 -0.2824
14594TIP3    H143704   8.514   0.164   7.073 -1.1388 -0.4480 -3.4456
14594TIP3    H243705   8.471   0.303   7.114 -0.7399 -0.8778 -1.4727
14595TIP3   OH243706   7.315   6.721   2.246 -0.0686  0.0707  0.2321
14595TIP3    H143707   7.224   6.732   2.218 -0.3651 -0.9992  0.7188
14595TIP3    H243708   7.330   6.627   2.241  0.6221  0.1088  1.3866
14596TIP3   OH243709   1.229   7.120   2.629 -1.0943 -0.2775  0.2234
14596TIP3    H143710   1.207   7.030   2.604 -0.0520 -0.5887  0.3554
14596TIP3    H243711   1.177   7.175   2.570 -3.3099 -0.9158  1.4835
14597TIP3   OH243712   4.613   6.338   3.761  0.1935 -0.3438  0.2325
14597TIP3    H143713   4.525   6.308   3.781  0.0886  0.3042  0.7534
14597TIP3    H243714   4.668   6.260   3.772 -0.3426 -0.8076 -0.3452
14598TIP3   OH243715   5.803   3.783   6.128 -1.0856 -1.3321  0.0756
14598TIP3    H143716   5.778   3.810   6.216  1.0008  0.2789  0.2487
14598TIP3    H243717   5.865   3.711   6.141  0.5341 -0.0052  0.0806
14599TIP3   OH243718   5.903   5.838   2.642 -0.3320 -0.3358  0.2964
14599TIP3    H143719   5.931   5.756   2.602 -1.3971 -0.4247 -0.3231
14599TIP3    H243720   5.865   5.813   2.726  0.6660 -0.3015  0.7716
14600TIP3   OH243721   5.452   1.271   5.149  0.4526 -0.1694  0.5877
14600TIP3    H143722   5.511   1.197   5.134  0.6030 -0.0932  0.7987
14600TIP3    H243723   5.496   1.345   5.106  1.1348  0.1615  1.7971
14601TIP3   OH243724   6.985   6.362   2.971 -0.3720 -0.3356  0.1818
14601TIP3    H143725   6.908   6.407   2.936 -0.5572 -0.0938  0.8708
14601TIP3    H243726   6.955   6.274   2.991 -1.4210  0.6225  3.4589
14602TIP3   OH243727   8.398   7.074   6.078  0.8612 -0.5658  0.2709
14602TIP3    H143728   8.426   7.125   6.154 -0.8864 -2.1767  2.1308
14602TIP3    H243729   8.305   7.059   6.092 -0.1646  1.0741 -3.4836
14603TIP3   OH243730   6.057   3.908   1.927 -0.2826  0.3283  0.7342
14603TIP3    H143731   6.068   3.885   1.835  2.9028  0.8417  0.8540
14603TIP3    H243732   5.974   3.956   1.930  0.0432  1.2787 -2.1021
14604TIP3   OH243733   3.695   3.547   0.070 -0.0744 -0.0547  0.4912
14604TIP3    H143734   3.630   3.556   0.140 -0.5262  1.4693 -0.0722
14604TIP3    H243735   3.726   3.457   0.077 -1.3554 -0.4492  1.5633
14605TIP3   OH243736   1.999   2.546   0.192  0.2552  0.0244  0.2365
14605TIP3    H143737   2.001   2.557   0.097  2.7561 -0.4542  0.1813
14605TIP3    H243738   1.973   2.455   0.206 -1.0489  0.3538  0.0748
14606TIP3   OH243739   8.322   7.399   6.107  0.1999  0.7494  0.1152
14606TIP3    H143740   8.359   7.379   6.020  0.4270 -0.7634  0.5158
14606TIP3    H243741   8.399   7.418   6.161  0.0462  1.8464 -0.0422
14607TIP3   OH243742   3.133   7.339   5.614  0.0799 -0.3383  0.0635
14607TIP3    H143743   3.228   7.336   5.614  0.1064  0.3945  0.0046
14607TIP3    H243744   3.107   7.258   5.658  0.6922 -1.2100 -1.1221
14608TIP3   OH243745   2.980   0.623   7.114  0.6765 -0.2027 -0.1249
14608TIP3    H143746   2.956   0.701   7.064  1.0411 -0.2806 -0.4201
14608TIP3    H243747   2.981   0.552   7.050 -0.4701 -0.6162  0.2878
14609TIP3   OH243748   7.684   4.973   2.856 -0.4052  0.4520 -0.4821
14609TIP3    H143749   7.704   4.895   2.803 -1.0404 -0.1464  0.1435
14609TIP3    H243750   7.686   4.942   2.946  1.5893  1.6657 -0.0468
14610TIP3   OH243751   1.265   4.172   1.271 -0.6451 -0.2424 -0.3678
14610TIP3    H143752   1.213   4.243   1.308 -3.3983 -2.6705  0.7829
14610TIP3    H243753   1.204   4.122   1.217  1.2069 -1.6810 -1.2488
14611TIP3   OH243754   5.030   5.520   2.649  0.3054 -0.2471  0.4027
14611TIP3    H143755   5.009   5.611   2.631  0.9501 -0.2434 -0.3870
14611TIP3    H243756   4.985   5.470   2.581  0.1762 -0.4991  0.6687
14612TIP3   OH243757   0.197   3.789   1.235  0.0920 -0.3671 -0.0212
14612TIP3    H143758   0.285   3.817   1.211  0.1562 -0.1074  0.5090
14612TIP3    H243759   0.200   3.780   1.330 -0.4449 -0.3908 -0.0040
14613TIP3   OH243760   0.733   3.634   0.571 -0.1398  0.3158  0.0029
14613TIP3    H143761   0.764   3.544   0.573  0.9778  0.6978  1.0020
14613TIP3    H243762   0.791   3.679   0.510 -1.0266  0.2632 -0.9040
14614TIP3   OH243763   6.601   4.141   5.521 -0.3920  0.3726 -0.0474
14614TIP3    H143764   6.537   4.169   5.586 -0.2433  0.3152  0.1251
14614TIP3    H243765   6.684   4.177   5.553 -0.3296  0.3979 -0.2379
14615TIP3   OH243766   0.817   0.152   6.597  0.1723 -0.0637  0.0766
14615TIP3    H143767   0.872   0.078   6.572  1.7448  0.5074  1.6216
14615TIP3    H243768   0.861   0.189   6.674 -1.3065  1.6516  0.1515
14616TIP3   OH243769   8.540   8.141   6.745  0.0556  0.0554  0.0847
14616TIP3    H143770   8.475   8.100   6.688  1.0767  0.1632 -1.2130
14616TIP3    H243771   8.552   8.229   6.709  0.3098  0.3306  0.8201
14617TIP3   OH243772   2.966   1.902   3.019 -0.3067  0.2789 -0.0282
14617TIP3    H143773   2.895   1.879   3.079  0.9453  0.5951  1.6446
14617TIP3    H243774   3.011   1.819   3.002 -2.0252 -0.2822 -2.5421
14618TIP3   OH243775   6.111   4.317   1.592  0.0197 -0.3001 -0.4275
14618TIP3    H143776   6.034   4.315   1.650  1.4007  1.6985  1.6678
14618TIP3    H243777   6.076   4.342   1.507 -1.4600  4.0414  1.1858
14619TIP3   OH243778   7.812   3.552   5.201 -0.1841  0.4458 -0.0546
14619TIP3    H143779   7.739   3.500   5.233  0.1170 -1.3944 -2.0637
14619TIP3    H243780   7.773   3.610   5.135 -0.5026  2.8578  2.1117
14620TIP3   OH243781   0.188   1.069   3.726 -0.1649  0.2766  0.2415
14620TIP3    H143782   0.165   1.096   3.815 -1.1743 -1.2797  0.5007
14620TIP3    H243783   0.283   1.076   3.722 -0.1152  0.4031  1.4379
14621TIP3   OH243784   6.968   1.642   0.516 -0.4706 -0.3611  0.3178
14621TIP3    H143785   7.004   1.680   0.596  1.2588  0.3971 -0.7718
14621TIP3    H243786   6.877   1.671   0.515 -0.2021  0.6163  1.4013
14622TIP3   OH243787   6.589   7.422   5.880 -0.3739 -0.2270  0.2135
14622TIP3    H143788   6.683   7.426   5.860 -0.5050  0.6771 -0.2618
14622TIP3    H243789   6.570   7.504   5.924 -0.8033 -0.7318  0.9924
14623TIP3   OH243790   7.746   0.093   5.016  0.3713  0.3082 -0.1161
14623TIP3    H143791   7.668   0.054   5.056 -0.7836 -0.0713 -2.5812
14623TIP3    H243792   7.717   0.179   4.987  1.0878  0.4655 -0.3841
14624TIP3   OH243793   7.802   7.768   6.217 -0.0419 -0.0189 -0.3447
14624TIP3    H143794   7.849   7.819   6.150 -2.3405  1.6068 -0.8334
14624TIP3    H243795   7.742   7.713   6.166  0.3742 -1.1051  0.3129
14625TIP3   OH243796   0.257   2.953   1.251  0.5915  0.0262  0.0687
14625TIP3    H143797   0.233   2.896   1.324 -0.7887  0.3106 -0.1483
14625TIP3    H243798   0.177   3.000   1.229  1.4066  1.1632 -0.5587
14626TIP3   OH243799   3.468   0.227   0.611  0.1054  0.6223  0.0743
14626TIP3    H143800   3.553   0.212   0.652 -1.0009 -1.1895  1.8995
14626TIP3    H243801   3.455   0.321   0.617  1.8275  0.9105  0.0035
14627TIP3   OH243802   5.578   0.758   2.221 -0.3572  0.7263  0.3859
14627TIP3    H143803   5.509   0.782   2.159 -0.4358  1.1441  0.6314
14627TIP3    H243804   5.570   0.664   2.231 -0.8272  0.7593  0.3315
14628TIP3   OH243805   5.211   5.802   1.917 -0.3031  0.2092 -0.1159
14628TIP3    H143806   5.276   5.747   1.961 -1.4096  0.8032  2.4115
14628TIP3    H243807   5.250   5.889   1.916  0.3762 -0.0644 -1.8514
14629TIP3   OH243808   1.505   1.956   3.398  0.4858 -0.1911 -0.5754
14629TIP3    H143809   1.433   1.969   3.337  0.2228 -0.2985 -0.2922
14629TIP3    H243810   1.553   1.881   3.364  0.2813 -0.3143 -0.5966
14630TIP3   OH243811   3.009   3.090   0.344 -0.6228 -0.0842  1.1319
14630TIP3    H143812   3.028   3.091   0.250  0.7029  0.4858  1.3747
14630TIP3    H243813   2.924   3.133   0.352 -0.5985  0.1609  0.2168
14631TIP3   OH243814   5.314   1.962   2.242  0.2299  0.2602  0.0828
14631TIP3    H143815   5.301   1.867   2.232  1.3157  0.1895 -0.8260
14631TIP3    H243816   5.398   1.969   2.289  0.4927  0.7747 -0.4607
14632TIP3   OH243817   7.837   3.138   6.841 -0.3613 -0.0696 -0.6914
14632TIP3    H143818   7.794   3.059   6.873 -0.4945  0.0077 -0.6809
14632TIP3    H243819   7.930   3.122   6.857 -0.5551  0.9328  1.9571
14633TIP3   OH243820   7.991   6.528   2.284  0.2217 -0.0836  0.1512
14633TIP3    H143821   8.018   6.522   2.193 -1.9107  0.7384 -0.5976
14633TIP3    H243822   7.980   6.621   2.301 -1.6038 -0.3164  0.5012
14634TIP3   OH243823   4.934   8.193   0.597 -0.3702  0.1739  0.0314
14634TIP3    H143824   4.980   8.112   0.616 -0.9864  0.2731  2.3001
14634TIP3    H243825   4.874   8.171   0.526 -0.1878 -1.2403  0.2848
14635TIP3   OH243826   4.301   4.558   5.733 -0.1657 -0.5855 -0.4018
14635TIP3    H143827   4.219   4.580   5.689 -0.2245 -0.4436 -0.2265
14635TIP3    H243828   4.275   4.537   5.823  0.0886  0.4926 -0.0503
14636TIP3   OH243829   1.638   4.143   6.505  0.1641 -0.0102  0.1648
14636TIP3    H143830   1.677   4.074   6.450  0.6364  0.5404 -0.2046
14636TIP3    H243831   1.676   4.128   6.591 -0.7784 -1.0379  0.4215
14637TIP3   OH243832   6.476   3.281   1.155  0.4684 -0.0856 -0.3525
14637TIP3    H143833   6.531   3.360   1.152 -0.6549  0.8007  1.0333
14637TIP3    H243834   6.531   3.216   1.199  1.1274  0.1605 -0.8004
14638TIP3   OH243835   5.789   4.053   1.963 -0.5331 -0.7070 -0.1326
14638TIP3    H143836   5.782   3.988   1.894 -0.4970  0.0743 -0.8822
14638TIP3    H243837   5.780   4.003   2.044  0.1015 -1.7279 -0.6732
14639TIP3   OH243838   6.020   7.070   6.834 -0.2677  0.1817 -0.5298
14639TIP3    H143839   6.107   7.103   6.852  0.6223 -2.0805 -0.3047
14639TIP3    H243840   5.986   7.041   6.918 -2.3402  3.2011 -0.1465
14640TIP3   OH243841   5.269   1.628   2.686  0.0224  0.2715  0.2843
14640TIP3    H143842   5.193   1.673   2.722 -0.8204 -0.6413 -0.3068
14640TIP3    H243843   5.234   1.571   2.618  1.3380  0.4333 -0.5750
14641TIP3   OH243844   6.108   7.739   1.348 -0.4280  0.3277  0.8956
14641TIP3    H143845   6.064   7.665   1.390 -1.0708 -0.2428 -0.7229
14641TIP3    H243846   6.159   7.700   1.277  0.9167  1.2372  1.3181
14642TIP3   OH243847   3.666   4.681   4.143 -0.1313  0.2131 -0.5057
14642TIP3    H143848   3.588   4.625   4.140 -0.1064  0.2248 -1.6381
14642TIP3    H243849   3.632   4.766   4.173 -0.0377 -0.5553  2.0432
14643TIP3   OH243850   3.846   7.557   1.308 -0.1672  0.1774 -0.0905
14643TIP3    H143851   3.847   7.465   1.335 -0.4017  0.5209  1.2039
14643TIP3    H243852   3.925   7.595   1.347 -1.2390  1.0116  1.3869
14644TIP3   OH243853   8.157   3.568   3.604 -0.0357  0.4596 -0.5957
14644TIP3    H143854   8.194   3.492   3.558 -0.8461 -0.7316  0.6361
14644TIP3    H243855   8.067   3.543   3.621  0.5101  0.2949  2.6605
14645TIP3   OH243856   7.853   6.995   1.631 -0.2777  0.6503  0.6724
14645TIP3    H143857   7.807   7.057   1.687  0.0195  1.4293  0.0828
14645TIP3    H243858   7.817   7.011   1.544 -0.3681 -0.1828  0.5548
14646TIP3   OH243859   5.337   6.929   4.463  0.2993  0.6341  0.4299
14646TIP3    H143860   5.278   6.963   4.530  0.3040  1.7890 -0.1328
14646TIP3    H243861   5.415   6.984   4.468  1.0111 -0.3511  0.6041
14647TIP3   OH243862   1.327   6.415   5.729 -0.2950  0.1734 -0.8151
14647TIP3    H143863   1.412   6.371   5.723  0.5063  0.8961  2.8055
14647TIP3    H243864   1.263   6.346   5.710  1.0347 -0.9416 -1.4213
14648TIP3   OH243865   8.052   8.042  -0.005 -0.1569  0.0250  0.0722
14648TIP3    H143866   8.144   8.025  -0.025  0.2221  2.6842 -0.8402
14648TIP3    H243867   8.039   8.008   0.083  1.7295 -0.2977  0.2475
14649TIP3   OH243868   4.883   1.574   2.025  0.2163 -0.1019  0.1945
14649TIP3    H143869   4.941   1.645   1.998  0.4860  0.1406  1.3739
14649TIP3    H243870   4.816   1.572   1.956  2.2740 -1.2757 -1.9362
14650TIP3   OH243871   5.598   6.787   0.811  0.0017 -0.6462 -0.3688
14650TIP3    H143872   5.541   6.767   0.737 -0.5369 -0.5770  0.0233
14650TIP3    H243873   5.606   6.882   0.809  1.2108 -0.7296 -1.2277
14651TIP3   OH243874   5.023   2.153   1.696 -0.6598  0.6248 -0.0426
14651TIP3    H143875   5.029   2.204   1.777  0.3209 -0.9811  0.9426
14651TIP3    H243876   5.096   2.184   1.642 -0.5234  0.7632  0.2221
14652TIP3   OH243877   4.476   7.731   3.004  0.4040  0.3166 -0.0463
14652TIP3    H143878   4.498   7.734   2.911  0.1700  0.6472 -0.0928
14652TIP3    H243879   4.538   7.792   3.045 -0.9243  1.8858 -0.2859
14653TIP3   OH243880   1.923   0.122   0.157 -0.3872 -0.2316 -0.2781
14653TIP3    H143881   1.871   0.190   0.200 -0.8329 -0.8450  0.1697
14653TIP3    H243882   2.009   0.129   0.198 -0.2461  0.4900 -0.6980
14654TIP3   OH243883   3.083   5.155   0.261 -0.3078  0.0052  0.3102
14654TIP3    H143884   3.150   5.222   0.259 -0.4258  0.3025  2.8446
14654TIP3    H243885   3.115   5.087   0.202  1.4989  0.7721  0.3394
14655TIP3   OH243886   4.140   3.573   5.921 -0.2976 -0.1696  0.6162
14655TIP3    H143887   4.052   3.545   5.894  0.5816 -0.8977 -1.7432
14655TIP3    H243888   4.128   3.664   5.949 -1.7473 -0.0971 -0.0981
14656TIP3   OH243889   4.674   2.144   7.084 -0.2160  0.0696 -0.1264
14656TIP3    H143890   4.582   2.128   7.103  0.1125 -0.1889  1.3361
14656TIP3    H243891   4.682   2.128   6.990 -1.1868 -2.3702  0.1356
14657TIP3   OH243892   7.904   4.706   7.094  0.2618  0.1372  0.2774
14657TIP3    H143893   7.817   4.666   7.084  0.2063 -0.3416  2.2653
14657TIP3    H243894   7.963   4.632   7.111  0.6303  0.6432  1.2971
14658TIP3   OH243895   6.281   2.118   2.521 -0.1730 -0.0164 -0.0073
14658TIP3    H143896   6.336   2.151   2.450 -1.4990  2.9108  0.1933
14658TIP3    H243897   6.206   2.078   2.478 -0.7477  1.3467 -0.3333
14659TIP3   OH243898   5.127   7.508   5.035 -0.0530 -0.1211  0.4312
14659TIP3    H143899   5.153   7.540   5.122  0.1105 -0.5586  0.5429
14659TIP3    H243900   5.058   7.445   5.052  0.3940 -0.6530  0.2855
14660TIP3   OH243901   6.510   6.348   2.403 -0.0230  0.1792  0.1166
14660TIP3    H143902   6.524   6.256   2.382  1.1319  0.2338  0.5769
14660TIP3    H243903   6.416   6.355   2.417 -0.0135 -1.1579  1.0884
14661TIP3   OH243904   6.370   7.318   2.849  0.3724 -0.2950  0.1167
14661TIP3    H143905   6.327   7.399   2.821  0.2174 -1.0483 -1.9356
14661TIP3    H243906   6.461   7.344   2.863  0.1641  0.3864  0.2691
14662TIP3   OH243907   4.312   0.593   7.050 -0.1982  0.0048  0.0491
14662TIP3    H143908   4.333   0.617   6.960 -0.3819 -2.1668 -0.6252
14662TIP3    H243909   4.223   0.558   7.046 -0.3206  0.1521  1.1225
14663TIP3   OH243910   2.676   4.221   3.599  0.3241 -0.4197 -0.2423
14663TIP3    H143911   2.678   4.143   3.544  0.3888 -1.4112  1.1127
14663TIP3    H243912   2.767   4.237   3.621  0.3145  0.0740 -0.5512
14664TIP3   OH243913   8.539   4.547   2.561 -0.3587  0.1128  0.0586
14664TIP3    H143914   8.446   4.561   2.547 -0.3914 -0.2043 -0.0441
14664TIP3    H243915   8.543   4.478   2.628 -0.2051  1.2129  1.2219
14665TIP3   OH243916   3.655   0.967   5.047  0.4218 -0.0057 -0.0484
14665TIP3    H143917   3.643   0.899   5.113  0.4043 -0.1349 -0.1825
14665TIP3    H243918   3.619   0.928   4.967  2.1394 -0.5849 -0.5791
14666TIP3   OH243919   7.353   4.412   5.010  0.5682 -0.1283  0.5322
14666TIP3    H143920   7.273   4.431   5.057  0.3609 -0.6771  0.4192
14666TIP3    H243921   7.403   4.493   5.011 -0.0008  0.2198  0.5835
14667TIP3   OH243922   0.494   2.859   0.933 -0.1437 -0.2056  0.1241
14667TIP3    H143923   0.528   2.779   0.893 -0.0874  0.6510 -1.6458
14667TIP3    H243924   0.400   2.844   0.941  0.0557 -1.0028  1.2305
14668TIP3   OH243925   3.187   2.300   0.175 -0.1153 -0.4216 -0.0218
14668TIP3    H143926   3.261   2.350   0.141 -0.3513 -1.5146 -2.3557
14668TIP3    H243927   3.171   2.232   0.109 -2.5963 -0.8020  0.8474
14669TIP3   OH243928   3.034   2.746   6.847  0.2717  0.1400 -0.0303
14669TIP3    H143929   3.001   2.757   6.936 -0.9729  0.2107 -0.4860
14669TIP3    H243930   2.975   2.798   6.792  1.8959  1.3145 -0.7458
14670TIP3   OH243931   0.173   2.421   0.146  0.0849  0.3502 -0.2257
14670TIP3    H143932   0.212   2.398   0.062 -1.8476 -0.2282 -1.0365
14670TIP3    H243933   0.225   2.374   0.211 -1.8798 -4.2601 -1.5801
14671TIP3   OH243934   4.482   7.671   5.475  0.0064 -0.4146 -0.1384
14671TIP3    H143935   4.535   7.740   5.434 -1.6839  0.1874 -1.4403
14671TIP3    H243936   4.433   7.715   5.544 -0.4433 -0.4863 -0.4075
14672TIP3   OH243937   4.476   7.720   5.028  0.2434  0.3624 -0.0173
14672TIP3    H143938   4.553   7.693   5.078  0.0960  0.5239  0.3003
14672TIP3    H243939   4.487   7.815   5.017 -0.5383  0.6052  1.1297
14673TIP3   OH243940   0.059   3.055   3.967 -0.2093 -0.0935  0.6162
14673TIP3    H143941   0.028   3.074   4.055  1.4519 -1.1458  1.4802
14673TIP3    H243942   0.046   2.961   3.956 -2.2582  0.3236 -1.0772
14674TIP3   OH243943   4.636   2.465   0.232 -0.1284  0.6534  0.1838
14674TIP3    H143944   4.622   2.458   0.137 -0.6927  1.3609  0.2140
14674TIP3    H243945   4.632   2.558   0.250  1.7403  0.6817  0.6505
14675TIP3   OH243946   2.252   2.672   2.121 -0.2722  0.0733  0.0037
14675TIP3    H143947   2.219   2.663   2.031  0.5030  0.6993 -0.3507
14675TIP3    H243948   2.262   2.582   2.152  1.1318 -0.2145 -1.1676
14676TIP3   OH243949   0.683   2.041   6.555 -0.0102 -0.2991 -0.1192
14676TIP3    H143950   0.611   2.095   6.588  0.5441  0.1887  0.3142
14676TIP3    H243951   0.741   2.030   6.630 -0.6887 -2.5227  0.1608
14677TIP3   OH243952   5.382   4.597   5.591  0.1139  0.3280  0.3355
14677TIP3    H143953   5.400   4.636   5.505 -0.8902 -2.0153 -1.0484
14677TIP3    H243954   5.457   4.540   5.607  0.0448  0.3541  0.7441
14678TIP3   OH243955   3.568   6.250   2.281  0.2754 -0.6951  0.5070
14678TIP3    H143956   3.655   6.221   2.305 -1.2592 -4.2969  2.4647
14678TIP3    H243957   3.560   6.337   2.321  2.0896 -1.4343  2.6908
14679TIP3   OH243958   4.157   6.570   6.973 -0.6843  0.2684  0.3749
14679TIP3    H143959   4.162   6.625   7.051 -1.6097  0.0469  0.6019
14679TIP3    H243960   4.240   6.585   6.928  0.5164 -0.7323  2.1571
14680TIP3   OH243961   3.958   6.366   4.740 -0.6038 -0.6994  0.0302
14680TIP3    H143962   3.876   6.322   4.720 -0.5660 -0.3519 -0.9529
14680TIP3    H243963   3.947   6.454   4.705 -0.9098  0.3278  2.4665
14681TIP3   OH243964   3.965   6.234   3.332  0.6279 -0.7430  1.1101
14681TIP3    H143965   3.923   6.156   3.298  1.2746 -0.8467  0.5264
14681TIP3    H243966   4.058   6.222   3.313  0.4185  1.7776 -2.3532
14682TIP3   OH243967   2.014   5.668   1.661 -0.8014 -0.0290 -0.2038
14682TIP3    H143968   2.035   5.757   1.633 -0.0690 -0.1291  0.0111
14682TIP3    H243969   1.956   5.634   1.593 -1.2960  0.6944 -0.1603
14683TIP3   OH243970   5.945   8.124   2.269 -0.2035  0.0598  0.2493
14683TIP3    H143971   5.871   8.063   2.261 -0.6404  0.7054 -0.9021
14683TIP3    H243972   5.977   8.112   2.358  0.0802 -2.2698 -0.0992
14684TIP3   OH243973   2.427   6.023   4.212 -0.4284 -0.2260  0.4647
14684TIP3    H143974   2.404   6.024   4.119 -1.0377  0.5943  0.6060
14684TIP3    H243975   2.372   5.954   4.249 -1.5697  0.6752  0.5202
14685TIP3   OH243976   0.814   3.003   5.236  0.7725 -0.0367 -0.3594
14685TIP3    H143977   0.751   2.937   5.206  1.6833 -0.7511 -0.7577
14685TIP3    H243978   0.880   2.953   5.284  1.9543  0.4307 -1.4345
14686TIP3   OH243979   4.147   2.092   4.486  0.4873  0.0702  0.1490
14686TIP3    H143980   4.229   2.136   4.461  0.6406  0.8747  1.9424
14686TIP3    H243981   4.101   2.156   4.539 -0.7436 -0.8433  0.2147
14687TIP3   OH243982   0.801   4.749   5.821 -0.0467  0.3955  0.4133
14687TIP3    H143983   0.771   4.781   5.906 -0.1251  4.6434 -0.9722
14687TIP3    H243984   0.888   4.787   5.810 -0.4429  0.7923 -1.7701
14688TIP3   OH243985   6.371   4.523   0.201 -0.2114 -0.2559  0.3166
14688TIP3    H143986   6.446   4.471   0.230 -0.2113 -0.2615  0.3068
14688TIP3    H243987   6.407   4.581   0.134 -0.2599 -0.4062  0.1610
14689TIP3   OH243988   0.523   1.173   1.441  0.0601  0.5927  0.2700
14689TIP3    H143989   0.529   1.086   1.480 -0.9376  0.1684 -0.4939
14689TIP3    H243990   0.478   1.226   1.506 -1.1310  0.0159 -0.0488
14690TIP3   OH243991   1.542   2.471   6.429 -0.1150  0.1338  0.2985
14690TIP3    H143992   1.477   2.408   6.398  1.0843 -1.1317  0.2993
14690TIP3    H243993   1.614   2.463   6.367 -0.4062  2.4120 -0.4362
14691TIP3   OH243994   4.141   4.822   2.485  0.1366 -0.8367 -0.2197
14691TIP3    H143995   4.199   4.898   2.488  0.3748 -1.0253 -0.0508
14691TIP3    H243996   4.054   4.858   2.503  0.4170 -0.7801  1.0966
14692TIP3   OH243997   2.886   7.432   0.215  0.2074  0.3639 -0.5082
14692TIP3    H143998   2.965   7.396   0.175 -0.0014 -1.1471  0.3551
14692TIP3    H243999   2.814   7.398   0.161 -0.1207 -2.1907  1.3284
14693TIP3   OH244000   2.328   4.105   6.469  0.1881 -0.1814  0.6236
14693TIP3    H144001   2.251   4.134   6.517 -0.6868 -1.4300  0.0266
14693TIP3    H244002   2.314   4.011   6.456  2.3734 -0.6798  1.5129
14694TIP3   OH244003   7.419   0.007   1.982 -0.3071  0.2420  0.1262
14694TIP3    H144004   7.461   0.078   2.031  0.4152  0.3631 -0.6550
14694TIP3    H244005   7.468   0.002   1.900 -2.2381  0.8334 -1.1196
14695TIP3   OH244006   8.545   4.259   2.154 -0.0377  0.4489 -0.8669
14695TIP3    H144007   8.633   4.282   2.186  0.5386 -1.7603 -0.6938
14695TIP3    H244008   8.494   4.243   2.233  0.2577 -1.1081 -0.9633
14696TIP3   OH244009   0.821   2.599   0.845  0.1546  0.1972 -0.0014
14696TIP3    H144010   0.761   2.549   0.790 -0.2888  0.7489 -0.0284
14696TIP3    H244011   0.798   2.572   0.934 -0.3494  0.6364  0.0053
14697TIP3   OH244012   5.983   6.524   1.467  0.2002  0.3990  0.1034
14697TIP3    H144013   6.070   6.531   1.506 -0.1825  0.4447  0.9597
14697TIP3    H244014   5.978   6.599   1.408 -0.2466  1.9725  2.0523
14698TIP3   OH244015   5.824   4.299   3.554  0.7285  0.1033  0.0066
14698TIP3    H144016   5.839   4.212   3.591 -0.5628 -0.8750 -1.6131
14698TIP3    H244017   5.903   4.318   3.504  1.5433  0.4523  1.3787
14699TIP3   OH244018   5.611   0.235   5.782  0.4593 -0.4152  0.5409
14699TIP3    H144019   5.561   0.280   5.715  2.0222 -1.4529 -1.4359
14699TIP3    H244020   5.623   0.146   5.748  1.9276 -0.7745  1.8426
14700TIP3   OH244021   6.192   6.679   2.281 -0.2300 -0.8439 -0.4749
14700TIP3    H144022   6.192   6.773   2.299  0.4746 -1.1175  1.1715
14700TIP3    H244023   6.133   6.669   2.206  0.0902  0.9518 -1.0158
14701TIP3   OH244024   8.074   5.200   3.319  0.0114 -0.0217  0.0252
14701TIP3    H144025   7.999   5.198   3.260  0.1950 -0.9404 -0.2009
14701TIP3    H244026   8.133   5.266   3.282 -1.3885  1.9636  1.1373
14702TIP3   OH244027   4.947   2.715   1.784 -0.6179  0.0255  0.6260
14702TIP3    H144028   5.035   2.732   1.818  0.2743  0.4450 -1.6934
14702TIP3    H244029   4.895   2.791   1.813  0.7364  1.6408 -0.9447
14703TIP3   OH244030   0.892   6.641   3.082  0.4271  0.2953 -0.5434
14703TIP3    H144031   0.938   6.715   3.042 -0.8307  0.7284 -1.2302
14703TIP3    H244032   0.871   6.584   3.009 -0.2953  0.2051 -0.2782
14704TIP3   OH244033   4.403   7.612   3.994  0.1668  0.6957 -0.5202
14704TIP3    H144034   4.427   7.529   4.034 -0.0501  0.8637 -0.0375
14704TIP3    H244035   4.453   7.678   4.041 -0.6366  0.9679 -0.0274
14705TIP3   OH244036   1.845   7.213   5.160 -0.0194 -0.5848 -0.3664
14705TIP3    H144037   1.894   7.141   5.120 -1.5374 -0.4720 -2.6081
14705TIP3    H244038   1.909   7.283   5.168  0.7387 -1.1705 -1.1054
14706TIP3   OH244039   0.435   0.913   3.477 -0.1927 -0.1584  0.0867
14706TIP3    H144040   0.366   0.849   3.462  0.6761 -1.3523  0.9910
14706TIP3    H244041   0.457   0.905   3.570  0.0447  1.3599  0.1939
14707TIP3   OH244042   6.720   7.868   0.745 -0.5063  0.5124  0.3263
14707TIP3    H144043   6.646   7.825   0.702 -0.0703  0.2481 -0.1715
14707TIP3    H244044   6.750   7.805   0.810  0.7249 -0.3880 -1.0321
14708TIP3   OH244045   8.471   1.657   4.940  0.2886  0.7854 -0.0327
14708TIP3    H144046   8.513   1.671   5.025  0.9945  1.1920 -0.4327
14708TIP3    H244047   8.457   1.563   4.935 -0.6922  0.8657  0.9575
14709TIP3   OH244048   2.963   5.494   3.301  0.1601  0.1227  0.4012
14709TIP3    H144049   3.036   5.549   3.273 -0.1278  1.8767  2.7379
14709TIP3    H244050   2.927   5.457   3.220  1.0147  2.6043 -1.2116
14710TIP3   OH244051   1.011   5.143   3.206  0.2713  0.1842 -0.1278
14710TIP3    H144052   0.936   5.102   3.163 -0.3700  1.0604  0.1178
14710TIP3    H244053   1.010   5.106   3.295 -0.8248  1.3310  0.3646
14711TIP3   OH244054   7.581   1.494   3.676 -0.0348 -0.6116  0.0160
14711TIP3    H144055   7.629   1.451   3.747  3.3094  2.0520 -0.3697
14711TIP3    H244056   7.543   1.572   3.716  0.8801  0.2860 -0.8051
14712TIP3   OH244057   8.479   3.284   0.727 -0.2207 -0.4022  0.3952
14712TIP3    H144058   8.410   3.335   0.684  2.2167 -0.0056 -3.5505
14712TIP3    H244059   8.444   3.195   0.731 -1.3532 -0.0350 -0.6396
14713TIP3   OH244060   4.880   3.235   2.336  0.0980 -0.1181  0.2531
14713TIP3    H144061   4.792   3.266   2.316 -0.3112 -0.8226  0.9137
14713TIP3    H244062   4.919   3.304   2.389  0.3436  0.6871 -0.9333
14714TIP3   OH244063   5.006   3.257   0.348 -0.1531  0.0898  0.0118
14714TIP3    H144064   5.072   3.190   0.329 -1.6938 -1.3663 -0.4879
14714TIP3    H244065   5.057   3.334   0.374  1.7336 -0.8768 -0.6008
14715TIP3   OH244066   6.368   6.865   6.204  0.0124  0.2147  0.0819
14715TIP3    H144067   6.325   6.912   6.133  0.5590 -0.3929 -0.6646
14715TIP3    H244068   6.453   6.909   6.214 -0.1787  0.4782  0.5491
14716TIP3   OH244069   0.796   7.450   4.801  0.4942 -0.2073 -0.6970
14716TIP3    H144070   0.812   7.427   4.892 -0.8023  0.8231 -0.1677
14716TIP3    H244071   0.870   7.506   4.777  0.3062  0.4144  0.0994
14717TIP3   OH244072   3.933   6.641   3.992 -0.1934  0.2197 -0.3874
14717TIP3    H144073   3.944   6.613   3.901 -1.3163 -0.7662 -0.2375
14717TIP3    H244074   3.849   6.687   3.993 -0.7841 -0.8525  0.3892
14718TIP3   OH244075   8.470   4.839   4.191 -0.0533  0.0019 -0.2249
14718TIP3    H144076   8.560   4.806   4.197  0.0785  0.2646 -0.6873
14718TIP3    H244077   8.423   4.772   4.142  0.3573  0.7534 -1.7066
14719TIP3   OH244078   3.002   3.441   3.719  0.7413 -0.2241  0.1634
14719TIP3    H144079   3.088   3.484   3.724  1.7488 -2.0452 -0.6380
14719TIP3    H244080   2.978   3.425   3.810  1.9011 -0.8693  0.3782
14720TIP3   OH244081   8.197   0.043   5.166  0.2811 -0.0144  0.2282
14720TIP3    H144082   8.233   0.029   5.253  1.3522  1.1619  0.0043
14720TIP3    H244083   8.102   0.045   5.179  0.3009 -2.1086  0.9939
14721TIP3   OH244084   7.118   2.817   6.604 -0.4330 -0.0143  0.0879
14721TIP3    H144085   7.084   2.771   6.527 -1.0724 -0.3103  0.5397
14721TIP3    H244086   7.190   2.871   6.570  1.7355 -2.8394 -0.1718
14722TIP3   OH244087   3.839   5.643   3.727 -0.2991  0.4227  0.3500
14722TIP3    H144088   3.921   5.593   3.722 -0.4845  0.1427  0.1276
14722TIP3    H244089   3.855   5.708   3.796  0.4647  1.0119 -0.3519
14723TIP3   OH244090   7.621   3.008   2.297 -0.2969  0.0823 -0.6366
14723TIP3    H144091   7.634   2.947   2.370  0.3583  0.4670 -0.4238
14723TIP3    H244092   7.709   3.039   2.276 -0.6162  0.9234 -0.7687
14724TIP3   OH244093   3.336   5.339   6.459  0.0298 -0.0358  0.3007
14724TIP3    H144094   3.256   5.318   6.413  0.0243 -0.1783  0.3725
14724TIP3    H244095   3.308   5.384   6.539  0.0978  1.2781 -0.3995
14725TIP3   OH244096   8.591   4.974   6.759  0.5408 -0.6782 -0.3092
14725TIP3    H144097   8.663   4.974   6.696  0.2357  0.5965 -0.6875
14725TIP3    H244098   8.619   5.033   6.829  0.2694 -0.9434  0.0302
14726TIP3   OH244099   5.708   6.889   2.457 -0.8280 -0.1181 -0.0238
14726TIP3    H144100   5.706   6.926   2.545 -0.1925 -1.8503  0.7654
14726TIP3    H244101   5.617   6.896   2.426 -0.6881  2.3383 -0.0946
14727TIP3   OH244102   2.934   6.924   5.559 -0.5490  0.4852 -0.7618
14727TIP3    H144103   2.967   7.003   5.602 -1.4794  1.6525 -2.1195
14727TIP3    H244104   3.013   6.880   5.527  0.1027 -0.0287  1.3909
14728TIP3   OH244105   6.651   5.793   3.233  0.4755 -0.1219 -0.0074
14728TIP3    H144106   6.675   5.863   3.293 -1.3721  0.0947  0.5343
14728TIP3    H244107   6.591   5.737   3.283  1.1655 -1.5835 -0.7311
14729TIP3   OH244108   0.710   0.837   5.363  0.0529  0.1001 -0.5520
14729TIP3    H144109   0.681   0.915   5.316  1.5229  0.8846 -0.2079
14729TIP3    H244110   0.710   0.862   5.455 -3.2577 -1.5674  0.0487
14730TIP3   OH244111   8.484   4.953   2.768 -0.2160 -0.2178 -0.7249
14730TIP3    H144112   8.389   4.965   2.763 -0.4077 -1.2545  0.0415
14730TIP3    H244113   8.495   4.874   2.821  1.1149  1.7229  2.1662
14731TIP3   OH244114   6.618   3.040   3.198  0.2551 -0.5233  0.3966
14731TIP3    H144115   6.646   2.982   3.127  1.3944 -1.2700  1.4224
14731TIP3    H244116   6.539   3.082   3.164  1.0327 -0.4708 -1.5129
14732TIP3   OH244117   3.001   3.288   4.530  0.2512 -0.1844  0.5186
14732TIP3    H144118   2.998   3.383   4.544  0.3162  0.0009 -0.6424
14732TIP3    H244119   3.062   3.256   4.596 -0.4272  0.4638  1.4811
14733TIP3   OH244120   6.817   2.355   4.014 -0.5444 -0.2316 -0.3002
14733TIP3    H144121   6.829   2.394   4.100 -0.1057 -0.8081 -0.0907
14733TIP3    H244122   6.728   2.320   4.015  0.2366 -2.3897  0.8395
14734TIP3   OH244123   3.880   7.881   4.789  0.4413 -0.0374  0.0841
14734TIP3    H144124   3.906   7.939   4.860  1.0056 -0.6335  0.3824
14734TIP3    H244125   3.962   7.846   4.755  0.0876 -2.3139  1.3379
14735TIP3   OH244126   0.112   7.699   6.201  0.4175 -0.6014 -0.1311
14735TIP3    H144127   0.165   7.619   6.203 -0.4871 -1.2204  0.4875
14735TIP3    H244128   0.052   7.685   6.128  1.0469  0.0505 -0.7709
14736TIP3   OH244129   6.798   5.050   1.894  0.1376  0.2385 -0.5823
14736TIP3    H144130   6.746   5.059   1.814 -0.4894  0.5376 -0.1575
14736TIP3    H244131   6.777   4.963   1.927 -0.8899  0.7104  0.1026
14737TIP3   OH244132   0.461   6.395   3.625 -0.1233 -0.2603  0.4684
14737TIP3    H144133   0.492   6.378   3.537  0.5182 -0.3840  0.7175
14737TIP3    H244134   0.539   6.420   3.675 -0.6809  1.2615  0.6570
14738TIP3   OH244135   6.066   0.884   0.632  0.3695 -0.3350  0.7509
14738TIP3    H144136   6.013   0.919   0.703  1.2231 -0.1250  1.3035
14738TIP3    H244137   6.027   0.799   0.612 -0.1072 -0.2275  1.2101
14739TIP3   OH244138   3.466   2.701   4.064 -0.2088 -0.0162  0.3555
14739TIP3    H144139   3.473   2.792   4.035  1.7116 -0.0903  0.4500
14739TIP3    H244140   3.420   2.657   3.993 -1.1787  1.0119  0.3077
14740TIP3   OH244141   7.269   4.903   1.449 -0.0601 -0.2193 -0.3278
14740TIP3    H144142   7.180   4.903   1.413  0.7396  1.0361 -2.4818
14740TIP3    H244143   7.258   4.931   1.540 -1.9674 -1.2678 -0.1921
14741TIP3   OH244144   3.696   2.717   0.824  0.3658 -1.3218  0.2944
14741TIP3    H144145   3.690   2.812   0.827 -1.1188 -1.3409 -0.6988
14741TIP3    H244146   3.713   2.690   0.914  0.9311 -0.1183  0.5610
14742TIP3   OH244147   8.289   1.348   0.997  0.9168  0.3923  0.3747
14742TIP3    H144148   8.369   1.323   0.952  0.5001 -0.1310 -0.0950
14742TIP3    H244149   8.219   1.305   0.948  0.3727  0.5911  0.9544
14743TIP3   OH244150   2.779   4.815   2.013  0.6843  0.0190 -0.0278
14743TIP3    H144151   2.806   4.753   1.946  2.5670  0.3142  0.3949
14743TIP3    H244152   2.729   4.762   2.076 -2.2573 -0.0302 -2.1891
14744TIP3   OH244153   7.637   5.686   4.116 -0.1308 -0.0010 -0.3171
14744TIP3    H144154   7.570   5.740   4.156 -1.1737 -2.7684  1.9961
14744TIP3    H244155   7.615   5.597   4.142  1.6324 -1.6066 -3.6311
14745TIP3   OH244156   6.792   0.688   1.863  0.2942  0.0298 -0.6774
14745TIP3    H144157   6.786   0.611   1.806  0.5129 -0.0128 -0.6450
14745TIP3    H244158   6.886   0.699   1.878  0.1573 -1.2298  1.4188
14746TIP3   OH244159   6.081   1.831   4.196  0.7783 -0.0294 -0.1517
14746TIP3    H144160   5.995   1.860   4.168  0.1307 -0.4786  1.2479
14746TIP3    H244161   6.119   1.906   4.242  0.6000 -0.2208  0.3194
14747TIP3   OH244162   7.865   1.082   6.501  0.3645  0.9688 -0.4483
14747TIP3    H144163   7.888   1.126   6.583  1.1930  1.2271 -0.8131
14747TIP3    H244164   7.942   1.031   6.478 -0.6944 -0.9676  0.1214
14748TIP3   OH244165   8.497   3.873   5.567 -0.2462 -0.6334  0.1508
14748TIP3    H144166   8.403   3.875   5.586 -0.2561  1.5006  0.1982
14748TIP3    H244167   8.537   3.917   5.643  0.3966  1.6853 -1.4219
14749TIP3   OH244168   2.907   2.511   6.755 -0.3140  0.2111  0.0489
14749TIP3    H144169   2.889   2.525   6.662 -0.9192  2.0178  0.3874
14749TIP3    H244170   2.924   2.599   6.790 -0.4591 -0.3732  1.7102
14750TIP3   OH244171   3.581   6.673   2.855  0.2271 -0.3592  0.0629
14750TIP3    H144172   3.547   6.674   2.766 -1.1715  1.5321  0.5416
14750TIP3    H244173   3.673   6.648   2.846 -0.0487 -0.8012 -1.8227
14751TIP3   OH244174   3.051   7.562   3.257  0.1145 -0.3517 -0.4959
14751TIP3    H144175   3.045   7.467   3.261  2.3382 -0.5017  1.4436
14751TIP3    H244176   3.072   7.589   3.346 -0.5293  1.9801 -0.9824
14752TIP3   OH244177   3.066   4.086   5.911 -0.2698 -0.5070  0.0175
14752TIP3    H144178   3.109   4.004   5.936 -0.3933 -0.4558  0.3953
14752TIP3    H244179   3.075   4.089   5.815  3.0065  0.8509  0.2729
14753TIP3   OH244180   0.379   0.593   6.708  0.0993  0.1225 -0.2490
14753TIP3    H144181   0.453   0.533   6.700 -0.2189 -0.4893  1.1739
14753TIP3    H244182   0.392   0.637   6.792 -1.6110 -0.6730  0.4797
14754TIP3   OH244183   0.832   6.708   1.203  0.6627  0.1675  0.1220
14754TIP3    H144184   0.783   6.668   1.131 -1.1519  0.9628  0.8637
14754TIP3    H244185   0.834   6.639   1.270 -2.9887  1.3138  1.6381
14755TIP3   OH244186   4.300   5.404   6.636 -0.1527 -0.1407 -0.0378
14755TIP3    H144187   4.391   5.398   6.608 -0.3614  2.0554 -1.3821
14755TIP3    H244188   4.295   5.487   6.684 -1.1544 -0.9575  1.3523
14756TIP3   OH244189   0.914   4.626   6.616  0.0035 -0.1653  0.6237
14756TIP3    H144190   0.828   4.590   6.595 -0.7274  0.3027  2.5785
14756TIP3    H244191   0.901   4.670   6.700  1.4859  2.3034 -0.3386
14757TIP3   OH244192   6.299   0.337   2.947 -0.3178 -0.3178 -0.4607
14757TIP3    H144193   6.350   0.373   3.020 -1.2167 -0.3451  0.2019
14757TIP3    H244194   6.226   0.397   2.937 -1.7308 -1.7745  0.5153
14758TIP3   OH244195   6.911   4.130   2.365 -0.0445  0.0147 -0.4279
14758TIP3    H144196   6.948   4.145   2.278 -1.5580 -1.2176 -1.3490
14758TIP3    H244197   6.834   4.187   2.369  0.5227  0.7412  0.4846
14759TIP3   OH244198   1.583   5.340   1.881  0.1392 -0.5227  0.0723
14759TIP3    H144199   1.595   5.245   1.880 -1.3383 -0.7693  1.1567
14759TIP3    H244200   1.650   5.372   1.941  0.8188 -0.8340 -0.5064
14760TIP3   OH244201   6.217   4.198   0.933  0.4409 -0.2552 -0.8476
14760TIP3    H144202   6.149   4.190   0.866  0.0241 -1.0895 -0.3338
14760TIP3    H244203   6.184   4.266   0.992 -0.4150 -1.3131 -0.0737
14761TIP3   OH244204   6.163   6.588   6.052 -0.2068 -0.4021 -0.3422
14761TIP3    H144205   6.155   6.549   6.138 -0.6966  0.2808 -0.0722
14761TIP3    H244206   6.216   6.525   6.002  2.2720  0.3470  1.1729
14762TIP3   OH244207   4.712   0.759   6.168 -0.4709 -0.2792 -0.4005
14762TIP3    H144208   4.704   0.854   6.162 -1.9909 -0.3930 -0.4443
14762TIP3    H244209   4.804   0.744   6.190 -0.2803  1.2103 -0.1110
14763TIP3   OH244210   1.455   5.197   3.976  0.2916  0.0374  0.6624
14763TIP3    H144211   1.509   5.118   3.982  0.0927 -0.0329  1.8233
14763TIP3    H244212   1.495   5.258   4.038 -0.0666  0.5283  0.4164
14764TIP3   OH244213   4.905   3.773   3.998 -0.6930 -0.1793 -0.1345
14764TIP3    H144214   4.913   3.856   4.044 -1.6814 -0.2840  0.2515
14764TIP3    H244215   4.858   3.716   4.059  0.1417 -1.0953 -0.3079
14765TIP3   OH244216   2.440   1.194   6.930 -0.5544  0.1749 -0.0732
14765TIP3    H144217   2.493   1.129   6.883  0.3256  0.2070  0.8419
14765TIP3    H244218   2.376   1.143   6.979 -0.3464  0.0451  0.0617
14766TIP3   OH244219   5.436   5.080   3.318  0.4481 -0.2924 -0.5470
14766TIP3    H144220   5.370   5.120   3.373 -0.5275 -1.7842 -0.5883
14766TIP3    H244221   5.520   5.105   3.358 -0.1933 -0.0674  0.6762
14767TIP3   OH244222   6.155   3.544   4.916  0.1615  0.7016  0.3408
14767TIP3    H144223   6.163   3.631   4.876  0.4995  0.6711  0.3361
14767TIP3    H244224   6.062   3.534   4.934  0.1299  1.0915  0.3964
14768TIP3   OH244225   7.536   2.808   2.106  0.0743 -0.5356 -0.0193
14768TIP3    H144226   7.572   2.798   2.017 -0.0041 -0.0927 -0.1000
14768TIP3    H244227   7.576   2.888   2.139 -0.9988  0.0772 -0.1861
14769TIP3   OH244228   1.005   0.221   2.767 -0.2567 -0.3225  0.3503
14769TIP3    H144229   1.072   0.186   2.826 -0.4775 -0.6076  0.4315
14769TIP3    H244230   0.945   0.267   2.824 -0.7708 -1.0602  0.4210
14770TIP3   OH244231   2.256   5.903   4.626 -1.1503  0.4981  0.5711
14770TIP3    H144232   2.181   5.853   4.658 -0.3893 -1.1365 -0.0542
14770TIP3    H244233   2.319   5.836   4.598 -0.0157  1.8310 -0.2003
14771TIP3   OH244234   2.704   4.536   1.283 -0.0199  0.1364 -0.3221
14771TIP3    H144235   2.610   4.547   1.296 -0.1375 -0.7015 -0.3772
14771TIP3    H244236   2.713   4.512   1.191  0.2363  0.1206 -0.2932
14772TIP3   OH244237   0.977   6.468   5.738 -0.1119  0.2629 -0.0922
14772TIP3    H144238   0.988   6.537   5.803 -0.2273  0.2239 -0.0299
14772TIP3    H244239   0.882   6.462   5.725 -0.2153 -0.9308  1.0431
14773TIP3   OH244240   5.850   2.783   6.065  0.1190 -0.2261 -0.4412
14773TIP3    H144241   5.922   2.811   6.007  0.5320  0.7738  0.5092
14773TIP3    H244242   5.795   2.861   6.074  0.3276 -0.2060  0.8716
14774TIP3   OH244243   0.391   5.236   4.257  0.3113  0.4060  0.3739
14774TIP3    H144244   0.466   5.184   4.226 -0.4950  1.0762 -3.1717
14774TIP3    H244245   0.318   5.174   4.257  0.1269  0.6208  0.0257
14775TIP3   OH244246   7.744   8.120   0.349 -0.1324  0.2308 -0.4068
14775TIP3    H144247   7.742   8.183   0.277 -0.2882  0.1820 -0.4460
14775TIP3    H244248   7.776   8.171   0.424 -0.3054  0.3715 -0.4266
14776TIP3   OH244249   0.450   2.394   5.413  0.1036 -0.8195 -0.3176
14776TIP3    H144250   0.382   2.351   5.361 -0.5925 -1.1697  0.8497
14776TIP3    H244251   0.470   2.474   5.364 -1.2869 -0.6161 -0.5891
14777TIP3   OH244252   4.382   1.281   6.372  0.2528  0.0933  0.3201
14777TIP3    H144253   4.457   1.302   6.317  0.9921 -1.1764  0.7987
14777TIP3    H244254   4.399   1.327   6.454  1.0935 -1.0620  0.8204
14778TIP3   OH244255   4.896   1.331   6.973  0.2601  0.3481 -0.2393
14778TIP3    H144256   4.801   1.329   6.966  0.3232  0.1396 -1.2073
14778TIP3    H244257   4.913   1.341   7.067 -0.7255  3.4646 -0.2852
14779TIP3   OH244258   8.156   1.206   5.993  0.1589  0.1783 -0.0604
14779TIP3    H144259   8.225   1.196   6.059 -0.9270 -1.0596  0.9297
14779TIP3    H244260   8.188   1.155   5.918  0.5248  0.0009  0.2111
14780TIP3   OH244261   3.029   0.294   6.467 -0.2224 -0.6334 -0.2730
14780TIP3    H144262   3.103   0.353   6.482  0.3500 -0.6701 -2.5420
14780TIP3    H244263   2.987   0.329   6.388 -2.7086 -0.5786  0.9865
14781TIP3   OH244264   7.930   5.849   2.580  0.1911 -0.0340  0.0541
14781TIP3    H144265   7.911   5.921   2.640 -0.8249 -0.9689  0.8823
14781TIP3    H244266   7.874   5.865   2.504 -0.1164 -0.0114  0.2867
14782TIP3   OH244267   8.358   5.924   2.985  0.3434 -0.1693 -0.1286
14782TIP3    H144268   8.405   5.917   3.068 -0.3886 -2.3886  0.1777
14782TIP3    H244269   8.272   5.960   3.008 -0.7567 -2.9243  0.5912
14783TIP3   OH244270   7.710   4.838   3.093  0.3360  0.6302 -0.0420
14783TIP3    H144271   7.705   4.885   3.176  0.1232  1.0690 -0.3045
14783TIP3    H244272   7.634   4.779   3.094  0.4340  0.5060  0.1511
14784TIP3   OH244273   1.818   3.401   5.749 -0.4179 -0.3179  0.3102
14784TIP3    H144274   1.760   3.325   5.753 -1.1887  0.2198 -0.3077
14784TIP3    H244275   1.875   3.392   5.825 -0.6724 -1.3694  0.3950
14785TIP3   OH244276   5.344   2.316   3.320  0.0658  0.6953  0.1159
14785TIP3    H144277   5.395   2.387   3.282 -1.3176  0.3755 -2.6094
14785TIP3    H244278   5.267   2.309   3.263 -0.6427 -1.9408  1.2465
14786TIP3   OH244279   7.356   7.137   3.404  0.1936 -0.2637 -0.1154
14786TIP3    H144280   7.332   7.083   3.329  0.2333 -0.8436  0.2823
14786TIP3    H244281   7.446   7.163   3.386 -0.0774  0.3324 -0.6847
14787TIP3   OH244282   3.714   4.700   6.352 -0.0791  0.6061 -0.3857
14787TIP3    H144283   3.710   4.712   6.257 -0.3717  0.6983 -0.3646
14787TIP3    H244284   3.802   4.668   6.369 -0.1604  0.1840 -0.7366
14788TIP3   OH244285   3.076   4.979   2.611  0.5527 -0.2605  0.1264
14788TIP3    H144286   3.059   5.056   2.556 -1.1951 -1.7272 -1.5599
14788TIP3    H244287   3.039   5.001   2.696  0.2955  0.8559 -0.2560
14789TIP3   OH244288   0.367   3.986   5.055 -0.1570 -0.2799  0.6836
14789TIP3    H144289   0.313   3.946   4.988 -0.1079  0.0112  0.4709
14789TIP3    H244290   0.407   3.912   5.101 -0.4152 -0.4834  0.5805
14790TIP3   OH244291   2.736   7.837   5.023  0.4034 -0.4422  0.5185
14790TIP3    H144292   2.724   7.780   4.947  2.0886 -1.3710  0.8890
14790TIP3    H244293   2.680   7.913   5.006  0.7605 -0.6185 -1.6592
14791TIP3   OH244294   7.334   1.882   6.184  0.1835  0.0872 -0.4304
14791TIP3    H144295   7.395   1.922   6.122 -0.1727 -0.3247 -1.0529
14791TIP3    H244296   7.249   1.888   6.142  0.2180 -2.0097 -0.9038
14792TIP3   OH244297   3.044   4.704   2.544 -0.3695  0.0079  0.9040
14792TIP3    H144298   3.086   4.662   2.469 -2.7566 -0.7659 -0.1077
14792TIP3    H244299   3.091   4.786   2.555  0.1625  0.0812 -1.3520
14793TIP3   OH244300   4.544   0.064   2.149  0.4434 -0.4527 -0.2035
14793TIP3    H144301   4.463   0.105   2.119  0.2802 -0.9304 -0.4368
14793TIP3    H244302   4.520  -0.027   2.165  0.3339 -0.0514  2.1787
14794TIP3   OH244303   7.004   1.223   2.739  0.6932  0.7837  0.4505
14794TIP3    H144304   6.910   1.217   2.724  0.7088  1.3641  0.1199
14794TIP3    H244305   7.025   1.315   2.724  1.5555  0.3955 -0.8735
14795TIP3   OH244306   7.937   2.327   6.360  0.4066  0.3610 -0.3149
14795TIP3    H144307   8.011   2.266   6.372  0.3149  0.3025 -0.0479
14795TIP3    H244308   7.931   2.338   6.265  0.5967  0.1648 -0.3516
14796TIP3   OH244309   4.912   0.547   0.599 -0.1007 -0.1064 -0.1118
14796TIP3    H144310   4.956   0.462   0.596 -0.2651 -0.1900 -0.2308
14796TIP3    H244311   4.946   0.594   0.523  1.1305  0.5186  0.7967
14797TIP3   OH244312   6.038   0.791   3.152  0.0435 -0.7748 -0.0999
14797TIP3    H144313   6.091   0.755   3.080 -1.3955 -2.3316 -0.4397
14797TIP3    H244314   6.099   0.799   3.225  1.0937 -1.0161 -0.9303
14798TIP3   OH244315   3.783   0.862   1.534  0.3664 -0.5007  0.8180
14798TIP3    H144316   3.786   0.858   1.629  1.3687 -0.4600  0.7911
14798TIP3    H244317   3.693   0.891   1.514 -0.6101 -2.7378  1.6555
14799TIP3   OH244318   2.175   0.642   5.975 -0.2708  0.1526 -0.0554
14799TIP3    H144319   2.092   0.600   5.955 -0.6518  1.4540 -1.3836
14799TIP3    H244320   2.219   0.582   6.035 -2.3277 -0.3535  0.9974
14800TIP3   OH244321   1.734   4.297   2.480 -0.5747  0.4919  0.0315
14800TIP3    H144322   1.715   4.269   2.570 -2.1565 -0.3480 -0.5283
14800TIP3    H244323   1.734   4.392   2.484 -2.0239  0.4983  0.7051
14801TIP3   OH244324   6.606   6.679   4.736  0.4551  0.1197 -0.9087
14801TIP3    H144325   6.516   6.683   4.704 -0.2297 -1.5501  0.6402
14801TIP3    H244326   6.657   6.650   4.660 -0.3894  0.4243 -1.6168
14802TIP3   OH244327   2.608   5.934   3.634  0.1526 -0.0657 -0.2691
14802TIP3    H144328   2.655   5.897   3.709 -2.0279 -0.5034  0.9723
14802TIP3    H244329   2.639   5.884   3.559  0.0174 -1.8503  0.8205
14803TIP3   OH244330   4.940   2.656   4.683 -0.3016  0.2880 -0.0861
14803TIP3    H144331   4.914   2.571   4.718  2.0398 -1.2075 -1.6420
14803TIP3    H244332   4.907   2.719   4.746  0.8000 -1.9784  3.0531
14804TIP3   OH244333   5.451   4.646   3.649 -0.8250  0.2697 -0.4452
14804TIP3    H144334   5.524   4.637   3.588  0.3871 -1.8493  1.1814
14804TIP3    H244335   5.486   4.698   3.721 -0.8103 -0.8740  0.4093
14805TIP3   OH244336   0.316   5.940   7.065  0.1193 -0.8136 -0.3304
14805TIP3    H144337   0.336   5.956   6.973 -1.2397 -2.4834 -0.9612
14805TIP3    H244338   0.391   5.891   7.098  0.5698 -0.2855 -0.5381
14806TIP3   OH244339   4.614   3.227   0.688  0.3135 -0.5326  0.0400
14806TIP3    H144340   4.548   3.175   0.642  1.4870  0.6858 -3.3206
14806TIP3    H244341   4.563   3.293   0.736 -0.9798 -1.4606 -0.0165
14807TIP3   OH244342   5.227   7.491   6.495 -0.2660 -0.2398 -0.7534
14807TIP3    H144343   5.315   7.481   6.531 -1.4888 -1.1256  2.3136
14807TIP3    H244344   5.180   7.543   6.560 -2.3821 -0.9920 -1.5918
14808TIP3   OH244345   4.335   3.559   2.667  0.2694  0.0076 -0.3615
14808TIP3    H144346   4.315   3.550   2.573 -0.1472  0.3167 -0.3075
14808TIP3    H244347   4.322   3.472   2.703 -1.8294  0.3489 -0.1817
14809TIP3   OH244348   3.444   4.266   0.834 -0.4111 -0.0347  0.2818
14809TIP3    H144349   3.504   4.256   0.760  0.6079  1.7696  0.7932
14809TIP3    H244350   3.500   4.298   0.905 -1.8111  0.8163  1.0345
14810TIP3   OH244351   6.788   8.062   3.517 -0.3262 -0.3518 -0.1251
14810TIP3    H144352   6.839   8.134   3.477  1.2511 -1.2273  0.2250
14810TIP3    H244353   6.705   8.103   3.543 -0.3405  0.8465 -1.8779
14811TIP3   OH244354   7.323   4.733   4.879 -0.1015 -0.2875  0.4894
14811TIP3    H144355   7.383   4.775   4.818 -1.9587  1.9761  0.0665
14811TIP3    H244356   7.368   4.735   4.963  1.0593 -0.1683 -0.1131
14812TIP3   OH244357   1.526   5.111   2.599  0.1531 -0.3069  0.1137
14812TIP3    H144358   1.435   5.091   2.618  0.1310 -0.4606 -0.1531
14812TIP3    H244359   1.526   5.136   2.506  0.3466 -0.1018  0.1684
14813TIP3   OH244360   0.066   5.949   2.851  0.2298  0.1298  0.1031
14813TIP3    H144361   0.035   5.860   2.832  0.4057  0.3990 -1.6214
14813TIP3    H244362   0.096   5.945   2.942 -0.0783 -1.4815  0.1662
14814TIP3   OH244363   1.170   0.408   1.708 -0.0657  0.5383 -0.0270
14814TIP3    H144364   1.159   0.356   1.787 -1.0950  1.6936  0.6356
14814TIP3    H244365   1.263   0.429   1.705  0.1137 -0.1773  0.4389
14815TIP3   OH244366   4.265   5.418   6.036 -0.4376  0.1508  0.0512
14815TIP3    H144367   4.210   5.487   6.073 -1.7766  0.7658 -2.7567
14815TIP3    H244368   4.338   5.465   5.995  0.8783 -0.4838  1.5590
14816TIP3   OH244369   5.582   3.188   3.716  0.6939 -0.6034 -0.0346
14816TIP3    H144370   5.657   3.210   3.661 -1.4590  2.9126 -1.9660
14816TIP3    H244371   5.543   3.110   3.676  2.7513 -2.0160  0.5590
14817TIP3   OH244372   2.194   3.564   6.973 -0.0587  0.2880  0.1084
14817TIP3    H144373   2.231   3.579   6.887 -1.9133 -0.7944 -0.9489
14817TIP3    H244374   2.144   3.643   6.993  0.9718  0.8423  0.5512
14818TIP3   OH244375   8.155   4.756   5.406 -0.3698  0.0656 -0.2087
14818TIP3    H144376   8.076   4.706   5.426 -0.4271  0.9297  1.9608
14818TIP3    H244377   8.126   4.821   5.342 -0.9920 -0.7066 -0.7303
14819TIP3   OH244378   2.258   2.636   0.752  0.6287 -0.1885  0.5519
14819TIP3    H144379   2.297   2.722   0.737  1.7588 -0.5244  1.4317
14819TIP3    H244380   2.330   2.574   0.742 -0.3591 -1.1585 -1.0490
14820TIP3   OH244381   0.930   5.431   6.584 -0.3565  0.4871 -0.7084
14820TIP3    H144382   0.881   5.386   6.653 -0.8581  2.1112  0.0561
14820TIP3    H244383   1.020   5.431   6.616 -0.8034  2.6264  0.8546
14821TIP3   OH244384   7.379   4.181   3.747 -0.6639  1.0426 -0.2807
14821TIP3    H144385   7.374   4.274   3.726 -1.7901  1.2631  0.8525
14821TIP3    H244386   7.373   4.137   3.662 -2.6984  1.9641 -0.6783
14822TIP3   OH244387   8.626   2.738   1.136  0.3869  0.5605  0.1418
14822TIP3    H144388   8.572   2.777   1.068  1.4731 -0.4966 -1.3700
14822TIP3    H244389   8.669   2.664   1.094  0.0119 -1.0296  2.3465
14823TIP3   OH244390   1.222   5.769   2.380  0.2547  0.2193  0.0219
14823TIP3    H144391   1.135   5.740   2.352  0.4440  0.3607 -0.7299
14823TIP3    H244392   1.250   5.703   2.443 -1.5883  1.6568  2.5333
14824TIP3   OH244393   5.143   7.528   4.248 -0.9388  0.4970 -0.1313
14824TIP3    H144394   5.225   7.562   4.283 -0.7061  2.0819 -2.0624
14824TIP3    H244395   5.076   7.560   4.308 -0.3677  1.3180  0.0817
14825TIP3   OH244396   1.930   7.603   0.825  0.1566 -0.1132 -0.2657
14825TIP3    H144397   1.995   7.547   0.868 -0.7986  0.0030  1.3747
14825TIP3    H244398   1.860   7.613   0.889 -1.1897  0.3246 -1.7471
14826TIP3   OH244399   6.665   5.137   6.366  0.0581 -0.2820 -0.1688
14826TIP3    H144400   6.653   5.174   6.453  0.5741  0.8142 -0.5559
14826TIP3    H244401   6.760   5.137   6.353 -0.0240 -0.3374 -0.7770
14827TIP3   OH244402   3.891   7.310   4.941  0.3449 -0.0616  0.2768
14827TIP3    H144403   3.967   7.320   4.999  2.0403 -0.6040 -1.6870
14827TIP3    H244404   3.884   7.395   4.897  0.1415 -0.1686  0.1014
14828TIP3   OH244405   3.034   7.321   0.836  0.0351 -0.3340 -0.1298
14828TIP3    H144406   3.001   7.245   0.883  0.6020  0.6127  1.8951
14828TIP3    H244407   2.963   7.345   0.776 -1.7812 -0.1334  1.9827
14829TIP3   OH244408   6.322   2.908   4.365 -0.5524  0.4484 -0.3834
14829TIP3    H144409   6.290   2.866   4.444  0.9391 -2.7649 -1.3180
14829TIP3    H244410   6.277   2.863   4.293  2.2759 -0.8927 -1.4943
14830TIP3   OH244411   6.632   2.749   5.241 -0.2387  0.1291  0.0591
14830TIP3    H144412   6.715   2.700   5.246 -0.2500  0.2085  1.8196
14830TIP3    H244413   6.586   2.726   5.322 -1.1557  1.4472 -0.0537
14831TIP3   OH244414   8.536   7.586   3.371 -0.4073 -0.0785  0.1201
14831TIP3    H144415   8.533   7.490   3.367  0.3314 -0.1122  0.1955
14831TIP3    H244416   8.444   7.613   3.370 -0.6024 -0.7335 -0.9484
14832TIP3   OH244417   4.400   6.910   3.947 -0.4024  0.1309 -0.1946
14832TIP3    H144418   4.343   6.833   3.941  0.3695 -0.4953  0.1938
14832TIP3    H244419   4.396   6.935   4.039  1.1840 -0.9262  0.2043
14833TIP3   OH244420   6.378   1.075   5.324  0.1654 -0.3138 -0.4994
14833TIP3    H144421   6.422   1.022   5.258  0.2007  0.0978 -0.8157
14833TIP3    H244422   6.326   1.013   5.375 -1.8148 -0.3951 -2.4669
14834TIP3   OH244423   6.778   7.213   2.802  0.6236 -1.0627 -0.1064
14834TIP3    H144424   6.714   7.161   2.754 -0.3949  1.4663 -1.6777
14834TIP3    H244425   6.728   7.255   2.871  0.7515  0.1957 -0.7598
14835TIP3   OH244426   6.661   1.011   6.290  0.0985  0.3283  0.8663
14835TIP3    H144427   6.669   1.061   6.372  0.0263  1.4495  0.2138
14835TIP3    H244428   6.746   0.968   6.280 -0.0072 -0.0992  1.6980
14836TIP3   OH244429   8.302   3.751   0.979 -0.2082 -0.1000  0.2260
14836TIP3    H144430   8.329   3.661   0.995 -0.9439 -0.2960  0.4165
14836TIP3    H244431   8.221   3.761   1.030  0.0409  0.7665  0.4694
14837TIP3   OH244432   0.428   3.445   4.736  0.5458 -0.0266 -0.4306
14837TIP3    H144433   0.470   3.527   4.763 -0.7820  0.0127  1.7087
14837TIP3    H244434   0.344   3.471   4.700  1.2391 -0.3028 -2.4071
14838TIP3   OH244435   5.386   3.118   1.112 -0.3245  0.4537  0.0124
14838TIP3    H144436   5.378   3.121   1.017 -2.0013  0.7934  0.1202
14838TIP3    H244437   5.480   3.123   1.129 -0.0479  1.6936 -1.5854
14839TIP3   OH244438   2.160   5.725   2.632 -0.4097 -0.2921  0.0389
14839TIP3    H144439   2.154   5.807   2.584  0.0834 -0.3012 -0.0373
14839TIP3    H244440   2.199   5.748   2.716  0.8319 -0.6148 -0.4218
14840TIP3   OH244441   7.140   8.009   1.123 -0.1681  0.0028  0.0802
14840TIP3    H144442   7.183   8.005   1.208  0.1182  0.8668 -0.0247
14840TIP3    H244443   7.206   7.979   1.061  0.3422  1.4402 -0.0954
14841TIP3   OH244444   8.169   3.448   0.877  0.1244  0.2080 -0.2168
14841TIP3    H144445   8.207   3.411   0.797  1.2250 -0.6851  0.6916
14841TIP3    H244446   8.117   3.522   0.846 -1.1953 -1.3445 -1.9937
14842TIP3   OH244447   6.246   5.136   1.306 -0.0597  0.1101  0.6481
14842TIP3    H144448   6.211   5.086   1.380 -1.0193  2.0702  1.6071
14842TIP3    H244449   6.212   5.224   1.319  1.2946  0.9605 -1.1368
14843TIP3   OH244450   7.060   3.127   3.066 -0.2051 -0.1477  0.1440
14843TIP3    H144451   7.055   3.218   3.038 -0.6012 -0.4350 -0.7761
14843TIP3    H244452   7.088   3.079   2.988 -0.5286 -0.8761  0.4604
14844TIP3   OH244453   6.376   3.527   4.599  0.0625  0.0853 -0.6769
14844TIP3    H144454   6.322   3.555   4.525 -1.0023  0.3024  0.1686
14844TIP3    H244455   6.460   3.502   4.559 -0.3202  0.6719 -1.8963
14845TIP3   OH244456   4.765   4.183   2.232 -0.3502  0.2706 -0.5299
14845TIP3    H144457   4.701   4.252   2.247  0.6560  1.2112 -0.4183
14845TIP3    H244458   4.850   4.228   2.234  0.3812 -1.0733  0.2652
14846TIP3   OH244459   3.224   6.918   2.232  0.4791 -0.0365  0.2115
14846TIP3    H144460   3.228   6.870   2.149 -0.8662  0.4598 -0.1762
14846TIP3    H244461   3.301   6.890   2.280  0.3246 -1.7197 -0.4607
14847TIP3   OH244462   8.069   1.697   5.925 -0.2611 -0.1201  0.4553
14847TIP3    H144463   8.025   1.657   6.000 -0.1831 -2.2059 -0.5391
14847TIP3    H244464   8.125   1.628   5.890  0.2426  1.0113 -1.1040
14848TIP3   OH244465   7.820   3.762   4.025 -0.2863 -0.0172  0.4552
14848TIP3    H144466   7.746   3.768   4.086  0.5735  0.6430  1.4754
14848TIP3    H244467   7.869   3.686   4.056  0.0099  0.1619  0.4287
14849TIP3   OH244468   8.299   2.111   5.097  0.2678  0.1170 -0.4542
14849TIP3    H144469   8.389   2.081   5.081  0.3975  0.6545 -0.7594
14849TIP3    H244470   8.309   2.184   5.158 -0.0918 -0.8328  0.7931
14850TIP3   OH244471   3.953   3.358   3.955  0.1300  0.0471  0.0703
14850TIP3    H144472   3.907   3.281   3.922  0.1017 -0.0045  0.2283
14850TIP3    H244473   4.038   3.356   3.912 -0.2290  0.4628 -0.6714
14851TIP3   OH244474   0.541   1.323   4.818  0.0373  0.1207  0.1284
14851TIP3    H144475   0.471   1.385   4.837  0.6446  0.6332  0.7518
14851TIP3    H244476   0.572   1.348   4.730 -1.2677 -0.8104 -0.6254
14852TIP3   OH244477   2.472   6.843   4.392 -0.4218  0.0761 -0.2572
14852TIP3    H144478   2.491   6.893   4.313  0.3972 -1.2183 -0.9272
14852TIP3    H244479   2.407   6.778   4.364  0.3647 -0.8217 -0.0754
14853TIP3   OH244480   5.085   4.488   6.383  0.7400 -0.2604  0.0692
14853TIP3    H144481   5.046   4.484   6.296  0.8326 -1.0871  0.0608
14853TIP3    H244482   5.160   4.546   6.373  2.0956 -2.1177 -0.9416
14854TIP3   OH244483   3.542   0.355   1.035  0.0208  0.6836 -0.0211
14854TIP3    H144484   3.521   0.291   0.967 -2.6758  0.6639  0.7207
14854TIP3    H244485   3.567   0.434   0.986  1.4437 -0.3147 -0.9621
14855TIP3   OH244486   5.134   0.036   6.371 -0.0867 -0.4989 -0.7982
14855TIP3    H144487   5.209   0.031   6.312  1.0287  1.2164  0.3856
14855TIP3    H244488   5.134  -0.048   6.417  2.1366  0.0432  0.3237
14856TIP3   OH244489   6.484   7.417   4.928  0.1291  0.4925 -0.0823
14856TIP3    H144490   6.558   7.387   4.874  1.8843  0.6042  2.1056
14856TIP3    H244491   6.440   7.337   4.956  0.6392  0.3012  0.1863
14857TIP3   OH244492   4.866   2.889   0.526 -0.0611 -0.0222  0.1857
14857TIP3    H144493   4.838   2.831   0.597  1.5331 -0.7949  0.2262
14857TIP3    H244494   4.932   2.945   0.566 -1.3008  1.6396  0.0467
14858TIP3   OH244495   6.715   1.143   7.011 -0.0578  0.6488  0.4788
14858TIP3    H144496   6.781   1.180   6.954  0.4179 -1.0714 -0.1397
14858TIP3    H244497   6.638   1.199   6.999  0.8692  1.9131  0.2533
14859TIP3   OH244498   2.697   4.405   2.192  0.3082 -0.5699 -0.2491
14859TIP3    H144499   2.726   4.373   2.277 -1.1705  1.7334  1.2222
14859TIP3    H244500   2.678   4.326   2.142  3.6436 -2.0845  0.5576
14860TIP3   OH244501   7.826   7.454   6.123  0.1742  0.5251 -0.1538
14860TIP3    H144502   7.871   7.401   6.057 -1.9206  0.6600 -1.8208
14860TIP3    H244503   7.735   7.457   6.092 -0.8054  0.9934  2.5348
14861TIP3   OH244504   7.878   8.101   4.490  0.0302  0.0887 -0.1189
14861TIP3    H144505   7.948   8.090   4.426  0.7059 -0.2385  0.6597
14861TIP3    H244506   7.908   8.173   4.546 -0.6084  0.4516 -0.2330
14862TIP3   OH244507   7.581   6.644   6.837  0.2403 -1.0249  0.5558
14862TIP3    H144508   7.647   6.603   6.781  0.1862 -0.6874  0.2424
14862TIP3    H244509   7.631   6.695   6.900  0.3158 -1.7248  1.0768
14863TIP3   OH244510   5.796   3.063   1.325 -0.4093 -0.4431 -0.5036
14863TIP3    H144511   5.843   3.146   1.310  1.1226 -1.2512 -0.3873
14863TIP3    H244512   5.760   3.041   1.240 -1.3908  0.6458 -0.4018
14864TIP3   OH244513   2.747   1.516   0.494 -0.0736 -0.2858 -0.0924
14864TIP3    H144514   2.757   1.456   0.568 -0.2582  1.5826  1.5261
14864TIP3    H244515   2.658   1.502   0.464 -0.3359 -0.3702  0.7019
14865TIP3   OH244516   8.672   5.569   5.030  0.0173 -0.2046  0.2474
14865TIP3    H144517   8.710   5.595   4.946  1.7516 -0.4473  0.9037
14865TIP3    H244518   8.686   5.645   5.087 -0.3392 -0.3635  0.5520
14866TIP3   OH244519   0.431   0.211   3.302 -0.0433 -0.5826 -0.1832
14866TIP3    H144520   0.379   0.135   3.276 -0.8838 -0.2970  0.6342
14866TIP3    H244521   0.373   0.262   3.358  1.4512 -0.8184  1.6880
14867TIP3   OH244522   4.237   7.089   1.951  0.6951  0.3393  0.0110
14867TIP3    H144523   4.265   7.001   1.927  0.6476 -0.1659  1.6981
14867TIP3    H244524   4.176   7.076   2.024  1.4762  1.8102  0.9872
14868TIP3   OH244525   6.496   3.467   3.398 -0.2701 -0.6521  0.3122
14868TIP3    H144526   6.412   3.476   3.353  0.4283  1.1344 -0.7266
14868TIP3    H244527   6.487   3.388   3.450 -2.5673 -0.5391  0.1615
14869TIP3   OH244528   0.785   6.742   3.974 -0.3857  0.0786 -0.1298
14869TIP3    H144529   0.730   6.809   4.013 -0.2785  0.3152 -0.3825
14869TIP3    H244530   0.871   6.783   3.965 -0.7399  0.5115 -1.8944
14870TIP3   OH244531   6.481   6.259   3.417 -0.2163  0.1900  0.0075
14870TIP3    H144532   6.392   6.275   3.388 -0.3023 -1.9720 -1.1327
14870TIP3    H244533   6.472   6.237   3.510 -0.8565  0.1401 -0.0601
14871TIP3   OH244534   0.427   3.214   1.595  0.2018 -0.5498  0.7537
14871TIP3    H144535   0.396   3.231   1.684 -4.2142 -0.7305 -0.5010
14871TIP3    H244536   0.435   3.301   1.555  0.9187 -0.5246  0.9432
14872TIP3   OH244537   2.608   1.684   5.768 -0.6787  0.4368 -0.0213
14872TIP3    H144538   2.516   1.663   5.783 -1.0943 -0.2786 -3.0301
14872TIP3    H244539   2.636   1.622   5.701  2.5656 -0.5980  2.0859
14873TIP3   OH244540   4.846   3.143   6.678 -0.6894 -0.1655 -0.2191
14873TIP3    H144541   4.920   3.089   6.647  0.6746  0.0587  2.3867
14873TIP3    H244542   4.863   3.229   6.640 -0.6061 -0.5320 -1.0557
14874TIP3   OH244543   3.647   0.076   4.539 -0.3228 -0.1642 -0.4361
14874TIP3    H144544   3.715   0.133   4.503 -0.9925  0.1549 -1.2223
14874TIP3    H244545   3.613   0.124   4.614  1.7266 -1.2463  1.2974
14875TIP3   OH244546   0.608   8.031   0.151  0.1210  0.1862  0.2930
14875TIP3    H144547   0.664   8.023   0.228  0.7933 -0.5436 -0.2577
14875TIP3    H244548   0.645   7.969   0.088 -0.0986  1.1384 -0.8034
14876TIP3   OH244549   5.737   6.903   1.302 -0.3819 -0.0332 -0.0857
14876TIP3    H144550   5.710   6.876   1.215 -0.6385  0.6147 -0.2042
14876TIP3    H244551   5.707   6.993   1.311  0.5119  0.2383  0.2990
14877TIP3   OH244552   1.966   8.179   4.195  0.5667  0.2762  0.1480
14877TIP3    H144553   1.944   8.216   4.280 -1.0074  1.9114 -0.8930
14877TIP3    H244554   1.947   8.086   4.203  0.9667  0.3075  1.7248
14878TIP3   OH244555   4.388   3.517   5.053 -0.5167  0.1935 -0.2631
14878TIP3    H144556   4.459   3.579   5.071  1.9481 -2.5565  0.2278
14878TIP3    H244557   4.355   3.542   4.967 -0.4005  2.7652  0.3472
14879TIP3   OH244558   6.658   1.026   0.125 -0.0894 -0.4794  0.0923
14879TIP3    H144559   6.743   1.056   0.093  0.3782 -0.7820  1.0172
14879TIP3    H244560   6.668   1.025   0.220 -0.9917 -0.9290  0.1834
14880TIP3   OH244561   2.055   4.725   5.840  0.4384  0.1140  0.4491
14880TIP3    H144562   2.063   4.632   5.820  2.4928  0.4000 -0.2358
14880TIP3    H244563   2.026   4.765   5.758  0.1690  0.1715  0.5696
14881TIP3   OH244564   3.519   1.444   1.590 -0.2871  0.2023  0.4100
14881TIP3    H144565   3.428   1.424   1.612 -1.0743  2.0161 -0.9756
14881TIP3    H244566   3.546   1.507   1.657 -0.9158  1.5933 -0.6036
14882TIP3   OH244567   6.794   3.723   6.127  1.1478  0.4585  0.7282
14882TIP3    H144568   6.707   3.760   6.113  0.3797 -1.6421 -0.5019
14882TIP3    H244569   6.854   3.788   6.090  0.2402  2.4801  2.6639
14883TIP3   OH244570   1.193   6.131   3.162  0.5311  0.4076  0.2038
14883TIP3    H144571   1.132   6.132   3.236 -0.7072 -1.9897 -0.6707
14883TIP3    H244572   1.279   6.144   3.201  0.0531 -1.8523  2.2823
14884TIP3   OH244573   1.325   7.770   6.659 -0.3570 -0.1510  0.2685
14884TIP3    H144574   1.260   7.716   6.705  1.6478 -1.3360  1.8784
14884TIP3    H244575   1.381   7.804   6.729  0.0755  1.8624 -0.9667
14885TIP3   OH244576   3.905   1.777   3.421  0.0874 -0.5580 -0.5198
14885TIP3    H144577   3.889   1.755   3.512  0.2275 -0.6417 -0.5162
14885TIP3    H244578   3.920   1.693   3.378  2.1625 -0.3913 -0.2233
14886TIP3   OH244579   7.254   5.563   1.513 -0.4128  0.1926  0.6307
14886TIP3    H144580   7.202   5.596   1.440 -2.3392 -0.1255  1.7981
14886TIP3    H244581   7.340   5.604   1.501 -0.7321  0.3571 -1.6340
14887TIP3   OH244582   5.722   8.036   6.390  0.3960 -0.2841  0.1796
14887TIP3    H144583   5.714   8.046   6.485 -0.6925  0.9592 -0.0230
14887TIP3    H244584   5.640   8.070   6.355 -0.2076 -2.8249 -1.1218
14888TIP3   OH244585   5.409   7.109   0.001  0.0618  0.4719 -0.4110
14888TIP3    H144586   5.470   7.154   0.059  0.9814 -0.9093 -0.2648
14888TIP3    H244587   5.449   7.024  -0.015 -2.1941 -0.8138  0.3235
14889TIP3   OH244588   1.819   4.068   0.116  0.4984 -0.4167  0.0451
14889TIP3    H144589   1.903   4.108   0.137  0.8959 -1.1926 -0.0280
14889TIP3    H244590   1.759   4.101   0.183  1.2738 -1.2646  1.1991
14890TIP3   OH244591   5.392   1.967   0.948  0.3097 -0.3223 -0.3578
14890TIP3    H144592   5.337   2.025   0.896 -2.1959 -1.1438  1.1622
14890TIP3    H244593   5.369   1.987   1.039  0.7813 -2.3130  0.2636
14891TIP3   OH244594   1.797   7.444   1.788 -0.2741  0.3150  0.2798
14891TIP3    H144595   1.797   7.351   1.814  0.4802  0.6368  1.5200
14891TIP3    H244596   1.734   7.485   1.847  0.0828  0.7483  0.3620
14892TIP3   OH244597   3.054   6.254   5.192  0.2816  0.5257 -0.0516
14892TIP3    H144598   3.140   6.214   5.204  0.6954  1.0501 -1.1399
14892TIP3    H244599   3.072   6.339   5.152 -0.7775  0.3080 -1.0525
14893TIP3   OH244600   2.739   0.150   4.176  0.7658  0.4889  0.2788
14893TIP3    H144601   2.811   0.088   4.167  0.6339  0.0432  1.8998
14893TIP3    H244602   2.661   0.099   4.154  0.7346  0.3106  0.7979
14894TIP3   OH244603   6.902   6.168   6.279  0.1850  0.4166 -0.6069
14894TIP3    H144604   6.862   6.082   6.292  2.2583 -0.4749  0.2105
14894TIP3    H244605   6.900   6.181   6.185 -0.0802 -0.5546 -0.7476
14895TIP3   OH244606   7.574   5.378   3.039 -0.1320  0.2968  0.2154
14895TIP3    H144607   7.655   5.420   3.070  0.4431 -1.0028  0.5731
14895TIP3    H244608   7.592   5.357   2.947  0.5922 -1.3688  0.6825
14896TIP3   OH244609   0.211   4.176   4.003  0.2561  0.3902  0.7390
14896TIP3    H144610   0.213   4.200   3.911  0.3695 -1.3161  0.2669
14896TIP3    H244611   0.302   4.186   4.032  0.1170  1.5133  0.8658
14897TIP3   OH244612   4.670   4.844   3.706 -0.2653 -0.0416  0.6915
14897TIP3    H144613   4.667   4.786   3.782  2.6128  0.8918  1.6320
14897TIP3    H244614   4.763   4.863   3.693 -0.9279  2.8684 -0.7088
14898TIP3   OH244615   1.615   6.243   3.434  0.0036 -0.1555  0.0979
14898TIP3    H144616   1.520   6.233   3.423  0.0686 -1.2540  0.4057
14898TIP3    H244617   1.626   6.272   3.524 -0.1563  2.4491 -0.6509
14899TIP3   OH244618   1.318   1.133   3.931  0.0604  0.2350 -0.1252
14899TIP3    H144619   1.246   1.169   3.983 -0.4951  1.1059 -1.4562
14899TIP3    H244620   1.321   1.041   3.954 -2.2256 -0.0736 -0.8573
14900TIP3   OH244621   4.835   5.364   7.078  0.0007 -0.3601 -0.0383
14900TIP3    H144622   4.752   5.408   7.098 -0.0430  0.3565 -1.6572
14900TIP3    H244623   4.881   5.425   7.020  1.5372 -0.8784  0.5843
14901TIP3   OH244624   8.124   2.390   0.104 -0.6636  0.7035  0.0201
14901TIP3    H144625   8.073   2.424   0.031 -1.2260  2.2688  1.0765
14901TIP3    H244626   8.213   2.423   0.088 -0.3646 -0.4700 -0.8585
14902TIP3   OH244627   1.885   7.365   6.504  0.4074  0.3952  0.3916
14902TIP3    H144628   1.941   7.315   6.445 -0.9774 -1.1768  0.3195
14902TIP3    H244629   1.907   7.334   6.591  0.6086  0.7754  0.4754
14903TIP3   OH244630   5.636   4.122   6.138 -0.7726 -0.0446  0.2843
14903TIP3    H144631   5.656   4.068   6.062  0.6090 -1.0860  1.3190
14903TIP3    H244632   5.542   4.111   6.153 -0.7234 -1.2221 -0.2399
14904TIP3   OH244633   5.684   1.587   0.809 -0.1007 -0.6699 -0.3258
14904TIP3    H144634   5.647   1.599   0.721 -0.9982 -2.2505 -0.1956
14904TIP3    H244635   5.762   1.534   0.795 -0.6285 -1.5163 -0.1164
14905TIP3   OH244636   0.073   5.460   6.214  0.4376  0.3972 -0.2191
14905TIP3    H144637   0.126   5.383   6.190  1.4473  0.9069  0.3226
14905TIP3    H244638  -0.015   5.438   6.184  0.9284 -0.5085 -1.0840
14906TIP3   OH244639   0.220   7.067   1.058  0.6456  0.1221 -0.4302
14906TIP3    H144640   0.180   7.068   0.971  1.4561 -1.6843 -0.8676
14906TIP3    H244641   0.313   7.087   1.042  0.9074 -0.7724 -0.0644
14907TIP3   OH244642   4.362   4.457   5.262  0.0335 -0.6206  0.4085
14907TIP3    H144643   4.448   4.418   5.244 -0.8403 -1.7434 -1.6216
14907TIP3    H244644   4.371   4.548   5.232  1.2564  0.0935  2.6803
14908TIP3   OH244645   7.870   2.740   5.406  0.2196 -0.0713 -0.1032
14908TIP3    H144646   7.885   2.830   5.377  0.1131  0.0632  0.2480
14908TIP3    H244647   7.793   2.712   5.357  0.8654 -0.3319 -0.9758
14909TIP3   OH244648   5.334   3.066   2.231  0.3831 -0.2965  0.1582
14909TIP3    H144649   5.240   3.068   2.212  0.1472 -0.3618  1.2552
14909TIP3    H244650   5.339   3.045   2.325  1.4308  1.8983  0.6630
14910TIP3   OH244651   3.057   2.491   1.610  0.1358 -0.0333  0.0641
14910TIP3    H144652   3.125   2.527   1.553  1.2252  0.3831  1.5620
14910TIP3    H244653   2.976   2.532   1.580  1.0104  1.9104  0.2362
14911TIP3   OH244654   3.892   3.145   0.660  0.1496  0.4623 -0.3198
14911TIP3    H144655   3.945   3.222   0.681  0.4640  0.4437 -1.0059
14911TIP3    H244656   3.935   3.107   0.583 -1.4600  1.0752 -1.5931
14912TIP3   OH244657   2.322   0.388   2.883  0.0376 -0.2735  0.1070
14912TIP3    H144658   2.407   0.402   2.925 -1.1153 -0.7029  2.7672
14912TIP3    H244659   2.258   0.407   2.951 -1.9923 -0.8294 -1.5522
14913TIP3   OH244660   5.387   3.673   6.806  0.1055  0.0397 -0.1250
14913TIP3    H144661   5.360   3.760   6.835  1.3077  0.5739 -0.5405
14913TIP3    H244662   5.427   3.633   6.883 -0.5018 -0.1825  0.0827
14914TIP3   OH244663   6.705   5.674   0.728 -0.8315  0.0949  0.3963
14914TIP3    H144664   6.741   5.585   0.724 -1.2754 -0.1331  1.1170
14914TIP3    H244665   6.618   5.666   0.690 -0.0279  0.7217 -1.6915
14915TIP3   OH244666   1.368   7.277   1.146  0.0607  0.2721 -0.4193
14915TIP3    H144667   1.386   7.249   1.235  0.1286  1.1534 -0.1435
14915TIP3    H244668   1.436   7.342   1.127  0.1016  0.0270 -1.1432
14916TIP3   OH244669   1.807   7.926   5.586  0.2440 -0.3253  0.3645
14916TIP3    H144670   1.864   8.002   5.580 -0.5515  0.2138 -0.7302
14916TIP3    H244671   1.835   7.869   5.515 -1.8072  0.8489 -1.4959
14917TIP3   OH244672   4.229   7.066   6.061  0.2975  0.0978 -0.4556
14917TIP3    H144673   4.209   6.976   6.084  1.3904 -0.1107 -0.2715
14917TIP3    H244674   4.162   7.118   6.106 -0.7660 -0.6487 -1.1382
14918TIP3   OH244675   3.929   7.415   0.018 -0.0560  0.0456 -0.1759
14918TIP3    H144676   4.001   7.384  -0.035  0.5989  0.3173  0.5344
14918TIP3    H244677   3.970   7.460   0.091 -0.9539  0.9616 -0.2060
14919TIP3   OH244678   5.490   2.970   5.320  0.1783  0.1067 -0.3712
14919TIP3    H144679   5.476   2.969   5.415  1.9084 -1.1103 -0.0782
14919TIP3    H244680   5.439   2.897   5.287 -0.4529  0.5521 -0.3959
14920TIP3   OH244681   8.179   7.024   6.869 -0.2010  0.3144  0.0740
14920TIP3    H144682   8.108   7.068   6.917 -0.8700 -1.4680  0.8149
14920TIP3    H244683   8.146   7.018   6.779 -1.0387 -0.5005  0.4101
14921TIP3   OH244684   6.146   3.649   5.985  0.4144  0.3902  0.2724
14921TIP3    H144685   6.174   3.719   6.043  2.0231  1.3655 -1.5561
14921TIP3    H244686   6.154   3.569   6.037  0.9909  1.2909  1.6168
14922TIP3   OH244687   6.603   5.395   4.803 -0.3335  0.2633  0.3400
14922TIP3    H144688   6.697   5.377   4.808 -0.3649  0.1487  0.5541
14922TIP3    H244689   6.574   5.352   4.723 -0.3523 -0.3875  0.6942
14923TIP3   OH244690   1.899   7.400   6.022 -0.5450 -0.1993 -0.0744
14923TIP3    H144691   1.984   7.378   5.985 -0.7562  0.4614 -0.9675
14923TIP3    H244692   1.919   7.458   6.096 -0.2632  1.0774 -1.1119
14924TIP3   OH244693   7.985   1.284   4.780 -0.2671  0.4438 -0.1906
14924TIP3    H144694   7.905   1.279   4.728 -1.4144  1.2606  1.4203
14924TIP3    H244695   7.998   1.195   4.815  0.7365 -0.2166 -2.0940
14925TIP3   OH244696   3.083   1.086   3.557 -0.7465  0.1892 -0.1781
14925TIP3    H144697   2.989   1.095   3.574 -0.3241 -1.1904  4.0454
14925TIP3    H244698   3.093   0.997   3.524 -0.8724  0.1987 -0.2428
14926TIP3   OH244699   3.072   8.091   1.602  0.4772  0.2277 -0.0628
14926TIP3    H144700   3.127   8.015   1.580 -1.5805 -0.9673 -1.4566
14926TIP3    H244701   3.051   8.078   1.694  1.2967 -0.1189  0.0886
14927TIP3   OH244702   5.636   1.543   6.413  0.0805  0.5013 -0.3277
14927TIP3    H144703   5.690   1.550   6.491 -0.6093 -1.5402  0.4045
14927TIP3    H244704   5.598   1.630   6.402 -0.4074  0.6580  2.0688
14928TIP3   OH244705   1.700   5.439   0.698  0.0435 -0.0231 -0.6890
14928TIP3    H144706   1.641   5.419   0.771 -0.0317 -1.4132 -1.1012
14928TIP3    H244707   1.701   5.535   0.694 -0.6503  0.0622  0.5608
14929TIP3   OH244708   6.506   2.853   1.348 -0.0713 -0.3284 -0.1479
14929TIP3    H144709   6.466   2.873   1.433 -0.0852 -0.3432 -0.1509
14929TIP3    H244710   6.563   2.778   1.366 -0.1318 -0.3800 -0.1668
14930TIP3   OH244711   2.316   1.393   2.658 -0.4680 -0.0814 -0.4256
14930TIP3    H144712   2.353   1.409   2.572 -0.4821 -2.9004 -1.0468
14930TIP3    H244713   2.358   1.457   2.715  1.9345 -0.2037 -1.9403
14931TIP3   OH244714   4.926   5.798   6.647 -0.0066  0.1390  0.2796
14931TIP3    H144715   4.864   5.833   6.583 -0.8939  0.5603  1.3315
14931TIP3    H244716   4.999   5.859   6.646 -1.0700  1.4973  1.3366
14932TIP3   OH244717   5.801   5.767   4.796 -0.6482  0.0766  0.6416
14932TIP3    H144718   5.792   5.678   4.830 -0.8474  0.4413  1.5631
14932TIP3    H244719   5.720   5.811   4.822 -1.3653  0.0664 -1.3281
14933TIP3   OH244720   7.332   3.430   5.304  0.3183 -0.4474 -0.0035
14933TIP3    H144721   7.316   3.514   5.346  1.8497  0.3651 -0.9396
14933TIP3    H244722   7.354   3.452   5.214 -1.7619 -2.0662 -0.9834
14934TIP3   OH244723   2.053   4.195   5.724  0.0912 -0.2631  0.1669
14934TIP3    H144724   2.060   4.195   5.629  2.7275 -0.8763  0.2692
14934TIP3    H244725   1.961   4.177   5.742 -0.0609 -2.5558 -2.2769
14935TIP3   OH244726   3.439   6.509   2.659  0.1739  0.1220  0.2810
14935TIP3    H144727   3.349   6.504   2.692  0.2725  1.4236  0.8266
14935TIP3    H244728   3.490   6.453   2.717 -0.1646 -0.0023  0.4578
14936TIP3   OH244729   1.596   4.482   6.276 -0.0216 -0.5222 -0.3194
14936TIP3    H144730   1.669   4.434   6.238  0.5055  0.3612 -0.4416
14936TIP3    H244731   1.594   4.456   6.368  0.8949 -0.0330 -0.1486
14937TIP3   OH244732   2.535   0.726   1.620  0.2296 -0.0134 -0.4971
14937TIP3    H144733   2.478   0.766   1.686 -0.5045  0.6108 -1.4850
14937TIP3    H244734   2.480   0.661   1.577  0.5321 -0.0136 -0.8879
14938TIP3   OH244735   1.999   3.776   0.172  0.8695 -0.1576  0.1992
14938TIP3    H144736   2.048   3.694   0.176 -0.0281 -0.6932  0.4352
14938TIP3    H244737   1.910   3.750   0.151  0.8302  0.8762 -1.0395
14939TIP3   OH244738   5.713   2.746   4.615 -0.1348 -0.0708 -0.2990
14939TIP3    H144739   5.794   2.778   4.655 -0.8252  0.5886  0.6201
14939TIP3    H244740   5.730   2.749   4.521  0.5876  0.9544 -0.1518
14940TIP3   OH244741   8.251   4.096   2.930  0.1616  0.3028 -0.9972
14940TIP3    H144742   8.331   4.045   2.944  0.7024  1.1138 -1.0739
14940TIP3    H244743   8.183   4.030   2.916  0.4665 -0.4635  0.7593
14941TIP3   OH244744   3.920   7.673   0.935  0.3497  0.2689  0.1270
14941TIP3    H144745   3.951   7.763   0.938  1.3012 -0.0528  0.2741
14941TIP3    H244746   3.994   7.621   0.966  0.5047 -0.7158 -1.6993
14942TIP3   OH244747   3.944   2.756   3.236  0.3495  0.2593  0.5292
14942TIP3    H144748   3.932   2.675   3.186  1.1370  0.0777  0.6337
14942TIP3    H244749   4.030   2.748   3.275 -0.3953  0.2336  2.2621
14943TIP3   OH244750   5.142   5.324   2.254 -0.2854 -0.0816  0.8022
14943TIP3    H144751   5.077   5.385   2.288  0.7351 -0.2533  3.3473
14943TIP3    H244752   5.149   5.256   2.322  2.1877 -0.3121  0.4277
14944TIP3   OH244753   1.527   6.178   5.338  0.1127  0.2246  0.4307
14944TIP3    H144754   1.479   6.104   5.375  0.7718 -0.0047  0.8669
14944TIP3    H244755   1.601   6.190   5.398  0.3257  0.8757  0.0492
14945TIP3   OH244756   2.685   2.046   2.024 -0.4117  0.4289 -0.6024
14945TIP3    H144757   2.634   2.023   1.946  0.6594  0.2070 -1.2534
14945TIP3    H244758   2.718   1.962   2.055 -1.2547  0.4507  0.4178
14946TIP3   OH244759   3.381   2.711   3.755 -0.3059  0.2866  0.0734
14946TIP3    H144760   3.470   2.734   3.730  1.4347 -1.4316  3.9149
14946TIP3    H244761   3.377   2.616   3.743 -1.2985  0.2201  0.8279
14947TIP3   OH244762   2.405   6.171   5.920 -0.0329 -0.6834 -0.6193
14947TIP3    H144763   2.326   6.134   5.880 -0.7816 -0.3349  0.4759
14947TIP3    H244764   2.379   6.259   5.946  1.0238 -0.2164 -1.0885
14948TIP3   OH244765   5.962   5.598   1.204 -0.1397  0.0176 -0.2112
14948TIP3    H144766   5.984   5.624   1.115  1.6205 -1.7404 -0.3566
14948TIP3    H244767   5.939   5.505   1.197  0.9714 -0.4133  1.2517
14949TIP3   OH244768   7.682   1.007   1.436 -0.2809 -0.3885 -0.1611
14949TIP3    H144769   7.590   1.021   1.414 -0.1445 -1.0270 -1.2182
14949TIP3    H244770   7.682   0.929   1.491 -0.7039  1.6475  2.9613
14950TIP3   OH244771   8.322   0.235  -0.029  0.2008  0.1579 -0.2257
14950TIP3    H144772   8.294   0.316   0.012 -2.1547  0.7411 -2.6699
14950TIP3    H244773   8.282   0.166   0.024  2.5834  0.4260  2.1304
14951TIP3   OH244774   5.421   0.119   5.168  0.1223  0.2924  0.2437
14951TIP3    H144775   5.380   0.089   5.087 -0.6903 -0.5663  0.9382
14951TIP3    H244776   5.348   0.151   5.221  0.3579 -0.9282  1.3718
14952TIP3   OH244777   7.566   3.250   1.838 -0.1042  0.1883  0.6496
14952TIP3    H144778   7.600   3.198   1.766  1.1912 -1.1670  2.1770
14952TIP3    H244779   7.477   3.219   1.851 -0.1258 -0.0020  0.0476
14953TIP3   OH244780   1.798   2.882   2.340  0.1724  0.1534 -0.1580
14953TIP3    H144781   1.789   2.960   2.395  0.4049  0.4402 -0.5191
14953TIP3    H244782   1.882   2.893   2.296 -0.0394 -0.0353 -0.6233
14954TIP3   OH244783   0.437   5.127   4.769  0.3617  0.6170 -0.5153
14954TIP3    H144784   0.346   5.106   4.749  0.7364 -0.7092 -0.9848
14954TIP3    H244785   0.463   5.188   4.700 -0.2293  1.2104 -0.2288
14955TIP3   OH244786   0.429   6.738   0.578  0.2567  0.1925 -0.1234
14955TIP3    H144787   0.399   6.676   0.644 -0.3761 -0.3134 -0.8622
14955TIP3    H244788   0.359   6.803   0.572  0.0707 -0.0541 -0.6609
14956TIP3   OH244789   2.979   1.862   2.289 -0.8262 -0.3597  0.1293
14956TIP3    H144790   2.995   1.771   2.313 -0.5105 -0.9297 -2.0233
14956TIP3    H244791   3.062   1.907   2.304 -0.4450 -0.8444 -0.4663
14957TIP3   OH244792   5.229   2.815   3.983 -0.3977 -0.3094  0.1320
14957TIP3    H144793   5.313   2.830   4.028  0.5650 -0.3711 -1.5660
14957TIP3    H244794   5.163   2.828   4.051  0.9883 -0.3557  1.5455
14958TIP3   OH244795   4.381   2.512   4.144 -0.0043 -0.2958 -0.3703
14958TIP3    H144796   4.419   2.599   4.150 -0.2209 -0.1915 -0.4971
14958TIP3    H244797   4.451   2.457   4.109  0.3277 -0.3027  0.3008
14959TIP3   OH244798   8.643   2.296   1.238  0.1476 -0.1398 -0.0207
14959TIP3    H144799   8.549   2.286   1.220  0.5021 -2.2220 -0.9732
14959TIP3    H244800   8.666   2.378   1.194 -1.2713  0.6090  0.5497
14960TIP3   OH244801   3.430   6.506   1.809 -0.9155  0.0670  0.1386
14960TIP3    H144802   3.474   6.554   1.880 -0.8017  0.6667 -0.3318
14960TIP3    H244803   3.450   6.557   1.730 -0.2913 -1.0822 -0.4714
14961TIP3   OH244804   8.693   4.033   5.206 -0.1978 -0.2912 -0.2226
14961TIP3    H144805   8.699   3.964   5.140  0.4583  1.6085 -2.2720
14961TIP3    H244806   8.604   4.066   5.198 -0.0908 -0.0012 -0.2193
14962TIP3   OH244807   5.440   7.448   3.379  0.4351  0.0310  0.1019
14962TIP3    H144808   5.464   7.514   3.315  0.8857  0.8021  1.0377
14962TIP3    H244809   5.381   7.389   3.333 -1.7669  2.3228 -0.1521
14963TIP3   OH244810   4.626   2.866   2.429  0.4082  0.2403  0.2214
14963TIP3    H144811   4.649   2.775   2.413  0.8852  0.4866 -0.5666
14963TIP3    H244812   4.664   2.913   2.355 -1.9423  0.7743 -0.7331
14964TIP3   OH244813   5.888   7.100   6.442  0.2519  0.0205 -0.5618
14964TIP3    H144814   5.822   7.035   6.469  1.0580 -0.5291  0.1193
14964TIP3    H244815   5.837   7.168   6.398 -1.0254  0.4458  1.3982
14965TIP3   OH244816   5.465   2.958   4.110 -0.1970  0.0473 -0.4013
14965TIP3    H144817   5.521   2.883   4.089  0.0724 -0.2160  1.1271
14965TIP3    H244818   5.526   3.031   4.121 -0.2774  0.0693 -0.0845
14966TIP3   OH244819   4.878   1.140   2.528  0.1262  0.0911 -0.3285
14966TIP3    H144820   4.961   1.186   2.542 -0.1081  0.5549 -0.4174
14966TIP3    H244821   4.832   1.195   2.464 -1.4837  1.4801  1.8861
14967TIP3   OH244822   5.276   4.579   1.668 -0.1791  0.5834 -0.3343
14967TIP3    H144823   5.314   4.586   1.580  1.9960 -1.9802  0.2396
14967TIP3    H244824   5.349   4.599   1.726 -0.3747 -1.7564  0.8397
14968TIP3   OH244825   8.331   2.759   0.454  0.6412 -0.2475 -0.0665
14968TIP3    H144826   8.244   2.743   0.417 -0.2018 -0.5750  1.9111
14968TIP3    H244827   8.340   2.854   0.455  0.1072 -0.2002  0.1476
14969TIP3   OH244828   2.517   5.308   5.786 -0.3252 -0.5830 -0.2561
14969TIP3    H144829   2.483   5.375   5.727  1.1995  0.2548 -0.2306
14969TIP3    H244830   2.519   5.228   5.733 -2.2411 -0.6835 -0.2574
14970TIP3   OH244831   7.919   8.054   3.613  0.1384 -0.1223 -0.2687
14970TIP3    H144832   7.919   7.984   3.678 -1.0249  1.1128  1.1593
14970TIP3    H244833   8.011   8.078   3.603  0.3736 -0.5838  0.6617
14971TIP3   OH244834   6.568   0.157   1.344 -0.6955  0.8670 -0.6193
14971TIP3    H144835   6.630   0.173   1.273  0.7239 -0.9601  0.1140
14971TIP3    H244836   6.492   0.118   1.300  1.1300 -2.6483 -1.0904
14972TIP3   OH244837   8.455   4.333   5.829  0.2517  0.1313 -0.0517
14972TIP3    H144838   8.500   4.399   5.882 -1.2444  1.3246 -0.1966
14972TIP3    H244839   8.524   4.293   5.776  1.1628  1.7997 -0.1795
14973TIP3   OH244840   6.528   4.763   3.467 -0.0962  0.1970 -0.1193
14973TIP3    H144841   6.526   4.752   3.562 -0.6895 -0.2648 -0.1747
14973TIP3    H244842   6.508   4.855   3.452 -2.6829 -0.2242  0.1461
14974TIP3   OH244843   3.091   2.123   6.705 -0.8392  0.4141 -0.2206
14974TIP3    H144844   3.163   2.119   6.642 -0.9156 -1.4462 -0.2563
14974TIP3    H244845   3.117   2.191   6.766  0.3171  0.7021 -0.9878
14975TIP3   OH244846   7.472   5.430   6.527 -0.1214  0.6102  0.0009
14975TIP3    H144847   7.418   5.374   6.583 -1.5829  2.2894  0.3650
14975TIP3    H244848   7.520   5.369   6.471 -2.2948 -1.0041 -0.2379
14976TIP3   OH244849   2.363   6.707   4.966 -0.5823 -0.5882 -0.5170
14976TIP3    H144850   2.342   6.627   4.917  1.8116 -1.6013 -0.0645
14976TIP3    H244851   2.459   6.707   4.970 -0.6185  0.8754  1.8883
14977TIP3   OH244852   7.152   3.166   2.165  0.2379  0.4546 -0.4848
14977TIP3    H144853   7.208   3.096   2.199 -1.1438  0.5460  2.2361
14977TIP3    H244854   7.088   3.121   2.110  1.2771  0.0198 -1.3724
14978TIP3   OH244855   1.994   3.459   6.408 -0.0563  0.0464  0.0800
14978TIP3    H144856   1.980   3.364   6.409 -0.2099  0.0637  1.4182
14978TIP3    H244857   2.021   3.480   6.498 -1.3369  1.4467  0.1709
14979TIP3   OH244858   7.513   7.000   3.721 -0.1671  0.1402  0.0098
14979TIP3    H144859   7.605   7.020   3.704 -0.1991  1.0978  0.8655
14979TIP3    H244860   7.465   7.078   3.693 -0.7627 -0.4876 -0.7570
14980TIP3   OH244861   8.602   6.206   1.596  0.0640  0.0023 -0.3348
14980TIP3    H144862   8.627   6.206   1.504  0.7043 -0.9401 -0.1779
14980TIP3    H244863   8.565   6.120   1.612 -1.5078  0.7040 -0.0681
14981TIP3   OH244864   5.680   7.826   5.065 -0.3466  0.0735  0.1609
14981TIP3    H144865   5.599   7.794   5.103  0.8622  0.1568  3.0703
14981TIP3    H244866   5.660   7.914   5.033 -2.2691 -1.2809 -2.7355
14982TIP3   OH244867   5.743   0.851   0.725  0.2261 -0.2016  0.0712
14982TIP3    H144868   5.756   0.887   0.813  0.6539 -1.1795  0.4269
14982TIP3    H244869   5.821   0.798   0.709  0.4902  0.5170 -1.1958
14983TIP3   OH244870   6.082   2.188   4.758  0.0053  0.7461  0.4950
14983TIP3    H144871   6.040   2.160   4.677  0.7369  1.5087 -0.1678
14983TIP3    H244872   6.011   2.196   4.821 -0.9085  2.2148 -0.6438
14984TIP3   OH244873   7.407   2.139   3.014  0.0256  0.1850  0.6041
14984TIP3    H144874   7.395   2.110   2.924  0.9639 -0.6491  0.7303
14984TIP3    H244875   7.435   2.230   3.006  1.4978 -0.2917 -0.0388
14985TIP3   OH244876   6.650   7.488   0.717  0.1738  0.0652  0.0501
14985TIP3    H144877   6.645   7.421   0.785  0.3802  0.0840  0.0845
14985TIP3    H244878   6.629   7.569   0.762  1.2961  0.2206  0.3103
14986TIP3   OH244879   1.095   6.679   4.241 -0.6450  0.0317  0.4023
14986TIP3    H144880   1.154   6.682   4.316 -0.7347 -0.4182  0.4976
14986TIP3    H244881   1.066   6.769   4.229 -0.4546  0.1442  0.7682
14987TIP3   OH244882   0.793   2.839   3.403 -0.7660 -0.4487 -0.5987
14987TIP3    H144883   0.702   2.839   3.433 -1.2852  0.5557 -2.1104
14987TIP3    H244884   0.828   2.923   3.433 -1.1910  0.4162 -2.3988
14988TIP3   OH244885   1.600   7.361   5.980  0.5531 -0.0234  0.4929
14988TIP3    H144886   1.686   7.392   6.008 -0.6554  4.0582  0.3586
14988TIP3    H244887   1.550   7.353   6.062  0.1708  0.9763  0.3779
14989TIP3   OH244888   8.529   3.198   4.957 -0.3466  0.6787 -0.2500
14989TIP3    H144889   8.576   3.133   4.905 -2.4272 -0.3888 -0.9022
14989TIP3    H244890   8.574   3.280   4.939  1.4455 -0.3149 -0.5660
14990TIP3   OH244891   7.606   6.312   0.775 -0.4335 -0.1010  0.0994
14990TIP3    H144892   7.632   6.236   0.723  0.6620 -0.4400  1.1108
14990TIP3    H244893   7.634   6.291   0.864 -0.1119  1.4927  0.4001
14991TIP3   OH244894   1.090   7.073   5.166  0.2936  0.1628 -0.5291
14991TIP3    H144895   1.021   7.011   5.142  1.8398 -1.3942 -1.1119
14991TIP3    H244896   1.145   7.080   5.088  0.2607  2.1925 -0.4335
14992TIP3   OH244897   5.262   5.611   3.195 -0.0630 -0.5502 -0.1258
14992TIP3    H144898   5.208   5.640   3.269  0.8144  1.7804 -0.3200
14992TIP3    H244899   5.198   5.583   3.129 -0.9233 -0.5720  0.6885
14993TIP3   OH244900   4.452   2.255   0.211 -0.2985 -0.1809  0.1197
14993TIP3    H144901   4.383   2.254   0.278 -1.2665  0.6827 -0.8243
14993TIP3    H244902   4.517   2.316   0.244 -1.4184  1.2875 -0.3113
14994TIP3   OH244903   2.335   2.323   1.414  0.0049 -0.3649  0.3208
14994TIP3    H144904   2.383   2.376   1.351 -0.1345 -1.1839 -0.5011
14994TIP3    H244905   2.321   2.239   1.369 -0.3372 -0.8723  1.3411
14995TIP3   OH244906   4.260   1.871   5.359 -0.0331  0.2813  0.1339
14995TIP3    H144907   4.219   1.863   5.273 -1.3434 -2.2856  0.9028
14995TIP3    H244908   4.354   1.859   5.342 -0.1194  1.1434 -1.0577
14996TIP3   OH244909   4.366   1.723   4.362  0.4550 -0.0096 -0.0361
14996TIP3    H144910   4.332   1.780   4.294 -0.0674 -0.0429  0.1908
14996TIP3    H244911   4.361   1.635   4.324  0.1229 -0.0330  0.0557
14997TIP3   OH244912   4.646   3.008   4.987 -0.4880  0.2746 -0.1818
14997TIP3    H144913   4.631   3.089   5.034  0.4610 -0.9930  2.4977
14997TIP3    H244914   4.640   2.939   5.054  0.1912 -1.7444 -2.0572
14998TIP3   OH244915   0.289   3.020   4.743  0.4480  0.0118  0.2070
14998TIP3    H144916   0.349   2.978   4.805  0.8461 -0.5438 -0.5470
14998TIP3    H244917   0.339   3.026   4.662 -0.1451  0.5493 -0.1230
14999TIP3   OH244918   7.551   0.838   2.846 -0.0077  0.4380 -0.4099
14999TIP3    H144919   7.600   0.846   2.764 -0.5647  0.2663 -0.7598
14999TIP3    H244920   7.529   0.745   2.852 -1.9955  0.8037 -1.2554
15000TIP3   OH244921   7.742   0.636   1.326  0.8440 -0.1179  0.5888
15000TIP3    H144922   7.821   0.671   1.368 -0.7006  2.1913  1.8115
15000TIP3    H244923   7.765   0.626   1.234  2.3833  1.0667  0.8174
15001TIP3   OH244924   3.897   5.490   3.358  0.2708 -0.2885 -0.7190
15001TIP3    H144925   3.990   5.483   3.335  0.3276  0.8215 -0.9263
15001TIP3    H244926   3.887   5.581   3.386 -0.5960 -0.6139  0.0740
15002TIP3   OH244927   2.351   6.207   1.396 -0.1140 -0.1250  0.2549
15002TIP3    H144928   2.265   6.165   1.404  0.0640 -0.6841 -0.6321
15002TIP3    H244929   2.411   6.145   1.439 -0.1638  0.3320  0.9989
15003TIP3   OH244930   0.553   0.408   5.456  0.0074 -0.1208 -0.4888
15003TIP3    H144931   0.604   0.389   5.377 -0.9461 -1.3397 -0.8367
15003TIP3    H244932   0.608   0.468   5.506  0.3240  1.2320 -2.3850
15004TIP3   OH244933   5.222   1.721   5.857  0.0763 -0.0608  0.3793
15004TIP3    H144934   5.172   1.728   5.775  1.9297  0.1858 -0.7766
15004TIP3    H244935   5.311   1.699   5.830  0.8254  0.3490  2.3194
15005TIP3   OH244936   8.262   5.034   5.266  0.0771  0.3916  0.0105
15005TIP3    H144937   8.344   4.987   5.281  0.5964  1.7824  2.0259
15005TIP3    H244938   8.240   5.071   5.352 -1.9886  1.1345 -0.7722
15006TIP3   OH244939   3.878   5.421   0.920 -0.3591 -0.1814 -0.7155
15006TIP3    H144940   3.787   5.391   0.915 -0.5652  0.0583  0.9107
15006TIP3    H244941   3.915   5.400   0.834 -1.7064 -1.0639 -1.1213
15007TIP3   OH244942   1.365   0.649   2.003 -0.5359  0.4554 -0.5456
15007TIP3    H144943   1.416   0.569   2.016 -0.9829  0.4361  1.3559
15007TIP3    H244944   1.350   0.653   1.909 -0.9910 -1.9949 -0.6330
15008TIP3   OH244945   1.695   6.097   4.159  0.0510 -0.0007  0.7163
15008TIP3    H144946   1.617   6.068   4.206 -0.4140 -1.0506 -0.6661
15008TIP3    H244947   1.667   6.176   4.112  0.1795  0.3362  1.1944
15009TIP3   OH244948   2.455   4.550   0.766  0.6423  0.4358 -0.0690
15009TIP3    H144949   2.413   4.525   0.848 -0.2800 -0.6696 -0.8416
15009TIP3    H244950   2.411   4.497   0.699  2.5017  0.0194 -1.0649
15010TIP3   OH244951   7.251   6.748   0.134  0.2899 -0.2078  0.0943
15010TIP3    H144952   7.295   6.666   0.157  2.1088  0.6916 -0.0942
15010TIP3    H244953   7.199   6.725   0.056  1.6787 -0.9336 -0.6677
15011TIP3   OH244954   5.895   1.478   1.848  0.5324 -0.2607 -0.5489
15011TIP3    H144955   5.826   1.518   1.900  2.1485 -1.5107  2.8822
15011TIP3    H244956   5.949   1.551   1.817 -0.2614  0.5099 -0.1409
15012TIP3   OH244957   0.204   5.235   2.128 -0.2594  0.2311 -0.0552
15012TIP3    H144958   0.180   5.142   2.135  1.8269 -0.5540 -1.8323
15012TIP3    H244959   0.135   5.274   2.075 -0.8710 -0.4355  0.2394
15013TIP3   OH244960   0.111   6.267   0.060  0.1297  0.4543 -0.7824
15013TIP3    H144961   0.145   6.324   0.128  0.0901  0.1795 -0.5285
15013TIP3    H244962   0.021   6.247   0.087  0.1856  0.1691 -0.7980
15014TIP3   OH244963   4.886   2.450   4.356 -0.1046 -0.2628 -0.1490
15014TIP3    H144964   4.863   2.430   4.446  2.5707  0.3263  0.7815
15014TIP3    H244965   4.893   2.365   4.313 -1.1844 -0.5601  0.2401
15015TIP3   OH244966   3.453   6.349   4.001 -0.7070 -0.5404  0.1382
15015TIP3    H144967   3.542   6.336   3.969 -0.3873 -1.1790  1.2319
15015TIP3    H244968   3.464   6.391   4.086 -1.4188 -1.3809  0.6563
15016TIP3   OH244969   7.899   3.012   2.253 -0.0105 -0.7385 -0.8655
15016TIP3    H144970   7.977   3.031   2.306  0.5132 -2.5253 -0.9286
15016TIP3    H244971   7.922   3.042   2.165 -0.5487  1.4367 -0.3068
15017TIP3   OH244972   3.177   6.036   0.970 -0.0397  0.5908 -0.0092
15017TIP3    H144973   3.248   6.042   0.905  1.9837  2.3685  2.1974
15017TIP3    H244974   3.156   5.943   0.973  1.7181  0.0938 -1.2315
15018TIP3   OH244975   6.356   2.262   6.085 -0.0086  0.4554  0.1246
15018TIP3    H144976   6.288   2.328   6.072  1.0004  1.2318 -1.6635
15018TIP3    H244977   6.425   2.308   6.133  0.0949  0.2726  0.1522
15019TIP3   OH244978   1.011   6.917   4.538 -0.0154 -0.6016 -0.5722
15019TIP3    H144979   0.995   6.990   4.597 -1.3748 -0.0859 -1.5545
15019TIP3    H244980   1.014   6.956   4.451  0.8771 -1.5071 -0.9731
15020TIP3   OH244981   4.529   7.027   1.125  0.0467  0.3739  0.7187
15020TIP3    H144982   4.569   7.040   1.211  0.6507 -0.5159  0.5820
15020TIP3    H244983   4.595   7.059   1.063  0.5704 -1.0756  0.4923
15021TIP3   OH244984   2.785   7.415   0.725  0.3968 -0.0622  0.1653
15021TIP3    H144985   2.714   7.468   0.688  0.6280  0.7142  0.7943
15021TIP3    H244986   2.749   7.379   0.806  1.2046  1.6921  1.3708
15022TIP3   OH244987   2.598   5.604   3.147  0.2147 -0.1577 -0.0364
15022TIP3    H144988   2.627   5.576   3.060  2.9007 -1.7614  1.2536
15022TIP3    H244989   2.612   5.528   3.203 -1.0264  0.9630  1.9447
15023TIP3   OH244990   8.035   1.837   2.706 -0.6085  0.0290 -0.0192
15023TIP3    H144991   8.032   1.743   2.688  1.6008  0.4920 -4.1800
15023TIP3    H244992   7.982   1.875   2.636  2.0031  1.9429 -1.1170
15024TIP3   OH244993   6.947   1.793   6.323  0.8058  0.0610 -0.0945
15024TIP3    H144994   7.032   1.778   6.364  2.8681  2.1741 -3.1314
15024TIP3    H244995   6.925   1.883   6.345  1.7661  1.1105 -2.9803
15025TIP3   OH244996   5.283   1.490   3.546 -0.5500  0.3905  0.4294
15025TIP3    H144997   5.256   1.406   3.507 -0.9494  0.1927  1.1180
15025TIP3    H244998   5.241   1.491   3.631 -0.8436  1.4682  0.2791
15026TIP3   OH244999   7.859   4.177   4.471  0.6204  0.6764  0.0905
15026TIP3    H145000   7.946   4.168   4.431  0.1962  0.1907 -0.7325
15026TIP3    H245001   7.878   4.196   4.563  1.6677 -3.8196  1.0444
15027TIP3   OH245002   7.611   6.954   2.057 -0.1858  0.0023 -0.2595
15027TIP3    H145003   7.569   6.916   2.134 -1.3103  0.8213 -0.4630
15027TIP3    H245004   7.639   6.877   2.006 -1.6253 -0.5702 -0.2291
15028TIP3   OH245005   4.829   0.779   5.299  0.1670 -0.1014  0.0826
15028TIP3    H145006   4.914   0.756   5.337  0.6218  0.6906 -0.4414
15028TIP3    H245007   4.849   0.805   5.209 -0.7298 -0.6203 -0.2828
15029TIP3   OH245008   1.710  -0.004   1.907 -0.1552  0.0616 -0.5234
15029TIP3    H145009   1.741   0.071   1.958  0.3022  0.0886 -0.8316
15029TIP3    H245010   1.675   0.034   1.827 -0.8551  0.0167 -0.2475
15030TIP3   OH245011   7.591   3.511   6.209  0.0860 -0.0458  0.3566
15030TIP3    H145012   7.516   3.478   6.161  0.7386 -1.0212 -0.0287
15030TIP3    H245013   7.592   3.461   6.291 -0.9271  1.4948  1.3512
15031TIP3   OH245014   6.794   0.652   5.514  0.2013 -0.0426 -0.0552
15031TIP3    H145015   6.758   0.729   5.469  1.7254  0.7367 -0.0122
15031TIP3    H245016   6.797   0.585   5.446 -1.4716 -0.2152 -0.0091
15032TIP3   OH245017   6.584   5.074   4.097  0.2079  0.3012  0.8297
15032TIP3    H145018   6.493   5.043   4.095 -0.0644  1.0777  0.7371
15032TIP3    H245019   6.586   5.145   4.032  0.8237  0.4364  0.9949
15033TIP3   OH245020   2.826   5.553   5.693 -0.2744  0.2148 -0.2332
15033TIP3    H145021   2.901   5.495   5.680 -0.5086  0.0217 -0.7418
15033TIP3    H245022   2.776   5.511   5.764 -0.7533 -0.5358 -0.9920
15034TIP3   OH245023   5.006   0.310   0.221  0.0142 -0.3137 -0.2227
15034TIP3    H145024   4.936   0.373   0.201  0.6438  1.1250  1.7651
15034TIP3    H245025   4.966   0.249   0.283 -0.1110 -0.8919 -0.8608
15035TIP3   OH245026   2.309   5.606   2.840 -0.2693 -0.0453  0.4974
15035TIP3    H145027   2.368   5.591   2.766  0.3772 -1.4968  1.2664
15035TIP3    H245028   2.223   5.579   2.807 -0.1473  0.1337  0.0191
15036TIP3   OH245029   5.668   5.763   6.810  0.5028 -0.0101 -0.2899
15036TIP3    H145030   5.743   5.767   6.751  0.0338  1.4429 -0.8139
15036TIP3    H245031   5.651   5.669   6.821  2.9529 -0.4111  0.5911
15037TIP3   OH245032   6.079   1.291   0.570 -0.0959  0.4305 -0.2391
15037TIP3    H145033   6.126   1.355   0.623 -0.1552  0.8195 -0.6578
15037TIP3    H245034   6.129   1.210   0.582 -1.0055  0.0977  1.6859
15038TIP3   OH245035   2.554   0.520   4.145  0.1073 -0.1360 -0.4304
15038TIP3    H145036   2.636   0.530   4.193 -0.7920 -1.9058  1.6386
15038TIP3    H245037   2.567   0.571   4.064  2.0985  2.0682  1.1438
15039TIP3   OH245038   0.066   0.666   4.612 -0.1589  0.2955  0.0681
15039TIP3    H145039   0.143   0.718   4.589 -1.1500  1.0068 -1.9406
15039TIP3    H245040   0.076   0.586   4.561 -0.2337 -0.0683  0.6239
15040TIP3   OH245041   4.995   4.370   0.181  0.2951 -1.0365  0.3882
15040TIP3    H145042   4.924   4.342   0.124  1.0997 -1.9286 -0.2199
15040TIP3    H245043   4.971   4.458   0.209  0.1353 -0.3181 -1.8231
15041TIP3   OH245044   7.936   6.249   7.087  0.3851  0.4144 -0.0635
15041TIP3    H145045   7.944   6.165   7.042 -1.6775 -0.4449  1.0737
15041TIP3    H245046   7.991   6.240   7.165  0.1749  0.1125  0.0525
15042TIP3   OH245047   1.359   6.668   0.790  0.0871 -0.5419  0.1668
15042TIP3    H145048   1.426   6.601   0.775  0.4437 -0.4463  1.2253
15042TIP3    H245049   1.358   6.680   0.885  0.1040  1.0395 -0.0055
15043TIP3   OH245050   4.171   0.348   2.735  0.3197 -0.2076 -0.2298
15043TIP3    H145051   4.261   0.379   2.734  0.0629  0.6423  0.8572
15043TIP3    H245052   4.165   0.296   2.816  0.1842 -1.3988 -0.9817
15044TIP3   OH245053   3.416   1.023   5.912  0.2945 -0.0708 -0.2735
15044TIP3    H145054   3.385   1.014   5.821 -3.1039  1.4049  0.5944
15044TIP3    H245055   3.337   1.043   5.962  1.9075 -1.6652  3.2108
15045TIP3   OH245056   2.204   1.152   2.077 -0.0377  0.2543 -0.0146
15045TIP3    H145057   2.268   1.082   2.084  0.4214  0.5203 -1.2270
15045TIP3    H245058   2.120   1.106   2.066  0.0705 -0.0934  0.5812
15046TIP3   OH245059   1.827   1.304   0.317  0.0252 -0.3654  0.1613
15046TIP3    H145060   1.812   1.257   0.235 -0.4464  0.0222  0.0231
15046TIP3    H245061   1.898   1.366   0.296 -0.8452  0.5077 -0.2737
15047TIP3   OH245062   0.362   6.835   5.114 -0.8070  0.2046  0.0160
15047TIP3    H145063   0.310   6.899   5.163 -2.1746  0.6705 -1.9727
15047TIP3    H245064   0.417   6.794   5.181 -3.3909 -0.0128  2.1553
15048TIP3   OH245065   7.399   0.210   1.611  0.3820  0.7495 -0.7899
15048TIP3    H145066   7.410   0.122   1.646 -1.4345  0.7301 -0.1289
15048TIP3    H245067   7.460   0.264   1.661  0.6726  0.0561 -0.3858
15049TIP3   OH245068   6.238   0.034   6.440 -0.3388 -0.1846  0.1488
15049TIP3    H145069   6.233   0.130   6.446 -1.1994 -0.2682  1.2986
15049TIP3    H245070   6.165   0.004   6.494 -0.6995 -1.4857 -1.0111
15050TIP3   OH245071   2.678   3.724   0.838  0.0162 -0.0718 -0.6017
15050TIP3    H145072   2.661   3.690   0.926  0.2301 -0.7492 -0.8138
15050TIP3    H245073   2.612   3.791   0.825 -0.7414 -0.7501 -0.3552
15051TIP3   OH245074   3.616   4.913   1.904  0.5276  0.5937  0.0174
15051TIP3    H145075   3.644   4.999   1.875 -0.3027  0.7989 -0.1685
15051TIP3    H245076   3.683   4.853   1.869 -0.2197  0.8630 -1.9914
15052TIP3   OH245077   3.749   5.449   4.761 -0.3134 -0.1250  0.0456
15052TIP3    H145078   3.765   5.355   4.758 -1.1885 -0.3044  0.6651
15052TIP3    H245079   3.835   5.488   4.744  0.1555 -1.0327  0.2595
15053TIP3   OH245080   0.925   1.968   3.141 -0.6130 -0.4358  0.0257
15053TIP3    H145081   0.893   1.915   3.068 -1.4380  0.3114 -0.1676
15053TIP3    H245082   0.932   1.907   3.214 -0.5346 -1.0256 -0.4693
15054TIP3   OH245083   1.031   6.040   5.966  0.1549  0.8878  0.2195
15054TIP3    H145084   1.017   6.085   6.049 -0.2741  0.3441  0.4431
15054TIP3    H245085   1.010   5.948   5.984  0.0935  0.7594 -0.4818
15055TIP3   OH245086   6.259   7.480   3.027 -0.2871 -0.7129  0.3768
15055TIP3    H145087   6.329   7.546   3.021 -0.9093 -0.0790 -0.0118
15055TIP3    H245088   6.284   7.427   3.103  1.7176 -1.8090 -0.9613
15056TIP3   OH245089   3.533   8.156   6.199  0.3663  0.2945  0.1288
15056TIP3    H145090   3.495   8.230   6.245  2.3829  2.4654 -1.4835
15056TIP3    H245091   3.463   8.125   6.141 -0.3172  1.3078  0.3843
15057TIP3   OH245092   5.430   1.710   7.011 -0.2414 -0.3124  0.5771
15057TIP3    H145093   5.458   1.716   7.103  0.9686 -0.6577  0.2529
15057TIP3    H245094   5.340   1.679   7.015 -0.1068 -0.5958  1.6412
15058TIP3   OH245095   6.875   5.930   0.375  0.4474  0.1122 -0.6760
15058TIP3    H145096   6.795   5.982   0.383  0.7509  0.5625 -0.4691
15058TIP3    H245097   6.870   5.866   0.446  0.0971 -0.1087 -0.8959
15059TIP3   OH245098   5.407   2.696   0.768 -0.4804  0.1693 -0.1656
15059TIP3    H145099   5.313   2.690   0.749 -0.6284 -2.0758  0.9528
15059TIP3    H245100   5.411   2.736   0.855 -0.4094 -0.1244 -0.0358
15060TIP3   OH245101   5.927   4.014   5.948  0.2241  0.0715  0.2441
15060TIP3    H145102   5.851   3.962   5.976 -0.7344  1.9232  1.3130
15060TIP3    H245103   5.998   3.986   6.006  0.1264 -1.0355 -0.1516
15061TIP3   OH245104   1.671   7.998   1.802  0.0366 -0.2885 -0.3277
15061TIP3    H145105   1.604   7.961   1.745  0.6455  0.5334 -1.6352
15061TIP3    H245106   1.752   7.994   1.750  0.3410  1.7724 -0.1200
15062TIP3   OH245107   3.255   4.184   0.609 -0.0069  0.5355 -0.4263
15062TIP3    H145108   3.299   4.245   0.669 -1.4250  1.6521 -0.4519
15062TIP3    H245109   3.287   4.098   0.634  1.0973  1.1771  0.4711
15063TIP3   OH245110   4.505   4.687   2.940 -0.2340  0.5441  0.3738
15063TIP3    H145111   4.434   4.658   2.884  2.0985 -4.5524 -0.4718
15063TIP3    H245112   4.485   4.650   3.026  1.0981 -0.6251  0.2155
15064TIP3   OH245113   3.399   3.514   5.967  0.4516  0.0127 -0.0875
15064TIP3    H145114   3.414   3.588   5.908  0.6799 -0.7514 -1.0035
15064TIP3    H245115   3.485   3.475   5.979  0.2558 -0.4099 -0.0298
15065TIP3   OH245116   6.932   4.303   6.414  0.3012  0.2982  0.1764
15065TIP3    H145117   6.980   4.223   6.391  0.4119 -0.0719  1.6176
15065TIP3    H245118   6.970   4.331   6.497  0.6516  2.1956 -0.5688
15066TIP3   OH245119   5.388   0.961   0.251  0.4364 -0.4503  0.0656
15066TIP3    H145120   5.434   1.015   0.314  0.0957  0.7123 -0.6457
15066TIP3    H245121   5.453   0.899   0.219  1.2538  0.5270 -0.2033
15067TIP3   OH245122   0.559   5.161   5.869  0.1972  0.0287 -0.4344
15067TIP3    H145123   0.494   5.103   5.907  0.0131  0.7547  0.3753
15067TIP3    H245124   0.509   5.236   5.837  0.7635  1.3586  1.6549
15068TIP3   OH245125   5.250   3.490   1.228 -0.1025 -0.0652  0.1842
15068TIP3    H145126   5.317   3.443   1.178  0.3227  0.5846  0.1389
15068TIP3    H245127   5.172   3.487   1.172  0.4624  0.9616 -0.7015
15069TIP3   OH245128   5.497   5.240   4.466  0.0937 -0.0383  0.0718
15069TIP3    H145129   5.454   5.297   4.530  0.4501 -0.3330  0.5735
15069TIP3    H245130   5.550   5.300   4.412  0.1547  0.1512  0.3418
15070TIP3   OH245131   1.430   1.904   2.700  0.3832 -0.6585  0.0638
15070TIP3    H145132   1.515   1.905   2.656 -0.2788 -0.1686 -1.2624
15070TIP3    H245133   1.408   1.811   2.706  0.3887 -0.7321 -0.8661
15071TIP3   OH245134   3.655   0.517   7.115 -0.2431  0.1062  0.1220
15071TIP3    H145135   3.691   0.466   7.042  2.3766 -0.8496  1.9082
15071TIP3    H245136   3.702   0.600   7.111 -1.2677  0.6755 -0.1968
15072TIP3   OH245137   3.130   1.222   5.226  0.4009  0.3322 -0.3150
15072TIP3    H145138   3.195   1.271   5.276 -0.8194  1.8913 -0.1558
15072TIP3    H245139   3.140   1.255   5.136 -1.5362  2.2246  0.0868
15073TIP3   OH245140   8.514   5.160   1.710 -0.0441  0.6881  0.0687
15073TIP3    H145141   8.514   5.231   1.775  0.3894  1.5182 -0.8091
15073TIP3    H245142   8.503   5.205   1.626 -1.5172 -0.4467 -0.3802
15074TIP3   OH245143   2.552   4.522   5.604  0.2615 -0.3756 -0.4043
15074TIP3    H145144   2.582   4.534   5.514  1.2621  0.0873 -0.0183
15074TIP3    H245145   2.631   4.527   5.657 -0.1000 -2.2520  0.3869
15075TIP3   OH245146   5.305   4.336   4.574 -0.5393 -0.4777 -0.4985
15075TIP3    H145147   5.316   4.340   4.479  1.4343  1.7407 -0.2658
15075TIP3    H245148   5.394   4.325   4.609 -1.4037 -3.6121  1.1129
15076TIP3   OH245149   3.422   7.573   4.250 -0.5418 -0.4422 -0.4282
15076TIP3    H145150   3.415   7.483   4.281 -0.5962 -1.0452 -2.0965
15076TIP3    H245151   3.511   7.580   4.216 -0.7801 -0.1243 -1.0090
15077TIP3   OH245152   1.332   2.481   4.325 -0.0127 -0.8058  0.4141
15077TIP3    H145153   1.361   2.523   4.244  0.6697 -0.3405  0.8876
15077TIP3    H245154   1.396   2.509   4.391 -1.5087  0.2474  1.4889
15078TIP3   OH245155   0.763   6.536   2.840  0.3390  0.3768  0.5064
15078TIP3    H145156   0.713   6.477   2.783  0.9071  0.2553  0.1228
15078TIP3    H245157   0.814   6.590   2.779 -0.2544  1.3487  0.8455
15079TIP3   OH245158   8.208   6.411   1.899 -0.3591  0.5733 -0.1631
15079TIP3    H145159   8.125   6.363   1.904  0.4031 -0.6460  2.3946
15079TIP3    H245160   8.259   6.365   1.833 -1.3090  0.7460 -1.0573
15080TIP3   OH245161   6.756   0.508   2.222  0.4148 -0.1185 -0.1615
15080TIP3    H145162   6.723   0.596   2.201 -0.5204 -0.5333 -0.4711
15080TIP3    H245163   6.790   0.516   2.311 -0.1595  0.4278  0.0179
15081TIP3   OH245164   7.592   1.140   4.911  0.1920 -0.2201 -0.1078
15081TIP3    H145165   7.520   1.202   4.899 -0.5352 -0.8095  1.1262
15081TIP3    H245166   7.654   1.163   4.842 -0.1155  1.7910  0.2303
15082TIP3   OH245167   4.509   4.939   0.525  0.4428 -0.4358 -0.2318
15082TIP3    H145168   4.547   5.001   0.587  0.9492  1.4015 -2.2848
15082TIP3    H245169   4.465   4.994   0.460 -0.8773 -2.3238 -1.0273
15083TIP3   OH245170   4.231   1.826   2.626 -0.0994 -0.0701  0.3847
15083TIP3    H145171   4.168   1.892   2.653 -0.4846 -0.3060  0.0614
15083TIP3    H245172   4.256   1.782   2.708  0.3805  0.6556  0.6423
15084TIP3   OH245173   1.995   6.540   3.823 -0.3802 -0.6832 -0.4385
15084TIP3    H145174   1.903   6.561   3.838 -0.3315 -1.0584  0.4620
15084TIP3    H245175   2.006   6.547   3.728 -1.1044  0.2886 -0.4737
15085TIP3   OH245176   1.252   6.058   2.526  0.0053  0.4793  0.3358
15085TIP3    H145177   1.244   5.971   2.487 -0.3318  0.5575  0.2275
15085TIP3    H245178   1.232   6.118   2.454  0.3595  0.6496  0.3772
15086TIP3   OH245179   0.003   6.508   6.551 -0.3104 -0.2855  0.5582
15086TIP3    H145180   0.011   6.413   6.539 -0.4515 -0.1325 -0.9263
15086TIP3    H245181   0.077   6.544   6.502 -2.2815  0.5001 -2.0961
15087TIP3   OH245182   0.590   5.549   2.501 -0.1657  0.1406  0.4382
15087TIP3    H145183   0.546   5.629   2.471  2.4606  0.8139 -2.0788
15087TIP3    H245184   0.557   5.535   2.590 -3.2425  2.0798 -0.2690
15088TIP3   OH245185   2.819   5.341   5.512 -0.0190 -0.0620 -0.6667
15088TIP3    H145186   2.776   5.419   5.546  1.3929 -0.0344  1.2248
15088TIP3    H245187   2.749   5.275   5.508 -0.9281  0.8867 -0.9503
15089TIP3   OH245188   7.822   1.948   3.273  0.6369  0.2040  0.1630
15089TIP3    H145189   7.776   1.976   3.353  0.1954 -1.7702  0.6469
15089TIP3    H245190   7.753   1.936   3.208  0.4585 -2.1263  0.7006
15090TIP3   OH245191   2.587   0.390   4.804  0.0623 -0.8026  0.0985
15090TIP3    H145192   2.669   0.343   4.816  0.3368 -1.1159 -2.3406
15090TIP3    H245193   2.613   0.477   4.774 -0.4891 -0.4068  0.7365
15091TIP3   OH245194   3.009   7.376   6.897 -0.0455 -0.0401  0.5490
15091TIP3    H145195   3.061   7.370   6.977  0.5250 -1.3816  0.0936
15091TIP3    H245196   2.947   7.303   6.903 -0.2403  0.0676 -0.0699
15092TIP3   OH245197   6.410   0.649   2.352 -0.0650 -0.3787  0.0802
15092TIP3    H145198   6.426   0.557   2.331 -0.6325 -0.7253  1.0896
15092TIP3    H245199   6.492   0.680   2.390  0.0940 -0.4912 -0.1667
15093TIP3   OH245200   1.938   7.786   5.385  0.2063  0.1719 -0.6119
15093TIP3    H145201   1.872   7.731   5.343  0.2748  0.2741 -0.8549
15093TIP3    H245202   2.012   7.727   5.402 -0.6719 -0.4350  1.4676
15094TIP3   OH245203   1.567   4.699   1.616 -0.5101 -0.1276  0.1830
15094TIP3    H145204   1.592   4.791   1.620 -0.5348 -0.0912 -0.4243
15094TIP3    H245205   1.471   4.700   1.624 -0.5532 -0.0598 -0.2834
15095TIP3   OH245206   8.121   8.117   1.312 -0.1045  0.1092  0.5657
15095TIP3    H145207   8.152   8.062   1.240 -1.3245 -0.5162  0.4912
15095TIP3    H245208   8.199   8.134   1.365  0.9599  1.1358 -1.2360
15096TIP3   OH245209   7.370   0.125   6.578 -0.0471  0.3034 -0.5128
15096TIP3    H145210   7.296   0.128   6.639 -0.0941 -3.1899 -0.2321
15096TIP3    H245211   7.439   0.175   6.623 -1.0582  0.4868  0.9354
15097TIP3   OH245212   6.064   3.587   4.635 -0.0032  0.2940  0.2395
15097TIP3    H145213   6.145   3.540   4.651  0.3592 -0.2071 -2.4809
15097TIP3    H245214   6.033   3.553   4.550 -1.5135  2.5281 -0.1984
15098TIP3   OH245215   8.155   6.965   1.844 -0.2803 -0.4541 -0.5135
15098TIP3    H145216   8.146   6.895   1.909  0.2513  0.5467  0.6710
15098TIP3    H245217   8.083   7.024   1.863  1.5453  1.3911  1.1985
15099TIP3   OH245218   3.038   0.142   2.640  0.1144 -0.1349  0.5453
15099TIP3    H145219   3.061   0.065   2.693  0.6183 -0.7189 -0.4949
15099TIP3    H245220   2.943   0.151   2.653 -0.1944 -1.7336 -0.3160
15100TIP3   OH245221   2.205   3.353   3.703  0.2907 -0.1729  0.6165
15100TIP3    H145222   2.116   3.386   3.719 -0.1162 -1.3828  0.9130
15100TIP3    H245223   2.261   3.429   3.719 -0.7092  0.7270  0.0014
15101TIP3   OH245224   8.425   5.328   4.648  0.0941  0.2449  0.3299
15101TIP3    H145225   8.339   5.289   4.662  0.7633 -0.7694  1.8559
15101TIP3    H245226   8.483   5.254   4.635  0.9754  0.8576  0.6732
15102TIP3   OH245227   0.843   7.040   5.874  0.0531  0.1668 -0.3563
15102TIP3    H145228   0.834   6.972   5.807  1.0542  0.1746 -0.5115
15102TIP3    H245229   0.836   7.122   5.824 -1.6937  0.2032 -0.0966
15103TIP3   OH245230   0.926   5.586   4.093  0.4062  0.0099  0.5033
15103TIP3    H145231   0.852   5.624   4.045  0.9346 -0.5463 -0.7986
15103TIP3    H245232   0.888   5.516   4.145  0.0124 -0.3328 -0.2310
15104TIP3   OH245233   6.039   7.781   4.125  0.2297  0.1052 -0.0060
15104TIP3    H145234   6.114   7.775   4.066  0.5585 -0.1312  0.4235
15104TIP3    H245235   6.030   7.875   4.143 -0.4281  0.2703 -1.1165
15105TIP3   OH245236   0.781   2.765   5.117  0.3505 -0.2655  0.3512
15105TIP3    H145237   0.776   2.744   5.024  1.6067  0.6310  0.0384
15105TIP3    H245238   0.821   2.688   5.157  1.2051 -0.0924 -0.1244
15106TIP3   OH245239   8.272   4.912   1.407 -0.4768  0.7415  0.1411
15106TIP3    H145240   8.288   5.003   1.380 -1.5523  0.6943 -0.7117
15106TIP3    H245241   8.314   4.860   1.339 -1.9028  0.6219 -0.6891
15107TIP3   OH245242   5.192   1.226   3.391 -0.5986  0.4276  0.0584
15107TIP3    H145243   5.193   1.131   3.401 -1.0335  0.5972  2.1122
15107TIP3    H245244   5.146   1.240   3.308  1.3528 -1.1566 -1.4260
15108TIP3   OH245245   8.508   0.294   2.224 -0.5801  0.4624  0.7298
15108TIP3    H145246   8.481   0.286   2.315  0.0535 -0.1814  0.8728
15108TIP3    H245247   8.571   0.366   2.223 -1.2417  1.0405  0.6449
15109TIP3   OH245248   3.140   5.769   0.953  0.7110  0.5029 -0.7687
15109TIP3    H145249   3.054   5.739   0.924  0.0495  0.9541  0.6531
15109TIP3    H245250   3.154   5.726   1.037  2.3804 -0.4150 -1.4704
15110TIP3   OH245251   2.820   1.810   1.344 -0.2861 -0.1409 -0.6085
15110TIP3    H145252   2.843   1.730   1.391  0.3546 -1.0551 -2.4074
15110TIP3    H245253   2.725   1.806   1.336 -0.4250  0.1035  0.6910
15111TIP3   OH245254   2.507   5.584   2.640 -0.4448  0.0115 -0.1750
15111TIP3    H145255   2.538   5.638   2.567  2.0499 -0.0909  0.7084
15111TIP3    H245256   2.511   5.494   2.607  1.3339 -0.0925  0.2461
15112TIP3   OH245257   8.096   0.137   6.978  0.6926  0.2593 -0.4966
15112TIP3    H145258   8.143   0.148   7.061 -1.0521 -0.5026  0.6402
15112TIP3    H245259   8.044   0.216   6.970  0.7610  0.2730 -0.8050
15113TIP3   OH245260   8.548   0.984   5.280 -0.2332 -0.3372  0.1855
15113TIP3    H145261   8.610   0.975   5.209  0.5179 -2.1392  0.9950
15113TIP3    H245262   8.602   0.981   5.360 -1.2477 -0.8727  0.8755
15114TIP3   OH245263   2.592   4.831   4.206  0.3546  0.4441  0.2331
15114TIP3    H145264   2.583   4.920   4.173  0.3777  0.6885  0.8578
15114TIP3    H245265   2.632   4.782   4.135  2.5410  1.4615  0.6625
15115TIP3   OH245266   0.212   7.217   6.810  0.3545  0.2560 -0.1512
15115TIP3    H145267   0.194   7.187   6.721 -0.5573 -3.0876  0.9754
15115TIP3    H245268   0.176   7.305   6.814 -2.7274 -0.7580 -2.1645
15116TIP3   OH245269   6.587   7.866   7.044 -0.2968 -0.1637 -0.3370
15116TIP3    H145270   6.575   7.845   6.951 -1.2334  0.6498 -0.4226
15116TIP3    H245271   6.585   7.781   7.088 -1.1602 -0.4738 -0.9386
15117TIP3   OH245272   0.363   3.102   3.581 -0.4639  0.2503  0.6354
15117TIP3    H145273   0.380   3.190   3.616  0.9997  0.1501  0.2551
15117TIP3    H245274   0.288   3.114   3.523  1.3388  1.8743 -1.5487
15118TIP3   OH245275   2.623   5.308   4.688 -0.0290 -0.2740  0.5225
15118TIP3    H145276   2.712   5.319   4.654  0.5347 -0.7605  1.7751
15118TIP3    H245277   2.626   5.346   4.776 -0.8358 -1.0475  0.9043
15119TIP3   OH245278   6.713   6.551   0.624 -0.4752  0.1714  0.4527
15119TIP3    H145279   6.800   6.538   0.662 -0.1042  0.8597 -0.1370
15119TIP3    H245280   6.652   6.530   0.696  0.1740 -0.1598  0.9146
15120TIP3   OH245281   3.086   0.528   4.342 -0.4044 -0.5570  1.0603
15120TIP3    H145282   3.075   0.434   4.322  0.8999 -0.4848 -0.1096
15120TIP3    H245283   3.105   0.568   4.258 -0.8986  0.7778  1.5622
15121TIP3   OH245284   1.120   5.120   0.058  0.3754 -0.0250 -0.2253
15121TIP3    H145285   1.046   5.158   0.011  0.9455  1.2779 -0.0947
15121TIP3    H245286   1.166   5.068  -0.008 -0.1791 -0.1530 -0.5141
15122TIP3   OH245287   0.333   6.571   6.127 -0.2674  0.3407 -0.3649
15122TIP3    H145288   0.372   6.587   6.041 -1.9319  0.9793 -1.0374
15122TIP3    H245289   0.272   6.644   6.140 -1.9450 -1.0805  0.1848
15123TIP3   OH245290   5.194   1.508   1.886  0.0277  0.1737  0.1082
15123TIP3    H145291   5.277   1.488   1.842  0.7199 -0.1457  1.5082
15123TIP3    H245292   5.168   1.427   1.928 -0.6895  0.4408  0.2035
15124TIP3   OH245293   5.627   6.899   5.796  0.0075  0.5932  0.0552
15124TIP3    H145294   5.567   6.933   5.863 -1.1128 -0.9012 -0.1501
15124TIP3    H245295   5.580   6.912   5.714 -1.0394 -2.4778  0.0654
15125TIP3   OH245296   6.368   3.204   1.800  0.1177 -0.0218  0.1209
15125TIP3    H145297   6.302   3.182   1.734  1.1116 -0.1217 -0.8746
15125TIP3    H245298   6.418   3.124   1.812 -0.4617 -0.1948  1.5165
15126TIP3   OH245299   4.490   6.972   3.697 -0.0065  0.0913  0.1420
15126TIP3    H145300   4.471   6.940   3.785  0.2008  1.2967  0.6445
15126TIP3    H245301   4.424   6.930   3.641 -0.6942 -0.0145  1.0107
15127TIP3   OH245302   0.350   1.164   1.987 -0.1727 -0.7225 -0.2648
15127TIP3    H145303   0.297   1.172   2.066  0.9398 -0.3997  0.4676
15127TIP3    H245304   0.409   1.092   2.005 -0.1429 -0.8782 -0.9523
15128TIP3   OH245305   4.675   1.576   6.223  0.7655 -0.1900 -0.2077
15128TIP3    H145306   4.767   1.571   6.249  0.5918 -0.5609  0.3409
15128TIP3    H245307   4.675   1.545   6.132  1.1195 -0.6583 -0.0549
15129TIP3   OH245308   2.848   2.753   4.404  0.0250 -0.3159  0.3120
15129TIP3    H145309   2.791   2.685   4.439  0.3785  0.6381  2.9644
15129TIP3    H245310   2.847   2.823   4.470  1.7929  1.0872 -1.0137
15130TIP3   OH245311   6.222   5.009   2.888 -0.8608  0.0347 -0.0458
15130TIP3    H145312   6.175   4.973   2.813  0.0802  0.4907 -0.8804
15130TIP3    H245313   6.204   5.103   2.885  1.7707  0.5666 -1.6695
15131TIP3   OH245314   4.295   1.010   4.828 -0.1392 -0.3564  0.3806
15131TIP3    H145315   4.366   1.060   4.868  0.5643 -0.9714 -0.0640
15131TIP3    H245316   4.281   0.936   4.887  2.5982 -2.6637 -1.5885
15132TIP3   OH245317   3.713   6.390   3.832 -0.4227  0.5937  0.0963
15132TIP3    H145318   3.773   6.460   3.805  0.8893 -1.0239 -1.4595
15132TIP3    H245319   3.768   6.328   3.880 -1.9898  1.5426  3.3842
15133TIP3   OH245320   7.656   3.140   2.610  0.2674 -0.2580  0.1724
15133TIP3    H145321   7.593   3.068   2.601  1.8386 -1.7857  0.8011
15133TIP3    H245322   7.646   3.191   2.530 -1.5264 -0.6335  0.1130
15134TIP3   OH245323   0.472   6.007   5.117  0.0170 -0.4004 -0.0842
15134TIP3    H145324   0.535   5.958   5.170  1.0371  1.5059  0.5369
15134TIP3    H245325   0.525   6.066   5.064 -1.1009 -0.9988 -1.9735
15135TIP3   OH245326   7.083   7.312   2.552  0.4497  0.5333 -0.0433
15135TIP3    H145327   7.020   7.378   2.523 -1.2922 -0.3225  1.5854
15135TIP3    H245328   7.165   7.360   2.561 -0.0541  1.7944 -1.7333
15136TIP3   OH245329   4.560   4.908   5.126  0.0876  0.6379  0.4375
15136TIP3    H145330   4.637   4.857   5.152 -0.6246 -0.8744 -0.2777
15136TIP3    H245331   4.585   4.951   5.045 -0.6336 -2.1473 -1.4196
15137TIP3   OH245332   7.965   0.652   3.422  1.2165 -0.4005  0.0812
15137TIP3    H145333   8.025   0.726   3.409  0.2777  0.3727 -0.0097
15137TIP3    H245334   7.892   0.670   3.363  0.3514 -0.7084  1.0311
15138TIP3   OH245335   0.572   0.415   6.122  0.3859 -0.0958  0.2140
15138TIP3    H145336   0.549   0.434   6.213 -0.3691  1.3585 -0.2446
15138TIP3    H245337   0.501   0.359   6.091  0.5311 -0.4178  0.4650
15139TIP3   OH245338   7.420   0.746   4.769 -0.0295 -0.4781  0.4991
15139TIP3    H145339   7.352   0.807   4.796  2.4985  1.3747  3.3105
15139TIP3    H245340   7.475   0.796   4.708  0.9094 -0.5729  1.2316
15140TIP3   OH245341   3.424   1.286   0.637 -0.0958 -0.1123 -0.0502
15140TIP3    H145342   3.403   1.254   0.725 -0.1121  0.1302  0.0336
15140TIP3    H245343   3.517   1.267   0.627  0.7252  2.7031  1.2527
15141TIP3   OH245344   8.112   5.803   6.433  0.7735  0.5247  0.1249
15141TIP3    H145345   8.137   5.851   6.354  0.7676  0.7064  0.2312
15141TIP3    H245346   8.020   5.826   6.447  0.0980 -1.3107 -1.0970
15142TIP3   OH245347   5.076   5.391   2.869  0.1151 -0.0607 -0.3607
15142TIP3    H145348   5.058   5.440   2.789  0.5101  0.4748 -0.1300
15142TIP3    H245349   5.105   5.305   2.839  1.2628  0.4719 -0.8383
15143TIP3   OH245350   7.989   6.722   2.842 -0.0730  0.1318  0.0808
15143TIP3    H145351   8.070   6.707   2.794  0.2267  0.6667  0.4131
15143TIP3    H245352   7.924   6.667   2.797  0.3222  0.1976 -0.5868
15144TIP3   OH245353   7.881   5.190   4.919 -0.8263  0.3352  0.5431
15144TIP3    H145354   7.852   5.254   4.854 -0.6291 -0.7267 -0.6263
15144TIP3    H245355   7.916   5.243   4.991 -3.3152  1.6124  0.9108
15145TIP3   OH245356   3.388   7.770   4.499  0.1976  0.5821  0.2393
15145TIP3    H145357   3.362   7.718   4.575  1.8406  0.4970  0.7741
15145TIP3    H245358   3.365   7.860   4.523 -0.0249  0.4610  0.4938
15146TIP3   OH245359   3.737   1.798   1.075 -0.5662 -0.0371  0.4888
15146TIP3    H145360   3.646   1.773   1.090 -0.8951  1.0087  0.2977
15146TIP3    H245361   3.776   1.798   1.162 -0.9941  0.4255  0.6865
15147TIP3   OH245362   0.539   6.401   2.946 -0.8310 -0.5482  0.5641
15147TIP3    H145363   0.626   6.435   2.928 -1.2076 -0.6933 -1.7865
15147TIP3    H245364   0.480   6.465   2.906 -1.9142  0.0218  2.8575
15148TIP3   OH245365   5.351   4.081   5.931 -0.3778 -0.0611  0.1005
15148TIP3    H145366   5.441   4.050   5.917 -0.0986  0.6780  0.2417
15148TIP3    H245367   5.341   4.154   5.871 -1.7943 -1.7589 -1.8960
15149TIP3   OH245368   7.090   7.532   5.034  0.3411 -0.1604 -0.4726
15149TIP3    H145369   7.030   7.468   5.071 -1.3175  1.0918 -0.8695
15149TIP3    H245370   7.036   7.610   5.020  2.0281  0.9568 -1.0380
15150TIP3   OH245371   3.892   4.508   1.101  0.4984 -0.0978  0.3747
15150TIP3    H145372   3.952   4.516   1.175 -0.0553  0.6916  0.7441
15150TIP3    H245373   3.807   4.538   1.135 -0.2686 -1.7351  0.0402
15151TIP3   OH245374   3.225   0.395   0.070 -0.2577  0.0648 -0.1277
15151TIP3    H145375   3.173   0.473   0.088 -1.7653 -0.6492 -1.1864
15151TIP3    H245376   3.269   0.376   0.153 -1.3918  0.9168  0.7041
15152TIP3   OH245377   4.445   0.456   1.381 -0.1863  0.3498  0.0842
15152TIP3    H145378   4.462   0.455   1.287  2.6324 -0.1827  0.5095
15152TIP3    H245379   4.442   0.364   1.406 -1.1230  0.4861  0.4878
15153TIP3   OH245380   8.134   8.034   2.018 -0.0030 -0.2912  0.2499
15153TIP3    H145381   8.064   8.060   1.958 -0.4341 -2.2394 -0.1833
15153TIP3    H245382   8.093   7.969   2.076  1.2062 -0.7929  0.5790
15154TIP3   OH245383   6.361   6.468   6.303  0.2184 -0.5294  0.2618
15154TIP3    H145384   6.330   6.379   6.317 -0.8183 -0.1349  0.5731
15154TIP3    H245385   6.309   6.521   6.364 -1.5196  0.7298 -2.1346
15155TIP3   OH245386   2.438   0.146   6.784  0.3358  0.1572 -0.1847
15155TIP3    H145387   2.379   0.094   6.729 -0.5687  0.8585  0.1051
15155TIP3    H245388   2.504   0.179   6.723 -0.5026  0.7071 -0.8228
15156TIP3   OH245389   0.178   2.562   4.150  0.1688 -0.5810 -0.1148
15156TIP3    H145390   0.114   2.614   4.102 -0.0029  0.8069  1.5059
15156TIP3    H245391   0.147   2.472   4.142 -0.5513 -0.2354 -1.4701
15157TIP3   OH245392   5.578   2.591   5.347  0.7824 -0.4055  0.1789
15157TIP3    H145393   5.656   2.584   5.292 -0.4711 -1.4260 -1.5659
15157TIP3    H245394   5.526   2.661   5.307  1.3720  1.2692  2.1647
15158TIP3   OH245395   5.896   6.532   5.224 -0.1473 -0.4807 -0.4642
15158TIP3    H145396   5.963   6.599   5.236  0.4346 -1.0846 -0.3134
15158TIP3    H245397   5.836   6.546   5.297 -0.4757  0.3899 -0.8875
15159TIP3   OH245398   7.355   2.323   6.937 -0.3679  0.1900  0.2211
15159TIP3    H145399   7.417   2.333   6.865  0.3618 -1.9371  0.4774
15159TIP3    H245400   7.333   2.230   6.936 -1.0095  0.2898  2.2200
15160TIP3   OH245401   7.034   4.324   6.696 -0.2631  0.5123 -0.1553
15160TIP3    H145402   7.008   4.255   6.756  0.2225 -0.6769 -1.2714
15160TIP3    H245403   7.127   4.308   6.679 -0.7068 -0.1168 -2.3483
15161TIP3   OH245404   6.973   2.758   6.363  0.3290  0.8016 -0.1962
15161TIP3    H145405   6.891   2.805   6.373  0.1624  0.3933  0.4386
15161TIP3    H245406   7.011   2.792   6.282 -0.3940  1.0918 -0.4185
15162TIP3   OH245407   7.888   0.995   1.266  0.7591  0.1009 -0.1055
15162TIP3    H145408   7.907   0.907   1.297  0.3660 -0.2983 -0.9891
15162TIP3    H245409   7.814   1.024   1.319 -0.2404 -0.7752 -0.9843
15163TIP3   OH245410   0.985   4.519   3.214  0.3283  0.2366 -0.2523
15163TIP3    H145411   1.024   4.433   3.201 -0.9572 -0.6087  1.0975
15163TIP3    H245412   0.891   4.505   3.205 -0.0367  1.1220  1.5698
15164TIP3   OH245413   0.551   7.872   5.945 -0.1502  0.2583  0.2539
15164TIP3    H145414   0.514   7.960   5.942  0.4069  0.4958  0.1352
15164TIP3    H245415   0.476   7.814   5.959 -0.3688  0.8618  1.8568
15165TIP3   OH245416   1.770   0.343   2.348 -0.6484  0.0824 -0.0830
15165TIP3    H145417   1.852   0.297   2.368 -0.5377  0.1352 -0.4138
15165TIP3    H245418   1.765   0.413   2.413 -1.3557 -1.0425  1.1294
15166TIP3   OH245419   6.768   2.903   2.974  0.0952 -0.0689  0.5032
15166TIP3    H145420   6.849   2.854   2.956  0.4154 -0.5169  2.9286
15166TIP3    H245421   6.787   2.991   2.942  1.4462 -0.2282  0.7957
15167TIP3   OH245422   6.055   4.165   4.234  0.2519  0.7148 -0.3496
15167TIP3    H145423   6.099   4.156   4.318  0.7776  1.2645 -0.5637
15167TIP3    H245424   5.968   4.198   4.256 -0.4558 -1.3582  0.1572
15168TIP3   OH245425   1.711   3.933   6.321  0.0327 -0.1196  0.0466
15168TIP3    H145426   1.715   3.839   6.337 -1.2553 -0.3391 -0.8266
15168TIP3    H245427   1.780   3.949   6.257 -0.3565 -0.6318 -0.5083
15169TIP3   OH245428   2.229   1.889   3.379  0.3184  0.2978  0.2868
15169TIP3    H145429   2.143   1.923   3.403  0.7365  0.7988  1.1291
15169TIP3    H245430   2.289   1.961   3.398  1.0813 -0.4813  0.9389
15170TIP3   OH245431   8.111   3.715   3.951  0.0902  0.7075 -0.0043
15170TIP3    H145432   8.190   3.681   3.909 -0.1841  1.0078 -0.7753
15170TIP3    H245433   8.089   3.793   3.901 -2.1577 -0.7624 -1.4823
15171TIP3   OH245434   3.086   5.212   2.106  0.3878  0.4153 -0.0772
15171TIP3    H145435   3.166   5.228   2.057  0.4788  0.2994  0.0304
15171TIP3    H245436   3.026   5.172   2.043  1.2786 -1.8725  0.4291
15172TIP3   OH245437   7.778   2.952   3.706 -0.2477 -0.1404 -0.3405
15172TIP3    H145438   7.700   2.999   3.734  0.4189  1.1400 -0.5546
15172TIP3    H245439   7.797   2.985   3.618 -0.2431 -1.4551 -0.8608
15173TIP3   OH245440   4.305   7.183   1.052 -0.1456 -0.4650  0.1617
15173TIP3    H145441   4.373   7.206   0.989  1.3076  2.3516  2.5074
15173TIP3    H245442   4.339   7.106   1.098  0.8930  0.1567  0.4558
15174TIP3   OH245443   7.717   1.947   0.852 -0.1773 -0.7024  0.5095
15174TIP3    H145444   7.764   2.020   0.812  1.5830 -2.1571 -0.2412
15174TIP3    H245445   7.733   1.956   0.946  3.7219 -2.3600  0.1912
15175TIP3   OH245446   8.211   2.770   4.215 -0.8137  0.0710 -0.3271
15175TIP3    H145447   8.249   2.854   4.241  0.1450 -0.7343  1.0061
15175TIP3    H245448   8.150   2.749   4.285 -1.8269  0.1320 -1.1758
15176TIP3   OH245449   7.967   6.556   2.005  0.2038  0.3529  0.2330
15176TIP3    H145450   7.949   6.648   1.982  2.5394  0.5693 -0.9694
15176TIP3    H245451   8.059   6.543   1.983 -0.0424 -2.2874  0.4766
15177TIP3   OH245452   2.724   2.036   3.300 -0.3371 -0.1372  0.2647
15177TIP3    H145453   2.742   2.126   3.329 -1.0545 -0.8683  3.3887
15177TIP3    H245454   2.628   2.030   3.300 -0.4356 -0.1070 -2.9959
15178TIP3   OH245455   0.909   2.068   6.698 -0.0990  0.1752  0.2058
15178TIP3    H145456   0.931   2.158   6.721  0.8080  0.3717 -1.2536
15178TIP3    H245457   0.983   2.017   6.731 -0.3238  0.0421  0.5045
15179TIP3   OH245458   5.066   6.783   3.377 -0.2955 -0.1764  0.2551
15179TIP3    H145459   5.134   6.725   3.344 -0.0439  1.4355 -2.3571
15179TIP3    H245460   5.101   6.818   3.459  1.2008 -0.8141 -0.0847
15180TIP3   OH245461   5.825   6.639   4.899  0.0463  0.5767 -0.2299
15180TIP3    H145462   5.832   6.695   4.976  1.9450  0.2923 -0.1585
15180TIP3    H245463   5.780   6.693   4.834  1.0356  1.8812  0.1307
15181TIP3   OH245464   7.555   0.776   7.055  0.1665 -0.3021 -0.2031
15181TIP3    H145465   7.541   0.806   7.144  2.3766  1.1050 -0.2570
15181TIP3    H245466   7.628   0.714   7.062  0.0801 -0.5057 -0.9878
15182TIP3   OH245467   8.201   1.303   6.825  0.4033  0.4463 -0.4728
15182TIP3    H145468   8.278   1.247   6.831 -0.1091 -0.1271  1.3320
15182TIP3    H245469   8.235   1.388   6.795  1.6511  0.0783 -0.1410
15183TIP3   OH245470   1.250   2.269   3.059 -0.0484  0.3701 -0.0514
15183TIP3    H145471   1.314   2.303   3.121 -1.2106  0.6527  1.0383
15183TIP3    H245472   1.294   2.272   2.974  1.0585  1.3615  0.5393
15184TIP3   OH245473   4.930   2.488   0.671  0.2796 -0.2385  0.1576
15184TIP3    H145474   4.895   2.467   0.584  1.4488  0.3062 -0.4642
15184TIP3    H245475   4.878   2.562   0.701 -0.5910 -0.8690  0.2296
15185TIP3   OH245476   3.221   7.008   4.935  0.3608 -0.2363 -0.5994
15185TIP3    H145477   3.183   7.094   4.917  0.4551 -0.2773 -0.9982
15185TIP3    H245478   3.257   6.979   4.851  0.1619 -0.7485 -0.5140
15186TIP3   OH245479   7.160   3.625   5.605  0.0428  0.2657  0.4786
15186TIP3    H145480   7.127   3.659   5.689  0.6790 -0.1771  0.9169
15186TIP3    H245481   7.090   3.567   5.574  0.3000 -0.5191  1.3099
15187TIP3   OH245482   4.096   1.403   5.402 -0.0426 -0.8817 -0.1503
15187TIP3    H145483   4.009   1.371   5.424  0.1716 -1.4594 -0.1470
15187TIP3    H245484   4.080   1.480   5.347 -0.5581 -0.6508  0.3126
15188TIP3   OH245485   0.794   4.399   4.230  0.2061  0.1597 -0.5198
15188TIP3    H145486   0.830   4.337   4.293 -0.5738  0.4029  0.1890
15188TIP3    H245487   0.798   4.353   4.146 -1.3321 -1.3072  0.1427
15189TIP3   OH245488   5.907   6.935   4.122  0.1972  0.2120  0.3598
15189TIP3    H145489   5.867   6.966   4.204 -0.1587 -0.7637  0.5601
15189TIP3    H245490   5.932   6.845   4.140 -1.9978 -0.8309 -1.3286
15190TIP3   OH245491   0.089   5.871   5.604 -0.1138  0.0525 -0.4394
15190TIP3    H145492   0.015   5.910   5.558  0.9233 -0.2584 -2.5188
15190TIP3    H245493   0.141   5.830   5.535  1.5806 -0.4376  1.0395
15191TIP3   OH245494   2.295   0.698   2.985 -0.4018 -0.5887 -0.0196
15191TIP3    H145495   2.378   0.739   3.008 -1.1298 -0.5803  2.9259
15191TIP3    H245496   2.317   0.606   2.974 -0.0263 -0.6565  1.1358
15192TIP3   OH245497   0.357   5.677   1.937  0.1358  0.4116  0.3700
15192TIP3    H145498   0.446   5.694   1.905 -0.1295  1.7826  0.3033
15192TIP3    H245499   0.332   5.595   1.896  0.8133  0.7754 -0.8140
15193TIP3   OH245500   6.802   3.731   4.773  0.1006 -0.2638 -0.0134
15193TIP3    H145501   6.896   3.752   4.777 -0.6374  4.2764 -0.7529
15193TIP3    H245502   6.780   3.702   4.861  2.2631 -2.3822 -0.0664
15194TIP3   OH245503   5.864   1.830   6.344 -0.2199  0.0631  0.0516
15194TIP3    H145504   5.879   1.867   6.431 -0.0911 -0.9676  0.4712
15194TIP3    H245505   5.769   1.815   6.340  0.1262 -3.2959  1.4554
15195TIP3   OH245506   7.375   6.445   6.235 -0.4062 -0.0638 -0.6114
15195TIP3    H145507   7.329   6.372   6.195 -0.7411 -0.1157 -0.1377
15195TIP3    H245508   7.467   6.433   6.209 -0.4248 -0.7598 -0.3677
15196TIP3   OH245509   6.868   6.500   5.295  0.0265 -0.1073  0.0098
15196TIP3    H145510   6.912   6.559   5.356 -0.0984 -0.8301  0.8200
15196TIP3    H245511   6.937   6.473   5.234  0.7444 -1.1914  1.2351
15197TIP3   OH245512   0.720   5.161   4.468  0.1081  0.1462  0.1703
15197TIP3    H145513   0.805   5.189   4.502 -0.0811  0.4255  0.4155
15197TIP3    H245514   0.717   5.067   4.488  0.6453 -0.0080 -0.4562
15198TIP3   OH245515   8.533   0.099   0.730 -0.2651 -0.0973  0.1885
15198TIP3    H145516   8.530   0.113   0.636 -2.7086 -0.1851  0.2000
15198TIP3    H245517   8.539   0.187   0.767 -0.7834  0.0366 -0.0352
15199TIP3   OH245518   5.941   6.973   1.495 -0.2167  0.4339 -0.4402
15199TIP3    H145519   5.995   7.004   1.422 -0.9482 -0.7413 -1.5297
15199TIP3    H245520   5.881   6.910   1.455 -1.6262  0.8471  0.9257
15200TIP3   OH245521   5.093   7.031   2.545 -0.0058 -0.3152 -0.3166
15200TIP3    H145522   5.103   7.047   2.451 -1.8779 -0.4692 -0.5727
15200TIP3    H245523   5.004   7.061   2.565  0.5480  0.2281  1.5314
15201TIP3   OH245524   3.670   3.730   4.841  0.7178  0.0146 -0.2222
15201TIP3    H145525   3.658   3.686   4.925  0.4045  1.9566  0.7853
15201TIP3    H245526   3.586   3.718   4.796  0.3790  0.2250  0.3490
15202TIP3   OH245527   5.952   2.469   5.893 -0.1957 -0.0845 -0.5753
15202TIP3    H145528   6.014   2.416   5.844 -0.3770 -0.0787 -0.8129
15202TIP3    H245529   5.873   2.415   5.899  0.1170 -0.4433  0.4690
15203TIP3   OH245530   1.425   2.337   3.273  0.3320 -0.2796 -0.2138
15203TIP3    H145531   1.400   2.334   3.365 -0.8392  2.7529 -0.3377
15203TIP3    H245532   1.518   2.313   3.274 -0.0875 -2.1586  1.4612
15204TIP3   OH245533   4.578   5.736   4.872 -0.0587 -0.5950 -0.5586
15204TIP3    H145534   4.568   5.645   4.898  1.0765 -0.3618  0.7695
15204TIP3    H245535   4.588   5.732   4.777 -1.4141 -1.7138 -0.6888
15205TIP3   OH245536   0.316   7.731   5.883  0.0649  0.4167 -0.4505
15205TIP3    H145537   0.298   7.643   5.914 -0.3534  0.5701 -0.2526
15205TIP3    H245538   0.246   7.785   5.920  1.0176  1.0596  0.4729
15206TIP3   OH245539   5.135   1.161   3.847  0.0596  0.1655  0.4162
15206TIP3    H145540   5.221   1.130   3.817 -0.9386 -1.4121 -0.9921
15206TIP3    H245541   5.103   1.214   3.775  0.2723  1.6582  1.3883
15207TIP3   OH245542   1.347   0.856   0.168 -0.3477 -0.0225 -0.0530
15207TIP3    H145543   1.403   0.787   0.133 -0.3832  0.2675 -0.6870
15207TIP3    H245544   1.261   0.840   0.129 -0.6419 -0.2842  0.6772
15208TIP3   OH245545   7.793   3.252   3.158  0.0543 -0.4124  0.0242
15208TIP3    H145546   7.726   3.203   3.110  0.8256  0.3476 -1.9057
15208TIP3    H245547   7.875   3.210   3.135  0.3932 -0.6525  1.5258
15209TIP3   OH245548   1.751   4.636   5.804  0.5188 -0.2162 -0.3441
15209TIP3    H145549   1.712   4.701   5.864 -0.3108 -1.0415  0.0423
15209TIP3    H245550   1.802   4.688   5.743 -0.6639  0.8800 -0.4506
15210TIP3   OH245551   0.378   0.935   0.403 -0.0544 -0.1068  0.3126
15210TIP3    H145552   0.374   0.862   0.341  1.0866  1.5434 -1.8314
15210TIP3    H245553   0.418   0.897   0.481 -0.7032 -2.0559 -0.2249
15211TIP3   OH245554   1.808   0.016   3.229 -0.0646 -0.0450  0.6762
15211TIP3    H145555   1.841  -0.045   3.295  0.4167  0.5656  1.0093
15211TIP3    H245556   1.886   0.061   3.197 -0.5540  1.7049  1.7613
15212TIP3   OH245557   2.373   3.350   6.397 -0.4878 -0.0693  0.4370
15212TIP3    H145558   2.466   3.335   6.381 -0.5266 -1.9987  1.6595
15212TIP3    H245559   2.356   3.437   6.361  1.9434  0.6375  0.7847
15213TIP3   OH245560   7.721   7.227   3.641  0.2993 -0.2863 -0.3282
15213TIP3    H145561   7.768   7.148   3.668  0.0696 -0.3561 -0.1301
15213TIP3    H245562   7.688   7.265   3.723  0.8538  0.2997 -0.3708
15214TIP3   OH245563   3.377   4.923   3.714  0.0178 -0.1496  0.7006
15214TIP3    H145564   3.426   4.915   3.795  1.2971 -0.9415 -0.1037
15214TIP3    H245565   3.441   4.904   3.645 -0.8096  1.3298 -0.5593
15215TIP3   OH245566   5.051   3.050   2.215  0.2256 -0.8508 -0.7903
15215TIP3    H145567   5.021   3.139   2.234  0.3892 -1.0059  0.2765
15215TIP3    H245568   4.974   2.995   2.227 -0.4727 -0.6410 -3.7040
15216TIP3   OH245569   1.013   4.156   6.774 -0.1978 -0.6748 -0.4180
15216TIP3    H145570   1.048   4.227   6.721 -1.5279 -0.2821 -0.8186
15216TIP3    H245571   0.919   4.173   6.778 -0.2191 -0.9799  1.6315
15217TIP3   OH245572   4.118   7.717   2.296  0.1567 -0.5135 -0.1032
15217TIP3    H145573   4.068   7.782   2.247  3.3080  1.2858 -1.1547
15217TIP3    H245574   4.090   7.730   2.387 -1.0156  0.6174 -0.5840
15218TIP3   OH245575   4.937   6.080   2.896  0.2970 -0.6561  0.2924
15218TIP3    H145576   5.019   6.031   2.897  0.7246  0.0626  0.6469
15218TIP3    H245577   4.870   6.014   2.917  0.7886 -1.2123  0.1499
15219TIP3   OH245578   7.045   4.675   1.945  0.3441  0.2472 -0.3578
15219TIP3    H145579   7.067   4.689   1.853  1.3519  0.3498 -0.1077
15219TIP3    H245580   7.077   4.752   1.991 -0.8859  0.5792 -0.0125
15220TIP3   OH245581   1.198   6.605   0.011  0.1713 -0.1663  0.3234
15220TIP3    H145582   1.155   6.560   0.084 -1.2199 -1.4065 -1.1567
15220TIP3    H245583   1.290   6.582   0.018 -0.1290 -1.1915  1.0580
15221TIP3   OH245584   8.401   2.247   3.741  0.0616 -0.4723 -0.0007
15221TIP3    H145585   8.462   2.236   3.813 -2.7497 -2.4047  2.2965
15221TIP3    H245586   8.380   2.158   3.713 -0.5195  0.1851 -1.8134
15222TIP3   OH245587   2.545   3.213   1.461  0.4888 -0.1752  0.6727
15222TIP3    H145588   2.518   3.145   1.523  0.7528  1.1742  2.3350
15222TIP3    H245589   2.624   3.178   1.420 -0.1878 -1.4721  0.4196
15223TIP3   OH245590   1.845   2.615   1.705 -0.2090 -0.2176  0.5067
15223TIP3    H145591   1.766   2.650   1.665 -1.3057  0.7282  3.2668
15223TIP3    H245592   1.854   2.663   1.787  1.7874 -2.1029  1.5078
15224TIP3   OH245593   4.181   6.527   0.640  0.1710  0.1774  0.2058
15224TIP3    H145594   4.244   6.456   0.627  0.8875  0.8544 -0.1476
15224TIP3    H245595   4.215   6.576   0.715  1.3579  1.8481 -1.3200
15225TIP3   OH245596   8.290   5.368   0.162 -0.2244 -0.1916  0.0779
15225TIP3    H145597   8.202   5.370   0.200  0.3085  0.1958  1.3293
15225TIP3    H245598   8.280   5.410   0.077 -1.5703 -1.6194 -0.5211
15226TIP3   OH245599   7.378   0.601   3.774  0.4799 -0.0449 -0.6189
15226TIP3    H145600   7.415   0.534   3.717  0.2562 -0.1197 -0.6738
15226TIP3    H245601   7.425   0.591   3.857  1.2360  0.4543 -0.9700
15227TIP3   OH245602   0.544   7.479   5.908 -0.2352  0.4180 -0.4832
15227TIP3    H145603   0.569   7.498   5.998 -2.6951  2.3810 -0.0907
15227TIP3    H245604   0.571   7.557   5.859 -0.3179  0.0445 -1.1305
15228TIP3   OH245605   1.378   8.022   5.649  0.0759 -0.4696  0.1569
15228TIP3    H145606   1.439   8.095   5.651  1.9443 -1.8799  4.0393
15228TIP3    H245607   1.432   7.946   5.624 -1.3383 -0.9771 -1.5925
15229TIP3   OH245608   4.674   0.279   6.007 -0.0011  0.3508 -0.4577
15229TIP3    H145609   4.709   0.367   5.990  0.8008  0.3443  0.9896
15229TIP3    H245610   4.751   0.227   6.030 -0.6895 -0.2190  0.6452
15230TIP3   OH245611   6.350   4.967   1.127  0.4932  0.8983  0.1814
15230TIP3    H145612   6.284   4.921   1.075  0.4982  1.2370 -0.1281
15230TIP3    H245613   6.300   5.017   1.191  0.4796  0.6534  0.3677
15231TIP3   OH245614   0.987   6.086   3.326  0.2037  0.1707 -0.2366
15231TIP3    H145615   0.972   6.179   3.346 -1.4338  0.0008 -0.5826
15231TIP3    H245616   0.900   6.049   3.316  0.8566 -1.2669 -0.8404
15232TIP3   OH245617   1.000   7.067   0.807  0.1197  0.4131 -0.0748
15232TIP3    H145618   1.040   7.154   0.803  1.0106 -0.0324 -1.3778
15232TIP3    H245619   0.989   7.050   0.901  1.6880  1.1348  0.2730
15233TIP3   OH245620   7.493   6.939   0.104  0.3960  0.1494  0.3650
15233TIP3    H145621   7.497   6.937   0.008 -0.4978 -0.2271  0.3319
15233TIP3    H245622   7.422   6.880   0.127  0.8819 -0.1030  1.2896
15234TIP3   OH245623   2.498   2.215   1.639 -0.1497  0.1916  0.2473
15234TIP3    H145624   2.469   2.246   1.553  0.3037  0.9981  0.3676
15234TIP3    H245625   2.585   2.178   1.624 -0.7300 -1.1589  0.0883
15235TIP3   OH245626   8.440   1.349   5.529  0.4880  0.7669 -0.5599
15235TIP3    H145627   8.511   1.324   5.470  0.2696 -1.6973  0.1228
15235TIP3    H245628   8.379   1.275   5.527 -2.4217  2.9872 -1.5176
15236TIP3   OH245629   6.515   2.122   0.401  0.2973  0.5745  0.0164
15236TIP3    H145630   6.458   2.190   0.364  1.6249  1.6263 -0.1816
15236TIP3    H245631   6.545   2.159   0.484  1.3694  0.4355 -0.2900
15237TIP3   OH245632   4.631   0.506   4.383  0.0653 -0.3337 -0.3912
15237TIP3    H145633   4.579   0.564   4.439  0.3606 -0.5307  0.1000
15237TIP3    H245634   4.594   0.419   4.397  1.2592 -0.6638  0.8791
15238TIP3   OH245635   5.991   7.843   0.875 -0.0651  0.0658  0.0846
15238TIP3    H145636   5.953   7.929   0.896 -1.1795 -0.3895  0.0365
15238TIP3    H245637   5.918   7.782   0.887  0.1398 -0.6270 -1.9381
15239TIP3   OH245638   5.466   1.611   4.305 -0.4467 -0.1234 -0.0579
15239TIP3    H145639   5.541   1.570   4.348  1.0911  2.2080 -0.3104
15239TIP3    H245640   5.486   1.705   4.307 -2.6408  0.4506 -1.5144
15240TIP3   OH245641   4.304   4.766   6.855 -0.3222  0.3387  0.2003
15240TIP3    H145642   4.263   4.680   6.855 -1.8936  1.0369 -1.6963
15240TIP3    H245643   4.396   4.749   6.833 -0.2223 -0.9744  1.5471
15241TIP3   OH245644   7.299   7.782   1.846  0.3769 -0.0891 -0.4818
15241TIP3    H145645   7.278   7.703   1.797  3.4871 -1.1546 -0.2853
15241TIP3    H245646   7.291   7.758   1.938 -0.2454  0.3327 -0.4169
15242TIP3   OH245647   5.560   3.598   1.276  0.2515 -0.1988  0.2872
15242TIP3    H145648   5.524   3.603   1.364  0.7059 -0.3251  0.4842
15242TIP3    H245649   5.649   3.633   1.284 -0.7211  2.8361 -0.7465
15243TIP3   OH245650   6.499   5.050   1.406  0.9429  0.1064 -0.7655
15243TIP3    H145651   6.457   5.027   1.489  0.9023 -0.2522 -0.8834
15243TIP3    H245652   6.432   5.098   1.357  0.4792 -0.9067 -1.1624
15244TIP3   OH245653   0.257   5.695   2.233 -0.0786  0.3086  0.6792
15244TIP3    H145654   0.327   5.631   2.220  0.8909  1.1120  1.7872
15244TIP3    H245655   0.206   5.691   2.152  0.9572 -0.6376  0.0454
15245TIP3   OH245656   0.221   7.574   5.507 -0.3512  0.0447  0.0160
15245TIP3    H145657   0.237   7.543   5.417  0.3724 -0.1964  0.2207
15245TIP3    H245658   0.289   7.640   5.521 -1.6903  1.5770 -0.3146
15246TIP3   OH245659   6.610   0.462   0.516 -0.1100  0.3863  0.2643
15246TIP3    H145660   6.703   0.463   0.494  0.5146 -3.5556  2.0101
15246TIP3    H245661   6.576   0.383   0.476 -2.8021  1.6800 -0.2431
15247TIP3   OH245662   1.990   2.480   3.282 -0.4609  0.2510 -0.2291
15247TIP3    H145663   1.918   2.419   3.266 -0.1188 -0.0775 -0.5436
15247TIP3    H245664   2.068   2.433   3.250  0.2484 -0.3778  2.2184
15248TIP3   OH245665   2.695   7.876   1.498  0.4803  0.3274  0.0866
15248TIP3    H145666   2.660   7.892   1.410 -0.1926  1.1178  0.4828
15248TIP3    H245667   2.657   7.792   1.524  2.1947 -0.9046 -1.0989
15249TIP3   OH245668   6.721   5.855   0.053 -0.7127  0.0999 -0.0372
15249TIP3    H145669   6.668   5.823  -0.020 -0.9817  1.7212 -0.5973
15249TIP3    H245670   6.811   5.846   0.023 -0.6328 -2.1561  0.7024
15250TIP3   OH245671   6.028   4.108   3.874 -0.5465 -0.4291 -0.0962
15250TIP3    H145672   6.014   4.093   3.781 -0.6289 -2.5821  0.2127
15250TIP3    H245673   5.978   4.039   3.917 -0.0658  0.1877  1.5217
15251TIP3   OH245674   8.501   3.854   0.552  0.3883  0.2841  0.3391
15251TIP3    H145675   8.555   3.913   0.604  1.9460 -1.4160  0.7757
15251TIP3    H245676   8.414   3.858   0.592  0.3641  2.4367  0.1539
15252TIP3   OH245677   4.441   6.222   4.793 -0.4981 -0.3041  0.7222
15252TIP3    H145678   4.363   6.241   4.846 -0.4240  0.9992  0.3920
15252TIP3    H245679   4.409   6.170   4.720 -1.1388  0.5276  0.3957
15253TIP3   OH245680   3.806   3.311   4.375  0.2064 -0.6258 -0.1070
15253TIP3    H145681   3.851   3.288   4.457 -0.5245 -1.9693 -0.0491
15253TIP3    H245682   3.740   3.375   4.402  2.7183  2.2831 -0.3767
15254TIP3   OH245683   2.624   7.851   1.227  0.4731  0.6680 -0.1476
15254TIP3    H145684   2.700   7.882   1.178  0.1506  0.2586 -0.9382
15254TIP3    H245685   2.578   7.795   1.165  0.2515 -0.1779  0.7667
15255TIP3   OH245686   6.256   7.259   1.503  0.8270 -0.5591 -0.0006
15255TIP3    H145687   6.211   7.174   1.507 -1.3578  0.5685  0.9077
15255TIP3    H245688   6.257   7.290   1.594 -1.8681  2.0188 -0.6993
15256TIP3   OH245689   5.241   4.261   4.838 -0.0433  0.2508  0.2214
15256TIP3    H145690   5.164   4.209   4.813  1.7547 -1.7770 -1.4706
15256TIP3    H245691   5.283   4.282   4.755  0.9190  1.8750  1.0828
15257TIP3   OH245692   6.739   8.162   3.159 -0.6359 -0.3164  0.2188
15257TIP3    H145693   6.766   8.071   3.170 -0.9787 -0.3198  1.1248
15257TIP3    H245694   6.673   8.158   3.090 -2.1468 -1.0887  1.6088
15258TIP3   OH245695   3.745   3.009   0.866 -0.0713  0.5428 -0.1368
15258TIP3    H145696   3.801   3.023   0.789 -1.8833  0.2972 -1.5821
15258TIP3    H245697   3.717   3.096   0.892  2.0483  0.7951  1.4960
15259TIP3   OH245698   1.029   2.351   0.104  0.2113 -0.2386 -0.1853
15259TIP3    H145699   1.008   2.273   0.053  1.2730 -0.8695  0.2931
15259TIP3    H245700   1.074   2.318   0.182  1.8786  0.8868 -0.5878
15260TIP3   OH245701   8.339   3.333   0.109 -0.1774 -0.2800  0.1912
15260TIP3    H145702   8.408   3.397   0.126  0.9538 -1.6431  0.9586
15260TIP3    H245703   8.289   3.370   0.036  0.7755  1.1932  0.2508
15261TIP3   OH245704   7.725   5.388   5.402  0.0317 -0.0964 -0.3123
15261TIP3    H145705   7.767   5.458   5.354 -1.2857 -0.2184 -1.7418
15261TIP3    H245706   7.676   5.432   5.472  1.0049  0.1891  0.1993
15262TIP3   OH245707   4.931   4.064   3.712 -0.3074  0.2797  0.2074
15262TIP3    H145708   4.962   4.145   3.751 -1.7810  0.2175  1.6334
15262TIP3    H245709   4.846   4.086   3.673 -0.4264 -0.4259  0.0413
15263TIP3   OH245710   5.979   6.541   3.639  0.1790 -0.2755 -0.5138
15263TIP3    H145711   5.896   6.517   3.597 -0.0433 -2.2176  0.8675
15263TIP3    H245712   6.032   6.579   3.569 -1.8453  1.0182 -1.4345
15264TIP3   OH245713   6.203   1.119   6.268 -0.3245 -0.5331  0.0980
15264TIP3    H145714   6.176   1.032   6.237 -0.5340 -0.2352 -0.5702
15264TIP3    H245715   6.134   1.178   6.237  1.3902  0.3630 -2.2860
15265TIP3   OH245716   6.223   1.263   4.454  0.4343 -0.2878 -0.2989
15265TIP3    H145717   6.129   1.278   4.445  0.3277  0.6460  1.8032
15265TIP3    H245718   6.264   1.345   4.427  0.3038  1.1096  3.2395
15266TIP3   OH245719   6.776   6.004   4.055 -0.7135 -0.0188 -0.1541
15266TIP3    H145720   6.849   5.946   4.076 -0.5174  0.1117 -0.4605
15266TIP3    H245721   6.810   6.092   4.067 -1.2843  0.0377  1.2013
15267TIP3   OH245722   5.851   4.042   0.640  0.2485 -0.3391  0.0048
15267TIP3    H145723   5.927   4.031   0.697  2.2301  1.2688 -2.1358
15267TIP3    H245724   5.868   3.984   0.566 -2.0091 -1.9815  0.6591
15268TIP3   OH245725   3.000   8.164   5.305 -0.3642  0.1116  0.0650
15268TIP3    H145726   3.095   8.166   5.290 -0.5882  1.2453 -1.3616
15268TIP3    H245727   2.967   8.101   5.241 -0.6990  0.5589 -0.2053
15269TIP3   OH245728   1.805   4.562   2.533  0.2007 -0.0300  0.3720
15269TIP3    H145729   1.772   4.652   2.527  0.6311  0.0664 -0.8582
15269TIP3    H245730   1.873   4.557   2.466 -0.9342 -1.7535 -0.7377
15270TIP3   OH245731   7.729   6.592   3.111  0.1934  0.0068 -0.1475
15270TIP3    H145732   7.701   6.505   3.139 -0.4211  0.9507  2.5075
15270TIP3    H245733   7.817   6.601   3.146 -0.0083  0.6737  0.2120
15271TIP3   OH245734   7.075   2.639   6.811  0.2313  0.1239  0.1108
15271TIP3    H145735   7.157   2.591   6.824  0.0628  0.1177  1.2373
15271TIP3    H245736   7.086   2.682   6.726  0.8977 -0.8637 -0.3153
15272TIP3   OH245737   2.689   1.031   0.334 -0.1763 -0.2405 -0.0012
15272TIP3    H145738   2.594   1.030   0.329 -0.2454  0.8306  0.7738
15272TIP3    H245739   2.712   0.945   0.370 -0.9627  0.0194  1.1782
15273TIP3   OH245740   2.078   0.893   5.321 -0.2459 -0.5758 -0.4268
15273TIP3    H145741   2.097   0.895   5.415 -0.3085 -1.5175 -0.3756
15273TIP3    H245742   2.053   0.802   5.305 -0.8082 -0.2850 -1.2462
15274TIP3   OH245743   1.560   1.919   5.628  0.2028 -0.0271 -0.2600
15274TIP3    H145744   1.637   1.881   5.586  0.0513 -2.4809  1.4504
15274TIP3    H245745   1.594   1.968   5.702  0.2259  0.9891 -0.9217
15275TIP3   OH245746   1.745   7.492   0.180  0.0347  0.3310  0.0393
15275TIP3    H145747   1.824   7.537   0.148  0.7981 -0.4983  0.6988
15275TIP3    H245748   1.779   7.420   0.234 -1.1862  0.1621  0.6106
15276TIP3   OH245749   3.376   6.301   0.597 -0.0712 -0.3959  0.3041
15276TIP3    H145750   3.440   6.355   0.644 -0.2237  0.1976 -0.1428
15276TIP3    H245751   3.327   6.364   0.544  0.1218 -1.0387 -0.6704
15277TIP3   OH245752   2.429   0.087   4.752  0.0453 -0.2372 -0.8233
15277TIP3    H145753   2.449   0.035   4.830  0.5522 -0.1284 -0.8769
15277TIP3    H245754   2.487   0.052   4.684  0.3708  0.3694 -0.8681
15278TIP3   OH245755   1.033   6.166   4.859 -0.1927 -0.4864 -0.0478
15278TIP3    H145756   0.997   6.255   4.859 -0.4541 -0.5838  0.5877
15278TIP3    H245757   1.042   6.144   4.952  1.1422 -0.6183 -0.1899
15279TIP3   OH245758   3.058   3.087   2.873 -1.1258 -0.1536  0.2602
15279TIP3    H145759   3.153   3.100   2.862 -1.2985  0.8764 -0.1523
15279TIP3    H245760   3.020   3.173   2.857 -2.1010 -0.4272  0.9803
15280TIP3   OH245761   5.006   3.863   4.348 -0.0039 -0.0519 -0.0596
15280TIP3    H145762   5.073   3.855   4.280 -1.9826 -0.2817 -2.1441
15280TIP3    H245763   5.047   3.915   4.417  1.5521  1.8599 -2.2653
15281TIP3   OH245764   2.366   4.402   5.234  0.8303  0.0475  0.2148
15281TIP3    H145765   2.321   4.453   5.167 -1.9894 -2.8172 -0.3422
15281TIP3    H245766   2.329   4.432   5.317 -0.2127 -0.4846 -0.0455
15282TIP3   OH245767   7.896   4.803   4.745 -0.7241 -0.5464 -0.0786
15282TIP3    H145768   7.959   4.849   4.691 -2.3866 -0.6128 -2.2290
15282TIP3    H245769   7.879   4.721   4.698 -1.8466 -0.8710  0.8335
15283TIP3   OH245770   5.997   0.924   0.924 -0.0182 -0.3433 -0.1348
15283TIP3    H145771   6.090   0.931   0.943  0.1670  1.7267 -1.5446
15283TIP3    H245772   5.957   0.998   0.970 -0.9477 -1.0111  0.1837
15284TIP3   OH245773   8.443   2.485   0.244  0.5281 -0.1899  0.0693
15284TIP3    H145774   8.459   2.556   0.306  1.6900  0.2349 -0.6763
15284TIP3    H245775   8.498   2.413   0.274  0.9934 -0.0278 -0.3726
15285TIP3   OH245776   7.629   7.229   2.053 -0.6181 -0.0119  0.1891
15285TIP3    H145777   7.649   7.135   2.055 -0.4321  0.0335  0.6020
15285TIP3    H245778   7.682   7.266   2.124  0.7098  0.6763 -1.0909
15286TIP3   OH245779   2.330   7.285   6.163 -0.0913 -0.0223 -0.0587
15286TIP3    H145780   2.288   7.302   6.247  0.1787  1.0725 -0.1230
15286TIP3    H245781   2.333   7.371   6.120  0.0668 -0.5092 -1.0462
15287TIP3   OH245782   3.870   0.669   2.274  0.1908 -0.2487 -0.0764
15287TIP3    H145783   3.828   0.605   2.331 -0.5687  0.8200  0.6058
15287TIP3    H245784   3.809   0.679   2.201  0.9346 -1.2556 -0.8671
15288TIP3   OH245785   5.969   7.635   6.906 -0.4025 -0.2881  0.3370
15288TIP3    H145786   6.032   7.689   6.953 -0.2741  0.3093 -0.5087
15288TIP3    H245787   5.995   7.545   6.926  0.7251 -0.0524 -0.0160
15289TIP3   OH245788   4.022   2.277   6.830 -0.1875  0.0828 -0.7479
15289TIP3    H145789   4.059   2.227   6.758  1.0951  1.3770 -1.0362
15289TIP3    H245790   3.998   2.361   6.791 -1.2796  0.1226 -0.0469
15290TIP3   OH245791   7.204   1.187   7.036  0.1399  0.3805 -0.1850
15290TIP3    H145792   7.112   1.201   7.013  0.3079 -0.0406 -1.2104
15290TIP3    H245793   7.244   1.274   7.030  0.2570  0.2529 -2.0416
15291TIP3   OH245794   8.429   5.757   4.970 -0.0319 -0.2576  0.1003
15291TIP3    H145795   8.403   5.665   4.976 -1.2272  0.0935  0.4868
15291TIP3    H245796   8.397   5.796   5.051 -1.2056  0.8930 -0.8736
15292TIP3   OH245797   3.869   3.593   1.571  0.0005  0.7550  0.1071
15292TIP3    H145798   3.869   3.676   1.523 -2.0330  1.4387  1.1865
15292TIP3    H245799   3.864   3.526   1.503  1.4650  1.4821 -0.7738
15293TIP3   OH245800   0.112   6.511   4.116 -0.3513  0.2198  0.4679
15293TIP3    H145801   0.081   6.564   4.043 -0.3079 -0.1683  0.1673
15293TIP3    H245802   0.167   6.444   4.076 -1.7048 -1.0598  0.6578
15294TIP3   OH245803   4.780   7.582   7.024  0.3676  0.4267 -0.1170
15294TIP3    H145804   4.813   7.572   7.114 -0.6797  2.0146  0.4851
15294TIP3    H245805   4.735   7.499   7.006  1.2831 -0.2281  0.4942
15295TIP3   OH245806   4.066   6.066   1.065  0.0971  0.1988 -0.6197
15295TIP3    H145807   4.059   6.081   0.971 -0.1136 -1.1409 -0.8294
15295TIP3    H245808   4.157   6.038   1.078 -0.4422 -1.7832 -0.7787
15296TIP3   OH245809   8.119   4.293   4.679  0.5745  0.4890 -0.2310
15296TIP3    H145810   8.045   4.285   4.739  0.6630  2.3630  0.1888
15296TIP3    H245811   8.196   4.282   4.735  0.6550 -1.3403 -0.6478
15297TIP3   OH245812   0.490   2.317   4.032  0.4492  0.0256 -0.3083
15297TIP3    H145813   0.575   2.345   4.066  0.7171 -0.6443 -0.3930
15297TIP3    H245814   0.448   2.274   4.107  0.5724 -0.4549 -0.5102
15298TIP3   OH245815   3.211   6.701   0.623 -0.2047 -0.0885 -0.2953
15298TIP3    H145816   3.261   6.677   0.701  0.5450  0.8865 -0.4555
15298TIP3    H245817   3.273   6.752   0.570 -1.4234  1.3250 -0.4077
15299TIP3   OH245818   5.773   7.334   6.288 -0.4483 -0.2278 -0.4854
15299TIP3    H145819   5.721   7.410   6.263  0.7307  0.3858 -1.1768
15299TIP3    H245820   5.758   7.270   6.218 -0.6289 -0.2283 -0.4460
15300TIP3   OH245821   1.266   6.399   2.385 -0.1875  0.3620 -0.7025
15300TIP3    H145822   1.183   6.404   2.434  0.8549 -3.0614  1.8526
15300TIP3    H245823   1.258   6.318   2.335  1.7200 -0.2883 -0.0280
15301TIP3   OH245824   8.388   6.951   6.658  0.1861 -0.7510 -0.1184
15301TIP3    H145825   8.464   7.009   6.661 -0.7595  0.5237  0.3599
15301TIP3    H245826   8.418   6.869   6.697  0.6836  0.5221  2.3564
15302TIP3   OH245827   2.056   7.126   2.226 -0.0045  0.2536  0.4711
15302TIP3    H145828   2.010   7.049   2.260  1.6874 -1.4261 -0.8366
15302TIP3    H245829   2.148   7.100   2.225  0.3858  1.4525 -2.0984
15303TIP3   OH245830   5.039   4.099   4.697  0.2228  0.3191  0.5716
15303TIP3    H145831   4.967   4.038   4.679 -1.3007  2.2957 -0.5764
15303TIP3    H245832   5.099   4.088   4.623 -0.1114  0.2776  0.3022
15304TIP3   OH245833   6.545   5.236   4.581 -0.0249  0.5815 -0.4984
15304TIP3    H145834   6.514   5.274   4.499 -0.1888 -0.8071 -1.1033
15304TIP3    H245835   6.628   5.194   4.559 -1.2622 -2.0050 -0.6104
15305TIP3   OH245836   5.734   6.376   3.176  0.2926 -0.0532 -0.5649
15305TIP3    H145837   5.797   6.362   3.106  1.5067  0.3419  0.4105
15305TIP3    H245838   5.712   6.469   3.171  1.3996  0.2750  0.3810
15306TIP3   OH245839   7.729   0.442   3.255 -0.1882  0.2000 -0.3554
15306TIP3    H145840   7.822   0.443   3.232 -0.1273 -2.6008 -0.5550
15306TIP3    H245841   7.701   0.533   3.248  2.7286  1.2647  0.6072
15307TIP3   OH245842   6.523   4.419   4.160 -0.7072  0.1011  0.7226
15307TIP3    H145843   6.524   4.471   4.080 -0.9775  0.0385  0.6778
15307TIP3    H245844   6.431   4.420   4.188 -0.9520 -1.3658  0.0630
15308TIP3   OH245845   4.078   0.353   2.115 -0.0696  0.3214 -0.1726
15308TIP3    H145846   3.999   0.371   2.064  0.1473  1.2326 -0.2081
15308TIP3    H245847   4.108   0.439   2.144  0.5780 -0.0682  0.3442
15309TIP3   OH245848   2.387   6.452   5.976  0.5072 -0.5082 -0.2565
15309TIP3    H145849   2.298   6.453   6.011  0.2752  2.0843 -0.7389
15309TIP3    H245850   2.428   6.530   6.012  1.9781 -0.6288 -1.5609
15310TIP3   OH245851   6.140   4.902   6.144  0.1291  0.4325  0.0252
15310TIP3    H145852   6.210   4.846   6.176  0.3175  0.4359 -0.3750
15310TIP3    H245853   6.106   4.946   6.223 -0.3996 -0.6576  0.4185
15311TIP3   OH245854   4.375   1.072   3.489  0.5731  0.2892 -0.0817
15311TIP3    H145855   4.292   1.042   3.526  0.1853 -1.1283 -1.9273
15311TIP3    H245856   4.425   0.991   3.474  1.4935  0.9619 -0.7754
15312TIP3   OH245857   4.444   6.504   4.210  0.2047 -0.0709 -0.0971
15312TIP3    H145858   4.398   6.420   4.207  0.4583 -0.1693 -2.0571
15312TIP3    H245859   4.383   6.562   4.256 -0.1580 -1.1858  0.8930
15313TIP3   OH245860   7.415   3.565   7.020  0.2572  0.2035  0.8818
15313TIP3    H145861   7.445   3.482   6.983 -0.5283  0.8682 -1.4895
15313TIP3    H245862   7.433   3.558   7.113  2.0549 -1.8121  0.4765
15314TIP3   OH245863   1.556   4.800   4.321  0.0890 -0.6220 -0.3157
15314TIP3    H145864   1.505   4.736   4.270  1.3535 -0.6620 -1.6002
15314TIP3    H245865   1.490   4.855   4.363 -1.0347 -0.6427 -1.9449
15315TIP3   OH245866   5.526   3.577   0.703  0.2763  0.4616  0.8695
15315TIP3    H145867   5.537   3.671   0.717  0.5934  0.7686 -1.1710
15315TIP3    H245868   5.434   3.566   0.680  0.4624  0.4211  0.1253
15316TIP3   OH245869   6.173   5.661   6.286  0.0291  0.6768 -0.1798
15316TIP3    H145870   6.117   5.636   6.360 -1.9846  1.7677 -1.2662
15316TIP3    H245871   6.183   5.581   6.236 -0.0175  0.3189  0.3716
15317TIP3   OH245872   3.421   0.447   2.606  0.4174  0.1789 -0.2145
15317TIP3    H145873   3.427   0.496   2.524 -0.8167 -2.5284 -2.0889
15317TIP3    H245874   3.329   0.449   2.630  0.2077 -1.6961 -0.7229
15318TIP3   OH245875   7.612   6.731   4.149 -0.3186  0.5381 -0.1511
15318TIP3    H145876   7.605   6.779   4.231 -0.0450  2.3458 -1.1177
15318TIP3    H245877   7.523   6.726   4.116 -0.5494 -0.9652  0.6441
15319TIP3   OH245878   4.223   4.415   3.071  0.5579  0.2363 -0.0966
15319TIP3    H145879   4.287   4.372   3.015 -0.7196 -2.1975  0.1643
15319TIP3    H245880   4.140   4.370   3.052 -0.3330  0.7554  2.1738
15320TIP3   OH245881   1.315   1.295   0.569 -0.1550 -0.1287 -0.0280
15320TIP3    H145882   1.239   1.343   0.601 -1.2283 -0.9723 -1.1860
15320TIP3    H245883   1.294   1.203   0.585  1.8834 -0.2959  2.2111
15321TIP3   OH245884   7.879   3.024   1.972 -0.1768  0.0295  0.1807
15321TIP3    H145885   7.935   3.079   1.917  0.3842  1.2920  1.9514
15321TIP3    H245886   7.926   2.941   1.978  0.8886  0.6361  0.5692
15322TIP3   OH245887   6.161   6.028   2.941  0.1220 -0.1770 -0.2224
15322TIP3    H145888   6.115   6.035   3.024  0.8050 -0.1054  0.1568
15322TIP3    H245889   6.150   6.113   2.899  1.2876  0.4067  0.6061
15323TIP3   OH245890   5.553   7.828   1.026 -0.1507 -0.4582  0.4242
15323TIP3    H145891   5.590   7.741   1.040  0.2984 -0.0773  1.8499
15323TIP3    H245892   5.582   7.854   0.939 -0.9453 -2.0291 -0.3439
15324TIP3   OH245893   1.117   3.839   0.456 -0.3178  0.7365 -0.0609
15324TIP3    H145894   1.206   3.873   0.443  0.4876 -1.0731  0.4921
15324TIP3    H245895   1.110   3.828   0.551  0.7121 -3.6213 -0.2898
15325TIP3   OH245896   4.631   3.995   3.972  0.1410 -0.4279  0.1574
15325TIP3    H145897   4.606   4.080   4.009  1.3077 -0.0264  0.0716
15325TIP3    H245898   4.721   3.981   4.002  1.3075  0.0847 -2.7420
15326TIP3   OH245899   5.317   6.895   4.884 -0.2740 -0.4886  0.1643
15326TIP3    H145900   5.287   6.957   4.818 -1.1868  0.2940  1.2611
15326TIP3    H245901   5.242   6.837   4.899  0.5443 -1.8443 -0.7903
15327TIP3   OH245902   0.145   7.658   0.327  0.0456  0.1420 -0.4175
15327TIP3    H145903   0.112   7.604   0.255  1.5719 -0.4490 -0.7124
15327TIP3    H245904   0.196   7.727   0.284  2.0895 -0.9942  0.0943
15328TIP3   OH245905   0.051   5.240   4.414  0.4249 -0.6559  0.0252
15328TIP3    H145906   0.005   5.283   4.343  2.4968  0.8598 -0.5107
15328TIP3    H245907   0.020   5.150   4.413 -2.6534  0.2925 -0.0700
15329TIP3   OH245908   7.049   5.891   3.407 -0.3979  0.3866  1.0801
15329TIP3    H145909   6.962   5.926   3.426 -1.6380  0.1783 -3.2292
15329TIP3    H245910   7.035   5.799   3.386  0.6420  0.5465 -0.5316
15330TIP3   OH245911   7.826   6.663   6.301  0.3859 -0.1972 -0.6969
15330TIP3    H145912   7.827   6.758   6.290  0.5583 -0.2188 -0.8678
15330TIP3    H245913   7.846   6.628   6.214  0.0156 -0.3951 -0.7064
15331TIP3   OH245914   5.392   3.971   0.544 -0.2542  0.0140  0.2094
15331TIP3    H145915   5.398   4.039   0.477 -0.3622 -1.5158 -1.4323
15331TIP3    H245916   5.304   3.936   0.535  0.2443 -1.2644  0.0509
15332TIP3   OH245917   4.803   3.802   6.834 -0.0993  0.6284  0.0404
15332TIP3    H145918   4.875   3.859   6.863 -0.4524  0.3715  1.4716
15332TIP3    H245919   4.798   3.734   6.901 -0.2540 -0.6248 -1.1953
15333TIP3   OH245920   1.292   3.572   0.794  0.2751  0.0772  0.3662
15333TIP3    H145921   1.312   3.505   0.729  0.7445 -0.7105  1.2979
15333TIP3    H245922   1.365   3.569   0.856  0.7247  2.0205 -0.0073
15334TIP3   OH245923   4.501   0.846   3.411  0.4748 -0.4421 -0.5603
15334TIP3    H145924   4.532   0.795   3.335  2.2346  0.4194 -0.4645
15334TIP3    H245925   4.491   0.781   3.480 -0.9656 -1.2138 -1.4529
15335TIP3   OH245926   0.889   5.082   4.991 -0.4548  0.1044  0.0933
15335TIP3    H145927   0.951   5.154   4.979  0.0929 -0.3810 -0.0143
15335TIP3    H245928   0.804   5.125   5.003 -0.0723  0.7811  0.4237
15336TIP3   OH245929   4.423   2.006   0.330  0.3467  0.3574  0.0507
15336TIP3    H145930   4.482   2.027   0.402 -0.6374  0.7669  0.7679
15336TIP3    H245931   4.446   2.067   0.260  1.2002  0.0620  0.0620
15337TIP3   OH245932   1.775   4.166   5.756  0.0578 -0.2430 -0.0348
15337TIP3    H145933   1.696   4.143   5.707 -0.1798 -0.5684  0.4961
15337TIP3    H245934   1.749   4.159   5.848  0.1938  1.3667  0.1694
15338TIP3   OH245935   3.396   2.062   5.422 -0.4467  0.6167  0.1676
15338TIP3    H145936   3.304   2.043   5.400 -0.2504 -0.1396 -0.0091
15338TIP3    H245937   3.403   2.041   5.515 -0.7089  1.6885  0.4491
15339TIP3   OH245938   7.445   2.241   5.057  0.1618  0.4497  0.0526
15339TIP3    H145939   7.398   2.230   4.974 -1.8023  0.3073  1.1124
15339TIP3    H245940   7.503   2.166   5.062 -0.6784 -0.2622 -0.5871
15340TIP3   OH245941   0.133   4.024   5.467 -0.4186  0.9751 -0.1517
15340TIP3    H145942   0.092   4.055   5.386 -0.1770  2.4187  0.2477
15340TIP3    H245943   0.183   4.099   5.499 -0.5362  0.4475  1.3611
15341TIP3   OH245944   2.858   5.642   4.360 -0.0818 -0.0715 -0.0308
15341TIP3    H145945   2.863   5.713   4.424 -0.2179 -0.4750  0.4360
15341TIP3    H245946   2.793   5.671   4.296  0.6208  0.6740 -0.4215
15342TIP3   OH245947   1.038   4.200   2.202 -0.5673 -0.2216 -0.6995
15342TIP3    H145948   1.128   4.200   2.234 -0.2804 -0.1410 -1.4951
15342TIP3    H245949   1.043   4.159   2.116 -1.6717 -2.5075  0.2569
15343TIP3   OH245950   3.069   5.827   2.922 -0.5895  0.0125  0.5261
15343TIP3    H145951   3.027   5.772   2.989 -0.2498 -0.7281  0.1387
15343TIP3    H245952   3.140   5.871   2.969 -0.4930 -0.3322  0.7072
15344TIP3   OH245953   1.306   4.788   1.114  0.0011 -0.3688 -0.3210
15344TIP3    H145954   1.397   4.814   1.103  0.0622 -0.0280  0.8208
15344TIP3    H245955   1.300   4.759   1.205 -1.4296  1.4011  0.2057
15345TIP3   OH245956   7.987   0.323   1.947  0.3171 -0.5587  0.0965
15345TIP3    H145957   7.983   0.375   1.867 -1.0745 -0.5325  0.1540
15345TIP3    H245958   8.014   0.236   1.918  0.8446 -0.2802 -0.2536
15346TIP3   OH245959   7.244   6.023   4.739  0.1486  0.1950  0.5812
15346TIP3    H145960   7.281   5.955   4.684 -2.5990 -0.9082 -0.0563
15346TIP3    H245961   7.150   6.008   4.737 -0.5235  3.4067  1.2406
15347TIP3   OH245962   8.672   7.890   6.782  0.5538 -0.1942  0.5407
15347TIP3    H145963   8.611   7.964   6.772 -1.1009 -1.5654 -0.0511
15347TIP3    H245964   8.640   7.824   6.721  0.9774 -2.0323  2.2078
15348TIP3   OH245965   1.199   4.707   4.339  0.2265  0.3132 -0.0366
15348TIP3    H145966   1.204   4.630   4.395  1.1552  0.1911 -0.2725
15348TIP3    H245967   1.169   4.777   4.397 -0.1968 -0.1221  0.2783
15349TIP3   OH245968   5.618   8.016   4.884 -0.0653 -0.0706  0.1233
15349TIP3    H145969   5.543   8.072   4.900 -0.5946 -0.5576 -0.5506
15349TIP3    H245970   5.689   8.076   4.862 -1.0106  0.3378 -2.1791
15350TIP3   OH245971   8.010   2.478   4.342 -0.0982  0.3094  0.4799
15350TIP3    H145972   8.035   2.391   4.372 -1.8690 -0.2609  0.4253
15350TIP3    H245973   7.927   2.464   4.295 -0.8538  2.1187  1.1714
15351TIP3   OH245974   5.914   6.262   5.214 -0.3693 -0.2164 -0.1004
15351TIP3    H145975   5.945   6.246   5.125  2.1243 -1.2568  0.8661
15351TIP3    H245976   5.945   6.351   5.234  0.4891 -0.5856  0.2522
15352TIP3   OH245977   7.528   4.040   5.468  0.2959  0.2108 -0.0757
15352TIP3    H145978   7.567   4.113   5.419 -0.3386  0.3946 -0.3164
15352TIP3    H245979   7.564   3.962   5.426  1.2240  0.3735  0.3833
15353TIP3   OH245980   0.105   8.011   4.379  0.3806  0.0675  0.2960
15353TIP3    H145981   0.155   8.009   4.298 -1.6630 -1.4560 -1.0253
15353TIP3    H245982   0.135   7.934   4.427  0.2858 -0.0603  0.1503
15354TIP3   OH245983   3.667   2.515   1.861  0.1441 -0.1887  0.0810
15354TIP3    H145984   3.586   2.535   1.907  0.1570 -2.1580  1.0398
15354TIP3    H245985   3.727   2.586   1.887 -0.5610  0.0078  1.2335
15355TIP3   OH245986   5.598   3.734   4.305  0.5047  0.7862  0.3704
15355TIP3    H145987   5.680   3.743   4.257 -0.9937  0.8236 -2.3646
15355TIP3    H245988   5.542   3.681   4.248 -1.4282  0.8389  2.0996
15356TIP3   OH245989   5.950   5.008   0.547  0.2222 -0.1841  0.2651
15356TIP3    H145990   6.024   5.019   0.607 -0.4216  0.7456  0.9098
15356TIP3    H245991   5.878   4.980   0.602 -0.3912  0.7260 -0.0578
15357TIP3   OH245992   2.352   7.834   1.378 -0.1875  0.4286  0.0164
15357TIP3    H145993   2.380   7.887   1.452  2.0826 -0.3249 -0.2200
15357TIP3    H245994   2.402   7.867   1.303 -0.5977 -0.4098 -0.6592
15358TIP3   OH245995   3.761   0.425   6.882 -0.3391  0.3449 -0.2445
15358TIP3    H145996   3.674   0.433   6.844  0.0624  2.5182 -0.8590
15358TIP3    H245997   3.820   0.422   6.806  0.1570 -0.6604  0.1690
15359TIP3   OH245998   8.421   3.510   7.035 -0.3653  0.7229 -0.1922
15359TIP3    H145999   8.410   3.529   6.942 -0.2321  1.1473 -0.1231
15359TIP3    H246000   8.338   3.469   7.061  0.5614 -1.8974 -1.1057
15360TIP3   OH246001   7.761   6.957   4.043  0.2485  0.5635 -0.0264
15360TIP3    H146002   7.708   6.888   4.083 -2.0366  2.3684  0.2887
15360TIP3    H246003   7.793   6.919   3.962  1.5440 -1.8104  1.4824
15361TIP3   OH246004   6.327   2.749   4.946 -0.3351 -0.1219 -0.8343
15361TIP3    H146005   6.294   2.661   4.927  2.1960 -1.6526  1.1723
15361TIP3    H246006   6.323   2.755   5.042  0.6894  1.4793 -0.8701
15362TIP3   OH246007   6.628   6.044   2.065  0.3369 -0.1938  0.3969
15362TIP3    H146008   6.680   6.119   2.095 -1.6452  0.8527  1.4360
15362TIP3    H246009   6.685   5.969   2.076  1.1098  0.6626  3.0456
15363TIP3   OH246010   0.621   5.430   4.848  0.0234  0.7162  0.1700
15363TIP3    H146011   0.576   5.515   4.850 -0.0122  0.6904  0.7076
15363TIP3    H246012   0.589   5.388   4.768  0.3713  1.3824 -0.3262
15364TIP3   OH246013   4.551   4.062   0.796 -0.1398  1.0777  0.1143
15364TIP3    H146014   4.638   4.071   0.834 -0.4137  1.4430  0.6713
15364TIP3    H246015   4.516   3.981   0.834  0.6774 -0.1258 -1.5885
15365TIP3   OH246016   3.158   5.873   3.612 -0.1506 -0.2638  0.2211
15365TIP3    H146017   3.091   5.940   3.601  1.1797  1.1789  0.4481
15365TIP3    H246018   3.125   5.797   3.565 -0.5640  1.4050 -2.3981
15366TIP3   OH246019   5.122   3.255   5.254 -0.5167  0.1186  0.5832
15366TIP3    H146020   5.157   3.166   5.247  1.0954  0.8793 -3.2381
15366TIP3    H246021   5.198   3.309   5.278 -0.8931  0.7799  0.3112
15367TIP3   OH246022   0.909   5.066   1.570 -0.3123 -0.2630 -0.1162
15367TIP3    H146023   0.879   5.107   1.651  1.2378  0.7744 -0.0382
15367TIP3    H246024   0.829   5.048   1.522 -1.2245 -0.2189  1.3133
15368TIP3   OH246025   5.899   6.924   2.250 -0.3241 -0.5210  0.0187
15368TIP3    H146026   5.885   6.875   2.169  0.2911  0.5805 -0.7752
15368TIP3    H246027   5.813   6.923   2.293 -1.7443  2.0259 -2.4615
15369TIP3   OH246028   6.337   3.170   2.403 -0.2376  0.5326 -0.3426
15369TIP3    H146029   6.396   3.161   2.328 -0.5406  2.3854 -0.8720
15369TIP3    H246030   6.286   3.090   2.404  1.5379 -0.6628 -0.5061
15370TIP3   OH246031   8.122   7.574   6.153 -0.5678  0.0201 -0.3244
15370TIP3    H146032   8.195   7.513   6.151 -1.0614 -0.5542 -0.8843
15370TIP3    H246033   8.048   7.525   6.118 -1.1251  0.7322 -0.1680
15371TIP3   OH246034   6.157   7.063   3.531 -0.1373  0.2885 -0.0855
15371TIP3    H146035   6.145   7.117   3.453  1.1280 -1.0211 -1.2514
15371TIP3    H246036   6.252   7.052   3.538 -0.3705 -2.3546 -0.3384
15372TIP3   OH246037   2.268   6.586   4.340 -0.3553 -0.1724  0.0629
15372TIP3    H146038   2.188   6.548   4.377 -0.6128 -1.8715 -2.0158
15372TIP3    H246039   2.339   6.544   4.389 -0.6741  0.8798  1.4991
15373TIP3   OH246040   4.499   7.391   5.562  0.0972 -0.4473 -0.2651
15373TIP3    H146041   4.413   7.358   5.537 -0.0574 -0.7807  0.6887
15373TIP3    H246042   4.494   7.485   5.544 -0.7540 -0.3252  0.5447
15374TIP3   OH246043   1.291   5.925   1.478  0.1823  0.6747 -0.2717
15374TIP3    H146044   1.321   6.000   1.529 -0.1175  0.4972  0.1721
15374TIP3    H246045   1.357   5.915   1.410 -0.3921  2.0731 -1.0721
15375TIP3   OH246046   3.256   8.138   5.003  0.2733 -0.5155  0.2516
15375TIP3    H146047   3.330   8.079   5.018  0.2259 -0.2725  1.5170
15375TIP3    H246048   3.193   8.086   4.953 -0.5815 -2.2350  2.9047
15376TIP3   OH246049   5.250   5.146   2.843 -0.5435 -0.2328  0.0342
15376TIP3    H146050   5.343   5.125   2.839  0.1323  2.3883  0.0285
15376TIP3    H246051   5.229   5.144   2.937  0.0819  1.1248  0.2295
15377TIP3   OH246052   3.496   2.166   3.244 -0.5080  0.1002 -0.2222
15377TIP3    H146053   3.503   2.089   3.301 -0.0615  0.1560 -0.1979
15377TIP3    H246054   3.408   2.161   3.207 -0.8322  0.0933  0.5245
15378TIP3   OH246055   3.303   3.990   0.036 -0.0618  0.8219  0.8113
15378TIP3    H146056   3.299   4.035  -0.048  0.8434  0.0215  0.3217
15378TIP3    H246057   3.280   4.057   0.101 -2.7631  0.9668 -0.1919
15379TIP3   OH246058   2.983   6.270   4.893  0.0639 -0.6220  0.3375
15379TIP3    H146059   2.988   6.205   4.963  1.2970 -0.5385  0.3502
15379TIP3    H246060   2.982   6.219   4.812  4.4340 -0.7796  0.1298
15380TIP3   OH246061   8.262   1.112   2.226 -0.5702 -0.2708  0.0185
15380TIP3    H146062   8.348   1.126   2.265 -0.9042 -0.1578  0.7403
15380TIP3    H246063   8.206   1.090   2.301 -1.3351  0.4072 -0.3424
15381TIP3   OH246064   3.436   5.669   3.200 -0.7377 -0.6508 -0.5892
15381TIP3    H146065   3.512   5.623   3.235 -1.1346 -1.3577 -0.6499
15381TIP3    H246066   3.450   5.761   3.225 -0.0051 -0.8197 -0.3651
15382TIP3   OH246067   4.927   2.760   5.307  0.4215  0.0549 -0.6238
15382TIP3    H146068   4.959   2.783   5.219  0.4536  0.8793 -0.4046
15382TIP3    H246069   4.999   2.783   5.365  0.3862 -0.4591 -0.3665
15383TIP3   OH246070   0.817   0.272   2.943 -0.5814 -0.4318 -0.1383
15383TIP3    H146071   0.786   0.183   2.957 -0.3491 -0.8453 -2.0526
15383TIP3    H246072   0.744   0.317   2.900  0.4215 -0.6770 -2.2387
15384TIP3   OH246073   8.135   7.483   7.013  0.1669  0.1168 -0.2424
15384TIP3    H146074   8.171   7.566   6.983 -0.9601 -0.0178 -2.1495
15384TIP3    H246075   8.063   7.508   7.072  0.5973  0.4557  0.1433
15385TIP3   OH246076   2.336   6.171   2.040 -0.0252 -0.4441 -0.7128
15385TIP3    H146077   2.428   6.171   2.014  0.5380  0.6249  1.0690
15385TIP3    H246078   2.304   6.258   2.015  0.5948  0.6973  2.1119
15386TIP3   OH246079   2.517   2.547   3.328 -0.0837 -0.4021  0.5690
15386TIP3    H146080   2.455   2.608   3.367  0.2337  0.3147 -0.0135
15386TIP3    H246081   2.486   2.461   3.354 -0.6959 -0.0045  1.1867
15387TIP3   OH246082   4.271   7.669   2.710 -0.4427 -0.2914 -0.4592
15387TIP3    H146083   4.343   7.730   2.694 -0.0251 -1.0435 -1.5975
15387TIP3    H246084   4.314   7.589   2.741 -0.9541 -0.1514  0.6607
15388TIP3   OH246085   4.582   2.900   1.261 -0.2820  0.1785  0.0615
15388TIP3    H146086   4.503   2.903   1.316 -1.4634 -4.1284 -1.0478
15388TIP3    H246087   4.552   2.927   1.175 -0.3933 -0.7853 -0.2064
15389TIP3   OH246088   4.732   7.698   6.534  0.1203  0.3490  0.5033
15389TIP3    H146089   4.752   7.604   6.543  1.4512  0.3977 -1.3179
15389TIP3    H246090   4.707   7.726   6.622 -1.4379 -1.9401  0.8860
15390TIP3   OH246091   1.884   5.185   4.511  0.4312 -0.0146 -0.4796
15390TIP3    H146092   1.818   5.122   4.481  1.5010 -0.6784 -1.5489
15390TIP3    H246093   1.903   5.160   4.601  0.4338 -0.8931 -0.7143
15391TIP3   OH246094   3.140   3.758   3.254 -0.7154  0.4011  0.3274
15391TIP3    H146095   3.107   3.843   3.224 -1.7802 -0.0019  0.3264
15391TIP3    H246096   3.184   3.776   3.336  0.1865  1.1518 -0.2989
15392TIP3   OH246097   8.485   2.967   3.621  0.4750 -0.0975 -0.2515
15392TIP3    H146098   8.429   3.041   3.598 -0.3845 -0.8972 -0.7961
15392TIP3    H246099   8.542   2.956   3.545 -0.1991 -0.7298 -0.6720
15393TIP3   OH246100   1.874   3.016   3.024 -0.2850  0.1817 -0.5137
15393TIP3    H146101   1.872   2.963   3.104 -0.3294 -0.8020 -1.1527
15393TIP3    H246102   1.962   3.003   2.988 -0.3366  0.4481 -0.7400
15394TIP3   OH246103   8.154   1.239   5.408  0.2345 -0.3282 -0.8243
15394TIP3    H146104   8.208   1.177   5.358 -0.6490 -1.0912 -0.8640
15394TIP3    H246105   8.146   1.315   5.351  0.7332 -0.4697 -1.0884
15395TIP3   OH246106   7.520   0.558   3.995  0.3484  0.6336  1.0832
15395TIP3    H146107   7.474   0.553   4.078  0.0756  0.2579  0.9116
15395TIP3    H246108   7.605   0.596   4.017 -0.3914  2.2653  1.2489
15396TIP3   OH246109   3.977   5.838   6.070  0.3645  0.2899  0.9100
15396TIP3    H146110   3.998   5.927   6.041 -0.4747 -0.0334 -0.8633
15396TIP3    H246111   3.911   5.808   6.007  0.6390 -1.5891  1.4568
15397TIP3   OH246112   5.586   0.228   1.462  0.2658  0.0244 -0.2431
15397TIP3    H146113   5.665   0.281   1.465 -0.1271  0.7468 -1.8710
15397TIP3    H246114   5.613   0.148   1.416  0.8712 -1.3367  2.2419
15398TIP3   OH246115   8.184   4.849   0.144 -0.3112 -0.1496 -0.3276
15398TIP3    H146116   8.248   4.853   0.073 -0.7546 -1.3424 -0.8207
15398TIP3    H246117   8.124   4.779   0.118 -0.4861 -0.6146  1.2281
15399TIP3   OH246118   1.100   3.252   1.108 -0.1050 -0.0880  0.4269
15399TIP3    H146119   1.191   3.221   1.106  0.3172  1.0239  1.1260
15399TIP3    H246120   1.106   3.340   1.145 -1.6739 -0.7280  2.3584
15400TIP3   OH246121   1.188   7.482   2.370  0.4876 -0.2618 -0.5518
15400TIP3    H146122   1.268   7.478   2.422  0.5346  1.7137 -0.4136
15400TIP3    H246123   1.151   7.567   2.389 -1.6394 -1.1025 -0.6875
15401TIP3   OH246124   3.159   4.526   2.341  0.5286 -0.6395 -0.6895
15401TIP3    H146125   3.253   4.542   2.329  0.0705  2.8892 -0.6513
15401TIP3    H246126   3.121   4.536   2.254  0.0211 -0.3890 -0.4459
15402TIP3   OH246127   7.860   2.342   6.631  0.1579 -0.1902  0.4895
15402TIP3    H146128   7.798   2.415   6.622  2.1654  1.5486 -0.2042
15402TIP3    H246129   7.885   2.321   6.541  0.1525 -1.2525  0.7321
15403TIP3   OH246130   1.073   3.604   6.788  0.0262 -0.0722  0.1047
15403TIP3    H146131   1.007   3.560   6.841 -1.1735 -0.0037 -1.2605
15403TIP3    H246132   1.099   3.680   6.840 -0.7221 -0.3033  0.8369
15404TIP3   OH246133   8.103   1.457   5.570  0.0238 -0.3842  0.0645
15404TIP3    H146134   8.121   1.377   5.521 -0.6940  1.0715 -2.8331
15404TIP3    H246135   8.152   1.525   5.523 -0.7878  1.1607  1.3491
15405TIP3   OH246136   2.324   7.832   0.128 -0.3207  0.2670 -0.2046
15405TIP3    H146137   2.378   7.803   0.202  0.4143  0.3245 -0.7018
15405TIP3    H246138   2.369   7.797   0.051 -0.9734  0.3678 -0.6354
15406TIP3   OH246139   6.607   5.763   4.212 -0.1579 -0.8909 -0.4516
15406TIP3    H146140   6.587   5.738   4.122  2.0270 -0.6925 -1.0469
15406TIP3    H246141   6.607   5.858   4.211 -1.7202 -0.8639  0.1750
15407TIP3   OH246142   1.480   5.310   4.461 -0.2241  0.1902 -0.1530
15407TIP3    H146143   1.497   5.242   4.525  3.4672  2.1160  1.2448
15407TIP3    H246144   1.439   5.381   4.510 -0.1440  0.5551 -0.5975
15408TIP3   OH246145   5.543   7.027   4.590 -0.0245 -0.3926  0.4490
15408TIP3    H146146   5.622   7.080   4.588 -0.2785  0.0132 -1.9490
15408TIP3    H246147   5.512   7.033   4.680  3.1324 -1.3406  1.6920
15409TIP3   OH246148   3.528   1.920   1.841 -0.3579  0.9082 -0.1879
15409TIP3    H146149   3.503   2.005   1.804 -1.2654  0.4323 -0.7345
15409TIP3    H246150   3.462   1.903   1.908  0.9368  1.4908  1.2816
15410TIP3   OH246151   3.229   5.958   4.730 -0.3107 -0.2116 -0.0838
15410TIP3    H146152   3.135   5.975   4.718  0.2622  2.3883 -1.8940
15410TIP3    H246153   3.245   5.974   4.823 -1.6289 -0.5856  0.2234
15411TIP3   OH246154   5.995   2.416   5.032 -0.2353 -0.0543 -0.3106
15411TIP3    H146155   6.089   2.429   5.020  0.0428  0.0042  1.6385
15411TIP3    H246156   5.976   2.334   4.986  0.7135  0.0398 -0.9016
15412TIP3   OH246157   5.715   3.805   5.447  0.3493  0.1626 -0.6599
15412TIP3    H146158   5.674   3.747   5.512  0.5047  1.9937  1.1986
15412TIP3    H246159   5.663   3.792   5.368  0.2230 -2.2753 -0.2767
15413TIP3   OH246160   0.848   0.185   0.161  0.2286  0.0217 -0.3702
15413TIP3    H146161   0.939   0.198   0.187 -0.0627  1.3140  0.1149
15413TIP3    H246162   0.815   0.117   0.220  0.8255 -0.3145 -0.4212
15414TIP3   OH246163   0.744   4.462   5.782 -0.2103  0.1020  0.1067
15414TIP3    H146164   0.768   4.479   5.873 -0.4343 -1.0004  0.3906
15414TIP3    H246165   0.724   4.548   5.745 -0.1904  0.5499  1.1230
15415TIP3   OH246166   1.669   1.567   0.713  0.3052  0.0714 -0.0599
15415TIP3    H146167   1.765   1.566   0.714  0.3053 -1.2916  0.9046
15415TIP3    H246168   1.645   1.496   0.654 -0.1135  0.3789 -0.2596
15416TIP3   OH246169   4.898   4.456   6.160  0.2956 -0.4735 -0.3431
15416TIP3    H146170   4.860   4.398   6.094 -0.6046  1.3724 -1.5185
15416TIP3    H246171   4.827   4.474   6.221 -0.0828  1.0333 -1.1769
15417TIP3   OH246172   1.734   2.832   1.940  0.4541  0.2095 -0.2513
15417TIP3    H146173   1.780   2.898   1.888  0.3378 -0.4596 -1.2255
15417TIP3    H246174   1.714   2.877   2.022  0.5250  1.3386 -0.8226
15418TIP3   OH246175   3.269   5.433   2.650 -0.5656  0.0860 -0.1597
15418TIP3    H146176   3.252   5.437   2.744  1.6298  0.2571  0.2790
15418TIP3    H246177   3.279   5.340   2.631 -1.7023 -0.0065 -0.3981
15419TIP3   OH246178   3.349   5.822   3.808  0.1455 -0.5369  0.1216
15419TIP3    H146179   3.424   5.763   3.805  0.5295 -0.0305 -0.6057
15419TIP3    H246180   3.322   5.830   3.716 -0.2910 -0.0792  0.2902
15420TIP3   OH246181   6.647   7.856   2.568 -0.3537 -0.2260 -0.1568
15420TIP3    H146182   6.619   7.841   2.478  0.6532 -1.6549 -0.2697
15420TIP3    H246183   6.654   7.952   2.575 -1.0872 -0.0606 -1.3814
15421TIP3   OH246184   3.971   3.518   0.386 -0.3388  0.3255 -0.5017
15421TIP3    H146185   3.967   3.424   0.407  1.3357  0.5240  0.9785
15421TIP3    H246186   3.880   3.544   0.377 -0.9162 -1.1518  0.5884
15422TIP3   OH246187   5.888   6.423   2.114 -0.0091 -0.3235  0.2825
15422TIP3    H146188   5.903   6.366   2.190  0.6115 -0.0137  0.3945
15422TIP3    H246189   5.798   6.454   2.125 -0.2136 -0.9518  0.4406
15423TIP3   OH246190   4.303   0.389   6.741  0.3519  0.2655  0.8739
15423TIP3    H146191   4.267   0.478   6.741  0.8203  0.4725  2.0385
15423TIP3    H246192   4.381   0.395   6.686  0.2427  0.5129  0.7437
15424TIP3   OH246193   1.932   2.322   3.038  0.0410 -0.4298 -0.3521
15424TIP3    H146194   1.893   2.318   3.126 -1.6745 -0.2082 -1.0473
15424TIP3    H246195   1.896   2.246   2.993  0.0581  0.0303 -1.1654
15425TIP3   OH246196   4.705   7.782   1.238 -0.4601 -0.2427  0.4836
15425TIP3    H146197   4.654   7.854   1.200 -1.4962 -1.4807 -0.5842
15425TIP3    H246198   4.781   7.825   1.278 -0.9059  1.4076 -0.3366
15426TIP3   OH246199   7.286   7.061   5.816 -0.2878 -0.5491 -0.0186
15426TIP3    H146200   7.283   7.054   5.912  1.3724  1.0301  0.2086
15426TIP3    H246201   7.196   7.076   5.790 -0.3497  3.4257  1.7892
15427TIP3   OH246202   2.234   0.471   6.195  0.2398 -0.0187  0.1597
15427TIP3    H146203   2.262   0.401   6.135  0.7555  1.1512 -1.0206
15427TIP3    H246204   2.147   0.443   6.225 -0.0459 -0.6576 -1.1491
15428TIP3   OH246205   0.699   7.802   2.218 -0.7211 -0.1343  0.5416
15428TIP3    H146206   0.608   7.774   2.221 -1.3885  1.5580 -1.5734
15428TIP3    H246207   0.726   7.788   2.128  0.1751  2.0030  0.4145
15429TIP3   OH246208   0.756   0.577   3.017  0.2663  0.2041 -0.4583
15429TIP3    H146209   0.739   0.636   3.090 -1.1986  1.4710 -1.7624
15429TIP3    H246210   0.703   0.500   3.035 -1.0657  1.0287 -0.7628
15430TIP3   OH246211   3.104   2.067   3.999  0.5612 -0.2603 -0.2511
15430TIP3    H146212   3.034   2.104   4.052  0.5986 -1.8951  1.0215
15430TIP3    H246213   3.181   2.066   4.057  1.2855  0.2260 -1.1696
15431TIP3   OH246214   0.755   0.469   0.031  0.3902  1.0368 -0.4209
15431TIP3    H146215   0.686   0.467   0.097 -0.0900 -1.1667 -0.9015
15431TIP3    H246216   0.709   0.481  -0.052  0.5461 -0.4015 -0.7401
15432TIP3   OH246217   3.839   7.863   6.183 -0.3989  0.0944 -0.1830
15432TIP3    H146218   3.888   7.787   6.152  0.7219 -0.5218  2.8275
15432TIP3    H246219   3.904   7.933   6.191  0.1439 -0.6705  3.6478
15433TIP3   OH246220   6.913   0.274   0.615  0.3244 -0.0684 -0.3612
15433TIP3    H146221   6.888   0.190   0.652 -0.1235 -0.2880 -1.1423
15433TIP3    H246222   6.845   0.294   0.551  0.8977  0.4590 -0.8266
15434TIP3   OH246223   2.043   7.761   6.033 -0.0752  0.3029 -0.3244
15434TIP3    H146224   2.095   7.726   5.961 -1.4888 -3.1015  0.1101
15434TIP3    H246225   2.001   7.839   5.996 -0.1841 -0.8903 -3.0222
15435TIP3   OH246226   5.872   5.358   1.074  0.4554 -0.2207 -0.3370
15435TIP3    H146227   5.852   5.404   0.992  1.0224  0.6941  0.0221
15435TIP3    H246228   5.795   5.304   1.091 -0.8645  1.6832 -0.0231
15436TIP3   OH246229   5.257   6.612   3.276 -0.0573 -0.7161  0.1417
15436TIP3    H146230   5.227   6.523   3.296  0.9706 -1.5066 -1.5674
15436TIP3    H246231   5.300   6.604   3.190  1.2417  1.1686  0.5493
15437TIP3   OH246232   3.625   5.696   5.744  0.1279 -0.7490 -0.3257
15437TIP3    H146233   3.548   5.745   5.715 -0.1280 -1.1286 -0.3013
15437TIP3    H246234   3.643   5.635   5.672 -0.4934 -1.6765  0.2879
15438TIP3   OH246235   6.068   1.845   4.901  0.2044 -0.1465  0.5897
15438TIP3    H146236   6.015   1.917   4.868  0.6233  0.5223  1.3301
15438TIP3    H246237   6.008   1.794   4.956  0.0885  0.0678  0.6642
15439TIP3   OH246238   6.844   7.081   0.512  0.2289  0.3044 -0.5193
15439TIP3    H146239   6.772   7.130   0.552 -0.0052 -0.8045  0.4774
15439TIP3    H246240   6.801   7.011   0.463  0.6005 -0.4188  0.1551
15440TIP3   OH246241   1.489   4.061   1.168  0.5265 -0.3348  0.2464
15440TIP3    H146242   1.407   4.104   1.191  1.0916 -0.0038  1.7450
15440TIP3    H246243   1.467   3.967   1.166 -0.2987 -0.1454 -1.2898
15441TIP3   OH246244   3.958   7.512   1.874 -0.3429  0.3530 -0.2391
15441TIP3    H146245   4.009   7.474   1.803  0.0501 -1.8384  1.1352
15441TIP3    H246246   4.005   7.593   1.896  2.9059 -1.7318  1.2305
15442TIP3   OH246247   7.105   2.347   4.604  0.2140 -0.2517  0.5199
15442TIP3    H146248   7.193   2.379   4.621 -0.2610 -0.4003  4.2091
15442TIP3    H246249   7.104   2.325   4.511  3.7621  0.5625  0.1613
15443TIP3   OH246250   0.872   7.332   6.273  0.3415 -0.0058  0.5702
15443TIP3    H146251   0.914   7.350   6.189 -0.3106 -0.3625  0.1565
15443TIP3    H246252   0.923   7.260   6.311  0.1981 -0.3333  0.1444
15444TIP3   OH246253   7.272   6.995   6.554 -0.3695 -0.4568  0.0474
15444TIP3    H146254   7.255   6.941   6.632 -0.6411 -0.4861 -0.0325
15444TIP3    H246255   7.244   6.940   6.481  0.2162 -0.5692 -0.0998
15445TIP3   OH246256   6.240   0.294   6.536  0.4923 -0.6419 -0.1217
15445TIP3    H146257   6.246   0.228   6.605  0.2916 -0.6143 -0.0791
15445TIP3    H246258   6.248   0.377   6.583  0.2545 -0.6194 -0.1200
15446TIP3   OH246259   0.155   3.170   3.401 -0.7160 -0.1288 -0.0770
15446TIP3    H146260   0.237   3.217   3.386 -0.6597 -0.1384  0.1975
15446TIP3    H246261   0.105   3.226   3.461 -0.4420 -0.6494  0.6448
15447TIP3   OH246262   5.883   1.746   1.182  0.6224 -0.0158  0.8774
15447TIP3    H146263   5.955   1.739   1.120 -2.0526  0.6541 -2.5953
15447TIP3    H246264   5.849   1.835   1.169 -1.9468 -0.9172  0.9420
15448TIP3   OH246265   1.168   1.121   0.778 -0.6061 -0.3670  0.8914
15448TIP3    H146266   1.144   1.064   0.851 -1.2594  1.7682  2.4758
15448TIP3    H246267   1.226   1.187   0.817  0.2584 -0.0191 -0.8796
15449TIP3   OH246268   7.791   1.959   3.892  0.0380  0.1837 -0.1141
15449TIP3    H146269   7.848   2.035   3.907 -0.2524  0.7548 -1.6922
15449TIP3    H246270   7.732   1.959   3.967  2.2992 -0.6554  1.7784
15450TIP3   OH246271   5.684   7.355   0.367 -0.0062  0.2880  0.2866
15450TIP3    H146272   5.774   7.343   0.398 -0.6834 -0.2411  2.1395
15450TIP3    H246273   5.629   7.323   0.438 -1.6981 -1.8450 -1.8212
15451TIP3   OH246274   0.978   1.351   0.753 -0.4804  0.3284  0.1031
15451TIP3    H146275   1.017   1.264   0.754 -0.0882  0.5042  0.1090
15451TIP3    H246276   0.908   1.345   0.688 -0.8574 -0.1653  0.5422
15452TIP3   OH246277   7.553   7.624   1.980  0.0466  0.0193  0.1258
15452TIP3    H146278   7.576   7.646   2.070 -2.1263  1.2505  0.4573
15452TIP3    H246279   7.506   7.541   1.986 -0.2925  0.2116  0.1782
15453TIP3   OH246280   4.253   5.682   1.516  0.1332  0.4387 -0.2213
15453TIP3    H146281   4.172   5.653   1.558  0.0301  0.8869 -0.1035
15453TIP3    H246282   4.226   5.757   1.462  0.2651 -0.1104 -1.0723
15454TIP3   OH246283   0.027   0.330   6.327  0.1688 -0.4866  0.0257
15454TIP3    H146284   0.115   0.368   6.336  0.6003 -1.4542  0.0186
15454TIP3    H246285   0.038   0.239   6.355 -0.3282 -1.2466 -2.0997
15455TIP3   OH246286   7.528   5.595   4.484  0.5209 -0.1383 -0.2802
15455TIP3    H146287   7.454   5.626   4.430  1.3584  0.0779 -1.3480
15455TIP3    H246288   7.491   5.527   4.539 -0.5365  0.1391 -0.6231
15456TIP3   OH246289   5.872   1.960   0.785  0.5187 -0.0145 -0.0538
15456TIP3    H146290   5.788   1.944   0.828  1.5763 -0.9398  1.8113
15456TIP3    H246291   5.869   1.907   0.705 -0.5227 -0.3083  0.1679
15457TIP3   OH246292   7.784   5.872   0.876  0.3923 -0.0435  0.4180
15457TIP3    H146293   7.850   5.928   0.919 -1.5907  1.7416  1.3148
15457TIP3    H246294   7.768   5.802   0.940  0.6150  0.1399  0.6818
15458TIP3   OH246295   2.982   4.402   4.651  0.0746  0.3357  0.0305
15458TIP3    H146296   3.030   4.390   4.569 -1.8187 -3.2551 -0.7565
15458TIP3    H246297   3.031   4.351   4.715 -0.6698 -0.2587  0.1290
15459TIP3   OH246298   2.519   0.425   5.693  0.1558 -0.2261 -0.6548
15459TIP3    H146299   2.608   0.430   5.728  0.0899 -2.3445 -0.0830
15459TIP3    H246300   2.467   0.477   5.754  0.8961  0.5647 -0.6752
15460TIP3   OH246301   0.932   1.798   0.624  0.2021 -0.0799  0.1309
15460TIP3    H146302   0.904   1.711   0.651  0.2730  0.0401  0.5861
15460TIP3    H246303   0.984   1.831   0.697  0.9314 -0.0096 -0.4013
15461TIP3   OH246304   7.940   2.018   5.534  0.2612 -0.7322  0.0843
15461TIP3    H146305   7.977   1.933   5.560  0.3008 -0.4836  0.8527
15461TIP3    H246306   7.846   2.007   5.545  0.3435 -0.2836  1.4220
15462TIP3   OH246307   7.813   2.350   0.463 -0.6546  0.0695  0.1518
15462TIP3    H146308   7.906   2.339   0.443 -1.3597 -1.7497 -2.8395
15462TIP3    H246309   7.809   2.428   0.519  2.6416  0.0839  0.5406
15463TIP3   OH246310   6.296   1.768   0.829 -0.3428  0.1025  0.5086
15463TIP3    H146311   6.235   1.841   0.831 -0.1264  0.2675  2.2803
15463TIP3    H246312   6.249   1.696   0.872  0.2908 -0.0877  0.9024
15464TIP3   OH246313   1.152   2.018   1.974  0.3728 -0.3250  0.0044
15464TIP3    H146314   1.244   2.035   1.995  0.3499  0.5709 -0.5672
15464TIP3    H246315   1.152   1.997   1.880 -0.2914  2.2937 -0.6440
15465TIP3   OH246316   3.117   7.493   2.469  0.0890 -0.7819  0.0784
15465TIP3    H146317   3.121   7.518   2.561 -0.2199 -2.4134  0.5801
15465TIP3    H246318   3.191   7.434   2.457 -0.2130 -1.0454 -0.5512
15466TIP3   OH246319   6.766   4.916   2.638  0.3478  0.6120 -0.1694
15466TIP3    H146320   6.822   4.961   2.575  0.1724 -1.2945 -1.7787
15466TIP3    H246321   6.717   4.852   2.586 -1.0114  0.0520  1.6743
15467TIP3   OH246322   7.339   3.866   5.731  0.2943  0.1119  0.1677
15467TIP3    H146323   7.338   3.782   5.684 -0.4650  0.9741 -1.4108
15467TIP3    H246324   7.427   3.900   5.717 -0.1186  0.6610 -1.2232
15468TIP3   OH246325   6.437   3.041   6.605  0.7122  0.9671 -0.3549
15468TIP3    H146326   6.430   2.950   6.634  1.6987  0.2512 -2.1467
15468TIP3    H246327   6.363   3.053   6.545  0.8016  1.2139 -0.4172
15469TIP3   OH246328   8.271   0.609   2.663  0.3062 -1.1679 -0.1750
15469TIP3    H146329   8.258   0.701   2.687  0.3032 -1.1829 -0.1182
15469TIP3    H246330   8.197   0.588   2.605 -0.0221 -1.3026  0.2849
15470TIP3   OH246331   2.612   6.072   2.871  0.2539 -0.2409  0.2115
15470TIP3    H146332   2.630   6.102   2.782  0.4704  0.1755  0.3910
15470TIP3    H246333   2.523   6.037   2.868 -1.1513  2.9525  0.5947
15471TIP3   OH246334   8.450   0.021   2.484 -0.2132 -0.2270  0.1683
15471TIP3    H146335   8.515   0.043   2.551 -0.3007 -1.7462  0.7721
15471TIP3    H246336   8.500  -0.020   2.414 -0.2246  0.7040 -0.4028
15472TIP3   OH246337   8.174   3.120   6.639  0.1828 -0.2064 -0.1765
15472TIP3    H146338   8.143   3.044   6.689 -1.1190  0.5808  0.2593
15472TIP3    H246339   8.226   3.170   6.702 -1.5695  0.8561  0.5084
15473TIP3   OH246340   4.863   0.057   4.708  0.5200  0.2385  0.2461
15473TIP3    H146341   4.921   0.132   4.695 -0.1459  0.9641  1.2750
15473TIP3    H246342   4.829   0.038   4.621  1.5761  0.3952 -0.2203
15474TIP3   OH246343   5.811   4.533   4.497 -0.4805  0.1106 -0.1830
15474TIP3    H146344   5.720   4.511   4.478 -0.2513  0.5577 -1.9801
15474TIP3    H246345   5.851   4.450   4.525 -1.3880 -0.1144  0.4624
15475TIP3   OH246346   4.106   6.769   6.154  0.4522  0.4505  0.2244
15475TIP3    H146347   4.144   6.686   6.124 -0.7738 -0.1723  0.3200
15475TIP3    H246348   4.153   6.789   6.235  1.1171  0.1205 -0.0739
15476TIP3   OH246349   8.443   6.315   3.303 -0.3235 -0.2217  0.6786
15476TIP3    H146350   8.506   6.380   3.274 -1.3027  0.4810  0.0465
15476TIP3    H246351   8.477   6.283   3.386  1.4600 -0.7221 -0.1890
15477TIP3   OH246352   6.246   2.674   0.332  0.3272 -0.0527  0.2412
15477TIP3    H146353   6.154   2.649   0.323  0.1832 -0.3904  2.1872
15477TIP3    H246354   6.285   2.606   0.387  1.2701  1.0751  1.0414
15478TIP3   OH246355   8.412   7.177   6.877 -0.0450  0.2896 -0.2487
15478TIP3    H146356   8.340   7.115   6.868  1.6877 -1.8556 -0.1676
15478TIP3    H246357   8.426   7.184   6.972  1.4807 -1.4368 -0.2747
15479TIP3   OH246358   5.502   0.863   4.225  0.5941  0.1683 -0.0692
15479TIP3    H146359   5.550   0.780   4.223  0.7859  0.2950 -1.4673
15479TIP3    H246360   5.456   0.867   4.141 -0.2284  1.0174  0.3980
15480TIP3   OH246361   8.692   7.531   0.011 -0.0441  0.0233  0.2878
15480TIP3    H146362   8.719   7.439   0.009  1.8316  0.5259  0.4185
15480TIP3    H246363   8.637   7.538   0.089  2.6570 -0.3103  2.3580
15481TIP3   OH246364   1.582   2.180   3.536 -0.1114  0.2118  0.4384
15481TIP3    H146365   1.652   2.211   3.478 -1.3537 -1.3775 -2.0744
15481TIP3    H246366   1.540   2.109   3.487 -2.6646  0.2314  2.4139
15482TIP3   OH246367   3.696   7.463   2.409  0.0786 -0.0505 -0.6164
15482TIP3    H146368   3.705   7.409   2.488 -2.6800 -2.2602 -1.6682
15482TIP3    H246369   3.780   7.452   2.363  0.9596 -0.3670  0.9744
15483TIP3   OH246370   1.844   3.010   6.038  0.0604  0.3156 -0.0319
15483TIP3    H146371   1.879   3.096   6.059  0.9435 -0.2374  0.8703
15483TIP3    H246372   1.805   2.979   6.120  1.2099 -0.7932  0.1324
15484TIP3   OH246373   1.769   0.434   2.620  0.1589  0.1029 -0.1915
15484TIP3    H146374   1.755   0.412   2.712  0.6097  2.5195  0.5517
15484TIP3    H246375   1.783   0.529   2.621  0.9721  0.0756 -2.6692
15485TIP3   OH246376   5.679   1.781   5.869  0.3872 -0.0713  0.1857
15485TIP3    H146377   5.661   1.862   5.917  1.8613  2.7130 -3.4267
15485TIP3    H246378   5.773   1.768   5.880  0.5455 -0.0020 -0.9923
15486TIP3   OH246379   1.441   0.588   1.723  0.1991  0.4336  0.3529
15486TIP3    H146380   1.503   0.649   1.762 -0.7101  0.2390  2.2007
15486TIP3    H246381   1.491   0.508   1.709  0.8487  0.8998 -0.0541
15487TIP3   OH246382   4.140   7.702   6.504  0.7343  0.4253 -0.2824
15487TIP3    H146383   4.149   7.634   6.570  0.4622  0.1871 -0.4865
15487TIP3    H246384   4.046   7.705   6.485  0.5141  1.9608  0.8696
15488TIP3   OH246385   3.977   6.018   5.246 -0.3592  0.3854 -0.8618
15488TIP3    H146386   3.948   5.981   5.162 -1.7485  0.3910 -0.4132
15488TIP3    H246387   4.070   6.036   5.233 -0.1078 -1.3228 -1.7887
15489TIP3   OH246388   8.508   5.365   6.157 -0.1438 -0.2967  0.1478
15489TIP3    H146389   8.487   5.323   6.074  0.2065 -0.5193  0.1708
15489TIP3    H246390   8.424   5.399   6.188 -0.3129 -0.3943 -0.1948
15490TIP3   OH246391   5.178   7.792   5.166  0.1435  0.5954 -0.4000
15490TIP3    H146392   5.153   7.720   5.225  0.3766 -0.6946 -1.7919
15490TIP3    H246393   5.130   7.868   5.198 -0.7454 -0.3794  0.6615
15491TIP3   OH246394   7.357   6.161   1.238 -0.3333 -0.4302  0.9521
15491TIP3    H146395   7.356   6.175   1.333  0.0384 -2.4545  1.2842
15491TIP3    H246396   7.414   6.086   1.225 -0.5857 -0.3453 -0.8735
15492TIP3   OH246397   4.814   1.831   2.407  0.4072 -0.3520  0.2049
15492TIP3    H146398   4.776   1.905   2.454  1.9718  0.1778  0.7048
15492TIP3    H246399   4.829   1.863   2.318  1.1059 -0.0260  0.4272
15493TIP3   OH246400   0.937   6.179   2.309 -0.2824  0.3322  0.2411
15493TIP3    H146401   0.866   6.198   2.247 -0.4815  0.0424  0.3771
15493TIP3    H246402   0.907   6.102   2.357  0.2103  0.1022  0.1806
15494TIP3   OH246403   3.119   6.057   1.682  0.5211 -0.0904 -0.2311
15494TIP3    H146404   3.179   6.082   1.752  1.4072  0.0102 -1.0048
15494TIP3    H246405   3.103   6.139   1.634 -1.6580  0.2763  0.9904
15495TIP3   OH246406   3.780   1.989   3.325 -0.1096 -0.1080  0.0223
15495TIP3    H146407   3.693   2.000   3.363 -0.3239 -0.9395 -0.2041
15495TIP3    H246408   3.814   1.908   3.364  1.4695  1.2980  1.7540
15496TIP3   OH246409   7.134   1.998   0.945 -0.1819 -0.2608 -0.1357
15496TIP3    H146410   7.148   1.912   0.986 -1.1390 -0.0162  0.7575
15496TIP3    H246411   7.066   2.039   0.999  1.2729  1.6502  0.3250
15497TIP3   OH246412   2.693   3.268   2.760 -0.1633  0.0816  0.3739
15497TIP3    H146413   2.633   3.312   2.819 -2.1762 -1.3895 -0.4874
15497TIP3    H246414   2.658   3.179   2.751  0.8075 -0.1277 -1.9798
15498TIP3   OH246415   4.274   6.135   7.065  0.8002  0.1760  0.0322
15498TIP3    H146416   4.280   6.140   7.160  1.7382  1.4430 -0.0570
15498TIP3    H246417   4.344   6.193   7.034 -0.2969  0.7913 -1.4229
15499TIP3   OH246418   7.894   0.842   6.026 -0.1650 -0.0112  0.8601
15499TIP3    H146419   7.811   0.814   5.987 -0.1485 -0.0131  0.8268
15499TIP3    H246420   7.902   0.790   6.106 -0.9793  1.0933  1.7095
15500TIP3   OH246421   4.437   5.160   2.170 -0.6562  0.4890 -0.2876
15500TIP3    H146422   4.343   5.180   2.161 -0.9156 -0.6624 -0.2848
15500TIP3    H246423   4.440   5.092   2.237  0.1288  0.0609 -0.7455
15501TIP3   OH246424   7.842   6.281   4.108 -0.3067 -0.2227 -0.1143
15501TIP3    H146425   7.846   6.186   4.112  0.5425 -0.2472 -1.1227
15501TIP3    H246426   7.918   6.306   4.055  1.3038  1.2277  2.6547
15502TIP3   OH246427   4.014   1.871   4.710 -0.3003  0.1885  0.9258
15502TIP3    H146428   4.066   1.801   4.671 -1.6756  0.0704 -0.8504
15502TIP3    H246429   3.936   1.876   4.654 -0.6172  2.5831  1.4950
15503TIP3   OH246430   6.299   4.311   2.119 -0.6475 -0.4928  0.4297
15503TIP3    H146431   6.371   4.326   2.058 -0.9168  0.5877  0.3584
15503TIP3    H246432   6.326   4.235   2.170  0.5499 -0.0865  0.4173
15504TIP3   OH246433   4.805   6.921   0.238 -0.2346  0.3829  0.0965
15504TIP3    H146434   4.722   6.961   0.266 -0.0290  0.5189  0.5080
15504TIP3    H246435   4.868   6.992   0.242 -0.4147  0.7113 -1.8007
15505TIP3   OH246436   2.383   7.425   6.942 -0.8223  0.0974  0.4583
15505TIP3    H146437   2.437   7.485   6.891 -1.8123 -0.0245 -0.7907
15505TIP3    H246438   2.379   7.346   6.889 -2.1013  0.0569  0.5789
15506TIP3   OH246439   7.915   3.003   5.347 -0.2641  0.4235 -0.2803
15506TIP3    H146440   7.918   3.072   5.281  2.2971 -1.3768 -2.2455
15506TIP3    H246441   7.995   3.016   5.399 -0.6714 -0.0320  0.4774
15507TIP3   OH246442   1.603   3.969   3.168  0.4713 -0.0438  0.1793
15507TIP3    H146443   1.526   3.982   3.112 -0.1061  1.4310  1.2758
15507TIP3    H246444   1.632   3.880   3.147  0.4963  0.5337 -2.7183
15508TIP3   OH246445   3.665   4.528   4.637  0.5569 -0.6732  0.2205
15508TIP3    H146446   3.603   4.588   4.596  0.6012  1.0714  2.5469
15508TIP3    H246447   3.615   4.447   4.647 -0.6186 -0.0045  0.0453
15509TIP3   OH246448   4.530   6.622   1.285 -0.8065 -0.3923 -0.2755
15509TIP3    H146449   4.524   6.621   1.380 -1.7667  0.3617 -0.3176
15509TIP3    H246450   4.613   6.666   1.267 -1.0103  0.1956  0.2068
15510TIP3   OH246451   4.864   2.423   0.372  0.2396 -0.0916  0.5535
15510TIP3    H146452   4.786   2.442   0.321 -0.3763  2.1090  2.1495
15510TIP3    H246453   4.922   2.498   0.357  1.7030 -1.2385  0.1361
15511TIP3   OH246454   4.825   3.365   6.140 -0.4331 -0.7565 -0.2168
15511TIP3    H146455   4.806   3.457   6.155 -2.2706 -1.0615 -0.4373
15511TIP3    H246456   4.774   3.343   6.062 -0.1283 -1.9915 -0.0868
15512TIP3   OH246457   2.119   0.213   5.181 -0.1742  0.1804 -0.5231
15512TIP3    H146458   2.166   0.143   5.226 -0.6837  0.5975  0.7057
15512TIP3    H246459   2.167   0.293   5.204 -1.1674  0.5467  0.3276
15513TIP3   OH246460   7.678   4.969   5.482  0.1003  0.8045 -0.0883
15513TIP3    H146461   7.713   5.009   5.403  0.2554 -0.3422 -0.6133
15513TIP3    H246462   7.707   5.027   5.553  0.6088  1.4209 -0.7899
15514TIP3   OH246463   1.585   4.686   0.323  0.7755  0.3372  0.3989
15514TIP3    H146464   1.628   4.770   0.306  1.1329 -0.1564 -1.2627
15514TIP3    H246465   1.492   4.707   0.327  0.8479  0.7850 -0.1996
15515TIP3   OH246466   5.612   3.809   0.541  0.0242 -0.0613 -0.3487
15515TIP3    H146467   5.548   3.878   0.527 -1.1305 -0.8051  0.9747
15515TIP3    H246468   5.668   3.841   0.613  1.7142  0.9230 -2.0076
15516TIP3   OH246469   3.663   5.905   6.448  0.5164 -0.3385 -0.5342
15516TIP3    H146470   3.646   5.833   6.387 -0.3563  0.1970 -0.9432
15516TIP3    H246471   3.579   5.921   6.491  1.2013 -0.9421  1.1085
15517TIP3   OH246472   5.336   7.848   4.090  0.1638  0.0840  0.3568
15517TIP3    H146473   5.256   7.874   4.044  0.7829  0.2713 -0.6360
15517TIP3    H246474   5.346   7.755   4.071  0.2430  0.0861  0.3866
15518TIP3   OH246475   2.172   3.125   2.187 -0.1867  0.3051  0.0972
15518TIP3    H146476   2.137   3.047   2.231 -0.1071 -0.0003 -0.3718
15518TIP3    H246477   2.254   3.095   2.148  0.0745  0.7477  0.3082
15519TIP3   OH246478   4.288   5.640   5.351 -0.0903 -0.0195 -0.5011
15519TIP3    H146479   4.229   5.587   5.404  0.7089  2.8991  3.8307
15519TIP3    H246480   4.229   5.695   5.299 -1.0716 -0.5287  0.0280
15520TIP3   OH246481   7.348   5.127   4.669 -0.1429 -0.1276 -0.7313
15520TIP3    H146482   7.322   5.051   4.617 -0.8536  0.4752 -1.3073
15520TIP3    H246483   7.442   5.117   4.683 -0.2804 -1.2396 -0.5582
15521TIP3   OH246484   8.127   3.037   6.367 -0.4465  0.2798  0.4146
15521TIP3    H146485   8.169   3.057   6.451  0.2252 -0.8801  0.3926
15521TIP3    H246486   8.185   2.971   6.327 -0.9889  0.4890 -0.7599
15522TIP3   OH246487   4.274   0.517   4.478  0.1855 -0.0917  0.3332
15522TIP3    H146488   4.311   0.429   4.488  1.7573  0.6191  1.0343
15522TIP3    H246489   4.185   0.501   4.446  0.0457 -1.9895  1.4761
15523TIP3   OH246490   0.166   3.408   6.944  0.2961 -0.2308 -0.0291
15523TIP3    H146491   0.095   3.344   6.939  1.3153 -1.5558  1.3557
15523TIP3    H246492   0.193   3.422   6.853 -0.0929 -1.6295 -0.3824
15524TIP3   OH246493   5.205   3.891   6.072  0.2678 -0.3395  0.0599
15524TIP3    H146494   5.252   3.812   6.097  1.6373  0.2845 -0.4712
15524TIP3    H246495   5.270   3.945   6.028 -0.5415  1.2493  0.7349
15525TIP3   OH246496   8.444   3.592   5.854 -0.2139  0.6558 -0.1653
15525TIP3    H146497   8.404   3.507   5.873 -0.1482  1.1243  2.3744
15525TIP3    H246498   8.517   3.571   5.796  0.0995 -1.0828  0.7946
15526TIP3   OH246499   6.875   1.342   0.909  0.2394  0.2357 -0.4075
15526TIP3    H146500   6.795   1.340   0.856 -0.1376 -0.0701  0.1716
15526TIP3    H246501   6.855   1.290   0.986  1.6107 -1.3845 -1.0868
15527TIP3   OH246502   5.189   4.353   1.389 -0.0702  0.5487 -0.3124
15527TIP3    H146503   5.204   4.277   1.445 -1.0189  0.6358  0.0826
15527TIP3    H246504   5.119   4.402   1.432 -0.0711  1.1904 -1.0113
15528TIP3   OH246505   0.115   1.028   3.020 -0.0672  0.3888 -0.2714
15528TIP3    H146506   0.066   1.104   3.052 -1.4174 -0.5289 -0.0561
15528TIP3    H246507   0.178   1.009   3.089 -0.9295  0.2472  0.4953
15529TIP3   OH246508   7.350   2.449   4.825 -0.3279 -0.1508 -0.0693
15529TIP3    H146509   7.429   2.396   4.818  2.2889  3.0759  1.8007
15529TIP3    H246510   7.362   2.519   4.761 -0.6411  1.4210  1.4944
15530TIP3   OH246511   6.063   5.405   4.761 -0.0366 -0.0919  0.2392
15530TIP3    H146512   5.992   5.367   4.811  0.4658  0.3044  1.2778
15530TIP3    H246513   6.111   5.459   4.824  1.0304 -0.1525 -0.4955
15531TIP3   OH246514   2.688   4.620   3.432  0.3410 -0.0953  0.3902
15531TIP3    H146515   2.756   4.553   3.424 -0.2946 -0.8787  1.4189
15531TIP3    H246516   2.629   4.588   3.500 -1.4709  0.2169 -0.9609
15532TIP3   OH246517   2.801   3.133   1.440  0.8372  0.1663 -0.1203
15532TIP3    H146518   2.847   3.149   1.522  1.4909  0.9019 -0.6242
15532TIP3    H246519   2.819   3.041   1.419  1.7403  0.3393 -0.1077
15533TIP3   OH246520   6.339   7.703   5.234 -0.6568 -0.0888  0.9185
15533TIP3    H146521   6.257   7.711   5.283 -1.7460 -1.0155 -0.6824
15533TIP3    H246522   6.376   7.619   5.262 -2.2602 -1.5808 -1.1677
15534TIP3   OH246523   0.123   1.232   3.969 -0.9101  1.1647 -0.1653
15534TIP3    H146524   0.080   1.228   4.054 -1.3556  0.0712 -0.4270
15534TIP3    H246525   0.103   1.320   3.936 -0.3308  1.7684  1.0458
15535TIP3   OH246526   7.665   6.267   2.698  0.1657 -0.1534 -0.4273
15535TIP3    H146527   7.587   6.219   2.723  1.1194 -1.0531  0.9410
15535TIP3    H246528   7.661   6.349   2.748 -0.0134 -0.0922 -0.5422
15536TIP3   OH246529   3.579   4.337   0.573 -0.1369  0.3783 -0.5535
15536TIP3    H146530   3.533   4.301   0.497 -0.7951 -1.1219  0.5191
15536TIP3    H246531   3.661   4.373   0.537 -0.7514  0.3356 -2.0503
15537TIP3   OH246532   8.601   4.745   3.942  0.3027  0.6831 -0.0278
15537TIP3    H146533   8.636   4.721   3.856 -0.0463  0.3900 -0.0915
15537TIP3    H246534   8.549   4.824   3.926  0.1748  0.5848 -0.1006
15538TIP3   OH246535   6.225   7.031   4.206 -0.6387  0.2118  0.5403
15538TIP3    H146536   6.236   6.993   4.293 -0.2849 -1.5162 -0.2211
15538TIP3    H246537   6.133   7.059   4.203 -1.1034 -1.2006  0.9242
15539TIP3   OH246538   2.138   6.486   2.322  0.3047 -0.4186  0.4132
15539TIP3    H146539   2.046   6.460   2.315  0.2643  0.1786 -2.3347
15539TIP3    H246540   2.137   6.566   2.374 -0.8489  0.0609 -0.3096
15540TIP3   OH246541   1.017   3.008   2.553 -0.1462 -0.6610 -0.0626
15540TIP3    H146542   0.934   3.045   2.526 -0.9463 -1.7823  0.7819
15540TIP3    H246543   1.049   2.959   2.477 -1.4991 -2.2958  0.3589
15541TIP3   OH246544   7.861   0.324   7.027 -0.1055  0.3510  0.4703
15541TIP3    H146545   7.821   0.285   7.104 -0.7447  0.6161  0.2779
15541TIP3    H246546   7.795   0.316   6.958  0.6205 -0.2868 -0.1770
15542TIP3   OH246547   7.713   2.904   7.022  0.3876 -0.5733  0.8027
15542TIP3    H146548   7.714   2.823   7.073 -0.8547 -0.2884  1.2997
15542TIP3    H246549   7.636   2.951   7.052 -1.4934 -1.1920 -2.5484
15543TIP3   OH246550   1.354   2.239   6.734  0.2775 -0.1772 -0.1903
15543TIP3    H146551   1.326   2.331   6.738 -1.6532 -0.7368  0.1104
15543TIP3    H246552   1.352   2.210   6.825 -1.3875 -1.1009 -0.4656
15544TIP3   OH246553   6.597   6.087   5.447  0.5004  0.5175 -0.2992
15544TIP3    H146554   6.602   6.175   5.411 -2.2828  1.1382  0.5444
15544TIP3    H246555   6.507   6.059   5.428  1.1585 -1.9470 -0.0861
15545TIP3   OH246556   2.002   3.338   2.948  0.1816  0.2800  0.1814
15545TIP3    H146557   2.007   3.323   2.854  2.4761 -0.0379  0.2992
15545TIP3    H246558   2.091   3.360   2.974 -0.1132 -0.8890  2.4706
15546TIP3   OH246559   5.533   6.395   4.076 -0.1868 -0.3573  0.7287
15546TIP3    H146560   5.485   6.458   4.130 -2.1907 -1.4246  0.2673
15546TIP3    H246561   5.570   6.333   4.139 -0.0497  0.0369  1.0405
15547TIP3   OH246562   6.280   2.134   1.075 -0.2323 -0.0966 -0.2798
15547TIP3    H146563   6.280   2.222   1.039  0.6465  0.3569  0.7811
15547TIP3    H246564   6.194   2.098   1.052 -1.5153  1.8383  1.1759
15548TIP3   OH246565   7.458   8.105   0.029 -0.3054  0.4555 -0.4041
15548TIP3    H146566   7.363   8.107   0.019 -0.2584 -0.0830 -1.0021
15548TIP3    H246567   7.473   8.048   0.105 -0.4048 -0.8190 -1.3119
15549TIP3   OH246568   7.891   4.340   5.985 -0.3028  0.1093 -0.6170
15549TIP3    H146569   7.854   4.262   6.026 -1.1987 -0.3420 -2.2103
15549TIP3    H246570   7.817   4.381   5.941  0.9366 -0.7040 -3.7199
15550TIP3   OH246571   1.769   7.345   1.019 -0.9118  0.8682 -0.0828
15550TIP3    H146572   1.704   7.291   0.975 -1.0174  0.3030  0.7517
15550TIP3    H246573   1.718   7.404   1.075 -0.7105 -0.5315  1.6747
15551TIP3   OH246574   6.242   3.318   3.058 -0.1315 -0.1680  0.0299
15551TIP3    H146575   6.254   3.235   3.011 -0.2739 -0.2150  0.0753
15551TIP3    H246576   6.300   3.310   3.134 -0.0440 -0.1701 -0.0364
15552TIP3   OH246577   0.683   3.127   3.553  0.1642  0.6278  0.0279
15552TIP3    H146578   0.666   3.144   3.460  2.4796 -0.5590 -0.6989
15552TIP3    H246579   0.707   3.212   3.589  2.0561  0.6772 -1.2015
15553TIP3   OH246580   1.022   6.933   6.593 -0.3014  0.0611  0.4217
15553TIP3    H146581   1.081   6.949   6.667 -0.3145 -0.1932  0.4849
15553TIP3    H246582   0.977   7.017   6.580 -1.6999 -0.4021  1.9154
15554TIP3   OH246583   1.468   2.901   1.870  0.5637  0.2951  0.0103
15554TIP3    H146584   1.526   2.917   1.944 -0.8062  0.2765  1.1301
15554TIP3    H246585   1.522   2.918   1.793  2.3469 -0.7346  0.9613
15555TIP3   OH246586   0.430   4.291   4.858 -0.2424 -0.4237 -0.5746
15555TIP3    H146587   0.386   4.251   4.932 -1.0580 -0.1861 -0.9194
15555TIP3    H246588   0.523   4.274   4.873 -0.5074 -1.6611 -0.2619
15556TIP3   OH246589   2.333   1.217   5.416 -0.6787  0.2841  0.7764
15556TIP3    H146590   2.265   1.212   5.348 -0.1723  1.0498  0.1979
15556TIP3    H246591   2.392   1.145   5.395 -0.6079  0.4215  0.4926
15557TIP3   OH246592   7.323   0.406   6.820  0.3324  0.2271  0.6652
15557TIP3    H146593   7.333   0.329   6.876  1.2459 -0.0790  0.1186
15557TIP3    H246594   7.269   0.375   6.747  0.0059  0.3377  0.8595
15558TIP3   OH246595   5.356   2.213   1.582 -0.4215 -0.1737 -0.6623
15558TIP3    H146596   5.379   2.158   1.507 -0.6610  0.7367 -1.4216
15558TIP3    H246597   5.356   2.153   1.657  1.9947 -0.6733 -0.9967
15559TIP3   OH246598   2.201   5.190   0.488  0.3927 -0.1112  0.0556
15559TIP3    H146599   2.184   5.149   0.572 -0.0601 -1.7355 -0.7864
15559TIP3    H246600   2.157   5.275   0.493 -0.3419 -0.5407  1.1336
15560TIP3   OH246601   8.591   5.747   6.230  0.3102 -0.0689 -0.8514
15560TIP3    H146602   8.680   5.715   6.219  0.9742  1.3527  0.0860
15560TIP3    H246603   8.560   5.706   6.311  1.0429  1.3374  0.1745
15561TIP3   OH246604   7.802   7.861   0.337 -0.2910 -0.1215  0.2998
15561TIP3    H146605   7.751   7.830   0.411 -2.5084  0.9504 -0.6925
15561TIP3    H246606   7.793   7.956   0.339  0.7355  0.0196 -0.5829
15562TIP3   OH246607   2.100   1.828   6.886  0.6600 -0.4439  0.0268
15562TIP3    H146608   2.193   1.807   6.880  0.6427 -0.6981  0.5704
15562TIP3    H246609   2.063   1.796   6.804  0.6816 -2.3299  0.6989
15563TIP3   OH246610   4.675   7.554   0.140  0.5016  0.3416 -0.1234
15563TIP3    H146611   4.744   7.591   0.195  0.8653 -1.1767  0.4898
15563TIP3    H246612   4.594   7.589   0.177  0.8978  2.9104 -1.4304
15564TIP3   OH246613   5.122   2.364   4.770  0.2347  0.2274 -0.3362
15564TIP3    H146614   5.100   2.278   4.737 -0.6860  0.3697 -0.1261
15564TIP3    H246615   5.050   2.386   4.829  0.8228  0.8297  0.1806
15565TIP3   OH246616   1.149   2.319   4.191  0.1186 -0.3253  0.0109
15565TIP3    H146617   1.206   2.391   4.220  0.7876 -1.5028  1.7930
15565TIP3    H246618   1.093   2.302   4.266 -1.0109 -0.7438 -0.9088
15566TIP3   OH246619   2.673   7.062   2.958  0.0673 -0.2282 -0.3394
15566TIP3    H146620   2.586   7.102   2.961  0.1057 -0.0846 -0.9118
15566TIP3    H246621   2.693   7.056   2.864  0.7350 -0.1283 -0.2073
15567TIP3   OH246622   3.958   6.335   3.634  0.6735  0.4251  0.2163
15567TIP3    H146623   4.035   6.298   3.589 -1.4278 -1.7465 -1.8495
15567TIP3    H246624   3.933   6.409   3.580  0.0585 -0.2067 -0.3807
15568TIP3   OH246625   0.796   6.596   5.385  0.2121 -0.1174 -0.3562
15568TIP3    H146626   0.792   6.554   5.299  0.0478 -0.5336 -0.1463
15568TIP3    H246627   0.742   6.675   5.375 -1.6296 -1.2819 -0.0173
15569TIP3   OH246628   5.446   2.803   5.076 -0.2293 -0.1467  0.1103
15569TIP3    H146629   5.492   2.720   5.087 -0.0087 -0.1213 -0.5271
15569TIP3    H246630   5.405   2.796   4.989  1.3786  1.1360 -0.8219
15570TIP3   OH246631   5.112   3.256   3.608 -0.3674  0.1501  0.0367
15570TIP3    H146632   5.103   3.165   3.580  0.3437 -0.5226  1.8596
15570TIP3    H246633   5.143   3.250   3.698  0.7938  2.2277 -0.1853
15571TIP3   OH246634   2.302   2.372   4.203  0.2288  0.1677  0.1153
15571TIP3    H146635   2.367   2.401   4.267  0.9121  2.0190 -1.3146
15571TIP3    H246636   2.353   2.348   4.126 -0.6398 -1.1127 -0.1019
15572TIP3   OH246637   4.724   4.027   6.077 -0.1721 -0.3470  0.2620
15572TIP3    H146638   4.813   4.049   6.105 -0.8392  3.9646 -0.2799
15572TIP3    H246639   4.732   4.012   5.983 -0.0362  0.5782  0.1120
15573TIP3   OH246640   7.969   2.197   0.250 -0.0674 -0.0164 -0.3170
15573TIP3    H146641   8.001   2.181   0.161  0.0566 -0.9435 -0.1110
15573TIP3    H246642   8.037   2.249   0.291  0.4956 -0.7122 -0.3537
15574TIP3   OH246643   6.641   1.184   6.066  0.3080  0.0267  0.3088
15574TIP3    H146644   6.592   1.131   6.129  0.3882  0.1316  0.4597
15574TIP3    H246645   6.658   1.266   6.111  1.8743 -0.5330  0.8021
15575TIP3   OH246646   3.909   2.529   6.519 -0.0116 -0.1368 -0.2331
15575TIP3    H146647   3.922   2.579   6.438 -2.7320 -0.4080 -0.9541
15575TIP3    H246648   3.827   2.564   6.555  0.8901 -0.3461  2.1979
15576TIP3   OH246649   2.457   7.462   4.845  0.3635 -0.5652 -0.4342
15576TIP3    H146650   2.527   7.523   4.865  0.2660 -0.4906 -0.3234
15576TIP3    H246651   2.400   7.463   4.922 -1.1528  1.2943 -1.4891
15577TIP3   OH246652   2.895   1.776   0.565  0.1026 -0.3828  0.0610
15577TIP3    H146653   2.897   1.872   0.565 -2.8933 -0.2382  0.6989
15577TIP3    H246654   2.922   1.752   0.654 -0.0647 -0.0874  0.1930
15578TIP3   OH246655   5.391   1.377   4.201  0.6379 -0.4165 -0.4858
15578TIP3    H146656   5.416   1.462   4.239  1.7363 -0.7187 -0.5002
15578TIP3    H246657   5.310   1.395   4.153  0.6176  0.5288 -0.1170
15579TIP3   OH246658   3.195   2.095   3.268  0.5717 -0.3049 -0.0502
15579TIP3    H146659   3.188   2.182   3.307 -0.1358 -0.2382 -0.3133
15579TIP3    H246660   3.138   2.040   3.321 -0.2228 -0.2617 -0.8346
15580TIP3   OH246661   5.906   1.235   5.162  0.5173 -0.5750 -0.1868
15580TIP3    H146662   5.949   1.220   5.078 -0.7458  1.3437 -1.2677
15580TIP3    H246663   5.927   1.326   5.183  0.2061 -0.8073  1.2268
15581TIP3   OH246664   0.922   4.768   3.325 -0.2800  0.2275  0.0721
15581TIP3    H146665   0.872   4.805   3.252  2.1967 -1.2257 -2.5549
15581TIP3    H246666   0.971   4.695   3.287 -0.8340 -2.4191  3.8032
15582TIP3   OH246667   6.924   0.135   4.426  0.6853  0.1303 -0.4885
15582TIP3    H146668   7.008   0.161   4.388  0.9334 -0.6353 -0.4641
15582TIP3    H246669   6.948   0.083   4.503  0.2028 -1.1873 -1.2116
15583TIP3   OH246670   5.030   0.141   3.449 -0.3008 -0.1940  0.4711
15583TIP3    H146671   4.972   0.091   3.393  0.5885 -0.6931 -0.0236
15583TIP3    H246672   5.011   0.110   3.538  0.2434 -1.4308  0.1693
15584TIP3   OH246673   4.852   6.058   1.712 -0.1314  0.0885  0.2401
15584TIP3    H146674   4.841   5.966   1.687 -1.4655 -0.0127  1.0764
15584TIP3    H246675   4.833   6.060   1.806 -2.0617  1.4926 -0.1100
15585TIP3   OH246676   0.898   3.107   3.339 -0.2093 -0.1361 -0.4377
15585TIP3    H146677   0.807   3.106   3.311  0.1630 -1.5592 -1.7033
15585TIP3    H246678   0.948   3.092   3.259  1.2531  2.0714 -0.0450
15586TIP3   OH246679   2.977   6.747   1.506 -0.4013 -0.0756  0.3017
15586TIP3    H146680   3.014   6.821   1.458 -0.8864  0.8166  1.2857
15586TIP3    H246681   2.892   6.777   1.535 -1.0060 -1.3575 -0.0742
15587TIP3   OH246682   6.706   0.099   2.804 -0.0810 -0.3605 -0.7532
15587TIP3    H146683   6.721   0.006   2.817 -1.9442 -0.6866 -0.6439
15587TIP3    H246684   6.612   0.106   2.786 -0.3744  1.6616  1.0852
15588TIP3   OH246685   2.832   4.059   2.001  0.3978 -0.2987 -1.1508
15588TIP3    H146686   2.825   3.986   2.062 -0.0414  1.2665  0.8021
15588TIP3    H246687   2.778   4.034   1.926 -0.5864 -1.5410 -0.0661
15589TIP3   OH246688   5.901   2.655   6.890  0.3813 -0.3725 -0.4503
15589TIP3    H146689   5.918   2.591   6.959  0.0162  0.7269  0.7036
15589TIP3    H246690   5.838   2.716   6.929  1.8729  1.5824 -0.9451
15590TIP3   OH246691   3.362   1.628   3.722 -0.1147  0.3725 -0.3985
15590TIP3    H146692   3.319   1.637   3.807  0.0342 -1.4918 -0.0931
15590TIP3    H246693   3.435   1.689   3.725  0.0592  0.1149  0.9224
15591TIP3   OH246694   5.759   6.250   2.613  0.0047  0.0192  0.0098
15591TIP3    H146695   5.827   6.316   2.606  1.6920 -1.7648 -1.7616
15591TIP3    H246696   5.692   6.277   2.550  0.5268  0.2207 -0.4625
15592TIP3   OH246697   1.436   8.057   4.833 -0.3061 -0.2507 -1.0805
15592TIP3    H146698   1.346   8.059   4.802 -0.1858 -1.6501 -1.5821
15592TIP3    H246699   1.431   8.087   4.923 -1.2963 -0.4284 -1.0641
15593TIP3   OH246700   4.823   5.307   0.572 -0.1556 -0.2779 -0.1095
15593TIP3    H146701   4.785   5.364   0.504 -2.0944 -0.5934  0.6282
15593TIP3    H246702   4.806   5.218   0.541 -1.2461 -0.4282  0.8181
15594TIP3   OH246703   8.435   2.401   1.529  0.0821  0.3884  0.1017
15594TIP3    H146704   8.465   2.315   1.499  1.3228  1.0382 -0.6031
15594TIP3    H246705   8.467   2.462   1.463  1.0132  1.6292  1.5986
15595TIP3   OH246706   1.927   2.757   3.593  0.0321  0.5101  0.1775
15595TIP3    H146707   1.867   2.751   3.520 -0.7048  1.0213  0.7302
15595TIP3    H246708   1.914   2.845   3.628 -0.0816  0.0624  1.3045
15596TIP3   OH246709   6.642   7.474   4.358 -0.1747  0.2945  0.3818
15596TIP3    H146710   6.620   7.451   4.267 -0.5368  0.4717  0.4231
15596TIP3    H246711   6.691   7.556   4.351 -1.3373  1.0091  0.4348
15597TIP3   OH246712   7.749   0.206   2.007  0.1622  0.1510  0.0888
15597TIP3    H146713   7.740   0.118   1.972 -1.6261  0.9410 -1.6573
15597TIP3    H246714   7.826   0.242   1.964  0.4478 -0.3121  0.2173
15598TIP3   OH246715   0.870   4.659   6.897  0.1737 -0.4049 -0.4386
15598TIP3    H146716   0.949   4.705   6.928 -0.3137 -1.0581  1.9634
15598TIP3    H246717   0.813   4.729   6.867  1.8116  0.0577 -2.7274
15599TIP3   OH246718   6.675   0.302   3.842 -0.6408  0.4428 -0.2339
15599TIP3    H146719   6.656   0.316   3.750  0.8095 -1.0174 -0.8167
15599TIP3    H246720   6.762   0.260   3.843 -0.1177  1.4012  1.8514
15600TIP3   OH246721   8.606   7.161   1.647  0.0856 -0.1644 -0.7107
15600TIP3    H146722   8.540   7.206   1.594  0.2681  0.6334 -0.2602
15600TIP3    H246723   8.567   7.155   1.734  0.8467  0.8623 -0.2825
15601TIP3   OH246724   7.868   7.237   5.489  0.2439 -0.1482  0.5330
15601TIP3    H146725   7.774   7.244   5.478  0.5306  1.9547 -1.2802
15601TIP3    H246726   7.885   7.265   5.579 -0.9100 -1.6888  1.2658
15602TIP3   OH246727   3.888   5.010   6.416  0.0120 -0.5591  0.5557
15602TIP3    H146728   3.941   4.953   6.360 -0.6830 -1.0010  0.3255
15602TIP3    H246729   3.918   5.099   6.396  0.5754 -0.7935  0.3473
15603TIP3   OH246730   1.739   2.800   5.899  0.0421  0.2842  0.0616
15603TIP3    H146731   1.752   2.883   5.945  2.5367  0.3154 -0.5542
15603TIP3    H246732   1.683   2.749   5.958 -1.2218  2.2057  0.6382
15604TIP3   OH246733   5.952   7.167   0.249  0.2219 -1.1358 -0.0921
15604TIP3    H146734   5.937   7.090   0.303 -1.4566 -0.8567 -0.0947
15604TIP3    H246735   5.961   7.239   0.311 -2.2148 -0.7316 -0.1054
15605TIP3   OH246736   1.854   7.670   4.818  0.4046 -0.3466  0.0561
15605TIP3    H146737   1.839   7.626   4.902 -2.1751 -1.7440 -1.0169
15605TIP3    H246738   1.799   7.622   4.756  0.7144  1.8602 -2.0603
15606TIP3   OH246739   1.591   0.783   1.913  0.8057  0.7437 -0.2863
15606TIP3    H146740   1.673   0.767   1.959  1.5647  2.5658 -0.9272
15606TIP3    H246741   1.529   0.721   1.953  2.1494  0.2473  1.1309
15607TIP3   OH246742   7.847   1.950   5.046 -0.0480 -0.3663 -0.4034
15607TIP3    H146743   7.906   1.949   5.121 -2.0018  1.2729  1.2997
15607TIP3    H246744   7.897   1.909   4.975  2.3984 -0.7153  1.3854
15608TIP3   OH246745   3.164   5.651   3.272 -0.0234  0.2039 -0.1209
15608TIP3    H146746   3.224   5.663   3.198 -0.9023  0.0187 -0.8779
15608TIP3    H246747   3.216   5.676   3.348  0.3420  2.1757 -0.9506
15609TIP3   OH246748   2.019   7.623   2.701  0.5011  0.3059 -0.0544
15609TIP3    H146749   2.007   7.546   2.756  2.2441 -0.6975 -0.9913
15609TIP3    H246750   2.085   7.675   2.747  0.9331  0.1501 -0.4893
15610TIP3   OH246751   7.322   5.604   4.285  0.0332  0.7234 -0.0781
15610TIP3    H146752   7.247   5.560   4.324 -0.2291 -0.1355 -1.4853
15610TIP3    H246753   7.360   5.539   4.227  1.5174  1.3526  0.1429
15611TIP3   OH246754   0.460   0.077   4.072 -0.1386 -0.4150 -0.0454
15611TIP3    H146755   0.538   0.124   4.042 -0.3743 -1.1312 -1.9182
15611TIP3    H246756   0.404   0.145   4.109  0.3569  0.4930 -0.8938
15612TIP3   OH246757   0.485   5.162   1.671  0.0500 -0.6308  0.0599
15612TIP3    H146758   0.507   5.075   1.704  2.4292 -0.2679 -0.4074
15612TIP3    H246759   0.443   5.206   1.745 -0.5730 -1.9439  0.5062
15613TIP3   OH246760   6.941   7.333   3.597  0.5165  0.0776  0.4857
15613TIP3    H146761   6.886   7.409   3.580  0.4688 -0.1387 -0.4103
15613TIP3    H246762   7.016   7.344   3.538  1.0294 -0.0369  1.1104
15614TIP3   OH246763   6.389   3.768   6.822 -0.5252 -0.0130 -0.1782
15614TIP3    H146764   6.386   3.702   6.752 -1.0772  0.6377 -0.7859
15614TIP3    H246765   6.315   3.826   6.803 -0.3225  0.5181  0.6155
15615TIP3   OH246766   5.640   2.157   0.919  0.0096 -0.3825 -0.4085
15615TIP3    H146767   5.574   2.089   0.906 -0.2629 -0.5588  1.5597
15615TIP3    H246768   5.593   2.226   0.965  1.0984 -0.3725  0.7255
15616TIP3   OH246769   1.232   4.722   3.893  0.2160 -0.4647  0.3561
15616TIP3    H146770   1.209   4.807   3.856  2.8601 -0.0284 -0.4871
15616TIP3    H246771   1.188   4.658   3.837 -0.6843  0.3112  0.1634
15617TIP3   OH246772   2.968   4.532   2.147 -0.3899  0.4799  0.0724
15617TIP3    H146773   2.873   4.526   2.145 -0.5007  1.6054 -2.4553
15617TIP3    H246774   2.997   4.479   2.072  1.0546 -0.4554  1.2267
15618TIP3   OH246775   1.916   6.946   1.061  0.1268  0.2270 -0.0799
15618TIP3    H146776   1.937   7.012   1.127 -0.0305 -1.5808  1.8929
15618TIP3    H246777   1.949   6.864   1.098 -0.5083 -0.9616 -1.9989
15619TIP3   OH246778   7.573   4.476   0.203  0.2787  0.0493 -0.2982
15619TIP3    H146779   7.502   4.540   0.202  0.2714  0.0511 -1.4960
15619TIP3    H246780   7.652   4.528   0.192  0.2718 -0.1224 -1.3004
15620TIP3   OH246781   5.463   7.028   1.155  0.0128  0.2305 -0.2213
15620TIP3    H146782   5.397   7.084   1.195  0.1482  0.4495 -0.3033
15620TIP3    H246783   5.423   6.941   1.153  0.4282 -0.0305  1.4250
15621TIP3   OH246784   8.635   6.972   5.984 -0.4863 -0.5364 -0.2404
15621TIP3    H146785   8.557   6.999   6.033 -0.5556  0.6364 -0.9648
15621TIP3    H246786   8.695   7.045   5.993 -0.1703 -0.6650 -1.1911
15622TIP3   OH246787   6.242   4.644   4.018 -0.1021 -0.1617  0.2244
15622TIP3    H146788   6.210   4.561   4.052 -2.7272  0.5958 -0.1493
15622TIP3    H246789   6.296   4.620   3.942  1.2539 -1.5748  1.5796
15623TIP3   OH246790   6.803   3.208   1.026  0.3728 -0.3329  0.2298
15623TIP3    H146791   6.890   3.206   0.986  0.2428  0.5292 -0.1126
15623TIP3    H246792   6.792   3.121   1.065  0.7651 -0.9715 -1.0485
15624TIP3   OH246793   1.415   1.868   6.951 -0.2981  0.0240 -0.0219
15624TIP3    H146794   1.408   1.960   6.975  0.6799  1.2299 -3.7423
15624TIP3    H246795   1.386   1.864   6.860 -0.5031 -3.4233  0.0537
15625TIP3   OH246796   3.927   4.147   4.211 -0.2663  0.0690  0.5844
15625TIP3    H146797   3.868   4.094   4.156  0.8273  1.6591 -2.3838
15625TIP3    H246798   3.910   4.237   4.183  0.6775  0.9557  2.6786
15626TIP3   OH246799   3.861   8.016   0.841 -0.2083  0.4201 -0.3307
15626TIP3    H146800   3.833   7.930   0.812 -0.5022  0.2938  0.3071
15626TIP3    H246801   3.939   7.999   0.894 -0.2416  0.5486 -0.2402
15627TIP3   OH246802   4.002   4.801   6.762  0.3331 -0.5560 -0.1825
15627TIP3    H146803   4.052   4.723   6.788  0.0445 -0.2808  1.3148
15627TIP3    H246804   3.914   4.768   6.746  0.3506 -0.6350 -0.1198
15628TIP3   OH246805   7.575   4.815   0.438 -0.8126 -0.2993 -0.1241
15628TIP3    H146806   7.514   4.742   0.424 -2.0253  0.4625  1.0450
15628TIP3    H246807   7.535   4.889   0.392  0.1760 -0.2189 -0.9011
15629TIP3   OH246808   4.457   3.324   3.138  0.2426 -0.5296 -0.5239
15629TIP3    H146809   4.448   3.264   3.064  0.9831 -1.2598 -0.0346
15629TIP3    H246810   4.438   3.410   3.101  1.2843 -0.7826 -1.7362
15630TIP3   OH246811   8.437   8.142   1.216  0.1869 -0.3004 -0.1306
15630TIP3    H146812   8.430   8.171   1.307  2.5891 -0.0981  0.0395
15630TIP3    H246813   8.505   8.074   1.218  0.2022 -0.3618 -1.7613
15631TIP3   OH246814   4.343   8.047   6.254 -0.0822  0.4653 -0.2730
15631TIP3    H146815   4.331   8.131   6.298  2.3473  1.1631 -0.7869
15631TIP3    H246816   4.388   7.992   6.319  1.3677  0.7210 -1.0090
15632TIP3   OH246817   1.437   1.180   6.872  0.1308  0.2112  0.1921
15632TIP3    H146818   1.516   1.131   6.849  0.6416  0.1200  2.0005
15632TIP3    H246819   1.369   1.144   6.815  1.1962 -0.2649 -0.8378
15633TIP3   OH246820   1.590   0.939   4.739  0.3785 -0.5072 -0.4884
15633TIP3    H146821   1.637   0.964   4.659  1.6581  0.9133  0.6433
15633TIP3    H246822   1.551   1.021   4.770 -2.5749 -1.5531 -1.1356
15634TIP3   OH246823   3.219   5.001   2.249  0.2113 -0.0953 -0.1597
15634TIP3    H146824   3.162   4.927   2.229  0.3542 -0.6366  1.3827
15634TIP3    H246825   3.159   5.072   2.274  0.1774 -0.5657  1.1420
15635TIP3   OH246826   3.615   1.426   0.965 -0.0478 -0.7487  0.0715
15635TIP3    H146827   3.643   1.458   0.880  0.3118  2.0098  1.1147
15635TIP3    H246828   3.695   1.391   1.005  0.5522  0.9438  0.4568
15636TIP3   OH246829   8.185   0.783   2.209 -0.2704  0.2213  0.3243
15636TIP3    H146830   8.207   0.817   2.296  1.1353 -1.1021  0.5247
15636TIP3    H246831   8.218   0.694   2.210  0.7484  0.5206 -1.9480
15637TIP3   OH246832   5.563   7.684   2.914 -0.2981  0.1292  0.6362
15637TIP3    H146833   5.641   7.651   2.870  0.1501 -1.1918  2.2881
15637TIP3    H246834   5.552   7.773   2.881  0.8858 -0.2675 -0.9196
15638TIP3   OH246835   5.705   1.712   4.593 -0.3695 -0.2713  0.2896
15638TIP3    H146836   5.659   1.766   4.530 -0.0771 -0.5547 -0.1729
15638TIP3    H246837   5.717   1.769   4.669 -0.9712 -0.0181  0.2036
15639TIP3   OH246838   8.056   0.643   0.929  0.4313 -0.2196 -0.0871
15639TIP3    H146839   8.058   0.574   0.863 -0.3230 -0.6123  0.2867
15639TIP3    H246840   8.067   0.724   0.880 -0.6910 -0.4634 -0.7751
15640TIP3   OH246841   2.337   1.349   1.474  0.2440 -0.0619 -0.0391
15640TIP3    H146842   2.328   1.397   1.391 -0.0543  0.7496  0.4491
15640TIP3    H246843   2.317   1.414   1.541 -0.6938 -1.0008  0.6247
15641TIP3   OH246844   1.809   0.204   2.070  0.0455  0.5155 -0.2236
15641TIP3    H146845   1.785   0.258   2.145  1.9841 -2.7072  3.0797
15641TIP3    H246846   1.898   0.232   2.048 -0.8146  2.0106 -1.9989
15642TIP3   OH246847   6.403   7.994   0.056  0.2211  0.3098  0.2304
15642TIP3    H146848   6.387   7.916   0.109 -1.0517  0.5338  0.1876
15642TIP3    H246849   6.379   7.967  -0.033 -2.1051  1.2855  0.4982
15643TIP3   OH246850   7.263   2.430   0.811  0.1986  0.6346  0.4416
15643TIP3    H146851   7.238   2.386   0.730 -0.3762 -0.9306  1.4241
15643TIP3    H246852   7.246   2.365   0.879  1.0246  1.7825  1.7810
15644TIP3   OH246853   4.086   5.553   1.261  0.4331  0.4929  0.5719
15644TIP3    H146854   4.147   5.627   1.259 -0.2287  1.0410 -0.1339
15644TIP3    H246855   4.073   5.534   1.354  4.0900 -1.7192  0.8229
15645TIP3   OH246856   3.689   0.730   2.578 -0.1594 -0.3039 -0.1517
15645TIP3    H146857   3.593   0.735   2.581 -0.2097 -1.0939 -0.2675
15645TIP3    H246858   3.708   0.638   2.565  0.6396 -0.2781  0.6825
15646TIP3   OH246859   6.553   6.238   5.867 -0.0221 -0.1288  0.4569
15646TIP3    H146860   6.576   6.197   5.950  0.8511  0.8104  0.6981
15646TIP3    H246861   6.621   6.304   5.853 -0.3007 -0.0828 -0.8733
15647TIP3   OH246862   7.686   1.910   4.591 -0.6118  0.6465  0.3681
15647TIP3    H146863   7.699   2.002   4.571  0.0494  0.5418  0.2993
15647TIP3    H246864   7.680   1.867   4.505  0.0469  0.4959  0.3935
15648TIP3   OH246865   6.751   7.644   0.964  0.6560  0.3197  0.1931
15648TIP3    H146866   6.824   7.583   0.968 -0.4527 -0.9886  1.3801
15648TIP3    H246867   6.712   7.642   1.051  1.7148  4.2556  0.9712
15649TIP3   OH246868   0.091   1.929   6.835  0.0530 -0.2031 -0.1313
15649TIP3    H146869   0.094   2.024   6.836  1.5712 -0.2410 -0.1578
15649TIP3    H246870   0.182   1.901   6.826 -0.2860 -1.6647  0.5789
15650TIP3   OH246871   1.691   5.452   4.669 -0.4311 -0.8434 -0.1090
15650TIP3    H146872   1.701   5.419   4.759 -1.7268  1.3241  0.9023
15650TIP3    H246873   1.774   5.429   4.627  0.4091 -1.5106  1.7664
15651TIP3   OH246874   3.336   7.727   3.207  0.1670 -0.1184  0.0851
15651TIP3    H146875   3.298   7.743   3.120  0.4983 -0.1422 -0.0641
15651TIP3    H246876   3.349   7.814   3.244 -0.8227 -0.1240  0.4837
15652TIP3   OH246877   1.955   4.393   0.193  0.4227 -0.2651  0.3873
15652TIP3    H146878   2.029   4.403   0.253  1.2654 -3.0119 -0.0165
15652TIP3    H246879   1.880   4.377   0.249  0.6571 -0.0411  0.7663
15653TIP3   OH246880   5.527   0.734   0.131 -0.5812 -0.0921 -0.1879
15653TIP3    H146881   5.440   0.721   0.093 -0.9200 -0.9959  0.8428
15653TIP3    H246882   5.587   0.703   0.064 -1.1321 -0.9320 -0.3090
15654TIP3   OH246883   1.225   7.041   1.100 -0.1933 -0.1758  0.7518
15654TIP3    H146884   1.136   7.074   1.117 -0.1556 -0.2523  1.1109
15654TIP3    H246885   1.279   7.120   1.096  0.0523 -0.2157  2.5337
15655TIP3   OH246886   5.803   7.900   5.318  0.1982 -0.4684 -0.2831
15655TIP3    H146887   5.814   7.877   5.226 -1.8222  1.1915 -0.9991
15655TIP3    H246888   5.815   7.995   5.322 -2.5035 -0.0786  0.6136
15656TIP3   OH246889   4.613   1.731   2.702 -0.7485  0.3927 -0.9210
15656TIP3    H146890   4.563   1.688   2.633 -0.6743 -0.7953 -0.2501
15656TIP3    H246891   4.705   1.714   2.679 -0.7263 -0.1038 -0.4753
15657TIP3   OH246892   1.870   1.850   4.667 -0.4053  0.0373  0.0025
15657TIP3    H146893   1.785   1.839   4.709  0.5624 -0.9592  1.7942
15657TIP3    H246894   1.880   1.945   4.656 -1.3343  0.2113  0.6232
15658TIP3   OH246895   4.712   6.642   0.930  0.2201 -0.6067 -0.3407
15658TIP3    H146896   4.630   6.608   0.965  1.1411 -0.9005  1.7046
15658TIP3    H246897   4.745   6.572   0.874 -0.5900 -0.7596 -0.6373
15659TIP3   OH246898   7.858   5.574   2.818 -0.0061  0.1383 -0.0827
15659TIP3    H146899   7.909   5.655   2.812  0.7030 -0.3068 -0.1799
15659TIP3    H246900   7.770   5.603   2.841  0.0812  0.9893 -0.7654
15660TIP3   OH246901   1.621   3.237   1.932 -0.6073 -0.5162 -0.5046
15660TIP3    H146902   1.557   3.218   1.865 -0.9132 -0.9784 -0.0851
15660TIP3    H246903   1.700   3.189   1.905 -0.2949  0.3749 -1.2311
15661TIP3   OH246904   4.234   4.782   3.375 -0.0450 -0.1025 -0.0654
15661TIP3    H146905   4.298   4.759   3.442 -0.9506  0.1087  0.8976
15661TIP3    H246906   4.187   4.700   3.358 -0.9977  0.2237  0.8789
15662TIP3   OH246907   4.868   1.095   1.331 -0.4653  0.1164  0.0003
15662TIP3    H146908   4.872   1.003   1.355 -2.6273  0.3591  1.6254
15662TIP3    H246909   4.906   1.141   1.406  1.3060  0.5681 -1.1194
15663TIP3   OH246910   7.607   7.597   3.017  0.1052 -0.4822  0.1919
15663TIP3    H146911   7.666   7.523   3.022  0.8231 -0.1377 -2.0265
15663TIP3    H246912   7.526   7.561   2.979  0.9674  0.0283 -2.3551
15664TIP3   OH246913   4.809   6.656   5.347 -0.3511 -0.4075  0.1930
15664TIP3    H146914   4.843   6.580   5.301  0.6984 -0.1345  0.4849
15664TIP3    H246915   4.846   6.650   5.435  0.2255  0.7225  0.0552
15665TIP3   OH246916   4.630   5.361   3.256  0.4539  0.1982 -1.0491
15665TIP3    H146917   4.658   5.278   3.218 -1.3554 -0.2439 -1.5171
15665TIP3    H246918   4.580   5.336   3.334  0.8889  0.9213 -0.5248
15666TIP3   OH246919   4.610   0.232   4.602 -0.0740 -0.0489  0.3196
15666TIP3    H146920   4.597   0.220   4.696  0.3235  0.6031  0.4695
15666TIP3    H246921   4.523   0.224   4.565 -0.3882  0.6742  0.8710
15667TIP3   OH246922   4.109   3.346   5.044  0.1644  0.0460 -0.0517
15667TIP3    H146923   4.090   3.417   4.983 -1.9420 -0.4078 -0.0029
15667TIP3    H246924   4.118   3.389   5.129 -2.1028  0.2401  0.1586
15668TIP3   OH246925   3.143   5.975   2.155  0.2571 -0.4558 -0.3115
15668TIP3    H146926   3.209   6.038   2.184  0.1072 -0.1485 -0.6367
15668TIP3    H246927   3.142   5.909   2.224 -1.3974  1.1960  1.3657
15669TIP3   OH246928   6.979   2.755   3.615  0.1589  0.1742  0.0656
15669TIP3    H146929   7.042   2.765   3.544  2.1484 -0.7072  1.6000
15669TIP3    H246930   6.981   2.662   3.636 -1.4539  0.1840  0.3812
15670TIP3   OH246931   6.660   5.938   2.869  0.1930 -0.0387  0.0123
15670TIP3    H146932   6.613   5.981   2.940  0.0938  0.4347 -0.3333
15670TIP3    H246933   6.617   5.853   2.860 -1.9485  1.0835 -1.5729
15671TIP3   OH246934   7.195   6.094   3.211  0.1389 -0.3556  0.1276
15671TIP3    H146935   7.270   6.071   3.266  0.7952 -0.1650 -0.6664
15671TIP3    H246936   7.121   6.051   3.253  1.0407 -2.4836 -0.3208
15672TIP3   OH246937   3.033   0.070   2.928  1.1232  0.0891  0.1573
15672TIP3    H146938   3.029  -0.021   2.958 -0.7388 -0.4777 -1.6097
15672TIP3    H246939   2.963   0.114   2.978  1.4300  0.3494  0.3599
15673TIP3   OH246940   8.060   1.802   5.672  0.3254  0.1268  0.4173
15673TIP3    H146941   8.097   1.739   5.611  0.1033  0.6752 -0.3062
15673TIP3    H246942   8.075   1.765   5.758  0.4268 -0.7844  0.0139
15674TIP3   OH246943   4.178   4.709   3.054  0.2191  0.3342  0.0900
15674TIP3    H146944   4.182   4.614   3.061 -0.5735  0.0995 -2.0247
15674TIP3    H246945   4.099   4.733   3.102  0.0948 -0.1395  0.1244
15675TIP3   OH246946   4.074   6.088   4.838 -0.1965  0.7668 -0.6758
15675TIP3    H146947   4.146   6.040   4.798  1.7787 -0.1650  3.3996
15675TIP3    H246948   4.110   6.175   4.857  0.5322 -0.0735  2.4598
15676TIP3   OH246949   1.313   4.777   0.304 -0.0256 -0.0607  0.5917
15676TIP3    H146950   1.283   4.858   0.345 -0.5370 -0.2477  0.6043
15676TIP3    H246951   1.239   4.717   0.314  0.8691 -0.9875  1.8475
15677TIP3   OH246952   8.534   2.752   4.668  0.3150  0.0283  0.8987
15677TIP3    H146953   8.555   2.692   4.597 -1.2690  1.4132 -0.8383
15677TIP3    H246954   8.489   2.698   4.733  0.7325 -1.0309  0.3224
15678TIP3   OH246955   3.511   7.060   1.759  0.3551 -0.7502 -0.4396
15678TIP3    H146956   3.515   7.057   1.854 -0.8706 -0.4434 -0.3701
15678TIP3    H246957   3.600   7.081   1.732  0.7994 -1.2088  0.6151
15679TIP3   OH246958   4.256   8.096   1.220  0.2477 -0.7230 -0.2525
15679TIP3    H146959   4.291   8.049   1.295  0.0987 -1.4560 -0.6347
15679TIP3    H246960   4.221   8.177   1.257  2.9721  0.3932  0.0502
15680TIP3   OH246961   3.850   5.180   5.190 -0.3807 -0.0295  0.0924
15680TIP3    H146962   3.771   5.127   5.186 -0.9455  0.7696  0.2628
15680TIP3    H246963   3.819   5.265   5.223 -0.0488  1.4126 -2.9800
15681TIP3   OH246964   6.576   0.219   0.747 -0.5754 -0.7363  0.5846
15681TIP3    H146965   6.638   0.152   0.717 -1.2156 -0.7296 -0.8303
15681TIP3    H246966   6.631   0.284   0.791  0.0456 -2.1999  2.0433
15682TIP3   OH246967   7.700   4.067   3.595 -0.1249 -0.2427  0.1573
15682TIP3    H146968   7.748   4.025   3.666  1.6962  2.4686  0.6873
15682TIP3    H246969   7.763   4.073   3.523 -1.1231 -0.6188 -0.7822
15683TIP3   OH246970   4.011   5.028   3.518  0.8230  0.4966  0.5627
15683TIP3    H146971   4.046   4.956   3.466  0.2001  0.4773  0.1539
15683TIP3    H246972   4.069   5.034   3.593 -0.2384 -1.7748  1.6782
15684TIP3   OH246973   7.314   7.416   0.836 -0.4226 -0.1063  0.2442
15684TIP3    H146974   7.322   7.332   0.791 -3.6246  0.4501 -1.6160
15684TIP3    H246975   7.275   7.394   0.921 -0.0595 -0.5944  0.2895
15685TIP3   OH246976   1.680   3.772   1.254  0.0175 -0.0041  0.3173
15685TIP3    H146977   1.752   3.743   1.311  0.3249 -1.3740 -0.7151
15685TIP3    H246978   1.723   3.793   1.171 -0.4623  1.7371  0.4523
15686TIP3   OH246979   6.199   3.216   6.247  0.6751  0.3299 -0.1738
15686TIP3    H146980   6.273   3.155   6.252 -0.6513 -1.2854  3.4401
15686TIP3    H246981   6.123   3.160   6.230 -0.1281  1.4859 -0.4862
15687TIP3   OH246982   4.731   0.895   5.530  0.1556 -0.2059  0.2947
15687TIP3    H146983   4.808   0.906   5.586  1.6236 -0.7841 -1.5233
15687TIP3    H246984   4.763   0.849   5.453 -2.0974 -0.7530 -0.4035
15688TIP3   OH246985   8.576   0.958   1.078 -0.0666 -0.1204 -0.1414
15688TIP3    H146986   8.540   1.030   1.026  0.6844 -0.4372 -1.1399
15688TIP3    H246987   8.671   0.964   1.066  0.0841 -0.6006  0.6803
15689TIP3   OH246988   7.569   3.982   1.540  0.0622  0.1913  0.5383
15689TIP3    H146989   7.559   4.010   1.449 -1.2028  2.3408  1.2653
15689TIP3    H246990   7.486   3.940   1.561  0.2773 -0.1192  0.7835
15690TIP3   OH246991   7.110   0.962   1.462  0.3930  0.0012 -1.0320
15690TIP3    H146992   7.135   0.872   1.483  1.2409  0.3544 -0.4745
15690TIP3    H246993   7.126   1.010   1.543 -1.6292  0.3672 -0.7987
15691TIP3   OH246994   7.198   7.549   6.932  0.2483 -0.7527 -0.1037
15691TIP3    H146995   7.266   7.507   6.880  0.4936 -0.3424 -0.1218
15691TIP3    H246996   7.181   7.632   6.887 -2.1887 -1.9617 -1.6597
15692TIP3   OH246997   6.648   8.050   2.835  0.1685  0.1968  0.0604
15692TIP3    H146998   6.606   8.064   2.749 -0.8999 -0.2290  0.5002
15692TIP3    H246999   6.741   8.054   2.816 -0.0533  0.7166 -1.0322
15693TIP3   OH247000   4.458   6.112   5.915  0.4845 -0.0528 -0.1085
15693TIP3    H147001   4.508   6.048   5.865 -3.9621 -3.0984 -1.2170
15693TIP3    H247002   4.450   6.187   5.856  0.4743 -1.1042 -1.5095
15694TIP3   OH247003   5.074   7.051   0.998 -0.1294 -0.6047 -0.1255
15694TIP3    H147004   5.032   7.054   1.084  0.3537 -2.5815  0.2299
15694TIP3    H247005   5.066   7.141   0.965 -1.8505 -0.1849  1.2255
15695TIP3   OH247006   7.889   6.003   3.067 -0.1860  0.0148  0.2202
15695TIP3    H147007   7.858   6.093   3.053  0.9915  0.4073  0.0177
15695TIP3    H247008   7.850   5.977   3.150  0.6060  1.2607  1.0223
15696TIP3   OH247009   6.606   6.482   1.866  0.3414  0.1252 -0.3693
15696TIP3    H147010   6.682   6.541   1.866  0.3657  0.0999  0.2621
15696TIP3    H247011   6.593   6.460   1.958  1.2380 -2.0088 -0.6958
15697TIP3   OH247012   6.115   1.408   5.818  0.1822 -0.5108  0.3294
15697TIP3    H147013   6.094   1.476   5.883  0.6018  0.5950 -0.6559
15697TIP3    H247014   6.030   1.376   5.788 -0.0189 -0.3317  0.7035
15698TIP3   OH247015   0.734   4.774   2.107  0.4993  0.2382  0.1163
15698TIP3    H147016   0.819   4.746   2.141 -0.4498 -0.2814  2.2351
15698TIP3    H247017   0.691   4.692   2.081  0.4427  0.4505 -0.4751
15699TIP3   OH247018   7.277   3.939   4.986 -0.0105  0.3609 -0.1464
15699TIP3    H147019   7.361   3.922   4.944  0.2368  0.5715  0.2603
15699TIP3    H247020   7.270   3.873   5.055  0.6428  1.4236  0.9882
15700TIP3   OH247021   0.304   5.226   0.897 -0.3393  0.3678  0.6363
15700TIP3    H147022   0.281   5.193   0.810  0.1535  0.1579  0.5818
15700TIP3    H247023   0.310   5.321   0.885 -1.1563  0.4284  0.6542
15701TIP3   OH247024   4.105   0.865   4.409  0.5504 -0.0626 -0.2528
15701TIP3    H147025   4.089   0.939   4.350 -0.8034 -0.4517 -0.4079
15701TIP3    H247026   4.124   0.792   4.350  0.1240 -0.2319 -0.1891
15702TIP3   OH247027   2.014   4.881   2.361  0.2430 -0.3152 -0.6075
15702TIP3    H147028   2.039   4.943   2.293 -0.0333 -1.4003 -1.7362
15702TIP3    H247029   2.097   4.847   2.395  0.3882  0.4863 -0.1538
15703TIP3   OH247030   5.345   4.666   0.171 -0.2501  0.5297  0.4934
15703TIP3    H147031   5.294   4.678   0.251  0.0344  2.0731  0.4768
15703TIP3    H247032   5.328   4.576   0.145 -1.3692  0.3988  1.5820
15704TIP3   OH247033   0.773   7.544   2.856 -0.6536 -0.0247  0.4041
15704TIP3    H147034   0.836   7.480   2.823 -0.4571  0.0671  0.5988
15704TIP3    H247035   0.805   7.568   2.943 -1.6378 -0.8950  1.0315
15705TIP3   OH247036   6.146   7.541   3.666 -0.4792  0.3303  0.4849
15705TIP3    H147037   6.135   7.611   3.730 -1.0017 -0.6167  1.4440
15705TIP3    H247038   6.228   7.498   3.690 -0.8300 -0.2194  0.7195
15706TIP3   OH247039   3.769   6.171   2.938  0.3526  0.4160 -0.3044
15706TIP3    H147040   3.765   6.109   2.865 -2.5146  1.5999 -1.2972
15706TIP3    H247041   3.771   6.257   2.897  1.5990  1.0744  1.0513
15707TIP3   OH247042   8.246   7.571   0.017 -0.1450 -0.1869 -0.2657
15707TIP3    H147043   8.244   7.652   0.068 -1.4659  0.6352 -1.5371
15707TIP3    H247044   8.333   7.569  -0.022  0.3851 -0.1142  0.8702
15708TIP3   OH247045   4.889   0.314   6.483 -0.0856 -0.0037 -0.7560
15708TIP3    H147046   4.970   0.360   6.457 -0.0506  0.1587 -0.3658
15708TIP3    H247047   4.897   0.228   6.443  0.8946 -0.4462  0.3466
15709TIP3   OH247048   1.790   1.412   4.488 -0.5569 -0.8294  0.3697
15709TIP3    H147049   1.761   1.500   4.466 -0.9882 -0.6407  1.6023
15709TIP3    H247050   1.712   1.358   4.482  0.0372 -1.5077 -2.0905
15710TIP3   OH247051   3.108   0.841   6.087 -0.0916 -0.0443  0.2161
15710TIP3    H147052   3.107   0.811   6.178 -1.3797 -1.2414 -0.1653
15710TIP3    H247053   3.099   0.936   6.092 -2.1838 -0.2484  1.3066
15711TIP3   OH247054   5.772   6.872   7.054  0.0613 -0.0187 -0.4437
15711TIP3    H147055   5.825   6.796   7.030  0.6473  0.8158 -1.9508
15711TIP3    H247056   5.834   6.934   7.092 -0.2490  0.0694 -0.0751
15712TIP3   OH247057   8.616   5.797   4.033 -0.1437 -0.4809  0.2257
15712TIP3    H147058   8.536   5.786   3.981  0.2694 -0.7558 -0.3575
15712TIP3    H247059   8.586   5.842   4.112 -1.2692 -2.4964  1.0264
15713TIP3   OH247060   4.130   3.307   1.299 -0.3169 -0.2178  0.8143
15713TIP3    H147061   4.149   3.233   1.242  2.0995  0.5056  0.5985
15713TIP3    H247062   4.115   3.267   1.385 -0.2522 -1.0342  0.4539
15714TIP3   OH247063   7.235   4.427   4.267 -0.5815 -0.0200 -0.2388
15714TIP3    H147064   7.290   4.399   4.193  0.2923  0.3034  0.2775
15714TIP3    H247065   7.294   4.477   4.323 -1.1886 -0.4297  0.7858
15715TIP3   OH247066   4.431   0.725   0.399  0.3302  0.2003 -0.5618
15715TIP3    H147067   4.511   0.680   0.427  0.1990  1.5289  2.3720
15715TIP3    H247068   4.361   0.667   0.427  0.2194  1.1906  1.4058
15716TIP3   OH247069   7.263   0.379   1.847  0.2784 -0.6742 -0.1466
15716TIP3    H147070   7.357   0.364   1.844  0.2081 -1.0395 -0.7658
15716TIP3    H247071   7.228   0.306   1.898  0.5575  0.7645  2.2757
15717TIP3   OH247072   2.839   5.109   0.856 -0.2939 -0.2258  0.1346
15717TIP3    H147073   2.786   5.060   0.793 -0.8923 -0.2931  0.6760
15717TIP3    H247074   2.922   5.063   0.858 -0.7619 -1.0851  0.4526
15718TIP3   OH247075   8.698   7.588   2.691 -0.6719 -0.0721  0.5291
15718TIP3    H147076   8.706   7.648   2.765 -1.7814  0.3015  0.3646
15718TIP3    H247077   8.675   7.643   2.617 -2.9671 -0.7775  0.6348
15719TIP3   OH247078   4.614   2.763   5.590 -1.0770 -0.5243 -0.6991
15719TIP3    H147079   4.678   2.831   5.611 -1.8786  0.4647 -1.3450
15719TIP3    H247080   4.664   2.682   5.591  0.0920  0.1685 -0.7593
15720TIP3   OH247081   5.999   7.631   5.889 -0.3514 -0.0820 -0.1999
15720TIP3    H147082   5.994   7.554   5.945 -0.6637  0.3082  0.3092
15720TIP3    H247083   5.909   7.662   5.881 -0.5614 -0.9992 -2.1531
15721TIP3   OH247084   8.349   6.675   3.740  0.4040  0.1696  0.2672
15721TIP3    H147085   8.305   6.693   3.656 -1.7584 -0.1795  1.2591
15721TIP3    H247086   8.397   6.594   3.725  1.1725  0.8094 -0.9962
15722TIP3   OH247087   3.510   6.027   1.365  0.6853 -0.3946  0.0322
15722TIP3    H147088   3.449   6.083   1.318  1.5453 -0.0433 -0.6772
15722TIP3    H247089   3.564   5.987   1.297  1.7353 -0.1203  0.6834
15723TIP3   OH247090   8.582   0.146   6.770 -0.0924 -1.0853  0.0867
15723TIP3    H147091   8.588   0.153   6.866 -2.3870 -0.8075  0.2652
15723TIP3    H247092   8.489   0.135   6.753  0.1048  0.3200 -2.2421
15724TIP3   OH247093   4.255   2.749   2.715 -0.3650 -0.2473  0.2097
15724TIP3    H147094   4.292   2.754   2.804 -2.2511 -1.6453  1.1293
15724TIP3    H247095   4.263   2.657   2.691 -1.1879 -0.1457 -0.4831
15725TIP3   OH247096   3.367   3.545   3.448 -0.1092  0.7023  0.6410
15725TIP3    H147097   3.278   3.509   3.443 -0.4115  1.3120  1.4427
15725TIP3    H247098   3.354   3.639   3.454  0.5572  0.7570  1.4031
15726TIP3   OH247099   6.164   1.013   1.919 -0.0898 -0.0197 -0.6389
15726TIP3    H147100   6.168   1.104   1.891 -2.3423  0.4853  0.4656
15726TIP3    H247101   6.152   1.016   2.013  0.5372 -1.5022 -0.4750
15727TIP3   OH247102   3.327   0.472   0.588  0.3108  0.1719 -0.3434
15727TIP3    H147103   3.335   0.567   0.591 -0.4843  0.2305  2.1795
15727TIP3    H247104   3.301   0.447   0.677  0.2220 -2.3852 -1.0056
15728TIP3   OH247105   1.495   8.072   2.016  0.3039  0.4659 -0.3992
15728TIP3    H147106   1.552   8.047   1.944  1.4807  1.9571 -0.0370
15728TIP3    H247107   1.412   8.094   1.975  0.4926 -0.1620 -1.1228
15729TIP3   OH247108   3.203   1.921   4.268  0.6384  0.4278 -0.5280
15729TIP3    H147109   3.227   1.983   4.337 -0.7643  0.3274  0.0925
15729TIP3    H247110   3.255   1.843   4.286 -0.0229  0.2447  0.7126
15730TIP3   OH247111   1.683   5.696   1.620 -0.7697  0.0995  0.2921
15730TIP3    H147112   1.729   5.620   1.656 -0.2383 -0.1822 -0.9110
15730TIP3    H247113   1.633   5.731   1.693 -0.6069 -1.0978  1.0027
15731TIP3   OH247114   4.931   8.160   3.417 -0.0568 -0.5551  0.2160
15731TIP3    H147115   4.897   8.155   3.506  3.2351  0.4094  1.6997
15731TIP3    H247116   4.912   8.249   3.388 -0.3056 -0.5678  0.3438
15732TIP3   OH247117   0.072   4.409   2.190 -0.5326 -0.4695 -0.5013
15732TIP3    H147118   0.066   4.505   2.187  1.7848 -0.3099 -1.6294
15732TIP3    H247119   0.136   4.391   2.259 -1.5628 -1.2737  0.2746
15733TIP3   OH247120   4.878   4.880   5.847  0.5547 -0.2778 -0.4362
15733TIP3    H147121   4.940   4.821   5.890  1.3801  0.2729 -0.8418
15733TIP3    H247122   4.820   4.822   5.798  1.4640 -0.7532 -0.9732
15734TIP3   OH247123   8.603   1.991   5.541 -0.7149 -0.0618  0.9828
15734TIP3    H147124   8.550   1.954   5.612 -0.6906 -0.0831  0.9896
15734TIP3    H247125   8.607   2.084   5.561 -0.2779 -0.1426  1.2938
15735TIP3   OH247126   4.170   1.115   6.421  0.0711  0.1646 -0.1388
15735TIP3    H147127   4.101   1.179   6.439  0.0110  0.4728 -1.3731
15735TIP3    H247128   4.243   1.166   6.388  0.7573 -0.2081  0.7525
15736TIP3   OH247129   5.975   5.404   6.638 -0.3185 -0.5441 -0.0461
15736TIP3    H147130   5.956   5.466   6.568 -0.0050 -0.4858 -0.0778
15736TIP3    H247131   6.059   5.432   6.674 -0.5700 -0.4516  0.4862
15737TIP3   OH247132   6.660   4.789   0.277  0.1978 -0.2653  0.2542
15737TIP3    H147133   6.626   4.710   0.235 -1.3211  0.1088  0.7343
15737TIP3    H247134   6.594   4.813   0.342  1.4770  0.4007  1.3628
15738TIP3   OH247135   6.963   1.926   1.516  0.0019  0.6580  0.3483
15738TIP3    H147136   6.923   1.861   1.458  1.3750  0.6045 -0.5915
15738TIP3    H247137   6.907   1.927   1.593  0.0156 -1.7662  0.4682
15739TIP3   OH247138   1.837   5.532   0.953  0.7434  0.1665 -0.1170
15739TIP3    H147139   1.794   5.447   0.958  2.1848 -0.5579  0.5365
15739TIP3    H247140   1.930   5.511   0.943  1.2321  1.6549  1.0254
15740TIP3   OH247141   8.409   0.147   4.869  0.2998  0.2784 -0.0416
15740TIP3    H147142   8.350   0.076   4.893 -0.6995  1.0818 -0.0728
15740TIP3    H247143   8.453   0.116   4.790  0.0617 -0.4017  0.0876
15741TIP3   OH247144   2.845   7.744   0.675  0.3162 -0.0444 -0.2050
15741TIP3    H147145   2.899   7.756   0.596 -1.1589  0.9815 -1.1119
15741TIP3    H247146   2.808   7.656   0.665 -0.2756  0.2794 -0.9439
15742TIP3   OH247147   6.897   1.122   4.887 -0.0305 -0.1641 -0.0736
15742TIP3    H147148   6.857   1.181   4.951 -1.7832 -1.3214 -0.0361
15742TIP3    H247149   6.873   1.158   4.802  1.3100  0.7244 -0.0939
15743TIP3   OH247150   1.417   0.845   3.029 -0.4331 -0.0918  0.5183
15743TIP3    H147151   1.325   0.820   3.039 -0.2671 -0.4072  1.4104
15743TIP3    H247152   1.455   0.774   2.977 -1.0091  0.8240 -1.2219
15744TIP3   OH247153   2.654   1.398   1.174 -0.8380  0.2796 -0.0120
15744TIP3    H147154   2.600   1.423   1.098  0.1421  0.5915 -0.6206
15744TIP3    H247155   2.622   1.453   1.245 -0.5155  1.3551 -0.6792
15745TIP3   OH247156   4.745   3.448   4.448 -0.1055  0.4341 -0.1114
15745TIP3    H147157   4.727   3.361   4.413 -1.1467  0.2519  0.8148
15745TIP3    H247158   4.690   3.454   4.526  3.8900 -0.2102  3.1268
15746TIP3   OH247159   5.494   5.683   3.333 -0.1456  0.2697 -0.1717
15746TIP3    H147160   5.516   5.604   3.382 -2.1668  0.4279  1.1359
15746TIP3    H247161   5.417   5.658   3.281  1.1459  0.4992 -2.3015
15747TIP3   OH247162   1.022   5.726   1.964  0.7929 -0.4899 -0.9771
15747TIP3    H147163   1.053   5.645   2.006  0.5203 -1.5525 -2.7224
15747TIP3    H247164   1.102   5.772   1.939  0.9521 -0.0701  0.2504
15748TIP3   OH247165   7.906   4.044   3.415 -0.2376  0.2575  0.2563
15748TIP3    H147166   7.985   4.098   3.408  0.4720 -0.8677 -1.0418
15748TIP3    H247167   7.936   3.965   3.460 -0.9453  0.3573  0.9211
15749TIP3   OH247168   6.708   1.227   3.959 -0.4667  0.4271  0.8263
15749TIP3    H147169   6.686   1.203   4.048  0.3372  1.0520  1.2090
15749TIP3    H247170   6.780   1.169   3.935  0.3739  1.3124  1.1612
15750TIP3   OH247171   0.485   4.437   6.082  0.4035 -0.0605  0.8033
15750TIP3    H147172   0.502   4.501   6.151  0.3026  1.0469 -0.1637
15750TIP3    H247173   0.543   4.363   6.103  1.9519  1.1313  0.9031
15751TIP3   OH247174   5.147   6.297   6.490  0.2110 -0.4296  0.3386
15751TIP3    H147175   5.096   6.338   6.559  0.9293 -0.0002  0.6190
15751TIP3    H247176   5.210   6.363   6.463  0.2172 -0.7342 -0.4443
15752TIP3   OH247177   6.614   0.019   6.754  0.1293  0.1710 -0.5939
15752TIP3    H147178   6.553  -0.027   6.697  1.6393 -0.7404 -1.5337
15752TIP3    H247179   6.658   0.083   6.697 -1.2353  2.1708  0.4820
15753TIP3   OH247180   2.230   7.214   4.951  0.1446 -0.2808  0.3501
15753TIP3    H147181   2.279   7.267   5.014 -0.1452 -0.0502  0.3818
15753TIP3    H247182   2.236   7.125   4.986 -0.3641 -0.0975  0.9313
15754TIP3   OH247183   1.948   0.064   0.935 -0.1970  0.2363 -0.0399
15754TIP3    H147184   2.023   0.010   0.913 -0.3498 -0.2091  0.5264
15754TIP3    H247185   1.986   0.145   0.971  0.0103  0.1079  0.0278
15755TIP3   OH247186   8.508   1.121   2.793 -0.5044 -0.0337  0.5077
15755TIP3    H147187   8.418   1.152   2.798 -0.2940  0.6854  0.0254
15755TIP3    H247188   8.555   1.172   2.859 -0.3927 -0.2035  0.5610
15756TIP3   OH247189   8.325   6.353   5.138 -0.1540 -0.0737 -0.1024
15756TIP3    H147190   8.248   6.390   5.182 -0.3130 -0.4681 -0.0499
15756TIP3    H247191   8.292   6.277   5.091  0.4127 -0.9694  0.9018
15757TIP3   OH247192   8.531   1.519   0.147  0.2693 -0.3237 -0.1014
15757TIP3    H147193   8.493   1.519   0.235 -0.1956 -2.6202 -0.2518
15757TIP3    H247194   8.461   1.552   0.091  0.4514  0.8153  0.3016
15758TIP3   OH247195   2.708   3.159   6.791  0.6000 -0.0988  0.1096
15758TIP3    H147196   2.646   3.088   6.771  1.5865 -0.3070 -2.4929
15758TIP3    H247197   2.654   3.226   6.832 -0.9920 -1.0284 -0.3584
15759TIP3   OH247198   0.901   3.015   0.133  0.0823 -0.1674 -0.1290
15759TIP3    H147199   0.915   3.072   0.209  1.4626  1.0402 -1.2477
15759TIP3    H247200   0.832   2.955   0.161 -0.0252  0.7831  1.7853
15760TIP3   OH247201   3.077   6.201   2.826  0.2034  0.6209 -0.4579
15760TIP3    H147202   3.053   6.280   2.875 -0.9447 -1.2790  2.3337
15760TIP3    H247203   3.146   6.161   2.879  0.9222 -0.1895 -1.9464
15761TIP3   OH247204   3.984   5.020   0.118 -0.5210 -0.4897  0.0868
15761TIP3    H147205   4.009   5.039   0.209 -1.5639  0.5253  0.1857
15761TIP3    H247206   4.014   5.097   0.069  1.7304 -1.8244 -0.7976
15762TIP3   OH247207   1.135   6.209   5.688 -0.1699 -0.0007 -0.0070
15762TIP3    H147208   1.050   6.186   5.724 -0.4349 -0.8964 -1.1245
15762TIP3    H247209   1.183   6.125   5.684  0.1369  0.2018 -0.9218
15763TIP3   OH247210   6.624   3.673   3.550 -0.1606  0.6092  0.1040
15763TIP3    H147211   6.590   3.588   3.522 -1.2960  0.0366  2.8808
15763TIP3    H247212   6.586   3.686   3.637  1.5606  3.0737  0.5771
15764TIP3   OH247213   3.399   5.505   5.536  0.3650 -0.0149  0.2815
15764TIP3    H147214   3.468   5.568   5.515  0.2117 -0.4552 -1.7385
15764TIP3    H247215   3.445   5.424   5.557  0.4955  0.0766  0.3485
15765TIP3   OH247216   5.742   1.930   2.246 -0.2562  0.5350 -0.4683
15765TIP3    H147217   5.701   1.847   2.270  0.7686  0.2126  0.2388
15765TIP3    H247218   5.746   1.979   2.329  1.8724  0.0544 -0.2267
15766TIP3   OH247219   0.064   7.570   3.559  0.0222 -0.8198  0.5185
15766TIP3    H147220   0.026   7.513   3.626 -1.8950 -0.0331  0.1370
15766TIP3    H247221  -0.004   7.579   3.492  0.0649  2.2306  0.7389
15767TIP3   OH247222   0.398   1.945   6.207 -0.2380  0.3346  0.0125
15767TIP3    H147223   0.338   2.003   6.159 -0.3179 -0.4419 -0.8543
15767TIP3    H247224   0.444   1.896   6.138  2.4977  1.9436  0.5542
15768TIP3   OH247225   5.077   1.253   6.339 -0.4102  0.7224 -0.0009
15768TIP3    H147226   5.170   1.241   6.359 -0.8117  0.5388  1.8719
15768TIP3    H247227   5.034   1.259   6.424 -1.9169  2.6020 -0.8220
15769TIP3   OH247228   1.490   0.410   1.995 -0.7557 -0.1588 -0.0422
15769TIP3    H147229   1.480   0.377   1.905 -1.3623 -0.3154  0.0828
15769TIP3    H247230   1.472   0.334   2.050 -0.0340 -0.1551  0.2135
15770TIP3   OH247231   6.738   4.082   5.840 -0.0321 -0.3253  0.2441
15770TIP3    H147232   6.719   4.107   5.750 -0.2049  0.7810  0.5743
15770TIP3    H247233   6.741   4.164   5.888  0.0177 -0.9017  1.2645
15771TIP3   OH247234   5.710   1.469   6.666 -0.1843 -0.0801 -0.5548
15771TIP3    H147235   5.619   1.496   6.682  0.0876  0.8072 -0.4303
15771TIP3    H247236   5.761   1.549   6.681  0.4390 -0.0545 -2.5025
15772TIP3   OH247237   2.319   3.228   1.312  0.3862  0.1382  0.2003
15772TIP3    H147238   2.295   3.248   1.402  0.4406  0.7871  0.0753
15772TIP3    H247239   2.414   3.213   1.315 -0.0048 -2.9063  0.7808
15773TIP3   OH247240   4.771   2.553   2.052  0.2529  0.8602 -0.1550
15773TIP3    H147241   4.831   2.627   2.065 -0.6412  1.7201 -0.8291
15773TIP3    H247242   4.815   2.479   2.095  2.3583  1.1816 -1.5984
15774TIP3   OH247243   6.589   3.999   2.686 -0.0577  0.1469 -0.5202
15774TIP3    H147244   6.567   4.081   2.641 -0.1726  0.9293  0.8980
15774TIP3    H247245   6.509   3.975   2.732  0.3932  0.0090  0.2056
15775TIP3   OH247246   6.946   5.345   1.896  0.0289  0.0366  0.6334
15775TIP3    H147247   6.859   5.364   1.929 -0.8059  0.8370 -1.8174
15775TIP3    H247248   6.971   5.422   1.846  2.0268 -0.3133  0.9714
15776TIP3   OH247249   7.291   0.409   3.079  0.3785  0.0986  0.0919
15776TIP3    H147250   7.373   0.360   3.090 -1.0682 -2.1686  1.6923
15776TIP3    H247251   7.313   0.498   3.107  2.3688 -0.3513  0.1548
15777TIP3   OH247252   4.121   2.636   0.349 -0.7422 -0.2812 -0.1493
15777TIP3    H147253   4.213   2.611   0.346 -0.8124 -0.4172 -1.3342
15777TIP3    H247254   4.085   2.586   0.423 -0.2049 -1.3703 -0.6126
15778TIP3   OH247255   7.305   7.538   0.585 -0.4157  0.1122 -0.1954
15778TIP3    H147256   7.317   7.475   0.656 -2.5887 -0.2933 -0.1117
15778TIP3    H247257   7.361   7.506   0.514  0.1083 -0.7256  0.5753
15779TIP3   OH247258   4.274   6.642   4.370  0.6294  0.4953  0.1827
15779TIP3    H147259   4.245   6.729   4.344  2.6767  1.1022 -0.3001
15779TIP3    H247260   4.255   6.636   4.463 -1.6203  0.5255 -0.2249
15780TIP3   OH247261   1.921   7.233   2.530  0.0607 -0.3441  0.2200
15780TIP3    H147262   1.988   7.173   2.563 -0.2455 -0.3780  0.7790
15780TIP3    H247263   1.863   7.178   2.477  0.6776 -0.2483 -0.5773
15781TIP3   OH247264   0.658   5.434   6.448  0.6063  0.0220  0.5589
15781TIP3    H147265   0.601   5.386   6.508 -1.0944  1.4497  0.1641
15781TIP3    H247266   0.700   5.501   6.503 -0.6504  1.0739  0.2950
15782TIP3   OH247267   0.773   2.576   1.118  0.2575  0.1389  0.4614
15782TIP3    H147268   0.830   2.505   1.148 -0.5438 -0.8510 -0.2945
15782TIP3    H247269   0.687   2.556   1.155 -0.5995 -0.7635 -1.8822
15783TIP3   OH247270   8.265   1.559   6.269 -0.7251 -0.0733  0.1158
15783TIP3    H147271   8.314   1.517   6.198  0.2513 -1.2426  1.4257
15783TIP3    H247272   8.213   1.626   6.225 -0.1005 -0.6962 -1.6916
15784TIP3   OH247273   4.211   2.812   6.144 -0.1181  0.0085 -0.0889
15784TIP3    H147274   4.196   2.903   6.121  1.2124 -0.0811 -1.4359
15784TIP3    H247275   4.134   2.787   6.196 -0.2754  2.0041  0.6952
15785TIP3   OH247276   0.796   7.499   0.072  0.3100 -0.0034  0.1454
15785TIP3    H147277   0.816   7.579   0.023  1.3040 -0.2711  0.0869
15785TIP3    H247278   0.765   7.437   0.006  0.1409  0.1343  0.0953
15786TIP3   OH247279   2.513   3.333   5.868  0.8353  0.1207 -0.1683
15786TIP3    H147280   2.584   3.303   5.924  1.1627 -0.4810 -0.8789
15786TIP3    H247281   2.453   3.259   5.864  0.4504  0.4238 -0.0269
15787TIP3   OH247282   6.747   5.956   6.276  0.4957  0.5598  0.1234
15787TIP3    H147283   6.744   5.864   6.248 -0.6152  0.9107 -1.0053
15787TIP3    H247284   6.659   5.989   6.257  0.5905  1.6127  1.3982
15788TIP3   OH247285   4.324   1.326   3.905  0.1954 -0.4978  0.1485
15788TIP3    H147286   4.256   1.336   3.971  1.0325 -0.9547  1.1234
15788TIP3    H247287   4.369   1.411   3.903 -1.9967  0.7382 -2.4312
15789TIP3   OH247288   7.709   6.476   1.271  0.1386  0.3719 -0.3315
15789TIP3    H147289   7.707   6.394   1.321 -1.7635  0.4968 -0.1406
15789TIP3    H247290   7.666   6.540   1.327  2.0557  1.6947 -0.2566
15790TIP3   OH247291   1.783   2.622   3.375  0.5223  0.3354  0.8295
15790TIP3    H147292   1.741   2.643   3.292  1.8674 -0.2977 -0.0530
15790TIP3    H247293   1.875   2.610   3.353  0.9226  0.1976  2.4314
15791TIP3   OH247294   6.250   4.896   3.698 -0.3961  0.2254 -0.4476
15791TIP3    H147295   6.341   4.870   3.684 -0.2054  0.7661 -0.2225
15791TIP3    H247296   6.250   4.938   3.784 -0.8658  0.2043 -0.4359
15792TIP3   OH247297   3.865   2.186   6.337  0.3687  0.8281 -0.5533
15792TIP3    H147298   3.895   2.258   6.282 -0.7501  1.8307  0.1066
15792TIP3    H247299   3.779   2.164   6.303  0.8100 -0.4131 -0.9235
15793TIP3   OH247300   6.346   0.580   1.756  0.4084  0.3785 -0.0416
15793TIP3    H147301   6.401   0.609   1.829 -0.2730 -0.1358  0.6955
15793TIP3    H247302   6.258   0.611   1.778  0.3378  0.9528 -1.0664
15794TIP3   OH247303   1.956   6.937   3.704  0.1310 -0.0981  0.0734
15794TIP3    H147304   1.871   6.965   3.738  0.2887  0.3378  0.1275
15794TIP3    H247305   1.940   6.853   3.662 -0.4588  0.2739 -0.4709
15795TIP3   OH247306   4.745   7.391   3.765  0.1110 -0.7717 -0.4825
15795TIP3    H147307   4.694   7.466   3.795  0.5830 -0.1322 -1.2467
15795TIP3    H247308   4.689   7.315   3.784  0.3905 -0.4343  2.0107
15796TIP3   OH247309   7.020   7.720   5.728 -0.0822  0.2194 -0.7366
15796TIP3    H147310   7.014   7.764   5.813  2.0650  0.2653 -0.5582
15796TIP3    H247311   7.038   7.791   5.666  1.2375 -0.1187 -0.7683
15797TIP3   OH247312   4.456   7.858   2.483  0.2263 -0.4038 -0.3601
15797TIP3    H147313   4.379   7.908   2.511  0.2039 -2.0953  3.1461
15797TIP3    H247314   4.458   7.869   2.388 -3.2712  1.1575 -0.4304
15798TIP3   OH247315   5.762   4.414   1.286 -0.3817  0.1467  0.2599
15798TIP3    H147316   5.751   4.506   1.261  1.7802  0.2904 -0.3462
15798TIP3    H247317   5.674   4.386   1.311 -1.3460  1.9957 -0.7944
15799TIP3   OH247318   3.199   8.024   6.225 -0.2115  0.1396 -0.0448
15799TIP3    H147319   3.239   7.968   6.158  0.1204  1.6511 -1.1713
15799TIP3    H247320   3.250   8.006   6.304  1.9759  1.0712 -1.1399
15800TIP3   OH247321   1.924   2.281   0.316  0.8064 -0.8145 -0.0739
15800TIP3    H147322   1.842   2.324   0.292  1.3515  1.1485  1.2737
15800TIP3    H247323   1.903   2.231   0.395  0.8268 -0.6242  0.0515
15801TIP3   OH247324   3.919   2.079   4.299  0.1469  0.1045  0.3555
15801TIP3    H147325   4.003   2.034   4.297  0.4551  0.6844 -0.0859
15801TIP3    H247326   3.934   2.161   4.252 -0.6543  0.2373  0.3071
15802TIP3   OH247327   4.915   2.157   6.332  0.1292 -0.4683  0.4500
15802TIP3    H147328   4.967   2.236   6.320  0.9119 -1.2361 -1.6366
15802TIP3    H247329   4.973   2.096   6.377  0.9798 -1.1866 -1.5217
15803TIP3   OH247330   1.607   4.716   1.996  0.0213 -0.0041 -0.2127
15803TIP3    H147331   1.688   4.726   2.046  0.7308  0.0741 -1.3291
15803TIP3    H247332   1.633   4.660   1.922 -1.2186 -0.9091  0.0121
15804TIP3   OH247333   6.761   1.506   3.949  0.3838  0.0865  0.2932
15804TIP3    H147334   6.717   1.548   4.023  1.5097  0.6770  0.6629
15804TIP3    H247335   6.732   1.415   3.952 -0.5694  0.3946  0.6900
15805TIP3   OH247336   2.988   7.089   2.784  0.4816 -0.5491  0.9275
15805TIP3    H147337   2.970   6.997   2.763  2.6407 -0.8697  0.1886
15805TIP3    H247338   3.083   7.098   2.772  0.2200  1.9907  0.1503
15806TIP3   OH247339   2.268   1.978   1.195  0.3330  0.1082  0.3461
15806TIP3    H147340   2.218   1.901   1.224  1.7593 -1.3541 -0.8242
15806TIP3    H247341   2.213   2.018   1.128  0.3117 -0.9723 -0.3084
15807TIP3   OH247342   4.638   2.985   3.579  0.0175 -0.0316  0.2739
15807TIP3    H147343   4.558   3.033   3.558  0.7290  0.5631 -1.1667
15807TIP3    H247344   4.609   2.914   3.637 -1.6608 -0.2504 -0.7738
15808TIP3   OH247345   2.723   3.611   0.454  0.0920 -0.0842 -0.5182
15808TIP3    H147346   2.792   3.580   0.514  0.7785 -0.0750 -1.2829
15808TIP3    H247347   2.649   3.552   0.470 -0.3276  0.9240  1.4923
15809TIP3   OH247348   3.300   4.595   1.380  0.2026 -0.0610 -0.7288
15809TIP3    H147349   3.373   4.623   1.435  1.1038 -2.3251 -0.6323
15809TIP3    H247350   3.290   4.501   1.400 -2.0145 -0.0603 -1.5714
15810TIP3   OH247351   3.738   3.901   0.952 -0.4705  0.3891 -0.0271
15810TIP3    H147352   3.735   3.813   0.914 -1.4052  0.7575 -0.8675
15810TIP3    H247353   3.794   3.951   0.893  0.8881  0.1342  1.0004
15811TIP3   OH247354   7.588   5.571   6.902  0.1932  0.4826  0.4442
15811TIP3    H147355   7.641   5.523   6.965 -1.2791 -1.5344  0.2344
15811TIP3    H247356   7.501   5.530   6.907 -0.4972  1.5697 -1.4811
15812TIP3   OH247357   0.201   5.750   1.484  0.1504  0.0731  0.0822
15812TIP3    H147358   0.203   5.752   1.579  2.0757  1.8700  0.0564
15812TIP3    H247359   0.268   5.686   1.460 -2.0041 -2.2881 -0.1449
15813TIP3   OH247360   3.377   5.995   6.971 -0.1656  0.5045 -0.3372
15813TIP3    H147361   3.376   5.905   6.937 -3.1572 -0.1897  1.2428
15813TIP3    H247362   3.313   6.041   6.917  1.1645  1.6742 -0.9607
15814TIP3   OH247363   2.074   4.715   4.089 -0.7020 -0.1840 -0.2663
15814TIP3    H147364   2.064   4.688   4.180 -0.5348  1.6179  0.3233
15814TIP3    H247365   2.136   4.652   4.052  1.3186  0.5871  1.6010
15815TIP3   OH247366   1.886   4.055   4.960 -0.2940  0.1055 -0.3084
15815TIP3    H147367   1.818   4.010   5.010  0.9415 -0.3733  0.9901
15815TIP3    H247368   1.964   4.000   4.969  1.2539  2.3412  1.2339
15816TIP3   OH247369   8.604   1.339   3.504 -0.1731  0.1330 -0.4051
15816TIP3    H147370   8.591   1.433   3.512  0.7288  0.2532 -0.3289
15816TIP3    H247371   8.518   1.302   3.523 -0.2961  0.8913  0.6127
15817TIP3   OH247372   3.361   5.141   6.902  0.2777 -0.4823  0.1597
15817TIP3    H147373   3.428   5.203   6.875 -0.8471  0.8904  0.3973
15817TIP3    H247374   3.333   5.172   6.989 -1.4379 -0.3178 -0.4100
15818TIP3   OH247375   0.848   3.371   2.327 -0.5888  0.2083  0.3223
15818TIP3    H147376   0.847   3.320   2.408  0.1287  0.1779  0.3137
15818TIP3    H247377   0.940   3.388   2.310 -0.5644 -1.4095 -1.5071
15819TIP3   OH247378   4.223   2.388   2.037 -0.3114  0.0726  0.1918
15819TIP3    H147379   4.164   2.341   2.096  0.6082 -1.7126 -0.2459
15819TIP3    H247380   4.213   2.480   2.062 -2.3303 -0.2983  0.9463
15820TIP3   OH247381   3.678   7.852   2.754  0.0715 -0.0282 -0.4823
15820TIP3    H147382   3.678   7.777   2.813  1.0934  0.2204 -0.1455
15820TIP3    H247383   3.680   7.814   2.666  2.2841 -0.4283 -0.3060
15821TIP3   OH247384   4.767   8.105   3.632  0.6292 -0.4033 -0.0064
15821TIP3    H147385   4.697   8.039   3.627 -2.2822  2.4865 -0.8764
15821TIP3    H247386   4.826   8.072   3.699 -1.2338 -3.3416  0.3846
15822TIP3   OH247387   4.362   7.118   3.265  0.1043 -0.3469 -0.3904
15822TIP3    H147388   4.306   7.196   3.254 -0.8361 -0.8668  0.4760
15822TIP3    H247389   4.448   7.153   3.285 -0.1560  0.4827 -0.6696
15823TIP3   OH247390   4.961   2.767   2.098  0.0405  0.0755 -0.1136
15823TIP3    H147391   5.033   2.709   2.073 -0.7982 -1.2775  0.4934
15823TIP3    H247392   4.963   2.837   2.033  0.8085 -0.8733 -1.1544
15824TIP3   OH247393   3.972   7.994   0.077 -0.7840  0.1595  0.0590
15824TIP3    H147394   3.939   8.078   0.045 -1.3337  0.5362  1.5508
15824TIP3    H247395   3.897   7.954   0.120  0.2694  0.3350  2.1681
15825TIP3   OH247396   0.417   1.183   3.961  0.0937 -0.3752  0.5567
15825TIP3    H147397   0.429   1.278   3.964  0.2075 -0.2436 -1.8870
15825TIP3    H247398   0.330   1.169   3.997 -0.2573  0.7426  0.1978
15826TIP3   OH247399   3.140   5.598   3.533  0.0494  0.0282  0.3370
15826TIP3    H147400   3.051   5.630   3.518  0.0004  0.5483  1.6156
15826TIP3    H247401   3.134   5.503   3.517 -0.9193 -0.0636  1.1373
15827TIP3   OH247402   1.636   1.408   6.742 -0.5803 -0.1028 -0.6235
15827TIP3    H147403   1.714   1.424   6.688 -0.1194 -0.4351 -0.0636
15827TIP3    H247404   1.631   1.312   6.748  0.0420 -0.0634  0.8696
15828TIP3   OH247405   2.911   5.570   1.000  0.1212  0.0298  0.2434
15828TIP3    H147406   2.827   5.615   0.988 -0.4839 -1.0370  0.3946
15828TIP3    H247407   2.889   5.477   1.001  1.4043 -0.3070 -0.5135
15829TIP3   OH247408   7.423   1.622   3.351  0.4356  0.1028  0.2611
15829TIP3    H147409   7.471   1.679   3.412  0.3778  0.1597  0.2533
15829TIP3    H247410   7.445   1.657   3.264 -0.2635  0.6330  0.2930
15830TIP3   OH247411   2.036   5.823   5.789  0.1127 -0.1609 -0.2153
15830TIP3    H147412   2.122   5.832   5.747 -1.0286  0.9272 -2.5164
15830TIP3    H247413   1.985   5.769   5.728 -1.0752 -0.1578  0.7317
15831TIP3   OH247414   0.247   0.125   5.323  0.0800 -0.3918  0.9273
15831TIP3    H147415   0.179   0.190   5.341 -0.7514 -1.0500  0.2899
15831TIP3    H247416   0.312   0.137   5.392  0.7762  2.1909 -0.0561
15832TIP3   OH247417   6.240   1.539   1.610  0.1651  0.1895  0.1988
15832TIP3    H147418   6.318   1.542   1.554  0.0403  0.8646  0.0461
15832TIP3    H247419   6.191   1.464   1.579  1.1586 -0.7665  0.8542
15833TIP3   OH247420   6.118   2.199   6.885 -0.4746  0.1242  0.0036
15833TIP3    H147421   6.066   2.279   6.874 -2.1608 -0.7224  1.3791
15833TIP3    H247422   6.054   2.128   6.883  1.0687 -1.3206 -2.0061
15834TIP3   OH247423   1.245   8.115   4.295 -0.5263  0.1036  0.3763
15834TIP3    H147424   1.177   8.175   4.263 -0.8486 -0.5547 -0.1986
15834TIP3    H247425   1.300   8.097   4.219 -1.0607 -1.1574  0.2679
15835TIP3   OH247426   8.618   5.687   4.315  0.5149 -0.5258  0.2400
15835TIP3    H147427   8.582   5.608   4.355  1.0192  0.5259  3.0031
15835TIP3    H247428   8.543   5.743   4.300  0.2489 -1.1760 -0.9641
15836TIP3   OH247429   0.978   1.269   1.224 -0.0942  0.0922 -0.3862
15836TIP3    H147430   0.974   1.344   1.284 -1.2861 -1.6074  1.8118
15836TIP3    H247431   0.887   1.239   1.217  0.2703 -0.7656 -1.7268
15837TIP3   OH247432   3.558   3.154   4.271  0.0289  0.3936  0.5636
15837TIP3    H147433   3.465   3.167   4.286 -0.1915  0.9033 -1.0910
15837TIP3    H247434   3.594   3.242   4.261  0.8274  0.2422  1.7845
15838TIP3   OH247435   2.428   6.655   4.629 -0.1859 -0.4132  0.1071
15838TIP3    H147436   2.482   6.698   4.563 -1.0665  0.5227 -0.0235
15838TIP3    H247437   2.369   6.723   4.661 -0.7979 -1.2285  0.7762
15839TIP3   OH247438   6.933   5.534   3.669  0.0001 -0.3972 -0.3861
15839TIP3    H147439   6.977   5.617   3.648 -1.5654 -0.0423 -2.6013
15839TIP3    H247440   6.954   5.476   3.595 -0.1384 -1.4852  0.4078
15840TIP3   OH247441   1.976   3.954   4.417 -0.2522  0.4830  0.0347
15840TIP3    H147442   1.982   3.862   4.444 -3.2200 -0.2638 -1.5185
15840TIP3    H247443   2.044   3.963   4.350  1.2291 -0.0447  1.3885
15841TIP3   OH247444   8.041   7.812   4.969 -0.3014  0.3249  0.0708
15841TIP3    H147445   7.991   7.833   5.049 -1.8154 -0.7729 -0.5221
15841TIP3    H247446   8.092   7.734   4.993  2.5245  2.3450  1.1708
15842TIP3   OH247447   3.534   0.431   2.843 -0.1952  0.6125 -0.0876
15842TIP3    H147448   3.490   0.504   2.887 -2.0992 -1.5674  1.9200
15842TIP3    H247449   3.503   0.436   2.752 -2.9899  0.4652  0.7686
15843TIP3   OH247450   6.351   6.319   1.495 -0.1237 -0.4077  0.0571
15843TIP3    H147451   6.409   6.265   1.441 -1.3586 -0.8196 -0.9104
15843TIP3    H247452   6.362   6.284   1.583  3.1360  1.3232  0.4731
15844TIP3   OH247453   7.612   3.347   0.485 -0.7381 -0.0534  0.1785
15844TIP3    H147454   7.525   3.327   0.451 -1.3031 -0.4750  1.7789
15844TIP3    H247455   7.670   3.286   0.440 -1.2882  0.0618 -0.7199
15845TIP3   OH247456   4.405   7.917   4.591  0.0425  0.2082  0.2510
15845TIP3    H147457   4.444   7.933   4.504  0.6024  3.4425  0.9755
15845TIP3    H247458   4.396   7.822   4.595  1.7163 -0.2150 -2.6162
15846TIP3   OH247459   6.667   3.388   4.705 -0.1619  0.2449 -0.7775
15846TIP3    H147460   6.627   3.474   4.718 -1.2865 -0.3310 -0.2756
15846TIP3    H247461   6.703   3.366   4.791 -0.6739 -0.1622 -0.6609
15847TIP3   OH247462   3.251   5.071   3.992  0.0335  0.2991  0.3630
15847TIP3    H147463   3.215   5.004   3.933 -0.1930  1.4919 -0.8955
15847TIP3    H247464   3.220   5.154   3.956  0.8164  1.1255  1.5418
15848TIP3   OH247465   7.356   7.180   0.690 -0.5689  0.2747  0.2402
15848TIP3    H147466   7.276   7.140   0.660 -1.6512  1.0690  1.8765
15848TIP3    H247467   7.399   7.212   0.611 -2.5108  0.9791 -0.5871
15849TIP3   OH247468   0.868   0.365   6.106  0.1647 -0.0475 -0.3879
15849TIP3    H147469   0.778   0.355   6.136  0.5995  0.1380  1.0626
15849TIP3    H247470   0.875   0.458   6.084 -0.4738 -0.3878 -2.2816
15850TIP3   OH247471   4.670   1.526   0.833  0.6372  0.7668  0.1051
15850TIP3    H147472   4.611   1.582   0.783  0.9343  1.1164  0.1369
15850TIP3    H247473   4.684   1.449   0.778 -0.1557  0.4943  0.2679
15851TIP3   OH247474   5.779   2.530   6.151 -0.1486  0.2570 -0.4148
15851TIP3    H147475   5.797   2.461   6.087  1.2192 -0.3330  0.5587
15851TIP3    H247476   5.793   2.612   6.104  1.7100 -0.1674 -0.6682
15852TIP3   OH247477   2.208   2.729   1.278  0.6245 -0.4703  1.0762
15852TIP3    H147478   2.237   2.805   1.228 -0.4959  0.1788  1.3685
15852TIP3    H247479   2.200   2.761   1.368 -0.5100 -0.7335  1.0847
15853TIP3   OH247480   7.366   4.320   0.251 -0.2799  0.5929 -0.3066
15853TIP3    H147481   7.459   4.305   0.264 -0.7197 -1.4391  1.0170
15853TIP3    H247482   7.354   4.414   0.266  1.7897  1.2858 -2.4884
15854TIP3   OH247483   5.995   3.857   5.544 -0.2636 -0.0346  0.5606
15854TIP3    H147484   5.908   3.825   5.521 -0.3024 -0.2363  0.9859
15854TIP3    H247485   6.027   3.795   5.610  1.0122 -1.1100 -1.0122
15855TIP3   OH247486   5.421   5.584   4.861  0.2614 -0.0940 -0.0958
15855TIP3    H147487   5.503   5.571   4.908 -0.2250  1.0158  1.1073
15855TIP3    H247488   5.397   5.675   4.879  0.3282  0.5763 -2.9582
15856TIP3   OH247489   3.827   2.723   1.955  0.1490  0.4759 -0.2415
15856TIP3    H147490   3.844   2.661   2.027  0.7294  2.7341  1.7269
15856TIP3    H247491   3.913   2.760   1.935 -0.2703  1.1353 -0.8886
15857TIP3   OH247492   1.345   5.983   6.865  0.2260  0.0547  0.6898
15857TIP3    H147493   1.289   5.915   6.829  0.6693 -1.2679  2.3527
15857TIP3    H247494   1.434   5.954   6.846  0.4079  1.4844 -0.7982
15858TIP3   OH247495   4.419   4.344   6.527  0.4666 -0.0138  0.2728
15858TIP3    H147496   4.365   4.412   6.567 -0.2787 -1.0452  1.0734
15858TIP3    H247497   4.464   4.388   6.455  0.1299  1.3585  0.8713
15859TIP3   OH247498   4.536   2.748   4.172  0.0388 -0.3015  0.4694
15859TIP3    H147499   4.549   2.816   4.237 -0.2486 -1.1036  1.3914
15859TIP3    H247500   4.624   2.717   4.151  0.1795  0.4113 -0.0421
15860TIP3   OH247501   4.693   2.429   2.524 -0.1940  0.0956 -0.1374
15860TIP3    H147502   4.690   2.334   2.537  0.0508 -0.0089 -0.7741
15860TIP3    H247503   4.773   2.457   2.568  0.2855 -0.1544 -0.8273
15861TIP3   OH247504   8.319   4.636   3.670 -0.5164  0.6863 -0.2639
15861TIP3    H147505   8.389   4.634   3.605 -0.7401  1.0171 -0.5179
15861TIP3    H247506   8.318   4.548   3.707 -1.3190  0.0469 -1.7176
15862TIP3   OH247507   4.081   7.195   5.861 -0.0726  0.1264  0.4263
15862TIP3    H147508   4.136   7.128   5.902 -0.4854 -1.2092 -1.0967
15862TIP3    H247509   4.049   7.154   5.781 -1.0947  1.8451 -0.0992
15863TIP3   OH247510   2.948   2.951   3.800 -0.0903  0.1386  0.0014
15863TIP3    H147511   3.039   2.944   3.826 -0.4231  0.5129  1.3259
15863TIP3    H247512   2.900   2.964   3.882 -1.4767 -1.3674 -0.5054
15864TIP3   OH247513   2.297   6.344   5.395 -0.5531  0.4742 -0.4035
15864TIP3    H147514   2.386   6.311   5.403 -0.4738  0.6453 -0.5521
15864TIP3    H247515   2.247   6.271   5.360 -0.0099  1.0166 -2.4823
15865TIP3   OH247516   2.888   5.817   2.720 -0.2273  0.0140 -0.0701
15865TIP3    H147517   2.864   5.907   2.700 -0.1757  0.1088  0.2835
15865TIP3    H247518   2.950   5.824   2.793  0.4870 -0.2542 -0.6260
15866TIP3   OH247519   8.574   1.276   5.083  0.2263  0.3356 -0.3484
15866TIP3    H147520   8.634   1.206   5.061 -0.5791 -0.7224  0.6726
15866TIP3    H247521   8.580   1.284   5.179 -1.2753  0.1597 -0.2147
15867TIP3   OH247522   7.487   2.928   2.592  0.4037  0.4177  0.4610
15867TIP3    H147523   7.392   2.922   2.587  0.3009  1.7754  0.3634
15867TIP3    H247524   7.519   2.859   2.534 -0.5131 -0.1810  0.6546
15868TIP3   OH247525   7.965   4.128   6.777  0.3690 -0.2870  0.0438
15868TIP3    H147526   7.937   4.202   6.724  0.9076  0.6868  1.0835
15868TIP3    H247527   8.015   4.073   6.716  0.0693  0.2596 -0.7118
15869TIP3   OH247528   8.171   3.950   4.796  0.1535  0.2473 -0.0580
15869TIP3    H147529   8.116   3.951   4.874  0.1909  2.5773  0.0187
15869TIP3    H247530   8.111   3.925   4.725 -1.2329  3.0398 -0.0311
15870TIP3   OH247531   0.320   2.222   0.305  0.8339  0.7181 -0.2246
15870TIP3    H147532   0.283   2.138   0.331 -1.7825  1.8021 -0.2168
15870TIP3    H247533   0.384   2.199   0.237  0.3213 -1.2858 -0.1023
15871TIP3   OH247534   7.816   4.630   6.602 -0.3638  0.2354 -0.1854
15871TIP3    H147535   7.765   4.671   6.671  0.9483 -1.2787  1.7892
15871TIP3    H247536   7.887   4.692   6.585  0.0332  0.0662  0.7876
15872TIP3   OH247537   3.839   6.287   5.277 -0.3907 -0.7377  0.4848
15872TIP3    H147538   3.837   6.332   5.193 -0.0834  1.4982  1.5893
15872TIP3    H247539   3.893   6.210   5.262 -2.3115 -1.7439 -1.9253
15873TIP3   OH247540   1.047   7.764   1.602  0.1520 -0.3938  0.0707
15873TIP3    H147541   1.091   7.848   1.592  0.0406 -0.3090  0.2894
15873TIP3    H247542   0.995   7.755   1.522  1.0680 -0.8012 -0.4944
15874TIP3   OH247543   5.263   1.282   1.267 -0.2887 -0.0080  0.6332
15874TIP3    H147544   5.179   1.264   1.226 -0.2904  0.0872  0.5960
15874TIP3    H247545   5.293   1.363   1.226  0.7064 -1.0332 -0.7778
15875TIP3   OH247546   5.655   1.867   6.926  0.7032 -0.3090  0.0878
15875TIP3    H147547   5.604   1.943   6.897  0.7544 -1.0375 -2.1480
15875TIP3    H247548   5.590   1.810   6.967  0.1589 -0.1652 -0.5386
15876TIP3   OH247549   6.389   2.175   1.889  0.0704  0.0260 -0.0917
15876TIP3    H147550   6.351   2.241   1.947  0.9508  0.5371 -0.0798
15876TIP3    H247551   6.402   2.220   1.806  0.1801 -0.2870 -0.2465
15877TIP3   OH247552   7.313   4.916   4.074  0.1187 -0.3575  0.3205
15877TIP3    H147553   7.357   4.855   4.014 -0.0094  0.5341 -0.7098
15877TIP3    H247554   7.377   4.933   4.143  1.0508  0.1865 -0.6536
15878TIP3   OH247555   2.899   3.555   3.116 -0.1474  0.0550 -0.3325
15878TIP3    H147556   2.850   3.486   3.160 -0.5734  0.3444 -0.3469
15878TIP3    H247557   2.944   3.510   3.044 -3.2122  0.2785 -2.5987
15879TIP3   OH247558   0.771   7.202   6.847  0.2796 -0.0229  0.3283
15879TIP3    H147559   0.813   7.154   6.918 -1.0521 -1.9715 -0.1143
15879TIP3    H247560   0.826   7.185   6.770 -0.7671 -1.8189 -0.0605
15880TIP3   OH247561   8.406   4.970   3.926  0.2982 -0.2291 -0.2010
15880TIP3    H147562   8.325   4.923   3.907 -0.1699  0.0117  1.0537
15880TIP3    H247563   8.409   4.974   4.022  2.0077 -0.5733 -0.2178
15881TIP3   OH247564   4.742   6.419   1.601 -0.5526  0.8819 -0.2072
15881TIP3    H147565   4.766   6.360   1.529 -1.1948  0.7137 -0.2862
15881TIP3    H247566   4.648   6.409   1.609 -0.2531 -0.8942  2.2277
15882TIP3   OH247567   7.484   2.257   3.300  0.0563 -0.0139  0.1031
15882TIP3    H147568   7.485   2.269   3.205  0.4338 -0.1932  0.0828
15882TIP3    H247569   7.428   2.328   3.332  0.5238  0.4981 -0.1913
15883TIP3   OH247570   6.765   7.853   3.323  0.2352 -0.5619  0.0245
15883TIP3    H147571   6.765   7.921   3.390  0.6329 -0.7456  0.2101
15883TIP3    H247572   6.851   7.858   3.283 -0.6444  0.8953 -1.8695
15884TIP3   OH247573   3.470   5.546   2.975  0.2933 -0.3040  0.3084
15884TIP3    H147574   3.509   5.615   2.922  4.0764 -1.4211  1.3159
15884TIP3    H247575   3.458   5.587   3.061 -0.8976  0.0569 -0.0172
15885TIP3   OH247576   4.533   5.962   4.133 -0.1612 -0.2400 -0.0459
15885TIP3    H147577   4.544   5.869   4.155  0.5970 -0.1586 -0.0517
15885TIP3    H247578   4.509   6.003   4.216 -0.0932 -0.3769  0.0419
15886TIP3   OH247579   7.693   2.821   1.882 -0.2357  0.2927  0.2582
15886TIP3    H147580   7.751   2.897   1.882 -0.7225  0.6804  1.0609
15886TIP3    H247581   7.675   2.804   1.789 -2.5832  3.0866  0.0783
15887TIP3   OH247582   2.126   4.290   2.278  0.3963  0.7950  0.6612
15887TIP3    H147583   2.198   4.353   2.282  0.9528  0.4134 -1.8072
15887TIP3    H247584   2.159   4.220   2.222 -1.0276 -0.6166  1.5219
15888TIP3   OH247585   4.295   2.396   5.331 -0.6104  0.2267 -0.1139
15888TIP3    H147586   4.379   2.407   5.376  0.2093 -0.0098 -1.5232
15888TIP3    H247587   4.256   2.483   5.331  0.0448  0.5267 -0.1955
15889TIP3   OH247588   1.232   4.469   4.483  0.0916 -0.0329  0.1096
15889TIP3    H147589   1.186   4.387   4.498  1.0646 -0.7614 -0.7430
15889TIP3    H247590   1.304   4.446   4.425  1.7261  1.0228  1.6509
15890TIP3   OH247591   5.310   5.132   1.860  0.4955  0.3635 -0.1762
15890TIP3    H147592   5.402   5.115   1.880  0.3693  0.2683  0.3419
15890TIP3    H247593   5.311   5.173   1.774  0.8826 -1.4974 -1.1169
15891TIP3   OH247594   1.848   5.975   4.378  0.0793 -0.3525 -0.3629
15891TIP3    H147595   1.854   6.036   4.304 -0.3955  1.3675  0.9674
15891TIP3    H247596   1.844   5.889   4.337  0.7852  0.4816 -2.3137
15892TIP3   OH247597   6.951   7.063   3.649 -0.1421 -0.2594 -0.0533
15892TIP3    H147598   6.955   7.158   3.636 -0.0652 -0.2448  0.0817
15892TIP3    H247599   7.011   7.028   3.583 -0.6105 -0.2485 -0.4966
15893TIP3   OH247600   8.231   8.150   0.827  0.4711  0.6018 -0.1968
15893TIP3    H147601   8.221   8.234   0.872 -1.6104  0.2821  0.0593
15893TIP3    H247602   8.317   8.118   0.854  1.2616  2.5753 -0.2241
15894TIP3   OH247603   0.059   5.363   3.769 -0.6550 -0.0499 -0.6333
15894TIP3    H147604   0.024   5.425   3.705 -0.8563  0.6774  0.1548
15894TIP3    H247605  -0.009   5.297   3.779 -1.3034  0.6920 -0.0193
15895TIP3   OH247606   1.206   1.082   3.230  0.2979 -0.0719 -0.4020
15895TIP3    H147607   1.244   1.131   3.303  1.1969 -0.2046 -0.7725
15895TIP3    H247608   1.191   0.994   3.266  1.7129 -0.4383 -0.6545
15896TIP3   OH247609   5.336   3.727   0.989 -0.0982 -0.3477 -0.8973
15896TIP3    H147610   5.370   3.768   0.910 -0.1035  1.8237  0.1636
15896TIP3    H247611   5.241   3.722   0.975 -0.1560  0.5018 -0.8389
15897TIP3   OH247612   0.067   3.952   2.903  0.3690 -0.1984  0.1285
15897TIP3    H147613   0.084   4.013   2.832  2.2967 -0.0077  0.6806
15897TIP3    H247614   0.152   3.909   2.918 -1.1815 -4.2623 -1.3018
15898TIP3   OH247615   6.632   5.316   6.902 -0.2338 -0.2545 -0.6271
15898TIP3    H147616   6.716   5.272   6.911 -0.8231 -1.0791  1.7931
15898TIP3    H247617   6.573   5.266   6.959 -1.3698  2.5837  0.8942
15899TIP3   OH247618   4.841   1.895   4.834 -0.1823 -0.2701 -0.7132
15899TIP3    H147619   4.876   1.836   4.901 -1.3329 -1.4446 -1.0863
15899TIP3    H247620   4.746   1.878   4.835 -0.3028  0.2086 -2.1446
15900TIP3   OH247621   4.764   4.741   0.553  0.3837 -0.1025  0.2885
15900TIP3    H147622   4.768   4.744   0.649  0.0387  0.7482  0.2840
15900TIP3    H247623   4.671   4.751   0.532  0.2578 -1.7971 -0.1094
15901TIP3   OH247624   0.751   7.997   2.973  0.1820  0.4646  0.9109
15901TIP3    H147625   0.766   7.931   2.905  1.8360 -0.1610  1.8150
15901TIP3    H247626   0.722   7.947   3.049  0.4139  0.8913  1.2843
15902TIP3   OH247627   7.580   0.764   4.407 -0.0955 -0.0471  0.0077
15902TIP3    H147628   7.592   0.687   4.464 -0.1128 -0.7257 -0.8909
15902TIP3    H247629   7.595   0.839   4.465  2.3073 -0.7527  0.3913
15903TIP3   OH247630   8.181   3.722   4.294 -0.1635 -0.5907  0.0803
15903TIP3    H147631   8.241   3.717   4.368 -0.6677 -2.4209  0.4199
15903TIP3    H247632   8.234   3.696   4.218  1.0633  3.6908 -0.8046
15904TIP3   OH247633   7.138   8.029   2.489  0.0679 -0.4538 -0.2170
15904TIP3    H147634   7.230   8.023   2.514 -0.0392 -3.4225 -0.1772
15904TIP3    H247635   7.138   8.034   2.393  0.2922 -2.4480 -0.3526
15905TIP3   OH247636   7.602   7.781   6.432  0.3520 -0.3307  0.0870
15905TIP3    H147637   7.532   7.718   6.415  1.0033 -0.7659 -1.1703
15905TIP3    H247638   7.636   7.803   6.345  0.4322  1.4431  0.5196
15906TIP3   OH247639   6.600   5.241   6.608 -0.0458  0.3558  0.0960
15906TIP3    H147640   6.621   5.246   6.702 -0.0942  1.8203  0.0546
15906TIP3    H247641   6.511   5.277   6.602 -1.4658 -2.8328 -0.1251
15907TIP3   OH247642   7.181   7.784   3.006 -0.4653 -0.1216 -0.1615
15907TIP3    H147643   7.230   7.767   2.926 -1.7837 -1.3030 -0.7423
15907TIP3    H247644   7.229   7.736   3.074 -0.5626 -0.9163 -0.6452
15908TIP3   OH247645   0.835   5.523   4.992  0.4705  0.4723 -0.0601
15908TIP3    H147646   0.807   5.543   5.081  0.4273 -1.7590  0.4859
15908TIP3    H247647   0.755   5.492   4.948  0.8902 -0.4332 -0.2134
15909TIP3   OH247648   0.274   6.609   4.963 -0.6390 -0.5432  0.2169
15909TIP3    H147649   0.260   6.567   5.048 -2.5060  0.2986  0.3583
15909TIP3    H247650   0.313   6.694   4.984 -0.0083 -0.8001  0.1301
15910TIP3   OH247651   4.501   3.869   1.291  0.2964 -0.5165 -0.0168
15910TIP3    H147652   4.549   3.848   1.211 -1.5827 -0.0867 -1.3554
15910TIP3    H247653   4.417   3.904   1.259  0.2406  1.5918  2.1160
15911TIP3   OH247654   6.930   0.902   2.914 -0.3607  0.0647 -0.4396
15911TIP3    H147655   6.962   0.834   2.973 -0.0358  2.4873  2.3859
15911TIP3    H247656   7.009   0.939   2.874 -0.4095 -0.2076 -0.7875
15912TIP3   OH247657   3.900   7.094   0.524  0.3192 -0.4300  0.1246
15912TIP3    H147658   3.886   7.149   0.601  1.6076  1.1758 -0.7073
15912TIP3    H247659   3.941   7.153   0.461  1.4816 -2.3014 -0.9406
15913TIP3   OH247660   6.674   7.964   0.323  0.4576 -0.0030  0.1018
15913TIP3    H147661   6.642   7.885   0.366  2.3950 -0.9777 -0.1633
15913TIP3    H247662   6.683   7.940   0.231  1.7850  0.2854  0.1456
15914TIP3   OH247663   7.033   1.495   1.798  0.1803 -0.5747 -0.2560
15914TIP3    H147664   7.034   1.590   1.788 -0.0456 -0.6768 -1.3352
15914TIP3    H247665   7.108   1.465   1.746  1.2349 -0.8897  1.3701
15915TIP3   OH247666   4.431   0.867   1.802  0.1407  0.5016  0.4950
15915TIP3    H147667   4.420   0.938   1.864 -0.3882  1.5924 -0.8091
15915TIP3    H247668   4.344   0.852   1.766  0.4314 -0.1438  0.0392
15916TIP3   OH247669   0.474   4.380   4.593  0.4484 -0.0072 -0.7762
15916TIP3    H147670   0.460   4.341   4.680 -1.7665 -2.6521 -2.1508
15916TIP3    H247671   0.567   4.401   4.591  0.6628 -0.2668  2.0631
15917TIP3   OH247672   1.732   6.741   2.225 -0.2674 -0.1053  0.1996
15917TIP3    H147673   1.691   6.689   2.294  2.1128 -0.7465  1.2160
15917TIP3    H247674   1.724   6.687   2.146 -1.0385 -0.3481  0.4335
15918TIP3   OH247675   5.225   0.663   0.297  0.0629  0.0214 -0.1219
15918TIP3    H147676   5.287   0.692   0.230  0.0024  1.4524  0.4090
15918TIP3    H247677   5.271   0.592   0.343  0.9964  0.5241 -0.2566
15919TIP3   OH247678   1.795   7.313   0.395 -0.2366  0.0302 -0.3724
15919TIP3    H147679   1.874   7.341   0.442  0.0445  0.9140 -1.3401
15919TIP3    H247680   1.759   7.243   0.449 -0.1482  1.2541  1.3558
15920TIP3   OH247681   5.285   3.939   3.353  0.0794  0.2262 -0.5190
15920TIP3    H147682   5.316   4.029   3.359 -2.3085  1.0206  2.3805
15920TIP3    H247683   5.319   3.896   3.432 -0.2829 -0.8737 -0.9347
15921TIP3   OH247684   5.044   3.927   6.836 -0.4388 -0.0238  0.4430
15921TIP3    H147685   5.094   3.954   6.913  0.2213 -1.6463  0.6177
15921TIP3    H247686   5.102   3.866   6.790 -1.8638 -1.1807  0.1159
15922TIP3   OH247687   8.505   4.190   5.488 -0.2117 -0.1260 -0.1919
15922TIP3    H147688   8.589   4.165   5.527 -0.3590  1.6433  1.4575
15922TIP3    H247689   8.526   4.267   5.434 -0.7747  0.4258  0.3604
15923TIP3   OH247690   1.352   1.550   5.072 -0.9022 -0.5864  0.7759
15923TIP3    H147691   1.434   1.516   5.035 -1.8671 -0.1631 -1.9594
15923TIP3    H247692   1.298   1.473   5.086 -1.1398 -0.6360 -0.3532
15924TIP3   OH247693   3.602   1.098   0.015  0.2793  0.0578  0.0711
15924TIP3    H147694   3.607   1.099   0.111  0.1786 -1.2756  0.1196
15924TIP3    H247695   3.516   1.136  -0.005  0.3171  0.3777  0.5094
15925TIP3   OH247696   3.700   5.626   5.157  0.0519 -0.4252 -0.8235
15925TIP3    H147697   3.701   5.666   5.070  1.7720 -0.5089 -0.8793
15925TIP3    H247698   3.678   5.535   5.142 -0.6513 -0.2241 -1.0495
15926TIP3   OH247699   6.616   0.155   7.007 -0.4090  0.2093  0.0195
15926TIP3    H147700   6.614   0.097   6.931 -0.0439  1.6657 -1.1524
15926TIP3    H247701   6.525   0.172   7.027 -0.5043  0.4389 -0.5955
15927TIP3   OH247702   4.668   7.371   5.944 -0.1951  0.2958  0.2040
15927TIP3    H147703   4.741   7.368   6.005  0.8377 -0.1470 -0.9991
15927TIP3    H247704   4.606   7.306   5.977 -0.2759  1.0119  1.4990
15928TIP3   OH247705   0.175   0.894   2.483  0.6699  0.5225  0.3089
15928TIP3    H147706   0.148   0.980   2.516 -0.1524  0.2144  0.4648
15928TIP3    H247707   0.264   0.883   2.516  0.6434  1.1497  0.6122
15929TIP3   OH247708   6.314   4.798   4.212  0.1931 -0.5560  0.2760
15929TIP3    H147709   6.305   4.743   4.134 -2.3394  1.5468 -1.0441
15929TIP3    H247710   6.225   4.811   4.243  0.9400  0.7233  2.0635
15930TIP3   OH247711   4.588   4.117   4.834  0.1155 -0.4137 -0.2322
15930TIP3    H147712   4.676   4.153   4.842  0.9970 -2.4014 -0.5674
15930TIP3    H247713   4.530   4.192   4.851  1.8345  1.3136 -1.6099
15931TIP3   OH247714   2.061   7.003   3.946  0.5297  0.1806 -0.0392
15931TIP3    H147715   2.048   6.984   3.853  0.4113 -0.2222  0.0558
15931TIP3    H247716   2.086   6.919   3.984 -0.6811  0.0444  0.5207
15932TIP3   OH247717   5.322   6.184   4.656 -0.0894 -0.2821  0.5067
15932TIP3    H147718   5.264   6.162   4.729 -1.7062  1.1634 -0.2535
15932TIP3    H247719   5.410   6.169   4.690 -0.8563 -2.2383  1.8277
15933TIP3   OH247720   4.877   0.137   2.035  0.5829 -0.3647 -0.1616
15933TIP3    H147721   4.809   0.168   1.975  0.5841  0.1469  0.1029
15933TIP3    H247722   4.956   0.184   2.009  0.6104 -0.2288  0.1628
15934TIP3   OH247723   0.837   4.858   2.396  0.2695  0.4792  1.0043
15934TIP3    H147724   0.766   4.795   2.407  0.9222 -0.2588  1.1250
15934TIP3    H247725   0.895   4.818   2.331  0.7628  0.8867  1.1853
15935TIP3   OH247726   4.831   5.411   0.243 -0.1165 -0.0114 -0.8983
15935TIP3    H147727   4.818   5.486   0.301  2.7954  0.8911 -1.2060
15935TIP3    H247728   4.781   5.433   0.164  1.4682  2.2481 -1.4018
15936TIP3   OH247729   3.376   0.100   1.536  0.2187  0.5170  0.1043
15936TIP3    H147730   3.371   0.063   1.448 -1.4472  0.1526  0.3182
15936TIP3    H247731   3.388   0.024   1.593  0.7175  0.6932  0.2318
15937TIP3   OH247732   1.189   7.264   3.199 -0.1027 -0.3643 -0.6732
15937TIP3    H147733   1.115   7.322   3.217  1.5551  1.2842  1.2318
15937TIP3    H247734   1.149   7.185   3.163 -2.7016  0.7884 -0.5120
15938TIP3   OH247735   0.081   6.614   0.031 -0.2239 -0.4380 -0.4349
15938TIP3    H147736   0.123   6.542   0.077 -1.5474 -2.2769 -1.9420
15938TIP3    H247737   0.080   6.686   0.094  1.1045 -1.7314  1.1437
15939TIP3   OH247738   5.915   1.669   2.132  0.2806 -0.1687 -0.2850
15939TIP3    H147739   5.843   1.661   2.070  0.4170  0.0035 -0.4664
15939TIP3    H247740   5.873   1.682   2.216  0.0921  2.4815 -0.7192
15940TIP3   OH247741   7.413   7.864   4.899  0.7810 -0.0575  0.1560
15940TIP3    H147742   7.321   7.847   4.878  0.6427  2.1448 -1.2876
15940TIP3    H247743   7.412   7.893   4.990 -0.0678  0.6338 -0.0599
15941TIP3   OH247744   2.586   5.892   4.867 -0.4830 -0.2867 -0.1178
15941TIP3    H147745   2.573   5.817   4.809 -2.6319 -0.5062  0.5730
15941TIP3    H247746   2.552   5.966   4.818 -0.5954 -0.1589  0.1527
15942TIP3   OH247747   0.492   2.070   0.122  0.0046 -0.2297  0.8293
15942TIP3    H147748   0.470   1.995   0.179 -0.8790  0.8981  2.0444
15942TIP3    H247749   0.485   2.035   0.033 -2.5075 -1.1190  1.2808
15943TIP3   OH247750   1.380   3.270   6.497 -0.3699  0.1150 -0.7487
15943TIP3    H147751   1.352   3.207   6.430 -0.0176 -1.6823  0.7096
15943TIP3    H247752   1.469   3.293   6.472 -1.0583  1.3819 -2.2072
15944TIP3   OH247753   4.992   7.468   5.569 -0.5959  0.1365  0.1808
15944TIP3    H147754   5.025   7.457   5.658 -1.0735 -1.0889  0.2267
15944TIP3    H247755   4.899   7.446   5.575 -0.5376 -0.3993 -0.6893
15945TIP3   OH247756   3.539   2.435   0.949  0.2745 -0.0010  0.6296
15945TIP3    H147757   3.590   2.516   0.945  1.6993 -0.8910 -0.3481
15945TIP3    H247758   3.603   2.368   0.972  0.2009 -1.5703 -2.9945
15946TIP3   OH247759   4.229   1.983   3.260  0.6198 -0.4065 -0.3286
15946TIP3    H147760   4.167   2.035   3.310 -0.7581 -1.3327 -1.0054
15946TIP3    H247761   4.309   1.982   3.313  0.5022  1.8619 -0.0285
15947TIP3   OH247762   6.911   3.554   1.594 -0.6128  0.1231 -0.0815
15947TIP3    H147763   6.834   3.555   1.650 -0.4340  0.0330  0.1687
15947TIP3    H247764   6.937   3.462   1.590  0.8417  0.3976  1.7297
15948TIP3   OH247765   3.274   5.458   1.293 -0.1553  0.5532  0.6586
15948TIP3    H147766   3.272   5.365   1.316  0.1831  0.6214  0.9703
15948TIP3    H247767   3.365   5.484   1.305 -0.1786  0.8376  0.2085
15949TIP3   OH247768   6.246   3.816   6.195  0.0092 -0.1132 -0.2459
15949TIP3    H147769   6.208   3.899   6.168  2.2080  0.6367 -1.2681
15949TIP3    H247770   6.218   3.805   6.286 -1.8551  0.7911 -0.6784
15950TIP3   OH247771   6.865   7.950   4.853 -0.4907 -0.2851  0.3324
15950TIP3    H147772   6.800   7.883   4.830 -0.4692 -0.6420  1.2567
15950TIP3    H247773   6.943   7.900   4.877  0.8972  0.1595 -2.7521
15951TIP3   OH247774   4.517   6.552   6.112 -0.3223  0.7123  0.4073
15951TIP3    H147775   4.430   6.521   6.137 -0.4081  0.6634  0.0563
15951TIP3    H247776   4.561   6.569   6.195 -0.6264  0.6261  0.5890
15952TIP3   OH247777   8.317   0.355   2.888 -0.3317 -0.3892  0.1329
15952TIP3    H147778   8.323   0.260   2.874 -0.3378 -0.2212 -1.0698
15952TIP3    H247779   8.262   0.387   2.817  1.5369  0.8008 -0.8756
15953TIP3   OH247780   5.745   1.102   4.326  0.0425  0.4314 -0.4916
15953TIP3    H147781   5.773   1.147   4.246 -0.3092  1.2574 -0.1671
15953TIP3    H247782   5.651   1.086   4.312 -0.0267  0.6118 -0.2254
15954TIP3   OH247783   4.330   3.928   1.906  0.2078 -0.6288  0.0900
15954TIP3    H147784   4.285   3.923   1.991  1.4037 -0.8040  0.7319
15954TIP3    H247785   4.284   3.864   1.851 -1.7632  0.7716 -0.0075
15955TIP3   OH247786   4.543   3.254   1.274 -0.1933  0.0716 -0.2886
15955TIP3    H147787   4.485   3.183   1.300 -1.5412  0.0065 -3.0543
15955TIP3    H247788   4.563   3.237   1.182 -0.1505  2.9481 -0.9266
15956TIP3   OH247789   0.760   1.849   2.678 -0.2878  0.4978 -0.2058
15956TIP3    H147790   0.803   1.810   2.602  3.3724  2.6971  0.4585
15956TIP3    H247791   0.717   1.928   2.644  0.2051  0.7663 -0.2151
15957TIP3   OH247792   5.314   3.186   6.594 -0.3818 -0.1821  0.3806
15957TIP3    H147793   5.360   3.169   6.512  1.4828  2.9856  0.5988
15957TIP3    H247794   5.266   3.268   6.577 -1.7010 -0.6084  1.8375
15958TIP3   OH247795   4.619   2.091   5.545 -0.3232 -0.4670  0.1740
15958TIP3    H147796   4.695   2.037   5.570 -0.3714 -0.0077  1.3813
15958TIP3    H247797   4.622   2.093   5.449  1.4480 -0.0997  0.2042
15959TIP3   OH247798   0.879   3.510   4.032  0.2584  0.0606  0.1589
15959TIP3    H147799   0.841   3.434   3.987  1.1146 -0.2346 -0.0862
15959TIP3    H247800   0.829   3.585   3.999  0.1012 -0.2833 -0.3943
15960TIP3   OH247801   1.329   6.622   6.626 -0.6896 -0.1426 -0.4727
15960TIP3    H147802   1.304   6.535   6.655 -1.4592  0.2239 -0.0267
15960TIP3    H247803   1.314   6.679   6.701  0.9614  0.1987 -0.3462
15961TIP3   OH247804   4.537   3.259   2.697 -0.3734 -0.1840  0.6993
15961TIP3    H147805   4.523   3.213   2.614  0.2088  1.6041 -0.4466
15961TIP3    H247806   4.631   3.252   2.713  0.1693  2.3893 -0.7000
15962TIP3   OH247807   6.131   5.899   3.463  0.0161  0.6857  0.2557
15962TIP3    H147808   6.099   5.989   3.472  2.1611  1.4606  0.6528
15962TIP3    H247809   6.086   5.851   3.533  0.6383  2.0051  1.6211
15963TIP3   OH247810   5.130   3.703   2.778 -0.0007  0.3212 -0.3024
15963TIP3    H147811   5.192   3.771   2.751  1.2612 -1.2512 -1.5963
15963TIP3    H247812   5.117   3.650   2.700 -0.5374 -1.2325  0.8004
15964TIP3   OH247813   1.871   2.114   3.994  0.1126 -0.0626  0.1548
15964TIP3    H147814   1.948   2.166   4.016  0.2092  0.4710 -1.3516
15964TIP3    H247815   1.847   2.142   3.906 -1.5858 -0.4895  0.4418
15965TIP3   OH247816   6.069   0.241   4.140 -0.2737  0.4140  0.3441
15965TIP3    H147817   6.122   0.230   4.219 -0.7931  0.2193  0.6654
15965TIP3    H247818   5.979   0.227   4.169 -0.3802 -0.7904 -0.5061
15966TIP3   OH247819   5.257   6.422   6.855  0.0289  0.3068  0.4995
15966TIP3    H147820   5.223   6.341   6.816  0.7795 -0.1615  0.7757
15966TIP3    H247821   5.348   6.401   6.876  0.3316  1.3456  0.2653
15967TIP3   OH247822   3.165   2.351   3.400  0.4977 -0.1129 -0.0635
15967TIP3    H147823   3.113   2.314   3.471 -0.2977 -0.7179 -0.9337
15967TIP3    H247824   3.168   2.444   3.418 -0.6649 -0.1040  0.1770
15968TIP3   OH247825   1.016   5.254   1.200 -0.2451 -0.0151 -0.0932
15968TIP3    H147826   1.040   5.167   1.232  0.2607 -0.0347 -0.5045
15968TIP3    H247827   1.084   5.312   1.236 -0.1306  0.0858 -0.4691
15969TIP3   OH247828   7.301   7.736   2.774  0.1742 -0.2917 -0.4789
15969TIP3    H147829   7.305   7.704   2.684 -0.9276 -1.4483 -0.1533
15969TIP3    H247830   7.284   7.830   2.766 -0.0774 -0.4116 -1.4759
15970TIP3   OH247831   3.479   8.012   1.343  0.0128  0.1265 -0.4306
15970TIP3    H147832   3.453   8.055   1.262 -0.5713  1.0331  0.2116
15970TIP3    H247833   3.462   7.919   1.328 -1.8201  0.4761 -0.7354
15971TIP3   OH247834   0.101   4.144   2.700  0.0315  0.2527 -0.0044
15971TIP3    H147835   0.145   4.121   2.619 -0.2514  0.0582 -0.1020
15971TIP3    H247836   0.103   4.240   2.702 -0.2183  0.2666 -0.3813
15972TIP3   OH247837   0.206   3.207   6.506 -0.4744 -0.2512  0.2693
15972TIP3    H147838   0.148   3.262   6.453  0.4570 -0.7197 -1.2970
15972TIP3    H247839   0.290   3.210   6.460  0.9306  0.8206  2.7660
15973TIP3   OH247840   2.648   0.143   3.443 -0.2557  0.2369  0.4619
15973TIP3    H147841   2.664   0.064   3.495 -1.2689  0.3741  1.0071
15973TIP3    H247842   2.557   0.167   3.463 -0.8952 -0.0340 -1.8250
15974TIP3   OH247843   4.121   1.050   5.582  0.5955 -0.4924  0.8090
15974TIP3    H147844   4.206   1.058   5.624 -0.3945  1.5330  2.6650
15974TIP3    H247845   4.061   1.029   5.654 -0.8421  0.8950  0.0828
15975TIP3   OH247846   7.660   2.516   6.122 -0.2946  0.8116  0.1888
15975TIP3    H147847   7.710   2.553   6.194  1.1213 -0.9036  0.1633
15975TIP3    H247848   7.725   2.502   6.053 -1.0170 -0.4149 -0.2774
15976TIP3   OH247849   8.561   0.763   3.772 -0.1850  0.6187  0.6025
15976TIP3    H147850   8.501   0.804   3.710 -0.7371 -0.3959  0.4367
15976TIP3    H247851   8.516   0.683   3.799 -0.1044  1.1802  2.5669
15977TIP3   OH247852   2.390   6.857   6.210 -0.0730 -0.1467  0.8285
15977TIP3    H147853   2.368   6.879   6.120  2.1496  0.5089  0.3665
15977TIP3    H247854   2.452   6.925   6.237 -1.1678  0.0375  3.1006
15978TIP3   OH247855   6.183   4.597   2.914  0.1004  0.3138  0.2166
15978TIP3    H147856   6.140   4.669   2.959 -0.9118 -0.4618  0.5335
15978TIP3    H247857   6.113   4.555   2.863  0.7856 -0.1035 -0.4094
15979TIP3   OH247858   1.428   5.953   6.073  0.4941 -0.1548  0.4309
15979TIP3    H147859   1.512   5.997   6.060 -0.3006  1.2028 -0.4077
15979TIP3    H247860   1.404   5.973   6.163  0.7813 -0.0259  0.4790
15980TIP3   OH247861   2.204   3.727   5.803  0.1326  0.2570 -0.2821
15980TIP3    H147862   2.266   3.667   5.844 -0.9947 -0.6516  0.1148
15980TIP3    H247863   2.224   3.721   5.709  1.1730  0.6060 -0.1050
15981TIP3   OH247864   2.150   2.505   6.080 -0.6022  0.0351  0.2580
15981TIP3    H147865   2.100   2.543   6.007  0.9086 -1.7194 -1.8260
15981TIP3    H247866   2.145   2.411   6.065  0.3906 -0.3380  2.0406
15982TIP3   OH247867   8.091   2.386   5.528 -0.3847  0.0747  0.1509
15982TIP3    H147868   8.113   2.319   5.592  0.2523 -0.1345 -0.2801
15982TIP3    H247869   8.000   2.409   5.548 -0.5932 -0.8713  0.3372
15983TIP3   OH247870   7.252   3.180   6.954  0.6194 -0.0244  0.2357
15983TIP3    H147871   7.245   3.213   6.864  4.1880  1.0564  0.2235
15983TIP3    H247872   7.170   3.208   6.995 -0.9504 -0.1840 -2.5225
15984TIP3   OH247873   7.067   1.194   4.002 -0.0345  0.7957  0.7463
15984TIP3    H147874   7.009   1.123   4.028  1.5667 -0.7596  0.2316
15984TIP3    H247875   7.144   1.185   4.057  0.7600  1.3004 -0.2409
15985TIP3   OH247876   2.882   1.062   6.936 -0.0558  0.0875 -0.1144
15985TIP3    H147877   2.946   1.066   7.007 -1.5140 -0.0989  1.2959
15985TIP3    H247878   2.931   1.031   6.860  1.6869  0.8082  0.6566
15986TIP3   OH247879   2.344   5.555   3.362  0.0417 -0.0817 -0.4394
15986TIP3    H147880   2.372   5.644   3.339 -0.8824  0.2908 -0.1791
15986TIP3    H247881   2.364   5.503   3.285  0.6449  0.3355 -0.5745
15987TIP3   OH247882   6.302   7.677   4.952 -0.0857  0.3054  0.3774
15987TIP3    H147883   6.328   7.585   4.948 -3.5081 -0.7948 -0.2300
15987TIP3    H247884   6.291   7.695   5.046 -1.7122 -0.7591  0.4429
15988TIP3   OH247885   1.150   2.003   4.991  0.0310 -0.0141  0.5379
15988TIP3    H147886   1.090   1.989   4.918 -0.1045  0.1245  0.6227
15988TIP3    H247887   1.142   1.923   5.044 -1.1086  0.5637  1.2781
15989TIP3   OH247888   3.480   3.114   2.287 -0.2554  0.8292  0.6785
15989TIP3    H147889   3.523   3.029   2.276 -0.9047  0.5090  0.5594
15989TIP3    H247890   3.387   3.096   2.274 -0.2537  1.8562 -1.0431
15990TIP3   OH247891   6.978   3.395   3.093 -0.4068 -0.6864  0.0347
15990TIP3    H147892   6.911   3.384   3.161 -0.5022  0.2036  0.0997
15990TIP3    H247893   7.031   3.469   3.124  1.0432 -1.7856  0.3210
15991TIP3   OH247894   7.106   6.977   6.806  0.1381  0.7300  0.0197
15991TIP3    H147895   7.164   7.024   6.866 -0.2561 -0.9545  1.8440
15991TIP3    H247896   7.098   6.890   6.844  0.4955 -0.7455 -2.9549
15992TIP3   OH247897   0.605   0.969   4.608 -0.0769 -0.5093 -0.1797
15992TIP3    H147898   0.639   0.985   4.696 -1.9024  1.0340  0.3243
15992TIP3    H247899   0.657   1.026   4.551 -1.1746  1.2003  0.4530
15993TIP3   OH247900   4.674   0.865   0.533  0.1667  0.3046  0.0585
15993TIP3    H147901   4.602   0.816   0.493  0.5337  0.0980 -0.3592
15993TIP3    H247902   4.752   0.811   0.517  0.7399  1.4569 -1.2783
15994TIP3   OH247903   8.218   3.221   4.969  0.0286 -0.6187  0.3212
15994TIP3    H147904   8.307   3.210   5.004 -0.2263 -2.6746  0.4302
15994TIP3    H247905   8.228   3.209   4.874  0.4518  3.3225 -0.3349
15995TIP3   OH247906   4.084  -0.007   1.453  0.5913 -0.1702  0.1538
15995TIP3    H147907   4.071   0.087   1.460  2.0284 -0.0746  3.2270
15995TIP3    H247908   3.996  -0.045   1.454  0.0483  1.0655  1.2102
15996TIP3   OH247909   3.604   5.346   5.193  0.0264 -0.5705  0.0619
15996TIP3    H147910   3.579   5.318   5.105 -0.7168 -0.1326  0.1227
15996TIP3    H247911   3.591   5.269   5.248 -0.7965 -0.4736  0.0131
15997TIP3   OH247912   3.622   1.486   6.240 -0.0104 -0.3257 -0.1948
15997TIP3    H147913   3.646   1.569   6.198 -0.5061 -0.0707  0.0102
15997TIP3    H247914   3.549   1.453   6.187 -2.4023  1.2639  1.8442
15998TIP3   OH247915   2.763   1.911   6.547  0.0463  0.0489  0.1224
15998TIP3    H147916   2.816   1.991   6.546 -0.2398  0.2415  0.3081
15998TIP3    H247917   2.826   1.841   6.527  0.0420  0.4614 -1.5516
15999TIP3   OH247918   7.682   3.147   4.367 -0.0320  0.1597  0.2120
15999TIP3    H147919   7.631   3.158   4.447  1.0675  2.1505  0.7041
15999TIP3    H247920   7.734   3.227   4.360  1.6774 -0.9921 -1.2281
16000TIP3   OH247921   7.732   0.578   7.079 -0.1229  0.4772  0.0706
16000TIP3    H147922   7.666   0.514   7.054  0.2680  0.8904 -2.1795
16000TIP3    H247923   7.803   0.526   7.116 -1.0034 -0.0964  1.0125
16001TIP3   OH247924   2.323   2.655   3.524 -0.0812 -0.4855  0.1529
16001TIP3    H147925   2.254   2.629   3.585 -0.8328 -2.5297 -1.4368
16001TIP3    H247926   2.297   2.741   3.493 -1.2042 -0.6522  0.5894
16002TIP3   OH247927   0.475   1.691   5.372 -0.0459 -0.0039  0.2907
16002TIP3    H147928   0.470   1.784   5.393  2.8273  0.4005 -0.3758
16002TIP3    H247929   0.464   1.688   5.277 -1.2111 -0.5167  0.4209
16003TIP3   OH247930   4.596   2.743   1.542  0.2723 -0.7632 -0.1267
16003TIP3    H147931   4.675   2.690   1.552  2.4841  1.8172 -2.4349
16003TIP3    H247932   4.556   2.713   1.461  0.6333  0.0030 -0.5932
16004TIP3   OH247933   7.837   6.676   0.276 -0.2926  0.0741  0.0906
16004TIP3    H147934   7.796   6.661   0.191 -1.3942 -1.4072  0.8237
16004TIP3    H247935   7.885   6.758   0.266 -1.7663  0.8102 -1.4361
16005TIP3   OH247936   8.655   4.809   2.198 -0.4567 -0.3362 -0.0273
16005TIP3    H147937   8.670   4.743   2.266  1.2934 -0.0262 -0.0785
16005TIP3    H247938   8.666   4.762   2.116 -1.1979 -0.3993 -0.0999
16006TIP3   OH247939   5.502   3.491   2.184  0.3935 -0.0487 -0.4548
16006TIP3    H147940   5.495   3.514   2.091  1.5552  0.8714 -0.3378
16006TIP3    H247941   5.568   3.551   2.218 -0.5309  0.1125  1.1339
16007TIP3   OH247942   7.374   2.505   3.577 -0.2347 -0.0961  0.6209
16007TIP3    H147943   7.368   2.509   3.482 -1.9043  2.1086  0.7147
16007TIP3    H247944   7.333   2.422   3.601 -2.2542  0.4848 -0.5326
16008TIP3   OH247945   3.388   0.089   0.847 -0.3169 -0.9213 -0.0617
16008TIP3    H147946   3.401   0.147   0.772  2.3798  0.2436  1.1628
16008TIP3    H247947   3.458   0.024   0.840  2.1110  1.0838  2.9593
16009TIP3   OH247948   1.052   6.297   1.658 -0.5577 -0.2074 -0.2196
16009TIP3    H147949   1.058   6.224   1.720 -1.2101  1.5828  2.1175
16009TIP3    H247950   1.128   6.351   1.677 -0.5538  0.1948 -1.3151
16010TIP3   OH247951   5.852   2.782   4.047  0.1612  0.0642 -0.2579
16010TIP3    H147952   5.837   2.867   4.005  0.4750  0.1396 -0.2187
16010TIP3    H247953   5.824   2.794   4.138 -2.0635 -0.5519 -0.7808
16011TIP3   OH247954   2.487   5.548   5.481 -0.2018  0.0873  0.3454
16011TIP3    H147955   2.393   5.538   5.468 -0.0924  0.0316 -0.4147
16011TIP3    H247956   2.513   5.618   5.421  0.4704 -0.8257 -0.4779
16012TIP3   OH247957   3.972   0.223   5.163 -0.1858 -0.4806  0.0488
16012TIP3    H147958   3.901   0.240   5.224  0.2120  0.9859  0.1529
16012TIP3    H247959   3.929   0.200   5.081 -0.7707  0.0005  0.2149
16013TIP3   OH247960   8.080   0.617   6.429  0.0452  0.1052  0.0081
16013TIP3    H147961   8.139   0.542   6.419 -0.3008 -0.0288 -1.1933
16013TIP3    H247962   8.040   0.627   6.343 -0.4285  1.2492  0.3461
16014TIP3   OH247963   0.333   7.700   1.199  0.1526 -0.2142  0.4417
16014TIP3    H147964   0.274   7.632   1.233 -2.4645  1.3297 -0.7061
16014TIP3    H247965   0.283   7.781   1.204  1.4216  0.9061 -2.4306
16015TIP3   OH247966   5.255   2.911   2.473 -0.2399  0.1120  0.0313
16015TIP3    H147967   5.251   2.820   2.501  0.2216  0.4208  1.1476
16015TIP3    H247968   5.201   2.958   2.536  1.9161  1.0160  1.3319
16016TIP3   OH247969   2.264   1.741   0.912 -0.4271 -0.4158  0.5276
16016TIP3    H147970   2.269   1.699   0.826  1.5758 -1.4173  1.0581
16016TIP3    H247971   2.327   1.813   0.907 -1.6107  0.6573  0.6150
16017TIP3   OH247972   0.029   5.648   5.749 -0.2427  0.2617 -0.4727
16017TIP3    H147973   0.036   5.742   5.730  1.0515  0.5220  1.0416
16017TIP3    H247974   0.085   5.606   5.683 -0.7376  0.5527 -1.0861
16018TIP3   OH247975   8.404   1.506   4.481  0.3103  0.1192 -0.3791
16018TIP3    H147976   8.411   1.593   4.443  1.1263  0.8808  1.4047
16018TIP3    H247977   8.492   1.486   4.512 -0.0209 -1.0509 -0.1380
16019TIP3   OH247978   6.973   5.135   3.344 -0.1286 -0.2350 -0.0601
16019TIP3    H147979   7.059   5.111   3.307 -0.3170  0.2853 -0.8769
16019TIP3    H247980   6.940   5.203   3.284 -0.5877  0.4229  0.9200
16020TIP3   OH247981   7.624   3.816   6.529 -0.0528 -1.1154  0.2393
16020TIP3    H147982   7.666   3.768   6.457 -0.8106 -0.9356 -0.3401
16020TIP3    H247983   7.542   3.769   6.544  0.0718 -1.1157  0.9629
16021TIP3   OH247984   6.665   2.688   2.209  0.2801 -0.3063  0.2817
16021TIP3    H147985   6.754   2.659   2.192  1.3219  1.8554  1.6472
16021TIP3    H247986   6.623   2.611   2.249  1.4822 -1.3582 -0.3845
16022TIP3   OH247987   4.332   1.392   1.192 -0.1263 -0.1761  0.2722
16022TIP3    H147988   4.274   1.354   1.125 -0.1919  0.1798  0.1277
16022TIP3    H247989   4.412   1.414   1.144 -0.0393 -0.2497  0.3826
16023TIP3   OH247990   5.107   5.983   5.938  0.1993 -0.4905  0.2115
16023TIP3    H147991   5.187   5.934   5.960  0.3236  0.2449  1.5300
16023TIP3    H247992   5.080   6.023   6.021 -1.3258 -0.3963 -0.3000
16024TIP3   OH247993   1.414   6.982   1.567 -0.5083 -0.4875 -0.1390
16024TIP3    H147994   1.463   6.957   1.645 -0.4885 -0.8383 -0.2605
16024TIP3    H247995   1.323   6.958   1.587 -0.8358  1.1846  0.5258
16025TIP3   OH247996   3.939   5.656   4.323  0.6685 -0.8419 -0.2718
16025TIP3    H147997   3.857   5.695   4.354  1.0391 -0.2701  0.0108
16025TIP3    H247998   3.951   5.692   4.235  0.7256 -0.7645 -0.2315
16026TIP3   OH247999   4.350   4.486   6.984 -0.2379 -0.4882 -0.6056
16026TIP3    H148000   4.331   4.419   7.049  0.8516  0.7470  1.0907
16026TIP3    H248001   4.431   4.456   6.943 -1.4486 -1.7657 -2.1617
16027TIP3   OH248002   7.636   6.648   5.728  0.3315 -0.0054  0.2891
16027TIP3    H148003   7.723   6.629   5.691 -0.5705  0.1858 -2.0897
16027TIP3    H248004   7.635   6.743   5.739 -0.3911  0.3116 -2.0611
16028TIP3   OH248005   1.994   5.663   6.128  0.4564  0.1660  0.1973
16028TIP3    H148006   2.027   5.586   6.081 -0.7753  0.0878 -0.5811
16028TIP3    H248007   1.911   5.633   6.166  0.2824  0.9390  0.4287
16029TIP3   OH248008   7.298   6.126   5.449  0.2332  0.0657 -0.2957
16029TIP3    H148009   7.251   6.079   5.380  0.1094 -1.4719  0.8127
16029TIP3    H248010   7.229   6.171   5.498  0.0159 -1.2168  0.5976
16030TIP3   OH248011   5.750   5.904   3.375  0.2183  0.1878  0.0709
16030TIP3    H148012   5.693   5.941   3.442 -0.6244  0.3670 -0.7147
16030TIP3    H248013   5.736   5.960   3.299  2.6992  1.2651  0.3057
16031TIP3   OH248014   7.958   2.908   0.990 -0.2483 -0.2506  0.8076
16031TIP3    H148015   7.889   2.876   1.049 -0.7335 -1.5799 -0.4173
16031TIP3    H248016   8.032   2.849   1.006  0.2331  0.4687  1.3033
16032TIP3   OH248017   6.840   7.116   1.254  0.1641 -0.4565  0.4153
16032TIP3    H148018   6.892   7.038   1.236 -0.0196 -0.3535 -0.6042
16032TIP3    H248019   6.749   7.086   1.245  0.0568 -0.4185  1.2831
16033TIP3   OH248020   4.210   3.016   3.036  0.4375 -0.3678 -0.0733
16033TIP3    H148021   4.275   3.066   2.986  1.0644  0.9841  1.9554
16033TIP3    H248022   4.261   2.966   3.099 -0.3964 -0.5451  0.4780
16034TIP3   OH248023   1.893   3.211   4.472  0.5433 -0.0257  0.1251
16034TIP3    H148024   1.901   3.306   4.460  1.8940  0.1844  2.1820
16034TIP3    H248025   1.817   3.201   4.528  1.4557  0.0410  1.4273
16035TIP3   OH248026   1.646   0.301   6.916  0.2036 -0.3221  0.2106
16035TIP3    H148027   1.667   0.212   6.889 -2.0849 -0.6608 -0.6768
16035TIP3    H248028   1.699   0.356   6.858 -0.5455 -1.1160 -1.2830
16036TIP3   OH248029   0.497   6.407   6.505 -0.3628  0.3291  0.6158
16036TIP3    H148030   0.533   6.448   6.426 -0.1725  0.8935  0.9873
16036TIP3    H248031   0.543   6.451   6.577  1.2941 -1.8754  1.0006
16037TIP3   OH248032   8.651   0.784   6.033  0.2296  0.1094 -0.5745
16037TIP3    H148033   8.569   0.816   5.996 -0.4361 -2.0791 -1.1290
16037TIP3    H248034   8.628   0.700   6.074  1.9192  0.1361  0.5553
16038TIP3   OH248035   6.852   0.338   2.822  0.0726 -0.1764 -0.0255
16038TIP3    H148036   6.795   0.397   2.773  0.9069  0.7462  0.0797
16038TIP3    H248037   6.804   0.255   2.826 -0.5452  0.0984 -1.3262
16039TIP3   OH248038   0.712   4.681   3.479 -0.7375  0.9376 -0.4637
16039TIP3    H148039   0.639   4.712   3.425  0.7766  1.3049 -2.3704
16039TIP3    H248040   0.791   4.709   3.433  0.6527 -0.3135  1.0220
16040TIP3   OH248041   6.619   5.578   6.649 -0.1301  0.1995  0.0310
16040TIP3    H148042   6.546   5.526   6.614  0.1246 -0.9445  1.1327
16040TIP3    H248043   6.587   5.609   6.734 -0.2510  1.8205 -0.5767
16041TIP3   OH248044   6.167   4.088   4.726 -1.1007  0.0728 -0.1258
16041TIP3    H148045   6.182   4.020   4.661 -0.5881  1.3493 -1.4071
16041TIP3    H248046   6.252   4.097   4.770 -0.8803  0.5171 -0.6216
16042TIP3   OH248047   7.533   1.421   1.821  0.1018  0.1338 -0.5528
16042TIP3    H148048   7.468   1.422   1.751 -0.7891 -0.9028  0.2117
16042TIP3    H248049   7.533   1.330   1.853  2.1522  0.0387 -0.7079
16043TIP3   OH248050   2.387   7.150   2.949 -0.2473  0.3097 -0.2644
16043TIP3    H148051   2.403   7.199   2.869  0.2173 -0.0432 -0.3938
16043TIP3    H248052   2.390   7.216   3.018  0.1684  0.5027 -0.4568
16044TIP3   OH248053   3.078   3.498   3.418 -0.5326 -0.0378 -0.7045
16044TIP3    H148054   3.042   3.450   3.492  0.5919 -1.9982 -1.3601
16044TIP3    H248055   3.026   3.470   3.343  0.8278 -1.1584 -1.2774
16045TIP3   OH248056   4.556   5.700   5.840  0.0364 -0.2070 -0.3147
16045TIP3    H148057   4.575   5.793   5.851  1.6422 -0.4230 -0.9236
16045TIP3    H248058   4.531   5.670   5.928 -1.5156  0.9731 -0.3087
16046TIP3   OH248059   8.071   0.498   4.429 -0.1888 -0.3477  0.0265
16046TIP3    H148060   8.141   0.434   4.443  1.4939  0.4953 -3.4481
16046TIP3    H248061   8.109   0.581   4.457 -1.0071 -0.3061  1.0623
16047TIP3   OH248062   0.753   5.936   3.689 -0.2516 -0.3064  0.0601
16047TIP3    H148063   0.765   6.030   3.703  2.0049 -0.3772 -0.9428
16047TIP3    H248064   0.754   5.926   3.594 -2.9155 -1.1310  0.0486
16048TIP3   OH248065   0.793   7.725   2.478  0.4116 -0.3919  0.1702
16048TIP3    H148066   0.778   7.749   2.386 -0.1865 -0.2833  0.2936
16048TIP3    H248067   0.888   7.715   2.484  0.3053 -2.7579 -1.0509
16049TIP3   OH248068   0.032   5.341   0.584  0.5203  0.1428  0.7306
16049TIP3    H148069   0.039   5.311   0.493 -0.4254 -0.6296  0.8902
16049TIP3    H248070   0.086   5.419   0.588 -1.6484  1.8974 -1.2431
16050TIP3   OH248071   6.113   2.241   3.660  0.6463  0.0641  0.1147
16050TIP3    H148072   6.053   2.310   3.688 -3.3167 -2.4444 -1.3288
16050TIP3    H248073   6.121   2.253   3.566 -3.2621 -3.2319 -0.9364
16051TIP3   OH248074   3.681   5.946   6.969 -0.1313 -0.2505 -0.1450
16051TIP3    H148075   3.601   5.998   6.960  0.1167  0.2568  0.4564
16051TIP3    H248076   3.742   6.004   7.014  0.4700 -0.7467 -0.3062
16052TIP3   OH248077   3.352   0.289   4.578  0.0901 -0.5207 -0.3029
16052TIP3    H148078   3.339   0.364   4.636 -0.9331  0.5309 -1.8015
16052TIP3    H248079   3.445   0.268   4.586  0.1659  0.2193  0.9585
16053TIP3   OH248080   1.610   4.928   6.784  0.1881  0.7054  0.2871
16053TIP3    H148081   1.589   4.866   6.713 -0.7078 -0.4144  1.4788
16053TIP3    H248082   1.533   4.984   6.790  0.6816  1.4582 -0.2778
16054TIP3   OH248083   8.078   5.926   2.280 -0.1908 -0.0616 -0.2966
16054TIP3    H148084   8.170   5.899   2.285 -0.5566 -1.4965 -0.9100
16054TIP3    H248085   8.065   5.980   2.358  0.5571 -1.7796  1.0792
16055TIP3   OH248086   6.113   0.598   1.926  0.0879  0.0479  0.0486
16055TIP3    H148087   6.029   0.643   1.927 -0.8569 -1.6148  0.1796
16055TIP3    H248088   6.162   0.636   1.998  0.2439  2.3919 -1.2001
16056TIP3   OH248089   8.104   6.784   6.625 -0.4912 -0.0269  0.2472
16056TIP3    H148090   8.073   6.749   6.709  0.3689  2.1802  1.5825
16056TIP3    H248091   8.082   6.878   6.629  2.2391  0.7371 -0.6539
16057TIP3   OH248092   5.480   2.020   4.001 -0.0845  0.3404 -0.0035
16057TIP3    H148093   5.521   2.100   4.034  0.2609 -0.0579  0.5419
16057TIP3    H248094   5.500   2.021   3.907 -0.5220  1.1502 -0.1003
16058TIP3   OH248095   3.385   1.566   1.911  0.1048  0.1417  0.8957
16058TIP3    H148096   3.479   1.569   1.927  0.0427 -0.8963  1.5820
16058TIP3    H248097   3.353   1.652   1.940  0.8616  0.5994  0.4125
16059TIP3   OH248098   7.498   5.729   6.663 -0.0316 -0.3712 -0.0264
16059TIP3    H148099   7.563   5.694   6.724  0.4910  0.1057 -0.2991
16059TIP3    H248100   7.451   5.652   6.632 -0.2270 -0.6293  0.8884
16060TIP3   OH248101   0.541   0.933   1.596 -0.1940  0.0940 -0.0715
16060TIP3    H148102   0.596   0.985   1.654  0.1132 -0.6192  0.2845
16060TIP3    H248103   0.569   0.843   1.611 -0.4012 -0.1390 -1.0151
16061TIP3   OH248104   2.320   5.163   3.731 -0.2105 -0.4527 -0.4494
16061TIP3    H148105   2.404   5.209   3.737  0.0205 -0.6768 -1.5959
16061TIP3    H248106   2.262   5.211   3.790  0.3360  0.6341 -0.7594
16062TIP3   OH248107   6.767   1.334   6.660  0.1014  0.4531 -0.0293
16062TIP3    H148108   6.848   1.295   6.693 -0.2065 -0.1988 -0.0245
16062TIP3    H248109   6.783   1.428   6.663  1.0516  0.3190 -0.5264
16063TIP3   OH248110   0.313   4.958   3.098 -0.1018 -0.0122 -0.0887
16063TIP3    H148111   0.235   4.921   3.057 -2.6571  1.6114  2.8035
16063TIP3    H248112   0.328   5.040   3.052 -0.6559  0.0780 -0.1139
16064TIP3   OH248113   3.913   1.373   1.513 -0.2228  0.3311 -0.3722
16064TIP3    H148114   3.852   1.445   1.503  0.5360  0.7306 -2.9372
16064TIP3    H248115   3.977   1.404   1.577  0.0541  1.9849 -1.3810
16065TIP3   OH248116   2.288   3.120   3.846 -0.8462 -0.6814 -0.1599
16065TIP3    H148117   2.246   3.148   3.765 -1.7385 -1.6940 -0.0765
16065TIP3    H248118   2.224   3.062   3.887  0.0698 -1.1193  0.6934
16066TIP3   OH248119   5.586   3.095   7.010 -0.1472 -0.5336  0.1205
16066TIP3    H148120   5.531   3.130   6.940 -0.0658  0.5988  0.6002
16066TIP3    H248121   5.549   3.133   7.090 -0.1977 -1.7523  0.7032
16067TIP3   OH248122   1.371   3.462   1.219  0.1590 -0.7602  0.4452
16067TIP3    H148123   1.461   3.434   1.204 -0.0089 -0.7587 -0.6872
16067TIP3    H248124   1.342   3.411   1.294  1.1168 -0.7274  0.8494
16068TIP3   OH248125   2.220   4.574   1.543  0.1302 -0.1467  0.2411
16068TIP3    H148126   2.180   4.661   1.552  0.7117  0.1671 -0.1134
16068TIP3    H248127   2.182   4.522   1.613  0.1971  0.5583  0.8107
16069TIP3   OH248128   1.024   3.947   2.403  0.0009 -0.1561  0.1620
16069TIP3    H148129   1.068   4.016   2.352 -1.6782  2.3136  1.8086
16069TIP3    H248130   1.019   3.983   2.491 -2.2795 -1.7748  0.7663
16070TIP3   OH248131   6.995   2.699   1.246  0.0452 -0.3993 -0.0947
16070TIP3    H148132   7.032   2.744   1.169  0.9301  0.9213  1.0547
16070TIP3    H248133   7.045   2.618   1.252  0.2483 -0.3284 -0.6744
16071TIP3   OH248134   7.374   1.236   3.937  0.2013  0.2169 -0.6742
16071TIP3    H148135   7.367   1.221   3.842  0.3443 -2.2698 -0.3719
16071TIP3    H248136   7.396   1.150   3.973 -2.1267  0.5429  1.8594
16072TIP3   OH248137   7.160   6.013   2.491 -0.0018 -0.0037 -0.5198
16072TIP3    H148138   7.086   5.976   2.442  0.1369 -2.3728  0.8962
16072TIP3    H248139   7.120   6.064   2.561 -0.2375  0.6313 -1.1073
16073TIP3   OH248140   1.021   5.749   3.720 -0.1464 -0.0041 -0.3227
16073TIP3    H148141   1.005   5.836   3.685  0.8830 -0.4814 -2.1069
16073TIP3    H248142   0.934   5.714   3.738 -0.5987  1.1463 -0.2127
16074TIP3   OH248143   7.304   4.689   0.528  0.2771  0.0439  0.1988
16074TIP3    H148144   7.259   4.713   0.447  0.5568  0.1654  0.0783
16074TIP3    H248145   7.233   4.671   0.591  0.0625  0.2744  0.0243
16075TIP3   OH248146   3.414   2.051   0.648  0.1908  0.3575 -0.8072
16075TIP3    H148147   3.324   2.024   0.662  0.1559 -0.0769 -1.7792
16075TIP3    H248148   3.467   1.977   0.677  0.2143  0.3840 -0.7817
16076TIP3   OH248149   3.623   1.636   4.276  0.3436 -0.5500  0.0865
16076TIP3    H148150   3.663   1.608   4.358 -0.3154  0.3950  0.7408
16076TIP3    H248151   3.691   1.690   4.234 -0.0636  0.7229  1.0119
16077TIP3   OH248152   7.109   0.136   5.808  0.5938 -0.3222  0.8329
16077TIP3    H148153   7.057   0.126   5.728  1.8669 -0.8747  0.0369
16077TIP3    H248154   7.099   0.228   5.832  0.7671  0.0350 -0.3877
16078TIP3   OH248155   8.068   0.118   1.307 -0.2709 -0.0398 -0.7797
16078TIP3    H148156   8.086   0.130   1.400  1.5769 -0.8566 -0.9984
16078TIP3    H248157   8.009   0.042   1.304  0.9384 -1.0418 -0.3241
16079TIP3   OH248158   2.135   5.010   2.149 -0.1587 -0.0398 -0.0266
16079TIP3    H148159   2.222   5.050   2.161  0.4057 -1.9279  3.9587
16079TIP3    H248160   2.150   4.936   2.091  0.6999  0.1385 -0.0526
16080TIP3   OH248161   0.616   4.671   2.426 -0.1233 -0.3670 -0.1744
16080TIP3    H148162   0.535   4.715   2.400  0.0998  1.2825  1.6475
16080TIP3    H248163   0.628   4.601   2.361 -1.9686  0.5507 -1.6014
16081TIP3   OH248164   3.083   4.283   1.066 -0.3036 -0.4883 -0.1167
16081TIP3    H148165   3.137   4.205   1.079 -0.8687 -0.8343  0.2476
16081TIP3    H248166   3.018   4.278   1.137  0.0503  0.6599  0.3068
16082TIP3   OH248167   7.621   1.775   1.114 -0.0344 -0.1007  0.1736
16082TIP3    H148168   7.556   1.717   1.154  1.2497 -0.4452  1.8897
16082TIP3    H248169   7.584   1.863   1.124 -0.4367 -0.3286  0.7292
16083TIP3   OH248170   2.862   1.161   0.482  0.4809 -0.5362  0.0490
16083TIP3    H148171   2.806   1.123   0.414  0.8798 -1.8565  0.4466
16083TIP3    H248172   2.937   1.102   0.488  1.4272  0.6546  0.2521
16084TIP3   OH248173   2.124   0.547   4.249  0.3674  0.2187  0.0314
16084TIP3    H148174   2.157   0.633   4.221  0.7055  0.3623  0.8606
16084TIP3    H248175   2.188   0.485   4.214  0.0938  0.2878 -0.6181
16085TIP3   OH248176   8.530   8.112   3.302 -0.8377 -0.1918  0.3600
16085TIP3    H148177   8.489   8.197   3.319 -1.1204 -0.3245  0.3591
16085TIP3    H248178   8.461   8.049   3.323 -1.8196 -0.3499 -2.8255
16086TIP3   OH248179   2.859   5.407   6.252  1.1280 -0.2826  0.1394
16086TIP3    H148180   2.851   5.444   6.164 -1.7390 -1.1414 -0.0570
16086TIP3    H248181   2.884   5.316   6.236 -2.4549 -1.3656 -0.1204
16087TIP3   OH248182   1.386   5.394   5.065 -0.3896  0.2565 -0.0852
16087TIP3    H148183   1.398   5.424   5.156 -1.9652 -3.2239  1.4388
16087TIP3    H248184   1.467   5.348   5.045 -0.8351 -0.7553  0.3788
16088TIP3   OH248185   8.516   7.420   4.618 -0.9348 -0.0130  0.1898
16088TIP3    H148186   8.566   7.501   4.619  1.2146 -1.2604  0.4677
16088TIP3    H248187   8.466   7.422   4.536  0.1564  0.9700 -0.4724
16089TIP3   OH248188   4.233   7.738   4.326  0.0616  0.3074 -0.0167
16089TIP3    H148189   4.280   7.677   4.269  1.8288  0.5800  1.0583
16089TIP3    H248190   4.282   7.820   4.318 -0.8683  0.9220  0.3820
16090TIP3   OH248191   3.810   4.439   4.112 -0.7763  0.0199  0.4004
16090TIP3    H148192   3.815   4.455   4.017 -2.8488 -1.9146 -0.1127
16090TIP3    H248193   3.794   4.526   4.149  2.2798  1.1859 -0.7231
16091TIP3   OH248194   0.303   1.139   0.801 -0.0942 -0.3231  0.0004
16091TIP3    H148195   0.378   1.198   0.793 -1.1580  1.0730  0.0638
16091TIP3    H248196   0.275   1.125   0.711 -0.3368 -0.0773  0.0377
16092TIP3   OH248197   2.426   4.149   0.123 -0.3859 -0.8239 -0.2938
16092TIP3    H148198   2.516   4.126   0.143 -0.0173  0.8547  0.1004
16092TIP3    H248199   2.374   4.110   0.194  0.0550 -1.4739 -0.3229
16093TIP3   OH248200   5.859   0.680   5.080  0.0136  0.0196 -0.1554
16093TIP3    H148201   5.780   0.640   5.115  0.4723 -0.0926  0.7736
16093TIP3    H248202   5.835   0.706   4.991 -1.2922  0.6471  0.3523
16094TIP3   OH248203   0.319   2.845   3.709  0.0325 -0.3194  0.2513
16094TIP3    H148204   0.363   2.790   3.644  1.4092  1.2029 -0.1879
16094TIP3    H248205   0.296   2.925   3.660 -3.5573 -1.1019  0.3720
16095TIP3   OH248206   2.994   1.537   7.015  0.5593  0.4163 -0.2828
16095TIP3    H148207   2.998   1.448   7.051 -0.4538 -0.0289 -1.2239
16095TIP3    H248208   3.018   1.526   6.922  0.2904  1.0988 -0.4379
16096TIP3   OH248209   7.515   7.325   4.862  0.1162 -0.2097  0.2522
16096TIP3    H148210   7.454   7.352   4.931 -0.2348  0.1927 -0.2146
16096TIP3    H248211   7.595   7.375   4.881 -0.0899  0.1561  0.1808
16097TIP3   OH248212   8.217   4.523   4.564 -0.1503 -0.5752  0.0862
16097TIP3    H148213   8.164   4.445   4.580 -0.3259 -0.7893 -1.4387
16097TIP3    H248214   8.210   4.539   4.470 -0.6706  1.6965  0.4510
16098TIP3   OH248215   7.628   4.890   1.451  0.4364 -0.3535 -0.3302
16098TIP3    H148216   7.597   4.948   1.381  0.7966 -1.6863 -1.6574
16098TIP3    H248217   7.550   4.873   1.503  0.3252  1.2956  0.0934
16099TIP3   OH248218   6.182   6.820   5.663 -0.0044  0.5342  0.3964
16099TIP3    H148219   6.187   6.729   5.632  0.3304  0.4403  0.7245
16099TIP3    H248220   6.088   6.840   5.662  0.0401  0.8264 -1.4953
16100TIP3   OH248221   1.772   4.414   6.628 -0.4304  0.2658  0.4803
16100TIP3    H148222   1.751   4.395   6.719  1.4532  0.6933  1.0479
16100TIP3    H248223   1.726   4.347   6.578 -0.5256 -0.7152  1.8248
16101TIP3   OH248224   6.216   5.924   2.700 -0.2105  0.1449  0.3616
16101TIP3    H148225   6.296   5.953   2.743 -0.2024  1.5569 -0.5511
16101TIP3    H248226   6.149   5.985   2.729 -0.4409  0.4214 -0.6911
16102TIP3   OH248227   4.361   5.484   2.714  0.2656  0.0243  0.4397
16102TIP3    H148228   4.266   5.493   2.704  0.5159  1.7520 -1.0663
16102TIP3    H248229   4.375   5.479   2.809 -1.4230 -2.2584  0.6418
16103TIP3   OH248230   1.419   2.049   4.704  0.0411  0.3915 -0.0451
16103TIP3    H148231   1.474   2.120   4.738  1.9381 -0.1747 -1.7237
16103TIP3    H248232   1.396   2.078   4.615  0.4869 -0.8839 -0.5919
16104TIP3   OH248233   1.201   0.765   0.476  0.2021  0.0471 -0.0265
16104TIP3    H148234   1.139   0.775   0.403 -0.8373  0.2578  0.8684
16104TIP3    H248235   1.268   0.705   0.442 -0.3482  0.0163 -1.1010
16105TIP3   OH248236   0.214   2.350   3.411 -0.9057 -0.3410  0.4895
16105TIP3    H148237   0.143   2.319   3.356 -0.2435  1.1560 -1.3219
16105TIP3    H248238   0.280   2.282   3.407 -2.1105 -1.6929  2.0935
16106TIP3   OH248239   2.058   0.508   2.635  0.3681 -0.0513 -0.5382
16106TIP3    H148240   2.138   0.560   2.645 -0.4032  0.8063  1.6340
16106TIP3    H248241   1.988   0.564   2.668 -0.6066 -2.1132  1.1331
16107TIP3   OH248242   7.322   0.646   1.788 -0.2687  0.2119  0.4161
16107TIP3    H148243   7.404   0.660   1.740  0.1202  0.2763  1.0759
16107TIP3    H248244   7.310   0.552   1.790  0.1186  0.1643  0.8316
16108TIP3   OH248245   1.504   5.896   3.425  0.0847  0.5531  0.2723
16108TIP3    H148246   1.433   5.880   3.364  0.9768  0.2755 -0.7167
16108TIP3    H248247   1.464   5.883   3.512 -0.6392 -1.4262 -0.3014
16109TIP3   OH248248   8.158   5.207   4.784 -0.1262 -0.3313 -0.1652
16109TIP3    H148249   8.178   5.125   4.828  0.7957 -0.5612 -0.9738
16109TIP3    H248250   8.092   5.249   4.839 -1.7899 -2.3126 -0.5635
16110TIP3   OH248251   6.520   0.845   5.605  0.6107 -0.5135  0.2099
16110TIP3    H148252   6.600   0.898   5.606  1.0229 -1.1303  1.5069
16110TIP3    H248253   6.449   0.909   5.601  1.1508  0.0414 -1.0157
16111TIP3   OH248254   8.483   0.575   6.115  0.1718  0.1904  0.0313
16111TIP3    H148255   8.444   0.625   6.187  2.3026 -0.1442  1.4892
16111TIP3    H248256   8.459   0.484   6.134 -0.4882  0.2388 -0.5207
16112TIP3   OH248257   6.979   0.421   4.423 -0.7337 -0.2126  0.7569
16112TIP3    H148258   6.960   0.334   4.389 -0.4854 -0.4189  1.1427
16112TIP3    H248259   7.023   0.406   4.506  2.1717  0.1841 -0.5587
16113TIP3   OH248260   4.347   6.836   1.984  0.2675 -0.1815 -0.2721
16113TIP3    H148261   4.407   6.782   1.932 -0.7338 -0.8097 -0.8214
16113TIP3    H248262   4.310   6.775   2.048 -1.4020 -0.3701 -1.3492
16114TIP3   OH248263   1.451   6.811   1.357  0.3482 -0.2444 -0.2475
16114TIP3    H148264   1.467   6.880   1.422 -0.3977 -1.6549  1.5288
16114TIP3    H248265   1.536   6.766   1.349  0.7443  0.6415 -1.1509
16115TIP3   OH248266   7.243   5.216   1.400 -0.0161  0.4149 -0.7927
16115TIP3    H148267   7.193   5.146   1.441  0.1578  0.5863 -0.2796
16115TIP3    H248268   7.178   5.281   1.374 -0.3825 -0.7451 -2.9428
16116TIP3   OH248269   7.913   2.074   0.564 -0.3242  0.0276  0.4507
16116TIP3    H148270   7.916   2.114   0.477 -0.2192  0.2975  0.5751
16116TIP3    H248271   8.004   2.050   0.582  0.0542  1.9297  1.3687
16117TIP3   OH248272   0.782   6.445   1.019  0.2651 -0.5243  0.1681
16117TIP3    H148273   0.808   6.355   1.040  1.0760 -0.7590 -1.6758
16117TIP3    H248274   0.778   6.447   0.924  0.5223  1.4709  0.1664
16118TIP3   OH248275   8.244   3.103   3.617  0.1753 -0.5398 -0.9006
16118TIP3    H148276   8.252   3.010   3.634 -0.0465 -0.0487  2.8164
16118TIP3    H248277   8.149   3.119   3.615  0.1879 -0.5440 -2.9457
16119TIP3   OH248278   4.649   6.608   6.343  0.5837  0.4283  0.1587
16119TIP3    H148279   4.706   6.539   6.378 -0.6659  0.0289  1.5282
16119TIP3    H248280   4.641   6.671   6.415  0.5247  1.2624 -0.5623
16120TIP3   OH248281   4.465   0.122   4.983 -0.5727  0.4687  0.4600
16120TIP3    H148282   4.414   0.060   5.036  1.6592 -0.9306  1.1226
16120TIP3    H248283   4.532   0.067   4.942  3.3942  2.6547  3.3428
16121TIP3   OH248284   4.766   1.271   4.268 -0.3590 -0.5188  0.7348
16121TIP3    H148285   4.670   1.262   4.268 -0.7506  2.6535 -0.7742
16121TIP3    H248286   4.790   1.270   4.176  0.7181  1.3545  0.9617
16122TIP3   OH248287   7.729   1.438   6.180 -0.1865 -0.4212 -0.6964
16122TIP3    H148288   7.806   1.396   6.141  0.2270  0.3153 -0.6983
16122TIP3    H248289   7.693   1.373   6.240  0.5778 -0.6923 -0.5220
16123TIP3   OH248290   3.406   6.292   5.737  0.0909  0.1807  0.7498
16123TIP3    H148291   3.390   6.221   5.800  2.2428  1.3478  2.7771
16123TIP3    H248292   3.357   6.266   5.659 -1.3297 -2.2133  2.2938
16124TIP3   OH248293   4.211   5.828   3.871 -0.1606 -0.2594  0.2518
16124TIP3    H148294   4.221   5.787   3.785 -0.1663 -0.1121  0.1801
16124TIP3    H248295   4.134   5.885   3.862  0.0493  0.0306  0.2437
16125TIP3   OH248296   4.374   4.724   4.623 -0.8442 -1.0510  0.3545
16125TIP3    H148297   4.360   4.657   4.556  0.9789 -1.8841  0.7233
16125TIP3    H248298   4.301   4.712   4.684 -0.0332 -3.5090  0.9827
16126TIP3   OH248299   0.661   7.244   3.720  0.0365 -0.3219 -0.0787
16126TIP3    H148300   0.669   7.318   3.661 -0.2865  0.1079  0.4003
16126TIP3    H248301   0.599   7.185   3.677  0.5006 -0.4431 -0.5866
16127TIP3   OH248302   8.634   2.600   3.996  0.0140  0.2136 -0.1814
16127TIP3    H148303   8.710   2.568   3.948 -1.6500 -1.0624 -2.1135
16127TIP3    H248304   8.594   2.665   3.938 -0.3797  0.8899  0.8188
16128TIP3   OH248305   6.995   2.752   0.331 -0.0151 -0.2324  0.4038
16128TIP3    H148306   7.079   2.796   0.335  0.8290 -1.7315  0.1290
16128TIP3    H248307   7.004   2.676   0.389 -1.8097  0.5144  1.7854
16129TIP3   OH248308   6.272   2.996   4.804  0.1254  0.7579 -0.1594
16129TIP3    H148309   6.281   2.917   4.857 -0.9516  0.5045 -0.3356
16129TIP3    H248310   6.360   3.012   4.771  0.9270  1.1555  2.0149
16130TIP3   OH248311   0.299   7.159   2.372 -0.2093 -0.0978 -0.2822
16130TIP3    H148312   0.220   7.212   2.359  0.6632  1.1403 -0.6803
16130TIP3    H248313   0.280   7.108   2.451 -1.2820  0.4068 -0.1905
16131TIP3   OH248314   2.739   5.238   3.387 -0.4353 -0.4028 -0.6986
16131TIP3    H148315   2.804   5.220   3.320  0.9033  0.3832  0.3376
16131TIP3    H248316   2.750   5.168   3.452  0.1309  0.2994 -0.0093
16132TIP3   OH248317   6.872   0.489   3.092 -0.1088 -0.0872 -0.1598
16132TIP3    H148318   6.881   0.488   2.996  1.5289 -0.3797 -0.0413
16132TIP3    H248319   6.925   0.563   3.120  0.0796 -0.4799  0.5477
16133TIP3   OH248320   2.554   7.594   6.842  0.0802  0.2797 -0.5593
16133TIP3    H148321   2.637   7.598   6.794  0.4314 -0.8503 -0.0817
16133TIP3    H248322   2.577   7.621   6.931 -0.6079  2.5804 -1.0109
16134TIP3   OH248323   5.148   1.614   6.978  0.6693  0.3090 -0.0557
16134TIP3    H148324   5.136   1.549   6.910  1.2571  0.7251 -0.5638
16134TIP3    H248325   5.101   1.691   6.946 -0.7688 -0.1082  0.9365
16135TIP3   OH248326   4.445   3.571   6.540  0.1114  0.1088 -0.2866
16135TIP3    H148327   4.493   3.491   6.561  0.4516  0.5462  0.7026
16135TIP3    H248328   4.498   3.614   6.473  1.0255  0.4671  0.6192
16136TIP3   OH248329   6.857   4.168   5.570 -0.3313 -0.0028 -0.3880
16136TIP3    H148330   6.941   4.152   5.613  0.4696  0.8122 -1.5895
16136TIP3    H248331   6.880   4.182   5.478 -1.4308  3.0730 -0.2931
16137TIP3   OH248332   5.169   2.685   4.873 -0.0118 -0.4119  0.1307
16137TIP3    H148333   5.113   2.658   4.800 -0.0942 -1.0415  0.4217
16137TIP3    H248334   5.249   2.716   4.832 -0.3904  0.0557 -0.2688
16138TIP3   OH248335   0.613   7.169   3.994 -0.0932 -0.0022 -0.0944
16138TIP3    H148336   0.630   7.200   3.904 -0.7021 -3.0455 -1.3589
16138TIP3    H248337   0.695   7.126   4.020 -0.1424  0.3019  0.5896
16139TIP3   OH248338   6.968   3.745   7.075  0.3226  0.4161 -0.1444
16139TIP3    H148339   6.919   3.717   6.997  0.9334  1.0073 -0.7586
16139TIP3    H248340   7.057   3.760   7.043  0.1996  2.3533  0.2810
16140TIP3   OH248341   8.088   3.710   2.707 -0.2899 -0.3206  0.7373
16140TIP3    H148342   8.095   3.743   2.796  1.5306  1.2556  0.0621
16140TIP3    H248343   8.078   3.788   2.653 -2.4656 -1.2845 -0.4249
16141TIP3   OH248344   7.739   2.624   3.729  0.9562 -0.0936  0.1235
16141TIP3    H148345   7.697   2.614   3.814  0.3302 -0.8024 -0.2648
16141TIP3    H248346   7.794   2.702   3.739 -1.0693  1.3946  0.4097
16142TIP3   OH248347   2.202   7.847   0.488  0.4769  0.0350 -0.5701
16142TIP3    H148348   2.282   7.896   0.506  0.8447 -0.0634 -1.8466
16142TIP3    H248349   2.214   7.813   0.399 -0.6984 -0.5403 -0.5276
16143TIP3   OH248350   3.553   4.870   3.941  0.0156  0.3618  0.7579
16143TIP3    H148351   3.571   4.781   3.910 -0.4017  0.4099  0.3702
16143TIP3    H248352   3.631   4.894   3.992 -0.7590 -1.0276  2.7018
16144TIP3   OH248353   0.317   5.912   0.719 -0.2129 -0.4526  0.1420
16144TIP3    H148354   0.409   5.889   0.702  0.0861  1.1070 -0.5699
16144TIP3    H248355   0.298   5.871   0.803  1.2217 -0.6238  0.4240
16145TIP3   OH248356   4.761   4.375   1.050  0.1684 -0.2876 -0.0374
16145TIP3    H148357   4.718   4.308   1.102 -3.4976  1.9214  0.1687
16145TIP3    H248358   4.799   4.435   1.114  0.5112 -0.4304 -0.1057
16146TIP3   OH248359   7.189   1.189   6.342  0.1800  0.6863 -0.4967
16146TIP3    H148360   7.195   1.285   6.347  0.4226  0.6669 -0.4061
16146TIP3    H248361   7.202   1.169   6.249  0.5192  0.7140 -0.4554
16147TIP3   OH248362   8.551   7.076   2.252  0.0046  0.1205  0.5952
16147TIP3    H148363   8.546   6.995   2.303 -1.3312  1.0398  2.0272
16147TIP3    H248364   8.495   7.060   2.176  1.0588 -0.8480 -0.0107
16148TIP3   OH248365   0.350   4.765   2.391 -0.5596  0.1144  0.1275
16148TIP3    H148366   0.344   4.781   2.297 -0.9156  1.5154  0.3748
16148TIP3    H248367   0.268   4.721   2.414  0.1430 -1.5912 -0.4397
16149TIP3   OH248368   7.598   7.401   5.905  0.3106  1.0312  0.0714
16149TIP3    H148369   7.643   7.316   5.905  1.8182  1.7464  2.1759
16149TIP3    H248370   7.525   7.390   5.843  1.9877 -0.9380 -1.6940
16150TIP3   OH248371   6.112   6.306   5.821 -0.2928 -0.2239  0.4248
16150TIP3    H148372   6.130   6.236   5.758 -1.6219  0.8605 -1.2722
16150TIP3    H248373   6.197   6.348   5.835  0.4021 -1.7490  0.9800
16151TIP3   OH248374   7.143   5.830   5.505 -0.1260  0.1867  0.0441
16151TIP3    H148375   7.177   5.859   5.590  0.1401  3.4607 -1.0589
16151TIP3    H248376   7.187   5.885   5.441 -2.1076 -0.5071 -2.0460
16152TIP3   OH248377   5.642   4.281   3.312 -0.2338 -0.4407  0.1870
16152TIP3    H148378   5.697   4.250   3.240  0.0445 -0.2919  0.3344
16152TIP3    H248379   5.699   4.279   3.388  0.1156  1.4235  0.0185
16153TIP3   OH248380   1.892   7.978   1.649 -0.1483  0.0417 -0.2298
16153TIP3    H148381   1.957   8.027   1.598 -0.7330  1.4038  0.3156
16153TIP3    H248382   1.815   7.974   1.593  0.2126 -1.1728 -0.6837
16154TIP3   OH248383   7.448   6.269   3.570  0.4498  0.2380 -0.8635
16154TIP3    H148384   7.519   6.281   3.633 -1.4612 -0.3811  1.6002
16154TIP3    H248385   7.369   6.272   3.624 -1.2931 -1.0217 -3.1889
16155TIP3   OH248386   2.093   2.542   3.618 -0.1444 -0.3734 -0.2534
16155TIP3    H148387   2.051   2.475   3.564  1.5653 -0.1764 -1.9123
16155TIP3    H248388   2.032   2.615   3.617 -1.7999 -1.6419  1.1492
16156TIP3   OH248389   2.221   5.066   1.758 -0.0266  0.0066  0.0314
16156TIP3    H148390   2.296   5.055   1.816 -1.0988 -1.4667  1.2004
16156TIP3    H248391   2.145   5.073   1.817 -0.9930 -0.0962 -1.1554
16157TIP3   OH248392   5.154   7.901   1.908 -0.3326 -0.4586  0.3771
16157TIP3    H148393   5.151   7.939   1.821 -0.6077  0.8960  0.9536
16157TIP3    H248394   5.073   7.850   1.915  0.4582 -1.9138 -0.7230
16158TIP3   OH248395   8.524   5.609   2.591  0.0409 -0.2970 -0.2547
16158TIP3    H148396   8.524   5.652   2.676  0.1449 -0.2686 -0.2699
16158TIP3    H248397   8.615   5.585   2.576 -0.1376 -1.3022  0.1517
16159TIP3   OH248398   4.730   2.099   3.054  0.2816 -0.1639  0.2845
16159TIP3    H148399   4.649   2.150   3.052  0.3441 -0.0713  0.1606
16159TIP3    H248400   4.764   2.104   2.965  0.9798  0.6705  0.5820
16160TIP3   OH248401   8.613   3.460   0.275 -1.0294 -0.1731 -0.0664
16160TIP3    H148402   8.635   3.540   0.323 -0.5490 -0.7403  0.6835
16160TIP3    H248403   8.662   3.467   0.193 -0.6380  0.1091  0.1844
16161TIP3   OH248404   2.721   6.754   5.493 -0.0559  0.1526  0.0068
16161TIP3    H148405   2.788   6.800   5.544  0.8705  0.7499 -1.6600
16161TIP3    H248406   2.754   6.756   5.403 -1.2373 -1.5648 -0.5096
16162TIP3   OH248407   2.588   2.145   4.176  0.1810  0.0935  0.3058
16162TIP3    H148408   2.510   2.117   4.222  0.1094  0.4207  0.3911
16162TIP3    H248409   2.622   2.218   4.228 -0.8604  1.6279 -1.0347
16163TIP3   OH248410   7.572   5.350   1.923  0.4768  0.3548  0.5862
16163TIP3    H148411   7.519   5.303   1.858  0.7851 -0.8355  1.1686
16163TIP3    H248412   7.655   5.302   1.925  0.8887  1.0714  1.0449
16164TIP3   OH248413   0.324   1.600   5.592  0.3074  0.2599  0.2236
16164TIP3    H148414   0.387   1.633   5.527  0.9624 -0.5347  0.4301
16164TIP3    H248415   0.239   1.608   5.549  0.6274  0.6654 -0.3502
16165TIP3   OH248416   7.857   4.275   4.747  0.4105  0.3127 -0.0485
16165TIP3    H148417   7.857   4.297   4.840  1.1443  0.4783 -0.0762
16165TIP3    H248418   7.765   4.272   4.723  0.2013 -0.0715  0.7642
16166TIP3   OH248419   3.050   7.538   2.113  0.2771  0.0413 -0.3718
16166TIP3    H148420   2.987   7.542   2.185  0.8685  0.2627  0.1415
16166TIP3    H248421   2.999   7.508   2.038 -0.3058 -0.3707  0.1830
16167TIP3   OH248422   5.465   7.003   2.954  0.0411 -0.2099  0.0134
16167TIP3    H148423   5.543   7.057   2.963  1.0374 -1.6502  0.3981
16167TIP3    H248424   5.465   6.976   2.862  1.3819 -2.1198  0.5043
16168TIP3   OH248425   2.029   4.703   6.615 -0.0013 -0.3149  0.6147
16168TIP3    H148426   2.060   4.613   6.603 -1.1731 -0.7880  1.0451
16168TIP3    H248427   2.041   4.744   6.529  3.1241 -0.0098  1.0559
16169TIP3   OH248428   1.585   5.775   4.329  0.1190  0.0686 -0.3229
16169TIP3    H148429   1.594   5.753   4.237 -1.1668 -0.5116 -0.3291
16169TIP3    H248430   1.617   5.697   4.376  1.4361  0.6270 -0.2431
16170TIP3   OH248431   0.578   1.397   5.120 -0.3706  0.4739  0.1797
16170TIP3    H148432   0.628   1.323   5.085  0.6588  0.9481  0.5800
16170TIP3    H248433   0.529   1.360   5.194 -1.5757 -0.2543 -0.9409
16171TIP3   OH248434   3.418   1.427   5.329 -0.3807  0.6929  0.4379
16171TIP3    H148435   3.490   1.369   5.353 -1.6290 -1.2249 -0.2548
16171TIP3    H248436   3.436   1.450   5.237 -0.7285  0.0710  0.2097
16172TIP3   OH248437   2.042   6.620   6.292  0.3831 -0.6558  0.0877
16172TIP3    H148438   2.014   6.691   6.236 -0.8329 -0.4333  0.9316
16172TIP3    H248439   2.041   6.543   6.236 -2.5708 -0.7821  0.1414
16173TIP3   OH248440   5.787   5.650   3.703  0.3610 -0.5286  0.0278
16173TIP3    H148441   5.792   5.594   3.781  0.1408 -0.8284 -0.1748
16173TIP3    H248442   5.695   5.672   3.695  0.4619 -0.0354  0.1747
16174TIP3   OH248443   4.287   7.772   1.143 -0.2411  0.1771 -0.3870
16174TIP3    H148444   4.323   7.842   1.197  1.1693  0.4817 -1.6519
16174TIP3    H248445   4.340   7.774   1.063 -1.0869 -1.4248 -1.0287
16175TIP3   OH248446   1.891   2.750   6.428  0.1435  0.2816 -0.1144
16175TIP3    H148447   1.960   2.761   6.493  0.1080  0.3369 -0.0872
16175TIP3    H248448   1.925   2.682   6.369  0.3687  0.5524 -0.2999
16176TIP3   OH248449   3.382   1.688   6.964  0.1464 -0.4695  0.3277
16176TIP3    H148450   3.458   1.683   7.022  0.1276 -0.8695  0.3205
16176TIP3    H248451   3.409   1.640   6.886 -0.2134 -0.8464  0.4346
16177TIP3   OH248452   7.908   3.311   0.909  0.0407  0.0053 -0.4028
16177TIP3    H148453   7.998   3.317   0.876  0.3879  0.1357  0.5293
16177TIP3    H248454   7.859   3.374   0.856  0.8931  1.2985  0.2800
16178TIP3   OH248455   3.780   0.044   3.277 -0.1757 -0.7602  0.1976
16178TIP3    H148456   3.819   0.055   3.190 -0.6265 -2.2405 -0.2220
16178TIP3    H248457   3.843   0.083   3.337 -0.7736  2.1808 -0.9066
16179TIP3   OH248458   1.215   5.388   4.639  0.4118 -0.2257  0.2990
16179TIP3    H148459   1.229   5.322   4.707  3.1541  0.6005  0.6675
16179TIP3    H248460   1.231   5.472   4.683  1.2258  0.4027 -1.1170
16180TIP3   OH248461   1.653   3.300   4.685 -0.1419  0.3396 -0.1412
16180TIP3    H148462   1.610   3.288   4.770  0.3636  1.5744  0.3241
16180TIP3    H248463   1.700   3.383   4.694  0.3375  0.2381 -1.4661
16181TIP3   OH248464   1.457   0.903   5.562  0.0575  0.3040 -0.6399
16181TIP3    H148465   1.445   0.830   5.501 -0.3582  0.6500 -0.9801
16181TIP3    H248466   1.526   0.873   5.621 -1.1984 -1.0102  0.2383
16182TIP3   OH248467   3.416   5.792   5.392  0.7975 -0.0474 -0.2177
16182TIP3    H148468   3.389   5.804   5.301  0.8437  1.6606 -0.0386
16182TIP3    H248469   3.511   5.782   5.387  0.6257 -1.9719 -0.4914
16183TIP3   OH248470   4.550   3.355   3.729  0.4459  1.0171 -0.1269
16183TIP3    H148471   4.514   3.403   3.654 -1.5002  0.4863  0.4243
16183TIP3    H248472   4.629   3.312   3.694  0.2199  1.7061 -1.5556
16184TIP3   OH248473   6.240   6.617   2.548  0.2205  0.2135 -0.1949
16184TIP3    H148474   6.212   6.626   2.457  1.0306  0.9251 -0.3851
16184TIP3    H248475   6.265   6.526   2.557  3.6836  0.8498 -1.7583
16185TIP3   OH248476   8.035   6.305   1.157  0.2323  0.4573  0.0728
16185TIP3    H148477   7.958   6.346   1.117 -0.9697  0.5715  2.3610
16185TIP3    H248478   8.065   6.368   1.222  0.8680 -0.5640  0.7934
16186TIP3   OH248479   6.453   0.191   0.509  0.3626 -0.3236 -0.1607
16186TIP3    H148480   6.372   0.240   0.505 -0.2072 -1.2357 -0.1000
16186TIP3    H248481   6.493   0.216   0.593 -0.0725 -0.2049  0.0103
16187TIP3   OH248482   5.140   5.713   0.597 -0.4619 -0.3324 -0.5260
16187TIP3    H148483   5.064   5.735   0.652 -0.5486 -3.4149  0.8146
16187TIP3    H248484   5.122   5.623   0.568  0.7765  0.3445 -3.6647
16188TIP3   OH248485   2.375   5.128   4.057  0.2251 -0.2591  0.1114
16188TIP3    H148486   2.334   5.139   4.144 -0.0687 -1.0399  0.0867
16188TIP3    H248487   2.332   5.050   4.021  0.0618  0.2895 -0.9047
16189TIP3   OH248488   6.574   5.635   0.972  0.0574 -0.3191  0.2225
16189TIP3    H148489   6.572   5.704   1.038 -1.8241  0.9367 -1.0460
16189TIP3    H248490   6.642   5.662   0.910  0.2477 -0.3061  0.4373
16190TIP3   OH248491   2.983   3.731   4.039 -0.8147 -0.7784  0.0112
16190TIP3    H148492   2.961   3.738   4.132  2.5329 -0.5321  0.9256
16190TIP3    H248493   2.964   3.640   4.016  0.4695 -1.5065  1.6537
16191TIP3   OH248494   8.675   2.653   2.204 -0.1693  0.3315  0.9064
16191TIP3    H148495   8.732   2.610   2.267  1.2937  1.4509  0.4062
16191TIP3    H248496   8.664   2.742   2.238  0.6671  0.9594 -0.4131
16192TIP3   OH248497   7.242   7.932   5.153  0.1684  0.3641  0.2538
16192TIP3    H148498   7.199   7.906   5.234 -1.0161 -1.8189 -0.9976
16192TIP3    H248499   7.171   7.938   5.089  1.1366  1.5704 -0.7581
16193TIP3   OH248500   0.338   0.158   2.525  0.2043  0.1847  0.0738
16193TIP3    H148501   0.408   0.129   2.583  0.1012 -0.6980 -0.2229
16193TIP3    H248502   0.266   0.097   2.542 -0.3054  0.7601  0.0027
16194TIP3   OH248503   5.466   1.669   5.471 -0.2238  0.2559 -0.8278
16194TIP3    H148504   5.504   1.589   5.434 -1.4735 -0.8023  0.1182
16194TIP3    H248505   5.381   1.678   5.428 -0.3255  0.7919 -0.5270
16195TIP3   OH248506   7.716   4.983   3.326 -0.4312 -0.0914 -0.2572
16195TIP3    H148507   7.677   5.016   3.407 -2.4060 -0.8149 -0.8461
16195TIP3    H248508   7.759   5.060   3.287  1.1937  0.1163  1.7633
16196TIP3   OH248509   7.011   2.251   0.773 -0.3880 -0.3577 -0.2672
16196TIP3    H148510   7.069   2.174   0.769  0.2662 -0.0495  1.7356
16196TIP3    H248511   6.923   2.215   0.783 -0.0691 -0.8745  0.8048
16197TIP3   OH248512   0.910   1.682   1.174  0.1777 -0.3214  0.0050
16197TIP3    H148513   0.838   1.701   1.234  1.6939 -0.2216  1.8971
16197TIP3    H248514   0.928   1.589   1.186  1.2503 -0.0545  0.6400
16198TIP3   OH248515   2.416   5.875   7.032 -0.2740  0.0187  0.2331
16198TIP3    H148516   2.454   5.907   6.951 -0.5864  0.2636  0.1816
16198TIP3    H248517   2.474   5.804   7.060 -1.2684 -1.4378 -1.2495
16199TIP3   OH248518   0.655   3.659   5.407 -0.1725 -0.5715  0.0488
16199TIP3    H148519   0.622   3.572   5.386 -1.1694  0.0546 -1.0681
16199TIP3    H248520   0.622   3.716   5.337  0.0973  0.7886  0.9759
16200TIP3   OH248521   2.827   2.143   5.629 -0.6309 -0.0149  0.5810
16200TIP3    H148522   2.913   2.124   5.592 -0.0524 -0.6160  2.1319
16200TIP3    H248523   2.815   2.077   5.697 -1.9678  0.5634  0.9501
16201TIP3   OH248524   1.656   3.444   1.260  0.2132  0.1859 -0.3276
16201TIP3    H148525   1.730   3.490   1.299  2.1650 -2.9709  0.0076
16201TIP3    H248526   1.693   3.394   1.188 -1.7006 -0.9789 -0.5776
16202TIP3   OH248527   5.242   4.755   1.059 -0.4297  0.0626  0.5073
16202TIP3    H148528   5.250   4.669   1.017 -0.3624  1.4155 -2.5010
16202TIP3    H248529   5.332   4.777   1.084 -0.0544  0.2510 -0.9285
16203TIP3   OH248530   2.837   0.949   2.904  0.1899  0.0402 -0.2406
16203TIP3    H148531   2.840   0.991   2.990 -1.0559 -2.1676  0.9883
16203TIP3    H248532   2.891   0.871   2.914 -1.4056 -1.2112 -0.8210
16204TIP3   OH248533   0.325   0.294   4.172 -0.1842  0.2033  0.0609
16204TIP3    H148534   0.380   0.349   4.228  0.7779  1.3033 -1.8508
16204TIP3    H248535   0.239   0.296   4.214 -0.2621  3.3735  0.0339
16205TIP3   OH248536   2.018   2.929   5.827  0.1704  0.4663  0.5156
16205TIP3    H148537   1.974   2.845   5.812 -1.0339  1.3538 -1.3625
16205TIP3    H248538   1.968   2.969   5.899 -1.4466  0.9493 -0.8046
16206TIP3   OH248539   5.544   5.774   7.106 -0.3106 -0.2391 -0.5543
16206TIP3    H148540   5.566   5.681   7.106  1.4033  0.1269 -0.9564
16206TIP3    H248541   5.582   5.807   7.024 -0.0598  0.9905  0.0391
16207TIP3   OH248542   3.250   6.874   0.052  0.4487 -0.2059 -0.5268
16207TIP3    H148543   3.160   6.847   0.031  0.2059 -0.6308  0.9391
16207TIP3    H248544   3.256   6.964   0.018 -1.1129  0.4669  0.8121
16208TIP3   OH248545   5.867   1.063   1.957 -0.1817  0.8274  0.0840
16208TIP3    H148546   5.955   1.097   1.941  0.9275 -0.1787  3.1468
16208TIP3    H248547   5.851   1.002   1.885  1.8093  0.7682 -0.3784
16209TIP3   OH248548   6.335   3.658   0.289 -0.3440  0.1480 -0.1018
16209TIP3    H148549   6.387   3.682   0.213 -2.1060  2.2549 -0.7822
16209TIP3    H248550   6.382   3.697   0.363  0.0458  0.3329 -0.4417
16210TIP3   OH248551   4.343   6.452   3.353 -0.3210 -0.4093 -0.0759
16210TIP3    H148552   4.320   6.545   3.355  1.6685  0.1444 -0.5460
16210TIP3    H248553   4.316   6.421   3.267  1.5287  0.5003 -1.0439
16211TIP3   OH248554   1.197   5.505   4.331  0.2973  0.1219  0.1273
16211TIP3    H148555   1.220   5.588   4.373  1.7417 -0.9030  1.4659
16211TIP3    H248556   1.152   5.455   4.399 -0.6139 -0.1912 -0.6821
16212TIP3   OH248557   6.340   7.060   5.997 -0.0456 -0.1005 -0.0553
16212TIP3    H148558   6.358   7.149   6.029 -0.3222 -0.1915  0.3630
16212TIP3    H248559   6.245   7.056   5.990  0.0166  0.1461 -1.5752
16213TIP3   OH248560   3.779   5.173   4.697  0.6193  0.0935  0.4625
16213TIP3    H148561   3.867   5.167   4.735 -0.5216 -0.1494  3.3309
16213TIP3    H248562   3.733   5.096   4.730 -0.6626  0.1575 -1.0740
16214TIP3   OH248563   1.866   0.204   3.611 -0.1594 -0.6469 -0.9849
16214TIP3    H148564   1.935   0.145   3.643 -2.5520 -1.4235  3.5851
16214TIP3    H248565   1.785   0.153   3.620 -1.9656  2.1848 -0.0749
16215TIP3   OH248566   1.072   0.179   0.312 -0.0407  0.1297 -0.5095
16215TIP3    H148567   1.062   0.204   0.403 -0.8759  0.7240 -0.7532
16215TIP3    H248568   1.124   0.098   0.315  0.7972  0.6745  0.4171
16216TIP3   OH248569   0.149   2.992   7.014  0.4582  0.2653 -0.5663
16216TIP3    H148570   0.072   2.935   7.014  1.2908 -0.9056  0.2803
16216TIP3    H248571   0.149   3.031   6.926 -0.8035 -0.1110 -0.7584
16217TIP3   OH248572   2.109   7.906   3.139  0.4037 -0.1242  0.2442
16217TIP3    H148573   2.035   7.887   3.197 -0.8660 -0.8552 -1.5282
16217TIP3    H248574   2.068   7.933   3.056  2.1543  1.0212 -0.3016
16218TIP3   OH248575   4.802   2.118   5.100 -0.0133  0.2242  0.1190
16218TIP3    H148576   4.870   2.095   5.036  0.9035  1.4323  0.6026
16218TIP3    H248577   4.806   2.049   5.166 -0.3161 -0.5264 -0.6405
16219TIP3   OH248578   1.578  -0.015   4.783 -0.5198  0.4968 -0.6263
16219TIP3    H148579   1.579   0.080   4.778  0.1214  0.4737 -1.0127
16219TIP3    H248580   1.493  -0.036   4.822 -0.0984  1.2836  0.7870
16220TIP3   OH248581   0.277   3.507   2.589 -0.6140 -0.0707  0.4216
16220TIP3    H148582   0.320   3.573   2.534 -2.1542 -0.8376 -1.8457
16220TIP3    H248583   0.338   3.433   2.589  0.2045  0.5790  1.2959
16221TIP3   OH248584   8.119   3.838   5.394 -0.3963 -0.1824  0.2952
16221TIP3    H148585   8.076   3.921   5.372 -2.0945 -1.0292  0.2319
16221TIP3    H248586   8.205   3.844   5.353 -1.0800  0.9239 -1.0812
16222TIP3   OH248587   0.275   6.344   6.676 -0.2361 -0.6843  0.7352
16222TIP3    H148588   0.360   6.348   6.633 -0.7659  0.8465 -0.2734
16222TIP3    H248589   0.228   6.273   6.632 -0.1517 -0.2724 -0.0279
16223TIP3   OH248590   1.165   1.825   4.661  0.3226  0.1678  0.0854
16223TIP3    H148591   1.117   1.901   4.693  0.3054  0.4206 -0.5197
16223TIP3    H248592   1.166   1.836   4.566  0.3694 -0.5618 -0.0027
16224TIP3   OH248593   7.595   8.044   0.864 -0.6662  0.3385  0.7101
16224TIP3    H148594   7.648   8.123   0.879  0.7863 -0.5202  0.2991
16224TIP3    H248595   7.600   8.029   0.770 -1.2727 -0.0315  0.7331
16225TIP3   OH248596   5.250   7.519   5.334 -0.2693  0.2654  0.3778
16225TIP3    H148597   5.157   7.498   5.348 -0.0469 -1.0610 -0.0447
16225TIP3    H248598   5.269   7.586   5.400 -2.0115  2.0143 -0.7437
16226TIP3   OH248599   7.966   2.715   2.276 -0.0830 -0.6285 -0.5335
16226TIP3    H148600   7.960   2.806   2.248  1.0386 -0.3593  0.0319
16226TIP3    H248601   7.878   2.680   2.263 -0.2292  0.1888 -1.8987
16227TIP3   OH248602   5.813   0.905   3.045 -0.6622 -0.3512  0.4020
16227TIP3    H148603   5.777   0.980   3.092 -2.2732 -0.6555 -0.3072
16227TIP3    H248604   5.898   0.889   3.087 -1.3904  0.3128  2.2051
16228TIP3   OH248605   7.394   4.972   2.129  0.7603  0.2582 -0.2429
16228TIP3    H148606   7.326   4.954   2.063 -0.0361 -0.9859  0.8813
16228TIP3    H248607   7.369   5.057   2.166  2.4690  2.1510 -3.0042
16229TIP3   OH248608   3.988   5.705   0.943  0.3027 -0.1752  0.0436
16229TIP3    H148609   3.901   5.672   0.965  0.5939  0.0870  1.7618
16229TIP3    H248610   4.031   5.631   0.899 -0.5146 -0.5945 -0.0659
16230TIP3   OH248611   6.397   6.679   2.000  0.5512 -0.1839 -0.2710
16230TIP3    H148612   6.395   6.704   2.092 -0.4134  1.6485 -0.7322
16230TIP3    H248613   6.487   6.652   1.984  1.7813  3.0562  0.3812
16231TIP3   OH248614   5.411   3.925   6.353  0.5936  0.2770 -0.6309
16231TIP3    H148615   5.326   3.898   6.387  0.6410 -1.0016 -1.4525
16231TIP3    H248616   5.439   3.852   6.297  1.1049  1.7134 -2.3364
16232TIP3   OH248617   3.274   4.599   3.969 -0.1115  0.8566  0.1565
16232TIP3    H148618   3.348   4.588   3.910 -0.9109  1.9286 -1.1254
16232TIP3    H248619   3.272   4.693   3.987 -1.6081  0.9748 -0.4868
16233TIP3   OH248620   0.098   4.958   3.649 -0.0653  0.0421  0.8992
16233TIP3    H148621   0.024   5.012   3.677 -0.8843 -0.5941  0.0519
16233TIP3    H248622   0.159   4.960   3.722 -1.1937  0.1064  1.8639
16234TIP3   OH248623   1.837   2.267   6.574 -0.8889 -0.4709 -0.5246
16234TIP3    H148624   1.810   2.239   6.662  0.8221  1.3821  0.6744
16234TIP3    H248625   1.760   2.312   6.539 -0.5793  1.8483  1.4993
16235TIP3   OH248626   8.137   0.957   0.040 -0.1371  0.5309 -0.8468
16235TIP3    H148627   8.044   0.975   0.031 -0.7452 -0.7716  1.9057
16235TIP3    H248628   8.171   1.029   0.093 -0.1924 -0.3505  0.4330
16236TIP3   OH248629   1.733   5.446   1.691 -0.0504  0.2137  0.2433
16236TIP3    H148630   1.784   5.367   1.672 -0.8687 -1.1537  3.2157
16236TIP3    H248631   1.657   5.414   1.740 -0.9877  2.7691  0.5824
16237TIP3   OH248632   1.065   5.494   3.546 -0.7449  0.4403  0.4989
16237TIP3    H148633   1.031   5.551   3.615  0.8266  0.9929  0.8623
16237TIP3    H248634   1.069   5.407   3.586 -0.6733  0.5866  0.8092
16238TIP3   OH248635   3.432   1.604   5.552 -0.3467 -0.3969  0.0227
16238TIP3    H148636   3.515   1.652   5.557  0.3779 -1.6985  1.3637
16238TIP3    H248637   3.429   1.569   5.463 -0.1824  0.8803 -0.5003
16239TIP3   OH248638   5.960   1.497   3.988 -0.3314 -0.1576  0.3060
16239TIP3    H148639   6.007   1.573   3.955 -2.9588  1.2164 -0.5390
16239TIP3    H248640   5.959   1.508   4.083  0.1013  0.3710  0.2516
16240TIP3   OH248641   7.282   2.675   5.608  0.7530 -0.2042 -0.4067
16240TIP3    H148642   7.234   2.593   5.599 -0.7569  0.6989 -0.8505
16240TIP3    H248643   7.354   2.654   5.668 -2.0360 -0.8746  3.0525
16241TIP3   OH248644   6.754   1.516   5.392  0.0749  0.3227  0.7678
16241TIP3    H148645   6.786   1.493   5.479  0.3011  0.6125  0.7651
16241TIP3    H248646   6.661   1.492   5.393  0.5239 -1.5886  0.3945
16242TIP3   OH248647   2.992   8.041   3.272  0.5257 -0.0170  0.0008
16242TIP3    H148648   3.083   8.039   3.243  0.3896 -1.1085 -0.3819
16242TIP3    H248649   2.942   8.065   3.194  0.4730  0.4626  0.1811
16243TIP3   OH248650   7.587   4.759   0.069 -0.3156  0.0197  0.1392
16243TIP3    H148651   7.625   4.737  -0.017 -0.2901 -1.9845  0.6125
16243TIP3    H248652   7.650   4.818   0.109 -0.5720  1.4341 -1.3858
16244TIP3   OH248653   3.657   5.947   3.678  0.2027 -0.9136 -0.2573
16244TIP3    H148654   3.736   5.998   3.656 -0.1658 -0.1627  0.1156
16244TIP3    H248655   3.649   5.883   3.607 -0.0761  0.4266 -1.4714
16245TIP3   OH248656   6.976   6.721   2.927 -0.4500 -0.1210 -0.3547
16245TIP3    H148657   6.884   6.710   2.952 -0.6225 -0.2451 -1.0020
16245TIP3    H248658   6.972   6.776   2.848  0.1983  2.0003  1.0255
16246TIP3   OH248659   4.480   7.172   5.969 -0.0371 -0.1835 -0.1122
16246TIP3    H148660   4.401   7.122   5.989 -0.4589  0.7520  0.6260
16246TIP3    H248661   4.548   7.106   5.956 -0.5538 -0.9456  0.9510
16247TIP3   OH248662   5.644   1.070   5.124  0.1294  0.0409  0.1100
16247TIP3    H148663   5.681   1.042   5.209 -0.9642  2.0704  1.3248
16247TIP3    H248664   5.700   1.142   5.096 -1.5855  1.7724  0.9485
16248TIP3   OH248665   6.429   3.867   3.942 -0.7838  0.2742  0.1843
16248TIP3    H148666   6.364   3.918   3.989  0.3246  1.7799  0.1530
16248TIP3    H248667   6.469   3.928   3.880  0.3003 -0.7280 -0.1587
16249TIP3   OH248668   3.103   5.639   1.180 -0.2077  0.3471  0.3178
16249TIP3    H148669   3.155   5.577   1.231 -1.1340  0.3466  1.3023
16249TIP3    H248670   3.041   5.585   1.131 -1.1516  0.4656  1.3308
16250TIP3   OH248671   0.151   1.595   5.813 -0.0058  0.7529 -0.1513
16250TIP3    H148672   0.187   1.588   5.901  1.4399 -0.6050 -0.8181
16250TIP3    H248673   0.226   1.618   5.758 -0.4486 -0.4833 -1.3245
16251TIP3   OH248674   0.062   2.247   5.208 -0.3903 -0.7831 -0.2085
16251TIP3    H148675   0.128   2.282   5.149 -0.8167 -0.5997 -0.5851
16251TIP3    H248676   0.055   2.312   5.278  0.0946 -0.9871  0.0378
16252TIP3   OH248677   6.853   2.955   1.108 -0.9214 -0.0536  0.1918
16252TIP3    H148678   6.848   2.936   1.202  1.2339 -1.3273  0.1163
16252TIP3    H248679   6.795   2.891   1.067 -0.6971 -0.4940  0.5608
16253TIP3   OH248680   7.958   8.090   0.805  0.3006  0.1446  0.8624
16253TIP3    H148681   7.963   8.042   0.888  1.7275 -1.7776 -0.2510
16253TIP3    H248682   8.048   8.117   0.787  0.3040 -0.8582 -0.8023
16254TIP3   OH248683   7.410   5.223   3.816  0.4159 -0.3040  0.1961
16254TIP3    H148684   7.355   5.299   3.797  0.3573 -0.3249  0.2813
16254TIP3    H248685   7.348   5.152   3.835  0.4458 -0.7318 -1.2182
16255TIP3   OH248686   8.270   8.038   4.910  0.0797 -0.4905  0.5940
16255TIP3    H148687   8.254   7.948   4.937  1.0884 -0.6226  0.7803
16255TIP3    H248688   8.357   8.036   4.870 -0.3531  0.1851 -0.4325
16256TIP3   OH248689   3.661   4.575   5.096 -0.0265  0.2100  0.0625
16256TIP3    H148690   3.572   4.595   5.124  0.0899  0.0590  0.5522
16256TIP3    H248691   3.690   4.506   5.156  0.9743  1.3337  0.9325
16257TIP3   OH248692   5.606   0.247   4.074  0.0929 -0.0085  0.0195
16257TIP3    H148693   5.634   0.159   4.049 -1.2929 -0.5927  0.4050
16257TIP3    H248694   5.663   0.270   4.148  0.5746 -0.5190 -0.1814
16258TIP3   OH248695   4.026   5.651   5.031  0.1203  0.0120  0.3495
16258TIP3    H148696   3.994   5.583   4.971  1.6425 -1.0169  0.6596
16258TIP3    H248697   3.990   5.626   5.116  1.8378 -1.2582  0.7362
16259TIP3   OH248698   5.717   2.151   2.474 -0.4288 -0.7382 -0.7783
16259TIP3    H148699   5.790   2.193   2.429 -1.6186 -0.6329 -2.7224
16259TIP3    H248700   5.755   2.115   2.554  1.3878  0.7462 -0.9188
16260TIP3   OH248701   0.809   1.620   1.785  0.2919 -0.3361  0.1422
16260TIP3    H148702   0.844   1.659   1.704  0.1150 -1.2193 -0.3646
16260TIP3    H248703   0.715   1.635   1.780  0.1629 -1.2471 -0.2918
16261TIP3   OH248704   6.754   4.947   7.032 -0.1494  0.1058 -0.0314
16261TIP3    H148705   6.798   4.990   6.959  0.2209 -0.3055 -0.0488
16261TIP3    H248706   6.714   4.869   6.994  0.8449 -0.6191  0.3865
16262TIP3   OH248707   2.505   5.329   3.928 -0.4288  0.2564 -0.1735
16262TIP3    H148708   2.599   5.328   3.946 -0.2550  1.1460 -0.9668
16262TIP3    H248709   2.476   5.241   3.949  0.6136 -0.0778 -0.0754
16263TIP3   OH248710   6.608   4.355   6.611 -0.2063  0.2069  0.1119
16263TIP3    H148711   6.616   4.293   6.683  1.7617  1.2248  0.8394
16263TIP3    H248712   6.610   4.300   6.532  1.7640 -0.6788  0.7162
16264TIP3   OH248713   4.136   5.272   3.904  0.3191 -0.8834  0.0345
16264TIP3    H148714   4.103   5.262   3.993 -1.5526  1.3806 -0.2909
16264TIP3    H248715   4.113   5.190   3.860  0.9371 -1.8832  1.4971
16265TIP3   OH248716   8.659   4.759   0.909  0.1089  0.1966  0.1321
16265TIP3    H148717   8.605   4.832   0.941  0.6813  1.6377 -1.9896
16265TIP3    H248718   8.725   4.747   0.977  0.2053  1.9017  0.3737
16266TIP3   OH248719   1.653   5.857   1.178 -0.0022  0.1079 -0.1069
16266TIP3    H148720   1.573   5.805   1.165  0.3096 -0.3052 -0.3676
16266TIP3    H248721   1.655   5.872   1.273 -1.2393  1.4862 -0.2707
16267TIP3   OH248722   3.007   5.661   0.078 -0.0667  0.2561 -0.2376
16267TIP3    H148723   3.074   5.595   0.094  1.0758  1.5304  0.4166
16267TIP3    H248724   3.034   5.705  -0.002 -1.0566 -0.2960 -0.9131
16268TIP3   OH248725   0.553   3.378   0.761 -0.0699  0.1682 -0.4699
16268TIP3    H148726   0.480   3.394   0.702 -0.5458  0.1895  0.1184
16268TIP3    H248727   0.535   3.292   0.800 -1.0656  1.1857  1.4879
16269TIP3   OH248728   1.067   4.712   1.271 -0.3348  0.1129  0.3631
16269TIP3    H148729   0.975   4.685   1.275  0.1740 -1.7798  0.5880
16269TIP3    H248730   1.112   4.635   1.237  1.0074  1.5223 -1.2179
16270TIP3   OH248731   7.997   0.092   3.822  0.4288  0.0147  0.4847
16270TIP3    H148732   8.085   0.123   3.843 -0.1453  1.5141  0.7943
16270TIP3    H248733   7.969   0.145   3.748 -1.1754  1.4301  2.0078
16271TIP3   OH248734   0.674   7.878   1.535  0.3700  0.3094  0.1532
16271TIP3    H148735   0.615   7.948   1.509  0.9145  1.0964  0.9572
16271TIP3    H248736   0.721   7.854   1.455 -0.0911  0.5979 -0.2032
16272TIP3   OH248737   0.112   0.990   0.913 -0.0939  0.2141 -0.3821
16272TIP3    H148738   0.094   0.907   0.869 -1.0778 -0.2871  0.8834
16272TIP3    H248739   0.186   1.028   0.865  0.1550 -1.2317 -1.1939
16273TIP3   OH248740   5.101   4.895   3.824  0.8384 -0.4334  0.0457
16273TIP3    H148741   5.078   4.866   3.736 -1.8065  0.9542  0.1861
16273TIP3    H248742   5.106   4.814   3.875 -0.7127 -1.0789 -0.7513
16274TIP3   OH248743   8.305   7.136   3.144  0.2828  0.5243 -0.3710
16274TIP3    H148744   8.372   7.203   3.130  0.5407  0.2420 -0.5071
16274TIP3    H248745   8.351   7.053   3.133 -0.4108  0.3224 -2.1007
16275TIP3   OH248746   8.179   3.682   3.338 -0.2043 -0.4011 -0.7365
16275TIP3    H148747   8.158   3.651   3.426  2.0070 -0.6126 -0.2225
16275TIP3    H248748   8.107   3.741   3.315  0.0264  1.0468  1.9260
16276TIP3   OH248749   3.481   1.215   2.089  0.1305  0.2060 -0.0765
16276TIP3    H148750   3.517   1.271   2.157 -0.6324 -0.1826  0.6744
16276TIP3    H248751   3.455   1.275   2.019 -0.1648  0.7305  0.4775
16277TIP3   OH248752   5.796   3.579   5.127 -0.1739 -0.4736  0.2416
16277TIP3    H148753   5.810   3.527   5.048 -4.1183 -1.2642 -0.1417
16277TIP3    H248754   5.775   3.515   5.195 -1.3504  0.4032  0.7419
16278TIP3   OH248755   5.778   5.513   6.829  0.3398 -0.5884 -0.0301
16278TIP3    H148756   5.844   5.577   6.855 -0.3350  0.8956 -1.7964
16278TIP3    H248757   5.821   5.461   6.761  0.4543 -1.1748  0.4841
16279TIP3   OH248758   0.715   1.162   4.482  0.8931 -0.1165  0.5101
16279TIP3    H148759   0.762   1.166   4.399  2.4448 -1.0745  1.2952
16279TIP3    H248760   0.645   1.226   4.473  1.7072  0.6021 -1.1170
16280TIP3   OH248761   4.313   1.534   5.667  0.1005 -0.1533 -0.1155
16280TIP3    H148762   4.359   1.506   5.588  1.0235 -0.4561  0.5132
16280TIP3    H248763   4.379   1.530   5.736 -1.2342 -2.1959  1.1573
16281TIP3   OH248764   1.675   6.521   3.297  0.0011 -0.7462 -0.7897
16281TIP3    H148765   1.624   6.599   3.317  0.9168 -0.5528  1.0324
16281TIP3    H248766   1.647   6.495   3.209 -1.4706  0.6974 -0.7883
16282TIP3   OH248767   5.069   1.743   5.256 -0.0642  0.0791 -0.5756
16282TIP3    H148768   5.088   1.661   5.301 -0.9249 -0.7931 -1.7504
16282TIP3    H248769   5.152   1.791   5.257  0.2679 -0.4967  0.7236
16283TIP3   OH248770   1.457   1.181   1.188 -0.2082  0.3631 -0.2132
16283TIP3    H148771   1.366   1.150   1.195 -0.4061  0.9753 -0.0627
16283TIP3    H248772   1.502   1.139   1.262 -0.7104  1.2457  0.6067
16284TIP3   OH248773   6.574   3.135   2.665 -0.2175 -0.0343  0.0906
16284TIP3    H148774   6.493   3.187   2.666  0.2738  0.7433  0.0178
16284TIP3    H248775   6.544   3.046   2.646 -0.9386  0.4753 -1.3824
16285TIP3   OH248776   4.645   5.487   3.011  0.1390  0.1646  0.0201
16285TIP3    H148777   4.637   5.396   2.981  0.7334 -0.0345  0.4634
16285TIP3    H248778   4.640   5.482   3.106  0.3567  0.5743  0.0566
16286TIP3   OH248779   2.052   5.328   2.307  0.4696  0.0546  0.3053
16286TIP3    H148780   2.084   5.414   2.277  0.8690  0.0276  0.6445
16286TIP3    H248781   2.056   5.333   2.403  1.4471 -0.6860  0.3257
16287TIP3   OH248782   1.597   7.075   5.186 -0.2062 -0.3488 -0.1409
16287TIP3    H148783   1.667   7.120   5.140 -1.0743  1.3881  0.1673
16287TIP3    H248784   1.574   7.134   5.258 -1.6344 -1.1157  0.0635
16288TIP3   OH248785   7.148   6.419   2.530  0.5727 -0.0349  0.3914
16288TIP3    H148786   7.138   6.334   2.573  0.6335 -0.5498 -0.5847
16288TIP3    H248787   7.207   6.468   2.587  0.3055 -0.5318  1.1166
16289TIP3   OH248788   4.221   1.296   3.660 -0.5528  0.5200 -0.2679
16289TIP3    H148789   4.278   1.238   3.710 -1.0138 -0.3142 -0.6776
16289TIP3    H248790   4.198   1.366   3.721  1.2752  1.1540 -0.2381
16290TIP3   OH248791   2.037   2.497   2.329  0.2992  0.1047  0.2041
16290TIP3    H148792   2.006   2.580   2.293  0.8120 -0.0686 -0.6816
16290TIP3    H248793   2.076   2.521   2.413  1.9718  1.0603 -0.7788
16291TIP3   OH248794   4.918   5.590   3.150 -0.0805 -0.8850 -0.5373
16291TIP3    H148795   4.904   5.616   3.059 -0.7498  0.6981 -0.0204
16291TIP3    H248796   4.876   5.659   3.201 -0.4049 -2.1452  0.9784
16292TIP3   OH248797   3.617   3.909   2.585 -0.2909  0.4824 -0.2598
16292TIP3    H148798   3.556   3.871   2.521 -0.6526  0.1670  0.2657
16292TIP3    H248799   3.623   3.843   2.654 -0.1492  0.9589  0.1899
16293TIP3   OH248800   7.088   1.774   6.043  0.8809  0.2474 -0.1542
16293TIP3    H148801   7.009   1.800   6.090  0.0461 -0.8281 -0.9229
16293TIP3    H248802   7.069   1.794   5.951  0.3814 -2.4798 -0.7268
16294TIP3   OH248803   2.394   0.905   2.048  0.3170  0.5630  0.4229
16294TIP3    H148804   2.416   0.821   2.089 -1.7473  0.5588  1.6855
16294TIP3    H248805   2.475   0.955   2.051  1.5084 -1.2438 -0.0258
16295TIP3   OH248806   0.308   7.446   6.518 -0.1848  0.2605  0.2277
16295TIP3    H148807   0.219   7.451   6.553  0.1914  2.6619  1.0261
16295TIP3    H248808   0.326   7.352   6.510 -2.0213 -0.3023  2.0347
16296TIP3   OH248809   2.661   5.296   2.139 -0.4586  0.3564  0.5494
16296TIP3    H148810   2.671   5.202   2.125  1.7155  0.3947  1.3772
16296TIP3    H248811   2.679   5.309   2.232 -0.1128  1.6331  0.3314
16297TIP3   OH248812   7.846   5.169   0.250 -0.0056  0.5629 -0.1147
16297TIP3    H148813   7.813   5.205   0.333 -0.8153 -0.7472  0.1651
16297TIP3    H248814   7.767   5.142   0.203  0.4824  0.7420 -1.0719
16298TIP3   OH248815   0.125   5.549   4.004  0.3135 -0.3701 -0.1893
16298TIP3    H148816   0.061   5.617   3.982 -0.9585 -1.5107 -0.0937
16298TIP3    H248817   0.161   5.577   4.088 -0.3597  0.0750 -0.0390
16299TIP3   OH248818   4.779   0.448   3.017  0.2560 -0.3365  0.1619
16299TIP3    H148819   4.755   0.527   2.968 -1.0946  0.2082  1.6266
16299TIP3    H248820   4.865   0.469   3.055  0.0875  0.2632  0.2144
16300TIP3   OH248821   4.552   3.576   6.291 -0.6830  0.5098 -0.2371
16300TIP3    H148822   4.580   3.485   6.286  3.0569  1.2395  2.7828
16300TIP3    H248823   4.574   3.613   6.205  0.4856 -0.7986 -0.5343
16301TIP3   OH248824   0.654   4.869  -0.027 -0.5990  0.1080  0.4420
16301TIP3    H148825   0.621   4.901   0.057 -1.7541 -0.6518  0.3009
16301TIP3    H248826   0.666   4.775  -0.014 -1.2973 -0.1113 -0.3812
16302TIP3   OH248827   7.702   1.451   4.454  0.2202  0.8725 -0.3685
16302TIP3    H148828   7.780   1.492   4.419  1.2118 -0.9965 -0.4836
16302TIP3    H248829   7.732   1.403   4.531 -0.8853  0.4641 -0.1648
16303TIP3   OH248830   6.621   1.136   3.714 -0.5672 -0.1380 -0.6600
16303TIP3    H148831   6.553   1.068   3.720 -1.5290  0.6180 -2.2499
16303TIP3    H248832   6.644   1.156   3.805  0.2834 -3.0693 -0.1189
16304TIP3   OH248833   6.597   6.995   6.243  0.4097 -0.0463 -0.1940
16304TIP3    H148834   6.632   7.073   6.201  1.0569 -0.2274 -0.0057
16304TIP3    H248835   6.673   6.954   6.284 -0.1335 -0.0913  0.8074
16305TIP3   OH248836   2.276   0.552   2.048  0.3059  0.4494 -0.0580
16305TIP3    H148837   2.324   0.537   2.129  0.1914 -0.4873 -0.1501
16305TIP3    H248838   2.314   0.490   1.986 -0.0129  0.7424 -0.5543
16306TIP3   OH248839   4.999   3.937   5.831  0.3599 -0.4286  0.1091
16306TIP3    H148840   5.045   3.853   5.839  2.3860  0.3205 -2.3599
16306TIP3    H248841   5.035   3.991   5.901  1.2065 -0.7317 -0.0781
16307TIP3   OH248842   6.423   1.320   6.293  0.0896  0.5025  0.2884
16307TIP3    H148843   6.368   1.251   6.257  0.1106  0.2104  0.8231
16307TIP3    H248844   6.490   1.274   6.343  0.7605  0.8594 -0.2677
16308TIP3   OH248845   6.881   3.958   2.588 -0.0834 -0.2481 -0.2248
16308TIP3    H148846   6.874   4.017   2.513 -0.0698  0.8983  0.6664
16308TIP3    H248847   6.923   3.880   2.552  0.4642  0.5119 -1.2940
16309TIP3   OH248848   5.924   3.071   2.318  0.2254 -0.1442  0.6569
16309TIP3    H148849   5.831   3.065   2.339 -0.0410 -1.1591 -0.7087
16309TIP3    H248850   5.953   3.150   2.364 -0.9139 -0.6874  2.4507
16310TIP3   OH248851   2.618   2.949   5.155  0.2713  0.5052 -0.3490
16310TIP3    H148852   2.646   2.979   5.241 -0.5854 -0.9597  0.4804
16310TIP3    H248853   2.648   2.858   5.150 -2.9084 -0.6838  0.0082
16311TIP3   OH248854   8.097   0.530   3.640  0.2242 -0.0852  0.4237
16311TIP3    H148855   8.067   0.605   3.691  1.5683  0.9927 -0.3287
16311TIP3    H248856   8.057   0.542   3.553  0.4628 -0.2396  0.2921
16312TIP3   OH248857   1.698   3.354   1.002  0.5048  0.2665 -0.0026
16312TIP3    H148858   1.784   3.377   1.036  0.1047 -0.4831  1.6595
16312TIP3    H248859   1.705   3.262   0.977  0.1959  0.2032  0.1307
16313TIP3   OH248860   4.993   4.074   6.422 -0.1659  0.0509 -0.0905
16313TIP3    H148861   4.934   4.012   6.464 -2.1268  0.6262 -1.8308
16313TIP3    H248862   5.010   4.141   6.489 -1.1284 -0.3734  0.5903
16314TIP3   OH248863   5.359   1.798   0.050  0.4612 -0.2987  0.5461
16314TIP3    H148864   5.378   1.832   0.137  0.1800 -0.6008  0.7298
16314TIP3    H248865   5.382   1.869  -0.009 -3.0040  1.4612  1.0576
16315TIP3   OH248866   6.229   0.340   0.418 -0.3237 -0.1109  0.2219
16315TIP3    H148867   6.258   0.391   0.342  0.2939 -0.2707  0.3417
16315TIP3    H248868   6.137   0.320   0.400 -0.3451  0.3421 -0.2096
16316TIP3   OH248869   0.356   4.108   6.096  0.1049 -0.5220  0.4573
16316TIP3    H148870   0.432   4.103   6.038  0.3391 -0.1049  0.7269
16316TIP3    H248871   0.392   4.130   6.181 -0.3586  0.1243  0.4940
16317TIP3   OH248872   4.273   2.702   4.740  0.0762  0.0745  0.2312
16317TIP3    H148873   4.196   2.758   4.741 -0.1686 -0.2544  0.2138
16317TIP3    H248874   4.326   2.735   4.668 -0.0862  0.2539  0.1927
16318TIP3   OH248875   5.622   6.006   0.359  0.2129  0.0676  0.1414
16318TIP3    H148876   5.572   5.949   0.300  0.8450 -0.0934 -0.2448
16318TIP3    H248877   5.713   5.991   0.335  0.4624  0.2066  0.9850
16319TIP3   OH248878   0.670   4.176   5.452 -0.0120 -0.0821  0.0428
16319TIP3    H148879   0.590   4.153   5.404  0.5394  1.0290 -1.4711
16319TIP3    H248880   0.701   4.256   5.410 -0.1628  1.7113  3.1142
16320TIP3   OH248881   6.864   0.856   3.644 -0.0793  0.5934  0.5758
16320TIP3    H148882   6.953   0.875   3.675  0.7670 -1.7991 -0.1625
16320TIP3    H248883   6.808   0.877   3.718  1.3659 -0.1639  1.9480
16321TIP3   OH248884   6.018   4.113   3.044  0.1201  0.8281  0.4445
16321TIP3    H148885   6.077   4.043   3.015  0.6267  1.3939  0.0941
16321TIP3    H248886   6.073   4.191   3.048 -0.4001  1.1724  1.0123
16322TIP3   OH248887   1.420   3.733   3.184  0.1345 -0.4473  0.2330
16322TIP3    H148888   1.336   3.730   3.229 -1.3392 -1.7649 -2.3765
16322TIP3    H248889   1.472   3.663   3.224 -0.2581 -0.1297  1.3391
16323TIP3   OH248890   7.366   6.463   4.992  0.1243  0.3090 -0.0281
16323TIP3    H148891   7.387   6.462   5.086  1.9584 -0.7112 -0.3897
16323TIP3    H248892   7.388   6.374   4.962 -0.3070  0.6581 -1.4523
16324TIP3   OH248893   3.517   7.079   2.741 -0.3529 -0.1217  0.4278
16324TIP3    H148894   3.515   7.088   2.837 -0.1983  0.9463  0.3427
16324TIP3    H248895   3.436   7.119   2.712 -0.7248 -1.0597  0.1412
16325TIP3   OH248896   3.037   7.987   2.545  0.1129  0.4180  0.1178
16325TIP3    H148897   3.019   7.905   2.499  0.3347  1.4163 -1.8415
16325TIP3    H248898   3.120   7.972   2.590 -0.4766 -0.8318  0.8471
16326TIP3   OH248899   6.828   2.372   2.867  0.4657  0.2656  0.2482
16326TIP3    H148900   6.893   2.433   2.831  0.0911  0.3649 -0.2729
16326TIP3    H248901   6.837   2.381   2.962  0.9536  0.5556  0.1802
16327TIP3   OH248902   6.189   3.063   5.784  0.1507  0.5688  0.1410
16327TIP3    H148903   6.169   3.026   5.698 -0.0741  0.0505  0.4122
16327TIP3    H248904   6.241   3.141   5.765 -0.4792  0.8467 -0.4958
16328TIP3   OH248905   6.973   2.679   2.441  0.2991  0.1276  0.0470
16328TIP3    H148906   6.996   2.590   2.465  0.7034  0.0510 -0.5889
16328TIP3    H248907   6.939   2.672   2.351 -0.3960  0.5077  0.2738
16329TIP3   OH248908   0.761   7.082   6.545 -0.0321  0.0799 -0.4602
16329TIP3    H148909   0.694   7.069   6.612 -1.2381 -1.3694 -1.8786
16329TIP3    H248910   0.816   7.152   6.580 -1.9332  0.9248  1.0214
16330TIP3   OH248911   6.629   2.554   5.544 -0.4271  0.4888 -0.3628
16330TIP3    H148912   6.617   2.459   5.533  0.4724  0.3129  0.0768
16330TIP3    H248913   6.724   2.566   5.546 -0.5365  1.4218 -0.5368
16331TIP3   OH248914   6.606   1.490   3.377  0.1840 -0.0447 -0.0119
16331TIP3    H148915   6.619   1.462   3.287  0.7074 -0.8600  0.2995
16331TIP3    H248916   6.631   1.582   3.379  0.8204 -0.2017 -0.5582
16332TIP3   OH248917   6.642   3.722   5.069 -0.0773  0.5305 -0.1416
16332TIP3    H148918   6.609   3.724   5.159  0.8195  1.5742  0.1750
16332TIP3    H248919   6.735   3.702   5.078 -0.1898 -0.4301 -0.9185
16333TIP3   OH248920   5.063   6.744   4.545  0.5117  0.3014  0.2257
16333TIP3    H148921   5.111   6.767   4.624  0.6787  2.3995 -0.4337
16333TIP3    H248922   4.999   6.814   4.534 -0.3423 -0.5938 -0.8518
16334TIP3   OH248923   0.142   3.426   4.624 -0.0275  0.5137  0.1194
16334TIP3    H148924   0.099   3.422   4.710 -1.2104 -0.6211 -0.4989
16334TIP3    H248925   0.076   3.393   4.563  1.1005  0.4901 -1.1115
16335TIP3   OH248926   7.982   0.930   1.679 -0.3198 -0.1354 -0.1113
16335TIP3    H148927   8.030   0.935   1.761 -0.7824  0.0456  0.1511
16335TIP3    H248928   8.016   1.003   1.627 -1.1868  0.7655  0.5516
16336TIP3   OH248929   6.094   5.903   5.628  0.0712 -0.0317  0.4715
16336TIP3    H148930   6.026   5.966   5.653 -0.0251  0.1406 -0.2061
16336TIP3    H248931   6.150   5.951   5.567 -0.1608 -0.6807 -0.2681
16337TIP3   OH248932   1.404   5.492   0.202 -0.4353  0.7000  0.0845
16337TIP3    H148933   1.423   5.547   0.277  2.0153 -0.2941  0.2884
16337TIP3    H248934   1.463   5.523   0.133  1.8691 -2.2027  0.5472
16338TIP3   OH248935   3.884   1.980   4.029 -0.5739 -0.2025 -0.3935
16338TIP3    H148936   3.974   2.005   4.008 -0.2232 -1.2789 -0.2055
16338TIP3    H248937   3.840   1.977   3.944 -0.5398  0.6911 -0.4537
16339TIP3   OH248938   6.852   1.864   4.750  0.0157 -0.1940  0.0564
16339TIP3    H148939   6.823   1.922   4.821  0.4487 -0.4159  0.4232
16339TIP3    H248940   6.895   1.921   4.688  0.3233 -0.0968  0.3534
16340TIP3   OH248941   0.290   3.094   2.099  0.4311 -0.5431  0.0721
16340TIP3    H148942   0.294   3.047   2.182  2.4064 -0.1853  0.2121
16340TIP3    H248943   0.357   3.054   2.044 -0.5213 -0.4574 -1.2200
16341TIP3   OH248944   8.274   6.891   5.783 -0.0613  0.2360 -0.2813
16341TIP3    H148945   8.245   6.913   5.695 -0.0295  0.0161 -0.3482
16341TIP3    H248946   8.370   6.892   5.778  0.0831 -3.5960 -1.2822
16342TIP3   OH248947   6.038   4.953   2.074  0.3485  0.2346 -0.0069
16342TIP3    H148948   6.032   5.003   2.155  0.3103 -1.0974  0.8559
16342TIP3    H248949   5.962   4.893   2.078 -0.1626  0.7539 -1.4621
16343TIP3   OH248950   7.672   1.011   5.608 -0.5377 -0.4677  0.3730
16343TIP3    H148951   7.673   0.964   5.524  2.0510 -1.1733  0.7060
16343TIP3    H248952   7.652   1.101   5.585 -1.8142 -1.0112 -0.7543
16344TIP3   OH248953   3.321   3.460   2.331 -0.0505 -0.6456  0.2479
16344TIP3    H148954   3.411   3.433   2.314  0.5952  0.7377  1.2770
16344TIP3    H248955   3.268   3.385   2.305  1.3767 -1.4166 -0.5552
16345TIP3   OH248956   0.409   6.015   2.766  0.1791  0.3075  0.4350
16345TIP3    H148957   0.482   6.001   2.826  1.5802  1.0705 -1.0226
16345TIP3    H248958   0.410   6.109   2.748 -0.0804  0.0685 -0.9273
16346TIP3   OH248959   0.181   7.975   5.754 -0.4235 -0.1514 -0.6149
16346TIP3    H148960   0.236   8.010   5.824  0.3655 -0.3100 -1.1423
16346TIP3    H248961   0.238   7.913   5.707 -1.1613 -0.5922 -0.9506
16347TIP3   OH248962   6.726   6.310   4.762  0.5635  0.1089  0.0270
16347TIP3    H148963   6.694   6.355   4.684  1.6279 -1.2816 -1.2642
16347TIP3    H248964   6.799   6.364   4.793  0.5645  0.3171 -0.3330
16348TIP3   OH248965   5.563   3.532   2.569  0.0645  0.0347  0.3133
16348TIP3    H148966   5.631   3.526   2.635  0.2434 -0.2499  0.1072
16348TIP3    H248967   5.482   3.548   2.618 -0.3515 -3.2148  0.9068
16349TIP3   OH248968   6.805   7.174   6.812  0.0830 -0.4466  0.4581
16349TIP3    H148969   6.858   7.234   6.865 -1.1197 -0.4433  1.7211
16349TIP3    H248970   6.866   7.139   6.747  1.1675  0.9713  0.6673
16350TIP3   OH248971   6.848   5.669   4.705  0.1624 -0.6193  0.2137
16350TIP3    H148972   6.943   5.657   4.705  0.1566 -0.8345 -1.0314
16350TIP3    H248973   6.817   5.609   4.637 -0.7429  0.2756 -0.1819
16351TIP3   OH248974   3.178   7.035   3.013 -0.1828  0.0907 -0.2053
16351TIP3    H148975   3.192   6.957   3.067  0.2176  0.3389  0.0556
16351TIP3    H248976   3.086   7.030   2.987 -0.4481  0.1020  0.7104
16352TIP3   OH248977   2.893   5.185   6.481 -0.3585  0.3898  0.1364
16352TIP3    H148978   2.829   5.130   6.436  0.5533 -0.6181  0.0461
16352TIP3    H248979   2.936   5.126   6.543 -1.4234  1.6784  2.2277
16353TIP3   OH248980   7.060   2.896   2.290  0.0275 -0.4320 -0.1146
16353TIP3    H148981   7.039   2.832   2.358 -1.5355  1.8149  1.6886
16353TIP3    H248982   7.154   2.912   2.300  0.0485 -1.0247  0.7053
16354TIP3   OH248983   6.885   2.953   5.495 -0.5675  0.6946 -0.1812
16354TIP3    H148984   6.948   3.008   5.542  0.2690 -2.0842  2.2324
16354TIP3    H248985   6.814   2.938   5.557 -0.1882 -1.8506 -0.2794
16355TIP3   OH248986   3.691   7.659   2.960 -0.0247  0.1950  0.3126
16355TIP3    H148987   3.786   7.650   2.953 -0.0350  1.0966 -1.9418
16355TIP3    H248988   3.662   7.579   3.004  1.6757 -0.6431 -0.0094
16356TIP3   OH248989   5.066   7.377   0.387 -0.5536 -0.4623 -0.0409
16356TIP3    H148990   5.135   7.333   0.338 -0.0721 -0.2367  0.4186
16356TIP3    H248991   5.011   7.418   0.320 -1.0430 -1.7888 -0.4736
16357TIP3   OH248992   4.924   6.965   3.861  0.4551 -0.0934  0.2339
16357TIP3    H148993   4.984   7.009   3.921 -0.6378  0.0351  1.2663
16357TIP3    H248994   4.852   6.935   3.916  0.4789 -1.9682 -0.6509
16358TIP3   OH248995   5.009   2.752   2.713 -0.5285 -0.0453 -0.6101
16358TIP3    H148996   4.963   2.829   2.747 -2.3162 -1.4176  0.2125
16358TIP3    H248997   4.973   2.740   2.625 -0.5054 -0.1418 -0.6061
16359TIP3   OH248998   4.605   3.456   4.673  0.0254  0.6844 -0.9849
16359TIP3    H148999   4.518   3.423   4.697 -0.1016  1.5679 -0.1536
16359TIP3    H249000   4.664   3.413   4.736  0.0637  0.8105 -0.9343
16360TIP3   OH249001   5.974   4.524   5.602 -0.2007  0.3472  0.0304
16360TIP3    H149002   5.940   4.436   5.583 -1.6372  1.1970 -1.6995
16360TIP3    H249003   5.949   4.540   5.693 -1.4444 -0.4115 -0.1421
16361TIP3   OH249004   8.461   4.197   0.264  0.1393  0.3022  0.4781
16361TIP3    H149005   8.492   4.257   0.332  0.3530  0.6574  0.0697
16361TIP3    H249006   8.531   4.133   0.254  0.6534  0.9609 -0.2698
16362TIP3   OH249007   5.495   2.953   3.614  0.2624  0.0731  0.8698
16362TIP3    H149008   5.414   2.972   3.661  0.8892 -0.2746  2.1468
16362TIP3    H249009   5.536   2.883   3.664  1.2541  0.1019  0.1299
16363TIP3   OH249010   3.332   0.946   7.112 -0.1636 -0.6072 -0.0101
16363TIP3    H149011   3.310   0.853   7.119  2.7575 -1.3507  0.8641
16363TIP3    H249012   3.399   0.950   7.044 -2.7420  1.4940 -2.6762
16364TIP3   OH249013   8.097   2.672   6.213 -0.0813  1.0099  0.6808
16364TIP3    H149014   8.032   2.630   6.156  1.5787 -1.0420  0.1714
16364TIP3    H249015   8.120   2.753   6.167 -1.4978  1.2549  0.3619
16365TIP3   OH249016   5.677   5.819   5.991 -0.1971  0.1997 -0.0718
16365TIP3    H149017   5.767   5.790   5.977 -0.0152  1.1901 -1.1881
16365TIP3    H249018   5.624   5.756   5.942  0.0722  0.7423 -1.1126
16366TIP3   OH249019   1.139   7.003   3.570 -0.3588  0.1490 -0.1093
16366TIP3    H149020   1.154   7.052   3.651  0.0416 -0.2083  0.0365
16366TIP3    H249021   1.044   6.996   3.563 -0.3874  0.0366  0.4132
16367TIP3   OH249022   7.961   0.693   6.647 -0.4015  0.0083 -0.1667
16367TIP3    H149023   8.007   0.648   6.576  0.0543 -0.4480  0.4097
16367TIP3    H249024   7.881   0.725   6.606 -0.3330 -0.5879 -0.7991
16368TIP3   OH249025   1.057   5.062   0.328 -0.3627  0.2754 -0.1980
16368TIP3    H149026   1.099   4.982   0.362  2.2099  0.9712 -1.4915
16368TIP3    H249027   1.114   5.091   0.258 -1.5894  2.9327 -0.2130
16369TIP3   OH249028   7.640   5.871   6.037  0.3488  0.4749  0.2556
16369TIP3    H149029   7.638   5.836   5.948  0.1610  0.4726  0.2589
16369TIP3    H249030   7.621   5.964   6.027 -0.4186  0.3380  0.3513
16370TIP3   OH249031   6.282   2.518   4.449 -0.0153 -0.0452  0.2113
16370TIP3    H149032   6.258   2.565   4.529  0.5848 -0.7254  0.8101
16370TIP3    H249033   6.378   2.515   4.451 -0.0098 -0.3584 -0.3648
16371TIP3   OH249034   8.271   0.384   4.959  0.4788 -0.2446 -0.0859
16371TIP3    H149035   8.334   0.313   4.975  2.0393  0.2650 -3.1266
16371TIP3    H249036   8.211   0.348   4.894  0.0571  0.5839 -0.1601
16372TIP3   OH249037   6.344   3.919   2.790 -0.9345  0.1571  0.8603
16372TIP3    H149038   6.319   3.875   2.708 -1.2706  1.2481  0.3580
16372TIP3    H249039   6.274   3.897   2.851 -1.8189  1.0658  0.2152
16373TIP3   OH249040   1.828   4.009   4.156  0.2243  0.4698 -0.1173
16373TIP3    H149041   1.873   3.962   4.226 -0.5439 -0.4332 -0.2238
16373TIP3    H249042   1.846   3.959   4.076  0.8166  1.3061 -0.5319
16374TIP3   OH249043   4.617   0.316   0.363 -0.1017  0.5209  0.3263
16374TIP3    H149044   4.543   0.267   0.326 -1.5538  2.1929  0.8979
16374TIP3    H249045   4.689   0.253   0.362 -1.6555 -1.3774  0.2878
16375TIP3   OH249046   8.323   5.991   1.872 -0.1479 -0.2908  0.8355
16375TIP3    H149047   8.372   6.067   1.903  0.2008 -0.6774  1.2515
16375TIP3    H249048   8.344   5.921   1.934 -1.1073 -0.5120  0.9363
16376TIP3   OH249049   2.337   3.827   2.752  0.3689  0.1126  0.0410
16376TIP3    H149050   2.361   3.795   2.666 -1.1937 -0.9391 -0.0559
16376TIP3    H249051   2.268   3.892   2.735 -0.8332 -0.9891  0.5047
16377TIP3   OH249052   3.767   6.810   4.929  0.7045  0.1245 -0.4430
16377TIP3    H149053   3.775   6.854   4.844  3.7994 -1.0620 -0.9068
16377TIP3    H249054   3.695   6.749   4.918  1.9934 -1.1088 -2.8208
16378TIP3   OH249055   0.226   6.789   0.922 -0.3098 -0.4149 -0.1087
16378TIP3    H149056   0.229   6.874   0.878  0.2874 -0.6315 -0.5022
16378TIP3    H249057   0.317   6.768   0.941 -0.0513 -2.4593 -2.9805
16379TIP3   OH249058   7.612   5.309   6.276 -0.3369  0.0461  0.4862
16379TIP3    H149059   7.606   5.386   6.219 -0.9940  0.8955  1.6674
16379TIP3    H249060   7.580   5.236   6.222 -1.4160  0.9113 -0.0799
16380TIP3   OH249061   0.576   0.184   1.798  0.3683  0.1965 -0.2117
16380TIP3    H149062   0.615   0.220   1.878 -0.9142 -1.5562  1.2783
16380TIP3    H249063   0.484   0.171   1.819  0.0155 -0.4278 -1.9493
16381TIP3   OH249064   5.024   1.809   0.654 -0.5431 -0.3305 -0.5185
16381TIP3    H149065   5.057   1.859   0.579  0.4346 -0.5301 -0.2420
16381TIP3    H249066   5.103   1.773   0.694 -1.0991 -0.6182  0.3309
16382TIP3   OH249067   2.946   6.111   5.410  0.4458  0.4230 -0.4574
16382TIP3    H149068   2.902   6.049   5.352 -0.7988  0.6922  0.1694
16382TIP3    H249069   2.964   6.187   5.355 -3.0492  1.7541  0.0056
16383TIP3   OH249070   4.556   5.666   3.361  0.4690 -0.3797 -0.1412
16383TIP3    H149071   4.523   5.576   3.359 -0.8998  0.0741  0.7663
16383TIP3    H249072   4.522   5.705   3.281  1.0617 -0.6512 -0.5348
16384TIP3   OH249073   2.973   1.221   3.114 -0.2431  0.6975  0.0829
16384TIP3    H149074   2.960   1.266   3.030 -0.4038  0.3096 -0.1028
16384TIP3    H249075   2.885   1.191   3.138 -0.0224 -0.1802 -0.1753
16385TIP3   OH249076   4.141   6.971   4.621  0.4695  0.3632  0.3049
16385TIP3    H149077   4.146   6.941   4.531  1.2550 -0.0798  0.4881
16385TIP3    H249078   4.147   7.067   4.615  0.8608  0.3183 -0.0979
16386TIP3   OH249079   7.492   4.402   2.768  0.2821  0.2324  0.0891
16386TIP3    H149080   7.454   4.452   2.696  1.9008 -0.1278 -1.0665
16386TIP3    H249081   7.431   4.329   2.782 -0.1310  0.3950 -0.8185
16387TIP3   OH249082   7.062   1.086   0.820 -0.3059 -0.4983 -0.5232
16387TIP3    H149083   7.022   1.150   0.878  0.7170  0.5972 -0.9701
16387TIP3    H249084   6.990   1.032   0.788 -1.2974  0.9088 -0.7039
16388TIP3   OH249085   3.923   6.378   0.181 -0.2165  0.3187  0.3941
16388TIP3    H149086   3.897   6.464   0.215 -1.8184 -0.3901  1.0345
16388TIP3    H249087   4.014   6.368   0.210 -0.5894  1.0192  1.9332
16389TIP3   OH249088   3.695   0.795   6.303  0.4903  0.0001 -0.8399
16389TIP3    H149089   3.622   0.810   6.364  1.5820 -0.8436  0.7371
16389TIP3    H249090   3.751   0.872   6.313  0.7622 -0.2216 -0.6435
16390TIP3   OH249091   1.614   7.717   6.546 -0.2811  0.0090  0.4135
16390TIP3    H149092   1.595   7.624   6.562  1.2051 -1.0435 -3.0653
16390TIP3    H249093   1.554   7.741   6.476  1.1483  0.8767 -0.5476
16391TIP3   OH249094   2.822   7.877   6.730 -0.1321 -0.2997 -0.0479
16391TIP3    H149095   2.829   7.782   6.731  0.5297 -0.2532  1.2286
16391TIP3    H249096   2.869   7.904   6.651  1.3651 -0.9217  0.6109
16392TIP3   OH249097   6.269   5.145   6.659 -0.7224  0.4030  0.1148
16392TIP3    H149098   6.305   5.101   6.582 -0.7795  0.7099 -0.0895
16392TIP3    H249099   6.323   5.115   6.732 -0.4851  0.3365 -0.0895
16393TIP3   OH249100   1.271   4.462   5.848  0.2633 -0.5321 -0.1513
16393TIP3    H149101   1.366   4.463   5.845  0.3350 -2.4498  0.3041
16393TIP3    H249102   1.246   4.554   5.855  2.2625 -0.0860  4.0234
16394TIP3   OH249103   2.051   2.724   1.525 -0.1328  0.3975 -0.0819
16394TIP3    H149104   2.107   2.768   1.589  0.9640 -0.1505 -0.6229
16394TIP3    H249105   1.984   2.681   1.578  0.6677  0.0646  0.7053
16395TIP3   OH249106   2.492   0.966   0.075 -0.7278 -0.3000 -0.1975
16395TIP3    H149107   2.471   0.876   0.050  1.7625 -1.3679  1.2414
16395TIP3    H249108   2.449   0.977   0.160 -1.1850 -0.0305 -0.4570
16396TIP3   OH249109   6.730   7.719   4.414  0.2663 -0.0600  0.6895
16396TIP3    H149110   6.715   7.712   4.508 -2.2794  1.2800  0.4767
16396TIP3    H249111   6.723   7.813   4.395 -1.5460 -0.4776 -1.1073
16397TIP3   OH249112   5.181   2.552   3.804 -0.3744  0.0400 -0.2881
16397TIP3    H149113   5.168   2.626   3.862 -1.8163 -0.4509  0.0572
16397TIP3    H249114   5.148   2.477   3.853  0.5412 -0.7571 -0.8458
16398TIP3   OH249115   0.162   3.879   6.581  0.1779  0.3750 -0.1719
16398TIP3    H149116   0.101   3.940   6.540  0.6825  1.3254  0.4701
16398TIP3    H249117   0.143   3.886   6.675  1.3368  0.7603  0.0455
16399TIP3   OH249118   1.664   7.274   3.150 -0.3710 -0.1256 -0.0413
16399TIP3    H149119   1.673   7.214   3.224 -1.0519 -0.4970 -0.2462
16399TIP3    H249120   1.613   7.347   3.185 -0.0347  0.0587  0.0597
16400TIP3   OH249121   8.195   0.534   3.041 -0.0857  0.1203  0.5104
16400TIP3    H149122   8.245   0.472   2.989  0.3334  1.3473 -0.6052
16400TIP3    H249123   8.259   0.599   3.069 -0.7012  0.6400  0.7403
16401TIP3   OH249124   6.268   8.048   0.808  0.0269 -0.3245 -0.0925
16401TIP3    H149125   6.205   8.002   0.752 -1.0627  1.3576 -0.3303
16401TIP3    H249126   6.310   8.110   0.749  0.0684  0.3195  0.6082
16402TIP3   OH249127   8.249   3.764   6.450  0.0354 -0.3646 -0.3305
16402TIP3    H149128   8.183   3.706   6.487  0.3241 -2.3730 -2.7180
16402TIP3    H249129   8.325   3.708   6.434  0.9319  1.0346 -1.2126
16403TIP3   OH249130   7.872   1.044   3.686 -0.1086  0.3006  0.2746
16403TIP3    H149131   7.780   1.046   3.661 -0.2797  1.9293  0.9661
16403TIP3    H249132   7.872   1.044   3.781  0.6159  0.9285  0.2827
16404TIP3   OH249133   1.603   7.039   6.700 -0.1972  0.5884 -0.1192
16404TIP3    H149134   1.575   6.948   6.705  0.7462  0.1873 -1.3099
16404TIP3    H249135   1.659   7.042   6.621 -0.6310  2.3038 -0.4032
16405TIP3   OH249136   2.805   6.392   0.661  0.2120 -0.3246  0.5022
16405TIP3    H149137   2.714   6.365   0.656  0.3795 -1.1839  1.6242
16405TIP3    H249138   2.808   6.476   0.616 -1.2041 -0.1117  0.7607
16406TIP3   OH249139   5.003   7.140   6.609 -0.1989 -0.4264  0.4355
16406TIP3    H149140   4.912   7.145   6.578  0.0608  0.2997 -0.2469
16406TIP3    H249141   5.056   7.144   6.529  0.4294 -1.1485  0.8095
16407TIP3   OH249142   1.100   3.732   1.698  0.1403 -0.1754  0.5939
16407TIP3    H149143   1.054   3.712   1.779 -0.2742 -0.9992  0.1694
16407TIP3    H249144   1.121   3.825   1.704 -0.0598 -0.1880  1.5517
16408TIP3   OH249145   4.028   1.623   5.236 -0.1272 -0.4300  0.6922
16408TIP3    H149146   4.108   1.676   5.232  0.0800 -0.7966 -1.4695
16408TIP3    H249147   4.043   1.554   5.172 -1.2851 -1.8436  1.8942
16409TIP3   OH249148   3.269   5.036   4.982  0.1229 -0.2394 -0.0300
16409TIP3    H149149   3.274   5.002   4.893  0.0022  0.5771 -0.3594
16409TIP3    H249150   3.215   4.973   5.029  0.1501 -0.6531 -0.5414
16410TIP3   OH249151   1.586   0.221   3.108  0.0114 -0.3730 -0.0913
16410TIP3    H149152   1.580   0.136   3.063  1.5124 -0.5453 -0.0208
16410TIP3    H249153   1.527   0.212   3.183 -2.2896 -0.2048 -1.7538
16411TIP3   OH249154   2.490   2.896   0.782 -0.0276 -0.0564 -0.3006
16411TIP3    H149155   2.534   2.815   0.806  1.3591 -0.0450 -2.5412
16411TIP3    H249156   2.550   2.939   0.721 -1.3572  1.9820 -0.2738
16412TIP3   OH249157   2.152   7.985   1.776 -0.4391 -0.2212 -0.5478
16412TIP3    H149158   2.173   8.044   1.703 -0.0514 -0.0352 -0.2944
16412TIP3    H249159   2.057   7.980   1.777 -0.4441 -2.6428 -2.9705
16413TIP3   OH249160   4.380   3.513   1.073  0.3624  0.0110  0.1260
16413TIP3    H149161   4.292   3.481   1.051  0.4273 -0.1554  0.1138
16413TIP3    H249162   4.374   3.537   1.165  0.4135 -0.3602  0.2245
16414TIP3   OH249163   3.983   0.248   1.496  0.3295  0.5145  0.1602
16414TIP3    H149164   3.894   0.243   1.463  0.4323  1.6437 -0.3305
16414TIP3    H249165   3.998   0.341   1.512  1.7018  0.4406 -0.5672
16415TIP3   OH249166   3.653   1.400   0.259  0.3118  0.7292  0.0458
16415TIP3    H149167   3.668   1.441   0.344  2.9075  1.1836 -0.5436
16415TIP3    H249168   3.710   1.323   0.259  1.3333  1.4305 -1.6990
16416TIP3   OH249169   6.870   7.276   4.167 -0.0538 -0.1987  0.0120
16416TIP3    H149170   6.777   7.298   4.175  0.2183  0.8567  0.4793
16416TIP3    H249171   6.894   7.303   4.078 -0.3429 -1.1202 -0.3600
16417TIP3   OH249172   2.410   2.570   6.195 -1.0292  0.1039 -0.4449
16417TIP3    H149173   2.410   2.656   6.236 -0.3837  0.2573 -0.7420
16417TIP3    H249174   2.318   2.550   6.180 -1.1591  1.1577 -1.2106
16418TIP3   OH249175   3.302   5.170   2.568  0.3426 -0.4146 -0.2199
16418TIP3    H149176   3.338   5.190   2.482 -0.5824  0.3365 -0.4451
16418TIP3    H249177   3.301   5.074   2.572  1.8987 -0.4713 -0.3768
16419TIP3   OH249178   6.661   7.517   0.189  0.6257  0.1562  0.0150
16419TIP3    H149179   6.582   7.534   0.138  1.3517  0.3694 -1.0904
16419TIP3    H249180   6.646   7.432   0.230 -0.6129  0.6975  0.7198
16420TIP3   OH249181   6.589   4.809   1.083 -0.2873 -0.1155 -0.0719
16420TIP3    H149182   6.630   4.861   1.152 -0.9527 -0.5594  0.6854
16420TIP3    H249183   6.498   4.840   1.081 -0.0543  0.5559 -1.4219
16421TIP3   OH249184   7.436   0.582   0.142  0.3659 -0.5446  0.0646
16421TIP3    H149185   7.513   0.533   0.171  1.4445  1.1442  0.2092
16421TIP3    H249186   7.468   0.638   0.071 -0.9686 -0.5373 -0.5549
16422TIP3   OH249187   4.188   7.269   3.900  0.0504  0.2342  0.1520
16422TIP3    H149188   4.148   7.196   3.853  2.6746  0.0167 -1.9410
16422TIP3    H249189   4.263   7.295   3.846  0.5164  3.0592  1.9390
16423TIP3   OH249190   0.116   5.023   0.465 -0.5402  0.3048  0.0927
16423TIP3    H149191   0.027   5.013   0.432 -0.9020  1.8127  0.5308
16423TIP3    H249192   0.141   4.935   0.494 -0.8576 -0.7080 -2.4720
16424TIP3   OH249193   6.542   2.773   2.845 -0.1686  0.0617 -0.2249
16424TIP3    H149194   6.573   2.799   2.759 -1.3632  2.8622  0.0829
16424TIP3    H249195   6.618   2.782   2.902  0.1148  0.2169 -0.6237
16425TIP3   OH249196   5.193   7.650   2.428 -0.5516 -0.3459 -0.0047
16425TIP3    H149197   5.235   7.631   2.344  1.6725 -0.5379  1.0830
16425TIP3    H249198   5.207   7.744   2.441  0.5567 -0.6092  0.8509
16426TIP3   OH249199   8.290   2.129   6.800  0.4104  0.0710  0.3421
16426TIP3    H149200   8.326   2.200   6.852 -0.4522  0.6930  0.1132
16426TIP3    H249201   8.196   2.131   6.817 -0.0368  0.8905 -1.9002
16427TIP3   OH249202   5.599   1.881   4.370  0.4938 -0.0147 -0.0479
16427TIP3    H149203   5.517   1.913   4.332 -0.7208 -0.9182  1.6841
16427TIP3    H249204   5.637   1.959   4.411  0.3624  0.3539 -0.6037
16428TIP3   OH249205   2.315   5.509   4.006 -0.0215 -0.2598 -0.4605
16428TIP3    H149206   2.368   5.588   3.998 -0.5851  0.4467  1.9471
16428TIP3    H249207   2.370   5.439   3.972  1.2668  0.8944 -0.8172
16429TIP3   OH249208   0.880   1.630   0.349 -0.4503 -0.3522  0.3279
16429TIP3    H149209   0.807   1.683   0.381 -0.5227 -0.4980  0.4003
16429TIP3    H249210   0.925   1.601   0.428 -0.0999  0.0397  0.2757
16430TIP3   OH249211   1.676   8.028   1.467 -0.2813 -0.2204 -0.0938
16430TIP3    H149212   1.612   7.962   1.493  0.1794 -0.9523 -0.7606
16430TIP3    H249213   1.624   8.096   1.423 -0.5013 -1.3973 -1.7493
16431TIP3   OH249214   6.484   7.774   1.173  0.2354 -0.9987  0.1068
16431TIP3    H149215   6.572   7.742   1.192  0.8781  1.4708  1.9140
16431TIP3    H249216   6.429   7.697   1.177  2.2212 -2.5441 -0.4919
16432TIP3   OH249217   7.952   0.873   0.712 -0.1679 -0.4741  0.2256
16432TIP3    H149218   7.946   0.930   0.789 -0.6777 -0.4559  0.1710
16432TIP3    H249219   7.866   0.831   0.706  0.0764 -0.9600  0.0390
16433TIP3   OH249220   7.505   0.737   2.309 -0.8759 -0.1188  0.0609
16433TIP3    H149221   7.474   0.827   2.302  1.1717  0.6680  0.1440
16433TIP3    H249222   7.513   0.707   2.219 -1.2524 -0.0884  0.0183
16434TIP3   OH249223   2.631   5.068   3.591 -0.0312 -0.0561 -0.0184
16434TIP3    H149224   2.565   5.059   3.522  0.6978 -1.8356 -0.5396
16434TIP3    H249225   2.701   5.009   3.564  2.5128  2.8522 -0.2966
16435TIP3   OH249226   2.946   6.478   1.848  0.0662 -0.3188  0.0560
16435TIP3    H149227   3.007   6.427   1.796 -0.8066  1.7511 -3.2574
16435TIP3    H249228   2.860   6.443   1.825 -0.3701  0.9728 -0.3568
16436TIP3   OH249229   7.456   6.413   3.046 -0.1458  0.5307 -0.2967
16436TIP3    H149230   7.365   6.441   3.055 -0.5282 -0.3162 -1.2945
16436TIP3    H249231   7.489   6.409   3.136 -1.3627  0.0354  0.1453
16437TIP3   OH249232   7.824   5.902   4.393  0.5002 -0.3881 -0.0353
16437TIP3    H149233   7.855   5.837   4.457  1.0859 -0.4908 -0.4129
16437TIP3    H249234   7.731   5.884   4.385  0.1240  0.4734  1.7686
16438TIP3   OH249235   0.239   1.525   0.243  0.2168  0.3871 -0.7559
16438TIP3    H149236   0.197   1.601   0.203  0.6566  1.0246 -0.0419
16438TIP3    H249237   0.229   1.538   0.337 -1.5208 -1.5017 -0.5993
16439TIP3   OH249238   0.098   8.009   3.454 -0.4363  0.3226  0.2513
16439TIP3    H149239   0.180   8.058   3.460 -0.2841  0.1031  0.0105
16439TIP3    H249240   0.049   8.053   3.385  0.1336 -0.4771 -0.6868
16440TIP3   OH249241   5.565   2.396   0.089  0.7150 -0.1101 -0.0602
16440TIP3    H149242   5.598   2.364   0.173 -1.9995  0.6490  1.4034
16440TIP3    H249243   5.480   2.353   0.079 -1.2407  3.3606  0.0371
16441TIP3   OH249244   4.219   5.298   4.884 -0.0878  0.6994 -0.8634
16441TIP3    H149245   4.267   5.369   4.841 -0.0756  1.8326  0.9100
16441TIP3    H249246   4.222   5.321   4.977  0.4309 -1.9375 -0.1507
16442TIP3   OH249247   4.787   6.416   0.795 -0.2842  0.1182 -0.1803
16442TIP3    H149248   4.867   6.365   0.808 -0.6323 -0.0503  1.5033
16442TIP3    H249249   4.720   6.350   0.775 -0.0675  0.2386 -1.3527
16443TIP3   OH249250   5.750   6.061   5.930  0.5573  0.5743  0.8742
16443TIP3    H149251   5.823   6.090   5.985  0.2001 -0.3377  1.8831
16443TIP3    H249252   5.712   5.987   5.979 -0.7472  0.7407  0.1514
16444TIP3   OH249253   4.113   2.932   0.890  0.9497 -0.6187 -0.4328
16444TIP3    H149254   4.136   2.873   0.818 -0.7707  0.2596 -1.7806
16444TIP3    H249255   4.113   3.020   0.850 -0.7802 -0.1925  0.4030
16445TIP3   OH249256   2.018   4.465   3.449  0.1200 -0.2750  0.5246
16445TIP3    H149257   2.036   4.376   3.417  0.0597 -0.7606  1.7831
16445TIP3    H249258   2.102   4.495   3.482  0.2701  0.3761 -0.4064
16446TIP3   OH249259   3.340   6.188   2.881 -0.6794 -0.1652 -0.3625
16446TIP3    H149260   3.380   6.252   2.940 -0.2026 -1.7604  1.1446
16446TIP3    H249261   3.388   6.198   2.799  1.3780 -0.5105  0.7206
16447TIP3   OH249262   3.547   5.044   1.618 -0.3829  0.8061 -0.3553
16447TIP3    H149263   3.610   5.072   1.684  0.1677  0.2575 -0.6490
16447TIP3    H249264   3.515   5.126   1.580  0.6949  1.0662 -0.7156
16448TIP3   OH249265   2.696   2.078   0.782  0.4565 -0.2014 -0.4530
16448TIP3    H149266   2.641   1.999   0.781 -0.0413  0.0949  1.2098
16448TIP3    H249267   2.761   2.062   0.714  0.6929 -2.2906  0.2001
16449TIP3   OH249268   3.027   1.897   6.121 -0.3217 -0.3183  0.6652
16449TIP3    H149269   2.979   1.864   6.045 -2.0913  1.4755  0.9087
16449TIP3    H249270   2.973   1.874   6.196  0.8097 -1.0201  1.2877
16450TIP3   OH249271   2.981   7.509   4.762 -0.0416 -0.3153 -0.0933
16450TIP3    H149272   2.949   7.427   4.798 -0.6489 -0.4688 -0.9683
16450TIP3    H249273   3.001   7.563   4.839 -3.1725  0.1016  0.5403
16451TIP3   OH249274   6.606   7.089   0.987  0.3785 -0.4317  0.3702
16451TIP3    H149275   6.639   7.053   0.905  3.8311  2.0919  0.4102
16451TIP3    H249276   6.641   7.178   0.990 -3.3470  1.2109  2.5642
16452TIP3   OH249277   0.742   7.620   3.741 -0.2391  0.0412 -0.5869
16452TIP3    H149278   0.828   7.604   3.779 -0.5090 -1.2107 -0.4309
16452TIP3    H249279   0.689   7.652   3.813 -0.8201 -2.5754  0.2820
16453TIP3   OH249280   3.226   3.192   0.532 -0.1841 -0.3452 -0.2051
16453TIP3    H149281   3.215   3.171   0.625  1.9534 -2.2009 -0.2895
16453TIP3    H249282   3.162   3.136   0.487 -2.1406  1.4972  0.1419
16454TIP3   OH249283   0.172   5.375   1.614  0.2095 -0.1202 -0.2751
16454TIP3    H149284   0.148   5.352   1.524 -1.3910  0.0762  0.0759
16454TIP3    H249285   0.098   5.427   1.646  1.0832  0.4177  0.9258
16455TIP3   OH249286   1.577   8.010   0.973 -0.3045 -0.0200 -0.0888
16455TIP3    H149287   1.541   8.094   1.001  2.0310  0.9803  0.1533
16455TIP3    H249288   1.615   7.973   1.052  1.2124  0.0847 -0.7413
16456TIP3   OH249289   1.804   4.222   1.281  0.3689 -0.5114  0.2750
16456TIP3    H149290   1.833   4.141   1.239 -0.1738 -0.4060 -0.3159
16456TIP3    H249291   1.752   4.193   1.356  0.0360 -0.7155 -0.0336
16457TIP3   OH249292   4.817   1.104   3.630 -0.1083 -1.2786 -0.0250
16457TIP3    H149293   4.724   1.083   3.635 -0.2912 -0.5623 -0.3916
16457TIP3    H249294   4.850   1.049   3.559 -0.9019  0.6933 -2.0384
16458TIP3   OH249295   2.262   2.799   4.032  0.0557  0.3517  0.9599
16458TIP3    H149296   2.253   2.798   4.128 -0.8770  0.0317  0.8759
16458TIP3    H249297   2.240   2.711   4.005  1.2099  0.1832  0.5015
16459TIP3   OH249298   0.523   6.994   6.685  0.2905 -0.0864 -0.0761
16459TIP3    H149299   0.522   6.952   6.771 -0.6429  1.2888  0.6315
16459TIP3    H249300   0.506   6.923   6.623 -0.3850 -0.8878  0.9926
16460TIP3   OH249301   0.781   1.353   1.002 -0.2956 -0.0870  0.3736
16460TIP3    H149302   0.857   1.316   0.957 -0.9503 -0.3080 -0.5690
16460TIP3    H249303   0.762   1.290   1.072 -1.8241 -1.9907 -1.6339
16461TIP3   OH249304   2.325   7.166   5.907  0.2698  0.3694  0.7175
16461TIP3    H149305   2.338   7.256   5.878  2.0759  0.2527  1.0530
16461TIP3    H249306   2.315   7.172   6.002  1.6708  0.1287  0.8954
16462TIP3   OH249307   8.119   5.744   3.813  0.0723  0.0934  0.4299
16462TIP3    H149308   8.125   5.788   3.728 -2.3150 -0.0919  0.0887
16462TIP3    H249309   8.123   5.651   3.791  2.8285  0.0222  0.9231
16463TIP3   OH249310   0.398   3.964   0.563  0.1179 -0.3927 -0.3752
16463TIP3    H149311   0.466   3.896   0.555  1.4905  0.9320 -0.4115
16463TIP3    H249312   0.316   3.918   0.543  0.6563 -2.6094  1.9041
16464TIP3   OH249313   0.773   1.269   2.749  0.6041 -0.0472 -0.3013
16464TIP3    H149314   0.799   1.356   2.780  0.0062 -0.2876  0.9328
16464TIP3    H249315   0.852   1.234   2.708  0.8172  1.1233 -0.9442
16465TIP3   OH249316  -0.010   4.602   3.306  0.0974  0.1148 -0.4995
16465TIP3    H149317   0.057   4.657   3.265  0.0782  0.0410 -0.6318
16465TIP3    H249318   0.035   4.522   3.330  0.0449  0.0418 -0.6414
16466TIP3   OH249319   2.286   5.453   6.331  0.6513  0.0423 -0.1781
16466TIP3    H149320   2.354   5.508   6.292 -0.6040  1.7682 -0.0512
16466TIP3    H249321   2.275   5.489   6.419  0.2940 -0.8866  0.1582
16467TIP3   OH249322   3.642   2.742   3.689  0.3149  0.3010  0.6853
16467TIP3    H149323   3.703   2.699   3.749 -0.4168 -2.1852 -0.2312
16467TIP3    H249324   3.630   2.679   3.618 -3.0639  0.7953  0.6581
16468TIP3   OH249325   2.543   4.889   4.715 -0.7006  0.5494 -0.1119
16468TIP3    H149326   2.489   4.869   4.638 -0.8096 -1.1665  0.3723
16468TIP3    H249327   2.630   4.859   4.691 -0.5313  0.8748  0.0922
16469TIP3   OH249328   1.036   6.183   6.194  0.4129  0.0749  0.1056
16469TIP3    H149329   1.104   6.126   6.230 -0.2494  0.2136  1.6544
16469TIP3    H249330   1.072   6.271   6.202 -0.1324  0.1979  1.4366
16470TIP3   OH249331   2.816   0.202   3.063  0.3987  0.0766 -0.1574
16470TIP3    H149332   2.781   0.257   2.992  0.7632 -0.5152 -0.8032
16470TIP3    H249333   2.790   0.248   3.143 -2.7007 -0.7881 -0.5413
16471TIP3   OH249334   2.719   1.632   2.951 -0.0014  0.0633 -1.0445
16471TIP3    H149335   2.717   1.670   3.039 -0.9952 -0.4086 -0.8440
16471TIP3    H249336   2.804   1.657   2.915  0.2459  0.6052 -0.1004
16472TIP3   OH249337   0.270   4.267   5.525  0.1053  0.2706  0.1751
16472TIP3    H149338   0.207   4.335   5.545 -1.1117 -0.8052  0.1395
16472TIP3    H249339   0.289   4.278   5.431 -0.1969  0.4693  0.1367
16473TIP3   OH249340   5.998   0.007   2.846  0.5875 -0.2863  0.1003
16473TIP3    H149341   6.044   0.061   2.783 -0.3517 -0.4366 -0.7374
16473TIP3    H249342   5.906   0.014   2.821  0.0584  0.4991  2.0843
16474TIP3   OH249343   3.103   2.690   1.404 -1.0534  0.2936 -0.1816
16474TIP3    H149344   3.164   2.689   1.330 -0.8439  1.8023 -0.0574
16474TIP3    H249345   3.036   2.753   1.379 -0.1567  2.0255  1.5229
16475TIP3   OH249346   7.837   2.313   4.194  0.3154  0.0604  0.3334
16475TIP3    H149347   7.813   2.236   4.246  0.5927 -0.5193 -0.3801
16475TIP3    H249348   7.758   2.336   4.145  0.8912 -1.3331 -1.3716
16476TIP3   OH249349   8.081   4.405   5.305  0.0439 -0.2714  0.4535
16476TIP3    H149350   8.060   4.326   5.354 -0.5337 -0.8699 -0.7211
16476TIP3    H249351   8.141   4.453   5.362 -1.5779 -0.3146  2.2953
16477TIP3   OH249352   0.620   5.626   1.598 -0.5086  0.2770 -0.5531
16477TIP3    H149353   0.639   5.532   1.602 -0.8781  0.1847 -0.8590
16477TIP3    H249354   0.525   5.632   1.608 -0.3780  0.7044  0.5826
16478TIP3   OH249355   8.252   2.132   1.713  0.4031 -0.2934  0.3349
16478TIP3    H149356   8.218   2.052   1.753  0.6358 -0.8787 -0.5914
16478TIP3    H249357   8.314   2.100   1.646  1.6777  0.7038  1.0026
16479TIP3   OH249358   2.407   4.653   2.642 -0.1618 -0.6088 -0.0502
16479TIP3    H149359   2.394   4.566   2.680 -0.2957 -0.4381  0.2950
16479TIP3    H249360   2.500   4.657   2.621  0.3935  0.0907  2.2374
16480TIP3   OH249361   0.121   0.091   2.911  0.5617  0.1814 -0.0753
16480TIP3    H149362   0.173   0.011   2.918  0.5536  0.2015  0.2409
16480TIP3    H249363   0.186   0.162   2.915  0.5567  0.1938 -0.2156
16481TIP3   OH249364   2.639   0.274   1.913  0.0499  0.0164 -0.2528
16481TIP3    H149365   2.650   0.268   2.008  0.6797  0.7152 -0.2717
16481TIP3    H249366   2.726   0.257   1.878 -0.2453 -0.5586 -0.7327
16482TIP3   OH249367   0.146   3.162   1.548  0.2434  0.1716  0.0719
16482TIP3    H149368   0.239   3.141   1.540  0.0896 -0.8952  0.9064
16482TIP3    H249369   0.116   3.112   1.624 -1.0051  0.5289 -0.1595
16483TIP3   OH249370   5.164   3.935   2.464 -0.2994 -0.2660  0.1793
16483TIP3    H149371   5.152   3.854   2.513  0.5376  0.2678  1.2958
16483TIP3    H249372   5.078   3.953   2.425 -0.6394 -1.3635  0.4054
16484TIP3   OH249373   8.379   3.038   0.735 -0.0740 -0.3467 -0.6236
16484TIP3    H149374   8.403   2.969   0.796  2.0578  1.1753  0.3927
16484TIP3    H249375   8.289   3.061   0.759  0.4388 -0.3346  1.4554
16485TIP3   OH249376   7.382   1.825   4.284  0.1411 -0.5594 -0.1548
16485TIP3    H149377   7.336   1.882   4.345 -2.4756 -2.2380 -0.3977
16485TIP3    H249378   7.429   1.763   4.340 -0.2947 -0.6267  0.1428
16486TIP3   OH249379   7.164   5.171   1.057 -0.4495 -0.5071  0.1788
16486TIP3    H149380   7.154   5.232   1.130 -0.1097 -0.0596 -0.1364
16486TIP3    H249381   7.078   5.133   1.045 -0.1620 -1.7439  1.7913
16487TIP3   OH249382   5.662   1.424   7.054  0.2481 -0.3542  0.3947
16487TIP3    H149383   5.629   1.427   7.144 -0.7140 -0.4577  0.0529
16487TIP3    H249384   5.740   1.368   7.059  0.0395 -0.5917  1.1179
16488TIP3   OH249385   4.841   2.124   2.766  0.3950  0.2076  0.0183
16488TIP3    H149386   4.762   2.090   2.727  0.8532 -1.8937  0.7903
16488TIP3    H249387   4.830   2.219   2.765 -2.1191 -0.0346  0.1305
16489TIP3   OH249388   7.035   4.366   1.065  0.2414 -0.5114 -0.2731
16489TIP3    H149389   7.114   4.360   1.120  1.0918  3.5282 -0.7403
16489TIP3    H249390   7.056   4.313   0.988  2.0519 -0.4860  0.1379
16490TIP3   OH249391   5.184   1.251   0.448  0.2010  0.5120 -0.4593
16490TIP3    H149392   5.216   1.223   0.362 -0.2158 -1.9657  0.1230
16490TIP3    H249393   5.154   1.170   0.490 -0.2989  1.7671  1.7412
16491TIP3   OH249394   5.657   2.589   4.247 -0.2384 -0.0054 -0.2500
16491TIP3    H149395   5.724   2.654   4.271 -0.5589  3.0109 -5.8468
16491TIP3    H249396   5.576   2.622   4.286  0.2946  0.6199  0.3430
16492TIP3   OH249397   2.796   7.583   4.018 -0.5938 -0.5560 -0.2635
16492TIP3    H149398   2.829   7.565   3.930  0.8394  0.3022  0.0553
16492TIP3    H249399   2.701   7.589   4.008 -0.6401 -2.4280 -1.3742
16493TIP3   OH249400   7.256   7.417   6.044  0.1747 -0.2837 -0.0553
16493TIP3    H149401   7.266   7.390   6.135 -1.4946  2.1701  0.9639
16493TIP3    H249402   7.189   7.358   6.009  0.5323 -0.9821  0.4055
16494TIP3   OH249403   0.261   5.520   5.087  0.6444 -0.2529  0.1500
16494TIP3    H149404   0.165   5.514   5.087  0.5200  1.4307 -0.3924
16494TIP3    H249405   0.285   5.507   4.995  1.0895 -2.2724  0.5074
16495TIP3   OH249406   5.971   7.384   5.074 -0.1465 -0.1202  0.1619
16495TIP3    H149407   6.060   7.395   5.107 -0.5140  1.7328  0.6401
16495TIP3    H249408   5.949   7.469   5.034 -1.0707 -1.1061 -1.5616
16496TIP3   OH249409   1.421   4.746   5.539 -0.4515 -0.0468  0.5060
16496TIP3    H149410   1.364   4.818   5.514  0.8696  0.5928 -0.7420
16496TIP3    H249411   1.409   4.680   5.471  1.6669  0.8859 -0.8797
16497TIP3   OH249412   3.028   3.906   6.479  0.1540  0.6481 -0.3976
16497TIP3    H149413   3.118   3.898   6.445  1.0381 -0.1621  1.9731
16497TIP3    H249414   3.001   3.816   6.494 -1.5206  0.8169 -2.0521
16498TIP3   OH249415   2.909   3.931   2.773  0.0263  0.6281 -0.1697
16498TIP3    H149416   2.954   3.998   2.723  0.3896  0.0055 -0.7004
16498TIP3    H249417   2.964   3.916   2.850  1.1599 -0.6481 -1.1747
16499TIP3   OH249418   5.197   0.186   2.818 -0.2763 -0.3245 -0.5018
16499TIP3    H149419   5.179   0.127   2.891  1.6133 -0.9696 -0.5159
16499TIP3    H249420   5.232   0.129   2.750 -1.7333  0.3143 -1.8485
16500TIP3   OH249421   8.318   4.607   0.833  0.0368  0.3053 -0.1331
16500TIP3    H149422   8.354   4.641   0.751 -1.0038 -0.9339 -1.1596
16500TIP3    H249423   8.278   4.683   0.875 -0.5104  0.7481 -1.3937
16501TIP3   OH249424   4.323   5.188   5.920  0.5847  0.2601  0.5722
16501TIP3    H149425   4.289   5.274   5.944 -0.2125  0.0233  0.3180
16501TIP3    H249426   4.357   5.152   6.001  1.3787  1.0088  0.5871
16502TIP3   OH249427   8.017   8.073   4.775  0.3130  0.1813  0.3860
16502TIP3    H149428   8.093   8.049   4.828  0.8162  0.4905 -0.1747
16502TIP3    H249429   8.001   8.164   4.797  1.5716  0.8386 -1.1773
16503TIP3   OH249430   6.577   0.608   4.238  0.5181 -0.4237 -0.0484
16503TIP3    H149431   6.619   0.583   4.156  0.4905  1.9149 -0.8596
16503TIP3    H249432   6.650   0.622   4.299  0.7512  0.4657 -0.5059
16504TIP3   OH249433   4.571   7.615   1.052  0.7639  0.0677  0.5939
16504TIP3    H149434   4.593   7.699   1.092 -1.2016  0.7855  0.2829
16504TIP3    H249435   4.556   7.556   1.125 -2.2768  1.2256  1.0851
16505TIP3   OH249436   8.458   5.887   1.075 -0.0736 -0.7228  0.4143
16505TIP3    H149437   8.468   5.980   1.058 -1.1036 -1.0305 -2.4739
16505TIP3    H249438   8.544   5.850   1.055  0.1535 -0.4826  0.9351
16506TIP3   OH249439   1.245   6.802   3.427 -0.2246  0.2816  0.0992
16506TIP3    H149440   1.209   6.867   3.487 -1.0516 -2.5961  3.0403
16506TIP3    H249441   1.169   6.768   3.380  0.1165  0.9442 -0.9625
16507TIP3   OH249442   5.985   7.954   6.368 -0.2528  0.1999  0.6878
16507TIP3    H149443   6.002   7.885   6.432 -1.4975 -0.4509  0.3571
16507TIP3    H249444   5.890   7.968   6.373  0.0371  2.3240  1.1688
16508TIP3   OH249445   3.422   7.939   0.183 -0.5797  0.0930  0.0703
16508TIP3    H149446   3.497   7.998   0.197 -0.1589 -0.2424 -0.7262
16508TIP3    H249447   3.398   7.911   0.271  0.5111 -0.1235  0.3177
16509TIP3   OH249448   8.371   6.282   2.663 -0.0524  0.2333  0.0572
16509TIP3    H149449   8.420   6.285   2.581  1.8817  1.1326  1.1775
16509TIP3    H249450   8.416   6.215   2.715 -0.1742  0.8996  1.0322
16510TIP3   OH249451   2.978   1.753   6.481  0.6294  0.1322  0.5179
16510TIP3    H149452   2.926   1.716   6.409  0.6076  2.9013 -1.0248
16510TIP3    H249453   3.068   1.754   6.448  0.9340 -0.2967  1.3041
16511TIP3   OH249454   0.587   1.715   3.270 -0.3503  0.0114 -0.4603
16511TIP3    H149455   0.538   1.782   3.222  2.0823  2.2811  0.0318
16511TIP3    H249456   0.620   1.657   3.202 -0.1940  0.9225 -1.1817
16512TIP3   OH249457   0.522   0.728   6.414  0.4614 -0.2345 -0.2555
16512TIP3    H149458   0.463   0.801   6.431  1.7901  1.3284 -1.9183
16512TIP3    H249459   0.599   0.747   6.467  0.9218 -0.2746 -0.8995
16513TIP3   OH249460   0.332   2.398   0.674  0.0463 -0.5073  0.2182
16513TIP3    H149461   0.422   2.372   0.655 -0.2954 -0.6885 -1.3085
16513TIP3    H249462   0.314   2.468   0.611 -1.6213 -2.0737 -1.1675
16514TIP3   OH249463   7.238   2.825   2.870  0.4747 -0.4614  0.1869
16514TIP3    H149464   7.254   2.918   2.859  0.7374 -0.6557 -1.3407
16514TIP3    H249465   7.318   2.792   2.912  0.9706 -0.2150 -0.5465
16515TIP3   OH249466   4.733   5.193   3.676 -0.1648 -0.0444 -0.1190
16515TIP3    H149467   4.780   5.116   3.643 -0.5661 -0.4532  0.2555
16515TIP3    H249468   4.675   5.159   3.743 -1.4399  0.3516 -0.9800
16516TIP3   OH249469   3.817   3.458   2.498 -0.3910  0.1101 -0.3442
16516TIP3    H149470   3.889   3.515   2.527 -0.7665  0.6351 -0.4174
16516TIP3    H249471   3.848   3.420   2.416 -0.9631  1.9484 -1.4956
16517TIP3   OH249472   4.310   2.847   2.340 -0.3541  0.5922  0.3740
16517TIP3    H149473   4.364   2.915   2.382 -0.4148  1.6336 -1.1660
16517TIP3    H249474   4.309   2.871   2.247  0.4467 -2.0768 -0.4033
16518TIP3   OH249475   4.853   6.139   6.305  0.0899  0.3276  0.3025
16518TIP3    H149476   4.887   6.082   6.237  1.2850  3.9142 -2.4247
16518TIP3    H249477   4.764   6.162   6.275 -0.4382 -0.1622  1.4291
16519TIP3   OH249478   5.862   1.773   3.874  0.0056 -0.3194  0.1115
16519TIP3    H149479   5.941   1.798   3.826 -0.3126  0.1804 -0.1573
16519TIP3    H249480   5.872   1.816   3.959 -0.1348  0.0201 -0.0426
16520TIP3   OH249481   8.647   6.283   7.093 -0.7732 -0.9070 -0.2853
16520TIP3    H149482   8.660   6.307   7.002 -0.9603 -0.2612 -0.1532
16520TIP3    H249483   8.687   6.197   7.102 -0.7390 -0.9654 -0.9691
16521TIP3   OH249484   0.136   3.348   3.996  0.2664 -0.0603 -0.3200
16521TIP3    H149485   0.126   3.352   4.091 -1.3739 -2.1712 -0.3324
16521TIP3    H249486   0.121   3.257   3.974  0.9895  0.3110 -2.5965
16522TIP3   OH249487   6.803   0.928   4.329 -0.2051 -0.2760 -0.2506
16522TIP3    H149488   6.772   0.839   4.339  2.5117 -1.2419  0.4930
16522TIP3    H249489   6.848   0.948   4.411  1.4532  0.7692 -1.3217
16523TIP3   OH249490   1.338   7.906   3.154 -0.3975  0.3620 -0.1050
16523TIP3    H149491   1.300   7.983   3.113 -0.3019  0.1227 -0.6521
16523TIP3    H249492   1.331   7.923   3.248 -0.4202  1.0100 -0.2197
16524TIP3   OH249493   3.670   7.480   7.010  0.2065  0.0406 -0.2608
16524TIP3    H149494   3.757   7.441   6.999 -0.1949 -0.3357 -2.6972
16524TIP3    H249495   3.612   7.406   7.025  0.3050  0.3134  1.6095
16525TIP3   OH249496   5.459   7.733   5.202  0.1209 -0.0554 -0.6612
16525TIP3    H149497   5.442   7.645   5.236  1.4448 -0.8413 -1.9250
16525TIP3    H249498   5.375   7.761   5.167 -0.2102 -1.0248 -0.6826
16526TIP3   OH249499   4.870   3.587   3.246  0.2527 -0.0329  0.0328
16526TIP3    H149500   4.898   3.543   3.166 -0.0139 -2.9783  1.4530
16526TIP3    H249501   4.776   3.599   3.235  0.4615  1.1136 -0.7330
16527TIP3   OH249502   4.141   4.317   1.677 -0.1540  0.0477 -0.4858
16527TIP3    H149503   4.076   4.304   1.746 -0.2780  0.4780 -0.5151
16527TIP3    H249504   4.109   4.265   1.604 -1.2964  1.4560 -1.0243
16528TIP3   OH249505   1.685   2.671   6.571 -0.1291  0.5252  0.1518
16528TIP3    H149506   1.648   2.597   6.522 -1.3314  2.1736 -1.5613
16528TIP3    H249507   1.751   2.708   6.513 -0.3168  1.4643  0.5219
16529TIP3   OH249508   2.420   4.435   4.907  0.5947  0.0649 -0.2292
16529TIP3    H149509   2.424   4.530   4.918 -1.6507 -0.0249  2.4257
16529TIP3    H249510   2.508   4.404   4.932  1.7397  1.4237 -2.2747
16530TIP3   OH249511   3.274   6.202   4.625  0.2904  0.2664  0.0387
16530TIP3    H149512   3.299   6.119   4.665 -0.7846  0.6271  1.5368
16530TIP3    H249513   3.200   6.180   4.568 -0.7482  0.3390  1.3168
16531TIP3   OH249514   4.316   3.098   0.285  0.1545  0.0329  0.3342
16531TIP3    H149515   4.323   3.176   0.228 -1.7477 -0.7437 -1.0722
16531TIP3    H249516   4.351   3.027   0.231 -0.7928 -0.5528  0.4742
16532TIP3   OH249517   0.092   5.619   0.210  0.1481 -0.2727  0.6685
16532TIP3    H149518   0.006   5.577   0.214 -0.3978  0.8936  2.6221
16532TIP3    H249519   0.075   5.705   0.172  0.1948  0.3928  2.0575
16533TIP3   OH249520   7.863   6.812   2.287  0.3330  0.3059  0.4035
16533TIP3    H149521   7.856   6.887   2.227  1.6187  0.5501  0.5435
16533TIP3    H249522   7.772   6.793   2.310 -0.3319 -0.3762 -2.3329
16534TIP3   OH249523   7.867   5.993   5.760 -0.1061  0.4277 -0.7587
16534TIP3    H149524   7.922   6.043   5.820 -1.7289 -1.0041  2.1664
16534TIP3    H249525   7.814   6.059   5.715 -0.4391  1.5263  1.1387
16535TIP3   OH249526   4.168   8.028   0.261  0.3271  0.1681  0.0293
16535TIP3    H149527   4.124   8.017   0.176 -0.1341 -0.1516  0.3037
16535TIP3    H249528   4.220   7.948   0.271  0.6099  0.3379 -0.0849
16536TIP3   OH249529   7.107   0.159   6.734  0.2740  0.2274  0.2575
16536TIP3    H149530   7.037   0.094   6.729 -1.4384  2.1113 -2.2161
16536TIP3    H249531   7.096   0.199   6.820 -0.6377 -0.5935  0.5489
16537TIP3   OH249532   7.573   5.396   5.111  0.8666  0.1534  0.3359
16537TIP3    H149533   7.545   5.318   5.062 -1.3436  2.1593 -1.8477
16537TIP3    H249534   7.535   5.384   5.198 -1.1257 -0.3676 -0.5491
16538TIP3   OH249535   2.601   5.922   0.630 -0.0568 -0.6218  0.5247
16538TIP3    H149536   2.527   5.862   0.627  1.5015 -2.6757  1.0211
16538TIP3    H249537   2.675   5.871   0.597  0.6365  2.3278 -3.1716
16539TIP3   OH249538   2.781   5.116   1.397  0.1489 -0.2956 -0.1497
16539TIP3    H149539   2.869   5.092   1.425  0.2484 -0.0176 -0.2202
16539TIP3    H249540   2.754   5.044   1.339  0.9122  0.3225 -1.3159
16540TIP3   OH249541   1.821   6.453   2.615 -0.0435 -0.0641 -0.0711
16540TIP3    H149542   1.866   6.475   2.696 -0.9327 -1.1846  0.7565
16540TIP3    H249543   1.749   6.395   2.641  0.6077 -1.8133 -1.8003
16541TIP3   OH249544   7.127   4.402   5.251  0.1308 -0.5229  0.0123
16541TIP3    H149545   7.187   4.328   5.262 -0.2360 -0.7487  0.5362
16541TIP3    H249546   7.157   4.467   5.315 -0.0841 -0.5719  0.1634
16542TIP3   OH249547   1.093   1.948   0.780 -0.0642 -0.5400 -0.0877
16542TIP3    H149548   1.146   2.027   0.786 -1.1943  0.2016  0.4364
16542TIP3    H249549   1.084   1.918   0.871 -1.6191  0.0927 -0.0118
16543TIP3   OH249550   4.189   6.019   4.593  0.2856 -0.1740 -0.1776
16543TIP3    H149551   4.197   6.100   4.542  1.8897 -0.4723 -0.4461
16543TIP3    H249552   4.186   5.949   4.527  1.7858 -0.5170  0.0730
16544TIP3   OH249553   3.227   2.855   3.524  0.2344 -0.2230 -0.1250
16544TIP3    H149554   3.270   2.820   3.602  1.1258  0.9891 -0.0507
16544TIP3    H249555   3.282   2.928   3.496 -1.6937  1.3401 -0.0970
16545TIP3   OH249556   7.858   6.586   6.040 -0.1813  0.0978  0.2775
16545TIP3    H149557   7.893   6.675   6.032  0.4378 -0.1306  0.4256
16545TIP3    H249558   7.931   6.529   6.017 -0.7267 -0.3678 -0.3293
16546TIP3   OH249559   0.488   0.061   0.012  0.4972 -0.7652  0.3440
16546TIP3    H149560   0.546  -0.013   0.031  0.5884 -0.3455  1.7718
16546TIP3    H249561   0.542   0.121  -0.040  0.8692 -1.0456  0.4024
16547TIP3   OH249562   7.327   1.320   2.760 -0.0593 -0.2737  0.6588
16547TIP3    H149563   7.366   1.246   2.714 -0.1021 -0.8996  1.6079
16547TIP3    H249564   7.249   1.342   2.709 -1.0396 -2.0314  1.3223
16548TIP3   OH249565   2.847   1.732   2.663  0.1802 -0.2674  0.5419
16548TIP3    H149566   2.835   1.688   2.579  0.2126 -0.4345  0.6233
16548TIP3    H249567   2.762   1.725   2.706  0.0523  0.1673  0.3585
16549TIP3   OH249568   0.804   3.946   5.436 -0.1749  0.3975 -0.1214
16549TIP3    H149569   0.744   4.018   5.452 -0.9704  0.1837 -1.9352
16549TIP3    H249570   0.764   3.871   5.480 -0.9247  0.3956 -0.7960
16550TIP3   OH249571   6.673   2.008   3.234 -0.1512 -0.0843 -0.4621
16550TIP3    H149572   6.692   1.944   3.302  2.4289 -0.4576 -1.4189
16550TIP3    H249573   6.725   2.085   3.257  1.0575 -0.3437 -2.1296
16551TIP3   OH249574   0.090   5.885   6.828  0.2159 -0.4972 -0.1332
16551TIP3    H149575   0.013   5.885   6.885  0.3614 -0.5492  0.0637
16551TIP3    H249576   0.084   5.967   6.779  0.6959  0.0816  0.7697
16552TIP3   OH249577   4.994   5.548   1.863 -0.6713  0.3720  0.8126
16552TIP3    H149578   4.995   5.610   1.936 -2.3198 -0.0786  1.2636
16552TIP3    H249579   5.031   5.468   1.899 -1.9696 -0.0149  1.3579
16553TIP3   OH249580   6.910   0.719   1.555  0.8148 -0.4266 -0.0673
16553TIP3    H149581   6.844   0.688   1.618  0.5076 -0.7555 -0.5443
16553TIP3    H249582   6.858   0.758   1.484  1.1766  1.6083  0.6978
16554TIP3   OH249583   8.037   2.806   1.988  0.1104  0.0512 -0.2218
16554TIP3    H149584   8.058   2.713   1.996 -0.0876 -0.3661 -3.2942
16554TIP3    H249585   8.090   2.837   1.915 -0.5904  2.1416  0.0671
16555TIP3   OH249586   3.105   3.157   5.734 -0.4443  0.0098  0.3717
16555TIP3    H149587   3.173   3.210   5.691 -0.9892  0.7025  0.3514
16555TIP3    H249588   3.135   3.150   5.824 -0.6731  0.8739  0.5195
16556TIP3   OH249589   0.336   3.120   2.996 -0.5789 -0.2566  0.0020
16556TIP3    H149590   0.400   3.137   2.926 -0.0988 -2.4098 -0.1340
16556TIP3    H249591   0.376   3.053   3.050 -2.0724 -0.5327  0.8233
16557TIP3   OH249592   0.899   4.172   3.404  0.6499 -0.2795 -0.3083
16557TIP3    H149593   0.884   4.160   3.310  1.6197  0.4193 -0.5657
16557TIP3    H249594   0.909   4.267   3.415 -0.6923 -0.2141  0.7087
16558TIP3   OH249595   2.727   3.387   2.493 -0.0947 -0.1387 -0.7232
16558TIP3    H149596   2.698   3.343   2.573 -0.9192  0.6704 -0.5577
16558TIP3    H249597   2.821   3.370   2.489 -0.2435 -1.1213 -0.1792
16559TIP3   OH249598   3.513   0.071   1.900 -1.1292  0.2406 -0.1037
16559TIP3    H149599   3.556   0.139   1.848  1.4635 -0.2332  1.2475
16559TIP3    H249600   3.460   0.119   1.963 -2.5070  0.8481 -1.6379
16560TIP3   OH249601   3.252   1.735   6.529 -0.4511 -0.5508 -0.0247
16560TIP3    H149602   3.277   1.651   6.567 -0.1183 -0.7711 -0.7254
16560TIP3    H249603   3.255   1.722   6.435  1.1250  0.6636 -0.1827
16561TIP3   OH249604   1.135   1.708   4.919  0.2265 -0.2561  0.0776
16561TIP3    H149605   1.162   1.752   4.838  0.6340  1.5754  1.1662
16561TIP3    H249606   1.214   1.663   4.949 -0.0232 -1.2639 -0.6973
16562TIP3   OH249607   3.346   3.938   5.089 -0.3121 -0.2381 -0.0217
16562TIP3    H149608   3.429   3.900   5.118 -0.0594 -0.6760 -1.2521
16562TIP3    H249609   3.300   3.866   5.046 -0.0655  0.6534 -1.9050
16563TIP3   OH249610   6.870   4.042   0.783  0.6431 -0.4346 -0.3635
16563TIP3    H149611   6.817   3.996   0.848  0.6201 -0.1884 -0.2041
16563TIP3    H249612   6.807   4.075   0.720  0.5521  0.2917  0.0977
16564TIP3   OH249613   7.327   2.920   6.827  0.0095 -0.2246  0.2174
16564TIP3    H149614   7.337   2.991   6.891 -0.5767  1.8869 -1.8914
16564TIP3    H249615   7.233   2.916   6.811  0.0752 -1.2954  0.0650
16565TIP3   OH249616   7.446   4.374   3.471 -0.5694 -0.0373  0.1839
16565TIP3    H149617   7.365   4.363   3.421  0.4114  0.2006 -1.5230
16565TIP3    H249618   7.515   4.384   3.405  0.8897 -0.3595  1.5826
16566TIP3   OH249619   7.035   2.379   0.189 -0.1700 -0.0606 -0.6888
16566TIP3    H149620   7.111   2.337   0.149 -0.0874  1.2285 -1.9607
16566TIP3    H249621   6.963   2.318   0.174  0.4581 -1.0016 -0.0286
16567TIP3   OH249622   4.500   2.309   2.079 -0.6658  0.1313 -0.3268
16567TIP3    H149623   4.429   2.314   2.015  0.2879 -0.6104 -1.4861
16567TIP3    H249624   4.487   2.224   2.122 -0.1159 -0.2935 -0.9920
16568TIP3   OH249625   8.507   5.534   0.251 -0.7514  0.1952  0.3947
16568TIP3    H149626   8.470   5.448   0.235 -1.2535  0.6100 -0.7612
16568TIP3    H249627   8.435   5.595   0.235 -0.5936  0.8035  1.8755
16569TIP3   OH249628   1.581   6.025   5.052  0.4360 -0.0837 -0.2759
16569TIP3    H149629   1.668   5.986   5.043  0.2750 -0.3574 -0.6451
16569TIP3    H249630   1.578   6.053   5.143  0.1324 -1.9647  0.3392
16570TIP3   OH249631   0.290   2.345   3.102  0.0876  0.5095 -0.2303
16570TIP3    H149632   0.379   2.313   3.092 -0.0295  0.6061 -1.8847
16570TIP3    H249633   0.255   2.299   3.178  0.2878 -2.4748 -1.8000
16571TIP3   OH249634   7.011   5.668   0.275  0.1836 -0.0951 -0.2336
16571TIP3    H149635   6.948   5.604   0.243  0.1367 -0.3688  0.3915
16571TIP3    H249636   6.972   5.702   0.356  1.7885 -1.8343  1.3742
16572TIP3   OH249637   0.926   5.348   0.952 -1.1425  0.9216  0.0724
16572TIP3    H149638   0.839   5.310   0.960 -0.4328 -1.0281 -0.6802
16572TIP3    H249639   0.964   5.341   1.039 -1.4417  1.0047  0.2104
16573TIP3   OH249640   5.387   5.265   6.102  0.1213  0.0620 -0.0993
16573TIP3    H149641   5.347   5.276   6.016  0.6067 -1.0365 -0.4871
16573TIP3    H249642   5.336   5.321   6.160 -0.6168  0.3199 -0.9819
16574TIP3   OH249643   8.594   5.716   2.359  0.1226  0.5805 -0.2451
16574TIP3    H149644   8.542   5.698   2.438  0.4920  0.1509 -0.0928
16574TIP3    H249645   8.682   5.684   2.381 -0.0016 -0.4607 -1.1951
16575TIP3   OH249646   3.921   0.273   2.631  0.3111 -0.6796 -0.0008
16575TIP3    H149647   3.882   0.214   2.696  0.1942 -0.2980  0.2783
16575TIP3    H249648   3.992   0.316   2.677 -1.9662  2.3012  1.0587
16576TIP3   OH249649   2.634   2.411   6.250  0.3236  0.0397 -0.0816
16576TIP3    H149650   2.624   2.317   6.235  0.9933 -0.2197  1.0074
16576TIP3    H249651   2.552   2.450   6.218 -0.3517 -1.0093  0.3443
16577TIP3   OH249652   2.531   1.448   4.508 -0.3630 -0.1744 -0.2074
16577TIP3    H149653   2.564   1.522   4.559  0.8331 -1.1366  0.4501
16577TIP3    H249654   2.438   1.444   4.530  0.1690 -0.7361  2.1711
16578TIP3   OH249655   0.912   3.223   0.331  0.6195  0.5719  0.2626
16578TIP3    H149656   0.837   3.269   0.368  1.6699  1.8202  0.8922
16578TIP3    H249657   0.954   3.287   0.273  1.5223  0.0815  0.3551
16579TIP3   OH249658   0.141   0.927   6.601 -0.7932  0.0236  0.0779
16579TIP3    H149659   0.104   0.870   6.534  0.9013 -0.3099 -0.6307
16579TIP3    H249660   0.146   0.872   6.679  2.0111 -1.3588 -0.9186
16580TIP3   OH249661   5.935   6.943   3.490 -0.5083  0.0993  0.1627
16580TIP3    H149662   5.898   7.028   3.467  2.0476  0.8976 -1.4392
16580TIP3    H249663   6.027   6.960   3.509 -0.0787 -2.2061  0.5507
16581TIP3   OH249664   1.005   0.429   2.268 -0.0215  0.3238  0.6276
16581TIP3    H149665   1.060   0.354   2.292 -0.3226  0.2726  1.1649
16581TIP3    H249666   1.023   0.495   2.335 -1.8664 -0.3081  1.8098
16582TIP3   OH249667   4.219   2.196   1.258  0.4661  0.5954 -0.3495
16582TIP3    H149668   4.127   2.222   1.246 -0.0134 -0.1628  1.3564
16582TIP3    H249669   4.269   2.264   1.214 -0.8807  1.6680 -0.3050
16583TIP3   OH249670   0.311   5.044   1.478 -0.3051  0.4674 -0.0043
16583TIP3    H149671   0.250   4.988   1.526  1.5593  0.6856  2.8374
16583TIP3    H249672   0.347   5.103   1.544  2.7276  0.5699 -1.5740
16584TIP3   OH249673   0.986   5.248   5.910  0.1326  0.1467  0.2551
16584TIP3    H149674   1.003   5.204   5.827  1.7333 -1.2342  1.2601
16584TIP3    H249675   0.993   5.179   5.976 -1.7851  1.0710  1.5088
16585TIP3   OH249676   5.724   8.038   0.277 -0.0546  0.3135 -0.1825
16585TIP3    H149677   5.716   8.082   0.193  0.8780  1.0597  0.0928
16585TIP3    H249678   5.636   8.009   0.298 -0.3184  0.2254 -1.3561
16586TIP3   OH249679   3.706   3.353   1.601  0.8118 -0.5032 -0.0648
16586TIP3    H149680   3.801   3.361   1.605  0.7871  1.4940 -1.7300
16586TIP3    H249681   3.686   3.343   1.508 -0.6196 -1.2353  0.2779
16587TIP3   OH249682   4.579   4.703   6.863  0.4444  0.2274 -0.5969
16587TIP3    H149683   4.602   4.796   6.862 -0.4922  0.4787 -2.2539
16587TIP3    H249684   4.613   4.671   6.946  0.8570  2.0347 -0.0231
16588TIP3   OH249685   0.287   3.674   1.519  0.2316 -0.1341  0.2652
16588TIP3    H149686   0.251   3.586   1.514 -1.9686  0.7778 -2.1722
16588TIP3    H249687   0.381   3.661   1.536  0.8173 -3.1945 -3.8560
16589TIP3   OH249688   3.094   0.388   0.360  0.3932  0.2340 -0.2285
16589TIP3    H149689   3.178   0.399   0.403  1.4572  1.0057 -2.3786
16589TIP3    H249690   3.047   0.470   0.376 -0.7563 -0.8142  2.4203
16590TIP3   OH249691   1.359   3.860   2.149 -0.1927 -0.0322 -0.0538
16590TIP3    H149692   1.322   3.901   2.071 -1.6408  0.0607  0.6471
16590TIP3    H249693   1.395   3.777   2.118  1.9936  1.2863 -1.3309
16591TIP3   OH249694   6.469   4.318   5.083 -0.1236  0.2264  0.0002
16591TIP3    H149695   6.540   4.366   5.125  0.3512  0.1496 -0.6941
16591TIP3    H249696   6.470   4.232   5.125  1.2835 -0.3458 -1.1032
16592TIP3   OH249697   4.665   3.725   4.647 -0.2055  0.3308  0.2340
16592TIP3    H149698   4.651   3.634   4.621  2.6194  0.5384 -2.6534
16592TIP3    H249699   4.587   3.772   4.617 -0.3868 -0.7087 -0.9809
16593TIP3   OH249700   0.970   1.913   3.766 -0.1316  0.1476 -0.0248
16593TIP3    H149701   0.907   1.845   3.788  2.4061 -1.9565  1.2433
16593TIP3    H249702   0.948   1.986   3.824 -0.2448 -1.2772  1.8264
16594TIP3   OH249703   1.203   7.354   5.519 -0.4385  0.2930  0.0131
16594TIP3    H149704   1.236   7.265   5.513  1.0183  0.9055 -2.5301
16594TIP3    H249705   1.282   7.407   5.532 -1.1211  1.3346  0.0320
16595TIP3   OH249706   2.795   0.669   1.257 -0.0077 -0.1108 -0.5377
16595TIP3    H149707   2.882   0.639   1.231  0.2890  0.2229  0.0595
16595TIP3    H249708   2.804   0.693   1.349 -0.9029 -0.7150 -0.2836
16596TIP3   OH249709   7.142   1.853   5.755 -0.5879  0.0004  0.2801
16596TIP3    H149710   7.125   1.853   5.661 -0.1823 -1.5341  0.1865
16596TIP3    H249711   7.236   1.834   5.763 -0.3765  1.1762  0.9920
16597TIP3   OH249712   1.283   7.124   4.224  0.0698  0.7111 -0.1232
16597TIP3    H149713   1.284   7.216   4.196 -2.6499  1.2200  1.0817
16597TIP3    H249714   1.293   7.128   4.320  1.4889 -0.4071 -0.1876
16598TIP3   OH249715   5.475   0.409   6.101  0.0972  0.1107 -0.1524
16598TIP3    H149716   5.412   0.441   6.036  1.6372  0.5210 -1.4932
16598TIP3    H249717   5.450   0.454   6.182 -0.2948  1.5865 -1.0525
16599TIP3   OH249718   1.992   2.754   1.003  0.5398 -0.3193 -0.1131
16599TIP3    H149719   2.074   2.715   0.972  0.3944  0.3491 -1.4163
16599TIP3    H249720   1.991   2.841   0.964 -1.2192 -0.6367 -0.8739
16600TIP3   OH249721   0.892   4.238   6.443  0.4331  0.4214 -0.4552
16600TIP3    H149722   0.854   4.316   6.403 -0.0852 -0.2473 -1.3317
16600TIP3    H249723   0.849   4.231   6.528  1.4437  1.7897  0.1925
16601TIP3   OH249724   2.096   0.074   0.594  0.2296 -0.2944 -0.2308
16601TIP3    H149725   2.128   0.158   0.626 -0.3343 -0.4364  0.7677
16601TIP3    H249726   2.101   0.016   0.671 -1.6927 -0.5124 -0.2255
16602TIP3   OH249727   0.546   0.150   7.098  0.1294 -0.4141 -0.8604
16602TIP3    H149728   0.613   0.172   7.163 -1.6925  0.6926  0.7178
16602TIP3    H249729   0.570   0.202   7.021 -1.6500  4.2197  1.3484
16603TIP3   OH249730   4.883   6.059   0.940  0.9278  0.0885 -0.6952
16603TIP3    H149731   4.926   6.049   1.024 -5.4984  0.6004  3.3674
16603TIP3    H249732   4.895   6.152   0.918 -0.3952  1.0098  2.0020
16604TIP3   OH249733   3.445   5.085   0.855  0.2300  0.0112 -0.4093
16604TIP3    H149734   3.377   5.104   0.791 -2.3799  0.5691  2.3347
16604TIP3    H249735   3.475   5.171   0.885 -1.2067 -0.1164  1.6158
16605TIP3   OH249736   7.509   1.200   3.451 -0.4395  0.5657  0.1087
16605TIP3    H149737   7.584   1.195   3.392  0.4465 -2.5680  1.3002
16605TIP3    H249738   7.432   1.192   3.394  0.1799  1.8375 -0.9444
16606TIP3   OH249739   3.321   6.086   0.078 -0.5204  0.3399  0.4915
16606TIP3    H149740   3.395   6.110   0.133  0.5375 -2.8911  0.7122
16606TIP3    H249741   3.266   6.031   0.134 -0.2113 -1.7563 -1.1344
16607TIP3   OH249742   6.068   4.391   3.954 -0.2228 -0.4700  0.4558
16607TIP3    H149743   6.061   4.296   3.947  0.9618 -0.5816  0.6047
16607TIP3    H249744   6.115   4.418   3.875 -1.0465  0.0771  0.1261
16608TIP3   OH249745   8.134   3.749   0.016 -0.3037  0.6211  0.0282
16608TIP3    H149746   8.192   3.698  -0.041  0.1131  0.5149  0.5387
16608TIP3    H249747   8.057   3.693   0.027 -0.3692  0.6225 -0.3854
16609TIP3   OH249748   8.217   7.616   4.183 -0.1772 -0.2028 -0.1357
16609TIP3    H149749   8.129   7.651   4.175 -0.8840 -1.5712  1.0937
16609TIP3    H249750   8.239   7.584   4.095 -1.2102 -0.5275 -0.2817
16610TIP3   OH249751   8.542   3.051   3.069  0.0024  0.2464 -0.1057
16610TIP3    H149752   8.527   3.011   3.155 -0.1939 -0.3371 -0.4097
16610TIP3    H249753   8.637   3.065   3.066 -0.2583  2.9013  1.3501
16611TIP3   OH249754   1.043   7.312   0.480 -0.4502  0.3021  0.1782
16611TIP3    H149755   1.012   7.281   0.565 -0.0408 -0.4505  0.0606
16611TIP3    H249756   1.138   7.315   0.488 -0.0174 -3.3849 -1.3406
16612TIP3   OH249757   5.497   4.439   3.983  0.4923  0.6391 -0.8151
16612TIP3    H149758   5.530   4.394   3.905  0.4960  0.6754 -0.8346
16612TIP3    H249759   5.404   4.419   3.985  0.4661  0.7567 -0.9076
16613TIP3   OH249760   7.387   0.458   4.738  0.1255  0.2188 -0.0118
16613TIP3    H149761   7.372   0.443   4.831 -0.8084  0.8885 -0.0469
16613TIP3    H249762   7.405   0.551   4.730  1.0396  0.0312 -0.4172
16614TIP3   OH249763   1.849   3.116   0.683  0.4176  0.1004 -0.0193
16614TIP3    H149764   1.796   3.119   0.604  1.6104  2.8223 -0.8499
16614TIP3    H249765   1.937   3.094   0.652  0.6170 -0.2070  0.7420
16615TIP3   OH249766   8.458   6.398   5.373 -0.4428  0.3116  0.1364
16615TIP3    H149767   8.441   6.371   5.282 -1.4948  0.6821  0.2066
16615TIP3    H249768   8.461   6.494   5.369  2.0679  0.2838  0.0859
16616TIP3   OH249769   8.653   2.933   4.424  0.4142 -0.3771  0.1008
16616TIP3    H149770   8.705   2.883   4.487 -1.7069 -0.1195  2.1934
16616TIP3    H249771   8.606   2.866   4.374  1.7754 -0.5746 -0.9440
16617TIP3   OH249772   4.296   3.137   5.004 -0.0456 -0.4933  0.5503
16617TIP3    H149773   4.234   3.208   5.023  0.9749  0.7010 -0.4929
16617TIP3    H249774   4.378   3.166   5.043  0.2246 -1.4194  0.6890
16618TIP3   OH249775   0.684   3.402   3.631  0.3259 -0.1606 -0.0974
16618TIP3    H149776   0.708   3.493   3.615  0.7293 -0.1564  0.4805
16618TIP3    H249777   0.589   3.404   3.641 -0.0293 -0.2403 -2.8034
16619TIP3   OH249778   6.184   1.947   3.204 -0.2997 -0.3776  0.2649
16619TIP3    H149779   6.276   1.959   3.184 -0.2236  1.0761  1.3290
16619TIP3    H249780   6.155   2.033   3.236 -2.7080  0.0644 -2.6111
16620TIP3   OH249781   1.053   7.793   4.283  0.3030 -0.2546 -0.0851
16620TIP3    H149782   1.008   7.862   4.332  0.6203 -0.3160  0.2986
16620TIP3    H249783   1.000   7.781   4.204  0.0264  0.1497  0.0358
16621TIP3   OH249784   2.086   4.441   4.380 -0.1606  0.3538  0.8619
16621TIP3    H149785   2.119   4.372   4.438 -0.7045  0.9052  1.8470
16621TIP3    H249786   2.006   4.405   4.342  1.3215 -0.8868 -1.3312
16622TIP3   OH249787   1.575   2.607   0.096  0.0600 -0.3177  0.7047
16622TIP3    H149788   1.562   2.698   0.067 -0.0856 -0.4814  0.2390
16622TIP3    H249789   1.640   2.572   0.034  1.4392 -0.0322  1.9281
16623TIP3   OH249790   7.666   2.144   6.748 -0.4180 -0.0387 -0.3442
16623TIP3    H149791   7.743   2.190   6.714 -0.6393 -0.1189 -0.9763
16623TIP3    H249792   7.695   2.108   6.832 -0.1142  0.8962 -0.0273
16624TIP3   OH249793   4.920   5.438   2.403  0.5329 -0.0546  0.5416
16624TIP3    H149794   4.894   5.484   2.323  2.4774 -0.4747 -0.4076
16624TIP3    H249795   4.854   5.370   2.415  0.2213  0.0031 -0.7347
16625TIP3   OH249796   0.864   1.913   3.502 -0.2471  0.0781  0.0988
16625TIP3    H149797   0.898   1.900   3.591 -0.0658  0.5626  0.1050
16625TIP3    H249798   0.875   2.006   3.486 -1.1278  0.1537 -0.0928
16626TIP3   OH249799   1.789   6.316   3.967  0.1116 -0.2836  0.0840
16626TIP3    H149800   1.800   6.406   3.998 -0.3600  0.0158 -0.5790
16626TIP3    H249801   1.878   6.284   3.952  0.4584 -0.9421  3.0244
16627TIP3   OH249802   0.095   0.071   6.407 -0.2311 -0.1719 -0.3466
16627TIP3    H149803   0.157   0.025   6.351 -0.9373  1.3885 -2.5385
16627TIP3    H249804   0.028   0.006   6.428  0.0303 -0.7963 -1.3829
16628TIP3   OH249805   0.837   1.009   3.827 -0.1784  0.3142 -0.2025
16628TIP3    H149806   0.792   1.077   3.778 -1.8444 -0.6877 -0.1262
16628TIP3    H249807   0.809   0.927   3.786 -0.5778 -0.4777  1.5616
16629TIP3   OH249808   8.536   4.143   4.460 -0.5317 -0.4669  0.2579
16629TIP3    H149809   8.519   4.161   4.368 -0.3835 -1.5610  0.0077
16629TIP3    H249810   8.597   4.212   4.487  1.0756 -1.3043 -1.0269
16630TIP3   OH249811   0.796   7.572   6.389 -0.0820 -0.1702 -0.2322
16630TIP3    H149812   0.830   7.493   6.346  1.5641 -0.6537  1.8016
16630TIP3    H249813   0.735   7.538   6.455  1.3896  0.1191  1.3397
16631TIP3   OH249814   1.143   1.905   1.370 -0.5769 -0.0600  0.0173
16631TIP3    H149815   1.188   1.832   1.328  1.6625  1.3317 -0.1152
16631TIP3    H249816   1.196   1.925   1.447 -0.4593  2.1529 -0.5804
16632TIP3   OH249817   3.884   3.473   5.891  0.3648 -0.9196  0.4133
16632TIP3    H149818   3.912   3.439   5.806  0.2686 -0.1263  0.0619
16632TIP3    H249819   3.889   3.397   5.950  0.8353 -1.3701 -0.2013
16633TIP3   OH249820   4.575   4.797   4.451 -0.2884  0.3466  0.0516
16633TIP3    H149821   4.646   4.733   4.458  0.4053  0.8513 -1.7436
16633TIP3    H249822   4.526   4.787   4.532  0.1836 -1.9911  0.1305
16634TIP3   OH249823   5.816   1.298   3.800 -0.0216 -0.5537  0.0813
16634TIP3    H149824   5.745   1.239   3.826 -0.1631 -0.4209  0.0025
16634TIP3    H249825   5.853   1.257   3.721 -1.1411  0.2517 -0.9049
16635TIP3   OH249826   0.588   0.286   5.003  0.6531  0.2248 -0.0382
16635TIP3    H149827   0.641   0.272   4.925 -0.3325  0.1197 -0.7072
16635TIP3    H249828   0.518   0.346   4.974 -0.9902 -1.5066  0.1622
16636TIP3   OH249829   6.655   2.268   7.041  0.0075  0.3065  0.3437
16636TIP3    H149830   6.579   2.301   7.089 -1.2893 -1.8404 -0.1039
16636TIP3    H249831   6.671   2.181   7.078  0.4321 -0.4522 -1.5194
16637TIP3   OH249832   5.319   1.806   6.282 -0.6664  0.2922  0.6572
16637TIP3    H149833   5.270   1.754   6.218 -0.5133  0.4095  0.4419
16637TIP3    H249834   5.335   1.746   6.354  0.3234 -0.2595  0.0159
16638TIP3   OH249835   7.945   3.431   6.415  0.5450 -0.2083 -0.8687
16638TIP3    H149836   7.856   3.424   6.382  1.0216  0.3865 -2.3703
16638TIP3    H249837   7.956   3.356   6.473 -1.3863  0.5187  0.5347
16639TIP3   OH249838   8.668   2.124   0.279 -0.3211 -0.4934 -0.1035
16639TIP3    H149839   8.663   2.158   0.189  0.2189 -0.5337 -0.1541
16639TIP3    H249840   8.677   2.202   0.333 -1.0103 -0.4449 -0.0450
16640TIP3   OH249841   7.373   2.394   5.405 -0.2524  0.6311 -0.4266
16640TIP3    H149842   7.308   2.368   5.470 -0.2280 -0.6758 -0.9009
16640TIP3    H249843   7.324   2.445   5.341 -0.6370  0.4063 -0.3143
16641TIP3   OH249844   7.341   0.807   5.387  0.2393  0.0417  0.0294
16641TIP3    H149845   7.252   0.807   5.353  1.0447  0.1697 -2.2194
16641TIP3    H249846   7.381   0.727   5.353  1.7483  1.2780 -1.2431
16642TIP3   OH249847   0.676   6.225   3.951 -0.6005  0.3843  0.6227
16642TIP3    H149848   0.719   6.217   3.866 -1.4901 -0.3388  0.2175
16642TIP3    H249849   0.706   6.309   3.985 -1.1585  1.2871 -0.9658
16643TIP3   OH249850   1.062   4.857   4.527  0.1884 -0.3668  0.4392
16643TIP3    H149851   1.061   4.950   4.552  0.8091 -0.7778  2.1960
16643TIP3    H249852   0.975   4.840   4.492  0.0306  0.8569  0.2015
16644TIP3   OH249853   4.072   4.587   2.629  0.2255 -0.3959  0.1855
16644TIP3    H149854   4.103   4.654   2.568 -0.6248 -1.1200 -1.0756
16644TIP3    H249855   4.047   4.513   2.574  1.8116 -2.0830  1.5714
16645TIP3   OH249856   1.023   3.102   6.875 -0.2637 -0.2429  0.3657
16645TIP3    H149857   0.967   3.084   6.800 -0.1176  1.9782 -0.3544
16645TIP3    H249858   1.110   3.117   6.836  0.1402 -0.5171  1.1409
16646TIP3   OH249859   3.247   5.113   1.141  0.2597 -0.0165 -0.2358
16646TIP3    H149860   3.190   5.158   1.204  1.0229  0.1248  0.3626
16646TIP3    H249861   3.190   5.049   1.100  0.4669 -2.6458  3.1245
16647TIP3   OH249862   3.575   5.758   2.832  0.3736 -0.2481 -0.1789
16647TIP3    H149863   3.639   5.820   2.867 -0.8615  0.5959  0.6722
16647TIP3    H249864   3.515   5.811   2.780 -0.8938 -0.6156  0.8226
16648TIP3   OH249865   2.762   0.298   6.040 -0.0113 -0.0073  0.1936
16648TIP3    H149866   2.808   0.342   5.969 -1.5967 -0.8973 -1.4849
16648TIP3    H249867   2.719   0.224   5.998 -1.6858 -0.0964  1.9264
16649TIP3   OH249868   6.697   4.400   3.259 -0.6706 -0.5769 -0.0259
16649TIP3    H149869   6.645   4.480   3.265 -1.8981 -1.4100  1.1063
16649TIP3    H249870   6.633   4.329   3.258  0.3053 -1.5438 -2.7753
16650TIP3   OH249871   5.984   4.126   6.704 -0.2691  0.6003  0.3318
16650TIP3    H149872   6.053   4.189   6.683 -0.7650  1.0323 -0.0551
16650TIP3    H249873   5.947   4.158   6.786 -0.7206  1.0045 -0.0179
16651TIP3   OH249874   3.362   3.260   5.642  0.2411 -0.4931  0.1707
16651TIP3    H149875   3.369   3.300   5.556 -1.6467 -0.2279  0.0978
16651TIP3    H249876   3.393   3.170   5.629 -1.0399 -0.7928 -1.0681
16652TIP3   OH249877   7.366   3.996   2.562 -0.0991  0.3112  0.2667
16652TIP3    H149878   7.430   4.067   2.561  0.3934 -0.1119 -0.9545
16652TIP3    H249879   7.366   3.965   2.653 -0.7624  2.2215  0.9514
16653TIP3   OH249880   5.863   4.607   2.573  0.0400 -0.1268  0.0539
16653TIP3    H149881   5.800   4.581   2.505 -1.2358  0.5264  0.9372
16653TIP3    H249882   5.903   4.687   2.538  0.4731 -0.6036 -0.5637
16654TIP3   OH249883   2.536   6.790   2.889  0.5300 -0.0794 -0.7024
16654TIP3    H149884   2.514   6.868   2.940  0.5055 -0.0819 -0.7085
16654TIP3    H249885   2.631   6.791   2.881  0.5563 -0.2151 -0.4367
16655TIP3   OH249886   6.183   5.401   1.331  0.3187  0.5308  0.0294
16655TIP3    H149887   6.087   5.395   1.333  0.2924  0.7903 -0.3830
16655TIP3    H249888   6.210   5.391   1.422 -0.2167  2.4484  0.4349
16656TIP3   OH249889   5.809   3.684   5.872 -0.5627  0.2576  0.3414
16656TIP3    H149890   5.892   3.725   5.848 -0.1337 -0.5015  0.5058
16656TIP3    H249891   5.787   3.723   5.957  0.2668 -0.4583  0.8983
16657TIP3   OH249892   0.153   7.381   2.127  0.3174 -0.2782 -0.3395
16657TIP3    H149893   0.160   7.392   2.221  3.4338 -0.0924 -0.4878
16657TIP3    H249894   0.071   7.424   2.104  0.5501  1.6510  2.0223
16658TIP3   OH249895   5.245   5.999   2.239 -0.5009 -0.4748  0.2888
16658TIP3    H149896   5.237   6.091   2.263 -0.5339 -0.4063  0.0197
16658TIP3    H249897   5.230   5.997   2.144  2.5430 -0.3425 -0.3124
16659TIP3   OH249898   4.820   2.678   4.229 -0.4954 -0.1183  0.2528
16659TIP3    H149899   4.846   2.595   4.269 -1.5788 -0.8050 -0.3847
16659TIP3    H249900   4.807   2.737   4.302  1.5932 -0.0783  0.6493
16660TIP3   OH249901   0.188   5.198   5.409  0.2196 -0.0743 -0.4064
16660TIP3    H149902   0.127   5.272   5.405  0.1562 -0.1829 -2.5025
16660TIP3    H249903   0.229   5.196   5.322 -0.0914 -2.7441 -0.5645
16661TIP3   OH249904   7.859   3.691   0.989 -0.3401  0.4998 -0.5326
16661TIP3    H149905   7.920   3.676   0.916  0.2207  0.3645 -0.0394
16661TIP3    H249906   7.780   3.644   0.964  0.7098 -1.7262  0.0975
16662TIP3   OH249907   4.689   6.300   3.001  0.1174 -0.4138 -0.2346
16662TIP3    H149908   4.662   6.212   2.974  2.4291 -1.4922  0.7502
16662TIP3    H249909   4.669   6.304   3.095 -2.2943  1.1153 -0.7126
16663TIP3   OH249910   3.414   3.407   5.433 -0.1659 -0.3097  0.4851
16663TIP3    H149911   3.504   3.415   5.463 -0.1441  0.9412  0.1475
16663TIP3    H249912   3.408   3.466   5.358 -1.0887 -0.8883  0.0807
16664TIP3   OH249913   3.818   7.435   3.247 -0.7847  0.6065 -0.3621
16664TIP3    H149914   3.726   7.430   3.222 -0.8202 -1.2058  0.0222
16664TIP3    H249915   3.852   7.346   3.235  0.8089  1.1311 -0.0706
16665TIP3   OH249916   1.737   6.164   7.052  0.4582 -0.3963  0.0553
16665TIP3    H149917   1.708   6.245   7.010  0.0611 -0.8111 -0.4740
16665TIP3    H249918   1.832   6.165   7.042  0.3646 -0.5025 -0.8687
16666TIP3   OH249919   0.928   6.609   2.591 -0.8452  0.0766  0.1757
16666TIP3    H149920   0.923   6.704   2.582 -0.8646  0.3309  2.3983
16666TIP3    H249921   1.017   6.592   2.620 -1.2005 -0.4672  0.9575
16667TIP3   OH249922   2.349   3.152   5.445 -0.6466  0.2987 -0.5075
16667TIP3    H149923   2.426   3.154   5.388 -0.5008  0.3379 -0.3124
16667TIP3    H249924   2.327   3.244   5.459  0.6444  0.3830  1.2573
16668TIP3   OH249925   8.363   2.539   3.464 -0.5544 -0.2366 -0.4672
16668TIP3    H149926   8.302   2.545   3.538  0.2062 -0.5531  0.1901
16668TIP3    H249927   8.443   2.502   3.501  1.3520  3.3627 -0.4782
16669TIP3   OH249928   5.086   4.698   0.449  0.7184  0.0013  0.2998
16669TIP3    H149929   5.135   4.772   0.414 -0.0684  0.4952  0.2299
16669TIP3    H249930   5.120   4.687   0.538  0.0474  1.1913  0.7276
16670TIP3   OH249931   7.158   0.008   3.485  0.1316 -0.4301  0.0654
16670TIP3    H149932   7.106  -0.058   3.438  0.2627 -0.2202 -0.3795
16670TIP3    H249933   7.096   0.078   3.503 -0.0154 -0.6886  0.5669
16671TIP3   OH249934   8.528   6.923   5.265 -0.3375 -0.2510 -0.2248
16671TIP3    H149935   8.568   6.967   5.190  0.9243 -3.6578 -1.7940
16671TIP3    H249936   8.453   6.877   5.228  0.2634 -1.9421  0.5578
16672TIP3   OH249937   6.957   2.032   5.918 -0.1230  0.1990  0.2700
16672TIP3    H149938   6.878   2.019   5.866 -0.2199  1.0377  0.1946
16672TIP3    H249939   7.018   1.964   5.887 -1.5599 -1.9786  1.9260
16673TIP3   OH249940   1.339   1.120   4.383  0.8614 -0.0139  0.1745
16673TIP3    H149941   1.430   1.148   4.375  0.5518  1.1739  0.6882
16673TIP3    H249942   1.294   1.164   4.312  0.6526 -0.4763  0.0172
16674TIP3   OH249943   4.867   1.282   6.545 -0.2605  0.6412  0.1748
16674TIP3    H149944   4.819   1.348   6.595  0.4136  0.6067  0.8805
16674TIP3    H249945   4.816   1.202   6.556  0.8880  0.1640  2.4436
16675TIP3   OH249946   4.091   1.635   0.983  0.2030  0.1191  0.1494
16675TIP3    H149947   4.071   1.614   1.074 -0.6046 -0.8317 -0.2292
16675TIP3    H249948   4.183   1.611   0.972  0.1312 -0.3581  0.5484
16676TIP3   OH249949   5.509   0.748   7.037  0.1277 -0.8686 -0.1066
16676TIP3    H149950   5.476   0.773   6.950  0.6885 -0.5314 -0.2307
16676TIP3    H249951   5.586   0.693   7.019  1.9723  1.4698  0.1181
16677TIP3   OH249952   4.895   7.696   3.150  0.2169  0.0875  0.6007
16677TIP3    H149953   4.953   7.648   3.209  0.4176 -0.6204 -0.1637
16677TIP3    H249954   4.911   7.788   3.171  0.0475 -0.1562  1.8687
16678TIP3   OH249955   2.193   5.482   5.457  0.3333  0.1975  0.4902
16678TIP3    H149956   2.180   5.534   5.378 -0.2107 -0.0089  0.4388
16678TIP3    H249957   2.176   5.392   5.430 -0.6199  0.2036  1.0034
16679TIP3   OH249958   3.269   0.404   0.848  0.1576  0.0940  0.1949
16679TIP3    H149959   3.283   0.477   0.908  0.1435  0.1956  0.0746
16679TIP3    H249960   3.192   0.359   0.883 -0.2288  0.5159 -0.0983
16680TIP3   OH249961   2.286   1.480   3.857  0.2866  0.4687  0.0963
16680TIP3    H149962   2.377   1.492   3.884  0.3712  0.9261 -0.3778
16680TIP3    H249963   2.278   1.531   3.776  0.1753 -1.2646 -1.0494
16681TIP3   OH249964   3.723   7.150   1.209  0.6572 -0.2991  0.6577
16681TIP3    H149965   3.671   7.072   1.228  1.9641 -1.3877 -0.0932
16681TIP3    H249966   3.760   7.175   1.294 -0.0372 -0.2658  0.9626
16682TIP3   OH249967   4.403   8.029   3.819 -0.1542  0.2126  0.3139
16682TIP3    H149968   4.475   7.984   3.776 -0.7071 -1.1465  0.7370
16682TIP3    H249969   4.401   8.116   3.780  0.9088 -0.1621 -0.6027
16683TIP3   OH249970   3.312   6.617   1.154  0.0210  0.1606  0.1607
16683TIP3    H149971   3.377   6.609   1.223 -0.1110 -3.6893  0.0569
16683TIP3    H249972   3.231   6.582   1.193 -0.7233  0.3885 -1.1124
16684TIP3   OH249973   5.320   1.510   0.214  0.1818 -0.3885 -0.3107
16684TIP3    H149974   5.348   1.526   0.304  0.4269  0.1654 -0.4827
16684TIP3    H249975   5.324   1.415   0.203 -2.9603 -0.8518  1.2965
16685TIP3   OH249976   4.291   3.864   4.265 -0.4797 -0.2977 -0.0622
16685TIP3    H149977   4.382   3.889   4.247 -1.6625  5.3479 -0.2897
16685TIP3    H249978   4.245   3.880   4.182 -2.0754 -0.1131  0.8049
16686TIP3   OH249979   4.999   6.774   2.584  0.1307 -0.2009 -0.3648
16686TIP3    H149980   5.042   6.851   2.547  2.6854 -1.2879  0.0731
16686TIP3    H249981   5.040   6.764   2.670 -1.9138 -0.6941  0.5986
16687TIP3   OH249982   1.107   7.097   5.957 -0.1636  0.2200  0.3067
16687TIP3    H149983   1.019   7.058   5.956 -0.1393  0.1336  1.0299
16687TIP3    H249984   1.095   7.185   5.921 -0.3568 -0.1665 -0.6082
16688TIP3   OH249985   2.562   5.672   2.376  0.1977 -0.5441 -0.4031
16688TIP3    H149986   2.573   5.640   2.286  0.5256  1.4115 -1.1086
16688TIP3    H249987   2.565   5.767   2.368 -1.7614 -0.2510  1.4304
16689TIP3   OH249988   0.051   4.405   0.108 -0.4311  0.1617  0.0354
16689TIP3    H149989  -0.037   4.380   0.082 -0.3751  0.9029 -0.9391
16689TIP3    H249990   0.105   4.330   0.086 -0.6266  0.2041 -0.6180
16690TIP3   OH249991   0.058   3.759   5.446 -0.0236 -0.0378 -0.4942
16690TIP3    H149992   0.090   3.849   5.445 -2.1471  0.7715 -0.6560
16690TIP3    H249993   0.086   3.724   5.361 -0.0798  0.8332 -0.8932
16691TIP3   OH249994   0.775   0.867   2.147 -0.2739 -0.3618 -0.3115
16691TIP3    H149995   0.740   0.778   2.153 -0.1923 -0.2932  2.1076
16691TIP3    H249996   0.869   0.854   2.136 -0.0736 -0.6432  1.4137
16692TIP3   OH249997   1.349   1.952   1.569  0.2649  0.1523  0.2367
16692TIP3    H149998   1.389   2.004   1.640  0.4672 -3.2862  2.9022
16692TIP3    H249999   1.420   1.940   1.506  0.5708  1.9410  0.1753
16693TIP3   OH250000   2.204   4.869   5.063 -0.7678  0.4267 -0.5735
16693TIP3    H150001   2.172   4.948   5.106  0.5231  0.5300  0.2332
16693TIP3    H250002   2.295   4.862   5.090 -1.0549 -1.7649  0.0096
16694TIP3   OH250003   2.366   6.669   4.034 -0.0224  0.1633 -0.0676
16694TIP3    H150004   2.340   6.581   4.061 -0.4458 -0.2811 -1.8301
16694TIP3    H250005   2.437   6.693   4.094  0.4047 -1.5456  0.1477
16695TIP3   OH250006   5.375   5.077   6.533  0.3577  0.1704 -0.0571
16695TIP3    H150007   5.297   5.108   6.486  0.9724  1.1832 -0.4286
16695TIP3    H250008   5.427   5.156   6.549  0.3759 -0.1915  1.9892
16696TIP3   OH250009   7.605   1.890   1.981 -0.2536  0.0409 -0.1492
16696TIP3    H150010   7.636   1.918   1.895  0.4383 -1.3032 -0.3699
16696TIP3    H250011   7.549   1.815   1.962  1.1157 -1.2411  0.6293
16697TIP3   OH250012   2.922   7.144   5.290  0.4729  0.0423 -0.0770
16697TIP3    H150013   2.892   7.210   5.352 -1.0196 -2.2450  1.8310
16697TIP3    H250014   3.008   7.117   5.324  0.9127  0.7165 -0.6390
16698TIP3   OH250015   8.488   0.298   6.164 -0.2531  0.2794  0.3078
16698TIP3    H150016   8.496   0.240   6.088 -0.1873 -0.7093  1.0376
16698TIP3    H250017   8.578   0.318   6.188 -0.2847  1.6191 -0.6074
16699TIP3   OH250018   2.458   7.155   4.389 -0.4760 -0.4512 -0.3981
16699TIP3    H150019   2.449   7.121   4.300 -0.4381 -0.5084 -0.3800
16699TIP3    H250020   2.397   7.229   4.393  0.3876  0.3074 -0.8542
16700TIP3   OH250021   1.576   2.750   3.159 -0.7343 -0.2454  0.4187
16700TIP3    H150022   1.535   2.833   3.134 -1.6869 -0.4532  1.2199
16700TIP3    H250023   1.502   2.691   3.176 -0.0739 -1.4813 -0.8282
16701TIP3   OH250024   4.776   4.171   4.480  0.1214 -0.1205  0.2994
16701TIP3    H150025   4.738   4.242   4.532  0.8485  0.7178 -0.2719
16701TIP3    H250026   4.832   4.216   4.416  1.7613 -1.2738  0.8489
16702TIP3   OH250027   2.438   5.148   6.588 -0.0808  0.1186  0.3298
16702TIP3    H150028   2.351   5.120   6.616 -1.1088  0.8189 -1.9216
16702TIP3    H250029   2.451   5.232   6.633 -1.0591  0.5301 -0.1140
16703TIP3   OH250030   5.832   1.182   4.774  0.1425  0.8897 -0.8501
16703TIP3    H150031   5.917   1.214   4.745  1.3625 -1.8389 -0.5634
16703TIP3    H250032   5.852   1.116   4.840 -2.0922 -1.1975 -2.0988
16704TIP3   OH250033   6.129   7.936   6.152 -0.2121  0.9887  0.0191
16704TIP3    H150034   6.174   8.017   6.130  0.1881  1.0552  1.0077
16704TIP3    H250035   6.067   7.961   6.221  1.1571  0.1806  1.6224
16705TIP3   OH250036   7.273   3.971   6.353  0.2448  0.3516 -0.3715
16705TIP3    H150037   7.295   3.898   6.295 -1.0101 -0.9080  0.6785
16705TIP3    H250038   7.233   4.036   6.296 -1.0652 -0.9038 -0.9283
16706TIP3   OH250039   5.206   1.879   1.756 -0.1494 -0.2006  0.0961
16706TIP3    H150040   5.204   1.912   1.667  0.7399 -2.1472 -0.7054
16706TIP3    H250041   5.117   1.850   1.773  0.1562 -1.9851 -1.0817
16707TIP3   OH250042   1.749   0.557   3.930  0.2968 -0.4270  0.7044
16707TIP3    H150043   1.683   0.620   3.901 -1.0271 -2.4358 -0.9186
16707TIP3    H250044   1.724   0.534   4.019  1.1818  1.7343  1.5833
16708TIP3   OH250045   2.777   3.292   4.373 -0.3127 -0.2687 -0.4313
16708TIP3    H150046   2.716   3.346   4.424  0.3653  0.3154 -0.2260
16708TIP3    H250047   2.855   3.285   4.428 -0.2472 -1.1514 -0.6204
16709TIP3   OH250048   6.985   0.811   5.696  0.2270  0.1543 -0.0373
16709TIP3    H150049   7.022   0.880   5.642  0.2896  2.8778  3.1330
16709TIP3    H250050   6.914   0.775   5.643  0.3377  2.5024 -1.9923
16710TIP3   OH250051   7.598   7.179   6.289 -1.1417 -0.1953 -0.3972
16710TIP3    H150052   7.669   7.230   6.251 -0.0402 -1.9321 -0.8088
16710TIP3    H250053   7.567   7.124   6.218 -1.8217 -0.5860  0.1905
16711TIP3   OH250054   0.547   2.956   1.204  0.5518  0.1042  0.3307
16711TIP3    H150055   0.453   2.956   1.223  0.2885 -2.2558 -0.6541
16711TIP3    H250056   0.554   2.922   1.115  2.4086 -3.2813  1.5503
16712TIP3   OH250057   0.224   6.102   5.496  0.2284  0.1508  0.0541
16712TIP3    H150058   0.143   6.151   5.482  0.5181  0.0344 -2.4891
16712TIP3    H250059   0.241   6.110   5.590 -2.6743  0.2140  0.6686
16713TIP3   OH250060   0.244   2.162   7.041  0.1088 -0.2893  0.3421
16713TIP3    H150061   0.312   2.100   7.067 -0.3404 -1.5987 -1.4902
16713TIP3    H250062   0.162   2.121   7.068 -0.3992 -1.7966 -3.0552
16714TIP3   OH250063   3.176   1.055   0.287 -0.4217 -0.3593  0.1336
16714TIP3    H150064   3.233   1.072   0.212  0.5665 -0.7569  0.7662
16714TIP3    H250065   3.237   1.035   0.359 -1.3716 -1.1669  0.7423
16715TIP3   OH250066   1.066   6.839   2.956  0.4525 -0.3118  0.0839
16715TIP3    H150067   1.130   6.800   2.897  0.3537 -1.9372  0.9804
16715TIP3    H250068   1.021   6.905   2.904  1.9387 -0.0792 -0.9510
16716TIP3   OH250069   7.557   4.982   2.382 -0.1065 -0.4127  0.2542
16716TIP3    H150070   7.561   5.075   2.402  1.4959 -0.1872 -0.9518
16716TIP3    H250071   7.498   4.977   2.306  0.1962 -0.3108  0.0094
16717TIP3   OH250072   4.455   5.906   6.809  0.1924  0.0333  0.5402
16717TIP3    H150073   4.410   5.884   6.890  0.0191 -0.5044  0.3057
16717TIP3    H250074   4.536   5.855   6.811  0.4415  0.4293  0.6213
16718TIP3   OH250075   5.802   3.453   2.722 -0.2018  0.5461 -0.2194
16718TIP3    H150076   5.780   3.470   2.814 -0.9616 -2.3060  0.2224
16718TIP3    H250077   5.894   3.429   2.723 -0.3686 -0.1052 -0.0859
16719TIP3   OH250078   6.264   4.357   4.229 -0.2735 -0.4351  0.3988
16719TIP3    H150079   6.180   4.328   4.194  0.2575 -1.6227  0.0616
16719TIP3    H250080   6.272   4.312   4.313  0.2602 -0.7443  0.1870
16720TIP3   OH250081   3.655   1.347   6.459 -0.4282 -0.2735 -0.1380
16720TIP3    H150082   3.657   1.380   6.369 -0.3268  0.3997  0.1100
16720TIP3    H250083   3.672   1.424   6.513 -1.1795 -0.5465  0.4968
16721TIP3   OH250084   3.761   3.690   6.384  0.2178  0.0119  0.5017
16721TIP3    H150085   3.688   3.662   6.438 -1.3905  0.8325 -1.1487
16721TIP3    H250086   3.799   3.608   6.351  0.5549 -0.4424  1.9646
16722TIP3   OH250087   2.445   3.956   3.661  0.0901  0.2639 -0.4070
16722TIP3    H150088   2.518   3.941   3.601 -0.6090  0.2465 -1.2920
16722TIP3    H250089   2.377   3.994   3.605 -1.2405 -1.4321 -0.0415
16723TIP3   OH250090   0.678   5.051   2.185  0.0231  0.0930  0.3129
16723TIP3    H150091   0.708   4.960   2.186  1.0612  0.4203  1.0227
16723TIP3    H250092   0.607   5.054   2.249 -0.1675 -0.2676  0.1181
16724TIP3   OH250093   3.857   5.653   2.983  0.7074 -0.3295 -0.3727
16724TIP3    H150094   3.865   5.687   2.894  1.6761  3.9969  1.1001
16724TIP3    H250095   3.773   5.686   3.014  1.5130  0.4856  1.0597
16725TIP3   OH250096   3.403   7.691   2.489 -0.2589  0.0927  0.3884
16725TIP3    H150097   3.372   7.601   2.496 -0.6339  0.2572  0.9096
16725TIP3    H250098   3.344   7.741   2.546  0.7215  0.4709  1.1073
16726TIP3   OH250099   7.936   6.575   6.537  0.7781 -0.3731  0.2465
16726TIP3    H150100   7.991   6.649   6.564 -0.5420  1.2000 -1.1270
16726TIP3    H250101   7.897   6.604   6.454  2.0098 -3.5669 -1.6230
16727TIP3   OH250102   7.046   2.515   0.438  0.5649 -0.3699 -0.3688
16727TIP3    H150103   7.110   2.464   0.487  0.6915  0.5135  0.4138
16727TIP3    H250104   7.062   2.491   0.346  2.0594 -0.1333 -0.1973
16728TIP3   OH250105   3.450   4.934   1.273  0.8364 -0.2970 -0.2923
16728TIP3    H150106   3.457   4.927   1.178 -0.3383  1.2491 -0.5360
16728TIP3    H250107   3.356   4.940   1.290  1.0859  2.5419  0.6397
16729TIP3   OH250108   2.589   7.798   0.831 -0.3207  0.2320 -0.5740
16729TIP3    H150109   2.672   7.777   0.875 -1.3075 -2.2104  0.3086
16729TIP3    H250110   2.586   7.894   0.831  2.8063  0.4501 -1.3159
16730TIP3   OH250111   5.500   7.969   5.354 -0.1516  0.6849  0.1729
16730TIP3    H150112   5.581   8.017   5.339 -0.7986  1.4028 -1.1747
16730TIP3    H250113   5.506   7.893   5.297 -1.2006  1.7161 -1.3986
16731TIP3   OH250114   0.740   1.858   0.837  0.1073 -0.0277  0.1881
16731TIP3    H150115   0.754   1.855   0.742  1.1385 -1.2128  0.3554
16731TIP3    H250116   0.677   1.788   0.854 -0.5684  0.5996  0.3204
16732TIP3   OH250117   5.815   0.043   0.315  0.6398 -0.6388 -0.0783
16732TIP3    H150118   5.749   0.084   0.259 -1.4402 -2.6170  0.7532
16732TIP3    H250119   5.875   0.000   0.253  1.3753  1.3813 -0.8561
16733TIP3   OH250120   8.191   7.839   6.108 -0.0828  0.4869 -0.1973
16733TIP3    H150121   8.170   7.746   6.116  0.0306  0.6260  2.5335
16733TIP3    H250122   8.106   7.883   6.103 -0.3194  0.4599  2.5184
16734TIP3   OH250123   0.082   6.850   3.406 -0.0759 -0.6409 -0.3679
16734TIP3    H150124   0.127   6.920   3.453 -0.9184 -1.8897  2.5161
16734TIP3    H250125   0.153   6.793   3.375  0.5394  0.6945 -1.5697
16735TIP3   OH250126   7.767   0.177   6.731  0.2361 -0.0248  0.2609
16735TIP3    H150127   7.726   0.143   6.811 -0.3737 -0.2711 -0.1507
16735TIP3    H250128   7.709   0.249   6.704  0.2746 -0.1391 -0.1250
16736TIP3   OH250129   7.444   2.629   1.779 -0.4106 -0.4896  0.8019
16736TIP3    H150130   7.355   2.651   1.751 -1.0836 -1.7388  1.8716
16736TIP3    H250131   7.498   2.645   1.701 -1.4910  0.6423  0.2439
16737TIP3   OH250132   7.774   6.339   5.346  0.1934  0.6770  0.1396
16737TIP3    H150133   7.819   6.342   5.262  0.2340  1.2505  0.1798
16737TIP3    H250134   7.693   6.291   5.328  0.5928  0.0668 -0.0376
16738TIP3   OH250135   2.245   5.315   6.980 -0.1955  0.7955 -0.0664
16738TIP3    H150136   2.257   5.246   6.915  3.0127 -0.9394  2.1217
16738TIP3    H250137   2.171   5.285   7.033 -1.4180  1.1530 -1.4988
16739TIP3   OH250138   7.709   2.427   4.502  0.2328  0.0710 -0.1292
16739TIP3    H150139   7.733   2.452   4.413 -0.0313 -2.1132 -0.8906
16739TIP3    H250140   7.704   2.509   4.550  0.6831  1.2877 -2.0504
16740TIP3   OH250141   3.883   0.740   0.200  0.2077  0.6227  0.0449
16740TIP3    H150142   3.877   0.752   0.295  0.0353  0.1670  0.0898
16740TIP3    H250143   3.800   0.774   0.166 -0.1284 -0.0897  0.1415
16741TIP3   OH250144   2.125   3.977   5.884 -1.2209 -0.4257 -0.3999
16741TIP3    H150145   2.154   3.896   5.841 -0.1754  0.1118 -0.7445
16741TIP3    H250146   2.134   4.044   5.816 -1.1486  0.1451  0.1699
16742TIP3   OH250147   5.975   4.343   3.327 -0.5543 -0.0480 -0.5636
16742TIP3    H150148   6.040   4.276   3.308  1.0139  1.5914 -1.3050
16742TIP3    H250149   5.945   4.373   3.242  1.8106  2.9313 -0.5300
16743TIP3   OH250150   7.794   0.113   4.291  0.6894  0.5734  0.3102
16743TIP3    H150151   7.833   0.195   4.322  1.0032 -0.2571  2.2367
16743TIP3    H250152   7.702   0.118   4.317  0.0614  1.3338 -1.7992
16744TIP3   OH250153   5.856   0.811   6.737 -0.4958  0.6547 -0.4276
16744TIP3    H150154   5.824   0.753   6.806 -1.3794 -1.2233 -2.2899
16744TIP3    H250155   5.834   0.899   6.767  0.8906  0.1161  2.5110
16745TIP3   OH250156   7.293   2.021   5.514 -0.2075 -0.4968 -0.1182
16745TIP3    H150157   7.318   2.077   5.587 -1.0823  0.9670 -0.8867
16745TIP3    H250158   7.361   1.954   5.510  3.2637  2.7535 -1.6135
16746TIP3   OH250159   3.549   6.633   0.403 -0.1059 -0.8855 -0.0427
16746TIP3    H150160   3.480   6.603   0.343 -0.2674 -0.3101 -0.1454
16746TIP3    H250161   3.508   6.702   0.455  0.5834 -0.0439 -0.5821
16747TIP3   OH250162   7.580   0.190   3.601  0.2017 -0.0617 -0.7873
16747TIP3    H150163   7.674   0.210   3.606  0.3153 -0.7613  0.3528
16747TIP3    H250164   7.576   0.107   3.553  0.3348 -0.9634  0.7131
16748TIP3   OH250165   0.166   1.904   2.865 -0.0302  0.0901  0.0553
16748TIP3    H150166   0.132   1.850   2.937  0.7802 -1.1733 -0.4836
16748TIP3    H250167   0.100   1.898   2.797 -0.2789  0.3936  0.2627
16749TIP3   OH250168   1.274   2.759   4.530 -0.0602 -0.2965  0.3425
16749TIP3    H150169   1.305   2.839   4.488 -0.6952 -0.5838 -0.7157
16749TIP3    H250170   1.354   2.715   4.558  0.3639  0.1226 -0.1763
16750TIP3   OH250171   6.212   1.751   3.945 -0.0898 -0.6900  0.4105
16750TIP3    H150172   6.250   1.665   3.927 -1.0013 -1.1830  0.7570
16750TIP3    H250173   6.164   1.739   4.027  0.2103  0.2959  0.7403
16751TIP3   OH250174   5.410   0.305   2.380  0.4368 -0.3273  0.2153
16751TIP3    H150175   5.376   0.320   2.468 -2.4562 -1.1212 -0.6389
16751TIP3    H250176   5.433   0.212   2.379  0.1043 -0.4113  0.0551
16752TIP3   OH250177   4.697   5.341   6.589 -0.0312 -0.0305 -0.1622
16752TIP3    H150178   4.707   5.280   6.661  0.6693 -0.0041 -0.2310
16752TIP3    H250179   4.670   5.287   6.514 -3.1951  0.2298  0.6491
16753TIP3   OH250180   1.990   4.037   6.957 -0.4696  0.4710 -0.0129
16753TIP3    H150181   2.053   3.966   6.942 -1.1459  0.0792 -1.0949
16753TIP3    H250182   1.952   4.018   7.043  1.7479  1.4113  1.2722
16754TIP3   OH250183   2.609   1.256   2.659  0.9940  0.6137 -0.2230
16754TIP3    H150184   2.599   1.300   2.744  0.7121  1.9508 -0.9143
16754TIP3    H250185   2.569   1.170   2.671  0.6915  0.8935  0.9125
16755TIP3   OH250186   4.692   1.358   5.623  0.0715  0.0371  0.0391
16755TIP3    H150187   4.671   1.268   5.601  0.5720  0.0147 -0.3550
16755TIP3    H250188   4.674   1.408   5.544 -1.3616  0.4815  0.6138
16756TIP3   OH250189   5.208   0.022   2.138 -0.0655 -0.2131 -0.4597
16756TIP3    H150190   5.188   0.072   2.059 -1.0595 -1.4283 -1.0095
16756TIP3    H250191   5.261  -0.052   2.106 -2.1532 -1.8277 -0.3449
16757TIP3   OH250192   1.877   2.957   1.462  0.5150  0.2152  0.8129
16757TIP3    H150193   1.897   3.018   1.391  0.6842 -0.4985  0.2484
16757TIP3    H250194   1.936   2.984   1.533  0.1005  1.1520  0.8284
16758TIP3   OH250195   7.066   3.455   5.150 -0.2860  0.5791 -0.7684
16758TIP3    H150196   7.133   3.387   5.155  1.7814  2.5758  1.3992
16758TIP3    H250197   6.996   3.424   5.207  0.7738  0.3484  0.4617
16759TIP3   OH250198   1.810   5.654   2.070 -0.1277  0.3811  0.4263
16759TIP3    H150199   1.771   5.567   2.061  0.5308  0.2475 -1.7304
16759TIP3    H250200   1.902   5.637   2.090 -0.0815  0.5796  0.3881
16760TIP3   OH250201   0.549   7.967   2.616 -0.1609  0.2427  0.0266
16760TIP3    H150202   0.611   7.911   2.662 -1.1207 -2.0118 -1.2395
16760TIP3    H250203   0.599   8.006   2.544  0.3091  0.2843  0.3740
16761TIP3   OH250204   4.101   0.176   1.070 -0.2212 -0.1911 -0.0017
16761TIP3    H150205   4.117   0.229   1.148 -1.4015  0.7062 -0.3507
16761TIP3    H250206   4.185   0.175   1.025  0.2064  0.1259  0.7635
16762TIP3   OH250207   0.628   0.937   0.881 -0.1878  0.2731  0.2682
16762TIP3    H150208   0.682   0.989   0.821  1.9753 -1.0163  0.9690
16762TIP3    H250209   0.685   0.923   0.957 -1.3357 -1.6089  0.8305
16763TIP3   OH250210   3.518   0.391   6.153 -0.3263 -0.4539  0.6548
16763TIP3    H150211   3.610   0.388   6.177  0.0121  0.5030 -0.4536
16763TIP3    H250212   3.481   0.458   6.211 -0.1380 -0.1932  0.4706
16764TIP3   OH250213   2.484   6.052   0.841  0.3654  0.7109 -0.4757
16764TIP3    H150214   2.475   5.976   0.898 -0.9420  0.6356 -0.7533
16764TIP3    H250215   2.554   6.029   0.780  1.3456  0.5430  0.6773
16765TIP3   OH250216   8.660   1.247   3.186 -0.1224 -0.0691 -0.0617
16765TIP3    H150217   8.672   1.289   3.271 -0.1701  0.7891 -0.4688
16765TIP3    H250218   8.648   1.319   3.125 -0.6956 -0.6906 -0.7076
16766TIP3   OH250219   3.173   1.920   1.787  0.7628 -0.3057  0.1276
16766TIP3    H150220   3.209   1.894   1.872 -0.7212  0.6369  1.0941
16766TIP3    H250221   3.165   2.015   1.793 -0.7397 -0.3619 -0.4748
16767TIP3   OH250222   1.091   4.842   1.548  0.1348 -0.1464  0.2865
16767TIP3    H150223   1.089   4.814   1.457  1.2212 -0.9306  0.4774
16767TIP3    H250224   1.023   4.909   1.555  0.5717  0.4928 -1.2733
16768TIP3   OH250225   5.458   0.385   5.420 -0.2351 -0.3982  0.1360
16768TIP3    H150226   5.440   0.308   5.475 -0.2651  0.0589  0.7864
16768TIP3    H250227   5.404   0.373   5.343 -2.8437  0.5571  1.6878
16769TIP3   OH250228   4.912   5.174   1.437 -0.4619 -0.4505  0.0779
16769TIP3    H150229   4.950   5.215   1.515 -1.2438  1.4882 -0.5045
16769TIP3    H250230   4.979   5.183   1.370 -0.5973 -0.1703 -0.0240
16770TIP3   OH250231   4.475   6.686   1.779  0.1567  0.1674 -0.5804
16770TIP3    H150232   4.568   6.705   1.789  0.3138 -0.3454 -1.0301
16770TIP3    H250233   4.462   6.674   1.685 -0.1960 -0.6029 -0.4390
16771TIP3   OH250234   4.946   5.787   2.654 -0.0656  0.3171 -0.3776
16771TIP3    H150235   5.021   5.847   2.655 -0.1019  0.3615  0.1748
16771TIP3    H250236   4.877   5.836   2.609 -0.3493  1.0266  0.7578
16772TIP3   OH250237   2.781   0.774   1.519 -0.3997  0.0933 -0.8343
16772TIP3    H150238   2.795   0.851   1.574  0.8284 -1.1287  0.6574
16772TIP3    H250239   2.695   0.742   1.544 -0.7918  0.7908 -1.2540
16773TIP3   OH250240   2.145   0.789   6.818 -0.3368 -0.9393 -0.1928
16773TIP3    H150241   2.183   0.738   6.890  0.4553  0.4409  0.4046
16773TIP3    H250242   2.217   0.799   6.755 -0.3480 -0.1866 -0.0924
16774TIP3   OH250243   2.081   6.872   6.165  0.5414 -0.1490  0.6706
16774TIP3    H150244   2.126   6.842   6.086  0.3643  0.0901  0.4793
16774TIP3    H250245   2.135   6.943   6.198 -0.3367  1.0024 -0.2617
16775TIP3   OH250246   6.752   6.155   1.229  0.4544 -0.0269  0.1316
16775TIP3    H150247   6.840   6.121   1.243  0.4766  0.0966  0.2866
16775TIP3    H250248   6.750   6.177   1.135 -0.1085 -2.0200 -0.3653
16776TIP3   OH250249   0.061   0.109   3.571  0.1501  0.4758 -0.1958
16776TIP3    H150250   0.072   0.018   3.545 -2.1230 -0.0598  0.5126
16776TIP3    H250251   0.080   0.110   3.665 -0.2122  0.6511 -0.1224
16777TIP3   OH250252   7.711   4.328   1.291 -0.0442  0.0719 -0.1522
16777TIP3    H150253   7.796   4.363   1.319  0.3284 -0.2516 -0.8378
16777TIP3    H250254   7.709   4.344   1.197 -0.1596 -1.1302 -0.3680
16778TIP3   OH250255   4.575   2.334   4.095  0.1373  0.2254  0.1178
16778TIP3    H150256   4.664   2.331   4.062  0.1781 -1.5976  0.3347
16778TIP3    H250257   4.581   2.304   4.185 -0.6412  0.5263  0.2822
16779TIP3   OH250258   4.352   0.220   0.236 -0.1000 -0.5979 -0.0742
16779TIP3    H150259   4.346   0.125   0.239 -1.5430 -0.5189  1.0822
16779TIP3    H250260   4.342   0.242   0.143  1.6798 -1.6078 -0.5409
16780TIP3   OH250261   8.671   6.977   0.174 -0.0986  0.1976 -0.4777
16780TIP3    H150262   8.753   6.967   0.223  0.0755  0.8814 -0.6124
16780TIP3    H250263   8.621   7.041   0.225 -0.7401 -0.5407 -0.1636
16781TIP3   OH250264   4.034   6.813   2.483 -0.3581  0.0894  0.4944
16781TIP3    H150265   4.094   6.787   2.553  2.4431  0.7654 -1.4423
16781TIP3    H250266   4.007   6.731   2.443  0.8135 -0.2190  0.2801
16782TIP3   OH250267   3.213   6.056   5.006  0.2760  0.4291  0.4951
16782TIP3    H150268   3.301   6.068   5.041  0.5730 -1.4162  0.5017
16782TIP3    H250269   3.176   5.984   5.057 -0.9418  0.6408 -0.0460
16783TIP3   OH250270   0.353   7.516   0.962  0.2938  0.1639  0.5612
16783TIP3    H150271   0.374   7.563   1.043  0.8690  1.5051 -0.3362
16783TIP3    H250272   0.398   7.565   0.893 -1.1194 -0.2516 -0.7213
16784TIP3   OH250273   5.631   4.778   6.181  0.4839 -0.2211 -0.6902
16784TIP3    H150274   5.574   4.777   6.105 -1.4779 -0.1153  0.7148
16784TIP3    H250275   5.578   4.817   6.251  1.9697 -0.9155  0.9087
16785TIP3   OH250276   2.193   4.816   6.072  0.5896  0.0966 -0.5013
16785TIP3    H150277   2.150   4.801   5.988 -0.0005 -2.5060  0.1688
16785TIP3    H250278   2.280   4.775   6.062  1.0879  1.0711 -0.2901
16786TIP3   OH250279   7.364   0.607   5.033  0.6140  0.1421  0.0460
16786TIP3    H150280   7.383   0.680   4.973 -0.8276  0.9995  0.5944
16786TIP3    H250281   7.270   0.612   5.049  0.8290 -0.5200  1.7907
16787TIP3   OH250282   1.203   4.014   3.316  0.6728 -0.4283 -0.2014
16787TIP3    H150283   1.291   3.983   3.339  0.7709 -0.1574 -0.2054
16787TIP3    H250284   1.145   3.968   3.376  1.0415  1.2795  1.5512
16788TIP3   OH250285   5.172   7.537   3.562 -0.1732 -0.4379 -0.5070
16788TIP3    H150286   5.227   7.463   3.587 -1.0608 -1.1624 -0.6269
16788TIP3    H250287   5.083   7.500   3.557 -0.3359  0.0646 -2.8089
16789TIP3   OH250288   6.151   3.384   5.683 -0.3205 -0.0758 -0.1797
16789TIP3    H150289   6.137   3.381   5.588  1.3188 -1.4221 -0.4298
16789TIP3    H250290   6.095   3.314   5.718  1.1313 -1.4516 -0.5044
16790TIP3   OH250291   4.948   1.456   6.213 -0.9332 -0.1055  0.4330
16790TIP3    H150292   5.008   1.393   6.253  1.1418  2.0210  0.9024
16790TIP3    H250293   4.949   1.435   6.120  1.0061  0.2029  0.3556
16791TIP3   OH250294   7.006   7.492   1.533  0.3089  0.5440 -0.2220
16791TIP3    H150295   6.919   7.483   1.572  0.8900  0.6850  1.1681
16791TIP3    H250296   7.006   7.429   1.460 -0.7004 -0.0043  0.2296
16792TIP3   OH250297   0.313   5.319   1.285 -0.3285 -0.1588  0.5729
16792TIP3    H150298   0.306   5.245   1.224 -2.2729  0.3921  0.0560
16792TIP3    H250299   0.399   5.308   1.326 -0.5621 -2.7370  0.5701
16793TIP3   OH250300   4.631   7.444   4.758 -0.3392 -0.0265 -0.3760
16793TIP3    H150301   4.704   7.477   4.810 -1.4586  1.0664  0.5679
16793TIP3    H250302   4.673   7.394   4.687  1.2344 -1.4279  1.4351
16794TIP3   OH250303   7.479   5.625   4.939  0.5820  0.1412 -0.5832
16794TIP3    H150304   7.402   5.570   4.928 -0.6253  1.2241  1.7515
16794TIP3    H250305   7.537   5.574   4.995  0.5959  0.1819 -0.5597
16795TIP3   OH250306   1.458   7.390   5.153 -0.0635  0.0840  0.0358
16795TIP3    H150307   1.372   7.432   5.159 -0.6522 -1.0998  0.1626
16795TIP3    H250308   1.467   7.344   5.236  0.8371  0.4508  0.1469
16796TIP3   OH250309   7.289   3.055   3.710 -0.0886 -0.3742  0.1587
16796TIP3    H150310   7.246   3.138   3.691  1.3238  0.9147  2.1745
16796TIP3    H250311   7.382   3.075   3.709  0.2824 -1.8946  0.8649
16797TIP3   OH250312   4.340   7.755   6.735 -0.6524  0.0023 -0.3945
16797TIP3    H150313   4.291   7.766   6.817  0.0915 -1.4316  0.2917
16797TIP3    H250314   4.424   7.799   6.752 -0.5445 -0.1893 -0.4268
16798TIP3   OH250315   3.762   4.417   0.373  0.6424 -0.7902  0.3217
16798TIP3    H150316   3.794   4.333   0.340  0.0258 -0.1105 -2.1987
16798TIP3    H250317   3.826   4.481   0.343 -0.5736  0.0069 -0.6778
16799TIP3   OH250318   1.269   7.587   3.905 -0.2356  0.4848  0.0051
16799TIP3    H150319   1.332   7.631   3.848 -1.0644  1.2531 -0.3498
16799TIP3    H250320   1.290   7.494   3.898  0.5584  0.6913 -0.4573
16800TIP3   OH250321   7.298   4.030   4.648 -0.0289  0.4135  0.3612
16800TIP3    H150322   7.363   4.037   4.717  0.7352  1.2810 -0.4218
16800TIP3    H250323   7.348   4.034   4.567 -0.7783 -1.8158 -0.2797
16801TIP3   OH250324   6.522   1.798   1.747  0.1668  0.3011  0.0709
16801TIP3    H150325   6.443   1.840   1.714  0.3930  1.2865  0.7409
16801TIP3    H250326   6.492   1.715   1.783 -0.2229 -0.3521 -1.6793
16802TIP3   OH250327   5.073   3.699   3.409 -0.1586  0.2745 -0.1502
16802TIP3    H150328   5.048   3.648   3.486 -0.3113  1.9338  0.9437
16802TIP3    H250329   5.007   3.676   3.343 -3.1397  2.5096  1.8145
16803TIP3   OH250330   8.313   1.582   6.793 -0.8018  0.5175 -0.4078
16803TIP3    H150331   8.328   1.668   6.832 -0.2071 -0.5031  1.7882
16803TIP3    H250332   8.337   1.592   6.701  1.3317  2.1594  0.2624
16804TIP3   OH250333   2.945   3.241   6.943 -0.5974  0.1611  0.0410
16804TIP3    H150334   2.874   3.185   6.914 -1.7146  1.4503  0.1908
16804TIP3    H250335   2.903   3.311   6.993  0.8968  0.2712  1.2242
16805TIP3   OH250336   3.732   2.830   4.757  0.6473  0.0567  0.0670
16805TIP3    H150337   3.730   2.917   4.797 -3.1948  0.2043 -0.0847
16805TIP3    H250338   3.717   2.845   4.664 -0.9009 -0.7134  0.1480
16806TIP3   OH250339   4.894   3.533   2.083  0.4270 -0.0284  0.2506
16806TIP3    H150340   4.820   3.501   2.033 -0.1619  0.4862  0.7765
16806TIP3    H250341   4.859   3.548   2.171  1.2248 -0.0639  0.5838
16807TIP3   OH250342   6.660   2.633   1.409 -0.3810 -0.2179  0.5637
16807TIP3    H150343   6.617   2.550   1.390  1.5143 -0.9147 -1.0420
16807TIP3    H250344   6.739   2.610   1.458  0.1932  0.5987  0.0623
16808TIP3   OH250345   5.414   1.346   6.594  0.1835 -0.4807  0.1068
16808TIP3    H150346   5.451   1.370   6.679  0.5405  0.0368 -0.1961
16808TIP3    H250347   5.486   1.304   6.547 -0.0643 -0.9380  0.1208
16809TIP3   OH250348   5.090   5.390   0.999 -0.4081 -0.3389 -0.5085
16809TIP3    H150349   5.104   5.385   0.904 -1.1044  1.3370 -0.7388
16809TIP3    H250350   5.006   5.347   1.013  0.5698 -2.3273 -0.3405
16810TIP3   OH250351   6.695   7.661   6.085  0.0553  0.1510 -0.1936
16810TIP3    H150352   6.618   7.697   6.130 -0.1449 -0.5421  0.0287
16810TIP3    H250353   6.755   7.735   6.079 -1.7962  1.5862 -3.1111
16811TIP3   OH250354   3.155   1.434   0.092  0.6690  0.0653 -0.5180
16811TIP3    H150355   3.098   1.382   0.035  1.4546 -0.9338 -0.4323
16811TIP3    H250356   3.115   1.428   0.178  1.6691 -1.9276 -0.1347
16812TIP3   OH250357   6.134   4.813   0.086  0.5437  0.3012  0.6417
16812TIP3    H150358   6.045   4.796   0.056  0.7886  0.7442 -0.4086
16812TIP3    H250359   6.125   4.834   0.179 -0.6223  1.6501  0.2629
16813TIP3   OH250360   6.665   3.854   6.611  0.2347  0.7190  0.1197
16813TIP3    H150361   6.592   3.815   6.660  0.2756  0.6447  0.1226
16813TIP3    H250362   6.696   3.783   6.555 -0.8865  1.2660 -1.2625
16814TIP3   OH250363   6.969   2.121   3.011 -0.3033  0.7606 -0.9648
16814TIP3    H150364   6.937   2.048   3.065  1.9519 -0.7183 -1.4918
16814TIP3    H250365   6.960   2.198   3.067  0.0305 -0.4069  0.7573
16815TIP3   OH250366   5.089   0.223   3.175 -0.4064  0.4457  0.1025
16815TIP3    H150367   5.134   0.306   3.165  1.1379 -0.4425 -0.6249
16815TIP3    H250368   5.069   0.217   3.268  2.5591  0.1324  0.8009
16816TIP3   OH250369   8.579   4.270   3.819 -0.7306  0.1328 -0.7770
16816TIP3    H150370   8.506   4.213   3.843  0.8282 -1.5099  0.3224
16816TIP3    H250371   8.579   4.339   3.886  0.2844 -1.3873  0.8916
16817TIP3   OH250372   5.185   2.764   1.540 -0.2453 -0.2550  0.3592
16817TIP3    H150373   5.278   2.771   1.520 -0.1337 -0.0990  0.9085
16817TIP3    H250374   5.181   2.765   1.636 -0.8041 -0.3377  0.3407
16818TIP3   OH250375   2.442   2.374   0.751  0.3056 -0.0120  0.3757
16818TIP3    H150376   2.532   2.376   0.720  0.2900 -2.2460  0.0653
16818TIP3    H250377   2.423   2.282   0.766 -1.0700  0.5802  3.0586
16819TIP3   OH250378   0.106   0.782   6.859 -0.2627 -0.2784  0.0214
16819TIP3    H150379   0.085   0.694   6.827 -0.1961 -0.0620 -0.6446
16819TIP3    H250380   0.056   0.790   6.940 -0.4137 -0.8637 -0.0025
16820TIP3   OH250381   8.086   2.303   5.266  0.4038  0.0010  0.0374
16820TIP3    H150382   8.155   2.286   5.331  0.4856  1.0025  0.2352
16820TIP3    H250383   8.120   2.376   5.214  1.3449 -2.1720 -2.6276
16821TIP3   OH250384   7.158   0.726   5.882  0.4452 -0.0195 -0.4354
16821TIP3    H150385   7.212   0.683   5.816  3.1069  0.6305  1.2126
16821TIP3    H250386   7.105   0.789   5.832  2.0345  0.1476 -2.0047
16822TIP3   OH250387   6.622   0.227   3.491  0.1563  0.1639  0.5993
16822TIP3    H150388   6.577   0.239   3.407  0.2658  2.9565  0.8657
16822TIP3    H250389   6.553   0.194   3.550 -0.6929  1.0523  0.1373
16823TIP3   OH250390   4.104   3.904   5.317  0.4653 -0.0524 -0.3284
16823TIP3    H150391   4.014   3.894   5.348  0.3345  1.3136 -0.2130
16823TIP3    H250392   4.154   3.927   5.396  0.2356  2.8414 -0.9016
16824TIP3   OH250393   8.096   6.050   0.048  0.4637 -0.3513 -0.1013
16824TIP3    H150394   8.002   6.064   0.046  0.3918 -0.8348 -0.4449
16824TIP3    H250395   8.122   6.048  -0.044  0.9621  0.7269  0.0028
16825TIP3   OH250396   3.220   7.720   7.108  0.2926  0.3785  0.1132
16825TIP3    H150397   3.267   7.790   7.154  0.0199  1.1357 -0.7276
16825TIP3    H250398   3.268   7.709   7.026  1.4292 -1.7119  0.9752
16826TIP3   OH250399   4.817   1.549   1.731  0.4288 -0.0272 -0.2508
16826TIP3    H150400   4.911   1.538   1.714  0.2640 -1.3779 -0.4354
16826TIP3    H250401   4.776   1.536   1.646  0.0298 -0.1328 -0.0452
16827TIP3   OH250402   0.529   3.402   1.141 -0.1526 -0.0647 -0.1431
16827TIP3    H150403   0.491   3.315   1.139  2.5653 -1.4252  1.1512
16827TIP3    H250404   0.603   3.397   1.080  1.8307  0.2713  2.0539
16828TIP3   OH250405   1.388   6.904   6.966 -0.5359  0.2019 -0.2242
16828TIP3    H150406   1.446   6.850   6.913  0.0776  0.7631 -0.1324
16828TIP3    H250407   1.439   6.925   7.044 -0.7791  0.8824 -0.2405
16829TIP3   OH250408   4.002   1.482   4.446  0.2943  0.8582 -0.2956
16829TIP3    H150409   3.979   1.435   4.366 -0.9083  1.3145 -0.2304
16829TIP3    H250410   3.979   1.422   4.517  1.8610  0.2313 -0.2640
16830TIP3   OH250411   8.526   0.788   0.786 -0.0876  0.3302 -0.2792
16830TIP3    H150412   8.439   0.764   0.817  0.3432 -1.9863 -0.7020
16830TIP3    H250413   8.586   0.742   0.845  0.7905 -0.5722 -1.8291
16831TIP3   OH250414   4.541   1.226   6.755 -0.1335  0.0273 -0.2630
16831TIP3    H150415   4.533   1.303   6.697 -1.3525 -0.4660 -0.7866
16831TIP3    H250416   4.610   1.173   6.715 -0.4463  0.0515 -0.8418
16832TIP3   OH250417   6.699   6.439   5.756 -0.5267  0.1835 -0.1492
16832TIP3    H150418   6.617   6.474   5.721  0.0444 -1.0939 -3.1259
16832TIP3    H250419   6.755   6.428   5.679  1.9177 -0.3715  1.5873
16833TIP3   OH250420   0.911   7.422   5.524 -0.1100 -0.0581 -0.2642
16833TIP3    H150421   0.885   7.398   5.613 -2.4283  1.4572 -0.4467
16833TIP3    H250422   1.006   7.415   5.524  0.1697  1.7471  2.9460
16834TIP3   OH250423   0.428   2.162   4.255 -0.2509 -0.2610  0.2362
16834TIP3    H150424   0.467   2.076   4.264 -1.1461 -0.7666 -0.5132
16834TIP3    H250425   0.396   2.184   4.343  1.6459  0.1677  0.8615
16835TIP3   OH250426   0.720   7.397   4.411  0.1216 -0.2042  0.1666
16835TIP3    H150427   0.753   7.481   4.379  1.6927 -1.0960 -0.6649
16835TIP3    H250428   0.625   7.407   4.410  0.2882  2.0541  1.4928
16836TIP3   OH250429   0.523   3.211   0.169 -0.0097 -1.2730 -0.6788
16836TIP3    H150430   0.561   3.265   0.238 -0.1126 -1.6970 -0.2825
16836TIP3    H250431   0.596   3.193   0.110  0.9618 -3.6415  1.0527
16837TIP3   OH250432   0.517   1.622   7.062 -0.0382  0.1485  0.2309
16837TIP3    H150433   0.459   1.552   7.092  0.4207  0.3808  1.7245
16837TIP3    H250434   0.576   1.638   7.135 -0.3814  2.3817  0.0947
16838TIP3   OH250435   3.813   4.048   6.859  0.3592 -0.0673 -0.1674
16838TIP3    H150436   3.893   4.079   6.815  1.0444  0.0953  1.1285
16838TIP3    H250437   3.776   4.126   6.899 -0.5113 -0.1348 -0.7980
16839TIP3   OH250438   4.285   3.919   0.568 -0.0041 -0.3673 -0.0486
16839TIP3    H150439   4.209   3.934   0.512 -0.5329  0.0086  0.7514
16839TIP3    H250440   4.315   4.007   0.591  0.2312 -0.5204  0.2400
16840TIP3   OH250441   3.293   6.192   2.244 -0.1987  0.1167  0.4927
16840TIP3    H150442   3.266   6.252   2.174 -0.4251 -1.1744 -0.5677
16840TIP3    H250443   3.387   6.210   2.256  0.3620 -1.0439 -1.6442
16841TIP3   OH250444   5.180   2.216   0.210  0.2413 -0.1473  0.0124
16841TIP3    H150445   5.225   2.197   0.292 -1.2774 -0.9904  0.6939
16841TIP3    H250446   5.087   2.220   0.233 -0.0808  1.5298 -1.3358
16842TIP3   OH250447   4.178   0.211   6.150  0.6460 -0.0399 -0.2998
16842TIP3    H150448   4.184   0.213   6.246  1.2375 -1.3019 -0.2880
16842TIP3    H250449   4.127   0.132   6.131  2.1660 -0.8907 -1.0531
16843TIP3   OH250450   1.739   2.886   5.652  0.0069  0.1491 -0.2898
16843TIP3    H150451   1.747   2.873   5.746  0.0894 -1.1728 -0.4681
16843TIP3    H250452   1.685   2.813   5.621  0.2572  0.3703 -1.3139
16844TIP3   OH250453   6.809   4.763   6.184 -0.7294  0.6103 -0.0550
16844TIP3    H150454   6.899   4.785   6.158 -1.4167  0.7458 -2.4751
16844TIP3    H250455   6.820   4.698   6.253  1.2247  1.5771  0.6341
16845TIP3   OH250456   2.756   7.053   0.770 -0.3014 -0.8930 -0.3374
16845TIP3    H150457   2.748   7.004   0.851 -1.2712  0.7644  0.6324
16845TIP3    H250458   2.796   7.136   0.795  0.2043 -0.6879 -1.7120
16846TIP3   OH250459   1.557   0.113   5.814  0.0805  0.4431  0.2062
16846TIP3    H150460   1.606   0.033   5.836  1.6656  1.6333  1.2176
16846TIP3    H250461   1.606   0.183   5.857 -1.6269  1.9036 -0.1331
16847TIP3   OH250462   3.698   7.543   4.122 -1.0567  0.5270 -0.1136
16847TIP3    H150463   3.684   7.620   4.066  1.8441  0.0440 -1.7502
16847TIP3    H250464   3.770   7.569   4.180 -0.3926 -0.7136 -0.3394
16848TIP3   OH250465   6.518   6.216   0.294 -0.7238 -0.2782 -0.5117
16848TIP3    H150466   6.571   6.290   0.325  1.2519 -2.3980  1.6201
16848TIP3    H250467   6.582   6.157   0.253 -2.2254 -0.9112 -2.0493
16849TIP3   OH250468   3.792   6.145   6.501  0.0822  0.1809  0.0932
16849TIP3    H150469   3.768   6.067   6.451  0.9036 -0.2397  0.3434
16849TIP3    H250470   3.880   6.167   6.472 -0.4981  1.6228 -0.7047
16850TIP3   OH250471   2.314   8.134   4.495  0.2895 -0.3188 -0.2526
16850TIP3    H150472   2.379   8.189   4.540 -1.1293  1.3896 -0.2008
16850TIP3    H250473   2.303   8.176   4.410 -0.0096 -1.1994 -0.6507
16851TIP3   OH250474   5.357   7.713   1.936 -0.3357 -0.5432  0.4280
16851TIP3    H150475   5.282   7.764   1.905 -0.4915 -0.0415  1.5672
16851TIP3    H250476   5.405   7.690   1.856 -1.2385 -0.1428 -0.2498
16852TIP3   OH250477   1.991   5.223   2.039 -0.0320  0.4591  0.3923
16852TIP3    H150478   2.053   5.150   2.035 -2.1356 -1.4561  0.3313
16852TIP3    H250479   2.006   5.263   2.124  2.2542  1.0513 -0.2240
16853TIP3   OH250480   2.758   1.804   2.140 -0.0121  0.2042 -0.2653
16853TIP3    H150481   2.834   1.830   2.191 -0.5313 -0.8305  1.1245
16853TIP3    H250482   2.781   1.719   2.104 -0.4100 -0.0005 -0.0430
16854TIP3   OH250483   1.791   0.362   1.321  0.0321  0.0409  0.1408
16854TIP3    H150484   1.788   0.276   1.279  0.1819  0.9180 -1.8049
16854TIP3    H250485   1.700   0.383   1.341 -0.1630  0.0155 -0.6873
16855TIP3   OH250486   6.570   0.900   4.578 -0.1675 -0.0754 -0.4994
16855TIP3    H150487   6.529   0.869   4.659  0.8164  0.9867  0.4468
16855TIP3    H250488   6.509   0.964   4.543 -0.1625  0.1873 -0.0452
16856TIP3   OH250489   6.612   5.029   1.700  0.3365 -0.3942  0.0344
16856TIP3    H150490   6.616   5.040   1.605 -3.2951  0.4305 -0.1477
16856TIP3    H250491   6.597   4.935   1.713 -0.1467 -0.3591 -0.2673
16857TIP3   OH250492   3.893   2.361   4.221  0.7273 -0.2341  0.1554
16857TIP3    H150493   3.839   2.435   4.193  2.9890  0.9429 -1.4456
16857TIP3    H250494   3.882   2.357   4.316 -1.3233  0.5639  0.0007
16858TIP3   OH250495   5.941   7.583   1.741 -0.2272  0.4598 -0.0613
16858TIP3    H150496   5.868   7.640   1.764  0.0516  1.2686 -1.0773
16858TIP3    H250497   6.001   7.640   1.693  0.1387 -0.6492 -0.9634
16859TIP3   OH250498   1.104   5.853   5.119  0.8362  0.1892 -0.2393
16859TIP3    H150499   1.194   5.823   5.131  1.1755  0.7864 -1.1369
16859TIP3    H250500   1.066   5.791   5.057  0.6019 -0.1082  0.2002
16860TIP3   OH250501   5.644   1.006   2.129  0.3866 -0.6698 -0.2885
16860TIP3    H150502   5.708   1.014   2.058  0.4038  0.0732 -0.1929
16860TIP3    H250503   5.672   0.927   2.176  0.0995 -1.4347 -1.3651
16861TIP3   OH250504   4.575   4.029   2.541  0.1254 -0.3500 -0.3816
16861TIP3    H150505   4.592   4.007   2.449  0.2413 -1.1755 -0.1771
16861TIP3    H250506   4.661   4.035   2.581  0.0685 -0.2739 -0.2699
16862TIP3   OH250507   2.205   3.838   6.734 -0.1540 -0.0076 -0.1837
16862TIP3    H150508   2.193   3.880   6.649  0.6988  1.1684  0.2534
16862TIP3    H250509   2.257   3.901   6.785 -1.0840 -0.4440  1.3867
16863TIP3   OH250510   1.995   4.431   4.930 -0.0170  0.3237 -0.2350
16863TIP3    H150511   1.953   4.371   4.868  0.5221  0.1797 -0.4677
16863TIP3    H250512   1.949   4.415   5.012 -0.2363 -0.0299 -0.4186
16864TIP3   OH250513   2.383   7.878   5.479  0.4116 -0.1890 -0.0436
16864TIP3    H150514   2.468   7.905   5.513  0.6837  1.2539 -1.6916
16864TIP3    H250515   2.400   7.857   5.387 -1.2420  1.7021 -0.8469
16865TIP3   OH250516   1.015   4.875   5.713 -0.6033 -0.1260 -0.2996
16865TIP3    H150517   1.069   4.805   5.750 -0.7805 -0.2363 -0.2504
16865TIP3    H250518   1.070   4.953   5.721  0.0547 -0.4527 -1.4088
16866TIP3   OH250519   4.499   7.329   4.299  0.0358 -0.4588  0.1111
16866TIP3    H150520   4.553   7.321   4.377 -0.7829  0.8719  0.8695
16866TIP3    H250521   4.561   7.341   4.227  0.7808 -0.6270  0.7230
16867TIP3   OH250522   0.333   4.672   1.331 -0.5157 -0.1536  0.1718
16867TIP3    H150523   0.307   4.580   1.319  1.8338 -0.8920  0.2443
16867TIP3    H250524   0.404   4.685   1.269  0.1850  1.1705  1.2112
16868TIP3   OH250525   6.150   8.009   1.080 -0.0890 -0.1802 -0.0362
16868TIP3    H150526   6.185   8.040   0.996 -2.1199  1.0738 -0.4848
16868TIP3    H250527   6.085   8.074   1.104 -0.8950 -1.5159  1.5895
16869TIP3   OH250528   5.022   5.912   3.767  0.6246  0.0293 -0.1325
16869TIP3    H150529   4.956   5.843   3.766 -0.6721  1.2049  0.2136
16869TIP3    H250530   4.993   5.972   3.698 -1.3076  2.8542  2.8339
16870TIP3   OH250531   6.200   5.581   4.940 -0.0794  0.4275 -0.1788
16870TIP3    H150532   6.184   5.581   5.035  1.6950  0.8125  0.1548
16870TIP3    H250533   6.172   5.667   4.911  1.3255  1.1210  0.4042
16871TIP3   OH250534   3.771   3.096   1.305  0.0051 -0.2473 -0.3279
16871TIP3    H150535   3.816   3.029   1.254  0.3222 -0.6627  0.4753
16871TIP3    H250536   3.685   3.058   1.324  0.2066 -0.4520  0.1779
16872TIP3   OH250537   6.666   5.982   6.641 -0.3674 -0.2096  0.0270
16872TIP3    H150538   6.635   5.915   6.580 -1.5292 -0.1456  0.5136
16872TIP3    H250539   6.732   5.938   6.694  1.5327  0.0347 -1.9705
16873TIP3   OH250540   4.501   4.208   6.133  0.1746  0.6011 -0.5828
16873TIP3    H150541   4.572   4.158   6.092 -0.4246 -1.0628  0.3398
16873TIP3    H250542   4.423   4.186   6.080 -0.3064 -0.3719  0.4869
16874TIP3   OH250543   1.913   1.854   3.377 -0.2861 -0.6973 -0.5359
16874TIP3    H150544   1.864   1.879   3.299 -1.8704 -1.2048  0.2607
16874TIP3    H250545   1.936   1.763   3.362 -0.1401 -0.6463 -0.6266
16875TIP3   OH250546   6.213   6.436   4.650  0.2334  0.1008 -0.1712
16875TIP3    H150547   6.175   6.489   4.720  0.2515 -0.2906  0.1329
16875TIP3    H250548   6.246   6.358   4.693  0.3379 -0.0968 -0.6013
16876TIP3   OH250549   1.150   0.775   3.066 -0.0267  0.1555 -0.1022
16876TIP3    H150550   1.113   0.720   3.135 -0.7610 -0.1959 -0.7605
16876TIP3    H250551   1.083   0.778   2.999  1.4184 -1.1431 -1.6960
16877TIP3   OH250552   5.493   5.416   3.396  0.6274 -0.1011 -0.7448
16877TIP3    H150553   5.564   5.353   3.411  1.4916  0.8572 -0.7151
16877TIP3    H250554   5.429   5.397   3.464  1.3950 -0.2290 -0.0411
16878TIP3   OH250555   8.304   0.750   6.933  0.4657 -0.2723 -0.1258
16878TIP3    H150556   8.312   0.731   6.840  0.7548  0.3537 -0.2291
16878TIP3    H250557   8.263   0.837   6.937  0.4031 -0.3194  0.3314
16879TIP3   OH250558   2.820   5.219   5.100  0.1056  0.1079  0.5392
16879TIP3    H150559   2.845   5.271   5.177  0.7728  0.8446 -0.1580
16879TIP3    H250560   2.732   5.250   5.077  0.8957  1.7217 -0.4903
16880TIP3   OH250561   2.831   0.352   2.460  0.0381  0.1064  0.1764
16880TIP3    H150562   2.755   0.306   2.497 -0.6591 -1.1449 -2.5201
16880TIP3    H250563   2.899   0.285   2.456  0.1779  0.2819 -0.5048
16881TIP3   OH250564   2.868   2.918   6.728 -0.8945 -0.3793  0.1235
16881TIP3    H150565   2.839   3.008   6.735 -0.8724 -0.4441  1.2015
16881TIP3    H250566   2.847   2.893   6.638 -0.6519  0.7730 -0.2692
16882TIP3   OH250567   7.423   3.619   5.572  0.0905  0.2791  0.2190
16882TIP3    H150568   7.328   3.625   5.573  0.0318  0.1376 -1.7510
16882TIP3    H250569   7.442   3.528   5.593 -0.1345  0.5170  1.5702
16883TIP3   OH250570   0.593   2.861   2.808 -0.2153 -1.1372 -0.3679
16883TIP3    H150571   0.543   2.830   2.732 -0.9901  1.0516 -0.8064
16883TIP3    H250572   0.542   2.833   2.884 -1.1911 -0.4690 -0.7649
16884TIP3   OH250573   1.087   6.541   3.253 -0.4230  0.1831  0.3105
16884TIP3    H150574   1.054   6.556   3.342 -1.4200  0.3513 -0.0697
16884TIP3    H250575   1.008   6.529   3.200  0.1672 -0.2163 -0.5028
16885TIP3   OH250576   4.979   4.043   6.152  0.2945 -0.0810  0.3889
16885TIP3    H150577   4.989   4.056   6.247 -0.9060 -1.4778  0.7347
16885TIP3    H250578   5.047   3.979   6.130  2.0736  1.8709 -0.1686
16886TIP3   OH250579   3.916   1.262   3.932  0.0488  0.1643  0.6817
16886TIP3    H150580   3.875   1.187   3.888 -0.1554  0.3954  0.4751
16886TIP3    H250581   4.009   1.251   3.916 -0.0502  0.4666 -0.1695
16887TIP3   OH250582   2.554   3.822   5.412  0.3841 -0.0690 -0.1485
16887TIP3    H150583   2.588   3.905   5.446 -0.4736  0.1849  0.1138
16887TIP3    H250584   2.587   3.818   5.322 -0.0485  0.8447 -0.3599
16888TIP3   OH250585   7.840   5.702   3.928 -0.1079 -0.3701 -0.6257
16888TIP3    H150586   7.807   5.722   4.016  1.8173 -0.8465  0.2530
16888TIP3    H250587   7.847   5.788   3.885  2.3119  0.3293  0.9736
16889TIP3   OH250588   7.569   7.614   6.072 -0.1236 -0.0035  0.6189
16889TIP3    H150589   7.551   7.527   6.034  0.1480  0.1540  0.1198
16889TIP3    H250590   7.482   7.652   6.084 -0.2487 -0.3608  0.8781
16890TIP3   OH250591   0.340   3.334   0.588  0.3890 -0.1094  0.9325
16890TIP3    H150592   0.295   3.373   0.513  2.8007 -0.1597 -0.6459
16890TIP3    H250593   0.291   3.254   0.607  0.7855 -1.1202 -1.8601
16891TIP3   OH250594   8.007   1.302   2.034 -0.4839 -0.2997 -0.5793
16891TIP3    H150595   8.012   1.233   2.100 -2.3364 -0.7324 -0.8555
16891TIP3    H250596   8.040   1.261   1.954  2.2085  0.3569  0.0782
16892TIP3   OH250597   4.763   0.650   3.439 -0.7027 -0.8147  0.1155
16892TIP3    H150598   4.847   0.619   3.406 -0.5385 -1.7110  1.2960
16892TIP3    H250599   4.700   0.625   3.372 -0.0133  0.1884 -0.9550
16893TIP3   OH250600   7.525   6.035   5.576 -0.3287 -0.0684 -0.0175
16893TIP3    H150601   7.436   6.058   5.551 -0.8169 -0.4856  1.2601
16893TIP3    H250602   7.551   6.104   5.637  0.1238 -0.1163 -0.1519
16894TIP3   OH250603   1.439   7.421   3.239 -0.5696 -0.1498 -0.1026
16894TIP3    H150604   1.386   7.345   3.215 -0.8572 -0.1460  0.4893
16894TIP3    H250605   1.396   7.495   3.196 -0.1787 -0.3384 -0.8383
16895TIP3   OH250606   6.624   3.650   7.026  0.0572  0.0139  0.0781
16895TIP3    H150607   6.562   3.658   6.954  0.8671  0.2390 -0.6161
16895TIP3    H250608   6.705   3.621   6.984  0.7842  0.9817  0.7717
16896TIP3   OH250609   0.150   2.474   5.908  0.5981 -0.1155  0.1747
16896TIP3    H150610   0.189   2.422   5.837  0.0653  0.0539 -0.2476
16896TIP3    H250611   0.075   2.423   5.937 -0.3463  0.7220 -0.7158
16897TIP3   OH250612   4.218   6.683   4.633  0.3148  0.6742 -0.7973
16897TIP3    H150613   4.169   6.748   4.682 -1.1888  0.0120 -1.3306
16897TIP3    H250614   4.309   6.712   4.636 -0.1736  2.1917 -0.1246
16898TIP3   OH250615   3.351   1.479   6.593  0.2835  0.0001 -0.0312
16898TIP3    H150616   3.374   1.413   6.659  0.4282 -0.3493 -0.4236
16898TIP3    H250617   3.331   1.428   6.514 -0.7229  0.3588 -0.0261
16899TIP3   OH250618   8.574   7.549   0.262 -0.7358 -0.0905 -0.5232
16899TIP3    H150619   8.587   7.631   0.309  2.4361  0.1011 -1.4934
16899TIP3    H250620   8.510   7.500   0.314 -1.7035  2.4159  0.7747
16900TIP3   OH250621   6.090   2.330   0.319 -0.1832 -0.5384 -0.7343
16900TIP3    H150622   6.164   2.382   0.286 -0.4528  2.4251  2.6920
16900TIP3    H250623   6.013   2.368   0.276 -0.0564 -0.8044 -1.1994
16901TIP3   OH250624   4.252   0.663   3.364 -0.0586  0.3008 -0.1841
16901TIP3    H150625   4.283   0.580   3.328  1.4573  0.6891  0.1447
16901TIP3    H250626   4.249   0.723   3.289 -1.9580 -0.2346 -0.5779
16902TIP3   OH250627   3.208   6.497   6.266  0.0043 -0.0406 -0.3912
16902TIP3    H150628   3.271   6.499   6.338  0.0867 -1.5981 -0.3915
16902TIP3    H250629   3.234   6.422   6.214 -2.9325 -1.8960  0.6101
16903TIP3   OH250630   4.470   4.605   2.459  0.5950  0.1562 -0.0625
16903TIP3    H150631   4.522   4.604   2.379 -0.8280 -1.2254 -1.0237
16903TIP3    H250632   4.509   4.538   2.515 -0.4133 -1.2902 -1.0144
16904TIP3   OH250633   8.210   4.232   1.583  0.3667 -0.6154 -0.1969
16904TIP3    H150634   8.191   4.138   1.588  1.2650 -0.7473  1.1943
16904TIP3    H250635   8.149   4.272   1.644 -0.0982 -0.2611 -0.8805
16905TIP3   OH250636   7.890   3.890   6.020 -0.0650 -0.3741  0.0054
16905TIP3    H150637   7.927   3.825   5.960 -0.6862 -0.3811 -0.3749
16905TIP3    H250638   7.850   3.839   6.090 -1.5267 -0.4634 -0.8542
16906TIP3   OH250639   3.496   7.114   2.999 -0.0643  0.4193 -0.4512
16906TIP3    H150640   3.552   7.050   3.043  0.6675 -0.2296 -2.2482
16906TIP3    H250641   3.407   7.089   3.024  0.3109  0.0664  0.6062
16907TIP3   OH250642   1.901   3.636   4.194  0.2234 -0.2829  0.3747
16907TIP3    H150643   1.859   3.553   4.172 -1.6907  0.5641  0.6423
16907TIP3    H250644   1.901   3.686   4.113 -0.8497  0.3386  0.7276
16908TIP3   OH250645   2.705   2.402   1.331  0.7270  0.2424  0.6338
16908TIP3    H150646   2.620   2.430   1.296  1.8563  1.9864 -0.9155
16908TIP3    H250647   2.714   2.311   1.303 -1.0082 -0.2883  1.6436
16909TIP3   OH250648   4.882   6.685   7.011 -0.1540  0.3620  0.1391
16909TIP3    H150649   4.961   6.679   6.957  0.3704  1.9077  0.6746
16909TIP3    H250650   4.858   6.778   7.006 -1.1623  0.1567  1.0664
16910TIP3   OH250651   0.630   6.847   5.405 -0.2404  0.6455  0.2076
16910TIP3    H150652   0.562   6.843   5.473 -0.3918 -1.0972  0.0138
16910TIP3    H250653   0.586   6.883   5.329 -0.8902 -0.1361  0.1912
16911TIP3   OH250654   6.757   3.572   1.277  0.1280  0.0319 -0.3090
16911TIP3    H150655   6.676   3.567   1.328 -0.5510  0.7375 -1.2772
16911TIP3    H250656   6.827   3.569   1.342 -0.5935 -2.4391  0.4410
16912TIP3   OH250657   2.517   5.158   0.962  0.2898  0.0558  0.3369
16912TIP3    H150658   2.544   5.153   0.870 -2.4869  1.2711 -0.6546
16912TIP3    H250659   2.473   5.075   0.979 -0.0913  0.2339  0.2326
16913TIP3   OH250660   1.966   6.953   1.394  0.1478  0.3903 -0.6320
16913TIP3    H150661   1.951   6.965   1.488 -0.8841  0.1916 -0.7628
16913TIP3    H250662   2.040   6.892   1.389  0.2982  0.5078  0.0421
16914TIP3   OH250663   7.008   6.410   3.689 -0.0073  0.3305  0.3302
16914TIP3    H150664   6.965   6.454   3.763  0.3716  0.1494  0.6594
16914TIP3    H250665   6.962   6.443   3.612 -0.0676  0.9052  0.6110
16915TIP3   OH250666   1.319   4.735   3.306  0.7209  0.5448 -0.1058
16915TIP3    H150667   1.275   4.812   3.343 -1.1046 -0.6404  0.3051
16915TIP3    H250668   1.368   4.698   3.379  0.5678  0.6019  0.0263
16916TIP3   OH250669   3.550   3.716   6.682  0.3494  0.2300 -0.2203
16916TIP3    H150670   3.599   3.689   6.760 -0.1988 -0.3046 -0.0559
16916TIP3    H250671   3.468   3.667   6.687  0.6143 -0.3753 -1.5274
16917TIP3   OH250672   8.498   5.730   3.434 -0.1775 -0.1158  0.7839
16917TIP3    H150673   8.511   5.790   3.360 -0.7768  1.2607  1.7517
16917TIP3    H250674   8.500   5.787   3.511 -1.0229 -1.3169  1.7254
16918TIP3   OH250675   4.568   7.380   6.469 -0.3359 -0.1166  0.0049
16918TIP3    H150676   4.515   7.438   6.524 -1.1295 -0.0524 -0.8035
16918TIP3    H250677   4.508   7.350   6.400  0.8244  0.4137 -1.2834
16919TIP3   OH250678   3.033   0.160   0.574 -0.3601 -0.4123  0.4194
16919TIP3    H150679   3.115   0.177   0.528 -0.9443 -0.2395 -0.6012
16919TIP3    H250680   3.018   0.238   0.627  0.0650 -0.3867  0.5010
16920TIP3   OH250681   4.349   5.453   2.991 -0.2577 -0.1954 -0.0297
16920TIP3    H150682   4.429   5.503   3.009 -0.3450 -0.4673  1.2321
16920TIP3    H250683   4.278   5.516   3.005 -0.2868 -0.0460 -0.8109
16921TIP3   OH250684   0.924   5.765   6.843  0.1809  0.1467 -0.1961
16921TIP3    H150685   0.903   5.853   6.812 -1.5137  0.2599  1.0773
16921TIP3    H250686   0.923   5.774   6.939 -0.0577 -1.2615 -0.0547
16922TIP3   OH250687   8.376   7.299   3.872 -0.1510 -0.5181 -0.4762
16922TIP3    H150688   8.456   7.253   3.848  1.1939  0.3080  2.0341
16922TIP3    H250689   8.321   7.232   3.913  0.0638 -0.7050 -0.4914
16923TIP3   OH250690   0.376   0.272   0.960  0.3658 -0.1881  0.2377
16923TIP3    H150691   0.462   0.231   0.952  1.0437  1.0158  1.0574
16923TIP3    H250692   0.389   0.362   0.929 -0.3955  0.2379  1.1186
16924TIP3   OH250693   6.520   4.149   4.021  0.6700  0.0149 -0.7347
16924TIP3    H150694   6.430   4.166   3.993  0.4170 -1.7578 -1.1429
16924TIP3    H250695   6.541   4.221   4.080 -1.3085  0.0742 -0.0267
16925TIP3   OH250696   3.080   1.821   4.657  0.4686  0.1176  0.4726
16925TIP3    H150697   3.103   1.914   4.661 -1.8699  0.7370  2.7956
16925TIP3    H250698   3.140   1.779   4.719 -0.0267  0.5431  1.2690
16926TIP3   OH250699   0.158   2.867   0.615 -0.5780 -0.1516 -0.1222
16926TIP3    H150700   0.076   2.910   0.592 -0.0748  0.8853 -0.0072
16926TIP3    H250701   0.208   2.933   0.662  0.3259 -0.7725 -0.1879
16927TIP3   OH250702   4.536   6.006   3.683  0.0627 -0.1463 -0.5509
16927TIP3    H150703   4.490   6.021   3.766  0.1459 -1.5476 -0.2313
16927TIP3    H250704   4.539   5.911   3.674 -0.2635 -0.0097 -2.3613
16928TIP3   OH250705   7.980   6.137   5.974  0.6176 -0.0736 -0.4483
16928TIP3    H150706   7.998   6.082   6.050 -1.8693  0.3039  0.5261
16928TIP3    H250707   8.022   6.221   5.994 -0.0745  0.0461  0.5916
16929TIP3   OH250708   6.419   6.954   2.888  0.4781  0.4309 -0.1170
16929TIP3    H150709   6.342   7.004   2.862  0.1085  0.8797  1.6690
16929TIP3    H250710   6.394   6.862   2.877 -0.6055  0.5496  1.1341
16930TIP3   OH250711   0.469   1.758   5.979 -0.7255 -0.4964 -0.6372
16930TIP3    H150712   0.550   1.755   5.927 -1.5935 -0.4550 -2.0636
16930TIP3    H250713   0.449   1.666   5.996 -0.8846 -0.5632 -1.1452
16931TIP3   OH250714   6.914   7.067   2.623 -0.9329 -0.5112 -0.2066
16931TIP3    H150715   6.922   7.141   2.562  2.3154 -0.0328  0.6541
16931TIP3    H250716   6.901   7.108   2.709  0.9742 -0.8635  0.2872
16932TIP3   OH250717   4.609   0.073   1.816  0.3215  0.5319  0.0344
16932TIP3    H150718   4.572   0.115   1.894 -0.2215  1.0022 -0.4700
16932TIP3    H250719   4.600  -0.021   1.832 -1.3152  0.6256 -0.1702
16933TIP3   OH250720   7.848   6.208   1.615  0.2602  0.0942  0.6270
16933TIP3    H150721   7.825   6.293   1.654 -1.3728 -0.6024  1.2808
16933TIP3    H250722   7.817   6.144   1.679 -2.2403 -1.0994 -1.6082
16934TIP3   OH250723   1.191   2.327   1.862  0.3624  0.4541 -0.7174
16934TIP3    H150724   1.214   2.363   1.948 -0.2045 -1.4431  0.2888
16934TIP3    H250725   1.264   2.268   1.841  1.0342  1.7127 -2.0879
16935TIP3   OH250726   6.990   0.474   6.948  0.5910 -0.5439 -0.0097
16935TIP3    H150727   7.014   0.557   6.907  0.1663 -0.6571 -0.4996
16935TIP3    H250728   7.023   0.481   7.037  1.9129 -0.4541 -0.4813
16936TIP3   OH250729   4.974   7.977   6.895 -0.4418  0.1887 -0.2302
16936TIP3    H150730   4.937   7.889   6.885  1.2354 -0.6512  0.6049
16936TIP3    H250731   4.963   8.017   6.809 -1.8304 -0.5849 -0.4414
16937TIP3   OH250732   1.337   3.013   6.313 -0.1705 -0.0860 -0.5386
16937TIP3    H150733   1.413   2.988   6.365 -1.0163  0.4165  0.9860
16937TIP3    H250734   1.370   3.016   6.223  1.9845  1.5395  0.2147
16938TIP3   OH250735   0.060   3.418   2.400 -0.2728  0.3526 -0.4983
16938TIP3    H150736   0.147   3.441   2.431  0.0939 -0.3409 -0.9732
16938TIP3    H250737   0.035   3.489   2.341 -0.5448  1.1562  0.5504
16939TIP3   OH250738   4.500   3.555   6.829  0.2050 -0.5545  0.0022
16939TIP3    H150739   4.501   3.563   6.733  0.2537  0.7497  0.0929
16939TIP3    H250740   4.592   3.544   6.853  0.5542  2.0371  0.0767
16940TIP3   OH250741   2.621   5.818   5.493 -0.7287  0.0422 -0.5165
16940TIP3    H150742   2.667   5.858   5.567 -0.1364 -0.5033 -0.5820
16940TIP3    H250743   2.678   5.834   5.418 -0.0229 -1.6979 -0.3896
16941TIP3   OH250744   6.091   3.460   5.421 -0.2556  0.1760  0.5890
16941TIP3    H150745   6.063   3.539   5.374 -0.3140  0.7812  1.6286
16941TIP3    H250746   6.147   3.414   5.358 -1.2425  0.3882 -0.4828
16942TIP3   OH250747   6.355   2.899   1.562  0.1226  0.2500  0.5525
16942TIP3    H150748   6.310   2.980   1.584 -0.0347  0.4157 -0.3313
16942TIP3    H250749   6.308   2.866   1.485  0.9117 -0.0701  0.1931
16943TIP3   OH250750   4.511   3.123   6.338 -0.3400 -0.6250 -0.1904
16943TIP3    H150751   4.530   3.089   6.251 -0.8346 -1.5263  0.0461
16943TIP3    H250752   4.515   3.047   6.396  0.7089  0.0672  0.7037
16944TIP3   OH250753   1.909   5.855   5.532  0.0948 -0.1597 -0.7251
16944TIP3    H150754   1.857   5.868   5.452  0.7719 -0.1584 -1.1741
16944TIP3    H250755   2.000   5.863   5.503  0.3399  0.4364  0.1543
16945TIP3   OH250756   2.624   3.685   3.442  0.2149  0.4674 -0.0089
16945TIP3    H150757   2.649   3.633   3.520 -0.7269  1.0916  0.7285
16945TIP3    H250758   2.707   3.723   3.412  1.1626 -2.3524 -1.2840
16946TIP3   OH250759   4.927   4.755   2.142  0.3169 -0.0973 -0.4643
16946TIP3    H150760   4.903   4.848   2.138  1.4615  0.1854 -1.0397
16946TIP3    H250761   5.022   4.754   2.133  0.5886 -1.1805  1.8223
16947TIP3   OH250762   0.394   2.529   5.645 -0.5998  0.3784 -0.0371
16947TIP3    H150763   0.415   2.479   5.566  1.9006 -0.5607  1.0879
16947TIP3    H250764   0.450   2.490   5.713 -0.9672  2.6107  1.6644
16948TIP3   OH250765   5.920   2.341   4.226  0.1516 -0.1567  0.5022
16948TIP3    H150766   5.968   2.404   4.281  2.1972 -1.7667  0.6730
16948TIP3    H250767   5.924   2.378   4.138  1.4786 -0.0766  0.5719
16949TIP3   OH250768   7.185   5.687   3.608 -0.1508  0.0730 -0.4265
16949TIP3    H150769   7.242   5.664   3.535  0.3124  0.3995 -0.1748
16949TIP3    H250770   7.203   5.620   3.674  0.6731  0.7144  0.0292
16950TIP3   OH250771   5.415   4.454   5.106  0.2082  0.9879  0.0003
16950TIP3    H150772   5.343   4.464   5.043  1.6450 -0.1927 -1.9643
16950TIP3    H250773   5.404   4.365   5.140  1.4866  0.2573 -1.3944
16951TIP3   OH250774   0.759   6.945   3.421 -0.2279 -0.1164  0.0334
16951TIP3    H150775   0.701   7.001   3.370 -0.8580 -0.3222  0.5182
16951TIP3    H250776   0.801   7.004   3.483 -0.4239 -0.0764  0.1286
16952TIP3   OH250777   4.487   7.695   3.408 -0.5575  0.1480  0.2675
16952TIP3    H150778   4.393   7.683   3.422 -0.6363  0.8775  0.4074
16952TIP3    H250779   4.521   7.607   3.398 -0.5340 -0.6075  4.7645
16953TIP3   OH250780   5.865   6.354   0.069  0.2981 -0.0964 -0.5735
16953TIP3    H150781   5.888   6.268   0.033  0.2066 -0.4672  0.2438
16953TIP3    H250782   5.949   6.395   0.089  0.3316 -0.1441 -0.6151
16954TIP3   OH250783   6.559   5.396   1.728  0.0643  0.2029  0.0414
16954TIP3    H150784   6.498   5.468   1.713  1.9837  1.7083 -0.9363
16954TIP3    H250785   6.527   5.354   1.808 -1.7639  1.4265  0.0081
16955TIP3   OH250786   2.754   4.759   4.624 -0.2707  0.2852  0.3217
16955TIP3    H150787   2.842   4.723   4.623 -0.2376  0.3652  0.3752
16955TIP3    H250788   2.697   4.683   4.635 -0.3652 -0.0949 -2.2648
16956TIP3   OH250789   1.069   7.805   7.019 -0.2175 -0.7991 -0.1608
16956TIP3    H150790   1.093   7.889   6.980 -1.4302  0.0632  0.8600
16956TIP3    H250791   1.129   7.794   7.092 -0.0097 -0.8679 -0.3401
16957TIP3   OH250792   1.850   5.206   5.552  0.1699 -0.1098 -0.0417
16957TIP3    H150793   1.940   5.230   5.576  0.2881 -1.2486  0.7348
16957TIP3    H250794   1.812   5.174   5.634 -0.6333 -0.5413 -0.5840
16958TIP3   OH250795   8.667   5.369   5.394 -0.0440  0.5838  0.3237
16958TIP3    H150796   8.657   5.448   5.341 -0.8401  0.7140  0.6485
16958TIP3    H250797   8.598   5.377   5.461  0.2054 -0.1329  0.6674
16959TIP3   OH250798   2.744   6.243   2.687  0.1649  0.9039 -0.0877
16959TIP3    H150799   2.700   6.325   2.665 -0.2140  0.9654  0.8796
16959TIP3    H250800   2.775   6.254   2.776 -1.4568 -0.6385  0.7315
16960TIP3   OH250801   7.831   4.632   3.690  0.2307  0.1283  0.6952
16960TIP3    H150802   7.922   4.661   3.705 -0.0633  1.2143  0.4542
16960TIP3    H250803   7.800   4.687   3.619 -0.2898 -0.9863  0.0334
16961TIP3   OH250804   3.420   5.207   2.271  0.1627 -0.2552 -0.1758
16961TIP3    H150805   3.424   5.263   2.193 -0.3271  1.5283  1.0183
16961TIP3    H250806   3.367   5.132   2.244 -1.9195  1.4049 -0.9569
16962TIP3   OH250807   7.057   2.189   5.665  0.4385 -0.5149  0.4625
16962TIP3    H150808   7.033   2.117   5.607  0.4152  0.3236 -0.5956
16962TIP3    H250809   6.977   2.209   5.714  0.3475 -0.9546  0.4922
16963TIP3   OH250810   0.051   0.392   1.185 -0.7658 -0.4248 -0.0993
16963TIP3    H150811  -0.040   0.400   1.213 -1.0909 -0.3732 -1.1180
16963TIP3    H250812   0.069   0.298   1.184 -0.3158 -0.3901  1.5471
16964TIP3   OH250813   6.805   7.004   2.301 -0.8734 -0.0339  0.3010
16964TIP3    H150814   6.727   7.057   2.313 -0.7548  0.6173 -1.5002
16964TIP3    H250815   6.868   7.063   2.259  0.4414 -0.6613  1.3289
16965TIP3   OH250816   3.904   4.312   6.010 -0.1432 -0.1751 -0.1626
16965TIP3    H150817   3.814   4.334   5.987 -0.6174 -1.1385  0.6818
16965TIP3    H250818   3.944   4.396   6.034 -1.6441 -0.0415  2.1358
16966TIP3   OH250819   7.273   3.195   0.780 -0.1947 -0.0205  0.0459
16966TIP3    H150820   7.343   3.181   0.844 -1.5684 -0.7012  1.4796
16966TIP3    H250821   7.281   3.286   0.755  0.7790  0.0959  0.7193
16967TIP3   OH250822   7.005   3.924   1.869  0.2968  0.9313 -0.5789
16967TIP3    H150823   6.922   3.898   1.831 -0.5568  0.5711  1.4144
16967TIP3    H250824   7.053   3.841   1.881  0.0294  0.8937  0.2797
16968TIP3   OH250825   6.434   2.010   5.700 -0.1420 -0.1375  0.2335
16968TIP3    H150826   6.477   2.024   5.784 -0.5257 -1.1943  0.6361
16968TIP3    H250827   6.415   2.098   5.666  0.8125  0.3035  0.8282
16969TIP3   OH250828   6.290   4.037   5.086 -0.0723  0.2986  0.3020
16969TIP3    H150829   6.265   4.103   5.150 -1.0499 -0.0199  0.2612
16969TIP3    H250830   6.277   3.953   5.131  0.0675  0.0995 -0.0242
16970TIP3   OH250831   8.554   7.130   0.729 -0.5804 -0.2239 -0.1375
16970TIP3    H150832   8.487   7.072   0.767 -1.1860  0.5779  0.0330
16970TIP3    H250833   8.521   7.218   0.744 -0.4378  0.1481 -1.8324
16971TIP3   OH250834   4.656   7.056   2.237 -0.0562 -0.1446  0.1995
16971TIP3    H150835   4.603   7.009   2.301 -0.8273  1.8909  1.1642
16971TIP3    H250836   4.729   7.091   2.288 -0.3403  0.9749 -0.1312
16972TIP3   OH250837   8.420   7.192   0.190 -0.2736 -0.8046 -0.1626
16972TIP3    H150838   8.438   7.146   0.272 -0.2164  1.1235  0.9765
16972TIP3    H250839   8.351   7.255   0.213  0.0166  0.0364 -1.4870
16973TIP3   OH250840   5.836   6.352   7.021 -0.1015 -0.4390 -0.0020
16973TIP3    H150841   5.819   6.433   6.972 -0.2864 -0.5541 -0.1283
16973TIP3    H250842   5.894   6.302   6.964  0.5291 -0.1239  0.3516
16974TIP3   OH250843   1.008   6.115   2.964  0.3685 -0.1352  0.4955
16974TIP3    H150844   1.086   6.111   3.019 -0.0817  1.6329  1.3597
16974TIP3    H250845   1.029   6.179   2.896 -0.3569  0.4879  0.8391
16975TIP3   OH250846   6.441   0.394   4.380 -0.0306 -0.3717 -0.1192
16975TIP3    H150847   6.444   0.489   4.376  0.4070 -0.4366 -1.7784
16975TIP3    H250848   6.530   0.366   4.357 -0.1712 -1.1894  0.2988
16976TIP3   OH250849   5.033   1.902   1.006 -0.4734  0.0591  0.0672
16976TIP3    H150850   5.114   1.886   1.053 -0.1025  0.6526 -0.3594
16976TIP3    H250851   5.008   1.816   0.971  0.1203 -0.0723 -0.0335
16977TIP3   OH250852   4.827   0.555   2.647 -0.5682 -0.6406 -0.3260
16977TIP3    H150853   4.908   0.510   2.672 -0.7307 -1.0473 -0.5217
16977TIP3    H250854   4.788   0.582   2.730 -0.1521 -0.3085 -0.2414
16978TIP3   OH250855   2.993   3.718   1.716 -0.1415 -0.1568  0.1179
16978TIP3    H150856   2.900   3.740   1.724 -0.1596 -0.3840  0.5832
16978TIP3    H250857   2.994   3.627   1.688 -0.0601  0.1855 -1.0487
16979TIP3   OH250858   5.077   5.809   1.048 -0.0133  0.0126 -0.1002
16979TIP3    H150859   5.039   5.878   1.102  2.7475  0.6164  1.2301
16979TIP3    H250860   5.152   5.850   1.005  0.4575 -1.6407 -0.9549
16980TIP3   OH250861   7.103   4.272   0.326 -1.0020 -0.3641  0.5129
16980TIP3    H150862   7.196   4.277   0.306 -1.3973 -2.0769 -2.2340
16980TIP3    H250863   7.092   4.187   0.369 -1.4039 -0.5474  0.0546
16981TIP3   OH250864   3.568   3.103   2.687  0.2278 -0.2060  0.1383
16981TIP3    H150865   3.573   3.152   2.605 -0.1726 -1.4149 -0.6449
16981TIP3    H250866   3.633   3.033   2.678 -0.4399 -0.8900  0.4641
16982TIP3   OH250867   5.110   1.641   6.624  0.5656  0.2973 -0.4029
16982TIP3    H150868   5.103   1.568   6.686  1.7687  0.3188 -0.2184
16982TIP3    H250869   5.030   1.636   6.572 -0.3061  0.0626  0.9144
16983TIP3   OH250870   6.642   3.092   1.291 -0.4431 -0.7108 -0.0822
16983TIP3    H150871   6.690   3.118   1.369  0.4058  1.9088 -1.3740
16983TIP3    H250872   6.615   3.002   1.308  3.1721 -1.6378  1.5640
16984TIP3   OH250873   1.571   3.473   6.967 -0.0169  0.6472 -0.7151
16984TIP3    H150874   1.657   3.506   6.991  1.0644 -0.8735 -2.2754
16984TIP3    H250875   1.587   3.417   6.892 -2.5326  1.1722 -1.7377
16985TIP3   OH250876   5.372   2.667   0.238  0.0866 -0.7758 -0.0422
16985TIP3    H150877   5.383   2.688   0.145 -1.6736 -1.6226 -0.4805
16985TIP3    H250878   5.454   2.697   0.279  0.0957  1.4726 -1.5165
16986TIP3   OH250879   7.574   0.046   1.746 -0.8052 -0.7424 -0.1702
16986TIP3    H150880   7.636   0.096   1.694 -0.3174  1.0515  1.9947
16986TIP3    H250881   7.593  -0.046   1.725  1.9647 -0.2207 -0.2867
16987TIP3   OH250882   0.984   1.567   3.786  0.2657 -0.1225 -0.3199
16987TIP3    H150883   0.924   1.633   3.820  2.1945  1.0610  0.9814
16987TIP3    H250884   0.937   1.484   3.795 -0.9325  0.6813  1.1886
16988TIP3   OH250885   3.208   3.084   6.338 -0.3372 -0.1603  0.4342
16988TIP3    H150886   3.192   3.019   6.407 -1.2988  0.5339  0.8871
16988TIP3    H250887   3.167   3.164   6.371 -1.2193  0.0707 -1.1453
16989TIP3   OH250888   4.751   4.712   3.954  0.2492  0.4313 -0.2113
16989TIP3    H150889   4.677   4.705   4.014 -1.2589  0.2864 -1.9846
16989TIP3    H250890   4.828   4.694   4.008 -1.1190 -0.8563  1.4299
16990TIP3   OH250891   4.533   2.386   0.513  0.1103  0.0059  0.1960
16990TIP3    H150892   4.504   2.397   0.603  0.5679  0.1117  0.3299
16990TIP3    H250893   4.601   2.453   0.501  0.2663 -0.2097 -0.1323
16991TIP3   OH250894   7.230   3.797   7.022  0.0107 -0.1083 -0.3927
16991TIP3    H150895   7.305   3.737   7.030 -1.5322 -2.0887  0.1857
16991TIP3    H250896   7.255   3.874   7.072  2.7922  0.5880 -2.5932
16992TIP3   OH250897   0.666   3.357   3.361  0.1776  0.0558 -0.1028
16992TIP3    H150898   0.691   3.374   3.452 -0.2221 -1.0129  0.2221
16992TIP3    H250899   0.667   3.443   3.319 -0.7132  0.7182  1.1779
16993TIP3   OH250900   1.321   6.711   4.427  0.3166  0.0876 -0.6643
16993TIP3    H150901   1.391   6.651   4.453 -0.9193 -0.3614  1.9519
16993TIP3    H250902   1.325   6.782   4.491 -0.2985  1.1586 -1.7678
16994TIP3   OH250903   8.005   5.101   2.601 -0.4190  0.6011  0.2969
16994TIP3    H150904   7.969   5.186   2.625 -0.5009  0.6793 -0.0916
16994TIP3    H250905   7.942   5.065   2.539 -1.2656 -0.4913  1.7256
16995TIP3   OH250906   3.534   5.665   1.045 -0.5332 -0.4220  0.2361
16995TIP3    H150907   3.504   5.754   1.026 -1.2699 -0.3684  1.4948
16995TIP3    H250908   3.608   5.677   1.105  2.0019 -0.5656 -2.6309
16996TIP3   OH250909   1.296   0.828   5.169 -0.8324 -0.1821 -0.4973
16996TIP3    H150910   1.334   0.745   5.198 -0.9855  0.0343  0.3304
16996TIP3    H250911   1.358   0.861   5.104  0.5387  0.2737  0.9717
16997TIP3   OH250912   2.275   6.437   2.651  0.0789 -0.4834 -0.0676
16997TIP3    H150913   2.324   6.489   2.586  0.4709 -0.7464  0.0128
16997TIP3    H250914   2.214   6.385   2.599  0.4778 -0.7863 -0.2443
16998TIP3   OH250915   5.115   3.980   3.921 -0.4414 -0.3089  0.2159
16998TIP3    H150916   5.063   4.023   3.853 -0.5436  2.2607  1.7719
16998TIP3    H250917   5.206   3.994   3.896 -0.4811  0.5304  0.5147
16999TIP3   OH250918   0.306   3.643   3.707  0.0441 -0.0092  0.1933
16999TIP3    H150919   0.239   3.631   3.774 -2.7467  1.6431 -2.0910
16999TIP3    H250920   0.334   3.734   3.717  1.0864 -0.3378  0.3505
17000TIP3   OH250921   3.853   5.870   0.674  0.5020  0.1613 -0.3669
17000TIP3    H150922   3.910   5.855   0.599  1.2621 -0.4384  0.3088
17000TIP3    H250923   3.839   5.783   0.711 -2.3973  0.0224 -1.5665
17001TIP3   OH250924   4.357   3.273   5.781  0.3729 -0.0524  0.2611
17001TIP3    H150925   4.357   3.327   5.861  0.3168 -0.2829  0.4155
17001TIP3    H250926   4.400   3.329   5.716 -0.2116  0.4172  0.2643
17002TIP3   OH250927   8.647   7.511   3.995  0.5877  0.0894 -0.2355
17002TIP3    H150928   8.734   7.478   3.971  1.8541  1.8916  1.5186
17002TIP3    H250929   8.628   7.470   4.079  0.4702  0.8857  0.1380
17003TIP3   OH250930   8.232   1.318   4.388  0.1792  0.9848 -0.1222
17003TIP3    H150931   8.238   1.267   4.468 -0.8048  2.5466  1.0078
17003TIP3    H250932   8.285   1.396   4.404 -1.2926  2.0757 -0.3312
17004TIP3   OH250933   0.630   5.472   1.907  0.2656  0.1373 -0.2479
17004TIP3    H150934   0.557   5.413   1.888  0.8825 -0.8748  0.4318
17004TIP3    H250935   0.648   5.515   1.824  0.4099 -1.3496 -1.0309
17005TIP3   OH250936   8.597   4.252   6.098 -0.0278 -0.3529 -0.5172
17005TIP3    H150937   8.633   4.315   6.035  0.2731  0.9952  0.9316
17005TIP3    H250938   8.508   4.236   6.066 -0.6405  1.9828 -0.1707
17006TIP3   OH250939   5.633   1.848   0.885 -0.2018 -0.0363 -0.5463
17006TIP3    H150940   5.538   1.854   0.877 -0.4991 -1.2242  1.4676
17006TIP3    H250941   5.655   1.762   0.849  0.1432  0.2522 -1.0473
17007TIP3   OH250942   3.515   5.364   4.485  0.4037  0.5272 -0.3001
17007TIP3    H150943   3.543   5.452   4.460  1.1417  0.5014  0.4303
17007TIP3    H250944   3.494   5.322   4.401 -1.8867  2.0107 -0.5635
17008TIP3   OH250945   2.478   0.875   4.745 -0.4353 -0.3044  0.3015
17008TIP3    H150946   2.452   0.964   4.721 -0.7108 -0.5735 -0.4298
17008TIP3    H250947   2.452   0.821   4.670 -0.4205 -1.0282  0.8032
17009TIP3   OH250948   0.989   7.134   1.151 -0.1757 -0.2925 -0.0939
17009TIP3    H150949   0.912   7.164   1.103  0.4217  1.2772 -0.1414
17009TIP3    H250950   0.955   7.068   1.212 -1.5994  0.5047  0.0223
17010TIP3   OH250951   3.849   2.020   3.065  0.1294  0.6303  0.0116
17010TIP3    H150952   3.851   2.109   3.031  1.1848  0.9850  0.9491
17010TIP3    H250953   3.799   2.026   3.147  1.3481  0.6385  0.7762
17011TIP3   OH250954   5.793   4.986   2.977  0.0215  0.1407 -0.3143
17011TIP3    H150955   5.849   4.963   2.903  0.4014  1.8309 -0.5985
17011TIP3    H250956   5.829   5.068   3.010 -0.2752 -0.4458  1.6296
17012TIP3   OH250957   5.250   3.003   4.284 -0.4372  0.2360 -0.9062
17012TIP3    H150958   5.311   3.000   4.209  0.0072 -0.2687 -0.5335
17012TIP3    H250959   5.176   2.949   4.256 -0.5428  0.5277 -1.2061
17013TIP3   OH250960   0.947   3.555   0.420 -0.0890 -0.0592 -0.1728
17013TIP3    H150961   0.909   3.603   0.347  0.5032 -2.6656 -2.3725
17013TIP3    H250962   1.029   3.599   0.438 -0.4508  0.8849 -0.7732
17014TIP3   OH250963   1.877   7.922   4.148 -0.5019 -0.0113  0.2868
17014TIP3    H150964   1.901   7.914   4.056 -1.5382 -0.9141  0.0633
17014TIP3    H250965   1.915   7.845   4.190 -0.7959 -0.0798  0.4321
17015TIP3   OH250966   6.131   0.832   6.981  0.0862  0.1368  0.0816
17015TIP3    H150967   6.213   0.827   6.931 -0.3212 -2.9798 -0.4831
17015TIP3    H250968   6.080   0.900   6.937  1.6680  0.8759 -0.6710
17016TIP3   OH250969   2.379   4.923   1.009  0.4497  0.7525 -0.3126
17016TIP3    H150970   2.330   4.877   1.077  0.2119  0.6353 -0.5603
17016TIP3    H250971   2.463   4.878   1.005 -1.0326 -2.1937 -3.1233
17017TIP3   OH250972   8.273   3.164   6.930 -0.2880 -0.4965  0.1979
17017TIP3    H150973   8.277   3.101   7.001 -0.2365 -0.3030  0.3668
17017TIP3    H250974   8.243   3.245   6.971  1.6432  0.1762  0.3949
17018TIP3   OH250975   2.532   4.766   3.244  0.0875  0.5869 -0.4049
17018TIP3    H150976   2.577   4.761   3.160  0.2880 -0.3972 -0.2497
17018TIP3    H250977   2.584   4.712   3.303 -2.6037 -2.9324 -0.8657
17019TIP3   OH250978   2.601   1.685   2.559  0.1161  0.5416  0.6620
17019TIP3    H150979   2.566   1.602   2.527  0.0867  0.9599 -0.4374
17019TIP3    H250980   2.524   1.734   2.589  0.2796 -0.4322  2.8823
17020TIP3   OH250981   8.703   4.347   0.843 -0.1159  0.3891 -0.1867
17020TIP3    H150982   8.620   4.366   0.801 -0.8388 -1.5088  0.2771
17020TIP3    H250983   8.746   4.284   0.785 -1.2286 -2.4579  1.8358
17021TIP3   OH250984   1.679   5.548   5.059  0.4177 -0.1532 -0.2256
17021TIP3    H150985   1.614   5.591   5.005  1.2962 -0.0220 -1.2200
17021TIP3    H250986   1.755   5.536   5.001  1.5737  0.4107  1.1014
17022TIP3   OH250987   5.027   6.299   2.167  0.6641 -0.6208 -0.0183
17022TIP3    H150988   4.968   6.278   2.240  0.0488 -1.5775 -0.7716
17022TIP3    H250989   4.980   6.366   2.117  1.3087  0.4073  0.7262
17023TIP3   OH250990   1.226   1.078   1.295 -0.4639 -0.6439 -0.6658
17023TIP3    H150991   1.192   1.161   1.328  1.3049  0.0765 -0.5481
17023TIP3    H250992   1.235   1.023   1.373 -1.9171 -1.0916 -0.7814
17024TIP3   OH250993   1.495   6.832   6.557  0.1680 -0.2298 -0.3179
17024TIP3    H150994   1.514   6.826   6.463 -2.4144  0.1400 -0.9520
17024TIP3    H250995   1.426   6.767   6.570 -1.1064  1.2934  0.8260
17025TIP3   OH250996   5.849   5.420   5.484 -0.4914  0.0892  0.2130
17025TIP3    H150997   5.813   5.373   5.559  1.4962 -0.2666  1.0110
17025TIP3    H250998   5.773   5.446   5.433 -1.8606 -0.3203  1.9562
17026TIP3   OH250999   1.303   1.034   0.553  0.1799  0.0235  0.3766
17026TIP3    H151000   1.255   0.960   0.517 -0.8134  0.9519 -0.2873
17026TIP3    H251001   1.284   1.032   0.647  0.5041 -0.7970  0.4267
17027TIP3   OH251002   5.089   5.967   4.476 -0.5571  0.0762  0.1483
17027TIP3    H151003   5.034   6.017   4.416 -0.4873  2.1465  1.6585
17027TIP3    H251004   5.171   6.017   4.480 -0.2582 -0.4635  1.2853
17028TIP3   OH251005   5.878   4.652   6.155  0.3136  0.2615 -0.0176
17028TIP3    H151006   5.793   4.684   6.186 -0.3062 -1.0485 -0.2939
17028TIP3    H251007   5.900   4.580   6.214  0.6925 -0.1319 -0.6272
17029TIP3   OH251008   6.497   0.725   1.565  0.0982  0.1267 -0.5510
17029TIP3    H151009   6.577   0.698   1.610 -0.5316  1.6270  1.5796
17029TIP3    H251010   6.426   0.706   1.626 -1.2571 -1.2992 -2.4517
17030TIP3   OH251011   8.587   3.916   4.616  0.5745 -0.2327 -0.1056
17030TIP3    H151012   8.568   3.981   4.549  2.9762 -0.2138 -0.8673
17030TIP3    H251013   8.656   3.956   4.670 -1.4079 -0.1482  2.6020
17031TIP3   OH251014   2.838   3.035   5.642  0.1240  0.3250  0.2353
17031TIP3    H151015   2.892   3.110   5.665 -1.2434  1.2547  0.5343
17031TIP3    H251016   2.864   2.967   5.705  0.0011  1.1902  1.2505
17032TIP3   OH251017   6.671   5.689   4.914  0.0369 -1.1958 -0.2166
17032TIP3    H151018   6.737   5.719   4.852  0.7569 -1.3888  0.4359
17032TIP3    H251019   6.651   5.599   4.887  0.6183 -1.4059  0.0442
17033TIP3   OH251020   6.929   3.351   2.429 -0.1960 -0.1766 -0.1499
17033TIP3    H151021   6.912   3.264   2.394 -0.2473 -0.0277 -0.5017
17033TIP3    H251022   6.870   3.359   2.504  0.4452 -0.7755  0.4312
17034TIP3   OH251023   3.835   1.302   2.782 -0.0431 -0.0406 -0.2485
17034TIP3    H151024   3.850   1.222   2.831 -0.3841 -1.6643 -2.6257
17034TIP3    H251025   3.757   1.284   2.730  0.5450  1.3675 -1.7064
17035TIP3   OH251026   7.723   6.650   4.861  0.2869 -0.7350  0.0446
17035TIP3    H151027   7.771   6.725   4.896 -0.6756 -0.9889  1.9959
17035TIP3    H251028   7.770   6.628   4.780 -1.6030  4.3837 -2.8779
17036TIP3   OH251029   1.850   1.136   2.538 -0.5367  0.6047 -0.0525
17036TIP3    H151030   1.929   1.139   2.592 -0.9035  1.4628  0.4417
17036TIP3    H251031   1.782   1.105   2.596 -0.7119  0.5212 -0.3015
17037TIP3   OH251032   8.285   4.292   3.583  0.5649  0.4543  0.4291
17037TIP3    H151033   8.297   4.299   3.677 -0.2412  0.1462  0.5675
17037TIP3    H251034   8.348   4.226   3.555  0.4341  0.1444  0.8459
17038TIP3   OH251035   8.561   0.294   3.609 -0.1830  0.1786 -0.1423
17038TIP3    H151036   8.613   0.375   3.601  0.6192 -0.2035  0.9734
17038TIP3    H251037   8.625   0.224   3.594 -1.1205 -0.2647 -2.3997
17039TIP3   OH251038   2.844   4.779   5.171  0.2243  0.1187  0.1045
17039TIP3    H151039   2.785   4.734   5.111  2.8215 -0.9195 -1.8647
17039TIP3    H251040   2.862   4.716   5.240 -0.1485  0.0411  0.1290
17040TIP3   OH251041   0.445   0.790   1.219 -0.5089  0.1624 -0.1028
17040TIP3    H151042   0.398   0.859   1.172  0.2230  1.4604  1.0034
17040TIP3    H251043   0.381   0.721   1.230 -1.4770  0.9401 -0.6351
17041TIP3   OH251044   1.200   5.403   6.650  0.5387  0.0527 -0.7289
17041TIP3    H151045   1.168   5.411   6.740 -0.8770 -1.0077 -1.0924
17041TIP3    H251046   1.265   5.472   6.642 -0.2025  0.9942  0.7369
17042TIP3   OH251047   1.228   1.250   3.448  0.0900 -0.0811 -0.1751
17042TIP3    H151048   1.290   1.222   3.515 -0.1821  0.1788  0.1889
17042TIP3    H251049   1.228   1.346   3.453  1.2175  0.0368 -1.5941
17043TIP3   OH251050   1.563   1.217   5.527  0.0611 -0.1311 -0.6370
17043TIP3    H151051   1.548   1.167   5.606 -2.5185  0.0221 -0.9490
17043TIP3    H251052   1.643   1.267   5.545 -0.5209  0.0232  1.9354
17044TIP3   OH251053   7.124   7.025   5.409  0.0850 -0.2712  0.4156
17044TIP3    H151054   7.079   7.012   5.325 -3.2032 -0.8145  2.1242
17044TIP3    H251055   7.165   6.940   5.427 -1.0059 -0.8394  0.3184
17045TIP3   OH251056   0.730   4.436   3.171  0.2106  0.2309 -0.1983
17045TIP3    H151057   0.642   4.454   3.205  0.9804  2.2712  0.9082
17045TIP3    H251058   0.715   4.376   3.098 -1.9644 -0.5187  0.7727
17046TIP3   OH251059   0.481   7.031   0.188  0.0401 -0.2779  0.0920
17046TIP3    H151060   0.454   7.073   0.106 -0.8115  0.1473  0.5732
17046TIP3    H251061   0.533   7.098   0.232  0.4333 -0.4792 -0.0653
17047TIP3   OH251062   3.025   8.171   5.907 -0.7667 -0.2160  0.5432
17047TIP3    H151063   2.981   8.087   5.893 -0.7170 -0.0691 -0.6335
17047TIP3    H251064   2.955   8.230   5.937 -1.3116 -0.1033 -0.8574
17048TIP3   OH251065   6.495   7.776   3.353 -0.4500  0.1111 -0.5155
17048TIP3    H151066   6.446   7.856   3.370  1.2960  0.8065  1.8586
17048TIP3    H251067   6.579   7.805   3.318  1.1477 -0.3315  2.5696
17049TIP3   OH251068   4.307   2.646   5.005 -0.0584  0.6605  1.0145
17049TIP3    H151069   4.339   2.731   5.034 -1.3978  1.4429  0.2433
17049TIP3    H251070   4.300   2.653   4.910  1.3761 -0.8794  0.7274
17050TIP3   OH251071   6.519   3.555   1.448 -0.3348 -0.0791  0.1459
17050TIP3    H151072   6.424   3.565   1.436 -0.0898  0.9298 -1.1658
17050TIP3    H251073   6.528   3.524   1.538 -1.8329  1.0120  0.7191
17051TIP3   OH251074   1.103   2.131   7.063 -0.1403 -0.5405  0.2934
17051TIP3    H151075   1.069   2.176   7.141  1.6302 -1.4494  1.6684
17051TIP3    H251076   1.187   2.173   7.046 -0.2685 -0.7144 -0.8243
17052TIP3   OH251077   2.902   5.482   3.743  0.2587  0.3922  0.3914
17052TIP3    H151078   2.886   5.408   3.801  1.3468 -0.1422  0.0306
17052TIP3    H251079   2.970   5.533   3.787  0.2434  0.6210  0.1551
17053TIP3   OH251080   0.217   6.692   4.496 -0.1255  0.2581 -0.2534
17053TIP3    H151081   0.199   6.745   4.418 -0.3196  0.5286 -0.0279
17053TIP3    H251082   0.145   6.713   4.556 -0.5965 -0.7957 -0.4311
17054TIP3   OH251083   8.186   1.568   1.997 -0.4128  1.1157  0.2281
17054TIP3    H151084   8.258   1.505   1.999 -0.9226  0.4606 -0.9472
17054TIP3    H251085   8.118   1.529   2.052 -0.7786  0.5694 -0.6068
17055TIP3   OH251086   6.955   6.872   1.221 -0.3595  0.0219  0.6659
17055TIP3    H151087   6.891   6.802   1.206 -2.1985  1.1353  2.6781
17055TIP3    H251088   7.035   6.842   1.178 -2.0454 -1.7115 -1.4856
17056TIP3   OH251089   7.622   0.502   4.545  0.2812  1.0250 -0.1301
17056TIP3    H151090   7.530   0.475   4.541  0.3418  0.3501  1.8688
17056TIP3    H251091   7.658   0.452   4.618  2.7441 -0.1336 -1.9975
17057TIP3   OH251092   5.448   0.411   0.106 -0.1209 -0.3712  0.2603
17057TIP3    H151093   5.479   0.407   0.015 -0.6429 -1.6061  0.1116
17057TIP3    H251094   5.356   0.384   0.100 -0.6836  1.3062  0.9317
17058TIP3   OH251095   8.144   4.718   0.581  0.3244  0.3034  0.2840
17058TIP3    H151096   8.091   4.766   0.517 -0.9118 -1.2009  0.1371
17058TIP3    H251097   8.232   4.719   0.543 -0.2043  0.2014 -1.0156
17059TIP3   OH251098   8.673   6.315   2.575 -0.3029 -0.1837  0.0043
17059TIP3    H151099   8.744   6.266   2.617 -1.2497 -0.0580  1.8372
17059TIP3    H251100   8.633   6.253   2.515  0.9075 -0.4682 -0.5342
17060TIP3   OH251101   0.803   4.840   3.738 -0.3733 -0.0403  0.0814
17060TIP3    H151102   0.848   4.770   3.691 -1.7848 -0.8199 -0.1440
17060TIP3    H251103   0.861   4.860   3.812  0.5454 -0.7103 -0.4424
17061TIP3   OH251104   8.517   3.573   5.049  0.4549 -0.0496 -0.3863
17061TIP3    H151105   8.431   3.539   5.070 -0.2259  1.3461 -0.7635
17061TIP3    H251106   8.537   3.634   5.121  0.3290  0.9474 -1.1668
17062TIP3   OH251107   1.791   7.632   1.094  0.4508 -0.0662  0.2331
17062TIP3    H151108   1.713   7.671   1.053  0.7091  0.2835  0.0693
17062TIP3    H251109   1.788   7.664   1.184 -1.0934 -2.2613  1.0312
17063TIP3   OH251110   8.288   1.859   6.255 -0.2465 -0.1740 -0.3433
17063TIP3    H151111   8.225   1.896   6.194 -0.4391  0.6282  0.3218
17063TIP3    H251112   8.373   1.876   6.215 -0.4034 -0.3263 -0.7431
17064TIP3   OH251113   5.148   5.401   3.969 -0.1995 -0.5024 -0.0764
17064TIP3    H151114   5.076   5.362   3.921  0.4955 -0.1810 -1.4376
17064TIP3    H251115   5.156   5.489   3.933  0.7458 -0.4716  0.1718
17065TIP3   OH251116   5.422   7.200   5.315  0.2628  0.0842 -0.4405
17065TIP3    H151117   5.509   7.168   5.338  0.1424  0.1897  0.2062
17065TIP3    H251118   5.393   7.247   5.394 -0.1642  0.4929 -0.8365
17066TIP3   OH251119   8.351   6.738   1.195  0.1285 -0.0814  0.0614
17066TIP3    H151120   8.372   6.704   1.108 -0.5907  0.8798 -0.5080
17066TIP3    H251121   8.432   6.778   1.226  0.1300  0.4614 -0.6058
17067TIP3   OH251122   6.307   1.258   5.522 -0.1300  0.0326  0.1030
17067TIP3    H151123   6.298   1.206   5.602  0.7601  0.5227  0.5425
17067TIP3    H251124   6.337   1.195   5.456  0.0290 -0.1921  0.3878
17068TIP3   OH251125   3.051   4.603   5.790 -1.0652 -0.4218 -0.2580
17068TIP3    H151126   3.036   4.629   5.881 -0.5577 -1.0285  0.0013
17068TIP3    H251127   3.130   4.650   5.764  0.7428 -2.7671  0.6900
17069TIP3   OH251128   7.925   0.026   6.266  0.5019 -0.0468 -0.0960
17069TIP3    H151129   7.884   0.106   6.300 -0.5667 -0.2825 -0.7853
17069TIP3    H251130   7.881  -0.045   6.313  0.5871 -0.2802 -0.3667
17070TIP3   OH251131   8.566   2.070   5.080 -0.3153  0.2561  0.2602
17070TIP3    H151132   8.588   2.144   5.137  0.2847  0.3316 -0.0581
17070TIP3    H251133   8.611   1.995   5.118 -0.4011  0.1844  0.2222
17071TIP3   OH251134   7.760   2.062   7.003 -0.2292  0.2166 -0.2657
17071TIP3    H151135   7.844   2.019   6.988 -0.3937 -0.4386  0.5669
17071TIP3    H251136   7.715   2.005   7.065 -1.3619  0.4727 -0.8267
17072TIP3   OH251137   8.626   1.348   5.361 -0.6867  0.3702  0.8063
17072TIP3    H151138   8.674   1.426   5.388  0.1057  0.1872  0.0023
17072TIP3    H251139   8.695   1.286   5.336 -1.2660  0.9418 -2.7473
17073TIP3   OH251140   2.754   7.298   0.407 -0.0558 -0.2360  0.2221
17073TIP3    H151141   2.810   7.328   0.335  1.7290 -2.2760  0.6382
17073TIP3    H251142   2.801   7.326   0.486 -0.1189 -1.1339  0.5837
17074TIP3   OH251143   5.387   7.862   0.649  0.1470 -0.0482 -0.1324
17074TIP3    H151144   5.356   7.781   0.691 -1.1216  0.3465 -0.2720
17074TIP3    H251145   5.338   7.932   0.693  0.2376  0.5334 -0.9407
17075TIP3   OH251146   5.477   1.362   5.653  0.0333 -0.1395 -0.0241
17075TIP3    H151147   5.394   1.403   5.627 -0.8647 -2.0619 -0.4440
17075TIP3    H251148   5.518   1.338   5.570 -0.2771 -1.5267  0.1982
17076TIP3   OH251149   7.721   2.109   2.321  0.0182  0.0764 -0.5496
17076TIP3    H151150   7.734   2.093   2.227 -1.2296 -0.0523 -0.7262
17076TIP3    H251151   7.771   2.189   2.339 -0.3869  0.5729 -1.5205
17077TIP3   OH251152   0.108   7.605   1.578  0.1345  0.0903  0.8009
17077TIP3    H151153   0.102   7.530   1.637 -1.4088  0.1176  0.7143
17077TIP3    H251154   0.156   7.671   1.628 -0.3978 -0.1915  1.7016
17078TIP3   OH251155   7.127   2.223   4.362  0.5911 -0.0056  0.8363
17078TIP3    H151156   7.167   2.223   4.276 -0.5928 -0.1903  0.2565
17078TIP3    H251157   7.159   2.143   4.404  0.8744 -0.1132  0.4134
17079TIP3   OH251158   7.229   6.647   1.626  0.2251  0.0304 -0.2714
17079TIP3    H151159   7.274   6.620   1.546 -0.6835  0.9508 -1.1330
17079TIP3    H251160   7.140   6.614   1.616  0.5339 -1.3591  1.1959
17080TIP3   OH251161   2.330   5.477   3.088  0.7031  0.0825  0.7871
17080TIP3    H151162   2.378   5.394   3.093  0.7120 -0.1732 -2.2272
17080TIP3    H251163   2.307   5.487   2.996 -1.0735  2.4721  1.3855
17081TIP3   OH251164   7.336   3.102   0.540 -0.2729  0.6859 -0.6109
17081TIP3    H151165   7.304   3.139   0.622 -2.3956 -1.7144 -0.2385
17081TIP3    H251166   7.418   3.059   0.564 -0.4236  0.7643  0.0656
17082TIP3   OH251167   0.927   5.524   1.775  0.0684 -0.6544 -0.2863
17082TIP3    H151168   0.892   5.581   1.844 -1.0063 -2.4461  0.7082
17082TIP3    H251169   1.022   5.529   1.787 -0.0076  0.5857  0.0229
17083TIP3   OH251170   4.828   2.910   5.658  0.1697  0.8156  0.4292
17083TIP3    H151171   4.872   2.836   5.701 -0.4843  0.6348  0.8043
17083TIP3    H251172   4.896   2.950   5.604  0.6010  0.1034  0.4316
17084TIP3   OH251173   7.810   5.537   5.077  0.1381  0.0991  0.4410
17084TIP3    H151174   7.879   5.470   5.078 -0.7227 -0.8092  0.4886
17084TIP3    H251175   7.728   5.488   5.069 -0.5035  1.1696  0.1092
17085TIP3   OH251176   5.826   7.399   0.803 -0.3002 -0.0615  0.9307
17085TIP3    H151177   5.783   7.320   0.771  3.0917 -1.1365 -1.4445
17085TIP3    H251178   5.883   7.368   0.874 -0.4246  0.6514  1.3572
17086TIP3   OH251179   3.294   0.090   3.009 -0.4277 -0.0917 -0.0834
17086TIP3    H151180   3.331   0.096   2.921  0.4333 -1.3185  0.1682
17086TIP3    H251181   3.200   0.080   2.994 -0.3887  0.5928 -0.8326
   8.69331   8.19613   7.09806   0.00000   0.00000  -2.89777   0.00000  -2.89777  -4.09806
