Title t= 231.00000 step= 115500
19942
    1ASP      N    1   0.305   1.721   3.547
    1ASP    HT1    2   0.241   1.709   3.628
    1ASP    HT2    3   0.244   1.711   3.463
    1ASP    HT3    4   0.342   1.819   3.544
    1ASP     CA    5   0.418   1.617   3.555
    1ASP     HA    6   0.490   1.679   3.607
    1ASP     CB    7   0.365   1.491   3.645
    1ASP    HB1    8   0.303   1.433   3.573
    1ASP    HB2    9   0.311   1.532   3.732
    1ASP     CG   10   0.481   1.414   3.696
    1ASP    OD1   11   0.462   1.295   3.744
    1ASP    OD2   12   0.598   1.468   3.696
    1ASP      C   13   0.494   1.590   3.420
    1ASP      O   14   0.583   1.670   3.394
    2ALA      N   15   0.459   1.484   3.334
    2ALA     HN   16   0.381   1.423   3.346
    2ALA     CA   17   0.540   1.436   3.229
    2ALA     HA   18   0.638   1.475   3.253
    2ALA     CB   19   0.542   1.284   3.237
    2ALA    HB1   20   0.584   1.253   3.335
    2ALA    HB2   21   0.588   1.220   3.158
    2ALA    HB3   22   0.438   1.247   3.228
    2ALA      C   23   0.503   1.494   3.090
    2ALA      O   24   0.384   1.478   3.052
    3ASP      N   25   0.606   1.557   3.026
    3ASP     HN   26   0.697   1.560   3.065
    3ASP     CA   27   0.600   1.626   2.899
    3ASP     HA   28   0.533   1.709   2.914
    3ASP     CB   29   0.745   1.672   2.861
    3ASP    HB1   30   0.747   1.721   2.761
    3ASP    HB2   31   0.809   1.582   2.862
    3ASP     CG   32   0.812   1.762   2.962
    3ASP    OD1   33   0.937   1.768   2.956
    3ASP    OD2   34   0.742   1.830   3.036
    3ASP      C   35   0.539   1.546   2.783
    3ASP      O   36   0.537   1.424   2.767
    4GLY      N   37   0.475   1.624   2.689
    4GLY     HN   38   0.453   1.721   2.703
    4GLY     CA   39   0.415   1.582   2.564
    4GLY    HA1   40   0.380   1.670   2.512
    4GLY    HA2   41   0.334   1.523   2.605
    4GLY      C   42   0.501   1.494   2.474
    4GLY      O   43   0.625   1.515   2.473
    5PRO      N   44   0.444   1.410   2.391
    5PRO     CD   45   0.297   1.397   2.374
    5PRO    HD1   46   0.267   1.499   2.345
    5PRO    HD2   47   0.248   1.357   2.466
    5PRO     CA   48   0.521   1.313   2.311
    5PRO     HA   49   0.588   1.261   2.379
    5PRO     CB   50   0.410   1.219   2.254
    5PRO    HB1   51   0.408   1.125   2.314
    5PRO    HB2   52   0.437   1.182   2.153
    5PRO     CG   53   0.280   1.298   2.261
    5PRO    HG1   54   0.284   1.344   2.160
    5PRO    HG2   55   0.188   1.236   2.254
    5PRO      C   56   0.618   1.368   2.207
    5PRO      O   57   0.583   1.458   2.129
    6GLY      N   58   0.742   1.323   2.216
    6GLY     HN   59   0.761   1.262   2.293
    6GLY     CA   60   0.847   1.348   2.115
    6GLY    HA1   61   0.939   1.306   2.153
    6GLY    HA2   62   0.855   1.454   2.095
    6GLY      C   63   0.817   1.292   1.979
    6GLY      O   64   0.702   1.263   1.943
    7ASP      N   65   0.924   1.271   1.899
    7ASP     HN   66   1.011   1.273   1.948
    7ASP     CA   67   0.922   1.208   1.769
    7ASP     HA   68   0.856   1.267   1.708
    7ASP     CB   69   1.071   1.206   1.716
    7ASP    HB1   70   1.130   1.130   1.772
    7ASP    HB2   71   1.114   1.303   1.751
    7ASP     CG   72   1.092   1.182   1.566
    7ASP    OD1   73   1.203   1.153   1.519
    7ASP    OD2   74   0.993   1.199   1.489
    7ASP      C   75   0.879   1.056   1.777
    7ASP      O   76   0.930   0.983   1.856
    8PRO      N   77   0.787   1.009   1.695
    8PRO     CD   78   0.707   1.099   1.614
    8PRO    HD1   79   0.756   1.177   1.552
    8PRO    HD2   80   0.643   1.152   1.688
    8PRO     CA   81   0.735   0.878   1.700
    8PRO     HA   82   0.715   0.857   1.804
    8PRO     CB   83   0.604   0.881   1.625
    8PRO    HB1   84   0.519   0.887   1.696
    8PRO    HB2   85   0.593   0.796   1.554
    8PRO     CG   86   0.609   1.010   1.543
    8PRO    HG1   87   0.654   0.981   1.445
    8PRO    HG2   88   0.506   1.050   1.533
    8PRO      C   89   0.841   0.784   1.647
    8PRO      O   90   0.840   0.664   1.685
    9ASP      N   91   0.923   0.825   1.552
    9ASP     HN   92   0.918   0.918   1.518
    9ASP     CA   93   1.039   0.743   1.508
    9ASP     HA   94   1.003   0.642   1.497
    9ASP     CB   95   1.095   0.804   1.378
    9ASP    HB1   96   1.187   0.754   1.340
    9ASP    HB2   97   1.115   0.910   1.404
    9ASP     CG   98   0.989   0.799   1.278
    9ASP    OD1   99   0.965   0.897   1.204
    9ASP    OD2  100   0.917   0.695   1.265
    9ASP      C  101   1.149   0.742   1.604
    9ASP      O  102   1.232   0.653   1.601
   10ALA      N  103   1.158   0.828   1.703
   10ALA     HN  104   1.089   0.900   1.699
   10ALA     CA  105   1.236   0.800   1.821
   10ALA     HA  106   1.326   0.744   1.799
   10ALA     CB  107   1.280   0.930   1.883
   10ALA    HB1  108   1.362   0.921   1.956
   10ALA    HB2  109   1.190   0.966   1.938
   10ALA    HB3  110   1.312   1.009   1.811
   10ALA      C  111   1.164   0.713   1.930
   10ALA      O  112   1.041   0.690   1.926
   11GLY      N  113   1.236   0.665   2.034
   11GLY     HN  114   1.336   0.674   2.035
   11GLY     CA  115   1.179   0.617   2.160
   11GLY    HA1  116   1.071   0.617   2.160
   11GLY    HA2  117   1.217   0.673   2.245
   11GLY      C  118   1.225   0.475   2.166
   11GLY    OT1  119   1.308   0.436   2.247
   11GLY    OT2  120   1.165   0.395   2.092
   12LIT    LIT  121   4.080   4.524   4.692
   13LIT    LIT  122   0.936   2.667   2.079
   14LIT    LIT  123   2.719   0.138   4.194
   15LIT    LIT  124   3.880   5.403   5.146
   16LIT    LIT  125   4.114   5.765   3.402
   17LIT    LIT  126   2.226   4.537   3.875
   18LIT    LIT  127   6.091   5.464   2.556
   19LIT    LIT  128   1.039   0.316   0.897
   20LIT    LIT  129   4.180   5.515   0.048
   21LIT    LIT  130   1.363   5.477   3.057
   22LIT    LIT  131   3.668   3.421   0.815
   23LIT    LIT  132   2.707   1.436   2.016
   24LIT    LIT  133   1.388   5.460   4.619
   25LIT    LIT  134   4.302   0.289   0.971
   26LIT    LIT  135   5.115   5.163   0.058
   27LIT    LIT  136   0.273  -0.014   2.690
   28LIT    LIT  137   0.581   1.267   3.880
   29LIT    LIT  138   3.008   4.242   3.208
   30LIT    LIT  139   1.467   2.086   1.643
   31LIT    LIT  140   4.913   1.815   4.750
   32LIT    LIT  141   2.066   4.827   2.117
   33LIT    LIT  142   5.160   1.941   2.919
   34CLA    CLA  143   5.432   2.433   2.105
   35CLA    CLA  144   5.107   0.378   3.984
   36CLA    CLA  145   3.668   0.108   3.582
   37CLA    CLA  146   1.705   0.400   4.181
   38CLA    CLA  147   1.714   2.321   4.790
   39CLA    CLA  148   3.510   5.111   5.051
   40CLA    CLA  149   4.200   2.922   0.372
   41CLA    CLA  150   1.800   3.843   0.900
   42CLA    CLA  151   3.536   3.698   1.344
   43CLA    CLA  152   2.207   2.514   1.608
   44CLA    CLA  153   5.261   3.892   4.725
   45CLA    CLA  154   0.504   5.086   2.372
   46CLA    CLA  155   4.820   0.032   3.012
   47CLA    CLA  156   3.141   2.344   5.185
   48CLA    CLA  157   3.657   4.509   4.394
   49CLA    CLA  158   5.316   5.557   1.572
   50CLA    CLA  159   2.876   1.978   3.023
   51CLA    CLA  160   0.276   5.768   0.667
   52TIP3   OH2  161   5.893   1.127   2.283
   52TIP3    H1  162   5.987   1.111   2.270
   52TIP3    H2  163   5.861   1.150   2.196
   53TIP3   OH2  164   0.245   1.130   1.894
   53TIP3    H1  165   0.260   1.223   1.877
   53TIP3    H2  166   0.261   1.087   1.810
   54TIP3   OH2  167   6.247   2.108   3.465
   54TIP3    H1  168   6.167   2.056   3.456
   54TIP3    H2  169   6.311   2.062   3.410
   55TIP3   OH2  170   2.398   4.323   1.774
   55TIP3    H1  171   2.481   4.370   1.768
   55TIP3    H2  172   2.345   4.356   1.702
   56TIP3   OH2  173   4.457   1.657   1.116
   56TIP3    H1  174   4.393   1.630   1.182
   56TIP3    H2  175   4.542   1.647   1.158
   57TIP3   OH2  176   5.133   1.046   4.320
   57TIP3    H1  177   5.042   1.036   4.349
   57TIP3    H2  178   5.146   0.975   4.257
   58TIP3   OH2  179   6.135   4.078   1.588
   58TIP3    H1  180   6.223   4.043   1.579
   58TIP3    H2  181   6.082   4.026   1.527
   59TIP3   OH2  182   5.111   2.729   4.012
   59TIP3    H1  183   5.177   2.706   4.078
   59TIP3    H2  184   5.058   2.650   4.003
   60TIP3   OH2  185   1.755   0.412   0.952
   60TIP3    H1  186   1.703   0.444   1.025
   60TIP3    H2  187   1.695   0.358   0.901
   61TIP3   OH2  188   5.794   2.072   1.197
   61TIP3    H1  189   5.880   2.029   1.206
   61TIP3    H2  190   5.738   2.025   1.259
   62TIP3   OH2  191   4.345   5.104   3.107
   62TIP3    H1  192   4.392   5.166   3.162
   62TIP3    H2  193   4.304   5.158   3.039
   63TIP3   OH2  194   4.156   3.604   1.176
   63TIP3    H1  195   4.146   3.610   1.081
   63TIP3    H2  196   4.175   3.512   1.193
   64TIP3   OH2  197   3.864   5.208   1.791
   64TIP3    H1  198   3.846   5.298   1.764
   64TIP3    H2  199   3.801   5.155   1.743
   65TIP3   OH2  200   5.660   3.405   4.692
   65TIP3    H1  201   5.743   3.360   4.676
   65TIP3    H2  202   5.601   3.372   4.625
   66TIP3   OH2  203   4.573   2.419   3.896
   66TIP3    H1  204   4.619   2.386   3.973
   66TIP3    H2  205   4.602   2.510   3.887
   67TIP3   OH2  206   6.090   2.653   4.998
   67TIP3    H1  207   6.185   2.655   5.009
   67TIP3    H2  208   6.054   2.670   5.085
   68TIP3   OH2  209   1.729   1.292   0.748
   68TIP3    H1  210   1.643   1.293   0.706
   68TIP3    H2  211   1.729   1.213   0.801
   69TIP3   OH2  212   0.673   4.023   0.165
   69TIP3    H1  213   0.631   4.038   0.250
   69TIP3    H2  214   0.712   4.107   0.142
   70TIP3   OH2  215   2.499   5.682   3.354
   70TIP3    H1  216   2.425   5.736   3.382
   70TIP3    H2  217   2.501   5.692   3.259
   71TIP3   OH2  218   4.093   3.956   2.664
   71TIP3    H1  219   4.167   4.005   2.630
   71TIP3    H2  220   4.098   3.871   2.621
   72TIP3   OH2  221   5.117   5.245   0.952
   72TIP3    H1  222   5.162   5.237   1.036
   72TIP3    H2  223   5.086   5.156   0.933
   73TIP3   OH2  224   3.050   0.121   1.727
   73TIP3    H1  225   2.962   0.096   1.702
   73TIP3    H2  226   3.055   0.098   1.820
   74TIP3   OH2  227   4.724   0.309   4.414
   74TIP3    H1  228   4.640   0.296   4.458
   74TIP3    H2  229   4.701   0.327   4.323
   75TIP3   OH2  230   4.608   4.176   1.801
   75TIP3    H1  231   4.579   4.224   1.878
   75TIP3    H2  232   4.662   4.238   1.752
   76TIP3   OH2  233   4.982   5.975   0.983
   76TIP3    H1  234   5.042   5.913   0.940
   76TIP3    H2  235   4.929   5.920   1.041
   77TIP3   OH2  236   6.122   1.607   4.024
   77TIP3    H1  237   6.194   1.670   4.024
   77TIP3    H2  238   6.049   1.654   3.986
   78TIP3   OH2  239   0.734   2.422   2.523
   78TIP3    H1  240   0.823   2.391   2.506
   78TIP3    H2  241   0.739   2.461   2.610
   79TIP3   OH2  242   6.172   0.559   1.026
   79TIP3    H1  243   6.083   0.593   1.017
   79TIP3    H2  244   6.210   0.567   0.939
   80TIP3   OH2  245   0.150   4.268   0.496
   80TIP3    H1  246   0.152   4.186   0.446
   80TIP3    H2  247   0.194   4.247   0.579
   81TIP3   OH2  248   1.393   3.591   3.579
   81TIP3    H1  249   1.405   3.500   3.552
   81TIP3    H2  250   1.375   3.638   3.497
   82TIP3   OH2  251   0.823   0.553   3.639
   82TIP3    H1  252   0.826   0.586   3.549
   82TIP3    H2  253   0.768   0.616   3.686
   83TIP3   OH2  254   6.123   1.732   3.734
   83TIP3    H1  255   6.130   1.637   3.725
   83TIP3    H2  256   6.034   1.746   3.766
   84TIP3   OH2  257   0.717   0.120   4.653
   84TIP3    H1  258   0.762   0.175   4.717
   84TIP3    H2  259   0.786   0.066   4.615
   85TIP3   OH2  260   3.024   4.176   4.460
   85TIP3    H1  261   3.113   4.160   4.493
   85TIP3    H2  262   2.968   4.169   4.537
   86TIP3   OH2  263   5.394   0.418   0.662
   86TIP3    H1  264   5.333   0.390   0.594
   86TIP3    H2  265   5.407   0.511   0.645
   87TIP3   OH2  266   4.937   4.597   2.145
   87TIP3    H1  267   4.991   4.558   2.076
   87TIP3    H2  268   4.986   4.582   2.226
   88TIP3   OH2  269   5.412   1.907   1.632
   88TIP3    H1  270   5.330   1.865   1.608
   88TIP3    H2  271   5.388   1.997   1.654
   89TIP3   OH2  272   1.186   3.401   4.655
   89TIP3    H1  273   1.203   3.371   4.745
   89TIP3    H2  274   1.202   3.323   4.601
   90TIP3   OH2  275   3.042   4.169   1.693
   90TIP3    H1  276   2.954   4.186   1.659
   90TIP3    H2  277   3.040   4.202   1.783
   91TIP3   OH2  278   3.778   5.786   4.829
   91TIP3    H1  279   3.745   5.755   4.914
   91TIP3    H2  280   3.770   5.710   4.771
   92TIP3   OH2  281   4.672   0.458   0.323
   92TIP3    H1  282   4.694   0.457   0.230
   92TIP3    H2  283   4.577   0.472   0.325
   93TIP3   OH2  284   4.635   5.143   1.662
   93TIP3    H1  285   4.719   5.100   1.677
   93TIP3    H2  286   4.657   5.224   1.615
   94TIP3   OH2  287   4.065   5.770   3.218
   94TIP3    H1  288   4.085   5.802   3.130
   94TIP3    H2  289   4.013   5.691   3.203
   95TIP3   OH2  290   1.893   5.489   2.196
   95TIP3    H1  291   1.952   5.419   2.225
   95TIP3    H2  292   1.805   5.457   2.218
   96TIP3   OH2  293   5.085   1.059   5.080
   96TIP3    H1  294   5.011   1.046   5.139
   96TIP3    H2  295   5.101   1.153   5.081
   97TIP3   OH2  296   3.929   1.413   0.522
   97TIP3    H1  297   3.873   1.392   0.447
   97TIP3    H2  298   3.872   1.400   0.598
   98TIP3   OH2  299   5.411   5.445   0.377
   98TIP3    H1  300   5.419   5.510   0.448
   98TIP3    H2  301   5.499   5.407   0.371
   99TIP3   OH2  302   2.433   1.714   2.462
   99TIP3    H1  303   2.369   1.646   2.440
   99TIP3    H2  304   2.518   1.670   2.454
  100TIP3   OH2  305   4.940   2.012   5.105
  100TIP3    H1  306   4.983   1.992   5.022
  100TIP3    H2  307   4.859   1.960   5.103
  101TIP3   OH2  308   4.734   3.976   3.277
  101TIP3    H1  309   4.654   3.929   3.300
  101TIP3    H2  310   4.757   4.025   3.357
  102TIP3   OH2  311   0.277   2.131   4.297
  102TIP3    H1  312   0.274   2.179   4.214
  102TIP3    H2  313   0.199   2.159   4.344
  103TIP3   OH2  314   2.730   1.357   2.712
  103TIP3    H1  315   2.729   1.274   2.760
  103TIP3    H2  316   2.641   1.391   2.721
  104TIP3   OH2  317  -0.037   1.443   1.965
  104TIP3    H1  318  -0.072   1.531   1.950
  104TIP3    H2  319  -0.015   1.411   1.877
  105TIP3   OH2  320   1.385   2.900   0.441
  105TIP3    H1  321   1.292   2.895   0.420
  105TIP3    H2  322   1.403   2.822   0.494
  106TIP3   OH2  323   0.578   3.360   1.163
  106TIP3    H1  324   0.561   3.431   1.101
  106TIP3    H2  325   0.625   3.294   1.113
  107TIP3   OH2  326   6.282   2.636  -0.039
  107TIP3    H1  327   6.349   2.695  -0.073
  107TIP3    H2  328   6.316   2.609   0.047
  108TIP3   OH2  329   6.031   2.376   3.941
  108TIP3    H1  330   6.084   2.339   4.011
  108TIP3    H2  331   5.943   2.380   3.977
  109TIP3   OH2  332   1.806   1.978   1.262
  109TIP3    H1  333   1.884   1.939   1.224
  109TIP3    H2  334   1.809   2.070   1.235
  110TIP3   OH2  335   3.845   5.452   4.172
  110TIP3    H1  336   3.770   5.449   4.231
  110TIP3    H2  337   3.822   5.517   4.106
  111TIP3   OH2  338   0.521   5.335   2.161
  111TIP3    H1  339   0.524   5.257   2.217
  111TIP3    H2  340   0.602   5.330   2.110
  112TIP3   OH2  341   5.537   1.711   2.939
  112TIP3    H1  342   5.619   1.708   2.988
  112TIP3    H2  343   5.515   1.619   2.925
  113TIP3   OH2  344   3.183   0.143   4.114
  113TIP3    H1  345   3.177   0.161   4.020
  113TIP3    H2  346   3.181   0.047   4.120
  114TIP3   OH2  347   0.826   2.999   1.911
  114TIP3    H1  348   0.788   2.991   1.823
  114TIP3    H2  349   0.751   3.015   1.968
  115TIP3   OH2  350   5.201   5.939   3.808
  115TIP3    H1  351   5.276   5.894   3.846
  115TIP3    H2  352   5.237   6.022   3.776
  116TIP3   OH2  353   5.501   5.952   0.776
  116TIP3    H1  354   5.492   5.952   0.680
  116TIP3    H2  355   5.592   5.926   0.791
  117TIP3   OH2  356   3.164   4.408   2.627
  117TIP3    H1  357   3.099   4.341   2.607
  117TIP3    H2  358   3.230   4.363   2.680
  118TIP3   OH2  359   3.652   4.773   2.721
  118TIP3    H1  360   3.712   4.841   2.689
  118TIP3    H2  361   3.636   4.797   2.812
  119TIP3   OH2  362   4.587   5.676   2.316
  119TIP3    H1  363   4.672   5.661   2.356
  119TIP3    H2  364   4.597   5.645   2.226
  120TIP3   OH2  365   0.065   2.498   0.918
  120TIP3    H1  366   0.072   2.500   0.822
  120TIP3    H2  367  -0.020   2.539   0.937
  121TIP3   OH2  368   2.756   4.754   0.052
  121TIP3    H1  369   2.811   4.757   0.130
  121TIP3    H2  370   2.792   4.681   0.001
  122TIP3   OH2  371   4.657   5.933   3.055
  122TIP3    H1  372   4.717   5.994   3.013
  122TIP3    H2  373   4.671   5.945   3.149
  123TIP3   OH2  374   2.549   5.527   0.872
  123TIP3    H1  375   2.524   5.447   0.825
  123TIP3    H2  376   2.536   5.597   0.807
  124TIP3   OH2  377   1.841   5.015   0.534
  124TIP3    H1  378   1.837   5.038   0.442
  124TIP3    H2  379   1.924   4.969   0.544
  125TIP3   OH2  380   3.354   3.955   1.456
  125TIP3    H1  381   3.418   3.892   1.425
  125TIP3    H2  382   3.379   3.972   1.547
  126TIP3   OH2  383   2.530   4.952   1.636
  126TIP3    H1  384   2.474   4.946   1.558
  126TIP3    H2  385   2.561   4.862   1.650
  127TIP3   OH2  386   2.431   3.757   3.162
  127TIP3    H1  387   2.363   3.822   3.181
  127TIP3    H2  388   2.411   3.684   3.222
  128TIP3   OH2  389   6.030   3.625   0.466
  128TIP3    H1  390   6.057   3.534   0.451
  128TIP3    H2  391   5.976   3.647   0.391
  129TIP3   OH2  392   6.063   0.989   3.665
  129TIP3    H1  393   6.026   0.912   3.709
  129TIP3    H2  394   6.153   0.995   3.699
  130TIP3   OH2  395   1.577   5.258   3.635
  130TIP3    H1  396   1.645   5.287   3.696
  130TIP3    H2  397   1.625   5.223   3.560
  131TIP3   OH2  398   0.910   5.716   1.515
  131TIP3    H1  399   0.960   5.797   1.501
  131TIP3    H2  400   0.821   5.746   1.534
  132TIP3   OH2  401   3.031   0.459   0.456
  132TIP3    H1  402   3.037   0.490   0.365
  132TIP3    H2  403   2.985   0.529   0.502
  133TIP3   OH2  404   6.320   5.083   0.234
  133TIP3    H1  405   6.270   5.146   0.181
  133TIP3    H2  406   6.402   5.072   0.186
  134TIP3   OH2  407   4.835   2.901   1.027
  134TIP3    H1  408   4.752   2.889   1.073
  134TIP3    H2  409   4.879   2.970   1.076
  135TIP3   OH2  410   0.755   2.216   2.772
  135TIP3    H1  411   0.735   2.261   2.854
  135TIP3    H2  412   0.719   2.273   2.704
  136TIP3   OH2  413   0.095   1.691   3.759
  136TIP3    H1  414   0.001   1.702   3.745
  136TIP3    H2  415   0.101   1.647   3.844
  137TIP3   OH2  416   0.477   5.482   4.457
  137TIP3    H1  417   0.392   5.447   4.429
  137TIP3    H2  418   0.520   5.408   4.501
  138TIP3   OH2  419   2.791   1.784   4.358
  138TIP3    H1  420   2.698   1.798   4.339
  138TIP3    H2  421   2.837   1.848   4.304
  139TIP3   OH2  422   0.561   4.762   3.559
  139TIP3    H1  423   0.607   4.832   3.606
  139TIP3    H2  424   0.584   4.776   3.467
  140TIP3   OH2  425   1.218   4.578   4.792
  140TIP3    H1  426   1.259   4.529   4.863
  140TIP3    H2  427   1.228   4.670   4.818
  141TIP3   OH2  428   4.591   1.393   4.247
  141TIP3    H1  429   4.640   1.343   4.182
  141TIP3    H2  430   4.522   1.437   4.197
  142TIP3   OH2  431   1.931   3.647   2.359
  142TIP3    H1  432   1.945   3.660   2.453
  142TIP3    H2  433   2.004   3.694   2.318
  143TIP3   OH2  434   0.224   1.699   3.260
  143TIP3    H1  435   0.222   1.615   3.214
  143TIP3    H2  436   0.228   1.765   3.191
  144TIP3   OH2  437   3.955   4.666   4.768
  144TIP3    H1  438   3.979   4.755   4.744
  144TIP3    H2  439   3.860   4.667   4.773
  145TIP3   OH2  440   5.590   5.567   4.120
  145TIP3    H1  441   5.673   5.544   4.160
  145TIP3    H2  442   5.525   5.552   4.188
  146TIP3   OH2  443   0.536   5.880   2.402
  146TIP3    H1  444   0.496   5.965   2.384
  146TIP3    H2  445   0.548   5.840   2.315
  147TIP3   OH2  446   2.057   2.668   0.571
  147TIP3    H1  447   2.123   2.692   0.636
  147TIP3    H2  448   2.068   2.574   0.559
  148TIP3   OH2  449   5.446   2.249   3.695
  148TIP3    H1  450   5.387   2.186   3.736
  148TIP3    H2  451   5.409   2.263   3.608
  149TIP3   OH2  452   5.548   5.346   3.927
  149TIP3    H1  453   5.583   5.414   3.984
  149TIP3    H2  454   5.454   5.346   3.944
  150TIP3   OH2  455   5.774   5.304   3.692
  150TIP3    H1  456   5.700   5.341   3.644
  150TIP3    H2  457   5.735   5.269   3.772
  151TIP3   OH2  458   5.172   1.834   1.905
  151TIP3    H1  459   5.128   1.893   1.966
  151TIP3    H2  460   5.129   1.851   1.821
  152TIP3   OH2  461   2.234   0.624   0.179
  152TIP3    H1  462   2.324   0.595   0.165
  152TIP3    H2  463   2.239   0.684   0.254
  153TIP3   OH2  464   0.041   3.115   3.608
  153TIP3    H1  465  -0.031   3.155   3.659
  153TIP3    H2  466   0.000   3.090   3.526
  154TIP3   OH2  467   2.216   2.785   4.968
  154TIP3    H1  468   2.266   2.804   4.889
  154TIP3    H2  469   2.176   2.699   4.952
  155TIP3   OH2  470   1.611   3.527   0.311
  155TIP3    H1  471   1.526   3.528   0.355
  155TIP3    H2  472   1.670   3.486   0.374
  156TIP3   OH2  473   1.291   4.028   0.413
  156TIP3    H1  474   1.238   3.953   0.442
  156TIP3    H2  475   1.249   4.057   0.333
  157TIP3   OH2  476   1.373   2.777   5.196
  157TIP3    H1  477   1.349   2.701   5.143
  157TIP3    H2  478   1.389   2.847   5.132
  158TIP3   OH2  479   4.529   0.235   1.599
  158TIP3    H1  480   4.611   0.191   1.621
  158TIP3    H2  481   4.476   0.228   1.679
  159TIP3   OH2  482   2.502   5.715   0.689
  159TIP3    H1  483   2.552   5.705   0.608
  159TIP3    H2  484   2.410   5.710   0.661
  160TIP3   OH2  485   5.880   4.339   0.029
  160TIP3    H1  486   5.876   4.251  -0.010
  160TIP3    H2  487   5.834   4.330   0.113
  161TIP3   OH2  488   5.775   1.051   1.465
  161TIP3    H1  489   5.741   1.139   1.448
  161TIP3    H2  490   5.784   1.012   1.379
  162TIP3   OH2  491   3.440   2.338   4.820
  162TIP3    H1  492   3.526   2.341   4.779
  162TIP3    H2  493   3.437   2.415   4.876
  163TIP3   OH2  494   5.085   0.493   3.588
  163TIP3    H1  495   5.040   0.455   3.512
  163TIP3    H2  496   5.141   0.561   3.552
  164TIP3   OH2  497   1.971   5.808   3.574
  164TIP3    H1  498   2.046   5.808   3.513
  164TIP3    H2  499   1.902   5.854   3.526
  165TIP3   OH2  500   3.561   2.528   2.614
  165TIP3    H1  501   3.596   2.578   2.688
  165TIP3    H2  502   3.548   2.440   2.648
  166TIP3   OH2  503   2.722   5.698   1.402
  166TIP3    H1  504   2.643   5.729   1.357
  166TIP3    H2  505   2.690   5.660   1.484
  167TIP3   OH2  506   6.139   1.646   1.318
  167TIP3    H1  507   6.147   1.632   1.412
  167TIP3    H2  508   6.228   1.634   1.285
  168TIP3   OH2  509   0.747   1.183   0.719
  168TIP3    H1  510   0.741   1.110   0.779
  168TIP3    H2  511   0.758   1.260   0.775
  169TIP3   OH2  512   5.290   0.261   4.786
  169TIP3    H1  513   5.204   0.265   4.829
  169TIP3    H2  514   5.286   0.182   4.732
  170TIP3   OH2  515   5.002   1.038   2.227
  170TIP3    H1  516   4.953   0.957   2.210
  170TIP3    H2  517   5.038   1.027   2.315
  171TIP3   OH2  518   3.657   5.373   0.163
  171TIP3    H1  519   3.584   5.431   0.186
  171TIP3    H2  520   3.654   5.368   0.068
  172TIP3   OH2  521   3.276   1.220   0.202
  172TIP3    H1  522   3.277   1.129   0.232
  172TIP3    H2  523   3.367   1.250   0.213
  173TIP3   OH2  524   2.543   4.066   2.460
  173TIP3    H1  525   2.447   4.060   2.458
  173TIP3    H2  526   2.562   4.127   2.530
  174TIP3   OH2  527   3.119   5.847   4.725
  174TIP3    H1  528   3.155   5.893   4.649
  174TIP3    H2  529   3.027   5.874   4.729
  175TIP3   OH2  530   2.387   4.416   1.038
  175TIP3    H1  531   2.452   4.354   1.070
  175TIP3    H2  532   2.373   4.391   0.946
  176TIP3   OH2  533   2.645   1.449   3.742
  176TIP3    H1  534   2.554   1.419   3.744
  176TIP3    H2  535   2.680   1.425   3.827
  177TIP3   OH2  536   2.074   5.983   4.891
  177TIP3    H1  537   2.100   5.891   4.882
  177TIP3    H2  538   2.000   5.981   4.952
  178TIP3   OH2  539   4.875   1.293   2.245
  178TIP3    H1  540   4.921   1.363   2.200
  178TIP3    H2  541   4.934   1.218   2.241
  179TIP3   OH2  542   1.277   4.256   1.184
  179TIP3    H1  543   1.366   4.291   1.186
  179TIP3    H2  544   1.266   4.222   1.095
  180TIP3   OH2  545   0.602   3.689   1.161
  180TIP3    H1  546   0.519   3.650   1.135
  180TIP3    H2  547   0.608   3.672   1.255
  181TIP3   OH2  548   1.547   5.727   0.208
  181TIP3    H1  549   1.546   5.699   0.300
  181TIP3    H2  550   1.618   5.676   0.168
  182TIP3   OH2  551   4.829   0.892   1.229
  182TIP3    H1  552   4.828   0.806   1.271
  182TIP3    H2  553   4.757   0.889   1.167
  183TIP3   OH2  554   2.111   0.167   4.813
  183TIP3    H1  555   2.110   0.094   4.751
  183TIP3    H2  556   2.179   0.144   4.876
  184TIP3   OH2  557   2.142   3.488   1.306
  184TIP3    H1  558   2.091   3.508   1.385
  184TIP3    H2  559   2.230   3.520   1.326
  185TIP3   OH2  560   1.941   3.127   2.693
  185TIP3    H1  561   1.922   3.130   2.787
  185TIP3    H2  562   1.960   3.218   2.669
  186TIP3   OH2  563   2.119   4.739   3.278
  186TIP3    H1  564   2.088   4.692   3.356
  186TIP3    H2  565   2.043   4.789   3.249
  187TIP3   OH2  566   0.328   1.094   4.688
  187TIP3    H1  567   0.359   1.005   4.673
  187TIP3    H2  568   0.402   1.150   4.662
  188TIP3   OH2  569   1.519   1.904   1.728
  188TIP3    H1  570   1.604   1.866   1.704
  188TIP3    H2  571   1.469   1.830   1.763
  189TIP3   OH2  572   2.432   5.436   1.171
  189TIP3    H1  573   2.418   5.513   1.116
  189TIP3    H2  574   2.344   5.407   1.195
  190TIP3   OH2  575   1.693   0.862   3.735
  190TIP3    H1  576   1.621   0.835   3.791
  190TIP3    H2  577   1.658   0.934   3.684
  191TIP3   OH2  578   5.067   0.496   2.766
  191TIP3    H1  579   5.032   0.522   2.681
  191TIP3    H2  580   5.111   0.413   2.750
  192TIP3   OH2  581   2.534   3.667   0.751
  192TIP3    H1  582   2.598   3.719   0.703
  192TIP3    H2  583   2.587   3.605   0.801
  193TIP3   OH2  584   4.577   2.201   3.346
  193TIP3    H1  585   4.609   2.219   3.434
  193TIP3    H2  586   4.481   2.209   3.354
  194TIP3   OH2  587   1.008   4.633   5.101
  194TIP3    H1  588   0.975   4.703   5.158
  194TIP3    H2  589   0.933   4.607   5.048
  195TIP3   OH2  590   4.243   0.548   0.797
  195TIP3    H1  591   4.245   0.618   0.862
  195TIP3    H2  592   4.192   0.583   0.725
  196TIP3   OH2  593   3.161   5.749   1.312
  196TIP3    H1  594   3.185   5.754   1.220
  196TIP3    H2  595   3.231   5.795   1.358
  197TIP3   OH2  596   4.188   2.065   3.910
  197TIP3    H1  597   4.244   2.120   3.856
  197TIP3    H2  598   4.099   2.093   3.890
  198TIP3   OH2  599   3.952   5.269   3.170
  198TIP3    H1  600   4.013   5.312   3.110
  198TIP3    H2  601   4.008   5.218   3.229
  199TIP3   OH2  602   3.747   2.585   0.073
  199TIP3    H1  603   3.781   2.538   0.149
  199TIP3    H2  604   3.690   2.653   0.110
  200TIP3   OH2  605   3.796   0.883   1.273
  200TIP3    H1  606   3.829   0.823   1.207
  200TIP3    H2  607   3.825   0.970   1.244
  201TIP3   OH2  608   4.983   2.456   3.613
  201TIP3    H1  609   4.936   2.436   3.533
  201TIP3    H2  610   5.075   2.454   3.588
  202TIP3   OH2  611   3.198   3.723   2.520
  202TIP3    H1  612   3.280   3.723   2.569
  202TIP3    H2  613   3.145   3.789   2.562
  203TIP3   OH2  614   4.057   2.458   2.680
  203TIP3    H1  615   3.968   2.441   2.648
  203TIP3    H2  616   4.055   2.549   2.708
  204TIP3   OH2  617   5.100   3.766   0.819
  204TIP3    H1  618   5.185   3.774   0.775
  204TIP3    H2  619   5.098   3.840   0.880
  205TIP3   OH2  620   3.400   1.577   4.548
  205TIP3    H1  621   3.494   1.596   4.548
  205TIP3    H2  622   3.359   1.656   4.513
  206TIP3   OH2  623   1.179   5.285   0.758
  206TIP3    H1  624   1.229   5.285   0.839
  206TIP3    H2  625   1.100   5.335   0.778
  207TIP3   OH2  626   3.193   3.123   4.789
  207TIP3    H1  627   3.209   3.162   4.703
  207TIP3    H2  628   3.279   3.122   4.832
  208TIP3   OH2  629   0.868   5.952   3.780
  208TIP3    H1  630   0.778   5.980   3.767
  208TIP3    H2  631   0.869   5.861   3.750
  209TIP3   OH2  632   1.558   4.537   0.602
  209TIP3    H1  633   1.627   4.544   0.536
  209TIP3    H2  634   1.601   4.501   0.679
  210TIP3   OH2  635   1.755   5.505   2.521
  210TIP3    H1  636   1.723   5.577   2.574
  210TIP3    H2  637   1.676   5.471   2.478
  211TIP3   OH2  638   1.741   3.795   2.664
  211TIP3    H1  639   1.773   3.710   2.634
  211TIP3    H2  640   1.738   3.787   2.759
  212TIP3   OH2  641   4.597   0.476   0.732
  212TIP3    H1  642   4.660   0.548   0.728
  212TIP3    H2  643   4.515   0.513   0.699
  213TIP3   OH2  644   0.842   1.691   4.993
  213TIP3    H1  645   0.866   1.613   5.043
  213TIP3    H2  646   0.809   1.656   4.910
  214TIP3   OH2  647   1.987   3.813   1.386
  214TIP3    H1  648   1.984   3.799   1.291
  214TIP3    H2  649   2.080   3.807   1.408
  215TIP3   OH2  650   3.278   3.951   0.828
  215TIP3    H1  651   3.354   3.913   0.782
  215TIP3    H2  652   3.316   3.994   0.905
  216TIP3   OH2  653   0.191   1.933   4.951
  216TIP3    H1  654   0.174   1.957   4.860
  216TIP3    H2  655   0.284   1.950   4.964
  217TIP3   OH2  656   0.328   4.270   4.773
  217TIP3    H1  657   0.261   4.202   4.772
  217TIP3    H2  658   0.411   4.222   4.762
  218TIP3   OH2  659   4.806   0.698   3.237
  218TIP3    H1  660   4.757   0.740   3.167
  218TIP3    H2  661   4.741   0.644   3.283
  219TIP3   OH2  662   3.796   4.504   0.216
  219TIP3    H1  663   3.799   4.530   0.124
  219TIP3    H2  664   3.707   4.470   0.229
  220TIP3   OH2  665   2.974   0.704   1.114
  220TIP3    H1  666   2.995   0.793   1.086
  220TIP3    H2  667   3.027   0.648   1.058
  221TIP3   OH2  668   6.053   4.341   1.494
  221TIP3    H1  669   6.100   4.272   1.541
  221TIP3    H2  670   6.061   4.418   1.550
  222TIP3   OH2  671   1.310   2.767   2.082
  222TIP3    H1  672   1.363   2.820   2.142
  222TIP3    H2  673   1.364   2.758   2.004
  223TIP3   OH2  674   3.026   5.491   0.980
  223TIP3    H1  675   3.005   5.531   1.064
  223TIP3    H2  676   2.941   5.459   0.948
  224TIP3   OH2  677   2.531   1.681   3.334
  224TIP3    H1  678   2.554   1.725   3.416
  224TIP3    H2  679   2.440   1.653   3.346
  225TIP3   OH2  680   5.322   5.750   4.011
  225TIP3    H1  681   5.278   5.687   4.068
  225TIP3    H2  682   5.406   5.710   3.991
  226TIP3   OH2  683   1.823   1.155   4.472
  226TIP3    H1  684   1.753   1.090   4.472
  226TIP3    H2  685   1.807   1.207   4.394
  227TIP3   OH2  686   5.644   5.419   1.324
  227TIP3    H1  687   5.655   5.373   1.408
  227TIP3    H2  688   5.622   5.509   1.349
  228TIP3   OH2  689   2.272   3.402   4.501
  228TIP3    H1  690   2.226   3.415   4.584
  228TIP3    H2  691   2.267   3.487   4.458
  229TIP3   OH2  692   1.629   2.170   2.209
  229TIP3    H1  693   1.633   2.110   2.135
  229TIP3    H2  694   1.575   2.243   2.177
  230TIP3   OH2  695   5.665   1.716   4.607
  230TIP3    H1  696   5.707   1.743   4.525
  230TIP3    H2  697   5.715   1.638   4.635
  231TIP3   OH2  698   6.053   2.970   2.088
  231TIP3    H1  699   5.986   3.033   2.115
  231TIP3    H2  700   6.037   2.956   1.995
  232TIP3   OH2  701   1.253   2.333   2.355
  232TIP3    H1  702   1.235   2.266   2.290
  232TIP3    H2  703   1.178   2.331   2.414
  233TIP3   OH2  704   4.519   2.620   3.641
  233TIP3    H1  705   4.536   2.684   3.572
  233TIP3    H2  706   4.501   2.673   3.719
  234TIP3   OH2  707   4.397   5.403   4.572
  234TIP3    H1  708   4.428   5.462   4.504
  234TIP3    H2  709   4.330   5.349   4.530
  235TIP3   OH2  710   1.487   4.689   1.617
  235TIP3    H1  711   1.450   4.603   1.640
  235TIP3    H2  712   1.419   4.731   1.565
  236TIP3   OH2  713   2.146   0.793   3.103
  236TIP3    H1  714   2.050   0.791   3.100
  236TIP3    H2  715   2.170   0.708   3.140
  237TIP3   OH2  716   5.954   3.883   1.507
  237TIP3    H1  717   5.875   3.885   1.560
  237TIP3    H2  718   6.006   3.810   1.542
  238TIP3   OH2  719   1.577   0.721   1.812
  238TIP3    H1  720   1.618   0.808   1.809
  238TIP3    H2  721   1.554   0.703   1.721
  239TIP3   OH2  722   3.467   4.536   2.728
  239TIP3    H1  723   3.491   4.464   2.671
  239TIP3    H2  724   3.502   4.614   2.686
  240TIP3   OH2  725   2.732   0.178   2.655
  240TIP3    H1  726   2.651   0.132   2.675
  240TIP3    H2  727   2.737   0.248   2.720
  241TIP3   OH2  728   1.037   5.500   4.858
  241TIP3    H1  729   1.031   5.579   4.911
  241TIP3    H2  730   0.946   5.476   4.839
  242TIP3   OH2  731   3.345   4.871   0.957
  242TIP3    H1  732   3.297   4.849   1.036
  242TIP3    H2  733   3.357   4.966   0.962
  243TIP3   OH2  734   4.460   5.313   3.230
  243TIP3    H1  735   4.489   5.289   3.318
  243TIP3    H2  736   4.539   5.346   3.188
  244TIP3   OH2  737   4.148   0.369   1.671
  244TIP3    H1  738   4.240   0.362   1.698
  244TIP3    H2  739   4.107   0.422   1.739
  245TIP3   OH2  740   1.824   0.288   0.591
  245TIP3    H1  741   1.767   0.226   0.546
  245TIP3    H2  742   1.908   0.281   0.547
  246TIP3   OH2  743   5.875   0.540   0.181
  246TIP3    H1  744   5.965   0.538   0.212
  246TIP3    H2  745   5.860   0.455   0.141
  247TIP3   OH2  746   3.542   3.170   2.460
  247TIP3    H1  747   3.446   3.168   2.455
  247TIP3    H2  748   3.561   3.215   2.542
  248TIP3   OH2  749   3.512   3.068   3.079
  248TIP3    H1  750   3.586   3.049   3.138
  248TIP3    H2  751   3.545   3.045   2.992
  249TIP3   OH2  752   0.574   2.217   2.393
  249TIP3    H1  753   0.603   2.308   2.401
  249TIP3    H2  754   0.650   2.171   2.356
  250TIP3   OH2  755   0.661   4.693   2.214
  250TIP3    H1  756   0.742   4.718   2.169
  250TIP3    H2  757   0.596   4.757   2.185
  251TIP3   OH2  758   2.898   1.378   0.432
  251TIP3    H1  759   2.940   1.343   0.353
  251TIP3    H2  760   2.804   1.371   0.413
  252TIP3   OH2  761   3.872   2.750   1.614
  252TIP3    H1  762   3.828   2.672   1.582
  252TIP3    H2  763   3.901   2.727   1.702
  253TIP3   OH2  764   2.329   4.734   0.677
  253TIP3    H1  765   2.285   4.748   0.761
  253TIP3    H2  766   2.393   4.665   0.695
  254TIP3   OH2  767   1.912   4.892   2.938
  254TIP3    H1  768   1.885   4.857   3.023
  254TIP3    H2  769   1.969   4.966   2.959
  255TIP3   OH2  770   2.699   1.360   3.386
  255TIP3    H1  771   2.651   1.286   3.422
  255TIP3    H2  772   2.729   1.409   3.463
  256TIP3   OH2  773   5.283   4.688   1.412
  256TIP3    H1  774   5.196   4.675   1.375
  256TIP3    H2  775   5.308   4.602   1.447
  257TIP3   OH2  776   3.877   0.532   4.260
  257TIP3    H1  777   3.924   0.449   4.267
  257TIP3    H2  778   3.939   0.591   4.216
  258TIP3   OH2  779   4.450   2.364   4.761
  258TIP3    H1  780   4.389   2.291   4.768
  258TIP3    H2  781   4.394   2.442   4.763
  259TIP3   OH2  782   2.058   3.420   3.024
  259TIP3    H1  783   2.027   3.420   2.934
  259TIP3    H2  784   1.986   3.380   3.074
  260TIP3   OH2  785   2.099   4.415   1.270
  260TIP3    H1  786   2.011   4.424   1.236
  260TIP3    H2  787   2.149   4.375   1.199
  261TIP3   OH2  788   3.096   3.667   2.126
  261TIP3    H1  789   3.138   3.701   2.047
  261TIP3    H2  790   3.152   3.595   2.155
  262TIP3   OH2  791   1.571   3.325   3.231
  262TIP3    H1  792   1.615   3.357   3.309
  262TIP3    H2  793   1.561   3.402   3.175
  263TIP3   OH2  794   2.983   2.186   2.495
  263TIP3    H1  795   2.899   2.221   2.525
  263TIP3    H2  796   2.998   2.109   2.549
  264TIP3   OH2  797   5.114   4.739   2.578
  264TIP3    H1  798   5.042   4.681   2.603
  264TIP3    H2  799   5.143   4.706   2.492
  265TIP3   OH2  800   6.249   5.378   0.732
  265TIP3    H1  801   6.327   5.341   0.773
  265TIP3    H2  802   6.239   5.328   0.651
  266TIP3   OH2  803   2.333   1.578   3.905
  266TIP3    H1  804   2.361   1.658   3.860
  266TIP3    H2  805   2.404   1.560   3.968
  267TIP3   OH2  806   6.030   0.812   0.430
  267TIP3    H1  807   6.091   0.792   0.500
  267TIP3    H2  808   6.048   0.747   0.362
  268TIP3   OH2  809   3.565   3.011   3.567
  268TIP3    H1  810   3.636   3.074   3.558
  268TIP3    H2  811   3.523   3.010   3.480
  269TIP3   OH2  812   1.470   3.330   2.865
  269TIP3    H1  813   1.449   3.376   2.784
  269TIP3    H2  814   1.562   3.350   2.881
  270TIP3   OH2  815   5.554   1.844   1.853
  270TIP3    H1  816   5.509   1.862   1.771
  270TIP3    H2  817   5.553   1.749   1.862
  271TIP3   OH2  818   5.607   0.026   3.135
  271TIP3    H1  819   5.671  -0.012   3.194
  271TIP3    H2  820   5.585   0.111   3.174
  272TIP3   OH2  821   4.312   3.227   1.185
  272TIP3    H1  822   4.283   3.278   1.260
  272TIP3    H2  823   4.242   3.162   1.172
  273TIP3   OH2  824   3.620   3.492   0.637
  273TIP3    H1  825   3.533   3.515   0.603
  273TIP3    H2  826   3.678   3.501   0.562
  274TIP3   OH2  827   3.177  -0.029   1.544
  274TIP3    H1  828   3.132   0.035   1.599
  274TIP3    H2  829   3.262  -0.041   1.586
  275TIP3   OH2  830   5.303   5.035   2.148
  275TIP3    H1  831   5.303   5.084   2.065
  275TIP3    H2  832   5.272   4.948   2.123
  276TIP3   OH2  833   3.811   4.493   2.085
  276TIP3    H1  834   3.830   4.401   2.064
  276TIP3    H2  835   3.747   4.520   2.019
  277TIP3   OH2  836   3.765   4.440   0.730
  277TIP3    H1  837   3.674   4.412   0.728
  277TIP3    H2  838   3.771   4.506   0.660
  278TIP3   OH2  839   0.806   4.210   1.047
  278TIP3    H1  840   0.788   4.301   1.074
  278TIP3    H2  841   0.746   4.195   0.974
  279TIP3   OH2  842   6.273   3.915   1.104
  279TIP3    H1  843   6.250   3.825   1.083
  279TIP3    H2  844   6.193   3.953   1.141
  280TIP3   OH2  845   5.001   2.072   0.050
  280TIP3    H1  846   5.043   2.143   0.099
  280TIP3    H2  847   4.964   2.115  -0.027
  281TIP3   OH2  848   2.064   5.316   4.875
  281TIP3    H1  849   2.022   5.244   4.922
  281TIP3    H2  850   1.991   5.369   4.842
  282TIP3   OH2  851   2.009   4.900   0.834
  282TIP3    H1  852   2.065   4.826   0.857
  282TIP3    H2  853   2.069   4.966   0.799
  283TIP3   OH2  854   4.190   4.172   2.102
  283TIP3    H1  855   4.240   4.240   2.057
  283TIP3    H2  856   4.256   4.112   2.136
  284TIP3   OH2  857   6.239   0.752   2.926
  284TIP3    H1  858   6.228   0.732   3.019
  284TIP3    H2  859   6.295   0.682   2.892
  285TIP3   OH2  860   2.050   3.601   0.270
  285TIP3    H1  861   2.085   3.528   0.218
  285TIP3    H2  862   2.073   3.579   0.360
  286TIP3   OH2  863   1.172   5.759   0.996
  286TIP3    H1  864   1.249   5.755   0.938
  286TIP3    H2  865   1.101   5.723   0.943
  287TIP3   OH2  866   1.362   5.957   0.572
  287TIP3    H1  867   1.292   5.949   0.636
  287TIP3    H2  868   1.344   5.887   0.509
  288TIP3   OH2  869   2.864   3.028   3.040
  288TIP3    H1  870   2.947   3.005   3.082
  288TIP3    H2  871   2.882   3.020   2.946
  289TIP3   OH2  872   0.419   1.187   2.850
  289TIP3    H1  873   0.332   1.216   2.823
  289TIP3    H2  874   0.475   1.263   2.834
  290TIP3   OH2  875   0.552   4.493   3.859
  290TIP3    H1  876   0.541   4.585   3.836
  290TIP3    H2  877   0.506   4.484   3.943
  291TIP3   OH2  878   0.738   4.346   2.007
  291TIP3    H1  879   0.708   4.431   1.974
  291TIP3    H2  880   0.739   4.290   1.930
  292TIP3   OH2  881   0.929   1.114   3.423
  292TIP3    H1  882   0.953   1.066   3.343
  292TIP3    H2  883   0.882   1.191   3.391
  293TIP3   OH2  884   3.139   0.694   2.124
  293TIP3    H1  885   3.116   0.768   2.067
  293TIP3    H2  886   3.104   0.617   2.079
  294TIP3   OH2  887   5.727   4.454   1.924
  294TIP3    H1  888   5.780   4.478   2.000
  294TIP3    H2  889   5.666   4.388   1.956
  295TIP3   OH2  890   4.875   0.338   3.051
  295TIP3    H1  891   4.825   0.331   3.133
  295TIP3    H2  892   4.875   0.249   3.016
  296TIP3   OH2  893   0.772   4.644   0.317
  296TIP3    H1  894   0.857   4.685   0.299
  296TIP3    H2  895   0.728   4.642   0.232
  297TIP3   OH2  896   0.859   0.209   0.658
  297TIP3    H1  897   0.770   0.236   0.682
  297TIP3    H2  898   0.872   0.243   0.570
  298TIP3   OH2  899   3.685   4.857   0.774
  298TIP3    H1  900   3.669   4.786   0.711
  298TIP3    H2  901   3.773   4.888   0.754
  299TIP3   OH2  902   5.172   2.425   2.914
  299TIP3    H1  903   5.205   2.432   2.825
  299TIP3    H2  904   5.147   2.514   2.938
  300TIP3   OH2  905   4.519   2.150   1.329
  300TIP3    H1  906   4.598   2.195   1.299
  300TIP3    H2  907   4.523   2.156   1.425
  301TIP3   OH2  908   1.004   3.627   3.547
  301TIP3    H1  909   0.998   3.627   3.451
  301TIP3    H2  910   0.928   3.575   3.575
  302TIP3   OH2  911   3.744   0.617   4.815
  302TIP3    H1  912   3.713   0.594   4.727
  302TIP3    H2  913   3.835   0.645   4.801
  303TIP3   OH2  914   4.660   1.691   1.313
  303TIP3    H1  915   4.756   1.691   1.309
  303TIP3    H2  916   4.638   1.769   1.365
  304TIP3   OH2  917   1.180   1.895   0.745
  304TIP3    H1  918   1.199   1.973   0.797
  304TIP3    H2  919   1.115   1.847   0.796
  305TIP3   OH2  920   4.030   5.361   1.340
  305TIP3    H1  921   4.054   5.325   1.425
  305TIP3    H2  922   3.964   5.300   1.306
  306TIP3   OH2  923   4.673   4.800   2.661
  306TIP3    H1  924   4.588   4.818   2.621
  306TIP3    H2  925   4.730   4.870   2.630
  307TIP3   OH2  926   0.055   0.896   0.074
  307TIP3    H1  927   0.093   0.822   0.120
  307TIP3    H2  928   0.074   0.972   0.129
  308TIP3   OH2  929   3.661   1.115   3.642
  308TIP3    H1  930   3.583   1.161   3.613
  308TIP3    H2  931   3.698   1.076   3.563
  309TIP3   OH2  932   4.488   4.166   3.344
  309TIP3    H1  933   4.473   4.177   3.250
  309TIP3    H2  934   4.566   4.111   3.350
  310TIP3   OH2  935   4.569   5.180   4.532
  310TIP3    H1  936   4.514   5.255   4.558
  310TIP3    H2  937   4.509   5.123   4.484
  311TIP3   OH2  938   0.979   5.319   5.078
  311TIP3    H1  939   0.963   5.410   5.052
  311TIP3    H2  940   0.928   5.308   5.157
  312TIP3   OH2  941   4.008   2.699   4.427
  312TIP3    H1  942   3.935   2.754   4.398
  312TIP3    H2  943   4.043   2.662   4.346
  313TIP3   OH2  944   5.812   4.675   2.082
  313TIP3    H1  945   5.746   4.715   2.139
  313TIP3    H2  946   5.858   4.750   2.043
  314TIP3   OH2  947   3.504   5.094   0.532
  314TIP3    H1  948   3.445   5.169   0.518
  314TIP3    H2  949   3.533   5.103   0.623
  315TIP3   OH2  950   2.971   4.831   2.142
  315TIP3    H1  951   3.030   4.851   2.215
  315TIP3    H2  952   2.910   4.767   2.178
  316TIP3   OH2  953   4.754   0.897   4.092
  316TIP3    H1  954   4.809   0.975   4.079
  316TIP3    H2  955   4.808   0.825   4.061
  317TIP3   OH2  956   2.490   1.200   3.479
  317TIP3    H1  957   2.424   1.269   3.486
  317TIP3    H2  958   2.441   1.118   3.484
  318TIP3   OH2  959   3.873   0.798   1.531
  318TIP3    H1  960   3.820   0.817   1.454
  318TIP3    H2  961   3.903   0.884   1.561
  319TIP3   OH2  962   3.124   2.473   1.109
  319TIP3    H1  963   3.185   2.432   1.047
  319TIP3    H2  964   3.037   2.450   1.075
  320TIP3   OH2  965   1.168   2.140   0.109
  320TIP3    H1  966   1.251   2.144   0.063
  320TIP3    H2  967   1.173   2.061   0.162
  321TIP3   OH2  968   5.520   2.989   1.449
  321TIP3    H1  969   5.458   3.021   1.514
  321TIP3    H2  970   5.465   2.949   1.381
  322TIP3   OH2  971   5.869   2.672   0.271
  322TIP3    H1  972   5.791   2.632   0.308
  322TIP3    H2  973   5.892   2.616   0.196
  323TIP3   OH2  974   4.569   1.090  -0.020
  323TIP3    H1  975   4.575   1.185  -0.011
  323TIP3    H2  976   4.475   1.072  -0.024
  324TIP3   OH2  977   5.652   2.124   0.013
  324TIP3    H1  978   5.618   2.043   0.050
  324TIP3    H2  979   5.605   2.135  -0.070
  325TIP3   OH2  980   5.540   5.798   1.973
  325TIP3    H1  981   5.611   5.840   1.926
  325TIP3    H2  982   5.476   5.868   1.987
  326TIP3   OH2  983   0.790   4.537   3.997
  326TIP3    H1  984   0.788   4.457   4.049
  326TIP3    H2  985   0.728   4.521   3.926
  327TIP3   OH2  986   4.675   3.526   2.583
  327TIP3    H1  987   4.758   3.481   2.599
  327TIP3    H2  988   4.682   3.559   2.494
  328TIP3   OH2  989   4.557   3.521   1.657
  328TIP3    H1  990   4.526   3.558   1.574
  328TIP3    H2  991   4.477   3.494   1.702
  329TIP3   OH2  992   4.348   5.261   2.051
  329TIP3    H1  993   4.289   5.199   2.094
  329TIP3    H2  994   4.410   5.206   2.003
  330TIP3   OH2  995   1.895   1.413   0.556
  330TIP3    H1  996   1.979   1.371   0.537
  330TIP3    H2  997   1.859   1.362   0.629
  331TIP3   OH2  998   1.638   1.544   0.496
  331TIP3    H1  999   1.669   1.583   0.415
  331TIP3    H2 1000   1.705   1.480   0.520
  332TIP3   OH2 1001   0.621   5.928   3.506
  332TIP3    H1 1002   0.624   5.840   3.543
  332TIP3    H2 1003   0.552   5.924   3.440
  333TIP3   OH2 1004   5.672   5.824   0.453
  333TIP3    H1 1005   5.699   5.779   0.373
  333TIP3    H2 1006   5.685   5.760   0.522
  334TIP3   OH2 1007   1.916   3.427   3.966
  334TIP3    H1 1008   1.887   3.342   3.931
  334TIP3    H2 1009   1.942   3.408   4.056
  335TIP3   OH2 1010   2.006   5.226   2.219
  335TIP3    H1 1011   2.047   5.268   2.143
  335TIP3    H2 1012   2.073   5.228   2.286
  336TIP3   OH2 1013   3.412   4.877   2.199
  336TIP3    H1 1014   3.400   4.972   2.193
  336TIP3    H2 1015   3.438   4.850   2.111
  337TIP3   OH2 1016   3.738   2.310   4.811
  337TIP3    H1 1017   3.770   2.400   4.818
  337TIP3    H2 1018   3.815   2.260   4.784
  338TIP3   OH2 1019   4.238   1.505   3.745
  338TIP3    H1 1020   4.317   1.556   3.727
  338TIP3    H2 1021   4.261   1.452   3.821
  339TIP3   OH2 1022   1.360   2.478   5.108
  339TIP3    H1 1023   1.332   2.400   5.061
  339TIP3    H2 1024   1.441   2.505   5.065
  340TIP3   OH2 1025   4.651   2.435   4.582
  340TIP3    H1 1026   4.616   2.398   4.663
  340TIP3    H2 1027   4.597   2.396   4.513
  341TIP3   OH2 1028   3.445   2.933   1.368
  341TIP3    H1 1029   3.500   2.927   1.446
  341TIP3    H2 1030   3.360   2.963   1.400
  342TIP3   OH2 1031   6.261   2.052   1.386
  342TIP3    H1 1032   6.346   2.024   1.353
  342TIP3    H2 1033   6.247   1.999   1.465
  343TIP3   OH2 1034   1.696   4.071   0.583
  343TIP3    H1 1035   1.609   4.089   0.618
  343TIP3    H2 1036   1.757   4.107   0.647
  344TIP3   OH2 1037   4.581   1.432   1.633
  344TIP3    H1 1038   4.675   1.441   1.618
  344TIP3    H2 1039   4.542   1.503   1.582
  345TIP3   OH2 1040   0.526   1.315   0.446
  345TIP3    H1 1041   0.493   1.340   0.360
  345TIP3    H2 1042   0.607   1.365   0.456
  346TIP3   OH2 1043   0.855   1.671   1.541
  346TIP3    H1 1044   0.845   1.701   1.451
  346TIP3    H2 1045   0.832   1.747   1.595
  347TIP3   OH2 1046   1.016   5.614   2.705
  347TIP3    H1 1047   0.927   5.649   2.699
  347TIP3    H2 1048   1.013   5.555   2.781
  348TIP3   OH2 1049   0.574   1.374   1.515
  348TIP3    H1 1050   0.535   1.288   1.498
  348TIP3    H2 1051   0.658   1.371   1.468
  349TIP3   OH2 1052   6.006   0.923   2.834
  349TIP3    H1 1053   6.000   0.926   2.739
  349TIP3    H2 1054   6.099   0.913   2.852
  350TIP3   OH2 1055   4.036   1.499   1.194
  350TIP3    H1 1056   4.118   1.532   1.230
  350TIP3    H2 1057   3.980   1.486   1.270
  351TIP3   OH2 1058   2.468   3.803   1.882
  351TIP3    H1 1059   2.388   3.774   1.839
  351TIP3    H2 1060   2.486   3.889   1.844
  352TIP3   OH2 1061   0.066   0.629   3.157
  352TIP3    H1 1062   0.134   0.684   3.195
  352TIP3    H2 1063  -0.016   0.668   3.187
  353TIP3   OH2 1064   4.236   0.300   0.062
  353TIP3    H1 1065   4.274   0.292   0.149
  353TIP3    H2 1066   4.311   0.292   0.002
  354TIP3   OH2 1067   4.216   2.211   4.743
  354TIP3    H1 1068   4.159   2.267   4.691
  354TIP3    H2 1069   4.203   2.123   4.708
  355TIP3   OH2 1070   3.736   3.130   1.590
  355TIP3    H1 1071   3.680   3.060   1.623
  355TIP3    H2 1072   3.748   3.188   1.664
  356TIP3   OH2 1073   5.915   3.740   4.835
  356TIP3    H1 1074   5.893   3.688   4.759
  356TIP3    H2 1075   5.982   3.689   4.882
  357TIP3   OH2 1076   3.697   0.685   3.401
  357TIP3    H1 1077   3.660   0.607   3.441
  357TIP3    H2 1078   3.709   0.661   3.309
  358TIP3   OH2 1079   5.895   1.377   0.907
  358TIP3    H1 1080   5.870   1.468   0.890
  358TIP3    H2 1081   5.974   1.364   0.855
  359TIP3   OH2 1082   4.372   5.277   0.323
  359TIP3    H1 1083   4.400   5.225   0.398
  359TIP3    H2 1084   4.439   5.263   0.257
  360TIP3   OH2 1085   5.105   1.612   0.719
  360TIP3    H1 1086   5.112   1.700   0.682
  360TIP3    H2 1087   5.119   1.624   0.813
  361TIP3   OH2 1088   4.087   3.851   3.057
  361TIP3    H1 1089   4.002   3.818   3.028
  361TIP3    H2 1090   4.067   3.909   3.130
  362TIP3   OH2 1091   3.355   5.425   2.949
  362TIP3    H1 1092   3.288   5.473   2.997
  362TIP3    H2 1093   3.310   5.349   2.913
  363TIP3   OH2 1094   1.235   1.918   0.262
  363TIP3    H1 1095   1.257   1.825   0.267
  363TIP3    H2 1096   1.265   1.954   0.346
  364TIP3   OH2 1097   0.540   1.742   0.494
  364TIP3    H1 1098   0.488   1.759   0.415
  364TIP3    H2 1099   0.574   1.828   0.519
  365TIP3   OH2 1100   1.386   3.772   1.517
  365TIP3    H1 1101   1.416   3.745   1.604
  365TIP3    H2 1102   1.379   3.691   1.467
  366TIP3   OH2 1103   2.550   3.511   1.161
  366TIP3    H1 1104   2.538   3.480   1.071
  366TIP3    H2 1105   2.641   3.490   1.181
  367TIP3   OH2 1106   3.169   3.773   4.403
  367TIP3    H1 1107   3.164   3.865   4.376
  367TIP3    H2 1108   3.169   3.724   4.321
  368TIP3   OH2 1109   3.525   2.251   2.705
  368TIP3    H1 1110   3.537   2.159   2.729
  368TIP3    H2 1111   3.439   2.275   2.741
  369TIP3   OH2 1112   2.006   0.616   4.698
  369TIP3    H1 1113   2.064   0.639   4.771
  369TIP3    H2 1114   2.027   0.680   4.630
  370TIP3   OH2 1115   4.005   1.348   2.393
  370TIP3    H1 1116   3.986   1.410   2.464
  370TIP3    H2 1117   4.093   1.316   2.412
  371TIP3   OH2 1118   1.721   2.386   1.611
  371TIP3    H1 1119   1.645   2.406   1.558
  371TIP3    H2 1120   1.776   2.464   1.606
  372TIP3   OH2 1121   0.456   3.833   4.004
  372TIP3    H1 1122   0.453   3.921   3.966
  372TIP3    H2 1123   0.392   3.783   3.952
  373TIP3   OH2 1124   1.552   3.919   3.089
  373TIP3    H1 1125   1.534   3.966   3.170
  373TIP3    H2 1126   1.498   3.962   3.023
  374TIP3   OH2 1127   2.076   5.074   4.709
  374TIP3    H1 1128   2.116   5.142   4.764
  374TIP3    H2 1129   2.146   5.010   4.696
  375TIP3   OH2 1130   3.447   1.276   1.032
  375TIP3    H1 1131   3.426   1.370   1.027
  375TIP3    H2 1132   3.491   1.266   1.116
  376TIP3   OH2 1133   5.922   0.581   3.248
  376TIP3    H1 1134   5.916   0.485   3.242
  376TIP3    H2 1135   5.870   0.603   3.326
  377TIP3   OH2 1136   5.898   5.686   0.644
  377TIP3    H1 1137   5.988   5.682   0.677
  377TIP3    H2 1138   5.900   5.634   0.563
  378TIP3   OH2 1139   2.158   2.746   4.491
  378TIP3    H1 1140   2.086   2.755   4.552
  378TIP3    H2 1141   2.122   2.693   4.419
  379TIP3   OH2 1142   4.493   4.466   1.236
  379TIP3    H1 1143   4.553   4.540   1.232
  379TIP3    H2 1144   4.547   4.390   1.212
  380TIP3   OH2 1145   3.514   2.810   3.824
  380TIP3    H1 1146   3.421   2.807   3.845
  380TIP3    H2 1147   3.554   2.748   3.885
  381TIP3   OH2 1148   0.572   0.612   1.373
  381TIP3    H1 1149   0.552   0.627   1.465
  381TIP3    H2 1150   0.620   0.529   1.372
  382TIP3   OH2 1151   2.702   2.282   2.436
  382TIP3    H1 1152   2.748   2.360   2.403
  382TIP3    H2 1153   2.699   2.223   2.361
  383TIP3   OH2 1154   1.748   0.277   2.725
  383TIP3    H1 1155   1.711   0.207   2.779
  383TIP3    H2 1156   1.723   0.255   2.636
  384TIP3   OH2 1157   3.996   1.413   4.423
  384TIP3    H1 1158   3.959   1.501   4.429
  384TIP3    H2 1159   3.926   1.360   4.386
  385TIP3   OH2 1160   5.318   5.249   3.173
  385TIP3    H1 1161   5.369   5.320   3.135
  385TIP3    H2 1162   5.340   5.249   3.266
  386TIP3   OH2 1163   4.113   1.252   5.016
  386TIP3    H1 1164   4.128   1.177   4.958
  386TIP3    H2 1165   4.027   1.285   4.991
  387TIP3   OH2 1166   1.650   5.052   2.413
  387TIP3    H1 1167   1.623   5.002   2.490
  387TIP3    H2 1168   1.572   5.053   2.357
  388TIP3   OH2 1169   5.652   1.420   4.779
  388TIP3    H1 1170   5.603   1.352   4.826
  388TIP3    H2 1171   5.741   1.388   4.775
  389TIP3   OH2 1172   3.739   4.925   1.995
  389TIP3    H1 1173   3.677   4.868   1.950
  389TIP3    H2 1174   3.725   4.908   2.088
  390TIP3   OH2 1175   0.438   1.749   1.122
  390TIP3    H1 1176   0.399   1.672   1.163
  390TIP3    H2 1177   0.400   1.753   1.034
  391TIP3   OH2 1178   2.267   0.382   2.361
  391TIP3    H1 1179   2.264   0.307   2.420
  391TIP3    H2 1180   2.228   0.351   2.280
  392TIP3   OH2 1181   3.402   5.407   4.853
  392TIP3    H1 1182   3.337   5.472   4.882
  392TIP3    H2 1183   3.382   5.329   4.904
  393TIP3   OH2 1184   2.138   2.796   2.802
  393TIP3    H1 1185   2.171   2.865   2.861
  393TIP3    H2 1186   2.060   2.763   2.846
  394TIP3   OH2 1187   3.617   1.676   3.139
  394TIP3    H1 1188   3.579   1.697   3.224
  394TIP3    H2 1189   3.637   1.762   3.100
  395TIP3   OH2 1190   4.849   2.721   1.609
  395TIP3    H1 1191   4.922   2.782   1.598
  395TIP3    H2 1192   4.791   2.765   1.672
  396TIP3   OH2 1193   4.970   4.524   2.999
  396TIP3    H1 1194   4.992   4.482   2.915
  396TIP3    H2 1195   4.907   4.591   2.976
  397TIP3   OH2 1196   3.590   2.865   0.608
  397TIP3    H1 1197   3.653   2.927   0.644
  397TIP3    H2 1198   3.645   2.792   0.578
  398TIP3   OH2 1199   4.474   4.018   3.081
  398TIP3    H1 1200   4.451   3.957   3.151
  398TIP3    H2 1201   4.406   4.004   3.014
  399TIP3   OH2 1202   3.438   2.592   2.107
  399TIP3    H1 1203   3.465   2.590   2.199
  399TIP3    H2 1204   3.342   2.588   2.109
  400TIP3   OH2 1205   4.548   5.957   1.010
  400TIP3    H1 1206   4.464   5.930   0.973
  400TIP3    H2 1207   4.531   5.969   1.103
  401TIP3   OH2 1208   4.881   1.169   4.403
  401TIP3    H1 1209   4.886   1.171   4.498
  401TIP3    H2 1210   4.800   1.122   4.384
  402TIP3   OH2 1211   3.293   0.664   0.230
  402TIP3    H1 1212   3.246   0.583   0.212
  402TIP3    H2 1213   3.379   0.650   0.191
  403TIP3   OH2 1214   3.267   2.314   2.770
  403TIP3    H1 1215   3.304   2.386   2.821
  403TIP3    H2 1216   3.186   2.291   2.815
  404TIP3   OH2 1217   4.984   5.356   1.338
  404TIP3    H1 1218   5.043   5.285   1.366
  404TIP3    H2 1219   5.043   5.427   1.314
  405TIP3   OH2 1220   1.873   4.239   0.730
  405TIP3    H1 1221   1.871   4.213   0.822
  405TIP3    H2 1222   1.966   4.239   0.706
  406TIP3   OH2 1223   3.062   4.690   5.128
  406TIP3    H1 1224   3.081   4.782   5.107
  406TIP3    H2 1225   2.978   4.673   5.086
  407TIP3   OH2 1226   0.615   2.543   0.544
  407TIP3    H1 1227   0.564   2.583   0.614
  407TIP3    H2 1228   0.579   2.580   0.464
  408TIP3   OH2 1229   2.718   0.396   2.854
  408TIP3    H1 1230   2.771   0.375   2.931
  408TIP3    H2 1231   2.723   0.491   2.845
  409TIP3   OH2 1232   0.391   2.317   0.738
  409TIP3    H1 1233   0.476   2.273   0.727
  409TIP3    H2 1234   0.327   2.246   0.743
  410TIP3   OH2 1235   4.851   2.192   3.977
  410TIP3    H1 1236   4.782   2.139   3.938
  410TIP3    H2 1237   4.904   2.130   4.027
  411TIP3   OH2 1238   6.187   5.224   0.051
  411TIP3    H1 1239   6.256   5.287   0.029
  411TIP3    H2 1240   6.187   5.162  -0.022
  412TIP3   OH2 1241   2.097   2.333   4.391
  412TIP3    H1 1242   2.016   2.283   4.401
  412TIP3    H2 1243   2.148   2.284   4.327
  413TIP3   OH2 1244   0.651   3.774   0.022
  413TIP3    H1 1245   0.643   3.860   0.063
  413TIP3    H2 1246   0.732   3.737   0.059
  414TIP3   OH2 1247   5.229   0.252   3.688
  414TIP3    H1 1248   5.179   0.222   3.764
  414TIP3    H2 1249   5.191   0.337   3.667
  415TIP3   OH2 1250   4.429   4.030   0.305
  415TIP3    H1 1251   4.486   3.968   0.260
  415TIP3    H2 1252   4.341   3.992   0.298
  416TIP3   OH2 1253   2.173   3.391   4.884
  416TIP3    H1 1254   2.161   3.333   4.959
  416TIP3    H2 1255   2.268   3.397   4.873
  417TIP3   OH2 1256   4.321   3.209   4.092
  417TIP3    H1 1257   4.361   3.157   4.161
  417TIP3    H2 1258   4.254   3.152   4.054
  418TIP3   OH2 1259   4.974   3.248   0.586
  418TIP3    H1 1260   4.904   3.209   0.534
  418TIP3    H2 1261   5.033   3.288   0.522
  419TIP3   OH2 1262   3.063   1.460   4.539
  419TIP3    H1 1263   3.045   1.526   4.605
  419TIP3    H2 1264   3.078   1.510   4.458
  420TIP3   OH2 1265   0.545  -0.016   3.294
  420TIP3    H1 1266   0.499   0.056   3.338
  420TIP3    H2 1267   0.622   0.025   3.254
  421TIP3   OH2 1268   3.099   0.479   0.151
  421TIP3    H1 1269   3.041   0.406   0.171
  421TIP3    H2 1270   3.133   0.459   0.064
  422TIP3   OH2 1271   5.242   3.922   4.403
  422TIP3    H1 1272   5.260   3.909   4.496
  422TIP3    H2 1273   5.327   3.945   4.365
  423TIP3   OH2 1274   0.747   2.846   4.987
  423TIP3    H1 1275   0.760   2.837   5.081
  423TIP3    H2 1276   0.707   2.932   4.976
  424TIP3   OH2 1277   3.144   1.934   4.197
  424TIP3    H1 1278   3.049   1.931   4.208
  424TIP3    H2 1279   3.156   1.937   4.102
  425TIP3   OH2 1280   0.843   2.041   3.441
  425TIP3    H1 1281   0.875   1.957   3.475
  425TIP3    H2 1282   0.850   2.033   3.346
  426TIP3   OH2 1283   2.251   1.588   1.823
  426TIP3    H1 1284   2.303   1.530   1.768
  426TIP3    H2 1285   2.202   1.643   1.762
  427TIP3   OH2 1286   0.329   3.761   0.851
  427TIP3    H1 1287   0.246   3.725   0.821
  427TIP3    H2 1288   0.359   3.815   0.778
  428TIP3   OH2 1289   5.452   3.764   3.870
  428TIP3    H1 1290   5.357   3.754   3.862
  428TIP3    H2 1291   5.465   3.857   3.891
  429TIP3   OH2 1292   3.018   5.880   3.377
  429TIP3    H1 1293   2.960   5.942   3.334
  429TIP3    H2 1294   2.996   5.795   3.339
  430TIP3   OH2 1295   5.095   5.396   2.680
  430TIP3    H1 1296   5.071   5.328   2.744
  430TIP3    H2 1297   5.144   5.348   2.612
  431TIP3   OH2 1298   0.766   5.257   1.326
  431TIP3    H1 1299   0.822   5.332   1.343
  431TIP3    H2 1300   0.692   5.292   1.276
  432TIP3   OH2 1301   1.452   3.055   1.667
  432TIP3    H1 1302   1.402   3.093   1.739
  432TIP3    H2 1303   1.494   2.978   1.705
  433TIP3   OH2 1304   6.313   3.937   0.636
  433TIP3    H1 1305   6.322   3.994   0.560
  433TIP3    H2 1306   6.336   3.850   0.604
  434TIP3   OH2 1307   1.104   2.549   4.482
  434TIP3    H1 1308   1.026   2.599   4.457
  434TIP3    H2 1309   1.154   2.542   4.401
  435TIP3   OH2 1310   2.609   5.644   0.427
  435TIP3    H1 1311   2.687   5.594   0.403
  435TIP3    H2 1312   2.540   5.611   0.370
  436TIP3   OH2 1313   2.611   4.158   4.594
  436TIP3    H1 1314   2.679   4.222   4.610
  436TIP3    H2 1315   2.627   4.089   4.658
  437TIP3   OH2 1316   0.652   2.328   4.722
  437TIP3    H1 1317   0.594   2.403   4.733
  437TIP3    H2 1318   0.636   2.274   4.799
  438TIP3   OH2 1319  -0.012   3.262   4.282
  438TIP3    H1 1320  -0.029   3.343   4.330
  438TIP3    H2 1321  -0.047   3.279   4.194
  439TIP3   OH2 1322   4.570   3.511   0.442
  439TIP3    H1 1323   4.501   3.476   0.385
  439TIP3    H2 1324   4.572   3.452   0.517
  440TIP3   OH2 1325   4.598   3.220   1.716
  440TIP3    H1 1326   4.595   3.316   1.708
  440TIP3    H2 1327   4.631   3.190   1.631
  441TIP3   OH2 1328   1.803   1.445   3.457
  441TIP3    H1 1329   1.805   1.468   3.364
  441TIP3    H2 1330   1.894   1.423   3.478
  442TIP3   OH2 1331   2.690   3.853   3.069
  442TIP3    H1 1332   2.607   3.837   3.114
  442TIP3    H2 1333   2.753   3.865   3.139
  443TIP3   OH2 1334   5.485   1.346   4.418
  443TIP3    H1 1335   5.552   1.296   4.464
  443TIP3    H2 1336   5.412   1.353   4.480
  444TIP3   OH2 1337   5.905   1.870   2.668
  444TIP3    H1 1338   5.810   1.854   2.667
  444TIP3    H2 1339   5.916   1.942   2.731
  445TIP3   OH2 1340   5.277   2.676   2.021
  445TIP3    H1 1341   5.350   2.615   2.026
  445TIP3    H2 1342   5.213   2.632   1.964
  446TIP3   OH2 1343   5.758   0.088   0.211
  446TIP3    H1 1344   5.681   0.085   0.268
  446TIP3    H2 1345   5.755   0.175   0.170
  447TIP3   OH2 1346   2.475   4.087   3.196
  447TIP3    H1 1347   2.398   4.116   3.245
  447TIP3    H2 1348   2.446   4.083   3.105
  448TIP3   OH2 1349   4.888   2.826   0.547
  448TIP3    H1 1350   4.797   2.846   0.571
  448TIP3    H2 1351   4.895   2.855   0.456
  449TIP3   OH2 1352   6.076   4.677   0.860
  449TIP3    H1 1353   6.108   4.724   0.783
  449TIP3    H2 1354   6.142   4.608   0.875
  450TIP3   OH2 1355   5.377   1.200   2.938
  450TIP3    H1 1356   5.361   1.134   2.871
  450TIP3    H2 1357   5.471   1.216   2.935
  451TIP3   OH2 1358   4.103   3.871   2.368
  451TIP3    H1 1359   4.108   3.776   2.360
  451TIP3    H2 1360   4.162   3.905   2.301
  452TIP3   OH2 1361   1.052   4.033   1.020
  452TIP3    H1 1362   0.973   3.996   0.981
  452TIP3    H2 1363   1.021   4.110   1.067
  453TIP3   OH2 1364   3.958   2.030   1.943
  453TIP3    H1 1365   3.991   2.065   1.860
  453TIP3    H2 1366   4.033   1.986   1.982
  454TIP3   OH2 1367   0.588   3.817   1.908
  454TIP3    H1 1368   0.503   3.859   1.912
  454TIP3    H2 1369   0.615   3.810   2.000
  455TIP3   OH2 1370   2.299   4.802   0.936
  455TIP3    H1 1371   2.262   4.749   1.007
  455TIP3    H2 1372   2.355   4.865   0.981
  456TIP3   OH2 1373   0.087   4.946   2.525
  456TIP3    H1 1374   0.033   4.991   2.589
  456TIP3    H2 1375   0.140   4.885   2.577
  457TIP3   OH2 1376   2.740   2.265   0.850
  457TIP3    H1 1377   2.703   2.178   0.832
  457TIP3    H2 1378   2.684   2.325   0.800
  458TIP3   OH2 1379   3.665   1.766   4.356
  458TIP3    H1 1380   3.600   1.810   4.410
  458TIP3    H2 1381   3.651   1.803   4.268
  459TIP3   OH2 1382   0.012   2.984   4.198
  459TIP3    H1 1383  -0.081   2.962   4.196
  459TIP3    H2 1384   0.015   3.072   4.236
  460TIP3   OH2 1385   2.645   2.706   0.083
  460TIP3    H1 1386   2.724   2.656   0.066
  460TIP3    H2 1387   2.600   2.657   0.152
  461TIP3   OH2 1388   5.683   5.819   3.954
  461TIP3    H1 1389   5.638   5.734   3.949
  461TIP3    H2 1390   5.615   5.880   3.982
  462TIP3   OH2 1391   4.875   3.684   4.486
  462TIP3    H1 1392   4.840   3.773   4.483
  462TIP3    H2 1393   4.927   3.682   4.566
  463TIP3   OH2 1394   1.977   1.165   4.019
  463TIP3    H1 1395   1.950   1.110   4.093
  463TIP3    H2 1396   2.008   1.103   3.953
  464TIP3   OH2 1397   3.841   2.732   3.441
  464TIP3    H1 1398   3.800   2.660   3.393
  464TIP3    H2 1399   3.825   2.711   3.533
  465TIP3   OH2 1400   0.528   5.438   4.943
  465TIP3    H1 1401   0.451   5.388   4.917
  465TIP3    H2 1402   0.509   5.464   5.033
  466TIP3   OH2 1403   4.484   1.772   0.062
  466TIP3    H1 1404   4.574   1.804   0.068
  466TIP3    H2 1405   4.480   1.702   0.128
  467TIP3   OH2 1406   4.095   3.539   3.571
  467TIP3    H1 1407   4.063   3.619   3.530
  467TIP3    H2 1408   4.189   3.539   3.552
  468TIP3   OH2 1409   5.681   3.775   3.232
  468TIP3    H1 1410   5.635   3.839   3.286
  468TIP3    H2 1411   5.650   3.792   3.143
  469TIP3   OH2 1412   6.257   5.012   1.433
  469TIP3    H1 1413   6.233   5.022   1.526
  469TIP3    H2 1414   6.174   5.024   1.386
  470TIP3   OH2 1415   3.306   4.077   1.714
  470TIP3    H1 1416   3.227   4.129   1.696
  470TIP3    H2 1417   3.299   4.052   1.806
  471TIP3   OH2 1418   0.201   0.479   1.738
  471TIP3    H1 1419   0.143   0.405   1.719
  471TIP3    H2 1420   0.144   0.555   1.740
  472TIP3   OH2 1421   1.850   4.953   3.877
  472TIP3    H1 1422   1.804   5.023   3.923
  472TIP3    H2 1423   1.920   4.928   3.937
  473TIP3   OH2 1424   0.819   0.871   2.611
  473TIP3    H1 1425   0.756   0.939   2.634
  473TIP3    H2 1426   0.777   0.823   2.540
  474TIP3   OH2 1427   3.383   4.662   3.615
  474TIP3    H1 1428   3.326   4.708   3.676
  474TIP3    H2 1429   3.337   4.579   3.598
  475TIP3   OH2 1430   3.947   5.957   0.311
  475TIP3    H1 1431   3.898   5.881   0.282
  475TIP3    H2 1432   3.929   6.024   0.245
  476TIP3   OH2 1433   3.789   4.087   0.395
  476TIP3    H1 1434   3.860   4.152   0.390
  476TIP3    H2 1435   3.760   4.091   0.486
  477TIP3   OH2 1436   5.873   5.162   1.722
  477TIP3    H1 1437   5.817   5.159   1.800
  477TIP3    H2 1438   5.813   5.153   1.648
  478TIP3   OH2 1439   5.578   4.127   5.004
  478TIP3    H1 1440   5.619   4.040   5.003
  478TIP3    H2 1441   5.485   4.110   4.986
  479TIP3   OH2 1442   5.787   4.175   1.505
  479TIP3    H1 1443   5.730   4.235   1.552
  479TIP3    H2 1444   5.875   4.201   1.530
  480TIP3   OH2 1445   4.264   5.298   2.927
  480TIP3    H1 1446   4.359   5.300   2.928
  480TIP3    H2 1447   4.237   5.387   2.951
  481TIP3   OH2 1448   1.999   0.559   4.271
  481TIP3    H1 1449   1.917   0.516   4.244
  481TIP3    H2 1450   2.056   0.486   4.296
  482TIP3   OH2 1451   0.583   5.379   1.117
  482TIP3    H1 1452   0.662   5.392   1.064
  482TIP3    H2 1453   0.511   5.396   1.057
  483TIP3   OH2 1454   3.646   0.573   1.396
  483TIP3    H1 1455   3.624   0.601   1.307
  483TIP3    H2 1456   3.561   0.565   1.440
  484TIP3   OH2 1457   0.188   1.435   2.843
  484TIP3    H1 1458   0.148   1.522   2.835
  484TIP3    H2 1459   0.263   1.449   2.901
  485TIP3   OH2 1460   0.616   3.543   0.647
  485TIP3    H1 1461   0.672   3.621   0.645
  485TIP3    H2 1462   0.640   3.499   0.729
  486TIP3   OH2 1463   0.265   4.440   2.376
  486TIP3    H1 1464   0.208   4.386   2.322
  486TIP3    H2 1465   0.354   4.417   2.349
  487TIP3   OH2 1466   3.981   4.960   2.900
  487TIP3    H1 1467   4.045   4.992   2.837
  487TIP3    H2 1468   4.029   4.954   2.983
  488TIP3   OH2 1469   3.213   0.072   0.970
  488TIP3    H1 1470   3.250  -0.007   1.010
  488TIP3    H2 1471   3.175   0.121   1.043
  489TIP3   OH2 1472   2.017   2.726   4.238
  489TIP3    H1 1473   1.964   2.646   4.241
  489TIP3    H2 1474   1.955   2.796   4.262
  490TIP3   OH2 1475   4.114   1.182   3.335
  490TIP3    H1 1476   4.096   1.258   3.279
  490TIP3    H2 1477   4.185   1.135   3.290
  491TIP3   OH2 1478   3.065   2.674   2.958
  491TIP3    H1 1479   3.009   2.659   3.034
  491TIP3    H2 1480   3.107   2.589   2.942
  492TIP3   OH2 1481   3.028   1.053   3.389
  492TIP3    H1 1482   3.119   1.055   3.359
  492TIP3    H2 1483   2.992   1.138   3.361
  493TIP3   OH2 1484   0.560   2.254   1.759
  493TIP3    H1 1485   0.546   2.190   1.829
  493TIP3    H2 1486   0.506   2.329   1.785
  494TIP3   OH2 1487   6.167   4.680   2.459
  494TIP3    H1 1488   6.127   4.683   2.373
  494TIP3    H2 1489   6.154   4.767   2.496
  495TIP3   OH2 1490   4.194   0.171   2.050
  495TIP3    H1 1491   4.122   0.174   2.113
  495TIP3    H2 1492   4.162   0.112   1.982
  496TIP3   OH2 1493   1.471   2.048   3.984
  496TIP3    H1 1494   1.438   2.070   3.897
  496TIP3    H2 1495   1.400   2.074   4.043
  497TIP3   OH2 1496   4.891   0.311   4.638
  497TIP3    H1 1497   4.842   0.312   4.555
  497TIP3    H2 1498   4.824   0.299   4.705
  498TIP3   OH2 1499   3.512   5.591   2.799
  498TIP3    H1 1500   3.469   5.529   2.859
  498TIP3    H2 1501   3.442   5.652   2.774
  499TIP3   OH2 1502   4.209   0.709   0.098
  499TIP3    H1 1503   4.126   0.666   0.122
  499TIP3    H2 1504   4.229   0.766   0.172
  500TIP3   OH2 1505   0.162   6.027   1.632
  500TIP3    H1 1506   0.179   5.962   1.564
  500TIP3    H2 1507   0.105   5.983   1.694
  501TIP3   OH2 1508   1.885   4.146   4.858
  501TIP3    H1 1509   1.926   4.077   4.910
  501TIP3    H2 1510   1.791   4.128   4.864
  502TIP3   OH2 1511   2.433   2.487   4.121
  502TIP3    H1 1512   2.389   2.526   4.197
  502TIP3    H2 1513   2.443   2.395   4.144
  503TIP3   OH2 1514   4.213   1.527   5.083
  503TIP3    H1 1515   4.174   1.446   5.051
  503TIP3    H2 1516   4.286   1.499   5.138
  504TIP3   OH2 1517   1.587   5.182   0.842
  504TIP3    H1 1518   1.523   5.171   0.772
  504TIP3    H2 1519   1.658   5.122   0.820
  505TIP3   OH2 1520   0.155   2.414   3.602
  505TIP3    H1 1521   0.167   2.355   3.527
  505TIP3    H2 1522   0.126   2.356   3.673
  506TIP3   OH2 1523   2.172   5.643   4.338
  506TIP3    H1 1524   2.225   5.569   4.311
  506TIP3    H2 1525   2.178   5.705   4.266
  507TIP3   OH2 1526   4.028   0.950   4.387
  507TIP3    H1 1527   3.947   0.899   4.398
  507TIP3    H2 1528   4.048   0.943   4.293
  508TIP3   OH2 1529   2.123   0.261   0.704
  508TIP3    H1 1530   2.066   0.309   0.764
  508TIP3    H2 1531   2.157   0.328   0.645
  509TIP3   OH2 1532   1.243   2.858   3.729
  509TIP3    H1 1533   1.259   2.768   3.756
  509TIP3    H2 1534   1.163   2.854   3.678
  510TIP3   OH2 1535   4.232   0.724   1.030
  510TIP3    H1 1536   4.181   0.742   1.109
  510TIP3    H2 1537   4.323   0.728   1.059
  511TIP3   OH2 1538   0.430   3.509   0.314
  511TIP3    H1 1539   0.430   3.546   0.226
  511TIP3    H2 1540   0.463   3.420   0.302
  512TIP3   OH2 1541   0.887   4.451   2.261
  512TIP3    H1 1542   0.889   4.544   2.238
  512TIP3    H2 1543   0.854   4.408   2.182
  513TIP3   OH2 1544   3.011   4.008   3.821
  513TIP3    H1 1545   3.046   4.066   3.889
  513TIP3    H2 1546   3.075   4.015   3.749
  514TIP3   OH2 1547   4.101   3.771   2.015
  514TIP3    H1 1548   4.019   3.795   2.057
  514TIP3    H2 1549   4.084   3.780   1.921
  515TIP3   OH2 1550   5.920   5.675   3.157
  515TIP3    H1 1551   5.895   5.678   3.065
  515TIP3    H2 1552   5.886   5.757   3.194
  516TIP3   OH2 1553   2.335   1.997   2.454
  516TIP3    H1 1554   2.365   1.914   2.418
  516TIP3    H2 1555   2.251   2.014   2.410
  517TIP3   OH2 1556   2.367   1.168   2.874
  517TIP3    H1 1557   2.425   1.127   2.939
  517TIP3    H2 1558   2.304   1.099   2.852
  518TIP3   OH2 1559   2.551   0.979   3.872
  518TIP3    H1 1560   2.577   1.006   3.784
  518TIP3    H2 1561   2.522   0.888   3.861
  519TIP3   OH2 1562   5.849   5.463   4.981
  519TIP3    H1 1563   5.883   5.426   5.063
  519TIP3    H2 1564   5.839   5.388   4.923
  520TIP3   OH2 1565   3.270   0.971   0.285
  520TIP3    H1 1566   3.201   0.965   0.351
  520TIP3    H2 1567   3.286   0.880   0.258
  521TIP3   OH2 1568   3.338   1.760   0.343
  521TIP3    H1 1569   3.337   1.733   0.435
  521TIP3    H2 1570   3.370   1.684   0.296
  522TIP3   OH2 1571   1.916   5.089   3.621
  522TIP3    H1 1572   1.973   5.050   3.555
  522TIP3    H2 1573   1.873   5.015   3.663
  523TIP3   OH2 1574   3.106   5.268   0.579
  523TIP3    H1 1575   3.127   5.176   0.562
  523TIP3    H2 1576   3.175   5.318   0.536
  524TIP3   OH2 1577   6.328   2.886   0.605
  524TIP3    H1 1578   6.311   2.954   0.539
  524TIP3    H2 1579   6.270   2.908   0.678
  525TIP3   OH2 1580   5.644   5.527   4.592
  525TIP3    H1 1581   5.564   5.511   4.543
  525TIP3    H2 1582   5.618   5.517   4.684
  526TIP3   OH2 1583   1.855   0.814   3.091
  526TIP3    H1 1584   1.782   0.875   3.086
  526TIP3    H2 1585   1.882   0.800   3.000
  527TIP3   OH2 1586   5.814   5.763   4.591
  527TIP3    H1 1587   5.795   5.669   4.588
  527TIP3    H2 1588   5.748   5.800   4.649
  528TIP3   OH2 1589   1.559   0.683   1.524
  528TIP3    H1 1590   1.554   0.735   1.444
  528TIP3    H2 1591   1.494   0.614   1.513
  529TIP3   OH2 1592   4.363   4.315   2.364
  529TIP3    H1 1593   4.345   4.390   2.308
  529TIP3    H2 1594   4.425   4.262   2.314
  530TIP3   OH2 1595   2.982   4.529   3.725
  530TIP3    H1 1596   2.928   4.450   3.721
  530TIP3    H2 1597   2.947   4.579   3.799
  531TIP3   OH2 1598   0.905   2.188   1.537
  531TIP3    H1 1599   0.950   2.138   1.470
  531TIP3    H2 1600   0.816   2.151   1.539
  532TIP3   OH2 1601   2.340   1.856   1.567
  532TIP3    H1 1602   2.364   1.940   1.528
  532TIP3    H2 1603   2.376   1.791   1.507
  533TIP3   OH2 1604   0.580   3.138   0.767
  533TIP3    H1 1605   0.589   3.136   0.863
  533TIP3    H2 1606   0.513   3.205   0.752
  534TIP3   OH2 1607   0.499   2.555   4.667
  534TIP3    H1 1608   0.405   2.571   4.654
  534TIP3    H2 1609   0.540   2.592   4.588
  535TIP3   OH2 1610   0.426   2.458   3.539
  535TIP3    H1 1611   0.359   2.526   3.542
  535TIP3    H2 1612   0.385   2.385   3.492
  536TIP3   OH2 1613   4.157   0.294   0.841
  536TIP3    H1 1614   4.195   0.246   0.768
  536TIP3    H2 1615   4.161   0.386   0.815
  537TIP3   OH2 1616   0.601   2.746   0.100
  537TIP3    H1 1617   0.684   2.720   0.060
  537TIP3    H2 1618   0.536   2.726   0.033
  538TIP3   OH2 1619   0.318   0.203   1.860
  538TIP3    H1 1620   0.381   0.149   1.907
  538TIP3    H2 1621   0.334   0.292   1.892
  539TIP3   OH2 1622   6.278   5.122   2.698
  539TIP3    H1 1623   6.206   5.148   2.756
  539TIP3    H2 1624   6.349   5.182   2.720
  540TIP3   OH2 1625   0.761   0.105   2.240
  540TIP3    H1 1626   0.764   0.082   2.147
  540TIP3    H2 1627   0.849   0.136   2.260
  541TIP3   OH2 1628   4.947   5.490   0.559
  541TIP3    H1 1629   5.031   5.445   0.551
  541TIP3    H2 1630   4.949   5.529   0.646
  542TIP3   OH2 1631   2.855   1.439   1.873
  542TIP3    H1 1632   2.876   1.434   1.780
  542TIP3    H2 1633   2.937   1.467   1.915
  543TIP3   OH2 1634   1.795   3.334   2.501
  543TIP3    H1 1635   1.785   3.264   2.437
  543TIP3    H2 1636   1.880   3.373   2.481
  544TIP3   OH2 1637   4.682   0.436   5.129
  544TIP3    H1 1638   4.668   0.387   5.210
  544TIP3    H2 1639   4.772   0.417   5.104
  545TIP3   OH2 1640   2.724   2.332   1.815
  545TIP3    H1 1641   2.630   2.319   1.828
  545TIP3    H2 1642   2.731   2.420   1.777
  546TIP3   OH2 1643   0.500   4.416   2.213
  546TIP3    H1 1644   0.572   4.361   2.182
  546TIP3    H2 1645   0.539   4.503   2.222
  547TIP3   OH2 1646   2.894   1.878   4.128
  547TIP3    H1 1647   2.805   1.912   4.120
  547TIP3    H2 1648   2.904   1.819   4.054
  548TIP3   OH2 1649   2.050   1.357   3.488
  548TIP3    H1 1650   2.062   1.309   3.570
  548TIP3    H2 1651   2.122   1.420   3.486
  549TIP3   OH2 1652   1.981   0.406   2.721
  549TIP3    H1 1653   2.048   0.384   2.785
  549TIP3    H2 1654   1.903   0.357   2.749
  550TIP3   OH2 1655   0.130   5.788   3.626
  550TIP3    H1 1656   0.047   5.746   3.602
  550TIP3    H2 1657   0.138   5.862   3.566
  551TIP3   OH2 1658   2.427   3.569   1.426
  551TIP3    H1 1659   2.481   3.586   1.348
  551TIP3    H2 1660   2.473   3.614   1.497
  552TIP3   OH2 1661   1.012   3.182   2.562
  552TIP3    H1 1662   1.087   3.127   2.539
  552TIP3    H2 1663   1.032   3.267   2.524
  553TIP3   OH2 1664   2.399   4.317   4.598
  553TIP3    H1 1665   2.406   4.401   4.643
  553TIP3    H2 1666   2.477   4.268   4.625
  554TIP3   OH2 1667   2.260   4.842   2.971
  554TIP3    H1 1668   2.188   4.891   3.011
  554TIP3    H2 1669   2.299   4.793   3.044
  555TIP3   OH2 1670   4.279   1.476   2.527
  555TIP3    H1 1671   4.357   1.498   2.578
  555TIP3    H2 1672   4.273   1.547   2.462
  556TIP3   OH2 1673   0.355   0.447   0.752
  556TIP3    H1 1674   0.294   0.392   0.702
  556TIP3    H2 1675   0.312   0.458   0.837
  557TIP3   OH2 1676   5.825   3.033   2.224
  557TIP3    H1 1677   5.828   2.939   2.244
  557TIP3    H2 1678   5.794   3.074   2.305
  558TIP3   OH2 1679   1.424   1.611   0.001
  558TIP3    H1 1680   1.448   1.563   0.081
  558TIP3    H2 1681   1.328   1.613   0.003
  559TIP3   OH2 1682   0.814   4.808   4.010
  559TIP3    H1 1683   0.825   4.820   4.104
  559TIP3    H2 1684   0.820   4.713   3.997
  560TIP3   OH2 1685   2.104   0.643   2.331
  560TIP3    H1 1686   2.031   0.704   2.342
  560TIP3    H2 1687   2.066   0.567   2.287
  561TIP3   OH2 1688   3.143   3.223   0.658
  561TIP3    H1 1689   3.071   3.182   0.612
  561TIP3    H2 1690   3.215   3.161   0.651
  562TIP3   OH2 1691   2.515   4.058   2.168
  562TIP3    H1 1692   2.546   4.079   2.256
  562TIP3    H2 1693   2.585   4.005   2.130
  563TIP3   OH2 1694   6.144   5.733   2.687
  563TIP3    H1 1695   6.230   5.718   2.648
  563TIP3    H2 1696   6.161   5.798   2.755
  564TIP3   OH2 1697   2.950   0.092   4.942
  564TIP3    H1 1698   3.014   0.029   4.976
  564TIP3    H2 1699   3.003   0.166   4.914
  565TIP3   OH2 1700   4.574   5.912   3.557
  565TIP3    H1 1701   4.576   5.833   3.502
  565TIP3    H2 1702   4.631   5.891   3.631
  566TIP3   OH2 1703   5.545   4.959   5.046
  566TIP3    H1 1704   5.564   4.946   4.954
  566TIP3    H2 1705   5.491   4.883   5.070
  567TIP3   OH2 1706   3.339   5.450   0.488
  567TIP3    H1 1707   3.415   5.422   0.538
  567TIP3    H2 1708   3.336   5.390   0.413
  568TIP3   OH2 1709   2.623   5.884   0.274
  568TIP3    H1 1710   2.710   5.888   0.233
  568TIP3    H2 1711   2.631   5.815   0.340
  569TIP3   OH2 1712   2.429   1.122   1.224
  569TIP3    H1 1713   2.505   1.146   1.172
  569TIP3    H2 1714   2.422   1.027   1.213
  570TIP3   OH2 1715   4.905   2.865   2.319
  570TIP3    H1 1716   4.915   2.786   2.267
  570TIP3    H2 1717   4.961   2.929   2.275
  571TIP3   OH2 1718   1.241   1.471   3.549
  571TIP3    H1 1719   1.267   1.520   3.471
  571TIP3    H2 1720   1.146   1.482   3.553
  572TIP3   OH2 1721   5.483   0.047   0.318
  572TIP3    H1 1722   5.445   0.134   0.332
  572TIP3    H2 1723   5.449  -0.005   0.391
  573TIP3   OH2 1724   5.823   0.918   4.989
  573TIP3    H1 1725   5.879   0.891   5.062
  573TIP3    H2 1726   5.761   0.846   4.979
  574TIP3   OH2 1727   2.054   1.100   1.924
  574TIP3    H1 1728   1.998   1.153   1.981
  574TIP3    H2 1729   2.083   1.161   1.856
  575TIP3   OH2 1730   0.142   4.030   1.806
  575TIP3    H1 1731   0.234   4.056   1.806
  575TIP3    H2 1732   0.097   4.099   1.855
  576TIP3   OH2 1733   5.369   5.500   4.254
  576TIP3    H1 1734   5.315   5.570   4.292
  576TIP3    H2 1735   5.307   5.448   4.203
  577TIP3   OH2 1736   1.732   3.595   1.608
  577TIP3    H1 1737   1.788   3.581   1.685
  577TIP3    H2 1738   1.664   3.527   1.616
  578TIP3   OH2 1739   5.274   3.253   2.372
  578TIP3    H1 1740   5.310   3.300   2.297
  578TIP3    H2 1741   5.187   3.226   2.343
  579TIP3   OH2 1742   0.291   4.613   1.576
  579TIP3    H1 1743   0.229   4.553   1.534
  579TIP3    H2 1744   0.376   4.590   1.540
  580TIP3   OH2 1745   4.809   1.946   0.493
  580TIP3    H1 1746   4.786   1.865   0.448
  580TIP3    H2 1747   4.755   2.014   0.451
  581TIP3   OH2 1748   2.091   2.910   3.821
  581TIP3    H1 1749   2.139   2.956   3.891
  581TIP3    H2 1750   2.079   2.821   3.854
  582TIP3   OH2 1751   5.742   1.563   0.512
  582TIP3    H1 1752   5.761   1.499   0.444
  582TIP3    H2 1753   5.815   1.557   0.573
  583TIP3   OH2 1754   0.731   1.341   0.137
  583TIP3    H1 1755   0.702   1.250   0.142
  583TIP3    H2 1756   0.656   1.391   0.168
  584TIP3   OH2 1757   4.845   1.496   3.876
  584TIP3    H1 1758   4.884   1.474   3.960
  584TIP3    H2 1759   4.841   1.413   3.829
  585TIP3   OH2 1760   4.260   4.434   0.770
  585TIP3    H1 1761   4.183   4.490   0.784
  585TIP3    H2 1762   4.289   4.409   0.858
  586TIP3   OH2 1763   6.246   2.520   2.751
  586TIP3    H1 1764   6.311   2.479   2.694
  586TIP3    H2 1765   6.169   2.533   2.695
  587TIP3   OH2 1766   2.927   5.448   0.619
  587TIP3    H1 1767   3.001   5.395   0.592
  587TIP3    H2 1768   2.893   5.405   0.697
  588TIP3   OH2 1769   5.361   0.466   3.856
  588TIP3    H1 1770   5.323   0.554   3.846
  588TIP3    H2 1771   5.290   0.414   3.893
  589TIP3   OH2 1772   2.145   2.773   1.235
  589TIP3    H1 1773   2.089   2.696   1.220
  589TIP3    H2 1774   2.211   2.742   1.297
  590TIP3   OH2 1775   2.669   2.215   0.203
  590TIP3    H1 1776   2.577   2.229   0.223
  590TIP3    H2 1777   2.711   2.298   0.226
  591TIP3   OH2 1778   2.314   0.134   3.174
  591TIP3    H1 1779   2.357   0.193   3.112
  591TIP3    H2 1780   2.242   0.186   3.210
  592TIP3   OH2 1781   2.905   3.078   1.245
  592TIP3    H1 1782   2.927   3.077   1.152
  592TIP3    H2 1783   2.828   3.022   1.252
  593TIP3   OH2 1784   5.775   1.810   4.363
  593TIP3    H1 1785   5.744   1.731   4.319
  593TIP3    H2 1786   5.746   1.882   4.307
  594TIP3   OH2 1787   0.508   2.993   4.111
  594TIP3    H1 1788   0.478   3.060   4.050
  594TIP3    H2 1789   0.589   3.029   4.147
  595TIP3   OH2 1790   0.847   3.140   3.420
  595TIP3    H1 1791   0.801   3.224   3.414
  595TIP3    H2 1792   0.937   3.160   3.394
  596TIP3   OH2 1793  -0.061   4.573   1.517
  596TIP3    H1 1794   0.002   4.637   1.483
  596TIP3    H2 1795  -0.008   4.494   1.531
  597TIP3   OH2 1796   0.457   5.237   1.831
  597TIP3    H1 1797   0.433   5.225   1.923
  597TIP3    H2 1798   0.516   5.312   1.832
  598TIP3   OH2 1799   4.977   3.860   0.473
  598TIP3    H1 1800   4.940   3.774   0.452
  598TIP3    H2 1801   4.911   3.903   0.527
  599TIP3   OH2 1802   6.235   0.389   4.204
  599TIP3    H1 1803   6.259   0.300   4.231
  599TIP3    H2 1804   6.219   0.382   4.110
  600TIP3   OH2 1805   4.418   0.593  -0.007
  600TIP3    H1 1806   4.336   0.640   0.009
  600TIP3    H2 1807   4.485   0.661  -0.010
  601TIP3   OH2 1808   3.272   0.614   0.501
  601TIP3    H1 1809   3.195   0.561   0.517
  601TIP3    H2 1810   3.267   0.639   0.409
  602TIP3   OH2 1811   1.695   5.067   1.390
  602TIP3    H1 1812   1.625   5.127   1.366
  602TIP3    H2 1813   1.655   4.980   1.382
  603TIP3   OH2 1814   1.964   1.750   1.133
  603TIP3    H1 1815   1.885   1.699   1.116
  603TIP3    H2 1816   2.017   1.693   1.190
  604TIP3   OH2 1817   4.744   4.230   2.665
  604TIP3    H1 1818   4.665   4.184   2.693
  604TIP3    H2 1819   4.804   4.223   2.739
  605TIP3   OH2 1820   0.497   0.967   1.142
  605TIP3    H1 1821   0.429   0.951   1.077
  605TIP3    H2 1822   0.545   0.884   1.147
  606TIP3   OH2 1823   0.257   0.280   2.923
  606TIP3    H1 1824   0.280   0.372   2.933
  606TIP3    H2 1825   0.195   0.278   2.850
  607TIP3   OH2 1826   0.978   1.242   4.099
  607TIP3    H1 1827   1.057   1.279   4.059
  607TIP3    H2 1828   1.010   1.188   4.171
  608TIP3   OH2 1829   5.595   1.441   2.620
  608TIP3    H1 1830   5.618   1.462   2.530
  608TIP3    H2 1831   5.669   1.390   2.652
  609TIP3   OH2 1832   6.252   5.071   4.745
  609TIP3    H1 1833   6.208   5.108   4.821
  609TIP3    H2 1834   6.200   4.993   4.722
  610TIP3   OH2 1835   6.032   5.244   3.707
  610TIP3    H1 1836   5.939   5.264   3.709
  610TIP3    H2 1837   6.056   5.248   3.614
  611TIP3   OH2 1838   4.683   4.872   3.329
  611TIP3    H1 1839   4.632   4.887   3.249
  611TIP3    H2 1840   4.772   4.855   3.298
  612TIP3   OH2 1841   4.832   0.331   1.769
  612TIP3    H1 1842   4.873   0.385   1.703
  612TIP3    H2 1843   4.816   0.247   1.726
  613TIP3   OH2 1844   3.920   0.585   5.035
  613TIP3    H1 1845   3.827   0.572   5.053
  613TIP3    H2 1846   3.924   0.666   4.984
  614TIP3   OH2 1847   1.515   1.494   4.574
  614TIP3    H1 1848   1.476   1.560   4.631
  614TIP3    H2 1849   1.593   1.464   4.621
  615TIP3   OH2 1850   3.265   2.088   2.596
  615TIP3    H1 1851   3.178   2.087   2.634
  615TIP3    H2 1852   3.313   2.154   2.646
  616TIP3   OH2 1853   1.780   1.963   3.036
  616TIP3    H1 1854   1.772   1.928   3.125
  616TIP3    H2 1855   1.702   2.017   3.024
  617TIP3   OH2 1856   5.984   1.077   1.011
  617TIP3    H1 1857   6.008   1.022   1.086
  617TIP3    H2 1858   5.895   1.107   1.031
  618TIP3   OH2 1859   4.372   4.671   0.984
  618TIP3    H1 1860   4.429   4.679   1.060
  618TIP3    H2 1861   4.287   4.646   1.021
  619TIP3   OH2 1862   3.094   2.737   2.206
  619TIP3    H1 1863   3.112   2.661   2.151
  619TIP3    H2 1864   3.153   2.805   2.174
  620TIP3   OH2 1865   2.636   2.688   3.846
  620TIP3    H1 1866   2.729   2.687   3.867
  620TIP3    H2 1867   2.594   2.728   3.922
  621TIP3   OH2 1868   5.057   5.729   3.875
  621TIP3    H1 1869   5.101   5.812   3.858
  621TIP3    H2 1870   5.066   5.716   3.969
  622TIP3   OH2 1871   1.526   2.013   0.912
  622TIP3    H1 1872   1.509   1.919   0.918
  622TIP3    H2 1873   1.621   2.020   0.899
  623TIP3   OH2 1874   4.894   0.969   3.110
  623TIP3    H1 1875   4.968   0.946   3.054
  623TIP3    H2 1876   4.914   0.928   3.194
  624TIP3   OH2 1877   3.710   4.891   2.262
  624TIP3    H1 1878   3.718   4.806   2.306
  624TIP3    H2 1879   3.640   4.936   2.310
  625TIP3   OH2 1880   6.255   0.173   3.524
  625TIP3    H1 1881   6.235   0.141   3.611
  625TIP3    H2 1882   6.343   0.209   3.531
  626TIP3   OH2 1883   5.095   4.132   5.113
  626TIP3    H1 1884   5.089   4.223   5.145
  626TIP3    H2 1885   5.188   4.118   5.100
  627TIP3   OH2 1886   1.422   4.804   4.116
  627TIP3    H1 1887   1.394   4.812   4.025
  627TIP3    H2 1888   1.428   4.895   4.147
  628TIP3   OH2 1889   1.104   0.040   1.698
  628TIP3    H1 1890   1.069  -0.017   1.630
  628TIP3    H2 1891   1.070   0.127   1.677
  629TIP3   OH2 1892   6.199   1.743   3.464
  629TIP3    H1 1893   6.138   1.812   3.438
  629TIP3    H2 1894   6.171   1.719   3.553
  630TIP3   OH2 1895   3.375   5.893   1.375
  630TIP3    H1 1896   3.456   5.943   1.385
  630TIP3    H2 1897   3.357   5.895   1.282
  631TIP3   OH2 1898   0.718   3.748   4.999
  631TIP3    H1 1899   0.785   3.771   4.935
  631TIP3    H2 1900   0.671   3.830   5.016
  632TIP3   OH2 1901   3.990   4.327   2.251
  632TIP3    H1 1902   4.004   4.329   2.346
  632TIP3    H2 1903   4.066   4.281   2.216
  633TIP3   OH2 1904   2.735   1.710   1.364
  633TIP3    H1 1905   2.709   1.728   1.274
  633TIP3    H2 1906   2.801   1.777   1.384
  634TIP3   OH2 1907   4.822   0.558   3.977
  634TIP3    H1 1908   4.781   0.526   3.897
  634TIP3    H2 1909   4.913   0.528   3.971
  635TIP3   OH2 1910   4.094   3.633   0.122
  635TIP3    H1 1911   4.031   3.579   0.075
  635TIP3    H2 1912   4.050   3.718   0.132
  636TIP3   OH2 1913   0.640   2.162   1.025
  636TIP3    H1 1914   0.667   2.183   0.936
  636TIP3    H2 1915   0.665   2.239   1.077
  637TIP3   OH2 1916   2.400   3.414   2.045
  637TIP3    H1 1917   2.486   3.453   2.025
  637TIP3    H2 1918   2.340   3.455   1.982
  638TIP3   OH2 1919   5.459   0.973   4.996
  638TIP3    H1 1920   5.487   0.891   5.038
  638TIP3    H2 1921   5.368   0.956   4.970
  639TIP3   OH2 1922   3.754   2.814   4.424
  639TIP3    H1 1923   3.738   2.728   4.463
  639TIP3    H2 1924   3.668   2.846   4.398
  640TIP3   OH2 1925   3.198   5.868   0.088
  640TIP3    H1 1926   3.250   5.788   0.095
  640TIP3    H2 1927   3.232   5.926   0.156
  641TIP3   OH2 1928   6.088   4.102   3.344
  641TIP3    H1 1929   6.111   4.152   3.266
  641TIP3    H2 1930   6.081   4.011   3.313
  642TIP3   OH2 1931   3.897   4.452   3.455
  642TIP3    H1 1932   3.973   4.432   3.509
  642TIP3    H2 1933   3.924   4.428   3.366
  643TIP3   OH2 1934   6.255   3.134   1.673
  643TIP3    H1 1935   6.224   3.051   1.710
  643TIP3    H2 1936   6.330   3.158   1.727
  644TIP3   OH2 1937   1.673   5.748   2.645
  644TIP3    H1 1938   1.647   5.758   2.736
  644TIP3    H2 1939   1.763   5.783   2.641
  645TIP3   OH2 1940   5.258   2.404   0.765
  645TIP3    H1 1941   5.231   2.362   0.683
  645TIP3    H2 1942   5.182   2.394   0.823
  646TIP3   OH2 1943   6.006   2.875   0.171
  646TIP3    H1 1944   5.944   2.948   0.177
  646TIP3    H2 1945   5.962   2.802   0.214
  647TIP3   OH2 1946   3.883   2.589   4.737
  647TIP3    H1 1947   3.920   2.589   4.826
  647TIP3    H2 1948   3.915   2.670   4.698
  648TIP3   OH2 1949   0.805   2.214   5.095
  648TIP3    H1 1950   0.815   2.121   5.114
  648TIP3    H2 1951   0.731   2.219   5.034
  649TIP3   OH2 1952   5.466   5.983   4.037
  649TIP3    H1 1953   5.403   5.911   4.037
  649TIP3    H2 1954   5.445   6.033   4.117
  650TIP3   OH2 1955   6.253   4.236   2.665
  650TIP3    H1 1956   6.268   4.328   2.688
  650TIP3    H2 1957   6.294   4.226   2.579
  651TIP3   OH2 1958   2.726   0.775   0.873
  651TIP3    H1 1959   2.712   0.791   0.779
  651TIP3    H2 1960   2.755   0.684   0.878
  652TIP3   OH2 1961   0.646   0.505   4.330
  652TIP3    H1 1962   0.608   0.524   4.416
  652TIP3    H2 1963   0.622   0.414   4.313
  653TIP3   OH2 1964   4.618   2.348   3.592
  653TIP3    H1 1965   4.602   2.442   3.593
  653TIP3    H2 1966   4.599   2.319   3.681
  654TIP3   OH2 1967   2.716   3.271   0.957
  654TIP3    H1 1968   2.673   3.356   0.963
  654TIP3    H2 1969   2.646   3.208   0.975
  655TIP3   OH2 1970   4.545   1.095   1.221
  655TIP3    H1 1971   4.606   1.131   1.157
  655TIP3    H2 1972   4.580   1.122   1.306
  656TIP3   OH2 1973   4.230   0.586   0.484
  656TIP3    H1 1974   4.188   0.661   0.442
  656TIP3    H2 1975   4.301   0.561   0.425
  657TIP3   OH2 1976   5.325   0.440   2.016
  657TIP3    H1 1977   5.307   0.411   1.927
  657TIP3    H2 1978   5.272   0.520   2.026
  658TIP3   OH2 1979   3.976   2.667   1.335
  658TIP3    H1 1980   3.935   2.701   1.414
  658TIP3    H2 1981   4.058   2.627   1.365
  659TIP3   OH2 1982   0.241   0.971   1.282
  659TIP3    H1 1983   0.307   1.026   1.240
  659TIP3    H2 1984   0.280   0.883   1.282
  660TIP3   OH2 1985   3.787   3.057   5.083
  660TIP3    H1 1986   3.868   3.022   5.119
  660TIP3    H2 1987   3.718   3.002   5.120
  661TIP3   OH2 1988   0.733   4.576   2.833
  661TIP3    H1 1989   0.828   4.583   2.841
  661TIP3    H2 1990   0.714   4.597   2.742
  662TIP3   OH2 1991   1.750   5.598   3.647
  662TIP3    H1 1992   1.766   5.653   3.724
  662TIP3    H2 1993   1.755   5.509   3.680
  663TIP3   OH2 1994   2.387   5.060   3.637
  663TIP3    H1 1995   2.404   5.110   3.558
  663TIP3    H2 1996   2.457   4.995   3.640
  664TIP3   OH2 1997   4.612   0.609   4.922
  664TIP3    H1 1998   4.625   0.536   4.983
  664TIP3    H2 1999   4.573   0.569   4.844
  665TIP3   OH2 2000   4.601   1.342   1.940
  665TIP3    H1 2001   4.644   1.263   1.973
  665TIP3    H2 2002   4.540   1.311   1.873
  666TIP3   OH2 2003   5.704   4.511   2.931
  666TIP3    H1 2004   5.632   4.542   2.876
  666TIP3    H2 2005   5.692   4.416   2.934
  667TIP3   OH2 2006   2.192   1.750   0.939
  667TIP3    H1 2007   2.183   1.802   0.859
  667TIP3    H2 2008   2.139   1.797   1.004
  668TIP3   OH2 2009   2.848   3.731   2.537
  668TIP3    H1 2010   2.758   3.711   2.562
  668TIP3    H2 2011   2.885   3.646   2.511
  669TIP3   OH2 2012   0.487   2.716   1.153
  669TIP3    H1 2013   0.398   2.747   1.134
  669TIP3    H2 2014   0.502   2.645   1.091
  670TIP3   OH2 2015   0.839   0.292   4.841
  670TIP3    H1 2016   0.809   0.376   4.877
  670TIP3    H2 2017   0.919   0.273   4.890
  671TIP3   OH2 2018   2.785   5.433   0.375
  671TIP3    H1 2019   2.838   5.438   0.454
  671TIP3    H2 2020   2.752   5.343   0.373
  672TIP3   OH2 2021   1.511   5.086   4.131
  672TIP3    H1 2022   1.499   5.165   4.184
  672TIP3    H2 2023   1.592   5.101   4.083
  673TIP3   OH2 2024   3.503   4.805   3.923
  673TIP3    H1 2025   3.436   4.785   3.857
  673TIP3    H2 2026   3.511   4.725   3.973
  674TIP3   OH2 2027   5.281   2.674   4.210
  674TIP3    H1 2028   5.275   2.596   4.264
  674TIP3    H2 2029   5.369   2.670   4.171
  675TIP3   OH2 2030   5.635   1.518   1.635
  675TIP3    H1 2031   5.543   1.546   1.626
  675TIP3    H2 2032   5.631   1.446   1.699
  676TIP3   OH2 2033   2.115   5.375   2.851
  676TIP3    H1 2034   2.140   5.289   2.816
  676TIP3    H2 2035   2.193   5.406   2.896
  677TIP3   OH2 2036   2.230   0.249   2.125
  677TIP3    H1 2037   2.316   0.270   2.089
  677TIP3    H2 2038   2.180   0.216   2.049
  678TIP3   OH2 2039   5.962   0.576   3.650
  678TIP3    H1 2040   6.055   0.559   3.636
  678TIP3    H2 2041   5.960   0.640   3.721
  679TIP3   OH2 2042   5.406   2.919   2.400
  679TIP3    H1 2043   5.325   2.877   2.370
  679TIP3    H2 2044   5.384   2.950   2.488
  680TIP3   OH2 2045   5.419   1.223   1.587
  680TIP3    H1 2046   5.478   1.267   1.526
  680TIP3    H2 2047   5.338   1.275   1.583
  681TIP3   OH2 2048   0.221   3.972   1.223
  681TIP3    H1 2049   0.289   3.920   1.180
  681TIP3    H2 2050   0.139   3.935   1.191
  682TIP3   OH2 2051   3.861   0.329   1.624
  682TIP3    H1 2052   3.931   0.387   1.595
  682TIP3    H2 2053   3.848   0.352   1.716
  683TIP3   OH2 2054   4.304   3.879   2.177
  683TIP3    H1 2055   4.249   3.805   2.150
  683TIP3    H2 2056   4.379   3.838   2.220
  684TIP3   OH2 2057   2.860   5.642   3.277
  684TIP3    H1 2058   2.818   5.580   3.218
  684TIP3    H2 2059   2.799   5.651   3.351
  685TIP3   OH2 2060   4.336   3.468   3.483
  685TIP3    H1 2061   4.387   3.520   3.421
  685TIP3    H2 2062   4.395   3.396   3.508
  686TIP3   OH2 2063   2.123   3.931   2.870
  686TIP3    H1 2064   2.103   3.913   2.779
  686TIP3    H2 2065   2.199   3.876   2.890
  687TIP3   OH2 2066   2.964   1.752   2.840
  687TIP3    H1 2067   2.897   1.811   2.873
  687TIP3    H2 2068   2.987   1.697   2.916
  688TIP3   OH2 2069   0.833   2.941   4.575
  688TIP3    H1 2070   0.752   2.933   4.626
  688TIP3    H2 2071   0.831   3.030   4.540
  689TIP3   OH2 2072   0.488   1.444   1.230
  689TIP3    H1 2073   0.545   1.367   1.218
  689TIP3    H2 2074   0.511   1.477   1.317
  690TIP3   OH2 2075   0.408   1.527   0.603
  690TIP3    H1 2076   0.454   1.451   0.567
  690TIP3    H2 2077   0.449   1.602   0.560
  691TIP3   OH2 2078   4.135   2.588   4.194
  691TIP3    H1 2079   4.188   2.513   4.168
  691TIP3    H2 2080   4.073   2.600   4.122
  692TIP3   OH2 2081   4.002   0.902   3.787
  692TIP3    H1 2082   4.058   0.943   3.722
  692TIP3    H2 2083   3.942   0.847   3.736
  693TIP3   OH2 2084   2.517   5.134   0.933
  693TIP3    H1 2085   2.557   5.189   1.000
  693TIP3    H2 2086   2.534   5.045   0.961
  694TIP3   OH2 2087   5.986   5.598   0.088
  694TIP3    H1 2088   5.894   5.597   0.062
  694TIP3    H2 2089   5.998   5.515   0.135
  695TIP3   OH2 2090   3.638   2.464   1.879
  695TIP3    H1 2091   3.678   2.416   1.951
  695TIP3    H2 2092   3.544   2.459   1.896
  696TIP3   OH2 2093   5.340   4.525   0.748
  696TIP3    H1 2094   5.344   4.593   0.816
  696TIP3    H2 2095   5.288   4.564   0.678
  697TIP3   OH2 2096   2.348   4.634   3.474
  697TIP3    H1 2097   2.304   4.559   3.515
  697TIP3    H2 2098   2.442   4.617   3.488
  698TIP3   OH2 2099   1.913   0.275   3.291
  698TIP3    H1 2100   1.847   0.295   3.358
  698TIP3    H2 2101   1.918   0.353   3.237
  699TIP3   OH2 2102   5.727   3.921   3.611
  699TIP3    H1 2103   5.771   3.972   3.542
  699TIP3    H2 2104   5.776   3.942   3.691
  700TIP3   OH2 2105   1.695   0.487   1.874
  700TIP3    H1 2106   1.648   0.443   1.804
  700TIP3    H2 2107   1.675   0.580   1.862
  701TIP3   OH2 2108   3.102   3.924   1.421
  701TIP3    H1 2109   3.090   3.883   1.335
  701TIP3    H2 2110   3.195   3.914   1.440
  702TIP3   OH2 2111   3.740   5.407   3.800
  702TIP3    H1 2112   3.674   5.435   3.864
  702TIP3    H2 2113   3.701   5.430   3.715
  703TIP3   OH2 2114   3.666   0.972   3.393
  703TIP3    H1 2115   3.678   0.991   3.300
  703TIP3    H2 2116   3.669   0.876   3.398
  704TIP3   OH2 2117   4.314   2.255   0.596
  704TIP3    H1 2118   4.239   2.286   0.647
  704TIP3    H2 2119   4.383   2.240   0.661
  705TIP3   OH2 2120   4.248   2.124   5.011
  705TIP3    H1 2121   4.260   2.176   4.932
  705TIP3    H2 2122   4.228   2.036   4.979
  706TIP3   OH2 2123   3.605   2.855   1.606
  706TIP3    H1 2124   3.679   2.797   1.592
  706TIP3    H2 2125   3.534   2.797   1.635
  707TIP3   OH2 2126   5.044   2.033   0.887
  707TIP3    H1 2127   4.982   1.978   0.935
  707TIP3    H2 2128   5.127   2.021   0.932
  708TIP3   OH2 2129   4.981   3.902   1.307
  708TIP3    H1 2130   5.054   3.877   1.251
  708TIP3    H2 2131   4.906   3.854   1.272
  709TIP3   OH2 2132   4.012   5.566   2.932
  709TIP3    H1 2133   4.074   5.624   2.976
  709TIP3    H2 2134   4.063   5.524   2.863
  710TIP3   OH2 2135   1.555   1.788   0.305
  710TIP3    H1 2136   1.529   1.860   0.248
  710TIP3    H2 2137   1.489   1.720   0.290
  711TIP3   OH2 2138   2.434   3.430   4.951
  711TIP3    H1 2139   2.403   3.476   5.029
  711TIP3    H2 2140   2.527   3.418   4.965
  712TIP3   OH2 2141   0.248   5.842   1.448
  712TIP3    H1 2142   0.210   5.812   1.365
  712TIP3    H2 2143   0.249   5.764   1.504
  713TIP3   OH2 2144   0.762   5.509   4.817
  713TIP3    H1 2145   0.724   5.579   4.763
  713TIP3    H2 2146   0.686   5.469   4.860
  714TIP3   OH2 2147   1.485   3.743   2.585
  714TIP3    H1 2148   1.455   3.689   2.511
  714TIP3    H2 2149   1.581   3.732   2.585
  715TIP3   OH2 2150   2.172   0.506   3.936
  715TIP3    H1 2151   2.108   0.511   3.864
  715TIP3    H2 2152   2.137   0.565   4.002
  716TIP3   OH2 2153   1.972   5.915   3.121
  716TIP3    H1 2154   2.052   5.865   3.106
  716TIP3    H2 2155   1.997   6.006   3.105
  717TIP3   OH2 2156   5.085   5.361   1.918
  717TIP3    H1 2157   5.167   5.336   1.960
  717TIP3    H2 2158   5.101   5.350   1.824
  718TIP3   OH2 2159   5.215   4.218   0.364
  718TIP3    H1 2160   5.150   4.147   0.354
  718TIP3    H2 2161   5.299   4.174   0.356
  719TIP3   OH2 2162   0.479   1.650   4.867
  719TIP3    H1 2163   0.560   1.662   4.819
  719TIP3    H2 2164   0.478   1.556   4.889
  720TIP3   OH2 2165   5.221   3.431   3.796
  720TIP3    H1 2166   5.138   3.383   3.803
  720TIP3    H2 2167   5.232   3.472   3.881
  721TIP3   OH2 2168   1.104   5.668   3.615
  721TIP3    H1 2169   1.137   5.580   3.630
  721TIP3    H2 2170   1.169   5.725   3.654
  722TIP3   OH2 2171   2.913   5.079   1.077
  722TIP3    H1 2172   2.884   5.113   0.992
  722TIP3    H2 2173   2.916   5.156   1.134
  723TIP3   OH2 2174   3.744   3.810   1.147
  723TIP3    H1 2175   3.686   3.791   1.221
  723TIP3    H2 2176   3.827   3.769   1.170
  724TIP3   OH2 2177   0.038   5.412   0.047
  724TIP3    H1 2178   0.134   5.418   0.040
  724TIP3    H2 2179   0.010   5.503   0.058
  725TIP3   OH2 2180   4.630   4.996   5.109
  725TIP3    H1 2181   4.549   5.017   5.156
  725TIP3    H2 2182   4.669   4.925   5.160
  726TIP3   OH2 2183   5.314   1.202   1.078
  726TIP3    H1 2184   5.316   1.141   1.151
  726TIP3    H2 2185   5.383   1.172   1.019
  727TIP3   OH2 2186   3.552   3.889   3.461
  727TIP3    H1 2187   3.568   3.981   3.481
  727TIP3    H2 2188   3.472   3.890   3.408
  728TIP3   OH2 2189   6.063   5.160   2.860
  728TIP3    H1 2190   6.048   5.092   2.926
  728TIP3    H2 2191   5.979   5.168   2.815
  729TIP3   OH2 2192   3.574   2.204   0.522
  729TIP3    H1 2193   3.518   2.128   0.504
  729TIP3    H2 2194   3.663   2.173   0.505
  730TIP3   OH2 2195   5.298   3.355   1.056
  730TIP3    H1 2196   5.286   3.261   1.067
  730TIP3    H2 2197   5.307   3.388   1.145
  731TIP3   OH2 2198   3.154   5.565   3.397
  731TIP3    H1 2199   3.068   5.587   3.361
  731TIP3    H2 2200   3.216   5.595   3.331
  732TIP3   OH2 2201   3.529   3.658   1.671
  732TIP3    H1 2202   3.557   3.685   1.584
  732TIP3    H2 2203   3.551   3.564   1.676
  733TIP3   OH2 2204   5.267   2.821   3.255
  733TIP3    H1 2205   5.277   2.857   3.167
  733TIP3    H2 2206   5.297   2.730   3.248
  734TIP3   OH2 2207   4.253   5.570   4.085
  734TIP3    H1 2208   4.341   5.599   4.108
  734TIP3    H2 2209   4.248   5.480   4.116
  735TIP3   OH2 2210   6.114   2.422   2.065
  735TIP3    H1 2211   6.098   2.409   2.158
  735TIP3    H2 2212   6.152   2.339   2.035
  736TIP3   OH2 2213   2.601   5.435   4.175
  736TIP3    H1 2214   2.608   5.406   4.084
  736TIP3    H2 2215   2.643   5.365   4.226
  737TIP3   OH2 2216   4.439   0.478   4.749
  737TIP3    H1 2217   4.416   0.481   4.656
  737TIP3    H2 2218   4.369   0.525   4.794
  738TIP3   OH2 2219   5.482   1.267   3.666
  738TIP3    H1 2220   5.527   1.233   3.743
  738TIP3    H2 2221   5.549   1.321   3.622
  739TIP3   OH2 2222   1.919   5.887   2.787
  739TIP3    H1 2223   1.912   5.865   2.880
  739TIP3    H2 2224   2.012   5.884   2.768
  740TIP3   OH2 2225   2.183   2.561   3.761
  740TIP3    H1 2226   2.135   2.614   3.825
  740TIP3    H2 2227   2.271   2.553   3.798
  741TIP3   OH2 2228   2.456   3.156   0.930
  741TIP3    H1 2229   2.373   3.169   0.885
  741TIP3    H2 2230   2.437   3.088   0.995
  742TIP3   OH2 2231   2.852   4.687   3.913
  742TIP3    H1 2232   2.931   4.697   3.967
  742TIP3    H2 2233   2.800   4.621   3.959
  743TIP3   OH2 2234   0.689   1.659   0.994
  743TIP3    H1 2235   0.709   1.747   1.025
  743TIP3    H2 2236   0.597   1.645   1.019
  744TIP3   OH2 2237   4.751   0.251   0.618
  744TIP3    H1 2238   4.676   0.211   0.662
  744TIP3    H2 2239   4.730   0.344   0.615
  745TIP3   OH2 2240   6.318   2.153   4.377
  745TIP3    H1 2241   6.354   2.096   4.445
  745TIP3    H2 2242   6.265   2.217   4.425
  746TIP3   OH2 2243   3.284   3.205   4.172
  746TIP3    H1 2244   3.279   3.142   4.245
  746TIP3    H2 2245   3.242   3.160   4.099
  747TIP3   OH2 2246   3.915   0.557   1.438
  747TIP3    H1 2247   3.819   0.551   1.437
  747TIP3    H2 2248   3.934   0.630   1.496
  748TIP3   OH2 2249   1.057   0.474   1.179
  748TIP3    H1 2250   1.144   0.493   1.142
  748TIP3    H2 2251   1.022   0.560   1.201
  749TIP3   OH2 2252   2.937   0.958   1.460
  749TIP3    H1 2253   2.973   0.989   1.377
  749TIP3    H2 2254   2.887   0.880   1.437
  750TIP3   OH2 2255   6.335   0.505   1.451
  750TIP3    H1 2256   6.311   0.413   1.444
  750TIP3    H2 2257   6.294   0.546   1.375
  751TIP3   OH2 2258   3.299   0.209   1.455
  751TIP3    H1 2259   3.277   0.116   1.466
  751TIP3    H2 2260   3.390   0.208   1.425
  752TIP3   OH2 2261   4.385   2.657   3.951
  752TIP3    H1 2262   4.468   2.645   3.997
  752TIP3    H2 2263   4.336   2.577   3.970
  753TIP3   OH2 2264   3.707   2.551   4.492
  753TIP3    H1 2265   3.778   2.536   4.554
  753TIP3    H2 2266   3.645   2.479   4.508
  754TIP3   OH2 2267   0.882   1.572   2.494
  754TIP3    H1 2268   0.791   1.546   2.481
  754TIP3    H2 2269   0.912   1.598   2.407
  755TIP3   OH2 2270   4.582   1.202   0.457
  755TIP3    H1 2271   4.556   1.194   0.549
  755TIP3    H2 2272   4.595   1.296   0.444
  756TIP3   OH2 2273   1.337   4.036   1.614
  756TIP3    H1 2274   1.371   3.959   1.569
  756TIP3    H2 2275   1.343   4.014   1.707
  757TIP3   OH2 2276   5.455   5.863   3.153
  757TIP3    H1 2277   5.457   5.912   3.236
  757TIP3    H2 2278   5.522   5.905   3.099
  758TIP3   OH2 2279   4.077   5.803   2.200
  758TIP3    H1 2280   3.986   5.794   2.229
  758TIP3    H2 2281   4.111   5.713   2.197
  759TIP3   OH2 2282   1.106   2.024   5.055
  759TIP3    H1 2283   1.125   2.061   5.141
  759TIP3    H2 2284   1.012   2.006   5.057
  760TIP3   OH2 2285   1.888   1.396   1.853
  760TIP3    H1 2286   1.877   1.490   1.838
  760TIP3    H2 2287   1.849   1.355   1.776
  761TIP3   OH2 2288   1.406   2.684   0.614
  761TIP3    H1 2289   1.493   2.653   0.642
  761TIP3    H2 2290   1.367   2.718   0.694
  762TIP3   OH2 2291   3.182   3.139   0.248
  762TIP3    H1 2292   3.172   3.051   0.284
  762TIP3    H2 2293   3.273   3.162   0.267
  763TIP3   OH2 2294   3.940   4.422   4.582
  763TIP3    H1 2295   3.967   4.363   4.512
  763TIP3    H2 2296   3.847   4.438   4.566
  764TIP3   OH2 2297   0.106   5.425   3.498
  764TIP3    H1 2298   0.174   5.492   3.493
  764TIP3    H2 2299   0.056   5.435   3.417
  765TIP3   OH2 2300   2.796   3.816   0.077
  765TIP3    H1 2301   2.818   3.812  -0.016
  765TIP3    H2 2302   2.761   3.729   0.097
  766TIP3   OH2 2303   1.171   0.434   2.475
  766TIP3    H1 2304   1.211   0.441   2.388
  766TIP3    H2 2305   1.243   0.408   2.532
  767TIP3   OH2 2306   5.666   1.661   2.439
  767TIP3    H1 2307   5.685   1.717   2.364
  767TIP3    H2 2308   5.746   1.665   2.492
  768TIP3   OH2 2309   5.822   1.427   3.799
  768TIP3    H1 2310   5.896   1.469   3.755
  768TIP3    H2 2311   5.826   1.335   3.771
  769TIP3   OH2 2312   3.584   3.290   2.722
  769TIP3    H1 2313   3.650   3.313   2.788
  769TIP3    H2 2314   3.507   3.340   2.746
  770TIP3   OH2 2315   1.243   5.333   1.312
  770TIP3    H1 2316   1.156   5.314   1.347
  770TIP3    H2 2317   1.244   5.428   1.302
  771TIP3   OH2 2318   5.818   5.004   3.914
  771TIP3    H1 2319   5.814   4.980   3.822
  771TIP3    H2 2320   5.906   4.979   3.943
  772TIP3   OH2 2321   3.016   1.872   3.409
  772TIP3    H1 2322   3.091   1.854   3.353
  772TIP3    H2 2323   2.940   1.844   3.358
  773TIP3   OH2 2324   0.751   1.653   0.177
  773TIP3    H1 2325   0.676   1.714   0.176
  773TIP3    H2 2326   0.800   1.675   0.098
  774TIP3   OH2 2327   5.509   3.996   1.661
  774TIP3    H1 2328   5.601   3.976   1.647
  774TIP3    H2 2329   5.494   3.981   1.754
  775TIP3   OH2 2330   0.232   0.109   1.538
  775TIP3    H1 2331   0.301   0.074   1.595
  775TIP3    H2 2332   0.275   0.175   1.485
  776TIP3   OH2 2333   1.159   5.672   1.810
  776TIP3    H1 2334   1.210   5.726   1.749
  776TIP3    H2 2335   1.151   5.725   1.889
  777TIP3   OH2 2336   0.666   1.069   0.487
  777TIP3    H1 2337   0.695   1.102   0.572
  777TIP3    H2 2338   0.575   1.097   0.481
  778TIP3   OH2 2339   4.788   2.022   3.208
  778TIP3    H1 2340   4.712   2.068   3.244
  778TIP3    H2 2341   4.862   2.080   3.228
  779TIP3   OH2 2342   5.128   3.689   1.087
  779TIP3    H1 2343   5.138   3.610   1.140
  779TIP3    H2 2344   5.058   3.668   1.025
  780TIP3   OH2 2345   0.750   5.900   0.124
  780TIP3    H1 2346   0.781   5.818   0.161
  780TIP3    H2 2347   0.715   5.948   0.199
  781TIP3   OH2 2348   1.962   0.172   2.263
  781TIP3    H1 2349   1.984   0.149   2.353
  781TIP3    H2 2350   2.047   0.178   2.218
  782TIP3   OH2 2351   4.749   2.898   0.766
  782TIP3    H1 2352   4.780   2.919   0.854
  782TIP3    H2 2353   4.694   2.972   0.741
  783TIP3   OH2 2354   2.407   2.047   4.597
  783TIP3    H1 2355   2.327   2.010   4.561
  783TIP3    H2 2356   2.465   2.058   4.522
  784TIP3   OH2 2357   3.506   3.839   0.676
  784TIP3    H1 2358   3.465   3.757   0.648
  784TIP3    H2 2359   3.526   3.885   0.594
  785TIP3   OH2 2360   2.990   5.254   5.108
  785TIP3    H1 2361   2.982   5.198   5.185
  785TIP3    H2 2362   3.015   5.195   5.037
  786TIP3   OH2 2363   5.707   3.969   1.312
  786TIP3    H1 2364   5.713   4.020   1.232
  786TIP3    H2 2365   5.722   4.032   1.382
  787TIP3   OH2 2366   2.249   1.068   3.192
  787TIP3    H1 2367   2.341   1.060   3.168
  787TIP3    H2 2368   2.208   0.989   3.155
  788TIP3   OH2 2369   1.573   3.195   0.773
  788TIP3    H1 2370   1.494   3.248   0.787
  788TIP3    H2 2371   1.579   3.185   0.678
  789TIP3   OH2 2372   1.075   5.545   4.350
  789TIP3    H1 2373   1.097   5.487   4.276
  789TIP3    H2 2374   1.014   5.493   4.403
  790TIP3   OH2 2375   0.948   3.134   2.817
  790TIP3    H1 2376   0.876   3.070   2.812
  790TIP3    H2 2377   0.962   3.160   2.726
  791TIP3   OH2 2378   1.671   0.453   4.927
  791TIP3    H1 2379   1.718   0.380   4.887
  791TIP3    H2 2380   1.709   0.531   4.887
  792TIP3   OH2 2381   5.334   3.566   3.181
  792TIP3    H1 2382   5.345   3.572   3.276
  792TIP3    H2 2383   5.400   3.503   3.153
  793TIP3   OH2 2384   1.655   2.161   1.720
  793TIP3    H1 2385   1.671   2.180   1.812
  793TIP3    H2 2386   1.678   2.242   1.674
  794TIP3   OH2 2387   4.529   1.511   0.316
  794TIP3    H1 2388   4.481   1.434   0.286
  794TIP3    H2 2389   4.479   1.541   0.392
  795TIP3   OH2 2390   5.989   5.249   3.412
  795TIP3    H1 2391   5.991   5.178   3.349
  795TIP3    H2 2392   5.899   5.251   3.445
  796TIP3   OH2 2393   2.302   0.185   2.568
  796TIP3    H1 2394   2.294   0.273   2.606
  796TIP3    H2 2395   2.315   0.128   2.643
  797TIP3   OH2 2396   4.945   2.247   2.290
  797TIP3    H1 2397   4.910   2.289   2.368
  797TIP3    H2 2398   4.962   2.156   2.317
  798TIP3   OH2 2399   1.677   1.110   4.870
  798TIP3    H1 2400   1.746   1.059   4.827
  798TIP3    H2 2401   1.597   1.086   4.823
  799TIP3   OH2 2402   3.498   0.468   3.195
  799TIP3    H1 2403   3.536   0.511   3.119
  799TIP3    H2 2404   3.412   0.437   3.165
  800TIP3   OH2 2405   0.559   2.181   4.948
  800TIP3    H1 2406   0.522   2.094   4.960
  800TIP3    H2 2407   0.507   2.237   5.005
  801TIP3   OH2 2408   4.366   3.608   0.091
  801TIP3    H1 2409   4.370   3.543   0.161
  801TIP3    H2 2410   4.276   3.640   0.093
  802TIP3   OH2 2411   6.265   3.570   2.172
  802TIP3    H1 2412   6.287   3.663   2.175
  802TIP3    H2 2413   6.305   3.539   2.091
  803TIP3   OH2 2414   0.363   5.245   3.896
  803TIP3    H1 2415   0.279   5.203   3.879
  803TIP3    H2 2416   0.416   5.225   3.820
  804TIP3   OH2 2417   5.412   1.588   3.975
  804TIP3    H1 2418   5.358   1.514   3.944
  804TIP3    H2 2419   5.412   1.579   4.070
  805TIP3   OH2 2420   2.179   2.165   0.759
  805TIP3    H1 2421   2.198   2.145   0.851
  805TIP3    H2 2422   2.163   2.079   0.719
  806TIP3   OH2 2423   3.132   3.904   4.689
  806TIP3    H1 2424   3.106   3.825   4.642
  806TIP3    H2 2425   3.187   3.952   4.627
  807TIP3   OH2 2426   6.178   2.663   1.966
  807TIP3    H1 2427   6.186   2.574   1.999
  807TIP3    H2 2428   6.084   2.679   1.962
  808TIP3   OH2 2429   5.798   0.598   2.498
  808TIP3    H1 2430   5.767   0.517   2.456
  808TIP3    H2 2431   5.790   0.581   2.591
  809TIP3   OH2 2432   2.995   5.932   1.884
  809TIP3    H1 2433   2.915   5.977   1.913
  809TIP3    H2 2434   3.046   6.000   1.841
  810TIP3   OH2 2435   6.080   0.941   1.224
  810TIP3    H1 2436   6.138   0.874   1.188
  810TIP3    H2 2437   6.029   0.895   1.290
  811TIP3   OH2 2438   1.473   2.720   1.034
  811TIP3    H1 2439   1.408   2.741   0.967
  811TIP3    H2 2440   1.552   2.765   1.007
  812TIP3   OH2 2441   0.231   3.250   1.535
  812TIP3    H1 2442   0.191   3.336   1.535
  812TIP3    H2 2443   0.268   3.241   1.447
  813TIP3   OH2 2444   1.296   5.896   1.683
  813TIP3    H1 2445   1.387   5.890   1.653
  813TIP3    H2 2446   1.299   5.954   1.759
  814TIP3   OH2 2447   5.264   2.444   3.564
  814TIP3    H1 2448   5.310   2.525   3.543
  814TIP3    H2 2449   5.262   2.441   3.659
  815TIP3   OH2 2450   3.340   1.880   1.716
  815TIP3    H1 2451   3.268   1.822   1.739
  815TIP3    H2 2452   3.313   1.966   1.751
  816TIP3   OH2 2453   5.475   3.320   3.702
  816TIP3    H1 2454   5.495   3.345   3.792
  816TIP3    H2 2455   5.381   3.335   3.693
  817TIP3   OH2 2456   2.910   1.890   0.770
  817TIP3    H1 2457   2.829   1.940   0.764
  817TIP3    H2 2458   2.937   1.900   0.862
  818TIP3   OH2 2459   4.644   5.583   2.051
  818TIP3    H1 2460   4.606   5.559   1.967
  818TIP3    H2 2461   4.738   5.589   2.034
  819TIP3   OH2 2462   4.434   1.760   0.614
  819TIP3    H1 2463   4.497   1.691   0.633
  819TIP3    H2 2464   4.475   1.840   0.647
  820TIP3   OH2 2465   2.069   4.322   0.957
  820TIP3    H1 2466   2.074   4.250   1.020
  820TIP3    H2 2467   1.977   4.349   0.958
  821TIP3   OH2 2468   4.777   5.479   4.950
  821TIP3    H1 2469   4.808   5.439   5.031
  821TIP3    H2 2470   4.728   5.409   4.906
  822TIP3   OH2 2471   5.919   0.564   2.030
  822TIP3    H1 2472   5.902   0.658   2.020
  822TIP3    H2 2473   5.951   0.554   2.119
  823TIP3   OH2 2474   4.054   5.794   4.698
  823TIP3    H1 2475   4.069   5.887   4.682
  823TIP3    H2 2476   3.990   5.792   4.769
  824TIP3   OH2 2477   4.827   3.895   0.112
  824TIP3    H1 2478   4.859   3.824   0.168
  824TIP3    H2 2479   4.752   3.858   0.067
  825TIP3   OH2 2480   5.198   0.738   1.300
  825TIP3    H1 2481   5.283   0.704   1.327
  825TIP3    H2 2482   5.135   0.672   1.331
  826TIP3   OH2 2483   6.114   1.436   3.711
  826TIP3    H1 2484   6.144   1.383   3.784
  826TIP3    H2 2485   6.127   1.381   3.633
  827TIP3   OH2 2486   2.437   1.087   2.586
  827TIP3    H1 2487   2.357   1.045   2.554
  827TIP3    H2 2488   2.409   1.176   2.610
  828TIP3   OH2 2489   4.710   3.889   0.544
  828TIP3    H1 2490   4.625   3.923   0.573
  828TIP3    H2 2491   4.743   3.840   0.619
  829TIP3   OH2 2492   3.934   4.288   1.363
  829TIP3    H1 2493   3.997   4.218   1.346
  829TIP3    H2 2494   3.866   4.246   1.416
  830TIP3   OH2 2495   5.161   3.726   3.981
  830TIP3    H1 2496   5.066   3.736   3.983
  830TIP3    H2 2497   5.184   3.698   4.070
  831TIP3   OH2 2498   0.752   1.241   2.694
  831TIP3    H1 2499   0.699   1.162   2.680
  831TIP3    H2 2500   0.687   1.312   2.699
  832TIP3   OH2 2501   0.089   0.124   3.101
  832TIP3    H1 2502   0.090   0.202   3.157
  832TIP3    H2 2503   0.137   0.150   3.022
  833TIP3   OH2 2504   4.149   0.204   2.340
  833TIP3    H1 2505   4.150   0.109   2.350
  833TIP3    H2 2506   4.059   0.225   2.316
  834TIP3   OH2 2507   0.899   5.428   3.214
  834TIP3    H1 2508   0.928   5.513   3.245
  834TIP3    H2 2509   0.877   5.379   3.294
  835TIP3   OH2 2510   5.984   0.944   2.566
  835TIP3    H1 2511   5.888   0.942   2.567
  835TIP3    H2 2512   6.009   0.868   2.514
  836TIP3   OH2 2513   2.420   2.668   2.421
  836TIP3    H1 2514   2.484   2.723   2.375
  836TIP3    H2 2515   2.417   2.587   2.369
  837TIP3   OH2 2516   0.279   3.152   4.387
  837TIP3    H1 2517   0.339   3.080   4.368
  837TIP3    H2 2518   0.229   3.164   4.306
  838TIP3   OH2 2519   4.638   0.072   2.782
  838TIP3    H1 2520   4.676   0.065   2.870
  838TIP3    H2 2521   4.713   0.073   2.723
  839TIP3   OH2 2522   2.695   4.073   4.173
  839TIP3    H1 2523   2.683   3.994   4.226
  839TIP3    H2 2524   2.629   4.064   4.103
  840TIP3   OH2 2525   1.866   3.578   2.662
  840TIP3    H1 2526   1.955   3.548   2.684
  840TIP3    H2 2527   1.821   3.500   2.632
  841TIP3   OH2 2528   5.663   1.164   2.519
  841TIP3    H1 2529   5.712   1.089   2.486
  841TIP3    H2 2530   5.700   1.180   2.606
  842TIP3   OH2 2531   2.310   5.939   2.319
  842TIP3    H1 2532   2.360   5.898   2.248
  842TIP3    H2 2533   2.219   5.923   2.296
  843TIP3   OH2 2534   1.927   1.458   4.976
  843TIP3    H1 2535   1.892   1.381   5.021
  843TIP3    H2 2536   2.020   1.436   4.962
  844TIP3   OH2 2537   1.487   5.973   1.360
  844TIP3    H1 2538   1.522   6.060   1.381
  844TIP3    H2 2539   1.499   5.923   1.440
  845TIP3   OH2 2540   4.284   3.156   3.743
  845TIP3    H1 2541   4.265   3.067   3.771
  845TIP3    H2 2542   4.378   3.167   3.760
  846TIP3   OH2 2543   5.139   1.315   4.256
  846TIP3    H1 2544   5.225   1.283   4.227
  846TIP3    H2 2545   5.099   1.240   4.300
  847TIP3   OH2 2546   0.225   3.579   2.867
  847TIP3    H1 2547   0.133   3.562   2.847
  847TIP3    H2 2548   0.273   3.514   2.815
  848TIP3   OH2 2549   4.601   3.876   0.938
  848TIP3    H1 2550   4.589   3.891   1.032
  848TIP3    H2 2551   4.668   3.808   0.933
  849TIP3   OH2 2552   3.853   3.656   3.336
  849TIP3    H1 2553   3.942   3.686   3.358
  849TIP3    H2 2554   3.816   3.729   3.286
  850TIP3   OH2 2555   2.377   0.020   0.229
  850TIP3    H1 2556   2.310  -0.038   0.265
  850TIP3    H2 2557   2.380   0.094   0.289
  851TIP3   OH2 2558   4.055   5.814   1.044
  851TIP3    H1 2559   4.038   5.758   1.119
  851TIP3    H2 2560   3.995   5.782   0.976
  852TIP3   OH2 2561   4.999   0.205   2.446
  852TIP3    H1 2562   4.927   0.259   2.414
  852TIP3    H2 2563   5.076   0.235   2.397
  853TIP3   OH2 2564   3.879   1.117   1.119
  853TIP3    H1 2565   3.974   1.108   1.122
  853TIP3    H2 2566   3.860   1.136   1.027
  854TIP3   OH2 2567   3.919   4.134   2.045
  854TIP3    H1 2568   4.013   4.142   2.062
  854TIP3    H2 2569   3.903   4.040   2.046
  855TIP3   OH2 2570   1.215   4.576   3.904
  855TIP3    H1 2571   1.307   4.556   3.888
  855TIP3    H2 2572   1.188   4.514   3.973
  856TIP3   OH2 2573   1.738   5.164   4.029
  856TIP3    H1 2574   1.776   5.169   4.117
  856TIP3    H2 2575   1.733   5.255   3.999
  857TIP3   OH2 2576   3.901   5.446   1.011
  857TIP3    H1 2577   3.836   5.421   1.077
  857TIP3    H2 2578   3.954   5.512   1.055
  858TIP3   OH2 2579   4.843   1.452   1.818
  858TIP3    H1 2580   4.760   1.423   1.854
  858TIP3    H2 2581   4.904   1.449   1.892
  859TIP3   OH2 2582   0.828   1.385   1.425
  859TIP3    H1 2583   0.874   1.465   1.451
  859TIP3    H2 2584   0.891   1.315   1.444
  860TIP3   OH2 2585   0.353   1.883   2.712
  860TIP3    H1 2586   0.402   1.965   2.708
  860TIP3    H2 2587   0.286   1.891   2.644
  861TIP3   OH2 2588   1.091   3.005   2.133
  861TIP3    H1 2589   1.125   2.930   2.086
  861TIP3    H2 2590   0.996   3.002   2.118
  862TIP3   OH2 2591   2.285   3.753   0.883
  862TIP3    H1 2592   2.248   3.810   0.817
  862TIP3    H2 2593   2.368   3.722   0.845
  863TIP3   OH2 2594   4.989   0.592   0.298
  863TIP3    H1 2595   5.074   0.580   0.255
  863TIP3    H2 2596   4.996   0.677   0.342
  864TIP3   OH2 2597   3.470   5.149   1.862
  864TIP3    H1 2598   3.519   5.115   1.787
  864TIP3    H2 2599   3.472   5.078   1.926
  865TIP3   OH2 2600   0.235   2.689   4.882
  865TIP3    H1 2601   0.329   2.697   4.898
  865TIP3    H2 2602   0.214   2.761   4.823
  866TIP3   OH2 2603   1.575   4.504   4.723
  866TIP3    H1 2604   1.485   4.529   4.742
  866TIP3    H2 2605   1.591   4.535   4.634
  867TIP3   OH2 2606   5.453   4.361   0.564
  867TIP3    H1 2607   5.412   4.402   0.641
  867TIP3    H2 2608   5.382   4.312   0.523
  868TIP3   OH2 2609   0.601   2.998   4.708
  868TIP3    H1 2610   0.596   3.050   4.788
  868TIP3    H2 2611   0.509   2.983   4.683
  869TIP3   OH2 2612   4.994   4.987   0.833
  869TIP3    H1 2613   4.929   4.995   0.904
  869TIP3    H2 2614   4.978   4.901   0.795
  870TIP3   OH2 2615   6.157   4.460   1.261
  870TIP3    H1 2616   6.155   4.445   1.355
  870TIP3    H2 2617   6.148   4.373   1.222
  871TIP3   OH2 2618   5.584   2.445   2.409
  871TIP3    H1 2619   5.521   2.443   2.337
  871TIP3    H2 2620   5.669   2.434   2.367
  872TIP3   OH2 2621   3.824   3.400   2.292
  872TIP3    H1 2622   3.794   3.489   2.309
  872TIP3    H2 2623   3.751   3.359   2.245
  873TIP3   OH2 2624   3.794   0.925   2.040
  873TIP3    H1 2625   3.859   0.988   2.071
  873TIP3    H2 2626   3.782   0.864   2.113
  874TIP3   OH2 2627   3.524   5.757   1.804
  874TIP3    H1 2628   3.556   5.677   1.762
  874TIP3    H2 2629   3.564   5.755   1.891
  875TIP3   OH2 2630   0.102   5.699   2.657
  875TIP3    H1 2631   0.080   5.632   2.721
  875TIP3    H2 2632   0.148   5.652   2.587
  876TIP3   OH2 2633   1.520   4.040   1.030
  876TIP3    H1 2634   1.549   3.949   1.038
  876TIP3    H2 2635   1.600   4.090   1.016
  877TIP3   OH2 2636   2.910   4.089   4.702
  877TIP3    H1 2637   2.897   4.134   4.785
  877TIP3    H2 2638   2.991   4.039   4.714
  878TIP3   OH2 2639   5.025   4.722   0.700
  878TIP3    H1 2640   4.948   4.669   0.680
  878TIP3    H2 2641   5.091   4.692   0.638
  879TIP3   OH2 2642   2.739   5.328   1.495
  879TIP3    H1 2643   2.694   5.251   1.461
  879TIP3    H2 2644   2.670   5.394   1.503
  880TIP3   OH2 2645   4.542   0.369   2.708
  880TIP3    H1 2646   4.479   0.338   2.773
  880TIP3    H2 2647   4.539   0.304   2.638
  881TIP3   OH2 2648   5.552   3.372   1.536
  881TIP3    H1 2649   5.601   3.298   1.573
  881TIP3    H2 2650   5.605   3.399   1.461
  882TIP3   OH2 2651   4.494   5.336   5.032
  882TIP3    H1 2652   4.414   5.342   4.980
  882TIP3    H2 2653   4.560   5.306   4.969
  883TIP3   OH2 2654   3.273   1.643   3.016
  883TIP3    H1 2655   3.185   1.606   3.019
  883TIP3    H2 2656   3.259   1.737   2.999
  884TIP3   OH2 2657   4.746   1.988   3.517
  884TIP3    H1 2658   4.665   1.983   3.567
  884TIP3    H2 2659   4.741   1.916   3.454
  885TIP3   OH2 2660   0.885   0.286   3.650
  885TIP3    H1 2661   0.867   0.380   3.644
  885TIP3    H2 2662   0.963   0.280   3.706
  886TIP3   OH2 2663   1.683   1.458   1.658
  886TIP3    H1 2664   1.721   1.371   1.661
  886TIP3    H2 2665   1.590   1.443   1.641
  887TIP3   OH2 2666   3.765   2.777   2.320
  887TIP3    H1 2667   3.781   2.765   2.414
  887TIP3    H2 2668   3.712   2.856   2.314
  888TIP3   OH2 2669   0.359   2.976   2.514
  888TIP3    H1 2670   0.314   2.904   2.558
  888TIP3    H2 2671   0.315   3.055   2.546
  889TIP3   OH2 2672   0.396   3.253   0.163
  889TIP3    H1 2673   0.399   3.184   0.097
  889TIP3    H2 2674   0.318   3.233   0.215
  890TIP3   OH2 2675   0.063   0.193   5.140
  890TIP3    H1 2676   0.018   0.120   5.100
  890TIP3    H2 2677   0.140   0.208   5.085
  891TIP3   OH2 2678   2.176   3.035   4.455
  891TIP3    H1 2679   2.136   3.041   4.542
  891TIP3    H2 2680   2.205   2.944   4.448
  892TIP3   OH2 2681   0.926   0.653   4.362
  892TIP3    H1 2682   0.970   0.575   4.330
  892TIP3    H2 2683   0.834   0.639   4.342
  893TIP3   OH2 2684   3.121   2.298   0.522
  893TIP3    H1 2685   3.085   2.242   0.453
  893TIP3    H2 2686   3.091   2.386   0.500
  894TIP3   OH2 2687   2.079   4.668   3.839
  894TIP3    H1 2688   2.093   4.677   3.745
  894TIP3    H2 2689   1.984   4.671   3.849
  895TIP3   OH2 2690   6.100   5.612   1.615
  895TIP3    H1 2691   6.148   5.580   1.540
  895TIP3    H2 2692   6.008   5.596   1.594
  896TIP3   OH2 2693   2.699   1.008   4.977
  896TIP3    H1 2694   2.733   1.003   4.888
  896TIP3    H2 2695   2.664   0.921   4.995
  897TIP3   OH2 2696   2.244   3.095   2.310
  897TIP3    H1 2697   2.339   3.080   2.310
  897TIP3    H2 2698   2.219   3.097   2.402
  898TIP3   OH2 2699   1.588   0.852   0.492
  898TIP3    H1 2700   1.648   0.793   0.448
  898TIP3    H2 2701   1.618   0.940   0.466
  899TIP3   OH2 2702   1.059   5.110   1.093
  899TIP3    H1 2703   0.976   5.062   1.094
  899TIP3    H2 2704   1.124   5.045   1.120
  900TIP3   OH2 2705   5.980   0.494   1.388
  900TIP3    H1 2706   5.973   0.500   1.293
  900TIP3    H2 2707   6.026   0.411   1.404
  901TIP3   OH2 2708   2.100   1.964   0.151
  901TIP3    H1 2709   2.130   1.966   0.242
  901TIP3    H2 2710   2.080   1.872   0.134
  902TIP3   OH2 2711   2.798   1.053   0.790
  902TIP3    H1 2712   2.703   1.050   0.794
  902TIP3    H2 2713   2.827   0.972   0.831
  903TIP3   OH2 2714   2.156   5.445   1.016
  903TIP3    H1 2715   2.225   5.511   1.002
  903TIP3    H2 2716   2.127   5.460   1.106
  904TIP3   OH2 2717   2.589   2.221   0.571
  904TIP3    H1 2718   2.612   2.311   0.594
  904TIP3    H2 2719   2.499   2.227   0.538
  905TIP3   OH2 2720   0.428   3.135   4.897
  905TIP3    H1 2721   0.358   3.095   4.948
  905TIP3    H2 2722   0.385   3.165   4.817
  906TIP3   OH2 2723   2.993   2.007   2.690
  906TIP3    H1 2724   2.963   2.026   2.779
  906TIP3    H2 2725   2.934   1.938   2.660
  907TIP3   OH2 2726   1.823   2.615   0.952
  907TIP3    H1 2727   1.845   2.688   1.010
  907TIP3    H2 2728   1.898   2.555   0.960
  908TIP3   OH2 2729   1.679   1.200   3.803
  908TIP3    H1 2730   1.722   1.285   3.812
  908TIP3    H2 2731   1.743   1.144   3.760
  909TIP3   OH2 2732   3.312   1.937   1.448
  909TIP3    H1 2733   3.399   1.936   1.408
  909TIP3    H2 2734   3.329   1.929   1.542
  910TIP3   OH2 2735   5.445   3.433   0.799
  910TIP3    H1 2736   5.375   3.482   0.755
  910TIP3    H2 2737   5.405   3.406   0.882
  911TIP3   OH2 2738   2.203   3.097   2.584
  911TIP3    H1 2739   2.203   3.002   2.577
  911TIP3    H2 2740   2.126   3.117   2.637
  912TIP3   OH2 2741   5.222   4.972   4.137
  912TIP3    H1 2742   5.305   5.020   4.144
  912TIP3    H2 2743   5.246   4.888   4.098
  913TIP3   OH2 2744   0.114   2.633   3.869
  913TIP3    H1 2745   0.199   2.602   3.837
  913TIP3    H2 2746   0.102   2.717   3.825
  914TIP3   OH2 2747   3.036   0.585   1.635
  914TIP3    H1 2748   2.959   0.642   1.628
  914TIP3    H2 2749   3.005   0.500   1.605
  915TIP3   OH2 2750   0.717   4.376   0.482
  915TIP3    H1 2751   0.742   4.459   0.443
  915TIP3    H2 2752   0.644   4.397   0.540
  916TIP3   OH2 2753   3.310   5.947   1.117
  916TIP3    H1 2754   3.294   5.911   1.030
  916TIP3    H2 2755   3.292   6.040   1.109
  917TIP3   OH2 2756   6.159   2.512   4.388
  917TIP3    H1 2757   6.191   2.515   4.297
  917TIP3    H2 2758   6.081   2.566   4.387
  918TIP3   OH2 2759   5.467   2.178   0.589
  918TIP3    H1 2760   5.415   2.103   0.561
  918TIP3    H2 2761   5.409   2.253   0.576
  919TIP3   OH2 2762   2.743   2.968   4.149
  919TIP3    H1 2763   2.737   2.965   4.244
  919TIP3    H2 2764   2.657   2.940   4.118
  920TIP3   OH2 2765   4.290   2.788   3.306
  920TIP3    H1 2766   4.223   2.819   3.367
  920TIP3    H2 2767   4.372   2.797   3.355
  921TIP3   OH2 2768   3.891   5.568   3.239
  921TIP3    H1 2769   3.811   5.614   3.265
  921TIP3    H2 2770   3.861   5.484   3.206
  922TIP3   OH2 2771   1.559   3.200   1.057
  922TIP3    H1 2772   1.587   3.200   0.966
  922TIP3    H2 2773   1.500   3.125   1.065
  923TIP3   OH2 2774   1.499   5.795   3.708
  923TIP3    H1 2775   1.501   5.884   3.674
  923TIP3    H2 2776   1.562   5.747   3.654
  924TIP3   OH2 2777   0.891   1.922   4.109
  924TIP3    H1 2778   0.966   1.912   4.168
  924TIP3    H2 2779   0.927   1.907   4.022
  925TIP3   OH2 2780   1.084   1.024   2.337
  925TIP3    H1 2781   1.078   0.968   2.259
  925TIP3    H2 2782   1.138   0.974   2.398
  926TIP3   OH2 2783   3.388   1.590   0.135
  926TIP3    H1 2784   3.362   1.619   0.047
  926TIP3    H2 2785   3.480   1.565   0.126
  927TIP3   OH2 2786   1.534   1.204   1.117
  927TIP3    H1 2787   1.579   1.121   1.102
  927TIP3    H2 2788   1.452   1.196   1.068
  928TIP3   OH2 2789   6.016   0.159   4.488
  928TIP3    H1 2790   5.933   0.119   4.515
  928TIP3    H2 2791   6.024   0.137   4.396
  929TIP3   OH2 2792   3.630   0.902   0.213
  929TIP3    H1 2793   3.667   0.854   0.287
  929TIP3    H2 2794   3.591   0.835   0.158
  930TIP3   OH2 2795   4.641   5.901   0.291
  930TIP3    H1 2796   4.730   5.936   0.297
  930TIP3    H2 2797   4.648   5.811   0.321
  931TIP3   OH2 2798   1.834   1.457   0.172
  931TIP3    H1 2799   1.827   1.364   0.149
  931TIP3    H2 2800   1.783   1.502   0.105
  932TIP3   OH2 2801   2.786   0.947   4.718
  932TIP3    H1 2802   2.875   0.934   4.750
  932TIP3    H2 2803   2.797   0.980   4.629
  933TIP3   OH2 2804   2.058   4.723   0.316
  933TIP3    H1 2805   2.073   4.758   0.404
  933TIP3    H2 2806   2.095   4.635   0.318
  934TIP3   OH2 2807   2.775   2.022   1.114
  934TIP3    H1 2808   2.770   2.109   1.153
  934TIP3    H2 2809   2.828   2.034   1.035
  935TIP3   OH2 2810   3.212   4.171   0.354
  935TIP3    H1 2811   3.215   4.247   0.413
  935TIP3    H2 2812   3.120   4.164   0.328
  936TIP3   OH2 2813   3.620   3.641   2.326
  936TIP3    H1 2814   3.652   3.658   2.415
  936TIP3    H2 2815   3.528   3.666   2.329
  937TIP3   OH2 2816   5.651   2.323   1.288
  937TIP3    H1 2817   5.644   2.277   1.204
  937TIP3    H2 2818   5.680   2.411   1.264
  938TIP3   OH2 2819   2.891   5.505   2.942
  938TIP3    H1 2820   2.972   5.455   2.940
  938TIP3    H2 2821   2.876   5.529   2.850
  939TIP3   OH2 2822   1.455   2.214   4.473
  939TIP3    H1 2823   1.360   2.198   4.473
  939TIP3    H2 2824   1.470   2.263   4.554
  940TIP3   OH2 2825   5.062   2.034   3.079
  940TIP3    H1 2826   5.004   2.109   3.095
  940TIP3    H2 2827   5.095   2.010   3.165
  941TIP3   OH2 2828   4.221   6.005   0.166
  941TIP3    H1 2829   4.180   5.966   0.243
  941TIP3    H2 2830   4.280   5.938   0.133
  942TIP3   OH2 2831   2.277   2.242   4.160
  942TIP3    H1 2832   2.231   2.306   4.106
  942TIP3    H2 2833   2.272   2.161   4.111
  943TIP3   OH2 2834   4.118   1.511   4.137
  943TIP3    H1 2835   4.065   1.439   4.172
  943TIP3    H2 2836   4.059   1.587   4.140
  944TIP3   OH2 2837   4.617   0.896   4.897
  944TIP3    H1 2838   4.595   0.805   4.918
  944TIP3    H2 2839   4.713   0.897   4.896
  945TIP3   OH2 2840   3.612   2.724   4.849
  945TIP3    H1 2841   3.603   2.736   4.944
  945TIP3    H2 2842   3.696   2.679   4.838
  946TIP3   OH2 2843   2.943   2.901   0.994
  946TIP3    H1 2844   2.906   2.830   0.942
  946TIP3    H2 2845   2.930   2.980   0.941
  947TIP3   OH2 2846   3.394   0.404   3.828
  947TIP3    H1 2847   3.408   0.309   3.831
  947TIP3    H2 2848   3.439   0.437   3.905
  948TIP3   OH2 2849   3.180   2.864   0.323
  948TIP3    H1 2850   3.241   2.895   0.256
  948TIP3    H2 2851   3.122   2.803   0.276
  949TIP3   OH2 2852   5.619   5.519   5.153
  949TIP3    H1 2853   5.709   5.545   5.172
  949TIP3    H2 2854   5.607   5.436   5.200
  950TIP3   OH2 2855   0.155   5.078   3.749
  950TIP3    H1 2856   0.087   5.075   3.682
  950TIP3    H2 2857   0.237   5.076   3.699
  951TIP3   OH2 2858   4.116   5.613   0.201
  951TIP3    H1 2859   4.165   5.664   0.265
  951TIP3    H2 2860   4.035   5.590   0.246
  952TIP3   OH2 2861   0.258   3.784   3.618
  952TIP3    H1 2862   0.313   3.765   3.542
  952TIP3    H2 2863   0.204   3.859   3.591
  953TIP3   OH2 2864   3.369   5.162   2.146
  953TIP3    H1 2865   3.369   5.194   2.236
  953TIP3    H2 2866   3.359   5.241   2.093
  954TIP3   OH2 2867   3.138   2.427   3.960
  954TIP3    H1 2868   3.221   2.382   3.977
  954TIP3    H2 2869   3.077   2.356   3.940
  955TIP3   OH2 2870   0.991   3.012   1.047
  955TIP3    H1 2871   0.942   2.934   1.021
  955TIP3    H2 2872   1.059   2.979   1.106
  956TIP3   OH2 2873   4.387   4.208   4.989
  956TIP3    H1 2874   4.317   4.253   5.037
  956TIP3    H2 2875   4.436   4.279   4.946
  957TIP3   OH2 2876   3.880   1.382   4.143
  957TIP3    H1 2877   3.843   1.464   4.177
  957TIP3    H2 2878   3.804   1.325   4.131
  958TIP3   OH2 2879   1.253   1.335   0.106
  958TIP3    H1 2880   1.230   1.350   0.014
  958TIP3    H2 2881   1.170   1.343   0.153
  959TIP3   OH2 2882   5.220   3.997   0.986
  959TIP3    H1 2883   5.307   4.038   0.983
  959TIP3    H2 2884   5.234   3.914   1.030
  960TIP3   OH2 2885   0.474   1.631   1.492
  960TIP3    H1 2886   0.480   1.668   1.580
  960TIP3    H2 2887   0.524   1.550   1.497
  961TIP3   OH2 2888   1.200   4.897   2.464
  961TIP3    H1 2889   1.204   4.847   2.545
  961TIP3    H2 2890   1.115   4.875   2.426
  962TIP3   OH2 2891   2.424   1.581   0.997
  962TIP3    H1 2892   2.406   1.525   1.072
  962TIP3    H2 2893   2.362   1.654   1.007
  963TIP3   OH2 2894   3.030   2.717   0.125
  963TIP3    H1 2895   3.049   2.624   0.138
  963TIP3    H2 2896   2.991   2.722   0.038
  964TIP3   OH2 2897   4.301   2.905   4.849
  964TIP3    H1 2898   4.234   2.974   4.845
  964TIP3    H2 2899   4.308   2.874   4.758
  965TIP3   OH2 2900   3.867   4.856   1.344
  965TIP3    H1 2901   3.930   4.798   1.303
  965TIP3    H2 2902   3.787   4.845   1.292
  966TIP3   OH2 2903   3.978   3.454   4.853
  966TIP3    H1 2904   3.915   3.514   4.893
  966TIP3    H2 2905   4.063   3.480   4.891
  967TIP3   OH2 2906   2.668   2.837   5.098
  967TIP3    H1 2907   2.587   2.791   5.118
  967TIP3    H2 2908   2.655   2.874   5.011
  968TIP3   OH2 2909   5.126   1.955   3.331
  968TIP3    H1 2910   5.164   1.870   3.352
  968TIP3    H2 2911   5.145   2.011   3.406
  969TIP3   OH2 2912   4.711   1.109   3.819
  969TIP3    H1 2913   4.660   1.120   3.738
  969TIP3    H2 2914   4.802   1.118   3.791
  970TIP3   OH2 2915   1.070   4.089   3.305
  970TIP3    H1 2916   0.989   4.038   3.308
  970TIP3    H2 2917   1.136   4.033   3.346
  971TIP3   OH2 2918   3.059   0.359   4.214
  971TIP3    H1 2919   3.038   0.361   4.308
  971TIP3    H2 2920   3.110   0.279   4.202
  972TIP3   OH2 2921   3.288   4.344   1.120
  972TIP3    H1 2922   3.243   4.425   1.094
  972TIP3    H2 2923   3.277   4.340   1.215
  973TIP3   OH2 2924   5.663   4.850   0.857
  973TIP3    H1 2925   5.611   4.889   0.787
  973TIP3    H2 2926   5.709   4.777   0.815
  974TIP3   OH2 2927   1.737   3.349   2.913
  974TIP3    H1 2928   1.735   3.254   2.902
  974TIP3    H2 2929   1.777   3.363   2.999
  975TIP3   OH2 2930   4.014   2.690   0.261
  975TIP3    H1 2931   4.074   2.758   0.291
  975TIP3    H2 2932   4.054   2.608   0.289
  976TIP3   OH2 2933   4.230   2.611   1.049
  976TIP3    H1 2934   4.300   2.627   0.985
  976TIP3    H2 2935   4.275   2.598   1.132
  977TIP3   OH2 2936   4.060   0.213   4.776
  977TIP3    H1 2937   4.110   0.177   4.849
  977TIP3    H2 2938   4.013   0.137   4.740
  978TIP3   OH2 2939   6.206   5.700   3.152
  978TIP3    H1 2940   6.120   5.727   3.185
  978TIP3    H2 2941   6.221   5.756   3.076
  979TIP3   OH2 2942   2.179   4.257   0.695
  979TIP3    H1 2943   2.269   4.260   0.664
  979TIP3    H2 2944   2.182   4.291   0.784
  980TIP3   OH2 2945   3.032   2.685   2.606
  980TIP3    H1 2946   3.065   2.598   2.582
  980TIP3    H2 2947   3.111   2.737   2.617
  981TIP3   OH2 2948   2.088   2.693   0.288
  981TIP3    H1 2949   2.151   2.753   0.248
  981TIP3    H2 2950   2.097   2.709   0.382
  982TIP3   OH2 2951   1.403   5.378   1.578
  982TIP3    H1 2952   1.375   5.398   1.667
  982TIP3    H2 2953   1.322   5.359   1.531
  983TIP3   OH2 2954   2.285   0.699   4.596
  983TIP3    H1 2955   2.379   0.711   4.582
  983TIP3    H2 2956   2.246   0.779   4.561
  984TIP3   OH2 2957   6.147   2.324   2.939
  984TIP3    H1 2958   6.178   2.236   2.920
  984TIP3    H2 2959   6.187   2.379   2.871
  985TIP3   OH2 2960   0.421   2.040   1.128
  985TIP3    H1 2961   0.492   2.096   1.095
  985TIP3    H2 2962   0.455   1.951   1.120
  986TIP3   OH2 2963   1.796   3.580   5.038
  986TIP3    H1 2964   1.882   3.596   5.076
  986TIP3    H2 2965   1.766   3.499   5.078
  987TIP3   OH2 2966   1.505   5.839   2.863
  987TIP3    H1 2967   1.447   5.866   2.792
  987TIP3    H2 2968   1.492   5.906   2.930
  988TIP3   OH2 2969   1.348   2.833   2.848
  988TIP3    H1 2970   1.423   2.826   2.789
  988TIP3    H2 2971   1.361   2.915   2.895
  989TIP3   OH2 2972   4.583   5.161   3.744
  989TIP3    H1 2973   4.614   5.245   3.778
  989TIP3    H2 2974   4.595   5.100   3.818
  990TIP3   OH2 2975   0.601   5.822   1.449
  990TIP3    H1 2976   0.527   5.780   1.492
  990TIP3    H2 2977   0.599   5.789   1.359
  991TIP3   OH2 2978   2.285   4.403   3.735
  991TIP3    H1 2979   2.211   4.347   3.713
  991TIP3    H2 2980   2.362   4.351   3.712
  992TIP3   OH2 2981   2.608   5.642   2.492
  992TIP3    H1 2982   2.604   5.608   2.403
  992TIP3    H2 2983   2.679   5.706   2.490
  993TIP3   OH2 2984   4.547   4.569   1.894
  993TIP3    H1 2985   4.603   4.597   1.822
  993TIP3    H2 2986   4.488   4.643   1.909
  994TIP3   OH2 2987   4.239   3.282   4.925
  994TIP3    H1 2988   4.250   3.373   4.952
  994TIP3    H2 2989   4.203   3.238   5.002
  995TIP3   OH2 2990   5.703   3.687   1.322
  995TIP3    H1 2991   5.627   3.654   1.274
  995TIP3    H2 2992   5.716   3.776   1.289
  996TIP3   OH2 2993   4.478   4.480   5.038
  996TIP3    H1 2994   4.516   4.417   5.099
  996TIP3    H2 2995   4.403   4.518   5.085
  997TIP3   OH2 2996   0.151   4.369   1.090
  997TIP3    H1 2997   0.217   4.388   1.023
  997TIP3    H2 2998   0.152   4.446   1.147
  998TIP3   OH2 2999   4.634   4.833   0.652
  998TIP3    H1 3000   4.611   4.741   0.665
  998TIP3    H2 3001   4.620   4.873   0.738
  999TIP3   OH2 3002   2.937   1.062   5.180
  999TIP3    H1 3003   3.016   1.036   5.134
  999TIP3    H2 3004   2.872   1.076   5.110
 1000TIP3   OH2 3005   1.342   1.736   3.290
 1000TIP3    H1 3006   1.277   1.740   3.220
 1000TIP3    H2 3007   1.386   1.652   3.278
 1001TIP3   OH2 3008   2.289   3.505   1.800
 1001TIP3    H1 3009   2.298   3.587   1.752
 1001TIP3    H2 3010   2.334   3.440   1.746
 1002TIP3   OH2 3011   3.303   5.172   4.332
 1002TIP3    H1 3012   3.243   5.190   4.405
 1002TIP3    H2 3013   3.381   5.134   4.374
 1003TIP3   OH2 3014   5.282   5.306   3.468
 1003TIP3    H1 3015   5.203   5.352   3.441
 1003TIP3    H2 3016   5.252   5.247   3.538
 1004TIP3   OH2 3017   1.267   4.995   1.424
 1004TIP3    H1 3018   1.269   5.084   1.388
 1004TIP3    H2 3019   1.332   4.996   1.494
 1005TIP3   OH2 3020   4.445   2.307   2.854
 1005TIP3    H1 3021   4.524   2.330   2.903
 1005TIP3    H2 3022   4.392   2.258   2.917
 1006TIP3   OH2 3023   4.071   3.823   3.441
 1006TIP3    H1 3024   4.156   3.843   3.480
 1006TIP3    H2 3025   4.056   3.893   3.378
 1007TIP3   OH2 3026   5.363   4.667   0.174
 1007TIP3    H1 3027   5.347   4.603   0.104
 1007TIP3    H2 3028   5.303   4.739   0.154
 1008TIP3   OH2 3029   2.109   2.361   2.695
 1008TIP3    H1 3030   2.092   2.368   2.789
 1008TIP3    H2 3031   2.194   2.404   2.683
 1009TIP3   OH2 3032   3.957   5.632   0.601
 1009TIP3    H1 3033   4.012   5.573   0.550
 1009TIP3    H2 3034   4.005   5.715   0.600
 1010TIP3   OH2 3035   3.805   1.300   1.615
 1010TIP3    H1 3036   3.816   1.342   1.700
 1010TIP3    H2 3037   3.713   1.273   1.614
 1011TIP3   OH2 3038   1.601   3.729   0.063
 1011TIP3    H1 3039   1.568   3.756   0.149
 1011TIP3    H2 3040   1.553   3.648   0.043
 1012TIP3   OH2 3041   0.200   3.020   3.988
 1012TIP3    H1 3042   0.182   2.981   3.902
 1012TIP3    H2 3043   0.136   2.979   4.046
 1013TIP3   OH2 3044   0.241   4.069   0.223
 1013TIP3    H1 3045   0.260   3.999   0.161
 1013TIP3    H2 3046   0.204   4.139   0.170
 1014TIP3   OH2 3047   4.362   3.953   5.123
 1014TIP3    H1 3048   4.449   3.917   5.137
 1014TIP3    H2 3049   4.376   4.044   5.099
 1015TIP3   OH2 3050   4.629   5.810   3.834
 1015TIP3    H1 3051   4.663   5.896   3.860
 1015TIP3    H2 3052   4.696   5.748   3.862
 1016TIP3   OH2 3053   4.871   0.969   4.945
 1016TIP3    H1 3054   4.935   0.947   5.013
 1016TIP3    H2 3055   4.919   0.963   4.863
 1017TIP3   OH2 3056   5.949   0.809   1.824
 1017TIP3    H1 3057   5.917   0.726   1.788
 1017TIP3    H2 3058   6.022   0.785   1.880
 1018TIP3   OH2 3059   5.713   5.544   1.681
 1018TIP3    H1 3060   5.771   5.490   1.628
 1018TIP3    H2 3061   5.684   5.614   1.622
 1019TIP3   OH2 3062   1.272   1.988   1.088
 1019TIP3    H1 3063   1.360   1.949   1.087
 1019TIP3    H2 3064   1.283   2.071   1.042
 1020TIP3   OH2 3065   0.212   4.349   3.749
 1020TIP3    H1 3066   0.207   4.435   3.709
 1020TIP3    H2 3067   0.241   4.291   3.679
 1021TIP3   OH2 3068   6.009   2.536   0.050
 1021TIP3    H1 3069   6.024   2.452   0.093
 1021TIP3    H2 3070   6.096   2.566   0.024
 1022TIP3   OH2 3071   2.241   0.018   3.457
 1022TIP3    H1 3072   2.250   0.107   3.489
 1022TIP3    H2 3073   2.269   0.022   3.365
 1023TIP3   OH2 3074   0.784   2.043   2.301
 1023TIP3    H1 3075   0.791   2.046   2.397
 1023TIP3    H2 3076   0.728   1.967   2.284
 1024TIP3   OH2 3077   2.486   5.216   0.500
 1024TIP3    H1 3078   2.495   5.124   0.475
 1024TIP3    H2 3079   2.426   5.252   0.435
 1025TIP3   OH2 3080   1.922   0.199   4.286
 1025TIP3    H1 3081   1.873   0.271   4.246
 1025TIP3    H2 3082   1.855   0.140   4.320
 1026TIP3   OH2 3083   1.784   0.146   0.157
 1026TIP3    H1 3084   1.840   0.188   0.222
 1026TIP3    H2 3085   1.802   0.052   0.167
 1027TIP3   OH2 3086   4.505   3.321   3.165
 1027TIP3    H1 3087   4.556   3.250   3.203
 1027TIP3    H2 3088   4.568   3.369   3.110
 1028TIP3   OH2 3089   4.786   3.308   0.097
 1028TIP3    H1 3090   4.812   3.258   0.019
 1028TIP3    H2 3091   4.716   3.257   0.136
 1029TIP3   OH2 3092   0.070   4.048   0.852
 1029TIP3    H1 3093   0.048   4.010   0.767
 1029TIP3    H2 3094   0.040   3.983   0.916
 1030TIP3   OH2 3095   3.639   0.782   3.731
 1030TIP3    H1 3096   3.698   0.846   3.693
 1030TIP3    H2 3097   3.595   0.742   3.656
 1031TIP3   OH2 3098   4.525   0.065   0.296
 1031TIP3    H1 3099   4.616   0.034   0.292
 1031TIP3    H2 3100   4.510   0.106   0.211
 1032TIP3   OH2 3101   0.181   4.881   4.212
 1032TIP3    H1 3102   0.125   4.833   4.152
 1032TIP3    H2 3103   0.127   4.894   4.290
 1033TIP3   OH2 3104   2.739   3.791   0.618
 1033TIP3    H1 3105   2.754   3.729   0.547
 1033TIP3    H2 3106   2.827   3.821   0.642
 1034TIP3   OH2 3107   0.690   0.578   0.689
 1034TIP3    H1 3108   0.729   0.640   0.628
 1034TIP3    H2 3109   0.707   0.616   0.776
 1035TIP3   OH2 3110   3.267   4.477   2.376
 1035TIP3    H1 3111   3.226   4.489   2.462
 1035TIP3    H2 3112   3.340   4.417   2.392
 1036TIP3   OH2 3113   3.431   0.109   2.403
 1036TIP3    H1 3114   3.359   0.161   2.367
 1036TIP3    H2 3115   3.499   0.173   2.422
 1037TIP3   OH2 3116   1.893   0.433   2.243
 1037TIP3    H1 3117   1.907   0.342   2.271
 1037TIP3    H2 3118   1.913   0.432   2.149
 1038TIP3   OH2 3119   2.514   0.245   2.978
 1038TIP3    H1 3120   2.517   0.302   2.901
 1038TIP3    H2 3121   2.537   0.158   2.945
 1039TIP3   OH2 3122   2.798   3.845   3.876
 1039TIP3    H1 3123   2.864   3.908   3.848
 1039TIP3    H2 3124   2.845   3.788   3.938
 1040TIP3   OH2 3125   3.719   5.411   1.219
 1040TIP3    H1 3126   3.707   5.338   1.279
 1040TIP3    H2 3127   3.685   5.487   1.267
 1041TIP3   OH2 3128   2.788   2.970   0.289
 1041TIP3    H1 3129   2.757   3.040   0.346
 1041TIP3    H2 3130   2.864   3.009   0.244
 1042TIP3   OH2 3131   3.685   1.077   0.561
 1042TIP3    H1 3132   3.680   0.985   0.583
 1042TIP3    H2 3133   3.625   1.088   0.488
 1043TIP3   OH2 3134   2.251   4.851   2.578
 1043TIP3    H1 3135   2.242   4.926   2.636
 1043TIP3    H2 3136   2.166   4.807   2.582
 1044TIP3   OH2 3137   5.847   3.624   4.594
 1044TIP3    H1 3138   5.766   3.669   4.571
 1044TIP3    H2 3139   5.828   3.531   4.580
 1045TIP3   OH2 3140   3.581   0.388   0.126
 1045TIP3    H1 3141   3.635   0.313   0.105
 1045TIP3    H2 3142   3.511   0.387   0.061
 1046TIP3   OH2 3143   2.271   4.418   1.486
 1046TIP3    H1 3144   2.289   4.509   1.510
 1046TIP3    H2 3145   2.222   4.424   1.405
 1047TIP3   OH2 3146   3.361   0.999   1.666
 1047TIP3    H1 3147   3.420   0.964   1.733
 1047TIP3    H2 3148   3.296   0.931   1.653
 1048TIP3   OH2 3149   3.521   3.668   4.870
 1048TIP3    H1 3150   3.509   3.708   4.784
 1048TIP3    H2 3151   3.544   3.742   4.927
 1049TIP3   OH2 3152   4.217   4.961   4.661
 1049TIP3    H1 3153   4.191   4.928   4.747
 1049TIP3    H2 3154   4.144   4.938   4.604
 1050TIP3   OH2 3155   2.049   0.588   3.376
 1050TIP3    H1 3156   2.018   0.636   3.452
 1050TIP3    H2 3157   1.991   0.616   3.305
 1051TIP3   OH2 3158   4.893   1.818   1.038
 1051TIP3    H1 3159   4.967   1.764   1.010
 1051TIP3    H2 3160   4.816   1.765   1.017
 1052TIP3   OH2 3161   2.053   0.801   4.110
 1052TIP3    H1 3162   2.067   0.727   4.169
 1052TIP3    H2 3163   2.131   0.802   4.054
 1053TIP3   OH2 3164   4.889   4.809   3.160
 1053TIP3    H1 3165   4.967   4.760   3.183
 1053TIP3    H2 3166   4.876   4.793   3.067
 1054TIP3   OH2 3167   4.829   4.789   5.156
 1054TIP3    H1 3168   4.901   4.821   5.210
 1054TIP3    H2 3169   4.871   4.743   5.084
 1055TIP3   OH2 3170   5.799   0.845   2.192
 1055TIP3    H1 3171   5.858   0.836   2.266
 1055TIP3    H2 3172   5.802   0.938   2.169
 1056TIP3   OH2 3173   1.971   0.497   0.304
 1056TIP3    H1 3174   1.940   0.473   0.217
 1056TIP3    H2 3175   1.900   0.551   0.341
 1057TIP3   OH2 3176   3.228   2.274   3.549
 1057TIP3    H1 3177   3.263   2.361   3.569
 1057TIP3    H2 3178   3.133   2.287   3.547
 1058TIP3   OH2 3179   3.289   3.992   2.603
 1058TIP3    H1 3180   3.194   3.985   2.595
 1058TIP3    H2 3181   3.308   3.961   2.691
 1059TIP3   OH2 3182   4.560   1.899   2.686
 1059TIP3    H1 3183   4.584   1.973   2.742
 1059TIP3    H2 3184   4.482   1.929   2.639
 1060TIP3   OH2 3185   5.672   2.325   0.219
 1060TIP3    H1 3186   5.699   2.299   0.307
 1060TIP3    H2 3187   5.663   2.242   0.172
 1061TIP3   OH2 3188   1.122   6.042   0.255
 1061TIP3    H1 3189   1.183   6.101   0.298
 1061TIP3    H2 3190   1.061   6.014   0.324
 1062TIP3   OH2 3191   0.008   1.217   3.559
 1062TIP3    H1 3192   0.059   1.298   3.563
 1062TIP3    H2 3193   0.065   1.151   3.598
 1063TIP3   OH2 3194   3.770   2.549   3.065
 1063TIP3    H1 3195   3.718   2.483   3.018
 1063TIP3    H2 3196   3.720   2.564   3.145
 1064TIP3   OH2 3197   1.593   3.860   0.430
 1064TIP3    H1 3198   1.608   3.929   0.495
 1064TIP3    H2 3199   1.679   3.846   0.390
 1065TIP3   OH2 3200   2.949   4.431   3.241
 1065TIP3    H1 3201   2.972   4.470   3.325
 1065TIP3    H2 3202   2.897   4.498   3.197
 1066TIP3   OH2 3203   4.433   2.721   5.022
 1066TIP3    H1 3204   4.508   2.688   4.973
 1066TIP3    H2 3205   4.403   2.796   4.972
 1067TIP3   OH2 3206   2.826   0.764   1.324
 1067TIP3    H1 3207   2.871   0.720   1.251
 1067TIP3    H2 3208   2.780   0.837   1.282
 1068TIP3   OH2 3209   3.883   3.272   1.046
 1068TIP3    H1 3210   3.840   3.283   1.131
 1068TIP3    H2 3211   3.822   3.219   0.995
 1069TIP3   OH2 3212   3.754   4.198   1.582
 1069TIP3    H1 3213   3.696   4.262   1.624
 1069TIP3    H2 3214   3.699   4.122   1.565
 1070TIP3   OH2 3215   0.099   2.020   3.293
 1070TIP3    H1 3216   0.190   2.011   3.264
 1070TIP3    H2 3217   0.047   1.995   3.216
 1071TIP3   OH2 3218   5.637   5.629   2.390
 1071TIP3    H1 3219   5.581   5.650   2.315
 1071TIP3    H2 3220   5.715   5.683   2.378
 1072TIP3   OH2 3221   1.573   4.227   3.018
 1072TIP3    H1 3222   1.512   4.169   2.971
 1072TIP3    H2 3223   1.533   4.239   3.104
 1073TIP3   OH2 3224   0.742   5.729   2.702
 1073TIP3    H1 3225   0.739   5.819   2.736
 1073TIP3    H2 3226   0.651   5.700   2.705
 1074TIP3   OH2 3227   6.187   3.164   3.425
 1074TIP3    H1 3228   6.133   3.212   3.487
 1074TIP3    H2 3229   6.124   3.122   3.366
 1075TIP3   OH2 3230   2.745   2.969   2.484
 1075TIP3    H1 3231   2.754   2.874   2.490
 1075TIP3    H2 3232   2.809   2.995   2.417
 1076TIP3   OH2 3233   4.211   4.186   3.371
 1076TIP3    H1 3234   4.307   4.179   3.367
 1076TIP3    H2 3235   4.192   4.201   3.464
 1077TIP3   OH2 3236   1.856   0.223   4.917
 1077TIP3    H1 3237   1.831   0.153   4.977
 1077TIP3    H2 3238   1.945   0.201   4.890
 1078TIP3   OH2 3239   4.360   0.300   3.823
 1078TIP3    H1 3240   4.359   0.394   3.840
 1078TIP3    H2 3241   4.312   0.262   3.897
 1079TIP3   OH2 3242   5.044   1.142   1.486
 1079TIP3    H1 3243   4.977   1.157   1.552
 1079TIP3    H2 3244   5.079   1.055   1.507
 1080TIP3   OH2 3245   0.599   0.332   1.519
 1080TIP3    H1 3246   0.619   0.343   1.612
 1080TIP3    H2 3247   0.682   0.348   1.474
 1081TIP3   OH2 3248   5.960   3.875   2.772
 1081TIP3    H1 3249   6.018   3.828   2.831
 1081TIP3    H2 3250   5.909   3.932   2.829
 1082TIP3   OH2 3251   5.720   2.335   2.199
 1082TIP3    H1 3252   5.761   2.375   2.122
 1082TIP3    H2 3253   5.626   2.337   2.178
 1083TIP3   OH2 3254   5.839   0.579   4.839
 1083TIP3    H1 3255   5.819   0.638   4.912
 1083TIP3    H2 3256   5.897   0.513   4.878
 1084TIP3   OH2 3257   5.150   1.364   3.651
 1084TIP3    H1 3258   5.102   1.392   3.573
 1084TIP3    H2 3259   5.211   1.298   3.618
 1085TIP3   OH2 3260   3.687   0.241   2.797
 1085TIP3    H1 3261   3.689   0.299   2.873
 1085TIP3    H2 3262   3.602   0.258   2.757
 1086TIP3   OH2 3263   3.148   0.429   4.624
 1086TIP3    H1 3264   3.210   0.425   4.552
 1086TIP3    H2 3265   3.163   0.515   4.663
 1087TIP3   OH2 3266   3.200   4.350   3.760
 1087TIP3    H1 3267   3.119   4.390   3.729
 1087TIP3    H2 3268   3.173   4.267   3.798
 1088TIP3   OH2 3269   3.440   1.439   5.015
 1088TIP3    H1 3270   3.467   1.477   5.098
 1088TIP3    H2 3271   3.355   1.479   4.997
 1089TIP3   OH2 3272   4.236   0.643   2.462
 1089TIP3    H1 3273   4.266   0.636   2.553
 1089TIP3    H2 3274   4.286   0.576   2.415
 1090TIP3   OH2 3275   4.279   5.316   1.161
 1090TIP3    H1 3276   4.334   5.343   1.235
 1090TIP3    H2 3277   4.194   5.295   1.201
 1091TIP3   OH2 3278   5.474   0.916   3.217
 1091TIP3    H1 3279   5.476   0.825   3.246
 1091TIP3    H2 3280   5.382   0.942   3.225
 1092TIP3   OH2 3281   6.053   1.725   2.169
 1092TIP3    H1 3282   6.025   1.795   2.229
 1092TIP3    H2 3283   6.006   1.648   2.198
 1093TIP3   OH2 3284   0.061   0.544   3.493
 1093TIP3    H1 3285   0.122   0.534   3.567
 1093TIP3    H2 3286   0.042   0.637   3.491
 1094TIP3   OH2 3287   4.166   2.409   4.974
 1094TIP3    H1 3288   4.216   2.431   5.053
 1094TIP3    H2 3289   4.092   2.469   4.976
 1095TIP3   OH2 3290   1.396   4.930   3.154
 1095TIP3    H1 3291   1.379   4.853   3.100
 1095TIP3    H2 3292   1.338   4.920   3.230
 1096TIP3   OH2 3293   5.740   1.998   0.836
 1096TIP3    H1 3294   5.747   2.062   0.766
 1096TIP3    H2 3295   5.649   2.004   0.866
 1097TIP3   OH2 3296   3.205   1.714   0.893
 1097TIP3    H1 3297   3.180   1.747   0.807
 1097TIP3    H2 3298   3.155   1.766   0.956
 1098TIP3   OH2 3299   0.111   5.858   3.893
 1098TIP3    H1 3300   0.016   5.847   3.902
 1098TIP3    H2 3301   0.134   5.804   3.817
 1099TIP3   OH2 3302   1.147   0.929   4.133
 1099TIP3    H1 3303   1.230   0.960   4.169
 1099TIP3    H2 3304   1.173   0.869   4.062
 1100TIP3   OH2 3305   1.101   2.268   1.767
 1100TIP3    H1 3306   1.077   2.183   1.730
 1100TIP3    H2 3307   1.021   2.300   1.809
 1101TIP3   OH2 3308   4.552   5.154   1.927
 1101TIP3    H1 3309   4.544   5.138   1.833
 1101TIP3    H2 3310   4.633   5.204   1.936
 1102TIP3   OH2 3311   1.533   4.871   1.073
 1102TIP3    H1 3312   1.497   4.836   0.991
 1102TIP3    H2 3313   1.622   4.899   1.050
 1103TIP3   OH2 3314   3.605   3.944   1.557
 1103TIP3    H1 3315   3.577   3.887   1.629
 1103TIP3    H2 3316   3.599   3.889   1.479
 1104TIP3   OH2 3317   3.072   1.829   2.437
 1104TIP3    H1 3318   3.006   1.764   2.415
 1104TIP3    H2 3319   3.070   1.891   2.364
 1105TIP3   OH2 3320   1.300   2.493   0.448
 1105TIP3    H1 3321   1.218   2.543   0.452
 1105TIP3    H2 3322   1.359   2.540   0.508
 1106TIP3   OH2 3323   1.265   1.864   3.511
 1106TIP3    H1 3324   1.330   1.835   3.447
 1106TIP3    H2 3325   1.181   1.856   3.466
 1107TIP3   OH2 3326   5.378   5.952   2.303
 1107TIP3    H1 3327   5.327   5.874   2.321
 1107TIP3    H2 3328   5.319   6.009   2.254
 1108TIP3   OH2 3329   2.408   4.077   2.933
 1108TIP3    H1 3330   2.449   4.016   2.872
 1108TIP3    H2 3331   2.315   4.069   2.916
 1109TIP3   OH2 3332   3.530   6.012   3.525
 1109TIP3    H1 3333   3.562   6.020   3.435
 1109TIP3    H2 3334   3.456   5.952   3.519
 1110TIP3   OH2 3335   2.744   1.184   1.250
 1110TIP3    H1 3336   2.724   1.102   1.296
 1110TIP3    H2 3337   2.828   1.213   1.286
 1111TIP3   OH2 3338   0.717   0.803   4.973
 1111TIP3    H1 3339   0.625   0.776   4.972
 1111TIP3    H2 3340   0.728   0.854   4.892
 1112TIP3   OH2 3341   5.794   4.932   2.993
 1112TIP3    H1 3342   5.746   5.014   3.002
 1112TIP3    H2 3343   5.862   4.936   3.060
 1113TIP3   OH2 3344   2.090   4.655   1.058
 1113TIP3    H1 3345   2.141   4.579   1.029
 1113TIP3    H2 3346   2.001   4.622   1.067
 1114TIP3   OH2 3347   5.749   5.060   4.178
 1114TIP3    H1 3348   5.754   5.031   4.086
 1114TIP3    H2 3349   5.835   5.098   4.196
 1115TIP3   OH2 3350   6.078   5.066   1.239
 1115TIP3    H1 3351   6.086   5.014   1.159
 1115TIP3    H2 3352   6.005   5.126   1.222
 1116TIP3   OH2 3353   3.105   0.626   3.333
 1116TIP3    H1 3354   3.170   0.672   3.279
 1116TIP3    H2 3355   3.025   0.628   3.281
 1117TIP3   OH2 3356   0.039   1.231   0.664
 1117TIP3    H1 3357   0.037   1.142   0.629
 1117TIP3    H2 3358   0.054   1.219   0.758
 1118TIP3   OH2 3359   5.781   1.250   0.653
 1118TIP3    H1 3360   5.732   1.332   0.661
 1118TIP3    H2 3361   5.868   1.270   0.688
 1119TIP3   OH2 3362   1.585   0.632   3.902
 1119TIP3    H1 3363   1.563   0.565   3.966
 1119TIP3    H2 3364   1.676   0.654   3.919
 1120TIP3   OH2 3365   0.536   1.374   4.050
 1120TIP3    H1 3366   0.453   1.371   4.098
 1120TIP3    H2 3367   0.571   1.461   4.068
 1121TIP3   OH2 3368   3.599   5.660   0.225
 1121TIP3    H1 3369   3.591   5.719   0.151
 1121TIP3    H2 3370   3.618   5.717   0.300
 1122TIP3   OH2 3371   4.254   5.490   0.481
 1122TIP3    H1 3372   4.292   5.431   0.416
 1122TIP3    H2 3373   4.276   5.577   0.451
 1123TIP3   OH2 3374   1.854   0.720   4.433
 1123TIP3    H1 3375   1.897   0.663   4.370
 1123TIP3    H2 3376   1.811   0.659   4.494
 1124TIP3   OH2 3377   3.390   4.259   1.982
 1124TIP3    H1 3378   3.472   4.209   1.975
 1124TIP3    H2 3379   3.416   4.341   2.024
 1125TIP3   OH2 3380   3.329   1.201   2.663
 1125TIP3    H1 3381   3.364   1.223   2.750
 1125TIP3    H2 3382   3.298   1.285   2.628
 1126TIP3   OH2 3383   3.413   2.853   1.097
 1126TIP3    H1 3384   3.416   2.868   1.192
 1126TIP3    H2 3385   3.334   2.801   1.083
 1127TIP3   OH2 3386   5.762   4.316   2.634
 1127TIP3    H1 3387   5.711   4.294   2.712
 1127TIP3    H2 3388   5.819   4.387   2.663
 1128TIP3   OH2 3389   4.376   5.476   2.402
 1128TIP3    H1 3390   4.319   5.552   2.411
 1128TIP3    H2 3391   4.450   5.507   2.350
 1129TIP3   OH2 3392   2.736   4.855   2.979
 1129TIP3    H1 3393   2.781   4.815   2.904
 1129TIP3    H2 3394   2.654   4.887   2.942
 1130TIP3   OH2 3395   3.717   4.201   0.111
 1130TIP3    H1 3396   3.639   4.150   0.088
 1130TIP3    H2 3397   3.740   4.170   0.198
 1131TIP3   OH2 3398   3.590   2.544   0.321
 1131TIP3    H1 3399   3.527   2.571   0.388
 1131TIP3    H2 3400   3.620   2.626   0.283
 1132TIP3   OH2 3401   5.051   5.640   3.073
 1132TIP3    H1 3402   5.092   5.700   3.135
 1132TIP3    H2 3403   5.067   5.679   2.987
 1133TIP3   OH2 3404   0.166   5.942   2.754
 1133TIP3    H1 3405   0.146   5.924   2.846
 1133TIP3    H2 3406   0.158   5.858   2.710
 1134TIP3   OH2 3407   3.018   4.378   0.447
 1134TIP3    H1 3408   3.099   4.428   0.454
 1134TIP3    H2 3409   2.979   4.383   0.535
 1135TIP3   OH2 3410   3.173   5.691   3.763
 1135TIP3    H1 3411   3.084   5.693   3.729
 1135TIP3    H2 3412   3.165   5.643   3.846
 1136TIP3   OH2 3413   5.145   5.625   2.811
 1136TIP3    H1 3414   5.222   5.610   2.866
 1136TIP3    H2 3415   5.146   5.553   2.748
 1137TIP3   OH2 3416   5.746   2.361   4.071
 1137TIP3    H1 3417   5.683   2.404   4.013
 1137TIP3    H2 3418   5.698   2.347   4.153
 1138TIP3   OH2 3419   2.543   3.601   2.680
 1138TIP3    H1 3420   2.503   3.532   2.734
 1138TIP3    H2 3421   2.480   3.616   2.610
 1139TIP3   OH2 3422   4.185   0.498   3.070
 1139TIP3    H1 3423   4.172   0.489   3.164
 1139TIP3    H2 3424   4.222   0.414   3.043
 1140TIP3   OH2 3425   5.359   4.941   1.460
 1140TIP3    H1 3426   5.425   4.919   1.526
 1140TIP3    H2 3427   5.340   4.857   1.418
 1141TIP3   OH2 3428   5.435   1.579   4.636
 1141TIP3    H1 3429   5.497   1.512   4.664
 1141TIP3    H2 3430   5.490   1.656   4.619
 1142TIP3   OH2 3431   4.124   4.696   2.474
 1142TIP3    H1 3432   4.091   4.678   2.386
 1142TIP3    H2 3433   4.045   4.705   2.528
 1143TIP3   OH2 3434   0.385   0.452   1.979
 1143TIP3    H1 3435   0.319   0.478   1.913
 1143TIP3    H2 3436   0.456   0.515   1.967
 1144TIP3   OH2 3437   5.829   2.762   2.262
 1144TIP3    H1 3438   5.794   2.763   2.351
 1144TIP3    H2 3439   5.767   2.710   2.212
 1145TIP3   OH2 3440   0.483   4.238   3.251
 1145TIP3    H1 3441   0.541   4.305   3.287
 1145TIP3    H2 3442   0.473   4.174   3.322
 1146TIP3   OH2 3443   2.072   4.387   2.356
 1146TIP3    H1 3444   2.063   4.443   2.433
 1146TIP3    H2 3445   1.995   4.406   2.302
 1147TIP3   OH2 3446   0.864   0.147   0.359
 1147TIP3    H1 3447   0.845   0.126   0.268
 1147TIP3    H2 3448   0.949   0.107   0.376
 1148TIP3   OH2 3449   3.868   5.541   0.299
 1148TIP3    H1 3450   3.790   5.595   0.290
 1148TIP3    H2 3451   3.839   5.463   0.345
 1149TIP3   OH2 3452   1.689   1.417   2.591
 1149TIP3    H1 3453   1.766   1.467   2.615
 1149TIP3    H2 3454   1.649   1.467   2.519
 1150TIP3   OH2 3455   1.556   5.442   4.741
 1150TIP3    H1 3456   1.553   5.346   4.749
 1150TIP3    H2 3457   1.636   5.467   4.787
 1151TIP3   OH2 3458   4.409   4.346   4.398
 1151TIP3    H1 3459   4.367   4.305   4.323
 1151TIP3    H2 3460   4.482   4.396   4.362
 1152TIP3   OH2 3461   2.614   5.899   3.801
 1152TIP3    H1 3462   2.594   5.992   3.796
 1152TIP3    H2 3463   2.530   5.856   3.785
 1153TIP3   OH2 3464   1.626   1.153   0.409
 1153TIP3    H1 3465   1.720   1.132   0.409
 1153TIP3    H2 3466   1.613   1.204   0.490
 1154TIP3   OH2 3467   6.245   2.049   4.138
 1154TIP3    H1 3468   6.243   2.087   4.225
 1154TIP3    H2 3469   6.306   2.104   4.088
 1155TIP3   OH2 3470   5.691   0.324   1.432
 1155TIP3    H1 3471   5.661   0.395   1.375
 1155TIP3    H2 3472   5.768   0.360   1.477
 1156TIP3   OH2 3473   5.512   2.108   4.626
 1156TIP3    H1 3474   5.441   2.086   4.686
 1156TIP3    H2 3475   5.545   2.192   4.657
 1157TIP3   OH2 3476   5.342   1.107   3.872
 1157TIP3    H1 3477   5.289   1.028   3.878
 1157TIP3    H2 3478   5.399   1.103   3.949
 1158TIP3   OH2 3479   6.058   5.066   4.264
 1158TIP3    H1 3480   6.142   5.095   4.298
 1158TIP3    H2 3481   6.065   4.970   4.262
 1159TIP3   OH2 3482   4.112   3.469   2.065
 1159TIP3    H1 3483   4.091   3.559   2.040
 1159TIP3    H2 3484   4.028   3.428   2.084
 1160TIP3   OH2 3485   4.971   2.294   2.601
 1160TIP3    H1 3486   4.925   2.215   2.633
 1160TIP3    H2 3487   5.063   2.278   2.621
 1161TIP3   OH2 3488   5.709   2.030   5.031
 1161TIP3    H1 3489   5.640   2.008   4.969
 1161TIP3    H2 3490   5.786   1.985   4.997
 1162TIP3   OH2 3491   1.515   2.739   1.606
 1162TIP3    H1 3492   1.529   2.704   1.518
 1162TIP3    H2 3493   1.599   2.777   1.630
 1163TIP3   OH2 3494   2.382   1.775   3.740
 1163TIP3    H1 3495   2.320   1.837   3.702
 1163TIP3    H2 3496   2.454   1.770   3.677
 1164TIP3   OH2 3497   2.965   1.788   1.698
 1164TIP3    H1 3498   2.872   1.765   1.697
 1164TIP3    H2 3499   2.969   1.866   1.753
 1165TIP3   OH2 3500   2.271   1.324   3.071
 1165TIP3    H1 3501   2.258   1.246   3.126
 1165TIP3    H2 3502   2.303   1.289   2.988
 1166TIP3   OH2 3503   5.343   2.959   1.997
 1166TIP3    H1 3504   5.413   2.970   2.062
 1166TIP3    H2 3505   5.333   2.865   1.988
 1167TIP3   OH2 3506   2.549   1.510   4.098
 1167TIP3    H1 3507   2.604   1.455   4.041
 1167TIP3    H2 3508   2.515   1.449   4.163
 1168TIP3   OH2 3509   2.306   3.405   4.198
 1168TIP3    H1 3510   2.322   3.395   4.292
 1168TIP3    H2 3511   2.247   3.333   4.177
 1169TIP3   OH2 3512   1.165   0.635   0.662
 1169TIP3    H1 3513   1.210   0.555   0.635
 1169TIP3    H2 3514   1.108   0.657   0.588
 1170TIP3   OH2 3515   3.748   1.858   4.989
 1170TIP3    H1 3516   3.755   1.763   4.999
 1170TIP3    H2 3517   3.728   1.890   5.077
 1171TIP3   OH2 3518   2.392   1.695   0.181
 1171TIP3    H1 3519   2.481   1.670   0.157
 1171TIP3    H2 3520   2.397   1.788   0.201
 1172TIP3   OH2 3521   5.390   1.457   0.974
 1172TIP3    H1 3522   5.338   1.389   1.017
 1172TIP3    H2 3523   5.408   1.520   1.044
 1173TIP3   OH2 3524   3.188   3.241   2.932
 1173TIP3    H1 3525   3.238   3.188   2.870
 1173TIP3    H2 3526   3.097   3.226   2.906
 1174TIP3   OH2 3527   0.095   3.664   0.785
 1174TIP3    H1 3528   0.016   3.615   0.807
 1174TIP3    H2 3529   0.087   3.682   0.691
 1175TIP3   OH2 3530   4.877   3.828   2.544
 1175TIP3    H1 3531   4.902   3.740   2.516
 1175TIP3    H2 3532   4.891   3.827   2.639
 1176TIP3   OH2 3533   5.469   5.072   3.559
 1176TIP3    H1 3534   5.526   5.058   3.634
 1176TIP3    H2 3535   5.407   4.999   3.560
 1177TIP3   OH2 3536   4.843   0.945   1.508
 1177TIP3    H1 3537   4.844   0.949   1.412
 1177TIP3    H2 3538   4.911   0.882   1.531
 1178TIP3   OH2 3539   1.221   3.390   3.038
 1178TIP3    H1 3540   1.247   3.298   3.038
 1178TIP3    H2 3541   1.280   3.432   2.975
 1179TIP3   OH2 3542   0.890   3.230   3.682
 1179TIP3    H1 3543   0.838   3.304   3.651
 1179TIP3    H2 3544   0.901   3.174   3.606
 1180TIP3   OH2 3545   6.006   5.217   4.576
 1180TIP3    H1 3546   6.100   5.198   4.573
 1180TIP3    H2 3547   5.994   5.286   4.510
 1181TIP3   OH2 3548   2.887   3.878   4.485
 1181TIP3    H1 3549   2.903   3.947   4.548
 1181TIP3    H2 3550   2.792   3.877   4.473
 1182TIP3   OH2 3551   0.942   5.504   2.456
 1182TIP3    H1 3552   0.848   5.499   2.477
 1182TIP3    H2 3553   0.983   5.537   2.535
 1183TIP3   OH2 3554   2.411   0.377   3.912
 1183TIP3    H1 3555   2.329   0.419   3.938
 1183TIP3    H2 3556   2.444   0.431   3.841
 1184TIP3   OH2 3557   5.561   3.434   3.142
 1184TIP3    H1 3558   5.620   3.473   3.077
 1184TIP3    H2 3559   5.582   3.479   3.224
 1185TIP3   OH2 3560   4.263   5.117   0.055
 1185TIP3    H1 3561   4.279   5.029   0.089
 1185TIP3    H2 3562   4.335   5.169   0.092
 1186TIP3   OH2 3563   0.428   3.204   3.911
 1186TIP3    H1 3564   0.473   3.288   3.915
 1186TIP3    H2 3565   0.352   3.215   3.969
 1187TIP3   OH2 3566   6.113   4.801   2.208
 1187TIP3    H1 3567   6.178   4.871   2.201
 1187TIP3    H2 3568   6.054   4.815   2.134
 1188TIP3   OH2 3569   6.198   5.424   1.433
 1188TIP3    H1 3570   6.282   5.404   1.392
 1188TIP3    H2 3571   6.185   5.355   1.498
 1189TIP3   OH2 3572   1.311   0.990   3.339
 1189TIP3    H1 3573   1.304   1.078   3.374
 1189TIP3    H2 3574   1.334   0.936   3.415
 1190TIP3   OH2 3575   5.222   0.109   4.169
 1190TIP3    H1 3576   5.306   0.135   4.132
 1190TIP3    H2 3577   5.170   0.190   4.170
 1191TIP3   OH2 3578   4.925   1.982   4.120
 1191TIP3    H1 3579   4.904   1.975   4.213
 1191TIP3    H2 3580   5.004   1.929   4.109
 1192TIP3   OH2 3581   2.867   0.168   2.392
 1192TIP3    H1 3582   2.888   0.079   2.419
 1192TIP3    H2 3583   2.837   0.211   2.473
 1193TIP3   OH2 3584   4.328   3.364   2.281
 1193TIP3    H1 3585   4.289   3.277   2.292
 1193TIP3    H2 3586   4.279   3.403   2.209
 1194TIP3   OH2 3587   3.185   2.497   2.099
 1194TIP3    H1 3588   3.218   2.421   2.147
 1194TIP3    H2 3589   3.108   2.464   2.053
 1195TIP3   OH2 3590   6.129   2.542   3.414
 1195TIP3    H1 3591   6.100   2.469   3.360
 1195TIP3    H2 3592   6.109   2.515   3.504
 1196TIP3   OH2 3593   0.661   5.039   3.575
 1196TIP3    H1 3594   0.679   5.028   3.669
 1196TIP3    H2 3595   0.734   4.994   3.532
 1197TIP3   OH2 3596   6.344   3.193   4.934
 1197TIP3    H1 3597   6.313   3.144   4.858
 1197TIP3    H2 3598   6.351   3.283   4.903
 1198TIP3   OH2 3599   0.638   0.537   1.801
 1198TIP3    H1 3600   0.666   0.449   1.828
 1198TIP3    H2 3601   0.720   0.583   1.782
 1199TIP3   OH2 3602   5.741   1.200   1.047
 1199TIP3    H1 3603   5.755   1.270   0.983
 1199TIP3    H2 3604   5.666   1.152   1.013
 1200TIP3   OH2 3605   2.756   5.795   3.506
 1200TIP3    H1 3606   2.818   5.866   3.525
 1200TIP3    H2 3607   2.689   5.804   3.573
 1201TIP3   OH2 3608   5.118   5.116   3.652
 1201TIP3    H1 3609   5.108   5.034   3.701
 1201TIP3    H2 3610   5.167   5.174   3.710
 1202TIP3   OH2 3611   2.647   4.323   4.292
 1202TIP3    H1 3612   2.628   4.301   4.383
 1202TIP3    H2 3613   2.671   4.240   4.251
 1203TIP3   OH2 3614   5.701   2.721   0.946
 1203TIP3    H1 3615   5.763   2.785   0.981
 1203TIP3    H2 3616   5.720   2.640   0.993
 1204TIP3   OH2 3617   4.921   3.592   0.371
 1204TIP3    H1 3618   5.011   3.619   0.354
 1204TIP3    H2 3619   4.886   3.570   0.285
 1205TIP3   OH2 3620   1.947   1.635   3.703
 1205TIP3    H1 3621   1.925   1.719   3.663
 1205TIP3    H2 3622   1.990   1.657   3.785
 1206TIP3   OH2 3623   0.696   1.512   0.431
 1206TIP3    H1 3624   0.666   1.593   0.472
 1206TIP3    H2 3625   0.699   1.533   0.337
 1207TIP3   OH2 3626   2.631   4.054   3.417
 1207TIP3    H1 3627   2.568   3.999   3.464
 1207TIP3    H2 3628   2.591   4.068   3.331
 1208TIP3   OH2 3629   4.632   2.041   3.861
 1208TIP3    H1 3630   4.559   2.065   3.803
 1208TIP3    H2 3631   4.654   1.952   3.837
 1209TIP3   OH2 3632   0.118   5.128   0.481
 1209TIP3    H1 3633   0.192   5.158   0.534
 1209TIP3    H2 3634   0.109   5.195   0.413
 1210TIP3   OH2 3635   0.993   0.403   4.286
 1210TIP3    H1 3636   1.064   0.382   4.226
 1210TIP3    H2 3637   0.945   0.320   4.296
 1211TIP3   OH2 3638   3.991   4.930   2.277
 1211TIP3    H1 3639   3.999   4.842   2.241
 1211TIP3    H2 3640   3.900   4.955   2.262
 1212TIP3   OH2 3641   4.622   0.634   3.778
 1212TIP3    H1 3642   4.581   0.650   3.693
 1212TIP3    H2 3643   4.679   0.709   3.791
 1213TIP3   OH2 3644   0.220   4.332   3.378
 1213TIP3    H1 3645   0.297   4.369   3.421
 1213TIP3    H2 3646   0.255   4.290   3.299
 1214TIP3   OH2 3647   1.538   3.139   4.668
 1214TIP3    H1 3648   1.491   3.068   4.711
 1214TIP3    H2 3649   1.597   3.173   4.735
 1215TIP3   OH2 3650   4.506   5.750   0.530
 1215TIP3    H1 3651   4.511   5.656   0.549
 1215TIP3    H2 3652   4.598   5.777   0.520
 1216TIP3   OH2 3653   5.800   1.624   0.812
 1216TIP3    H1 3654   5.770   1.691   0.750
 1216TIP3    H2 3655   5.805   1.671   0.896
 1217TIP3   OH2 3656   6.220   2.136   2.495
 1217TIP3    H1 3657   6.247   2.217   2.539
 1217TIP3    H2 3658   6.252   2.145   2.406
 1218TIP3   OH2 3659   4.508   3.570   3.295
 1218TIP3    H1 3660   4.587   3.605   3.253
 1218TIP3    H2 3661   4.498   3.483   3.257
 1219TIP3   OH2 3662   3.340   4.933   1.464
 1219TIP3    H1 3663   3.273   4.865   1.456
 1219TIP3    H2 3664   3.310   4.988   1.537
 1220TIP3   OH2 3665   2.089   3.451   0.040
 1220TIP3    H1 3666   2.025   3.450  -0.031
 1220TIP3    H2 3667   2.130   3.365   0.037
 1221TIP3   OH2 3668   4.377   1.191   1.625
 1221TIP3    H1 3669   4.340   1.142   1.551
 1221TIP3    H2 3670   4.460   1.225   1.592
 1222TIP3   OH2 3671   3.337   1.294   0.591
 1222TIP3    H1 3672   3.334   1.368   0.530
 1222TIP3    H2 3673   3.257   1.303   0.643
 1223TIP3   OH2 3674   2.858   1.767   5.017
 1223TIP3    H1 3675   2.796   1.711   5.064
 1223TIP3    H2 3676   2.803   1.829   4.968
 1224TIP3   OH2 3677   4.716   1.818   5.060
 1224TIP3    H1 3678   4.664   1.779   5.131
 1224TIP3    H2 3679   4.654   1.828   4.988
 1225TIP3   OH2 3680   5.723   1.364   2.321
 1225TIP3    H1 3681   5.817   1.381   2.325
 1225TIP3    H2 3682   5.712   1.278   2.361
 1226TIP3   OH2 3683   4.812   5.655   3.259
 1226TIP3    H1 3684   4.799   5.576   3.207
 1226TIP3    H2 3685   4.864   5.713   3.204
 1227TIP3   OH2 3686   3.937   4.744   1.069
 1227TIP3    H1 3687   3.997   4.678   1.104
 1227TIP3    H2 3688   3.990   4.824   1.065
 1228TIP3   OH2 3689   3.368   0.607   4.506
 1228TIP3    H1 3690   3.289   0.654   4.480
 1228TIP3    H2 3691   3.433   0.675   4.524
 1229TIP3   OH2 3692   1.680   0.927   4.433
 1229TIP3    H1 3693   1.592   0.898   4.454
 1229TIP3    H2 3694   1.735   0.851   4.451
 1230TIP3   OH2 3695   3.035   3.568   1.358
 1230TIP3    H1 3696   3.116   3.564   1.410
 1230TIP3    H2 3697   2.965   3.564   1.424
 1231TIP3   OH2 3698   0.372   2.504   0.940
 1231TIP3    H1 3699   0.367   2.439   0.870
 1231TIP3    H2 3700   0.288   2.498   0.985
 1232TIP3   OH2 3701   1.344   4.442   5.021
 1232TIP3    H1 3702   1.404   4.371   5.002
 1232TIP3    H2 3703   1.297   4.415   5.100
 1233TIP3   OH2 3704   5.736   3.017   3.399
 1233TIP3    H1 3705   5.676   2.952   3.362
 1233TIP3    H2 3706   5.747   2.990   3.490
 1234TIP3   OH2 3707   5.205   1.188   2.082
 1234TIP3    H1 3708   5.151   1.130   2.135
 1234TIP3    H2 3709   5.281   1.135   2.057
 1235TIP3   OH2 3710   1.007   4.157   1.996
 1235TIP3    H1 3711   1.058   4.237   1.983
 1235TIP3    H2 3712   0.944   4.156   1.923
 1236TIP3   OH2 3713   2.343   2.738   0.739
 1236TIP3    H1 3714   2.322   2.786   0.819
 1236TIP3    H2 3715   2.340   2.804   0.670
 1237TIP3   OH2 3716   0.161   1.613   0.794
 1237TIP3    H1 3717   0.066   1.616   0.799
 1237TIP3    H2 3718   0.181   1.527   0.757
 1238TIP3   OH2 3719   5.194   4.211   3.215
 1238TIP3    H1 3720   5.100   4.201   3.201
 1238TIP3    H2 3721   5.212   4.158   3.293
 1239TIP3   OH2 3722   3.589   1.389   2.486
 1239TIP3    H1 3723   3.658   1.352   2.541
 1239TIP3    H2 3724   3.545   1.313   2.447
 1240TIP3   OH2 3725   2.936   1.390   2.906
 1240TIP3    H1 3726   2.973   1.309   2.871
 1240TIP3    H2 3727   2.850   1.397   2.864
 1241TIP3   OH2 3728   3.942   0.043   3.458
 1241TIP3    H1 3729   3.978   0.095   3.529
 1241TIP3    H2 3730   3.855   0.016   3.489
 1242TIP3   OH2 3731   0.195   5.491   4.757
 1242TIP3    H1 3732   0.119   5.546   4.740
 1242TIP3    H2 3733   0.269   5.552   4.759
 1243TIP3   OH2 3734   1.065   4.082   1.594
 1243TIP3    H1 3735   1.024   4.079   1.508
 1243TIP3    H2 3736   1.159   4.087   1.576
 1244TIP3   OH2 3737   2.551   1.004   2.120
 1244TIP3    H1 3738   2.501   1.062   2.176
 1244TIP3    H2 3739   2.545   1.043   2.033
 1245TIP3   OH2 3740   5.858   4.316   1.252
 1245TIP3    H1 3741   5.949   4.311   1.279
 1245TIP3    H2 3742   5.810   4.271   1.321
 1246TIP3   OH2 3743   3.686   3.643   0.115
 1246TIP3    H1 3744   3.683   3.689   0.199
 1246TIP3    H2 3745   3.660   3.709   0.051
 1247TIP3   OH2 3746   2.038   1.965   4.679
 1247TIP3    H1 3747   2.069   1.963   4.588
 1247TIP3    H2 3748   2.060   1.879   4.714
 1248TIP3   OH2 3749   1.388   1.925   2.418
 1248TIP3    H1 3750   1.397   2.011   2.459
 1248TIP3    H2 3751   1.376   1.944   2.325
 1249TIP3   OH2 3752   0.725   3.908   0.841
 1249TIP3    H1 3753   0.752   3.860   0.763
 1249TIP3    H2 3754   0.743   3.847   0.913
 1250TIP3   OH2 3755   5.865   5.004   2.529
 1250TIP3    H1 3756   5.951   4.988   2.568
 1250TIP3    H2 3757   5.811   4.932   2.560
 1251TIP3   OH2 3758   5.531   0.668   0.567
 1251TIP3    H1 3759   5.476   0.681   0.489
 1251TIP3    H2 3760   5.620   0.670   0.534
 1252TIP3   OH2 3761   2.764   0.836   2.004
 1252TIP3    H1 3762   2.857   0.858   2.003
 1252TIP3    H2 3763   2.725   0.896   2.067
 1253TIP3   OH2 3764   5.556   5.032   1.916
 1253TIP3    H1 3765   5.626   5.097   1.927
 1253TIP3    H2 3766   5.521   5.019   2.004
 1254TIP3   OH2 3767   0.822   3.733   0.632
 1254TIP3    H1 3768   0.837   3.719   0.539
 1254TIP3    H2 3769   0.908   3.728   0.672
 1255TIP3   OH2 3770   4.031   5.369   4.420
 1255TIP3    H1 3771   4.014   5.441   4.481
 1255TIP3    H2 3772   3.998   5.400   4.336
 1256TIP3   OH2 3773   4.754   1.559   4.401
 1256TIP3    H1 3774   4.721   1.488   4.345
 1256TIP3    H2 3775   4.799   1.515   4.472
 1257TIP3   OH2 3776   1.212   4.642   2.119
 1257TIP3    H1 3777   1.209   4.571   2.055
 1257TIP3    H2 3778   1.196   4.599   2.203
 1258TIP3   OH2 3779   2.481   3.571   4.699
 1258TIP3    H1 3780   2.533   3.624   4.760
 1258TIP3    H2 3781   2.425   3.518   4.755
 1259TIP3   OH2 3782   4.230   4.150   1.116
 1259TIP3    H1 3783   4.201   4.082   1.177
 1259TIP3    H2 3784   4.154   4.166   1.060
 1260TIP3   OH2 3785   5.843   3.599   4.221
 1260TIP3    H1 3786   5.850   3.606   4.126
 1260TIP3    H2 3787   5.774   3.534   4.236
 1261TIP3   OH2 3788   2.007   2.365   3.634
 1261TIP3    H1 3789   1.919   2.360   3.672
 1261TIP3    H2 3790   2.034   2.456   3.650
 1262TIP3   OH2 3791   0.056   2.247   2.678
 1262TIP3    H1 3792   0.124   2.214   2.619
 1262TIP3    H2 3793   0.103   2.277   2.755
 1263TIP3   OH2 3794   2.887   3.114   2.071
 1263TIP3    H1 3795   2.880   3.022   2.044
 1263TIP3    H2 3796   2.796   3.142   2.083
 1264TIP3   OH2 3797   1.365   1.755   2.136
 1264TIP3    H1 3798   1.390   1.748   2.043
 1264TIP3    H2 3799   1.375   1.847   2.157
 1265TIP3   OH2 3800   0.236   4.001   4.302
 1265TIP3    H1 3801   0.216   3.941   4.374
 1265TIP3    H2 3802   0.151   4.032   4.271
 1266TIP3   OH2 3803   2.312   5.859   1.201
 1266TIP3    H1 3804   2.405   5.879   1.199
 1266TIP3    H2 3805   2.289   5.862   1.294
 1267TIP3   OH2 3806   5.857   4.183   3.023
 1267TIP3    H1 3807   5.896   4.248   3.081
 1267TIP3    H2 3808   5.920   4.174   2.951
 1268TIP3   OH2 3809   4.150   2.277   2.342
 1268TIP3    H1 3810   4.120   2.190   2.367
 1268TIP3    H2 3811   4.072   2.332   2.344
 1269TIP3   OH2 3812   4.673   1.198   1.450
 1269TIP3    H1 3813   4.682   1.289   1.476
 1269TIP3    H2 3814   4.733   1.150   1.507
 1270TIP3   OH2 3815   2.548   4.451   1.528
 1270TIP3    H1 3816   2.537   4.529   1.473
 1270TIP3    H2 3817   2.458   4.421   1.543
 1271TIP3   OH2 3818   3.432   1.530   2.793
 1271TIP3    H1 3819   3.367   1.497   2.730
 1271TIP3    H2 3820   3.380   1.549   2.872
 1272TIP3   OH2 3821   3.675   4.007   2.658
 1272TIP3    H1 3822   3.711   4.095   2.661
 1272TIP3    H2 3823   3.582   4.020   2.638
 1273TIP3   OH2 3824   4.822   3.788   2.050
 1273TIP3    H1 3825   4.757   3.740   1.999
 1273TIP3    H2 3826   4.871   3.719   2.096
 1274TIP3   OH2 3827   4.868   3.497   2.013
 1274TIP3    H1 3828   4.810   3.494   1.937
 1274TIP3    H2 3829   4.861   3.411   2.052
 1275TIP3   OH2 3830   3.028   2.618   1.376
 1275TIP3    H1 3831   3.076   2.542   1.342
 1275TIP3    H2 3832   2.981   2.652   1.300
 1276TIP3   OH2 3833   1.725   3.534   4.413
 1276TIP3    H1 3834   1.681   3.450   4.399
 1276TIP3    H2 3835   1.730   3.542   4.508
 1277TIP3   OH2 3836   3.979   0.627   2.367
 1277TIP3    H1 3837   4.057   0.628   2.423
 1277TIP3    H2 3838   4.004   0.573   2.292
 1278TIP3   OH2 3839   2.880   1.548   0.137
 1278TIP3    H1 3840   2.944   1.606   0.178
 1278TIP3    H2 3841   2.897   1.462   0.175
 1279TIP3   OH2 3842   1.329   0.640   2.741
 1279TIP3    H1 3843   1.356   0.573   2.678
 1279TIP3    H2 3844   1.239   0.661   2.715
 1280TIP3   OH2 3845   4.797   4.128   5.183
 1280TIP3    H1 3846   4.887   4.144   5.153
 1280TIP3    H2 3847   4.755   4.083   5.110
 1281TIP3   OH2 3848   3.547   0.510   0.571
 1281TIP3    H1 3849   3.569   0.580   0.633
 1281TIP3    H2 3850   3.465   0.539   0.531
 1282TIP3   OH2 3851   2.950   0.804   3.518
 1282TIP3    H1 3852   2.996   0.886   3.505
 1282TIP3    H2 3853   3.003   0.739   3.472
 1283TIP3   OH2 3854   6.338   5.990   5.120
 1283TIP3    H1 3855   6.341   5.903   5.081
 1283TIP3    H2 3856   6.414   6.036   5.082
 1284TIP3   OH2 3857   3.709   1.479   3.407
 1284TIP3    H1 3858   3.685   1.501   3.497
 1284TIP3    H2 3859   3.660   1.541   3.354
 1285TIP3   OH2 3860   3.344   3.960   0.466
 1285TIP3    H1 3861   3.269   3.902   0.476
 1285TIP3    H2 3862   3.308   4.039   0.425
 1286TIP3   OH2 3863   0.536   3.417   1.462
 1286TIP3    H1 3864   0.544   3.324   1.480
 1286TIP3    H2 3865   0.557   3.426   1.369
 1287TIP3   OH2 3866   4.104   1.459   4.668
 1287TIP3    H1 3867   4.036   1.430   4.606
 1287TIP3    H2 3868   4.054   1.495   4.742
 1288TIP3   OH2 3869   4.393   0.589   1.307
 1288TIP3    H1 3870   4.309   0.562   1.344
 1288TIP3    H2 3871   4.379   0.680   1.281
 1289TIP3   OH2 3872   4.994   5.857   2.689
 1289TIP3    H1 3873   4.957   5.853   2.601
 1289TIP3    H2 3874   5.046   5.777   2.697
 1290TIP3   OH2 3875   4.196   3.734   4.465
 1290TIP3    H1 3876   4.139   3.657   4.463
 1290TIP3    H2 3877   4.137   3.807   4.484
 1291TIP3   OH2 3878   4.839   1.209   1.677
 1291TIP3    H1 3879   4.848   1.161   1.759
 1291TIP3    H2 3880   4.854   1.301   1.700
 1292TIP3   OH2 3881   5.947   0.255   4.782
 1292TIP3    H1 3882   5.884   0.256   4.710
 1292TIP3    H2 3883   5.922   0.180   4.835
 1293TIP3   OH2 3884   0.255   1.750   2.252
 1293TIP3    H1 3885   0.238   1.697   2.173
 1293TIP3    H2 3886   0.302   1.826   2.220
 1294TIP3   OH2 3887   2.324   0.432   4.655
 1294TIP3    H1 3888   2.250   0.378   4.627
 1294TIP3    H2 3889   2.324   0.506   4.594
 1295TIP3   OH2 3890   1.900   2.591   1.540
 1295TIP3    H1 3891   1.888   2.625   1.628
 1295TIP3    H2 3892   1.989   2.554   1.541
 1296TIP3   OH2 3893   5.732   3.773   1.978
 1296TIP3    H1 3894   5.665   3.718   2.020
 1296TIP3    H2 3895   5.814   3.748   2.020
 1297TIP3   OH2 3896   1.451   4.604   0.352
 1297TIP3    H1 3897   1.514   4.545   0.309
 1297TIP3    H2 3898   1.471   4.595   0.446
 1298TIP3   OH2 3899   5.529   3.224   3.966
 1298TIP3    H1 3900   5.620   3.201   3.987
 1298TIP3    H2 3901   5.499   3.275   4.042
 1299TIP3   OH2 3902   2.308   2.493   4.930
 1299TIP3    H1 3903   2.246   2.420   4.923
 1299TIP3    H2 3904   2.353   2.494   4.845
 1300TIP3   OH2 3905   3.897   1.511   3.824
 1300TIP3    H1 3906   3.902   1.480   3.914
 1300TIP3    H2 3907   3.925   1.436   3.771
 1301TIP3   OH2 3908   0.602   3.258   1.736
 1301TIP3    H1 3909   0.616   3.176   1.689
 1301TIP3    H2 3910   0.672   3.316   1.707
 1302TIP3   OH2 3911   2.340   1.971   4.841
 1302TIP3    H1 3912   2.296   1.888   4.821
 1302TIP3    H2 3913   2.366   2.006   4.756
 1303TIP3   OH2 3914   0.644   5.714   4.657
 1303TIP3    H1 3915   0.583   5.751   4.594
 1303TIP3    H2 3916   0.725   5.763   4.644
 1304TIP3   OH2 3917   3.460   4.585   3.195
 1304TIP3    H1 3918   3.406   4.637   3.253
 1304TIP3    H2 3919   3.547   4.624   3.202
 1305TIP3   OH2 3920   1.902   1.779   2.862
 1305TIP3    H1 3921   1.865   1.831   2.933
 1305TIP3    H2 3922   1.957   1.842   2.814
 1306TIP3   OH2 3923   3.731   0.091   0.899
 1306TIP3    H1 3924   3.652   0.141   0.879
 1306TIP3    H2 3925   3.801   0.156   0.895
 1307TIP3   OH2 3926   3.648   0.154   5.125
 1307TIP3    H1 3927   3.587   0.221   5.095
 1307TIP3    H2 3928   3.634   0.080   5.066
 1308TIP3   OH2 3929   0.982   1.411   0.575
 1308TIP3    H1 3930   0.909   1.467   0.600
 1308TIP3    H2 3931   0.951   1.365   0.497
 1309TIP3   OH2 3932   1.892   2.246   3.042
 1309TIP3    H1 3933   1.951   2.172   3.055
 1309TIP3    H2 3934   1.819   2.209   2.992
 1310TIP3   OH2 3935   1.922   5.363   3.385
 1310TIP3    H1 3936   1.845   5.419   3.401
 1310TIP3    H2 3937   1.992   5.405   3.434
 1311TIP3   OH2 3938   1.648   4.431   2.089
 1311TIP3    H1 3939   1.663   4.386   2.173
 1311TIP3    H2 3940   1.589   4.503   2.111
 1312TIP3   OH2 3941   2.421   2.335   1.405
 1312TIP3    H1 3942   2.478   2.408   1.381
 1312TIP3    H2 3943   2.362   2.372   1.471
 1313TIP3   OH2 3944   6.218   4.727   3.625
 1313TIP3    H1 3945   6.286   4.707   3.560
 1313TIP3    H2 3946   6.223   4.822   3.635
 1314TIP3   OH2 3947   1.932   0.375   1.949
 1314TIP3    H1 3948   2.000   0.441   1.944
 1314TIP3    H2 3949   1.860   0.410   1.897
 1315TIP3   OH2 3950   4.088   5.079   3.365
 1315TIP3    H1 3951   4.044   5.046   3.443
 1315TIP3    H2 3952   4.179   5.093   3.392
 1316TIP3   OH2 3953   0.205   2.886   1.909
 1316TIP3    H1 3954   0.257   2.933   1.844
 1316TIP3    H2 3955   0.204   2.944   1.985
 1317TIP3   OH2 3956   5.966   1.391   5.260
 1317TIP3    H1 3957   5.966   1.384   5.165
 1317TIP3    H2 3958   6.023   1.465   5.280
 1318TIP3   OH2 3959   0.063   1.081   2.107
 1318TIP3    H1 3960   0.125   1.142   2.068
 1318TIP3    H2 3961   0.117   1.019   2.156
 1319TIP3   OH2 3962   5.536   3.977   4.621
 1319TIP3    H1 3963   5.441   3.982   4.636
 1319TIP3    H2 3964   5.572   4.048   4.675
 1320TIP3   OH2 3965   1.453   2.355   0.228
 1320TIP3    H1 3966   1.397   2.400   0.290
 1320TIP3    H2 3967   1.429   2.262   0.237
 1321TIP3   OH2 3968   4.779   0.066   1.631
 1321TIP3    H1 3969   4.747   0.086   1.543
 1321TIP3    H2 3970   4.874   0.077   1.626
 1322TIP3   OH2 3971   5.844   5.489   1.088
 1322TIP3    H1 3972   5.828   5.396   1.071
 1322TIP3    H2 3973   5.759   5.523   1.115
 1323TIP3   OH2 3974   2.601   5.294   0.713
 1323TIP3    H1 3975   2.575   5.266   0.625
 1323TIP3    H2 3976   2.554   5.235   0.772
 1324TIP3   OH2 3977   6.188   4.221   4.568
 1324TIP3    H1 3978   6.159   4.150   4.511
 1324TIP3    H2 3979   6.109   4.274   4.582
 1325TIP3   OH2 3980   2.132   0.720   0.786
 1325TIP3    H1 3981   2.072   0.725   0.711
 1325TIP3    H2 3982   2.093   0.654   0.843
 1326TIP3   OH2 3983   0.335   2.272   4.079
 1326TIP3    H1 3984   0.376   2.302   3.997
 1326TIP3    H2 3985   0.322   2.352   4.130
 1327TIP3   OH2 3986   3.971   3.792   1.768
 1327TIP3    H1 3987   3.922   3.718   1.731
 1327TIP3    H2 3988   3.907   3.841   1.819
 1328TIP3   OH2 3989   4.398   5.828   3.246
 1328TIP3    H1 3990   4.370   5.855   3.333
 1328TIP3    H2 3991   4.372   5.901   3.189
 1329TIP3   OH2 3992   5.205   3.936   2.488
 1329TIP3    H1 3993   5.153   4.012   2.514
 1329TIP3    H2 3994   5.256   3.913   2.566
 1330TIP3   OH2 3995   5.467   4.987   0.339
 1330TIP3    H1 3996   5.506   5.067   0.304
 1330TIP3    H2 3997   5.462   4.927   0.265
 1331TIP3   OH2 3998   0.778   1.279   3.886
 1331TIP3    H1 3999   0.829   1.242   3.814
 1331TIP3    H2 4000   0.830   1.261   3.964
 1332TIP3   OH2 4001   1.245   2.669   0.187
 1332TIP3    H1 4002   1.334   2.692   0.161
 1332TIP3    H2 4003   1.252   2.583   0.228
 1333TIP3   OH2 4004   1.815   2.646   0.280
 1333TIP3    H1 4005   1.764   2.704   0.337
 1333TIP3    H2 4006   1.892   2.698   0.255
 1334TIP3   OH2 4007   6.001   3.901   0.596
 1334TIP3    H1 4008   6.015   3.814   0.560
 1334TIP3    H2 4009   6.083   3.948   0.579
 1335TIP3   OH2 4010   6.163   2.155   4.721
 1335TIP3    H1 4011   6.138   2.239   4.685
 1335TIP3    H2 4012   6.252   2.139   4.687
 1336TIP3   OH2 4013   6.250   3.422   3.263
 1336TIP3    H1 4014   6.239   3.474   3.342
 1336TIP3    H2 4015   6.169   3.370   3.258
 1337TIP3   OH2 4016   4.135   4.837   4.937
 1337TIP3    H1 4017   4.059   4.817   4.991
 1337TIP3    H2 4018   4.153   4.757   4.889
 1338TIP3   OH2 4019   0.164   3.533   2.569
 1338TIP3    H1 4020   0.152   3.619   2.529
 1338TIP3    H2 4021   0.091   3.525   2.631
 1339TIP3   OH2 4022   2.194   0.136   3.828
 1339TIP3    H1 4023   2.202   0.194   3.904
 1339TIP3    H2 4024   2.180   0.049   3.867
 1340TIP3   OH2 4025   3.671   4.099   3.026
 1340TIP3    H1 4026   3.641   4.183   2.993
 1340TIP3    H2 4027   3.709   4.055   2.949
 1341TIP3   OH2 4028   0.870   0.125   4.296
 1341TIP3    H1 4029   0.880   0.078   4.214
 1341TIP3    H2 4030   0.915   0.070   4.361
 1342TIP3   OH2 4031  -0.002   4.959   1.069
 1342TIP3    H1 4032  -0.064   4.950   0.997
 1342TIP3    H2 4033   0.027   4.870   1.088
 1343TIP3   OH2 4034   1.618   4.526   1.349
 1343TIP3    H1 4035   1.561   4.583   1.401
 1343TIP3    H2 4036   1.701   4.526   1.396
 1344TIP3   OH2 4037   4.063   4.321   4.159
 1344TIP3    H1 4038   4.092   4.242   4.113
 1344TIP3    H2 4039   3.996   4.358   4.102
 1345TIP3   OH2 4040   0.448   0.813   2.228
 1345TIP3    H1 4041   0.491   0.891   2.263
 1345TIP3    H2 4042   0.481   0.806   2.138
 1346TIP3   OH2 4043   5.320   5.796   0.534
 1346TIP3    H1 4044   5.235   5.801   0.578
 1346TIP3    H2 4045   5.373   5.739   0.589
 1347TIP3   OH2 4046   1.088   1.828   3.166
 1347TIP3    H1 4047   1.054   1.905   3.212
 1347TIP3    H2 4048   1.019   1.806   3.103
 1348TIP3   OH2 4049   1.460   3.479   0.566
 1348TIP3    H1 4050   1.431   3.569   0.553
 1348TIP3    H2 4051   1.504   3.480   0.651
 1349TIP3   OH2 4052   2.762   0.953   3.137
 1349TIP3    H1 4053   2.762   0.911   3.222
 1349TIP3    H2 4054   2.852   0.944   3.106
 1350TIP3   OH2 4055   1.225   4.261   4.301
 1350TIP3    H1 4056   1.320   4.263   4.287
 1350TIP3    H2 4057   1.201   4.169   4.288
 1351TIP3   OH2 4058   2.054   1.860   2.632
 1351TIP3    H1 4059   2.031   1.951   2.648
 1351TIP3    H2 4060   2.020   1.842   2.544
 1352TIP3   OH2 4061   5.228   3.143   1.223
 1352TIP3    H1 4062   5.296   3.075   1.222
 1352TIP3    H2 4063   5.238   3.185   1.308
 1353TIP3   OH2 4064   5.056   1.522   4.426
 1353TIP3    H1 4065   5.089   1.459   4.362
 1353TIP3    H2 4066   5.118   1.516   4.499
 1354TIP3   OH2 4067   5.273   5.048   5.171
 1354TIP3    H1 4068   5.361   5.061   5.136
 1354TIP3    H2 4069   5.241   5.137   5.189
 1355TIP3   OH2 4070   6.201   5.558   2.435
 1355TIP3    H1 4071   6.220   5.651   2.442
 1355TIP3    H2 4072   6.218   5.537   2.343
 1356TIP3   OH2 4073   1.444   2.509   1.740
 1356TIP3    H1 4074   1.443   2.582   1.679
 1356TIP3    H2 4075   1.495   2.541   1.814
 1357TIP3   OH2 4076   3.052   1.931   4.785
 1357TIP3    H1 4077   3.110   2.008   4.779
 1357TIP3    H2 4078   3.098   1.872   4.846
 1358TIP3   OH2 4079   6.216   3.195   2.303
 1358TIP3    H1 4080   6.243   3.109   2.271
 1358TIP3    H2 4081   6.147   3.176   2.367
 1359TIP3   OH2 4082  -0.018   0.810   4.093
 1359TIP3    H1 4083   0.058   0.782   4.145
 1359TIP3    H2 4084  -0.014   0.905   4.095
 1360TIP3   OH2 4085   5.474   2.096   0.852
 1360TIP3    H1 4086   5.397   2.058   0.894
 1360TIP3    H2 4087   5.443   2.131   0.769
 1361TIP3   OH2 4088   4.758   4.306   1.599
 1361TIP3    H1 4089   4.852   4.300   1.611
 1361TIP3    H2 4090   4.737   4.236   1.537
 1362TIP3   OH2 4091   4.039   1.602   2.604
 1362TIP3    H1 4092   4.121   1.557   2.623
 1362TIP3    H2 4093   4.030   1.669   2.672
 1363TIP3   OH2 4094   0.404   2.440   1.876
 1363TIP3    H1 4095   0.345   2.485   1.816
 1363TIP3    H2 4096   0.413   2.500   1.950
 1364TIP3   OH2 4097   4.127   1.908   5.205
 1364TIP3    H1 4098   4.170   1.986   5.238
 1364TIP3    H2 4099   4.180   1.881   5.130
 1365TIP3   OH2 4100   0.510   0.855   0.180
 1365TIP3    H1 4101   0.569   0.786   0.211
 1365TIP3    H2 4102   0.426   0.811   0.166
 1366TIP3   OH2 4103   4.515   3.976   0.697
 1366TIP3    H1 4104   4.529   3.936   0.783
 1366TIP3    H2 4105   4.522   4.070   0.712
 1367TIP3   OH2 4106   5.497   2.051   2.633
 1367TIP3    H1 4107   5.517   1.961   2.657
 1367TIP3    H2 4108   5.559   2.072   2.563
 1368TIP3   OH2 4109   4.574   4.466   4.227
 1368TIP3    H1 4110   4.649   4.522   4.246
 1368TIP3    H2 4111   4.608   4.399   4.168
 1369TIP3   OH2 4112   1.129   2.768   3.173
 1369TIP3    H1 4113   1.054   2.768   3.233
 1369TIP3    H2 4114   1.200   2.807   3.224
 1370TIP3   OH2 4115   5.523   3.331   2.163
 1370TIP3    H1 4116   5.610   3.351   2.197
 1370TIP3    H2 4117   5.513   3.237   2.178
 1371TIP3   OH2 4118   4.200   5.393   3.268
 1371TIP3    H1 4119   4.208   5.474   3.217
 1371TIP3    H2 4120   4.290   5.359   3.271
 1372TIP3   OH2 4121   1.975   1.183   0.967
 1372TIP3    H1 4122   1.994   1.271   0.935
 1372TIP3    H2 4123   2.043   1.166   1.033
 1373TIP3   OH2 4124   0.561   4.651   1.890
 1373TIP3    H1 4125   0.486   4.651   1.950
 1373TIP3    H2 4126   0.521   4.670   1.804
 1374TIP3   OH2 4127   2.634   3.615   4.226
 1374TIP3    H1 4128   2.633   3.579   4.314
 1374TIP3    H2 4129   2.633   3.539   4.168
 1375TIP3   OH2 4130   0.303   5.241   3.309
 1375TIP3    H1 4131   0.211   5.263   3.297
 1375TIP3    H2 4132   0.350   5.302   3.252
 1376TIP3   OH2 4133   0.918   1.129   0.427
 1376TIP3    H1 4134   0.949   1.042   0.401
 1376TIP3    H2 4135   0.827   1.116   0.452
 1377TIP3   OH2 4136   3.990   4.242   0.930
 1377TIP3    H1 4137   3.926   4.232   1.000
 1377TIP3    H2 4138   3.959   4.318   0.880
 1378TIP3   OH2 4139   4.558   3.263   3.985
 1378TIP3    H1 4140   4.468   3.244   4.010
 1378TIP3    H2 4141   4.562   3.242   3.891
 1379TIP3   OH2 4142   5.914   2.988   1.789
 1379TIP3    H1 4143   5.819   2.998   1.779
 1379TIP3    H2 4144   5.941   3.064   1.840
 1380TIP3   OH2 4145   2.412   4.658   0.247
 1380TIP3    H1 4146   2.411   4.658   0.151
 1380TIP3    H2 4147   2.446   4.744   0.270
 1381TIP3   OH2 4148   1.554   4.812   1.335
 1381TIP3    H1 4149   1.543   4.831   1.242
 1381TIP3    H2 4150   1.471   4.770   1.360
 1382TIP3   OH2 4151   2.756   2.988   3.371
 1382TIP3    H1 4152   2.847   3.018   3.377
 1382TIP3    H2 4153   2.716   3.045   3.306
 1383TIP3   OH2 4154   2.204   5.454   0.691
 1383TIP3    H1 4155   2.227   5.375   0.643
 1383TIP3    H2 4156   2.186   5.424   0.780
 1384TIP3   OH2 4157   6.100   4.750   0.182
 1384TIP3    H1 4158   6.148   4.792   0.111
 1384TIP3    H2 4159   6.008   4.755   0.156
 1385TIP3   OH2 4160   4.825   5.333   1.110
 1385TIP3    H1 4161   4.770   5.411   1.119
 1385TIP3    H2 4162   4.876   5.330   1.192
 1386TIP3   OH2 4163   1.461   5.564   2.914
 1386TIP3    H1 4164   1.462   5.659   2.922
 1386TIP3    H2 4165   1.438   5.547   2.822
 1387TIP3   OH2 4166   1.548   3.470   1.004
 1387TIP3    H1 4167   1.596   3.510   1.077
 1387TIP3    H2 4168   1.535   3.379   1.031
 1388TIP3   OH2 4169   2.163   2.373   0.081
 1388TIP3    H1 4170   2.128   2.378   0.170
 1388TIP3    H2 4171   2.230   2.442   0.077
 1389TIP3   OH2 4172   3.666   0.249   4.084
 1389TIP3    H1 4173   3.600   0.306   4.124
 1389TIP3    H2 4174   3.626   0.221   4.001
 1390TIP3   OH2 4175   6.303   0.052   1.509
 1390TIP3    H1 4176   6.301   0.012   1.422
 1390TIP3    H2 4177   6.393   0.085   1.517
 1391TIP3   OH2 4178   2.636   2.638   1.396
 1391TIP3    H1 4179   2.706   2.584   1.360
 1391TIP3    H2 4180   2.681   2.701   1.452
 1392TIP3   OH2 4181   0.584   4.782   5.042
 1392TIP3    H1 4182   0.555   4.852   4.983
 1392TIP3    H2 4183   0.577   4.820   5.129
 1393TIP3   OH2 4184   2.700   2.803   0.549
 1393TIP3    H1 4185   2.655   2.838   0.472
 1393TIP3    H2 4186   2.765   2.869   0.572
 1394TIP3   OH2 4187   2.727   4.919   3.960
 1394TIP3    H1 4188   2.753   4.832   3.928
 1394TIP3    H2 4189   2.747   4.917   4.054
 1395TIP3   OH2 4190   2.409   1.561   0.701
 1395TIP3    H1 4191   2.490   1.518   0.675
 1395TIP3    H2 4192   2.423   1.585   0.792
 1396TIP3   OH2 4193   0.143   4.454   0.089
 1396TIP3    H1 4194   0.101   4.529   0.130
 1396TIP3    H2 4195   0.225   4.442   0.138
 1397TIP3   OH2 4196   0.588   2.691   2.328
 1397TIP3    H1 4197   0.554   2.770   2.370
 1397TIP3    H2 4198   0.645   2.651   2.393
 1398TIP3   OH2 4199   0.280   1.953   0.443
 1398TIP3    H1 4200   0.260   1.896   0.369
 1398TIP3    H2 4201   0.289   2.040   0.405
 1399TIP3   OH2 4202   5.632   1.947   3.373
 1399TIP3    H1 4203   5.599   1.934   3.285
 1399TIP3    H2 4204   5.554   1.945   3.429
 1400TIP3   OH2 4205   5.964   3.039   3.803
 1400TIP3    H1 4206   6.002   3.109   3.751
 1400TIP3    H2 4207   5.993   2.959   3.759
 1401TIP3   OH2 4208   1.787   0.223   1.387
 1401TIP3    H1 4209   1.790   0.203   1.293
 1401TIP3    H2 4210   1.874   0.201   1.419
 1402TIP3   OH2 4211   0.263   3.827   1.559
 1402TIP3    H1 4212   0.356   3.847   1.571
 1402TIP3    H2 4213   0.262   3.758   1.493
 1403TIP3   OH2 4214   0.234   5.952   2.008
 1403TIP3    H1 4215   0.211   5.888   1.941
 1403TIP3    H2 4216   0.230   6.037   1.963
 1404TIP3   OH2 4217   2.644   5.260   3.190
 1404TIP3    H1 4218   2.647   5.166   3.209
 1404TIP3    H2 4219   2.609   5.266   3.102
 1405TIP3   OH2 4220   3.735   1.989   3.777
 1405TIP3    H1 4221   3.745   1.913   3.834
 1405TIP3    H2 4222   3.774   2.061   3.825
 1406TIP3   OH2 4223   2.245   3.179   0.766
 1406TIP3    H1 4224   2.175   3.226   0.810
 1406TIP3    H2 4225   2.209   3.091   0.750
 1407TIP3   OH2 4226   2.828   5.445   2.628
 1407TIP3    H1 4227   2.788   5.526   2.594
 1407TIP3    H2 4228   2.787   5.375   2.578
 1408TIP3   OH2 4229   5.007   0.501   0.641
 1408TIP3    H1 4230   5.041   0.574   0.693
 1408TIP3    H2 4231   4.943   0.542   0.583
 1409TIP3   OH2 4232   0.641   0.747   2.469
 1409TIP3    H1 4233   0.689   0.741   2.387
 1409TIP3    H2 4234   0.565   0.802   2.448
 1410TIP3   OH2 4235   5.883   0.363   0.943
 1410TIP3    H1 4236   5.916   0.397   0.859
 1410TIP3    H2 4237   5.818   0.427   0.971
 1411TIP3   OH2 4238   3.094   3.422   1.104
 1411TIP3    H1 4239   3.170   3.402   1.049
 1411TIP3    H2 4240   3.127   3.420   1.194
 1412TIP3   OH2 4241   4.751   4.158   0.050
 1412TIP3    H1 4242   4.793   4.213   0.117
 1412TIP3    H2 4243   4.781   4.069   0.071
 1413TIP3   OH2 4244   0.238   1.553   3.985
 1413TIP3    H1 4245   0.278   1.524   4.067
 1413TIP3    H2 4246   0.229   1.474   3.932
 1414TIP3   OH2 4247   0.722   0.262   3.385
 1414TIP3    H1 4248   0.807   0.280   3.425
 1414TIP3    H2 4249   0.743   0.214   3.305
 1415TIP3   OH2 4250   0.934   4.719   2.156
 1415TIP3    H1 4251   1.028   4.704   2.158
 1415TIP3    H2 4252   0.907   4.692   2.069
 1416TIP3   OH2 4253   5.388   0.720   1.682
 1416TIP3    H1 4254   5.433   0.801   1.661
 1416TIP3    H2 4255   5.456   0.661   1.714
 1417TIP3   OH2 4256   1.970   2.612   5.073
 1417TIP3    H1 4257   1.880   2.600   5.103
 1417TIP3    H2 4258   1.969   2.581   4.982
 1418TIP3   OH2 4259   1.417   4.891   2.290
 1418TIP3    H1 4260   1.346   4.863   2.348
 1418TIP3    H2 4261   1.453   4.809   2.255
 1419TIP3   OH2 4262   2.084   2.823   3.398
 1419TIP3    H1 4263   2.149   2.758   3.423
 1419TIP3    H2 4264   1.999   2.781   3.416
 1420TIP3   OH2 4265   2.659   3.500   3.482
 1420TIP3    H1 4266   2.667   3.569   3.549
 1420TIP3    H2 4267   2.706   3.426   3.518
 1421TIP3   OH2 4268   0.324   2.475   1.404
 1421TIP3    H1 4269   0.255   2.415   1.375
 1421TIP3    H2 4270   0.404   2.441   1.364
 1422TIP3   OH2 4271   0.012   0.439   2.255
 1422TIP3    H1 4272  -0.005   0.443   2.161
 1422TIP3    H2 4273   0.104   0.462   2.264
 1423TIP3   OH2 4274   5.657   1.188   0.412
 1423TIP3    H1 4275   5.689   1.101   0.390
 1423TIP3    H2 4276   5.682   1.201   0.503
 1424TIP3   OH2 4277   4.502   3.851   3.318
 1424TIP3    H1 4278   4.441   3.873   3.388
 1424TIP3    H2 4279   4.473   3.765   3.287
 1425TIP3   OH2 4280   3.068   4.864   1.396
 1425TIP3    H1 4281   3.054   4.959   1.396
 1425TIP3    H2 4282   3.017   4.832   1.470
 1426TIP3   OH2 4283   2.842   2.770   1.547
 1426TIP3    H1 4284   2.931   2.773   1.509
 1426TIP3    H2 4285   2.821   2.860   1.568
 1427TIP3   OH2 4286   4.276   2.534   2.856
 1427TIP3    H1 4287   4.202   2.504   2.803
 1427TIP3    H2 4288   4.342   2.466   2.847
 1428TIP3   OH2 4289   5.520   0.704   3.686
 1428TIP3    H1 4290   5.491   0.771   3.624
 1428TIP3    H2 4291   5.476   0.624   3.658
 1429TIP3   OH2 4292   1.027   2.253   2.518
 1429TIP3    H1 4293   1.089   2.274   2.589
 1429TIP3    H2 4294   1.000   2.163   2.536
 1430TIP3   OH2 4295   3.903   1.853   3.541
 1430TIP3    H1 4296   3.846   1.911   3.591
 1430TIP3    H2 4297   3.936   1.791   3.605
 1431TIP3   OH2 4298   1.389   2.024   2.159
 1431TIP3    H1 4299   1.448   2.046   2.087
 1431TIP3    H2 4300   1.309   2.072   2.139
 1432TIP3   OH2 4301   1.426   3.840   4.226
 1432TIP3    H1 4302   1.360   3.776   4.252
 1432TIP3    H2 4303   1.509   3.795   4.240
 1433TIP3   OH2 4304   2.367   4.760   1.953
 1433TIP3    H1 4305   2.422   4.725   2.023
 1433TIP3    H2 4306   2.413   4.737   1.872
 1434TIP3   OH2 4307   0.081   1.165   4.749
 1434TIP3    H1 4308   0.168   1.126   4.740
 1434TIP3    H2 4309   0.098   1.255   4.775
 1435TIP3   OH2 4310   4.318   4.091   3.781
 1435TIP3    H1 4311   4.348   4.022   3.840
 1435TIP3    H2 4312   4.224   4.097   3.798
 1436TIP3   OH2 4313   2.207   5.110   0.458
 1436TIP3    H1 4314   2.234   5.144   0.543
 1436TIP3    H2 4315   2.259   5.159   0.395
 1437TIP3   OH2 4316   2.931   2.594   3.181
 1437TIP3    H1 4317   2.873   2.626   3.249
 1437TIP3    H2 4318   2.929   2.498   3.191
 1438TIP3   OH2 4319   3.792   2.508   1.551
 1438TIP3    H1 4320   3.826   2.430   1.507
 1438TIP3    H2 4321   3.698   2.496   1.553
 1439TIP3   OH2 4322   4.459   4.440   3.852
 1439TIP3    H1 4323   4.466   4.530   3.883
 1439TIP3    H2 4324   4.366   4.419   3.859
 1440TIP3   OH2 4325   6.122   4.008   4.390
 1440TIP3    H1 4326   6.083   4.051   4.314
 1440TIP3    H2 4327   6.191   3.954   4.354
 1441TIP3   OH2 4328   0.591   3.355   2.472
 1441TIP3    H1 4329   0.567   3.313   2.555
 1441TIP3    H2 4330   0.645   3.430   2.497
 1442TIP3   OH2 4331   4.308   5.751   4.602
 1442TIP3    H1 4332   4.221   5.749   4.642
 1442TIP3    H2 4333   4.292   5.744   4.508
 1443TIP3   OH2 4334   4.327   4.749   1.482
 1443TIP3    H1 4335   4.273   4.706   1.415
 1443TIP3    H2 4336   4.393   4.796   1.432
 1444TIP3   OH2 4337   5.650   3.120   2.748
 1444TIP3    H1 4338   5.663   3.212   2.726
 1444TIP3    H2 4339   5.620   3.080   2.666
 1445TIP3   OH2 4340   2.423   2.217   3.672
 1445TIP3    H1 4341   2.431   2.245   3.581
 1445TIP3    H2 4342   2.374   2.287   3.715
 1446TIP3   OH2 4343   0.499   0.202   2.347
 1446TIP3    H1 4344   0.587   0.172   2.322
 1446TIP3    H2 4345   0.446   0.122   2.347
 1447TIP3   OH2 4346   3.231   3.500   4.812
 1447TIP3    H1 4347   3.163   3.549   4.859
 1447TIP3    H2 4348   3.283   3.567   4.769
 1448TIP3   OH2 4349   4.783   3.140   0.390
 1448TIP3    H1 4350   4.875   3.121   0.371
 1448TIP3    H2 4351   4.735   3.068   0.348
 1449TIP3   OH2 4352   6.273   4.771   2.778
 1449TIP3    H1 4353   6.349   4.734   2.824
 1449TIP3    H2 4354   6.212   4.795   2.847
 1450TIP3   OH2 4355   3.107   0.276   3.319
 1450TIP3    H1 4356   3.079   0.352   3.371
 1450TIP3    H2 4357   3.071   0.201   3.365
 1451TIP3   OH2 4358   0.848   1.115   1.287
 1451TIP3    H1 4359   0.897   1.141   1.365
 1451TIP3    H2 4360   0.903   1.049   1.244
 1452TIP3   OH2 4361   4.880   4.148   1.398
 1452TIP3    H1 4362   4.970   4.176   1.417
 1452TIP3    H2 4363   4.886   4.052   1.394
 1453TIP3   OH2 4364   2.045   2.141   1.383
 1453TIP3    H1 4365   1.974   2.199   1.357
 1453TIP3    H2 4366   2.002   2.071   1.432
 1454TIP3   OH2 4367   5.854   0.301   2.379
 1454TIP3    H1 4368   5.763   0.276   2.388
 1454TIP3    H2 4369   5.895   0.227   2.334
 1455TIP3   OH2 4370   2.188   2.259   4.981
 1455TIP3    H1 4371   2.142   2.203   4.919
 1455TIP3    H2 4372   2.175   2.216   5.066
 1456TIP3   OH2 4373   5.522   3.634   1.997
 1456TIP3    H1 4374   5.487   3.681   1.921
 1456TIP3    H2 4375   5.523   3.542   1.970
 1457TIP3   OH2 4376   1.366   3.969   2.648
 1457TIP3    H1 4377   1.400   3.880   2.649
 1457TIP3    H2 4378   1.331   3.980   2.560
 1458TIP3   OH2 4379   2.009   4.147   4.330
 1458TIP3    H1 4380   1.942   4.151   4.398
 1458TIP3    H2 4381   2.092   4.139   4.378
 1459TIP3   OH2 4382   0.725   3.464   0.904
 1459TIP3    H1 4383   0.752   3.379   0.941
 1459TIP3    H2 4384   0.795   3.524   0.931
 1460TIP3   OH2 4385   3.187   5.169   4.576
 1460TIP3    H1 4386   3.107   5.205   4.613
 1460TIP3    H2 4387   3.215   5.102   4.638
 1461TIP3   OH2 4388   1.939   2.057   4.269
 1461TIP3    H1 4389   1.940   2.000   4.192
 1461TIP3    H2 4390   1.887   2.010   4.334
 1462TIP3   OH2 4391   0.105   0.886   4.448
 1462TIP3    H1 4392   0.013   0.866   4.469
 1462TIP3    H2 4393   0.109   0.982   4.448
 1463TIP3   OH2 4394   5.669   4.198   2.071
 1463TIP3    H1 4395   5.741   4.137   2.089
 1463TIP3    H2 4396   5.642   4.229   2.158
 1464TIP3   OH2 4397   3.044   2.007   5.141
 1464TIP3    H1 4398   3.094   1.974   5.066
 1464TIP3    H2 4399   3.000   1.929   5.175
 1465TIP3   OH2 4400   0.079   5.637   0.466
 1465TIP3    H1 4401   0.161   5.635   0.418
 1465TIP3    H2 4402   0.105   5.654   0.557
 1466TIP3   OH2 4403   4.311   5.878   0.715
 1466TIP3    H1 4404   4.400   5.845   0.704
 1466TIP3    H2 4405   4.262   5.803   0.747
 1467TIP3   OH2 4406   0.252   0.763   4.188
 1467TIP3    H1 4407   0.254   0.785   4.281
 1467TIP3    H2 4408   0.243   0.668   4.185
 1468TIP3   OH2 4409   0.059   4.248   1.934
 1468TIP3    H1 4410   0.149   4.280   1.932
 1468TIP3    H2 4411   0.010   4.312   1.882
 1469TIP3   OH2 4412   3.774   2.876   3.714
 1469TIP3    H1 4413   3.753   2.930   3.638
 1469TIP3    H2 4414   3.690   2.843   3.744
 1470TIP3   OH2 4415   3.527   2.192   1.982
 1470TIP3    H1 4416   3.611   2.152   1.959
 1470TIP3    H2 4417   3.474   2.119   2.013
 1471TIP3   OH2 4418   2.778   5.671   4.674
 1471TIP3    H1 4419   2.799   5.764   4.676
 1471TIP3    H2 4420   2.698   5.666   4.622
 1472TIP3   OH2 4421   1.727   3.655   1.145
 1472TIP3    H1 4422   1.746   3.713   1.072
 1472TIP3    H2 4423   1.702   3.713   1.217
 1473TIP3   OH2 4424   3.335   1.446   3.757
 1473TIP3    H1 4425   3.387   1.502   3.700
 1473TIP3    H2 4426   3.273   1.403   3.698
 1474TIP3   OH2 4427   1.348   3.012   0.965
 1474TIP3    H1 4428   1.299   2.944   1.011
 1474TIP3    H2 4429   1.299   3.025   0.883
 1475TIP3   OH2 4430   0.303   3.250   0.762
 1475TIP3    H1 4431   0.335   3.328   0.716
 1475TIP3    H2 4432   0.241   3.285   0.827
 1476TIP3   OH2 4433   0.971   3.291   1.189
 1476TIP3    H1 4434   0.975   3.374   1.237
 1476TIP3    H2 4435   1.056   3.250   1.205
 1477TIP3   OH2 4436   5.587   1.890   3.868
 1477TIP3    H1 4437   5.591   1.799   3.837
 1477TIP3    H2 4438   5.593   1.942   3.788
 1478TIP3   OH2 4439   2.751   3.674   3.656
 1478TIP3    H1 4440   2.846   3.673   3.662
 1478TIP3    H2 4441   2.722   3.719   3.736
 1479TIP3   OH2 4442   2.364   1.072   4.627
 1479TIP3    H1 4443   2.340   1.073   4.720
 1479TIP3    H2 4444   2.284   1.046   4.582
 1480TIP3   OH2 4445   1.933   3.681   3.070
 1480TIP3    H1 4446   2.000   3.618   3.045
 1480TIP3    H2 4447   1.862   3.666   3.007
 1481TIP3   OH2 4448   0.677   4.593   0.059
 1481TIP3    H1 4449   0.750   4.654   0.054
 1481TIP3    H2 4450   0.605   4.637   0.014
 1482TIP3   OH2 4451   4.726   1.706   4.168
 1482TIP3    H1 4452   4.811   1.739   4.139
 1482TIP3    H2 4453   4.743   1.671   4.256
 1483TIP3   OH2 4454   4.988   4.171   1.771
 1483TIP3    H1 4455   4.927   4.114   1.818
 1483TIP3    H2 4456   5.068   4.170   1.824
 1484TIP3   OH2 4457   4.546   1.384   2.940
 1484TIP3    H1 4458   4.623   1.411   2.991
 1484TIP3    H2 4459   4.538   1.452   2.873
 1485TIP3   OH2 4460   1.223   0.360   0.983
 1485TIP3    H1 4461   1.258   0.323   1.064
 1485TIP3    H2 4462   1.298   0.398   0.938
 1486TIP3   OH2 4463   4.049   5.249   0.842
 1486TIP3    H1 4464   4.003   5.259   0.759
 1486TIP3    H2 4465   3.999   5.301   0.904
 1487TIP3   OH2 4466   3.954   2.647   0.803
 1487TIP3    H1 4467   3.974   2.719   0.862
 1487TIP3    H2 4468   3.903   2.586   0.856
 1488TIP3   OH2 4469   3.364   5.791   4.545
 1488TIP3    H1 4470   3.360   5.698   4.569
 1488TIP3    H2 4471   3.427   5.794   4.473
 1489TIP3   OH2 4472   4.293   0.618   2.736
 1489TIP3    H1 4473   4.279   0.663   2.819
 1489TIP3    H2 4474   4.230   0.546   2.737
 1490TIP3   OH2 4475   4.431   2.236   1.074
 1490TIP3    H1 4476   4.505   2.210   1.020
 1490TIP3    H2 4477   4.425   2.167   1.140
 1491TIP3   OH2 4478   0.979   1.892   0.342
 1491TIP3    H1 4479   1.061   1.918   0.300
 1491TIP3    H2 4480   0.982   1.796   0.343
 1492TIP3   OH2 4481   3.561   2.545   2.336
 1492TIP3    H1 4482   3.611   2.627   2.332
 1492TIP3    H2 4483   3.560   2.522   2.429
 1493TIP3   OH2 4484   5.160   0.264   2.236
 1493TIP3    H1 4485   5.204   0.218   2.164
 1493TIP3    H2 4486   5.112   0.334   2.194
 1494TIP3   OH2 4487   1.767   4.593   4.902
 1494TIP3    H1 4488   1.713   4.645   4.961
 1494TIP3    H2 4489   1.704   4.538   4.855
 1495TIP3   OH2 4490   5.593   4.942   1.658
 1495TIP3    H1 4491   5.569   4.980   1.742
 1495TIP3    H2 4492   5.626   4.854   1.679
 1496TIP3   OH2 4493   3.416   2.565   0.537
 1496TIP3    H1 4494   3.475   2.578   0.611
 1496TIP3    H2 4495   3.367   2.487   0.559
 1497TIP3   OH2 4496   4.694   4.208   3.074
 1497TIP3    H1 4497   4.779   4.163   3.063
 1497TIP3    H2 4498   4.629   4.142   3.049
 1498TIP3   OH2 4499   3.163   5.627   2.977
 1498TIP3    H1 4500   3.153   5.580   2.894
 1498TIP3    H2 4501   3.086   5.683   2.982
 1499TIP3   OH2 4502   1.913   5.490   1.915
 1499TIP3    H1 4503   1.831   5.454   1.882
 1499TIP3    H2 4504   1.899   5.500   2.009
 1500TIP3   OH2 4505   3.770   5.140   1.040
 1500TIP3    H1 4506   3.760   5.230   1.072
 1500TIP3    H2 4507   3.739   5.142   0.950
 1501TIP3   OH2 4508   3.174   0.012   2.900
 1501TIP3    H1 4509   3.254   0.061   2.881
 1501TIP3    H2 4510   3.168   0.011   2.995
 1502TIP3   OH2 4511   3.676   5.284   4.673
 1502TIP3    H1 4512   3.731   5.245   4.605
 1502TIP3    H2 4513   3.591   5.298   4.629
 1503TIP3   OH2 4514   5.809   5.890   1.590
 1503TIP3    H1 4515   5.835   5.979   1.615
 1503TIP3    H2 4516   5.715   5.886   1.610
 1504TIP3   OH2 4517   1.611   5.366   2.273
 1504TIP3    H1 4518   1.516   5.352   2.265
 1504TIP3    H2 4519   1.650   5.283   2.244
 1505TIP3   OH2 4520   1.146   3.167   4.854
 1505TIP3    H1 4521   1.105   3.138   4.935
 1505TIP3    H2 4522   1.119   3.103   4.789
 1506TIP3   OH2 4523   3.273   4.470   3.458
 1506TIP3    H1 4524   3.190   4.512   3.434
 1506TIP3    H2 4525   3.302   4.426   3.378
 1507TIP3   OH2 4526   5.017   5.525   0.893
 1507TIP3    H1 4527   4.930   5.507   0.856
 1507TIP3    H2 4528   5.017   5.478   0.977
 1508TIP3   OH2 4529   5.888   3.294   4.579
 1508TIP3    H1 4530   5.972   3.340   4.573
 1508TIP3    H2 4531   5.900   3.214   4.529
 1509TIP3   OH2 4532   5.977   2.121   3.804
 1509TIP3    H1 4533   5.910   2.132   3.737
 1509TIP3    H2 4534   6.029   2.202   3.800
 1510TIP3   OH2 4535   1.234   3.256   1.075
 1510TIP3    H1 4536   1.263   3.167   1.057
 1510TIP3    H2 4537   1.215   3.294   0.989
 1511TIP3   OH2 4538   4.796   1.670   2.799
 1511TIP3    H1 4539   4.853   1.728   2.850
 1511TIP3    H2 4540   4.712   1.672   2.845
 1512TIP3   OH2 4541   1.633   5.929   4.958
 1512TIP3    H1 4542   1.709   5.951   5.012
 1512TIP3    H2 4543   1.660   5.951   4.868
 1513TIP3   OH2 4544   5.814   5.019   0.433
 1513TIP3    H1 4545   5.880   5.033   0.501
 1513TIP3    H2 4546   5.775   4.934   0.455
 1514TIP3   OH2 4547   4.305   1.334   4.786
 1514TIP3    H1 4548   4.226   1.346   4.733
 1514TIP3    H2 4549   4.367   1.291   4.727
 1515TIP3   OH2 4550   1.006   1.958   2.035
 1515TIP3    H1 4551   0.913   1.976   2.051
 1515TIP3    H2 4552   1.011   1.862   2.028
 1516TIP3   OH2 4553   3.758   4.606   2.369
 1516TIP3    H1 4554   3.787   4.554   2.294
 1516TIP3    H2 4555   3.838   4.633   2.414
 1517TIP3   OH2 4556   1.889  -0.032   2.866
 1517TIP3    H1 4557   1.793  -0.025   2.862
 1517TIP3    H2 4558   1.918   0.053   2.899
 1518TIP3   OH2 4559   1.053   4.026   2.251
 1518TIP3    H1 4560   1.144   3.998   2.262
 1518TIP3    H2 4561   1.050   4.065   2.163
 1519TIP3   OH2 4562   4.383   4.757   3.873
 1519TIP3    H1 4563   4.458   4.767   3.932
 1519TIP3    H2 4564   4.421   4.762   3.785
 1520TIP3   OH2 4565   6.284   0.621   4.865
 1520TIP3    H1 4566   6.325   0.548   4.819
 1520TIP3    H2 4567   6.344   0.640   4.937
 1521TIP3   OH2 4568   5.428   2.661   0.560
 1521TIP3    H1 4569   5.415   2.704   0.476
 1521TIP3    H2 4570   5.341   2.626   0.582
 1522TIP3   OH2 4571   0.819   0.481   1.365
 1522TIP3    H1 4572   0.901   0.432   1.370
 1522TIP3    H2 4573   0.847   0.570   1.342
 1523TIP3   OH2 4574   4.260   2.704   1.715
 1523TIP3    H1 4575   4.257   2.636   1.782
 1523TIP3    H2 4576   4.306   2.777   1.757
 1524TIP3   OH2 4577   2.620   4.646   0.493
 1524TIP3    H1 4578   2.550   4.584   0.470
 1524TIP3    H2 4579   2.698   4.592   0.503
 1525TIP3   OH2 4580   1.568   2.586   4.908
 1525TIP3    H1 4581   1.579   2.494   4.885
 1525TIP3    H2 4582   1.611   2.594   4.993
 1526TIP3   OH2 4583   4.036   2.552   3.090
 1526TIP3    H1 4584   3.942   2.559   3.104
 1526TIP3    H2 4585   4.056   2.618   3.023
 1527TIP3   OH2 4586   2.691   0.864   3.407
 1527TIP3    H1 4587   2.782   0.852   3.432
 1527TIP3    H2 4588   2.660   0.936   3.462
 1528TIP3   OH2 4589   3.044   4.569   1.620
 1528TIP3    H1 4590   3.008   4.535   1.537
 1528TIP3    H2 4591   3.018   4.661   1.621
 1529TIP3   OH2 4592   0.996   0.823   2.926
 1529TIP3    H1 4593   0.910   0.864   2.929
 1529TIP3    H2 4594   1.007   0.783   3.012
 1530TIP3   OH2 4595   2.836   4.918   5.050
 1530TIP3    H1 4596   2.831   4.824   5.065
 1530TIP3    H2 4597   2.923   4.932   5.015
 1531TIP3   OH2 4598   0.278   3.257   3.629
 1531TIP3    H1 4599   0.315   3.263   3.717
 1531TIP3    H2 4600   0.191   3.219   3.643
 1532TIP3   OH2 4601   4.001   3.127   2.820
 1532TIP3    H1 4602   3.937   3.084   2.764
 1532TIP3    H2 4603   4.019   3.064   2.889
 1533TIP3   OH2 4604   4.729   0.375   3.287
 1533TIP3    H1 4605   4.649   0.426   3.299
 1533TIP3    H2 4606   4.757   0.353   3.376
 1534TIP3   OH2 4607   3.092   4.681   3.002
 1534TIP3    H1 4608   3.154   4.611   3.023
 1534TIP3    H2 4609   3.038   4.644   2.932
 1535TIP3   OH2 4610   6.157   1.137   4.369
 1535TIP3    H1 4611   6.215   1.213   4.381
 1535TIP3    H2 4612   6.147   1.100   4.457
 1536TIP3   OH2 4613   1.988   2.205   4.823
 1536TIP3    H1 4614   2.019   2.132   4.769
 1536TIP3    H2 4615   1.896   2.215   4.801
 1537TIP3   OH2 4616   3.493   1.640   3.395
 1537TIP3    H1 4617   3.412   1.588   3.390
 1537TIP3    H2 4618   3.478   1.699   3.468
 1538TIP3   OH2 4619   5.354   3.314   5.160
 1538TIP3    H1 4620   5.268   3.292   5.126
 1538TIP3    H2 4621   5.403   3.232   5.157
 1539TIP3   OH2 4622   4.820   4.742   2.889
 1539TIP3    H1 4623   4.907   4.774   2.867
 1539TIP3    H2 4624   4.770   4.749   2.807
 1540TIP3   OH2 4625   4.796  -0.047   2.245
 1540TIP3    H1 4626   4.743  -0.015   2.318
 1540TIP3    H2 4627   4.777   0.014   2.173
 1541TIP3   OH2 4628   2.834   3.443   4.639
 1541TIP3    H1 4629   2.768   3.442   4.570
 1541TIP3    H2 4630   2.906   3.390   4.605
 1542TIP3   OH2 4631   1.754   5.469   2.878
 1542TIP3    H1 4632   1.688   5.536   2.891
 1542TIP3    H2 4633   1.706   5.395   2.841
 1543TIP3   OH2 4634   4.852   5.035   1.073
 1543TIP3    H1 4635   4.823   5.125   1.059
 1543TIP3    H2 4636   4.832   5.019   1.166
 1544TIP3   OH2 4637   4.562   3.141   3.736
 1544TIP3    H1 4638   4.587   3.049   3.744
 1544TIP3    H2 4639   4.578   3.161   3.643
 1545TIP3   OH2 4640   0.470   4.562   4.624
 1545TIP3    H1 4641   0.565   4.565   4.634
 1545TIP3    H2 4642   0.443   4.487   4.677
 1546TIP3   OH2 4643   3.774   3.941   3.985
 1546TIP3    H1 4644   3.751   4.006   3.918
 1546TIP3    H2 4645   3.689   3.914   4.021
 1547TIP3   OH2 4646   2.618   2.974   1.883
 1547TIP3    H1 4647   2.562   2.903   1.915
 1547TIP3    H2 4648   2.606   3.045   1.947
 1548TIP3   OH2 4649   2.890   3.537   1.590
 1548TIP3    H1 4650   2.823   3.480   1.628
 1548TIP3    H2 4651   2.860   3.626   1.610
 1549TIP3   OH2 4652   6.185   0.741   1.955
 1549TIP3    H1 4653   6.197   0.790   2.036
 1549TIP3    H2 4654   6.247   0.781   1.894
 1550TIP3   OH2 4655   1.363   5.471   1.838
 1550TIP3    H1 4656   1.330   5.391   1.879
 1550TIP3    H2 4657   1.286   5.528   1.832
 1551TIP3   OH2 4658   6.222   3.427   4.496
 1551TIP3    H1 4659   6.292   3.493   4.488
 1551TIP3    H2 4660   6.201   3.426   4.589
 1552TIP3   OH2 4661   3.350   5.666   3.200
 1552TIP3    H1 4662   3.304   5.663   3.116
 1552TIP3    H2 4663   3.405   5.745   3.193
 1553TIP3   OH2 4664   4.647   0.531   2.927
 1553TIP3    H1 4665   4.700   0.458   2.961
 1553TIP3    H2 4666   4.590   0.491   2.862
 1554TIP3   OH2 4667   5.986   4.228   0.897
 1554TIP3    H1 4668   6.076   4.248   0.921
 1554TIP3    H2 4669   5.940   4.312   0.905
 1555TIP3   OH2 4670   0.845   2.237   4.244
 1555TIP3    H1 4671   0.909   2.300   4.277
 1555TIP3    H2 4672   0.770   2.247   4.302
 1556TIP3   OH2 4673   0.484   2.145   1.387
 1556TIP3    H1 4674   0.436   2.149   1.304
 1556TIP3    H2 4675   0.428   2.094   1.445
 1557TIP3   OH2 4676   2.744   4.063   2.746
 1557TIP3    H1 4677   2.688   3.990   2.772
 1557TIP3    H2 4678   2.684   4.128   2.711
 1558TIP3   OH2 4679   2.276   1.042   4.064
 1558TIP3    H1 4680   2.274   0.987   3.985
 1558TIP3    H2 4681   2.275   0.980   4.136
 1559TIP3   OH2 4682   2.999   0.501   5.115
 1559TIP3    H1 4683   3.030   0.488   5.025
 1559TIP3    H2 4684   2.948   0.423   5.134
 1560TIP3   OH2 4685   5.336   2.403   4.169
 1560TIP3    H1 4686   5.400   2.396   4.098
 1560TIP3    H2 4687   5.285   2.322   4.164
 1561TIP3   OH2 4688   1.323   3.023   1.434
 1561TIP3    H1 4689   1.359   3.022   1.523
 1561TIP3    H2 4690   1.383   3.079   1.385
 1562TIP3   OH2 4691   3.352   0.219   4.339
 1562TIP3    H1 4692   3.318   0.164   4.409
 1562TIP3    H2 4693   3.297   0.200   4.264
 1563TIP3   OH2 4694   5.096   0.990   1.844
 1563TIP3    H1 4695   5.041   1.065   1.868
 1563TIP3    H2 4696   5.182   1.029   1.828
 1564TIP3   OH2 4697   4.183   5.282   2.359
 1564TIP3    H1 4698   4.234   5.204   2.336
 1564TIP3    H2 4699   4.248   5.342   2.396
 1565TIP3   OH2 4700   1.757   4.732   1.942
 1565TIP3    H1 4701   1.704   4.685   2.006
 1565TIP3    H2 4702   1.693   4.780   1.888
 1566TIP3   OH2 4703   2.656   5.653   1.690
 1566TIP3    H1 4704   2.743   5.688   1.714
 1566TIP3    H2 4705   2.644   5.578   1.748
 1567TIP3   OH2 4706   4.501   3.068   5.143
 1567TIP3    H1 4707   4.518   3.060   5.237
 1567TIP3    H2 4708   4.436   3.138   5.136
 1568TIP3   OH2 4709   3.887   1.701   3.326
 1568TIP3    H1 4710   3.903   1.752   3.405
 1568TIP3    H2 4711   3.833   1.628   3.355
 1569TIP3   OH2 4712   2.606   0.746   5.013
 1569TIP3    H1 4713   2.515   0.735   5.038
 1569TIP3    H2 4714   2.656   0.721   5.091
 1570TIP3   OH2 4715   5.646   3.636   0.110
 1570TIP3    H1 4716   5.557   3.608   0.091
 1570TIP3    H2 4717   5.697   3.607   0.034
 1571TIP3   OH2 4718   3.811   3.008   0.121
 1571TIP3    H1 4719   3.897   3.048   0.131
 1571TIP3    H2 4720   3.813   2.967   0.034
 1572TIP3   OH2 4721   3.795   4.975   1.591
 1572TIP3    H1 4722   3.801   4.924   1.510
 1572TIP3    H2 4723   3.873   4.951   1.640
 1573TIP3   OH2 4724   4.749   5.524   1.683
 1573TIP3    H1 4725   4.728   5.617   1.691
 1573TIP3    H2 4726   4.681   5.480   1.734
 1574TIP3   OH2 4727   5.076  -0.022   4.379
 1574TIP3    H1 4728   5.056  -0.103   4.332
 1574TIP3    H2 4729   5.110   0.037   4.311
 1575TIP3   OH2 4730   0.083   2.203   2.286
 1575TIP3    H1 4731   0.079   2.298   2.279
 1575TIP3    H2 4732   0.153   2.177   2.227
 1576TIP3   OH2 4733   4.111   5.341   0.099
 1576TIP3    H1 4734   4.159   5.259   0.096
 1576TIP3    H2 4735   4.020   5.316   0.079
 1577TIP3   OH2 4736   3.419   4.628   1.338
 1577TIP3    H1 4737   3.352   4.565   1.364
 1577TIP3    H2 4738   3.469   4.645   1.418
 1578TIP3   OH2 4739   0.444   4.898   4.152
 1578TIP3    H1 4740   0.477   4.808   4.154
 1578TIP3    H2 4741   0.350   4.890   4.165
 1579TIP3   OH2 4742   5.685   3.410   2.691
 1579TIP3    H1 4743   5.623   3.457   2.636
 1579TIP3    H2 4744   5.767   3.412   2.643
 1580TIP3   OH2 4745   2.607   1.057   4.525
 1580TIP3    H1 4746   2.615   0.970   4.484
 1580TIP3    H2 4747   2.518   1.059   4.559
 1581TIP3   OH2 4748   5.366   1.548   1.578
 1581TIP3    H1 4749   5.358   1.616   1.644
 1581TIP3    H2 4750   5.342   1.592   1.496
 1582TIP3   OH2 4751   1.950   1.750   2.393
 1582TIP3    H1 4752   1.875   1.789   2.348
 1582TIP3    H2 4753   2.026   1.776   2.341
 1583TIP3   OH2 4754   5.319   2.718   1.505
 1583TIP3    H1 4755   5.387   2.714   1.438
 1583TIP3    H2 4756   5.246   2.668   1.468
 1584TIP3   OH2 4757   5.679   0.728   4.152
 1584TIP3    H1 4758   5.687   0.666   4.079
 1584TIP3    H2 4759   5.612   0.690   4.208
 1585TIP3   OH2 4760   5.795   0.353   3.623
 1585TIP3    H1 4761   5.702   0.368   3.640
 1585TIP3    H2 4762   5.834   0.440   3.630
 1586TIP3   OH2 4763   2.886   5.591   4.920
 1586TIP3    H1 4764   2.889   5.618   4.829
 1586TIP3    H2 4765   2.793   5.576   4.938
 1587TIP3   OH2 4766   2.311   3.375   2.726
 1587TIP3    H1 4767   2.346   3.339   2.645
 1587TIP3    H2 4768   2.333   3.311   2.793
 1588TIP3   OH2 4769   5.472   5.423   2.783
 1588TIP3    H1 4770   5.434   5.336   2.792
 1588TIP3    H2 4771   5.411   5.470   2.725
 1589TIP3   OH2 4772   1.325   2.576   4.650
 1589TIP3    H1 4773   1.256   2.555   4.586
 1589TIP3    H2 4774   1.344   2.492   4.691
 1590TIP3   OH2 4775   1.029   1.665   4.530
 1590TIP3    H1 4776   1.053   1.726   4.460
 1590TIP3    H2 4777   1.011   1.721   4.605
 1591TIP3   OH2 4778   1.931   1.102   1.386
 1591TIP3    H1 4779   1.961   1.183   1.345
 1591TIP3    H2 4780   1.843   1.121   1.417
 1592TIP3   OH2 4781   5.053   1.909   2.745
 1592TIP3    H1 4782   5.097   1.896   2.661
 1592TIP3    H2 4783   4.976   1.963   2.724
 1593TIP3   OH2 4784   0.281   0.243   4.591
 1593TIP3    H1 4785   0.217   0.183   4.631
 1593TIP3    H2 4786   0.357   0.188   4.572
 1594TIP3   OH2 4787   4.415   2.411   2.413
 1594TIP3    H1 4788   4.458   2.334   2.452
 1594TIP3    H2 4789   4.325   2.384   2.398
 1595TIP3   OH2 4790   3.398   0.231   3.464
 1595TIP3    H1 4791   3.340   0.165   3.503
 1595TIP3    H2 4792   3.486   0.206   3.494
 1596TIP3   OH2 4793   1.960   1.709   0.224
 1596TIP3    H1 4794   1.921   1.627   0.192
 1596TIP3    H2 4795   1.906   1.733   0.299
 1597TIP3   OH2 4796   3.218   0.782   0.717
 1597TIP3    H1 4797   3.249   0.707   0.667
 1597TIP3    H2 4798   3.270   0.856   0.686
 1598TIP3   OH2 4799   5.592   1.642   4.927
 1598TIP3    H1 4800   5.611   1.580   4.857
 1598TIP3    H2 4801   5.534   1.594   4.986
 1599TIP3   OH2 4802   5.774   4.283   0.289
 1599TIP3    H1 4803   5.748   4.375   0.285
 1599TIP3    H2 4804   5.820   4.275   0.373
 1600TIP3   OH2 4805   0.657   4.023   5.068
 1600TIP3    H1 4806   0.703   4.102   5.097
 1600TIP3    H2 4807   0.574   4.024   5.117
 1601TIP3   OH2 4808   1.197   0.368   1.620
 1601TIP3    H1 4809   1.171   0.457   1.596
 1601TIP3    H2 4810   1.116   0.318   1.615
 1602TIP3   OH2 4811   5.836   0.151   3.978
 1602TIP3    H1 4812   5.847   0.246   3.971
 1602TIP3    H2 4813   5.773   0.129   3.910
 1603TIP3   OH2 4814   4.423   4.823   1.925
 1603TIP3    H1 4815   4.329   4.831   1.936
 1603TIP3    H2 4816   4.445   4.879   1.851
 1604TIP3   OH2 4817   3.936   0.819   4.871
 1604TIP3    H1 4818   4.009   0.881   4.873
 1604TIP3    H2 4819   3.879   0.850   4.802
 1605TIP3   OH2 4820   3.607   5.418   4.327
 1605TIP3    H1 4821   3.594   5.357   4.255
 1605TIP3    H2 4822   3.557   5.381   4.399
 1606TIP3   OH2 4823   3.145   5.500   5.026
 1606TIP3    H1 4824   3.104   5.419   5.056
 1606TIP3    H2 4825   3.082   5.537   4.964
 1607TIP3   OH2 4826   4.255   4.662   4.762
 1607TIP3    H1 4827   4.338   4.617   4.775
 1607TIP3    H2 4828   4.273   4.726   4.693
 1608TIP3   OH2 4829   3.132   5.688   2.039
 1608TIP3    H1 4830   3.164   5.683   1.949
 1608TIP3    H2 4831   3.204   5.728   2.088
 1609TIP3   OH2 4832   4.919   3.441   4.575
 1609TIP3    H1 4833   5.000   3.478   4.612
 1609TIP3    H2 4834   4.882   3.512   4.522
 1610TIP3   OH2 4835   6.273   2.422   1.514
 1610TIP3    H1 4836   6.343   2.401   1.452
 1610TIP3    H2 4837   6.206   2.356   1.498
 1611TIP3   OH2 4838   6.034   1.874   0.514
 1611TIP3    H1 4839   6.029   1.968   0.532
 1611TIP3    H2 4840   6.123   1.849   0.537
 1612TIP3   OH2 4841   5.733   3.379   1.338
 1612TIP3    H1 4842   5.818   3.424   1.342
 1612TIP3    H2 4843   5.718   3.362   1.245
 1613TIP3   OH2 4844   4.779   1.103   0.750
 1613TIP3    H1 4845   4.769   1.031   0.688
 1613TIP3    H2 4846   4.872   1.106   0.769
 1614TIP3   OH2 4847   3.095   0.928   1.962
 1614TIP3    H1 4848   3.088   0.887   1.876
 1614TIP3    H2 4849   3.178   0.976   1.959
 1615TIP3   OH2 4850   5.203   0.870   3.905
 1615TIP3    H1 4851   5.255   0.821   3.968
 1615TIP3    H2 4852   5.148   0.804   3.862
 1616TIP3   OH2 4853   4.291   0.993   2.821
 1616TIP3    H1 4854   4.333   1.077   2.836
 1616TIP3    H2 4855   4.284   0.953   2.908
 1617TIP3   OH2 4856   0.306   2.272   2.108
 1617TIP3    H1 4857   0.266   2.336   2.168
 1617TIP3    H2 4858   0.302   2.314   2.022
 1618TIP3   OH2 4859   5.177   1.168   3.128
 1618TIP3    H1 4860   5.194   1.245   3.182
 1618TIP3    H2 4861   5.250   1.166   3.066
 1619TIP3   OH2 4862   3.852   2.035   4.749
 1619TIP3    H1 4863   3.760   2.011   4.758
 1619TIP3    H2 4864   3.896   1.953   4.728
 1620TIP3   OH2 4865   1.864   2.704   3.443
 1620TIP3    H1 4866   1.854   2.610   3.457
 1620TIP3    H2 4867   1.828   2.744   3.523
 1621TIP3   OH2 4868   4.749   3.147   4.964
 1621TIP3    H1 4869   4.693   3.207   4.915
 1621TIP3    H2 4870   4.696   3.124   5.041
 1622TIP3   OH2 4871   5.036   1.377   3.401
 1622TIP3    H1 4872   5.112   1.365   3.344
 1622TIP3    H2 4873   4.971   1.316   3.367
 1623TIP3   OH2 4874   5.529   5.167   1.028
 1623TIP3    H1 4875   5.499   5.232   1.092
 1623TIP3    H2 4876   5.522   5.083   1.074
 1624TIP3   OH2 4877   2.582   0.007   4.591
 1624TIP3    H1 4878   2.500   0.029   4.636
 1624TIP3    H2 4879   2.562  -0.074   4.543
 1625TIP3   OH2 4880   1.963   2.891   3.139
 1625TIP3    H1 4881   1.911   2.954   3.189
 1625TIP3    H2 4882   2.031   2.862   3.200
 1626TIP3   OH2 4883   5.131   4.356   4.257
 1626TIP3    H1 4884   5.048   4.324   4.292
 1626TIP3    H2 4885   5.150   4.435   4.308
 1627TIP3   OH2 4886   0.558   3.040   3.707
 1627TIP3    H1 4887   0.643   3.033   3.751
 1627TIP3    H2 4888   0.498   3.070   3.775
 1628TIP3   OH2 4889   6.223   1.735   1.939
 1628TIP3    H1 4890   6.166   1.736   2.016
 1628TIP3    H2 4891   6.166   1.761   1.867
 1629TIP3   OH2 4892   4.761   3.700   3.197
 1629TIP3    H1 4893   4.772   3.795   3.193
 1629TIP3    H2 4894   4.846   3.666   3.223
 1630TIP3   OH2 4895   0.713   2.963   2.831
 1630TIP3    H1 4896   0.647   2.893   2.827
 1630TIP3    H2 4897   0.714   2.990   2.923
 1631TIP3   OH2 4898   2.063   5.115   0.212
 1631TIP3    H1 4899   1.969   5.105   0.196
 1631TIP3    H2 4900   2.071   5.120   0.307
 1632TIP3   OH2 4901   3.714   3.810   0.340
 1632TIP3    H1 4902   3.749   3.774   0.421
 1632TIP3    H2 4903   3.696   3.902   0.360
 1633TIP3   OH2 4904   3.674   0.142   0.048
 1633TIP3    H1 4905   3.709   0.117   0.134
 1633TIP3    H2 4906   3.745   0.122  -0.013
 1634TIP3   OH2 4907   0.410   0.980   3.329
 1634TIP3    H1 4908   0.415   1.033   3.408
 1634TIP3    H2 4909   0.335   0.922   3.344
 1635TIP3   OH2 4910   1.436   3.097   4.260
 1635TIP3    H1 4911   1.473   3.116   4.174
 1635TIP3    H2 4912   1.475   3.012   4.284
 1636TIP3   OH2 4913   0.182   2.970   0.333
 1636TIP3    H1 4914   0.191   3.062   0.359
 1636TIP3    H2 4915   0.191   2.921   0.414
 1637TIP3   OH2 4916   4.503   2.029   4.124
 1637TIP3    H1 4917   4.500   2.123   4.141
 1637TIP3    H2 4918   4.555   2.020   4.045
 1638TIP3   OH2 4919   5.426   1.938   3.571
 1638TIP3    H1 4920   5.395   1.851   3.593
 1638TIP3    H2 4921   5.370   1.997   3.622
 1639TIP3   OH2 4922   0.757   4.905   4.560
 1639TIP3    H1 4923   0.735   4.821   4.601
 1639TIP3    H2 4924   0.674   4.951   4.555
 1640TIP3   OH2 4925   1.600   1.268   3.514
 1640TIP3    H1 4926   1.673   1.326   3.492
 1640TIP3    H2 4927   1.640   1.193   3.557
 1641TIP3   OH2 4928   4.552   5.638   3.346
 1641TIP3    H1 4929   4.498   5.688   3.285
 1641TIP3    H2 4930   4.641   5.646   3.312
 1642TIP3   OH2 4931   3.792   1.002   3.963
 1642TIP3    H1 4932   3.885   0.998   3.941
 1642TIP3    H2 4933   3.768   0.911   3.981
 1643TIP3   OH2 4934   3.938   2.161   3.868
 1643TIP3    H1 4935   3.866   2.221   3.888
 1643TIP3    H2 4936   3.939   2.155   3.773
 1644TIP3   OH2 4937   3.082   5.818   2.744
 1644TIP3    H1 4938   3.085   5.910   2.717
 1644TIP3    H2 4939   3.021   5.817   2.818
 1645TIP3   OH2 4940   4.209   5.099   2.762
 1645TIP3    H1 4941   4.268   5.121   2.690
 1645TIP3    H2 4942   4.214   5.174   2.821
 1646TIP3   OH2 4943   3.984   2.673   1.856
 1646TIP3    H1 4944   3.980   2.629   1.940
 1646TIP3    H2 4945   4.014   2.761   1.876
 1647TIP3   OH2 4946   0.832   3.423   1.518
 1647TIP3    H1 4947   0.806   3.352   1.458
 1647TIP3    H2 4948   0.769   3.493   1.499
 1648TIP3   OH2 4949   4.112   1.236   0.586
 1648TIP3    H1 4950   4.041   1.292   0.555
 1648TIP3    H2 4951   4.093   1.222   0.679
 1649TIP3   OH2 4952   4.065   1.961   4.138
 1649TIP3    H1 4953   4.099   1.974   4.226
 1649TIP3    H2 4954   4.111   2.025   4.084
 1650TIP3   OH2 4955   0.602   3.895   2.926
 1650TIP3    H1 4956   0.508   3.889   2.941
 1650TIP3    H2 4957   0.611   3.894   2.830
 1651TIP3   OH2 4958   3.169   3.086   2.485
 1651TIP3    H1 4959   3.119   3.059   2.408
 1651TIP3    H2 4960   3.107   3.134   2.540
 1652TIP3   OH2 4961   4.431   2.307   0.357
 1652TIP3    H1 4962   4.429   2.402   0.349
 1652TIP3    H2 4963   4.399   2.289   0.446
 1653TIP3   OH2 4964   1.983   2.420   0.278
 1653TIP3    H1 4965   1.951   2.508   0.261
 1653TIP3    H2 4966   1.934   2.390   0.354
 1654TIP3   OH2 4967   6.328   5.825   0.793
 1654TIP3    H1 4968   6.265   5.757   0.769
 1654TIP3    H2 4969   6.412   5.792   0.761
 1655TIP3   OH2 4970   4.410   2.887   4.572
 1655TIP3    H1 4971   4.450   2.869   4.486
 1655TIP3    H2 4972   4.361   2.808   4.593
 1656TIP3   OH2 4973   2.335   3.648   2.446
 1656TIP3    H1 4974   2.414   3.695   2.419
 1656TIP3    H2 4975   2.338   3.566   2.396
 1657TIP3   OH2 4976   2.926   2.573   3.841
 1657TIP3    H1 4977   2.946   2.624   3.763
 1657TIP3    H2 4978   3.012   2.555   3.880
 1658TIP3   OH2 4979   4.545   0.232   3.093
 1658TIP3    H1 4980   4.613   0.292   3.126
 1658TIP3    H2 4981   4.594   0.166   3.044
 1659TIP3   OH2 4982   3.182   4.195   3.977
 1659TIP3    H1 4983   3.258   4.161   4.023
 1659TIP3    H2 4984   3.109   4.177   4.036
 1660TIP3   OH2 4985   2.749   4.683   2.256
 1660TIP3    H1 4986   2.693   4.618   2.298
 1660TIP3    H2 4987   2.712   4.767   2.281
 1661TIP3   OH2 4988   1.590   2.254   5.076
 1661TIP3    H1 4989   1.527   2.214   5.015
 1661TIP3    H2 4990   1.675   2.238   5.036
 1662TIP3   OH2 4991   0.653   0.502   3.930
 1662TIP3    H1 4992   0.643   0.538   4.018
 1662TIP3    H2 4993   0.656   0.579   3.873
 1663TIP3   OH2 4994   2.204   5.606   2.324
 1663TIP3    H1 4995   2.126   5.610   2.379
 1663TIP3    H2 4996   2.219   5.696   2.296
 1664TIP3   OH2 4997   0.659   5.699   0.783
 1664TIP3    H1 4998   0.711   5.766   0.738
 1664TIP3    H2 4999   0.583   5.747   0.816
 1665TIP3   OH2 5000   3.153   2.200   2.049
 1665TIP3    H1 5001   3.166   2.214   1.955
 1665TIP3    H2 5002   3.242   2.203   2.086
 1666TIP3   OH2 5003   3.566   2.010   3.549
 1666TIP3    H1 5004   3.570   2.105   3.557
 1666TIP3    H2 5005   3.622   1.977   3.619
 1667TIP3   OH2 5006   1.761   3.986   2.433
 1667TIP3    H1 5007   1.689   4.037   2.470
 1667TIP3    H2 5008   1.771   3.911   2.491
 1668TIP3   OH2 5009   1.406   0.253   3.746
 1668TIP3    H1 5010   1.424   0.344   3.724
 1668TIP3    H2 5011   1.491   0.215   3.765
 1669TIP3   OH2 5012   2.185   0.484   0.490
 1669TIP3    H1 5013   2.130   0.469   0.413
 1669TIP3    H2 5014   2.217   0.574   0.480
 1670TIP3   OH2 5015   3.370   2.057   0.343
 1670TIP3    H1 5016   3.406   2.020   0.263
 1670TIP3    H2 5017   3.315   1.988   0.379
 1671TIP3   OH2 5018   6.228   3.023   4.758
 1671TIP3    H1 5019   6.226   3.062   4.671
 1671TIP3    H2 5020   6.154   2.962   4.759
 1672TIP3   OH2 5021   2.477   3.801   0.091
 1672TIP3    H1 5022   2.431   3.738   0.147
 1672TIP3    H2 5023   2.521   3.859   0.152
 1673TIP3   OH2 5024   0.337   4.105   2.535
 1673TIP3    H1 5025   0.293   4.061   2.607
 1673TIP3    H2 5026   0.266   4.138   2.479
 1674TIP3   OH2 5027   1.346   2.233   0.927
 1674TIP3    H1 5028   1.322   2.260   0.838
 1674TIP3    H2 5029   1.402   2.157   0.914
 1675TIP3   OH2 5030   3.322   0.837   4.246
 1675TIP3    H1 5031   3.304   0.744   4.230
 1675TIP3    H2 5032   3.333   0.874   4.158
 1676TIP3   OH2 5033   5.064   4.968   1.304
 1676TIP3    H1 5034   5.122   4.914   1.251
 1676TIP3    H2 5035   4.978   4.956   1.265
 1677TIP3   OH2 5036   2.443   4.971   4.544
 1677TIP3    H1 5037   2.432   4.877   4.529
 1677TIP3    H2 5038   2.401   4.987   4.628
 1678TIP3   OH2 5039   2.482   0.509   1.177
 1678TIP3    H1 5040   2.406   0.452   1.182
 1678TIP3    H2 5041   2.461   0.572   1.108
 1679TIP3   OH2 5042   3.927   2.075   3.341
 1679TIP3    H1 5043   3.923   2.010   3.411
 1679TIP3    H2 5044   3.880   2.150   3.376
 1680TIP3   OH2 5045   6.343   5.717   1.226
 1680TIP3    H1 5046   6.249   5.729   1.236
 1680TIP3    H2 5047   6.353   5.626   1.200
 1681TIP3   OH2 5048   0.677   3.687   1.412
 1681TIP3    H1 5049   0.729   3.768   1.409
 1681TIP3    H2 5050   0.630   3.691   1.495
 1682TIP3   OH2 5051   1.442   1.235   4.439
 1682TIP3    H1 5052   1.479   1.294   4.504
 1682TIP3    H2 5053   1.472   1.270   4.355
 1683TIP3   OH2 5054   5.673   2.755   2.503
 1683TIP3    H1 5055   5.652   2.676   2.552
 1683TIP3    H2 5056   5.598   2.769   2.446
 1684TIP3   OH2 5057   1.426  -0.011   2.274
 1684TIP3    H1 5058   1.334  -0.030   2.291
 1684TIP3    H2 5059   1.425   0.049   2.199
 1685TIP3   OH2 5060   1.721   0.631   0.373
 1685TIP3    H1 5061   1.652   0.585   0.325
 1685TIP3    H2 5062   1.710   0.602   0.464
 1686TIP3   OH2 5063   4.363   4.874   2.830
 1686TIP3    H1 5064   4.385   4.860   2.738
 1686TIP3    H2 5065   4.284   4.928   2.828
 1687TIP3   OH2 5066   4.234   0.108   4.410
 1687TIP3    H1 5067   4.193   0.023   4.395
 1687TIP3    H2 5068   4.303   0.090   4.474
 1688TIP3   OH2 5069   2.892   2.659   0.889
 1688TIP3    H1 5070   2.901   2.574   0.933
 1688TIP3    H2 5071   2.798   2.675   0.887
 1689TIP3   OH2 5072   5.019   0.890   3.492
 1689TIP3    H1 5073   4.996   0.872   3.583
 1689TIP3    H2 5074   4.941   0.864   3.443
 1690TIP3   OH2 5075   2.496   0.839   0.045
 1690TIP3    H1 5076   2.502   0.767   0.107
 1690TIP3    H2 5077   2.488   0.796  -0.041
 1691TIP3   OH2 5078   4.897   1.167   1.951
 1691TIP3    H1 5079   4.935   1.247   1.988
 1691TIP3    H2 5080   4.821   1.149   2.005
 1692TIP3   OH2 5081   1.608   2.302   0.524
 1692TIP3    H1 5082   1.599   2.360   0.448
 1692TIP3    H2 5083   1.701   2.301   0.543
 1693TIP3   OH2 5084   0.123   2.392   4.344
 1693TIP3    H1 5085   0.050   2.414   4.286
 1693TIP3    H2 5086   0.198   2.437   4.306
 1694TIP3   OH2 5087   6.069   4.930   3.964
 1694TIP3    H1 5088   6.105   4.975   4.041
 1694TIP3    H2 5089   6.135   4.942   3.896
 1695TIP3   OH2 5090   3.765   4.302   2.634
 1695TIP3    H1 5091   3.832   4.288   2.566
 1695TIP3    H2 5092   3.815   4.328   2.712
 1696TIP3   OH2 5093   6.048   5.944   3.763
 1696TIP3    H1 5094   6.089   5.875   3.816
 1696TIP3    H2 5095   6.107   5.955   3.688
 1697TIP3   OH2 5096   5.092   2.795   4.439
 1697TIP3    H1 5097   5.057   2.712   4.408
 1697TIP3    H2 5098   5.075   2.794   4.533
 1698TIP3   OH2 5099   3.195   2.100   1.035
 1698TIP3    H1 5100   3.272   2.139   1.076
 1698TIP3    H2 5101   3.205   2.120   0.942
 1699TIP3   OH2 5102   6.183   5.264   3.935
 1699TIP3    H1 5103   6.106   5.245   3.881
 1699TIP3    H2 5104   6.239   5.318   3.879
 1700TIP3   OH2 5105   0.400   3.214   1.299
 1700TIP3    H1 5106   0.467   3.273   1.264
 1700TIP3    H2 5107   0.391   3.146   1.233
 1701TIP3   OH2 5108   2.295   0.994   3.533
 1701TIP3    H1 5109   2.219   1.016   3.480
 1701TIP3    H2 5110   2.273   0.912   3.575
 1702TIP3   OH2 5111   1.203   2.119   4.500
 1702TIP3    H1 5112   1.215   2.064   4.577
 1702TIP3    H2 5113   1.117   2.159   4.512
 1703TIP3   OH2 5114   6.115   0.307   1.144
 1703TIP3    H1 5115   6.028   0.280   1.115
 1703TIP3    H2 5116   6.130   0.391   1.100
 1704TIP3   OH2 5117   1.142   2.785   2.453
 1704TIP3    H1 5118   1.137   2.741   2.537
 1704TIP3    H2 5119   1.173   2.873   2.473
 1705TIP3   OH2 5120   4.336   0.841   3.783
 1705TIP3    H1 5121   4.252   0.882   3.760
 1705TIP3    H2 5122   4.360   0.880   3.867
 1706TIP3   OH2 5123   0.832   0.926   3.877
 1706TIP3    H1 5124   0.810   0.936   3.969
 1706TIP3    H2 5125   0.923   0.956   3.871
 1707TIP3   OH2 5126   1.978   3.295   2.063
 1707TIP3    H1 5127   1.980   3.381   2.104
 1707TIP3    H2 5128   2.037   3.302   1.988
 1708TIP3   OH2 5129   0.507   2.236   3.252
 1708TIP3    H1 5130   0.520   2.326   3.221
 1708TIP3    H2 5131   0.557   2.231   3.333
 1709TIP3   OH2 5132   5.916   2.813   2.664
 1709TIP3    H1 5133   5.846   2.789   2.603
 1709TIP3    H2 5134   5.874   2.871   2.727
 1710TIP3   OH2 5135   1.508   2.168   1.477
 1710TIP3    H1 5136   1.457   2.245   1.455
 1710TIP3    H2 5137   1.521   2.123   1.393
 1711TIP3   OH2 5138   2.160   4.475   0.141
 1711TIP3    H1 5139   2.176   4.408   0.207
 1711TIP3    H2 5140   2.207   4.445   0.063
 1712TIP3   OH2 5141   1.950   3.176   2.316
 1712TIP3    H1 5142   1.948   3.205   2.224
 1712TIP3    H2 5143   2.040   3.147   2.330
 1713TIP3   OH2 5144   1.692   5.540   4.042
 1713TIP3    H1 5145   1.740   5.597   3.983
 1713TIP3    H2 5146   1.752   5.524   4.115
 1714TIP3   OH2 5147   1.189   5.901   4.805
 1714TIP3    H1 5148   1.172   5.965   4.875
 1714TIP3    H2 5149   1.240   5.832   4.848
 1715TIP3   OH2 5150   1.678   4.101   1.294
 1715TIP3    H1 5151   1.654   4.009   1.300
 1715TIP3    H2 5152   1.764   4.100   1.252
 1716TIP3   OH2 5153   1.902   0.976   2.809
 1716TIP3    H1 5154   1.869   1.062   2.836
 1716TIP3    H2 5155   1.855   0.957   2.728
 1717TIP3   OH2 5156   4.742   2.615   4.777
 1717TIP3    H1 5157   4.745   2.704   4.743
 1717TIP3    H2 5158   4.717   2.561   4.703
 1718TIP3   OH2 5159   4.280   3.378   0.441
 1718TIP3    H1 5160   4.219   3.444   0.409
 1718TIP3    H2 5161   4.298   3.404   0.532
 1719TIP3   OH2 5162   2.368   0.941   4.304
 1719TIP3    H1 5163   2.434   0.940   4.236
 1719TIP3    H2 5164   2.393   0.869   4.363
 1720TIP3   OH2 5165   0.433   0.589   1.646
 1720TIP3    H1 5166   0.506   0.570   1.705
 1720TIP3    H2 5167   0.357   0.545   1.686
 1721TIP3   OH2 5168   2.758   3.257   4.152
 1721TIP3    H1 5169   2.747   3.170   4.113
 1721TIP3    H2 5170   2.677   3.304   4.129
 1722TIP3   OH2 5171   5.825   4.966   3.643
 1722TIP3    H1 5172   5.840   5.013   3.562
 1722TIP3    H2 5173   5.799   4.878   3.615
 1723TIP3   OH2 5174   2.189   3.652   4.422
 1723TIP3    H1 5175   2.234   3.671   4.504
 1723TIP3    H2 5176   2.222   3.717   4.360
 1724TIP3   OH2 5177   3.196   1.923   2.995
 1724TIP3    H1 5178   3.101   1.926   2.998
 1724TIP3    H2 5179   3.221   1.995   2.937
 1725TIP3   OH2 5180   1.578   5.252   2.770
 1725TIP3    H1 5181   1.511   5.185   2.757
 1725TIP3    H2 5182   1.659   5.203   2.787
 1726TIP3   OH2 5183   5.616   4.080   0.190
 1726TIP3    H1 5184   5.634   4.173   0.200
 1726TIP3    H2 5185   5.700   4.037   0.205
 1727TIP3   OH2 5186   5.618   4.248   3.222
 1727TIP3    H1 5187   5.535   4.296   3.214
 1727TIP3    H2 5188   5.685   4.316   3.228
 1728TIP3   OH2 5189   2.984   2.317   3.149
 1728TIP3    H1 5190   3.045   2.313   3.075
 1728TIP3    H2 5191   3.027   2.266   3.218
 1729TIP3   OH2 5192   4.702   2.684   3.927
 1729TIP3    H1 5193   4.704   2.729   4.012
 1729TIP3    H2 5194   4.790   2.697   3.892
 1730TIP3   OH2 5195   0.901   5.479   1.370
 1730TIP3    H1 5196   0.906   5.557   1.426
 1730TIP3    H2 5197   0.902   5.514   1.281
 1731TIP3   OH2 5198   1.230   3.804   1.233
 1731TIP3    H1 5199   1.233   3.890   1.192
 1731TIP3    H2 5200   1.234   3.822   1.327
 1732TIP3   OH2 5201   4.979   2.979   4.885
 1732TIP3    H1 5202   4.904   3.035   4.906
 1732TIP3    H2 5203   5.055   3.036   4.897
 1733TIP3   OH2 5204   4.562   2.244   0.716
 1733TIP3    H1 5205   4.625   2.316   0.727
 1733TIP3    H2 5206   4.559   2.202   0.802
 1734TIP3   OH2 5207  -0.049   0.685   1.215
 1734TIP3    H1 5208   0.022   0.716   1.159
 1734TIP3    H2 5209  -0.106   0.636   1.155
 1735TIP3   OH2 5210   6.311   0.960   3.787
 1735TIP3    H1 5211   6.326   0.942   3.880
 1735TIP3    H2 5212   6.386   1.013   3.761
 1736TIP3   OH2 5213   2.826   3.464   1.183
 1736TIP3    H1 5214   2.865   3.515   1.254
 1736TIP3    H2 5215   2.900   3.423   1.138
 1737TIP3   OH2 5216   3.098   3.896   0.347
 1737TIP3    H1 5217   3.101   3.976   0.294
 1737TIP3    H2 5218   3.081   3.826   0.285
 1738TIP3   OH2 5219   5.155   2.670   0.808
 1738TIP3    H1 5220   5.211   2.733   0.854
 1738TIP3    H2 5221   5.212   2.595   0.791
 1739TIP3   OH2 5222   3.406   0.670   3.549
 1739TIP3    H1 5223   3.331   0.625   3.588
 1739TIP3    H2 5224   3.472   0.601   3.540
 1740TIP3   OH2 5225   0.141   5.685   4.470
 1740TIP3    H1 5226   0.108   5.598   4.489
 1740TIP3    H2 5227   0.063   5.735   4.445
 1741TIP3   OH2 5228   5.708   3.061   3.704
 1741TIP3    H1 5229   5.679   3.151   3.722
 1741TIP3    H2 5230   5.787   3.050   3.756
 1742TIP3   OH2 5231   5.022   4.063   0.293
 1742TIP3    H1 5232   4.991   4.057   0.203
 1742TIP3    H2 5233   5.006   3.977   0.330
 1743TIP3   OH2 5234   4.025   2.437   3.340
 1743TIP3    H1 5235   4.020   2.493   3.263
 1743TIP3    H2 5236   4.028   2.497   3.414
 1744TIP3   OH2 5237   0.125   3.769   3.068
 1744TIP3    H1 5238   0.170   3.723   2.997
 1744TIP3    H2 5239   0.111   3.703   3.135
 1745TIP3   OH2 5240   3.633   1.621   1.056
 1745TIP3    H1 5241   3.538   1.611   1.050
 1745TIP3    H2 5242   3.651   1.619   1.150
 1746TIP3   OH2 5243   5.452   2.813  -0.002
 1746TIP3    H1 5244   5.512   2.843  -0.070
 1746TIP3    H2 5245   5.481   2.725   0.019
 1747TIP3   OH2 5246   2.329   5.408   4.253
 1747TIP3    H1 5247   2.375   5.335   4.293
 1747TIP3    H2 5248   2.393   5.448   4.195
 1748TIP3   OH2 5249   3.371   3.905   2.859
 1748TIP3    H1 5250   3.450   3.872   2.902
 1748TIP3    H2 5251   3.299   3.870   2.912
 1749TIP3   OH2 5252   2.421   3.510   3.326
 1749TIP3    H1 5253   2.391   3.445   3.390
 1749TIP3    H2 5254   2.497   3.550   3.367
 1750TIP3   OH2 5255   4.540   5.225   0.976
 1750TIP3    H1 5256   4.580   5.301   0.935
 1750TIP3    H2 5257   4.451   5.224   0.943
 1751TIP3   OH2 5258   0.647   3.863   4.746
 1751TIP3    H1 5259   0.733   3.831   4.716
 1751TIP3    H2 5260   0.585   3.797   4.716
 1752TIP3   OH2 5261   5.902   4.105   2.494
 1752TIP3    H1 5262   5.851   4.026   2.479
 1752TIP3    H2 5263   5.843   4.162   2.544
 1753TIP3   OH2 5264   0.967   2.356   0.942
 1753TIP3    H1 5265   0.930   2.425   0.886
 1753TIP3    H2 5266   0.984   2.284   0.882
 1754TIP3   OH2 5267   3.229   4.742   0.341
 1754TIP3    H1 5268   3.279   4.780   0.412
 1754TIP3    H2 5269   3.285   4.751   0.264
 1755TIP3   OH2 5270   1.801   2.924   4.033
 1755TIP3    H1 5271   1.883   2.883   4.006
 1755TIP3    H2 5272   1.788   2.894   4.123
 1756TIP3   OH2 5273   5.173   5.308   0.399
 1756TIP3    H1 5274   5.247   5.359   0.364
 1756TIP3    H2 5275   5.215   5.244   0.457
 1757TIP3   OH2 5276   2.476   5.769   3.049
 1757TIP3    H1 5277   2.531   5.692   3.061
 1757TIP3    H2 5278   2.537   5.838   3.020
 1758TIP3   OH2 5279   5.118   2.885   3.490
 1758TIP3    H1 5280   5.180   2.904   3.560
 1758TIP3    H2 5281   5.172   2.876   3.411
 1759TIP3   OH2 5282   0.829   2.914   3.104
 1759TIP3    H1 5283   0.806   3.006   3.096
 1759TIP3    H2 5284   0.862   2.904   3.193
 1760TIP3   OH2 5285   4.327   3.721   3.095
 1760TIP3    H1 5286   4.319   3.626   3.085
 1760TIP3    H2 5287   4.237   3.753   3.094
 1761TIP3   OH2 5288   5.900   1.773   3.897
 1761TIP3    H1 5289   5.915   1.845   3.960
 1761TIP3    H2 5290   5.805   1.773   3.883
 1762TIP3   OH2 5291   1.720   1.009   1.097
 1762TIP3    H1 5292   1.810   1.038   1.081
 1762TIP3    H2 5293   1.721   0.916   1.072
 1763TIP3   OH2 5294   6.367   1.415   0.036
 1763TIP3    H1 5295   6.271   1.418   0.036
 1763TIP3    H2 5296   6.388   1.328   0.002
 1764TIP3   OH2 5297   5.927   2.158   0.009
 1764TIP3    H1 5298   5.973   2.195   0.084
 1764TIP3    H2 5299   5.835   2.158   0.035
 1765TIP3   OH2 5300   1.916   0.913   4.886
 1765TIP3    H1 5301   1.991   0.905   4.828
 1765TIP3    H2 5302   1.954   0.933   4.972
 1766TIP3   OH2 5303   1.361   0.250   1.242
 1766TIP3    H1 5304   1.386   0.190   1.312
 1766TIP3    H2 5305   1.358   0.196   1.163
 1767TIP3   OH2 5306   4.400   5.567   1.111
 1767TIP3    H1 5307   4.338   5.496   1.124
 1767TIP3    H2 5308   4.454   5.539   1.037
 1768TIP3   OH2 5309   2.398   4.616   2.603
 1768TIP3    H1 5310   2.350   4.698   2.600
 1768TIP3    H2 5311   2.458   4.626   2.677
 1769TIP3   OH2 5312   5.305   2.902   0.958
 1769TIP3    H1 5313   5.297   2.989   0.917
 1769TIP3    H2 5314   5.361   2.853   0.897
 1770TIP3   OH2 5315   2.395   0.933   0.473
 1770TIP3    H1 5316   2.347   1.000   0.522
 1770TIP3    H2 5317   2.426   0.978   0.395
 1771TIP3   OH2 5318   3.315   1.363   1.385
 1771TIP3    H1 5319   3.359   1.369   1.470
 1771TIP3    H2 5320   3.332   1.274   1.355
 1772TIP3   OH2 5321   4.028   2.759   2.932
 1772TIP3    H1 5322   4.095   2.816   2.969
 1772TIP3    H2 5323   3.950   2.815   2.926
 1773TIP3   OH2 5324   1.717   1.892   4.989
 1773TIP3    H1 5325   1.725   1.807   4.948
 1773TIP3    H2 5326   1.781   1.947   4.945
 1774TIP3   OH2 5327   5.654   2.019   2.053
 1774TIP3    H1 5328   5.632   1.949   1.991
 1774TIP3    H2 5329   5.611   2.096   2.018
 1775TIP3   OH2 5330   3.068   1.224   4.804
 1775TIP3    H1 5331   3.083   1.268   4.720
 1775TIP3    H2 5332   2.984   1.259   4.834
 1776TIP3   OH2 5333   1.948   2.527   4.817
 1776TIP3    H1 5334   1.865   2.479   4.822
 1776TIP3    H2 5335   2.001   2.476   4.756
 1777TIP3   OH2 5336   4.706   2.916   4.054
 1777TIP3    H1 5337   4.790   2.934   4.095
 1777TIP3    H2 5338   4.695   2.985   3.989
 1778TIP3   OH2 5339   1.194   3.292   4.076
 1778TIP3    H1 5340   1.278   3.337   4.086
 1778TIP3    H2 5341   1.162   3.280   4.165
 1779TIP3   OH2 5342   3.592   5.489   3.589
 1779TIP3    H1 5343   3.596   5.527   3.502
 1779TIP3    H2 5344   3.498   5.478   3.606
 1780TIP3   OH2 5345   2.597   5.899   1.168
 1780TIP3    H1 5346   2.595   5.828   1.104
 1780TIP3    H2 5347   2.686   5.933   1.164
 1781TIP3   OH2 5348   0.292   1.769   4.713
 1781TIP3    H1 5349   0.222   1.710   4.687
 1781TIP3    H2 5350   0.340   1.722   4.780
 1782TIP3   OH2 5351   2.305   2.528   4.353
 1782TIP3    H1 5352   2.221   2.483   4.358
 1782TIP3    H2 5353   2.352   2.499   4.430
 1783TIP3   OH2 5354   1.292   0.128   4.292
 1783TIP3    H1 5355   1.283   0.200   4.355
 1783TIP3    H2 5356   1.264   0.050   4.339
 1784TIP3   OH2 5357   5.493   2.668   1.310
 1784TIP3    H1 5358   5.566   2.632   1.361
 1784TIP3    H2 5359   5.483   2.607   1.237
 1785TIP3   OH2 5360   4.591   4.691   4.042
 1785TIP3    H1 5361   4.602   4.624   4.109
 1785TIP3    H2 5362   4.680   4.711   4.013
 1786TIP3   OH2 5363   2.033   3.376   0.823
 1786TIP3    H1 5364   2.111   3.400   0.874
 1786TIP3    H2 5365   1.960   3.400   0.880
 1787TIP3   OH2 5366   3.876   5.664   0.875
 1787TIP3    H1 5367   3.877   5.578   0.916
 1787TIP3    H2 5368   3.877   5.646   0.781
 1788TIP3   OH2 5369   6.096   2.806   3.658
 1788TIP3    H1 5370   6.089   2.710   3.658
 1788TIP3    H2 5371   6.184   2.823   3.624
 1789TIP3   OH2 5372   4.455   3.050   3.092
 1789TIP3    H1 5373   4.391   3.111   3.130
 1789TIP3    H2 5374   4.449   3.065   2.997
 1790TIP3   OH2 5375   5.772   1.190   2.041
 1790TIP3    H1 5376   5.831   1.167   1.969
 1790TIP3    H2 5377   5.773   1.286   2.043
 1791TIP3   OH2 5378   1.991   4.458   3.331
 1791TIP3    H1 5379   1.977   4.369   3.298
 1791TIP3    H2 5380   2.085   4.461   3.351
 1792TIP3   OH2 5381   5.203   2.843   0.494
 1792TIP3    H1 5382   5.293   2.875   0.503
 1792TIP3    H2 5383   5.151   2.901   0.549
 1793TIP3   OH2 5384   0.833   0.064   4.007
 1793TIP3    H1 5385   0.876   0.033   3.928
 1793TIP3    H2 5386   0.841   0.160   4.004
 1794TIP3   OH2 5387   0.294   0.970   3.995
 1794TIP3    H1 5388   0.233   1.022   4.047
 1794TIP3    H2 5389   0.297   0.885   4.040
 1795TIP3   OH2 5390   5.835   3.081   0.187
 1795TIP3    H1 5391   5.893   3.155   0.202
 1795TIP3    H2 5392   5.810   3.087   0.095
 1796TIP3   OH2 5393   3.101   5.160   2.218
 1796TIP3    H1 5394   3.191   5.130   2.229
 1796TIP3    H2 5395   3.091   5.228   2.285
 1797TIP3   OH2 5396   1.992   2.061   0.514
 1797TIP3    H1 5397   1.928   1.998   0.483
 1797TIP3    H2 5398   2.076   2.029   0.480
 1798TIP3   OH2 5399   5.391   3.787   5.147
 1798TIP3    H1 5400   5.486   3.784   5.163
 1798TIP3    H2 5401   5.373   3.708   5.097
 1799TIP3   OH2 5402   3.961   1.913  -0.048
 1799TIP3    H1 5403   4.037   1.969  -0.031
 1799TIP3    H2 5404   3.906   1.923   0.030
 1800TIP3   OH2 5405   2.672   3.213   1.434
 1800TIP3    H1 5406   2.715   3.231   1.350
 1800TIP3    H2 5407   2.708   3.129   1.462
 1801TIP3   OH2 5408   4.098   1.163   4.110
 1801TIP3    H1 5409   4.080   1.074   4.080
 1801TIP3    H2 5410   4.016   1.210   4.094
 1802TIP3   OH2 5411   1.668   2.640   0.677
 1802TIP3    H1 5412   1.720   2.715   0.649
 1802TIP3    H2 5413   1.687   2.631   0.770
 1803TIP3   OH2 5414   2.379   3.544   0.546
 1803TIP3    H1 5415   2.435   3.466   0.544
 1803TIP3    H2 5416   2.429   3.608   0.596
 1804TIP3   OH2 5417   5.405   3.285   0.543
 1804TIP3    H1 5418   5.472   3.353   0.536
 1804TIP3    H2 5419   5.322   3.332   0.537
 1805TIP3   OH2 5420   4.213   3.726   5.161
 1805TIP3    H1 5421   4.266   3.800   5.134
 1805TIP3    H2 5422   4.262   3.685   5.232
 1806TIP3   OH2 5423   4.945   4.064   3.132
 1806TIP3    H1 5424   4.863   4.060   3.181
 1806TIP3    H2 5425   4.986   3.978   3.146
 1807TIP3   OH2 5426   1.269   2.621   1.238
 1807TIP3    H1 5427   1.341   2.672   1.200
 1807TIP3    H2 5428   1.237   2.566   1.167
 1808TIP3   OH2 5429   4.460   5.926   2.869
 1808TIP3    H1 5430   4.395   5.869   2.911
 1808TIP3    H2 5431   4.532   5.930   2.932
 1809TIP3   OH2 5432   4.547   1.400   0.935
 1809TIP3    H1 5433   4.470   1.418   0.990
 1809TIP3    H2 5434   4.606   1.352   0.992
 1810TIP3   OH2 5435   6.333   3.560   1.293
 1810TIP3    H1 5436   6.282   3.615   1.233
 1810TIP3    H2 5437   6.359   3.485   1.239
 1811TIP3   OH2 5438   2.202   0.767   0.400
 1811TIP3    H1 5439   2.114   0.791   0.431
 1811TIP3    H2 5440   2.258   0.839   0.430
 1812TIP3   OH2 5441   1.133   2.261   0.427
 1812TIP3    H1 5442   1.161   2.175   0.456
 1812TIP3    H2 5443   1.211   2.316   0.434
 1813TIP3   OH2 5444   1.217   3.926   3.990
 1813TIP3    H1 5445   1.276   3.901   3.919
 1813TIP3    H2 5446   1.167   4.000   3.955
 1814TIP3   OH2 5447   3.353   2.994   0.639
 1814TIP3    H1 5448   3.426   2.940   0.669
 1814TIP3    H2 5449   3.284   2.932   0.618
 1815TIP3   OH2 5450   4.920   3.606   3.763
 1815TIP3    H1 5451   4.893   3.683   3.813
 1815TIP3    H2 5452   4.839   3.561   3.742
 1816TIP3   OH2 5453   5.003   5.635   1.590
 1816TIP3    H1 5454   5.089   5.594   1.601
 1816TIP3    H2 5455   4.941   5.569   1.621
 1817TIP3   OH2 5456   4.472   3.671   2.030
 1817TIP3    H1 5457   4.545   3.674   1.969
 1817TIP3    H2 5458   4.499   3.608   2.097
 1818TIP3   OH2 5459   5.820   2.430   1.969
 1818TIP3    H1 5460   5.808   2.376   1.891
 1818TIP3    H2 5461   5.913   2.420   1.990
 1819TIP3   OH2 5462   0.522   4.976   1.113
 1819TIP3    H1 5463   0.561   5.040   1.054
 1819TIP3    H2 5464   0.587   4.905   1.117
 1820TIP3   OH2 5465   2.633   3.610   1.960
 1820TIP3    H1 5466   2.725   3.637   1.952
 1820TIP3    H2 5467   2.585   3.692   1.975
 1821TIP3   OH2 5468   3.980   1.582   4.892
 1821TIP3    H1 5469   3.903   1.568   4.948
 1821TIP3    H2 5470   4.054   1.570   4.950
 1822TIP3   OH2 5471   1.206   0.298   4.499
 1822TIP3    H1 5472   1.136   0.358   4.524
 1822TIP3    H2 5473   1.239   0.263   4.582
 1823TIP3   OH2 5474   3.145   4.004   4.267
 1823TIP3    H1 5475   3.113   4.062   4.336
 1823TIP3    H2 5476   3.230   4.039   4.243
 1824TIP3   OH2 5477   4.888   2.764   5.078
 1824TIP3    H1 5478   4.929   2.802   5.156
 1824TIP3    H2 5479   4.931   2.808   5.005
 1825TIP3   OH2 5480   1.826   4.616   0.189
 1825TIP3    H1 5481   1.901   4.664   0.223
 1825TIP3    H2 5482   1.790   4.672   0.120
 1826TIP3   OH2 5483   0.332   4.725   0.086
 1826TIP3    H1 5484   0.239   4.738   0.105
 1826TIP3    H2 5485   0.373   4.722   0.173
 1827TIP3   OH2 5486   2.518   3.322   3.683
 1827TIP3    H1 5487   2.465   3.361   3.613
 1827TIP3    H2 5488   2.544   3.236   3.648
 1828TIP3   OH2 5489   5.075   1.077   4.648
 1828TIP3    H1 5490   5.165   1.045   4.638
 1828TIP3    H2 5491   5.074   1.117   4.735
 1829TIP3   OH2 5492   1.231   4.444   0.343
 1829TIP3    H1 5493   1.188   4.505   0.284
 1829TIP3    H2 5494   1.324   4.449   0.320
 1830TIP3   OH2 5495   4.374   1.015   3.982
 1830TIP3    H1 5496   4.440   1.010   4.050
 1830TIP3    H2 5497   4.341   1.105   3.987
 1831TIP3   OH2 5498   3.159   3.258   1.327
 1831TIP3    H1 5499   3.161   3.180   1.271
 1831TIP3    H2 5500   3.066   3.279   1.335
 1832TIP3   OH2 5501   3.618   1.205   0.824
 1832TIP3    H1 5502   3.559   1.193   0.749
 1832TIP3    H2 5503   3.561   1.237   0.894
 1833TIP3   OH2 5504   4.858   5.524   2.650
 1833TIP3    H1 5505   4.949   5.504   2.674
 1833TIP3    H2 5506   4.864   5.559   2.561
 1834TIP3   OH2 5507   4.045   2.124   1.692
 1834TIP3    H1 5508   4.128   2.145   1.649
 1834TIP3    H2 5509   4.001   2.208   1.702
 1835TIP3   OH2 5510   6.287   0.326  -0.079
 1835TIP3    H1 5511   6.370   0.333  -0.031
 1835TIP3    H2 5512   6.275   0.412  -0.118
 1836TIP3   OH2 5513   5.630   3.546   3.379
 1836TIP3    H1 5514   5.558   3.567   3.438
 1836TIP3    H2 5515   5.649   3.629   3.335
 1837TIP3   OH2 5516   0.028   2.609   5.041
 1837TIP3    H1 5517   0.037   2.607   5.136
 1837TIP3    H2 5518   0.111   2.645   5.010
 1838TIP3   OH2 5519   1.240   3.520   1.767
 1838TIP3    H1 5520   1.194   3.487   1.690
 1838TIP3    H2 5521   1.329   3.487   1.758
 1839TIP3   OH2 5522   6.053   1.167   0.134
 1839TIP3    H1 5523   6.055   1.124   0.219
 1839TIP3    H2 5524   6.040   1.096   0.071
 1840TIP3   OH2 5525   5.023   1.581   0.303
 1840TIP3    H1 5526   5.083   1.654   0.321
 1840TIP3    H2 5527   5.050   1.548   0.217
 1841TIP3   OH2 5528   0.265   1.436   1.075
 1841TIP3    H1 5529   0.331   1.405   1.137
 1841TIP3    H2 5530   0.315   1.478   1.005
 1842TIP3   OH2 5531   6.273   1.412   4.154
 1842TIP3    H1 5532   6.238   1.411   4.243
 1842TIP3    H2 5533   6.223   1.481   4.110
 1843TIP3   OH2 5534   1.661   3.557   4.003
 1843TIP3    H1 5535   1.747   3.533   3.969
 1843TIP3    H2 5536   1.677   3.636   4.055
 1844TIP3   OH2 5537   3.295   4.825   2.649
 1844TIP3    H1 5538   3.358   4.786   2.587
 1844TIP3    H2 5539   3.349   4.878   2.707
 1845TIP3   OH2 5540   0.908   3.797   3.813
 1845TIP3    H1 5541   0.825   3.774   3.772
 1845TIP3    H2 5542   0.967   3.725   3.793
 1846TIP3   OH2 5543   5.864   1.641   0.072
 1846TIP3    H1 5544   5.928   1.570   0.058
 1846TIP3    H2 5545   5.878   1.667   0.163
 1847TIP3   OH2 5546   5.206   5.806   3.233
 1847TIP3    H1 5547   5.286   5.837   3.192
 1847TIP3    H2 5548   5.197   5.860   3.312
 1848TIP3   OH2 5549   4.476   4.361   2.817
 1848TIP3    H1 5550   4.517   4.433   2.769
 1848TIP3    H2 5551   4.458   4.397   2.904
 1849TIP3   OH2 5552   1.118   5.377   1.036
 1849TIP3    H1 5553   1.104   5.283   1.046
 1849TIP3    H2 5554   1.165   5.403   1.114
 1850TIP3   OH2 5555   3.154   2.759   3.406
 1850TIP3    H1 5556   3.066   2.744   3.440
 1850TIP3    H2 5557   3.171   2.685   3.348
 1851TIP3   OH2 5558   0.063   0.661   0.659
 1851TIP3    H1 5559   0.006   0.585   0.661
 1851TIP3    H2 5560   0.137   0.638   0.715
 1852TIP3   OH2 5561   1.171   2.045   2.696
 1852TIP3    H1 5562   1.185   1.977   2.762
 1852TIP3    H2 5563   1.109   2.005   2.634
 1853TIP3   OH2 5564   1.134   3.344   4.337
 1853TIP3    H1 5565   1.203   3.310   4.394
 1853TIP3    H2 5566   1.178   3.410   4.284
 1854TIP3   OH2 5567   5.244   0.174   1.788
 1854TIP3    H1 5568   5.331   0.174   1.829
 1854TIP3    H2 5569   5.222   0.266   1.779
 1855TIP3   OH2 5570   2.171   0.760   1.149
 1855TIP3    H1 5571   2.088   0.716   1.133
 1855TIP3    H2 5572   2.203   0.720   1.230
 1856TIP3   OH2 5573   6.029   0.495   2.272
 1856TIP3    H1 5574   5.959   0.435   2.298
 1856TIP3    H2 5575   6.110   0.449   2.296
 1857TIP3   OH2 5576   6.109   1.987   4.508
 1857TIP3    H1 5577   6.111   2.080   4.487
 1857TIP3    H2 5578   6.098   1.984   4.603
 1858TIP3   OH2 5579   3.230   5.911   3.573
 1858TIP3    H1 5580   3.218   5.848   3.645
 1858TIP3    H2 5581   3.178   5.875   3.501
 1859TIP3   OH2 5582   2.307   3.565   5.168
 1859TIP3    H1 5583   2.367   3.639   5.165
 1859TIP3    H2 5584   2.316   3.531   5.258
 1860TIP3   OH2 5585   2.247   2.237   3.065
 1860TIP3    H1 5586   2.243   2.319   3.016
 1860TIP3    H2 5587   2.255   2.263   3.157
 1861TIP3   OH2 5588   5.366   4.835   3.181
 1861TIP3    H1 5589   5.388   4.823   3.274
 1861TIP3    H2 5590   5.426   4.776   3.135
 1862TIP3   OH2 5591   3.619   5.336   2.779
 1862TIP3    H1 5592   3.604   5.430   2.783
 1862TIP3    H2 5593   3.713   5.328   2.763
 1863TIP3   OH2 5594   2.923   1.688   4.699
 1863TIP3    H1 5595   2.962   1.764   4.742
 1863TIP3    H2 5596   2.866   1.649   4.766
 1864TIP3   OH2 5597   2.357   3.527   0.043
 1864TIP3    H1 5598   2.279   3.504  -0.008
 1864TIP3    H2 5599   2.425   3.468   0.010
 1865TIP3   OH2 5600   6.282   3.052   3.069
 1865TIP3    H1 5601   6.296   3.004   3.150
 1865TIP3    H2 5602   6.196   3.024   3.039
 1866TIP3   OH2 5603   1.431   1.676   4.794
 1866TIP3    H1 5604   1.350   1.686   4.844
 1866TIP3    H2 5605   1.499   1.666   4.861
 1867TIP3   OH2 5606   0.749   1.617   4.742
 1867TIP3    H1 5607   0.757   1.560   4.666
 1867TIP3    H2 5608   0.723   1.702   4.706
 1868TIP3   OH2 5609   1.320   0.087   0.048
 1868TIP3    H1 5610   1.344   0.134  -0.032
 1868TIP3    H2 5611   1.371   0.129   0.117
 1869TIP3   OH2 5612   5.205   5.561   5.019
 1869TIP3    H1 5613   5.281   5.614   5.042
 1869TIP3    H2 5614   5.130   5.616   5.043
 1870TIP3   OH2 5615   3.143   3.722   0.908
 1870TIP3    H1 5616   3.178   3.806   0.877
 1870TIP3    H2 5617   3.215   3.684   0.959
 1871TIP3   OH2 5618   5.870   4.075   2.214
 1871TIP3    H1 5619   5.927   4.093   2.289
 1871TIP3    H2 5620   5.868   3.979   2.208
 1872TIP3   OH2 5621   5.558   4.444   4.074
 1872TIP3    H1 5622   5.517   4.365   4.110
 1872TIP3    H2 5623   5.604   4.483   4.149
 1873TIP3   OH2 5624   1.888   2.319   0.541
 1873TIP3    H1 5625   1.923   2.230   0.537
 1873TIP3    H2 5626   1.950   2.367   0.595
 1874TIP3   OH2 5627   4.643   2.135   0.956
 1874TIP3    H1 5628   4.671   2.066   0.896
 1874TIP3    H2 5629   4.724   2.182   0.977
 1875TIP3   OH2 5630   5.966   0.526   4.223
 1875TIP3    H1 5631   6.050   0.484   4.244
 1875TIP3    H2 5632   5.982   0.619   4.234
 1876TIP3   OH2 5633   4.683   1.939   1.514
 1876TIP3    H1 5634   4.660   2.022   1.555
 1876TIP3    H2 5635   4.740   1.962   1.441
 1877TIP3   OH2 5636   2.938   4.568   1.357
 1877TIP3    H1 5637   2.911   4.511   1.285
 1877TIP3    H2 5638   2.856   4.604   1.391
 1878TIP3   OH2 5639   0.998   3.081   4.043
 1878TIP3    H1 5640   1.029   2.994   4.067
 1878TIP3    H2 5641   1.074   3.139   4.055
 1879TIP3   OH2 5642   1.341   3.721   3.836
 1879TIP3    H1 5643   1.337   3.629   3.859
 1879TIP3    H2 5644   1.324   3.723   3.741
 1880TIP3   OH2 5645   1.303   0.705   4.019
 1880TIP3    H1 5646   1.382   0.714   3.965
 1880TIP3    H2 5647   1.310   0.618   4.057
 1881TIP3   OH2 5648   5.941   5.985   0.892
 1881TIP3    H1 5649   5.858   5.949   0.861
 1881TIP3    H2 5650   5.994   5.908   0.913
 1882TIP3   OH2 5651   4.865   3.588   0.086
 1882TIP3    H1 5652   4.957   3.563   0.094
 1882TIP3    H2 5653   4.820   3.506   0.063
 1883TIP3   OH2 5654   5.431   1.696   1.225
 1883TIP3    H1 5655   5.432   1.790   1.240
 1883TIP3    H2 5656   5.523   1.671   1.222
 1884TIP3   OH2 5657   3.386   2.937   0.170
 1884TIP3    H1 5658   3.451   2.888   0.221
 1884TIP3    H2 5659   3.435   3.013   0.137
 1885TIP3   OH2 5660   3.167   3.107   3.948
 1885TIP3    H1 5661   3.171   3.079   3.856
 1885TIP3    H2 5662   3.073   3.105   3.969
 1886TIP3   OH2 5663   2.573   1.756   2.748
 1886TIP3    H1 5664   2.512   1.722   2.683
 1886TIP3    H2 5665   2.588   1.683   2.808
 1887TIP3   OH2 5666   5.836   3.699   0.927
 1887TIP3    H1 5667   5.861   3.792   0.922
 1887TIP3    H2 5668   5.850   3.666   0.838
 1888TIP3   OH2 5669   0.911   3.865   4.347
 1888TIP3    H1 5670   0.823   3.883   4.312
 1888TIP3    H2 5671   0.948   3.801   4.286
 1889TIP3   OH2 5672   0.467   5.187   4.152
 1889TIP3    H1 5673   0.451   5.098   4.181
 1889TIP3    H2 5674   0.444   5.187   4.059
 1890TIP3   OH2 5675   1.832   5.378   4.222
 1890TIP3    H1 5676   1.895   5.307   4.236
 1890TIP3    H2 5677   1.813   5.410   4.311
 1891TIP3   OH2 5678   0.403   4.731   4.440
 1891TIP3    H1 5679   0.422   4.669   4.510
 1891TIP3    H2 5680   0.457   4.701   4.366
 1892TIP3   OH2 5681   0.605   4.169   0.873
 1892TIP3    H1 5682   0.522   4.149   0.916
 1892TIP3    H2 5683   0.624   4.092   0.819
 1893TIP3   OH2 5684   4.348   0.190   0.672
 1893TIP3    H1 5685   4.424   0.136   0.652
 1893TIP3    H2 5686   4.315   0.218   0.586
 1894TIP3   OH2 5687   4.525   5.675   2.988
 1894TIP3    H1 5688   4.572   5.751   3.021
 1894TIP3    H2 5689   4.555   5.666   2.897
 1895TIP3   OH2 5690   0.640   4.859   3.286
 1895TIP3    H1 5691   0.678   4.863   3.198
 1895TIP3    H2 5692   0.668   4.940   3.329
 1896TIP3   OH2 5693   1.054   2.552   1.366
 1896TIP3    H1 5694   1.081   2.533   1.456
 1896TIP3    H2 5695   1.126   2.604   1.331
 1897TIP3   OH2 5696   2.880   2.487   4.520
 1897TIP3    H1 5697   2.902   2.568   4.566
 1897TIP3    H2 5698   2.958   2.431   4.530
 1898TIP3   OH2 5699   1.248   2.738   0.852
 1898TIP3    H1 5700   1.160   2.764   0.824
 1898TIP3    H2 5701   1.239   2.646   0.878
 1899TIP3   OH2 5702   4.335   3.428   3.854
 1899TIP3    H1 5703   4.290   3.368   3.794
 1899TIP3    H2 5704   4.265   3.464   3.908
 1900TIP3   OH2 5705   6.077   2.984   4.166
 1900TIP3    H1 5706   6.062   2.894   4.139
 1900TIP3    H2 5707   6.042   2.989   4.255
 1901TIP3   OH2 5708   5.137   5.778   0.867
 1901TIP3    H1 5709   5.133   5.793   0.773
 1901TIP3    H2 5710   5.090   5.695   0.880
 1902TIP3   OH2 5711   5.122   4.081   0.641
 1902TIP3    H1 5712   5.093   3.994   0.612
 1902TIP3    H2 5713   5.218   4.079   0.632
 1903TIP3   OH2 5714   0.123   3.544   4.119
 1903TIP3    H1 5715   0.066   3.542   4.197
 1903TIP3    H2 5716   0.091   3.472   4.065
 1904TIP3   OH2 5717   1.089   2.644   2.204
 1904TIP3    H1 5718   1.095   2.654   2.299
 1904TIP3    H2 5719   1.173   2.675   2.171
 1905TIP3   OH2 5720   2.290   3.095   4.771
 1905TIP3    H1 5721   2.313   3.009   4.736
 1905TIP3    H2 5722   2.373   3.143   4.774
 1906TIP3   OH2 5723   4.129   2.346   0.158
 1906TIP3    H1 5724   4.124   2.406   0.233
 1906TIP3    H2 5725   4.193   2.387   0.099
 1907TIP3   OH2 5726   0.379   2.865   4.339
 1907TIP3    H1 5727   0.289   2.831   4.342
 1907TIP3    H2 5728   0.396   2.879   4.246
 1908TIP3   OH2 5729   4.208   2.929   3.041
 1908TIP3    H1 5730   4.131   2.974   3.075
 1908TIP3    H2 5731   4.269   2.925   3.115
 1909TIP3   OH2 5732   3.992   0.463   2.782
 1909TIP3    H1 5733   3.903   0.472   2.817
 1909TIP3    H2 5734   4.005   0.369   2.771
 1910TIP3   OH2 5735   5.102   2.803   1.165
 1910TIP3    H1 5736   5.017   2.820   1.126
 1910TIP3    H2 5737   5.165   2.833   1.099
 1911TIP3   OH2 5738   0.066   3.708   0.519
 1911TIP3    H1 5739   0.137   3.739   0.464
 1911TIP3    H2 5740   0.003   3.671   0.458
 1912TIP3   OH2 5741   5.514   0.388   3.634
 1912TIP3    H1 5742   5.446   0.383   3.702
 1912TIP3    H2 5743   5.468   0.371   3.552
 1913TIP3   OH2 5744   0.241   2.020   1.507
 1913TIP3    H1 5745   0.262   1.954   1.574
 1913TIP3    H2 5746   0.227   1.969   1.427
 1914TIP3   OH2 5747   4.442   5.462   3.577
 1914TIP3    H1 5748   4.524   5.466   3.626
 1914TIP3    H2 5749   4.460   5.511   3.497
 1915TIP3   OH2 5750   3.956   5.837   3.492
 1915TIP3    H1 5751   3.932   5.809   3.580
 1915TIP3    H2 5752   3.914   5.922   3.481
 1916TIP3   OH2 5753   5.375   2.367   4.431
 1916TIP3    H1 5754   5.354   2.274   4.431
 1916TIP3    H2 5755   5.396   2.386   4.339
 1917TIP3   OH2 5756   5.613   0.551   3.928
 1917TIP3    H1 5757   5.614   0.587   3.840
 1917TIP3    H2 5758   5.526   0.512   3.937
 1918TIP3   OH2 5759   5.475   1.204   4.142
 1918TIP3    H1 5760   5.477   1.233   4.233
 1918TIP3    H2 5761   5.563   1.171   4.126
 1919TIP3   OH2 5762   3.603   2.191   1.465
 1919TIP3    H1 5763   3.674   2.183   1.529
 1919TIP3    H2 5764   3.544   2.257   1.502
 1920TIP3   OH2 5765   0.990   3.416   2.421
 1920TIP3    H1 5766   0.921   3.479   2.398
 1920TIP3    H2 5767   1.011   3.374   2.338
 1921TIP3   OH2 5768   3.660   2.575   3.316
 1921TIP3    H1 5769   3.627   2.651   3.268
 1921TIP3    H2 5770   3.584   2.541   3.363
 1922TIP3   OH2 5771   2.366   2.907   0.526
 1922TIP3    H1 5772   2.409   2.985   0.562
 1922TIP3    H2 5773   2.408   2.893   0.441
 1923TIP3   OH2 5774   4.282   4.793   3.429
 1923TIP3    H1 5775   4.350   4.743   3.474
 1923TIP3    H2 5776   4.291   4.882   3.463
 1924TIP3   OH2 5777   4.220   4.632   0.303
 1924TIP3    H1 5778   4.235   4.538   0.314
 1924TIP3    H2 5779   4.303   4.666   0.269
 1925TIP3   OH2 5780   2.671   2.012   0.751
 1925TIP3    H1 5781   2.654   2.076   0.682
 1925TIP3    H2 5782   2.623   1.934   0.724
 1926TIP3   OH2 5783   1.801   4.137   2.842
 1926TIP3    H1 5784   1.729   4.167   2.898
 1926TIP3    H2 5785   1.818   4.047   2.872
 1927TIP3   OH2 5786   3.339   4.876   0.556
 1927TIP3    H1 5787   3.405   4.934   0.520
 1927TIP3    H2 5788   3.293   4.928   0.622
 1928TIP3   OH2 5789   1.298   1.741   2.651
 1928TIP3    H1 5790   1.281   1.808   2.584
 1928TIP3    H2 5791   1.257   1.776   2.730
 1929TIP3   OH2 5792   2.403   0.104   1.359
 1929TIP3    H1 5793   2.385   0.017   1.395
 1929TIP3    H2 5794   2.415   0.089   1.265
 1930TIP3   OH2 5795   1.242   1.457   4.518
 1930TIP3    H1 5796   1.178   1.524   4.541
 1930TIP3    H2 5797   1.326   1.498   4.534
 1931TIP3   OH2 5798   5.804   5.177   0.205
 1931TIP3    H1 5799   5.815   5.134   0.290
 1931TIP3    H2 5800   5.715   5.212   0.208
 1932TIP3   OH2 5801   3.851   1.561   3.040
 1932TIP3    H1 5802   3.773   1.585   3.090
 1932TIP3    H2 5803   3.910   1.636   3.051
 1933TIP3   OH2 5804   6.221   5.905   4.144
 1933TIP3    H1 5805   6.245   5.820   4.106
 1933TIP3    H2 5806   6.132   5.921   4.113
 1934TIP3   OH2 5807   3.190   1.045   4.019
 1934TIP3    H1 5808   3.159   0.962   3.983
 1934TIP3    H2 5809   3.267   1.067   3.967
 1935TIP3   OH2 5810   3.552   0.865   1.884
 1935TIP3    H1 5811   3.527   0.772   1.890
 1935TIP3    H2 5812   3.633   0.871   1.935
 1936TIP3   OH2 5813   1.486   5.325   4.994
 1936TIP3    H1 5814   1.535   5.247   4.969
 1936TIP3    H2 5815   1.394   5.302   4.980
 1937TIP3   OH2 5816   1.564   5.606   1.150
 1937TIP3    H1 5817   1.584   5.698   1.134
 1937TIP3    H2 5818   1.578   5.563   1.066
 1938TIP3   OH2 5819   0.410   4.128   3.009
 1938TIP3    H1 5820   0.376   4.044   3.040
 1938TIP3    H2 5821   0.448   4.169   3.087
 1939TIP3   OH2 5822   3.854   3.333   4.318
 1939TIP3    H1 5823   3.893   3.247   4.333
 1939TIP3    H2 5824   3.770   3.315   4.277
 1940TIP3   OH2 5825   0.311   0.547   3.055
 1940TIP3    H1 5826   0.316   0.631   3.101
 1940TIP3    H2 5827   0.395   0.505   3.074
 1941TIP3   OH2 5828   1.632   4.284   5.045
 1941TIP3    H1 5829   1.661   4.200   5.010
 1941TIP3    H2 5830   1.569   4.261   5.113
 1942TIP3   OH2 5831   0.253   0.433   4.092
 1942TIP3    H1 5832   0.331   0.397   4.050
 1942TIP3    H2 5833   0.239   0.379   4.169
 1943TIP3   OH2 5834   0.897   0.226   0.971
 1943TIP3    H1 5835   0.852   0.143   0.956
 1943TIP3    H2 5836   0.843   0.271   1.037
 1944TIP3   OH2 5837   1.452   4.460   3.816
 1944TIP3    H1 5838   1.465   4.414   3.733
 1944TIP3    H2 5839   1.538   4.459   3.858
 1945TIP3   OH2 5840   2.869   0.604   0.221
 1945TIP3    H1 5841   2.945   0.559   0.184
 1945TIP3    H2 5842   2.866   0.688   0.175
 1946TIP3   OH2 5843   3.422   4.684   4.462
 1946TIP3    H1 5844   3.496   4.626   4.444
 1946TIP3    H2 5845   3.423   4.695   4.557
 1947TIP3   OH2 5846   1.877   2.884   0.856
 1947TIP3    H1 5847   1.879   2.889   0.951
 1947TIP3    H2 5848   1.785   2.868   0.834
 1948TIP3   OH2 5849   0.006   4.174   3.464
 1948TIP3    H1 5850   0.063   4.223   3.405
 1948TIP3    H2 5851  -0.070   4.231   3.477
 1949TIP3   OH2 5852   0.791   4.168   3.660
 1949TIP3    H1 5853   0.748   4.172   3.746
 1949TIP3    H2 5854   0.869   4.224   3.670
 1950TIP3   OH2 5855   1.829   0.423   4.683
 1950TIP3    H1 5856   1.874   0.339   4.678
 1950TIP3    H2 5857   1.899   0.486   4.700
 1951TIP3   OH2 5858   4.349   0.389   2.416
 1951TIP3    H1 5859   4.384   0.323   2.476
 1951TIP3    H2 5860   4.268   0.351   2.382
 1952TIP3   OH2 5861   3.177   5.254   1.953
 1952TIP3    H1 5862   3.236   5.180   1.937
 1952TIP3    H2 5863   3.151   5.244   2.044
 1953TIP3   OH2 5864   5.436   4.538   4.379
 1953TIP3    H1 5865   5.349   4.572   4.396
 1953TIP3    H2 5866   5.434   4.448   4.411
 1954TIP3   OH2 5867   3.397   0.181   1.809
 1954TIP3    H1 5868   3.362   0.200   1.896
 1954TIP3    H2 5869   3.353   0.244   1.752
 1955TIP3   OH2 5870   1.673   0.100   0.455
 1955TIP3    H1 5871   1.594   0.058   0.489
 1955TIP3    H2 5872   1.642   0.152   0.381
 1956TIP3   OH2 5873   2.668   1.950   2.024
 1956TIP3    H1 5874   2.574   1.965   2.032
 1956TIP3    H2 5875   2.704   1.983   2.106
 1957TIP3   OH2 5876   6.079   2.919   2.940
 1957TIP3    H1 5877   6.112   2.943   2.854
 1957TIP3    H2 5878   5.984   2.928   2.932
 1958TIP3   OH2 5879   1.704   4.246   4.078
 1958TIP3    H1 5880   1.692   4.286   3.992
 1958TIP3    H2 5881   1.616   4.224   4.107
 1959TIP3   OH2 5882   4.236   3.563   4.921
 1959TIP3    H1 5883   4.284   3.619   4.860
 1959TIP3    H2 5884   4.245   3.606   5.006
 1960TIP3   OH2 5885   3.909   5.508   1.744
 1960TIP3    H1 5886   3.986   5.453   1.755
 1960TIP3    H2 5887   3.927   5.586   1.796
 1961TIP3   OH2 5888   1.957   4.525   2.574
 1961TIP3    H1 5889   1.984   4.474   2.651
 1961TIP3    H2 5890   1.975   4.616   2.598
 1962TIP3   OH2 5891   5.129   1.812   0.106
 1962TIP3    H1 5892   5.087   1.898   0.104
 1962TIP3    H2 5893   5.175   1.810   0.190
 1963TIP3   OH2 5894   5.148   1.584   2.517
 1963TIP3    H1 5895   5.176   1.522   2.585
 1963TIP3    H2 5896   5.229   1.608   2.473
 1964TIP3   OH2 5897   4.779   4.560   0.248
 1964TIP3    H1 5898   4.848   4.558   0.182
 1964TIP3    H2 5899   4.786   4.475   0.293
 1965TIP3   OH2 5900   3.666   4.752   1.064
 1965TIP3    H1 5901   3.664   4.784   0.974
 1965TIP3    H2 5902   3.759   4.735   1.081
 1966TIP3   OH2 5903   0.972   4.224   3.085
 1966TIP3    H1 5904   1.000   4.183   3.167
 1966TIP3    H2 5905   0.886   4.185   3.067
 1967TIP3   OH2 5906   5.053   3.296   3.329
 1967TIP3    H1 5907   4.995   3.255   3.392
 1967TIP3    H2 5908   5.114   3.348   3.382
 1968TIP3   OH2 5909   1.319   4.040   4.489
 1968TIP3    H1 5910   1.267   4.106   4.535
 1968TIP3    H2 5911   1.258   4.002   4.425
 1969TIP3   OH2 5912   5.357   1.038   4.531
 1969TIP3    H1 5913   5.293   1.040   4.459
 1969TIP3    H2 5914   5.408   0.959   4.515
 1970TIP3   OH2 5915   1.084   1.527   0.863
 1970TIP3    H1 5916   1.077   1.488   0.776
 1970TIP3    H2 5917   1.082   1.453   0.923
 1971TIP3   OH2 5918   5.714   2.580   1.453
 1971TIP3    H1 5919   5.721   2.625   1.538
 1971TIP3    H2 5920   5.805   2.558   1.431
 1972TIP3   OH2 5921   6.258   5.231   4.362
 1972TIP3    H1 5922   6.273   5.286   4.439
 1972TIP3    H2 5923   6.344   5.196   4.341
 1973TIP3   OH2 5924   1.067   4.555   1.204
 1973TIP3    H1 5925   1.078   4.460   1.210
 1973TIP3    H2 5926   1.062   4.573   1.110
 1974TIP3   OH2 5927   2.444   2.096   0.920
 1974TIP3    H1 5928   2.516   2.033   0.922
 1974TIP3    H2 5929   2.408   2.089   0.831
 1975TIP3   OH2 5930   5.656   3.750   4.961
 1975TIP3    H1 5931   5.740   3.745   4.916
 1975TIP3    H2 5932   5.597   3.791   4.897
 1976TIP3   OH2 5933   5.240   0.114   4.563
 1976TIP3    H1 5934   5.283   0.188   4.520
 1976TIP3    H2 5935   5.175   0.083   4.498
 1977TIP3   OH2 5936   3.713   1.570   4.593
 1977TIP3    H1 5937   3.727   1.527   4.508
 1977TIP3    H2 5938   3.718   1.499   4.657
 1978TIP3   OH2 5939   2.471   5.707   2.714
 1978TIP3    H1 5940   2.520   5.676   2.637
 1978TIP3    H2 5941   2.539   5.725   2.779
 1979TIP3   OH2 5942   1.948   4.626   0.713
 1979TIP3    H1 5943   2.026   4.659   0.669
 1979TIP3    H2 5944   1.901   4.577   0.646
 1980TIP3   OH2 5945   3.243   1.859   1.989
 1980TIP3    H1 5946   3.335   1.839   2.005
 1980TIP3    H2 5947   3.244   1.945   1.945
 1981TIP3   OH2 5948   5.151   4.573   4.430
 1981TIP3    H1 5949   5.101   4.654   4.420
 1981TIP3    H2 5950   5.162   4.564   4.525
 1982TIP3   OH2 5951   1.953   5.617   3.022
 1982TIP3    H1 5952   1.898   5.579   2.954
 1982TIP3    H2 5953   2.041   5.587   3.001
 1983TIP3   OH2 5954   4.780   5.542   4.687
 1983TIP3    H1 5955   4.827   5.524   4.768
 1983TIP3    H2 5956   4.694   5.574   4.715
 1984TIP3   OH2 5957   5.623   1.265   1.775
 1984TIP3    H1 5958   5.545   1.219   1.745
 1984TIP3    H2 5959   5.634   1.238   1.866
 1985TIP3   OH2 5960   3.343   4.003   2.304
 1985TIP3    H1 5961   3.330   3.992   2.398
 1985TIP3    H2 5962   3.254   4.007   2.268
 1986TIP3   OH2 5963   0.727   0.906   2.935
 1986TIP3    H1 5964   0.675   0.982   2.908
 1986TIP3    H2 5965   0.702   0.890   3.026
 1987TIP3   OH2 5966   4.518   4.914   3.099
 1987TIP3    H1 5967   4.515   4.898   3.004
 1987TIP3    H2 5968   4.468   4.994   3.111
 1988TIP3   OH2 5969   5.349   3.651   4.547
 1988TIP3    H1 5970   5.336   3.686   4.635
 1988TIP3    H2 5971   5.442   3.668   4.529
 1989TIP3   OH2 5972   3.420   2.645   1.666
 1989TIP3    H1 5973   3.337   2.664   1.711
 1989TIP3    H2 5974   3.428   2.549   1.672
 1990TIP3   OH2 5975   2.332   2.838   4.699
 1990TIP3    H1 5976   2.414   2.793   4.721
 1990TIP3    H2 5977   2.292   2.785   4.631
 1991TIP3   OH2 5978   2.409   0.468   3.076
 1991TIP3    H1 5979   2.477   0.507   3.129
 1991TIP3    H2 5980   2.448   0.387   3.043
 1992TIP3   OH2 5981   5.005   0.320   4.288
 1992TIP3    H1 5982   4.993   0.360   4.202
 1992TIP3    H2 5983   4.916   0.298   4.316
 1993TIP3   OH2 5984   0.989   2.530   3.800
 1993TIP3    H1 5985   0.989   2.541   3.705
 1993TIP3    H2 5986   1.004   2.436   3.813
 1994TIP3   OH2 5987   5.733   5.229   1.950
 1994TIP3    H1 5988   5.788   5.255   2.024
 1994TIP3    H2 5989   5.673   5.303   1.938
 1995TIP3   OH2 5990   4.991   5.388   3.885
 1995TIP3    H1 5991   4.998   5.306   3.934
 1995TIP3    H2 5992   5.052   5.378   3.812
 1996TIP3   OH2 5993   2.658   3.109   0.018
 1996TIP3    H1 5994   2.705   3.099   0.101
 1996TIP3    H2 5995   2.725   3.098  -0.049
 1997TIP3   OH2 5996   4.130   4.370   5.108
 1997TIP3    H1 5997   4.073   4.299   5.140
 1997TIP3    H2 5998   4.162   4.411   5.188
 1998TIP3   OH2 5999   5.015   5.035   4.665
 1998TIP3    H1 6000   5.081   5.057   4.599
 1998TIP3    H2 6001   5.028   5.099   4.735
 1999TIP3   OH2 6002   2.725   2.590   1.705
 1999TIP3    H1 6003   2.780   2.641   1.644
 1999TIP3    H2 6004   2.639   2.630   1.697
 2000TIP3   OH2 6005   0.240   2.250   2.868
 2000TIP3    H1 6006   0.317   2.203   2.835
 2000TIP3    H2 6007   0.272   2.296   2.945
 2001TIP3   OH2 6008   0.763   0.529   4.913
 2001TIP3    H1 6009   0.774   0.622   4.931
 2001TIP3    H2 6010   0.677   0.522   4.873
 2002TIP3   OH2 6011   4.996   0.424   2.061
 2002TIP3    H1 6012   5.037   0.503   2.026
 2002TIP3    H2 6013   4.908   0.424   2.026
 2003TIP3   OH2 6014   4.282   1.054   1.349
 2003TIP3    H1 6015   4.318   0.967   1.334
 2003TIP3    H2 6016   4.337   1.112   1.296
 2004TIP3   OH2 6017   0.308   5.432   2.008
 2004TIP3    H1 6018   0.331   5.485   1.931
 2004TIP3    H2 6019   0.393   5.408   2.045
 2005TIP3   OH2 6020   5.075   0.373   0.923
 2005TIP3    H1 6021   5.108   0.294   0.967
 2005TIP3    H2 6022   5.048   0.343   0.836
 2006TIP3   OH2 6023   0.554   5.836   2.137
 2006TIP3    H1 6024   0.562   5.762   2.076
 2006TIP3    H2 6025   0.533   5.911   2.081
 2007TIP3   OH2 6026   3.894   1.118   0.763
 2007TIP3    H1 6027   3.824   1.154   0.817
 2007TIP3    H2 6028   3.853   1.100   0.679
 2008TIP3   OH2 6029   0.208   0.648   1.495
 2008TIP3    H1 6030   0.140   0.581   1.485
 2008TIP3    H2 6031   0.281   0.602   1.535
 2009TIP3   OH2 6032   5.363   4.856   2.607
 2009TIP3    H1 6033   5.379   4.932   2.552
 2009TIP3    H2 6034   5.268   4.849   2.612
 2010TIP3   OH2 6035   3.391   1.057   0.677
 2010TIP3    H1 6036   3.339   1.056   0.757
 2010TIP3    H2 6037   3.376   1.144   0.639
 2011TIP3   OH2 6038   5.690   0.926   3.529
 2011TIP3    H1 6039   5.774   0.923   3.482
 2011TIP3    H2 6040   5.643   0.999   3.490
 2012TIP3   OH2 6041   1.266   5.574   1.207
 2012TIP3    H1 6042   1.354   5.571   1.169
 2012TIP3    H2 6043   1.219   5.637   1.153
 2013TIP3   OH2 6044   5.392   1.602   1.906
 2013TIP3    H1 6045   5.317   1.651   1.874
 2013TIP3    H2 6046   5.358   1.550   1.979
 2014TIP3   OH2 6047   4.921   4.638   1.347
 2014TIP3    H1 6048   4.920   4.718   1.399
 2014TIP3    H2 6049   4.841   4.592   1.373
 2015TIP3   OH2 6050   5.186   0.360   5.172
 2015TIP3    H1 6051   5.273   0.319   5.173
 2015TIP3    H2 6052   5.173   0.387   5.081
 2016TIP3   OH2 6053   3.864   4.461   4.031
 2016TIP3    H1 6054   3.893   4.549   4.057
 2016TIP3    H2 6055   3.828   4.472   3.944
 2017TIP3   OH2 6056   1.955   1.718   3.333
 2017TIP3    H1 6057   1.917   1.631   3.323
 2017TIP3    H2 6058   2.003   1.733   3.251
 2018TIP3   OH2 6059   5.550   2.461   5.150
 2018TIP3    H1 6060   5.512   2.499   5.228
 2018TIP3    H2 6061   5.644   2.458   5.167
 2019TIP3   OH2 6062   3.240   0.732   1.767
 2019TIP3    H1 6063   3.180   0.696   1.701
 2019TIP3    H2 6064   3.222   0.681   1.846
 2020TIP3   OH2 6065   1.387   0.486   1.392
 2020TIP3    H1 6066   1.329   0.459   1.462
 2020TIP3    H2 6067   1.370   0.426   1.320
 2021TIP3   OH2 6068   2.154   2.370   4.652
 2021TIP3    H1 6069   2.116   2.297   4.702
 2021TIP3    H2 6070   2.125   2.355   4.563
 2022TIP3   OH2 6071   1.708   1.596   4.044
 2022TIP3    H1 6072   1.671   1.604   4.131
 2022TIP3    H2 6073   1.747   1.508   4.042
 2023TIP3   OH2 6074   5.107   2.605   1.357
 2023TIP3    H1 6075   5.122   2.690   1.314
 2023TIP3    H2 6076   5.045   2.560   1.299
 2024TIP3   OH2 6077   2.725   4.044   1.737
 2024TIP3    H1 6078   2.633   4.053   1.762
 2024TIP3    H2 6079   2.767   4.124   1.769
 2025TIP3   OH2 6080   3.487   1.302   3.930
 2025TIP3    H1 6081   3.500   1.218   3.886
 2025TIP3    H2 6082   3.423   1.348   3.875
 2026TIP3   OH2 6083   4.373   4.351   1.944
 2026TIP3    H1 6084   4.309   4.330   1.877
 2026TIP3    H2 6085   4.432   4.414   1.902
 2027TIP3   OH2 6086   6.010   0.731   2.403
 2027TIP3    H1 6087   5.936   0.689   2.447
 2027TIP3    H2 6088   6.043   0.664   2.343
 2028TIP3   OH2 6089   5.166   4.625   4.702
 2028TIP3    H1 6090   5.228   4.697   4.709
 2028TIP3    H2 6091   5.209   4.552   4.748
 2029TIP3   OH2 6092   6.216   0.635   2.591
 2029TIP3    H1 6093   6.144   0.674   2.541
 2029TIP3    H2 6094   6.173   0.596   2.668
 2030TIP3   OH2 6095   2.386   5.150   3.387
 2030TIP3    H1 6096   2.372   5.126   3.295
 2030TIP3    H2 6097   2.338   5.232   3.398
 2031TIP3   OH2 6098   3.557   1.746   1.662
 2031TIP3    H1 6099   3.481   1.801   1.678
 2031TIP3    H2 6100   3.556   1.683   1.735
 2032TIP3   OH2 6101   0.471   4.208   4.187
 2032TIP3    H1 6102   0.401   4.208   4.122
 2032TIP3    H2 6103   0.426   4.191   4.270
 2033TIP3   OH2 6104   6.097   2.255   0.198
 2033TIP3    H1 6105   6.130   2.335   0.239
 2033TIP3    H2 6106   6.170   2.193   0.204
 2034TIP3   OH2 6107   5.502   2.726   4.018
 2034TIP3    H1 6108   5.591   2.709   3.989
 2034TIP3    H2 6109   5.466   2.786   3.954
 2035TIP3   OH2 6110   2.467   5.109   4.011
 2035TIP3    H1 6111   2.535   5.045   3.987
 2035TIP3    H2 6112   2.493   5.189   3.966
 2036TIP3   OH2 6113   5.194   2.241   4.648
 2036TIP3    H1 6114   5.191   2.272   4.558
 2036TIP3    H2 6115   5.163   2.314   4.701
 2037TIP3   OH2 6116   0.807   1.244   1.049
 2037TIP3    H1 6117   0.843   1.158   1.030
 2037TIP3    H2 6118   0.822   1.256   1.143
 2038TIP3   OH2 6119   5.847   2.964   1.065
 2038TIP3    H1 6120   5.811   3.032   1.121
 2038TIP3    H2 6121   5.876   2.896   1.126
 2039TIP3   OH2 6122   1.247   2.093   3.088
 2039TIP3    H1 6123   1.174   2.116   3.145
 2039TIP3    H2 6124   1.291   2.177   3.071
 2040TIP3   OH2 6125   3.136   2.368   4.552
 2040TIP3    H1 6126   3.196   2.423   4.501
 2040TIP3    H2 6127   3.127   2.413   4.635
 2041TIP3   OH2 6128   2.656   3.716   4.835
 2041TIP3    H1 6129   2.680   3.684   4.921
 2041TIP3    H2 6130   2.736   3.705   4.782
 2042TIP3   OH2 6131   4.595   1.524   0.693
 2042TIP3    H1 6132   4.676   1.486   0.660
 2042TIP3    H2 6133   4.580   1.479   0.776
 2043TIP3   OH2 6134   2.738   1.405   1.601
 2043TIP3    H1 6135   2.799   1.331   1.614
 2043TIP3    H2 6136   2.656   1.364   1.574
 2044TIP3   OH2 6137   4.471   1.069   3.624
 2044TIP3    H1 6138   4.396   1.036   3.674
 2044TIP3    H2 6139   4.435   1.142   3.573
 2045TIP3   OH2 6140   3.708   1.543   1.302
 2045TIP3    H1 6141   3.682   1.461   1.261
 2045TIP3    H2 6142   3.786   1.521   1.353
 2046TIP3   OH2 6143   2.720   4.301   3.501
 2046TIP3    H1 6144   2.805   4.288   3.543
 2046TIP3    H2 6145   2.709   4.223   3.445
 2047TIP3   OH2 6146   3.849   3.180   4.845
 2047TIP3    H1 6147   3.871   3.272   4.858
 2047TIP3    H2 6148   3.776   3.164   4.905
 2048TIP3   OH2 6149   5.873   5.579   1.923
 2048TIP3    H1 6150   5.850   5.549   1.836
 2048TIP3    H2 6151   5.893   5.672   1.912
 2049TIP3   OH2 6152   1.801   2.289   1.967
 2049TIP3    H1 6153   1.888   2.284   1.927
 2049TIP3    H2 6154   1.811   2.353   2.038
 2050TIP3   OH2 6155   5.278   2.084   1.075
 2050TIP3    H1 6156   5.335   2.034   1.133
 2050TIP3    H2 6157   5.290   2.175   1.103
 2051TIP3   OH2 6158   5.568   2.974   4.222
 2051TIP3    H1 6159   5.539   2.890   4.259
 2051TIP3    H2 6160   5.655   2.955   4.186
 2052TIP3   OH2 6161   0.345   4.074   3.856
 2052TIP3    H1 6162   0.313   4.095   3.769
 2052TIP3    H2 6163   0.268   4.042   3.903
 2053TIP3   OH2 6164   2.197   5.077   4.038
 2053TIP3    H1 6165   2.154   5.108   3.959
 2053TIP3    H2 6166   2.288   5.106   4.029
 2054TIP3   OH2 6167   2.528   2.792   2.200
 2054TIP3    H1 6168   2.608   2.748   2.172
 2054TIP3    H2 6169   2.464   2.773   2.131
 2055TIP3   OH2 6170   5.291   5.284   4.090
 2055TIP3    H1 6171   5.234   5.284   4.166
 2055TIP3    H2 6172   5.242   5.238   4.022
 2056TIP3   OH2 6173   2.457   1.841   0.654
 2056TIP3    H1 6174   2.523   1.828   0.586
 2056TIP3    H2 6175   2.469   1.767   0.713
 2057TIP3   OH2 6176   1.885   2.256   4.086
 2057TIP3    H1 6177   1.918   2.187   4.143
 2057TIP3    H2 6178   1.962   2.287   4.038
 2058TIP3   OH2 6179   1.354   5.657   4.611
 2058TIP3    H1 6180   1.413   5.731   4.593
 2058TIP3    H2 6181   1.266   5.695   4.603
 2059TIP3   OH2 6182   5.273   2.562   2.599
 2059TIP3    H1 6183   5.259   2.570   2.504
 2059TIP3    H2 6184   5.301   2.650   2.627
 2060TIP3   OH2 6185   4.847   4.350   4.308
 2060TIP3    H1 6186   4.810   4.434   4.282
 2060TIP3    H2 6187   4.792   4.320   4.380
 2061TIP3   OH2 6188   1.285   3.996   0.905
 2061TIP3    H1 6189   1.210   4.003   0.963
 2061TIP3    H2 6190   1.361   4.006   0.962
 2062TIP3   OH2 6191   5.576   2.344   1.826
 2062TIP3    H1 6192   5.562   2.342   1.921
 2062TIP3    H2 6193   5.566   2.436   1.802
 2063TIP3   OH2 6194   3.981   2.406   1.754
 2063TIP3    H1 6195   4.042   2.401   1.827
 2063TIP3    H2 6196   3.944   2.494   1.760
 2064TIP3   OH2 6197   2.127   5.365   1.295
 2064TIP3    H1 6198   2.113   5.416   1.375
 2064TIP3    H2 6199   2.086   5.281   1.313
 2065TIP3   OH2 6200   5.681   1.269   3.030
 2065TIP3    H1 6201   5.751   1.281   3.093
 2065TIP3    H2 6202   5.679   1.175   3.013
 2066TIP3   OH2 6203   4.683   5.797   4.443
 2066TIP3    H1 6204   4.612   5.846   4.401
 2066TIP3    H2 6205   4.639   5.723   4.486
 2067TIP3   OH2 6206   6.033   4.696   4.946
 2067TIP3    H1 6207   6.077   4.617   4.976
 2067TIP3    H2 6208   6.048   4.760   5.017
 2068TIP3   OH2 6209   0.310   5.621   4.200
 2068TIP3    H1 6210   0.303   5.569   4.280
 2068TIP3    H2 6211   0.225   5.611   4.157
 2069TIP3   OH2 6212   3.520   0.166   3.848
 2069TIP3    H1 6213   3.496   0.085   3.892
 2069TIP3    H2 6214   3.564   0.138   3.768
 2070TIP3   OH2 6215   4.092   2.349   1.075
 2070TIP3    H1 6216   4.144   2.291   1.130
 2070TIP3    H2 6217   4.142   2.431   1.073
 2071TIP3   OH2 6218   3.734   2.270   4.254
 2071TIP3    H1 6219   3.772   2.254   4.341
 2071TIP3    H2 6220   3.810   2.287   4.198
 2072TIP3   OH2 6221   2.570   4.690   4.826
 2072TIP3    H1 6222   2.554   4.698   4.920
 2072TIP3    H2 6223   2.584   4.779   4.796
 2073TIP3   OH2 6224   1.073   3.550   3.897
 2073TIP3    H1 6225   1.114   3.572   3.980
 2073TIP3    H2 6226   1.011   3.480   3.918
 2074TIP3   OH2 6227   5.107   4.865   4.368
 2074TIP3    H1 6228   5.102   4.908   4.282
 2074TIP3    H2 6229   5.186   4.901   4.408
 2075TIP3   OH2 6230   4.912   3.801   1.682
 2075TIP3    H1 6231   4.840   3.864   1.673
 2075TIP3    H2 6232   4.984   3.852   1.719
 2076TIP3   OH2 6233   0.632   2.097   4.570
 2076TIP3    H1 6234   0.613   2.179   4.614
 2076TIP3    H2 6235   0.618   2.116   4.477
 2077TIP3   OH2 6236   0.103   2.238   0.200
 2077TIP3    H1 6237   0.115   2.184   0.122
 2077TIP3    H2 6238   0.187   2.234   0.245
 2078TIP3   OH2 6239   3.305   1.010   3.364
 2078TIP3    H1 6240   3.359   1.084   3.335
 2078TIP3    H2 6241   3.318   0.943   3.298
 2079TIP3   OH2 6242   1.314   5.785   4.277
 2079TIP3    H1 6243   1.236   5.748   4.318
 2079TIP3    H2 6244   1.369   5.814   4.350
 2080TIP3   OH2 6245   4.144   1.264   2.673
 2080TIP3    H1 6246   4.192   1.275   2.755
 2080TIP3    H2 6247   4.059   1.304   2.690
 2081TIP3   OH2 6248   1.581   3.269   3.772
 2081TIP3    H1 6249   1.527   3.192   3.788
 2081TIP3    H2 6250   1.671   3.236   3.771
 2082TIP3   OH2 6251   4.477   0.051   3.972
 2082TIP3    H1 6252   4.566   0.087   3.975
 2082TIP3    H2 6253   4.435   0.098   3.900
 2083TIP3   OH2 6254   4.799   5.897   4.842
 2083TIP3    H1 6255   4.751   5.975   4.867
 2083TIP3    H2 6256   4.735   5.843   4.794
 2084TIP3   OH2 6257   0.506   2.687   4.910
 2084TIP3    H1 6258   0.579   2.746   4.929
 2084TIP3    H2 6259   0.529   2.646   4.827
 2085TIP3   OH2 6260   3.779   0.033   2.586
 2085TIP3    H1 6261   3.731   0.092   2.644
 2085TIP3    H2 6262   3.748  -0.054   2.608
 2086TIP3   OH2 6263   4.709   2.752   2.694
 2086TIP3    H1 6264   4.628   2.756   2.745
 2086TIP3    H2 6265   4.679   2.731   2.605
 2087TIP3   OH2 6266   4.982   5.149   3.236
 2087TIP3    H1 6267   4.990   5.231   3.188
 2087TIP3    H2 6268   4.984   5.081   3.169
 2088TIP3   OH2 6269   4.064   1.209   1.897
 2088TIP3    H1 6270   3.970   1.230   1.899
 2088TIP3    H2 6271   4.099   1.246   1.977
 2089TIP3   OH2 6272   0.845   5.159   2.292
 2089TIP3    H1 6273   0.871   5.199   2.375
 2089TIP3    H2 6274   0.754   5.133   2.306
 2090TIP3   OH2 6275   5.526   5.830   2.799
 2090TIP3    H1 6276   5.479   5.913   2.805
 2090TIP3    H2 6277   5.459   5.764   2.818
 2091TIP3   OH2 6278   1.744   4.106   3.407
 2091TIP3    H1 6279   1.698   4.162   3.344
 2091TIP3    H2 6280   1.831   4.095   3.369
 2092TIP3   OH2 6281   4.851   0.615   4.259
 2092TIP3    H1 6282   4.842   0.595   4.166
 2092TIP3    H2 6283   4.763   0.603   4.294
 2093TIP3   OH2 6284   3.633   1.507   2.239
 2093TIP3    H1 6285   3.549   1.535   2.201
 2093TIP3    H2 6286   3.614   1.494   2.332
 2094TIP3   OH2 6287   1.790   1.709   2.636
 2094TIP3    H1 6288   1.864   1.719   2.576
 2094TIP3    H2 6289   1.822   1.742   2.720
 2095TIP3   OH2 6290   0.092   1.907   1.869
 2095TIP3    H1 6291   0.079   2.001   1.856
 2095TIP3    H2 6292   0.019   1.881   1.925
 2096TIP3   OH2 6293   1.913   2.960   0.067
 2096TIP3    H1 6294   1.983   2.899   0.042
 2096TIP3    H2 6295   1.952   3.015   0.134
 2097TIP3   OH2 6296   4.319   5.073   0.868
 2097TIP3    H1 6297   4.390   5.015   0.841
 2097TIP3    H2 6298   4.270   5.090   0.788
 2098TIP3   OH2 6299   0.171   1.484   0.253
 2098TIP3    H1 6300   0.122   1.470   0.172
 2098TIP3    H2 6301   0.109   1.463   0.322
 2099TIP3   OH2 6302   3.430   3.413   2.313
 2099TIP3    H1 6303   3.518   3.399   2.277
 2099TIP3    H2 6304   3.410   3.504   2.293
 2100TIP3   OH2 6305   2.366   3.836   5.092
 2100TIP3    H1 6306   2.292   3.861   5.147
 2100TIP3    H2 6307   2.430   3.906   5.105
 2101TIP3   OH2 6308   5.962   5.631   1.346
 2101TIP3    H1 6309   5.927   5.558   1.398
 2101TIP3    H2 6310   5.937   5.611   1.256
 2102TIP3   OH2 6311   4.965   2.201   4.856
 2102TIP3    H1 6312   5.047   2.243   4.831
 2102TIP3    H2 6313   4.940   2.244   4.938
 2103TIP3   OH2 6314   5.435   4.700   0.923
 2103TIP3    H1 6315   5.354   4.746   0.946
 2103TIP3    H2 6316   5.505   4.757   0.954
 2104TIP3   OH2 6317   4.283   3.446   3.071
 2104TIP3    H1 6318   4.367   3.415   3.104
 2104TIP3    H2 6319   4.280   3.418   2.980
 2105TIP3   OH2 6320   5.098   0.975   1.216
 2105TIP3    H1 6321   5.023   0.957   1.158
 2105TIP3    H2 6322   5.121   0.889   1.251
 2106TIP3   OH2 6323   2.899   0.880   3.792
 2106TIP3    H1 6324   2.882   0.848   3.703
 2106TIP3    H2 6325   2.815   0.870   3.838
 2107TIP3   OH2 6326   4.296   1.726   2.395
 2107TIP3    H1 6327   4.234   1.769   2.455
 2107TIP3    H2 6328   4.327   1.796   2.338
 2108TIP3   OH2 6329   1.589   0.125   4.080
 2108TIP3    H1 6330   1.612   0.205   4.127
 2108TIP3    H2 6331   1.497   0.111   4.100
 2109TIP3   OH2 6332   3.848   4.110   4.522
 2109TIP3    H1 6333   3.790   4.173   4.565
 2109TIP3    H2 6334   3.919   4.164   4.486
 2110TIP3   OH2 6335   2.661   4.911   2.372
 2110TIP3    H1 6336   2.740   4.965   2.372
 2110TIP3    H2 6337   2.633   4.910   2.463
 2111TIP3   OH2 6338   4.533   4.610   4.805
 2111TIP3    H1 6339   4.577   4.686   4.843
 2111TIP3    H2 6340   4.529   4.546   4.876
 2112TIP3   OH2 6341   5.745   4.521   4.295
 2112TIP3    H1 6342   5.780   4.606   4.268
 2112TIP3    H2 6343   5.756   4.520   4.390
 2113TIP3   OH2 6344   5.149   3.542   2.518
 2113TIP3    H1 6345   5.155   3.483   2.443
 2113TIP3    H2 6346   5.240   3.558   2.543
 2114TIP3   OH2 6347   3.926   5.989   1.291
 2114TIP3    H1 6348   4.008   5.949   1.261
 2114TIP3    H2 6349   3.862   5.967   1.222
 2115TIP3   OH2 6350   3.855   0.742   1.818
 2115TIP3    H1 6351   3.857   0.764   1.725
 2115TIP3    H2 6352   3.828   0.823   1.861
 2116TIP3   OH2 6353   3.883   3.039   4.277
 2116TIP3    H1 6354   3.836   2.962   4.309
 2116TIP3    H2 6355   3.972   3.007   4.261
 2117TIP3   OH2 6356   1.630   4.036   4.917
 2117TIP3    H1 6357   1.544   4.070   4.892
 2117TIP3    H2 6358   1.635   3.951   4.875
 2118TIP3   OH2 6359   5.001   5.835   4.151
 2118TIP3    H1 6360   5.010   5.909   4.090
 2118TIP3    H2 6361   4.943   5.869   4.219
 2119TIP3   OH2 6362   0.344   2.173   0.291
 2119TIP3    H1 6363   0.397   2.109   0.244
 2119TIP3    H2 6364   0.392   2.256   0.280
 2120TIP3   OH2 6365   3.478   0.428   2.242
 2120TIP3    H1 6366   3.539   0.430   2.169
 2120TIP3    H2 6367   3.450   0.519   2.253
 2121TIP3   OH2 6368   4.557   4.640   3.410
 2121TIP3    H1 6369   4.606   4.714   3.374
 2121TIP3    H2 6370   4.555   4.575   3.339
 2122TIP3   OH2 6371   2.608   5.165   2.008
 2122TIP3    H1 6372   2.600   5.195   1.917
 2122TIP3    H2 6373   2.651   5.238   2.053
 2123TIP3   OH2 6374   5.298   1.962   0.569
 2123TIP3    H1 6375   5.204   1.954   0.588
 2123TIP3    H2 6376   5.338   1.887   0.614
 2124TIP3   OH2 6377   0.539   3.008   1.035
 2124TIP3    H1 6378   0.447   2.986   1.044
 2124TIP3    H2 6379   0.582   2.969   1.111
 2125TIP3   OH2 6380   0.359   3.685   4.207
 2125TIP3    H1 6381   0.286   3.639   4.165
 2125TIP3    H2 6382   0.383   3.754   4.145
 2126TIP3   OH2 6383   3.634   4.144   1.957
 2126TIP3    H1 6384   3.623   4.103   1.871
 2126TIP3    H2 6385   3.715   4.107   1.991
 2127TIP3   OH2 6386   5.865   4.095   3.792
 2127TIP3    H1 6387   5.926   4.032   3.830
 2127TIP3    H2 6388   5.811   4.124   3.865
 2128TIP3   OH2 6389   1.932   3.206   4.202
 2128TIP3    H1 6390   1.942   3.173   4.290
 2128TIP3    H2 6391   1.839   3.231   4.196
 2129TIP3   OH2 6392   2.507   0.137   2.378
 2129TIP3    H1 6393   2.532   0.216   2.331
 2129TIP3    H2 6394   2.453   0.168   2.451
 2130TIP3   OH2 6395   2.901   1.971   1.883
 2130TIP3    H1 6396   2.846   1.911   1.934
 2130TIP3    H2 6397   2.884   2.057   1.921
 2131TIP3   OH2 6398   6.080   2.734   2.292
 2131TIP3    H1 6399   6.094   2.705   2.202
 2131TIP3    H2 6400   5.989   2.762   2.295
 2132TIP3   OH2 6401   2.842   4.894   1.242
 2132TIP3    H1 6402   2.878   4.941   1.167
 2132TIP3    H2 6403   2.916   4.881   1.301
 2133TIP3   OH2 6404   2.935   5.374   1.853
 2133TIP3    H1 6405   2.925   5.288   1.894
 2133TIP3    H2 6406   2.941   5.435   1.927
 2134TIP3   OH2 6407   0.219   5.400   4.384
 2134TIP3    H1 6408   0.189   5.333   4.322
 2134TIP3    H2 6409   0.150   5.403   4.451
 2135TIP3   OH2 6410   1.724   3.470   3.405
 2135TIP3    H1 6411   1.768   3.448   3.488
 2135TIP3    H2 6412   1.685   3.556   3.420
 2136TIP3   OH2 6413   5.095   4.312   1.556
 2136TIP3    H1 6414   5.183   4.280   1.541
 2136TIP3    H2 6415   5.057   4.252   1.620
 2137TIP3   OH2 6416   5.067   2.988   0.693
 2137TIP3    H1 6417   5.077   2.926   0.766
 2137TIP3    H2 6418   4.981   2.966   0.656
 2138TIP3   OH2 6419   0.206   3.046   5.033
 2138TIP3    H1 6420   0.167   2.963   5.062
 2138TIP3    H2 6421   0.135   3.092   4.988
 2139TIP3   OH2 6422   5.966   3.040   3.237
 2139TIP3    H1 6423   5.997   2.952   3.261
 2139TIP3    H2 6424   5.873   3.040   3.261
 2140TIP3   OH2 6425   1.479   1.231   0.646
 2140TIP3    H1 6426   1.446   1.141   0.640
 2140TIP3    H2 6427   1.402   1.285   0.631
 2141TIP3   OH2 6428   3.888   1.026   2.854
 2141TIP3    H1 6429   3.844   1.101   2.815
 2141TIP3    H2 6430   3.941   0.989   2.784
 2142TIP3   OH2 6431   4.185   2.186   2.678
 2142TIP3    H1 6432   4.185   2.158   2.769
 2142TIP3    H2 6433   4.111   2.245   2.670
 2143TIP3   OH2 6434   4.753   2.926   1.752
 2143TIP3    H1 6435   4.666   2.953   1.722
 2143TIP3    H2 6436   4.747   2.930   1.847
 2144TIP3   OH2 6437   2.610   4.832   3.379
 2144TIP3    H1 6438   2.608   4.882   3.460
 2144TIP3    H2 6439   2.634   4.744   3.405
 2145TIP3   OH2 6440   5.522   4.609   2.491
 2145TIP3    H1 6441   5.485   4.563   2.417
 2145TIP3    H2 6442   5.452   4.667   2.521
 2146TIP3   OH2 6443   2.636   4.073   1.050
 2146TIP3    H1 6444   2.611   3.983   1.070
 2146TIP3    H2 6445   2.635   4.078   0.955
 2147TIP3   OH2 6446   1.292   0.732   5.147
 2147TIP3    H1 6447   1.264   0.823   5.139
 2147TIP3    H2 6448   1.369   0.726   5.091
 2148TIP3   OH2 6449   6.075   2.271   4.467
 2148TIP3    H1 6450   6.006   2.252   4.403
 2148TIP3    H2 6451   6.095   2.364   4.454
 2149TIP3   OH2 6452   2.295   1.565   4.878
 2149TIP3    H1 6453   2.291   1.587   4.971
 2149TIP3    H2 6454   2.294   1.469   4.876
 2150TIP3   OH2 6455   1.949   3.860   4.301
 2150TIP3    H1 6456   1.956   3.946   4.261
 2150TIP3    H2 6457   1.991   3.870   4.387
 2151TIP3   OH2 6458   2.890   5.142   1.995
 2151TIP3    H1 6459   2.800   5.111   1.989
 2151TIP3    H2 6460   2.923   5.103   2.076
 2152TIP3   OH2 6461   4.897   4.705   3.642
 2152TIP3    H1 6462   4.831   4.635   3.640
 2152TIP3    H2 6463   4.934   4.705   3.554
 2153TIP3   OH2 6464   0.856   3.632   0.374
 2153TIP3    H1 6465   0.863   3.629   0.278
 2153TIP3    H2 6466   0.887   3.546   0.402
 2154TIP3   OH2 6467   5.019   1.197   0.859
 2154TIP3    H1 6468   5.099   1.147   0.842
 2154TIP3    H2 6469   5.035   1.239   0.944
 2155TIP3   OH2 6470   5.786   0.453   4.402
 2155TIP3    H1 6471   5.866   0.458   4.350
 2155TIP3    H2 6472   5.770   0.359   4.414
 2156TIP3   OH2 6473   5.771   0.761   0.060
 2156TIP3    H1 6474   5.808   0.683   0.101
 2156TIP3    H2 6475   5.712   0.727  -0.008
 2157TIP3   OH2 6476   4.049   5.278   0.489
 2157TIP3    H1 6477   3.977   5.339   0.506
 2157TIP3    H2 6478   4.121   5.334   0.459
 2158TIP3   OH2 6479   4.717   3.513   1.045
 2158TIP3    H1 6480   4.806   3.510   1.010
 2158TIP3    H2 6481   4.680   3.427   1.025
 2159TIP3   OH2 6482   5.194   3.122   3.605
 2159TIP3    H1 6483   5.103   3.137   3.631
 2159TIP3    H2 6484   5.223   3.207   3.571
 2160TIP3   OH2 6485   0.781   3.592   2.430
 2160TIP3    H1 6486   0.821   3.586   2.516
 2160TIP3    H2 6487   0.717   3.663   2.438
 2161TIP3   OH2 6488   1.222   4.436   1.918
 2161TIP3    H1 6489   1.151   4.397   1.868
 2161TIP3    H2 6490   1.293   4.372   1.913
 2162TIP3   OH2 6491   3.651   3.231   0.767
 2162TIP3    H1 6492   3.572   3.190   0.803
 2162TIP3    H2 6493   3.709   3.158   0.745
 2163TIP3   OH2 6494   5.158   5.555   1.287
 2163TIP3    H1 6495   5.083   5.614   1.289
 2163TIP3    H2 6496   5.198   5.564   1.374
 2164TIP3   OH2 6497   3.838   3.097   2.601
 2164TIP3    H1 6498   3.856   3.113   2.508
 2164TIP3    H2 6499   3.771   3.163   2.624
 2165TIP3   OH2 6500   5.254   0.461   1.210
 2165TIP3    H1 6501   5.246   0.399   1.283
 2165TIP3    H2 6502   5.295   0.538   1.249
 2166TIP3   OH2 6503   0.630   2.890   1.307
 2166TIP3    H1 6504   0.569   2.927   1.372
 2166TIP3    H2 6505   0.576   2.828   1.257
 2167TIP3   OH2 6506   3.703   5.125   3.767
 2167TIP3    H1 6507   3.791   5.089   3.773
 2167TIP3    H2 6508   3.713   5.218   3.791
 2168TIP3   OH2 6509   1.273   5.822   2.072
 2168TIP3    H1 6510   1.337   5.867   2.127
 2168TIP3    H2 6511   1.190   5.865   2.092
 2169TIP3   OH2 6512   2.769   5.139   0.368
 2169TIP3    H1 6513   2.785   5.045   0.370
 2169TIP3    H2 6514   2.854   5.179   0.389
 2170TIP3   OH2 6515   2.030   0.454   0.894
 2170TIP3    H1 6516   1.940   0.423   0.904
 2170TIP3    H2 6517   2.061   0.467   0.983
 2171TIP3   OH2 6518   3.904   0.788   1.038
 2171TIP3    H1 6519   3.939   0.734   0.967
 2171TIP3    H2 6520   3.850   0.853   0.994
 2172TIP3   OH2 6521   3.361   2.100   3.340
 2172TIP3    H1 6522   3.288   2.133   3.393
 2172TIP3    H2 6523   3.409   2.043   3.400
 2173TIP3   OH2 6524   3.324   5.768   2.659
 2173TIP3    H1 6525   3.233   5.784   2.684
 2173TIP3    H2 6526   3.363   5.856   2.652
 2174TIP3   OH2 6527   2.931   1.289   0.704
 2174TIP3    H1 6528   2.929   1.300   0.609
 2174TIP3    H2 6529   2.901   1.199   0.718
 2175TIP3   OH2 6530   1.414   1.536   5.124
 2175TIP3    H1 6531   1.489   1.595   5.126
 2175TIP3    H2 6532   1.449   1.454   5.089
 2176TIP3   OH2 6533   3.061   3.785   3.428
 2176TIP3    H1 6534   3.017   3.708   3.392
 2176TIP3    H2 6535   3.069   3.765   3.522
 2177TIP3   OH2 6536   2.485   1.819   1.811
 2177TIP3    H1 6537   2.554   1.756   1.791
 2177TIP3    H2 6538   2.429   1.819   1.734
 2178TIP3   OH2 6539   1.815   5.090   2.776
 2178TIP3    H1 6540   1.827   5.097   2.681
 2178TIP3    H2 6541   1.835   4.999   2.796
 2179TIP3   OH2 6542   4.107   2.901   3.476
 2179TIP3    H1 6543   4.042   2.901   3.405
 2179TIP3    H2 6544   4.076   2.969   3.536
 2180TIP3   OH2 6545   2.324   1.751   4.334
 2180TIP3    H1 6546   2.356   1.688   4.398
 2180TIP3    H2 6547   2.229   1.744   4.337
 2181TIP3   OH2 6548   2.544   1.605   4.824
 2181TIP3    H1 6549   2.462   1.587   4.869
 2181TIP3    H2 6550   2.519   1.611   4.731
 2182TIP3   OH2 6551   0.169   2.476   2.231
 2182TIP3    H1 6552   0.223   2.518   2.298
 2182TIP3    H2 6553   0.147   2.548   2.171
 2183TIP3   OH2 6554   1.859   5.707   3.894
 2183TIP3    H1 6555   1.887   5.797   3.914
 2183TIP3    H2 6556   1.940   5.659   3.881
 2184TIP3   OH2 6557   0.762   4.086   3.417
 2184TIP3    H1 6558   0.673   4.096   3.384
 2184TIP3    H2 6559   0.758   4.118   3.508
 2185TIP3   OH2 6560   4.203   3.690   2.744
 2185TIP3    H1 6561   4.293   3.661   2.731
 2185TIP3    H2 6562   4.210   3.770   2.795
 2186TIP3   OH2 6563   1.143   1.664   0.117
 2186TIP3    H1 6564   1.085   1.656   0.194
 2186TIP3    H2 6565   1.083   1.671   0.043
 2187TIP3   OH2 6566   2.106   0.017   0.599
 2187TIP3    H1 6567   2.087  -0.047   0.668
 2187TIP3    H2 6568   2.103   0.102   0.643
 2188TIP3   OH2 6569   6.197   0.883   1.622
 2188TIP3    H1 6570   6.165   0.971   1.641
 2188TIP3    H2 6571   6.231   0.888   1.533
 2189TIP3   OH2 6572  -0.018   5.404   4.557
 2189TIP3    H1 6573  -0.084   5.473   4.565
 2189TIP3    H2 6574   0.006   5.384   4.648
 2190TIP3   OH2 6575   3.113   0.019   0.496
 2190TIP3    H1 6576   3.192  -0.026   0.528
 2190TIP3    H2 6577   3.107   0.098   0.550
 2191TIP3   OH2 6578   5.062   3.817   3.187
 2191TIP3    H1 6579   5.098   3.754   3.124
 2191TIP3    H2 6580   5.035   3.764   3.261
 2192TIP3   OH2 6581   1.426   5.691   0.890
 2192TIP3    H1 6582   1.490   5.763   0.888
 2192TIP3    H2 6583   1.479   5.613   0.875
 2193TIP3   OH2 6584   2.206   1.306   3.789
 2193TIP3    H1 6585   2.237   1.325   3.877
 2193TIP3    H2 6586   2.284   1.314   3.734
 2194TIP3   OH2 6587   1.170   4.225   2.467
 2194TIP3    H1 6588   1.103   4.165   2.434
 2194TIP3    H2 6589   1.174   4.207   2.561
 2195TIP3   OH2 6590   3.494   5.083   3.209
 2195TIP3    H1 6591   3.466   5.015   3.270
 2195TIP3    H2 6592   3.572   5.046   3.167
 2196TIP3   OH2 6593   4.232   5.642   1.780
 2196TIP3    H1 6594   4.196   5.579   1.843
 2196TIP3    H2 6595   4.278   5.706   1.834
 2197TIP3   OH2 6596   5.229   1.780   4.541
 2197TIP3    H1 6597   5.236   1.695   4.585
 2197TIP3    H2 6598   5.318   1.802   4.516
 2198TIP3   OH2 6599   2.245   5.832   3.406
 2198TIP3    H1 6600   2.256   5.922   3.376
 2198TIP3    H2 6601   2.187   5.792   3.342
 2199TIP3   OH2 6602   2.744   0.661   2.888
 2199TIP3    H1 6603   2.655   0.670   2.922
 2199TIP3    H2 6604   2.743   0.708   2.805
 2200TIP3   OH2 6605   0.432   0.768   5.015
 2200TIP3    H1 6606   0.349   0.734   4.981
 2200TIP3    H2 6607   0.420   0.771   5.110
 2201TIP3   OH2 6608   2.455   1.395   2.733
 2201TIP3    H1 6609   2.415   1.456   2.795
 2201TIP3    H2 6610   2.445   1.309   2.775
 2202TIP3   OH2 6611   5.383   4.241   4.158
 2202TIP3    H1 6612   5.288   4.235   4.169
 2202TIP3    H2 6613   5.418   4.211   4.242
 2203TIP3   OH2 6614   0.945   3.394   2.874
 2203TIP3    H1 6615   0.935   3.300   2.859
 2203TIP3    H2 6616   1.035   3.413   2.845
 2204TIP3   OH2 6617   3.582   3.415   0.998
 2204TIP3    H1 6618   3.522   3.362   1.049
 2204TIP3    H2 6619   3.596   3.494   1.051
 2205TIP3   OH2 6620   0.021   0.977   0.590
 2205TIP3    H1 6621   0.092   0.934   0.542
 2205TIP3    H2 6622  -0.030   0.906   0.627
 2206TIP3   OH2 6623   2.245   2.463   0.382
 2206TIP3    H1 6624   2.156   2.487   0.355
 2206TIP3    H2 6625   2.237   2.441   0.475
 2207TIP3   OH2 6626   2.115   5.264   1.947
 2207TIP3    H1 6627   2.045   5.297   1.891
 2207TIP3    H2 6628   2.126   5.173   1.921
 2208TIP3   OH2 6629   4.736   1.256   0.183
 2208TIP3    H1 6630   4.776   1.171   0.199
 2208TIP3    H2 6631   4.645   1.245   0.212
 2209TIP3   OH2 6632   1.414   1.732   2.980
 2209TIP3    H1 6633   1.437   1.779   2.900
 2209TIP3    H2 6634   1.359   1.793   3.029
 2210TIP3   OH2 6635   4.816   5.985   1.297
 2210TIP3    H1 6636   4.728   6.018   1.279
 2210TIP3    H2 6637   4.828   5.913   1.235
 2211TIP3   OH2 6638   3.146   2.531   4.772
 2211TIP3    H1 6639   3.159   2.584   4.850
 2211TIP3    H2 6640   3.092   2.458   4.801
 2212TIP3   OH2 6641   3.507   4.110   4.731
 2212TIP3    H1 6642   3.563   4.170   4.682
 2212TIP3    H2 6643   3.508   4.144   4.821
 2213TIP3   OH2 6644   2.726   0.196   2.139
 2213TIP3    H1 6645   2.756   0.286   2.130
 2213TIP3    H2 6646   2.766   0.165   2.220
 2214TIP3   OH2 6647   3.948   1.751   0.779
 2214TIP3    H1 6648   4.012   1.697   0.732
 2214TIP3    H2 6649   3.945   1.713   0.867
 2215TIP3   OH2 6650   3.598   6.006   1.666
 2215TIP3    H1 6651   3.689   6.020   1.692
 2215TIP3    H2 6652   3.585   5.911   1.671
 2216TIP3   OH2 6653   2.019   2.207   2.322
 2216TIP3    H1 6654   1.970   2.288   2.309
 2216TIP3    H2 6655   2.083   2.229   2.391
 2217TIP3   OH2 6656   1.251   0.527   4.827
 2217TIP3    H1 6657   1.284   0.438   4.817
 2217TIP3    H2 6658   1.172   0.529   4.772
 2218TIP3   OH2 6659   1.908   0.593   0.706
 2218TIP3    H1 6660   1.954   0.523   0.751
 2218TIP3    H2 6661   1.818   0.562   0.700
 2219TIP3   OH2 6662   5.104   3.628   1.930
 2219TIP3    H1 6663   5.034   3.577   1.970
 2219TIP3    H2 6664   5.099   3.608   1.837
 2220TIP3   OH2 6665   4.269   5.588   3.055
 2220TIP3    H1 6666   4.298   5.658   3.114
 2220TIP3    H2 6667   4.347   5.565   3.005
 2221TIP3   OH2 6668   3.219   5.178   2.871
 2221TIP3    H1 6669   3.272   5.119   2.817
 2221TIP3    H2 6670   3.195   5.125   2.947
 2222TIP3   OH2 6671   3.729   2.556   3.650
 2222TIP3    H1 6672   3.643   2.598   3.647
 2222TIP3    H2 6673   3.761   2.574   3.739
 2223TIP3   OH2 6674   5.624   4.926   4.769
 2223TIP3    H1 6675   5.621   4.974   4.687
 2223TIP3    H2 6676   5.693   4.969   4.820
 2224TIP3   OH2 6677   0.950   1.708   2.236
 2224TIP3    H1 6678   0.940   1.707   2.141
 2224TIP3    H2 6679   0.913   1.793   2.263
 2225TIP3   OH2 6680   0.819   4.346   0.746
 2225TIP3    H1 6681   0.754   4.335   0.815
 2225TIP3    H2 6682   0.773   4.325   0.665
 2226TIP3   OH2 6683   2.016   4.698   1.746
 2226TIP3    H1 6684   2.017   4.606   1.772
 2226TIP3    H2 6685   1.931   4.711   1.705
 2227TIP3   OH2 6686   0.975   0.009   2.966
 2227TIP3    H1 6687   1.066   0.009   2.997
 2227TIP3    H2 6688   0.977   0.062   2.886
 2228TIP3   OH2 6689   6.158   5.589   3.644
 2228TIP3    H1 6690   6.184   5.583   3.552
 2228TIP3    H2 6691   6.065   5.566   3.645
 2229TIP3   OH2 6692   1.078   3.338   1.887
 2229TIP3    H1 6693   1.125   3.414   1.855
 2229TIP3    H2 6694   1.045   3.295   1.809
 2230TIP3   OH2 6695   2.020   2.712   1.750
 2230TIP3    H1 6696   2.044   2.782   1.690
 2230TIP3    H2 6697   2.080   2.640   1.729
 2231TIP3   OH2 6698   2.893   5.866   0.373
 2231TIP3    H1 6699   2.945   5.925   0.319
 2231TIP3    H2 6700   2.950   5.790   0.386
 2232TIP3   OH2 6701   6.105   3.427   2.326
 2232TIP3    H1 6702   6.156   3.492   2.277
 2232TIP3    H2 6703   6.154   3.346   2.315
 2233TIP3   OH2 6704   2.594   4.029   5.034
 2233TIP3    H1 6705   2.679   3.999   5.066
 2233TIP3    H2 6706   2.596   4.011   4.939
 2234TIP3   OH2 6707   0.681   0.928   4.135
 2234TIP3    H1 6708   0.760   0.926   4.190
 2234TIP3    H2 6709   0.653   0.837   4.129
 2235TIP3   OH2 6710   4.087   1.419   3.548
 2235TIP3    H1 6711   4.035   1.353   3.593
 2235TIP3    H2 6712   4.122   1.474   3.618
 2236TIP3   OH2 6713   1.062   2.417   2.951
 2236TIP3    H1 6714   1.098   2.429   3.039
 2236TIP3    H2 6715   1.026   2.503   2.928
 2237TIP3   OH2 6716   5.090   4.654   4.985
 2237TIP3    H1 6717   5.169   4.609   5.012
 2237TIP3    H2 6718   5.117   4.745   4.970
 2238TIP3   OH2 6719   5.399   3.402   4.159
 2238TIP3    H1 6720   5.419   3.386   4.251
 2238TIP3    H2 6721   5.312   3.441   4.159
 2239TIP3   OH2 6722   5.513   1.060   0.944
 2239TIP3    H1 6723   5.553   1.067   0.857
 2239TIP3    H2 6724   5.537   0.972   0.973
 2240TIP3   OH2 6725   5.109   1.434   1.637
 2240TIP3    H1 6726   5.151   1.412   1.720
 2240TIP3    H2 6727   5.161   1.387   1.571
 2241TIP3   OH2 6728   3.464   4.323   3.642
 2241TIP3    H1 6729   3.413   4.316   3.722
 2241TIP3    H2 6730   3.419   4.390   3.590
 2242TIP3   OH2 6731   3.280   1.508   0.402
 2242TIP3    H1 6732   3.207   1.461   0.363
 2242TIP3    H2 6733   3.344   1.516   0.331
 2243TIP3   OH2 6734   1.664   3.742   3.423
 2243TIP3    H1 6735   1.627   3.760   3.510
 2243TIP3    H2 6736   1.591   3.754   3.363
 2244TIP3   OH2 6737   1.528   2.783   3.161
 2244TIP3    H1 6738   1.613   2.743   3.142
 2244TIP3    H2 6739   1.545   2.877   3.157
 2245TIP3   OH2 6740   2.468   4.082   1.861
 2245TIP3    H1 6741   2.428   4.077   1.947
 2245TIP3    H2 6742   2.422   4.154   1.817
 2246TIP3   OH2 6743   6.280   0.156   3.812
 2246TIP3    H1 6744   6.260   0.208   3.890
 2246TIP3    H2 6745   6.368   0.122   3.828
 2247TIP3   OH2 6746   5.058   3.456   4.900
 2247TIP3    H1 6747   4.972   3.450   4.860
 2247TIP3    H2 6748   5.044   3.436   4.992
 2248TIP3   OH2 6749   3.154   5.288   3.444
 2248TIP3    H1 6750   3.130   5.381   3.440
 2248TIP3    H2 6751   3.071   5.241   3.441
 2249TIP3   OH2 6752   1.630   2.408   2.507
 2249TIP3    H1 6753   1.599   2.321   2.481
 2249TIP3    H2 6754   1.723   2.395   2.527
 2250TIP3   OH2 6755   5.098   3.726   4.249
 2250TIP3    H1 6756   5.136   3.803   4.292
 2250TIP3    H2 6757   5.016   3.709   4.296
 2251TIP3   OH2 6758   6.255   4.304   0.897
 2251TIP3    H1 6759   6.328   4.243   0.910
 2251TIP3    H2 6760   6.294   4.390   0.915
 2252TIP3   OH2 6761   3.981   4.332   0.336
 2252TIP3    H1 6762   3.925   4.394   0.289
 2252TIP3    H2 6763   3.973   4.358   0.428
 2253TIP3   OH2 6764   3.127   4.267   3.060
 2253TIP3    H1 6765   3.128   4.189   3.004
 2253TIP3    H2 6766   3.218   4.279   3.086
 2254TIP3   OH2 6767   4.812   1.433   1.494
 2254TIP3    H1 6768   4.902   1.445   1.524
 2254TIP3    H2 6769   4.798   1.503   1.430
 2255TIP3   OH2 6770   2.579   0.637   1.414
 2255TIP3    H1 6771   2.545   0.583   1.342
 2255TIP3    H2 6772   2.661   0.673   1.379
 2256TIP3   OH2 6773   6.224   4.445   2.305
 2256TIP3    H1 6774   6.237   4.524   2.358
 2256TIP3    H2 6775   6.141   4.460   2.259
 2257TIP3   OH2 6776   1.382   1.018   5.074
 2257TIP3    H1 6777   1.367   1.037   5.167
 2257TIP3    H2 6778   1.320   1.074   5.028
 2258TIP3   OH2 6779   3.008   3.257   2.687
 2258TIP3    H1 6780   3.048   3.341   2.665
 2258TIP3    H2 6781   2.915   3.269   2.667
 2259TIP3   OH2 6782   6.190   4.965   1.709
 2259TIP3    H1 6783   6.143   4.882   1.707
 2259TIP3    H2 6784   6.203   4.983   1.802
 2260TIP3   OH2 6785   5.609   0.578   1.762
 2260TIP3    H1 6786   5.617   0.642   1.833
 2260TIP3    H2 6787   5.697   0.543   1.752
 2261TIP3   OH2 6788   5.312   0.684   4.092
 2261TIP3    H1 6789   5.238   0.720   4.141
 2261TIP3    H2 6790   5.330   0.600   4.133
 2262TIP3   OH2 6791   3.539   4.910   1.230
 2262TIP3    H1 6792   3.568   4.846   1.165
 2262TIP3    H2 6793   3.478   4.861   1.285
 2263TIP3   OH2 6794   2.151   0.153   4.476
 2263TIP3    H1 6795   2.218   0.113   4.420
 2263TIP3    H2 6796   2.072   0.154   4.421
 2264TIP3   OH2 6797   5.412   0.403   2.622
 2264TIP3    H1 6798   5.377   0.382   2.708
 2264TIP3    H2 6799   5.489   0.347   2.614
 2265TIP3   OH2 6800   3.531   1.897   4.163
 2265TIP3    H1 6801   3.496   1.840   4.094
 2265TIP3    H2 6802   3.563   1.974   4.116
 2266TIP3   OH2 6803   1.912   3.031   1.885
 2266TIP3    H1 6804   1.854   2.982   1.827
 2266TIP3    H2 6805   1.964   3.085   1.826
 2267TIP3   OH2 6806   6.303   4.692   4.067
 2267TIP3    H1 6807   6.384   4.656   4.032
 2267TIP3    H2 6808   6.240   4.683   3.996
 2268TIP3   OH2 6809   1.243   4.215   3.457
 2268TIP3    H1 6810   1.216   4.220   3.549
 2268TIP3    H2 6811   1.161   4.208   3.408
 2269TIP3   OH2 6812   0.801   3.933   1.474
 2269TIP3    H1 6813   0.782   4.004   1.412
 2269TIP3    H2 6814   0.775   3.969   1.559
 2270TIP3   OH2 6815   6.164   3.241   4.049
 2270TIP3    H1 6816   6.128   3.154   4.067
 2270TIP3    H2 6817   6.115   3.300   4.106
 2271TIP3   OH2 6818   2.489   3.039   2.829
 2271TIP3    H1 6819   2.537   2.957   2.840
 2271TIP3    H2 6820   2.399   3.018   2.854
 2272TIP3   OH2 6821   1.467   5.145   0.550
 2272TIP3    H1 6822   1.391   5.197   0.524
 2272TIP3    H2 6823   1.442   5.055   0.529
 2273TIP3   OH2 6824   0.299   5.878   4.090
 2273TIP3    H1 6825   0.311   5.785   4.109
 2273TIP3    H2 6826   0.242   5.879   4.013
 2274TIP3   OH2 6827   0.260   1.726   5.174
 2274TIP3    H1 6828   0.194   1.787   5.205
 2274TIP3    H2 6829   0.310   1.775   5.109
 2275TIP3   OH2 6830   5.252   2.142   4.172
 2275TIP3    H1 6831   5.229   2.059   4.129
 2275TIP3    H2 6832   5.320   2.117   4.235
 2276TIP3   OH2 6833   3.664   3.120   4.141
 2276TIP3    H1 6834   3.685   3.143   4.051
 2276TIP3    H2 6835   3.746   3.087   4.178
 2277TIP3   OH2 6836   3.172   2.655   0.786
 2277TIP3    H1 6837   3.097   2.657   0.845
 2277TIP3    H2 6838   3.150   2.717   0.716
 2278TIP3   OH2 6839   1.956   1.734   4.888
 2278TIP3    H1 6840   1.975   1.647   4.921
 2278TIP3    H2 6841   2.030   1.788   4.919
 2279TIP3   OH2 6842   2.585   2.660   4.473
 2279TIP3    H1 6843   2.649   2.607   4.424
 2279TIP3    H2 6844   2.518   2.598   4.501
 2280TIP3   OH2 6845   0.560   0.675   4.144
 2280TIP3    H1 6846   0.587   0.626   4.222
 2280TIP3    H2 6847   0.472   0.706   4.165
 2281TIP3   OH2 6848   5.401   3.553   5.008
 2281TIP3    H1 6849   5.366   3.544   4.919
 2281TIP3    H2 6850   5.419   3.463   5.036
 2282TIP3   OH2 6851   4.954   2.273   2.942
 2282TIP3    H1 6852   5.021   2.329   2.902
 2282TIP3    H2 6853   4.935   2.314   3.026
 2283TIP3   OH2 6854   4.484   5.134   2.616
 2283TIP3    H1 6855   4.473   5.112   2.523
 2283TIP3    H2 6856   4.544   5.068   2.650
 2284TIP3   OH2 6857   6.321   1.343   2.495
 2284TIP3    H1 6858   6.305   1.357   2.402
 2284TIP3    H2 6859   6.272   1.263   2.516
 2285TIP3   OH2 6860   3.347   4.413   5.040
 2285TIP3    H1 6861   3.276   4.401   4.977
 2285TIP3    H2 6862   3.377   4.503   5.026
 2286TIP3   OH2 6863   3.518   5.519   1.009
 2286TIP3    H1 6864   3.457   5.449   1.032
 2286TIP3    H2 6865   3.595   5.503   1.063
 2287TIP3   OH2 6866   2.265   3.880   1.434
 2287TIP3    H1 6867   2.304   3.835   1.359
 2287TIP3    H2 6868   2.317   3.960   1.443
 2288TIP3   OH2 6869   2.315   3.965   2.599
 2288TIP3    H1 6870   2.245   4.031   2.594
 2288TIP3    H2 6871   2.275   3.885   2.564
 2289TIP3   OH2 6872   0.402   2.671   3.759
 2289TIP3    H1 6873   0.496   2.685   3.751
 2289TIP3    H2 6874   0.366   2.706   3.677
 2290TIP3   OH2 6875   3.484   2.072   0.935
 2290TIP3    H1 6876   3.495   2.057   1.029
 2290TIP3    H2 6877   3.518   1.992   0.894
 2291TIP3   OH2 6878   0.827   1.486   4.519
 2291TIP3    H1 6879   0.897   1.551   4.525
 2291TIP3    H2 6880   0.822   1.464   4.426
 2292TIP3   OH2 6881   2.397   2.664   2.902
 2292TIP3    H1 6882   2.413   2.656   2.997
 2292TIP3    H2 6883   2.480   2.699   2.868
 2293TIP3   OH2 6884   2.856   5.966   1.169
 2293TIP3    H1 6885   2.906   6.001   1.096
 2293TIP3    H2 6886   2.921   5.952   1.238
 2294TIP3   OH2 6887   0.854   1.183   4.405
 2294TIP3    H1 6888   0.768   1.204   4.368
 2294TIP3    H2 6889   0.871   1.093   4.375
 2295TIP3   OH2 6890   5.350   1.048   1.827
 2295TIP3    H1 6891   5.393   0.993   1.892
 2295TIP3    H2 6892   5.392   1.025   1.744
 2296TIP3   OH2 6893   0.023   3.721   4.691
 2296TIP3    H1 6894   0.067   3.664   4.755
 2296TIP3    H2 6895   0.014   3.805   4.737
 2297TIP3   OH2 6896   0.615   2.521   1.316
 2297TIP3    H1 6897   0.598   2.584   1.246
 2297TIP3    H2 6898   0.584   2.565   1.395
 2298TIP3   OH2 6899   1.625   2.608   2.906
 2298TIP3    H1 6900   1.579   2.600   2.989
 2298TIP3    H2 6901   1.572   2.557   2.844
 2299TIP3   OH2 6902   6.197   1.240   3.328
 2299TIP3    H1 6903   6.193   1.336   3.331
 2299TIP3    H2 6904   6.248   1.216   3.406
 2300TIP3   OH2 6905   5.230   0.532   0.138
 2300TIP3    H1 6906   5.288   0.608   0.126
 2300TIP3    H2 6907   5.288   0.462   0.167
 2301TIP3   OH2 6908   5.039   3.345   5.160
 2301TIP3    H1 6909   4.957   3.391   5.179
 2301TIP3    H2 6910   5.036   3.267   5.216
 2302TIP3   OH2 6911   4.794   4.942   3.705
 2302TIP3    H1 6912   4.847   4.863   3.692
 2302TIP3    H2 6913   4.810   4.995   3.628
 2303TIP3   OH2 6914   5.238   2.717   0.208
 2303TIP3    H1 6915   5.198   2.680   0.287
 2303TIP3    H2 6916   5.323   2.749   0.237
 2304TIP3   OH2 6917   0.352   2.006   3.218
 2304TIP3    H1 6918   0.414   1.977   3.151
 2304TIP3    H2 6919   0.402   2.069   3.270
 2305TIP3   OH2 6920   3.855   5.919   1.582
 2305TIP3    H1 6921   3.933   5.962   1.617
 2305TIP3    H2 6922   3.845   5.957   1.494
 2306TIP3   OH2 6923   0.120   2.773   2.350
 2306TIP3    H1 6924   0.207   2.737   2.366
 2306TIP3    H2 6925   0.094   2.737   2.265
 2307TIP3   OH2 6926   1.996   1.211   3.226
 2307TIP3    H1 6927   2.085   1.178   3.214
 2307TIP3    H2 6928   1.999   1.257   3.310
 2308TIP3   OH2 6929   3.030   1.899   1.007
 2308TIP3    H1 6930   2.987   1.849   1.077
 2308TIP3    H2 6931   3.093   1.954   1.052
 2309TIP3   OH2 6932   1.837   5.370   0.267
 2309TIP3    H1 6933   1.781   5.357   0.344
 2309TIP3    H2 6934   1.922   5.397   0.302
 2310TIP3   OH2 6935   2.251   4.380   3.357
 2310TIP3    H1 6936   2.325   4.409   3.304
 2310TIP3    H2 6937   2.257   4.284   3.357
 2311TIP3   OH2 6938   1.376   5.070   2.771
 2311TIP3    H1 6939   1.309   5.134   2.747
 2311TIP3    H2 6940   1.366   4.999   2.708
 2312TIP3   OH2 6941   4.120   3.085   4.529
 2312TIP3    H1 6942   4.134   3.179   4.537
 2312TIP3    H2 6943   4.122   3.053   4.619
 2313TIP3   OH2 6944   5.342   0.217   1.074
 2313TIP3    H1 6945   5.273   0.164   1.034
 2313TIP3    H2 6946   5.314   0.227   1.165
 2314TIP3   OH2 6947   2.684   4.735   1.388
 2314TIP3    H1 6948   2.738   4.789   1.331
 2314TIP3    H2 6949   2.597   4.775   1.385
 2315TIP3   OH2 6950   4.925   4.245   4.838
 2315TIP3    H1 6951   4.872   4.303   4.782
 2315TIP3    H2 6952   4.963   4.304   4.903
 2316TIP3   OH2 6953   0.873   5.794   1.819
 2316TIP3    H1 6954   0.813   5.851   1.772
 2316TIP3    H2 6955   0.960   5.816   1.785
 2317TIP3   OH2 6956   5.584   0.251   2.364
 2317TIP3    H1 6957   5.532   0.172   2.355
 2317TIP3    H2 6958   5.520   0.322   2.376
 2318TIP3   OH2 6959   1.082   3.166   3.321
 2318TIP3    H1 6960   1.077   3.101   3.250
 2318TIP3    H2 6961   1.176   3.184   3.329
 2319TIP3   OH2 6962   1.061   3.996   2.700
 2319TIP3    H1 6963   0.996   3.995   2.630
 2319TIP3    H2 6964   1.080   4.088   2.715
 2320TIP3   OH2 6965   0.281   0.735   1.931
 2320TIP3    H1 6966   0.213   0.754   1.865
 2320TIP3    H2 6967   0.255   0.786   2.007
 2321TIP3   OH2 6968   0.160   3.452   0.935
 2321TIP3    H1 6969   0.164   3.527   0.877
 2321TIP3    H2 6970   0.067   3.439   0.951
 2322TIP3   OH2 6971   4.828   0.687   0.076
 2322TIP3    H1 6972   4.884   0.656   0.148
 2322TIP3    H2 6973   4.885   0.683  -0.001
 2323TIP3   OH2 6974   4.658   2.183   2.459
 2323TIP3    H1 6975   4.590   2.125   2.494
 2323TIP3    H2 6976   4.723   2.123   2.422
 2324TIP3   OH2 6977   5.971   4.455   5.059
 2324TIP3    H1 6978   5.882   4.477   5.084
 2324TIP3    H2 6979   6.025   4.488   5.131
 2325TIP3   OH2 6980   6.299   4.733   1.973
 2325TIP3    H1 6981   6.297   4.815   1.924
 2325TIP3    H2 6982   6.327   4.758   2.061
 2326TIP3   OH2 6983   6.213   5.881   1.691
 2326TIP3    H1 6984   6.216   5.788   1.714
 2326TIP3    H2 6985   6.166   5.883   1.607
 2327TIP3   OH2 6986   0.728   2.701   3.736
 2327TIP3    H1 6987   0.739   2.788   3.698
 2327TIP3    H2 6988   0.746   2.712   3.829
 2328TIP3   OH2 6989   5.044   4.827   1.932
 2328TIP3    H1 6990   5.035   4.876   1.851
 2328TIP3    H2 6991   5.134   4.795   1.932
 2329TIP3   OH2 6992   3.738   0.436   2.986
 2329TIP3    H1 6993   3.700   0.522   2.973
 2329TIP3    H2 6994   3.805   0.450   3.053
 2330TIP3   OH2 6995   3.373   4.640   0.656
 2330TIP3    H1 6996   3.419   4.643   0.740
 2330TIP3    H2 6997   3.373   4.731   0.626
 2331TIP3   OH2 6998   2.725   4.834   4.509
 2331TIP3    H1 6999   2.692   4.744   4.519
 2331TIP3    H2 7000   2.697   4.860   4.421
 2332TIP3   OH2 7001   0.900   5.334   0.497
 2332TIP3    H1 7002   0.843   5.411   0.491
 2332TIP3    H2 7003   0.906   5.317   0.591
 2333TIP3   OH2 7004   1.866   4.293   2.015
 2333TIP3    H1 7005   1.823   4.296   2.101
 2333TIP3    H2 7006   1.833   4.370   1.970
 2334TIP3   OH2 7007   2.896   0.268   0.247
 2334TIP3    H1 7008   2.960   0.287   0.316
 2334TIP3    H2 7009   2.856   0.186   0.274
 2335TIP3   OH2 7010   2.929   5.873   2.173
 2335TIP3    H1 7011   2.835   5.880   2.191
 2335TIP3    H2 7012   2.935   5.859   2.079
 2336TIP3   OH2 7013   0.197   1.300   3.848
 2336TIP3    H1 7014   0.242   1.218   3.830
 2336TIP3    H2 7015   0.104   1.277   3.847
 2337TIP3   OH2 7016   6.173   5.626   0.653
 2337TIP3    H1 7017   6.207   5.602   0.567
 2337TIP3    H2 7018   6.167   5.544   0.701
 2338TIP3   OH2 7019   3.727   3.877   4.415
 2338TIP3    H1 7020   3.763   3.959   4.449
 2338TIP3    H2 7021   3.783   3.809   4.453
 2339TIP3   OH2 7022   2.863   1.954   4.559
 2339TIP3    H1 7023   2.930   1.950   4.627
 2339TIP3    H2 7024   2.878   1.875   4.506
 2340TIP3   OH2 7025   5.738   2.598   1.729
 2340TIP3    H1 7026   5.787   2.667   1.775
 2340TIP3    H2 7027   5.796   2.522   1.732
 2341TIP3   OH2 7028   5.774   4.711   1.261
 2341TIP3    H1 7029   5.762   4.806   1.256
 2341TIP3    H2 7030   5.858   4.696   1.217
 2342TIP3   OH2 7031   1.587   2.007   1.977
 2342TIP3    H1 7032   1.646   1.935   2.001
 2342TIP3    H2 7033   1.568   1.993   1.885
 2343TIP3   OH2 7034   5.063   0.476   4.506
 2343TIP3    H1 7035   5.037   0.442   4.420
 2343TIP3    H2 7036   5.001   0.437   4.567
 2344TIP3   OH2 7037   2.331   1.285   0.279
 2344TIP3    H1 7038   2.407   1.232   0.254
 2344TIP3    H2 7039   2.312   1.337   0.201
 2345TIP3   OH2 7040   1.903   2.629   2.825
 2345TIP3    H1 7041   1.815   2.613   2.858
 2345TIP3    H2 7042   1.956   2.559   2.862
 2346TIP3   OH2 7043   5.326   4.689   4.104
 2346TIP3    H1 7044   5.377   4.700   4.024
 2346TIP3    H2 7045   5.376   4.627   4.156
 2347TIP3   OH2 7046   5.209   3.756   2.270
 2347TIP3    H1 7047   5.170   3.809   2.200
 2347TIP3    H2 7048   5.184   3.801   2.351
 2348TIP3   OH2 7049   1.175   1.867   2.885
 2348TIP3    H1 7050   1.089   1.832   2.906
 2348TIP3    H2 7051   1.174   1.956   2.921
 2349TIP3   OH2 7052   2.151   5.880   1.785
 2349TIP3    H1 7053   2.130   5.935   1.710
 2349TIP3    H2 7054   2.242   5.853   1.771
 2350TIP3   OH2 7055   5.309   2.785   5.048
 2350TIP3    H1 7056   5.311   2.785   4.952
 2350TIP3    H2 7057   5.269   2.870   5.070
 2351TIP3   OH2 7058   4.949   0.849   4.699
 2351TIP3    H1 7059   4.992   0.777   4.654
 2351TIP3    H2 7060   4.997   0.927   4.671
 2352TIP3   OH2 7061   2.960   5.875   1.437
 2352TIP3    H1 7062   2.885   5.816   1.428
 2352TIP3    H2 7063   3.036   5.822   1.414
 2353TIP3   OH2 7064   1.645   0.781   0.131
 2353TIP3    H1 7065   1.718   0.781   0.193
 2353TIP3    H2 7066   1.608   0.869   0.136
 2354TIP3   OH2 7067   2.584   2.090   3.431
 2354TIP3    H1 7068   2.631   2.141   3.496
 2354TIP3    H2 7069   2.504   2.140   3.414
 2355TIP3   OH2 7070   5.371   1.422   2.146
 2355TIP3    H1 7071   5.302   1.355   2.142
 2355TIP3    H2 7072   5.361   1.461   2.233
 2356TIP3   OH2 7073   5.714   1.518   4.331
 2356TIP3    H1 7074   5.783   1.474   4.281
 2356TIP3    H2 7075   5.645   1.452   4.338
 2357TIP3   OH2 7076   0.252   0.659   4.830
 2357TIP3    H1 7077   0.218   0.671   4.741
 2357TIP3    H2 7078   0.186   0.698   4.887
 2358TIP3   OH2 7079   5.181   3.509   1.285
 2358TIP3    H1 7080   5.264   3.522   1.330
 2358TIP3    H2 7081   5.117   3.497   1.355
 2359TIP3   OH2 7082   2.748   3.630   5.070
 2359TIP3    H1 7083   2.723   3.569   5.139
 2359TIP3    H2 7084   2.772   3.710   5.115
 2360TIP3   OH2 7085   3.083   0.732   4.516
 2360TIP3    H1 7086   3.066   0.765   4.604
 2360TIP3    H2 7087   3.025   0.656   4.507
 2361TIP3   OH2 7088   1.996   2.957   1.617
 2361TIP3    H1 7089   2.055   3.029   1.640
 2361TIP3    H2 7090   1.989   2.962   1.522
 2362TIP3   OH2 7091   0.890   4.917   3.488
 2362TIP3    H1 7092   0.905   4.970   3.411
 2362TIP3    H2 7093   0.962   4.938   3.547
 2363TIP3   OH2 7094   1.489   5.222   1.272
 2363TIP3    H1 7095   1.452   5.309   1.287
 2363TIP3    H2 7096   1.448   5.193   1.190
 2364TIP3   OH2 7097   0.851   4.585   3.147
 2364TIP3    H1 7098   0.767   4.540   3.131
 2364TIP3    H2 7099   0.847   4.610   3.240
 2365TIP3   OH2 7100   1.529   1.301   4.186
 2365TIP3    H1 7101   1.496   1.391   4.192
 2365TIP3    H2 7102   1.473   1.259   4.121
 2366TIP3   OH2 7103   4.648   5.224   4.818
 2366TIP3    H1 7104   4.637   5.130   4.833
 2366TIP3    H2 7105   4.660   5.232   4.724
 2367TIP3   OH2 7106   4.572   3.433   0.733
 2367TIP3    H1 7107   4.526   3.506   0.773
 2367TIP3    H2 7108   4.659   3.467   0.712
 2368TIP3   OH2 7109   1.066   1.273   1.245
 2368TIP3    H1 7110   1.041   1.244   1.332
 2368TIP3    H2 7111   1.109   1.358   1.259
 2369TIP3   OH2 7112   2.644   0.925   2.679
 2369TIP3    H1 7113   2.565   0.941   2.626
 2369TIP3    H2 7114   2.650   1.001   2.736
 2370TIP3   OH2 7115   0.781   4.259   2.723
 2370TIP3    H1 7116   0.778   4.329   2.658
 2370TIP3    H2 7117   0.689   4.241   2.743
 2371TIP3   OH2 7118   5.916   1.858   3.169
 2371TIP3    H1 7119   5.909   1.763   3.170
 2371TIP3    H2 7120   5.844   1.887   3.113
 2372TIP3   OH2 7121   5.680   2.630   2.093
 2372TIP3    H1 7122   5.741   2.587   2.033
 2372TIP3    H2 7123   5.599   2.581   2.083
 2373TIP3   OH2 7124   0.907   2.329   0.310
 2373TIP3    H1 7125   0.922   2.388   0.236
 2373TIP3    H2 7126   0.992   2.321   0.352
 2374TIP3   OH2 7127   6.345   1.819   4.506
 2374TIP3    H1 7128   6.273   1.880   4.513
 2374TIP3    H2 7129   6.314   1.739   4.549
 2375TIP3   OH2 7130   1.834   1.403   3.767
 2375TIP3    H1 7131   1.902   1.356   3.816
 2375TIP3    H2 7132   1.881   1.475   3.724
 2376TIP3   OH2 7133   3.621   1.833   0.825
 2376TIP3    H1 7134   3.619   1.788   0.909
 2376TIP3    H2 7135   3.714   1.852   0.810
 2377TIP3   OH2 7136   4.031   4.867   1.686
 2377TIP3    H1 7137   4.012   4.781   1.721
 2377TIP3    H2 7138   4.118   4.859   1.646
 2378TIP3   OH2 7139   4.221   1.207   4.335
 2378TIP3    H1 7140   4.184   1.169   4.255
 2378TIP3    H2 7141   4.145   1.243   4.382
 2379TIP3   OH2 7142   3.804   2.602   3.912
 2379TIP3    H1 7143   3.896   2.623   3.898
 2379TIP3    H2 7144   3.795   2.598   4.008
 2380TIP3   OH2 7145   4.505   1.972   4.432
 2380TIP3    H1 7146   4.552   1.966   4.349
 2380TIP3    H2 7147   4.517   1.885   4.472
 2381TIP3   OH2 7148   0.134   5.160   4.248
 2381TIP3    H1 7149   0.104   5.174   4.158
 2381TIP3    H2 7150   0.172   5.072   4.247
 2382TIP3   OH2 7151   3.738   1.073   0.048
 2382TIP3    H1 7152   3.748   1.040  -0.041
 2382TIP3    H2 7153   3.708   0.997   0.098
 2383TIP3   OH2 7154   2.110   4.858   0.547
 2383TIP3    H1 7155   2.187   4.815   0.583
 2383TIP3    H2 7156   2.143   4.940   0.509
 2384TIP3   OH2 7157   5.715   0.868   2.509
 2384TIP3    H1 7158   5.665   0.873   2.428
 2384TIP3    H2 7159   5.694   0.782   2.545
 2385TIP3   OH2 7160   1.415   0.816   3.176
 2385TIP3    H1 7161   1.492   0.861   3.142
 2385TIP3    H2 7162   1.356   0.886   3.204
 2386TIP3   OH2 7163   6.130   4.352   0.193
 2386TIP3    H1 7164   6.054   4.351   0.135
 2386TIP3    H2 7165   6.116   4.429   0.249
 2387TIP3   OH2 7166   0.687   5.454   0.374
 2387TIP3    H1 7167   0.611   5.497   0.414
 2387TIP3    H2 7168   0.658   5.365   0.357
 2388TIP3   OH2 7169   2.835   2.621   4.848
 2388TIP3    H1 7170   2.873   2.658   4.928
 2388TIP3    H2 7171   2.883   2.663   4.777
 2389TIP3   OH2 7172   2.730   0.145   5.073
 2389TIP3    H1 7173   2.775   0.141   4.989
 2389TIP3    H2 7174   2.786   0.096   5.133
 2390TIP3   OH2 7175   3.310   5.971   4.894
 2390TIP3    H1 7176   3.341   5.907   4.958
 2390TIP3    H2 7177   3.246   5.923   4.841
 2391TIP3   OH2 7178   4.706   5.405   3.189
 2391TIP3    H1 7179   4.791   5.378   3.156
 2391TIP3    H2 7180   4.713   5.401   3.284
 2392TIP3   OH2 7181   2.873   2.563   0.606
 2392TIP3    H1 7182   2.832   2.649   0.618
 2392TIP3    H2 7183   2.877   2.526   0.694
 2393TIP3   OH2 7184   1.853   4.281   0.354
 2393TIP3    H1 7185   1.854   4.189   0.382
 2393TIP3    H2 7186   1.843   4.276   0.259
 2394TIP3   OH2 7187   5.563   0.419   1.176
 2394TIP3    H1 7188   5.489   0.480   1.187
 2394TIP3    H2 7189   5.529   0.353   1.115
 2395TIP3   OH2 7190   0.053   1.661   2.803
 2395TIP3    H1 7191  -0.027   1.668   2.855
 2395TIP3    H2 7192   0.022   1.646   2.714
 2396TIP3   OH2 7193   2.891   2.458   2.330
 2396TIP3    H1 7194   2.907   2.421   2.243
 2396TIP3    H2 7195   2.978   2.484   2.361
 2397TIP3   OH2 7196   1.500   3.416   1.972
 2397TIP3    H1 7197   1.499   3.387   1.881
 2397TIP3    H2 7198   1.587   3.394   2.004
 2398TIP3   OH2 7199   4.448   3.036   4.283
 2398TIP3    H1 7200   4.407   2.958   4.248
 2398TIP3    H2 7201   4.524   3.004   4.332
 2399TIP3   OH2 7202   4.440   0.238   2.180
 2399TIP3    H1 7203   4.417   0.292   2.255
 2399TIP3    H2 7204   4.356   0.220   2.137
 2400TIP3   OH2 7205   0.440   2.430   2.982
 2400TIP3    H1 7206   0.363   2.429   3.038
 2400TIP3    H2 7207   0.514   2.420   3.043
 2401TIP3   OH2 7208   1.352   2.721   4.172
 2401TIP3    H1 7209   1.400   2.695   4.250
 2401TIP3    H2 7210   1.420   2.733   4.105
 2402TIP3   OH2 7211   5.300   0.642   0.418
 2402TIP3    H1 7212   5.259   0.556   0.408
 2402TIP3    H2 7213   5.229   0.699   0.446
 2403TIP3   OH2 7214   4.002   5.261   4.038
 2403TIP3    H1 7215   4.091   5.296   4.042
 2403TIP3    H2 7216   3.949   5.326   4.083
 2404TIP3   OH2 7217   5.707   2.550   0.495
 2404TIP3    H1 7218   5.697   2.455   0.486
 2404TIP3    H2 7219   5.619   2.584   0.476
 2405TIP3   OH2 7220   3.183   4.186   1.451
 2405TIP3    H1 7221   3.126   4.148   1.518
 2405TIP3    H2 7222   3.203   4.114   1.392
 2406TIP3   OH2 7223   1.039   0.304   1.393
 2406TIP3    H1 7224   1.046   0.359   1.315
 2406TIP3    H2 7225   1.103   0.234   1.378
 2407TIP3   OH2 7226   1.930   0.786   0.218
 2407TIP3    H1 7227   1.973   0.794   0.132
 2407TIP3    H2 7228   1.963   0.703   0.253
 2408TIP3   OH2 7229   1.095   5.808   2.526
 2408TIP3    H1 7230   1.060   5.749   2.593
 2408TIP3    H2 7231   1.190   5.793   2.527
 2409TIP3   OH2 7232   0.030   5.711   5.130
 2409TIP3    H1 7233  -0.064   5.701   5.142
 2409TIP3    H2 7234   0.062   5.621   5.115
 2410TIP3   OH2 7235   0.964   2.089   0.735
 2410TIP3    H1 7236   0.985   2.099   0.642
 2410TIP3    H2 7237   0.933   1.999   0.744
 2411TIP3   OH2 7238   5.300   2.237   3.077
 2411TIP3    H1 7239   5.210   2.208   3.092
 2411TIP3    H2 7240   5.291   2.312   3.018
 2412TIP3   OH2 7241   0.975   2.247   1.230
 2412TIP3    H1 7242   0.890   2.245   1.275
 2412TIP3    H2 7243   0.964   2.313   1.161
 2413TIP3   OH2 7244   1.398   4.260   2.656
 2413TIP3    H1 7245   1.476   4.231   2.609
 2413TIP3    H2 7246   1.357   4.179   2.687
 2414TIP3   OH2 7247   0.890   4.658   3.417
 2414TIP3    H1 7248   0.863   4.743   3.451
 2414TIP3    H2 7249   0.971   4.677   3.368
 2415TIP3   OH2 7250   2.582   3.796   2.359
 2415TIP3    H1 7251   2.635   3.788   2.279
 2415TIP3    H2 7252   2.624   3.866   2.408
 2416TIP3   OH2 7253   2.898   2.365   3.510
 2416TIP3    H1 7254   2.907   2.312   3.431
 2416TIP3    H2 7255   2.841   2.313   3.567
 2417TIP3   OH2 7256   3.317   0.091   5.032
 2417TIP3    H1 7257   3.388   0.077   5.094
 2417TIP3    H2 7258   3.300   0.185   5.037
 2418TIP3   OH2 7259   1.629   5.878   1.134
 2418TIP3    H1 7260   1.654   5.957   1.086
 2418TIP3    H2 7261   1.552   5.904   1.184
 2419TIP3   OH2 7262   4.903   1.226   3.157
 2419TIP3    H1 7263   4.995   1.235   3.134
 2419TIP3    H2 7264   4.887   1.132   3.158
 2420TIP3   OH2 7265   5.125   4.602   1.170
 2420TIP3    H1 7266   5.059   4.577   1.234
 2420TIP3    H2 7267   5.090   4.570   1.086
 2421TIP3   OH2 7268   4.924   1.662   1.390
 2421TIP3    H1 7269   4.932   1.703   1.476
 2421TIP3    H2 7270   5.015   1.645   1.363
 2422TIP3   OH2 7271   4.846   2.465   4.386
 2422TIP3    H1 7272   4.787   2.464   4.462
 2422TIP3    H2 7273   4.884   2.377   4.385
 2423TIP3   OH2 7274   2.779   2.042   2.244
 2423TIP3    H1 7275   2.874   2.032   2.249
 2423TIP3    H2 7276   2.745   1.989   2.316
 2424TIP3   OH2 7277   2.082   1.517   1.562
 2424TIP3    H1 7278   1.989   1.522   1.587
 2424TIP3    H2 7279   2.108   1.428   1.587
 2425TIP3   OH2 7280   4.259   0.843   0.335
 2425TIP3    H1 7281   4.347   0.881   0.342
 2425TIP3    H2 7282   4.200   0.918   0.345
 2426TIP3   OH2 7283   2.494   4.331   2.974
 2426TIP3    H1 7284   2.545   4.317   3.054
 2426TIP3    H2 7285   2.472   4.242   2.944
 2427TIP3   OH2 7286   5.655   4.885   3.316
 2427TIP3    H1 7287   5.631   4.823   3.247
 2427TIP3    H2 7288   5.668   4.830   3.393
 2428TIP3   OH2 7289   4.704   4.246   0.688
 2428TIP3    H1 7290   4.780   4.204   0.647
 2428TIP3    H2 7291   4.728   4.254   0.780
 2429TIP3   OH2 7292   1.595   3.816   3.725
 2429TIP3    H1 7293   1.504   3.786   3.726
 2429TIP3    H2 7294   1.614   3.841   3.815
 2430TIP3   OH2 7295   5.093   3.193   4.338
 2430TIP3    H1 7296   5.152   3.125   4.307
 2430TIP3    H2 7297   5.112   3.269   4.284
 2431TIP3   OH2 7298   2.188   4.122   3.934
 2431TIP3    H1 7299   2.141   4.051   3.976
 2431TIP3    H2 7300   2.177   4.107   3.841
 2432TIP3   OH2 7301   4.832   4.258   0.300
 2432TIP3    H1 7302   4.756   4.256   0.358
 2432TIP3    H2 7303   4.895   4.199   0.340
 2433TIP3   OH2 7304   2.246   5.592   1.495
 2433TIP3    H1 7305   2.195   5.587   1.576
 2433TIP3    H2 7306   2.246   5.686   1.473
 2434TIP3   OH2 7307   3.295   3.893   3.364
 2434TIP3    H1 7308   3.204   3.870   3.383
 2434TIP3    H2 7309   3.304   3.880   3.270
 2435TIP3   OH2 7310   5.890   3.172   0.533
 2435TIP3    H1 7311   5.846   3.131   0.608
 2435TIP3    H2 7312   5.826   3.234   0.498
 2436TIP3   OH2 7313   5.836   0.899   4.512
 2436TIP3    H1 7314   5.878   0.817   4.539
 2436TIP3    H2 7315   5.796   0.934   4.592
 2437TIP3   OH2 7316   5.207   0.705   4.510
 2437TIP3    H1 7317   5.164   0.620   4.519
 2437TIP3    H2 7318   5.279   0.702   4.573
 2438TIP3   OH2 7319   4.657   3.241   0.990
 2438TIP3    H1 7320   4.743   3.212   0.958
 2438TIP3    H2 7321   4.598   3.225   0.916
 2439TIP3   OH2 7322   3.267   5.124   3.642
 2439TIP3    H1 7323   3.361   5.130   3.622
 2439TIP3    H2 7324   3.223   5.165   3.568
 2440TIP3   OH2 7325   4.801   0.034   4.044
 2440TIP3    H1 7326   4.849   0.064   3.967
 2440TIP3    H2 7327   4.838  -0.052   4.064
 2441TIP3   OH2 7328   0.772   3.574   3.112
 2441TIP3    H1 7329   0.829   3.498   3.115
 2441TIP3    H2 7330   0.775   3.603   3.020
 2442TIP3   OH2 7331   1.756   3.761   2.036
 2442TIP3    H1 7332   1.831   3.780   1.979
 2442TIP3    H2 7333   1.727   3.846   2.066
 2443TIP3   OH2 7334   0.026   3.137   0.855
 2443TIP3    H1 7335   0.007   3.120   0.947
 2443TIP3    H2 7336   0.113   3.101   0.841
 2444TIP3   OH2 7337   3.788   2.308   3.442
 2444TIP3    H1 7338   3.848   2.350   3.381
 2444TIP3    H2 7339   3.778   2.372   3.513
 2445TIP3   OH2 7340   0.363   1.160   0.851
 2445TIP3    H1 7341   0.382   1.253   0.843
 2445TIP3    H2 7342   0.291   1.156   0.914
 2446TIP3   OH2 7343   2.001   3.515   1.541
 2446TIP3    H1 7344   1.908   3.524   1.562
 2446TIP3    H2 7345   2.045   3.568   1.608
 2447TIP3   OH2 7346   1.653   2.308   0.826
 2447TIP3    H1 7347   1.570   2.268   0.850
 2447TIP3    H2 7348   1.649   2.319   0.731
 2448TIP3   OH2 7349   2.307   4.076  -0.004
 2448TIP3    H1 7350   2.230   4.132  -0.009
 2448TIP3    H2 7351   2.317   4.056   0.089
 2449TIP3   OH2 7352   0.232   5.093   0.992
 2449TIP3    H1 7353   0.304   5.047   0.948
 2449TIP3    H2 7354   0.174   5.024   1.022
 2450TIP3   OH2 7355   5.666   0.026   4.173
 2450TIP3    H1 7356   5.694  -0.065   4.169
 2450TIP3    H2 7357   5.716   0.070   4.104
 2451TIP3   OH2 7358   2.468   5.450   4.500
 2451TIP3    H1 7359   2.418   5.392   4.443
 2451TIP3    H2 7360   2.414   5.460   4.579
 2452TIP3   OH2 7361   1.188   5.423   3.696
 2452TIP3    H1 7362   1.125   5.388   3.759
 2452TIP3    H2 7363   1.273   5.408   3.736
 2453TIP3   OH2 7364   4.027   0.362   3.923
 2453TIP3    H1 7365   4.024   0.414   4.004
 2453TIP3    H2 7366   3.938   0.365   3.890
 2454TIP3   OH2 7367   2.555   3.238   4.702
 2454TIP3    H1 7368   2.522   3.288   4.628
 2454TIP3    H2 7369   2.582   3.304   4.766
 2455TIP3   OH2 7370   3.223   4.895   3.207
 2455TIP3    H1 7371   3.276   4.859   3.135
 2455TIP3    H2 7372   3.288   4.927   3.270
 2456TIP3   OH2 7373   4.518   1.705   3.435
 2456TIP3    H1 7374   4.543   1.625   3.390
 2456TIP3    H2 7375   4.506   1.679   3.527
 2457TIP3   OH2 7376   5.732   5.129   3.435
 2457TIP3    H1 7377   5.673   5.060   3.403
 2457TIP3    H2 7378   5.675   5.204   3.450
 2458TIP3   OH2 7379   4.272   0.575   3.506
 2458TIP3    H1 7380   4.236   0.654   3.466
 2458TIP3    H2 7381   4.258   0.507   3.440
 2459TIP3   OH2 7382   4.275   1.986   0.860
 2459TIP3    H1 7383   4.212   2.058   0.869
 2459TIP3    H2 7384   4.272   1.963   0.767
 2460TIP3   OH2 7385   3.861   3.407   1.967
 2460TIP3    H1 7386   3.893   3.325   1.931
 2460TIP3    H2 7387   3.834   3.459   1.891
 2461TIP3   OH2 7388   4.295   5.313   4.155
 2461TIP3    H1 7389   4.333   5.233   4.120
 2461TIP3    H2 7390   4.281   5.295   4.248
 2462TIP3   OH2 7391   1.241   0.956   2.745
 2462TIP3    H1 7392   1.226   0.917   2.659
 2462TIP3    H2 7393   1.158   0.945   2.792
 2463TIP3   OH2 7394   4.681   4.516   1.449
 2463TIP3    H1 7395   4.716   4.442   1.497
 2463TIP3    H2 7396   4.620   4.478   1.385
 2464TIP3   OH2 7397   0.341   3.589   1.089
 2464TIP3    H1 7398   0.300   3.510   1.053
 2464TIP3    H2 7399   0.333   3.654   1.019
 2465TIP3   OH2 7400   1.086   1.152   4.667
 2465TIP3    H1 7401   1.131   1.177   4.586
 2465TIP3    H2 7402   1.141   1.081   4.703
 2466TIP3   OH2 7403   5.488   0.476   4.943
 2466TIP3    H1 7404   5.558   0.412   4.956
 2466TIP3    H2 7405   5.410   0.424   4.928
 2467TIP3   OH2 7406   0.583   3.369   4.138
 2467TIP3    H1 7407   0.672   3.335   4.128
 2467TIP3    H2 7408   0.572   3.379   4.232
 2468TIP3   OH2 7409   5.530   1.897   0.167
 2468TIP3    H1 7410   5.591   1.940   0.227
 2468TIP3    H2 7411   5.445   1.907   0.210
 2469TIP3   OH2 7412   2.227   4.449   2.882
 2469TIP3    H1 7413   2.275   4.370   2.856
 2469TIP3    H2 7414   2.289   4.521   2.865
 2470TIP3   OH2 7415   0.838   2.308   1.877
 2470TIP3    H1 7416   0.823   2.341   1.788
 2470TIP3    H2 7417   0.760   2.256   1.897
 2471TIP3   OH2 7418   2.489   0.992   3.078
 2471TIP3    H1 7419   2.501   0.907   3.121
 2471TIP3    H2 7420   2.574   1.010   3.037
 2472TIP3   OH2 7421   2.849   2.204   4.366
 2472TIP3    H1 7422   2.896   2.140   4.419
 2472TIP3    H2 7423   2.918   2.252   4.320
 2473TIP3   OH2 7424   1.922   4.374   3.583
 2473TIP3    H1 7425   1.911   4.295   3.531
 2473TIP3    H2 7426   1.955   4.440   3.522
 2474TIP3   OH2 7427   3.772   2.932   3.236
 2474TIP3    H1 7428   3.787   2.851   3.286
 2474TIP3    H2 7429   3.764   3.000   3.303
 2475TIP3   OH2 7430   5.643   2.535   2.653
 2475TIP3    H1 7431   5.619   2.479   2.727
 2475TIP3    H2 7432   5.596   2.498   2.578
 2476TIP3   OH2 7433   1.394   5.288   3.031
 2476TIP3    H1 7434   1.405   5.229   3.106
 2476TIP3    H2 7435   1.407   5.232   2.955
 2477TIP3   OH2 7436   2.914   2.143   3.345
 2477TIP3    H1 7437   2.854   2.105   3.281
 2477TIP3    H2 7438   2.982   2.076   3.356
 2478TIP3   OH2 7439   2.032   4.311   1.598
 2478TIP3    H1 7440   2.108   4.368   1.593
 2478TIP3    H2 7441   2.053   4.237   1.541
 2479TIP3   OH2 7442   5.937   0.299   1.600
 2479TIP3    H1 7443   6.001   0.268   1.536
 2479TIP3    H2 7444   5.925   0.226   1.660
 2480TIP3   OH2 7445   6.258   1.293   3.887
 2480TIP3    H1 7446   6.260   1.336   3.973
 2480TIP3    H2 7447   6.222   1.206   3.905
 2481TIP3   OH2 7448   4.875   5.913   0.449
 2481TIP3    H1 7449   4.906   5.984   0.392
 2481TIP3    H2 7450   4.892   5.833   0.399
 2482TIP3   OH2 7451   0.624   1.881   3.747
 2482TIP3    H1 7452   0.551   1.839   3.792
 2482TIP3    H2 7453   0.588   1.908   3.662
 2483TIP3   OH2 7454   1.834   4.809   4.447
 2483TIP3    H1 7455   1.849   4.744   4.378
 2483TIP3    H2 7456   1.879   4.887   4.417
 2484TIP3   OH2 7457   2.042   3.099   4.909
 2484TIP3    H1 7458   2.123   3.085   4.859
 2484TIP3    H2 7459   2.044   3.192   4.931
 2485TIP3   OH2 7460   1.247   2.315   3.395
 2485TIP3    H1 7461   1.275   2.342   3.482
 2485TIP3    H2 7462   1.179   2.250   3.411
 2486TIP3   OH2 7463   0.244   2.746   1.338
 2486TIP3    H1 7464   0.274   2.660   1.368
 2486TIP3    H2 7465   0.237   2.797   1.419
 2487TIP3   OH2 7466   2.580   0.527   4.077
 2487TIP3    H1 7467   2.567   0.490   4.165
 2487TIP3    H2 7468   2.548   0.460   4.017
 2488TIP3   OH2 7469   4.223   4.512   2.744
 2488TIP3    H1 7470   4.231   4.431   2.795
 2488TIP3    H2 7471   4.214   4.581   2.809
 2489TIP3   OH2 7472   5.281   2.277   2.648
 2489TIP3    H1 7473   5.286   2.372   2.643
 2489TIP3    H2 7474   5.350   2.246   2.589
 2490TIP3   OH2 7475   1.038   3.076   5.071
 2490TIP3    H1 7476   1.080   3.017   5.134
 2490TIP3    H2 7477   0.950   3.039   5.060
 2491TIP3   OH2 7478   0.754   1.326   3.556
 2491TIP3    H1 7479   0.700   1.379   3.614
 2491TIP3    H2 7480   0.716   1.238   3.562
 2492TIP3   OH2 7481   4.055   1.021   2.153
 2492TIP3    H1 7482   4.131   1.049   2.101
 2492TIP3    H2 7483   4.089   0.952   2.210
 2493TIP3   OH2 7484   2.953   3.314   4.423
 2493TIP3    H1 7485   2.905   3.323   4.340
 2493TIP3    H2 7486   3.034   3.363   4.409
 2494TIP3   OH2 7487   1.412   4.955   1.646
 2494TIP3    H1 7488   1.505   4.973   1.633
 2494TIP3    H2 7489   1.409   4.894   1.720
 2495TIP3   OH2 7490   1.886   1.002   4.222
 2495TIP3    H1 7491   1.871   1.001   4.316
 2495TIP3    H2 7492   1.961   0.943   4.208
 2496TIP3   OH2 7493   1.417   3.085   0.013
 2496TIP3    H1 7494   1.399   3.004   0.063
 2496TIP3    H2 7495   1.508   3.106   0.033
 2497TIP3   OH2 7496   1.926   3.769   3.361
 2497TIP3    H1 7497   1.833   3.776   3.382
 2497TIP3    H2 7498   1.928   3.723   3.277
 2498TIP3   OH2 7499   0.008   2.551   2.492
 2498TIP3    H1 7500  -0.086   2.567   2.496
 2498TIP3    H2 7501   0.044   2.629   2.450
 2499TIP3   OH2 7502   2.208   3.275   0.424
 2499TIP3    H1 7503   2.164   3.281   0.509
 2499TIP3    H2 7504   2.137   3.274   0.360
 2500TIP3   OH2 7505   2.723   5.646   2.197
 2500TIP3    H1 7506   2.812   5.609   2.198
 2500TIP3    H2 7507   2.736   5.739   2.217
 2501TIP3   OH2 7508   6.102   4.139   0.350
 2501TIP3    H1 7509   6.118   4.165   0.441
 2501TIP3    H2 7510   6.129   4.214   0.298
 2502TIP3   OH2 7511   1.096   2.180   4.113
 2502TIP3    H1 7512   1.005   2.171   4.142
 2502TIP3    H2 7513   1.130   2.091   4.116
 2503TIP3   OH2 7514   4.167   5.095   2.148
 2503TIP3    H1 7515   4.156   5.096   2.053
 2503TIP3    H2 7516   4.104   5.029   2.178
 2504TIP3   OH2 7517   5.376   1.642   2.377
 2504TIP3    H1 7518   5.387   1.691   2.296
 2504TIP3    H2 7519   5.465   1.621   2.405
 2505TIP3   OH2 7520   2.783   3.674   2.861
 2505TIP3    H1 7521   2.754   3.732   2.932
 2505TIP3    H2 7522   2.724   3.695   2.788
 2506TIP3   OH2 7523   1.078   4.866   3.070
 2506TIP3    H1 7524   1.105   4.865   3.162
 2506TIP3    H2 7525   1.077   4.959   3.047
 2507TIP3   OH2 7526   1.394   0.482   4.140
 2507TIP3    H1 7527   1.394   0.549   4.209
 2507TIP3    H2 7528   1.475   0.434   4.154
 2508TIP3   OH2 7529   4.565   3.443   2.164
 2508TIP3    H1 7530   4.592   3.377   2.100
 2508TIP3    H2 7531   4.494   3.401   2.213
 2509TIP3   OH2 7532   4.142   0.589   4.090
 2509TIP3    H1 7533   4.216   0.605   4.149
 2509TIP3    H2 7534   4.182   0.548   4.013
 2510TIP3   OH2 7535   2.630   4.629   0.797
 2510TIP3    H1 7536   2.627   4.643   0.703
 2510TIP3    H2 7537   2.667   4.542   0.808
 2511TIP3   OH2 7538   6.133   4.921   2.593
 2511TIP3    H1 7539   6.163   4.870   2.668
 2511TIP3    H2 7540   6.189   4.998   2.591
 2512TIP3   OH2 7541   2.975   5.115   4.079
 2512TIP3    H1 7542   2.955   5.118   3.986
 2512TIP3    H2 7543   3.057   5.066   4.085
 2513TIP3   OH2 7544   1.508   2.392   2.099
 2513TIP3    H1 7545   1.419   2.388   2.064
 2513TIP3    H2 7546   1.554   2.452   2.040
 2514TIP3   OH2 7547   2.402   3.259   1.321
 2514TIP3    H1 7548   2.478   3.227   1.369
 2514TIP3    H2 7549   2.430   3.342   1.282
 2515TIP3   OH2 7550   1.664   3.579   0.775
 2515TIP3    H1 7551   1.635   3.529   0.851
 2515TIP3    H2 7552   1.707   3.656   0.811
 2516TIP3   OH2 7553   0.039   3.914   3.484
 2516TIP3    H1 7554   0.001   3.882   3.402
 2516TIP3    H2 7555   0.006   4.003   3.493
 2517TIP3   OH2 7556   5.965   3.390   0.856
 2517TIP3    H1 7557   6.013   3.407   0.937
 2517TIP3    H2 7558   5.937   3.299   0.863
 2518TIP3   OH2 7559   5.259   2.170   2.211
 2518TIP3    H1 7560   5.310   2.242   2.174
 2518TIP3    H2 7561   5.321   2.124   2.268
 2519TIP3   OH2 7562   4.101   3.029   4.035
 2519TIP3    H1 7563   4.046   3.106   4.024
 2519TIP3    H2 7564   4.115   3.024   4.130
 2520TIP3   OH2 7565   1.467   3.740   2.177
 2520TIP3    H1 7566   1.419   3.721   2.096
 2520TIP3    H2 7567   1.559   3.729   2.155
 2521TIP3   OH2 7568   3.316   1.783   4.308
 2521TIP3    H1 7569   3.398   1.827   4.285
 2521TIP3    H2 7570   3.249   1.850   4.295
 2522TIP3   OH2 7571   2.481   1.544   1.463
 2522TIP3    H1 7572   2.438   1.609   1.408
 2522TIP3    H2 7573   2.547   1.504   1.406
 2523TIP3   OH2 7574   2.212   3.499   1.013
 2523TIP3    H1 7575   2.257   3.582   1.027
 2523TIP3    H2 7576   2.149   3.494   1.085
 2524TIP3   OH2 7577   5.990   4.276   2.028
 2524TIP3    H1 7578   5.968   4.193   2.071
 2524TIP3    H2 7579   5.988   4.340   2.099
 2525TIP3   OH2 7580   1.953   5.537   1.473
 2525TIP3    H1 7581   1.954   5.627   1.443
 2525TIP3    H2 7582   1.861   5.516   1.486
 2526TIP3   OH2 7583   0.223   2.720   3.091
 2526TIP3    H1 7584   0.265   2.802   3.117
 2526TIP3    H2 7585   0.229   2.664   3.169
 2527TIP3   OH2 7586   1.091   1.520   3.012
 2527TIP3    H1 7587   1.036   1.591   2.979
 2527TIP3    H2 7588   1.077   1.522   3.107
 2528TIP3   OH2 7589   4.025   4.140   3.755
 2528TIP3    H1 7590   3.930   4.147   3.743
 2528TIP3    H2 7591   4.037   4.143   3.850
 2529TIP3   OH2 7592   5.385   3.661   3.505
 2529TIP3    H1 7593   5.383   3.737   3.447
 2529TIP3    H2 7594   5.309   3.671   3.561
 2530TIP3   OH2 7595   2.081   1.752   3.077
 2530TIP3    H1 7596   2.163   1.703   3.080
 2530TIP3    H2 7597   2.062   1.762   2.984
 2531TIP3   OH2 7598   4.137   5.436   1.946
 2531TIP3    H1 7599   4.093   5.425   2.030
 2531TIP3    H2 7600   4.212   5.377   1.951
 2532TIP3   OH2 7601   1.498   0.662   1.134
 2532TIP3    H1 7602   1.404   0.658   1.118
 2532TIP3    H2 7603   1.510   0.741   1.187
 2533TIP3   OH2 7604   1.743   0.009   2.255
 2533TIP3    H1 7605   1.819   0.066   2.242
 2533TIP3    H2 7606   1.701   0.004   2.169
 2534TIP3   OH2 7607   0.244   2.535   0.087
 2534TIP3    H1 7608   0.233   2.483   0.008
 2534TIP3    H2 7609   0.287   2.477   0.149
 2535TIP3   OH2 7610   2.271   5.194   1.543
 2535TIP3    H1 7611   2.236   5.259   1.482
 2535TIP3    H2 7612   2.291   5.245   1.622
 2536TIP3   OH2 7613   5.325   1.502   5.108
 2536TIP3    H1 7614   5.392   1.435   5.125
 2536TIP3    H2 7615   5.337   1.566   5.178
 2537TIP3   OH2 7616   1.429   4.093   0.656
 2537TIP3    H1 7617   1.369   4.045   0.713
 2537TIP3    H2 7618   1.389   4.089   0.569
 2538TIP3   OH2 7619   0.851   0.411   0.277
 2538TIP3    H1 7620   0.843   0.328   0.324
 2538TIP3    H2 7621   0.814   0.394   0.191
 2539TIP3   OH2 7622   4.561   3.520   4.641
 2539TIP3    H1 7623   4.519   3.479   4.565
 2539TIP3    H2 7624   4.591   3.605   4.608
 2540TIP3   OH2 7625   5.195   3.639   0.377
 2540TIP3    H1 7626   5.170   3.701   0.308
 2540TIP3    H2 7627   5.285   3.661   0.398
 2541TIP3   OH2 7628   2.642   0.151   1.887
 2541TIP3    H1 7629   2.674   0.170   1.976
 2541TIP3    H2 7630   2.548   0.170   1.892
 2542TIP3   OH2 7631   4.420   2.988   0.845
 2542TIP3    H1 7632   4.470   3.003   0.765
 2542TIP3    H2 7633   4.396   3.076   0.875
 2543TIP3   OH2 7634   4.477   0.878   2.138
 2543TIP3    H1 7635   4.424   0.938   2.086
 2543TIP3    H2 7636   4.423   0.859   2.215
 2544TIP3   OH2 7637   4.265   2.654   2.498
 2544TIP3    H1 7638   4.303   2.569   2.474
 2544TIP3    H2 7639   4.339   2.704   2.533
 2545TIP3   OH2 7640   6.118   2.651   0.442
 2545TIP3    H1 7641   6.046   2.692   0.394
 2545TIP3    H2 7642   6.161   2.723   0.487
 2546TIP3   OH2 7643   3.330   0.827   1.153
 2546TIP3    H1 7644   3.306   0.737   1.176
 2546TIP3    H2 7645   3.251   0.864   1.114
 2547TIP3   OH2 7646   1.104   1.661   1.700
 2547TIP3    H1 7647   1.021   1.644   1.656
 2547TIP3    H2 7648   1.115   1.587   1.759
 2548TIP3   OH2 7649   1.176   2.692   3.492
 2548TIP3    H1 7650   1.267   2.664   3.495
 2548TIP3    H2 7651   1.128   2.614   3.464
 2549TIP3   OH2 7652   2.925   0.744   2.674
 2549TIP3    H1 7653   2.933   0.760   2.580
 2549TIP3    H2 7654   2.924   0.648   2.682
 2550TIP3   OH2 7655   2.666   1.831   0.481
 2550TIP3    H1 7656   2.716   1.758   0.518
 2550TIP3    H2 7657   2.729   1.877   0.425
 2551TIP3   OH2 7658   1.404   5.151   3.363
 2551TIP3    H1 7659   1.397   5.179   3.455
 2551TIP3    H2 7660   1.492   5.113   3.357
 2552TIP3   OH2 7661   2.544   0.050   2.778
 2552TIP3    H1 7662   2.579  -0.037   2.757
 2552TIP3    H2 7663   2.452   0.045   2.753
 2553TIP3   OH2 7664   6.026   4.328   3.170
 2553TIP3    H1 7665   6.105   4.350   3.120
 2553TIP3    H2 7666   6.026   4.390   3.243
 2554TIP3   OH2 7667   0.202   5.353   0.310
 2554TIP3    H1 7668   0.188   5.339   0.216
 2554TIP3    H2 7669   0.193   5.447   0.322
 2555TIP3   OH2 7670   4.484   4.886   1.303
 2555TIP3    H1 7671   4.524   4.842   1.228
 2555TIP3    H2 7672   4.459   4.973   1.270
 2556TIP3   OH2 7673   4.283   0.744   2.992
 2556TIP3    H1 7674   4.251   0.656   3.015
 2556TIP3    H2 7675   4.221   0.803   3.035
 2557TIP3   OH2 7676   4.892   4.783   4.776
 2557TIP3    H1 7677   4.966   4.733   4.809
 2557TIP3    H2 7678   4.930   4.865   4.745
 2558TIP3   OH2 7679   2.900   2.635   3.568
 2558TIP3    H1 7680   2.845   2.676   3.502
 2558TIP3    H2 7681   2.903   2.542   3.543
 2559TIP3   OH2 7682   6.043   3.113   2.497
 2559TIP3    H1 7683   6.093   3.034   2.480
 2559TIP3    H2 7684   6.003   3.099   2.583
 2560TIP3   OH2 7685   2.849   0.489   2.504
 2560TIP3    H1 7686   2.767   0.528   2.533
 2560TIP3    H2 7687   2.849   0.501   2.409
 2561TIP3   OH2 7688   4.004   2.750   3.820
 2561TIP3    H1 7689   4.076   2.810   3.837
 2561TIP3    H2 7690   3.925   2.805   3.819
 2562TIP3   OH2 7691   5.779   0.053   4.832
 2562TIP3    H1 7692   5.705   0.062   4.772
 2562TIP3    H2 7693   5.813  -0.035   4.816
 2563TIP3   OH2 7694   3.529   3.843   4.656
 2563TIP3    H1 7695   3.519   3.929   4.699
 2563TIP3    H2 7696   3.603   3.855   4.596
 2564TIP3   OH2 7697   5.660   2.612   3.825
 2564TIP3    H1 7698   5.726   2.671   3.787
 2564TIP3    H2 7699   5.629   2.560   3.751
 2565TIP3   OH2 7700   0.840   3.710   1.015
 2565TIP3    H1 7701   0.777   3.686   1.083
 2565TIP3    H2 7702   0.925   3.686   1.052
 2566TIP3   OH2 7703   5.377   3.088   1.684
 2566TIP3    H1 7704   5.403   3.002   1.717
 2566TIP3    H2 7705   5.393   3.147   1.758
 2567TIP3   OH2 7706   5.011   4.414   2.748
 2567TIP3    H1 7707   4.971   4.482   2.694
 2567TIP3    H2 7708   5.001   4.334   2.696
 2568TIP3   OH2 7709   4.597   4.607   2.366
 2568TIP3    H1 7710   4.554   4.621   2.450
 2568TIP3    H2 7711   4.603   4.693   2.326
 2569TIP3   OH2 7712   6.154   1.632   1.596
 2569TIP3    H1 7713   6.143   1.725   1.616
 2569TIP3    H2 7714   6.072   1.592   1.625
 2570TIP3   OH2 7715   5.170   4.337   3.589
 2570TIP3    H1 7716   5.204   4.250   3.569
 2570TIP3    H2 7717   5.082   4.320   3.623
 2571TIP3   OH2 7718   3.613   2.152   4.040
 2571TIP3    H1 7719   3.643   2.215   3.974
 2571TIP3    H2 7720   3.641   2.191   4.124
 2572TIP3   OH2 7721   4.231   1.610   2.078
 2572TIP3    H1 7722   4.322   1.582   2.079
 2572TIP3    H2 7723   4.181   1.529   2.085
 2573TIP3   OH2 7724   0.452   4.004   3.445
 2573TIP3    H1 7725   0.504   3.994   3.525
 2573TIP3    H2 7726   0.428   3.914   3.421
 2574TIP3   OH2 7727   0.840   2.575   5.021
 2574TIP3    H1 7728   0.922   2.580   5.070
 2574TIP3    H2 7729   0.832   2.660   4.978
 2575TIP3   OH2 7730   0.797   1.914   1.032
 2575TIP3    H1 7731   0.753   1.910   0.947
 2575TIP3    H2 7732   0.761   1.992   1.074
 2576TIP3   OH2 7733   3.473   2.351   1.634
 2576TIP3    H1 7734   3.551   2.326   1.683
 2576TIP3    H2 7735   3.405   2.363   1.700
 2577TIP3   OH2 7736   6.008   4.658   1.128
 2577TIP3    H1 7737   6.059   4.596   1.181
 2577TIP3    H2 7738   6.073   4.707   1.079
 2578TIP3   OH2 7739   4.301   0.191   3.571
 2578TIP3    H1 7740   4.353   0.210   3.650
 2578TIP3    H2 7741   4.358   0.134   3.519
 2579TIP3   OH2 7742   4.661   3.361   4.263
 2579TIP3    H1 7743   4.625   3.300   4.326
 2579TIP3    H2 7744   4.618   3.339   4.180
 2580TIP3   OH2 7745   1.186   4.794   4.979
 2580TIP3    H1 7746   1.126   4.728   5.015
 2580TIP3    H2 7747   1.142   4.877   4.998
 2581TIP3   OH2 7748   4.392   2.608   0.333
 2581TIP3    H1 7749   4.389   2.698   0.300
 2581TIP3    H2 7750   4.363   2.615   0.424
 2582TIP3   OH2 7751   4.456   1.655   1.530
 2582TIP3    H1 7752   4.466   1.730   1.472
 2582TIP3    H2 7753   4.420   1.691   1.610
 2583TIP3   OH2 7754   3.035   2.357   4.219
 2583TIP3    H1 7755   3.020   2.350   4.125
 2583TIP3    H2 7756   3.054   2.450   4.233
 2584TIP3   OH2 7757   4.055   0.170   3.712
 2584TIP3    H1 7758   4.130   0.180   3.653
 2584TIP3    H2 7759   4.075   0.228   3.786
 2585TIP3   OH2 7760   5.099   1.197   0.003
 2585TIP3    H1 7761   5.188   1.170   0.027
 2585TIP3    H2 7762   5.099   1.292   0.013
 2586TIP3   OH2 7763   3.844   0.429   2.506
 2586TIP3    H1 7764   3.885   0.480   2.437
 2586TIP3    H2 7765   3.905   0.357   2.523
 2587TIP3   OH2 7766   0.492   1.394   4.790
 2587TIP3    H1 7767   0.408   1.433   4.766
 2587TIP3    H2 7768   0.511   1.332   4.720
 2588TIP3   OH2 7769   3.030   2.913   3.678
 2588TIP3    H1 7770   3.102   2.852   3.693
 2588TIP3    H2 7771   2.967   2.893   3.748
 2589TIP3   OH2 7772   0.140   1.395   3.382
 2589TIP3    H1 7773   0.115   1.307   3.353
 2589TIP3    H2 7774   0.081   1.453   3.334
 2590TIP3   OH2 7775   0.098   2.700   2.079
 2590TIP3    H1 7776   0.005   2.707   2.059
 2590TIP3    H2 7777   0.141   2.755   2.013
 2591TIP3   OH2 7778   5.797   3.799   2.547
 2591TIP3    H1 7779   5.849   3.823   2.623
 2591TIP3    H2 7780   5.861   3.762   2.485
 2592TIP3   OH2 7781   4.521   3.766   2.317
 2592TIP3    H1 7782   4.600   3.712   2.321
 2592TIP3    H2 7783   4.528   3.823   2.393
 2593TIP3   OH2 7784   6.315   0.144   0.762
 2593TIP3    H1 7785   6.224   0.125   0.785
 2593TIP3    H2 7786   6.356   0.059   0.751
 2594TIP3   OH2 7787   1.868   5.528   0.773
 2594TIP3    H1 7788   1.853   5.579   0.693
 2594TIP3    H2 7789   1.899   5.443   0.741
 2595TIP3   OH2 7790   4.931   2.529   1.070
 2595TIP3    H1 7791   4.928   2.538   0.975
 2595TIP3    H2 7792   4.865   2.590   1.102
 2596TIP3   OH2 7793   6.290   0.200   2.032
 2596TIP3    H1 7794   6.275   0.283   1.987
 2596TIP3    H2 7795   6.383   0.182   2.021
 2597TIP3   OH2 7796   5.057   4.680   4.112
 2597TIP3    H1 7797   5.036   4.703   4.022
 2597TIP3    H2 7798   5.150   4.660   4.111
 2598TIP3   OH2 7799   5.549   0.550   4.343
 2598TIP3    H1 7800   5.638   0.523   4.364
 2598TIP3    H2 7801   5.494   0.480   4.379
 2599TIP3   OH2 7802   2.929   2.987   3.947
 2599TIP3    H1 7803   2.868   2.985   4.020
 2599TIP3    H2 7804   2.890   3.048   3.884
 2600TIP3   OH2 7805   5.020   5.415   3.539
 2600TIP3    H1 7806   4.957   5.467   3.589
 2600TIP3    H2 7807   4.970   5.339   3.510
 2601TIP3   OH2 7808   4.134   5.594   4.979
 2601TIP3    H1 7809   4.229   5.605   4.985
 2601TIP3    H2 7810   4.122   5.527   4.911
 2602TIP3   OH2 7811   0.511   1.265   4.549
 2602TIP3    H1 7812   0.533   1.224   4.465
 2602TIP3    H2 7813   0.509   1.359   4.530
 2603TIP3   OH2 7814   5.454   2.533   1.091
 2603TIP3    H1 7815   5.504   2.468   1.042
 2603TIP3    H2 7816   5.429   2.599   1.026
 2604TIP3   OH2 7817   0.403   5.756   4.457
 2604TIP3    H1 7818   0.442   5.669   4.463
 2604TIP3    H2 7819   0.309   5.741   4.459
 2605TIP3   OH2 7820   0.393   4.975   2.699
 2605TIP3    H1 7821   0.323   4.965   2.764
 2605TIP3    H2 7822   0.353   5.029   2.630
 2606TIP3   OH2 7823   0.965   5.434   2.921
 2606TIP3    H1 7824   1.021   5.367   2.882
 2606TIP3    H2 7825   0.965   5.413   3.015
 2607TIP3   OH2 7826   3.955   0.643   0.730
 2607TIP3    H1 7827   3.983   0.555   0.704
 2607TIP3    H2 7828   3.983   0.700   0.659
 2608TIP3   OH2 7829   4.299   1.346   3.184
 2608TIP3    H1 7830   4.331   1.367   3.271
 2608TIP3    H2 7831   4.229   1.408   3.167
 2609TIP3   OH2 7832   0.458   5.730   2.632
 2609TIP3    H1 7833   0.382   5.705   2.579
 2609TIP3    H2 7834   0.517   5.773   2.571
 2610TIP3   OH2 7835   5.728   4.765   2.581
 2610TIP3    H1 7836   5.671   4.691   2.560
 2610TIP3    H2 7837   5.768   4.742   2.664
 2611TIP3   OH2 7838   2.986   1.168   2.048
 2611TIP3    H1 7839   3.007   1.086   2.004
 2611TIP3    H2 7840   3.062   1.224   2.035
 2612TIP3   OH2 7841   3.472   2.785   3.251
 2612TIP3    H1 7842   3.385   2.771   3.212
 2612TIP3    H2 7843   3.470   2.876   3.282
 2613TIP3   OH2 7844   3.376   3.466   2.770
 2613TIP3    H1 7845   3.371   3.555   2.806
 2613TIP3    H2 7846   3.331   3.473   2.686
 2614TIP3   OH2 7847   6.316   5.914   4.662
 2614TIP3    H1 7848   6.226   5.933   4.689
 2614TIP3    H2 7849   6.313   5.913   4.566
 2615TIP3   OH2 7850   2.955   4.824   1.673
 2615TIP3    H1 7851   2.914   4.908   1.694
 2615TIP3    H2 7852   2.982   4.790   1.759
 2616TIP3   OH2 7853   0.692   3.386   3.360
 2616TIP3    H1 7854   0.714   3.437   3.282
 2616TIP3    H2 7855   0.596   3.379   3.358
 2617TIP3   OH2 7856   3.879   1.852   1.098
 2617TIP3    H1 7857   3.919   1.881   1.181
 2617TIP3    H2 7858   3.883   1.929   1.042
 2618TIP3   OH2 7859   6.260   5.819   2.405
 2618TIP3    H1 7860   6.242   5.901   2.449
 2618TIP3    H2 7861   6.334   5.839   2.346
 2619TIP3   OH2 7862   4.452   0.160   2.503
 2619TIP3    H1 7863   4.526   0.100   2.501
 2619TIP3    H2 7864   4.390   0.125   2.439
 2620TIP3   OH2 7865   3.086   0.402   1.253
 2620TIP3    H1 7866   3.104   0.310   1.235
 2620TIP3    H2 7867   3.041   0.402   1.338
 2621TIP3   OH2 7868   3.496   4.613   0.906
 2621TIP3    H1 7869   3.502   4.681   0.973
 2621TIP3    H2 7870   3.542   4.537   0.943
 2622TIP3   OH2 7871   5.807   2.949   2.883
 2622TIP3    H1 7872   5.753   2.936   2.961
 2622TIP3    H2 7873   5.753   3.001   2.824
 2623TIP3   OH2 7874   3.130   4.152   0.692
 2623TIP3    H1 7875   3.178   4.231   0.667
 2623TIP3    H2 7876   3.197   4.094   0.727
 2624TIP3   OH2 7877   5.871   5.993   5.040
 2624TIP3    H1 7878   5.799   6.055   5.026
 2624TIP3    H2 7879   5.849   5.918   4.984
 2625TIP3   OH2 7880   0.298   2.031   4.664
 2625TIP3    H1 7881   0.371   2.056   4.607
 2625TIP3    H2 7882   0.291   1.936   4.654
 2626TIP3   OH2 7883   5.965   2.723   0.805
 2626TIP3    H1 7884   6.018   2.786   0.756
 2626TIP3    H2 7885   5.879   2.728   0.764
 2627TIP3   OH2 7886   5.444   0.639   1.382
 2627TIP3    H1 7887   5.443   0.554   1.427
 2627TIP3    H2 7888   5.523   0.683   1.414
 2628TIP3   OH2 7889   2.539   3.509   0.266
 2628TIP3    H1 7890   2.471   3.518   0.199
 2628TIP3    H2 7891   2.507   3.440   0.324
 2629TIP3   OH2 7892   4.366   1.612   3.038
 2629TIP3    H1 7893   4.351   1.520   3.014
 2629TIP3    H2 7894   4.279   1.652   3.036
 2630TIP3   OH2 7895   0.458   4.929   0.304
 2630TIP3    H1 7896   0.498   4.969   0.381
 2630TIP3    H2 7897   0.471   4.835   0.315
 2631TIP3   OH2 7898   1.699   5.854   0.798
 2631TIP3    H1 7899   1.671   5.930   0.848
 2631TIP3    H2 7900   1.789   5.838   0.826
 2632TIP3   OH2 7901   1.345   3.378   4.894
 2632TIP3    H1 7902   1.330   3.289   4.861
 2632TIP3    H2 7903   1.434   3.398   4.867
 2633TIP3   OH2 7904   0.983   5.840   4.135
 2633TIP3    H1 7905   0.997   5.796   4.052
 2633TIP3    H2 7906   0.991   5.771   4.201
 2634TIP3   OH2 7907   5.162   0.852   0.085
 2634TIP3    H1 7908   5.161   0.789   0.013
 2634TIP3    H2 7909   5.071   0.880   0.094
 2635TIP3   OH2 7910   5.774   4.550   3.708
 2635TIP3    H1 7911   5.818   4.466   3.692
 2635TIP3    H2 7912   5.827   4.593   3.775
 2636TIP3   OH2 7913   0.558   1.133   4.284
 2636TIP3    H1 7914   0.600   1.062   4.237
 2636TIP3    H2 7915   0.481   1.155   4.231
 2637TIP3   OH2 7916   2.135   3.211   1.242
 2637TIP3    H1 7917   2.229   3.194   1.253
 2637TIP3    H2 7918   2.126   3.305   1.255
 2638TIP3   OH2 7919   3.554   3.625   4.002
 2638TIP3    H1 7920   3.590   3.552   3.952
 2638TIP3    H2 7921   3.630   3.664   4.046
 2639TIP3   OH2 7922   0.407   0.689   0.647
 2639TIP3    H1 7923   0.401   0.603   0.688
 2639TIP3    H2 7924   0.501   0.700   0.631
 2640TIP3   OH2 7925   3.656   3.035   2.223
 2640TIP3    H1 7926   3.572   3.051   2.182
 2640TIP3    H2 7927   3.659   3.096   2.297
 2641TIP3   OH2 7928   0.844   5.861   2.147
 2641TIP3    H1 7929   0.856   5.799   2.075
 2641TIP3    H2 7930   0.749   5.870   2.155
 2642TIP3   OH2 7931   3.394   0.197   2.946
 2642TIP3    H1 7932   3.347   0.252   3.009
 2642TIP3    H2 7933   3.408   0.254   2.870
 2643TIP3   OH2 7934   1.485   2.791   1.316
 2643TIP3    H1 7935   1.516   2.792   1.226
 2643TIP3    H2 7936   1.531   2.864   1.359
 2644TIP3   OH2 7937   4.833   5.374   4.445
 2644TIP3    H1 7938   4.783   5.405   4.521
 2644TIP3    H2 7939   4.798   5.286   4.428
 2645TIP3   OH2 7940   2.896   5.876   0.081
 2645TIP3    H1 7941   2.988   5.851   0.092
 2645TIP3    H2 7942   2.896   5.971   0.094
 2646TIP3   OH2 7943   4.598   3.163   0.705
 2646TIP3    H1 7944   4.531   3.145   0.639
 2646TIP3    H2 7945   4.606   3.258   0.707
 2647TIP3   OH2 7946   3.879   4.692   4.224
 2647TIP3    H1 7947   3.828   4.624   4.267
 2647TIP3    H2 7948   3.814   4.753   4.190
 2648TIP3   OH2 7949   0.208   3.611   1.786
 2648TIP3    H1 7950   0.187   3.590   1.695
 2648TIP3    H2 7951   0.293   3.570   1.801
 2649TIP3   OH2 7952   0.167   4.625   3.229
 2649TIP3    H1 7953   0.147   4.534   3.208
 2649TIP3    H2 7954   0.260   4.625   3.250
 2650TIP3   OH2 7955   1.794   5.103   0.250
 2650TIP3    H1 7956   1.727   5.037   0.233
 2650TIP3    H2 7957   1.750   5.186   0.230
 2651TIP3   OH2 7958   1.385   2.324   3.087
 2651TIP3    H1 7959   1.359   2.409   3.051
 2651TIP3    H2 7960   1.449   2.345   3.155
 2652TIP3   OH2 7961   1.439   0.526   0.873
 2652TIP3    H1 7962   1.373   0.585   0.910
 2652TIP3    H2 7963   1.523   0.567   0.894
 2653TIP3   OH2 7964   2.831   1.718   3.909
 2653TIP3    H1 7965   2.771   1.644   3.920
 2653TIP3    H2 7966   2.860   1.712   3.818
 2654TIP3   OH2 7967   4.073   3.203   1.500
 2654TIP3    H1 7968   4.131   3.143   1.546
 2654TIP3    H2 7969   4.014   3.237   1.567
 2655TIP3   OH2 7970   5.854   5.229   1.287
 2655TIP3    H1 7971   5.776   5.274   1.254
 2655TIP3    H2 7972   5.819   5.157   1.339
 2656TIP3   OH2 7973   0.903   3.303   0.257
 2656TIP3    H1 7974   0.932   3.320   0.167
 2656TIP3    H2 7975   0.844   3.228   0.248
 2657TIP3   OH2 7976   5.669   5.035   4.515
 2657TIP3    H1 7977   5.638   5.125   4.519
 2657TIP3    H2 7978   5.685   5.019   4.422
 2658TIP3   OH2 7979   4.389   4.442   3.086
 2658TIP3    H1 7980   4.475   4.435   3.127
 2658TIP3    H2 7981   4.356   4.528   3.114
 2659TIP3   OH2 7982   3.081   3.023   3.210
 2659TIP3    H1 7983   3.041   3.037   3.296
 2659TIP3    H2 7984   3.153   3.086   3.205
 2660TIP3   OH2 7985   6.027   1.842   0.926
 2660TIP3    H1 7986   5.955   1.901   0.903
 2660TIP3    H2 7987   6.100   1.870   0.871
 2661TIP3   OH2 7988   0.677   4.984   2.599
 2661TIP3    H1 7989   0.639   5.018   2.518
 2661TIP3    H2 7990   0.602   4.953   2.650
 2662TIP3   OH2 7991   4.145   2.536   1.546
 2662TIP3    H1 7992   4.178   2.608   1.600
 2662TIP3    H2 7993   4.117   2.470   1.609
 2663TIP3   OH2 7994   1.652   5.354   0.515
 2663TIP3    H1 7995   1.713   5.344   0.588
 2663TIP3    H2 7996   1.589   5.283   0.527
 2664TIP3   OH2 7997   0.701   4.507   0.953
 2664TIP3    H1 7998   0.710   4.575   1.019
 2664TIP3    H2 7999   0.681   4.554   0.872
 2665TIP3   OH2 8000   2.221   5.500   3.112
 2665TIP3    H1 8001   2.261   5.586   3.121
 2665TIP3    H2 8002   2.239   5.456   3.195
 2666TIP3   OH2 8003   3.726   4.235   2.317
 2666TIP3    H1 8004   3.776   4.163   2.358
 2666TIP3    H2 8005   3.791   4.281   2.264
 2667TIP3   OH2 8006   1.682   0.988   1.850
 2667TIP3    H1 8007   1.771   0.959   1.870
 2667TIP3    H2 8008   1.694   1.061   1.789
 2668TIP3   OH2 8009   5.393   4.411   3.186
 2668TIP3    H1 8010   5.375   4.492   3.138
 2668TIP3    H2 8011   5.308   4.367   3.192
 2669TIP3   OH2 8012   2.615   1.683   0.865
 2669TIP3    H1 8013   2.570   1.621   0.922
 2669TIP3    H2 8014   2.689   1.633   0.829
 2670TIP3   OH2 8015   2.469   4.124   4.027
 2670TIP3    H1 8016   2.455   4.111   3.933
 2670TIP3    H2 8017   2.381   4.125   4.064
 2671TIP3   OH2 8018   1.444   3.309   1.272
 2671TIP3    H1 8019   1.505   3.276   1.205
 2671TIP3    H2 8020   1.360   3.315   1.226
 2672TIP3   OH2 8021   5.354   5.070   1.747
 2672TIP3    H1 8022   5.379   5.148   1.697
 2672TIP3    H2 8023   5.419   5.065   1.817
 2673TIP3   OH2 8024   4.533   2.801   3.411
 2673TIP3    H1 8025   4.549   2.749   3.333
 2673TIP3    H2 8026   4.598   2.871   3.408
 2674TIP3   OH2 8027   5.573   3.844   0.805
 2674TIP3    H1 8028   5.571   3.817   0.897
 2674TIP3    H2 8029   5.644   3.908   0.800
 2675TIP3   OH2 8030   4.382   5.712   5.052
 2675TIP3    H1 8031   4.444   5.767   5.100
 2675TIP3    H2 8032   4.306   5.769   5.038
 2676TIP3   OH2 8033   1.094   3.859   4.551
 2676TIP3    H1 8034   1.014   3.861   4.498
 2676TIP3    H2 8035   1.091   3.939   4.603
 2677TIP3   OH2 8036   4.758   1.884   0.122
 2677TIP3    H1 8037   4.835   1.940   0.130
 2677TIP3    H2 8038   4.771   1.815   0.186
 2678TIP3   OH2 8039   0.470   4.426   1.293
 2678TIP3    H1 8040   0.484   4.448   1.385
 2678TIP3    H2 8041   0.450   4.332   1.293
 2679TIP3   OH2 8042   5.721   4.425   2.387
 2679TIP3    H1 8043   5.742   4.394   2.475
 2679TIP3    H2 8044   5.634   4.388   2.368
 2680TIP3   OH2 8045   1.499   5.365   4.226
 2680TIP3    H1 8046   1.558   5.416   4.171
 2680TIP3    H2 8047   1.414   5.370   4.181
 2681TIP3   OH2 8048   4.642   2.735   2.417
 2681TIP3    H1 8049   4.721   2.752   2.366
 2681TIP3    H2 8050   4.585   2.685   2.358
 2682TIP3   OH2 8051   2.937   0.117   3.455
 2682TIP3    H1 8052   2.913   0.191   3.510
 2682TIP3    H2 8053   2.875   0.048   3.479
 2683TIP3   OH2 8054   5.865   5.240   4.812
 2683TIP3    H1 8055   5.899   5.255   4.724
 2683TIP3    H2 8056   5.844   5.147   4.813
 2684TIP3   OH2 8057   2.611   1.827   3.580
 2684TIP3    H1 8058   2.621   1.893   3.649
 2684TIP3    H2 8059   2.578   1.876   3.504
 2685TIP3   OH2 8060   0.391   3.084   3.455
 2685TIP3    H1 8061   0.460   3.064   3.518
 2685TIP3    H2 8062   0.340   3.154   3.495
 2686TIP3   OH2 8063   5.759   0.553   2.793
 2686TIP3    H1 8064   5.769   0.578   2.885
 2686TIP3    H2 8065   5.722   0.465   2.796
 2687TIP3   OH2 8066   5.257   3.008   4.240
 2687TIP3    H1 8067   5.277   2.920   4.270
 2687TIP3    H2 8068   5.343   3.047   4.222
 2688TIP3   OH2 8069   0.065   4.807   1.443
 2688TIP3    H1 8070   0.154   4.842   1.439
 2688TIP3    H2 8071   0.008   4.882   1.423
 2689TIP3   OH2 8072   4.933   4.845   0.259
 2689TIP3    H1 8073   4.888   4.761   0.249
 2689TIP3    H2 8074   4.901   4.880   0.342
 2690TIP3   OH2 8075   1.809   5.331   3.754
 2690TIP3    H1 8076   1.835   5.260   3.696
 2690TIP3    H2 8077   1.891   5.363   3.791
 2691TIP3   OH2 8078   1.843   3.427   1.017
 2691TIP3    H1 8079   1.803   3.357   1.069
 2691TIP3    H2 8080   1.828   3.506   1.068
 2692TIP3   OH2 8081   2.183   4.826   1.257
 2692TIP3    H1 8082   2.115   4.894   1.255
 2692TIP3    H2 8083   2.150   4.757   1.199
 2693TIP3   OH2 8084  -0.016   1.305   5.089
 2693TIP3    H1 8085  -0.091   1.357   5.060
 2693TIP3    H2 8086   0.057   1.337   5.036
 2694TIP3   OH2 8087   5.476   4.941   1.190
 2694TIP3    H1 8088   5.445   4.953   1.280
 2694TIP3    H2 8089   5.404   4.894   1.146
 2695TIP3   OH2 8090   5.261   0.471   1.710
 2695TIP3    H1 8091   5.175   0.489   1.674
 2695TIP3    H2 8092   5.303   0.557   1.717
 2696TIP3   OH2 8093   0.245   1.699   1.372
 2696TIP3    H1 8094   0.331   1.667   1.399
 2696TIP3    H2 8095   0.183   1.639   1.411
 2697TIP3   OH2 8096   3.622   0.632   4.107
 2697TIP3    H1 8097   3.580   0.553   4.142
 2697TIP3    H2 8098   3.700   0.600   4.063
 2698TIP3   OH2 8099   4.423   5.704   1.365
 2698TIP3    H1 8100   4.339   5.705   1.412
 2698TIP3    H2 8101   4.411   5.641   1.295
 2699TIP3   OH2 8102   4.517   1.617   1.860
 2699TIP3    H1 8103   4.539   1.592   1.770
 2699TIP3    H2 8104   4.535   1.539   1.912
 2700TIP3   OH2 8105   1.042   5.500   1.641
 2700TIP3    H1 8106   1.005   5.573   1.591
 2700TIP3    H2 8107   1.080   5.541   1.718
 2701TIP3   OH2 8108   0.408   4.160   1.354
 2701TIP3    H1 8109   0.359   4.099   1.299
 2701TIP3    H2 8110   0.378   4.142   1.443
 2702TIP3   OH2 8111   5.455   5.629   2.179
 2702TIP3    H1 8112   5.359   5.626   2.178
 2702TIP3    H2 8113   5.477   5.684   2.104
 2703TIP3   OH2 8114   2.777   1.432   3.973
 2703TIP3    H1 8115   2.801   1.457   4.062
 2703TIP3    H2 8116   2.836   1.359   3.953
 2704TIP3   OH2 8117   0.180   1.150   1.631
 2704TIP3    H1 8118   0.190   1.056   1.619
 2704TIP3    H2 8119   0.168   1.185   1.543
 2705TIP3   OH2 8120   0.439   0.272   3.356
 2705TIP3    H1 8121   0.534   0.276   3.354
 2705TIP3    H2 8122   0.410   0.357   3.323
 2706TIP3   OH2 8123   3.882   1.547   0.968
 2706TIP3    H1 8124   3.794   1.575   0.995
 2706TIP3    H2 8125   3.937   1.564   1.044
 2707TIP3   OH2 8126   2.241   4.127   4.460
 2707TIP3    H1 8127   2.271   4.216   4.480
 2707TIP3    H2 8128   2.257   4.078   4.541
 2708TIP3   OH2 8129   4.206   4.671   2.948
 2708TIP3    H1 8130   4.270   4.732   2.911
 2708TIP3    H2 8131   4.208   4.688   3.042
 2709TIP3   OH2 8132   5.441   1.188   0.693
 2709TIP3    H1 8133   5.410   1.212   0.606
 2709TIP3    H2 8134   5.513   1.248   0.710
 2710TIP3   OH2 8135   4.275   5.137   3.819
 2710TIP3    H1 8136   4.364   5.158   3.844
 2710TIP3    H2 8137   4.237   5.220   3.793
 2711TIP3   OH2 8138   3.434   4.743   4.714
 2711TIP3    H1 8139   3.377   4.694   4.773
 2711TIP3    H2 8140   3.523   4.715   4.737
 2712TIP3   OH2 8141   1.431   4.152   2.355
 2712TIP3    H1 8142   1.500   4.217   2.371
 2712TIP3    H2 8143   1.350   4.198   2.378
 2713TIP3   OH2 8144   5.048   2.248   4.336
 2713TIP3    H1 8145   5.014   2.159   4.347
 2713TIP3    H2 8146   5.115   2.240   4.268
 2714TIP3   OH2 8147   3.416   0.809   4.719
 2714TIP3    H1 8148   3.434   0.847   4.633
 2714TIP3    H2 8149   3.423   0.883   4.780
 2715TIP3   OH2 8150   3.200   1.260   4.211
 2715TIP3    H1 8151   3.120   1.238   4.258
 2715TIP3    H2 8152   3.226   1.179   4.167
 2716TIP3   OH2 8153   0.056   0.892   1.875
 2716TIP3    H1 8154   0.084   0.956   1.940
 2716TIP3    H2 8155   0.062   0.938   1.791
 2717TIP3   OH2 8156   3.566   0.002   3.077
 2717TIP3    H1 8157   3.518   0.053   3.012
 2717TIP3    H2 8158   3.596   0.066   3.141
 2718TIP3   OH2 8159   1.826   0.808   1.345
 2718TIP3    H1 8160   1.740   0.846   1.328
 2718TIP3    H2 8161   1.884   0.883   1.358
 2719TIP3   OH2 8162   4.396   2.133   2.524
 2719TIP3    H1 8163   4.330   2.134   2.455
 2719TIP3    H2 8164   4.349   2.158   2.604
 2720TIP3   OH2 8165   1.384   0.078   1.029
 2720TIP3    H1 8166   1.315   0.027   0.988
 2720TIP3    H2 8167   1.444   0.013   1.064
 2721TIP3   OH2 8168   4.399   3.466   2.551
 2721TIP3    H1 8169   4.393   3.415   2.469
 2721TIP3    H2 8170   4.449   3.543   2.528
 2722TIP3   OH2 8171   4.820   3.744   0.764
 2722TIP3    H1 8172   4.805   3.659   0.724
 2722TIP3    H2 8173   4.911   3.741   0.794
 2723TIP3   OH2 8174   5.353   3.367   1.946
 2723TIP3    H1 8175   5.296   3.290   1.950
 2723TIP3    H2 8176   5.409   3.359   2.023
 2724TIP3   OH2 8177   6.204   4.873   0.400
 2724TIP3    H1 8178   6.269   4.933   0.364
 2724TIP3    H2 8179   6.157   4.839   0.324
 2725TIP3   OH2 8180   4.866   1.809   3.014
 2725TIP3    H1 8181   4.945   1.777   3.057
 2725TIP3    H2 8182   4.837   1.882   3.069
 2726TIP3   OH2 8183   5.432   5.577   0.668
 2726TIP3    H1 8184   5.363   5.517   0.695
 2726TIP3    H2 8185   5.495   5.576   0.740
 2727TIP3   OH2 8186   3.752   3.396   3.441
 2727TIP3    H1 8187   3.750   3.422   3.533
 2727TIP3    H2 8188   3.798   3.468   3.397
 2728TIP3   OH2 8189   6.106   1.034   3.218
 2728TIP3    H1 8190   6.017   1.065   3.202
 2728TIP3    H2 8191   6.151   1.109   3.256
 2729TIP3   OH2 8192   1.698   5.663   4.351
 2729TIP3    H1 8193   1.756   5.632   4.420
 2729TIP3    H2 8194   1.615   5.616   4.365
 2730TIP3   OH2 8195   1.806   2.085   0.061
 2730TIP3    H1 8196   1.862   2.133   0.000
 2730TIP3    H2 8197   1.864   2.055   0.130
 2731TIP3   OH2 8198   4.509   0.217   0.076
 2731TIP3    H1 8199   4.526   0.166  -0.003
 2731TIP3    H2 8200   4.581   0.280   0.080
 2732TIP3   OH2 8201   4.648   0.615   2.619
 2732TIP3    H1 8202   4.620   0.529   2.650
 2732TIP3    H2 8203   4.599   0.678   2.672
 2733TIP3   OH2 8204   5.984   1.978   4.051
 2733TIP3    H1 8205   6.068   1.943   4.080
 2733TIP3    H2 8206   6.004   2.027   3.972
 2734TIP3   OH2 8207   4.706   1.136   4.699
 2734TIP3    H1 8208   4.706   1.087   4.782
 2734TIP3    H2 8209   4.620   1.118   4.661
 2735TIP3   OH2 8210   6.304   0.616   1.700
 2735TIP3    H1 8211   6.305   0.585   1.609
 2735TIP3    H2 8212   6.254   0.697   1.697
 2736TIP3   OH2 8213   4.469   5.501   0.660
 2736TIP3    H1 8214   4.531   5.443   0.617
 2736TIP3    H2 8215   4.383   5.471   0.629
 2737TIP3   OH2 8216   3.143   2.784   1.160
 2737TIP3    H1 8217   3.099   2.700   1.149
 2737TIP3    H2 8218   3.089   2.846   1.112
 2738TIP3   OH2 8219   0.458   4.534   4.099
 2738TIP3    H1 8220   0.531   4.570   4.150
 2738TIP3    H2 8221   0.421   4.466   4.155
 2739TIP3   OH2 8222   4.149   1.054   4.845
 2739TIP3    H1 8223   4.231   1.015   4.816
 2739TIP3    H2 8224   4.093   1.055   4.767
 2740TIP3   OH2 8225   2.052   5.870   2.276
 2740TIP3    H1 8226   2.007   5.816   2.341
 2740TIP3    H2 8227   2.036   5.826   2.193
 2741TIP3   OH2 8228   1.395   2.319   4.754
 2741TIP3    H1 8229   1.490   2.327   4.764
 2741TIP3    H2 8230   1.364   2.295   4.841
 2742TIP3   OH2 8231   5.686   1.638   1.228
 2742TIP3    H1 8232   5.699   1.544   1.241
 2742TIP3    H2 8233   5.767   1.668   1.187
 2743TIP3   OH2 8234   2.727   1.135   1.867
 2743TIP3    H1 8235   2.769   1.138   1.781
 2743TIP3    H2 8236   2.794   1.164   1.928
 2744TIP3   OH2 8237   5.126   0.084   3.902
 2744TIP3    H1 8238   5.177   0.018   3.948
 2744TIP3    H2 8239   5.143   0.165   3.950
 2745TIP3   OH2 8240   3.001   5.368   1.585
 2745TIP3    H1 8241   2.918   5.358   1.539
 2745TIP3    H2 8242   2.977   5.386   1.676
 2746TIP3   OH2 8243   3.760   3.486   3.707
 2746TIP3    H1 8244   3.740   3.580   3.702
 2746TIP3    H2 8245   3.736   3.462   3.797
 2747TIP3   OH2 8246   6.002   5.530   2.184
 2747TIP3    H1 8247   6.090   5.492   2.176
 2747TIP3    H2 8248   5.963   5.521   2.097
 2748TIP3   OH2 8249   3.123   4.856   0.781
 2748TIP3    H1 8250   3.172   4.823   0.857
 2748TIP3    H2 8251   3.033   4.861   0.812
 2749TIP3   OH2 8252   6.179   1.094   4.646
 2749TIP3    H1 8253   6.258   1.116   4.696
 2749TIP3    H2 8254   6.151   1.010   4.682
 2750TIP3   OH2 8255   6.041   2.517   3.683
 2750TIP3    H1 8256   6.024   2.486   3.772
 2750TIP3    H2 8257   5.985   2.462   3.628
 2751TIP3   OH2 8258   4.444   3.685   4.108
 2751TIP3    H1 8259   4.386   3.613   4.135
 2751TIP3    H2 8260   4.531   3.658   4.139
 2752TIP3   OH2 8261   1.641   2.398   3.193
 2752TIP3    H1 8262   1.708   2.453   3.153
 2752TIP3    H2 8263   1.664   2.309   3.168
 2753TIP3   OH2 8264   0.981   1.836   4.768
 2753TIP3    H1 8265   0.959   1.796   4.853
 2753TIP3    H2 8266   0.947   1.925   4.773
 2754TIP3   OH2 8267   5.524   2.454   2.906
 2754TIP3    H1 8268   5.607   2.460   2.954
 2754TIP3    H2 8269   5.493   2.544   2.901
 2755TIP3   OH2 8270   0.921   0.918   4.269
 2755TIP3    H1 8271   1.012   0.933   4.243
 2755TIP3    H2 8272   0.923   0.840   4.323
 2756TIP3   OH2 8273   1.202   5.207   5.018
 2756TIP3    H1 8274   1.159   5.292   5.017
 2756TIP3    H2 8275   1.133   5.145   4.992
 2757TIP3   OH2 8276   6.027   0.579   2.773
 2757TIP3    H1 8277   5.932   0.587   2.769
 2757TIP3    H2 8278   6.056   0.654   2.825
 2758TIP3   OH2 8279   4.384   2.761   1.286
 2758TIP3    H1 8280   4.389   2.666   1.274
 2758TIP3    H2 8281   4.312   2.774   1.347
 2759TIP3   OH2 8282   1.920   0.739   1.783
 2759TIP3    H1 8283   1.878   0.664   1.740
 2759TIP3    H2 8284   1.934   0.710   1.874
 2760TIP3   OH2 8285   4.857   2.109   2.737
 2760TIP3    H1 8286   4.904   2.134   2.817
 2760TIP3    H2 8287   4.764   2.111   2.762
 2761TIP3   OH2 8288   1.927   5.129   5.035
 2761TIP3    H1 8289   1.915   5.038   5.007
 2761TIP3    H2 8290   1.857   5.144   5.098
 2762TIP3   OH2 8291   5.915   2.366   1.709
 2762TIP3    H1 8292   5.878   2.312   1.639
 2762TIP3    H2 8293   5.963   2.435   1.663
 2763TIP3   OH2 8294   3.119   2.932   1.410
 2763TIP3    H1 8295   3.051   2.985   1.367
 2763TIP3    H2 8296   3.145   2.868   1.344
 2764TIP3   OH2 8297   2.736   5.775   2.794
 2764TIP3    H1 8298   2.752   5.837   2.723
 2764TIP3    H2 8299   2.740   5.828   2.874
 2765TIP3   OH2 8300   2.007   5.278   3.135
 2765TIP3    H1 8301   2.033   5.350   3.077
 2765TIP3    H2 8302   1.986   5.321   3.218
 2766TIP3   OH2 8303   1.951   0.991   1.682
 2766TIP3    H1 8304   2.007   1.024   1.753
 2766TIP3    H2 8305   1.946   0.896   1.698
 2767TIP3   OH2 8306   2.738   2.490   4.268
 2767TIP3    H1 8307   2.781   2.436   4.333
 2767TIP3    H2 8308   2.689   2.428   4.213
 2768TIP3   OH2 8309   3.832   2.033   2.209
 2768TIP3    H1 8310   3.834   2.028   2.113
 2768TIP3    H2 8311   3.924   2.047   2.234
 2769TIP3   OH2 8312   2.831   5.934   4.657
 2769TIP3    H1 8313   2.865   5.955   4.570
 2769TIP3    H2 8314   2.739   5.960   4.653
 2770TIP3   OH2 8315   3.256   0.377   2.396
 2770TIP3    H1 8316   3.188   0.343   2.338
 2770TIP3    H2 8317   3.303   0.441   2.343
 2771TIP3   OH2 8318   1.912   0.877   3.368
 2771TIP3    H1 8319   2.007   0.872   3.357
 2771TIP3    H2 8320   1.877   0.858   3.281
 2772TIP3   OH2 8321   6.109   0.768   4.298
 2772TIP3    H1 8322   6.205   0.766   4.298
 2772TIP3    H2 8323   6.085   0.727   4.382
 2773TIP3   OH2 8324   4.820   6.022   4.430
 2773TIP3    H1 8325   4.786   5.935   4.451
 2773TIP3    H2 8326   4.876   6.045   4.503
 2774TIP3   OH2 8327   3.786   5.833   2.229
 2774TIP3    H1 8328   3.774   5.908   2.288
 2774TIP3    H2 8329   3.712   5.775   2.249
 2775TIP3   OH2 8330   3.014   0.214   0.641
 2775TIP3    H1 8331   3.002   0.299   0.601
 2775TIP3    H2 8332   3.068   0.231   0.718
 2776TIP3   OH2 8333   1.686   4.208   2.588
 2776TIP3    H1 8334   1.749   4.176   2.652
 2776TIP3    H2 8335   1.671   4.300   2.613
 2777TIP3   OH2 8336   0.380   5.562   3.377
 2777TIP3    H1 8337   0.456   5.519   3.416
 2777TIP3    H2 8338   0.385   5.541   3.284
 2778TIP3   OH2 8339   4.796   4.833   2.076
 2778TIP3    H1 8340   4.788   4.739   2.094
 2778TIP3    H2 8341   4.883   4.842   2.036
 2779TIP3   OH2 8342   3.435   3.142   4.968
 2779TIP3    H1 8343   3.485   3.223   4.980
 2779TIP3    H2 8344   3.497   3.080   4.931
 2780TIP3   OH2 8345   0.533   4.049   4.430
 2780TIP3    H1 8346   0.491   3.964   4.441
 2780TIP3    H2 8347   0.553   4.054   4.336
 2781TIP3   OH2 8348   4.517   1.702   4.496
 2781TIP3    H1 8349   4.598   1.660   4.465
 2781TIP3    H2 8350   4.449   1.665   4.440
 2782TIP3   OH2 8351   5.512   4.030   4.351
 2782TIP3    H1 8352   5.569   3.969   4.305
 2782TIP3    H2 8353   5.524   4.008   4.444
 2783TIP3   OH2 8354   5.928   5.631   2.867
 2783TIP3    H1 8355   5.843   5.649   2.827
 2783TIP3    H2 8356   5.989   5.631   2.793
 2784TIP3   OH2 8357   3.123   2.562   0.455
 2784TIP3    H1 8358   3.162   2.649   0.458
 2784TIP3    H2 8359   3.056   2.563   0.524
 2785TIP3   OH2 8360   4.553   3.817   0.066
 2785TIP3    H1 8361   4.476   3.761   0.058
 2785TIP3    H2 8362   4.591   3.794   0.150
 2786TIP3   OH2 8363   1.804   0.526   2.499
 2786TIP3    H1 8364   1.847   0.478   2.569
 2786TIP3    H2 8365   1.852   0.502   2.420
 2787TIP3   OH2 8366   5.525   4.327   0.863
 2787TIP3    H1 8367   5.604   4.334   0.809
 2787TIP3    H2 8368   5.507   4.417   0.892
 2788TIP3   OH2 8369   4.847   3.218   2.055
 2788TIP3    H1 8370   4.755   3.220   2.030
 2788TIP3    H2 8371   4.892   3.180   1.979
 2789TIP3   OH2 8372   4.213   5.608   0.769
 2789TIP3    H1 8373   4.246   5.534   0.820
 2789TIP3    H2 8374   4.142   5.572   0.717
 2790TIP3   OH2 8375   5.883   1.449   4.083
 2790TIP3    H1 8376   5.835   1.438   4.001
 2790TIP3    H2 8377   5.964   1.493   4.058
 2791TIP3   OH2 8378   5.367   0.220   3.433
 2791TIP3    H1 8379   5.293   0.221   3.373
 2791TIP3    H2 8380   5.330   0.192   3.517
 2792TIP3   OH2 8381   0.356   0.305   1.387
 2792TIP3    H1 8382   0.418   0.329   1.455
 2792TIP3    H2 8383   0.344   0.385   1.336
 2793TIP3   OH2 8384   0.896   1.309   3.224
 2793TIP3    H1 8385   0.947   1.282   3.148
 2793TIP3    H2 8386   0.937   1.390   3.254
 2794TIP3   OH2 8387   5.609   4.242   2.902
 2794TIP3    H1 8388   5.684   4.217   2.956
 2794TIP3    H2 8389   5.533   4.209   2.950
 2795TIP3   OH2 8390   2.963   4.116   4.103
 2795TIP3    H1 8391   2.875   4.109   4.140
 2795TIP3    H2 8392   3.015   4.051   4.151
 2796TIP3   OH2 8393   0.908   3.871   3.334
 2796TIP3    H1 8394   0.895   3.859   3.240
 2796TIP3    H2 8395   0.845   3.938   3.359
 2797TIP3   OH2 8396   0.199   1.975   3.761
 2797TIP3    H1 8397   0.230   1.893   3.799
 2797TIP3    H2 8398   0.104   1.973   3.774
 2798TIP3   OH2 8399   0.183   3.229   2.561
 2798TIP3    H1 8400   0.163   3.322   2.567
 2798TIP3    H2 8401   0.111   3.185   2.606
 2799TIP3   OH2 8402   1.893   5.024   2.498
 2799TIP3    H1 8403   1.936   5.109   2.508
 2799TIP3    H2 8404   1.812   5.043   2.452
 2800TIP3   OH2 8405   4.075   3.114   0.143
 2800TIP3    H1 8406   4.119   3.093   0.061
 2800TIP3    H2 8407   4.116   3.058   0.208
 2801TIP3   OH2 8408   1.078   5.130   3.019
 2801TIP3    H1 8409   1.125   5.193   3.074
 2801TIP3    H2 8410   1.104   5.152   2.929
 2802TIP3   OH2 8411   4.129   5.793   2.667
 2802TIP3    H1 8412   4.134   5.887   2.651
 2802TIP3    H2 8413   4.042   5.768   2.636
 2803TIP3   OH2 8414   3.500  -0.034   2.645
 2803TIP3    H1 8415   3.489   0.037   2.582
 2803TIP3    H2 8416   3.510  -0.112   2.591
 2804TIP3   OH2 8417   1.818   0.177   1.104
 2804TIP3    H1 8418   1.809   0.259   1.056
 2804TIP3    H2 8419   1.763   0.115   1.056
 2805TIP3   OH2 8420   0.116   2.781   4.359
 2805TIP3    H1 8421   0.071   2.850   4.311
 2805TIP3    H2 8422   0.061   2.766   4.436
 2806TIP3   OH2 8423   0.733   0.428   1.097
 2806TIP3    H1 8424   0.784   0.490   1.044
 2806TIP3    H2 8425   0.766   0.440   1.186
 2807TIP3   OH2 8426   0.888   2.603   1.156
 2807TIP3    H1 8427   0.827   2.532   1.137
 2807TIP3    H2 8428   0.954   2.564   1.213
 2808TIP3   OH2 8429   2.881   3.661   0.953
 2808TIP3    H1 8430   2.888   3.592   1.019
 2808TIP3    H2 8431   2.971   3.683   0.930
 2809TIP3   OH2 8432   2.612   2.003   4.085
 2809TIP3    H1 8433   2.590   1.911   4.099
 2809TIP3    H2 8434   2.593   2.019   3.993
 2810TIP3   OH2 8435   3.119   5.568   4.421
 2810TIP3    H1 8436   3.097   5.636   4.357
 2810TIP3    H2 8437   3.089   5.486   4.381
 2811TIP3   OH2 8438   0.613   4.480   3.066
 2811TIP3    H1 8439   0.537   4.538   3.059
 2811TIP3    H2 8440   0.645   4.470   2.976
 2812TIP3   OH2 8441   0.583   3.734   3.181
 2812TIP3    H1 8442   0.663   3.682   3.183
 2812TIP3    H2 8443   0.586   3.779   3.096
 2813TIP3   OH2 8444   4.071   1.787   2.839
 2813TIP3    H1 8445   4.012   1.786   2.915
 2813TIP3    H2 8446   4.148   1.835   2.870
 2814TIP3   OH2 8447   0.368   5.238   0.668
 2814TIP3    H1 8448   0.425   5.315   0.660
 2814TIP3    H2 8449   0.428   5.164   0.660
 2815TIP3   OH2 8450   2.815   0.488   1.817
 2815TIP3    H1 8451   2.728   0.497   1.855
 2815TIP3    H2 8452   2.803   0.430   1.742
 2816TIP3   OH2 8453   1.440   4.393   4.440
 2816TIP3    H1 8454   1.370   4.439   4.394
 2816TIP3    H2 8455   1.521   4.430   4.405
 2817TIP3   OH2 8456   5.093   2.479   3.246
 2817TIP3    H1 8457   5.189   2.473   3.242
 2817TIP3    H2 8458   5.076   2.573   3.249
 2818TIP3   OH2 8459   3.667   4.253   4.217
 2818TIP3    H1 8460   3.630   4.323   4.270
 2818TIP3    H2 8461   3.751   4.288   4.186
 2819TIP3   OH2 8462   5.158   0.490   4.906
 2819TIP3    H1 8463   5.149   0.486   4.811
 2819TIP3    H2 8464   5.083   0.542   4.935
 2820TIP3   OH2 8465   0.978   2.153   2.948
 2820TIP3    H1 8466   1.015   2.241   2.949
 2820TIP3    H2 8467   0.918   2.153   2.873
 2821TIP3   OH2 8468   0.729   0.674   3.356
 2821TIP3    H1 8469   0.770   0.603   3.309
 2821TIP3    H2 8470   0.802   0.725   3.392
 2822TIP3   OH2 8471   1.550   3.030   4.019
 2822TIP3    H1 8472   1.621   2.968   4.036
 2822TIP3    H2 8473   1.513   3.001   3.936
 2823TIP3   OH2 8474   4.367   3.750   1.311
 2823TIP3    H1 8475   4.298   3.729   1.247
 2823TIP3    H2 8476   4.396   3.664   1.343
 2824TIP3   OH2 8477   2.215   5.760   2.929
 2824TIP3    H1 8478   2.214   5.851   2.897
 2824TIP3    H2 8479   2.307   5.742   2.946
 2825TIP3   OH2 8480   2.348   2.785   2.000
 2825TIP3    H1 8481   2.288   2.712   2.014
 2825TIP3    H2 8482   2.296   2.863   2.020
 2826TIP3   OH2 8483   3.971   4.531   1.251
 2826TIP3    H1 8484   3.884   4.560   1.278
 2826TIP3    H2 8485   3.974   4.439   1.276
 2827TIP3   OH2 8486   4.706   4.290   1.223
 2827TIP3    H1 8487   4.712   4.268   1.130
 2827TIP3    H2 8488   4.740   4.213   1.269
 2828TIP3   OH2 8489   6.046   4.790   3.398
 2828TIP3    H1 8490   6.101   4.744   3.335
 2828TIP3    H2 8491   6.078   4.761   3.483
 2829TIP3   OH2 8492   4.763   3.300   3.308
 2829TIP3    H1 8493   4.843   3.352   3.306
 2829TIP3    H2 8494   4.792   3.209   3.299
 2830TIP3   OH2 8495   3.516   2.277   3.660
 2830TIP3    H1 8496   3.494   2.313   3.573
 2830TIP3    H2 8497   3.478   2.339   3.722
 2831TIP3   OH2 8498   4.984   3.303   3.708
 2831TIP3    H1 8499   4.919   3.258   3.762
 2831TIP3    H2 8500   4.934   3.368   3.659
 2832TIP3   OH2 8501   1.461   5.887   4.506
 2832TIP3    H1 8502   1.480   5.924   4.592
 2832TIP3    H2 8503   1.493   5.952   4.444
 2833TIP3   OH2 8504   0.332   1.467   4.241
 2833TIP3    H1 8505   0.265   1.528   4.271
 2833TIP3    H2 8506   0.398   1.467   4.311
 2834TIP3   OH2 8507   5.557   5.656   1.423
 2834TIP3    H1 8508   5.564   5.746   1.454
 2834TIP3    H2 8509   5.481   5.621   1.469
 2835TIP3   OH2 8510   5.035   3.091   2.219
 2835TIP3    H1 8511   4.951   3.110   2.178
 2835TIP3    H2 8512   5.099   3.142   2.170
 2836TIP3   OH2 8513   5.256   5.189   1.174
 2836TIP3    H1 8514   5.249   5.194   1.269
 2836TIP3    H2 8515   5.320   5.257   1.151
 2837TIP3   OH2 8516   0.061   0.493   4.373
 2837TIP3    H1 8517   0.116   0.420   4.346
 2837TIP3    H2 8518  -0.020   0.483   4.323
 2838TIP3   OH2 8519   1.881   2.651   1.279
 2838TIP3    H1 8520   1.885   2.633   1.373
 2838TIP3    H2 8521   1.790   2.636   1.256
 2839TIP3   OH2 8522   3.532   2.250   0.014
 2839TIP3    H1 8523   3.618   2.218   0.042
 2839TIP3    H2 8524   3.484   2.264   0.095
 2840TIP3   OH2 8525   2.169   2.017   4.442
 2840TIP3    H1 8526   2.080   2.031   4.410
 2840TIP3    H2 8527   2.219   1.994   4.364
 2841TIP3   OH2 8528   1.198   3.775   2.839
 2841TIP3    H1 8529   1.185   3.852   2.784
 2841TIP3    H2 8530   1.187   3.807   2.928
 2842TIP3   OH2 8531   3.529   1.250   0.075
 2842TIP3    H1 8532   3.607   1.196   0.081
 2842TIP3    H2 8533   3.489   1.226  -0.009
 2843TIP3   OH2 8534   5.964   1.812   5.150
 2843TIP3    H1 8535   6.002   1.881   5.096
 2843TIP3    H2 8536   5.931   1.857   5.228
 2844TIP3   OH2 8537   0.844   4.888   4.890
 2844TIP3    H1 8538   0.760   4.900   4.935
 2844TIP3    H2 8539   0.860   4.972   4.847
 2845TIP3   OH2 8540   2.953   5.194   4.392
 2845TIP3    H1 8541   2.964   5.143   4.472
 2845TIP3    H2 8542   3.042   5.207   4.359
 2846TIP3   OH2 8543   5.549   5.840   1.656
 2846TIP3    H1 8544   5.553   5.910   1.722
 2846TIP3    H2 8545   5.456   5.829   1.638
 2847TIP3   OH2 8546   5.784   4.596   4.883
 2847TIP3    H1 8547   5.852   4.645   4.929
 2847TIP3    H2 8548   5.820   4.580   4.796
 2848TIP3   OH2 8549   5.229   3.286   4.584
 2848TIP3    H1 8550   5.153   3.283   4.526
 2848TIP3    H2 8551   5.221   3.208   4.639
 2849TIP3   OH2 8552   3.388   2.228   1.226
 2849TIP3    H1 8553   3.431   2.295   1.174
 2849TIP3    H2 8554   3.450   2.207   1.296
 2850TIP3   OH2 8555   5.277   1.368   3.922
 2850TIP3    H1 8556   5.259   1.382   3.829
 2850TIP3    H2 8557   5.308   1.278   3.927
 2851TIP3   OH2 8558   4.030   4.592   0.798
 2851TIP3    H1 8559   3.974   4.659   0.837
 2851TIP3    H2 8560   3.979   4.512   0.802
 2852TIP3   OH2 8561   4.954   1.891   3.787
 2852TIP3    H1 8562   4.998   1.844   3.716
 2852TIP3    H2 8563   4.989   1.980   3.782
 2853TIP3   OH2 8564   3.147   3.223   2.022
 2853TIP3    H1 8565   3.056   3.234   1.996
 2853TIP3    H2 8566   3.173   3.139   1.984
 2854TIP3   OH2 8567   3.386   1.168   2.400
 2854TIP3    H1 8568   3.329   1.095   2.378
 2854TIP3    H2 8569   3.367   1.187   2.492
 2855TIP3   OH2 8570   6.060   1.329   1.105
 2855TIP3    H1 8571   6.029   1.245   1.071
 2855TIP3    H2 8572   6.008   1.394   1.057
 2856TIP3   OH2 8573   6.132   1.101   2.146
 2856TIP3    H1 8574   6.080   1.103   2.066
 2856TIP3    H2 8575   6.223   1.102   2.115
 2857TIP3   OH2 8576   2.911   1.052   0.241
 2857TIP3    H1 8577   2.848   1.030   0.310
 2857TIP3    H2 8578   2.886   0.997   0.167
 2858TIP3   OH2 8579   4.973   3.503   3.156
 2858TIP3    H1 8580   5.021   3.454   3.223
 2858TIP3    H2 8581   4.954   3.438   3.088
 2859TIP3   OH2 8582   4.544   3.322   4.867
 2859TIP3    H1 8583   4.527   3.276   4.784
 2859TIP3    H2 8584   4.462   3.315   4.916
 2860TIP3   OH2 8585   3.573   5.173   1.305
 2860TIP3    H1 8586   3.566   5.092   1.255
 2860TIP3    H2 8587   3.628   5.150   1.380
 2861TIP3   OH2 8588   4.313   2.287   3.403
 2861TIP3    H1 8589   4.358   2.347   3.462
 2861TIP3    H2 8590   4.263   2.344   3.344
 2862TIP3   OH2 8591   5.887   1.148   3.524
 2862TIP3    H1 8592   5.966   1.103   3.552
 2862TIP3    H2 8593   5.823   1.130   3.594
 2863TIP3   OH2 8594   5.319   3.649   1.501
 2863TIP3    H1 8595   5.368   3.616   1.576
 2863TIP3    H2 8596   5.377   3.714   1.461
 2864TIP3   OH2 8597   2.662   2.014   2.776
 2864TIP3    H1 8598   2.714   2.003   2.856
 2864TIP3    H2 8599   2.608   1.935   2.771
 2865TIP3   OH2 8600   5.472   5.040   4.150
 2865TIP3    H1 8601   5.565   5.035   4.171
 2865TIP3    H2 8602   5.464   5.119   4.095
 2866TIP3   OH2 8603   0.489   2.127   2.747
 2866TIP3    H1 8604   0.566   2.180   2.767
 2866TIP3    H2 8605   0.454   2.165   2.666
 2867TIP3   OH2 8606   5.765   4.117   1.075
 2867TIP3    H1 8607   5.821   4.166   1.135
 2867TIP3    H2 8608   5.794   4.143   0.988
 2868TIP3   OH2 8609   1.234   5.259   1.968
 2868TIP3    H1 8610   1.273   5.174   1.988
 2868TIP3    H2 8611   1.185   5.282   2.046
 2869TIP3   OH2 8612   0.281   5.703   1.179
 2869TIP3    H1 8613   0.188   5.704   1.203
 2869TIP3    H2 8614   0.287   5.638   1.109
 2870TIP3   OH2 8615   0.740   2.974   1.604
 2870TIP3    H1 8616   0.772   2.888   1.634
 2870TIP3    H2 8617   0.788   2.990   1.522
 2871TIP3   OH2 8618   0.399   4.389   0.301
 2871TIP3    H1 8619   0.482   4.367   0.260
 2871TIP3    H2 8620   0.380   4.316   0.359
 2872TIP3   OH2 8621   1.339   5.125   3.662
 2872TIP3    H1 8622   1.431   5.153   3.654
 2872TIP3    H2 8623   1.322   5.124   3.756
 2873TIP3   OH2 8624   5.216   0.205   1.316
 2873TIP3    H1 8625   5.252   0.150   1.385
 2873TIP3    H2 8626   5.122   0.208   1.334
 2874TIP3   OH2 8627   4.907   6.005   0.177
 2874TIP3    H1 8628   4.988   5.979   0.133
 2874TIP3    H2 8629   4.842   6.008   0.106
 2875TIP3   OH2 8630   6.226   4.141   3.020
 2875TIP3    H1 8631   6.165   4.193   2.969
 2875TIP3    H2 8632   6.244   4.064   2.966
 2876TIP3   OH2 8633   2.082   5.518   3.588
 2876TIP3    H1 8634   2.063   5.497   3.679
 2876TIP3    H2 8635   2.043   5.604   3.575
 2877TIP3   OH2 8636   4.769   5.312   2.476
 2877TIP3    H1 8637   4.730   5.336   2.392
 2877TIP3    H2 8638   4.796   5.395   2.515
 2878TIP3   OH2 8639   2.503   0.715   3.859
 2878TIP3    H1 8640   2.548   0.674   3.933
 2878TIP3    H2 8641   2.512   0.652   3.788
 2879TIP3   OH2 8642   0.870   0.125   2.696
 2879TIP3    H1 8643   0.914   0.137   2.612
 2879TIP3    H2 8644   0.834   0.036   2.691
 2880TIP3   OH2 8645   6.001   4.525   2.623
 2880TIP3    H1 8646   5.961   4.603   2.662
 2880TIP3    H2 8647   6.037   4.555   2.540
 2881TIP3   OH2 8648   3.469   4.087   4.093
 2881TIP3    H1 8649   3.469   4.018   4.159
 2881TIP3    H2 8650   3.550   4.135   4.108
 2882TIP3   OH2 8651   2.122   0.254   4.093
 2882TIP3    H1 8652   2.064   0.292   4.028
 2882TIP3    H2 8653   2.068   0.191   4.141
 2883TIP3   OH2 8654   6.007   3.673   2.368
 2883TIP3    H1 8655   6.062   3.744   2.336
 2883TIP3    H2 8656   6.064   3.596   2.369
 2884TIP3   OH2 8657   4.325   5.382   1.622
 2884TIP3    H1 8658   4.267   5.457   1.613
 2884TIP3    H2 8659   4.269   5.306   1.608
 2885TIP3   OH2 8660   1.244   3.623   2.466
 2885TIP3    H1 8661   1.236   3.674   2.386
 2885TIP3    H2 8662   1.246   3.532   2.437
 2886TIP3   OH2 8663   1.129   0.374   3.062
 2886TIP3    H1 8664   1.083   0.353   2.981
 2886TIP3    H2 8665   1.181   0.451   3.040
 2887TIP3   OH2 8666   4.873   2.655   0.820
 2887TIP3    H1 8667   4.964   2.679   0.802
 2887TIP3    H2 8668   4.830   2.738   0.843
 2888TIP3   OH2 8669   5.792   1.618   3.375
 2888TIP3    H1 8670   5.722   1.569   3.332
 2888TIP3    H2 8671   5.752   1.701   3.400
 2889TIP3   OH2 8672   6.162   2.135   0.558
 2889TIP3    H1 8673   6.208   2.109   0.479
 2889TIP3    H2 8674   6.161   2.231   0.555
 2890TIP3   OH2 8675   4.786   5.027   2.527
 2890TIP3    H1 8676   4.803   5.004   2.436
 2890TIP3    H2 8677   4.781   5.123   2.528
 2891TIP3   OH2 8678   5.235   1.901   2.553
 2891TIP3    H1 8679   5.306   1.962   2.532
 2891TIP3    H2 8680   5.272   1.815   2.535
 2892TIP3   OH2 8681   0.950   4.046   3.961
 2892TIP3    H1 8682   0.971   3.954   3.946
 2892TIP3    H2 8683   0.869   4.044   4.013
 2893TIP3   OH2 8684   4.314   3.750   4.730
 2893TIP3    H1 8685   4.267   3.725   4.651
 2893TIP3    H2 8686   4.403   3.771   4.700
 2894TIP3   OH2 8687   3.727   5.190   3.391
 2894TIP3    H1 8688   3.776   5.268   3.364
 2894TIP3    H2 8689   3.684   5.160   3.311
 2895TIP3   OH2 8690   2.199   0.737   3.632
 2895TIP3    H1 8691   2.277   0.685   3.614
 2895TIP3    H2 8692   2.129   0.673   3.641
 2896TIP3   OH2 8693   2.955   3.135   0.850
 2896TIP3    H1 8694   3.019   3.189   0.805
 2896TIP3    H2 8695   2.883   3.196   0.870
 2897TIP3   OH2 8696   5.336   5.652   1.069
 2897TIP3    H1 8697   5.268   5.651   1.137
 2897TIP3    H2 8698   5.296   5.605   0.995
 2898TIP3   OH2 8699   1.227   5.050   4.682
 2898TIP3    H1 8700   1.143   5.016   4.650
 2898TIP3    H2 8701   1.265   4.979   4.733
 2899TIP3   OH2 8702   1.236   4.309   4.673
 2899TIP3    H1 8703   1.239   4.331   4.580
 2899TIP3    H2 8704   1.247   4.392   4.718
 2900TIP3   OH2 8705   5.400   1.404   0.152
 2900TIP3    H1 8706   5.459   1.476   0.130
 2900TIP3    H2 8707   5.385   1.413   0.246
 2901TIP3   OH2 8708   2.574   0.650   1.934
 2901TIP3    H1 8709   2.649   0.705   1.958
 2901TIP3    H2 8710   2.503   0.679   1.991
 2902TIP3   OH2 8711   3.538   3.153   0.096
 2902TIP3    H1 8712   3.634   3.152   0.086
 2902TIP3    H2 8713   3.521   3.225   0.157
 2903TIP3   OH2 8714   4.807   2.507   3.049
 2903TIP3    H1 8715   4.818   2.521   2.955
 2903TIP3    H2 8716   4.864   2.572   3.090
 2904TIP3   OH2 8717   2.591   3.195   2.062
 2904TIP3    H1 8718   2.612   3.218   2.152
 2904TIP3    H2 8719   2.510   3.242   2.043
 2905TIP3   OH2 8720   5.565   0.859   4.426
 2905TIP3    H1 8721   5.652   0.853   4.465
 2905TIP3    H2 8722   5.527   0.772   4.438
 2906TIP3   OH2 8723   0.172   1.456   4.715
 2906TIP3    H1 8724   0.094   1.509   4.731
 2906TIP3    H2 8725   0.161   1.423   4.626
 2907TIP3   OH2 8726   2.513   5.710   4.827
 2907TIP3    H1 8727   2.585   5.652   4.853
 2907TIP3    H2 8728   2.444   5.694   4.890
 2908TIP3   OH2 8729   1.997   4.140   2.250
 2908TIP3    H1 8730   2.053   4.211   2.281
 2908TIP3    H2 8731   1.964   4.171   2.165
 2909TIP3   OH2 8732   3.551   1.783   1.388
 2909TIP3    H1 8733   3.556   1.779   1.484
 2909TIP3    H2 8734   3.589   1.701   1.358
 2910TIP3   OH2 8735   1.944   5.297   2.586
 2910TIP3    H1 8736   1.942   5.333   2.675
 2910TIP3    H2 8737   1.880   5.349   2.538
 2911TIP3   OH2 8738   6.286   3.784   4.354
 2911TIP3    H1 8739   6.212   3.777   4.414
 2911TIP3    H2 8740   6.347   3.715   4.381
 2912TIP3   OH2 8741   0.025   5.492   2.881
 2912TIP3    H1 8742   0.050   5.400   2.887
 2912TIP3    H2 8743   0.093   5.538   2.930
 2913TIP3   OH2 8744   1.196   5.537   3.061
 2913TIP3    H1 8745   1.110   5.538   3.018
 2913TIP3    H2 8746   1.199   5.619   3.111
 2914TIP3   OH2 8747   3.231   1.316   2.013
 2914TIP3    H1 8748   3.262   1.226   2.021
 2914TIP3    H2 8749   3.304   1.369   2.044
 2915TIP3   OH2 8750   3.732   4.813   4.484
 2915TIP3    H1 8751   3.639   4.824   4.503
 2915TIP3    H2 8752   3.741   4.720   4.463
 2916TIP3   OH2 8753   2.242   2.830   0.981
 2916TIP3    H1 8754   2.192   2.908   0.955
 2916TIP3    H2 8755   2.209   2.809   1.069
 2917TIP3   OH2 8756   0.882   0.928   2.116
 2917TIP3    H1 8757   0.949   0.956   2.053
 2917TIP3    H2 8758   0.882   0.833   2.109
 2918TIP3   OH2 8759   6.000   0.291   2.773
 2918TIP3    H1 8760   6.022   0.383   2.787
 2918TIP3    H2 8761   6.036   0.247   2.850
 2919TIP3   OH2 8762   1.414   0.197   5.009
 2919TIP3    H1 8763   1.469   0.275   5.013
 2919TIP3    H2 8764   1.386   0.182   5.099
 2920TIP3   OH2 8765   4.901   2.999   3.170
 2920TIP3    H1 8766   4.899   3.019   3.264
 2920TIP3    H2 8767   4.820   2.951   3.154
 2921TIP3   OH2 8768   0.696   3.110   0.136
 2921TIP3    H1 8769   0.629   3.097   0.068
 2921TIP3    H2 8770   0.650   3.093   0.218
 2922TIP3   OH2 8771   3.060   1.302   1.191
 2922TIP3    H1 8772   3.059   1.341   1.278
 2922TIP3    H2 8773   3.153   1.291   1.171
 2923TIP3   OH2 8774   0.522   0.633   4.534
 2923TIP3    H1 8775   0.555   0.715   4.571
 2923TIP3    H2 8776   0.427   0.643   4.535
 2924TIP3   OH2 8777   1.540   0.817   2.745
 2924TIP3    H1 8778   1.516   0.869   2.822
 2924TIP3    H2 8779   1.461   0.766   2.726
 2925TIP3   OH2 8780   1.489   2.619   2.371
 2925TIP3    H1 8781   1.413   2.586   2.323
 2925TIP3    H2 8782   1.539   2.540   2.392
 2926TIP3   OH2 8783   4.593   5.516   0.902
 2926TIP3    H1 8784   4.634   5.601   0.915
 2926TIP3    H2 8785   4.542   5.527   0.822
 2927TIP3   OH2 8786   1.939   1.661   4.625
 2927TIP3    H1 8787   1.936   1.701   4.712
 2927TIP3    H2 8788   1.961   1.570   4.641
 2928TIP3   OH2 8789   3.264   4.859   3.783
 2928TIP3    H1 8790   3.273   4.951   3.758
 2928TIP3    H2 8791   3.202   4.861   3.857
 2929TIP3   OH2 8792   5.686   5.116   2.349
 2929TIP3    H1 8793   5.729   5.165   2.279
 2929TIP3    H2 8794   5.759   5.078   2.399
 2930TIP3   OH2 8795   3.010   1.032   1.199
 2930TIP3    H1 8796   2.989   0.968   1.131
 2930TIP3    H2 8797   3.038   1.110   1.150
 2931TIP3   OH2 8798   4.484   1.198   4.990
 2931TIP3    H1 8799   4.426   1.149   5.049
 2931TIP3    H2 8800   4.424   1.252   4.938
 2932TIP3   OH2 8801   0.739   1.665   4.036
 2932TIP3    H1 8802   0.739   1.677   3.941
 2932TIP3    H2 8803   0.777   1.746   4.070
 2933TIP3   OH2 8804   1.461   1.619   3.956
 2933TIP3    H1 8805   1.439   1.526   3.948
 2933TIP3    H2 8806   1.556   1.622   3.953
 2934TIP3   OH2 8807   0.236   1.332   4.974
 2934TIP3    H1 8808   0.284   1.343   4.892
 2934TIP3    H2 8809   0.260   1.245   5.005
 2935TIP3   OH2 8810   2.026   2.684   3.960
 2935TIP3    H1 8811   1.936   2.652   3.951
 2935TIP3    H2 8812   2.043   2.681   4.054
 2936TIP3   OH2 8813   1.787   4.683   3.870
 2936TIP3    H1 8814   1.717   4.662   3.932
 2936TIP3    H2 8815   1.783   4.778   3.861
 2937TIP3   OH2 8816   3.140   3.451   3.558
 2937TIP3    H1 8817   3.150   3.525   3.617
 2937TIP3    H2 8818   3.108   3.489   3.476
 2938TIP3   OH2 8819   5.482   1.603   0.398
 2938TIP3    H1 8820   5.529   1.602   0.315
 2938TIP3    H2 8821   5.549   1.590   0.464
 2939TIP3   OH2 8822   1.757   1.373   4.293
 2939TIP3    H1 8823   1.717   1.446   4.339
 2939TIP3    H2 8824   1.689   1.340   4.234
 2940TIP3   OH2 8825   1.103   0.233   3.811
 2940TIP3    H1 8826   1.194   0.262   3.806
 2940TIP3    H2 8827   1.083   0.232   3.905
 2941TIP3   OH2 8828   3.360   5.676   4.113
 2941TIP3    H1 8829   3.295   5.712   4.173
 2941TIP3    H2 8830   3.309   5.646   4.038
 2942TIP3   OH2 8831   1.106   2.949   4.643
 2942TIP3    H1 8832   1.065   3.026   4.602
 2942TIP3    H2 8833   1.035   2.886   4.651
 2943TIP3   OH2 8834   2.315   3.883   2.110
 2943TIP3    H1 8835   2.366   3.854   2.035
 2943TIP3    H2 8836   2.375   3.937   2.161
 2944TIP3   OH2 8837   6.139   3.813   0.221
 2944TIP3    H1 8838   6.064   3.855   0.264
 2944TIP3    H2 8839   6.157   3.737   0.276
 2945TIP3   OH2 8840   4.548   5.428   1.828
 2945TIP3    H1 8841   4.490   5.377   1.885
 2945TIP3    H2 8842   4.502   5.434   1.745
 2946TIP3   OH2 8843   1.880   5.533   4.752
 2946TIP3    H1 8844   1.864   5.576   4.836
 2946TIP3    H2 8845   1.945   5.589   4.709
 2947TIP3   OH2 8846   5.966   5.878   1.872
 2947TIP3    H1 8847   6.030   5.932   1.920
 2947TIP3    H2 8848   5.981   5.900   1.780
 2948TIP3   OH2 8849   1.136   2.867   0.334
 2948TIP3    H1 8850   1.191   2.817   0.274
 2948TIP3    H2 8851   1.063   2.897   0.280
 2949TIP3   OH2 8852   1.517   0.885   1.307
 2949TIP3    H1 8853   1.494   0.901   1.398
 2949TIP3    H2 8854   1.477   0.957   1.259
 2950TIP3   OH2 8855   3.712   1.946   3.122
 2950TIP3    H1 8856   3.771   1.994   3.181
 2950TIP3    H2 8857   3.759   1.942   3.039
 2951TIP3   OH2 8858   3.337   3.385   0.532
 2951TIP3    H1 8859   3.247   3.368   0.561
 2951TIP3    H2 8860   3.360   3.310   0.477
 2952TIP3   OH2 8861   0.501   5.387   1.522
 2952TIP3    H1 8862   0.588   5.372   1.558
 2952TIP3    H2 8863   0.488   5.316   1.459
 2953TIP3   OH2 8864   6.011   3.927   1.233
 2953TIP3    H1 8865   5.951   3.878   1.177
 2953TIP3    H2 8866   5.976   3.916   1.321
 2954TIP3   OH2 8867   3.907   5.155   0.118
 2954TIP3    H1 8868   3.825   5.157   0.068
 2954TIP3    H2 8869   3.880   5.134   0.207
 2955TIP3   OH2 8870   2.551   2.568   3.547
 2955TIP3    H1 8871   2.588   2.580   3.634
 2955TIP3    H2 8872   2.626   2.576   3.487
 2956TIP3   OH2 8873   0.471   2.996   3.011
 2956TIP3    H1 8874   0.445   3.086   3.030
 2956TIP3    H2 8875   0.441   2.981   2.921
 2957TIP3   OH2 8876   4.526   3.911   2.571
 2957TIP3    H1 8877   4.587   3.839   2.589
 2957TIP3    H2 8878   4.529   3.965   2.650
 2958TIP3   OH2 8879   2.099   1.881   5.077
 2958TIP3    H1 8880   2.045   1.838   5.143
 2958TIP3    H2 8881   2.081   1.975   5.088
 2959TIP3   OH2 8882   0.243   2.549   3.295
 2959TIP3    H1 8883   0.311   2.484   3.275
 2959TIP3    H2 8884   0.161   2.498   3.294
 2960TIP3   OH2 8885   2.048   0.090   2.506
 2960TIP3    H1 8886   1.981   0.130   2.562
 2960TIP3    H2 8887   2.129   0.135   2.531
 2961TIP3   OH2 8888   0.193   4.916   1.776
 2961TIP3    H1 8889   0.127   4.858   1.739
 2961TIP3    H2 8890   0.159   5.004   1.761
 2962TIP3   OH2 8891   1.084   1.982   1.740
 2962TIP3    H1 8892   1.077   1.887   1.732
 2962TIP3    H2 8893   1.067   2.000   1.833
 2963TIP3   OH2 8894   4.240   3.415   1.386
 2963TIP3    H1 8895   4.179   3.342   1.402
 2963TIP3    H2 8896   4.210   3.484   1.444
 2964TIP3   OH2 8897   1.310   3.922   2.322
 2964TIP3    H1 8898   1.371   3.990   2.348
 2964TIP3    H2 8899   1.365   3.856   2.280
 2965TIP3   OH2 8900   2.085   3.766   2.576
 2965TIP3    H1 8901   2.067   3.696   2.639
 2965TIP3    H2 8902   2.147   3.727   2.514
 2966TIP3   OH2 8903   5.521   3.106   5.163
 2966TIP3    H1 8904   5.613   3.101   5.190
 2966TIP3    H2 8905   5.511   3.038   5.097
 2967TIP3   OH2 8906   3.181   5.493   0.748
 2967TIP3    H1 8907   3.166   5.406   0.712
 2967TIP3    H2 8908   3.119   5.500   0.821
 2968TIP3   OH2 8909   0.472   5.001   4.590
 2968TIP3    H1 8910   0.446   4.950   4.667
 2968TIP3    H2 8911   0.455   4.943   4.516
 2969TIP3   OH2 8912   3.218   4.012   0.043
 2969TIP3    H1 8913   3.186   3.927   0.073
 2969TIP3    H2 8914   3.223   4.004  -0.052
 2970TIP3   OH2 8915   5.681   0.304   2.735
 2970TIP3    H1 8916   5.773   0.288   2.754
 2970TIP3    H2 8917   5.645   0.217   2.713
 2971TIP3   OH2 8918   0.170   0.802   2.193
 2971TIP3    H1 8919   0.134   0.716   2.213
 2971TIP3    H2 8920   0.261   0.798   2.221
 2972TIP3   OH2 8921   5.326   0.740   3.009
 2972TIP3    H1 8922   5.420   0.728   2.995
 2972TIP3    H2 8923   5.290   0.652   3.012
 2973TIP3   OH2 8924   2.287   3.965   4.847
 2973TIP3    H1 8925   2.263   3.928   4.932
 2973TIP3    H2 8926   2.268   4.058   4.855
 2974TIP3   OH2 8927   1.310   0.235   3.483
 2974TIP3    H1 8928   1.328   0.320   3.444
 2974TIP3    H2 8929   1.341   0.243   3.573
 2975TIP3   OH2 8930   1.492   4.906   1.942
 2975TIP3    H1 8931   1.535   4.986   1.914
 2975TIP3    H2 8932   1.402   4.932   1.961
 2976TIP3   OH2 8933   0.425   5.633   1.577
 2976TIP3    H1 8934   0.460   5.552   1.540
 2976TIP3    H2 8935   0.334   5.636   1.548
 2977TIP3   OH2 8936   0.818   4.855   1.434
 2977TIP3    H1 8937   0.740   4.907   1.455
 2977TIP3    H2 8938   0.880   4.876   1.503
 2978TIP3   OH2 8939   4.491   0.249   1.258
 2978TIP3    H1 8940   4.484   0.288   1.170
 2978TIP3    H2 8941   4.409   0.201   1.269
 2979TIP3   OH2 8942   2.792   0.125   1.345
 2979TIP3    H1 8943   2.717   0.139   1.403
 2979TIP3    H2 8944   2.778   0.038   1.309
 2980TIP3   OH2 8945   2.866   0.028   4.680
 2980TIP3    H1 8946   2.772   0.026   4.660
 2980TIP3    H2 8947   2.870   0.056   4.772
 2981TIP3   OH2 8948   5.675   5.335   0.658
 2981TIP3    H1 8949   5.760   5.291   0.653
 2981TIP3    H2 8950   5.616   5.267   0.692
 2982TIP3   OH2 8951   4.260   5.225   4.409
 2982TIP3    H1 8952   4.240   5.152   4.352
 2982TIP3    H2 8953   4.174   5.260   4.435
 2983TIP3   OH2 8954   3.834   5.050   0.357
 2983TIP3    H1 8955   3.793   4.964   0.343
 2983TIP3    H2 8956   3.922   5.030   0.389
 2984TIP3   OH2 8957   6.258   2.904   2.434
 2984TIP3    H1 8958   6.204   2.851   2.377
 2984TIP3    H2 8959   6.347   2.897   2.398
 2985TIP3   OH2 8960   4.215   5.372   3.717
 2985TIP3    H1 8961   4.284   5.414   3.665
 2985TIP3    H2 8962   4.150   5.440   3.731
 2986TIP3   OH2 8963   1.855   1.949   1.529
 2986TIP3    H1 8964   1.827   1.962   1.439
 2986TIP3    H2 8965   1.817   1.864   1.554
 2987TIP3   OH2 8966   3.555   4.592   4.132
 2987TIP3    H1 8967   3.566   4.514   4.077
 2987TIP3    H2 8968   3.601   4.571   4.213
 2988TIP3   OH2 8969   1.374   2.600   3.058
 2988TIP3    H1 8970   1.349   2.652   2.981
 2988TIP3    H2 8971   1.419   2.662   3.115
 2989TIP3   OH2 8972   2.452   1.731   2.095
 2989TIP3    H1 8973   2.441   1.771   2.009
 2989TIP3    H2 8974   2.381   1.768   2.148
 2990TIP3   OH2 8975   0.886   3.044   0.592
 2990TIP3    H1 8976   0.811   3.015   0.540
 2990TIP3    H2 8977   0.853   3.121   0.639
 2991TIP3   OH2 8978   6.278   3.548   0.330
 2991TIP3    H1 8979   6.334   3.554   0.253
 2991TIP3    H2 8980   6.273   3.454   0.349
 2992TIP3   OH2 8981   3.748   2.985   1.973
 2992TIP3    H1 8982   3.716   2.900   1.942
 2992TIP3    H2 8983   3.724   2.987   2.065
 2993TIP3   OH2 8984   1.805   0.652   3.626
 2993TIP3    H1 8985   1.741   0.668   3.557
 2993TIP3    H2 8986   1.795   0.727   3.686
 2994TIP3   OH2 8987   1.038   2.236   3.810
 2994TIP3    H1 8988   0.957   2.185   3.799
 2994TIP3    H2 8989   1.068   2.213   3.898
 2995TIP3   OH2 8990   3.826   5.163   4.477
 2995TIP3    H1 8991   3.886   5.237   4.479
 2995TIP3    H2 8992   3.845   5.118   4.395
 2996TIP3   OH2 8993   5.158   3.354   0.395
 2996TIP3    H1 8994   5.167   3.449   0.401
 2996TIP3    H2 8995   5.122   3.339   0.308
 2997TIP3   OH2 8996   1.434   1.674   1.862
 2997TIP3    H1 8997   1.395   1.599   1.907
 2997TIP3    H2 8998   1.524   1.678   1.895
 2998TIP3   OH2 8999   2.409   0.842   1.323
 2998TIP3    H1 9000   2.422   0.753   1.356
 2998TIP3    H2 9001   2.359   0.830   1.242
 2999TIP3   OH2 9002   5.686   0.985   0.215
 2999TIP3    H1 9003   5.731   0.920   0.162
 2999TIP3    H2 9004   5.611   0.939   0.253
 3000TIP3   OH2 9005   4.909   3.987   3.562
 3000TIP3    H1 9006   4.880   4.072   3.529
 3000TIP3    H2 9007   4.890   3.990   3.656
 3001TIP3   OH2 9008   0.443   3.692   2.298
 3001TIP3    H1 9009   0.464   3.614   2.246
 3001TIP3    H2 9010   0.507   3.758   2.270
 3002TIP3   OH2 9011   1.867   3.114   3.602
 3002TIP3    H1 9012   1.914   3.034   3.581
 3002TIP3    H2 9013   1.822   3.139   3.522
 3003TIP3   OH2 9014   3.791   1.853   0.168
 3003TIP3    H1 9015   3.814   1.760   0.160
 3003TIP3    H2 9016   3.797   1.871   0.262
 3004TIP3   OH2 9017   5.464   2.746   0.819
 3004TIP3    H1 9018   5.556   2.739   0.844
 3004TIP3    H2 9019   5.461   2.717   0.728
 3005TIP3   OH2 9020   0.526   4.219   2.775
 3005TIP3    H1 9021   0.478   4.289   2.732
 3005TIP3    H2 9022   0.464   4.182   2.838
 3006TIP3   OH2 9023   3.403   4.817   4.221
 3006TIP3    H1 9024   3.449   4.759   4.160
 3006TIP3    H2 9025   3.419   4.780   4.307
 3007TIP3   OH2 9026   4.353   1.941   1.121
 3007TIP3    H1 9027   4.379   1.855   1.087
 3007TIP3    H2 9028   4.314   1.986   1.045
 3008TIP3   OH2 9029   1.127   3.117   0.473
 3008TIP3    H1 9030   1.050   3.096   0.525
 3008TIP3    H2 9031   1.123   3.057   0.398
 3009TIP3   OH2 9032   2.315   0.142   5.017
 3009TIP3    H1 9033   2.337   0.081   4.947
 3009TIP3    H2 9034   2.385   0.208   5.013
 3010TIP3   OH2 9035   0.355   4.763   4.750
 3010TIP3    H1 9036   0.297   4.724   4.816
 3010TIP3    H2 9037   0.390   4.688   4.702
 3011TIP3   OH2 9038   5.377   1.280   4.682
 3011TIP3    H1 9039   5.360   1.198   4.636
 3011TIP3    H2 9040   5.428   1.255   4.759
 3012TIP3   OH2 9041   0.689   2.442   3.871
 3012TIP3    H1 9042   0.757   2.495   3.828
 3012TIP3    H2 9043   0.705   2.353   3.841
 3013TIP3   OH2 9044   3.102   0.315   2.860
 3013TIP3    H1 9045   3.135   0.231   2.828
 3013TIP3    H2 9046   3.069   0.359   2.782
 3014TIP3   OH2 9047   2.559   5.559   0.001
 3014TIP3    H1 9048   2.563   5.552  -0.094
 3014TIP3    H2 9049   2.637   5.609   0.024
 3015TIP3   OH2 9050   1.788   1.072   3.560
 3015TIP3    H1 9051   1.806   1.026   3.478
 3015TIP3    H2 9052   1.871   1.112   3.585
 3016TIP3   OH2 9053   1.136   5.930   0.722
 3016TIP3    H1 9054   1.087   5.848   0.734
 3016TIP3    H2 9055   1.109   5.985   0.795
 3017TIP3   OH2 9056   0.631   5.891   2.974
 3017TIP3    H1 9057   0.691   5.937   2.914
 3017TIP3    H2 9058   0.632   5.945   3.054
 3018TIP3   OH2 9059   6.078   3.438   4.268
 3018TIP3    H1 9060   6.009   3.504   4.264
 3018TIP3    H2 9061   6.109   3.441   4.358
 3019TIP3   OH2 9062   6.265   0.327   2.492
 3019TIP3    H1 9063   6.256   0.347   2.399
 3019TIP3    H2 9064   6.270   0.413   2.535
 3020TIP3   OH2 9065   4.339   3.244   0.889
 3020TIP3    H1 9066   4.329   3.238   0.984
 3020TIP3    H2 9067   4.396   3.321   0.877
 3021TIP3   OH2 9068   3.091   3.881   4.975
 3021TIP3    H1 9069   3.118   3.901   4.885
 3021TIP3    H2 9070   3.031   3.807   4.966
 3022TIP3   OH2 9071   4.048   3.200   0.499
 3022TIP3    H1 9072   4.079   3.113   0.474
 3022TIP3    H2 9073   4.042   3.249   0.417
 3023TIP3   OH2 9074   3.667   3.234   1.277
 3023TIP3    H1 9075   3.645   3.160   1.333
 3023TIP3    H2 9076   3.583   3.262   1.241
 3024TIP3   OH2 9077   1.997   1.462   2.319
 3024TIP3    H1 9078   2.023   1.485   2.230
 3024TIP3    H2 9079   1.925   1.521   2.340
 3025TIP3   OH2 9080   0.760   2.173   3.738
 3025TIP3    H1 9081   0.740   2.091   3.693
 3025TIP3    H2 9082   0.740   2.155   3.830
 3026TIP3   OH2 9083   3.497   1.906   4.516
 3026TIP3    H1 9084   3.421   1.963   4.523
 3026TIP3    H2 9085   3.531   1.901   4.606
 3027TIP3   OH2 9086   2.077   3.061   1.002
 3027TIP3    H1 9087   2.099   3.090   1.090
 3027TIP3    H2 9088   1.990   3.099   0.985
 3028TIP3   OH2 9089   3.666   1.196   4.116
 3028TIP3    H1 9090   3.594   1.245   4.077
 3028TIP3    H2 9091   3.703   1.146   4.043
 3029TIP3   OH2 9092   1.510   5.565   5.104
 3029TIP3    H1 9093   1.495   5.516   5.024
 3029TIP3    H2 9094   1.600   5.543   5.129
 3030TIP3   OH2 9095   4.672   4.685   1.660
 3030TIP3    H1 9096   4.626   4.767   1.644
 3030TIP3    H2 9097   4.651   4.630   1.585
 3031TIP3   OH2 9098   3.501   1.827   2.051
 3031TIP3    H1 9099   3.553   1.823   2.131
 3031TIP3    H2 9100   3.562   1.855   1.983
 3032TIP3   OH2 9101   1.963   2.108   2.670
 3032TIP3    H1 9102   1.888   2.159   2.638
 3032TIP3    H2 9103   2.031   2.173   2.685
 3033TIP3   OH2 9104   4.531   1.849   3.119
 3033TIP3    H1 9105   4.609   1.798   3.138
 3033TIP3    H2 9106   4.463   1.784   3.103
 3034TIP3   OH2 9107   2.153   4.819   3.580
 3034TIP3    H1 9108   2.215   4.791   3.513
 3034TIP3    H2 9109   2.097   4.883   3.535
 3035TIP3   OH2 9110   2.027   3.941   0.346
 3035TIP3    H1 9111   2.061   3.938   0.436
 3035TIP3    H2 9112   1.947   3.888   0.350
 3036TIP3   OH2 9113   2.308   3.273   3.867
 3036TIP3    H1 9114   2.233   3.311   3.821
 3036TIP3    H2 9115   2.382   3.290   3.809
 3037TIP3   OH2 9116   0.162   3.153   1.775
 3037TIP3    H1 9117   0.137   3.212   1.846
 3037TIP3    H2 9118   0.210   3.208   1.714
 3038TIP3   OH2 9119   2.876   0.532   4.473
 3038TIP3    H1 9120   2.822   0.502   4.547
 3038TIP3    H2 9121   2.813   0.549   4.403
 3039TIP3   OH2 9122   1.802   5.435   4.499
 3039TIP3    H1 9123   1.767   5.348   4.521
 3039TIP3    H2 9124   1.836   5.469   4.582
 3040TIP3   OH2 9125   5.044   4.147   2.616
 3040TIP3    H1 9126   4.971   4.121   2.560
 3040TIP3    H2 9127   5.019   4.117   2.703
 3041TIP3   OH2 9128   6.274   1.914   2.671
 3041TIP3    H1 9129   6.245   1.992   2.624
 3041TIP3    H2 9130   6.356   1.889   2.629
 3042TIP3   OH2 9131   0.664   5.018   0.883
 3042TIP3    H1 9132   0.750   4.978   0.896
 3042TIP3    H2 9133   0.676   5.076   0.808
 3043TIP3   OH2 9134   0.791   4.468   2.530
 3043TIP3    H1 9135   0.837   4.436   2.453
 3043TIP3    H2 9136   0.807   4.562   2.530
 3044TIP3   OH2 9137   3.279   4.490   2.937
 3044TIP3    H1 9138   3.233   4.406   2.933
 3044TIP3    H2 9139   3.333   4.492   2.858
 3045TIP3   OH2 9140   3.902   1.663   4.415
 3045TIP3    H1 9141   3.813   1.680   4.446
 3045TIP3    H2 9142   3.905   1.704   4.328
 3046TIP3   OH2 9143   2.056   1.670   0.566
 3046TIP3    H1 9144   2.128   1.678   0.502
 3046TIP3    H2 9145   2.009   1.591   0.539
 3047TIP3   OH2 9146   1.969   1.410   2.589
 3047TIP3    H1 9147   2.034   1.476   2.612
 3047TIP3    H2 9148   1.976   1.401   2.494
 3048TIP3   OH2 9149   2.870   2.421   1.028
 3048TIP3    H1 9150   2.835   2.386   1.110
 3048TIP3    H2 9151   2.839   2.360   0.960
 3049TIP3   OH2 9152   1.054   3.554   1.293
 3049TIP3    H1 9153   1.025   3.627   1.348
 3049TIP3    H2 9154   1.123   3.591   1.239
 3050TIP3   OH2 9155   1.209   0.703   1.001
 3050TIP3    H1 9156   1.209   0.797   1.020
 3050TIP3    H2 9157   1.122   0.687   0.964
 3051TIP3   OH2 9158   1.446   3.710   0.884
 3051TIP3    H1 9159   1.497   3.786   0.911
 3051TIP3    H2 9160   1.501   3.635   0.904
 3052TIP3   OH2 9161   3.715   0.773   0.435
 3052TIP3    H1 9162   3.751   0.757   0.522
 3052TIP3    H2 9163   3.713   0.686   0.394
 3053TIP3   OH2 9164   1.962   3.024   0.413
 3053TIP3    H1 9165   2.033   3.050   0.355
 3053TIP3    H2 9166   1.966   3.087   0.485
 3054TIP3   OH2 9167   6.006   3.379   1.125
 3054TIP3    H1 9168   5.923   3.335   1.106
 3054TIP3    H2 9169   5.987   3.436   1.199
 3055TIP3   OH2 9170   5.773   0.634   3.477
 3055TIP3    H1 9171   5.843   0.635   3.543
 3055TIP3    H2 9172   5.727   0.717   3.489
 3056TIP3   OH2 9173   5.992   1.390   1.945
 3056TIP3    H1 9174   6.071   1.368   1.897
 3056TIP3    H2 9175   5.936   1.435   1.881
 3057TIP3   OH2 9176   0.320   0.710   1.258
 3057TIP3    H1 9177   0.406   0.669   1.269
 3057TIP3    H2 9178   0.277   0.696   1.343
 3058TIP3   OH2 9179   1.091   4.990   3.660
 3058TIP3    H1 9180   1.061   5.018   3.747
 3058TIP3    H2 9181   1.182   5.017   3.656
 3059TIP3   OH2 9182   5.145   5.849   1.266
 3059TIP3    H1 9183   5.225   5.902   1.271
 3059TIP3    H2 9184   5.088   5.898   1.208
 3060TIP3   OH2 9185   2.648   1.448   1.236
 3060TIP3    H1 9186   2.721   1.492   1.191
 3060TIP3    H2 9187   2.670   1.355   1.232
 3061TIP3   OH2 9188   5.416   2.824   1.741
 3061TIP3    H1 9189   5.403   2.782   1.655
 3061TIP3    H2 9190   5.418   2.751   1.803
 3062TIP3   OH2 9191   3.987   1.071   4.641
 3062TIP3    H1 9192   4.008   1.052   4.549
 3062TIP3    H2 9193   3.906   1.024   4.657
 3063TIP3   OH2 9194   4.193   5.649   1.503
 3063TIP3    H1 9195   4.100   5.669   1.515
 3063TIP3    H2 9196   4.233   5.670   1.587
 3064TIP3   OH2 9197   2.201   4.791   4.337
 3064TIP3    H1 9198   2.153   4.796   4.254
 3064TIP3    H2 9199   2.142   4.744   4.396
 3065TIP3   OH2 9200   6.310   1.545   3.254
 3065TIP3    H1 9201   6.289   1.632   3.290
 3065TIP3    H2 9202   6.311   1.558   3.159
 3066TIP3   OH2 9203   4.078   3.097   1.077
 3066TIP3    H1 9204   4.011   3.094   1.145
 3066TIP3    H2 9205   4.046   3.163   1.015
 3067TIP3   OH2 9206   5.388   1.311   0.431
 3067TIP3    H1 9207   5.475   1.273   0.417
 3067TIP3    H2 9208   5.405   1.392   0.480
 3068TIP3   OH2 9209   5.788   4.646   1.551
 3068TIP3    H1 9210   5.784   4.647   1.456
 3068TIP3    H2 9211   5.881   4.660   1.571
 3069TIP3   OH2 9212   5.957   2.806   1.257
 3069TIP3    H1 9213   5.899   2.826   1.331
 3069TIP3    H2 9214   5.964   2.710   1.258
 3070TIP3   OH2 9215   4.448   0.387   4.117
 3070TIP3    H1 9216   4.534   0.348   4.133
 3070TIP3    H2 9217   4.468   0.473   4.080
 3071TIP3   OH2 9218   0.078   0.371   3.287
 3071TIP3    H1 9219   0.076   0.411   3.374
 3071TIP3    H2 9220   0.114   0.439   3.231
 3072TIP3   OH2 9221   0.645   4.686   4.251
 3072TIP3    H1 9222   0.701   4.622   4.207
 3072TIP3    H2 9223   0.704   4.758   4.273
 3073TIP3   OH2 9224   5.965   2.172   2.571
 3073TIP3    H1 9225   5.967   2.172   2.667
 3073TIP3    H2 9226   6.050   2.136   2.545
 3074TIP3   OH2 9227   2.281   3.780   4.645
 3074TIP3    H1 9228   2.294   3.835   4.722
 3074TIP3    H2 9229   2.339   3.705   4.660
 3075TIP3   OH2 9230   2.768   1.598   0.631
 3075TIP3    H1 9231   2.861   1.621   0.632
 3075TIP3    H2 9232   2.767   1.503   0.619
 3076TIP3   OH2 9233   0.539   0.765   1.989
 3076TIP3    H1 9234   0.558   0.850   1.949
 3076TIP3    H2 9235   0.454   0.740   1.953
 3077TIP3   OH2 9236   1.304   4.031   3.704
 3077TIP3    H1 9237   1.217   4.024   3.664
 3077TIP3    H2 9238   1.365   4.020   3.630
 3078TIP3   OH2 9239   5.410   3.192   3.380
 3078TIP3    H1 9240   5.483   3.230   3.429
 3078TIP3    H2 9241   5.393   3.108   3.422
 3079TIP3   OH2 9242   1.774   5.235   1.143
 3079TIP3    H1 9243   1.724   5.154   1.142
 3079TIP3    H2 9244   1.715   5.300   1.181
 3080TIP3   OH2 9245   1.039   5.218   4.546
 3080TIP3    H1 9246   1.017   5.126   4.559
 3080TIP3    H2 9247   0.964   5.266   4.582
 3081TIP3   OH2 9248   2.662   5.288   1.145
 3081TIP3    H1 9249   2.654   5.224   1.215
 3081TIP3    H2 9250   2.577   5.333   1.145
 3082TIP3   OH2 9251   3.123   2.422   2.553
 3082TIP3    H1 9252   3.067   2.345   2.548
 3082TIP3    H2 9253   3.195   2.395   2.610
 3083TIP3   OH2 9254   1.458   4.156   4.198
 3083TIP3    H1 9255   1.429   4.142   4.108
 3083TIP3    H2 9256   1.436   4.074   4.243
 3084TIP3   OH2 9257   5.796   5.975   3.479
 3084TIP3    H1 9258   5.753   5.959   3.562
 3084TIP3    H2 9259   5.725   5.977   3.415
 3085TIP3   OH2 9260   4.380   1.986   3.294
 3085TIP3    H1 9261   4.400   1.992   3.388
 3085TIP3    H2 9262   4.441   1.920   3.261
 3086TIP3   OH2 9263   2.568   4.244   2.653
 3086TIP3    H1 9264   2.473   4.246   2.667
 3086TIP3    H2 9265   2.597   4.333   2.673
 3087TIP3   OH2 9266   1.651   1.690   3.576
 3087TIP3    H1 9267   1.729   1.650   3.614
 3087TIP3    H2 9268   1.597   1.616   3.549
 3088TIP3   OH2 9269   1.774   1.828   4.498
 3088TIP3    H1 9270   1.745   1.904   4.549
 3088TIP3    H2 9271   1.834   1.782   4.557
 3089TIP3   OH2 9272   1.862   1.899   4.054
 3089TIP3    H1 9273   1.823   1.925   3.971
 3089TIP3    H2 9274   1.916   1.822   4.032
 3090TIP3   OH2 9275   6.302   1.629   4.773
 3090TIP3    H1 9276   6.207   1.628   4.777
 3090TIP3    H2 9277   6.330   1.667   4.856
 3091TIP3   OH2 9278   3.264   0.062   4.551
 3091TIP3    H1 9279   3.196   0.005   4.516
 3091TIP3    H2 9280   3.291   0.021   4.633
 3092TIP3   OH2 9281   4.141   4.395   4.831
 3092TIP3    H1 9282   4.169   4.303   4.830
 3092TIP3    H2 9283   4.141   4.419   4.923
 3093TIP3   OH2 9284   3.566   2.273   3.225
 3093TIP3    H1 9285   3.497   2.220   3.267
 3093TIP3    H2 9286   3.621   2.301   3.297
 3094TIP3   OH2 9287   2.741   1.411   0.876
 3094TIP3    H1 9288   2.823   1.383   0.834
 3094TIP3    H2 9289   2.769   1.474   0.942
 3095TIP3   OH2 9290   0.893   2.579   0.148
 3095TIP3    H1 9291   0.885   2.650   0.084
 3095TIP3    H2 9292   0.986   2.555   0.146
 3096TIP3   OH2 9293   2.410   1.426   1.696
 3096TIP3    H1 9294   2.402   1.455   1.605
 3096TIP3    H2 9295   2.486   1.367   1.696
 3097TIP3   OH2 9296   0.104   4.276   4.519
 3097TIP3    H1 9297   0.016   4.239   4.530
 3097TIP3    H2 9298   0.125   4.314   4.605
 3098TIP3   OH2 9299   2.499   5.925   2.527
 3098TIP3    H1 9300   2.428   5.911   2.464
 3098TIP3    H2 9301   2.498   5.847   2.583
 3099TIP3   OH2 9302   1.674   4.011   2.155
 3099TIP3    H1 9303   1.595   4.058   2.183
 3099TIP3    H2 9304   1.717   3.986   2.237
 3100TIP3   OH2 9305   2.941   1.875   1.440
 3100TIP3    H1 9306   2.944   1.970   1.431
 3100TIP3    H2 9307   2.954   1.860   1.534
 3101TIP3   OH2 9308   1.272   2.248   4.981
 3101TIP3    H1 9309   1.293   2.156   4.962
 3101TIP3    H2 9310   1.178   2.248   4.999
 3102TIP3   OH2 9311   2.202   1.388   0.602
 3102TIP3    H1 9312   2.260   1.456   0.637
 3102TIP3    H2 9313   2.227   1.379   0.510
 3103TIP3   OH2 9314   0.473   4.392   3.570
 3103TIP3    H1 9315   0.492   4.461   3.633
 3103TIP3    H2 9316   0.558   4.362   3.539
 3104TIP3   OH2 9317   4.714   1.866   1.798
 3104TIP3    H1 9318   4.701   1.894   1.707
 3104TIP3    H2 9319   4.628   1.875   1.838
 3105TIP3   OH2 9320   5.975   5.746   4.362
 3105TIP3    H1 9321   5.925   5.776   4.438
 3105TIP3    H2 9322   5.930   5.783   4.287
 3106TIP3   OH2 9323   5.039   4.062   4.263
 3106TIP3    H1 9324   5.094   3.997   4.306
 3106TIP3    H2 9325   5.025   4.130   4.330
 3107TIP3   OH2 9326   3.915   3.671   5.101
 3107TIP3    H1 9327   4.010   3.679   5.113
 3107TIP3    H2 9328   3.878   3.700   5.184
 3108TIP3   OH2 9329   1.650   2.526   1.896
 3108TIP3    H1 9330   1.708   2.601   1.884
 3108TIP3    H2 9331   1.708   2.450   1.896
 3109TIP3   OH2 9332   2.359   0.204   1.846
 3109TIP3    H1 9333   2.328   0.147   1.776
 3109TIP3    H2 9334   2.365   0.291   1.804
 3110TIP3   OH2 9335   3.714   5.068   4.822
 3110TIP3    H1 9336   3.683   5.151   4.785
 3110TIP3    H2 9337   3.676   5.064   4.909
 3111TIP3   OH2 9338   4.515   1.837   2.010
 3111TIP3    H1 9339   4.505   1.742   2.010
 3111TIP3    H2 9340   4.488   1.865   2.098
 3112TIP3   OH2 9341   1.370   3.783   0.584
 3112TIP3    H1 9342   1.394   3.743   0.668
 3112TIP3    H2 9343   1.454   3.802   0.542
 3113TIP3   OH2 9344   0.719   5.572   1.879
 3113TIP3    H1 9345   0.755   5.501   1.826
 3113TIP3    H2 9346   0.776   5.647   1.860
 3114TIP3   OH2 9347   3.864   2.871   4.809
 3114TIP3    H1 9348   3.907   2.913   4.884
 3114TIP3    H2 9349   3.773   2.898   4.815
 3115TIP3   OH2 9350   0.660   2.254   3.455
 3115TIP3    H1 9351   0.671   2.345   3.482
 3115TIP3    H2 9352   0.729   2.207   3.502
 3116TIP3   OH2 9353   3.443   4.666   1.635
 3116TIP3    H1 9354   3.369   4.607   1.650
 3116TIP3    H2 9355   3.416   4.749   1.673
 3117TIP3   OH2 9356   4.009   0.106   0.596
 3117TIP3    H1 9357   3.915   0.094   0.584
 3117TIP3    H2 9358   4.022   0.201   0.591
 3118TIP3   OH2 9359   5.960   3.253   3.580
 3118TIP3    H1 9360   5.869   3.240   3.554
 3118TIP3    H2 9361   5.957   3.328   3.639
 3119TIP3   OH2 9362   2.450   0.268   3.499
 3119TIP3    H1 9363   2.530   0.301   3.459
 3119TIP3    H2 9364   2.381   0.288   3.436
 3120TIP3   OH2 9365   4.749   4.188   0.971
 3120TIP3    H1 9366   4.688   4.117   0.953
 3120TIP3    H2 9367   4.836   4.152   0.951
 3121TIP3   OH2 9368   2.242   5.711   0.591
 3121TIP3    H1 9369   2.156   5.751   0.605
 3121TIP3    H2 9370   2.231   5.621   0.622
 3122TIP3   OH2 9371   5.096   1.097   0.453
 3122TIP3    H1 9372   5.024   1.159   0.457
 3122TIP3    H2 9373   5.172   1.146   0.484
 3123TIP3   OH2 9374   6.190   0.085   4.694
 3123TIP3    H1 9375   6.128   0.104   4.624
 3123TIP3    H2 9376   6.156   0.133   4.770
 3124TIP3   OH2 9377   0.175   3.940   4.021
 3124TIP3    H1 9378   0.210   3.930   4.110
 3124TIP3    H2 9379   0.088   3.977   4.034
 3125TIP3   OH2 9380   4.060   0.886   4.044
 3125TIP3    H1 9381   4.056   0.892   3.949
 3125TIP3    H2 9382   4.088   0.796   4.061
 3126TIP3   OH2 9383   6.126   3.011   0.762
 3126TIP3    H1 9384   6.185   3.073   0.805
 3126TIP3    H2 9385   6.051   3.063   0.736
 3127TIP3   OH2 9386   5.575   3.883   0.520
 3127TIP3    H1 9387   5.638   3.954   0.528
 3127TIP3    H2 9388   5.574   3.841   0.606
 3128TIP3   OH2 9389   6.205   5.869   4.421
 3128TIP3    H1 9390   6.126   5.817   4.408
 3128TIP3    H2 9391   6.237   5.886   4.332
 3129TIP3   OH2 9392   1.155   4.455   2.331
 3129TIP3    H1 9393   1.177   4.378   2.384
 3129TIP3    H2 9394   1.075   4.430   2.285
 3130TIP3   OH2 9395   2.933   3.816   2.292
 3130TIP3    H1 9396   2.989   3.744   2.264
 3130TIP3    H2 9397   2.924   3.803   2.386
 3131TIP3   OH2 9398   1.639   0.983   3.106
 3131TIP3    H1 9399   1.656   1.043   3.179
 3131TIP3    H2 9400   1.562   1.020   3.062
 3132TIP3   OH2 9401   2.049   1.637   3.987
 3132TIP3    H1 9402   2.130   1.603   3.949
 3132TIP3    H2 9403   2.021   1.569   4.048
 3133TIP3   OH2 9404   4.388   2.473   0.038
 3133TIP3    H1 9405   4.429   2.518   0.112
 3133TIP3    H2 9406   4.431   2.388   0.035
 3134TIP3   OH2 9407   5.485   2.517   4.634
 3134TIP3    H1 9408   5.427   2.462   4.582
 3134TIP3    H2 9409   5.567   2.467   4.639
 3135TIP3   OH2 9410   4.375   5.756   1.982
 3135TIP3    H1 9411   4.382   5.807   2.063
 3135TIP3    H2 9412   4.452   5.700   1.982
 3136TIP3   OH2 9413   6.371   5.083   4.004
 3136TIP3    H1 9414   6.413   5.077   3.918
 3136TIP3    H2 9415   6.300   5.146   3.991
 3137TIP3   OH2 9416   2.974   3.897   3.167
 3137TIP3    H1 9417   3.028   3.877   3.244
 3137TIP3    H2 9418   3.037   3.911   3.097
 3138TIP3   OH2 9419   1.628   4.844   0.722
 3138TIP3    H1 9420   1.566   4.824   0.652
 3138TIP3    H2 9421   1.710   4.861   0.676
 3139TIP3   OH2 9422   3.570   4.383   1.038
 3139TIP3    H1 9423   3.620   4.303   1.050
 3139TIP3    H2 9424   3.482   4.363   1.071
 3140TIP3   OH2 9425   5.480   4.544   3.426
 3140TIP3    H1 9426   5.460   4.511   3.338
 3140TIP3    H2 9427   5.496   4.466   3.478
 3141TIP3   OH2 9428   4.251   0.811   3.368
 3141TIP3    H1 9429   4.172   0.811   3.313
 3141TIP3    H2 9430   4.298   0.891   3.344
 3142TIP3   OH2 9431   3.212   4.011   3.651
 3142TIP3    H1 9432   3.277   3.985   3.716
 3142TIP3    H2 9433   3.264   4.042   3.576
 3143TIP3   OH2 9434   2.010   3.989   5.041
 3143TIP3    H1 9435   2.076   3.961   5.105
 3143TIP3    H2 9436   1.927   3.980   5.089
 3144TIP3   OH2 9437   5.343   5.508   2.554
 3144TIP3    H1 9438   5.329   5.432   2.498
 3144TIP3    H2 9439   5.432   5.537   2.533
 3145TIP3   OH2 9440   2.678   5.373   2.162
 3145TIP3    H1 9441   2.752   5.431   2.145
 3145TIP3    H2 9442   2.603   5.432   2.171
 3146TIP3   OH2 9443   3.156   0.594   0.923
 3146TIP3    H1 9444   3.172   0.654   0.849
 3146TIP3    H2 9445   3.143   0.509   0.882
 3147TIP3   OH2 9446   0.370   2.720   4.075
 3147TIP3    H1 9447   0.393   2.812   4.085
 3147TIP3    H2 9448   0.371   2.705   3.981
 3148TIP3   OH2 9449   5.895   0.537   1.729
 3148TIP3    H1 9450   5.906   0.510   1.821
 3148TIP3    H2 9451   5.902   0.456   1.680
 3149TIP3   OH2 9452   6.055   1.741   4.389
 3149TIP3    H1 9453   5.960   1.743   4.375
 3149TIP3    H2 9454   6.075   1.824   4.433
 3150TIP3   OH2 9455   0.545   3.685   1.672
 3150TIP3    H1 9456   0.487   3.609   1.667
 3150TIP3    H2 9457   0.574   3.687   1.763
 3151TIP3   OH2 9458   3.160   1.716   3.646
 3151TIP3    H1 9459   3.081   1.707   3.592
 3151TIP3    H2 9460   3.153   1.644   3.710
 3152TIP3   OH2 9461   5.147   3.522   1.682
 3152TIP3    H1 9462   5.205   3.524   1.758
 3152TIP3    H2 9463   5.190   3.577   1.617
 3153TIP3   OH2 9464   0.512   0.525   0.144
 3153TIP3    H1 9465   0.555   0.550   0.226
 3153TIP3    H2 9466   0.422   0.507   0.169
 3154TIP3   OH2 9467   2.796   4.329   1.603
 3154TIP3    H1 9468   2.823   4.273   1.530
 3154TIP3    H2 9469   2.740   4.396   1.562
 3155TIP3   OH2 9470   6.350   3.764   1.842
 3155TIP3    H1 9471   6.405   3.693   1.811
 3155TIP3    H2 9472   6.405   3.842   1.835
 3156TIP3   OH2 9473   4.132   3.295   3.406
 3156TIP3    H1 9474   4.200   3.356   3.434
 3156TIP3    H2 9475   4.088   3.339   3.333
 3157TIP3   OH2 9476   5.035   3.054   2.526
 3157TIP3    H1 9477   5.055   3.076   2.436
 3157TIP3    H2 9478   5.111   3.004   2.556
 3158TIP3   OH2 9479   1.975   1.343   1.272
 3158TIP3    H1 9480   1.929   1.375   1.194
 3158TIP3    H2 9481   2.000   1.422   1.319
 3159TIP3   OH2 9482   5.601   0.775   0.975
 3159TIP3    H1 9483   5.607   0.805   0.885
 3159TIP3    H2 9484   5.571   0.684   0.969
 3160TIP3   OH2 9485   1.301   3.358   2.415
 3160TIP3    H1 9486   1.250   3.279   2.402
 3160TIP3    H2 9487   1.347   3.343   2.498
 3161TIP3   OH2 9488   0.170   4.841   4.515
 3161TIP3    H1 9489   0.176   4.891   4.597
 3161TIP3    H2 9490   0.258   4.808   4.500
 3162TIP3   OH2 9491   1.326   4.587   4.259
 3162TIP3    H1 9492   1.333   4.669   4.210
 3162TIP3    H2 9493   1.240   4.591   4.301
 3163TIP3   OH2 9494   4.314   1.533   1.330
 3163TIP3    H1 9495   4.346   1.603   1.386
 3163TIP3    H2 9496   4.277   1.469   1.390
 3164TIP3   OH2 9497   3.689   1.997   1.858
 3164TIP3    H1 9498   3.780   1.992   1.886
 3164TIP3    H2 9499   3.685   1.942   1.779
 3165TIP3   OH2 9500   4.516   3.484   1.271
 3165TIP3    H1 9501   4.469   3.402   1.288
 3165TIP3    H2 9502   4.571   3.465   1.195
 3166TIP3   OH2 9503   5.949   2.714   4.116
 3166TIP3    H1 9504   5.890   2.676   4.181
 3166TIP3    H2 9505   6.019   2.649   4.107
 3167TIP3   OH2 9506   0.198   0.109   2.106
 3167TIP3    H1 9507   0.280   0.112   2.156
 3167TIP3    H2 9508   0.225   0.115   2.015
 3168TIP3   OH2 9509   5.181   0.408   0.459
 3168TIP3    H1 9510   5.159   0.326   0.414
 3168TIP3    H2 9511   5.121   0.412   0.533
 3169TIP3   OH2 9512   1.087   4.474   3.068
 3169TIP3    H1 9513   1.073   4.380   3.059
 3169TIP3    H2 9514   1.015   4.504   3.122
 3170TIP3   OH2 9515   2.885   4.265   0.733
 3170TIP3    H1 9516   2.962   4.209   0.722
 3170TIP3    H2 9517   2.920   4.349   0.762
 3171TIP3   OH2 9518   1.734   2.042   3.857
 3171TIP3    H1 9519   1.699   1.998   3.779
 3171TIP3    H2 9520   1.664   2.035   3.922
 3172TIP3   OH2 9521   2.326   4.295   2.379
 3172TIP3    H1 9522   2.236   4.324   2.368
 3172TIP3    H2 9523   2.340   4.293   2.474
 3173TIP3   OH2 9524   0.821   4.671   1.913
 3173TIP3    H1 9525   0.855   4.720   1.838
 3173TIP3    H2 9526   0.728   4.662   1.896
 3174TIP3   OH2 9527   2.602   0.833   2.333
 3174TIP3    H1 9528   2.512   0.810   2.356
 3174TIP3    H2 9529   2.594   0.897   2.263
 3175TIP3   OH2 9530   2.014   3.858   4.579
 3175TIP3    H1 9531   2.018   3.953   4.572
 3175TIP3    H2 9532   2.105   3.830   4.586
 3176TIP3   OH2 9533   5.170   4.072   3.460
 3176TIP3    H1 9534   5.082   4.040   3.477
 3176TIP3    H2 9535   5.227   3.997   3.476
 3177TIP3   OH2 9536   5.704   1.228   4.527
 3177TIP3    H1 9537   5.708   1.169   4.601
 3177TIP3    H2 9538   5.755   1.185   4.458
 3178TIP3   OH2 9539   4.470   0.266   4.522
 3178TIP3    H1 9540   4.408   0.339   4.520
 3178TIP3    H2 9541   4.438   0.210   4.593
 3179TIP3   OH2 9542   2.708   5.901   0.589
 3179TIP3    H1 9543   2.758   5.981   0.570
 3179TIP3    H2 9544   2.741   5.836   0.527
 3180TIP3   OH2 9545   1.774   1.264   5.090
 3180TIP3    H1 9546   1.709   1.261   5.161
 3180TIP3    H2 9547   1.736   1.209   5.022
 3181TIP3   OH2 9548   3.694   5.616   2.021
 3181TIP3    H1 9549   3.756   5.651   1.957
 3181TIP3    H2 9550   3.653   5.542   1.976
 3182TIP3   OH2 9551   4.958   2.506   4.004
 3182TIP3    H1 9552   4.901   2.546   4.070
 3182TIP3    H2 9553   4.904   2.438   3.964
 3183TIP3   OH2 9554   1.402   3.458   4.212
 3183TIP3    H1 9555   1.423   3.465   4.306
 3183TIP3    H2 9556   1.458   3.387   4.181
 3184TIP3   OH2 9557   1.515   2.017   0.600
 3184TIP3    H1 9558   1.562   1.967   0.533
 3184TIP3    H2 9559   1.584   2.049   0.659
 3185TIP3   OH2 9560   3.968   5.644   4.493
 3185TIP3    H1 9561   3.909   5.695   4.438
 3185TIP3    H2 9562   3.986   5.701   4.568
 3186TIP3   OH2 9563   0.263   4.370   5.131
 3186TIP3    H1 9564   0.203   4.389   5.059
 3186TIP3    H2 9565   0.321   4.447   5.135
 3187TIP3   OH2 9566   2.191   1.520   0.102
 3187TIP3    H1 9567   2.123   1.575   0.142
 3187TIP3    H2 9568   2.272   1.568   0.117
 3188TIP3   OH2 9569   0.740   1.898   0.711
 3188TIP3    H1 9570   0.789   1.818   0.731
 3188TIP3    H2 9571   0.770   1.925   0.625
 3189TIP3   OH2 9572   3.886   4.844   5.110
 3189TIP3    H1 9573   3.893   4.918   5.170
 3189TIP3    H2 9574   3.807   4.862   5.059
 3190TIP3   OH2 9575   2.662   5.232   4.860
 3190TIP3    H1 9576   2.754   5.233   4.834
 3190TIP3    H2 9577   2.614   5.217   4.779
 3191TIP3   OH2 9578   3.827   0.611   3.935
 3191TIP3    H1 9579   3.887   0.606   3.861
 3191TIP3    H2 9580   3.759   0.673   3.906
 3192TIP3   OH2 9581   2.506   5.877   4.192
 3192TIP3    H1 9582   2.426   5.929   4.198
 3192TIP3    H2 9583   2.574   5.939   4.164
 3193TIP3   OH2 9584   2.279   3.361   1.547
 3193TIP3    H1 9585   2.327   3.437   1.515
 3193TIP3    H2 9586   2.283   3.298   1.475
 3194TIP3   OH2 9587   3.594   0.459   3.526
 3194TIP3    H1 9588   3.528   0.432   3.462
 3194TIP3    H2 9589   3.587   0.394   3.596
 3195TIP3   OH2 9590   0.566   4.574   1.475
 3195TIP3    H1 9591   0.558   4.647   1.536
 3195TIP3    H2 9592   0.659   4.571   1.453
 3196TIP3   OH2 9593   3.715   2.309   3.844
 3196TIP3    H1 9594   3.646   2.300   3.778
 3196TIP3    H2 9595   3.738   2.402   3.842
 3197TIP3   OH2 9596   0.417   0.340   5.125
 3197TIP3    H1 9597   0.368   0.290   5.059
 3197TIP3    H2 9598   0.479   0.277   5.161
 3198TIP3   OH2 9599   1.536   1.986   1.240
 3198TIP3    H1 9600   1.630   1.973   1.225
 3198TIP3    H2 9601   1.509   2.044   1.169
 3199TIP3   OH2 9602   2.228   1.107   0.613
 3199TIP3    H1 9603   2.222   1.065   0.699
 3199TIP3    H2 9604   2.193   1.195   0.626
 3200TIP3   OH2 9605   3.260   4.837   1.835
 3200TIP3    H1 9606   3.244   4.918   1.787
 3200TIP3    H2 9607   3.174   4.795   1.841
 3201TIP3   OH2 9608   0.081   4.700   2.251
 3201TIP3    H1 9609   0.129   4.749   2.318
 3201TIP3    H2 9610   0.131   4.618   2.241
 3202TIP3   OH2 9611   1.202   5.371   4.173
 3202TIP3    H1 9612   1.171   5.323   4.096
 3202TIP3    H2 9613   1.234   5.303   4.232
 3203TIP3   OH2 9614   1.578   5.410   0.044
 3203TIP3    H1 9615   1.623   5.377  -0.034
 3203TIP3    H2 9616   1.648   5.438   0.103
 3204TIP3   OH2 9617   4.099   2.629   3.573
 3204TIP3    H1 9618   4.102   2.715   3.532
 3204TIP3    H2 9619   4.035   2.638   3.644
 3205TIP3   OH2 9620   0.279   5.228   5.181
 3205TIP3    H1 9621   0.236   5.147   5.208
 3205TIP3    H2 9622   0.274   5.227   5.085
 3206TIP3   OH2 9623   5.943   2.645   3.258
 3206TIP3    H1 9624   6.012   2.641   3.324
 3206TIP3    H2 9625   5.989   2.649   3.174
 3207TIP3   OH2 9626   4.227   4.615   1.261
 3207TIP3    H1 9627   4.279   4.536   1.247
 3207TIP3    H2 9628   4.140   4.583   1.286
 3208TIP3   OH2 9629   2.383   1.842   5.099
 3208TIP3    H1 9630   2.312   1.802   5.049
 3208TIP3    H2 9631   2.416   1.912   5.043
 3209TIP3   OH2 9632   4.640   2.298   3.044
 3209TIP3    H1 9633   4.718   2.353   3.033
 3209TIP3    H2 9634   4.629   2.291   3.139
 3210TIP3   OH2 9635   3.583   2.375   2.957
 3210TIP3    H1 9636   3.560   2.332   3.040
 3210TIP3    H2 9637   3.629   2.308   2.907
 3211TIP3   OH2 9638   5.490   3.198   4.787
 3211TIP3    H1 9639   5.480   3.285   4.825
 3211TIP3    H2 9640   5.584   3.179   4.795
 3212TIP3   OH2 9641   3.378   3.011   1.812
 3212TIP3    H1 9642   3.311   3.016   1.743
 3212TIP3    H2 9643   3.421   2.927   1.797
 3213TIP3   OH2 9644   4.475   3.723   3.758
 3213TIP3    H1 9645   4.465   3.733   3.852
 3213TIP3    H2 9646   4.508   3.634   3.746
 3214TIP3   OH2 9647   5.502   3.835   1.085
 3214TIP3    H1 9648   5.471   3.924   1.069
 3214TIP3    H2 9649   5.476   3.816   1.175
 3215TIP3   OH2 9650   1.155   4.347   1.405
 3215TIP3    H1 9651   1.185   4.315   1.321
 3215TIP3    H2 9652   1.231   4.391   1.443
 3216TIP3   OH2 9653   1.934   5.145   1.746
 3216TIP3    H1 9654   1.948   5.178   1.657
 3216TIP3    H2 9655   2.017   5.101   1.768
 3217TIP3   OH2 9656   1.290   4.734   1.343
 3217TIP3    H1 9657   1.244   4.818   1.346
 3217TIP3    H2 9658   1.224   4.671   1.314
 3218TIP3   OH2 9659   2.795   4.432   1.144
 3218TIP3    H1 9660   2.832   4.483   1.072
 3218TIP3    H2 9661   2.823   4.342   1.125
 3219TIP3   OH2 9662   1.603   5.479   0.912
 3219TIP3    H1 9663   1.591   5.389   0.882
 3219TIP3    H2 9664   1.684   5.508   0.870
 3220TIP3   OH2 9665   1.283   0.612   3.024
 3220TIP3    H1 9666   1.326   0.686   3.068
 3220TIP3    H2 9667   1.292   0.631   2.931
 3221TIP3   OH2 9668   2.920   0.840   0.046
 3221TIP3    H1 9669   2.874   0.816  -0.034
 3221TIP3    H2 9670   3.013   0.839   0.022
 3222TIP3   OH2 9671   5.288   5.313   3.752
 3222TIP3    H1 9672   5.284   5.399   3.710
 3222TIP3    H2 9673   5.379   5.305   3.781
 3223TIP3   OH2 9674   4.674   5.457   3.720
 3223TIP3    H1 9675   4.653   5.439   3.812
 3223TIP3    H2 9676   4.743   5.523   3.724
 3224TIP3   OH2 9677   5.391   1.750   0.719
 3224TIP3    H1 9678   5.485   1.759   0.730
 3224TIP3    H2 9679   5.379   1.659   0.690
 3225TIP3   OH2 9680   6.011   4.174   2.797
 3225TIP3    H1 9681   6.079   4.222   2.749
 3225TIP3    H2 9682   5.984   4.105   2.736
 3226TIP3   OH2 9683   1.877   1.245   2.080
 3226TIP3    H1 9684   1.790   1.235   2.118
 3226TIP3    H2 9685   1.872   1.327   2.031
 3227TIP3   OH2 9686   5.844   1.901   4.736
 3227TIP3    H1 9687   5.751   1.879   4.736
 3227TIP3    H2 9688   5.888   1.820   4.712
 3228TIP3   OH2 9689   4.686   0.011   4.651
 3228TIP3    H1 9690   4.626  -0.040   4.597
 3228TIP3    H2 9691   4.629   0.073   4.698
 3229TIP3   OH2 9692   0.974   1.828   3.505
 3229TIP3    H1 9693   1.002   1.769   3.575
 3229TIP3    H2 9694   0.935   1.771   3.439
 3230TIP3   OH2 9695   0.681   2.601   4.135
 3230TIP3    H1 9696   0.690   2.658   4.059
 3230TIP3    H2 9697   0.699   2.513   4.101
 3231TIP3   OH2 9698   3.211   2.171   4.297
 3231TIP3    H1 9699   3.204   2.095   4.239
 3231TIP3    H2 9700   3.142   2.230   4.267
 3232TIP3   OH2 9701   3.159   1.378   3.542
 3232TIP3    H1 9702   3.183   1.436   3.470
 3232TIP3    H2 9703   3.072   1.346   3.519
 3233TIP3   OH2 9704   1.003   4.829   0.289
 3233TIP3    H1 9705   1.025   4.906   0.341
 3233TIP3    H2 9706   1.040   4.756   0.338
 3234TIP3   OH2 9707   5.290   5.104   0.524
 3234TIP3    H1 9708   5.368   5.062   0.491
 3234TIP3    H2 9709   5.309   5.122   0.616
 3235TIP3   OH2 9710   1.636   5.169   1.888
 3235TIP3    H1 9711   1.704   5.226   1.854
 3235TIP3    H2 9712   1.655   5.161   1.981
 3236TIP3   OH2 9713   6.088   2.801   1.638
 3236TIP3    H1 9714   6.055   2.868   1.697
 3236TIP3    H2 9715   6.132   2.738   1.695
 3237TIP3   OH2 9716   5.419   2.391   4.924
 3237TIP3    H1 9717   5.477   2.451   4.878
 3237TIP3    H2 9718   5.461   2.376   5.008
 3238TIP3   OH2 9719   3.279   5.402   1.087
 3238TIP3    H1 9720   3.214   5.447   1.032
 3238TIP3    H2 9721   3.272   5.444   1.172
 3239TIP3   OH2 9722   2.422   3.730   4.104
 3239TIP3    H1 9723   2.505   3.691   4.129
 3239TIP3    H2 9724   2.399   3.787   4.177
 3240TIP3   OH2 9725   4.923   0.310   0.347
 3240TIP3    H1 9726   4.840   0.295   0.392
 3240TIP3    H2 9727   4.925   0.405   0.332
 3241TIP3   OH2 9728   2.482   2.373   1.077
 3241TIP3    H1 9729   2.512   2.321   1.003
 3241TIP3    H2 9730   2.391   2.347   1.089
 3242TIP3   OH2 9731   4.215   5.979   1.252
 3242TIP3    H1 9732   4.212   6.068   1.216
 3242TIP3    H2 9733   4.235   5.924   1.176
 3243TIP3   OH2 9734   1.174   4.880   3.348
 3243TIP3    H1 9735   1.148   4.945   3.413
 3243TIP3    H2 9736   1.190   4.800   3.398
 3244TIP3   OH2 9737   2.081   4.440   1.895
 3244TIP3    H1 9738   2.098   4.348   1.917
 3244TIP3    H2 9739   1.989   4.441   1.867
 3245TIP3   OH2 9740   2.771   3.184   3.801
 3245TIP3    H1 9741   2.802   3.252   3.741
 3245TIP3    H2 9742   2.702   3.139   3.753
 3246TIP3   OH2 9743   3.275   4.494   4.039
 3246TIP3    H1 9744   3.362   4.465   4.015
 3246TIP3    H2 9745   3.217   4.455   3.973
 3247TIP3   OH2 9746   3.466   0.772   3.943
 3247TIP3    H1 9747   3.531   0.765   3.874
 3247TIP3    H2 9748   3.507   0.732   4.020
 3248TIP3   OH2 9749   4.363   4.546  -0.046
 3248TIP3    H1 9750   4.435   4.515   0.008
 3248TIP3    H2 9751   4.287   4.547   0.013
 3249TIP3   OH2 9752   4.361   2.234   3.795
 3249TIP3    H1 9753   4.435   2.269   3.844
 3249TIP3    H2 9754   4.341   2.302   3.731
 3250TIP3   OH2 9755   0.880   4.867   1.157
 3250TIP3    H1 9756   0.878   4.873   1.253
 3250TIP3    H2 9757   0.810   4.806   1.136
 3251TIP3   OH2 9758   5.691   4.632   4.580
 3251TIP3    H1 9759   5.643   4.684   4.515
 3251TIP3    H2 9760   5.778   4.674   4.583
 3252TIP3   OH2 9761   0.838   3.213   4.527
 3252TIP3    H1 9762   0.749   3.247   4.520
 3252TIP3    H2 9763   0.893   3.290   4.537
 3253TIP3   OH2 9764   3.176   4.825   4.424
 3253TIP3    H1 9765   3.174   4.857   4.334
 3253TIP3    H2 9766   3.267   4.803   4.440
 3254TIP3   OH2 9767   4.995   2.984   0.056
 3254TIP3    H1 9768   5.045   2.966  -0.024
 3254TIP3    H2 9769   4.983   2.898   0.096
 3255TIP3   OH2 9770   3.541   1.418   1.882
 3255TIP3    H1 9771   3.536   1.365   1.961
 3255TIP3    H2 9772   3.634   1.439   1.874
 3256TIP3   OH2 9773   4.288   1.447   0.522
 3256TIP3    H1 9774   4.356   1.460   0.588
 3256TIP3    H2 9775   4.237   1.372   0.554
 3257TIP3   OH2 9776   3.498   4.457   0.197
 3257TIP3    H1 9777   3.517   4.474   0.104
 3257TIP3    H2 9778   3.416   4.408   0.196
 3258TIP3   OH2 9779   3.243   2.755   3.835
 3258TIP3    H1 9780   3.201   2.800   3.909
 3258TIP3    H2 9781   3.281   2.676   3.874
 3259TIP3   OH2 9782   3.290   2.142   4.547
 3259TIP3    H1 9783   3.282   2.118   4.454
 3259TIP3    H2 9784   3.221   2.206   4.562
 3260TIP3   OH2 9785   3.655   1.257   1.233
 3260TIP3    H1 9786   3.725   1.191   1.230
 3260TIP3    H2 9787   3.601   1.230   1.307
 3261TIP3   OH2 9788   4.300   2.242   4.143
 3261TIP3    H1 9789   4.236   2.221   4.211
 3261TIP3    H2 9790   4.275   2.189   4.068
 3262TIP3   OH2 9791   2.941   0.869   1.738
 3262TIP3    H1 9792   2.849   0.843   1.735
 3262TIP3    H2 9793   2.953   0.925   1.662
 3263TIP3   OH2 9794   1.794   2.440   3.441
 3263TIP3    H1 9795   1.750   2.410   3.361
 3263TIP3    H2 9796   1.839   2.363   3.474
 3264TIP3   OH2 9797   4.047   0.986   0.124
 3264TIP3    H1 9798   4.011   0.995   0.212
 3264TIP3    H2 9799   4.027   1.069   0.082
 3265TIP3   OH2 9800   4.257   2.583   4.754
 3265TIP3    H1 9801   4.219   2.542   4.832
 3265TIP3    H2 9802   4.196   2.653   4.732
 3266TIP3   OH2 9803   5.948   1.650   1.130
 3266TIP3    H1 9804   6.014   1.627   1.195
 3266TIP3    H2 9805   5.992   1.712   1.072
 3267TIP3   OH2 9806   3.069   1.056   3.698
 3267TIP3    H1 9807   3.019   0.989   3.745
 3267TIP3    H2 9808   3.141   1.009   3.657
 3268TIP3   OH2 9809   6.035   5.365   4.169
 3268TIP3    H1 9810   6.078   5.337   4.088
 3268TIP3    H2 9811   6.079   5.315   4.238
 3269TIP3   OH2 9812   5.875   0.313   1.980
 3269TIP3    H1 9813   5.929   0.387   2.008
 3269TIP3    H2 9814   5.786   0.348   1.980
 3270TIP3   OH2 9815   0.658   2.863   0.584
 3270TIP3    H1 9816   0.585   2.814   0.621
 3270TIP3    H2 9817   0.688   2.809   0.510
 3271TIP3   OH2 9818   0.245   5.625   0.257
 3271TIP3    H1 9819   0.325   5.641   0.207
 3271TIP3    H2 9820   0.174   5.640   0.194
 3272TIP3   OH2 9821   5.718   1.882   0.377
 3272TIP3    H1 9822   5.754   1.804   0.419
 3272TIP3    H2 9823   5.793   1.941   0.368
 3273TIP3   OH2 9824   3.506   3.439   0.190
 3273TIP3    H1 9825   3.588   3.481   0.163
 3273TIP3    H2 9826   3.456   3.509   0.231
 3274TIP3   OH2 9827   0.393   3.738   3.376
 3274TIP3    H1 9828   0.332   3.667   3.354
 3274TIP3    H2 9829   0.469   3.722   3.321
 3275TIP3   OH2 9830   3.708   0.504   1.801
 3275TIP3    H1 9831   3.634   0.513   1.740
 3275TIP3    H2 9832   3.738   0.594   1.815
 3276TIP3   OH2 9833   2.056   4.066   2.503
 3276TIP3    H1 9834   2.033   4.067   2.410
 3276TIP3    H2 9835   2.061   3.973   2.525
 3277TIP3   OH2 9836   0.090   4.865   5.038
 3277TIP3    H1 9837   0.030   4.932   5.069
 3277TIP3    H2 9838   0.143   4.842   5.114
 3278TIP3   OH2 9839   2.701   3.580   0.050
 3278TIP3    H1 9840   2.648   3.560   0.127
 3278TIP3    H2 9841   2.671   3.518  -0.016
 3279TIP3   OH2 9842   5.230   1.339   1.403
 3279TIP3    H1 9843   5.149   1.289   1.404
 3279TIP3    H2 9844   5.288   1.290   1.345
 3280TIP3   OH2 9845   1.639   3.507   3.685
 3280TIP3    H1 9846   1.544   3.521   3.683
 3280TIP3    H2 9847   1.652   3.440   3.752
 3281TIP3   OH2 9848   5.848   1.140   3.249
 3281TIP3    H1 9849   5.761   1.105   3.264
 3281TIP3    H2 9850   5.886   1.150   3.336
 3282TIP3   OH2 9851   1.677   2.088   4.380
 3282TIP3    H1 9852   1.670   2.003   4.338
 3282TIP3    H2 9853   1.611   2.086   4.450
 3283TIP3   OH2 9854   5.651   1.888   1.372
 3283TIP3    H1 9855   5.701   1.859   1.449
 3283TIP3    H2 9856   5.655   1.814   1.312
 3284TIP3   OH2 9857   5.919   2.377   4.982
 3284TIP3    H1 9858   5.894   2.296   4.937
 3284TIP3    H2 9859   6.014   2.383   4.972
 3285TIP3   OH2 9860   4.665   2.613   1.993
 3285TIP3    H1 9861   4.676   2.549   1.922
 3285TIP3    H2 9862   4.754   2.639   2.016
 3286TIP3   OH2 9863   0.483   5.515   0.638
 3286TIP3    H1 9864   0.548   5.566   0.686
 3286TIP3    H2 9865   0.420   5.581   0.607
 3287TIP3   OH2 9866   0.788   5.307   4.150
 3287TIP3    H1 9867   0.842   5.365   4.096
 3287TIP3    H2 9868   0.706   5.356   4.163
 3288TIP3   OH2 9869   1.990   2.793   4.704
 3288TIP3    H1 9870   1.995   2.706   4.743
 3288TIP3    H2 9871   1.905   2.827   4.732
 3289TIP3   OH2 9872   4.976   2.523   0.116
 3289TIP3    H1 9873   4.887   2.490   0.103
 3289TIP3    H2 9874   4.964   2.613   0.148
 3290TIP3   OH2 9875   4.852   0.207   3.483
 3290TIP3    H1 9876   4.874   0.132   3.538
 3290TIP3    H2 9877   4.894   0.188   3.399
 3291TIP3   OH2 9878   2.483   0.339   2.113
 3291TIP3    H1 9879   2.559   0.282   2.098
 3291TIP3    H2 9880   2.516   0.409   2.169
 3292TIP3   OH2 9881   2.485   1.936   0.302
 3292TIP3    H1 9882   2.505   2.027   0.327
 3292TIP3    H2 9883   2.553   1.884   0.345
 3293TIP3   OH2 9884   2.900   0.906   2.894
 3293TIP3    H1 9885   2.810   0.879   2.909
 3293TIP3    H2 9886   2.928   0.856   2.817
 3294TIP3   OH2 9887   0.385   3.250   3.142
 3294TIP3    H1 9888   0.398   3.262   3.236
 3294TIP3    H2 9889   0.291   3.240   3.131
 3295TIP3   OH2 9890   6.280   0.872   0.910
 3295TIP3    H1 9891   6.352   0.813   0.931
 3295TIP3    H2 9892   6.281   0.937   0.980
 3296TIP3   OH2 9893   5.101   2.894   1.600
 3296TIP3    H1 9894   5.184   2.855   1.573
 3296TIP3    H2 9895   5.126   2.966   1.658
 3297TIP3   OH2 9896  -0.027   5.134   3.531
 3297TIP3    H1 9897  -0.027   5.224   3.565
 3297TIP3    H2 9898  -0.041   5.144   3.437
 3298TIP3   OH2 9899   4.105   3.025   0.797
 3298TIP3    H1 9900   4.159   2.962   0.748
 3298TIP3    H2 9901   4.128   3.010   0.888
 3299TIP3   OH2 9902   0.725   5.125   0.299
 3299TIP3    H1 9903   0.775   5.181   0.239
 3299TIP3    H2 9904   0.639   5.166   0.304
 3300TIP3   OH2 9905   1.065   2.939   1.522
 3300TIP3    H1 9906   1.019   2.903   1.445
 3300TIP3    H2 9907   1.148   2.971   1.488
 3301TIP3   OH2 9908   2.960   1.302   3.301
 3301TIP3    H1 9909   2.949   1.344   3.216
 3301TIP3    H2 9910   2.888   1.334   3.354
 3302TIP3   OH2 9911   6.008   4.051   1.845
 3302TIP3    H1 9912   6.062   4.079   1.771
 3302TIP3    H2 9913   6.012   4.125   1.906
 3303TIP3   OH2 9914   3.104   2.502   1.631
 3303TIP3    H1 9915   3.041   2.565   1.593
 3303TIP3    H2 9916   3.159   2.476   1.557
 3304TIP3   OH2 9917   0.577   3.333   2.945
 3304TIP3    H1 9918   0.511   3.326   3.015
 3304TIP3    H2 9919   0.580   3.426   2.925
 3305TIP3   OH2 9920   2.260   0.532   5.025
 3305TIP3    H1 9921   2.266   0.550   5.119
 3305TIP3    H2 9922   2.168   0.507   5.012
 3306TIP3   OH2 9923   2.482   2.654   5.096
 3306TIP3    H1 9924   2.545   2.587   5.124
 3306TIP3    H2 9925   2.454   2.626   5.009
 3307TIP3   OH2 9926   5.129   4.942   1.641
 3307TIP3    H1 9927   5.169   4.898   1.566
 3307TIP3    H2 9928   5.190   5.013   1.662
 3308TIP3   OH2 9929   4.369   3.130   0.558
 3308TIP3    H1 9930   4.318   3.205   0.528
 3308TIP3    H2 9931   4.331   3.055   0.512
 3309TIP3   OH2 9932   3.933   0.643   4.613
 3309TIP3    H1 9933   4.021   0.679   4.603
 3309TIP3    H2 9934   3.881   0.690   4.548
 3310TIP3   OH2 9935   2.466   1.053   1.857
 3310TIP3    H1 9936   2.433   1.015   1.776
 3310TIP3    H2 9937   2.556   1.077   1.836
 3311TIP3   OH2 9938   5.620   1.625   3.778
 3311TIP3    H1 9939   5.579   1.587   3.857
 3311TIP3    H2 9940   5.679   1.556   3.747
 3312TIP3   OH2 9941   5.522   5.184   0.130
 3312TIP3    H1 9942   5.572   5.173   0.049
 3312TIP3    H2 9943   5.454   5.248   0.108
 3313TIP3   OH2 9944   5.024   2.968   0.342
 3313TIP3    H1 9945   5.055   2.990   0.254
 3313TIP3    H2 9946   5.104   2.948   0.391
 3314TIP3   OH2 9947   5.493   4.727   2.821
 3314TIP3    H1 9948   5.443   4.734   2.739
 3314TIP3    H2 9949   5.519   4.817   2.841
 3315TIP3   OH2 9950   2.622   1.804   1.136
 3315TIP3    H1 9951   2.690   1.871   1.147
 3315TIP3    H2 9952   2.627   1.780   1.043
 3316TIP3   OH2 9953   3.650   1.198   2.767
 3316TIP3    H1 9954   3.575   1.242   2.806
 3316TIP3    H2 9955   3.623   1.106   2.759
 3317TIP3   OH2 9956   3.770   5.319   5.016
 3317TIP3    H1 9957   3.753   5.330   4.923
 3317TIP3    H2 9958   3.710   5.249   5.043
 3318TIP3   OH2 9959   4.713   2.429   0.052
 3318TIP3    H1 9960   4.683   2.452   0.140
 3318TIP3    H2 9961   4.683   2.340   0.039
 3319TIP3   OH2 9962   2.632   2.766   4.743
 3319TIP3    H1 9963   2.699   2.715   4.788
 3319TIP3    H2 9964   2.616   2.719   4.662
 3320TIP3   OH2 9965   4.141   1.989   3.169
 3320TIP3    H1 9966   4.072   2.028   3.222
 3320TIP3    H2 9967   4.214   1.976   3.230
 3321TIP3   OH2 9968   4.504   3.137   4.648
 3321TIP3    H1 9969   4.573   3.083   4.687
 3321TIP3    H2 9970   4.450   3.075   4.600
 3322TIP3   OH2 9971   2.562   0.464   0.887
 3322TIP3    H1 9972   2.485   0.480   0.832
 3322TIP3    H2 9973   2.534   0.489   0.975
 3323TIP3   OH2 9974   2.665   5.832   1.950
 3323TIP3    H1 9975   2.720   5.756   1.930
 3323TIP3    H2 9976   2.718   5.908   1.924
 3324TIP3   OH2 9977   0.486   0.567   3.398
 3324TIP3    H1 9978   0.579   0.590   3.396
 3324TIP3    H2 9979   0.471   0.537   3.487
 3325TIP3   OH2 9980   2.470   5.192   4.363
 3325TIP3    H1 9981   2.467   5.116   4.421
 3325TIP3    H2 9982   2.535   5.168   4.296
 3326TIP3   OH2 9983   4.164   4.334   1.708
 3326TIP3    H1 9984   4.184   4.305   1.619
 3326TIP3    H2 9985   4.075   4.300   1.725
 3327TIP3   OH2 9986   4.394   1.325   3.515
 3327TIP3    H1 9987   4.463   1.379   3.477
 3327TIP3    H2 9988   4.316   1.381   3.514
 3328TIP3   OH2 9989   4.423   3.870   4.346
 3328TIP3    H1 9990   4.351   3.810   4.365
 3328TIP3    H2 9991   4.499   3.813   4.332
 3329TIP3   OH2 9992   1.501   4.676   2.102
 3329TIP3    H1 9993   1.406   4.676   2.106
 3329TIP3    H2 9994   1.523   4.745   2.040
 3330TIP3   OH2 9995   6.155   4.826   4.730
 3330TIP3    H1 9996   6.092   4.766   4.771
 3330TIP3    H2 9997   6.198   4.773   4.663
 3331TIP3   OH2 9998   2.679   0.553   0.408
 3331TIP3    H1 9999   2.738   0.568   0.334
 3331TIP3    H210000   2.688   0.459   0.427
 3332TIP3   OH210001   1.812   0.796   0.939
 3332TIP3    H110002   1.848   0.707   0.935
 3332TIP3    H210003   1.746   0.798   0.870
 3333TIP3   OH210004   5.185   4.835   0.339
 3333TIP3    H110005   5.203   4.929   0.334
 3333TIP3    H210006   5.097   4.826   0.304
 3334TIP3   OH210007   4.818   5.286   1.990
 3334TIP3    H110008   4.832   5.212   2.048
 3334TIP3    H210009   4.899   5.294   1.939
 3335TIP3   OH210010   5.318   1.481   0.687
 3335TIP3    H110011   5.339   1.472   0.780
 3335TIP3    H210012   5.232   1.524   0.686
 3336TIP3   OH210013   2.660   2.796   3.088
 3336TIP3    H110014   2.711   2.877   3.080
 3336TIP3    H210015   2.651   2.764   2.999
 3337TIP3   OH210016   2.500   1.322   0.050
 3337TIP3    H110017   2.550   1.399   0.074
 3337TIP3    H210018   2.563   1.250   0.052
 3338TIP3   OH210019   2.457   2.683   1.774
 3338TIP3    H110020   2.386   2.662   1.713
 3338TIP3    H210021   2.413   2.700   1.857
 3339TIP3   OH210022   2.488   0.546   2.309
 3339TIP3    H110023   2.394   0.533   2.323
 3339TIP3    H210024   2.492   0.603   2.232
 3340TIP3   OH210025   4.644   4.864   4.841
 3340TIP3    H110026   4.730   4.827   4.826
 3340TIP3    H210027   4.652   4.912   4.924
 3341TIP3   OH210028   1.487   2.458   2.735
 3341TIP3    H110029   1.495   2.421   2.647
 3341TIP3    H210030   1.404   2.424   2.768
 3342TIP3   OH210031   5.971   0.716   1.016
 3342TIP3    H110032   5.906   0.743   1.080
 3342TIP3    H210033   5.929   0.732   0.931
 3343TIP3   OH210034   4.189   5.077   0.639
 3343TIP3    H110035   4.228   5.014   0.579
 3343TIP3    H210036   4.135   5.133   0.583
 3344TIP3   OH210037   5.462   4.164   1.272
 3344TIP3    H110038   5.440   4.253   1.244
 3344TIP3    H210039   5.426   4.158   1.361
 3345TIP3   OH210040   3.906   2.889   0.464
 3345TIP3    H110041   3.885   2.798   0.444
 3345TIP3    H210042   3.980   2.909   0.407
 3346TIP3   OH210043   5.530   3.893   3.024
 3346TIP3    H110044   5.471   3.826   2.989
 3346TIP3    H210045   5.471   3.965   3.048
 3347TIP3   OH210046   0.778   3.409   5.167
 3347TIP3    H110047   0.833   3.457   5.230
 3347TIP3    H210048   0.832   3.405   5.088
 3348TIP3   OH210049   1.660   0.514   2.876
 3348TIP3    H110050   1.631   0.569   2.803
 3348TIP3    H210051   1.698   0.437   2.834
 3349TIP3   OH210052   5.382   5.452   4.515
 3349TIP3    H110053   5.379   5.359   4.535
 3349TIP3    H210054   5.375   5.457   4.420
 3350TIP3   OH210055   4.521   5.634   4.115
 3350TIP3    H110056   4.520   5.716   4.066
 3350TIP3    H210057   4.553   5.569   4.052
 3351TIP3   OH210058   4.577   3.274   3.512
 3351TIP3    H110059   4.631   3.301   3.437
 3351TIP3    H210060   4.516   3.210   3.476
 3352TIP3   OH210061   0.479   4.659   0.311
 3352TIP3    H110062   0.563   4.630   0.345
 3352TIP3    H210063   0.426   4.579   0.307
 3353TIP3   OH210064   1.852   3.338   3.185
 3353TIP3    H110065   1.884   3.255   3.221
 3353TIP3    H210066   1.804   3.379   3.257
 3354TIP3   OH210067   4.532   5.141   0.138
 3354TIP3    H110068   4.553   5.081   0.209
 3354TIP3    H210069   4.577   5.106   0.062
 3355TIP3   OH210070   1.524   0.715   2.100
 3355TIP3    H110071   1.558   0.728   2.012
 3355TIP3    H210072   1.539   0.799   2.144
 3356TIP3   OH210073   2.594   3.988   0.479
 3356TIP3    H110074   2.646   3.981   0.398
 3356TIP3    H210075   2.638   3.929   0.540
 3357TIP3   OH210076   2.133   2.306   3.921
 3357TIP3    H110077   2.132   2.382   3.863
 3357TIP3    H210078   2.126   2.231   3.862
 3358TIP3   OH210079   3.945   0.854   3.308
 3358TIP3    H110080   3.896   0.785   3.263
 3358TIP3    H210081   3.946   0.827   3.400
 3359TIP3   OH210082   2.204   3.779   1.724
 3359TIP3    H110083   2.112   3.798   1.743
 3359TIP3    H210084   2.234   3.854   1.673
 3360TIP3   OH210085   0.170   5.026   4.807
 3360TIP3    H110086   0.077   5.047   4.793
 3360TIP3    H210087   0.169   4.938   4.844
 3361TIP3   OH210088   3.275   5.360   1.674
 3361TIP3    H110089   3.183   5.379   1.656
 3361TIP3    H210090   3.273   5.281   1.728
 3362TIP3   OH210091   0.517   5.449   4.068
 3362TIP3    H110092   0.495   5.355   4.068
 3362TIP3    H210093   0.450   5.489   4.124
 3363TIP3   OH210094   5.618   5.974   1.356
 3363TIP3    H110095   5.695   5.937   1.313
 3363TIP3    H210096   5.638   5.971   1.449
 3364TIP3   OH210097   2.177   1.300   4.833
 3364TIP3    H110098   2.191   1.206   4.844
 3364TIP3    H210099   2.126   1.308   4.753
 3365TIP3   OH210100   5.057   2.019   2.064
 3365TIP3    H110101   5.146   2.056   2.066
 3365TIP3    H210102   5.004   2.082   2.114
 3366TIP3   OH210103   0.270   4.944   3.319
 3366TIP3    H110104   0.260   4.912   3.229
 3366TIP3    H210105   0.282   5.039   3.309
 3367TIP3   OH210106   5.341   4.029   2.180
 3367TIP3    H110107   5.254   3.989   2.179
 3367TIP3    H210108   5.343   4.078   2.262
 3368TIP3   OH210109   2.706   1.694   2.373
 3368TIP3    H110110   2.739   1.655   2.454
 3368TIP3    H210111   2.674   1.780   2.399
 3369TIP3   OH210112   5.255   3.412   3.516
 3369TIP3    H110113   5.302   3.488   3.480
 3369TIP3    H210114   5.219   3.443   3.599
 3370TIP3   OH210115   2.529   5.251   2.947
 3370TIP3    H110116   2.613   5.249   2.902
 3370TIP3    H210117   2.484   5.328   2.911
 3371TIP3   OH210118   1.850   3.085   2.955
 3371TIP3    H110119   1.815   3.012   2.904
 3371TIP3    H210120   1.901   3.044   3.024
 3372TIP3   OH210121   3.087   5.337   0.100
 3372TIP3    H110122   3.015   5.298   0.050
 3372TIP3    H210123   3.125   5.401   0.040
 3373TIP3   OH210124   5.695   2.109   2.475
 3373TIP3    H110125   5.785   2.117   2.508
 3373TIP3    H210126   5.690   2.173   2.404
 3374TIP3   OH210127   3.503   3.382   1.690
 3374TIP3    H110128   3.538   3.302   1.730
 3374TIP3    H210129   3.444   3.350   1.622
 3375TIP3   OH210130   0.813   4.460   3.678
 3375TIP3    H110131   0.851   4.548   3.681
 3375TIP3    H210132   0.853   4.415   3.752
 3376TIP3   OH210133   0.675   0.248   1.771
 3376TIP3    H110134   0.686   0.233   1.865
 3376TIP3    H210135   0.641   0.165   1.737
 3377TIP3   OH210136   3.933   3.588   4.373
 3377TIP3    H110137   3.898   3.500   4.361
 3377TIP3    H210138   3.898   3.616   4.457
 3378TIP3   OH210139  -0.018   3.573   0.051
 3378TIP3    H110140  -0.023   3.657   0.006
 3378TIP3    H210141  -0.019   3.508  -0.020
 3379TIP3   OH210142   2.792   3.591   0.394
 3379TIP3    H110143   2.733   3.522   0.363
 3379TIP3    H210144   2.879   3.554   0.382
 3380TIP3   OH210145   2.837   1.591   3.614
 3380TIP3    H110146   2.801   1.672   3.579
 3380TIP3    H210147   2.762   1.544   3.650
 3381TIP3   OH210148   0.162   2.976   2.914
 3381TIP3    H110149   0.130   2.888   2.936
 3381TIP3    H210150   0.102   3.035   2.958
 3382TIP3   OH210151   1.188   5.021   0.729
 3382TIP3    H110152   1.187   5.116   0.743
 3382TIP3    H210153   1.192   4.984   0.817
 3383TIP3   OH210154   1.266   2.022   0.510
 3383TIP3    H110155   1.218   2.003   0.591
 3383TIP3    H210156   1.356   2.039   0.539
 3384TIP3   OH210157   0.745   1.033   3.644
 3384TIP3    H110158   0.827   1.038   3.596
 3384TIP3    H210159   0.769   0.989   3.726
 3385TIP3   OH210160   5.677   0.293   5.010
 3385TIP3    H110161   5.644   0.222   5.064
 3385TIP3    H210162   5.737   0.250   4.948
 3386TIP3   OH210163   2.599   0.764   0.593
 3386TIP3    H110164   2.523   0.807   0.554
 3386TIP3    H210165   2.622   0.695   0.530
 3387TIP3   OH210166   1.927   0.826   0.556
 3387TIP3    H110167   1.914   0.735   0.583
 3387TIP3    H210168   1.902   0.877   0.633
 3388TIP3   OH210169   4.282   3.125   1.724
 3388TIP3    H110170   4.315   3.045   1.683
 3388TIP3    H210171   4.361   3.177   1.741
 3389TIP3   OH210172   3.927   1.727   4.147
 3389TIP3    H110173   3.995   1.793   4.137
 3389TIP3    H210174   3.858   1.755   4.086
 3390TIP3   OH210175   1.113   1.719   1.076
 3390TIP3    H110176   1.163   1.795   1.048
 3390TIP3    H210177   1.133   1.652   1.011
 3391TIP3   OH210178   5.982   0.864   3.427
 3391TIP3    H110179   6.020   0.951   3.416
 3391TIP3    H210180   6.036   0.823   3.494
 3392TIP3   OH210181   1.483   4.900   4.762
 3392TIP3    H110182   1.515   4.854   4.840
 3392TIP3    H210183   1.497   4.839   4.690
 3393TIP3   OH210184   1.330   1.133   0.940
 3393TIP3    H110185   1.340   1.126   0.845
 3393TIP3    H210186   1.284   1.053   0.965
 3394TIP3   OH210187   4.867   2.765   3.422
 3394TIP3    H110188   4.816   2.735   3.497
 3394TIP3    H210189   4.943   2.808   3.460
 3395TIP3   OH210190   2.051   5.547   0.306
 3395TIP3    H110191   2.081   5.466   0.263
 3395TIP3    H210192   2.066   5.615   0.241
 3396TIP3   OH210193   0.167   5.379   2.250
 3396TIP3    H110194   0.206   5.295   2.272
 3396TIP3    H210195   0.196   5.396   2.160
 3397TIP3   OH210196   1.736   3.990   0.204
 3397TIP3    H110197   1.802   3.920   0.207
 3397TIP3    H210198   1.732   4.015   0.112
 3398TIP3   OH210199   1.646   2.239   3.601
 3398TIP3    H110200   1.640   2.144   3.606
 3398TIP3    H210201   1.608   2.261   3.516
 3399TIP3   OH210202   0.571   2.263   2.109
 3399TIP3    H110203   0.478   2.249   2.126
 3399TIP3    H210204   0.610   2.176   2.115
 3400TIP3   OH210205   3.164   1.013   2.277
 3400TIP3    H110206   3.090   0.996   2.218
 3400TIP3    H210207   3.171   0.933   2.330
 3401TIP3   OH210208   1.698   3.721   4.215
 3401TIP3    H110209   1.718   3.641   4.264
 3401TIP3    H210210   1.759   3.786   4.249
 3402TIP3   OH210211   2.475   0.711   3.519
 3402TIP3    H110212   2.538   0.777   3.489
 3402TIP3    H210213   2.420   0.694   3.442
 3403TIP3   OH210214   4.669   4.393   3.547
 3403TIP3    H110215   4.626   4.450   3.483
 3403TIP3    H210216   4.606   4.386   3.618
 3404TIP3   OH210217   3.830   5.831   4.345
 3404TIP3    H110218   3.743   5.793   4.354
 3404TIP3    H210219   3.831   5.869   4.257
 3405TIP3   OH210220   2.744   3.324   2.630
 3405TIP3    H110221   2.712   3.329   2.721
 3405TIP3    H210222   2.676   3.276   2.583
 3406TIP3   OH210223   4.375   5.520   0.023
 3406TIP3    H110224   4.402   5.529  -0.068
 3406TIP3    H210225   4.450   5.550   0.074
 3407TIP3   OH210226   5.203   0.052   2.574
 3407TIP3    H110227   5.122   0.095   2.549
 3407TIP3    H210228   5.271   0.096   2.522
 3408TIP3   OH210229   4.481   0.899   5.169
 3408TIP3    H110230   4.532   0.837   5.220
 3408TIP3    H210231   4.531   0.911   5.088
 3409TIP3   OH210232   3.915   0.215   2.195
 3409TIP3    H110233   3.904   0.160   2.118
 3409TIP3    H210234   3.853   0.180   2.258
 3410TIP3   OH210235   3.278   4.378   0.572
 3410TIP3    H110236   3.302   4.466   0.600
 3410TIP3    H210237   3.361   4.335   0.552
 3411TIP3   OH210238   5.829   3.549   0.678
 3411TIP3    H110239   5.869   3.474   0.722
 3411TIP3    H210240   5.885   3.565   0.602
 3412TIP3   OH210241   3.938   4.643   2.933
 3412TIP3    H110242   4.017   4.697   2.929
 3412TIP3    H210243   3.867   4.705   2.949
 3413TIP3   OH210244   0.403   3.689   0.090
 3413TIP3    H110245   0.407   3.622   0.021
 3413TIP3    H210246   0.494   3.717   0.100
 3414TIP3   OH210247   3.776   2.409   0.849
 3414TIP3    H110248   3.732   2.436   0.930
 3414TIP3    H210249   3.765   2.314   0.845
 3415TIP3   OH210250   2.461   4.948   0.543
 3415TIP3    H110251   2.463   4.930   0.449
 3415TIP3    H210252   2.406   4.878   0.580
 3416TIP3   OH210253   3.155   4.787   2.329
 3416TIP3    H110254   3.128   4.742   2.409
 3416TIP3    H210255   3.248   4.804   2.341
 3417TIP3   OH210256   3.002   2.237   1.492
 3417TIP3    H110257   3.047   2.321   1.488
 3417TIP3    H210258   3.041   2.185   1.422
 3418TIP3   OH210259   5.766   2.874   1.465
 3418TIP3    H110260   5.673   2.888   1.447
 3418TIP3    H210261   5.782   2.923   1.545
 3419TIP3   OH210262   0.791   3.164   2.404
 3419TIP3    H110263   0.866   3.165   2.464
 3419TIP3    H210264   0.759   3.254   2.404
 3420TIP3   OH210265   6.073   2.345   3.204
 3420TIP3    H110266   6.025   2.266   3.228
 3420TIP3    H210267   6.076   2.341   3.108
 3421TIP3   OH210268   5.764   1.141   4.088
 3421TIP3    H110269   5.798   1.117   4.174
 3421TIP3    H210270   5.805   1.225   4.069
 3422TIP3   OH210271   4.764   1.919   4.708
 3422TIP3    H110272   4.727   2.004   4.684
 3422TIP3    H210273   4.688   1.863   4.721
 3423TIP3   OH210274   2.669   2.010   5.183
 3423TIP3    H110275   2.601   2.060   5.137
 3423TIP3    H210276   2.665   1.922   5.145
 3424TIP3   OH210277   0.284   4.420   3.080
 3424TIP3    H110278   0.370   4.383   3.060
 3424TIP3    H210279   0.230   4.345   3.103
 3425TIP3   OH210280   3.251   0.567   4.111
 3425TIP3    H110281   3.196   0.616   4.050
 3425TIP3    H210282   3.194   0.499   4.146
 3426TIP3   OH210283   4.414   1.227   2.539
 3426TIP3    H110284   4.340   1.276   2.576
 3426TIP3    H210285   4.480   1.293   2.520
 3427TIP3   OH210286   5.631   4.373   1.641
 3427TIP3    H110287   5.554   4.418   1.605
 3427TIP3    H210288   5.699   4.441   1.644
 3428TIP3   OH210289   4.283   4.281   1.356
 3428TIP3    H110290   4.376   4.289   1.375
 3428TIP3    H210291   4.278   4.228   1.277
 3429TIP3   OH210292   3.112   1.904   3.901
 3429TIP3    H110293   3.094   1.935   3.813
 3429TIP3    H210294   3.139   1.812   3.889
 3430TIP3   OH210295   4.246   0.899   2.346
 3430TIP3    H110296   4.310   0.933   2.408
 3430TIP3    H210297   4.221   0.814   2.382
 3431TIP3   OH210298   6.175   0.347   3.168
 3431TIP3    H110299   6.251   0.346   3.226
 3431TIP3    H210300   6.174   0.436   3.131
 3432TIP3   OH210301   0.392   5.029   2.079
 3432TIP3    H110302   0.471   4.983   2.050
 3432TIP3    H210303   0.399   5.028   2.175
 3433TIP3   OH210304   0.669   0.948   3.213
 3433TIP3    H110305   0.712   0.891   3.276
 3433TIP3    H210306   0.586   0.972   3.254
 3434TIP3   OH210307   1.122   3.680   2.135
 3434TIP3    H110308   1.193   3.616   2.125
 3434TIP3    H210309   1.150   3.736   2.207
 3435TIP3   OH210310   2.131   5.603   1.748
 3435TIP3    H110311   2.064   5.548   1.789
 3435TIP3    H210312   2.100   5.692   1.763
 3436TIP3   OH210313   3.992   5.625   1.250
 3436TIP3    H110314   3.928   5.642   1.319
 3436TIP3    H210315   4.043   5.550   1.282
 3437TIP3   OH210316   4.825   2.750   0.146
 3437TIP3    H110317   4.806   2.794   0.229
 3437TIP3    H210318   4.744   2.705   0.123
 3438TIP3   OH210319   1.950   0.909   3.823
 3438TIP3    H110320   1.859   0.896   3.796
 3438TIP3    H210321   1.964   0.842   3.890
 3439TIP3   OH210322   0.789   2.524   0.774
 3439TIP3    H110323   0.845   2.588   0.730
 3439TIP3    H210324   0.725   2.499   0.707
 3440TIP3   OH210325   0.787   5.128   3.019
 3440TIP3    H110326   0.876   5.157   2.997
 3440TIP3    H210327   0.784   5.037   2.990
 3441TIP3   OH210328   0.285   5.264   4.904
 3441TIP3    H110329   0.246   5.186   4.865
 3441TIP3    H210330   0.238   5.337   4.863
 3442TIP3   OH210331   3.319   2.737   2.639
 3442TIP3    H110332   3.368   2.655   2.635
 3442TIP3    H210333   3.358   2.792   2.571
 3443TIP3   OH210334   0.192   4.866   0.380
 3443TIP3    H110335   0.281   4.865   0.344
 3443TIP3    H210336   0.183   4.953   0.419
 3444TIP3   OH210337   0.749   4.118   4.164
 3444TIP3    H110338   0.675   4.178   4.157
 3444TIP3    H210339   0.711   4.036   4.196
 3445TIP3   OH210340   5.405   5.624   0.101
 3445TIP3    H110341   5.368   5.536   0.100
 3445TIP3    H210342   5.364   5.668   0.027
 3446TIP3   OH210343   0.718   1.023   4.758
 3446TIP3    H110344   0.705   1.097   4.698
 3446TIP3    H210345   0.761   0.956   4.705
 3447TIP3   OH210346   5.012   2.002   2.412
 3447TIP3    H110347   4.985   1.912   2.430
 3447TIP3    H210348   5.099   2.010   2.451
 3448TIP3   OH210349   5.893   3.681   3.925
 3448TIP3    H110350   5.827   3.673   3.856
 3448TIP3    H210351   5.932   3.767   3.912
 3449TIP3   OH210352   2.911   1.474   1.380
 3449TIP3    H110353   2.870   1.529   1.313
 3449TIP3    H210354   2.865   1.498   1.461
 3450TIP3   OH210355   0.689   5.225   5.010
 3450TIP3    H110356   0.772   5.256   4.974
 3450TIP3    H210357   0.631   5.302   5.005
 3451TIP3   OH210358   0.309   1.183   4.205
 3451TIP3    H110359   0.302   1.277   4.186
 3451TIP3    H210360   0.236   1.166   4.264
 3452TIP3   OH210361   5.248   1.410   3.249
 3452TIP3    H110362   5.262   1.435   3.158
 3452TIP3    H210363   5.278   1.485   3.300
 3453TIP3   OH210364   0.486   2.690   0.704
 3453TIP3    H110365   0.438   2.645   0.773
 3453TIP3    H210366   0.431   2.766   0.683
 3454TIP3   OH210367   4.872   0.462   2.329
 3454TIP3    H110368   4.902   0.436   2.242
 3454TIP3    H210369   4.780   0.485   2.317
 3455TIP3   OH210370   5.407   4.450   2.262
 3455TIP3    H110371   5.442   4.362   2.273
 3455TIP3    H210372   5.387   4.456   2.169
 3456TIP3   OH210373   6.087   4.083   3.622
 3456TIP3    H110374   6.090   4.086   3.526
 3456TIP3    H210375   5.998   4.110   3.644
 3457TIP3   OH210376   1.579   2.617   3.502
 3457TIP3    H110377   1.662   2.572   3.518
 3457TIP3    H210378   1.559   2.598   3.411
 3458TIP3   OH210379   5.916   2.072   0.332
 3458TIP3    H110380   5.943   2.163   0.321
 3458TIP3    H210381   5.991   2.021   0.302
 3459TIP3   OH210382   6.058   1.668   2.769
 3459TIP3    H110383   6.032   1.623   2.688
 3459TIP3    H210384   6.052   1.761   2.748
 3460TIP3   OH210385   6.179   3.339   2.013
 3460TIP3    H110386   6.199   3.295   2.096
 3460TIP3    H210387   6.264   3.375   1.985
 3461TIP3   OH210388   4.108   3.087   4.797
 3461TIP3    H110389   4.020   3.120   4.813
 3461TIP3    H210390   4.166   3.151   4.838
 3462TIP3   OH210391   5.881   3.991   0.239
 3462TIP3    H110392   5.943   4.047   0.284
 3462TIP3    H210393   5.879   4.025   0.149
 3463TIP3   OH210394   3.897   0.769   3.570
 3463TIP3    H110395   3.933   0.691   3.613
 3463TIP3    H210396   3.831   0.734   3.510
 3464TIP3   OH210397   0.615   0.646   2.913
 3464TIP3    H110398   0.524   0.673   2.918
 3464TIP3    H210399   0.663   0.726   2.891
 3465TIP3   OH210400   2.477   4.924   0.286
 3465TIP3    H110401   2.484   4.999   0.227
 3465TIP3    H210402   2.568   4.908   0.313
 3466TIP3   OH210403   2.918   3.419   0.754
 3466TIP3    H110404   2.873   3.459   0.828
 3466TIP3    H210405   2.988   3.480   0.731
 3467TIP3   OH210406   1.366   0.539   4.513
 3467TIP3    H110407   1.339   0.448   4.502
 3467TIP3    H210408   1.462   0.535   4.521
 3468TIP3   OH210409   2.634   5.224   3.453
 3468TIP3    H110410   2.658   5.278   3.378
 3468TIP3    H210411   2.549   5.186   3.430
 3469TIP3   OH210412   3.121   4.723   4.003
 3469TIP3    H110413   3.193   4.668   4.035
 3469TIP3    H210414   3.125   4.801   4.058
 3470TIP3   OH210415   4.280   4.612   1.738
 3470TIP3    H110416   4.311   4.639   1.652
 3470TIP3    H210417   4.236   4.529   1.722
 3471TIP3   OH210418   1.180   0.594   0.189
 3471TIP3    H110419   1.185   0.678   0.142
 3471TIP3    H210420   1.231   0.608   0.269
 3472TIP3   OH210421   0.716   3.284   0.558
 3472TIP3    H110422   0.675   3.262   0.641
 3472TIP3    H210423   0.715   3.380   0.555
 3473TIP3   OH210424   5.431   0.647   0.022
 3473TIP3    H110425   5.483   0.567   0.021
 3473TIP3    H210426   5.430   0.677  -0.069
 3474TIP3   OH210427   4.749   0.590   1.230
 3474TIP3    H110428   4.708   0.548   1.306
 3474TIP3    H210429   4.789   0.518   1.182
 3475TIP3   OH210430   2.377   1.286   0.843
 3475TIP3    H110431   2.422   1.333   0.914
 3475TIP3    H210432   2.354   1.354   0.780
 3476TIP3   OH210433   1.773   2.025   0.746
 3476TIP3    H110434   1.771   1.930   0.740
 3476TIP3    H210435   1.852   2.050   0.698
 3477TIP3   OH210436   3.241   5.600   1.814
 3477TIP3    H110437   3.311   5.661   1.792
 3477TIP3    H210438   3.256   5.525   1.756
 3478TIP3   OH210439   4.466   2.767   2.871
 3478TIP3    H110440   4.418   2.849   2.880
 3478TIP3    H210441   4.403   2.699   2.894
 3479TIP3   OH210442   6.133   5.126   3.129
 3479TIP3    H110443   6.042   5.108   3.155
 3479TIP3    H210444   6.130   5.216   3.095
 3480TIP3   OH210445   4.069   1.045   0.403
 3480TIP3    H110446   4.109   1.079   0.483
 3480TIP3    H210447   3.997   1.106   0.386
 3481TIP3   OH210448   0.755   2.781   0.344
 3481TIP3    H110449   0.841   2.767   0.305
 3481TIP3    H210450   0.694   2.774   0.271
 3482TIP3   OH210451   4.847   5.631   2.394
 3482TIP3    H110452   4.853   5.572   2.319
 3482TIP3    H210453   4.915   5.697   2.379
 3483TIP3   OH210454   6.079   2.530   1.224
 3483TIP3    H110455   6.096   2.440   1.253
 3483TIP3    H210456   6.166   2.570   1.220
 3484TIP3   OH210457   4.658   3.470   3.001
 3484TIP3    H110458   4.734   3.412   2.997
 3484TIP3    H210459   4.692   3.552   3.037
 3485TIP3   OH210460   1.496   5.478   3.868
 3485TIP3    H110461   1.578   5.500   3.913
 3485TIP3    H210462   1.441   5.556   3.879
 3486TIP3   OH210463   5.808   2.732   4.614
 3486TIP3    H110464   5.783   2.688   4.695
 3486TIP3    H210465   5.779   2.822   4.626
 3487TIP3   OH210466   1.848   3.184   1.196
 3487TIP3    H110467   1.803   3.227   1.269
 3487TIP3    H210468   1.934   3.227   1.193
 3488TIP3   OH210469   3.062   0.904   0.937
 3488TIP3    H110470   3.105   0.990   0.940
 3488TIP3    H210471   3.109   0.857   0.868
 3489TIP3   OH210472   0.294   2.728   4.591
 3489TIP3    H110473   0.242   2.785   4.647
 3489TIP3    H210474   0.294   2.770   4.505
 3490TIP3   OH210475   0.714   2.301   0.505
 3490TIP3    H110476   0.669   2.381   0.533
 3490TIP3    H210477   0.772   2.331   0.434
 3491TIP3   OH210478   4.913   0.328   5.105
 3491TIP3    H110479   4.970   0.345   5.179
 3491TIP3    H210480   4.965   0.273   5.046
 3492TIP3   OH210481   6.169   1.527   5.116
 3492TIP3    H110482   6.185   1.609   5.070
 3492TIP3    H210483   6.232   1.527   5.188
 3493TIP3   OH210484   1.481   2.204   2.437
 3493TIP3    H110485   1.542   2.209   2.363
 3493TIP3    H210486   1.411   2.265   2.414
 3494TIP3   OH210487   2.187   5.929   4.168
 3494TIP3    H110488   2.229   5.985   4.233
 3494TIP3    H210489   2.232   5.947   4.086
 3495TIP3   OH210490   2.220   1.909   3.406
 3495TIP3    H110491   2.280   1.916   3.332
 3495TIP3    H210492   2.140   1.951   3.376
 3496TIP3   OH210493   5.375   1.803   2.118
 3496TIP3    H110494   5.287   1.825   2.087
 3496TIP3    H210495   5.420   1.769   2.041
 3497TIP3   OH210496   2.555   2.003   3.779
 3497TIP3    H110497   2.516   2.085   3.750
 3497TIP3    H210498   2.486   1.961   3.831
 3498TIP3   OH210499   2.899   2.307   2.062
 3498TIP3    H110500   2.987   2.278   2.038
 3498TIP3    H210501   2.876   2.372   1.995
 3499TIP3   OH210502   3.751   4.676   0.579
 3499TIP3    H110503   3.833   4.713   0.545
 3499TIP3    H210504   3.692   4.676   0.504
 3500TIP3   OH210505   5.008   2.778   2.623
 3500TIP3    H110506   5.003   2.783   2.527
 3500TIP3    H210507   4.917   2.765   2.651
 3501TIP3   OH210508   3.914   4.062   2.457
 3501TIP3    H110509   3.975   4.014   2.402
 3501TIP3    H210510   3.943   4.045   2.546
 3502TIP3   OH210511   6.013   3.855   3.203
 3502TIP3    H110512   5.940   3.805   3.239
 3502TIP3    H210513   5.985   3.877   3.114
 3503TIP3   OH210514   0.212   2.463   4.606
 3503TIP3    H110515   0.183   2.448   4.516
 3503TIP3    H210516   0.215   2.558   4.615
 3504TIP3   OH210517   3.558   5.722   4.339
 3504TIP3    H110518   3.475   5.732   4.293
 3504TIP3    H210519   3.581   5.630   4.326
 3505TIP3   OH210520   4.689   2.656   1.412
 3505TIP3    H110521   4.762   2.687   1.467
 3505TIP3    H210522   4.620   2.635   1.475
 3506TIP3   OH210523   1.803   1.224   0.031
 3506TIP3    H110524   1.760   1.172  -0.037
 3506TIP3    H210525   1.864   1.163   0.072
 3507TIP3   OH210526   0.612   2.116   0.176
 3507TIP3    H110527   0.569   2.124   0.091
 3507TIP3    H210528   0.705   2.122   0.157
 3508TIP3   OH210529   5.711   0.062   1.378
 3508TIP3    H110530   5.711   0.154   1.351
 3508TIP3    H210531   5.734   0.064   1.471
 3509TIP3   OH210532   3.838   4.281   3.228
 3509TIP3    H110533   3.893   4.350   3.190
 3509TIP3    H210534   3.811   4.228   3.154
 3510TIP3   OH210535   5.878   0.152   0.611
 3510TIP3    H110536   5.799   0.180   0.658
 3510TIP3    H210537   5.846   0.126   0.525
 3511TIP3   OH210538   1.447   1.372   3.812
 3511TIP3    H110539   1.454   1.418   3.729
 3511TIP3    H210540   1.517   1.307   3.809
 3512TIP3   OH210541   3.126   2.840   4.095
 3512TIP3    H110542   3.071   2.907   4.054
 3512TIP3    H210543   3.068   2.795   4.156
 3513TIP3   OH210544   3.729   0.788   2.316
 3513TIP3    H110545   3.783   0.846   2.369
 3513TIP3    H210546   3.775   0.704   2.319
 3514TIP3   OH210547   1.460   1.636   0.684
 3514TIP3    H110548   1.389   1.684   0.641
 3514TIP3    H210549   1.517   1.609   0.612
 3515TIP3   OH210550   1.703   3.275   1.416
 3515TIP3    H110551   1.700   3.329   1.496
 3515TIP3    H210552   1.617   3.286   1.377
 3516TIP3   OH210553   3.435   1.047   3.850
 3516TIP3    H110554   3.492   1.050   3.773
 3516TIP3    H210555   3.450   0.960   3.887
 3517TIP3   OH210556   5.237   5.152   4.541
 3517TIP3    H110557   5.282   5.142   4.625
 3517TIP3    H210558   5.281   5.091   4.483
 3518TIP3   OH210559   0.588   0.475   3.132
 3518TIP3    H110560   0.617   0.534   3.063
 3518TIP3    H210561   0.669   0.451   3.178
 3519TIP3   OH210562   4.690   3.050   1.472
 3519TIP3    H110563   4.662   3.084   1.387
 3519TIP3    H210564   4.777   3.013   1.455
 3520TIP3   OH210565   2.110   1.604   1.308
 3520TIP3    H110566   2.193   1.601   1.261
 3520TIP3    H210567   2.130   1.572   1.396
 3521TIP3   OH210568   0.940   0.007   4.533
 3521TIP3    H110569   0.947  -0.086   4.511
 3521TIP3    H210570   1.024   0.029   4.572
 3522TIP3   OH210571   2.428   5.822   1.743
 3522TIP3    H110572   2.490   5.764   1.700
 3522TIP3    H210573   2.479   5.867   1.811
 3523TIP3   OH210574   4.143   0.407   4.998
 3523TIP3    H110575   4.142   0.386   4.905
 3523TIP3    H210576   4.053   0.435   5.017
 3524TIP3   OH210577   5.285   2.052   3.818
 3524TIP3    H110578   5.213   2.114   3.833
 3524TIP3    H210579   5.272   1.985   3.885
 3525TIP3   OH210580   4.282   2.895   3.868
 3525TIP3    H110581   4.248   2.919   3.954
 3525TIP3    H210582   4.316   2.806   3.880
 3526TIP3   OH210583   1.646   3.826   1.344
 3526TIP3    H110584   1.582   3.869   1.402
 3526TIP3    H210585   1.686   3.759   1.399
 3527TIP3   OH210586   0.873   1.741   1.277
 3527TIP3    H110587   0.902   1.808   1.216
 3527TIP3    H210588   0.877   1.659   1.227
 3528TIP3   OH210589   5.166   0.908   1.543
 3528TIP3    H110590   5.174   0.883   1.635
 3528TIP3    H210591   5.200   0.833   1.494
 3529TIP3   OH210592   4.409   1.050   3.267
 3529TIP3    H110593   4.490   1.046   3.216
 3529TIP3    H210594   4.365   1.129   3.236
 3530TIP3   OH210595   1.318   0.388   0.592
 3530TIP3    H110596   1.327   0.294   0.577
 3530TIP3    H210597   1.361   0.403   0.675
 3531TIP3   OH210598   5.913   0.100   3.564
 3531TIP3    H110599   5.893   0.157   3.638
 3531TIP3    H210600   5.827   0.078   3.527
 3532TIP3   OH210601   2.154   3.861   3.497
 3532TIP3    H110602   2.072   3.826   3.465
 3532TIP3    H210603   2.154   3.842   3.591
 3533TIP3   OH210604   5.398   5.665   2.964
 3533TIP3    H110605   5.403   5.721   3.041
 3533TIP3    H210606   5.428   5.579   2.995
 3534TIP3   OH210607   6.333   3.475   2.760
 3534TIP3    H110608   6.298   3.386   2.757
 3534TIP3    H210609   6.282   3.518   2.829
 3535TIP3   OH210610   2.791   2.715   2.129
 3535TIP3    H110611   2.856   2.650   2.103
 3535TIP3    H210612   2.823   2.748   2.213
 3536TIP3   OH210613   1.438   0.711   4.745
 3536TIP3    H110614   1.374   0.640   4.758
 3536TIP3    H210615   1.501   0.700   4.817
 3537TIP3   OH210616   6.278   3.827   2.632
 3537TIP3    H110617   6.202   3.870   2.592
 3537TIP3    H210618   6.300   3.756   2.572
 3538TIP3   OH210619   5.561   1.902   4.827
 3538TIP3    H110620   5.470   1.928   4.814
 3538TIP3    H210621   5.556   1.808   4.849
 3539TIP3   OH210622   3.300   5.629   0.230
 3539TIP3    H110623   3.279   5.621   0.323
 3539TIP3    H210624   3.394   5.612   0.225
 3540TIP3   OH210625   3.202   4.583   0.966
 3540TIP3    H110626   3.285   4.608   0.927
 3540TIP3    H210627   3.192   4.639   1.042
 3541TIP3   OH210628   2.398   2.775   3.196
 3541TIP3    H110629   2.486   2.804   3.171
 3541TIP3    H210630   2.347   2.855   3.201
 3542TIP3   OH210631   3.585   5.692   5.027
 3542TIP3    H110632   3.512   5.751   5.044
 3542TIP3    H210633   3.543   5.612   4.992
 3543TIP3   OH210634   4.172   1.889   2.584
 3543TIP3    H110635   4.116   1.859   2.656
 3543TIP3    H210636   4.197   1.977   2.609
 3544TIP3   OH210637   1.369   3.359   5.155
 3544TIP3    H110638   1.460   3.331   5.142
 3544TIP3    H210639   1.333   3.367   5.067
 3545TIP3   OH210640   6.053   5.931   4.736
 3545TIP3    H110641   6.030   6.019   4.763
 3545TIP3    H210642   5.970   5.883   4.739
 3546TIP3   OH210643   6.028   5.884   3.337
 3546TIP3    H110644   6.007   5.947   3.268
 3546TIP3    H210645   5.954   5.891   3.398
 3547TIP3   OH210646   5.534   4.630   3.873
 3547TIP3    H110647   5.571   4.608   3.788
 3547TIP3    H210648   5.543   4.550   3.925
 3548TIP3   OH210649   3.964   2.323   4.115
 3548TIP3    H110650   3.958   2.241   4.067
 3548TIP3    H210651   4.034   2.308   4.179
 3549TIP3   OH210652   4.939   4.435   3.262
 3549TIP3    H110653   5.016   4.481   3.295
 3549TIP3    H210654   4.939   4.453   3.168
 3550TIP3   OH210655   2.292   5.170   0.724
 3550TIP3    H110656   2.295   5.184   0.818
 3550TIP3    H210657   2.384   5.162   0.698
 3551TIP3   OH210658   4.450   3.818   1.565
 3551TIP3    H110659   4.414   3.810   1.477
 3551TIP3    H210660   4.373   3.825   1.622
 3552TIP3   OH210661   0.177   3.212   0.499
 3552TIP3    H110662   0.110   3.272   0.531
 3552TIP3    H210663   0.259   3.259   0.513
 3553TIP3   OH210664   6.219   1.563   2.981
 3553TIP3    H110665   6.131   1.590   2.952
 3553TIP3    H210666   6.232   1.478   2.940
 3554TIP3   OH210667   2.254   2.609   3.498
 3554TIP3    H110668   2.347   2.624   3.511
 3554TIP3    H210669   2.222   2.577   3.583
 3555TIP3   OH210670   6.133   1.099   5.154
 3555TIP3    H110671   6.199   1.168   5.146
 3555TIP3    H210672   6.174   1.022   5.115
 3556TIP3   OH210673   0.602   1.197   1.219
 3556TIP3    H110674   0.694   1.172   1.232
 3556TIP3    H210675   0.563   1.122   1.174
 3557TIP3   OH210676   5.959   4.481   2.244
 3557TIP3    H110677   5.894   4.458   2.311
 3557TIP3    H210678   5.914   4.541   2.185
 3558TIP3   OH210679   1.524   3.960   4.641
 3558TIP3    H110680   1.574   4.042   4.632
 3558TIP3    H210681   1.462   3.961   4.569
 3559TIP3   OH210682   5.811   2.798   3.683
 3559TIP3    H110683   5.903   2.780   3.703
 3559TIP3    H210684   5.802   2.892   3.695
 3560TIP3   OH210685   4.276   3.447   4.178
 3560TIP3    H110686   4.302   3.360   4.147
 3560TIP3    H210687   4.310   3.451   4.268
 3561TIP3   OH210688   5.464   4.012   3.605
 3561TIP3    H110689   5.541   3.956   3.590
 3561TIP3    H210690   5.476   4.045   3.694
 3562TIP3   OH210691   2.629   4.397   5.009
 3562TIP3    H110692   2.552   4.342   5.017
 3562TIP3    H210693   2.703   4.339   5.027
 3563TIP3   OH210694   5.694   0.973   1.856
 3563TIP3    H110695   5.690   1.024   1.775
 3563TIP3    H210696   5.779   0.929   1.852
 3564TIP3   OH210697   4.643   2.585   1.128
 3564TIP3    H110698   4.581   2.642   1.082
 3564TIP3    H210699   4.677   2.640   1.199
 3565TIP3   OH210700   2.119   5.367   0.086
 3565TIP3    H110701   2.066   5.348   0.008
 3565TIP3    H210702   2.140   5.281   0.122
 3566TIP3   OH210703   1.381   2.248   1.733
 3566TIP3    H110704   1.295   2.259   1.774
 3566TIP3    H210705   1.420   2.335   1.736
 3567TIP3   OH210706   5.660   3.652   5.236
 3567TIP3    H110707   5.724   3.584   5.256
 3567TIP3    H210708   5.633   3.635   5.146
 3568TIP3   OH210709   0.567   4.801   1.633
 3568TIP3    H110710   0.657   4.834   1.636
 3568TIP3    H210711   0.513   4.878   1.649
 3569TIP3   OH210712   0.453   1.466   0.865
 3569TIP3    H110713   0.448   1.506   0.778
 3569TIP3    H210714   0.547   1.452   0.880
 3570TIP3   OH210715   2.122   5.043   3.102
 3570TIP3    H110716   2.211   5.074   3.083
 3570TIP3    H210717   2.070   5.123   3.108
 3571TIP3   OH210718   5.865   2.186   0.707
 3571TIP3    H110719   5.957   2.175   0.682
 3571TIP3    H210720   5.865   2.263   0.764
 3572TIP3   OH210721   3.467   1.842   2.784
 3572TIP3    H110722   3.384   1.817   2.745
 3572TIP3    H210723   3.533   1.794   2.734
 3573TIP3   OH210724   5.627   4.717   3.564
 3573TIP3    H110725   5.664   4.664   3.634
 3573TIP3    H210726   5.578   4.655   3.510
 3574TIP3   OH210727   1.855   4.428   1.109
 3574TIP3    H110728   1.771   4.383   1.107
 3574TIP3    H210729   1.837   4.510   1.155
 3575TIP3   OH210730   1.386   3.508   1.476
 3575TIP3    H110731   1.323   3.445   1.512
 3575TIP3    H210732   1.414   3.470   1.393
 3576TIP3   OH210733   0.529   0.218   3.030
 3576TIP3    H110734   0.437   0.216   3.004
 3576TIP3    H210735   0.540   0.304   3.069
 3577TIP3   OH210736   2.862   3.032   0.595
 3577TIP3    H110737   2.848   3.072   0.681
 3577TIP3    H210738   2.869   3.106   0.535
 3578TIP3   OH210739   0.087   2.969   0.018
 3578TIP3    H110740   0.058   3.060   0.014
 3578TIP3    H210741   0.083   2.946   0.111
 3579TIP3   OH210742   5.692   3.397   4.310
 3579TIP3    H110743   5.712   3.306   4.332
 3579TIP3    H210744   5.611   3.416   4.357
 3580TIP3   OH210745   2.524   2.397   2.975
 3580TIP3    H110746   2.603   2.423   2.928
 3580TIP3    H210747   2.551   2.320   3.025
 3581TIP3   OH210748   0.098   0.597   2.823
 3581TIP3    H110749   0.148   0.550   2.889
 3581TIP3    H210750   0.147   0.586   2.742
 3582TIP3   OH210751   3.270   4.502   4.321
 3582TIP3    H110752   3.317   4.529   4.242
 3582TIP3    H210753   3.319   4.542   4.393
 3583TIP3   OH210754   3.928   2.394   1.288
 3583TIP3    H110755   3.933   2.489   1.297
 3583TIP3    H210756   3.999   2.372   1.228
 3584TIP3   OH210757   5.765   3.380   2.333
 3584TIP3    H110758   5.836   3.404   2.273
 3584TIP3    H210759   5.800   3.400   2.420
 3585TIP3   OH210760   1.502   2.213   3.373
 3585TIP3    H110761   1.410   2.241   3.366
 3585TIP3    H210762   1.502   2.122   3.344
 3586TIP3   OH210763   3.207   0.315   0.837
 3586TIP3    H110764   3.200   0.238   0.894
 3586TIP3    H210765   3.277   0.293   0.776
 3587TIP3   OH210766   0.617   2.499   3.205
 3587TIP3    H110767   0.622   2.588   3.170
 3587TIP3    H210768   0.634   2.509   3.298
 3588TIP3   OH210769   0.783   3.369   2.088
 3588TIP3    H110770   0.797   3.366   1.993
 3588TIP3    H210771   0.850   3.311   2.124
 3589TIP3   OH210772   3.824   2.736   1.124
 3589TIP3    H110773   3.913   2.755   1.097
 3589TIP3    H210774   3.832   2.706   1.215
 3590TIP3   OH210775   4.853   1.841   2.209
 3590TIP3    H110776   4.856   1.790   2.128
 3590TIP3    H210777   4.938   1.883   2.214
 3591TIP3   OH210778   5.565   1.864   5.277
 3591TIP3    H110779   5.605   1.923   5.212
 3591TIP3    H210780   5.497   1.917   5.318
 3592TIP3   OH210781   3.751   5.899   0.953
 3592TIP3    H110782   3.788   5.819   0.915
 3592TIP3    H210783   3.710   5.870   1.034
 3593TIP3   OH210784   5.499   3.529   2.523
 3593TIP3    H110785   5.505   3.483   2.439
 3593TIP3    H210786   5.513   3.621   2.501
 3594TIP3   OH210787   2.652   2.796   2.813
 3594TIP3    H110788   2.735   2.836   2.788
 3594TIP3    H210789   2.645   2.718   2.757
 3595TIP3   OH210790   4.940   0.665   4.963
 3595TIP3    H110791   4.848   0.676   4.941
 3595TIP3    H210792   4.946   0.688   5.056
 3596TIP3   OH210793   5.425   4.076   0.700
 3596TIP3    H110794   5.435   4.142   0.769
 3596TIP3    H210795   5.490   4.009   0.722
 3597TIP3   OH210796   0.507   3.538   3.911
 3597TIP3    H110797   0.509   3.520   4.005
 3597TIP3    H210798   0.416   3.559   3.892
 3598TIP3   OH210799   1.018   3.546   4.879
 3598TIP3    H110800   1.077   3.563   4.806
 3598TIP3    H210801   1.016   3.628   4.929
 3599TIP3   OH210802   6.345   5.516   1.769
 3599TIP3    H110803   6.255   5.518   1.735
 3599TIP3    H210804   6.360   5.424   1.791
 3600TIP3   OH210805  -0.031   4.978   2.219
 3600TIP3    H110806   0.058   5.012   2.230
 3600TIP3    H210807  -0.035   4.902   2.278
 3601TIP3   OH210808   0.186   2.922   1.567
 3601TIP3    H110809   0.164   2.988   1.633
 3601TIP3    H210810   0.101   2.897   1.530
 3602TIP3   OH210811   5.862   4.463   0.959
 3602TIP3    H110812   5.902   4.549   0.971
 3602TIP3    H210813   5.808   4.450   1.037
 3603TIP3   OH210814   6.146   4.221   5.183
 3603TIP3    H110815   6.174   4.199   5.094
 3603TIP3    H210816   6.101   4.305   5.174
 3604TIP3   OH210817   1.762   3.344   1.878
 3604TIP3    H110818   1.786   3.434   1.896
 3604TIP3    H210819   1.828   3.291   1.923
 3605TIP3   OH210820   0.921   5.552   2.182
 3605TIP3    H110821   0.891   5.543   2.272
 3605TIP3    H210822   0.959   5.640   2.178
 3606TIP3   OH210823   5.955   0.751   1.472
 3606TIP3    H110824   5.990   0.746   1.561
 3606TIP3    H210825   5.949   0.660   1.443
 3607TIP3   OH210826   1.543   4.414   2.415
 3607TIP3    H110827   1.570   4.505   2.399
 3607TIP3    H210828   1.462   4.422   2.466
 3608TIP3   OH210829   0.037   1.882   1.038
 3608TIP3    H110830   0.090   1.950   0.995
 3608TIP3    H210831  -0.033   1.863   0.976
 3609TIP3   OH210832   0.946   0.311   1.748
 3609TIP3    H110833   0.936   0.334   1.841
 3609TIP3    H210834   0.856   0.303   1.716
 3610TIP3   OH210835   1.962   4.928   1.991
 3610TIP3    H110836   1.907   4.863   1.947
 3610TIP3    H210837   2.013   4.967   1.920
 3611TIP3   OH210838   1.160   2.053   1.319
 3611TIP3    H110839   1.186   2.001   1.243
 3611TIP3    H210840   1.096   2.116   1.285
 3612TIP3   OH210841   2.730   4.569   4.335
 3612TIP3    H110842   2.709   4.477   4.321
 3612TIP3    H210843   2.823   4.576   4.314
 3613TIP3   OH210844   4.784   3.709   1.241
 3613TIP3    H110845   4.778   3.672   1.329
 3613TIP3    H210846   4.740   3.646   1.184
 3614TIP3   OH210847   3.176   5.042   2.492
 3614TIP3    H110848   3.261   5.080   2.471
 3614TIP3    H210849   3.196   4.955   2.526
 3615TIP3   OH210850   4.722   5.788   0.866
 3615TIP3    H110851   4.664   5.835   0.926
 3615TIP3    H210852   4.790   5.851   0.844
 3616TIP3   OH210853   1.113   5.294   3.932
 3616TIP3    H110854   1.198   5.251   3.922
 3616TIP3    H210855   1.051   5.222   3.944
 3617TIP3   OH210856   4.023   5.962   1.965
 3617TIP3    H110857   4.070   6.041   1.993
 3617TIP3    H210858   4.067   5.890   2.010
 3618TIP3   OH210859   4.593   4.960   0.911
 3618TIP3    H110860   4.586   5.051   0.939
 3618TIP3    H210861   4.606   4.911   0.992
 3619TIP3   OH210862   3.435   4.990   2.796
 3619TIP3    H110863   3.500   5.058   2.779
 3619TIP3    H210864   3.452   4.963   2.886
 3620TIP3   OH210865   5.069   1.389   5.114
 3620TIP3    H110866   5.151   1.437   5.121
 3620TIP3    H210867   5.002   1.456   5.101
 3621TIP3   OH210868   0.162   5.707   1.882
 3621TIP3    H110869   0.102   5.644   1.842
 3621TIP3    H210870   0.248   5.665   1.878
 3622TIP3   OH210871   2.910   4.309   2.191
 3622TIP3    H110872   2.840   4.337   2.132
 3622TIP3    H210873   2.979   4.374   2.180
 3623TIP3   OH210874   4.114   5.567   2.363
 3623TIP3    H110875   4.130   5.482   2.322
 3623TIP3    H210876   4.019   5.574   2.366
 3624TIP3   OH210877   3.772   0.471   0.371
 3624TIP3    H110878   3.734   0.440   0.453
 3624TIP3    H210879   3.750   0.404   0.307
 3625TIP3   OH210880   1.091   0.046   1.980
 3625TIP3    H110881   1.122   0.058   1.891
 3625TIP3    H210882   1.143   0.106   2.033
 3626TIP3   OH210883   2.298   5.789   0.333
 3626TIP3    H110884   2.267   5.786   0.424
 3626TIP3    H210885   2.347   5.871   0.327
 3627TIP3   OH210886   2.473   5.534   3.611
 3627TIP3    H110887   2.475   5.615   3.560
 3627TIP3    H210888   2.422   5.557   3.690
 3628TIP3   OH210889   4.591   4.227   0.405
 3628TIP3    H110890   4.527   4.253   0.471
 3628TIP3    H210891   4.556   4.145   0.368
 3629TIP3   OH210892   1.523   1.060   0.158
 3629TIP3    H110893   1.544   1.148   0.127
 3629TIP3    H210894   1.528   1.066   0.253
 3630TIP3   OH210895   1.674   1.616   4.366
 3630TIP3    H110896   1.716   1.700   4.387
 3630TIP3    H210897   1.589   1.620   4.409
 3631TIP3   OH210898   2.321   2.013   2.903
 3631TIP3    H110899   2.303   2.026   2.810
 3631TIP3    H210900   2.301   2.097   2.944
 3632TIP3   OH210901   2.444   5.636   4.069
 3632TIP3    H110902   2.455   5.731   4.076
 3632TIP3    H210903   2.519   5.599   4.116
 3633TIP3   OH210904   1.297   3.879   4.752
 3633TIP3    H110905   1.260   3.832   4.678
 3633TIP3    H210906   1.373   3.924   4.716
 3634TIP3   OH210907   5.495   0.867   1.203
 3634TIP3    H110908   5.548   0.830   1.133
 3634TIP3    H210909   5.436   0.795   1.228
 3635TIP3   OH210910   0.183   0.185   3.524
 3635TIP3    H110911   0.217   0.257   3.471
 3635TIP3    H210912   0.242   0.112   3.505
 3636TIP3   OH210913   3.439   4.308   1.543
 3636TIP3    H110914   3.365   4.360   1.575
 3636TIP3    H210915   3.432   4.225   1.591
 3637TIP3   OH210916   3.754   1.469   0.751
 3637TIP3    H110917   3.802   1.482   0.832
 3637TIP3    H210918   3.717   1.381   0.758
 3638TIP3   OH210919   0.437   4.656   3.282
 3638TIP3    H110920   0.432   4.636   3.375
 3638TIP3    H210921   0.512   4.715   3.274
 3639TIP3   OH210922   4.367  -0.002   2.793
 3639TIP3    H110923   4.452   0.035   2.771
 3639TIP3    H210924   4.307   0.072   2.792
 3640TIP3   OH210925   3.695   5.936   3.291
 3640TIP3    H110926   3.742   5.856   3.314
 3640TIP3    H210927   3.763   5.995   3.258
 3641TIP3   OH210928   1.380   1.383   1.859
 3641TIP3    H110929   1.363   1.364   1.767
 3641TIP3    H210930   1.385   1.297   1.901
 3642TIP3   OH210931   1.273   4.323   0.019
 3642TIP3    H110932   1.298   4.232   0.038
 3642TIP3    H210933   1.347   4.375   0.050
 3643TIP3   OH210934   5.142   5.293   4.318
 3643TIP3    H110935   5.187   5.246   4.388
 3643TIP3    H210936   5.054   5.308   4.352
 3644TIP3   OH210937   1.467   3.681   2.853
 3644TIP3    H110938   1.374   3.682   2.877
 3644TIP3    H210939   1.467   3.702   2.759
 3645TIP3   OH210940   1.175   3.221   0.088
 3645TIP3    H110941   1.131   3.152   0.139
 3645TIP3    H210942   1.260   3.183   0.065
 3646TIP3   OH210943   1.469   1.098   3.944
 3646TIP3    H110944   1.491   1.028   4.005
 3646TIP3    H210945   1.550   1.116   3.897
 3647TIP3   OH210946   5.715   2.369   4.655
 3647TIP3    H110947   5.749   2.440   4.710
 3647TIP3    H210948   5.765   2.292   4.683
 3648TIP3   OH210949   3.007   3.645   4.003
 3648TIP3    H110950   2.966   3.559   4.002
 3648TIP3    H210951   3.000   3.674   4.094
 3649TIP3   OH210952   4.049   2.903   5.044
 3649TIP3    H110953   4.122   2.951   5.005
 3649TIP3    H210954   4.058   2.918   5.138
 3650TIP3   OH210955   5.056   4.466   0.896
 3650TIP3    H110956   5.003   4.389   0.875
 3650TIP3    H210957   5.145   4.442   0.871
 3651TIP3   OH210958   1.418   5.797   4.978
 3651TIP3    H110959   1.487   5.855   4.945
 3651TIP3    H210960   1.465   5.726   5.021
 3652TIP3   OH210961   1.578   1.939   3.649
 3652TIP3    H110962   1.495   1.922   3.692
 3652TIP3    H210963   1.609   1.853   3.619
 3653TIP3   OH210964   5.778   4.955   1.093
 3653TIP3    H110965   5.712   4.932   1.028
 3653TIP3    H210966   5.788   5.050   1.084
 3654TIP3   OH210967   2.296   2.808   4.208
 3654TIP3    H110968   2.205   2.837   4.214
 3654TIP3    H210969   2.298   2.725   4.254
 3655TIP3   OH210970   1.974   4.793   2.647
 3655TIP3    H110971   1.964   4.807   2.741
 3655TIP3    H210972   1.953   4.878   2.607
 3656TIP3   OH210973   6.174   2.146   1.062
 3656TIP3    H110974   6.259   2.175   1.029
 3656TIP3    H210975   6.193   2.105   1.146
 3657TIP3   OH210976   4.284   2.535   1.929
 3657TIP3    H110977   4.205   2.521   1.981
 3657TIP3    H210978   4.349   2.477   1.969
 3658TIP3   OH210979   2.569   3.128   5.152
 3658TIP3    H110980   2.478   3.156   5.161
 3658TIP3    H210981   2.569   3.071   5.075
 3659TIP3   OH210982   6.132   0.616   0.257
 3659TIP3    H110983   6.204   0.598   0.316
 3659TIP3    H210984   6.165   0.594   0.170
 3660TIP3   OH210985   3.546   0.882   5.110
 3660TIP3    H110986   3.577   0.816   5.172
 3660TIP3    H210987   3.580   0.965   5.145
 3661TIP3   OH210988   5.576   2.723   5.003
 3661TIP3    H110989   5.485   2.739   4.980
 3661TIP3    H210990   5.573   2.698   5.096
 3662TIP3   OH210991   0.389   1.772   3.853
 3662TIP3    H110992   0.349   1.693   3.889
 3662TIP3    H210993   0.420   1.820   3.929
 3663TIP3   OH210994   4.606   1.435   3.374
 3663TIP3    H110995   4.634   1.453   3.284
 3663TIP3    H210996   4.668   1.369   3.405
 3664TIP3   OH210997   3.234   2.993   2.760
 3664TIP3    H110998   3.196   3.032   2.682
 3664TIP3    H210999   3.264   2.907   2.732
 3665TIP3   OH211000   4.486   2.331   2.009
 3665TIP3    H111001   4.549   2.318   2.080
 3665TIP3    H211002   4.539   2.349   1.932
 3666TIP3   OH211003   1.830   4.911   1.028
 3666TIP3    H111004   1.891   4.903   0.955
 3666TIP3    H211005   1.859   4.844   1.091
 3667TIP3   OH211006   2.616   1.570   0.108
 3667TIP3    H111007   2.615   1.619   0.026
 3667TIP3    H211008   2.709   1.565   0.132
 3668TIP3   OH211009   4.752   2.067   2.094
 3668TIP3    H111010   4.705   2.023   2.023
 3668TIP3    H211011   4.776   1.997   2.154
 3669TIP3   OH211012   3.066   4.670   0.571
 3669TIP3    H111013   3.060   4.746   0.628
 3669TIP3    H211014   3.104   4.704   0.490
 3670TIP3   OH211015   5.217   4.662   2.333
 3670TIP3    H111016   5.242   4.570   2.344
 3670TIP3    H211017   5.269   4.693   2.260
 3671TIP3   OH211018   4.263   1.778   3.903
 3671TIP3    H111019   4.321   1.772   3.978
 3671TIP3    H211020   4.233   1.869   3.903
 3672TIP3   OH211021   1.151   2.468   3.192
 3672TIP3    H111022   1.183   2.415   3.265
 3672TIP3    H211023   1.206   2.546   3.191
 3673TIP3   OH211024   4.668   2.563   0.270
 3673TIP3    H111025   4.726   2.562   0.347
 3673TIP3    H211026   4.584   2.593   0.304
 3674TIP3   OH211027   3.946   4.638   1.786
 3674TIP3    H111028   3.937   4.606   1.876
 3674TIP3    H211029   3.862   4.616   1.745
 3675TIP3   OH211030   5.797   3.343   3.979
 3675TIP3    H111031   5.817   3.360   3.888
 3675TIP3    H211032   5.737   3.414   4.004
 3676TIP3   OH211033   5.254   2.895   2.625
 3676TIP3    H111034   5.255   2.944   2.707
 3676TIP3    H211035   5.173   2.844   2.629
 3677TIP3   OH211036   5.085   3.013   4.038
 3677TIP3    H111037   5.163   3.015   4.094
 3677TIP3    H211038   5.085   2.924   4.002
 3678TIP3   OH211039   1.220   0.894   4.742
 3678TIP3    H111040   1.170   0.845   4.676
 3678TIP3    H211041   1.302   0.846   4.752
 3679TIP3   OH211042   4.679   1.058   2.362
 3679TIP3    H111043   4.688   1.148   2.393
 3679TIP3    H211044   4.606   1.023   2.412
 3680TIP3   OH211045   3.612   5.911   3.794
 3680TIP3    H111046   3.535   5.966   3.784
 3680TIP3    H211047   3.638   5.888   3.704
 3681TIP3   OH211048   1.793   2.344   3.810
 3681TIP3    H111049   1.753   2.284   3.747
 3681TIP3    H211050   1.789   2.297   3.893
 3682TIP3   OH211051   1.715   1.917   3.328
 3682TIP3    H111052   1.735   1.842   3.383
 3682TIP3    H211053   1.623   1.907   3.305
 3683TIP3   OH211054   1.341   0.486   3.338
 3683TIP3    H111055   1.342   0.554   3.270
 3683TIP3    H211056   1.276   0.517   3.401
 3684TIP3   OH211057   1.427   1.357   1.574
 3684TIP3    H111058   1.381   1.276   1.551
 3684TIP3    H211059   1.421   1.411   1.496
 3685TIP3   OH211060   4.366   1.140   4.572
 3685TIP3    H111061   4.424   1.205   4.534
 3685TIP3    H211062   4.313   1.109   4.499
 3686TIP3   OH211063   4.142   2.966   4.298
 3686TIP3    H111064   4.203   2.896   4.323
 3686TIP3    H211065   4.138   3.022   4.375
 3687TIP3   OH211066   0.087   2.183   4.644
 3687TIP3    H111067   0.159   2.123   4.661
 3687TIP3    H211068   0.130   2.266   4.620
 3688TIP3   OH211069   0.888   5.693   1.176
 3688TIP3    H111070   0.793   5.704   1.183
 3688TIP3    H211071   0.924   5.768   1.223
 3689TIP3   OH211072   5.315   2.059   4.815
 3689TIP3    H111073   5.257   2.115   4.762
 3689TIP3    H211074   5.329   2.109   4.895
 3690TIP3   OH211075   2.714   2.285   1.224
 3690TIP3    H111076   2.738   2.234   1.302
 3690TIP3    H211077   2.619   2.281   1.221
 3691TIP3   OH211078   4.521   4.102   2.786
 3691TIP3    H111079   4.532   4.025   2.842
 3691TIP3    H211080   4.492   4.171   2.846
 3692TIP3   OH211081   5.445   3.178   3.107
 3692TIP3    H111082   5.420   3.172   3.200
 3692TIP3    H211083   5.505   3.253   3.104
 3693TIP3   OH211084   5.579   2.172   2.882
 3693TIP3    H111085   5.542   2.259   2.875
 3693TIP3    H211086   5.582   2.140   2.792
 3694TIP3   OH211087   2.939   2.788   5.118
 3694TIP3    H111088   2.847   2.807   5.104
 3694TIP3    H211089   2.967   2.849   5.187
 3695TIP3   OH211090   1.522   0.696   4.284
 3695TIP3    H111091   1.590   0.633   4.303
 3695TIP3    H211092   1.566   0.765   4.234
 3696TIP3   OH211093   0.633   5.061   1.506
 3696TIP3    H111094   0.538   5.059   1.518
 3696TIP3    H211095   0.649   5.137   1.451
 3697TIP3   OH211096   3.736   3.745   2.549
 3697TIP3    H111097   3.733   3.840   2.538
 3697TIP3    H211098   3.818   3.720   2.506
 3698TIP3   OH211099   2.139   2.406   0.646
 3698TIP3    H111100   2.137   2.314   0.672
 3698TIP3    H211101   2.171   2.452   0.723
 3699TIP3   OH211102   4.316   2.526   3.202
 3699TIP3    H111103   4.300   2.615   3.234
 3699TIP3    H211104   4.295   2.530   3.109
 3700TIP3   OH211105   2.093   3.141   0.205
 3700TIP3    H111106   2.035   3.215   0.222
 3700TIP3    H211107   2.127   3.156   0.117
 3701TIP3   OH211108   4.486   0.134   4.266
 3701TIP3    H111109   4.422   0.202   4.246
 3701TIP3    H211110   4.517   0.155   4.354
 3702TIP3   OH211111   1.391   1.505   3.098
 3702TIP3    H111112   1.399   1.579   3.037
 3702TIP3    H211113   1.340   1.440   3.049
 3703TIP3   OH211114   4.937   2.935   4.262
 3703TIP3    H111115   4.995   2.954   4.336
 3703TIP3    H211116   4.981   2.975   4.187
 3704TIP3   OH211117   0.850   5.201   2.621
 3704TIP3    H111118   0.780   5.137   2.627
 3704TIP3    H211119   0.809   5.278   2.582
 3705TIP3   OH211120   3.779   0.754   2.904
 3705TIP3    H111121   3.782   0.847   2.923
 3705TIP3    H211122   3.787   0.748   2.809
 3706TIP3   OH211123   0.112   2.298   1.344
 3706TIP3    H111124   0.100   2.281   1.251
 3706TIP3    H211125   0.127   2.212   1.383
 3707TIP3   OH211126   3.830   4.414   4.949
 3707TIP3    H111127   3.859   4.474   5.018
 3707TIP3    H211128   3.882   4.335   4.964
 3708TIP3   OH211129   4.784   3.944   4.500
 3708TIP3    H111130   4.754   4.031   4.472
 3708TIP3    H211131   4.863   3.962   4.552
 3709TIP3   OH211132   4.628   2.330   4.163
 3709TIP3    H111133   4.591   2.313   4.250
 3709TIP3    H211134   4.706   2.275   4.159
 3710TIP3   OH211135   3.316   5.493   3.644
 3710TIP3    H111136   3.262   5.463   3.571
 3710TIP3    H211137   3.278   5.577   3.669
 3711TIP3   OH211138   3.096   1.624   2.003
 3711TIP3    H111139   3.067   1.627   2.094
 3711TIP3    H211140   3.129   1.712   1.985
 3712TIP3   OH211141   3.336   2.978   3.390
 3712TIP3    H111142   3.269   2.912   3.409
 3712TIP3    H211143   3.291   3.062   3.401
 3713TIP3   OH211144   5.757   4.257   4.233
 3713TIP3    H111145   5.764   4.352   4.247
 3713TIP3    H211146   5.756   4.221   4.321
 3714TIP3   OH211147   5.031   0.152   4.852
 3714TIP3    H111148   5.010   0.085   4.788
 3714TIP3    H211149   4.992   0.232   4.817
 3715TIP3   OH211150   0.668   3.719   3.752
 3715TIP3    H111151   0.611   3.696   3.825
 3715TIP3    H211152   0.635   3.804   3.721
 3716TIP3   OH211153   6.053   3.015   5.014
 3716TIP3    H111154   6.106   2.979   4.942
 3716TIP3    H211155   5.978   2.956   5.020
 3717TIP3   OH211156   4.051   5.309   5.115
 3717TIP3    H111157   4.106   5.257   5.056
 3717TIP3    H211158   4.113   5.345   5.179
 3718TIP3   OH211159   3.161   2.181   0.779
 3718TIP3    H111160   3.231   2.247   0.784
 3718TIP3    H211161   3.113   2.205   0.700
 3719TIP3   OH211162   1.374   1.410   1.327
 3719TIP3    H111163   1.414   1.479   1.273
 3719TIP3    H211164   1.284   1.441   1.340
 3720TIP3   OH211165   2.250   2.000   3.657
 3720TIP3    H111166   2.325   2.059   3.654
 3720TIP3    H211167   2.230   1.983   3.565
 3721TIP3   OH211168   1.270   1.460   2.561
 3721TIP3    H111169   1.258   1.547   2.523
 3721TIP3    H211170   1.192   1.447   2.615
 3722TIP3   OH211171   0.238   5.680   2.421
 3722TIP3    H111172   0.242   5.764   2.375
 3722TIP3    H211173   0.189   5.623   2.361
 3723TIP3   OH211174   3.773   3.007   0.967
 3723TIP3    H111175   3.818   2.937   1.014
 3723TIP3    H211176   3.816   3.010   0.882
 3724TIP3   OH211177   1.902   3.331   0.266
 3724TIP3    H111178   1.872   3.393   0.200
 3724TIP3    H211179   1.821   3.301   0.309
 3725TIP3   OH211180   2.628   3.155   3.151
 3725TIP3    H111181   2.695   3.125   3.090
 3725TIP3    H211182   2.628   3.250   3.142
 3726TIP3   OH211183   2.820   1.977   0.335
 3726TIP3    H111184   2.861   1.925   0.266
 3726TIP3    H211185   2.793   2.057   0.291
 3727TIP3   OH211186   3.014   1.290   0.203
 3727TIP3    H111187   3.108   1.275   0.195
 3727TIP3    H211188   2.977   1.203   0.217
 3728TIP3   OH211189   1.217   1.971   4.735
 3728TIP3    H111190   1.245   1.986   4.826
 3728TIP3    H211191   1.138   1.917   4.743
 3729TIP3   OH211192   1.546   1.787   1.421
 3729TIP3    H111193   1.457   1.769   1.450
 3729TIP3    H211194   1.537   1.857   1.357
 3730TIP3   OH211195   2.027   5.863   0.640
 3730TIP3    H111196   1.982   5.948   0.635
 3730TIP3    H211197   2.041   5.850   0.734
 3731TIP3   OH211198   2.943   5.817   3.013
 3731TIP3    H111199   2.898   5.747   3.060
 3731TIP3    H211200   2.879   5.887   3.006
 3732TIP3   OH211201   1.403   3.775   0.241
 3732TIP3    H111202   1.366   3.687   0.244
 3732TIP3    H211203   1.429   3.794   0.331
 3733TIP3   OH211204   1.289   1.750   1.492
 3733TIP3    H111205   1.271   1.841   1.514
 3733TIP3    H211206   1.249   1.700   1.563
 3734TIP3   OH211207   4.709   3.545   3.938
 3734TIP3    H111208   4.700   3.482   4.010
 3734TIP3    H211209   4.660   3.506   3.865
 3735TIP3   OH211210   6.044   1.312   0.702
 3735TIP3    H111211   6.071   1.323   0.611
 3735TIP3    H211212   6.071   1.223   0.725
 3736TIP3   OH211213   3.546   1.167   1.477
 3736TIP3    H111214   3.515   1.124   1.557
 3736TIP3    H211215   3.495   1.126   1.407
 3737TIP3   OH211216   2.838   5.056   3.548
 3737TIP3    H111217   2.766   5.116   3.526
 3737TIP3    H211218   2.893   5.056   3.470
 3738TIP3   OH211219  -0.006   3.236   1.343
 3738TIP3    H111220  -0.084   3.249   1.397
 3738TIP3    H211221   0.064   3.218   1.406
 3739TIP3   OH211222   3.013   5.027   2.996
 3739TIP3    H111223   3.074   4.962   3.032
 3739TIP3    H211224   2.951   4.975   2.946
 3740TIP3   OH211225   4.005   0.770   0.489
 3740TIP3    H111226   4.046   0.855   0.473
 3740TIP3    H211227   4.007   0.726   0.404
 3741TIP3   OH211228   4.770   1.235   3.411
 3741TIP3    H111229   4.808   1.233   3.323
 3741TIP3    H211230   4.751   1.144   3.431
 3742TIP3   OH211231   3.133   0.143   2.626
 3742TIP3    H111232   3.159   0.206   2.559
 3742TIP3    H211233   3.190   0.067   2.610
 3743TIP3   OH211234   4.739   0.420   0.056
 3743TIP3    H111235   4.819   0.373   0.034
 3743TIP3    H211236   4.762   0.512   0.048
 3744TIP3   OH211237   4.928   2.920   1.373
 3744TIP3    H111238   4.990   2.900   1.443
 3744TIP3    H211239   4.984   2.943   1.298
 3745TIP3   OH211240   5.210   1.869   4.001
 3745TIP3    H111241   5.257   1.830   4.075
 3745TIP3    H211242   5.163   1.797   3.961
 3746TIP3   OH211243   2.925   0.377   0.968
 3746TIP3    H111244   2.854   0.388   1.032
 3746TIP3    H211245   3.004   0.400   1.016
 3747TIP3   OH211246   2.218   0.261   0.253
 3747TIP3    H111247   2.191   0.353   0.250
 3747TIP3    H211248   2.292   0.258   0.314
 3748TIP3   OH211249   0.437   3.000   1.501
 3748TIP3    H111250   0.410   3.084   1.463
 3748TIP3    H211251   0.355   2.950   1.509
 3749TIP3   OH211252   0.862   3.375   4.241
 3749TIP3    H111253   0.873   3.401   4.150
 3749TIP3    H211254   0.946   3.337   4.266
 3750TIP3   OH211255   0.881   2.078   0.134
 3750TIP3    H111256   0.966   2.071   0.089
 3750TIP3    H211257   0.877   1.999   0.189
 3751TIP3   OH211258   0.779   2.005   0.461
 3751TIP3    H111259   0.842   1.998   0.390
 3751TIP3    H211260   0.744   2.094   0.453
 3752TIP3   OH211261   2.484   2.913   4.385
 3752TIP3    H111262   2.507   2.825   4.415
 3752TIP3    H211263   2.415   2.899   4.321
 3753TIP3   OH211264   1.175   3.996   1.836
 3753TIP3    H111265   1.129   4.054   1.896
 3753TIP3    H211266   1.132   4.010   1.751
 3754TIP3   OH211267   3.636   1.822   4.738
 3754TIP3    H111268   3.677   1.828   4.825
 3754TIP3    H211269   3.686   1.753   4.694
 3755TIP3   OH211270   6.153   0.386   3.931
 3755TIP3    H111271   6.192   0.423   3.852
 3755TIP3    H211272   6.058   0.400   3.920
 3756TIP3   OH211273   4.898   5.062   3.480
 3756TIP3    H111274   4.980   5.076   3.528
 3756TIP3    H211275   4.917   5.090   3.390
 3757TIP3   OH211276   4.344   2.077   0.231
 3757TIP3    H111277   4.332   2.038   0.318
 3757TIP3    H211278   4.379   2.164   0.249
 3758TIP3   OH211279   0.446   5.788   0.946
 3758TIP3    H111280   0.408   5.816   1.029
 3758TIP3    H211281   0.372   5.787   0.885
 3759TIP3   OH211282   0.040   3.867   4.941
 3759TIP3    H111283   0.045   3.876   5.036
 3759TIP3    H211284   0.124   3.900   4.909
 3760TIP3   OH211285   5.696   3.103   2.451
 3760TIP3    H111286   5.728   3.192   2.438
 3760TIP3    H211287   5.614   3.113   2.500
 3761TIP3   OH211288   3.679   4.639   4.831
 3761TIP3    H111289   3.714   4.565   4.881
 3761TIP3    H211290   3.647   4.700   4.898
 3762TIP3   OH211291   2.410   5.459   2.840
 3762TIP3    H111292   2.394   5.436   2.748
 3762TIP3    H211293   2.416   5.554   2.840
 3763TIP3   OH211294   3.999   5.380   2.169
 3763TIP3    H111295   4.055   5.341   2.237
 3763TIP3    H211296   3.952   5.306   2.132
 3764TIP3   OH211297   0.657   4.926   3.824
 3764TIP3    H111298   0.699   4.865   3.885
 3764TIP3    H211299   0.669   5.012   3.863
 3765TIP3   OH211300   4.946   5.703   4.952
 3765TIP3    H111301   4.893   5.624   4.960
 3765TIP3    H211302   4.886   5.770   4.918
 3766TIP3   OH211303   5.829   2.349   2.942
 3766TIP3    H111304   5.900   2.396   2.898
 3766TIP3    H211305   5.846   2.257   2.924
 3767TIP3   OH211306   5.824   2.232   1.495
 3767TIP3    H111307   5.786   2.247   1.408
 3767TIP3    H211308   5.755   2.185   1.543
 3768TIP3   OH211309   1.983   0.439   5.034
 3768TIP3    H111310   1.899   0.445   5.080
 3768TIP3    H211311   1.977   0.357   4.984
 3769TIP3   OH211312   0.002   0.502   0.364
 3769TIP3    H111313  -0.023   0.504   0.456
 3769TIP3    H211314  -0.010   0.410   0.338
 3770TIP3   OH211315   1.332   0.082   0.509
 3770TIP3    H111316   1.350  -0.010   0.491
 3770TIP3    H211317   1.273   0.108   0.438
 3771TIP3   OH211318   1.205   5.083   0.168
 3771TIP3    H111319   1.161   5.165   0.191
 3771TIP3    H211320   1.289   5.110   0.133
 3772TIP3   OH211321   5.672   5.621   0.240
 3772TIP3    H111322   5.697   5.562   0.169
 3772TIP3    H211323   5.579   5.637   0.227
 3773TIP3   OH211324   0.692   4.284   1.592
 3773TIP3    H111325   0.704   4.253   1.502
 3773TIP3    H211326   0.775   4.324   1.615
 3774TIP3   OH211327   3.480   3.153   4.532
 3774TIP3    H111328   3.570   3.179   4.554
 3774TIP3    H211329   3.426   3.228   4.560
 3775TIP3   OH211330   2.905   1.250   3.605
 3775TIP3    H111331   2.967   1.180   3.624
 3775TIP3    H211332   2.892   1.294   3.689
 3776TIP3   OH211333   0.947   4.419   1.562
 3776TIP3    H111334   1.022   4.390   1.511
 3776TIP3    H211335   0.897   4.474   1.502
 3777TIP3   OH211336   2.972   4.815   3.246
 3777TIP3    H111337   2.985   4.760   3.169
 3777TIP3    H211338   3.056   4.860   3.258
 3778TIP3   OH211339   5.096   2.700   2.907
 3778TIP3    H111340   5.032   2.684   2.838
 3778TIP3    H211341   5.045   2.732   2.981
 3779TIP3   OH211342   1.947   5.145   1.448
 3779TIP3    H111343   1.980   5.127   1.361
 3779TIP3    H211344   1.853   5.128   1.443
 3780TIP3   OH211345   1.501   4.397   0.200
 3780TIP3    H111346   1.583   4.410   0.152
 3780TIP3    H211347   1.510   4.309   0.238
 3781TIP3   OH211348   1.659   0.522   0.616
 3781TIP3    H111349   1.571   0.550   0.639
 3781TIP3    H211350   1.658   0.427   0.628
 3782TIP3   OH211351   5.628   4.656   1.772
 3782TIP3    H111352   5.675   4.605   1.838
 3782TIP3    H211353   5.680   4.645   1.693
 3783TIP3   OH211354   1.100   1.128   0.699
 3783TIP3    H111355   1.050   1.194   0.746
 3783TIP3    H211356   1.058   1.122   0.613
 3784TIP3   OH211357   5.471   5.137   0.755
 3784TIP3    H111358   5.476   5.122   0.850
 3784TIP3    H211359   5.498   5.053   0.717
 3785TIP3   OH211360   0.905   2.746   4.393
 3785TIP3    H111361   0.818   2.708   4.383
 3785TIP3    H211362   0.889   2.829   4.439
 3786TIP3   OH211363   2.954   3.337   5.042
 3786TIP3    H111364   3.012   3.262   5.040
 3786TIP3    H211365   2.903   3.326   5.122
 3787TIP3   OH211366   6.060   0.434   4.966
 3787TIP3    H111367   6.140   0.458   4.920
 3787TIP3    H211368   6.015   0.374   4.907
 3788TIP3   OH211369   0.976   1.405   4.778
 3788TIP3    H111370   0.999   1.317   4.746
 3788TIP3    H211371   0.895   1.426   4.732
 3789TIP3   OH211372   1.392   1.496   4.296
 3789TIP3    H111373   1.332   1.476   4.368
 3789TIP3    H211374   1.431   1.581   4.320
 3790TIP3   OH211375   3.313   5.712   5.093
 3790TIP3    H111376   3.223   5.680   5.087
 3790TIP3    H211377   3.332   5.714   5.186
 3791TIP3   OH211378   1.309   2.323   1.425
 3791TIP3    H111379   1.242   2.355   1.485
 3791TIP3    H211380   1.262   2.299   1.345
 3792TIP3   OH211381   3.522   1.957   0.132
 3792TIP3    H111382   3.597   1.898   0.144
 3792TIP3    H211383   3.487   1.933   0.047
 3793TIP3   OH211384   4.530   5.966   1.286
 3793TIP3    H111385   4.466   6.011   1.341
 3793TIP3    H211386   4.513   5.873   1.301
 3794TIP3   OH211387   0.065   3.451   1.965
 3794TIP3    H111388   0.154   3.445   2.001
 3794TIP3    H211389   0.076   3.502   1.885
 3795TIP3   OH211390   3.098   2.839   0.576
 3795TIP3    H111391   3.019   2.890   0.595
 3795TIP3    H211392   3.124   2.866   0.488
 3796TIP3   OH211393   2.822   2.703   2.413
 3796TIP3    H111394   2.904   2.722   2.458
 3796TIP3    H211395   2.837   2.619   2.370
 3797TIP3   OH211396   4.699   0.182   2.106
 3797TIP3    H111397   4.689   0.236   2.027
 3797TIP3    H211398   4.616   0.193   2.153
 3798TIP3   OH211399   1.422   5.467   0.275
 3798TIP3    H111400   1.388   5.399   0.334
 3798TIP3    H211401   1.469   5.419   0.208
 3799TIP3   OH211402   0.369   0.765   2.906
 3799TIP3    H111403   0.292   0.711   2.923
 3799TIP3    H211404   0.336   0.839   2.854
 3800TIP3   OH211405   4.902   3.054   3.445
 3800TIP3    H111406   4.987   3.015   3.463
 3800TIP3    H211407   4.847   3.026   3.518
 3801TIP3   OH211408   5.668   2.959   0.374
 3801TIP3    H111409   5.700   2.992   0.458
 3801TIP3    H211410   5.720   3.006   0.309
 3802TIP3   OH211411   4.618   0.199   3.758
 3802TIP3    H111412   4.699   0.245   3.739
 3802TIP3    H211413   4.551   0.267   3.756
 3803TIP3   OH211414   3.097   0.485   2.627
 3803TIP3    H111415   3.169   0.484   2.564
 3803TIP3    H211416   3.018   0.485   2.572
 3804TIP3   OH211417   2.441   2.501   3.254
 3804TIP3    H111418   2.453   2.490   3.160
 3804TIP3    H211419   2.419   2.593   3.266
 3805TIP3   OH211420   2.468   1.237   3.879
 3805TIP3    H111421   2.527   1.168   3.849
 3805TIP3    H211422   2.415   1.197   3.948
 3806TIP3   OH211423   4.716   2.901   2.016
 3806TIP3    H111424   4.627   2.866   2.013
 3806TIP3    H211425   4.717   2.956   2.095
 3807TIP3   OH211426   3.047   3.717   3.699
 3807TIP3    H111427   3.052   3.808   3.729
 3807TIP3    H211428   3.040   3.666   3.780
 3808TIP3   OH211429   2.880   3.494   2.369
 3808TIP3    H111430   2.943   3.477   2.299
 3808TIP3    H211431   2.910   3.439   2.442
 3809TIP3   OH211432   2.930   2.743   4.618
 3809TIP3    H111433   2.898   2.790   4.541
 3809TIP3    H211434   2.958   2.812   4.678
 3810TIP3   OH211435   3.922   4.944   4.676
 3810TIP3    H111436   3.857   5.004   4.713
 3810TIP3    H211437   3.902   4.942   4.582
 3811TIP3   OH211438   0.214   2.349   4.909
 3811TIP3    H111439   0.248   2.427   4.866
 3811TIP3    H211440   0.164   2.304   4.841
 3812TIP3   OH211441   1.912   1.661   1.805
 3812TIP3    H111442   1.996   1.703   1.784
 3812TIP3    H211443   1.852   1.693   1.738
 3813TIP3   OH211444   4.451   3.661   0.842
 3813TIP3    H111445   4.368   3.656   0.889
 3813TIP3    H211446   4.491   3.743   0.872
 3814TIP3   OH211447   2.868   4.097   1.421
 3814TIP3    H111448   2.884   4.115   1.329
 3814TIP3    H211449   2.923   4.021   1.441
 3815TIP3   OH211450   5.927   2.173   2.055
 3815TIP3    H111451   5.881   2.216   2.127
 3815TIP3    H211452   5.908   2.080   2.068
 3816TIP3   OH211453   0.759   2.122   3.997
 3816TIP3    H111454   0.797   2.047   4.042
 3816TIP3    H211455   0.782   2.197   4.052
 3817TIP3   OH211456   3.853   3.868   2.112
 3817TIP3    H111457   3.805   3.787   2.096
 3817TIP3    H211458   3.827   3.895   2.200
 3818TIP3   OH211459   5.163   4.359   4.808
 3818TIP3    H111460   5.223   4.347   4.881
 3818TIP3    H211461   5.096   4.291   4.821
 3819TIP3   OH211462   2.643   5.105   5.099
 3819TIP3    H111463   2.701   5.029   5.093
 3819TIP3    H211464   2.661   5.154   5.018
 3820TIP3   OH211465   0.516   4.549   2.524
 3820TIP3    H111466   0.536   4.595   2.442
 3820TIP3    H211467   0.594   4.496   2.541
 3821TIP3   OH211468   5.137   1.409   1.126
 3821TIP3    H111469   5.204   1.341   1.136
 3821TIP3    H211470   5.057   1.368   1.160
 3822TIP3   OH211471   0.088   4.741   0.180
 3822TIP3    H111472   0.101   4.783   0.265
 3822TIP3    H211473   0.014   4.787   0.142
 3823TIP3   OH211474   4.996   4.149   2.212
 3823TIP3    H111475   4.939   4.121   2.140
 3823TIP3    H211476   4.954   4.114   2.291
 3824TIP3   OH211477   5.088   3.928   2.116
 3824TIP3    H111478   5.061   4.015   2.147
 3824TIP3    H211479   5.034   3.912   2.039
 3825TIP3   OH211480   1.955   4.811   2.265
 3825TIP3    H111481   1.965   4.842   2.355
 3825TIP3    H211482   1.891   4.740   2.271
 3826TIP3   OH211483   5.781   5.238   0.982
 3826TIP3    H111484   5.688   5.213   0.982
 3826TIP3    H211485   5.813   5.210   0.896
 3827TIP3   OH211486   4.707   2.336   1.237
 3827TIP3    H111487   4.787   2.301   1.277
 3827TIP3    H211488   4.736   2.413   1.189
 3828TIP3   OH211489   0.851   4.363   4.205
 3828TIP3    H111490   0.808   4.379   4.289
 3828TIP3    H211491   0.844   4.269   4.191
 3829TIP3   OH211492   4.587   0.381   1.905
 3829TIP3    H111493   4.662   0.391   1.845
 3829TIP3    H211494   4.575   0.468   1.943
 3830TIP3   OH211495   2.099   1.156   2.252
 3830TIP3    H111496   2.064   1.174   2.339
 3830TIP3    H211497   2.032   1.189   2.192
 3831TIP3   OH211498   0.888   3.657   0.069
 3831TIP3    H111499   0.913   3.576   0.025
 3831TIP3    H211500   0.968   3.710   0.068
 3832TIP3   OH211501   0.712   0.069   5.012
 3832TIP3    H111502   0.701  -0.020   4.979
 3832TIP3    H211503   0.729   0.122   4.933
 3833TIP3   OH211504   5.077   0.138   0.189
 3833TIP3    H111505   5.019   0.189   0.245
 3833TIP3    H211506   5.115   0.202   0.128
 3834TIP3   OH211507   4.658   1.026   4.345
 3834TIP3    H111508   4.597   1.081   4.295
 3834TIP3    H211509   4.676   0.952   4.288
 3835TIP3   OH211510   4.850   2.203   4.607
 3835TIP3    H111511   4.895   2.170   4.684
 3835TIP3    H211512   4.843   2.297   4.622
 3836TIP3   OH211513   5.896   1.564   1.759
 3836TIP3    H111514   5.843   1.535   1.685
 3836TIP3    H211515   5.833   1.601   1.822
 3837TIP3   OH211516   4.520   2.246   4.405
 3837TIP3    H111517   4.429   2.254   4.376
 3837TIP3    H211518   4.526   2.157   4.440
 3838TIP3   OH211519   3.911   1.235   3.712
 3838TIP3    H111520   3.824   1.201   3.692
 3838TIP3    H211521   3.960   1.160   3.745
 3839TIP3   OH211522   6.268   3.254   0.619
 3839TIP3    H111523   6.322   3.229   0.693
 3839TIP3    H211524   6.260   3.174   0.567
 3840TIP3   OH211525   1.422   4.206   3.922
 3840TIP3    H111526   1.414   4.297   3.895
 3840TIP3    H211527   1.403   4.156   3.843
 3841TIP3   OH211528   4.803   4.023   1.960
 3841TIP3    H111529   4.711   4.035   1.936
 3841TIP3    H211530   4.811   3.929   1.975
 3842TIP3   OH211531   5.674   4.200   3.978
 3842TIP3    H111532   5.607   4.261   3.947
 3842TIP3    H211533   5.689   4.226   4.069
 3843TIP3   OH211534   4.045   2.158   0.879
 3843TIP3    H111535   3.950   2.158   0.867
 3843TIP3    H211536   4.061   2.226   0.945
 3844TIP3   OH211537   2.736   1.301   4.644
 3844TIP3    H111538   2.681   1.223   4.633
 3844TIP3    H211539   2.794   1.300   4.567
 3845TIP3   OH211540   3.633   0.254   1.471
 3845TIP3    H111541   3.710   0.278   1.522
 3845TIP3    H211542   3.580   0.334   1.470
 3846TIP3   OH211543   4.169   0.404   1.398
 3846TIP3    H111544   4.085   0.428   1.360
 3846TIP3    H211545   4.169   0.442   1.485
 3847TIP3   OH211546   1.493   4.459   0.953
 3847TIP3    H111547   1.576   4.479   0.910
 3847TIP3    H211548   1.517   4.405   1.028
 3848TIP3   OH211549   1.356   1.018   4.283
 3848TIP3    H111550   1.372   1.100   4.329
 3848TIP3    H211551   1.349   0.953   4.353
 3849TIP3   OH211552   3.933   1.493   1.456
 3849TIP3    H111553   3.978   1.547   1.521
 3849TIP3    H211554   3.905   1.415   1.504
 3850TIP3   OH211555   2.497   0.733   2.975
 3850TIP3    H111556   2.454   0.763   2.896
 3850TIP3    H211557   2.446   0.657   3.004
 3851TIP3   OH211558   2.653   0.204   4.810
 3851TIP3    H111559   2.569   0.199   4.764
 3851TIP3    H211560   2.630   0.222   4.901
 3852TIP3   OH211561   2.221   4.170   5.046
 3852TIP3    H111562   2.235   4.212   4.961
 3852TIP3    H211563   2.131   4.140   5.043
 3853TIP3   OH211564   5.387   3.671   2.943
 3853TIP3    H111565   5.358   3.638   3.028
 3853TIP3    H211566   5.373   3.598   2.883
 3854TIP3   OH211567   1.168   1.201   4.981
 3854TIP3    H111568   1.184   1.288   4.944
 3854TIP3    H211569   1.099   1.164   4.926
 3855TIP3   OH211570   3.412   3.146   0.378
 3855TIP3    H111571   3.395   3.078   0.443
 3855TIP3    H211572   3.506   3.161   0.383
 3856TIP3   OH211573   4.364   2.616   0.647
 3856TIP3    H111574   4.337   2.536   0.693
 3856TIP3    H211575   4.292   2.678   0.663
 3857TIP3   OH211576   5.519   4.647   5.018
 3857TIP3    H111577   5.476   4.657   4.933
 3857TIP3    H211578   5.604   4.609   4.998
 3858TIP3   OH211579   1.531   5.794   1.601
 3858TIP3    H111580   1.528   5.699   1.589
 3858TIP3    H211581   1.624   5.816   1.596
 3859TIP3   OH211582   5.665   2.922   1.891
 3859TIP3    H111583   5.592   2.873   1.854
 3859TIP3    H211584   5.646   2.927   1.985
 3860TIP3   OH211585   4.862   3.434   1.738
 3860TIP3    H111586   4.903   3.381   1.670
 3860TIP3    H211587   4.933   3.486   1.775
 3861TIP3   OH211588   2.962   2.977   4.773
 3861TIP3    H111589   3.029   3.044   4.757
 3861TIP3    H211590   2.879   3.020   4.753
 3862TIP3   OH211591   5.520   2.330   3.378
 3862TIP3    H111592   5.599   2.306   3.329
 3862TIP3    H211593   5.553   2.380   3.453
 3863TIP3   OH211594   3.679   5.845   1.199
 3863TIP3    H111595   3.661   5.910   1.267
 3863TIP3    H211596   3.639   5.765   1.231
 3864TIP3   OH211597   6.043   3.904   3.873
 3864TIP3    H111598   6.111   3.861   3.821
 3864TIP3    H211599   6.088   3.931   3.953
 3865TIP3   OH211600   0.224   0.757   0.228
 3865TIP3    H111601   0.254   0.800   0.308
 3865TIP3    H211602   0.229   0.663   0.247
 3866TIP3   OH211603   0.133   4.673   0.605
 3866TIP3    H111604   0.131   4.714   0.519
 3866TIP3    H211605   0.223   4.686   0.636
 3867TIP3   OH211606   5.913   5.586   0.388
 3867TIP3    H111607   5.823   5.562   0.369
 3867TIP3    H211608   5.965   5.515   0.348
 3868TIP3   OH211609   2.711   2.221   3.118
 3868TIP3    H111610   2.759   2.162   3.059
 3868TIP3    H211611   2.778   2.281   3.151
 3869TIP3   OH211612   2.459   4.870   1.339
 3869TIP3    H111613   2.394   4.808   1.306
 3869TIP3    H211614   2.475   4.930   1.266
 3870TIP3   OH211615   5.252   4.206   3.887
 3870TIP3    H111616   5.157   4.217   3.896
 3870TIP3    H211617   5.289   4.288   3.920
 3871TIP3   OH211618   1.983   5.025   4.445
 3871TIP3    H111619   2.027   5.050   4.527
 3871TIP3    H211620   2.007   5.094   4.383
 3872TIP3   OH211621   4.336   3.850   3.554
 3872TIP3    H111622   4.365   3.788   3.621
 3872TIP3    H211623   4.336   3.935   3.600
 3873TIP3   OH211624   5.115   2.494   4.494
 3873TIP3    H111625   5.175   2.448   4.435
 3873TIP3    H211626   5.031   2.450   4.483
 3874TIP3   OH211627   6.209   4.015   0.036
 3874TIP3    H111628   6.201   3.943   0.098
 3874TIP3    H211629   6.268   4.077   0.080
 3875TIP3   OH211630   3.689   4.528   1.248
 3875TIP3    H111631   3.662   4.456   1.192
 3875TIP3    H211632   3.623   4.596   1.234
 3876TIP3   OH211633   2.351   4.497   0.456
 3876TIP3    H111634   2.256   4.484   0.466
 3876TIP3    H211635   2.361   4.533   0.368
 3877TIP3   OH211636   3.412   2.330   0.247
 3877TIP3    H111637   3.395   2.265   0.315
 3877TIP3    H211638   3.476   2.390   0.286
 3878TIP3   OH211639   4.902   3.364   2.626
 3878TIP3    H111640   4.910   3.280   2.669
 3878TIP3    H211641   4.992   3.389   2.603
 3879TIP3   OH211642  -0.006   0.883   1.386
 3879TIP3    H111643  -0.030   0.804   1.337
 3879TIP3    H211644   0.081   0.905   1.354
 3880TIP3   OH211645   3.463   2.417   4.237
 3880TIP3    H111646   3.410   2.454   4.307
 3880TIP3    H211647   3.516   2.349   4.280
 3881TIP3   OH211648   3.892   3.370   2.936
 3881TIP3    H111649   3.815   3.331   2.976
 3881TIP3    H211650   3.921   3.306   2.870
 3882TIP3   OH211651   2.978   5.096   4.837
 3882TIP3    H111652   2.964   5.052   4.753
 3882TIP3    H211653   3.017   5.180   4.814
 3883TIP3   OH211654   5.289   3.249   1.476
 3883TIP3    H111655   5.349   3.325   1.474
 3883TIP3    H211656   5.310   3.205   1.558
 3884TIP3   OH211657   0.509   1.939   3.002
 3884TIP3    H111658   0.594   1.899   3.023
 3884TIP3    H211659   0.525   1.987   2.921
 3885TIP3   OH211660   2.470   2.117   5.024
 3885TIP3    H111661   2.438   2.208   5.019
 3885TIP3    H211662   2.428   2.073   4.951
 3886TIP3   OH211663   1.055   4.301   1.772
 3886TIP3    H111664   0.995   4.357   1.722
 3886TIP3    H211665   1.052   4.216   1.728
 3887TIP3   OH211666   4.492   1.921   2.272
 3887TIP3    H111667   4.446   2.003   2.254
 3887TIP3    H211668   4.579   1.948   2.301
 3888TIP3   OH211669   3.387   3.637   0.500
 3888TIP3    H111670   3.336   3.558   0.518
 3888TIP3    H211671   3.415   3.628   0.409
 3889TIP3   OH211672   3.092   5.827   2.372
 3889TIP3    H111673   3.037   5.868   2.305
 3889TIP3    H211674   3.128   5.900   2.422
 3890TIP3   OH211675   1.201   0.308   4.105
 3890TIP3    H111676   1.251   0.241   4.152
 3890TIP3    H211677   1.264   0.378   4.088
 3891TIP3   OH211678   4.932   3.169   4.567
 3891TIP3    H111679   4.960   3.164   4.476
 3891TIP3    H211680   4.915   3.262   4.581
 3892TIP3   OH211681   5.158   5.840   4.786
 3892TIP3    H111682   5.074   5.799   4.808
 3892TIP3    H211683   5.222   5.769   4.792
 3893TIP3   OH211684   0.631   3.876   4.221
 3893TIP3    H111685   0.576   3.849   4.148
 3893TIP3    H211686   0.596   3.830   4.297
 3894TIP3   OH211687   5.756   3.643   1.592
 3894TIP3    H111688   5.721   3.657   1.504
 3894TIP3    H211689   5.751   3.729   1.634
 3895TIP3   OH211690   1.450   1.757   4.373
 3895TIP3    H111691   1.458   1.810   4.452
 3895TIP3    H211692   1.492   1.810   4.305
 3896TIP3   OH211693   2.389   5.070   4.984
 3896TIP3    H111694   2.432   5.149   5.018
 3896TIP3    H211695   2.453   5.001   4.998
 3897TIP3   OH211696   5.404   4.454   1.218
 3897TIP3    H111697   5.498   4.470   1.206
 3897TIP3    H211698   5.361   4.509   1.152
 3898TIP3   OH211699   0.060   2.290   1.076
 3898TIP3    H111700   0.065   2.367   1.019
 3898TIP3    H211701   0.107   2.222   1.028
 3899TIP3   OH211702   0.865   2.034   3.165
 3899TIP3    H111703   0.814   1.964   3.125
 3899TIP3    H211704   0.920   2.068   3.094
 3900TIP3   OH211705   3.136   4.933   5.015
 3900TIP3    H111706   3.179   5.005   5.060
 3900TIP3    H211707   3.121   4.965   4.926
 3901TIP3   OH211708   1.265   1.385   0.568
 3901TIP3    H111709   1.171   1.393   0.581
 3901TIP3    H211710   1.299   1.472   0.585
 3902TIP3   OH211711   3.508   2.428   1.098
 3902TIP3    H111712   3.456   2.448   1.021
 3902TIP3    H211713   3.546   2.511   1.125
 3903TIP3   OH211714   2.833   0.626   2.270
 3903TIP3    H111715   2.892   0.701   2.257
 3903TIP3    H211716   2.750   0.665   2.297
 3904TIP3   OH211717   0.671   0.771   1.167
 3904TIP3    H111718   0.759   0.776   1.205
 3904TIP3    H211719   0.621   0.720   1.231
 3905TIP3   OH211720   1.990   5.647   2.461
 3905TIP3    H111721   1.914   5.591   2.451
 3905TIP3    H211722   2.007   5.648   2.555
 3906TIP3   OH211723   0.498   4.327   0.642
 3906TIP3    H111724   0.409   4.292   0.643
 3906TIP3    H211725   0.545   4.273   0.706
 3907TIP3   OH211726   0.353   2.760   3.494
 3907TIP3    H111727   0.371   2.844   3.453
 3907TIP3    H211728   0.309   2.709   3.426
 3908TIP3   OH211729   1.107   6.003   3.620
 3908TIP3    H111730   1.151   5.949   3.686
 3908TIP3    H211731   1.014   5.984   3.632
 3909TIP3   OH211732   3.469   4.015   0.171
 3909TIP3    H111733   3.465   4.023   0.266
 3909TIP3    H211734   3.380   4.033   0.141
 3910TIP3   OH211735   3.618   1.366   4.782
 3910TIP3    H111736   3.578   1.292   4.736
 3910TIP3    H211737   3.560   1.382   4.857
 3911TIP3   OH211738   0.128   3.300   3.924
 3911TIP3    H111739   0.129   3.215   3.968
 3911TIP3    H211740   0.056   3.294   3.861
 3912TIP3   OH211741   1.023   1.573   3.264
 3912TIP3    H111742   1.062   1.642   3.210
 3912TIP3    H211743   0.949   1.615   3.307
 3913TIP3   OH211744   4.893   2.556   0.502
 3913TIP3    H111745   4.880   2.641   0.545
 3913TIP3    H211746   4.881   2.492   0.572
 3914TIP3   OH211747   1.731   1.215   3.203
 3914TIP3    H111748   1.819   1.184   3.222
 3914TIP3    H211749   1.737   1.310   3.209
 3915TIP3   OH211750   5.757   4.442   3.362
 3915TIP3    H111751   5.811   4.454   3.440
 3915TIP3    H211752   5.762   4.525   3.315
 3916TIP3   OH211753   3.966   0.216   3.231
 3916TIP3    H111754   3.875   0.200   3.208
 3916TIP3    H211755   3.978   0.172   3.314
 3917TIP3   OH211756   5.914   5.743   2.365
 3917TIP3    H111757   5.895   5.829   2.328
 3917TIP3    H211758   5.945   5.691   2.291
 3918TIP3   OH211759   1.332   0.398   1.893
 3918TIP3    H111760   1.274   0.417   1.967
 3918TIP3    H211761   1.275   0.401   1.816
 3919TIP3   OH211762   5.538   0.155   3.783
 3919TIP3    H111763   5.484   0.100   3.727
 3919TIP3    H211764   5.579   0.218   3.724
 3920TIP3   OH211765   4.358   0.284   2.896
 3920TIP3    H111766   4.272   0.276   2.937
 3920TIP3    H211767   4.419   0.245   2.959
 3921TIP3   OH211768   0.421   2.143   3.660
 3921TIP3    H111769   0.377   2.083   3.720
 3921TIP3    H211770   0.434   2.223   3.711
 3922TIP3   OH211771   3.281   4.051   4.531
 3922TIP3    H111772   3.310   4.104   4.457
 3922TIP3    H211773   3.350   4.059   4.596
 3923TIP3   OH211774   2.617   2.062   1.714
 3923TIP3    H111775   2.693   2.093   1.765
 3923TIP3    H211776   2.591   1.980   1.757
 3924TIP3   OH211777   2.770   3.401   2.984
 3924TIP3    H111778   2.712   3.355   2.922
 3924TIP3    H211779   2.789   3.484   2.941
 3925TIP3   OH211780   5.636   3.975   2.400
 3925TIP3    H111781   5.583   3.925   2.337
 3925TIP3    H211782   5.673   3.908   2.458
 3926TIP3   OH211783  -0.086   2.480   0.294
 3926TIP3    H111784  -0.128   2.559   0.330
 3926TIP3    H211785   0.004   2.485   0.327
 3927TIP3   OH211786   5.692   5.597   2.745
 3927TIP3    H111787   5.636   5.674   2.753
 3927TIP3    H211788   5.634   5.523   2.760
 3928TIP3   OH211789   3.266   0.614   4.833
 3928TIP3    H111790   3.303   0.616   4.921
 3928TIP3    H211791   3.326   0.668   4.781
 3929TIP3   OH211792   5.816   2.499   1.100
 3929TIP3    H111793   5.848   2.416   1.065
 3929TIP3    H211794   5.892   2.538   1.143
 3930TIP3   OH211795   2.623   2.285   2.076
 3930TIP3    H111796   2.593   2.269   1.987
 3930TIP3    H211797   2.718   2.278   2.071
 3931TIP3   OH211798   5.590   2.567   0.137
 3931TIP3    H111799   5.650   2.580   0.063
 3931TIP3    H211800   5.595   2.473   0.155
 3932TIP3   OH211801   4.810   0.830   3.793
 3932TIP3    H111802   4.763   0.908   3.823
 3932TIP3    H211803   4.899   0.841   3.825
 3933TIP3   OH211804   0.392   4.407   0.961
 3933TIP3    H111805   0.390   4.313   0.977
 3933TIP3    H211806   0.486   4.427   0.952
 3934TIP3   OH211807   0.589   3.211   2.708
 3934TIP3    H111808   0.650   3.144   2.739
 3934TIP3    H211809   0.564   3.258   2.788
 3935TIP3   OH211810   5.184   4.257   4.551
 3935TIP3    H111811   5.162   4.301   4.633
 3935TIP3    H211812   5.127   4.181   4.549
 3936TIP3   OH211813   1.289   2.009   1.573
 3936TIP3    H111814   1.250   2.039   1.491
 3936TIP3    H211815   1.216   2.007   1.635
 3937TIP3   OH211816   2.860   0.855   4.153
 3937TIP3    H111817   2.899   0.925   4.206
 3937TIP3    H211818   2.933   0.821   4.101
 3938TIP3   OH211819   4.388   2.494   1.251
 3938TIP3    H111820   4.375   2.399   1.252
 3938TIP3    H211821   4.473   2.506   1.207
 3939TIP3   OH211822   5.250   0.471   3.015
 3939TIP3    H111823   5.161   0.496   3.040
 3939TIP3    H211824   5.243   0.447   2.923
 3940TIP3   OH211825   0.723   0.724   2.199
 3940TIP3    H111826   0.651   0.740   2.137
 3940TIP3    H211827   0.730   0.628   2.203
 3941TIP3   OH211828   5.444   5.974   3.416
 3941TIP3    H111829   5.454   6.064   3.445
 3941TIP3    H211830   5.377   5.936   3.473
 3942TIP3   OH211831   2.917   3.186   0.181
 3942TIP3    H111832   3.004   3.175   0.220
 3942TIP3    H211833   2.917   3.275   0.147
 3943TIP3   OH211834   5.447   3.171   2.561
 3943TIP3    H111835   5.399   3.192   2.641
 3943TIP3    H211836   5.391   3.201   2.490
 3944TIP3   OH211837   2.162   1.903   0.732
 3944TIP3    H111838   2.231   1.892   0.667
 3944TIP3    H211839   2.095   1.839   0.706
 3945TIP3   OH211840   5.396   2.904   1.210
 3945TIP3    H111841   5.388   2.900   1.115
 3945TIP3    H211842   5.442   2.824   1.234
 3946TIP3   OH211843   1.549   4.020   3.568
 3946TIP3    H111844   1.570   3.947   3.625
 3946TIP3    H211845   1.628   4.035   3.516
 3947TIP3   OH211846   1.842   2.502   4.179
 3947TIP3    H111847   1.853   2.411   4.151
 3947TIP3    H211848   1.753   2.505   4.216
 3948TIP3   OH211849   2.989   3.960   2.017
 3948TIP3    H111850   3.045   3.979   2.092
 3948TIP3    H211851   3.049   3.927   1.950
 3949TIP3   OH211852   0.224   2.286   3.136
 3949TIP3    H111853   0.154   2.280   3.201
 3949TIP3    H211854   0.285   2.216   3.160
 3950TIP3   OH211855   5.356   4.360   5.037
 3950TIP3    H111856   5.419   4.373   4.966
 3950TIP3    H211857   5.406   4.317   5.107
 3951TIP3   OH211858   2.882   4.153   1.167
 3951TIP3    H111859   2.957   4.112   1.125
 3951TIP3    H211860   2.806   4.121   1.118
 3952TIP3   OH211861   5.013   2.314   0.909
 3952TIP3    H111862   5.046   2.316   0.998
 3952TIP3    H211863   5.055   2.238   0.869
 3953TIP3   OH211864   4.574   3.821   4.659
 3953TIP3    H111865   4.614   3.869   4.586
 3953TIP3    H211866   4.642   3.815   4.725
 3954TIP3   OH211867   0.792   4.759   2.503
 3954TIP3    H111868   0.776   4.832   2.562
 3954TIP3    H211869   0.771   4.793   2.416
 3955TIP3   OH211870   6.137   0.397   4.560
 3955TIP3    H111871   6.072   0.419   4.627
 3955TIP3    H211872   6.093   0.330   4.506
 3956TIP3   OH211873   4.721   0.664   0.511
 3956TIP3    H111874   4.716   0.583   0.461
 3956TIP3    H211875   4.630   0.687   0.530
 3957TIP3   OH211876   6.068   2.395   0.583
 3957TIP3    H111877   6.071   2.471   0.525
 3957TIP3    H211878   5.980   2.398   0.620
 3958TIP3   OH211879   4.754   4.043   4.929
 3958TIP3    H111880   4.685   4.047   4.863
 3958TIP3    H211881   4.819   4.107   4.899
 3959TIP3   OH211882   0.430   5.209   1.345
 3959TIP3    H111883   0.467   5.215   1.256
 3959TIP3    H211884   0.346   5.166   1.332
 3960TIP3   OH211885   2.119   2.907   0.728
 3960TIP3    H111886   2.096   2.869   0.643
 3960TIP3    H211887   2.039   2.902   0.779
 3961TIP3   OH211888   5.946   4.911   1.996
 3961TIP3    H111889   6.014   4.971   1.966
 3961TIP3    H211890   5.864   4.949   1.964
 3962TIP3   OH211891   3.051   5.522   2.739
 3962TIP3    H111892   3.024   5.606   2.701
 3962TIP3    H211893   3.010   5.456   2.684
 3963TIP3   OH211894   1.869   2.210   4.524
 3963TIP3    H111895   1.823   2.271   4.581
 3963TIP3    H211896   1.800   2.172   4.469
 3964TIP3   OH211897   0.470   3.792   4.429
 3964TIP3    H111898   0.441   3.770   4.517
 3964TIP3    H211899   0.418   3.735   4.372
 3965TIP3   OH211900   1.914   4.863   4.943
 3965TIP3    H111901   1.879   4.904   4.863
 3965TIP3    H211902   1.859   4.786   4.957
 3966TIP3   OH211903   6.049   1.330   0.402
 3966TIP3    H111904   6.062   1.235   0.409
 3966TIP3    H211905   5.968   1.339   0.351
 3967TIP3   OH211906   6.025   1.086   1.876
 3967TIP3    H111907   6.062   1.133   1.801
 3967TIP3    H211908   6.001   1.000   1.841
 3968TIP3   OH211909   1.172   4.189   5.033
 3968TIP3    H111910   1.151   4.121   5.097
 3968TIP3    H211911   1.089   4.234   5.018
 3969TIP3   OH211912   4.892   3.807   2.818
 3969TIP3    H111913   4.951   3.741   2.856
 3969TIP3    H211914   4.804   3.777   2.840
 3970TIP3   OH211915   4.889   4.752   4.457
 3970TIP3    H111916   4.978   4.785   4.439
 3970TIP3    H211917   4.875   4.771   4.549
 3971TIP3   OH211918   1.042   0.927   4.952
 3971TIP3    H111919   1.101   0.919   4.878
 3971TIP3    H211920   1.036   0.838   4.987
 3972TIP3   OH211921   5.037   2.222   3.779
 3972TIP3    H111922   4.969   2.241   3.844
 3972TIP3    H211923   5.002   2.256   3.697
 3973TIP3   OH211924   0.214   0.628   3.913
 3973TIP3    H111925   0.226   0.582   3.996
 3973TIP3    H211926   0.122   0.615   3.891
 3974TIP3   OH211927   4.792   4.615   4.244
 3974TIP3    H111928   4.826   4.657   4.323
 3974TIP3    H211929   4.869   4.599   4.190
 3975TIP3   OH211930   1.652   2.900   3.513
 3975TIP3    H111931   1.595   2.823   3.508
 3975TIP3    H211932   1.682   2.902   3.604
 3976TIP3   OH211933   5.500   1.452   2.876
 3976TIP3    H111934   5.552   1.392   2.930
 3976TIP3    H211935   5.543   1.450   2.790
 3977TIP3   OH211936   5.353   3.467   2.742
 3977TIP3    H111937   5.342   3.373   2.753
 3977TIP3    H211938   5.422   3.476   2.677
 3978TIP3   OH211939   1.125   3.997   4.256
 3978TIP3    H111940   1.157   3.952   4.177
 3978TIP3    H211941   1.041   3.956   4.275
 3979TIP3   OH211942   1.850   0.528   3.179
 3979TIP3    H111943   1.827   0.596   3.116
 3979TIP3    H211944   1.766   0.492   3.207
 3980TIP3   OH211945   2.308   4.316   2.651
 3980TIP3    H111946   2.222   4.285   2.677
 3980TIP3    H211947   2.297   4.411   2.642
 3981TIP3   OH211948   1.605   3.723   4.868
 3981TIP3    H111949   1.672   3.697   4.931
 3981TIP3    H211950   1.652   3.734   4.785
 3982TIP3   OH211951   5.947   4.389   4.631
 3982TIP3    H111952   5.871   4.332   4.618
 3982TIP3    H211953   5.916   4.476   4.609
 3983TIP3   OH211954   0.482   1.943   4.045
 3983TIP3    H111955   0.436   1.996   4.110
 3983TIP3    H211956   0.554   1.999   4.015
 3984TIP3   OH211957   5.930   2.081   2.901
 3984TIP3    H111958   6.010   2.051   2.946
 3984TIP3    H211959   5.859   2.042   2.952
 3985TIP3   OH211960   1.793   3.462   0.050
 3985TIP3    H111961   1.799   3.474  -0.045
 3985TIP3    H211962   1.703   3.488   0.071
 3986TIP3   OH211963   5.937   3.532   1.946
 3986TIP3    H111964   5.974   3.617   1.921
 3986TIP3    H211965   6.004   3.493   2.002
 3987TIP3   OH211966   5.066   4.990   2.649
 3987TIP3    H111967   5.080   4.896   2.642
 3987TIP3    H211968   5.011   5.012   2.574
 3988TIP3   OH211969   5.051   1.170   2.834
 3988TIP3    H111970   5.005   1.097   2.793
 3988TIP3    H211971   5.063   1.143   2.925
 3989TIP3   OH211972   1.287   5.773   0.119
 3989TIP3    H111973   1.268   5.865   0.138
 3989TIP3    H211974   1.381   5.765   0.135
 3990TIP3   OH211975   3.303   2.236   3.091
 3990TIP3    H111976   3.302   2.187   3.173
 3990TIP3    H211977   3.329   2.172   3.024
 3991TIP3   OH211978   4.464   5.362   1.356
 3991TIP3    H111979   4.420   5.391   1.436
 3991TIP3    H211980   4.557   5.360   1.380
 3992TIP3   OH211981   2.253   2.880   0.154
 3992TIP3    H111982   2.337   2.886   0.109
 3992TIP3    H211983   2.244   2.964   0.199
 3993TIP3   OH211984   6.146   0.759   3.199
 3993TIP3    H111985   6.120   0.849   3.218
 3993TIP3    H211986   6.070   0.706   3.225
 3994TIP3   OH211987   5.025   3.430   1.011
 3994TIP3    H111988   4.997   3.361   0.950
 3994TIP3    H211989   5.121   3.427   1.006
 3995TIP3   OH211990   5.367   1.693   3.653
 3995TIP3    H111991   5.425   1.693   3.728
 3995TIP3    H211992   5.279   1.688   3.690
 3996TIP3   OH211993   1.751   3.937   5.151
 3996TIP3    H111994   1.707   3.989   5.084
 3996TIP3    H211995   1.692   3.864   5.168
 3997TIP3   OH211996   1.499   2.688   0.125
 3997TIP3    H111997   1.489   2.676   0.031
 3997TIP3    H211998   1.576   2.745   0.134
 3998TIP3   OH211999   2.120   2.245   3.402
 3998TIP3    H112000   2.031   2.215   3.383
 3998TIP3    H212001   2.114   2.285   3.488
 3999TIP3   OH212002   2.331   1.193   2.102
 3999TIP3    H112003   2.245   1.195   2.145
 3999TIP3    H212004   2.317   1.139   2.024
 4000TIP3   OH212005   3.841   5.553   2.351
 4000TIP3    H112006   3.855   5.501   2.272
 4000TIP3    H212007   3.760   5.601   2.334
 4001TIP3   OH212008   2.089   5.753   0.130
 4001TIP3    H112009   2.067   5.834   0.085
 4001TIP3    H212010   2.163   5.775   0.187
 4002TIP3   OH212011   4.792   1.429   4.649
 4002TIP3    H112012   4.834   1.347   4.674
 4002TIP3    H212013   4.796   1.483   4.728
 4003TIP3   OH212014   1.710   1.363   4.725
 4003TIP3    H112015   1.691   1.295   4.790
 4003TIP3    H212016   1.798   1.342   4.693
 4004TIP3   OH212017   0.629   1.847   4.362
 4004TIP3    H112018   0.622   1.943   4.359
 4004TIP3    H212019   0.648   1.822   4.272
 4005TIP3   OH212020   3.636   0.935   2.675
 4005TIP3    H112021   3.711   0.984   2.641
 4005TIP3    H212022   3.662   0.843   2.669
 4006TIP3   OH212023   0.223   0.463   1.005
 4006TIP3    H112024   0.160   0.399   1.038
 4006TIP3    H212025   0.307   0.438   1.045
 4007TIP3   OH212026   5.991   3.349   3.233
 4007TIP3    H112027   5.995   3.263   3.192
 4007TIP3    H212028   5.957   3.333   3.321
 4008TIP3   OH212029   1.772   4.648   2.357
 4008TIP3    H112030   1.718   4.694   2.422
 4008TIP3    H212031   1.807   4.573   2.405
 4009TIP3   OH212032   4.048   1.726   3.720
 4009TIP3    H112033   4.127   1.760   3.761
 4009TIP3    H212034   4.026   1.649   3.772
 4010TIP3   OH212035   2.986   1.220   3.903
 4010TIP3    H112036   3.031   1.176   3.976
 4010TIP3    H212037   3.024   1.181   3.825
 4011TIP3   OH212038   5.957   0.118   1.805
 4011TIP3    H112039   5.920   0.177   1.871
 4011TIP3    H212040   6.032   0.077   1.848
 4012TIP3   OH212041   5.595   1.132   3.318
 4012TIP3    H112042   5.556   1.053   3.278
 4012TIP3    H212043   5.529   1.200   3.304
 4013TIP3   OH212044   0.212   1.047   3.683
 4013TIP3    H112045   0.276   1.098   3.634
 4013TIP3    H212046   0.240   0.956   3.673
 4014TIP3   OH212047   5.513   1.553   3.446
 4014TIP3    H112048   5.488   1.594   3.529
 4014TIP3    H212049   5.569   1.480   3.470
 4015TIP3   OH212050   4.351   0.284   1.834
 4015TIP3    H112051   4.300   0.260   1.912
 4015TIP3    H212052   4.437   0.307   1.868
 4016TIP3   OH212053   5.660   1.426   2.080
 4016TIP3    H112054   5.674   1.406   2.172
 4016TIP3    H212055   5.565   1.437   2.072
 4017TIP3   OH212056   2.917   3.676   4.269
 4017TIP3    H112057   2.822   3.667   4.276
 4017TIP3    H212058   2.943   3.726   4.346
 4018TIP3   OH212059   6.055   4.669   1.637
 4018TIP3    H112060   6.131   4.658   1.579
 4018TIP3    H212061   6.064   4.598   1.701
 4019TIP3   OH212062   5.767   3.878   1.743
 4019TIP3    H112063   5.735   3.827   1.817
 4019TIP3    H212064   5.829   3.940   1.781
 4020TIP3   OH212065   5.457   2.951   2.984
 4020TIP3    H112066   5.474   3.041   3.012
 4020TIP3    H212067   5.515   2.898   3.039
 4021TIP3   OH212068   0.522   5.028   4.928
 4021TIP3    H112069   0.443   5.057   4.883
 4021TIP3    H212070   0.561   5.108   4.962
 4022TIP3   OH212071   0.207   3.710   2.129
 4022TIP3    H112072   0.239   3.651   2.061
 4022TIP3    H212073   0.277   3.713   2.194
 4023TIP3   OH212074   5.011   0.545   3.140
 4023TIP3    H112075   4.962   0.472   3.104
 4023TIP3    H212076   4.946   0.597   3.187
 4024TIP3   OH212077   6.297   0.635   3.909
 4024TIP3    H112078   6.315   0.709   3.967
 4024TIP3    H212079   6.225   0.588   3.952
 4025TIP3   OH212080   3.897   5.753   1.856
 4025TIP3    H112081   3.860   5.811   1.789
 4025TIP3    H212082   3.943   5.813   1.915
 4026TIP3   OH212083   6.062   5.877   1.416
 4026TIP3    H112084   5.978   5.909   1.450
 4026TIP3    H212085   6.045   5.785   1.395
 4027TIP3   OH212086   2.227   1.957   0.428
 4027TIP3    H112087   2.257   1.867   0.425
 4027TIP3    H212088   2.306   2.010   0.418
 4028TIP3   OH212089   1.276   2.583   3.838
 4028TIP3    H112090   1.181   2.595   3.849
 4028TIP3    H212091   1.285   2.495   3.802
 4029TIP3   OH212092   3.474   1.021   4.883
 4029TIP3    H112093   3.506   0.954   4.945
 4029TIP3    H212094   3.424   1.082   4.938
 4030TIP3   OH212095   2.175   5.007   1.818
 4030TIP3    H112096   2.264   5.029   1.844
 4030TIP3    H212097   2.183   4.922   1.776
 4031TIP3   OH212098   1.698   0.481   1.198
 4031TIP3    H112099   1.672   0.443   1.282
 4031TIP3    H212100   1.641   0.558   1.188
 4032TIP3   OH212101   3.855   0.644   3.149
 4032TIP3    H112102   3.945   0.616   3.132
 4032TIP3    H212103   3.825   0.681   3.066
 4033TIP3   OH212104   2.764   0.364   1.215
 4033TIP3    H112105   2.672   0.378   1.238
 4033TIP3    H212106   2.781   0.274   1.241
 4034TIP3   OH212107   3.982   5.546   3.735
 4034TIP3    H112108   3.913   5.487   3.765
 4034TIP3    H212109   4.000   5.603   3.810
 4035TIP3   OH212110   1.309   5.711   0.428
 4035TIP3    H112111   1.383   5.673   0.476
 4035TIP3    H212112   1.306   5.662   0.346
 4036TIP3   OH212113   5.450   4.408   4.791
 4036TIP3    H112114   5.490   4.489   4.758
 4036TIP3    H212115   5.384   4.385   4.726
 4037TIP3   OH212116   6.267   4.711   3.139
 4037TIP3    H112117   6.224   4.647   3.195
 4037TIP3    H212118   6.360   4.694   3.150
 4038TIP3   OH212119   6.088   1.194   1.368
 4038TIP3    H112120   6.105   1.247   1.290
 4038TIP3    H212121   6.078   1.105   1.335
 4039TIP3   OH212122   2.906   3.701   4.710
 4039TIP3    H112123   2.910   3.753   4.630
 4039TIP3    H212124   2.884   3.613   4.680
 4040TIP3   OH212125   2.656   1.266   3.121
 4040TIP3    H112126   2.616   1.314   3.193
 4040TIP3    H212127   2.684   1.183   3.160
 4041TIP3   OH212128   3.017   4.617   2.565
 4041TIP3    H112129   2.951   4.557   2.530
 4041TIP3    H212130   3.083   4.561   2.604
 4042TIP3   OH212131   1.597   0.811   0.771
 4042TIP3    H112132   1.513   0.851   0.794
 4042TIP3    H212133   1.602   0.818   0.676
 4043TIP3   OH212134   0.112   4.767   3.472
 4043TIP3    H112135   0.168   4.834   3.432
 4043TIP3    H212136   0.131   4.687   3.422
 4044TIP3   OH212137   4.051   2.414   2.034
 4044TIP3    H112138   3.962   2.442   2.057
 4044TIP3    H212139   4.051   2.320   2.051
 4045TIP3   OH212140   3.996   3.854   0.285
 4045TIP3    H112141   3.915   3.894   0.316
 4045TIP3    H212142   4.060   3.925   0.285
 4046TIP3   OH212143   2.468   0.143   3.739
 4046TIP3    H112144   2.384   0.159   3.783
 4046TIP3    H212145   2.454   0.173   3.650
 4047TIP3   OH212146   3.892   0.001   4.716
 4047TIP3    H112147   3.909  -0.008   4.622
 4047TIP3    H212148   3.823   0.067   4.722
 4048TIP3   OH212149   3.148   1.609   3.905
 4048TIP3    H112150   3.211   1.537   3.905
 4048TIP3    H212151   3.099   1.599   3.986
 4049TIP3   OH212152   2.409   2.491   4.624
 4049TIP3    H112153   2.484   2.435   4.645
 4049TIP3    H212154   2.338   2.430   4.603
 4050TIP3   OH212155   3.376   0.252   4.723
 4050TIP3    H112156   3.327   0.324   4.683
 4050TIP3    H212157   3.379   0.185   4.655
 4051TIP3   OH212158   3.053   1.689   0.311
 4051TIP3    H112159   3.017   1.666   0.397
 4051TIP3    H212160   3.140   1.725   0.330
 4052TIP3   OH212161   6.210   0.448   3.645
 4052TIP3    H112162   6.289   0.484   3.605
 4052TIP3    H212163   6.204   0.358   3.613
 4053TIP3   OH212164   2.352   5.785   3.658
 4053TIP3    H112165   2.328   5.792   3.565
 4053TIP3    H212166   2.268   5.784   3.704
 4054TIP3   OH212167   1.777   5.181   3.031
 4054TIP3    H112168   1.784   5.155   2.939
 4054TIP3    H212169   1.863   5.220   3.051
 4055TIP3   OH212170   6.240   0.457   0.685
 4055TIP3    H112171   6.277   0.375   0.653
 4055TIP3    H212172   6.146   0.451   0.665
 4056TIP3   OH212173   4.379   4.366   0.996
 4056TIP3    H112174   4.332   4.289   1.027
 4056TIP3    H212175   4.418   4.403   1.075
 4057TIP3   OH212176   1.805   5.624   0.146
 4057TIP3    H112177   1.852   5.694   0.192
 4057TIP3    H212178   1.826   5.545   0.194
 4058TIP3   OH212179   3.531   3.102   1.002
 4058TIP3    H112180   3.621   3.071   0.990
 4058TIP3    H212181   3.482   3.023   1.023
 4059TIP3   OH212182   2.296   3.034   3.997
 4059TIP3    H112183   2.317   3.112   3.947
 4059TIP3    H212184   2.264   3.068   4.081
 4060TIP3   OH212185   4.645   4.438   3.207
 4060TIP3    H112186   4.733   4.460   3.236
 4060TIP3    H212187   4.654   4.353   3.165
 4061TIP3   OH212188   0.603   3.862   2.639
 4061TIP3    H112189   0.530   3.816   2.596
 4061TIP3    H212190   0.606   3.947   2.594
 4062TIP3   OH212191   4.466   1.574   4.907
 4062TIP3    H112192   4.423   1.516   4.844
 4062TIP3    H212193   4.400   1.589   4.975
 4063TIP3   OH212194   3.383   2.536   2.905
 4063TIP3    H112195   3.424   2.623   2.909
 4063TIP3    H212196   3.453   2.475   2.927
 4064TIP3   OH212197   4.196   4.562   3.825
 4064TIP3    H112198   4.270   4.622   3.833
 4064TIP3    H212199   4.144   4.578   3.904
 4065TIP3   OH212200   6.274   2.066   0.321
 4065TIP3    H112201   6.316   1.981   0.309
 4065TIP3    H212202   6.338   2.129   0.287
 4066TIP3   OH212203   1.260   2.492   4.269
 4066TIP3    H112204   1.349   2.458   4.256
 4066TIP3    H212205   1.259   2.576   4.223
 4067TIP3   OH212206   0.858   4.860   4.276
 4067TIP3    H112207   0.858   4.853   4.372
 4067TIP3    H212208   0.893   4.948   4.259
 4068TIP3   OH212209   0.961   2.268   2.247
 4068TIP3    H112210   0.970   2.267   2.343
 4068TIP3    H212211   0.914   2.187   2.226
 4069TIP3   OH212212   3.757   3.630   2.099
 4069TIP3    H112213   3.684   3.627   2.161
 4069TIP3    H212214   3.778   3.538   2.082
 4070TIP3   OH212215   2.090   2.515   1.104
 4070TIP3    H112216   2.162   2.453   1.113
 4070TIP3    H212217   2.023   2.483   1.165
 4071TIP3   OH212218   4.912   3.287   2.970
 4071TIP3    H112219   4.883   3.241   2.891
 4071TIP3    H212220   4.973   3.226   3.011
 4072TIP3   OH212221   4.894   3.766   3.986
 4072TIP3    H112222   4.875   3.852   4.024
 4072TIP3    H212223   4.815   3.714   4.002
 4073TIP3   OH212224   4.851   2.900   2.887
 4073TIP3    H112225   4.789   2.903   2.960
 4073TIP3    H212226   4.817   2.832   2.830
 4074TIP3   OH212227   5.379   0.110   1.519
 4074TIP3    H112228   5.375   0.110   1.615
 4074TIP3    H212229   5.422   0.028   1.497
 4075TIP3   OH212230   2.996   3.907   0.599
 4075TIP3    H112231   3.001   3.919   0.504
 4075TIP3    H212232   3.023   3.991   0.636
 4076TIP3   OH212233   0.291   4.727   0.954
 4076TIP3    H112234   0.307   4.651   0.898
 4076TIP3    H212235   0.302   4.693   1.043
 4077TIP3   OH212236   5.276   0.082   2.073
 4077TIP3    H112237   5.209   0.036   2.021
 4077TIP3    H212238   5.359   0.047   2.041
 4078TIP3   OH212239   4.043   1.627   1.691
 4078TIP3    H112240   4.101   1.551   1.690
 4078TIP3    H212241   4.102   1.702   1.696
 4079TIP3   OH212242   2.547   1.024   0.261
 4079TIP3    H112243   2.618   1.070   0.216
 4079TIP3    H212244   2.515   0.960   0.197
 4080TIP3   OH212245   2.943   4.226   2.668
 4080TIP3    H112246   2.873   4.169   2.698
 4080TIP3    H212247   2.900   4.293   2.615
 4081TIP3   OH212248   1.088   5.563   0.113
 4081TIP3    H112249   1.045   5.581   0.030
 4081TIP3    H212250   1.122   5.647   0.143
 4082TIP3   OH212251   3.237   3.032   4.381
 4082TIP3    H112252   3.188   3.097   4.432
 4082TIP3    H212253   3.239   2.954   4.437
 4083TIP3   OH212254   2.354   2.710   1.419
 4083TIP3    H112255   2.448   2.695   1.411
 4083TIP3    H212256   2.324   2.641   1.479
 4084TIP3   OH212257   3.379   3.951   3.850
 4084TIP3    H112258   3.378   4.012   3.923
 4084TIP3    H212259   3.330   3.875   3.882
 4085TIP3   OH212260   0.978   5.627   5.119
 4085TIP3    H112261   0.883   5.635   5.127
 4085TIP3    H212262   1.011   5.639   5.208
 4086TIP3   OH212263   4.496   5.535   5.220
 4086TIP3    H112264   4.532   5.468   5.161
 4086TIP3    H212265   4.444   5.591   5.163
 4087TIP3   OH212266   2.968   4.728   0.213
 4087TIP3    H112267   3.060   4.745   0.233
 4087TIP3    H212268   2.959   4.633   0.219
 4088TIP3   OH212269   0.836   2.692   1.578
 4088TIP3    H112270   0.804   2.602   1.589
 4088TIP3    H212271   0.881   2.692   1.493
 4089TIP3   OH212272   4.223   3.349   2.808
 4089TIP3    H112273   4.248   3.355   2.716
 4089TIP3    H212274   4.156   3.281   2.811
 4090TIP3   OH212275   0.341   1.094   0.560
 4090TIP3    H112276   0.349   1.087   0.655
 4090TIP3    H212277   0.318   1.186   0.545
 4091TIP3   OH212278   3.024   4.728   1.906
 4091TIP3    H112279   3.002   4.779   1.984
 4091TIP3    H212280   2.971   4.649   1.914
 4092TIP3   OH212281   3.752   2.223   4.553
 4092TIP3    H112282   3.792   2.145   4.593
 4092TIP3    H212283   3.690   2.254   4.619
 4093TIP3   OH212284   3.491   0.944   2.264
 4093TIP3    H112285   3.575   0.904   2.283
 4093TIP3    H212286   3.493   1.028   2.309
 4094TIP3   OH212287   3.394   2.604   4.046
 4094TIP3    H112288   3.389   2.677   4.108
 4094TIP3    H212289   3.431   2.532   4.097
 4095TIP3   OH212290   0.612   1.828   4.685
 4095TIP3    H112291   0.637   1.870   4.603
 4095TIP3    H212292   0.531   1.872   4.711
 4096TIP3   OH212293   5.622   2.509   3.545
 4096TIP3    H112294   5.671   2.566   3.486
 4096TIP3    H212295   5.541   2.557   3.563
 4097TIP3   OH212296   2.097   1.957   2.263
 4097TIP3    H112297   2.058   2.040   2.290
 4097TIP3    H212298   2.060   1.941   2.176
 4098TIP3   OH212299   1.263   3.589   0.407
 4098TIP3    H112300   1.271   3.645   0.485
 4098TIP3    H212301   1.181   3.542   0.420
 4099TIP3   OH212302   5.326   5.607   1.886
 4099TIP3    H112303   5.303   5.591   1.794
 4099TIP3    H212304   5.370   5.692   1.885
 4100TIP3   OH212305   2.163   3.158   1.747
 4100TIP3    H112306   2.184   3.249   1.729
 4100TIP3    H212307   2.212   3.138   1.827
 4101TIP3   OH212308   2.241   2.508   0.864
 4101TIP3    H112309   2.276   2.597   0.865
 4101TIP3    H212310   2.186   2.503   0.942
 4102TIP3   OH212311  -0.010   1.351   0.419
 4102TIP3    H112312  -0.096   1.312   0.407
 4102TIP3    H212313   0.011   1.334   0.511
 4103TIP3   OH212314   1.004   3.280   0.768
 4103TIP3    H112315   1.012   3.366   0.809
 4103TIP3    H212316   1.008   3.218   0.842
 4104TIP3   OH212317   4.083   5.220   1.578
 4104TIP3    H112318   4.100   5.231   1.671
 4104TIP3    H212319   4.022   5.145   1.574
 4105TIP3   OH212320   1.254   5.300   0.467
 4105TIP3    H112321   1.186   5.322   0.403
 4105TIP3    H212322   1.214   5.318   0.551
 4106TIP3   OH212323   6.165   2.596   0.951
 4106TIP3    H112324   6.092   2.649   0.919
 4106TIP3    H212325   6.136   2.563   1.036
 4107TIP3   OH212326   1.415   0.645   2.393
 4107TIP3    H112327   1.489   0.694   2.359
 4107TIP3    H212328   1.391   0.585   2.322
 4108TIP3   OH212329   1.193   3.956   3.084
 4108TIP3    H112330   1.205   3.993   3.172
 4108TIP3    H212331   1.099   3.955   3.071
 4109TIP3   OH212332   3.356   1.025   1.998
 4109TIP3    H112333   3.432   0.999   1.946
 4109TIP3    H212334   3.379   1.002   2.088
 4110TIP3   OH212335   2.703   0.653   4.281
 4110TIP3    H112336   2.677   0.624   4.194
 4110TIP3    H212337   2.762   0.727   4.265
 4111TIP3   OH212338   4.450   5.894   4.303
 4111TIP3    H112339   4.421   5.957   4.237
 4111TIP3    H212340   4.373   5.840   4.321
 4112TIP3   OH212341   2.367   0.981   1.609
 4112TIP3    H112342   2.301   1.039   1.573
 4112TIP3    H212343   2.347   0.895   1.571
 4113TIP3   OH212344   0.062   0.830   2.511
 4113TIP3    H112345   0.031   0.836   2.421
 4113TIP3    H212346   0.022   0.750   2.546
 4114TIP3   OH212347   5.188   4.609   3.533
 4114TIP3    H112348   5.232   4.599   3.448
 4114TIP3    H212349   5.143   4.525   3.546
 4115TIP3   OH212350   2.980   4.932   4.606
 4115TIP3    H112351   2.897   4.891   4.582
 4115TIP3    H212352   3.038   4.914   4.533
 4116TIP3   OH212353   1.902   2.713   2.572
 4116TIP3    H112354   1.988   2.756   2.575
 4116TIP3    H212355   1.887   2.682   2.661
 4117TIP3   OH212356   3.662   2.008   2.616
 4117TIP3    H112357   3.629   1.918   2.610
 4117TIP3    H212358   3.655   2.042   2.526
 4118TIP3   OH212359   2.192   1.580   2.483
 4118TIP3    H112360   2.155   1.510   2.430
 4118TIP3    H212361   2.120   1.642   2.495
 4119TIP3   OH212362   0.809   5.838   4.432
 4119TIP3    H112363   0.903   5.847   4.416
 4119TIP3    H212364   0.784   5.757   4.387
 4120TIP3   OH212365   4.157   0.951   0.714
 4120TIP3    H112366   4.159   0.857   0.729
 4120TIP3    H212367   4.079   0.982   0.759
 4121TIP3   OH212368   5.439   0.195   4.051
 4121TIP3    H112369   5.532   0.186   4.072
 4121TIP3    H212370   5.432   0.169   3.959
 4122TIP3   OH212371   3.410   2.600   4.690
 4122TIP3    H112372   3.315   2.601   4.707
 4122TIP3    H212373   3.446   2.661   4.753
 4123TIP3   OH212374   1.988   0.133   0.330
 4123TIP3    H112375   1.991   0.069   0.401
 4123TIP3    H212376   2.077   0.169   0.326
 4124TIP3   OH212377   1.017   1.223   3.660
 4124TIP3    H112378   0.987   1.171   3.586
 4124TIP3    H212379   0.997   1.313   3.635
 4125TIP3   OH212380   4.569   4.019   3.698
 4125TIP3    H112381   4.483   4.046   3.732
 4125TIP3    H212382   4.570   3.924   3.707
 4126TIP3   OH212383   6.207   3.417   1.628
 4126TIP3    H112384   6.112   3.422   1.638
 4126TIP3    H212385   6.230   3.328   1.658
 4127TIP3   OH212386   4.541   0.722   3.076
 4127TIP3    H112387   4.574   0.642   3.034
 4127TIP3    H212388   4.459   0.741   3.030
 4128TIP3   OH212389   4.728   3.579   2.320
 4128TIP3    H112390   4.802   3.526   2.294
 4128TIP3    H212391   4.655   3.545   2.269
 4129TIP3   OH212392   3.207   5.600   4.664
 4129TIP3    H112393   3.162   5.597   4.579
 4129TIP3    H212394   3.198   5.691   4.693
 4130TIP3   OH212395   0.657   3.809   2.197
 4130TIP3    H112396   0.699   3.893   2.215
 4130TIP3    H212397   0.727   3.754   2.160
 4131TIP3   OH212398   3.024   1.684   0.619
 4131TIP3    H112399   2.990   1.760   0.666
 4131TIP3    H212400   3.119   1.694   0.622
 4132TIP3   OH212401   1.824   1.518   1.097
 4132TIP3    H112402   1.798   1.529   1.005
 4132TIP3    H212403   1.744   1.536   1.146
 4133TIP3   OH212404   4.456   0.714   0.566
 4133TIP3    H112405   4.468   0.797   0.612
 4133TIP3    H212406   4.365   0.715   0.538
 4134TIP3   OH212407   6.225   3.510   0.762
 4134TIP3    H112408   6.132   3.506   0.742
 4134TIP3    H212409   6.265   3.444   0.706
 4135TIP3   OH212410   1.513   4.141   0.311
 4135TIP3    H112411   1.447   4.100   0.367
 4135TIP3    H212412   1.587   4.080   0.315
 4136TIP3   OH212413   5.688   1.370   3.508
 4136TIP3    H112414   5.775   1.411   3.508
 4136TIP3    H212415   5.701   1.286   3.465
 4137TIP3   OH212416   3.275   3.491   3.260
 4137TIP3    H112417   3.331   3.513   3.335
 4137TIP3    H212418   3.257   3.398   3.270
 4138TIP3   OH212419   4.540   3.693   4.975
 4138TIP3    H112420   4.500   3.669   4.891
 4138TIP3    H212421   4.632   3.705   4.955
 4139TIP3   OH212422   4.814   2.494   2.490
 4139TIP3    H112423   4.736   2.456   2.530
 4139TIP3    H212424   4.885   2.471   2.550
 4140TIP3   OH212425   4.955   3.131   1.825
 4140TIP3    H112426   4.935   3.188   1.751
 4140TIP3    H212427   4.918   3.046   1.801
 4141TIP3   OH212428   3.269   1.858   4.954
 4141TIP3    H112429   3.338   1.798   4.925
 4141TIP3    H212430   3.288   1.940   4.908
 4142TIP3   OH212431   4.613   2.734   0.584
 4142TIP3    H112432   4.536   2.687   0.617
 4142TIP3    H212433   4.661   2.760   0.663
 4143TIP3   OH212434   2.689   1.600   2.115
 4143TIP3    H112435   2.702   1.603   2.209
 4143TIP3    H212436   2.603   1.641   2.101
 4144TIP3   OH212437   3.388   3.118   2.191
 4144TIP3    H112438   3.446   3.189   2.220
 4144TIP3    H212439   3.300   3.155   2.195
 4145TIP3   OH212440   6.208   5.897   0.120
 4145TIP3    H112441   6.125   5.874   0.161
 4145TIP3    H212442   6.268   5.911   0.194
 4146TIP3   OH212443   1.057   4.417   0.933
 4146TIP3    H112444   1.135   4.385   0.888
 4146TIP3    H212445   0.986   4.362   0.900
 4147TIP3   OH212446   5.883   2.356   3.526
 4147TIP3    H112447   5.863   2.263   3.533
 4147TIP3    H212448   5.798   2.400   3.527
 4148TIP3   OH212449   5.256   1.770   2.966
 4148TIP3    H112450   5.351   1.779   2.969
 4148TIP3    H212451   5.240   1.676   2.972
 4149TIP3   OH212452   1.639   1.298   2.202
 4149TIP3    H112453   1.596   1.267   2.282
 4149TIP3    H212454   1.691   1.373   2.231
 4150TIP3   OH212455   2.096   1.489   2.065
 4150TIP3    H112456   2.176   1.533   2.037
 4150TIP3    H212457   2.054   1.462   1.983
 4151TIP3   OH212458   1.396   1.060   2.967
 4151TIP3    H112459   1.337   1.016   2.905
 4151TIP3    H212460   1.358   1.147   2.978
 4152TIP3   OH212461   5.723   3.523   2.927
 4152TIP3    H112462   5.722   3.495   2.835
 4152TIP3    H212463   5.700   3.615   2.925
 4153TIP3   OH212464   3.277   3.617   1.524
 4153TIP3    H112465   3.246   3.703   1.553
 4153TIP3    H212466   3.361   3.635   1.481
 4154TIP3   OH212467   2.754   2.715   3.369
 4154TIP3    H112468   2.748   2.808   3.390
 4154TIP3    H212469   2.691   2.703   3.298
 4155TIP3   OH212470   1.699   1.602   5.155
 4155TIP3    H112471   1.776   1.652   5.180
 4155TIP3    H212472   1.731   1.539   5.091
 4156TIP3   OH212473   3.245   2.767   3.109
 4156TIP3    H112474   3.201   2.852   3.105
 4156TIP3    H212475   3.192   2.710   3.054
 4157TIP3   OH212476   0.893   0.869   4.622
 4157TIP3    H112477   0.944   0.790   4.607
 4157TIP3    H212478   0.943   0.938   4.579
 4158TIP3   OH212479   2.446   0.242   0.428
 4158TIP3    H112480   2.535   0.276   0.431
 4158TIP3    H212481   2.443   0.175   0.496
 4159TIP3   OH212482   3.566   1.551   3.980
 4159TIP3    H112483   3.495   1.614   3.973
 4159TIP3    H212484   3.526   1.467   3.959
 4160TIP3   OH212485   0.205   4.291   4.029
 4160TIP3    H112486   0.137   4.354   4.054
 4160TIP3    H212487   0.235   4.321   3.944
 4161TIP3   OH212488   4.670   2.916   4.415
 4161TIP3    H112489   4.694   2.923   4.507
 4161TIP3    H212490   4.753   2.924   4.368
 4162TIP3   OH212491   2.204   0.755   4.871
 4162TIP3    H112492   2.253   0.742   4.790
 4162TIP3    H212493   2.225   0.678   4.924
 4163TIP3   OH212494   0.283   3.981   2.264
 4163TIP3    H112495   0.196   4.012   2.290
 4163TIP3    H212496   0.334   3.983   2.345
 4164TIP3   OH212497   3.548   5.068   1.580
 4164TIP3    H112498   3.621   5.007   1.592
 4164TIP3    H212499   3.500   5.033   1.505
 4165TIP3   OH212500   5.894   5.548   2.554
 4165TIP3    H112501   5.913   5.625   2.500
 4165TIP3    H212502   5.811   5.569   2.596
 4166TIP3   OH212503   5.981   1.706   0.307
 4166TIP3    H112504   6.022   1.628   0.343
 4166TIP3    H212505   5.982   1.769   0.380
 4167TIP3   OH212506   3.604   5.109   0.829
 4167TIP3    H112507   3.615   5.019   0.801
 4167TIP3    H212508   3.546   5.104   0.905
 4168TIP3   OH212509  -0.039   3.835   2.120
 4168TIP3    H112510   0.054   3.827   2.100
 4168TIP3    H212511  -0.083   3.819   2.037
 4169TIP3   OH212512   0.865   3.326   4.886
 4169TIP3    H112513   0.925   3.400   4.876
 4169TIP3    H212514   0.911   3.252   4.847
 4170TIP3   OH212515   5.718   2.241   3.200
 4170TIP3    H112516   5.720   2.303   3.127
 4170TIP3    H212517   5.733   2.156   3.159
 4171TIP3   OH212518   3.010   5.189   2.675
 4171TIP3    H112519   3.071   5.182   2.749
 4171TIP3    H212520   3.050   5.137   2.605
 4172TIP3   OH212521   2.188   2.826   2.541
 4172TIP3    H112522   2.197   2.797   2.632
 4172TIP3    H212523   2.258   2.779   2.495
 4173TIP3   OH212524   5.651   1.822   0.665
 4173TIP3    H112525   5.660   1.886   0.735
 4173TIP3    H212526   5.646   1.875   0.585
 4174TIP3   OH212527   4.078   0.922   3.072
 4174TIP3    H112528   4.028   0.954   2.997
 4174TIP3    H212529   4.024   0.941   3.148
 4175TIP3   OH212530   2.001   1.053   0.086
 4175TIP3    H112531   2.032   1.078   0.173
 4175TIP3    H212532   2.081   1.033   0.037
 4176TIP3   OH212533   0.992   2.287   4.569
 4176TIP3    H112534   1.048   2.357   4.536
 4176TIP3    H212535   0.974   2.312   4.660
 4177TIP3   OH212536   0.154   5.287   0.826
 4177TIP3    H112537   0.226   5.276   0.764
 4177TIP3    H212538   0.179   5.234   0.901
 4178TIP3   OH212539   3.203   1.740   2.663
 4178TIP3    H112540   3.181   1.809   2.599
 4178TIP3    H212541   3.124   1.732   2.716
 4179TIP3   OH212542   6.196   0.859   2.281
 4179TIP3    H112543   6.122   0.820   2.328
 4179TIP3    H212544   6.160   0.940   2.243
 4180TIP3   OH212545   1.441   4.877   0.405
 4180TIP3    H112546   1.453   4.792   0.361
 4180TIP3    H212547   1.352   4.872   0.442
 4181TIP3   OH212548   1.146   1.485   1.951
 4181TIP3    H112549   1.156   1.464   2.044
 4181TIP3    H212550   1.217   1.439   1.908
 4182TIP3   OH212551   2.296   5.868   1.491
 4182TIP3    H112552   2.351   5.847   1.566
 4182TIP3    H212553   2.253   5.950   1.515
 4183TIP3   OH212554   4.860   1.698   1.985
 4183TIP3    H112555   4.805   1.760   1.938
 4183TIP3    H212556   4.835   1.613   1.950
 4184TIP3   OH212557   4.550   5.511   4.363
 4184TIP3    H112558   4.606   5.435   4.349
 4184TIP3    H212559   4.517   5.533   4.276
 4185TIP3   OH212560   4.379   4.786   2.577
 4185TIP3    H112561   4.399   4.700   2.614
 4185TIP3    H212562   4.293   4.776   2.535
 4186TIP3   OH212563   4.897   2.618   2.222
 4186TIP3    H112564   4.945   2.553   2.170
 4186TIP3    H212565   4.875   2.571   2.303
 4187TIP3   OH212566   3.499   3.473   4.526
 4187TIP3    H112567   3.466   3.429   4.447
 4187TIP3    H212568   3.431   3.535   4.550
 4188TIP3   OH212569   0.126   4.190   3.129
 4188TIP3    H112570   0.042   4.168   3.090
 4188TIP3    H212571   0.169   4.105   3.144
 4189TIP3   OH212572   2.009   1.406   3.012
 4189TIP3    H112573   2.098   1.379   3.035
 4189TIP3    H212574   2.019   1.495   2.978
 4190TIP3   OH212575   5.271   3.077   4.874
 4190TIP3    H112576   5.271   3.093   4.968
 4190TIP3    H212577   5.357   3.106   4.844
 4191TIP3   OH212578   4.576   5.600   2.706
 4191TIP3    H112579   4.524   5.520   2.706
 4191TIP3    H212580   4.667   5.571   2.706
 4192TIP3   OH212581   3.352   2.065   3.744
 4192TIP3    H112582   3.422   2.130   3.747
 4192TIP3    H212583   3.272   2.115   3.731
 4193TIP3   OH212584   3.455   0.332   0.366
 4193TIP3    H112585   3.490   0.396   0.428
 4193TIP3    H212586   3.509   0.342   0.288
 4194TIP3   OH212587   4.088   1.487   3.288
 4194TIP3    H112588   4.047   1.573   3.284
 4194TIP3    H212589   4.076   1.458   3.378
 4195TIP3   OH212590   5.350   3.831   2.703
 4195TIP3    H112591   5.323   3.796   2.789
 4195TIP3    H212592   5.419   3.893   2.724
 4196TIP3   OH212593   2.313   5.381   4.992
 4196TIP3    H112594   2.234   5.349   4.949
 4196TIP3    H212595   2.368   5.413   4.920
 4197TIP3   OH212596   1.641   5.484   1.762
 4197TIP3    H112597   1.549   5.477   1.786
 4197TIP3    H212598   1.642   5.465   1.668
 4198TIP3   OH212599   5.242   5.719   2.343
 4198TIP3    H112600   5.206   5.671   2.268
 4198TIP3    H212601   5.255   5.652   2.410
 4199TIP3   OH212602   1.253   4.916   1.108
 4199TIP3    H112603   1.346   4.898   1.122
 4199TIP3    H212604   1.216   4.831   1.084
 4200TIP3   OH212605   4.717   1.922   2.472
 4200TIP3    H112606   4.725   1.899   2.565
 4200TIP3    H212607   4.778   1.863   2.428
 4201TIP3   OH212608   4.761   0.599   2.028
 4201TIP3    H112609   4.754   0.642   1.943
 4201TIP3    H212610   4.759   0.670   2.092
 4202TIP3   OH212611   1.239   3.629   1.044
 4202TIP3    H112612   1.303   3.654   0.978
 4202TIP3    H212613   1.238   3.704   1.104
 4203TIP3   OH212614   0.210   1.602   2.030
 4203TIP3    H112615   0.186   1.514   2.001
 4203TIP3    H212616   0.137   1.658   2.002
 4204TIP3   OH212617   3.516   5.381   0.727
 4204TIP3    H112618   3.490   5.437   0.800
 4204TIP3    H212619   3.541   5.298   0.769
 4205TIP3   OH212620   5.049   5.083   0.228
 4205TIP3    H112621   5.033   5.123   0.313
 4205TIP3    H212622   4.985   5.012   0.221
 4206TIP3   OH212623   1.108   5.230   2.216
 4206TIP3    H112624   1.017   5.201   2.216
 4206TIP3    H212625   1.109   5.304   2.277
 4207TIP3   OH212626   2.034   5.784   2.017
 4207TIP3    H112627   2.058   5.827   1.935
 4207TIP3    H212628   1.951   5.740   1.997
 4208TIP3   OH212629   4.413   3.365   0.210
 4208TIP3    H112630   4.399   3.286   0.158
 4208TIP3    H212631   4.364   3.349   0.291
 4209TIP3   OH212632   3.673   1.529   4.238
 4209TIP3    H112633   3.623   1.563   4.164
 4209TIP3    H212634   3.687   1.605   4.294
 4210TIP3   OH212635   3.036   0.832   4.769
 4210TIP3    H112636   3.054   0.749   4.814
 4210TIP3    H212637   3.097   0.894   4.808
 4211TIP3   OH212638   0.832   5.668   0.269
 4211TIP3    H112639   0.784   5.606   0.322
 4211TIP3    H212640   0.923   5.637   0.271
 4212TIP3   OH212641   2.562   3.948   4.763
 4212TIP3    H112642   2.591   3.858   4.778
 4212TIP3    H212643   2.475   3.952   4.801
 4213TIP3   OH212644   3.035   2.301   4.878
 4213TIP3    H112645   3.060   2.272   4.966
 4213TIP3    H212646   2.945   2.273   4.868
 4214TIP3   OH212647   5.035   1.422   2.034
 4214TIP3    H112648   5.055   1.493   2.095
 4214TIP3    H212649   5.112   1.366   2.037
 4215TIP3   OH212650   3.722   4.514   3.799
 4215TIP3    H112651   3.746   4.588   3.743
 4215TIP3    H212652   3.696   4.446   3.737
 4216TIP3   OH212653   3.030   3.585   4.966
 4216TIP3    H112654   3.023   3.491   4.986
 4216TIP3    H212655   2.948   3.606   4.922
 4217TIP3   OH212656   0.655   2.058   1.620
 4217TIP3    H112657   0.591   2.126   1.640
 4217TIP3    H212658   0.620   2.014   1.542
 4218TIP3   OH212659   1.309   2.027   3.724
 4218TIP3    H112660   1.292   1.996   3.636
 4218TIP3    H212661   1.244   1.983   3.778
 4219TIP3   OH212662   0.966   2.459   3.547
 4219TIP3    H112663   0.992   2.367   3.537
 4219TIP3    H212664   0.875   2.461   3.520
 4220TIP3   OH212665   0.499   5.027   0.571
 4220TIP3    H112666   0.448   4.987   0.641
 4220TIP3    H212667   0.577   4.973   0.565
 4221TIP3   OH212668   3.767   5.670   2.909
 4221TIP3    H112669   3.850   5.626   2.927
 4221TIP3    H212670   3.724   5.614   2.844
 4222TIP3   OH212671   5.922   3.448   1.679
 4222TIP3    H112672   5.940   3.478   1.768
 4222TIP3    H212673   5.869   3.518   1.641
 4223TIP3   OH212674   0.385   0.865   0.907
 4223TIP3    H112675   0.379   0.955   0.873
 4223TIP3    H212676   0.400   0.811   0.829
 4224TIP3   OH212677   2.705   4.937   0.646
 4224TIP3    H112678   2.733   4.920   0.557
 4224TIP3    H212679   2.609   4.928   0.643
 4225TIP3   OH212680   1.011   0.811   0.834
 4225TIP3    H112681   1.084   0.800   0.774
 4225TIP3    H212682   1.024   0.898   0.873
 4226TIP3   OH212683   3.045   1.132   2.821
 4226TIP3    H112684   3.123   1.087   2.789
 4226TIP3    H212685   3.004   1.069   2.881
 4227TIP3   OH212686   5.376   4.959   4.403
 4227TIP3    H112687   5.460   4.919   4.427
 4227TIP3    H212688   5.381   4.972   4.309
 4228TIP3   OH212689   4.793   4.976   1.339
 4228TIP3    H112690   4.848   4.942   1.409
 4228TIP3    H212691   4.713   5.004   1.384
 4229TIP3   OH212692   3.472   5.403   5.151
 4229TIP3    H112693   3.481   5.325   5.097
 4229TIP3    H212694   3.547   5.401   5.210
 4230TIP3   OH212695   5.170   3.973   1.513
 4230TIP3    H112696   5.130   3.902   1.462
 4230TIP3    H212697   5.148   3.952   1.604
 4231TIP3   OH212698   5.093   0.870   2.940
 4231TIP3    H112699   5.170   0.837   2.986
 4231TIP3    H212700   5.087   0.816   2.861
 4232TIP3   OH212701   6.098   2.657   3.034
 4232TIP3    H112702   6.079   2.591   2.967
 4232TIP3    H212703   6.110   2.738   2.985
 4233TIP3   OH212704   3.608   5.763   0.700
 4233TIP3    H112705   3.656   5.818   0.762
 4233TIP3    H212706   3.521   5.753   0.739
 4234TIP3   OH212707   2.070   0.201   1.481
 4234TIP3    H112708   2.107   0.170   1.398
 4234TIP3    H212709   2.115   0.148   1.547
 4235TIP3   OH212710   1.854   1.148   2.448
 4235TIP3    H112711   1.786   1.144   2.515
 4235TIP3    H212712   1.854   1.239   2.418
 4236TIP3   OH212713   5.498   0.501   3.139
 4236TIP3    H112714   5.545   0.423   3.169
 4236TIP3    H212715   5.420   0.467   3.097
 4237TIP3   OH212716   1.836   2.890   4.337
 4237TIP3    H112717   1.881   2.943   4.403
 4237TIP3    H212718   1.744   2.893   4.361
 4238TIP3   OH212719   2.625   0.629   3.237
 4238TIP3    H112720   2.685   0.641   3.163
 4238TIP3    H212721   2.654   0.692   3.303
 4239TIP3   OH212722   5.510   0.660   2.556
 4239TIP3    H112723   5.424   0.689   2.527
 4239TIP3    H212724   5.496   0.573   2.594
 4240TIP3   OH212725   2.866   1.030   2.557
 4240TIP3    H112726   2.891   1.087   2.630
 4240TIP3    H212727   2.788   0.984   2.588
 4241TIP3   OH212728   0.544   3.591   2.806
 4241TIP3    H112729   0.510   3.678   2.786
 4241TIP3    H212730   0.629   3.589   2.761
 4242TIP3   OH212731   5.992   1.919   1.327
 4242TIP3    H112732   6.063   1.960   1.377
 4242TIP3    H212733   6.024   1.830   1.309
 4243TIP3   OH212734   1.410   4.393   1.640
 4243TIP3    H112735   1.497   4.381   1.602
 4243TIP3    H212736   1.408   4.332   1.714
 4244TIP3   OH212737   5.092   3.620   2.781
 4244TIP3    H112738   5.110   3.623   2.687
 4244TIP3    H212739   5.156   3.558   2.816
 4245TIP3   OH212740   3.379   4.084   1.054
 4245TIP3    H112741   3.345   4.170   1.079
 4245TIP3    H212742   3.431   4.056   1.129
 4246TIP3   OH212743   1.993   2.050   3.821
 4246TIP3    H112744   1.987   2.022   3.730
 4246TIP3    H212745   1.902   2.069   3.846
 4247TIP3   OH212746   5.735   3.364   3.713
 4247TIP3    H112747   5.763   3.454   3.729
 4247TIP3    H212748   5.640   3.369   3.704
 4248TIP3   OH212749   0.718   5.359   1.688
 4248TIP3    H112750   0.679   5.286   1.735
 4248TIP3    H212751   0.803   5.327   1.659
 4249TIP3   OH212752   6.413   5.428   3.757
 4249TIP3    H112753   6.340   5.474   3.715
 4249TIP3    H212754   6.474   5.410   3.685
 4250TIP3   OH212755   1.632   3.297   2.166
 4250TIP3    H112756   1.702   3.316   2.103
 4250TIP3    H212757   1.650   3.357   2.239
 4251TIP3   OH212758   0.283   4.147   0.705
 4251TIP3    H112759   0.220   4.112   0.767
 4251TIP3    H212760   0.310   4.071   0.653
 4252TIP3   OH212761   5.557   5.382   3.479
 4252TIP3    H112762   5.525   5.457   3.430
 4252TIP3    H212763   5.478   5.338   3.510
 4253TIP3   OH212764   6.217   2.045   2.203
 4253TIP3    H112765   6.215   2.042   2.107
 4253TIP3    H212766   6.296   2.095   2.223
 4254TIP3   OH212767   4.763   5.612   3.987
 4254TIP3    H112768   4.835   5.563   3.947
 4254TIP3    H212769   4.779   5.606   4.081
 4255TIP3   OH212770   4.793   4.938   0.457
 4255TIP3    H112771   4.873   4.973   0.495
 4255TIP3    H212772   4.745   4.902   0.532
 4256TIP3   OH212773   5.688   1.228   0.076
 4256TIP3    H112774   5.674   1.137   0.104
 4256TIP3    H212775   5.602   1.258   0.048
 4257TIP3   OH212776   5.409   0.102   2.936
 4257TIP3    H112777   5.458   0.096   2.854
 4257TIP3    H212778   5.469   0.067   3.002
 4258TIP3   OH212779   1.555   1.897   2.677
 4258TIP3    H112780   1.615   1.822   2.676
 4258TIP3    H212781   1.481   1.868   2.624
 4259TIP3   OH212782   4.946   1.410   4.106
 4259TIP3    H112783   5.037   1.394   4.134
 4259TIP3    H212784   4.895   1.342   4.150
 4260TIP3   OH212785   5.608   1.398   0.811
 4260TIP3    H112786   5.655   1.482   0.808
 4260TIP3    H212787   5.543   1.410   0.881
 4261TIP3   OH212788   2.191   2.050   1.033
 4261TIP3    H112789   2.279   2.077   1.008
 4261TIP3    H212790   2.203   2.002   1.115
 4262TIP3   OH212791   5.668   0.381   0.670
 4262TIP3    H112792   5.598   0.414   0.613
 4262TIP3    H212793   5.622   0.328   0.735
 4263TIP3   OH212794   5.181   2.446   4.822
 4263TIP3    H112795   5.242   2.404   4.883
 4263TIP3    H212796   5.211   2.536   4.816
 4264TIP3   OH212797   3.978   4.748   0.432
 4264TIP3    H112798   4.026   4.792   0.503
 4264TIP3    H212799   4.046   4.698   0.386
 4265TIP3   OH212800   6.152   3.003   1.223
 4265TIP3    H112801   6.150   3.065   1.296
 4265TIP3    H212802   6.077   2.946   1.238
 4266TIP3   OH212803   3.552   3.385   4.210
 4266TIP3    H112804   3.593   3.384   4.124
 4266TIP3    H212805   3.506   3.300   4.215
 4267TIP3   OH212806   0.695   2.532   3.516
 4267TIP3    H112807   0.602   2.517   3.531
 4267TIP3    H212808   0.718   2.601   3.579
 4268TIP3   OH212809   5.320   2.168   5.092
 4268TIP3    H112810   5.366   2.096   5.134
 4268TIP3    H212811   5.314   2.235   5.160
 4269TIP3   OH212812   0.559   2.127   4.304
 4269TIP3    H112813   0.580   2.217   4.282
 4269TIP3    H212814   0.465   2.127   4.322
 4270TIP3   OH212815   4.913   1.650   4.853
 4270TIP3    H112816   4.988   1.669   4.911
 4270TIP3    H212817   4.843   1.624   4.913
 4271TIP3   OH212818   3.714   3.426   4.700
 4271TIP3    H112819   3.738   3.344   4.657
 4271TIP3    H212820   3.633   3.452   4.658
 4272TIP3   OH212821   5.148   0.086   0.965
 4272TIP3    H112822   5.090   0.105   0.891
 4272TIP3    H212823   5.187   0.001   0.944
 4273TIP3   OH212824   3.538   0.434   1.128
 4273TIP3    H112825   3.539   0.385   1.045
 4273TIP3    H212826   3.447   0.459   1.140
 4274TIP3   OH212827   4.211   5.745   4.326
 4274TIP3    H112828   4.224   5.680   4.257
 4274TIP3    H212829   4.135   5.713   4.375
 4275TIP3   OH212830   1.513   4.875   2.574
 4275TIP3    H112831   1.591   4.844   2.621
 4275TIP3    H212832   1.448   4.806   2.586
 4276TIP3   OH212833   3.443   1.749   0.622
 4276TIP3    H112834   3.502   1.755   0.698
 4276TIP3    H212835   3.379   1.818   0.636
 4277TIP3   OH212836   0.148   5.047   0.045
 4277TIP3    H112837   0.243   5.057   0.056
 4277TIP3    H212838   0.128   5.100  -0.032
 4278TIP3   OH212839   5.748   2.544   3.099
 4278TIP3    H112840   5.817   2.555   3.164
 4278TIP3    H212841   5.785   2.485   3.033
 4279TIP3   OH212842   0.670   0.319   0.080
 4279TIP3    H112843   0.609   0.247   0.094
 4279TIP3    H212844   0.617   0.398   0.090
 4280TIP3   OH212845   2.326   5.524   2.573
 4280TIP3    H112846   2.379   5.579   2.631
 4280TIP3    H212847   2.243   5.570   2.563
 4281TIP3   OH212848   4.292   0.107   1.020
 4281TIP3    H112849   4.349   0.032   1.006
 4281TIP3    H212850   4.210   0.069   1.052
 4282TIP3   OH212851   0.693   3.116   4.966
 4282TIP3    H112852   0.602   3.145   4.968
 4282TIP3    H212853   0.742   3.192   4.936
 4283TIP3   OH212854   4.658   1.333   2.514
 4283TIP3    H112855   4.643   1.423   2.485
 4283TIP3    H212856   4.752   1.328   2.529
 4284TIP3   OH212857   0.632   5.499   3.687
 4284TIP3    H112858   0.593   5.567   3.631
 4284TIP3    H212859   0.654   5.428   3.627
 4285TIP3   OH212860   4.074   5.070   1.884
 4285TIP3    H112861   3.992   5.117   1.870
 4285TIP3    H212862   4.062   4.987   1.839
 4286TIP3   OH212863   2.300   1.579   3.137
 4286TIP3    H112864   2.325   1.491   3.109
 4286TIP3    H212865   2.371   1.635   3.107
 4287TIP3   OH212866   0.495   2.718   1.832
 4287TIP3    H112867   0.474   2.807   1.861
 4287TIP3    H212868   0.513   2.670   1.914
 4288TIP3   OH212869   3.441   2.286   0.761
 4288TIP3    H112870   3.469   2.204   0.800
 4288TIP3    H212871   3.475   2.284   0.672
 4289TIP3   OH212872   1.861   3.823   0.609
 4289TIP3    H112873   1.853   3.821   0.704
 4289TIP3    H212874   1.801   3.893   0.582
 4290TIP3   OH212875   2.713   2.399   3.894
 4290TIP3    H112876   2.795   2.447   3.880
 4290TIP3    H212877   2.692   2.415   3.986
 4291TIP3   OH212878   0.917   4.605   0.690
 4291TIP3    H112879   1.008   4.577   0.679
 4291TIP3    H212880   0.868   4.523   0.701
 4292TIP3   OH212881   1.835   3.170   3.869
 4292TIP3    H112882   1.829   3.100   3.934
 4292TIP3    H212883   1.868   3.127   3.790
 4293TIP3   OH212884   0.614   2.968   2.054
 4293TIP3    H112885   0.565   3.000   2.130
 4293TIP3    H212886   0.549   2.965   1.983
 4294TIP3   OH212887   5.012   1.466   2.845
 4294TIP3    H112888   4.938   1.509   2.804
 4294TIP3    H212889   4.987   1.373   2.847
 4295TIP3   OH212890   4.939   1.346   2.538
 4295TIP3    H112891   5.030   1.345   2.566
 4295TIP3    H212892   4.943   1.330   2.443
 4296TIP3   OH212893   3.952   3.341   0.232
 4296TIP3    H112894   4.013   3.276   0.198
 4296TIP3    H212895   3.918   3.385   0.154
 4297TIP3   OH212896   3.237   5.029   0.176
 4297TIP3    H112897   3.279   4.944   0.162
 4297TIP3    H212898   3.306   5.085   0.209
 4298TIP3   OH212899   0.464   1.865   5.046
 4298TIP3    H112900   0.475   1.810   4.968
 4298TIP3    H212901   0.520   1.824   5.112
 4299TIP3   OH212902   5.191   5.592   3.415
 4299TIP3    H112903   5.115   5.544   3.450
 4299TIP3    H212904   5.170   5.605   3.323
 4300TIP3   OH212905   4.631   2.057   2.914
 4300TIP3    H112906   4.648   2.125   2.979
 4300TIP3    H212907   4.619   1.977   2.966
 4301TIP3   OH212908   0.217   5.943   4.787
 4301TIP3    H112909   0.242   5.851   4.786
 4301TIP3    H212910   0.141   5.948   4.729
 4302TIP3   OH212911   2.895   4.793   2.751
 4302TIP3    H112912   2.850   4.845   2.685
 4302TIP3    H212913   2.953   4.736   2.702
 4303TIP3   OH212914   2.941   0.381   1.474
 4303TIP3    H112915   2.930   0.287   1.459
 4303TIP3    H212916   2.852   0.417   1.464
 4304TIP3   OH212917   2.620   3.086   3.592
 4304TIP3    H112918   2.677   3.046   3.526
 4304TIP3    H212919   2.585   3.012   3.642
 4305TIP3   OH212920   1.202   3.520   2.740
 4305TIP3    H112921   1.192   3.607   2.780
 4305TIP3    H212922   1.182   3.533   2.648
 4306TIP3   OH212923   5.753   3.102   4.780
 4306TIP3    H112924   5.801   3.173   4.822
 4306TIP3    H212925   5.784   3.103   4.689
 4307TIP3   OH212926   0.767   0.070   3.179
 4307TIP3    H112927   0.717   0.090   3.100
 4307TIP3    H212928   0.834   0.009   3.151
 4308TIP3   OH212929   3.734   3.322   5.137
 4308TIP3    H112930   3.667   3.330   5.068
 4308TIP3    H212931   3.766   3.232   5.129
 4309TIP3   OH212932   5.935   3.940   0.867
 4309TIP3    H112933   5.983   3.932   0.784
 4309TIP3    H212934   5.952   4.030   0.895
 4310TIP3   OH212935   6.358   3.539   3.778
 4310TIP3    H112936   6.448   3.522   3.805
 4310TIP3    H212937   6.332   3.617   3.827
 4311TIP3   OH212938   3.392   4.781   0.092
 4311TIP3    H112939   3.364   4.695   0.061
 4311TIP3    H212940   3.480   4.793   0.055
 4312TIP3   OH212941   1.879   5.649   0.526
 4312TIP3    H112942   1.925   5.604   0.455
 4312TIP3    H212943   1.936   5.722   0.549
 4313TIP3   OH212944   3.905   1.362   2.714
 4313TIP3    H112945   3.837   1.363   2.782
 4313TIP3    H212946   3.895   1.446   2.669
 4314TIP3   OH212947   0.356   5.714   4.777
 4314TIP3    H112948   0.429   5.714   4.714
 4314TIP3    H212949   0.397   5.736   4.861
 4315TIP3   OH212950   6.102   4.801   4.252
 4315TIP3    H112951   6.164   4.772   4.185
 4315TIP3    H212952   6.150   4.790   4.335
 4316TIP3   OH212953   4.196   1.299   1.078
 4316TIP3    H112954   4.108   1.330   1.103
 4316TIP3    H212955   4.198   1.308   0.983
 4317TIP3   OH212956   2.233   4.935   2.135
 4317TIP3    H112957   2.252   5.028   2.150
 4317TIP3    H212958   2.318   4.895   2.121
 4318TIP3   OH212959   4.541   4.785   3.641
 4318TIP3    H112960   4.620   4.839   3.645
 4318TIP3    H212961   4.546   4.741   3.556
 4319TIP3   OH212962   0.062   3.493   4.942
 4319TIP3    H112963  -0.012   3.538   4.984
 4319TIP3    H212964   0.134   3.503   5.004
 4320TIP3   OH212965   2.751   1.885   3.281
 4320TIP3    H112966   2.672   1.928   3.312
 4320TIP3    H212967   2.770   1.927   3.196
 4321TIP3   OH212968   2.809   0.014   1.690
 4321TIP3    H112969   2.735   0.047   1.741
 4321TIP3    H212970   2.769  -0.017   1.609
 4322TIP3   OH212971   0.519   2.761   2.803
 4322TIP3    H112972   0.482   2.776   2.716
 4322TIP3    H212973   0.504   2.668   2.820
 4323TIP3   OH212974   2.573   3.617   1.674
 4323TIP3    H112975   2.583   3.656   1.761
 4323TIP3    H212976   2.614   3.530   1.682
 4324TIP3   OH212977   1.451   5.521   3.234
 4324TIP3    H112978   1.396   5.547   3.308
 4324TIP3    H212979   1.534   5.497   3.273
 4325TIP3   OH212980   1.293   4.731   2.700
 4325TIP3    H112981   1.299   4.725   2.796
 4325TIP3    H212982   1.259   4.646   2.673
 4326TIP3   OH212983   2.558   3.062   0.673
 4326TIP3    H112984   2.521   3.088   0.758
 4326TIP3    H212985   2.605   2.981   0.691
 4327TIP3   OH212986   2.653   2.976   1.294
 4327TIP3    H112987   2.623   2.980   1.385
 4327TIP3    H212988   2.572   2.963   1.244
 4328TIP3   OH212989   1.809   1.741   0.695
 4328TIP3    H112990   1.747   1.695   0.751
 4328TIP3    H212991   1.888   1.687   0.695
 4329TIP3   OH212992   6.316   1.610   2.517
 4329TIP3    H112993   6.327   1.516   2.503
 4329TIP3    H212994   6.226   1.628   2.492
 4330TIP3   OH212995   3.609   3.123   3.883
 4330TIP3    H112996   3.579   3.138   3.793
 4330TIP3    H212997   3.600   3.029   3.896
 4331TIP3   OH212998   0.027   1.278   1.408
 4331TIP3    H112999  -0.062   1.248   1.387
 4331TIP3    H213000   0.041   1.354   1.351
 4332TIP3   OH213001   5.865   0.448   3.966
 4332TIP3    H113002   5.779   0.486   3.950
 4332TIP3    H213003   5.883   0.464   4.059
 4333TIP3   OH213004   5.266   0.690   3.477
 4333TIP3    H113005   5.340   0.662   3.424
 4333TIP3    H213006   5.247   0.779   3.448
 4334TIP3   OH213007   3.356   5.370   1.367
 4334TIP3    H113008   3.420   5.310   1.330
 4334TIP3    H213009   3.357   5.351   1.461
 4335TIP3   OH213010   4.138   3.155   2.114
 4335TIP3    H113011   4.226   3.119   2.103
 4335TIP3    H213012   4.120   3.199   2.031
 4336TIP3   OH213013   3.108   2.926   1.671
 4336TIP3    H113014   3.021   2.962   1.686
 4336TIP3    H213015   3.117   2.923   1.575
 4337TIP3   OH213016   4.466   3.564   2.804
 4337TIP3    H113017   4.443   3.501   2.736
 4337TIP3    H213018   4.528   3.518   2.860
 4338TIP3   OH213019   1.865   1.010   0.389
 4338TIP3    H113020   1.906   0.979   0.470
 4338TIP3    H213021   1.888   0.943   0.324
 4339TIP3   OH213022   5.704   1.975   3.003
 4339TIP3    H113023   5.629   1.919   3.020
 4339TIP3    H213024   5.666   2.058   2.973
 4340TIP3   OH213025   1.880   5.801   1.271
 4340TIP3    H113026   1.913   5.889   1.253
 4340TIP3    H213027   1.805   5.791   1.212
 4341TIP3   OH213028   5.204   1.481   4.636
 4341TIP3    H113029   5.275   1.536   4.670
 4341TIP3    H213030   5.230   1.392   4.655
 4342TIP3   OH213031   1.952   0.899   2.433
 4342TIP3    H113032   1.871   0.858   2.463
 4342TIP3    H213033   1.928   0.991   2.418
 4343TIP3   OH213034   3.749   2.144   0.151
 4343TIP3    H113035   3.719   2.054   0.136
 4343TIP3    H213036   3.758   2.150   0.246
 4344TIP3   OH213037   5.435   4.285   4.472
 4344TIP3    H113038   5.461   4.196   4.446
 4344TIP3    H213039   5.347   4.274   4.508
 4345TIP3   OH213040   0.052   0.239   0.332
 4345TIP3    H113041   0.022   0.167   0.275
 4345TIP3    H213042   0.110   0.196   0.395
 4346TIP3   OH213043   0.151   5.076   1.349
 4346TIP3    H113044   0.071   5.074   1.402
 4346TIP3    H213045   0.121   5.057   1.260
 4347TIP3   OH213046   0.733   4.113   3.035
 4347TIP3    H113047   0.663   4.057   3.000
 4347TIP3    H213048   0.698   4.202   3.031
 4348TIP3   OH213049   4.897   1.273   3.702
 4348TIP3    H113050   4.981   1.309   3.674
 4348TIP3    H213051   4.843   1.274   3.623
 4349TIP3   OH213052   5.729   3.347   0.398
 4349TIP3    H113053   5.701   3.362   0.308
 4349TIP3    H213054   5.689   3.418   0.448
 4350TIP3   OH213055   5.025   5.854   1.740
 4350TIP3    H113056   5.085   5.916   1.699
 4350TIP3    H213057   5.027   5.777   1.683
 4351TIP3   OH213058   4.148   4.452   0.082
 4351TIP3    H113059   4.062   4.411   0.075
 4351TIP3    H213060   4.208   4.379   0.097
 4352TIP3   OH213061   2.474   3.439   0.896
 4352TIP3    H113062   2.463   3.350   0.864
 4352TIP3    H213063   2.404   3.488   0.854
 4353TIP3   OH213064   1.425   0.834   4.485
 4353TIP3    H113065   1.420   0.777   4.562
 4353TIP3    H213066   1.431   0.774   4.411
 4354TIP3   OH213067   3.793   0.713   2.627
 4354TIP3    H113068   3.770   0.621   2.633
 4354TIP3    H213069   3.841   0.721   2.544
 4355TIP3   OH213070   1.900   2.424   2.507
 4355TIP3    H113071   1.954   2.400   2.582
 4355TIP3    H213072   1.895   2.519   2.511
 4356TIP3   OH213073   0.264   0.845   0.485
 4356TIP3    H113074   0.308   0.930   0.489
 4356TIP3    H213075   0.319   0.788   0.539
 4357TIP3   OH213076   6.039   2.537   1.545
 4357TIP3    H113077   6.121   2.490   1.531
 4357TIP3    H213078   6.062   2.629   1.536
 4358TIP3   OH213079   1.100   4.491   4.410
 4358TIP3    H113080   1.141   4.410   4.378
 4358TIP3    H213081   1.008   4.483   4.385
 4359TIP3   OH213082   5.465   2.107   4.329
 4359TIP3    H113083   5.541   2.139   4.377
 4359TIP3    H213084   5.499   2.082   4.243
 4360TIP3   OH213085   6.014   4.134   4.150
 4360TIP3    H113086   5.930   4.122   4.194
 4360TIP3    H213087   6.002   4.213   4.098
 4361TIP3   OH213088   1.376   0.310   2.630
 4361TIP3    H113089   1.447   0.368   2.604
 4361TIP3    H213090   1.402   0.224   2.596
 4362TIP3   OH213091   0.435   0.461   2.757
 4362TIP3    H113092   0.485   0.380   2.759
 4362TIP3    H213093   0.490   0.525   2.803
 4363TIP3   OH213094   3.384   2.443   3.813
 4363TIP3    H113095   3.411   2.480   3.897
 4363TIP3    H213096   3.299   2.483   3.795
 4364TIP3   OH213097   3.591   1.710   2.555
 4364TIP3    H113098   3.625   1.629   2.594
 4364TIP3    H213099   3.518   1.681   2.500
 4365TIP3   OH213100   0.184   5.104   2.329
 4365TIP3    H113101   0.145   5.059   2.403
 4365TIP3    H213102   0.279   5.097   2.343
 4366TIP3   OH213103   1.769   2.959   2.535
 4366TIP3    H113104   1.839   3.012   2.572
 4366TIP3    H213105   1.809   2.874   2.518
 4367TIP3   OH213106   1.418   0.991   3.690
 4367TIP3    H113107   1.372   1.067   3.656
 4367TIP3    H213108   1.442   1.015   3.779
 4368TIP3   OH213109   4.059   2.813   1.006
 4368TIP3    H113110   4.131   2.758   1.037
 4368TIP3    H213111   4.073   2.897   1.049
 4369TIP3   OH213112   5.072   4.742   3.834
 4369TIP3    H113113   5.002   4.734   3.770
 4369TIP3    H213114   5.147   4.700   3.794
 4370TIP3   OH213115   1.872   4.833   3.223
 4370TIP3    H113116   1.799   4.894   3.228
 4370TIP3    H213117   1.832   4.747   3.236
 4371TIP3   OH213118   4.695   1.232   4.062
 4371TIP3    H113119   4.671   1.140   4.050
 4371TIP3    H213120   4.670   1.275   3.981
 4372TIP3   OH213121   3.853   1.187   4.880
 4372TIP3    H113122   3.921   1.178   4.813
 4372TIP3    H213123   3.796   1.256   4.846
 4373TIP3   OH213124   5.517   4.013   3.305
 4373TIP3    H113125   5.506   4.033   3.398
 4373TIP3    H213126   5.562   4.089   3.269
 4374TIP3   OH213127   5.702   2.383   4.343
 4374TIP3    H113128   5.658   2.343   4.418
 4374TIP3    H213129   5.786   2.337   4.337
 4375TIP3   OH213130   5.243   5.265   2.473
 4375TIP3    H113131   5.171   5.245   2.413
 4375TIP3    H213132   5.311   5.202   2.451
 4376TIP3   OH213133   4.270   5.949   2.316
 4376TIP3    H113134   4.200   5.904   2.269
 4376TIP3    H213135   4.335   5.971   2.249
 4377TIP3   OH213136   0.470   3.004   1.818
 4377TIP3    H113137   0.485   3.095   1.844
 4377TIP3    H213138   0.478   3.003   1.723
 4378TIP3   OH213139   5.917   3.382   2.550
 4378TIP3    H113140   5.996   3.382   2.497
 4378TIP3    H213141   5.942   3.337   2.631
 4379TIP3   OH213142   5.515   0.893   0.716
 4379TIP3    H113143   5.451   0.955   0.682
 4379TIP3    H213144   5.502   0.814   0.663
 4380TIP3   OH213145   1.447   0.512   3.678
 4380TIP3    H113146   1.511   0.559   3.732
 4380TIP3    H213147   1.430   0.570   3.604
 4381TIP3   OH213148   4.405   0.506   0.262
 4381TIP3    H113149   4.345   0.433   0.276
 4381TIP3    H213150   4.397   0.526   0.169
 4382TIP3   OH213151   3.827   4.034   3.443
 4382TIP3    H113152   3.848   3.994   3.527
 4382TIP3    H213153   3.813   4.126   3.463
 4383TIP3   OH213154   2.772   0.418   0.720
 4383TIP3    H113155   2.819   0.358   0.777
 4383TIP3    H213156   2.695   0.445   0.771
 4384TIP3   OH213157   3.912   0.131   1.399
 4384TIP3    H113158   3.862   0.207   1.369
 4384TIP3    H213159   3.880   0.116   1.488
 4385TIP3   OH213160   4.075   2.410   4.560
 4385TIP3    H113161   4.141   2.462   4.605
 4385TIP3    H213162   4.002   2.470   4.546
 4386TIP3   OH213163   1.367   5.228   3.914
 4386TIP3    H113164   1.422   5.302   3.889
 4386TIP3    H213165   1.424   5.175   3.970
 4387TIP3   OH213166   5.018   5.854   2.387
 4387TIP3    H113167   5.010   5.931   2.331
 4387TIP3    H213168   5.111   5.832   2.385
 4388TIP3   OH213169   5.117   4.474   0.334
 4388TIP3    H113170   5.040   4.461   0.280
 4388TIP3    H213171   5.179   4.407   0.305
 4389TIP3   OH213172   1.707   4.991   1.660
 4389TIP3    H113173   1.785   5.035   1.694
 4389TIP3    H213174   1.671   5.052   1.595
 4390TIP3   OH213175   2.822   2.998   1.697
 4390TIP3    H113176   2.755   2.977   1.763
 4390TIP3    H213177   2.860   3.081   1.728
 4391TIP3   OH213178   3.742   2.253   1.691
 4391TIP3    H113179   3.772   2.180   1.745
 4391TIP3    H213180   3.795   2.327   1.720
 4392TIP3   OH213181   2.243   1.036   4.896
 4392TIP3    H113182   2.294   1.058   4.974
 4392TIP3    H213183   2.233   0.941   4.899
 4393TIP3   OH213184   1.148   4.811   0.527
 4393TIP3    H113185   1.169   4.720   0.549
 4393TIP3    H213186   1.139   4.855   0.611
 4394TIP3   OH213187   2.638   0.991   1.405
 4394TIP3    H113188   2.558   0.942   1.385
 4394TIP3    H213189   2.660   0.966   1.495
 4395TIP3   OH213190   0.271   5.265   1.630
 4395TIP3    H113191   0.304   5.327   1.565
 4395TIP3    H213192   0.334   5.270   1.701
 4396TIP3   OH213193   5.856   5.288   2.203
 4396TIP3    H113194   5.900   5.370   2.225
 4396TIP3    H213195   5.919   5.220   2.227
 4397TIP3   OH213196   4.617   1.596   2.430
 4397TIP3    H113197   4.557   1.643   2.373
 4397TIP3    H213198   4.685   1.660   2.451
 4398TIP3   OH213199   6.236   2.770   3.255
 4398TIP3    H113200   6.306   2.724   3.303
 4398TIP3    H213201   6.212   2.709   3.185
 4399TIP3   OH213202   0.656   5.277   4.510
 4399TIP3    H113203   0.624   5.207   4.567
 4399TIP3    H213204   0.672   5.234   4.426
 4400TIP3   OH213205  -0.032   4.652   1.156
 4400TIP3    H113206  -0.084   4.580   1.191
 4400TIP3    H213207   0.035   4.668   1.223
 4401TIP3   OH213208   0.123   1.909   1.284
 4401TIP3    H113209   0.163   1.825   1.305
 4401TIP3    H213210   0.095   1.899   1.193
 4402TIP3   OH213211   4.916   0.115   1.951
 4402TIP3    H113212   4.907   0.196   1.902
 4402TIP3    H213213   4.874   0.133   2.035
 4403TIP3   OH213214   2.016   2.975   1.355
 4403TIP3    H113215   2.074   2.910   1.314
 4403TIP3    H213216   2.052   3.059   1.330
 4404TIP3   OH213217   2.532   2.854   0.308
 4404TIP3    H113218   2.622   2.876   0.284
 4404TIP3    H213219   2.496   2.814   0.229
 4405TIP3   OH213220   2.303   2.851   5.242
 4405TIP3    H113221   2.301   2.822   5.151
 4405TIP3    H213222   2.381   2.810   5.279
 4406TIP3   OH213223   0.320   0.746   3.236
 4406TIP3    H113224   0.362   0.689   3.300
 4406TIP3    H213225   0.390   0.800   3.201
 4407TIP3   OH213226   1.659   1.137   1.444
 4407TIP3    H113227   1.587   1.099   1.494
 4407TIP3    H213228   1.624   1.149   1.356
 4408TIP3   OH213229   3.098   5.686   0.573
 4408TIP3    H113230   3.073   5.629   0.500
 4408TIP3    H213231   3.143   5.627   0.634
 4409TIP3   OH213232   5.374   5.913   1.014
 4409TIP3    H113233   5.373   5.926   0.919
 4409TIP3    H213234   5.324   5.833   1.028
 4410TIP3   OH213235   3.501   5.426   2.532
 4410TIP3    H113236   3.532   5.507   2.491
 4410TIP3    H213237   3.575   5.396   2.585
 4411TIP3   OH213238   1.856   2.189   3.340
 4411TIP3    H113239   1.768   2.154   3.327
 4411TIP3    H213240   1.913   2.126   3.296
 4412TIP3   OH213241   0.403   4.628   0.720
 4412TIP3    H113242   0.473   4.670   0.670
 4412TIP3    H213243   0.423   4.535   0.715
 4413TIP3   OH213244   0.621   5.290   3.482
 4413TIP3    H113245   0.621   5.288   3.387
 4413TIP3    H213246   0.635   5.200   3.509
 4414TIP3   OH213247   1.694   2.428   0.137
 4414TIP3    H113248   1.609   2.394   0.164
 4414TIP3    H213249   1.709   2.504   0.193
 4415TIP3   OH213250   5.515   4.915   3.817
 4415TIP3    H113251   5.523   4.823   3.842
 4415TIP3    H213252   5.585   4.959   3.866
 4416TIP3   OH213253   2.199   1.113   1.449
 4416TIP3    H113254   2.104   1.105   1.441
 4416TIP3    H213255   2.230   1.122   1.359
 4417TIP3   OH213256   5.597   0.552   2.247
 4417TIP3    H113257   5.599   0.626   2.308
 4417TIP3    H213258   5.509   0.514   2.259
 4418TIP3   OH213259   3.031   4.396   5.092
 4418TIP3    H113260   3.066   4.485   5.102
 4418TIP3    H213261   2.986   4.379   5.174
 4419TIP3   OH213262   4.736   1.472   3.123
 4419TIP3    H113263   4.779   1.386   3.120
 4419TIP3    H213264   4.806   1.534   3.103
 4420TIP3   OH213265   5.455   4.304   3.567
 4420TIP3    H113266   5.367   4.311   3.601
 4420TIP3    H213267   5.467   4.211   3.547
 4421TIP3   OH213268   1.022   0.292   3.313
 4421TIP3    H113269   1.072   0.323   3.237
 4421TIP3    H213270   1.086   0.285   3.383
 4422TIP3   OH213271   0.037   1.510   1.205
 4422TIP3    H113272   0.110   1.501   1.144
 4422TIP3    H213273  -0.042   1.500   1.151
 4423TIP3   OH213274   0.560   3.322   4.453
 4423TIP3    H113275   0.569   3.361   4.539
 4423TIP3    H213276   0.510   3.241   4.468
 4424TIP3   OH213277   3.904   4.606   2.599
 4424TIP3    H113278   3.899   4.607   2.694
 4424TIP3    H213279   3.916   4.514   2.576
 4425TIP3   OH213280   4.293   4.220   0.061
 4425TIP3    H113281   4.370   4.274   0.076
 4425TIP3    H213282   4.318   4.159  -0.008
 4426TIP3   OH213283   5.799   1.885   1.622
 4426TIP3    H113284   5.749   1.848   1.695
 4426TIP3    H213285   5.757   1.970   1.605
 4427TIP3   OH213286   5.761   4.210   4.509
 4427TIP3    H113287   5.683   4.210   4.566
 4427TIP3    H213288   5.788   4.119   4.506
 4428TIP3   OH213289   1.086   2.559   5.144
 4428TIP3    H113290   1.123   2.609   5.217
 4428TIP3    H213291   1.161   2.537   5.090
 4429TIP3   OH213292   6.154   3.390   4.759
 4429TIP3    H113293   6.116   3.461   4.812
 4429TIP3    H213294   6.161   3.317   4.820
 4430TIP3   OH213295   2.292   5.415   3.440
 4430TIP3    H113296   2.366   5.452   3.488
 4430TIP3    H213297   2.216   5.436   3.495
 4431TIP3   OH213298   5.335   4.024   4.989
 4431TIP3    H113299   5.313   4.008   4.897
 4431TIP3    H213300   5.322   3.939   5.031
 4432TIP3   OH213301   2.035   2.014   1.973
 4432TIP3    H113302   2.128   2.033   1.977
 4432TIP3    H213303   2.009   2.040   1.884
 4433TIP3   OH213304   5.399   1.954   1.298
 4433TIP3    H113305   5.485   1.932   1.333
 4433TIP3    H213306   5.348   1.982   1.374
 4434TIP3   OH213307   0.806   5.340   0.121
 4434TIP3    H113308   0.743   5.400   0.162
 4434TIP3    H213309   0.798   5.358   0.027
 4435TIP3   OH213310   3.764   0.351   1.239
 4435TIP3    H113311   3.684   0.380   1.196
 4435TIP3    H213312   3.833   0.408   1.203
 4436TIP3   OH213313   5.341   0.640   5.111
 4436TIP3    H113314   5.388   0.607   5.034
 4436TIP3    H213315   5.402   0.626   5.184
 4437TIP3   OH213316   2.047   5.223   4.257
 4437TIP3    H113317   2.108   5.287   4.294
 4437TIP3    H213318   2.103   5.155   4.220
 4438TIP3   OH213319   1.357   5.635   2.267
 4438TIP3    H113320   1.319   5.702   2.210
 4438TIP3    H213321   1.435   5.604   2.221
 4439TIP3   OH213322   0.430   2.702   0.385
 4439TIP3    H113323   0.344   2.725   0.419
 4439TIP3    H213324   0.453   2.773   0.325
 4440TIP3   OH213325   2.665   5.556   3.100
 4440TIP3    H113326   2.658   5.467   3.136
 4440TIP3    H213327   2.730   5.548   3.030
 4441TIP3   OH213328   2.946   4.398   2.881
 4441TIP3    H113329   3.025   4.366   2.926
 4441TIP3    H213330   2.926   4.331   2.817
 4442TIP3   OH213331   4.370   0.871   1.757
 4442TIP3    H113332   4.315   0.896   1.682
 4442TIP3    H213333   4.459   0.872   1.722
 4443TIP3   OH213334   0.923   3.480   4.495
 4443TIP3    H113335   1.018   3.472   4.490
 4443TIP3    H213336   0.894   3.484   4.404
 4444TIP3   OH213337   3.766   3.771   3.567
 4444TIP3    H113338   3.809   3.737   3.489
 4444TIP3    H213339   3.683   3.807   3.535
 4445TIP3   OH213340   4.728   0.325   4.148
 4445TIP3    H113341   4.771   0.243   4.122
 4445TIP3    H213342   4.742   0.383   4.073
 4446TIP3   OH213343   5.718   4.077   0.705
 4446TIP3    H113344   5.734   4.171   0.699
 4446TIP3    H213345   5.785   4.046   0.767
 4447TIP3   OH213346   5.118   0.830   0.379
 4447TIP3    H113347   5.089   0.901   0.436
 4447TIP3    H213348   5.149   0.875   0.300
 4448TIP3   OH213349   1.210   3.100   2.399
 4448TIP3    H113350   1.286   3.048   2.427
 4448TIP3    H213351   1.199   3.078   2.307
 4449TIP3   OH213352   0.551   0.408   3.633
 4449TIP3    H113353   0.558   0.314   3.614
 4449TIP3    H213354   0.642   0.437   3.644
 4450TIP3   OH213355   1.942   4.110   1.201
 4450TIP3    H113356   1.974   4.108   1.291
 4450TIP3    H213357   1.993   4.042   1.156
 4451TIP3   OH213358   0.421   3.404   3.427
 4451TIP3    H113359   0.348   3.461   3.404
 4451TIP3    H213360   0.386   3.345   3.494
 4452TIP3   OH213361   1.849   3.717   3.754
 4452TIP3    H113362   1.757   3.735   3.737
 4452TIP3    H213363   1.872   3.648   3.691
 4453TIP3   OH213364   0.881   1.135   5.039
 4453TIP3    H113365   0.820   1.150   4.966
 4453TIP3    H213366   0.932   1.060   5.011
 4454TIP3   OH213367   4.207   4.579   2.006
 4454TIP3    H113368   4.243   4.563   1.919
 4454TIP3    H213369   4.277   4.556   2.066
 4455TIP3   OH213370   5.227   0.952   3.298
 4455TIP3    H113371   5.175   0.983   3.223
 4455TIP3    H213372   5.161   0.924   3.361
 4456TIP3   OH213373   0.924   0.438   1.999
 4456TIP3    H113374   0.937   0.522   1.956
 4456TIP3    H213375   1.012   0.410   2.024
 4457TIP3   OH213376   6.096   1.050   0.752
 4457TIP3    H113377   6.076   1.049   0.846
 4457TIP3    H213378   6.063   0.966   0.719
 4458TIP3   OH213379   1.404   5.167   2.273
 4458TIP3    H113380   1.391   5.072   2.277
 4458TIP3    H213381   1.320   5.201   2.245
 4459TIP3   OH213382   4.584   5.127   3.441
 4459TIP3    H113383   4.633   5.063   3.389
 4459TIP3    H213384   4.600   5.102   3.532
 4460TIP3   OH213385   3.276   5.641   2.332
 4460TIP3    H113386   3.272   5.583   2.408
 4460TIP3    H213387   3.193   5.688   2.333
 4461TIP3   OH213388   1.803   3.962   4.025
 4461TIP3    H113389   1.767   4.040   4.067
 4461TIP3    H213390   1.726   3.914   3.995
 4462TIP3   OH213391   3.821   1.057   5.166
 4462TIP3    H113392   3.909   1.059   5.205
 4462TIP3    H213393   3.836   1.064   5.072
 4463TIP3   OH213394   1.089   5.232   2.759
 4463TIP3    H113395   0.998   5.214   2.733
 4463TIP3    H213396   1.135   5.247   2.677
 4464TIP3   OH213397   1.585   0.238   0.830
 4464TIP3    H113398   1.637   0.161   0.807
 4464TIP3    H213399   1.528   0.208   0.900
 4465TIP3   OH213400   5.176   0.042   5.065
 4465TIP3    H113401   5.114   0.085   5.006
 4465TIP3    H213402   5.259   0.044   5.017
 4466TIP3   OH213403   3.584   0.488   4.612
 4466TIP3    H113404   3.498   0.514   4.579
 4466TIP3    H213405   3.618   0.428   4.547
 4467TIP3   OH213406   1.742   4.482   0.834
 4467TIP3    H113407   1.784   4.404   0.800
 4467TIP3    H213408   1.806   4.552   0.820
 4468TIP3   OH213409   4.394   2.423   0.865
 4468TIP3    H113410   4.489   2.430   0.856
 4468TIP3    H213411   4.381   2.370   0.944
 4469TIP3   OH213412   0.214   5.521   3.949
 4469TIP3    H113413   0.267   5.442   3.941
 4469TIP3    H213414   0.137   5.504   3.894
 4470TIP3   OH213415   0.988   5.897   5.037
 4470TIP3    H113416   0.985   5.805   5.063
 4470TIP3    H213417   1.075   5.926   5.065
 4471TIP3   OH213418   1.567   3.073   3.120
 4471TIP3    H113419   1.543   3.160   3.152
 4471TIP3    H213420   1.530   3.068   3.032
 4472TIP3   OH213421   0.621   2.165   0.750
 4472TIP3    H113422   0.671   2.087   0.770
 4472TIP3    H213423   0.676   2.215   0.691
 4473TIP3   OH213424   1.584   2.892   0.854
 4473TIP3    H113425   1.509   2.924   0.905
 4473TIP3    H213426   1.606   2.964   0.796
 4474TIP3   OH213427   3.117   4.331   1.941
 4474TIP3    H113428   3.203   4.292   1.955
 4474TIP3    H213429   3.119   4.412   1.992
 4475TIP3   OH213430   4.949   1.738   4.567
 4475TIP3    H113431   5.035   1.771   4.541
 4475TIP3    H213432   4.949   1.646   4.539
 4476TIP3   OH213433   5.773   3.290   3.372
 4476TIP3    H113434   5.713   3.363   3.384
 4476TIP3    H213435   5.720   3.221   3.335
 4477TIP3   OH213436   2.388   4.192   0.467
 4477TIP3    H113437   2.468   4.140   0.473
 4477TIP3    H213438   2.418   4.283   0.461
 4478TIP3   OH213439   1.226   2.778   1.710
 4478TIP3    H113440   1.150   2.808   1.661
 4478TIP3    H213441   1.299   2.786   1.648
 4479TIP3   OH213442   1.151   0.834   0.064
 4479TIP3    H113443   1.189   0.920   0.083
 4479TIP3    H213444   1.131   0.837  -0.029
 4480TIP3   OH213445   2.240   0.822   3.902
 4480TIP3    H113446   2.224   0.799   3.810
 4480TIP3    H213447   2.322   0.778   3.924
 4481TIP3   OH213448   2.362   1.455   3.584
 4481TIP3    H113449   2.338   1.520   3.518
 4481TIP3    H213450   2.343   1.499   3.667
 4482TIP3   OH213451   5.560   5.512   4.871
 4482TIP3    H113452   5.527   5.423   4.857
 4482TIP3    H213453   5.586   5.513   4.964
 4483TIP3   OH213454   4.448   2.952   1.583
 4483TIP3    H113455   4.534   2.983   1.554
 4483TIP3    H213456   4.412   2.907   1.507
 4484TIP3   OH213457   4.557   4.120   4.745
 4484TIP3    H113458   4.550   4.212   4.723
 4484TIP3    H213459   4.473   4.082   4.718
 4485TIP3   OH213460   6.050   5.296   2.483
 4485TIP3    H113461   6.060   5.236   2.409
 4485TIP3    H213462   6.004   5.245   2.549
 4486TIP3   OH213463   5.904   2.239   4.249
 4486TIP3    H113464   5.937   2.163   4.200
 4486TIP3    H213465   5.868   2.297   4.182
 4487TIP3   OH213466   4.306   2.041   1.805
 4487TIP3    H113467   4.281   1.950   1.789
 4487TIP3    H213468   4.301   2.050   1.901
 4488TIP3   OH213469   0.269   3.963   3.168
 4488TIP3    H113470   0.222   3.891   3.127
 4488TIP3    H213471   0.291   3.932   3.255
 4489TIP3   OH213472   4.776   3.486   4.895
 4489TIP3    H113473   4.763   3.580   4.882
 4489TIP3    H213474   4.705   3.445   4.847
 4490TIP3   OH213475   3.177   4.567   0.092
 4490TIP3    H113476   3.101   4.546   0.038
 4490TIP3    H213477   3.202   4.483   0.132
 4491TIP3   OH213478   2.094   3.971   0.860
 4491TIP3    H113479   2.002   3.948   0.867
 4491TIP3    H213480   2.118   3.949   0.770
 4492TIP3   OH213481   4.144   4.084   4.846
 4492TIP3    H113482   4.153   4.014   4.781
 4492TIP3    H213483   4.222   4.074   4.902
 4493TIP3   OH213484   3.696   0.265   3.249
 4493TIP3    H113485   3.632   0.323   3.208
 4493TIP3    H213486   3.651   0.229   3.325
 4494TIP3   OH213487   2.667   2.078   4.717
 4494TIP3    H113488   2.710   2.045   4.639
 4494TIP3    H213489   2.573   2.075   4.696
 4495TIP3   OH213490   1.908   0.652   2.876
 4495TIP3    H113491   1.827   0.602   2.891
 4495TIP3    H213492   1.946   0.612   2.798
 4496TIP3   OH213493   4.448   0.824   1.196
 4496TIP3    H113494   4.533   0.790   1.166
 4496TIP3    H213495   4.460   0.919   1.195
 4497TIP3   OH213496   2.074   5.677   3.275
 4497TIP3    H113497   2.087   5.589   3.241
 4497TIP3    H213498   1.983   5.697   3.255
 4498TIP3   OH213499   0.066   3.712   2.399
 4498TIP3    H113500   0.053   3.770   2.325
 4498TIP3    H213501   0.077   3.625   2.360
 4499TIP3   OH213502   0.865   4.059   4.871
 4499TIP3    H113503   0.809   3.994   4.829
 4499TIP3    H213504   0.818   4.083   4.951
 4500TIP3   OH213505   6.025   1.191   1.629
 4500TIP3    H113506   5.929   1.198   1.634
 4500TIP3    H213507   6.044   1.181   1.536
 4501TIP3   OH213508   1.209   2.903   1.193
 4501TIP3    H113509   1.271   2.923   1.262
 4501TIP3    H213510   1.185   2.812   1.207
 4502TIP3   OH213511   0.518   0.157   0.548
 4502TIP3    H113512   0.548   0.067   0.559
 4502TIP3    H213513   0.516   0.192   0.637
 4503TIP3   OH213514   2.196   4.223   4.773
 4503TIP3    H113515   2.235   4.270   4.699
 4503TIP3    H213516   2.104   4.250   4.772
 4504TIP3   OH213517   5.806   1.376   0.275
 4504TIP3    H113518   5.814   1.343   0.185
 4504TIP3    H213519   5.737   1.322   0.314
 4505TIP3   OH213520   0.370   5.841   3.389
 4505TIP3    H113521   0.300   5.864   3.450
 4505TIP3    H213522   0.358   5.748   3.373
 4506TIP3   OH213523   4.384   4.861   0.166
 4506TIP3    H113524   4.473   4.873   0.201
 4506TIP3    H213525   4.398   4.839   0.074
 4507TIP3   OH213526   1.182   3.642   3.174
 4507TIP3    H113527   1.180   3.559   3.128
 4507TIP3    H213528   1.112   3.694   3.134
 4508TIP3   OH213529   4.641   4.887   0.234
 4508TIP3    H113530   4.719   4.888   0.178
 4508TIP3    H213531   4.673   4.915   0.320
 4509TIP3   OH213532   4.096   1.007   2.638
 4509TIP3    H113533   4.162   0.953   2.681
 4509TIP3    H213534   4.120   1.097   2.660
 4510TIP3   OH213535   3.790   2.835   2.580
 4510TIP3    H113536   3.815   2.925   2.603
 4510TIP3    H213537   3.866   2.782   2.603
 4511TIP3   OH213538   5.631   0.723   4.958
 4511TIP3    H113539   5.593   0.636   4.970
 4511TIP3    H213540   5.606   0.749   4.870
 4512TIP3   OH213541   6.272   3.806   3.268
 4512TIP3    H113542   6.178   3.815   3.250
 4512TIP3    H213543   6.313   3.802   3.182
 4513TIP3   OH213544   1.764   2.818   1.688
 4513TIP3    H113545   1.822   2.888   1.662
 4513TIP3    H213546   1.788   2.799   1.778
 4514TIP3   OH213547   5.664   1.002   2.997
 4514TIP3    H113548   5.651   0.942   2.924
 4514TIP3    H213549   5.608   0.969   3.066
 4515TIP3   OH213550   0.967   1.790   2.639
 4515TIP3    H113551   0.959   1.706   2.593
 4515TIP3    H213552   0.937   1.771   2.728
 4516TIP3   OH213553   3.986   2.741   2.107
 4516TIP3    H113554   3.920   2.756   2.174
 4516TIP3    H213555   4.051   2.684   2.150
 4517TIP3   OH213556   4.950   2.250   3.236
 4517TIP3    H113557   5.012   2.322   3.253
 4517TIP3    H213558   4.906   2.236   3.319
 4518TIP3   OH213559   0.965  -0.058   3.525
 4518TIP3    H113560   0.960  -0.009   3.607
 4518TIP3    H213561   0.878  -0.097   3.514
 4519TIP3   OH213562   4.304   4.079   4.241
 4519TIP3    H113563   4.214   4.048   4.246
 4519TIP3    H213564   4.355   4.013   4.288
 4520TIP3   OH213565   2.326   5.374   1.749
 4520TIP3    H113566   2.282   5.355   1.832
 4520TIP3    H213567   2.296   5.462   1.727
 4521TIP3   OH213568   5.046   0.556   1.436
 4521TIP3    H113569   4.984   0.484   1.423
 4521TIP3    H213570   5.042   0.575   1.530
 4522TIP3   OH213571   3.261   0.373   3.105
 4522TIP3    H113572   3.190   0.390   3.043
 4522TIP3    H213573   3.217   0.339   3.183
 4523TIP3   OH213574   4.972   1.215   1.228
 4523TIP3    H113575   4.941   1.250   1.312
 4523TIP3    H213576   5.021   1.136   1.251
 4524TIP3   OH213577   3.669   4.118   1.106
 4524TIP3    H113578   3.705   4.030   1.114
 4524TIP3    H213579   3.601   4.123   1.173
 4525TIP3   OH213580   4.873   3.124   3.897
 4525TIP3    H113581   4.959   3.092   3.923
 4525TIP3    H213582   4.840   3.058   3.836
 4526TIP3   OH213583   2.412   4.857   4.121
 4526TIP3    H113584   2.439   4.947   4.101
 4526TIP3    H213585   2.381   4.861   4.212
 4527TIP3   OH213586   3.586   2.490   5.183
 4527TIP3    H113587   3.518   2.507   5.118
 4527TIP3    H213588   3.606   2.397   5.174
 4528TIP3   OH213589   5.307   2.705   4.762
 4528TIP3    H113590   5.383   2.652   4.739
 4528TIP3    H213591   5.286   2.753   4.682
 4529TIP3   OH213592   0.894   5.059   0.693
 4529TIP3    H113593   0.949   5.074   0.616
 4529TIP3    H213594   0.941   4.993   0.744
 4530TIP3   OH213595   1.268   1.396   4.821
 4530TIP3    H113596   1.301   1.441   4.743
 4530TIP3    H213597   1.178   1.425   4.830
 4531TIP3   OH213598   5.540   4.561   0.373
 4531TIP3    H113599   5.513   4.484   0.422
 4531TIP3    H213600   5.471   4.575   0.308
 4532TIP3   OH213601   6.233   2.932   2.704
 4532TIP3    H113602   6.240   2.839   2.723
 4532TIP3    H213603   6.263   2.942   2.614
 4533TIP3   OH213604   2.455   2.949   1.112
 4533TIP3    H113605   2.505   2.886   1.060
 4533TIP3    H213606   2.365   2.936   1.084
 4534TIP3   OH213607   1.249   5.797   3.062
 4534TIP3    H113608   1.236   5.845   2.980
 4534TIP3    H213609   1.328   5.836   3.099
 4535TIP3   OH213610   1.827   3.038   4.768
 4535TIP3    H113611   1.783   2.955   4.789
 4535TIP3    H213612   1.906   3.036   4.822
 4536TIP3   OH213613   2.508   0.583   0.165
 4536TIP3    H113614   2.550   0.572   0.250
 4536TIP3    H213615   2.573   0.550   0.102
 4537TIP3   OH213616   0.191   1.208   2.670
 4537TIP3    H113617   0.185   1.265   2.747
 4537TIP3    H213618   0.115   1.230   2.617
 4538TIP3   OH213619   2.882   5.088   1.718
 4538TIP3    H113620   2.820   5.157   1.693
 4538TIP3    H213621   2.900   5.105   1.811
 4539TIP3   OH213622   4.735   1.247   1.066
 4539TIP3    H113623   4.763   1.219   0.979
 4539TIP3    H213624   4.811   1.229   1.122
 4540TIP3   OH213625   3.384   0.503   1.430
 4540TIP3    H113626   3.322   0.432   1.450
 4540TIP3    H213627   3.368   0.523   1.338
 4541TIP3   OH213628   2.333   5.295   0.269
 4541TIP3    H113629   2.333   5.386   0.240
 4541TIP3    H213630   2.401   5.253   0.215
 4542TIP3   OH213631   0.727   5.198   3.892
 4542TIP3    H113632   0.739   5.282   3.847
 4542TIP3    H213633   0.705   5.221   3.982
 4543TIP3   OH213634   3.583   5.404   1.904
 4543TIP3    H113635   3.552   5.322   1.865
 4543TIP3    H213636   3.510   5.434   1.958
 4544TIP3   OH213637   2.562   5.968   3.298
 4544TIP3    H113638   2.616   5.912   3.353
 4544TIP3    H213639   2.614   5.980   3.218
 4545TIP3   OH213640   5.037   4.473   1.921
 4545TIP3    H113641   5.025   4.544   1.858
 4545TIP3    H213642   4.995   4.398   1.880
 4546TIP3   OH213643   0.659   0.146   3.616
 4546TIP3    H113644   0.729   0.187   3.667
 4546TIP3    H213645   0.687   0.157   3.525
 4547TIP3   OH213646   2.224   1.599   3.398
 4547TIP3    H113647   2.245   1.573   3.308
 4547TIP3    H213648   2.150   1.660   3.389
 4548TIP3   OH213649   4.163   1.096   3.617
 4548TIP3    H113650   4.117   1.106   3.533
 4548TIP3    H213651   4.223   1.171   3.620
 4549TIP3   OH213652   3.130   3.443   1.666
 4549TIP3    H113653   3.045   3.462   1.627
 4549TIP3    H213654   3.189   3.510   1.629
 4550TIP3   OH213655   3.293   0.950   4.488
 4550TIP3    H113656   3.303   0.943   4.393
 4550TIP3    H213657   3.201   0.925   4.504
 4551TIP3   OH213658   6.405   0.270   1.098
 4551TIP3    H113659   6.379   0.206   1.031
 4551TIP3    H213660   6.322   0.306   1.131
 4552TIP3   OH213661   0.367   0.210   0.291
 4552TIP3    H113662   0.388   0.132   0.240
 4552TIP3    H213663   0.408   0.196   0.376
 4553TIP3   OH213664   4.599   0.548   2.330
 4553TIP3    H113665   4.629   0.593   2.409
 4553TIP3    H213666   4.526   0.494   2.361
 4554TIP3   OH213667   6.064   5.194   0.869
 4554TIP3    H113668   6.109   5.269   0.909
 4554TIP3    H213669   6.082   5.121   0.928
 4555TIP3   OH213670   5.252   2.345   1.433
 4555TIP3    H113671   5.344   2.351   1.458
 4555TIP3    H213672   5.220   2.434   1.438
 4556TIP3   OH213673   5.685   5.559   0.805
 4556TIP3    H113674   5.771   5.589   0.780
 4556TIP3    H213675   5.673   5.477   0.757
 4557TIP3   OH213676   1.514   0.230   0.238
 4557TIP3    H113677   1.514   0.325   0.242
 4557TIP3    H213678   1.595   0.207   0.192
 4558TIP3   OH213679   4.898   2.305   1.973
 4558TIP3    H113680   4.969   2.360   2.005
 4558TIP3    H213681   4.847   2.284   2.052
 4559TIP3   OH213682   0.914   5.769   3.030
 4559TIP3    H113683   0.945   5.841   2.975
 4559TIP3    H213684   0.818   5.777   3.028
 4560TIP3   OH213685   2.194   0.348   3.413
 4560TIP3    H113686   2.139   0.420   3.384
 4560TIP3    H213687   2.147   0.309   3.487
 4561TIP3   OH213688   2.704   4.021   0.245
 4561TIP3    H113689   2.719   3.971   0.165
 4561TIP3    H213690   2.673   4.107   0.214
 4562TIP3   OH213691   4.804   0.787   2.496
 4562TIP3    H113692   4.812   0.851   2.567
 4562TIP3    H213693   4.745   0.720   2.530
 4563TIP3   OH213694   2.382   5.115   3.124
 4563TIP3    H113695   2.462   5.069   3.149
 4563TIP3    H213696   2.412   5.190   3.072
 4564TIP3   OH213697   4.067   3.595   2.333
 4564TIP3    H113698   4.085   3.546   2.253
 4564TIP3    H213699   4.086   3.533   2.404
 4565TIP3   OH213700   6.312   1.811   0.507
 4565TIP3    H113701   6.340   1.799   0.416
 4565TIP3    H213702   6.379   1.868   0.545
 4566TIP3   OH213703   0.405   0.132   2.677
 4566TIP3    H113704   0.378   0.187   2.603
 4566TIP3    H213705   0.480   0.178   2.714
 4567TIP3   OH213706   2.984   3.239   1.788
 4567TIP3    H113707   2.921   3.289   1.841
 4567TIP3    H213708   3.037   3.306   1.746
 4568TIP3   OH213709   0.656   2.028   1.922
 4568TIP3    H113710   0.681   1.977   1.845
 4568TIP3    H213711   0.639   1.963   1.990
 4569TIP3   OH213712   0.943   0.213   5.128
 4569TIP3    H113713   0.931   0.291   5.182
 4569TIP3    H213714   0.868   0.157   5.150
 4570TIP3   OH213715   4.504   4.400   0.128
 4570TIP3    H113716   4.579   4.340   0.136
 4570TIP3    H213717   4.513   4.460   0.202
 4571TIP3   OH213718   4.507   0.816   2.758
 4571TIP3    H113719   4.420   0.776   2.747
 4571TIP3    H213720   4.490   0.895   2.809
 4572TIP3   OH213721   4.878   5.439   2.206
 4572TIP3    H113722   4.857   5.414   2.116
 4572TIP3    H213723   4.925   5.364   2.242
 4573TIP3   OH213724   1.117   1.235   4.387
 4573TIP3    H113725   1.164   1.302   4.437
 4573TIP3    H213726   1.025   1.245   4.413
 4574TIP3   OH213727   4.331   2.787   2.238
 4574TIP3    H113728   4.300   2.776   2.328
 4574TIP3    H213729   4.411   2.735   2.233
 4575TIP3   OH213730   4.275   1.200   2.298
 4575TIP3    H113731   4.298   1.199   2.391
 4575TIP3    H213732   4.286   1.109   2.269
 4576TIP3   OH213733   3.101   5.248   0.876
 4576TIP3    H113734   3.025   5.210   0.831
 4576TIP3    H213735   3.066   5.281   0.958
 4577TIP3   OH213736   5.030   5.029   0.542
 4577TIP3    H113737   5.124   5.041   0.528
 4577TIP3    H213738   5.018   5.041   0.636
 4578TIP3   OH213739   0.263   2.215   3.444
 4578TIP3    H113740   0.311   2.199   3.526
 4578TIP3    H213741   0.228   2.129   3.420
 4579TIP3   OH213742   2.501   3.819   3.865
 4579TIP3    H113743   2.459   3.775   3.939
 4579TIP3    H213744   2.586   3.847   3.900
 4580TIP3   OH213745   0.322   5.361   0.033
 4580TIP3    H113746   0.341   5.268   0.041
 4580TIP3    H213747   0.358   5.386  -0.052
 4581TIP3   OH213748   0.106   0.699   5.056
 4581TIP3    H113749   0.054   0.756   5.113
 4581TIP3    H213750   0.180   0.672   5.110
 4582TIP3   OH213751   0.341   4.845   1.345
 4582TIP3    H113752   0.348   4.893   1.427
 4582TIP3    H213753   0.402   4.890   1.286
 4583TIP3   OH213754   1.241   3.905   3.377
 4583TIP3    H113755   1.182   3.836   3.408
 4583TIP3    H213756   1.292   3.864   3.307
 4584TIP3   OH213757   0.334   2.620   2.428
 4584TIP3    H113758   0.424   2.622   2.396
 4584TIP3    H213759   0.338   2.570   2.509
 4585TIP3   OH213760   3.345   3.652   1.100
 4585TIP3    H113761   3.434   3.663   1.066
 4585TIP3    H213762   3.357   3.633   1.194
 4586TIP3   OH213763   0.599   3.518   4.920
 4586TIP3    H113764   0.655   3.473   4.983
 4586TIP3    H213765   0.631   3.608   4.918
 4587TIP3   OH213766   6.277   2.841   1.441
 4587TIP3    H113767   6.212   2.842   1.511
 4587TIP3    H213768   6.239   2.894   1.371
 4588TIP3   OH213769   5.167   5.958   0.095
 4588TIP3    H113770   5.227   6.002   0.034
 4588TIP3    H213771   5.224   5.928   0.167
 4589TIP3   OH213772   3.249   1.866   3.266
 4589TIP3    H113773   3.324   1.922   3.286
 4589TIP3    H213774   3.241   1.870   3.171
 4590TIP3   OH213775   6.205   2.014   2.924
 4590TIP3    H113776   6.268   1.967   2.979
 4590TIP3    H213777   6.215   1.974   2.837
 4591TIP3   OH213778   1.453   1.943   4.578
 4591TIP3    H113779   1.527   1.983   4.622
 4591TIP3    H213780   1.392   1.920   4.648
 4592TIP3   OH213781   3.138   0.170   3.842
 4592TIP3    H113782   3.188   0.179   3.761
 4592TIP3    H213783   3.094   0.086   3.834
 4593TIP3   OH213784   1.430   5.832   3.383
 4593TIP3    H113785   1.511   5.791   3.351
 4593TIP3    H213786   1.460   5.908   3.432
 4594TIP3   OH213787   3.507   5.617   1.333
 4594TIP3    H113788   3.444   5.662   1.390
 4594TIP3    H213789   3.487   5.524   1.345
 4595TIP3   OH213790   2.195   0.979   2.885
 4595TIP3    H113791   2.202   0.909   2.950
 4595TIP3    H213792   2.101   0.988   2.868
 4596TIP3   OH213793   1.193   4.627   3.458
 4596TIP3    H113794   1.126   4.600   3.521
 4596TIP3    H213795   1.270   4.575   3.481
 4597TIP3   OH213796   3.574   0.366   2.501
 4597TIP3    H113797   3.667   0.388   2.498
 4597TIP3    H213798   3.537   0.409   2.424
 4598TIP3   OH213799   0.071   4.285   2.218
 4598TIP3    H113800  -0.007   4.331   2.250
 4598TIP3    H213801   0.058   4.278   2.124
 4599TIP3   OH213802   1.448   5.153   0.076
 4599TIP3    H113803   1.505   5.230   0.072
 4599TIP3    H213804   1.450   5.117  -0.013
 4600TIP3   OH213805   4.191   2.840   1.459
 4600TIP3    H113806   4.150   2.793   1.531
 4600TIP3    H213807   4.121   2.894   1.423
 4601TIP3   OH213808   0.779   4.141   1.821
 4601TIP3    H113809   0.706   4.171   1.767
 4601TIP3    H213810   0.787   4.048   1.800
 4602TIP3   OH213811   5.928   4.222   4.878
 4602TIP3    H113812   5.940   4.269   4.796
 4602TIP3    H213813   5.940   4.290   4.946
 4603TIP3   OH213814   1.455   4.310   3.590
 4603TIP3    H113815   1.477   4.218   3.610
 4603TIP3    H213816   1.374   4.305   3.539
 4604TIP3   OH213817   1.358   3.768   1.912
 4604TIP3    H113818   1.308   3.697   1.872
 4604TIP3    H213819   1.297   3.842   1.914
 4605TIP3   OH213820   6.305   0.110   4.271
 4605TIP3    H113821   6.337   0.072   4.188
 4605TIP3    H213822   6.210   0.100   4.266
 4606TIP3   OH213823   4.706   5.866   1.726
 4606TIP3    H113824   4.715   5.941   1.666
 4606TIP3    H213825   4.764   5.888   1.799
 4607TIP3   OH213826   0.193   4.016   2.772
 4607TIP3    H113827   0.098   4.017   2.764
 4607TIP3    H213828   0.209   4.044   2.863
 4608TIP3   OH213829   3.333   5.300   0.248
 4608TIP3    H113830   3.390   5.238   0.203
 4608TIP3    H213831   3.269   5.326   0.182
 4609TIP3   OH213832   4.056   2.492   0.443
 4609TIP3    H113833   4.096   2.461   0.525
 4609TIP3    H213834   3.977   2.539   0.471
 4610TIP3   OH213835   3.598   1.937   1.151
 4610TIP3    H113836   3.559   1.900   1.230
 4610TIP3    H213837   3.679   1.887   1.138
 4611TIP3   OH213838   1.646   1.539   2.993
 4611TIP3    H113839   1.577   1.492   3.039
 4611TIP3    H213840   1.600   1.607   2.944
 4612TIP3   OH213841   1.161   1.690   3.737
 4612TIP3    H113842   1.205   1.676   3.653
 4612TIP3    H213843   1.159   1.603   3.777
 4613TIP3   OH213844   0.023   4.020   0.384
 4613TIP3    H113845  -0.068   4.039   0.362
 4613TIP3    H213846   0.069   4.027   0.300
 4614TIP3   OH213847   0.282   1.751   0.264
 4614TIP3    H113848   0.191   1.752   0.235
 4614TIP3    H213849   0.297   1.661   0.295
 4615TIP3   OH213850   0.806   3.457   1.797
 4615TIP3    H113851   0.839   3.442   1.709
 4615TIP3    H213852   0.853   3.535   1.828
 4616TIP3   OH213853   1.366   0.560   0.395
 4616TIP3    H113854   1.408   0.510   0.326
 4616TIP3    H213855   1.342   0.495   0.461
 4617TIP3   OH213856   4.273   0.568   3.816
 4617TIP3    H113857   4.329   0.645   3.826
 4617TIP3    H213858   4.255   0.563   3.722
 4618TIP3   OH213859   3.211   2.830   4.860
 4618TIP3    H113860   3.187   2.914   4.821
 4618TIP3    H213861   3.214   2.847   4.954
 4619TIP3   OH213862   1.180   2.648   2.705
 4619TIP3    H113863   1.113   2.636   2.773
 4619TIP3    H213864   1.245   2.704   2.747
 4620TIP3   OH213865   5.192   1.608   1.346
 4620TIP3    H113866   5.272   1.641   1.305
 4620TIP3    H213867   5.210   1.515   1.361
 4621TIP3   OH213868   3.806   5.614  -0.012
 4621TIP3    H113869   3.798   5.568   0.071
 4621TIP3    H213870   3.794   5.706   0.010
 4622TIP3   OH213871   5.426   3.010   0.525
 4622TIP3    H113872   5.408   3.103   0.516
 4622TIP3    H213873   5.508   2.997   0.477
 4623TIP3   OH213874   4.155   5.040   4.262
 4623TIP3    H113875   4.192   5.004   4.181
 4623TIP3    H213876   4.060   5.033   4.250
 4624TIP3   OH213877   6.097   4.192   2.345
 4624TIP3    H113878   6.033   4.179   2.415
 4624TIP3    H213879   6.117   4.286   2.348
 4625TIP3   OH213880   3.599   5.772   2.581
 4625TIP3    H113881   3.668   5.716   2.616
 4625TIP3    H213882   3.518   5.721   2.590
 4626TIP3   OH213883   1.741   5.132   2.134
 4626TIP3    H113884   1.735   5.037   2.136
 4626TIP3    H213885   1.833   5.151   2.153
 4627TIP3   OH213886   5.039   1.582   2.242
 4627TIP3    H113887   4.963   1.634   2.269
 4627TIP3    H213888   5.086   1.565   2.324
 4628TIP3   OH213889   4.669   0.756   1.047
 4628TIP3    H113890   4.714   0.732   0.966
 4628TIP3    H213891   4.687   0.684   1.107
 4629TIP3   OH213892   2.382   4.107   1.348
 4629TIP3    H113893   2.474   4.131   1.363
 4629TIP3    H213894   2.372   4.110   1.253
 4630TIP3   OH213895   5.918   2.755   1.921
 4630TIP3    H113896   5.834   2.757   1.966
 4630TIP3    H213897   5.920   2.836   1.871
 4631TIP3   OH213898   4.437   4.264   0.622
 4631TIP3    H113899   4.529   4.287   0.638
 4631TIP3    H213900   4.388   4.316   0.686
 4632TIP3   OH213901   1.908   4.151   4.591
 4632TIP3    H113902   1.937   4.141   4.681
 4632TIP3    H213903   1.822   4.194   4.598
 4633TIP3   OH213904   4.060   4.238   4.418
 4633TIP3    H113905   4.153   4.221   4.428
 4633TIP3    H213906   4.047   4.244   4.323
 4634TIP3   OH213907   2.122   4.671   2.027
 4634TIP3    H113908   2.210   4.689   1.994
 4634TIP3    H213909   2.107   4.579   2.007
 4635TIP3   OH213910   3.657   0.137   4.653
 4635TIP3    H113911   3.708   0.187   4.590
 4635TIP3    H213912   3.604   0.202   4.699
 4636TIP3   OH213913   5.630   5.932   3.709
 4636TIP3    H113914   5.597   6.019   3.731
 4636TIP3    H213915   5.652   5.893   3.794
 4637TIP3   OH213916   2.991   0.415   3.827
 4637TIP3    H113917   3.035   0.334   3.849
 4637TIP3    H213918   2.898   0.399   3.845
 4638TIP3   OH213919   1.754   4.601   3.289
 4638TIP3    H113920   1.815   4.542   3.334
 4638TIP3    H213921   1.668   4.562   3.302
 4639TIP3   OH213922   2.667   4.376   0.349
 4639TIP3    H113923   2.750   4.379   0.301
 4639TIP3    H213924   2.604   4.341   0.286
 4640TIP3   OH213925   6.297   1.303   1.695
 4640TIP3    H113926   6.243   1.248   1.638
 4640TIP3    H213927   6.381   1.257   1.700
 4641TIP3   OH213928   0.634   1.805   2.244
 4641TIP3    H113929   0.618   1.745   2.316
 4641TIP3    H213930   0.574   1.776   2.175
 4642TIP3   OH213931   6.202   2.634   4.010
 4642TIP3    H113932   6.148   2.659   3.935
 4642TIP3    H213933   6.291   2.627   3.976
 4643TIP3   OH213934   4.457   3.064   2.827
 4643TIP3    H113935   4.501   3.142   2.793
 4643TIP3    H213936   4.412   3.027   2.750
 4644TIP3   OH213937   4.555   0.601   4.331
 4644TIP3    H113938   4.552   0.605   4.236
 4644TIP3    H213939   4.469   0.571   4.357
 4645TIP3   OH213940   1.618   3.114   2.709
 4645TIP3    H113941   1.633   3.044   2.772
 4645TIP3    H213942   1.662   3.084   2.629
 4646TIP3   OH213943   2.719   2.177   1.477
 4646TIP3    H113944   2.674   2.169   1.561
 4646TIP3    H213945   2.799   2.225   1.497
 4647TIP3   OH213946   3.087   4.018   1.039
 4647TIP3    H113947   3.172   4.009   0.996
 4647TIP3    H213948   3.083   3.943   1.099
 4648TIP3   OH213949   1.533   3.581   3.090
 4648TIP3    H113950   1.619   3.559   3.053
 4648TIP3    H213951   1.482   3.612   3.015
 4649TIP3   OH213952   5.795   0.810   1.258
 4649TIP3    H113953   5.850   0.790   1.334
 4649TIP3    H213954   5.706   0.806   1.291
 4650TIP3   OH213955   0.676   4.349   0.191
 4650TIP3    H113956   0.698   4.330   0.099
 4650TIP3    H213957   0.654   4.442   0.191
 4651TIP3   OH213958   5.628   5.293   4.427
 4651TIP3    H113959   5.658   5.374   4.469
 4651TIP3    H213960   5.676   5.290   4.344
 4652TIP3   OH213961   5.395   4.025   0.343
 4652TIP3    H113962   5.467   4.035   0.280
 4652TIP3    H213963   5.419   3.950   0.396
 4653TIP3   OH213964   4.759   1.190   5.036
 4653TIP3    H113965   4.799   1.109   5.003
 4653TIP3    H213966   4.666   1.181   5.014
 4654TIP3   OH213967   2.769   2.344   4.916
 4654TIP3    H113968   2.806   2.432   4.905
 4654TIP3    H213969   2.726   2.326   4.833
 4655TIP3   OH213970   1.100   1.279   0.970
 4655TIP3    H113971   1.168   1.211   0.973
 4655TIP3    H213972   1.069   1.287   1.060
 4656TIP3   OH213973   1.466   1.154   2.372
 4656TIP3    H113974   1.371   1.162   2.385
 4656TIP3    H213975   1.502   1.153   2.461
 4657TIP3   OH213976   3.415   1.250   2.914
 4657TIP3    H113977   3.447   1.311   2.981
 4657TIP3    H213978   3.399   1.169   2.962
 4658TIP3   OH213979   5.248   1.345   2.654
 4658TIP3    H113980   5.306   1.269   2.647
 4658TIP3    H213981   5.213   1.340   2.743
 4659TIP3   OH213982   1.440   2.989   2.516
 4659TIP3    H113983   1.481   3.063   2.562
 4659TIP3    H213984   1.471   2.912   2.562
 4660TIP3   OH213985   2.586   1.534   3.003
 4660TIP3    H113986   2.637   1.595   3.056
 4660TIP3    H213987   2.634   1.451   3.008
 4661TIP3   OH213988   5.275   4.364   2.839
 4661TIP3    H113989   5.180   4.368   2.829
 4661TIP3    H213990   5.308   4.358   2.750
 4662TIP3   OH213991   0.093   3.578   4.465
 4662TIP3    H113992   0.187   3.562   4.453
 4662TIP3    H213993   0.090   3.651   4.528
 4663TIP3   OH213994   1.388   3.480   3.928
 4663TIP3    H113995   1.415   3.401   3.882
 4663TIP3    H213996   1.464   3.505   3.980
 4664TIP3   OH213997   0.950   5.056   3.900
 4664TIP3    H113998   0.867   5.104   3.894
 4664TIP3    H213999   0.927   4.974   3.943
 4665TIP3   OH214000   4.428   2.831   0.177
 4665TIP3    H114001   4.384   2.835   0.092
 4665TIP3    H214002   4.367   2.873   0.238
 4666TIP3   OH214003   5.255   0.734   0.966
 4666TIP3    H114004   5.305   0.760   1.043
 4666TIP3    H214005   5.287   0.646   0.945
 4667TIP3   OH214006   1.879   4.583   3.045
 4667TIP3    H114007   1.957   4.637   3.038
 4667TIP3    H214008   1.855   4.587   3.138
 4668TIP3   OH214009   6.279   0.699   4.547
 4668TIP3    H114010   6.207   0.639   4.526
 4668TIP3    H214011   6.307   0.672   4.634
 4669TIP3   OH214012   6.123   0.093   2.614
 4669TIP3    H114013   6.058   0.127   2.675
 4669TIP3    H214014   6.157   0.172   2.570
 4670TIP3   OH214015   2.811   4.617   5.065
 4670TIP3    H114016   2.832   4.587   4.976
 4670TIP3    H214017   2.743   4.557   5.094
 4671TIP3   OH214018   3.863   3.659   4.618
 4671TIP3    H114019   3.838   3.570   4.640
 4671TIP3    H214020   3.845   3.710   4.697
 4672TIP3   OH214021   3.172   3.548   0.269
 4672TIP3    H114022   3.208   3.484   0.207
 4672TIP3    H214023   3.193   3.633   0.230
 4673TIP3   OH214024   3.719   5.290   1.546
 4673TIP3    H114025   3.789   5.238   1.505
 4673TIP3    H214026   3.648   5.227   1.559
 4674TIP3   OH214027   4.590   5.836   2.580
 4674TIP3    H114028   4.563   5.758   2.628
 4674TIP3    H214029   4.637   5.802   2.504
 4675TIP3   OH214030   1.089   3.045   3.076
 4675TIP3    H114031   1.109   2.954   3.093
 4675TIP3    H214032   1.028   3.043   3.001
 4676TIP3   OH214033   2.479   3.195   1.729
 4676TIP3    H114034   2.422   3.236   1.664
 4676TIP3    H214035   2.494   3.107   1.696
 4677TIP3   OH214036   0.980   4.302   3.851
 4677TIP3    H114037   1.021   4.337   3.930
 4677TIP3    H214038   0.967   4.209   3.870
 4678TIP3   OH214039   5.450   0.838   0.242
 4678TIP3    H114040   5.452   0.780   0.166
 4678TIP3    H214041   5.384   0.799   0.301
 4679TIP3   OH214042   3.452   1.821   3.916
 4679TIP3    H114043   3.402   1.901   3.899
 4679TIP3    H214044   3.443   1.769   3.836
 4680TIP3   OH214045   4.768   5.038   4.373
 4680TIP3    H114046   4.702   5.084   4.426
 4680TIP3    H214047   4.819   4.989   4.437
 4681TIP3   OH214048   4.307   0.492   4.512
 4681TIP3    H114049   4.294   0.585   4.489
 4681TIP3    H214050   4.219   0.461   4.534
 4682TIP3   OH214051   3.090   2.343  -0.003
 4682TIP3    H114052   3.049   2.370  -0.085
 4682TIP3    H214053   3.146   2.417   0.021
 4683TIP3   OH214054   3.542   2.905   2.496
 4683TIP3    H114055   3.588   2.985   2.470
 4683TIP3    H214056   3.608   2.853   2.543
 4684TIP3   OH214057   1.647   0.159   1.626
 4684TIP3    H114058   1.596   0.236   1.650
 4684TIP3    H214059   1.701   0.188   1.552
 4685TIP3   OH214060   2.785   5.202   2.831
 4685TIP3    H114061   2.864   5.198   2.778
 4685TIP3    H214062   2.761   5.294   2.831
 4686TIP3   OH214063   0.380   3.960   2.013
 4686TIP3    H114064   0.356   3.934   2.102
 4686TIP3    H214065   0.312   3.922   1.958
 4687TIP3   OH214066   1.946   3.417   4.715
 4687TIP3    H114067   2.009   3.404   4.786
 4687TIP3    H214068   1.938   3.331   4.674
 4688TIP3   OH214069   1.486   3.005   3.745
 4688TIP3    H114070   1.392   2.995   3.752
 4688TIP3    H214071   1.504   3.006   3.651
 4689TIP3   OH214072   4.960   2.511   1.777
 4689TIP3    H114073   4.901   2.439   1.753
 4689TIP3    H214074   4.935   2.583   1.720
 4690TIP3   OH214075   0.245   1.818   2.992
 4690TIP3    H114076   0.329   1.864   2.989
 4690TIP3    H214077   0.237   1.779   2.905
 4691TIP3   OH214078   1.529   2.473   1.434
 4691TIP3    H114079   1.560   2.470   1.344
 4691TIP3    H214080   1.435   2.456   1.428
 4692TIP3   OH214081   2.671   0.403   3.396
 4692TIP3    H114082   2.738   0.438   3.455
 4692TIP3    H214083   2.649   0.477   3.338
 4693TIP3   OH214084   3.648   1.483   0.133
 4693TIP3    H114085   3.615   1.395   0.113
 4693TIP3    H214086   3.678   1.477   0.224
 4694TIP3   OH214087   3.810   2.895   2.951
 4694TIP3    H114088   3.817   2.906   3.046
 4694TIP3    H214089   3.745   2.961   2.924
 4695TIP3   OH214090   4.446   0.955   2.517
 4695TIP3    H114091   4.474   0.907   2.595
 4695TIP3    H214092   4.428   1.043   2.548
 4696TIP3   OH214093   5.489   5.311   1.670
 4696TIP3    H114094   5.536   5.357   1.739
 4696TIP3    H214095   5.428   5.376   1.635
 4697TIP3   OH214096   2.207   0.369   4.308
 4697TIP3    H114097   2.189   0.299   4.371
 4697TIP3    H214098   2.180   0.332   4.224
 4698TIP3   OH214099   4.401   3.393   4.426
 4698TIP3    H114100   4.432   3.312   4.466
 4698TIP3    H214101   4.321   3.415   4.475
 4699TIP3   OH214102   4.153   1.350   2.112
 4699TIP3    H114103   4.214   1.301   2.168
 4699TIP3    H214104   4.077   1.367   2.169
 4700TIP3   OH214105   5.991   2.925   4.411
 4700TIP3    H114106   5.901   2.950   4.430
 4700TIP3    H214107   6.034   2.920   4.496
 4701TIP3   OH214108   1.887   3.125   4.506
 4701TIP3    H114109   1.807   3.175   4.492
 4701TIP3    H214110   1.880   3.094   4.597
 4702TIP3   OH214111   0.003   2.360   3.288
 4702TIP3    H114112  -0.018   2.302   3.362
 4702TIP3    H214113  -0.082   2.378   3.248
 4703TIP3   OH214114   1.340   3.729   4.963
 4703TIP3    H114115   1.427   3.704   4.932
 4703TIP3    H214116   1.305   3.786   4.894
 4704TIP3   OH214117   0.474   3.407   4.692
 4704TIP3    H114118   0.384   3.425   4.719
 4704TIP3    H214119   0.528   3.438   4.765
 4705TIP3   OH214120   5.604   0.793   2.828
 4705TIP3    H114121   5.681   0.766   2.878
 4705TIP3    H214122   5.621   0.764   2.738
 4706TIP3   OH214123   5.766   1.826   2.230
 4706TIP3    H114124   5.729   1.884   2.164
 4706TIP3    H214125   5.829   1.880   2.278
 4707TIP3   OH214126   0.130   5.394   2.546
 4707TIP3    H114127   0.208   5.345   2.571
 4707TIP3    H214128   0.142   5.411   2.452
 4708TIP3   OH214129   0.797   0.562   2.658
 4708TIP3    H114130   0.749   0.572   2.740
 4708TIP3    H214131   0.745   0.611   2.594
 4709TIP3   OH214132   1.885   0.306   3.920
 4709TIP3    H114133   1.824   0.320   3.993
 4709TIP3    H214134   1.837   0.248   3.861
 4710TIP3   OH214135   4.874   5.629   3.685
 4710TIP3    H114136   4.859   5.693   3.616
 4710TIP3    H214137   4.945   5.666   3.737
 4711TIP3   OH214138   4.502   0.722   3.559
 4711TIP3    H114139   4.477   0.799   3.611
 4711TIP3    H214140   4.419   0.678   3.540
 4712TIP3   OH214141   1.434   4.081   3.282
 4712TIP3    H114142   1.380   4.154   3.315
 4712TIP3    H214143   1.438   4.020   3.356
 4713TIP3   OH214144   1.290   1.799   4.063
 4713TIP3    H114145   1.346   1.733   4.022
 4713TIP3    H214146   1.247   1.752   4.135
 4714TIP3   OH214147   1.653   0.176   3.817
 4714TIP3    H114148   1.637   0.175   3.912
 4714TIP3    H214149   1.707   0.099   3.802
 4715TIP3   OH214150   2.595   0.259   1.502
 4715TIP3    H114151   2.509   0.218   1.492
 4715TIP3    H214152   2.589   0.306   1.585
 4716TIP3   OH214153   5.877   2.159   4.777
 4716TIP3    H114154   5.966   2.163   4.742
 4716TIP3    H214155   5.842   2.076   4.743
 4717TIP3   OH214156   6.294   2.235   3.691
 4717TIP3    H114157   6.273   2.328   3.683
 4717TIP3    H214158   6.281   2.200   3.603
 4718TIP3   OH214159   5.345   2.530   1.736
 4718TIP3    H114160   5.279   2.477   1.782
 4718TIP3    H214161   5.332   2.509   1.644
 4719TIP3   OH214162   3.658   2.789   0.240
 4719TIP3    H114163   3.666   2.812   0.333
 4719TIP3    H214164   3.711   2.855   0.195
 4720TIP3   OH214165   1.452   1.967   4.955
 4720TIP3    H114166   1.538   1.936   4.981
 4720TIP3    H214167   1.392   1.898   4.984
 4721TIP3   OH214168   0.860   4.151   0.396
 4721TIP3    H114169   0.950   4.167   0.367
 4721TIP3    H214170   0.821   4.238   0.400
 4722TIP3   OH214171   4.914   3.205   0.848
 4722TIP3    H114172   4.964   3.135   0.890
 4722TIP3    H214173   4.950   3.210   0.759
 4723TIP3   OH214174   3.213   4.745   1.196
 4723TIP3    H114175   3.283   4.699   1.243
 4723TIP3    H214176   3.146   4.760   1.262
 4724TIP3   OH214177   1.150   2.507   1.607
 4724TIP3    H114178   1.204   2.555   1.669
 4724TIP3    H214179   1.138   2.421   1.647
 4725TIP3   OH214180   5.820   5.241   2.738
 4725TIP3    H114181   5.741   5.224   2.687
 4725TIP3    H214182   5.841   5.333   2.721
 4726TIP3   OH214183   0.662   0.742   3.767
 4726TIP3    H114184   0.613   0.811   3.723
 4726TIP3    H214185   0.736   0.787   3.807
 4727TIP3   OH214186   0.714   4.371   3.414
 4727TIP3    H114187   0.789   4.313   3.404
 4727TIP3    H214188   0.748   4.446   3.463
 4728TIP3   OH214189   6.171   4.984   3.707
 4728TIP3    H114190   6.221   5.035   3.644
 4728TIP3    H214191   6.088   5.031   3.714
 4729TIP3   OH214192   1.235   1.703   0.558
 4729TIP3    H114193   1.177   1.682   0.485
 4729TIP3    H214194   1.192   1.777   0.602
 4730TIP3   OH214195   4.547   2.144   1.642
 4730TIP3    H114196   4.494   2.100   1.709
 4730TIP3    H214197   4.616   2.188   1.691
 4731TIP3   OH214198   3.247   2.105   1.797
 4731TIP3    H114199   3.154   2.110   1.773
 4731TIP3    H214200   3.276   2.197   1.798
 4732TIP3   OH214201   1.855   5.251   0.679
 4732TIP3    H114202   1.833   5.172   0.630
 4732TIP3    H214203   1.893   5.218   0.761
 4733TIP3   OH214204   0.203   0.212   0.065
 4733TIP3    H114205   0.254   0.257   0.132
 4733TIP3    H214206   0.159   0.141   0.113
 4734TIP3   OH214207   0.265   3.145   4.664
 4734TIP3    H114208   0.200   3.215   4.661
 4734TIP3    H214209   0.290   3.131   4.573
 4735TIP3   OH214210   2.000   4.271   2.700
 4735TIP3    H114211   1.982   4.190   2.653
 4735TIP3    H214212   1.947   4.264   2.780
 4736TIP3   OH214213   0.900   3.990   2.477
 4736TIP3    H114214   0.815   4.032   2.465
 4736TIP3    H214215   0.933   3.976   2.388
 4737TIP3   OH214216   4.838   4.530   0.664
 4737TIP3    H114217   4.751   4.506   0.631
 4737TIP3    H214218   4.894   4.457   0.639
 4738TIP3   OH214219   4.502   1.573   2.698
 4738TIP3    H114220   4.574   1.586   2.636
 4738TIP3    H214221   4.466   1.660   2.713
 4739TIP3   OH214222   0.727   3.191   1.369
 4739TIP3    H114223   0.791   3.186   1.298
 4739TIP3    H214224   0.662   3.125   1.348
 4740TIP3   OH214225   5.462   4.691   4.747
 4740TIP3    H114226   5.557   4.686   4.740
 4740TIP3    H214227   5.442   4.785   4.738
 4741TIP3   OH214228   0.662   2.485   2.790
 4741TIP3    H114229   0.704   2.570   2.789
 4741TIP3    H214230   0.676   2.452   2.879
 4742TIP3   OH214231   0.192   2.709   0.542
 4742TIP3    H114232   0.119   2.768   0.560
 4742TIP3    H214233   0.187   2.643   0.611
 4743TIP3   OH214234   5.707   4.353   0.656
 4743TIP3    H114235   5.774   4.352   0.587
 4743TIP3    H214236   5.626   4.330   0.611
 4744TIP3   OH214237   4.527   1.342   4.518
 4744TIP3    H114238   4.609   1.375   4.553
 4744TIP3    H214239   4.531   1.362   4.424
 4745TIP3   OH214240   6.265   5.237   1.117
 4745TIP3    H114241   6.230   5.211   1.203
 4745TIP3    H214242   6.297   5.155   1.079
 4746TIP3   OH214243   0.774   2.750   2.131
 4746TIP3    H114244   0.733   2.824   2.086
 4746TIP3    H214245   0.717   2.732   2.205
 4747TIP3   OH214246   5.321   0.358   4.410
 4747TIP3    H114247   5.245   0.414   4.428
 4747TIP3    H214248   5.341   0.375   4.318
 4748TIP3   OH214249   0.869   3.826   2.814
 4748TIP3    H114250   0.925   3.900   2.793
 4748TIP3    H214251   0.783   3.851   2.782
 4749TIP3   OH214252   4.533   1.855   4.845
 4749TIP3    H114253   4.534   1.760   4.841
 4749TIP3    H214254   4.440   1.878   4.846
 4750TIP3   OH214255   4.316   4.663   4.281
 4750TIP3    H114256   4.382   4.599   4.254
 4750TIP3    H214257   4.346   4.746   4.244
 4751TIP3   OH214258   2.704   2.245   4.131
 4751TIP3    H114259   2.672   2.162   4.096
 4751TIP3    H214260   2.789   2.224   4.169
 4752TIP3   OH214261   6.027   1.649   4.760
 4752TIP3    H114262   5.973   1.612   4.830
 4752TIP3    H214263   5.989   1.613   4.680
 4753TIP3   OH214264  -0.026   2.627   1.282
 4753TIP3    H114265  -0.018   2.686   1.357
 4753TIP3    H214266   0.054   2.639   1.232
 4754TIP3   OH214267   4.917   5.976   2.932
 4754TIP3    H114268   5.011   5.966   2.947
 4754TIP3    H214269   4.900   5.925   2.852
 4755TIP3   OH214270   3.230   5.462   2.537
 4755TIP3    H114271   3.198   5.488   2.623
 4755TIP3    H214272   3.315   5.421   2.554
 4756TIP3   OH214273   2.806   0.304   4.109
 4756TIP3    H114274   2.792   0.357   4.030
 4756TIP3    H214275   2.897   0.320   4.133
 4757TIP3   OH214276   2.966   2.227   1.796
 4757TIP3    H114277   2.881   2.267   1.813
 4757TIP3    H214278   2.967   2.216   1.700
 4758TIP3   OH214279   2.954   0.463   3.541
 4758TIP3    H114280   3.013   0.527   3.501
 4758TIP3    H214281   2.963   0.477   3.635
 4759TIP3   OH214282   4.777   3.424   5.167
 4759TIP3    H114283   4.777   3.428   5.072
 4759TIP3    H214284   4.736   3.340   5.188
 4760TIP3   OH214285   4.737   5.245   4.148
 4760TIP3    H114286   4.708   5.169   4.199
 4760TIP3    H214287   4.819   5.216   4.108
 4761TIP3   OH214288   3.783   4.753   3.641
 4761TIP3    H114289   3.765   4.845   3.623
 4761TIP3    H214290   3.879   4.747   3.642
 4762TIP3   OH214291   2.345   0.616   0.977
 4762TIP3    H114292   2.369   0.678   0.908
 4762TIP3    H214293   2.267   0.654   1.016
 4763TIP3   OH214294   3.519   2.231   5.066
 4763TIP3    H114295   3.442   2.228   5.009
 4763TIP3    H214296   3.593   2.215   5.009
 4764TIP3   OH214297   3.913   1.947   1.335
 4764TIP3    H114298   3.829   1.920   1.372
 4764TIP3    H214299   3.978   1.922   1.401
 4765TIP3   OH214300   3.389   5.532   2.060
 4765TIP3    H114301   3.332   5.545   1.984
 4765TIP3    H214302   3.333   5.547   2.135
 4766TIP3   OH214303   3.302   3.205   3.170
 4766TIP3    H114304   3.280   3.249   3.087
 4766TIP3    H214305   3.369   3.141   3.146
 4767TIP3   OH214306   3.254   4.313   0.113
 4767TIP3    H114307   3.247   4.267   0.030
 4767TIP3    H214308   3.224   4.250   0.178
 4768TIP3   OH214309   1.100   0.133   2.516
 4768TIP3    H114310   1.119   0.226   2.501
 4768TIP3    H214311   1.130   0.090   2.436
 4769TIP3   OH214312   3.507   4.776   1.927
 4769TIP3    H114313   3.498   4.693   1.974
 4769TIP3    H214314   3.418   4.797   1.899
 4770TIP3   OH214315   5.830   1.385   1.241
 4770TIP3    H114316   5.831   1.298   1.202
 4770TIP3    H214317   5.916   1.422   1.220
 4771TIP3   OH214318   0.387   2.291   5.115
 4771TIP3    H114319   0.319   2.319   5.053
 4771TIP3    H214320   0.407   2.369   5.166
 4772TIP3   OH214321   6.254   3.070   0.405
 4772TIP3    H114322   6.186   3.056   0.340
 4772TIP3    H214323   6.336   3.068   0.355
 4773TIP3   OH214324   0.144   3.337   2.294
 4773TIP3    H114325   0.049   3.326   2.291
 4773TIP3    H214326   0.172   3.284   2.368
 4774TIP3   OH214327   3.182   1.426   4.950
 4774TIP3    H114328   3.116   1.495   4.950
 4774TIP3    H214329   3.140   1.352   4.906
 4775TIP3   OH214330   2.008   4.334   3.847
 4775TIP3    H114331   1.982   4.328   3.755
 4775TIP3    H214332   2.053   4.252   3.865
 4776TIP3   OH214333   5.491   2.771   0.297
 4776TIP3    H114334   5.562   2.835   0.302
 4776TIP3    H214335   5.520   2.708   0.231
 4777TIP3   OH214336   4.657   3.934   1.687
 4777TIP3    H114337   4.621   4.021   1.704
 4777TIP3    H214338   4.586   3.886   1.645
 4778TIP3   OH214339   0.620   4.227   3.872
 4778TIP3    H114340   0.536   4.208   3.914
 4778TIP3    H214341   0.605   4.307   3.822
 4779TIP3   OH214342   4.313   5.042   3.560
 4779TIP3    H114343   4.281   5.060   3.649
 4779TIP3    H214344   4.402   5.076   3.559
 4780TIP3   OH214345   2.915   4.233   3.678
 4780TIP3    H114346   2.862   4.196   3.748
 4780TIP3    H214347   2.935   4.158   3.621
 4781TIP3   OH214348   4.746   0.965   0.513
 4781TIP3    H114349   4.709   0.877   0.503
 4781TIP3    H214350   4.672   1.023   0.494
 4782TIP3   OH214351   5.811   2.925   4.027
 4782TIP3    H114352   5.859   2.845   4.051
 4782TIP3    H214353   5.860   2.960   3.953
 4783TIP3   OH214354   3.359   1.584   2.111
 4783TIP3    H114355   3.280   1.595   2.058
 4783TIP3    H214356   3.422   1.644   2.073
 4784TIP3   OH214357   4.561   3.468   3.720
 4784TIP3    H114358   4.493   3.431   3.777
 4784TIP3    H214359   4.575   3.401   3.653
 4785TIP3   OH214360   3.918   3.065   1.283
 4785TIP3    H114361   3.968   3.113   1.349
 4785TIP3    H214362   3.835   3.113   1.276
 4786TIP3   OH214363   2.193   3.153   4.218
 4786TIP3    H114364   2.209   3.120   4.306
 4786TIP3    H214365   2.100   3.178   4.218
 4787TIP3   OH214366   6.171   3.650   1.029
 4787TIP3    H114367   6.172   3.560   0.996
 4787TIP3    H214368   6.080   3.678   1.020
 4788TIP3   OH214369   0.623   2.730   3.076
 4788TIP3    H114370   0.558   2.789   3.036
 4788TIP3    H214371   0.704   2.781   3.078
 4789TIP3   OH214372   3.379   0.225   2.082
 4789TIP3    H114373   3.448   0.161   2.099
 4789TIP3    H214374   3.394   0.294   2.146
 4790TIP3   OH214375   1.367   3.097   2.919
 4790TIP3    H114376   1.378   3.191   2.902
 4790TIP3    H214377   1.277   3.089   2.951
 4791TIP3   OH214378   4.558   4.817   2.200
 4791TIP3    H114379   4.492   4.752   2.177
 4791TIP3    H214380   4.584   4.855   2.115
 4792TIP3   OH214381   3.872   5.121   1.297
 4792TIP3    H114382   3.887   5.028   1.315
 4792TIP3    H214383   3.852   5.124   1.203
 4793TIP3   OH214384   4.166   2.808   0.645
 4793TIP3    H114385   4.184   2.842   0.557
 4793TIP3    H214386   4.072   2.821   0.657
 4794TIP3   OH214387   0.997   5.689   3.289
 4794TIP3    H114388   0.978   5.716   3.200
 4794TIP3    H214389   1.031   5.768   3.332
 4795TIP3   OH214390   5.989   1.575   2.523
 4795TIP3    H114391   6.001   1.601   2.432
 4795TIP3    H214392   6.012   1.482   2.524
 4796TIP3   OH214393   0.039   5.241   1.757
 4796TIP3    H114394   0.114   5.240   1.698
 4796TIP3    H214395   0.076   5.218   1.843
 4797TIP3   OH214396   0.524   5.894   4.241
 4797TIP3    H114397   0.522   5.852   4.327
 4797TIP3    H214398   0.437   5.880   4.205
 4798TIP3   OH214399   0.074   2.725   0.214
 4798TIP3    H114400   0.136   2.664   0.173
 4798TIP3    H214401   0.125   2.770   0.281
 4799TIP3   OH214402   0.418   4.285   1.608
 4799TIP3    H114403   0.507   4.319   1.601
 4799TIP3    H214404   0.400   4.283   1.702
 4800TIP3   OH214405   4.739   0.129   1.365
 4800TIP3    H114406   4.657   0.166   1.331
 4800TIP3    H214407   4.751   0.048   1.315
 4801TIP3   OH214408   6.259   3.199  -0.010
 4801TIP3    H114409   6.281   3.277  -0.060
 4801TIP3    H214410   6.192   3.229   0.052
 4802TIP3   OH214411   4.898   5.600   1.932
 4802TIP3    H114412   4.938   5.513   1.924
 4802TIP3    H214413   4.917   5.642   1.848
 4803TIP3   OH214414   0.246   0.480   0.249
 4803TIP3    H114415   0.280   0.406   0.299
 4803TIP3    H214416   0.160   0.497   0.286
 4804TIP3   OH214417   3.760   0.282   0.581
 4804TIP3    H114418   3.706   0.203   0.579
 4804TIP3    H214419   3.761   0.308   0.673
 4805TIP3   OH214420   3.194   1.643   1.743
 4805TIP3    H114421   3.148   1.615   1.822
 4805TIP3    H214422   3.130   1.694   1.694
 4806TIP3   OH214423   6.244   1.770   5.014
 4806TIP3    H114424   6.282   1.806   5.094
 4806TIP3    H214425   6.195   1.843   4.976
 4807TIP3   OH214426   3.924   5.043   3.558
 4807TIP3    H114427   3.949   5.112   3.620
 4807TIP3    H214428   3.867   5.087   3.495
 4808TIP3   OH214429   3.766   3.481   0.404
 4808TIP3    H114430   3.840   3.467   0.345
 4808TIP3    H214431   3.724   3.395   0.410
 4809TIP3   OH214432   3.404   5.200   2.438
 4809TIP3    H114433   3.485   5.149   2.429
 4809TIP3    H214434   3.430   5.277   2.488
 4810TIP3   OH214435   2.820   0.021   0.414
 4810TIP3    H114436   2.738  -0.027   0.426
 4810TIP3    H214437   2.885  -0.033   0.459
 4811TIP3   OH214438   1.217   1.235   2.075
 4811TIP3    H114439   1.309   1.210   2.082
 4811TIP3    H214440   1.193   1.261   2.164
 4812TIP3   OH214441   5.124   2.296   0.178
 4812TIP3    H114442   5.218   2.307   0.172
 4812TIP3    H214443   5.090   2.383   0.198
 4813TIP3   OH214444   0.039   4.114   2.433
 4813TIP3    H114445  -0.032   4.053   2.418
 4813TIP3    H214446   0.032   4.178   2.362
 4814TIP3   OH214447   2.387   1.074   5.127
 4814TIP3    H114448   2.412   0.995   5.174
 4814TIP3    H214449   2.461   1.133   5.139
 4815TIP3   OH214450   5.264   2.584   2.327
 4815TIP3    H114451   5.234   2.674   2.317
 4815TIP3    H214452   5.317   2.567   2.250
 4816TIP3   OH214453   5.586   3.189   0.804
 4816TIP3    H114454   5.518   3.130   0.771
 4816TIP3    H214455   5.542   3.272   0.818
 4817TIP3   OH214456   5.450   3.687   0.373
 4817TIP3    H114457   5.467   3.633   0.450
 4817TIP3    H214458   5.523   3.749   0.371
 4818TIP3   OH214459   0.386   1.772   0.849
 4818TIP3    H114460   0.333   1.696   0.826
 4818TIP3    H214461   0.335   1.847   0.819
 4819TIP3   OH214462   0.886   0.330   3.981
 4819TIP3    H114463   0.939   0.396   4.025
 4819TIP3    H214464   0.799   0.369   3.972
 4820TIP3   OH214465   6.194   5.722   3.887
 4820TIP3    H114466   6.131   5.676   3.942
 4820TIP3    H214467   6.183   5.682   3.800
 4821TIP3   OH214468   2.876   3.405   3.947
 4821TIP3    H114469   2.862   3.349   4.024
 4821TIP3    H214470   2.824   3.365   3.878
 4822TIP3   OH214471   3.616   3.967   2.288
 4822TIP3    H114472   3.520   3.975   2.283
 4822TIP3    H214473   3.648   4.044   2.241
 4823TIP3   OH214474   4.146   3.603   0.399
 4823TIP3    H114475   4.140   3.625   0.306
 4823TIP3    H214476   4.196   3.675   0.438
 4824TIP3   OH214477   3.103   2.596   5.029
 4824TIP3    H114478   3.088   2.510   5.069
 4824TIP3    H214479   3.030   2.649   5.059
 4825TIP3   OH214480   5.465   4.101   0.994
 4825TIP3    H114481   5.511   4.157   0.931
 4825TIP3    H214482   5.456   4.155   1.072
 4826TIP3   OH214483   1.980   1.413   4.144
 4826TIP3    H114484   1.957   1.336   4.092
 4826TIP3    H214485   1.915   1.414   4.215
 4827TIP3   OH214486   5.167   5.594   2.111
 4827TIP3    H114487   5.214   5.574   2.030
 4827TIP3    H214488   5.084   5.547   2.103
 4828TIP3   OH214489   5.472   1.194   2.323
 4828TIP3    H114490   5.535   1.251   2.280
 4828TIP3    H214491   5.505   1.184   2.412
 4829TIP3   OH214492   0.309   0.495   2.243
 4829TIP3    H114493   0.332   0.501   2.150
 4829TIP3    H214494   0.372   0.553   2.287
 4830TIP3   OH214495   2.868   3.403   1.991
 4830TIP3    H114496   2.844   3.492   2.016
 4830TIP3    H214497   2.786   3.354   1.996
 4831TIP3   OH214498   3.430   1.010   3.059
 4831TIP3    H114499   3.405   0.917   3.059
 4831TIP3    H214500   3.521   1.010   3.090
 4832TIP3   OH214501   2.913   1.071   4.290
 4832TIP3    H114502   2.862   1.152   4.292
 4832TIP3    H214503   2.971   1.077   4.366
 4833TIP3   OH214504   2.602   2.989   4.898
 4833TIP3    H114505   2.600   2.915   4.837
 4833TIP3    H214506   2.601   3.067   4.842
 4834TIP3   OH214507   0.721   1.421   0.884
 4834TIP3    H114508   0.770   1.378   0.954
 4834TIP3    H214509   0.715   1.512   0.912
 4835TIP3   OH214510   0.453   5.736   0.136
 4835TIP3    H114511   0.525   5.748   0.074
 4835TIP3    H214512   0.405   5.818   0.133
 4836TIP3   OH214513   4.024   3.477   3.823
 4836TIP3    H114514   4.049   3.481   3.731
 4836TIP3    H214515   3.944   3.529   3.828
 4837TIP3   OH214516   6.128   4.185   1.210
 4837TIP3    H114517   6.070   4.111   1.196
 4837TIP3    H214518   6.212   4.146   1.235
 4838TIP3   OH214519   0.248   0.555   2.576
 4838TIP3    H114520   0.310   0.522   2.642
 4838TIP3    H214521   0.289   0.635   2.543
 4839TIP3   OH214522   4.257   2.250   1.576
 4839TIP3    H114523   4.257   2.331   1.526
 4839TIP3    H214524   4.345   2.214   1.564
 4840TIP3   OH214525   2.581   1.329   0.642
 4840TIP3    H114526   2.647   1.338   0.711
 4840TIP3    H214527   2.560   1.236   0.640
 4841TIP3   OH214528   1.056   2.194   3.521
 4841TIP3    H114529   1.066   2.204   3.616
 4841TIP3    H214530   0.979   2.138   3.510
 4842TIP3   OH214531   4.169   1.891   1.493
 4842TIP3    H114532   4.189   1.932   1.577
 4842TIP3    H214533   4.246   1.907   1.439
 4843TIP3   OH214534   0.013   4.129   4.147
 4843TIP3    H114535   0.081   4.174   4.097
 4843TIP3    H214536  -0.042   4.199   4.182
 4844TIP3   OH214537   5.029   1.930   0.627
 4844TIP3    H114538   4.964   1.976   0.574
 4844TIP3    H214539   5.015   1.964   0.716
 4845TIP3   OH214540   5.844   4.753   4.178
 4845TIP3    H114541   5.918   4.782   4.231
 4845TIP3    H214542   5.876   4.759   4.087
 4846TIP3   OH214543   1.569   0.340   2.268
 4846TIP3    H114544   1.484   0.382   2.254
 4846TIP3    H214545   1.601   0.321   2.180
 4847TIP3   OH214546   4.559   5.714   4.729
 4847TIP3    H114547   4.519   5.704   4.815
 4847TIP3    H214548   4.484   5.729   4.670
 4848TIP3   OH214549   3.006   3.968   2.567
 4848TIP3    H114550   2.974   4.051   2.601
 4848TIP3    H214551   2.927   3.913   2.561
 4849TIP3   OH214552   0.810   3.573   2.688
 4849TIP3    H114553   0.850   3.501   2.736
 4849TIP3    H214554   0.825   3.650   2.742
 4850TIP3   OH214555   4.823   2.365   0.693
 4850TIP3    H114556   4.880   2.372   0.770
 4850TIP3    H214557   4.877   2.320   0.627
 4851TIP3   OH214558   2.526   1.214   1.574
 4851TIP3    H114559   2.541   1.201   1.481
 4851TIP3    H214560   2.490   1.131   1.605
 4852TIP3   OH214561   4.795   5.273   0.808
 4852TIP3    H114562   4.861   5.205   0.826
 4852TIP3    H214563   4.748   5.282   0.891
 4853TIP3   OH214564   4.551   5.373   3.986
 4853TIP3    H114565   4.608   5.323   4.045
 4853TIP3    H214566   4.463   5.357   4.018
 4854TIP3   OH214567   5.016   4.911   2.311
 4854TIP3    H114568   4.941   4.882   2.260
 4854TIP3    H214569   5.070   4.832   2.321
 4855TIP3   OH214570   4.344   4.701   3.170
 4855TIP3    H114571   4.403   4.770   3.141
 4855TIP3    H214572   4.320   4.725   3.259
 4856TIP3   OH214573   2.688   5.384   3.667
 4856TIP3    H114574   2.675   5.315   3.602
 4856TIP3    H214575   2.625   5.452   3.642
 4857TIP3   OH214576   2.074   4.837   4.088
 4857TIP3    H114577   2.101   4.789   4.010
 4857TIP3    H214578   2.129   4.915   4.089
 4858TIP3   OH214579   1.381   0.134   3.028
 4858TIP3    H114580   1.408   0.226   3.030
 4858TIP3    H214581   1.310   0.132   2.964
 4859TIP3   OH214582   5.090   0.726   4.255
 4859TIP3    H114583   5.140   0.705   4.334
 4859TIP3    H214584   5.009   0.675   4.264
 4860TIP3   OH214585   5.300   3.842   3.325
 4860TIP3    H114586   5.361   3.911   3.297
 4860TIP3    H214587   5.220   3.860   3.275
 4861TIP3   OH214588   3.416   5.389   4.571
 4861TIP3    H114589   3.401   5.427   4.658
 4861TIP3    H214590   3.337   5.338   4.553
 4862TIP3   OH214591   1.784   3.059   3.310
 4862TIP3    H114592   1.754   2.994   3.374
 4862TIP3    H214593   1.716   3.061   3.243
 4863TIP3   OH214594   1.946   0.601   1.140
 4863TIP3    H114595   1.910   0.636   1.222
 4863TIP3    H214596   1.919   0.509   1.139
 4864TIP3   OH214597   5.394   2.310   0.145
 4864TIP3    H114598   5.487   2.328   0.130
 4864TIP3    H214599   5.365   2.265   0.066
 4865TIP3   OH214600   1.547   5.599   2.035
 4865TIP3    H114601   1.490   5.526   2.009
 4865TIP3    H214602   1.529   5.667   1.970
 4866TIP3   OH214603   4.177   1.898   4.903
 4866TIP3    H114604   4.195   1.841   4.828
 4866TIP3    H214605   4.093   1.938   4.883
 4867TIP3   OH214606   0.866   2.087   4.731
 4867TIP3    H114607   0.905   2.149   4.670
 4867TIP3    H214608   0.780   2.066   4.693
 4868TIP3   OH214609   4.463   0.592   2.088
 4868TIP3    H114610   4.512   0.562   2.165
 4868TIP3    H214611   4.492   0.682   2.076
 4869TIP3   OH214612   3.705   4.066   0.665
 4869TIP3    H114613   3.642   4.114   0.719
 4869TIP3    H214614   3.785   4.063   0.719
 4870TIP3   OH214615   0.219   2.824   2.690
 4870TIP3    H114616   0.181   2.738   2.706
 4870TIP3    H214617   0.208   2.871   2.773
 4871TIP3   OH214618   0.947   3.351   3.170
 4871TIP3    H114619   1.006   3.341   3.095
 4871TIP3    H214620   0.993   3.310   3.243
 4872TIP3   OH214621   3.641   0.529   5.037
 4872TIP3    H114622   3.668   0.576   4.958
 4872TIP3    H214623   3.602   0.448   5.004
 4873TIP3   OH214624   2.111   4.114   1.429
 4873TIP3    H114625   2.105   4.018   1.428
 4873TIP3    H214626   2.203   4.132   1.408
 4874TIP3   OH214627   1.346   2.974   4.984
 4874TIP3    H114628   1.268   3.026   4.963
 4874TIP3    H214629   1.343   2.900   4.923
 4875TIP3   OH214630   2.689   4.401   4.710
 4875TIP3    H114631   2.757   4.465   4.687
 4875TIP3    H214632   2.679   4.410   4.805
 4876TIP3   OH214633   3.397   5.340   3.871
 4876TIP3    H114634   3.373   5.360   3.780
 4876TIP3    H214635   3.384   5.246   3.879
 4877TIP3   OH214636   5.715   3.641   3.725
 4877TIP3    H114637   5.730   3.697   3.649
 4877TIP3    H214638   5.634   3.674   3.764
 4878TIP3   OH214639   1.966   4.794   1.446
 4878TIP3    H114640   1.887   4.783   1.499
 4878TIP3    H214641   2.037   4.794   1.510
 4879TIP3   OH214642   0.083   5.911   3.068
 4879TIP3    H114643   0.172   5.945   3.076
 4879TIP3    H214644   0.035   5.952   3.140
 4880TIP3   OH214645   4.546   2.868   3.785
 4880TIP3    H114646   4.453   2.880   3.804
 4880TIP3    H214647   4.580   2.815   3.858
 4881TIP3   OH214648   6.161   1.490   4.418
 4881TIP3    H114649   6.148   1.583   4.396
 4881TIP3    H214650   6.080   1.464   4.461
 4882TIP3   OH214651   1.914   0.199   2.974
 4882TIP3    H114652   1.985   0.198   3.039
 4882TIP3    H214653   1.839   0.235   3.021
 4883TIP3   OH214654   3.713   3.488   1.444
 4883TIP3    H114655   3.700   3.407   1.394
 4883TIP3    H214656   3.644   3.546   1.413
 4884TIP3   OH214657   5.190   5.152   1.445
 4884TIP3    H114658   5.264   5.096   1.470
 4884TIP3    H214659   5.120   5.091   1.423
 4885TIP3   OH214660   1.027   4.670   3.715
 4885TIP3    H114661   1.076   4.663   3.797
 4885TIP3    H214662   1.047   4.758   3.683
 4886TIP3   OH214663   2.033   2.036   3.185
 4886TIP3    H114664   2.100   2.087   3.141
 4886TIP3    H214665   2.028   1.954   3.134
 4887TIP3   OH214666   4.727   1.997   1.208
 4887TIP3    H114667   4.790   1.992   1.136
 4887TIP3    H214668   4.642   2.007   1.166
 4888TIP3   OH214669   4.380   1.327   0.194
 4888TIP3    H114670   4.294   1.369   0.197
 4888TIP3    H214671   4.408   1.339   0.103
 4889TIP3   OH214672   1.008   0.331   2.820
 4889TIP3    H114673   1.015   0.410   2.767
 4889TIP3    H214674   0.932   0.285   2.785
 4890TIP3   OH214675   4.492   0.322   0.934
 4890TIP3    H114676   4.570   0.276   0.968
 4890TIP3    H214677   4.521   0.362   0.852
 4891TIP3   OH214678   3.689   3.379   3.975
 4891TIP3    H114679   3.650   3.314   3.916
 4891TIP3    H214680   3.770   3.339   4.005
 4892TIP3   OH214681   5.855   3.730   0.310
 4892TIP3    H114682   5.783   3.683   0.267
 4892TIP3    H214683   5.841   3.822   0.286
 4893TIP3   OH214684   4.814   5.647   0.344
 4893TIP3    H114685   4.831   5.590   0.418
 4893TIP3    H214686   4.852   5.601   0.269
 4894TIP3   OH214687   5.139   4.677   3.196
 4894TIP3    H114688   5.145   4.631   3.113
 4894TIP3    H214689   5.220   4.727   3.202
 4895TIP3   OH214690   2.013   3.347   3.535
 4895TIP3    H114691   2.056   3.397   3.603
 4895TIP3    H214692   1.974   3.272   3.581
 4896TIP3   OH214693   6.048   0.788   5.077
 4896TIP3    H114694   5.977   0.760   5.135
 4896TIP3    H214695   6.126   0.783   5.131
 4897TIP3   OH214696   4.375   3.891   3.955
 4897TIP3    H114697   4.422   3.833   4.015
 4897TIP3    H214698   4.287   3.854   3.949
 4898TIP3   OH214699   4.637   4.729   1.118
 4898TIP3    H114700   4.686   4.711   1.037
 4898TIP3    H214701   4.700   4.770   1.176
 4899TIP3   OH214702   3.862   1.764   0.455
 4899TIP3    H114703   3.937   1.742   0.511
 4899TIP3    H214704   3.794   1.702   0.481
 4900TIP3   OH214705   5.131   1.660   5.001
 4900TIP3    H114706   5.169   1.726   5.058
 4900TIP3    H214707   5.202   1.597   4.986
 4901TIP3   OH214708   1.084   5.317   0.243
 4901TIP3    H114709   1.096   5.397   0.191
 4901TIP3    H214710   0.990   5.305   0.246
 4902TIP3   OH214711   4.834   2.250   3.474
 4902TIP3    H114712   4.845   2.158   3.497
 4902TIP3    H214713   4.761   2.281   3.527
 4903TIP3   OH214714   3.506   4.737   2.495
 4903TIP3    H114715   3.545   4.689   2.421
 4903TIP3    H214716   3.579   4.752   2.555
 4904TIP3   OH214717   2.509   2.929   1.534
 4904TIP3    H114718   2.505   2.883   1.618
 4904TIP3    H214719   2.438   2.890   1.482
 4905TIP3   OH214720   3.259   3.399   0.053
 4905TIP3    H114721   3.350   3.380   0.076
 4905TIP3    H214722   3.229   3.321   0.006
 4906TIP3   OH214723   3.154   1.004   4.995
 4906TIP3    H114724   3.130   1.067   4.927
 4906TIP3    H214725   3.230   1.043   5.037
 4907TIP3   OH214726   6.337   3.785   3.868
 4907TIP3    H114727   6.382   3.866   3.845
 4907TIP3    H214728   6.287   3.808   3.947
 4908TIP3   OH214729   4.552   3.898   1.206
 4908TIP3    H114730   4.478   3.870   1.260
 4908TIP3    H214731   4.628   3.853   1.244
 4909TIP3   OH214732   3.375   1.567   1.049
 4909TIP3    H114733   3.320   1.599   1.121
 4909TIP3    H214734   3.332   1.602   0.970
 4910TIP3   OH214735   4.516   2.596   2.225
 4910TIP3    H114736   4.506   2.507   2.258
 4910TIP3    H214737   4.572   2.587   2.148
 4911TIP3   OH214738   0.860   3.689   4.678
 4911TIP3    H114739   0.878   3.604   4.638
 4911TIP3    H214740   0.947   3.725   4.697
 4912TIP3   OH214741   6.102   3.708   4.550
 4912TIP3    H114742   6.017   3.678   4.582
 4912TIP3    H214743   6.162   3.695   4.623
 4913TIP3   OH214744   6.088   3.479   3.761
 4913TIP3    H114745   6.179   3.505   3.749
 4913TIP3    H214746   6.064   3.515   3.847
 4914TIP3   OH214747   3.899   2.323  -0.007
 4914TIP3    H114748   3.846   2.261   0.043
 4914TIP3    H214749   3.972   2.345   0.052
 4915TIP3   OH214750   1.567   2.896   4.434
 4915TIP3    H114751   1.524   2.925   4.515
 4915TIP3    H214752   1.554   2.801   4.433
 4916TIP3   OH214753   1.192   0.102   2.821
 4916TIP3    H114754   1.256   0.140   2.761
 4916TIP3    H214755   1.125   0.169   2.830
 4917TIP3   OH214756   4.126   5.739   3.904
 4917TIP3    H114757   4.198   5.726   3.842
 4917TIP3    H214758   4.140   5.672   3.971
 4918TIP3   OH214759   1.622   5.998   0.571
 4918TIP3    H114760   1.639   5.937   0.643
 4918TIP3    H214761   1.527   5.997   0.560
 4919TIP3   OH214762   0.176   0.067   0.491
 4919TIP3    H114763   0.145   0.008   0.560
 4919TIP3    H214764   0.243   0.017   0.445
 4920TIP3   OH214765   4.520   0.638   4.035
 4920TIP3    H114766   4.533   0.623   3.941
 4920TIP3    H214767   4.590   0.698   4.060
 4921TIP3   OH214768   3.883   2.307   2.367
 4921TIP3    H114769   3.794   2.298   2.333
 4921TIP3    H214770   3.872   2.307   2.463
 4922TIP3   OH214771   2.482   2.880  -0.015
 4922TIP3    H114772   2.543   2.952  -0.032
 4922TIP3    H214773   2.537   2.803  -0.007
 4923TIP3   OH214774   5.799   5.876   1.159
 4923TIP3    H114775   5.885   5.843   1.133
 4923TIP3    H214776   5.743   5.798   1.161
 4924TIP3   OH214777   3.232   1.473   2.613
 4924TIP3    H114778   3.181   1.454   2.534
 4924TIP3    H214779   3.208   1.563   2.636
 4925TIP3   OH214780   0.809   0.966   0.979
 4925TIP3    H114781   0.854   0.914   1.046
 4925TIP3    H214782   0.716   0.959   1.003
 4926TIP3   OH214783   5.576   5.169   2.627
 4926TIP3    H114784   5.500   5.144   2.680
 4926TIP3    H214785   5.566   5.118   2.546
 4927TIP3   OH214786   4.466   5.082   4.097
 4927TIP3    H114787   4.535   5.027   4.059
 4927TIP3    H214788   4.420   5.025   4.158
 4928TIP3   OH214789   1.748   5.743   2.244
 4928TIP3    H114790   1.798   5.663   2.257
 4928TIP3    H214791   1.684   5.721   2.176
 4929TIP3   OH214792   5.856   0.317   3.361
 4929TIP3    H114793   5.918   0.248   3.336
 4929TIP3    H214794   5.856   0.315   3.457
 4930TIP3   OH214795   3.847   0.016   3.827
 4930TIP3    H114796   3.786   0.037   3.756
 4930TIP3    H214797   3.927   0.063   3.803
 4931TIP3   OH214798   1.227   5.197   2.534
 4931TIP3    H114799   1.235   5.110   2.496
 4931TIP3    H214800   1.251   5.257   2.463
 4932TIP3   OH214801   5.282   0.706   2.421
 4932TIP3    H114802   5.305   0.635   2.362
 4932TIP3    H214803   5.194   0.686   2.451
 4933TIP3   OH214804   4.177   3.136   2.556
 4933TIP3    H114805   4.115   3.145   2.484
 4933TIP3    H214806   4.135   3.076   2.617
 4934TIP3   OH214807   0.491   0.867   4.740
 4934TIP3    H114808   0.558   0.934   4.755
 4934TIP3    H214809   0.454   0.850   4.827
 4935TIP3   OH214810   2.502   4.800   5.067
 4935TIP3    H114811   2.559   4.791   5.143
 4935TIP3    H214812   2.416   4.771   5.099
 4936TIP3   OH214813   5.673   0.747   1.503
 4936TIP3    H114814   5.759   0.786   1.521
 4936TIP3    H214815   5.665   0.676   1.567
 4937TIP3   OH214816   5.946   0.791   3.840
 4937TIP3    H114817   5.956   0.808   3.934
 4937TIP3    H214818   5.857   0.819   3.820
 4938TIP3   OH214819   6.117   0.255   1.413
 4938TIP3    H114820   6.112   0.219   1.325
 4938TIP3    H214821   6.191   0.210   1.454
 4939TIP3   OH214822   4.589   1.132   2.760
 4939TIP3    H114823   4.562   1.178   2.681
 4939TIP3    H214824   4.582   1.197   2.830
 4940TIP3   OH214825   0.926   2.854   1.300
 4940TIP3    H114826   0.913   2.763   1.274
 4940TIP3    H214827   0.837   2.889   1.309
 4941TIP3   OH214828   4.782   2.422   1.544
 4941TIP3    H114829   4.821   2.358   1.485
 4941TIP3    H214830   4.767   2.499   1.488
 4942TIP3   OH214831   4.809   4.673   0.908
 4942TIP3    H114832   4.756   4.653   0.831
 4942TIP3    H214833   4.899   4.658   0.879
 4943TIP3   OH214834   5.798   0.665   0.478
 4943TIP3    H114835   5.849   0.746   0.472
 4943TIP3    H214836   5.754   0.658   0.394
 4944TIP3   OH214837   4.166   1.360   1.683
 4944TIP3    H114838   4.122   1.312   1.753
 4944TIP3    H214839   4.239   1.304   1.658
 4945TIP3   OH214840   0.344   5.252   2.602
 4945TIP3    H114841   0.379   5.217   2.520
 4945TIP3    H214842   0.412   5.312   2.633
 4946TIP3   OH214843   4.006   2.623   5.006
 4946TIP3    H114844   3.964   2.617   5.091
 4946TIP3    H214845   4.003   2.716   4.984
 4947TIP3   OH214846   1.551   3.272   0.230
 4947TIP3    H114847   1.555   3.368   0.241
 4947TIP3    H214848   1.466   3.247   0.265
 4948TIP3   OH214849   1.935   1.031   5.132
 4948TIP3    H114850   1.884   1.111   5.118
 4948TIP3    H214851   1.968   1.040   5.222
 4949TIP3   OH214852   2.752   3.913   2.142
 4949TIP3    H114853   2.815   3.878   2.205
 4949TIP3    H214854   2.805   3.965   2.081
 4950TIP3   OH214855   1.549   3.909   3.977
 4950TIP3    H114856   1.505   3.992   3.959
 4950TIP3    H214857   1.481   3.855   4.019
 4951TIP3   OH214858   4.569   4.194   2.203
 4951TIP3    H114859   4.575   4.131   2.130
 4951TIP3    H214860   4.608   4.274   2.169
 4952TIP3   OH214861   2.685   5.096   1.365
 4952TIP3    H114862   2.650   5.056   1.445
 4952TIP3    H214863   2.730   5.025   1.320
 4953TIP3   OH214864   5.301   3.045   0.171
 4953TIP3    H114865   5.308   2.973   0.107
 4953TIP3    H214866   5.371   3.028   0.234
 4954TIP3   OH214867   2.874   0.032   4.136
 4954TIP3    H114868   2.885   0.040   4.041
 4954TIP3    H214869   2.941  -0.030   4.163
 4955TIP3   OH214870   2.175   5.171   2.688
 4955TIP3    H114871   2.085   5.188   2.660
 4955TIP3    H214872   2.228   5.190   2.610
 4956TIP3   OH214873   4.027   4.650   2.193
 4956TIP3    H114874   4.098   4.636   2.130
 4956TIP3    H214875   3.956   4.594   2.163
 4957TIP3   OH214876   3.105   2.062   1.306
 4957TIP3    H114877   3.180   2.034   1.358
 4957TIP3    H214878   3.137   2.060   1.216
 4958TIP3   OH214879   3.569   5.326   3.102
 4958TIP3    H114880   3.506   5.356   3.036
 4958TIP3    H214881   3.521   5.260   3.152
 4959TIP3   OH214882   0.431   1.048   5.050
 4959TIP3    H114883   0.454   0.956   5.042
 4959TIP3    H214884   0.343   1.047   5.088
 4960TIP3   OH214885   5.401   2.697   3.580
 4960TIP3    H114886   5.355   2.707   3.664
 4960TIP3    H214887   5.432   2.785   3.559
 4961TIP3   OH214888   4.545   4.383   4.628
 4961TIP3    H114889   4.497   4.384   4.546
 4961TIP3    H214890   4.520   4.465   4.671
 4962TIP3   OH214891   3.474   3.449   3.466
 4962TIP3    H114892   3.568   3.442   3.445
 4962TIP3    H214893   3.470   3.437   3.561
 4963TIP3   OH214894   5.531   3.027   2.184
 4963TIP3    H114895   5.496   3.008   2.271
 4963TIP3    H214896   5.626   3.035   2.198
 4964TIP3   OH214897   6.069   2.117   1.798
 4964TIP3    H114898   6.029   2.200   1.770
 4964TIP3    H214899   6.022   2.093   1.877
 4965TIP3   OH214900   3.529   0.982   1.231
 4965TIP3    H114901   3.474   0.908   1.203
 4965TIP3    H214902   3.602   0.941   1.278
 4966TIP3   OH214903   5.108   3.749   0.140
 4966TIP3    H114904   5.094   3.843   0.147
 4966TIP3    H214905   5.056   3.723   0.064
 4967TIP3   OH214906   0.922   5.357   0.793
 4967TIP3    H114907   0.893   5.268   0.814
 4967TIP3    H214908   0.899   5.408   0.870
 4968TIP3   OH214909   0.516   4.093   4.725
 4968TIP3    H114910   0.515   4.106   4.630
 4968TIP3    H214911   0.574   4.018   4.738
 4969TIP3   OH214912   4.528   4.598   0.331
 4969TIP3    H114913   4.618   4.572   0.313
 4969TIP3    H214914   4.534   4.687   0.366
 4970TIP3   OH214915   3.045   5.166   0.313
 4970TIP3    H114916   3.042   5.242   0.254
 4970TIP3    H214917   3.104   5.105   0.269
 4971TIP3   OH214918   2.023   5.027   1.198
 4971TIP3    H114919   2.056   5.069   1.119
 4971TIP3    H214920   1.928   5.027   1.187
 4972TIP3   OH214921   0.317   2.172   2.511
 4972TIP3    H114922   0.254   2.174   2.439
 4972TIP3    H214923   0.402   2.168   2.469
 4973TIP3   OH214924   2.571   2.223   4.395
 4973TIP3    H114925   2.665   2.219   4.380
 4973TIP3    H214926   2.531   2.197   4.312
 4974TIP3   OH214927   1.202   1.351   3.922
 4974TIP3    H114928   1.267   1.361   3.992
 4974TIP3    H214929   1.254   1.343   3.842
 4975TIP3   OH214930   2.820   2.904   4.420
 4975TIP3    H114931   2.851   2.983   4.465
 4975TIP3    H214932   2.733   2.888   4.456
 4976TIP3   OH214933   3.599   3.701   0.925
 4976TIP3    H114934   3.645   3.751   0.992
 4976TIP3    H214935   3.604   3.755   0.847
 4977TIP3   OH214936   5.316   4.591   2.994
 4977TIP3    H114937   5.298   4.518   2.936
 4977TIP3    H214938   5.375   4.647   2.945
 4978TIP3   OH214939   5.030   5.214   2.318
 4978TIP3    H114940   5.086   5.138   2.298
 4978TIP3    H214941   4.942   5.178   2.323
 4979TIP3   OH214942   0.003   2.730   2.904
 4979TIP3    H114943  -0.030   2.647   2.871
 4979TIP3    H214944   0.055   2.708   2.981
 4980TIP3   OH214945   3.542   4.628   0.424
 4980TIP3    H114946   3.496   4.569   0.363
 4980TIP3    H214947   3.484   4.634   0.500
 4981TIP3   OH214948   1.678   3.987   1.663
 4981TIP3    H114949   1.673   4.070   1.616
 4981TIP3    H214950   1.633   4.003   1.746
 4982TIP3   OH214951   5.615   4.704   3.104
 4982TIP3    H114952   5.641   4.773   3.043
 4982TIP3    H214953   5.651   4.624   3.066
 4983TIP3   OH214954   1.305   3.484   2.153
 4983TIP3    H114955   1.276   3.411   2.207
 4983TIP3    H214956   1.387   3.454   2.113
 4984TIP3   OH214957   0.995   2.702   2.952
 4984TIP3    H114958   1.062   2.713   3.019
 4984TIP3    H214959   0.928   2.767   2.974
 4985TIP3   OH214960   3.492   3.651   3.730
 4985TIP3    H114961   3.493   3.671   3.823
 4985TIP3    H214962   3.459   3.731   3.688
 4986TIP3   OH214963   5.366   0.509   4.644
 4986TIP3    H114964   5.351   0.429   4.594
 4986TIP3    H214965   5.383   0.479   4.733
 4987TIP3   OH214966   0.846   1.889   1.688
 4987TIP3    H114967   0.765   1.936   1.666
 4987TIP3    H214968   0.915   1.955   1.676
 4988TIP3   OH214969   0.955   1.706   1.951
 4988TIP3    H114970   1.019   1.635   1.956
 4988TIP3    H214971   0.889   1.674   1.890
 4989TIP3   OH214972   0.499   0.455   0.470
 4989TIP3    H114973   0.564   0.496   0.526
 4989TIP3    H214974   0.501   0.362   0.494
 4990TIP3   OH214975   4.427   1.890   1.367
 4990TIP3    H114976   4.475   1.964   1.404
 4990TIP3    H214977   4.412   1.914   1.275
 4991TIP3   OH214978   3.331   3.676   4.596
 4991TIP3    H114979   3.284   3.713   4.521
 4991TIP3    H214980   3.400   3.740   4.614
 4992TIP3   OH214981   6.365   1.047   1.122
 4992TIP3    H114982   6.443   1.024   1.173
 4992TIP3    H214983   6.300   1.070   1.187
 4993TIP3   OH214984   0.676   2.341   4.439
 4993TIP3    H114985   0.726   2.315   4.516
 4993TIP3    H214986   0.642   2.428   4.461
 4994TIP3   OH214987   3.658   4.311   4.629
 4994TIP3    H114988   3.618   4.379   4.575
 4994TIP3    H214989   3.700   4.359   4.700
 4995TIP3   OH214990   3.460   1.459   3.094
 4995TIP3    H114991   3.380   1.510   3.088
 4995TIP3    H214992   3.531   1.523   3.087
 4996TIP3   OH214993   3.668   4.809   3.005
 4996TIP3    H114994   3.674   4.893   3.051
 4996TIP3    H214995   3.675   4.743   3.074
 4997TIP3   OH214996   5.572   2.901   4.637
 4997TIP3    H114997   5.537   2.974   4.688
 4997TIP3    H214998   5.495   2.854   4.605
 4998TIP3   OH214999   5.614   4.196   4.750
 4998TIP3    H115000   5.558   4.272   4.769
 4998TIP3    H215001   5.656   4.176   4.833
 4999TIP3   OH215002   5.349   0.434   4.155
 4999TIP3    H115003   5.271   0.432   4.100
 4999TIP3    H215004   5.406   0.367   4.118
 5000TIP3   OH215005   3.987   2.679  -0.014
 5000TIP3    H115006   3.997   2.707   0.077
 5000TIP3    H215007   3.899   2.642  -0.018
 5001TIP3   OH215008   2.629   3.796   1.050
 5001TIP3    H115009   2.616   3.710   1.090
 5001TIP3    H215010   2.689   3.781   0.978
 5002TIP3   OH215011   0.526   0.520   4.760
 5002TIP3    H115012   0.542   0.544   4.669
 5002TIP3    H215013   0.438   0.555   4.778
 5003TIP3   OH215014   1.627   3.057   0.543
 5003TIP3    H115015   1.689   2.986   0.527
 5003TIP3    H215016   1.545   3.026   0.505
 5004TIP3   OH215017   5.483   1.874   4.486
 5004TIP3    H115018   5.523   1.837   4.565
 5004TIP3    H215019   5.490   1.969   4.499
 5005TIP3   OH215020   1.539   4.755   5.002
 5005TIP3    H115021   1.446   4.733   4.998
 5005TIP3    H215022   1.562   4.745   5.095
 5006TIP3   OH215023   2.639   5.674   4.359
 5006TIP3    H115024   2.580   5.722   4.301
 5006TIP3    H215025   2.612   5.583   4.351
 5007TIP3   OH215026   5.751   0.944   0.582
 5007TIP3    H115027   5.668   0.947   0.630
 5007TIP3    H215028   5.806   1.010   0.624
 5008TIP3   OH215029   5.732   2.702   3.412
 5008TIP3    H115030   5.780   2.766   3.466
 5008TIP3    H215031   5.790   2.683   3.339
 5009TIP3   OH215032   3.783   2.138   1.019
 5009TIP3    H115033   3.825   2.175   1.097
 5009TIP3    H215034   3.714   2.082   1.053
 5010TIP3   OH215035   5.508   4.869   0.630
 5010TIP3    H115036   5.570   4.858   0.558
 5010TIP3    H215037   5.442   4.802   0.615
 5011TIP3   OH215038   1.776   2.604   3.886
 5011TIP3    H115039   1.794   2.512   3.865
 5011TIP3    H215040   1.695   2.601   3.937
 5012TIP3   OH215041   5.357   1.031   0.049
 5012TIP3    H115042   5.315   0.949   0.074
 5012TIP3    H215043   5.419   1.049   0.120
 5013TIP3   OH215044   5.051   3.889   4.978
 5013TIP3    H115045   5.061   3.976   5.018
 5013TIP3    H215046   5.105   3.892   4.899
 5014TIP3   OH215047   6.237   5.536   0.301
 5014TIP3    H115048   6.244   5.587   0.221
 5014TIP3    H215049   6.300   5.576   0.361
 5015TIP3   OH215050   1.944   2.891   5.113
 5015TIP3    H115051   1.986   2.813   5.074
 5015TIP3    H215052   2.014   2.955   5.119
 5016TIP3   OH215053   1.486   2.624   4.422
 5016TIP3    H115054   1.449   2.586   4.502
 5016TIP3    H215055   1.510   2.548   4.368
 5017TIP3   OH215056   1.093   2.836   4.144
 5017TIP3    H115057   1.186   2.816   4.157
 5017TIP3    H215058   1.051   2.808   4.225
 5018TIP3   OH215059   6.100   5.594   4.900
 5018TIP3    H115060   6.033   5.530   4.925
 5018TIP3    H215061   6.126   5.635   4.983
 5019TIP3   OH215062   5.010   1.623   3.233
 5019TIP3    H115063   4.984   1.584   3.316
 5019TIP3    H215064   5.105   1.629   3.238
 5020TIP3   OH215065   1.232   3.496   0.164
 5020TIP3    H115066   1.236   3.529   0.254
 5020TIP3    H215067   1.182   3.415   0.172
 5021TIP3   OH215068   4.794   2.943   4.664
 5021TIP3    H115069   4.846   3.020   4.640
 5021TIP3    H215070   4.848   2.895   4.726
 5022TIP3   OH215071   6.250   2.906   1.862
 5022TIP3    H115072   6.334   2.932   1.901
 5022TIP3    H215073   6.232   2.820   1.899
 5023TIP3   OH215074   3.657   2.679   2.815
 5023TIP3    H115075   3.703   2.633   2.885
 5023TIP3    H215076   3.700   2.764   2.808
 5024TIP3   OH215077   1.706   3.754   2.943
 5024TIP3    H115078   1.691   3.830   3.000
 5024TIP3    H215079   1.619   3.730   2.911
 5025TIP3   OH215080   5.838   0.712   3.018
 5025TIP3    H115081   5.894   0.788   2.999
 5025TIP3    H215082   5.873   0.677   3.099
 5026TIP3   OH215083   5.395   4.457   1.498
 5026TIP3    H115084   5.353   4.378   1.532
 5026TIP3    H215085   5.397   4.444   1.403
 5027TIP3   OH215086   2.043   1.304   4.583
 5027TIP3    H115087   1.999   1.250   4.518
 5027TIP3    H215088   2.128   1.325   4.544
 5028TIP3   OH215089   1.082   1.029   3.843
 5028TIP3    H115090   1.062   1.081   3.765
 5028TIP3    H215091   1.170   1.056   3.868
 5029TIP3   OH215092   4.526   1.217   0.740
 5029TIP3    H115093   4.617   1.206   0.766
 5029TIP3    H215094   4.489   1.276   0.805
 5030TIP3   OH215095   3.037   0.913   0.446
 5030TIP3    H115096   3.005   0.852   0.512
 5030TIP3    H215097   2.959   0.938   0.396
 5031TIP3   OH215098   4.660   2.490   0.853
 5031TIP3    H115099   4.744   2.525   0.821
 5031TIP3    H215100   4.660   2.510   0.946
 5032TIP3   OH215101   1.986   4.137   3.230
 5032TIP3    H115102   1.952   4.063   3.181
 5032TIP3    H215103   1.993   4.208   3.166
 5033TIP3   OH215104   3.074   5.138   1.364
 5033TIP3    H115105   3.009   5.201   1.332
 5033TIP3    H215106   3.155   5.187   1.370
 5034TIP3   OH215107   2.489   0.503   3.687
 5034TIP3    H115108   2.469   0.571   3.623
 5034TIP3    H215109   2.468   0.421   3.642
 5035TIP3   OH215110   0.742   4.915   0.498
 5035TIP3    H115111   0.812   4.933   0.560
 5035TIP3    H215112   0.762   4.970   0.423
 5036TIP3   OH215113   5.919   1.284   4.741
 5036TIP3    H115114   5.930   1.247   4.828
 5036TIP3    H215115   5.991   1.247   4.690
 5037TIP3   OH215116   3.689   5.707   0.459
 5037TIP3    H115117   3.771   5.673   0.494
 5037TIP3    H215118   3.631   5.711   0.536
 5038TIP3   OH215119   5.496   4.224   2.395
 5038TIP3    H115120   5.427   4.243   2.458
 5038TIP3    H215121   5.533   4.141   2.425
 5039TIP3   OH215122   4.988   5.439   0.196
 5039TIP3    H115123   5.041   5.411   0.122
 5039TIP3    H215124   5.036   5.408   0.273
 5040TIP3   OH215125   0.169   2.871   3.702
 5040TIP3    H115126   0.149   2.961   3.676
 5040TIP3    H215127   0.128   2.817   3.635
 5041TIP3   OH215128   1.433   3.100   2.129
 5041TIP3    H115129   1.444   3.024   2.186
 5041TIP3    H215130   1.510   3.154   2.145
 5042TIP3   OH215131   2.812   4.829   0.858
 5042TIP3    H115132   2.748   4.761   0.880
 5042TIP3    H215133   2.783   4.862   0.773
 5043TIP3   OH215134   0.117   5.584   0.865
 5043TIP3    H115135   0.069   5.517   0.817
 5043TIP3    H215136   0.191   5.605   0.808
 5044TIP3   OH215137   1.600   5.627   0.459
 5044TIP3    H115138   1.687   5.652   0.491
 5044TIP3    H215139   1.605   5.531   0.450
 5045TIP3   OH215140   4.057   2.759   2.651
 5045TIP3    H115141   4.129   2.729   2.596
 5045TIP3    H215142   4.091   2.756   2.740
 5046TIP3   OH215143   3.465   0.415   4.186
 5046TIP3    H115144   3.397   0.482   4.181
 5046TIP3    H215145   3.432   0.351   4.249
 5047TIP3   OH215146   5.080   0.636   3.807
 5047TIP3    H115147   5.086   0.566   3.872
 5047TIP3    H215148   5.052   0.593   3.727
 5048TIP3   OH215149   3.461   5.078   3.893
 5048TIP3    H115150   3.542   5.091   3.844
 5048TIP3    H215151   3.462   4.986   3.916
 5049TIP3   OH215152   4.031   0.122   0.248
 5049TIP3    H115153   4.046   0.082   0.162
 5049TIP3    H215154   3.946   0.086   0.276
 5050TIP3   OH215155   4.678   1.896   0.743
 5050TIP3    H115156   4.705   1.823   0.799
 5050TIP3    H215157   4.740   1.895   0.670
 5051TIP3   OH215158   2.880   4.488   1.864
 5051TIP3    H115159   2.942   4.417   1.881
 5051TIP3    H215160   2.863   4.482   1.770
 5052TIP3   OH215161   0.261   3.656   3.863
 5052TIP3    H115162   0.249   3.689   3.774
 5052TIP3    H215163   0.212   3.716   3.919
 5053TIP3   OH215164   4.608   5.338   2.242
 5053TIP3    H115165   4.516   5.322   2.225
 5053TIP3    H215166   4.636   5.396   2.172
 5054TIP3   OH215167   0.076   4.976   0.717
 5054TIP3    H115168   0.158   5.020   0.738
 5054TIP3    H215169   0.055   5.005   0.628
 5055TIP3   OH215170   2.238   4.695   5.171
 5055TIP3    H115171   2.218   4.702   5.078
 5055TIP3    H215172   2.216   4.604   5.193
 5056TIP3   OH215173   6.318   5.642   4.729
 5056TIP3    H115174   6.316   5.733   4.702
 5056TIP3    H215175   6.251   5.636   4.797
 5057TIP3   OH215176   6.046   0.165   4.194
 5057TIP3    H115177   5.987   0.238   4.174
 5057TIP3    H215178   6.040   0.108   4.118
 5058TIP3   OH215179   2.652   1.941   2.475
 5058TIP3    H115180   2.664   1.962   2.567
 5058TIP3    H215181   2.563   1.971   2.455
 5059TIP3   OH215182   4.865   2.542   2.793
 5059TIP3    H115183   4.875   2.468   2.733
 5059TIP3    H215184   4.802   2.599   2.749
 5060TIP3   OH215185   4.844   3.490   0.675
 5060TIP3    H115186   4.888   3.406   0.691
 5060TIP3    H215187   4.874   3.515   0.587
 5061TIP3   OH215188   2.066   2.438   2.976
 5061TIP3    H115189   2.009   2.371   3.013
 5061TIP3    H215190   2.093   2.491   3.051
 5062TIP3   OH215191   0.344   2.511   4.242
 5062TIP3    H115192   0.419   2.513   4.301
 5062TIP3    H215193   0.349   2.594   4.194
 5063TIP3   OH215194   2.541   5.333   3.876
 5063TIP3    H115195   2.463   5.372   3.836
 5063TIP3    H215196   2.612   5.357   3.817
 5064TIP3   OH215197   3.886   5.064   4.223
 5064TIP3    H115198   3.825   5.000   4.187
 5064TIP3    H215199   3.898   5.128   4.153
 5065TIP3   OH215200   4.295   2.468   3.650
 5065TIP3    H115201   4.365   2.533   3.647
 5065TIP3    H215202   4.217   2.515   3.622
 5066TIP3   OH215203   1.853   1.240   2.824
 5066TIP3    H115204   1.873   1.263   2.733
 5066TIP3    H215205   1.897   1.308   2.876
 5067TIP3   OH215206   2.690   4.413   0.604
 5067TIP3    H115207   2.673   4.421   0.510
 5067TIP3    H215208   2.744   4.335   0.613
 5068TIP3   OH215209   5.769   2.581   4.859
 5068TIP3    H115210   5.730   2.635   4.928
 5068TIP3    H215211   5.829   2.523   4.905
 5069TIP3   OH215212   0.631   4.039   0.495
 5069TIP3    H115213   0.712   3.988   0.490
 5069TIP3    H215214   0.659   4.129   0.481
 5070TIP3   OH215215   4.667   2.881   0.329
 5070TIP3    H115216   4.592   2.854   0.276
 5070TIP3    H215217   4.658   2.831   0.410
 5071TIP3   OH215218   2.740   0.953   0.445
 5071TIP3    H115219   2.656   0.985   0.411
 5071TIP3    H215220   2.716   0.896   0.518
 5072TIP3   OH215221   0.653   2.482   1.014
 5072TIP3    H115222   0.713   2.508   0.944
 5072TIP3    H215223   0.566   2.492   0.976
 5073TIP3   OH215224   5.333   1.075   1.335
 5073TIP3    H115225   5.394   1.004   1.315
 5073TIP3    H215226   5.248   1.032   1.343
 5074TIP3   OH215227   0.468   5.879   0.425
 5074TIP3    H115228   0.416   5.860   0.503
 5074TIP3    H215229   0.422   5.835   0.354
 5075TIP3   OH215230   2.500   5.452   1.430
 5075TIP3    H115231   2.434   5.507   1.472
 5075TIP3    H215232   2.475   5.449   1.338
 5076TIP3   OH215233   1.164   1.949   4.290
 5076TIP3    H115234   1.254   1.943   4.256
 5076TIP3    H215235   1.174   1.988   4.377
 5077TIP3   OH215236   4.175   1.899   2.045
 5077TIP3    H115237   4.182   1.944   2.129
 5077TIP3    H215238   4.195   1.807   2.065
 5078TIP3   OH215239   0.340   0.816   3.745
 5078TIP3    H115240   0.353   0.893   3.800
 5078TIP3    H215241   0.310   0.747   3.804
 5079TIP3   OH215242   3.774   5.549   2.623
 5079TIP3    H115243   3.794   5.557   2.530
 5079TIP3    H215244   3.844   5.495   2.659
 5080TIP3   OH215245   2.631   3.337   2.317
 5080TIP3    H115246   2.609   3.313   2.407
 5080TIP3    H215247   2.680   3.419   2.324
 5081TIP3   OH215248   2.375   5.931   0.909
 5081TIP3    H115249   2.462   5.965   0.932
 5081TIP3    H215250   2.378   5.917   0.815
 5082TIP3   OH215251   1.242   1.768   4.979
 5082TIP3    H115252   1.224   1.689   5.029
 5082TIP3    H215253   1.197   1.838   5.028
 5083TIP3   OH215254   1.318   5.911   4.033
 5083TIP3    H115255   1.413   5.901   4.025
 5083TIP3    H215256   1.299   5.879   4.121
 5084TIP3   OH215257   3.358   4.786   2.997
 5084TIP3    H115258   3.307   4.742   2.930
 5084TIP3    H215259   3.405   4.716   3.042
 5085TIP3   OH215260   4.286   1.756   1.807
 5085TIP3    H115261   4.241   1.734   1.888
 5085TIP3    H215262   4.373   1.717   1.817
 5086TIP3   OH215263   1.857   0.643   3.990
 5086TIP3    H115264   1.855   0.566   4.046
 5086TIP3    H215265   1.905   0.709   4.040
 5087TIP3   OH215266   4.324   1.532   4.398
 5087TIP3    H115267   4.331   1.448   4.444
 5087TIP3    H215268   4.253   1.519   4.336
 5088TIP3   OH215269   5.447   3.528   1.731
 5088TIP3    H115270   5.476   3.473   1.657
 5088TIP3    H215271   5.428   3.465   1.801
 5089TIP3   OH215272   0.620   0.246   4.262
 5089TIP3    H115273   0.714   0.226   4.254
 5089TIP3    H215274   0.582   0.166   4.299
 5090TIP3   OH215275   3.364   0.757   3.250
 5090TIP3    H115276   3.388   0.672   3.212
 5090TIP3    H215277   3.406   0.757   3.336
 5091TIP3   OH215278   1.027   0.624   5.071
 5091TIP3    H115279   0.974   0.548   5.046
 5091TIP3    H215280   1.112   0.588   5.094
 5092TIP3   OH215281   6.123   5.275   1.628
 5092TIP3    H115282   6.055   5.219   1.664
 5092TIP3    H215283   6.199   5.260   1.684
 5093TIP3   OH215284   6.010   3.737   5.160
 5093TIP3    H115285   6.080   3.796   5.186
 5093TIP3    H215286   5.935   3.795   5.144
 5094TIP3   OH215287   3.601   1.556   3.653
 5094TIP3    H115288   3.591   1.651   3.665
 5094TIP3    H215289   3.657   1.529   3.725
 5095TIP3   OH215290   3.035   3.513   2.613
 5095TIP3    H115291   2.989   3.579   2.665
 5095TIP3    H215292   3.080   3.563   2.545
 5096TIP3   OH215293   2.649   2.379   4.598
 5096TIP3    H115294   2.722   2.421   4.552
 5096TIP3    H215295   2.625   2.305   4.543
 5097TIP3   OH215296   4.744   5.357   3.453
 5097TIP3    H115297   4.693   5.276   3.454
 5097TIP3    H215298   4.742   5.388   3.543
 5098TIP3   OH215299   4.815   4.417   2.394
 5098TIP3    H115300   4.740   4.464   2.360
 5098TIP3    H215301   4.780   4.332   2.422
 5099TIP3   OH215302   2.126   3.568   2.741
 5099TIP3    H115303   2.185   3.620   2.795
 5099TIP3    H215304   2.179   3.494   2.711
 5100TIP3   OH215305   1.717   4.405   3.767
 5100TIP3    H115306   1.780   4.468   3.801
 5100TIP3    H215307   1.754   4.377   3.683
 5101TIP3   OH215308   3.463   0.597   1.673
 5101TIP3    H115309   3.425   0.562   1.592
 5101TIP3    H215310   3.388   0.631   1.721
 5102TIP3   OH215311   2.403   5.547   0.245
 5102TIP3    H115312   2.338   5.614   0.266
 5102TIP3    H215313   2.421   5.559   0.152
 5103TIP3   OH215314   0.069   1.555   1.554
 5103TIP3    H115315   0.043   1.463   1.555
 5103TIP3    H215316  -0.014   1.603   1.562
 5104TIP3   OH215317   1.182   2.195   2.109
 5104TIP3    H115318   1.132   2.120   2.077
 5104TIP3    H215319   1.115   2.255   2.144
 5105TIP3   OH215320   4.126   1.357   0.222
 5105TIP3    H115321   4.120   1.358   0.318
 5105TIP3    H215322   4.096   1.270   0.197
 5106TIP3   OH215323   2.705   0.331   3.815
 5106TIP3    H115324   2.656   0.368   3.741
 5106TIP3    H215325   2.677   0.240   3.820
 5107TIP3   OH215326   3.763   0.330   4.439
 5107TIP3    H115327   3.857   0.316   4.445
 5107TIP3    H215328   3.752   0.384   4.361
 5108TIP3   OH215329   4.865   1.017   2.682
 5108TIP3    H115330   4.845   0.948   2.746
 5108TIP3    H215331   4.788   1.074   2.683
 5109TIP3   OH215332   3.987   3.174   2.354
 5109TIP3    H115333   3.931   3.251   2.344
 5109TIP3    H215334   4.017   3.154   2.265
 5110TIP3   OH215335   1.620   0.434   3.285
 5110TIP3    H115336   1.643   0.371   3.353
 5110TIP3    H215337   1.530   0.414   3.262
 5111TIP3   OH215338   0.297   3.732   0.374
 5111TIP3    H115339   0.367   3.668   0.364
 5111TIP3    H215340   0.280   3.764   0.286
 5112TIP3   OH215341   1.163   5.235   3.236
 5112TIP3    H115342   1.226   5.175   3.276
 5112TIP3    H215343   1.167   5.314   3.290
 5113TIP3   OH215344   5.577   3.527   0.572
 5113TIP3    H115345   5.532   3.505   0.654
 5113TIP3    H215346   5.659   3.566   0.600
 5114TIP3   OH215347   4.045   2.102   0.378
 5114TIP3    H115348   4.091   2.171   0.331
 5114TIP3    H215349   4.103   2.026   0.373
 5115TIP3   OH215350   2.387   1.917   3.176
 5115TIP3    H115351   2.464   1.861   3.185
 5115TIP3    H215352   2.379   1.931   3.081
 5116TIP3   OH215353   3.817   4.582   5.157
 5116TIP3    H115354   3.724   4.605   5.160
 5116TIP3    H215355   3.862   4.665   5.145
 5117TIP3   OH215356   3.579   4.323   2.906
 5117TIP3    H115357   3.634   4.311   2.829
 5117TIP3    H215358   3.524   4.399   2.885
 5118TIP3   OH215359   0.811   1.739   3.283
 5118TIP3    H115360   0.792   1.776   3.197
 5118TIP3    H215361   0.726   1.732   3.326
 5119TIP3   OH215362   4.919   0.321   1.433
 5119TIP3    H115363   4.857   0.264   1.388
 5119TIP3    H215364   4.967   0.263   1.492
 5120TIP3   OH215365   5.733   0.178   4.453
 5120TIP3    H115366   5.723   0.127   4.373
 5120TIP3    H215367   5.659   0.153   4.508
 5121TIP3   OH215368   2.060   0.220   3.608
 5121TIP3    H115369   1.989   0.160   3.586
 5121TIP3    H215370   2.090   0.191   3.694
 5122TIP3   OH215371   3.211   3.312   4.601
 5122TIP3    H115372   3.227   3.362   4.520
 5122TIP3    H215373   3.214   3.378   4.670
 5123TIP3   OH215374   3.497   4.159   1.310
 5123TIP3    H115375   3.441   4.126   1.380
 5123TIP3    H215376   3.518   4.249   1.336
 5124TIP3   OH215377   3.521   1.121   0.360
 5124TIP3    H115378   3.429   1.100   0.371
 5124TIP3    H215379   3.557   1.050   0.307
 5125TIP3   OH215380   4.386   1.081   0.290
 5125TIP3    H115381   4.376   1.162   0.240
 5125TIP3    H215382   4.447   1.103   0.360
 5126TIP3   OH215383   2.498   3.020   2.358
 5126TIP3    H115384   2.586   3.033   2.394
 5126TIP3    H215385   2.507   2.945   2.300
 5127TIP3   OH215386   4.665   4.289   3.946
 5127TIP3    H115387   4.716   4.287   3.864
 5127TIP3    H215388   4.589   4.344   3.925
 5128TIP3   OH215389   4.623   2.441   1.776
 5128TIP3    H115390   4.597   2.493   1.700
 5128TIP3    H215391   4.670   2.366   1.739
 5129TIP3   OH215392   1.515   3.338   2.575
 5129TIP3    H115393   1.552   3.278   2.639
 5129TIP3    H215394   1.589   3.391   2.546
 5130TIP3   OH215395   0.216   1.431   1.812
 5130TIP3    H115396   0.306   1.405   1.796
 5130TIP3    H215397   0.185   1.466   1.728
 5131TIP3   OH215398   1.038   3.432   0.450
 5131TIP3    H115399   1.038   3.393   0.537
 5131TIP3    H215400   0.997   3.366   0.394
 5132TIP3   OH215401   3.846   5.642   1.478
 5132TIP3    H115402   3.854   5.723   1.528
 5132TIP3    H215403   3.806   5.580   1.540
 5133TIP3   OH215404   0.019   3.966   1.572
 5133TIP3    H115405   0.042   4.023   1.646
 5133TIP3    H215406   0.101   3.921   1.551
 5134TIP3   OH215407   5.898   5.557   3.716
 5134TIP3    H115408   5.889   5.481   3.659
 5134TIP3    H215409   5.832   5.619   3.683
 5135TIP3   OH215410   5.163   1.776   1.627
 5135TIP3    H115411   5.091   1.832   1.598
 5135TIP3    H215412   5.125   1.688   1.631
 5136TIP3   OH215413   4.051   4.035   1.394
 5136TIP3    H115414   4.110   3.999   1.460
 5136TIP3    H215415   4.001   3.960   1.362
 5137TIP3   OH215416   0.909   5.811   4.770
 5137TIP3    H115417   0.880   5.891   4.725
 5137TIP3    H215418   0.934   5.841   4.858
 5138TIP3   OH215419   1.243   5.349   4.710
 5138TIP3    H115420   1.170   5.380   4.763
 5138TIP3    H215421   1.217   5.261   4.683
 5139TIP3   OH215422   0.428   2.353   3.821
 5139TIP3    H115423   0.380   2.411   3.763
 5139TIP3    H215424   0.515   2.392   3.826
 5140TIP3   OH215425   2.826   0.085   0.901
 5140TIP3    H115426   2.732   0.084   0.917
 5140TIP3    H215427   2.863   0.132   0.976
 5141TIP3   OH215428   2.572   4.303   1.225
 5141TIP3    H115429   2.602   4.229   1.173
 5141TIP3    H215430   2.642   4.368   1.217
 5142TIP3   OH215431   2.541   2.638   1.130
 5142TIP3    H115432   2.527   2.548   1.100
 5142TIP3    H215433   2.545   2.632   1.225
 5143TIP3   OH215434   0.196   0.085   3.829
 5143TIP3    H115435   0.290   0.083   3.850
 5143TIP3    H215436   0.193   0.109   3.737
 5144TIP3   OH215437  -0.018   2.077   5.052
 5144TIP3    H115438   0.057   2.046   5.001
 5144TIP3    H215439  -0.011   2.030   5.135
 5145TIP3   OH215440   4.256   5.866   3.492
 5145TIP3    H115441   4.254   5.961   3.505
 5145TIP3    H215442   4.300   5.832   3.569
 5146TIP3   OH215443   5.617   5.653   1.084
 5146TIP3    H115444   5.602   5.602   1.004
 5146TIP3    H215445   5.530   5.685   1.108
 5147TIP3   OH215446   4.066   0.405   4.581
 5147TIP3    H115447   4.076   0.353   4.661
 5147TIP3    H215448   4.018   0.483   4.609
 5148TIP3   OH215449   4.265   5.963   4.027
 5148TIP3    H115450   4.219   5.890   3.986
 5148TIP3    H215451   4.300   6.013   3.954
 5149TIP3   OH215452   5.784   3.918   2.972
 5149TIP3    H115453   5.787   4.007   3.005
 5149TIP3    H215454   5.690   3.897   2.968
 5150TIP3   OH215455   4.526   4.571   0.755
 5150TIP3    H115456   4.466   4.498   0.736
 5150TIP3    H215457   4.500   4.602   0.842
 5151TIP3   OH215458   5.006   4.032   4.621
 5151TIP3    H115459   4.983   4.102   4.682
 5151TIP3    H215460   5.073   3.981   4.667
 5152TIP3   OH215461   6.292   1.973   3.800
 5152TIP3    H115462   6.243   1.903   3.756
 5152TIP3    H215463   6.267   2.053   3.753
 5153TIP3   OH215464   4.814   2.189   1.762
 5153TIP3    H115465   4.878   2.145   1.707
 5153TIP3    H215466   4.864   2.220   1.837
 5154TIP3   OH215467   2.692   3.355   1.678
 5154TIP3    H115468   2.680   3.308   1.596
 5154TIP3    H215469   2.615   3.332   1.730
 5155TIP3   OH215470   5.889   4.963   4.834
 5155TIP3    H115471   5.940   4.903   4.887
 5155TIP3    H215472   5.936   4.969   4.751
 5156TIP3   OH215473   2.954   2.551   1.934
 5156TIP3    H115474   2.899   2.552   1.856
 5156TIP3    H215475   3.024   2.614   1.914
 5157TIP3   OH215476   1.792   1.827   0.427
 5157TIP3    H115477   1.774   1.788   0.513
 5157TIP3    H215478   1.713   1.810   0.376
 5158TIP3   OH215479   4.280   0.224   0.322
 5158TIP3    H115480   4.200   0.171   0.325
 5158TIP3    H215481   4.350   0.162   0.342
 5159TIP3   OH215482   4.008   1.541   0.081
 5159TIP3    H115483   4.054   1.486   0.144
 5159TIP3    H215484   4.059   1.622   0.079
 5160TIP3   OH215485   0.501   1.103   3.567
 5160TIP3    H115486   0.498   1.186   3.614
 5160TIP3    H215487   0.584   1.063   3.592
 5161TIP3   OH215488   0.166   4.357   1.527
 5161TIP3    H115489   0.134   4.304   1.453
 5161TIP3    H215490   0.251   4.319   1.549
 5162TIP3   OH215491   5.510   0.924   2.348
 5162TIP3    H115492   5.476   1.014   2.353
 5162TIP3    H215493   5.444   0.871   2.392
 5163TIP3   OH215494   4.274   4.168   2.595
 5163TIP3    H115495   4.292   4.209   2.510
 5163TIP3    H215496   4.351   4.188   2.648
 5164TIP3   OH215497   5.649   3.822   4.217
 5164TIP3    H115498   5.741   3.793   4.212
 5164TIP3    H215499   5.609   3.784   4.139
 5165TIP3   OH215500   3.919   4.859   3.339
 5165TIP3    H115501   3.937   4.918   3.412
 5165TIP3    H215502   3.973   4.782   3.355
 5166TIP3   OH215503   2.676   0.800   1.653
 5166TIP3    H115504   2.659   0.718   1.606
 5166TIP3    H215505   2.665   0.778   1.745
 5167TIP3   OH215506   0.102   3.511   1.544
 5167TIP3    H115507   0.015   3.475   1.561
 5167TIP3    H215508   0.093   3.562   1.464
 5168TIP3   OH215509   0.556   1.535   4.411
 5168TIP3    H115510   0.634   1.518   4.357
 5168TIP3    H215511   0.563   1.627   4.435
 5169TIP3   OH215512   5.347   5.186   4.794
 5169TIP3    H115513   5.303   5.271   4.789
 5169TIP3    H215514   5.413   5.197   4.862
 5170TIP3   OH215515   5.862   3.965   4.532
 5170TIP3    H115516   5.847   3.889   4.476
 5170TIP3    H215517   5.950   3.995   4.507
 5171TIP3   OH215518   0.484   1.940   3.493
 5171TIP3    H115519   0.558   1.938   3.433
 5171TIP3    H215520   0.474   2.032   3.517
 5172TIP3   OH215521   3.377   3.611   4.217
 5172TIP3    H115522   3.362   3.660   4.135
 5172TIP3    H215523   3.442   3.545   4.193
 5173TIP3   OH215524   3.361   0.903   2.792
 5173TIP3    H115525   3.386   0.951   2.871
 5173TIP3    H215526   3.436   0.914   2.733
 5174TIP3   OH215527   2.740   2.245  -0.073
 5174TIP3    H115528   2.663   2.200  -0.105
 5174TIP3    H215529   2.727   2.251   0.022
 5175TIP3   OH215530   0.909   1.429   5.090
 5175TIP3    H115531   0.953   1.352   5.053
 5175TIP3    H215532   0.818   1.420   5.061
 5176TIP3   OH215533   5.785   5.443   3.018
 5176TIP3    H115534   5.837   5.433   3.098
 5176TIP3    H215535   5.834   5.506   2.965
 5177TIP3   OH215536   4.787   0.824   2.218
 5177TIP3    H115537   4.765   0.900   2.272
 5177TIP3    H215538   4.817   0.758   2.279
 5178TIP3   OH215539   3.443   2.059   2.934
 5178TIP3    H115540   3.428   1.985   2.874
 5178TIP3    H215541   3.517   2.031   2.987
 5179TIP3   OH215542   2.405   0.443   0.655
 5179TIP3    H115543   2.392   0.394   0.573
 5179TIP3    H215544   2.331   0.503   0.660
 5180TIP3   OH215545   4.702   4.457   2.088
 5180TIP3    H115546   4.784   4.499   2.115
 5180TIP3    H215547   4.661   4.520   2.029
 5181TIP3   OH215548   5.739   1.102   3.826
 5181TIP3    H115549   5.751   1.111   3.920
 5181TIP3    H215550   5.725   1.008   3.813
 5182TIP3   OH215551   1.349   5.430   4.444
 5182TIP3    H115552   1.276   5.483   4.413
 5182TIP3    H215553   1.388   5.395   4.364
 5183TIP3   OH215554   2.661   5.465   5.011
 5183TIP3    H115555   2.703   5.436   5.091
 5183TIP3    H215556   2.639   5.383   4.965
 5184TIP3   OH215557   4.731   2.528   5.026
 5184TIP3    H115558   4.719   2.553   4.934
 5184TIP3    H215559   4.756   2.609   5.070
 5185TIP3   OH215560   1.807   2.351   1.059
 5185TIP3    H115561   1.769   2.378   0.976
 5185TIP3    H215562   1.841   2.263   1.043
 5186TIP3   OH215563   3.172   0.059   3.167
 5186TIP3    H115564   3.172  -0.009   3.235
 5186TIP3    H215565   3.191   0.140   3.215
 5187TIP3   OH215566   6.013   1.961   3.397
 5187TIP3    H115567   5.977   1.928   3.314
 5187TIP3    H215568   5.941   2.009   3.437
 5188TIP3   OH215569   2.259   3.945   0.627
 5188TIP3    H115570   2.323   3.906   0.568
 5188TIP3    H215571   2.251   4.036   0.598
 5189TIP3   OH215572   0.376   3.721   2.549
 5189TIP3    H115573   0.368   3.711   2.454
 5189TIP3    H215574   0.381   3.631   2.582
 5190TIP3   OH215575   2.494   1.264   4.244
 5190TIP3    H115576   2.407   1.236   4.216
 5190TIP3    H215577   2.554   1.203   4.200
 5191TIP3   OH215578   3.935   5.907   4.069
 5191TIP3    H115579   4.005   5.858   4.025
 5191TIP3    H215580   3.864   5.910   4.005
 5192TIP3   OH215581   0.812   4.398   4.474
 5192TIP3    H115582   0.786   4.438   4.557
 5192TIP3    H215583   0.807   4.304   4.489
 5193TIP3   OH215584   3.944   3.616   2.860
 5193TIP3    H115585   4.039   3.617   2.844
 5193TIP3    H215586   3.925   3.526   2.886
 5194TIP3   OH215587   2.345   4.688   3.854
 5194TIP3    H115588   2.366   4.750   3.923
 5194TIP3    H215589   2.355   4.737   3.772
 5195TIP3   OH215590   5.357   0.450   2.343
 5195TIP3    H115591   5.297   0.381   2.313
 5195TIP3    H215592   5.345   0.451   2.438
 5196TIP3   OH215593   5.317   4.473   2.011
 5196TIP3    H115594   5.223   4.473   1.994
 5196TIP3    H215595   5.356   4.430   1.935
 5197TIP3   OH215596   1.423   5.069   4.485
 5197TIP3    H115597   1.508   5.045   4.522
 5197TIP3    H215598   1.365   5.077   4.562
 5198TIP3   OH215599   5.154   3.730   3.703
 5198TIP3    H115600   5.180   3.770   3.786
 5198TIP3    H215601   5.081   3.673   3.726
 5199TIP3   OH215602   2.180   3.831   3.764
 5199TIP3    H115603   2.134   3.887   3.826
 5199TIP3    H215604   2.177   3.743   3.803
 5200TIP3   OH215605   2.334   0.780   2.409
 5200TIP3    H115606   2.295   0.852   2.459
 5200TIP3    H215607   2.259   0.730   2.377
 5201TIP3   OH215608   1.581   4.220   4.612
 5201TIP3    H115609   1.589   4.291   4.676
 5201TIP3    H215610   1.528   4.256   4.542
 5202TIP3   OH215611   0.058   0.239   1.748
 5202TIP3    H115612   0.031   0.147   1.744
 5202TIP3    H215613   0.146   0.237   1.786
 5203TIP3   OH215614   2.534   5.949   4.943
 5203TIP3    H115615   2.513   5.873   4.888
 5203TIP3    H215616   2.629   5.944   4.955
 5204TIP3   OH215617   1.690   3.148   0.018
 5204TIP3    H115618   1.753   3.099   0.070
 5204TIP3    H215619   1.665   3.222   0.073
 5205TIP3   OH215620   4.920   1.314   0.438
 5205TIP3    H115621   4.937   1.408   0.444
 5205TIP3    H215622   4.833   1.303   0.478
 5206TIP3   OH215623   2.969   1.565   2.272
 5206TIP3    H115624   2.876   1.577   2.295
 5206TIP3    H215625   3.009   1.533   2.353
 5207TIP3   OH215626   2.457   4.707   3.185
 5207TIP3    H115627   2.514   4.749   3.250
 5207TIP3    H215628   2.374   4.696   3.230
 5208TIP3   OH215629   5.262   2.168   3.475
 5208TIP3    H115630   5.318   2.198   3.403
 5208TIP3    H215631   5.211   2.245   3.498
 5209TIP3   OH215632   0.391   4.924   0.788
 5209TIP3    H115633   0.467   4.924   0.845
 5209TIP3    H215634   0.334   4.855   0.823
 5210TIP3   OH215635   5.580   5.244   4.937
 5210TIP3    H115636   5.583   5.246   5.032
 5210TIP3    H215637   5.672   5.239   4.910
 5211TIP3   OH215638   5.576   2.324   0.998
 5211TIP3    H115639   5.668   2.333   0.975
 5211TIP3    H215640   5.549   2.241   0.958
 5212TIP3   OH215641   1.916   3.959   3.040
 5212TIP3    H115642   1.996   3.958   2.988
 5212TIP3    H215643   1.884   3.869   3.037
 5213TIP3   OH215644   1.018   4.916   4.596
 5213TIP3    H115645   1.045   4.827   4.617
 5213TIP3    H215646   0.923   4.910   4.585
 5214TIP3   OH215647   2.898   5.068   2.363
 5214TIP3    H115648   2.950   5.081   2.284
 5214TIP3    H215649   2.961   5.077   2.435
 5215TIP3   OH215650   1.788   1.198   1.653
 5215TIP3    H115651   1.851   1.127   1.648
 5215TIP3    H215652   1.738   1.192   1.572
 5216TIP3   OH215653   5.335   3.595   0.121
 5216TIP3    H115654   5.356   3.622   0.210
 5216TIP3    H215655   5.250   3.635   0.103
 5217TIP3   OH215656   0.287   2.929   1.144
 5217TIP3    H115657   0.269   2.860   1.208
 5217TIP3    H215658   0.201   2.961   1.118
 5218TIP3   OH215659   5.256   5.590   3.700
 5218TIP3    H115660   5.214   5.579   3.615
 5218TIP3    H215661   5.188   5.630   3.755
 5219TIP3   OH215662   3.712   4.263   3.559
 5219TIP3    H115663   3.627   4.294   3.590
 5219TIP3    H215664   3.747   4.334   3.506
 5220TIP3   OH215665   5.577   3.579   4.032
 5220TIP3    H115666   5.512   3.527   4.079
 5220TIP3    H215667   5.527   3.624   3.964
 5221TIP3   OH215668   5.616   4.789   4.359
 5221TIP3    H115669   5.554   4.725   4.325
 5221TIP3    H215670   5.688   4.789   4.296
 5222TIP3   OH215671   5.978   4.664   4.522
 5222TIP3    H115672   6.074   4.663   4.523
 5222TIP3    H215673   5.956   4.757   4.519
 5223TIP3   OH215674   1.589   5.163   4.726
 5223TIP3    H115675   1.535   5.084   4.715
 5223TIP3    H215676   1.670   5.130   4.764
 5224TIP3   OH215677   2.786   5.406   0.916
 5224TIP3    H115678   2.719   5.423   0.850
 5224TIP3    H215679   2.738   5.368   0.990
 5225TIP3   OH215680   0.465   4.548   5.112
 5225TIP3    H115681   0.529   4.490   5.155
 5225TIP3    H215682   0.518   4.623   5.084
 5226TIP3   OH215683   1.309   3.203   4.490
 5226TIP3    H115684   1.372   3.187   4.560
 5226TIP3    H215685   1.335   3.143   4.420
 5227TIP3   OH215686   4.167   4.308   2.931
 5227TIP3    H115687   4.195   4.219   2.910
 5227TIP3    H215688   4.228   4.337   2.999
 5228TIP3   OH215689   2.247   3.034   2.979
 5228TIP3    H115690   2.163   3.074   3.002
 5228TIP3    H215691   2.273   2.986   3.057
 5229TIP3   OH215692   2.706   1.393   5.045
 5229TIP3    H115693   2.638   1.457   5.026
 5229TIP3    H215694   2.659   1.319   5.083
 5230TIP3   OH215695   4.952   4.262   3.749
 5230TIP3    H115696   4.968   4.304   3.834
 5230TIP3    H215697   4.909   4.179   3.771
 5231TIP3   OH215698   1.689   0.203   2.019
 5231TIP3    H115699   1.756   0.153   1.973
 5231TIP3    H215700   1.719   0.294   2.015
 5232TIP3   OH215701   4.392   4.927   4.322
 5232TIP3    H115702   4.311   4.962   4.359
 5232TIP3    H215703   4.446   4.904   4.398
 5233TIP3   OH215704   6.029   1.488   3.420
 5233TIP3    H115705   5.955   1.548   3.418
 5233TIP3    H215706   6.101   1.540   3.456
 5234TIP3   OH215707   2.597   3.457   4.476
 5234TIP3    H115708   2.556   3.492   4.556
 5234TIP3    H215709   2.546   3.378   4.456
 5235TIP3   OH215710   3.204   3.417   4.348
 5235TIP3    H115711   3.265   3.490   4.341
 5235TIP3    H215712   3.232   3.355   4.281
 5236TIP3   OH215713   3.225   1.902   0.659
 5236TIP3    H115714   3.196   1.974   0.714
 5236TIP3    H215715   3.195   1.925   0.571
 5237TIP3   OH215716   0.768   3.107   4.186
 5237TIP3    H115717   0.774   3.198   4.215
 5237TIP3    H215718   0.850   3.091   4.138
 5238TIP3   OH215719   5.583   5.452   1.914
 5238TIP3    H115720   5.567   5.533   1.962
 5238TIP3    H215721   5.623   5.481   1.832
 5239TIP3   OH215722   3.860   0.084   1.968
 5239TIP3    H115723   3.791   0.146   1.948
 5239TIP3    H215724   3.828   0.000   1.934
 5240TIP3   OH215725   1.446   4.260   1.917
 5240TIP3    H115726   1.448   4.165   1.907
 5240TIP3    H215727   1.533   4.282   1.950
 5241TIP3   OH215728   6.251   1.501   0.965
 5241TIP3    H115729   6.260   1.550   0.883
 5241TIP3    H215730   6.221   1.414   0.938
 5242TIP3   OH215731   0.675   5.744   4.064
 5242TIP3    H115732   0.668   5.822   4.120
 5242TIP3    H215733   0.589   5.737   4.022
 5243TIP3   OH215734   4.813   4.021   2.372
 5243TIP3    H115735   4.827   3.943   2.426
 5243TIP3    H215736   4.718   4.023   2.358
 5244TIP3   OH215737   3.466   0.314   4.987
 5244TIP3    H115738   3.459   0.313   4.892
 5244TIP3    H215739   3.384   0.352   5.017
 5245TIP3   OH215740   3.043   2.202   0.233
 5245TIP3    H115741   3.124   2.253   0.228
 5245TIP3    H215742   2.998   2.221   0.151
 5246TIP3   OH215743   3.893   0.123   4.186
 5246TIP3    H115744   3.935   0.185   4.246
 5246TIP3    H215745   3.824   0.174   4.144
 5247TIP3   OH215746   6.186   4.059   4.972
 5247TIP3    H115747   6.105   4.009   4.983
 5247TIP3    H215748   6.253   3.993   4.954
 5248TIP3   OH215749   5.947   0.434   0.644
 5248TIP3    H115750   5.856   0.460   0.650
 5248TIP3    H215751   5.944   0.347   0.603
 5249TIP3   OH215752   2.471   4.212   5.186
 5249TIP3    H115753   2.527   4.148   5.143
 5249TIP3    H215754   2.382   4.191   5.155
 5250TIP3   OH215755   4.026   4.018   3.256
 5250TIP3    H115756   4.095   4.085   3.263
 5250TIP3    H215757   3.951   4.057   3.301
 5251TIP3   OH215758   5.476   5.637   3.838
 5251TIP3    H115759   5.394   5.602   3.804
 5251TIP3    H215760   5.543   5.599   3.780
 5252TIP3   OH215761   5.814   2.792   0.547
 5252TIP3    H115762   5.831   2.807   0.454
 5252TIP3    H215763   5.784   2.702   0.552
 5253TIP3   OH215764   3.281   2.561   4.427
 5253TIP3    H115765   3.335   2.591   4.501
 5253TIP3    H215766   3.293   2.627   4.360
 5254TIP3   OH215767   5.175   5.416   4.787
 5254TIP3    H115768   5.145   5.457   4.706
 5254TIP3    H215769   5.187   5.489   4.848
 5255TIP3   OH215770   0.193   1.127   4.451
 5255TIP3    H115771   0.216   1.108   4.542
 5255TIP3    H215772   0.126   1.195   4.458
 5256TIP3   OH215773   2.134   4.703   4.909
 5256TIP3    H115774   2.066   4.769   4.921
 5256TIP3    H215775   2.090   4.620   4.930
 5257TIP3   OH215776   0.097   3.343   4.668
 5257TIP3    H115777   0.092   3.398   4.590
 5257TIP3    H215778   0.050   3.392   4.735
 5258TIP3   OH215779   2.118   3.821   2.277
 5258TIP3    H115780   2.063   3.897   2.258
 5258TIP3    H215781   2.196   3.833   2.223
 5259TIP3   OH215782   4.591   3.263   2.702
 5259TIP3    H115783   4.675   3.221   2.690
 5259TIP3    H215784   4.609   3.357   2.693
 5260TIP3   OH215785   5.211   5.742   4.376
 5260TIP3    H115786   5.163   5.687   4.438
 5260TIP3    H215787   5.148   5.761   4.306
 5261TIP3   OH215788   4.459   1.142   4.202
 5261TIP3    H115789   4.376   1.159   4.245
 5261TIP3    H215790   4.509   1.223   4.211
 5262TIP3   OH215791   3.776   1.538   1.814
 5262TIP3    H115792   3.810   1.545   1.903
 5262TIP3    H215793   3.825   1.603   1.763
 5263TIP3   OH215794   0.370   5.007   1.572
 5263TIP3    H115795   0.342   5.098   1.584
 5263TIP3    H215796   0.308   4.956   1.625
 5264TIP3   OH215797   4.037   0.439   0.581
 5264TIP3    H115798   4.107   0.485   0.535
 5264TIP3    H215799   3.971   0.421   0.514
 5265TIP3   OH215800   0.953   2.368   4.849
 5265TIP3    H115801   0.940   2.451   4.895
 5265TIP3    H215802   0.896   2.307   4.894
 5266TIP3   OH215803   0.299   3.443   2.108
 5266TIP3    H115804   0.390   3.416   2.117
 5266TIP3    H215805   0.258   3.418   2.191
 5267TIP3   OH215806   1.610   2.203   2.943
 5267TIP3    H115807   1.615   2.197   2.848
 5267TIP3    H215808   1.538   2.265   2.959
 5268TIP3   OH215809   1.665   1.166   2.638
 5268TIP3    H115810   1.659   1.160   2.733
 5268TIP3    H215811   1.676   1.260   2.621
 5269TIP3   OH215812   5.007   2.766   4.709
 5269TIP3    H115813   5.005   2.675   4.740
 5269TIP3    H215814   5.047   2.815   4.781
 5270TIP3   OH215815   0.841   4.595   1.368
 5270TIP3    H115816   0.903   4.577   1.297
 5270TIP3    H215817   0.873   4.677   1.406
 5271TIP3   OH215818   5.149   1.448   0.075
 5271TIP3    H115819   5.213   1.414   0.138
 5271TIP3    H215820   5.200   1.509   0.021
 5272TIP3   OH215821   1.682   2.008   4.690
 5272TIP3    H115822   1.619   2.008   4.762
 5272TIP3    H215823   1.733   2.088   4.703
 5273TIP3   OH215824   5.444   0.378   1.464
 5273TIP3    H115825   5.532   0.342   1.460
 5273TIP3    H215826   5.399   0.324   1.529
 5274TIP3   OH215827   4.194   5.513   2.740
 5274TIP3    H115828   4.270   5.462   2.712
 5274TIP3    H215829   4.197   5.592   2.685
 5275TIP3   OH215830   1.687   4.450   2.855
 5275TIP3    H115831   1.740   4.490   2.924
 5275TIP3    H215832   1.646   4.374   2.896
 5276TIP3   OH215833   2.597   2.586   2.624
 5276TIP3    H115834   2.520   2.532   2.642
 5276TIP3    H215835   2.593   2.603   2.530
 5277TIP3   OH215836   2.460   2.899   3.709
 5277TIP3    H115837   2.372   2.903   3.748
 5277TIP3    H215838   2.510   2.845   3.771
 5278TIP3   OH215839   1.629   3.473   4.722
 5278TIP3    H115840   1.690   3.546   4.734
 5278TIP3    H215841   1.568   3.504   4.655
 5279TIP3   OH215842   2.443   0.018   1.098
 5279TIP3    H115843   2.355   0.004   1.063
 5279TIP3    H215844   2.474   0.096   1.052
 5280TIP3   OH215845   0.431   2.509   2.659
 5280TIP3    H115846   0.525   2.518   2.676
 5280TIP3    H215847   0.397   2.468   2.738
 5281TIP3   OH215848   2.641   2.458   5.193
 5281TIP3    H115849   2.691   2.437   5.273
 5281TIP3    H215850   2.688   2.412   5.123
 5282TIP3   OH215851   0.852   0.475   3.181
 5282TIP3    H115852   0.919   0.504   3.120
 5282TIP3    H215853   0.895   0.407   3.233
 5283TIP3   OH215854   4.411   4.969   1.683
 5283TIP3    H115855   4.356   4.951   1.606
 5283TIP3    H215856   4.460   5.048   1.660
 5284TIP3   OH215857   2.532   0.751   4.490
 5284TIP3    H115858   2.582   0.730   4.568
 5284TIP3    H215859   2.580   0.710   4.418
 5285TIP3   OH215860   2.905   0.355   3.063
 5285TIP3    H115861   2.874   0.275   3.105
 5285TIP3    H215862   2.985   0.330   3.018
 5286TIP3   OH215863   5.863   4.708   2.829
 5286TIP3    H115864   5.837   4.793   2.867
 5286TIP3    H215865   5.800   4.646   2.867
 5287TIP3   OH215866   5.211   3.484   2.181
 5287TIP3    H115867   5.226   3.496   2.088
 5287TIP3    H215868   5.209   3.572   2.217
 5288TIP3   OH215869   3.211   4.566   4.834
 5288TIP3    H115870   3.159   4.612   4.900
 5288TIP3    H215871   3.150   4.549   4.762
 5289TIP3   OH215872   0.181   5.566   1.511
 5289TIP3    H115873   0.180   5.494   1.449
 5289TIP3    H215874   0.102   5.554   1.564
 5290TIP3   OH215875   3.018   5.355   4.688
 5290TIP3    H115876   3.066   5.435   4.708
 5290TIP3    H215877   2.941   5.384   4.640
 5291TIP3   OH215878   2.763   1.641   3.178
 5291TIP3    H115879   2.690   1.633   3.240
 5291TIP3    H215880   2.801   1.726   3.196
 5292TIP3   OH215881   4.646   0.281   4.800
 5292TIP3    H115882   4.616   0.262   4.889
 5292TIP3    H215883   4.575   0.333   4.762
 5293TIP3   OH215884   3.083   3.778   0.104
 5293TIP3    H115885   2.992   3.790   0.077
 5293TIP3    H215886   3.114   3.705   0.052
 5294TIP3   OH215887   6.103   3.325   5.091
 5294TIP3    H115888   6.167   3.316   5.162
 5294TIP3    H215889   6.112   3.244   5.040
 5295TIP3   OH215890   2.326   5.447   2.128
 5295TIP3    H115891   2.251   5.437   2.069
 5295TIP3    H215892   2.298   5.514   2.191
 5296TIP3   OH215893   4.249   1.901   0.425
 5296TIP3    H115894   4.328   1.856   0.454
 5296TIP3    H215895   4.187   1.891   0.498
 5297TIP3   OH215896   1.769   4.529   0.455
 5297TIP3    H115897   1.763   4.437   0.431
 5297TIP3    H215898   1.784   4.574   0.372
 5298TIP3   OH215899   0.469   4.202   1.881
 5298TIP3    H115900   0.430   4.273   1.932
 5298TIP3    H215901   0.463   4.125   1.938
 5299TIP3   OH215902   4.202   4.960   4.007
 5299TIP3    H115903   4.262   4.888   3.989
 5299TIP3    H215904   4.221   5.025   3.940
 5300TIP3   OH215905   0.406   5.725   2.932
 5300TIP3    H115906   0.410   5.724   2.836
 5300TIP3    H215907   0.483   5.775   2.959
 5301TIP3   OH215908   5.969   5.602   3.997
 5301TIP3    H115909   5.965   5.598   3.901
 5301TIP3    H215910   5.965   5.511   4.025
 5302TIP3   OH215911   3.038   3.737   2.809
 5302TIP3    H115912   2.944   3.724   2.824
 5302TIP3    H215913   3.079   3.673   2.868
 5303TIP3   OH215914   0.770   5.526   0.989
 5303TIP3    H115915   0.821   5.587   1.043
 5303TIP3    H215916   0.731   5.580   0.921
 5304TIP3   OH215917   6.186   4.484   2.841
 5304TIP3    H115918   6.246   4.539   2.792
 5304TIP3    H215919   6.104   4.487   2.790
 5305TIP3   OH215920   3.939   1.775   4.680
 5305TIP3    H115921   3.971   1.715   4.748
 5305TIP3    H215922   3.963   1.733   4.598
 5306TIP3   OH215923   3.254   3.396   3.948
 5306TIP3    H115924   3.176   3.344   3.931
 5306TIP3    H215925   3.300   3.350   4.018
 5307TIP3   OH215926   5.195   5.022   3.054
 5307TIP3    H115927   5.208   5.104   3.103
 5307TIP3    H215928   5.246   4.957   3.103
 5308TIP3   OH215929   4.286   4.770   0.735
 5308TIP3    H115930   4.342   4.722   0.797
 5308TIP3    H215931   4.202   4.725   0.739
 5309TIP3   OH215932   2.739   4.854   0.368
 5309TIP3    H115933   2.816   4.816   0.324
 5309TIP3    H215934   2.691   4.778   0.401
 5310TIP3   OH215935   5.147   3.467   4.204
 5310TIP3    H115936   5.083   3.443   4.137
 5310TIP3    H215937   5.142   3.563   4.209
 5311TIP3   OH215938   0.791   5.491   3.940
 5311TIP3    H115939   0.704   5.494   3.978
 5311TIP3    H215940   0.798   5.572   3.889
 5312TIP3   OH215941   6.277   3.118   4.516
 5312TIP3    H115942   6.226   3.162   4.448
 5312TIP3    H215943   6.366   3.152   4.505
 5313TIP3   OH215944   6.263   1.359   2.236
 5313TIP3    H115945   6.273   1.435   2.179
 5313TIP3    H215946   6.263   1.284   2.177
 5314TIP3   OH215947   3.271   4.461   1.703
 5314TIP3    H115948   3.248   4.383   1.753
 5314TIP3    H215949   3.188   4.506   1.687
 5315TIP3   OH215950   0.745   0.671   0.265
 5315TIP3    H115951   0.792   0.697   0.186
 5315TIP3    H215952   0.796   0.598   0.301
 5316TIP3   OH215953   4.185   0.759   4.535
 5316TIP3    H115954   4.153   0.820   4.469
 5316TIP3    H215955   4.269   0.796   4.563
 5317TIP3   OH215956   1.048   5.224   1.496
 5317TIP3    H115957   1.004   5.305   1.523
 5317TIP3    H215958   0.991   5.187   1.429
 5318TIP3   OH215959   2.282   2.120   0.057
 5318TIP3    H115960   2.251   2.205   0.028
 5318TIP3    H215961   2.202   2.071   0.078
 5319TIP3   OH215962   5.388   0.495   0.951
 5319TIP3    H115963   5.406   0.448   0.870
 5319TIP3    H215964   5.329   0.437   1.000
 5320TIP3   OH215965   3.083   4.529   2.178
 5320TIP3    H115966   3.147   4.507   2.246
 5320TIP3    H215967   3.085   4.624   2.173
 5321TIP3   OH215968   3.716   0.446   2.070
 5321TIP3    H115969   3.717   0.450   1.974
 5321TIP3    H215970   3.763   0.366   2.091
 5322TIP3   OH215971   4.637   3.023   2.321
 5322TIP3    H115972   4.710   2.967   2.347
 5322TIP3    H215973   4.617   3.074   2.399
 5323TIP3   OH215974   1.011   4.614   4.629
 5323TIP3    H115975   1.041   4.571   4.549
 5323TIP3    H215976   1.084   4.603   4.690
 5324TIP3   OH215977   2.337   4.581   4.735
 5324TIP3    H115978   2.424   4.608   4.762
 5324TIP3    H215979   2.279   4.649   4.769
 5325TIP3   OH215980   4.097   3.645   4.168
 5325TIP3    H115981   4.026   3.616   4.225
 5325TIP3    H215982   4.164   3.577   4.176
 5326TIP3   OH215983   1.057   1.120   2.984
 5326TIP3    H115984   1.106   1.201   2.974
 5326TIP3    H215985   1.021   1.102   2.898
 5327TIP3   OH215986   5.485   2.974   3.577
 5327TIP3    H115987   5.551   3.036   3.606
 5327TIP3    H215988   5.414   2.983   3.641
 5328TIP3   OH215989   0.300   3.639   1.371
 5328TIP3    H115990   0.302   3.611   1.280
 5328TIP3    H215991   0.344   3.568   1.418
 5329TIP3   OH215992   4.618   2.858   1.203
 5329TIP3    H115993   4.649   2.830   1.289
 5329TIP3    H215994   4.525   2.835   1.203
 5330TIP3   OH215995   2.384   2.282   3.415
 5330TIP3    H115996   2.410   2.360   3.367
 5330TIP3    H215997   2.290   2.273   3.398
 5331TIP3   OH215998   2.355   2.290   2.472
 5331TIP3    H115999   2.393   2.204   2.493
 5331TIP3    H216000   2.379   2.345   2.546
 5332TIP3   OH216001   2.470   4.592   2.937
 5332TIP3    H116002   2.481   4.623   3.027
 5332TIP3    H216003   2.478   4.497   2.943
 5333TIP3   OH216004   3.002   1.574   3.084
 5333TIP3    H116005   2.990   1.508   3.015
 5333TIP3    H216006   2.916   1.584   3.122
 5334TIP3   OH216007   4.293   5.347   0.891
 5334TIP3    H116008   4.222   5.298   0.849
 5334TIP3    H216009   4.289   5.320   0.983
 5335TIP3   OH216010   6.104   0.150   0.067
 5335TIP3    H116011   6.168   0.084   0.092
 5335TIP3    H216012   6.149   0.205   0.004
 5336TIP3   OH216013   6.056   0.058   4.957
 5336TIP3    H116014   6.050   0.108   5.038
 5336TIP3    H216015   6.005  -0.021   4.974
 5337TIP3   OH216016   1.694   1.731   1.974
 5337TIP3    H116017   1.768   1.707   1.919
 5337TIP3    H216018   1.732   1.746   2.061
 5338TIP3   OH216019   1.801   2.269   1.353
 5338TIP3    H116020   1.754   2.338   1.306
 5338TIP3    H216021   1.804   2.300   1.444
 5339TIP3   OH216022   3.782   5.313   0.404
 5339TIP3    H116023   3.808   5.222   0.396
 5339TIP3    H216024   3.736   5.333   0.323
 5340TIP3   OH216025   5.017   3.247   1.563
 5340TIP3    H116026   4.995   3.237   1.471
 5340TIP3    H216027   5.113   3.242   1.566
 5341TIP3   OH216028   1.828   5.003   4.729
 5341TIP3    H116029   1.910   5.053   4.730
 5341TIP3    H216030   1.814   4.981   4.637
 5342TIP3   OH216031   5.921   5.890   2.589
 5342TIP3    H116032   5.993   5.836   2.621
 5342TIP3    H216033   5.910   5.864   2.498
 5343TIP3   OH216034   3.491   2.380   4.519
 5343TIP3    H116035   3.440   2.300   4.510
 5343TIP3    H216036   3.442   2.433   4.582
 5344TIP3   OH216037   5.433   5.023   2.376
 5344TIP3    H116038   5.525   5.045   2.367
 5344TIP3    H216039   5.397   5.031   2.287
 5345TIP3   OH216040   3.380   0.231   0.636
 5345TIP3    H116041   3.379   0.280   0.554
 5345TIP3    H216042   3.411   0.144   0.611
 5346TIP3   OH216043   2.894   3.684   1.917
 5346TIP3    H116044   2.884   3.772   1.955
 5346TIP3    H216045   2.972   3.649   1.960
 5347TIP3   OH216046   0.815   2.815   0.951
 5347TIP3    H116047   0.725   2.848   0.955
 5347TIP3    H216048   0.821   2.751   1.022
 5348TIP3   OH216049   0.212   4.617   3.978
 5348TIP3    H116050   0.224   4.621   3.883
 5348TIP3    H216051   0.296   4.587   4.012
 5349TIP3   OH216052   0.768   3.479   3.622
 5349TIP3    H116053   0.715   3.462   3.545
 5349TIP3    H216054   0.712   3.532   3.679
 5350TIP3   OH216055   5.249   4.909   4.755
 5350TIP3    H116056   5.193   4.923   4.831
 5350TIP3    H216057   5.292   4.994   4.741
 5351TIP3   OH216058   2.391   1.585   4.535
 5351TIP3    H116059   2.345   1.502   4.523
 5351TIP3    H216060   2.482   1.566   4.512
 5352TIP3   OH216061   3.192   0.538   3.708
 5352TIP3    H116062   3.116   0.505   3.756
 5352TIP3    H216063   3.266   0.486   3.740
 5353TIP3   OH216064   0.551   0.071   1.544
 5353TIP3    H116065   0.598   0.028   1.472
 5353TIP3    H216066   0.568   0.164   1.532
 5354TIP3   OH216067   4.669   4.988   3.956
 5354TIP3    H116068   4.712   4.973   3.872
 5354TIP3    H216069   4.724   4.943   4.020
 5355TIP3   OH216070   2.343   0.779   2.732
 5355TIP3    H116071   2.296   0.862   2.725
 5355TIP3    H216072   2.274   0.712   2.730
 5356TIP3   OH216073   0.426   5.754   3.653
 5356TIP3    H116074   0.426   5.700   3.732
 5356TIP3    H216075   0.333   5.770   3.635
 5357TIP3   OH216076   3.867   3.460   0.803
 5357TIP3    H116077   3.892   3.552   0.792
 5357TIP3    H216078   3.949   3.411   0.798
 5358TIP3   OH216079   2.376   3.034   3.231
 5358TIP3    H116080   2.384   3.023   3.325
 5358TIP3    H216081   2.460   3.071   3.203
 5359TIP3   OH216082   3.131   5.333   4.195
 5359TIP3    H116083   3.186   5.274   4.247
 5359TIP3    H216084   3.048   5.286   4.185
 5360TIP3   OH216085   0.047   2.392   1.755
 5360TIP3    H116086  -0.003   2.405   1.674
 5360TIP3    H216087   0.136   2.420   1.732
 5361TIP3   OH216088   3.399   1.686   4.815
 5361TIP3    H116089   3.400   1.602   4.769
 5361TIP3    H216090   3.468   1.738   4.771
 5362TIP3   OH216091   0.865   4.871   1.719
 5362TIP3    H116092   0.845   4.963   1.735
 5362TIP3    H216093   0.947   4.873   1.670
 5363TIP3   OH216094   1.705   2.886   2.830
 5363TIP3    H116095   1.689   2.798   2.865
 5363TIP3    H216096   1.711   2.873   2.735
 5364TIP3   OH216097   1.094   4.831   1.556
 5364TIP3    H116098   1.178   4.872   1.536
 5364TIP3    H216099   1.116   4.741   1.579
 5365TIP3   OH216100   3.577   4.196   3.277
 5365TIP3    H116101   3.668   4.227   3.281
 5365TIP3    H216102   3.580   4.123   3.215
 5366TIP3   OH216103   1.831   0.602   1.558
 5366TIP3    H116104   1.739   0.616   1.536
 5366TIP3    H216105   1.880   0.650   1.491
 5367TIP3   OH216106   5.465   5.628   3.380
 5367TIP3    H116107   5.377   5.607   3.414
 5367TIP3    H216108   5.450   5.703   3.322
 5368TIP3   OH216109   2.908   0.020   2.798
 5368TIP3    H116110   3.003   0.032   2.797
 5368TIP3    H216111   2.876   0.075   2.727
 5369TIP3   OH216112   0.643   4.719   0.636
 5369TIP3    H116113   0.662   4.771   0.558
 5369TIP3    H216114   0.725   4.718   0.685
 5370TIP3   OH216115   1.508   0.405   1.691
 5370TIP3    H116116   1.469   0.389   1.777
 5370TIP3    H216117   1.441   0.453   1.643
 5371TIP3   OH216118   5.383   1.515   4.234
 5371TIP3    H116119   5.439   1.460   4.288
 5371TIP3    H216120   5.296   1.473   4.240
 5372TIP3   OH216121   0.165   1.782   2.494
 5372TIP3    H116122   0.095   1.719   2.510
 5372TIP3    H216123   0.182   1.775   2.400
 5373TIP3   OH216124   4.887   4.845   1.554
 5373TIP3    H116125   4.875   4.768   1.610
 5373TIP3    H216126   4.956   4.895   1.597
 5374TIP3   OH216127   4.850   2.671   4.204
 5374TIP3    H116128   4.902   2.746   4.234
 5374TIP3    H216129   4.855   2.609   4.277
 5375TIP3   OH216130   0.221   0.250   2.457
 5375TIP3    H116131   0.264   0.331   2.429
 5375TIP3    H216132   0.136   0.251   2.413
 5376TIP3   OH216133   1.107   0.054   4.771
 5376TIP3    H116134   1.032  -0.005   4.767
 5376TIP3    H216135   1.158   0.024   4.846
 5377TIP3   OH216136   2.521   2.577   0.573
 5377TIP3    H116137   2.459   2.638   0.613
 5377TIP3    H216138   2.564   2.628   0.504
 5378TIP3   OH216139   2.728   5.173   4.241
 5378TIP3    H116140   2.761   5.143   4.156
 5378TIP3    H216141   2.807   5.190   4.292
 5379TIP3   OH216142   4.451   1.688   3.718
 5379TIP3    H116143   4.383   1.738   3.763
 5379TIP3    H216144   4.533   1.717   3.760
 5380TIP3   OH216145   5.643   0.720   2.017
 5380TIP3    H116146   5.700   0.770   2.075
 5380TIP3    H216147   5.593   0.663   2.076
 5381TIP3   OH216148   0.728   5.761   5.043
 5381TIP3    H116149   0.743   5.761   4.948
 5381TIP3    H216150   0.635   5.740   5.052
 5382TIP3   OH216151   1.223   1.637   2.378
 5382TIP3    H116152   1.289   1.675   2.320
 5382TIP3    H216153   1.141   1.648   2.331
 5383TIP3   OH216154   0.772   5.341   2.073
 5383TIP3    H116155   0.817   5.424   2.060
 5383TIP3    H216156   0.790   5.318   2.164
 5384TIP3   OH216157   4.435   4.521   2.568
 5384TIP3    H116158   4.354   4.495   2.611
 5384TIP3    H216159   4.456   4.449   2.509
 5385TIP3   OH216160   1.816   1.494   3.200
 5385TIP3    H116161   1.878   1.446   3.145
 5385TIP3    H216162   1.759   1.539   3.137
 5386TIP3   OH216163   4.799   2.929   3.676
 5386TIP3    H116164   4.850   2.857   3.715
 5386TIP3    H216165   4.708   2.908   3.696
 5387TIP3   OH216166   1.332   4.413   3.269
 5387TIP3    H116167   1.272   4.468   3.218
 5387TIP3    H216168   1.279   4.383   3.344
 5388TIP3   OH216169   6.139   5.444   2.745
 5388TIP3    H116170   6.218   5.487   2.778
 5388TIP3    H216171   6.122   5.373   2.807
 5389TIP3   OH216172   2.824   3.841   1.578
 5389TIP3    H116173   2.809   3.917   1.635
 5389TIP3    H216174   2.796   3.871   1.492
 5390TIP3   OH216175   1.008   1.336   0.269
 5390TIP3    H116176   0.924   1.351   0.225
 5390TIP3    H216177   0.989   1.268   0.334
 5391TIP3   OH216178   0.600   0.315   0.766
 5391TIP3    H116179   0.516   0.340   0.805
 5391TIP3    H216180   0.633   0.395   0.726
 5392TIP3   OH216181   3.809   3.137   3.418
 5392TIP3    H116182   3.886   3.135   3.476
 5392TIP3    H216183   3.784   3.229   3.415
 5393TIP3   OH216184   6.100   5.507   3.389
 5393TIP3    H116185   6.062   5.420   3.397
 5393TIP3    H216186   6.093   5.528   3.296
 5394TIP3   OH216187   4.007   1.686   2.309
 5394TIP3    H116188   3.999   1.656   2.400
 5394TIP3    H216189   4.098   1.668   2.286
 5395TIP3   OH216190   2.916   5.591   1.211
 5395TIP3    H116191   2.851   5.644   1.164
 5395TIP3    H216192   2.918   5.628   1.299
 5396TIP3   OH216193   1.954   4.632   4.246
 5396TIP3    H116194   1.992   4.681   4.173
 5396TIP3    H216195   1.991   4.544   4.238
 5397TIP3   OH216196   3.732   3.873   3.222
 5397TIP3    H116197   3.719   3.939   3.154
 5397TIP3    H216198   3.722   3.920   3.304
 5398TIP3   OH216199   3.530   0.624   2.965
 5398TIP3    H116200   3.591   0.666   2.905
 5398TIP3    H216201   3.446   0.625   2.918
 5399TIP3   OH216202   6.092   3.797   1.926
 5399TIP3    H116203   6.169   3.789   1.870
 5399TIP3    H216204   6.050   3.878   1.897
 5400TIP3   OH216205   5.672   6.008   1.844
 5400TIP3    H116206   5.767   6.005   1.832
 5400TIP3    H216207   5.658   6.084   1.899
 5401TIP3   OH216208   2.995   3.381   3.138
 5401TIP3    H116209   3.064   3.328   3.097
 5401TIP3    H216210   2.917   3.364   3.085
 5402TIP3   OH216211   2.649   4.139   0.755
 5402TIP3    H116212   2.662   4.071   0.690
 5402TIP3    H216213   2.735   4.179   0.766
 5403TIP3   OH216214   4.722   0.208   1.049
 5403TIP3    H116215   4.759   0.126   1.014
 5403TIP3    H216216   4.799   0.258   1.078
 5404TIP3   OH216217   6.111   0.859   4.769
 5404TIP3    H116218   6.049   0.855   4.841
 5404TIP3    H216219   6.161   0.777   4.775
 5405TIP3   OH216220   6.084   2.629   2.547
 5405TIP3    H116221   6.104   2.643   2.454
 5405TIP3    H216222   6.032   2.705   2.572
 5406TIP3   OH216223   1.959   3.879   1.909
 5406TIP3    H116224   2.011   3.959   1.904
 5406TIP3    H216225   1.923   3.867   1.821
 5407TIP3   OH216226   4.230   1.668   0.855
 5407TIP3    H116227   4.265   1.721   0.783
 5407TIP3    H216228   4.231   1.726   0.931
 5408TIP3   OH216229   3.750   2.467   2.136
 5408TIP3    H116230   3.716   2.547   2.095
 5408TIP3    H216231   3.701   2.459   2.217
 5409TIP3   OH216232   4.836   0.003   0.871
 5409TIP3    H116233   4.884   0.060   0.811
 5409TIP3    H216234   4.846  -0.085   0.834
 5410TIP3   OH216235   1.913   3.849   1.640
 5410TIP3    H116236   1.827   3.891   1.635
 5410TIP3    H216237   1.931   3.821   1.550
 5411TIP3   OH216238   3.534   5.120   3.543
 5411TIP3    H116239   3.592   5.108   3.619
 5411TIP3    H216240   3.590   5.163   3.478
 5412TIP3   OH216241   5.046   1.937   4.829
 5412TIP3    H116242   5.032   2.031   4.824
 5412TIP3    H216243   5.139   1.925   4.810
 5413TIP3   OH216244   1.816   4.488   1.824
 5413TIP3    H116245   1.781   4.486   1.735
 5413TIP3    H216246   1.782   4.568   1.862
 5414TIP3   OH216247   3.678   5.775   4.027
 5414TIP3    H116248   3.652   5.815   3.944
 5414TIP3    H216249   3.657   5.682   4.016
 5415TIP3   OH216250   4.037   4.084   4.011
 5415TIP3    H116251   4.069   4.033   4.086
 5415TIP3    H216252   3.952   4.045   3.990
 5416TIP3   OH216253   4.933   2.712   3.740
 5416TIP3    H116254   4.895   2.629   3.709
 5416TIP3    H216255   5.025   2.706   3.716
 5417TIP3   OH216256   5.802   5.451   4.278
 5417TIP3    H116257   5.832   5.524   4.332
 5417TIP3    H216258   5.881   5.417   4.236
 5418TIP3   OH216259   5.934   1.170   4.986
 5418TIP3    H116260   6.007   1.155   5.046
 5418TIP3    H216261   5.894   1.083   4.976
 5419TIP3   OH216262   2.154   3.626   4.018
 5419TIP3    H116263   2.100   3.581   4.084
 5419TIP3    H216264   2.242   3.626   4.055
 5420TIP3   OH216265   5.952   3.575   1.332
 5420TIP3    H116266   5.884   3.642   1.323
 5420TIP3    H216267   5.994   3.595   1.415
 5421TIP3   OH216268   5.722   2.287   0.482
 5421TIP3    H116269   5.786   2.240   0.535
 5421TIP3    H216270   5.638   2.245   0.504
 5422TIP3   OH216271   0.981   0.249   2.225
 5422TIP3    H116272   1.052   0.291   2.176
 5422TIP3    H216273   0.940   0.320   2.274
 5423TIP3   OH216274   2.426   2.344   1.842
 5423TIP3    H116275   2.360   2.277   1.825
 5423TIP3    H216276   2.412   2.410   1.774
 5424TIP3   OH216277   2.462   0.404   4.908
 5424TIP3    H116278   2.403   0.428   4.837
 5424TIP3    H216279   2.431   0.454   4.984
 5425TIP3   OH216280   6.119   5.198   4.961
 5425TIP3    H116281   6.099   5.266   5.025
 5425TIP3    H216282   6.034   5.175   4.923
 5426TIP3   OH216283   0.043   3.055   1.113
 5426TIP3    H116284  -0.043   3.013   1.119
 5426TIP3    H216285   0.044   3.117   1.185
 5427TIP3   OH216286   1.699   1.631   4.843
 5427TIP3    H116287   1.711   1.539   4.820
 5427TIP3    H216288   1.778   1.675   4.812
 5428TIP3   OH216289   2.074   3.903   4.046
 5428TIP3    H116290   2.088   3.808   4.049
 5428TIP3    H216291   1.982   3.913   4.020
 5429TIP3   OH216292   5.711   4.745   0.476
 5429TIP3    H116293   5.763   4.692   0.537
 5429TIP3    H216294   5.652   4.682   0.435
 5430TIP3   OH216295   3.076   3.995   2.916
 5430TIP3    H116296   3.073   3.905   2.883
 5430TIP3    H216297   3.004   4.040   2.873
 5431TIP3   OH216298   5.500   2.405   3.916
 5431TIP3    H116299   5.506   2.347   3.840
 5431TIP3    H216300   5.543   2.486   3.888
 5432TIP3   OH216301   0.931   2.788   3.375
 5432TIP3    H116302   0.854   2.817   3.425
 5432TIP3    H216303   1.001   2.784   3.439
 5433TIP3   OH216304   3.972   4.902   0.759
 5433TIP3    H116305   4.020   4.910   0.841
 5433TIP3    H216306   4.021   4.957   0.697
 5434TIP3   OH216307   2.204   4.905   1.540
 5434TIP3    H116308   2.230   4.998   1.543
 5434TIP3    H216309   2.183   4.890   1.448
 5435TIP3   OH216310   3.301   1.097   1.290
 5435TIP3    H116311   3.372   1.041   1.259
 5435TIP3    H216312   3.224   1.039   1.292
 5436TIP3   OH216313   4.789   5.120   2.214
 5436TIP3    H116314   4.767   5.039   2.169
 5436TIP3    H216315   4.705   5.157   2.241
 5437TIP3   OH216316   2.687   4.695   1.982
 5437TIP3    H116317   2.648   4.734   2.060
 5437TIP3    H216318   2.769   4.657   2.013
 5438TIP3   OH216319   4.529   5.383   2.943
 5438TIP3    H116320   4.616   5.359   2.910
 5438TIP3    H216321   4.545   5.462   2.995
 5439TIP3   OH216322   2.945   1.876   0.105
 5439TIP3    H116323   3.015   1.937   0.081
 5439TIP3    H216324   2.988   1.809   0.158
 5440TIP3   OH216325   6.292   3.894   2.882
 5440TIP3    H116326   6.280   3.863   2.792
 5440TIP3    H216327   6.347   3.827   2.923
 5441TIP3   OH216328   2.336   4.670   1.562
 5441TIP3    H116329   2.400   4.699   1.627
 5441TIP3    H216330   2.276   4.744   1.553
 5442TIP3   OH216331   4.479   1.963   3.609
 5442TIP3    H116332   4.386   1.983   3.604
 5442TIP3    H216333   4.484   1.869   3.595
 5443TIP3   OH216334   6.033   5.840   0.319
 5443TIP3    H116335   5.979   5.902   0.367
 5443TIP3    H216336   6.005   5.754   0.350
 5444TIP3   OH216337   0.730   2.917   3.522
 5444TIP3    H116338   0.646   2.940   3.564
 5444TIP3    H216339   0.751   2.994   3.469
 5445TIP3   OH216340   5.058   5.215   4.934
 5445TIP3    H116341   4.996   5.233   5.005
 5445TIP3    H216342   5.071   5.300   4.892
 5446TIP3   OH216343   3.985   3.751   1.316
 5446TIP3    H116344   3.938   3.702   1.383
 5446TIP3    H216345   4.030   3.684   1.265
 5447TIP3   OH216346   4.228   5.755   0.420
 5447TIP3    H116347   4.170   5.785   0.489
 5447TIP3    H216348   4.315   5.783   0.448
 5448TIP3   OH216349   2.923   0.632   3.137
 5448TIP3    H116350   2.898   0.540   3.122
 5448TIP3    H216351   2.911   0.674   3.052
 5449TIP3   OH216352   5.139   2.600   0.440
 5449TIP3    H116353   5.051   2.564   0.452
 5449TIP3    H216354   5.133   2.690   0.472
 5450TIP3   OH216355   4.097   2.789   4.660
 5450TIP3    H116356   4.021   2.837   4.691
 5450TIP3    H216357   4.080   2.776   4.566
 5451TIP3   OH216358   4.345   2.774   4.287
 5451TIP3    H116359   4.426   2.734   4.255
 5451TIP3    H216360   4.277   2.709   4.268
 5452TIP3   OH216361   3.354   2.298   2.225
 5452TIP3    H116362   3.437   2.343   2.239
 5452TIP3    H216363   3.363   2.215   2.273
 5453TIP3   OH216364   1.056   3.509   0.888
 5453TIP3    H116365   1.132   3.534   0.942
 5453TIP3    H216366   1.045   3.582   0.827
 5454TIP3   OH216367   4.984   2.283   0.454
 5454TIP3    H116368   4.905   2.230   0.463
 5454TIP3    H216369   4.970   2.332   0.373
 5455TIP3   OH216370   4.935   0.405   1.145
 5455TIP3    H116371   4.996   0.419   1.218
 5455TIP3    H216372   4.987   0.421   1.067
 5456TIP3   OH216373   5.674   2.808   3.116
 5456TIP3    H116374   5.695   2.726   3.071
 5456TIP3    H216375   5.640   2.781   3.201
 5457TIP3   OH216376   1.609   2.279   4.054
 5457TIP3    H116377   1.694   2.238   4.071
 5457TIP3    H216378   1.546   2.210   4.072
 5458TIP3   OH216379   0.615   5.589   2.412
 5458TIP3    H116380   0.612   5.685   2.421
 5458TIP3    H216381   0.563   5.571   2.334
 5459TIP3   OH216382   4.369   0.899   4.741
 5459TIP3    H116383   4.383   0.929   4.651
 5459TIP3    H216384   4.450   0.923   4.787
 5460TIP3   OH216385   6.354   1.097   4.082
 5460TIP3    H116386   6.259   1.097   4.082
 5460TIP3    H216387   6.379   1.186   4.108
 5461TIP3   OH216388   2.477   3.279   0.513
 5461TIP3    H116389   2.390   3.258   0.480
 5461TIP3    H216390   2.493   3.214   0.582
 5462TIP3   OH216391   4.830   4.033   3.831
 5462TIP3    H116392   4.744   4.008   3.798
 5462TIP3    H216393   4.828   4.013   3.924
 5463TIP3   OH216394   4.880   1.026   0.196
 5463TIP3    H116395   4.893   1.003   0.288
 5463TIP3    H216396   4.955   1.080   0.173
 5464TIP3   OH216397   4.665   3.615   4.310
 5464TIP3    H116398   4.751   3.642   4.344
 5464TIP3    H216399   4.662   3.521   4.325
 5465TIP3   OH216400   2.561   0.153   4.067
 5465TIP3    H116401   2.529   0.227   4.015
 5465TIP3    H216402   2.497   0.084   4.054
 5466TIP3   OH216403   5.233   0.999   0.834
 5466TIP3    H116404   5.265   0.924   0.885
 5466TIP3    H216405   5.313   1.044   0.806
 5467TIP3   OH216406   3.620   2.571   0.711
 5467TIP3    H116407   3.672   2.497   0.743
 5467TIP3    H216408   3.588   2.614   0.791
 5468TIP3   OH216409   2.552   5.162   0.151
 5468TIP3    H116410   2.639   5.199   0.167
 5468TIP3    H216411   2.526   5.197   0.065
 5469TIP3   OH216412   4.672   2.193   0.456
 5469TIP3    H116413   4.644   2.216   0.545
 5469TIP3    H216414   4.595   2.208   0.402
 5470TIP3   OH216415   4.905   1.720   2.516
 5470TIP3    H116416   4.982   1.664   2.517
 5470TIP3    H216417   4.877   1.724   2.608
 5471TIP3   OH216418   3.809   0.778   4.371
 5471TIP3    H116419   3.726   0.798   4.414
 5471TIP3    H216420   3.794   0.694   4.327
 5472TIP3   OH216421   2.519   4.529   2.352
 5472TIP3    H116422   2.485   4.559   2.437
 5472TIP3    H216423   2.476   4.444   2.339
 5473TIP3   OH216424   4.989   3.371   4.016
 5473TIP3    H116425   4.982   3.295   3.959
 5473TIP3    H216426   4.952   3.443   3.964
 5474TIP3   OH216427   4.849   4.883   4.118
 5474TIP3    H116428   4.916   4.815   4.116
 5474TIP3    H216429   4.834   4.899   4.211
 5475TIP3   OH216430   0.984   1.066   2.722
 5475TIP3    H116431   0.912   1.127   2.734
 5475TIP3    H216432   0.946   0.992   2.675
 5476TIP3   OH216433   2.634   1.378   0.348
 5476TIP3    H116434   2.576   1.373   0.424
 5476TIP3    H216435   2.586   1.431   0.285
 5477TIP3   OH216436   5.815   4.745   0.187
 5477TIP3    H116437   5.841   4.832   0.157
 5477TIP3    H216438   5.810   4.753   0.283
 5478TIP3   OH216439   4.533   0.579   3.293
 5478TIP3    H116440   4.512   0.649   3.232
 5478TIP3    H216441   4.532   0.620   3.379
 5479TIP3   OH216442   5.447   0.156   0.831
 5479TIP3    H116443   5.406   0.190   0.911
 5479TIP3    H216444   5.538   0.141   0.855
 5480TIP3   OH216445   5.388   2.512   3.224
 5480TIP3    H116446   5.427   2.449   3.284
 5480TIP3    H216447   5.426   2.491   3.139
 5481TIP3   OH216448   3.800   1.168   1.907
 5481TIP3    H116449   3.796   1.075   1.930
 5481TIP3    H216450   3.733   1.209   1.961
 5482TIP3   OH216451   2.015   0.883   4.586
 5482TIP3    H116452   2.048   0.959   4.538
 5482TIP3    H216453   1.946   0.847   4.531
 5483TIP3   OH216454   4.294   1.071   0.007
 5483TIP3    H116455   4.210   1.102   0.041
 5483TIP3    H216456   4.331   1.019   0.079
 5484TIP3   OH216457   2.502   4.950   2.844
 5484TIP3    H116458   2.430   4.891   2.864
 5484TIP3    H216459   2.476   5.033   2.883
 5485TIP3   OH216460   4.856   1.393   0.741
 5485TIP3    H116461   4.929   1.455   0.747
 5485TIP3    H216462   4.897   1.308   0.757
 5486TIP3   OH216463   4.833   4.197   3.400
 5486TIP3    H116464   4.888   4.262   3.356
 5486TIP3    H216465   4.759   4.247   3.433
 5487TIP3   OH216466   2.256   2.296   1.177
 5487TIP3    H116467   2.203   2.217   1.189
 5487TIP3    H216468   2.324   2.289   1.244
 5488TIP3   OH216469   3.752   2.571   4.190
 5488TIP3    H116470   3.712   2.484   4.198
 5488TIP3    H216471   3.778   2.593   4.279
 5489TIP3   OH216472   1.489   1.503   3.356
 5489TIP3    H116473   1.455   1.461   3.277
 5489TIP3    H216474   1.541   1.435   3.399
 5490TIP3   OH216475   4.180   2.123   1.253
 5490TIP3    H116476   4.128   2.109   1.332
 5490TIP3    H216477   4.192   2.036   1.216
 5491TIP3   OH216478   4.462   2.777   1.926
 5491TIP3    H116479   4.380   2.745   1.964
 5491TIP3    H216480   4.524   2.706   1.940
 5492TIP3   OH216481   4.128   1.979   4.597
 5492TIP3    H116482   4.035   1.982   4.575
 5492TIP3    H216483   4.144   1.887   4.620
 5493TIP3   OH216484   4.736   4.689  -0.020
 5493TIP3    H116485   4.651   4.721  -0.050
 5493TIP3    H216486   4.717   4.605   0.021
 5494TIP3   OH216487   4.281   3.827   0.497
 5494TIP3    H116488   4.268   3.909   0.544
 5494TIP3    H216489   4.369   3.799   0.523
 5495TIP3   OH216490   0.207   3.017   2.175
 5495TIP3    H116491   0.279   3.075   2.200
 5495TIP3    H216492   0.164   2.996   2.258
 5496TIP3   OH216493   1.507   2.866   2.269
 5496TIP3    H116494   1.546   2.781   2.290
 5496TIP3    H216495   1.492   2.907   2.354
 5497TIP3   OH216496   3.575   3.384   4.942
 5497TIP3    H116497   3.496   3.438   4.941
 5497TIP3    H216498   3.639   3.435   4.892
 5498TIP3   OH216499   4.389   1.521   4.121
 5498TIP3    H116500   4.294   1.509   4.108
 5498TIP3    H216501   4.403   1.614   4.109
 5499TIP3   OH216502   4.965   4.565   1.677
 5499TIP3    H116503   4.874   4.544   1.654
 5499TIP3    H216504   5.017   4.515   1.614
 5500TIP3   OH216505   4.100   1.653   0.576
 5500TIP3    H116506   4.185   1.609   0.586
 5500TIP3    H216507   4.059   1.607   0.502
 5501TIP3   OH216508   0.107   0.048   4.708
 5501TIP3    H116509   0.122  -0.032   4.658
 5501TIP3    H216510   0.012   0.052   4.718
 5502TIP3   OH216511   1.058   4.101   4.662
 5502TIP3    H116512   0.978   4.120   4.712
 5502TIP3    H216513   1.128   4.144   4.711
 5503TIP3   OH216514   1.342   4.060   0.102
 5503TIP3    H116515   1.397   4.080   0.177
 5503TIP3    H216516   1.352   3.966   0.089
 5504TIP3   OH216517   1.130   0.044   1.265
 5504TIP3    H116518   1.136   0.044   1.170
 5504TIP3    H216519   1.216   0.012   1.294
 5505TIP3   OH216520   4.970   3.100   1.135
 5505TIP3    H116521   4.942   3.181   1.177
 5505TIP3    H216522   5.066   3.105   1.134
 5506TIP3   OH216523   6.211   3.871   4.098
 5506TIP3    H116524   6.228   3.816   4.175
 5506TIP3    H216525   6.245   3.957   4.122
 5507TIP3   OH216526   4.063   4.346   2.515
 5507TIP3    H116527   4.136   4.408   2.501
 5507TIP3    H216528   4.095   4.288   2.583
 5508TIP3   OH216529   5.041   5.123   3.955
 5508TIP3    H116530   5.089   5.053   4.000
 5508TIP3    H216531   4.955   5.085   3.936
 5509TIP3   OH216532   5.740   5.843   0.793
 5509TIP3    H116533   5.695   5.770   0.837
 5509TIP3    H216534   5.803   5.800   0.735
 5510TIP3   OH216535   2.719   5.696   1.028
 5510TIP3    H116536   2.658   5.624   1.043
 5510TIP3    H216537   2.751   5.681   0.939
 5511TIP3   OH216538   0.081   1.255   0.958
 5511TIP3    H116539   0.058   1.187   1.021
 5511TIP3    H216540   0.112   1.328   1.011
 5512TIP3   OH216541   5.216   5.843   1.525
 5512TIP3    H116542   5.236   5.753   1.549
 5512TIP3    H216543   5.182   5.837   1.436
 5513TIP3   OH216544   2.895   4.919   4.255
 5513TIP3    H116545   2.803   4.898   4.236
 5513TIP3    H216546   2.918   4.985   4.189
 5514TIP3   OH216547   2.272   4.888   4.751
 5514TIP3    H116548   2.203   4.828   4.780
 5514TIP3    H216549   2.319   4.910   4.832
 5515TIP3   OH216550   6.166   4.369   3.547
 5515TIP3    H116551   6.074   4.358   3.570
 5515TIP3    H216552   6.213   4.362   3.631
 5516TIP3   OH216553   2.732   0.170   4.379
 5516TIP3    H116554   2.795   0.225   4.424
 5516TIP3    H216555   2.691   0.117   4.448
 5517TIP3   OH216556   2.296   5.240   2.445
 5517TIP3    H116557   2.343   5.198   2.372
 5517TIP3    H216558   2.311   5.334   2.431
 5518TIP3   OH216559   5.158   3.889   1.795
 5518TIP3    H116560   5.151   3.817   1.858
 5518TIP3    H216561   5.226   3.946   1.832
 5519TIP3   OH216562   4.100   4.644   4.075
 5519TIP3    H116563   4.028   4.679   4.128
 5519TIP3    H216564   4.155   4.597   4.137
 5520TIP3   OH216565   2.609   0.643   2.586
 5520TIP3    H116566   2.584   0.702   2.658
 5520TIP3    H216567   2.560   0.675   2.511
 5521TIP3   OH216568   2.872   4.206   4.949
 5521TIP3    H116569   2.932   4.274   4.980
 5521TIP3    H216570   2.872   4.141   5.019
 5522TIP3   OH216571   2.057   2.415   1.870
 5522TIP3    H116572   2.120   2.445   1.935
 5522TIP3    H216573   2.089   2.450   1.787
 5523TIP3   OH216574   5.233   4.644   0.525
 5523TIP3    H116575   5.234   4.711   0.457
 5523TIP3    H216576   5.231   4.561   0.477
 5524TIP3   OH216577   4.889   1.691   1.669
 5524TIP3    H116578   4.887   1.606   1.713
 5524TIP3    H216579   4.812   1.738   1.702
 5525TIP3   OH216580   4.037   3.389   3.168
 5525TIP3    H116581   3.985   3.403   3.089
 5525TIP3    H216582   4.122   3.428   3.148
 5526TIP3   OH216583   0.228   0.469   3.686
 5526TIP3    H116584   0.264   0.383   3.708
 5526TIP3    H216585   0.280   0.530   3.738
 5527TIP3   OH216586   0.532   1.841   0.152
 5527TIP3    H116587   0.548   1.933   0.176
 5527TIP3    H216588   0.449   1.819   0.195
 5528TIP3   OH216589   1.589   5.880   4.013
 5528TIP3    H116590   1.643   5.805   4.039
 5528TIP3    H216591   1.633   5.917   3.938
 5529TIP3   OH216592   2.867   4.003   5.117
 5529TIP3    H116593   2.851   4.032   5.207
 5529TIP3    H216594   2.952   3.959   5.120
 5530TIP3   OH216595   3.235   2.719   1.867
 5530TIP3    H116596   3.242   2.788   1.934
 5530TIP3    H216597   3.182   2.759   1.798
 5531TIP3   OH216598   5.662   4.475   1.185
 5531TIP3    H116599   5.715   4.422   1.245
 5531TIP3    H216600   5.690   4.565   1.203
 5532TIP3   OH216601   4.997   2.426   5.042
 5532TIP3    H116602   4.907   2.451   5.023
 5532TIP3    H216603   5.047   2.460   4.967
 5533TIP3   OH216604   2.894   5.750   4.229
 5533TIP3    H116605   2.905   5.742   4.134
 5533TIP3    H216606   2.822   5.690   4.251
 5534TIP3   OH216607   2.271   2.501   2.015
 5534TIP3    H116608   2.335   2.453   1.962
 5534TIP3    H216609   2.299   2.487   2.106
 5535TIP3   OH216610   1.770   3.531   0.533
 5535TIP3    H116611   1.715   3.537   0.611
 5535TIP3    H216612   1.821   3.612   0.532
 5536TIP3   OH216613   5.249   1.499   2.975
 5536TIP3    H116614   5.171   1.478   2.924
 5536TIP3    H216615   5.322   1.470   2.921
 5537TIP3   OH216616   4.669   2.868   3.112
 5537TIP3    H116617   4.604   2.939   3.115
 5537TIP3    H216618   4.618   2.788   3.124
 5538TIP3   OH216619   5.378   1.802   4.243
 5538TIP3    H116620   5.399   1.711   4.266
 5538TIP3    H216621   5.413   1.853   4.316
 5539TIP3   OH216622   0.098   5.351   1.355
 5539TIP3    H116623   0.141   5.267   1.369
 5539TIP3    H216624   0.114   5.372   1.263
 5540TIP3   OH216625   2.952   5.500   2.128
 5540TIP3    H116626   3.013   5.444   2.177
 5540TIP3    H216627   3.005   5.574   2.099
 5541TIP3   OH216628   0.803   0.022   1.974
 5541TIP3    H116629   0.897   0.040   1.973
 5541TIP3    H216630   0.791  -0.044   1.906
 5542TIP3   OH216631   2.866   3.266   0.472
 5542TIP3    H116632   2.777   3.290   0.446
 5542TIP3    H216633   2.914   3.349   0.472
 5543TIP3   OH216634   6.072   2.262   1.374
 5543TIP3    H116635   5.984   2.231   1.391
 5543TIP3    H216636   6.127   2.183   1.376
 5544TIP3   OH216637   2.426   2.441   2.233
 5544TIP3    H116638   2.501   2.390   2.204
 5544TIP3    H216639   2.383   2.386   2.298
 5545TIP3   OH216640   5.270   4.303   2.531
 5545TIP3    H116641   5.189   4.256   2.550
 5545TIP3    H216642   5.249   4.359   2.456
 5546TIP3   OH216643   6.222   1.039   2.958
 5546TIP3    H116644   6.246   0.949   2.977
 5546TIP3    H216645   6.159   1.062   3.025
 5547TIP3   OH216646   1.318   0.847   0.417
 5547TIP3    H116647   1.411   0.864   0.408
 5547TIP3    H216648   1.312   0.754   0.440
 5548TIP3   OH216649   4.150   4.344   3.634
 5548TIP3    H116650   4.128   4.256   3.666
 5548TIP3    H216651   4.178   4.392   3.712
 5549TIP3   OH216652   0.195   4.001   4.600
 5549TIP3    H116653   0.125   4.019   4.662
 5549TIP3    H216654   0.180   4.064   4.529
 5550TIP3   OH216655   0.966   4.384   4.900
 5550TIP3    H116656   0.893   4.444   4.888
 5550TIP3    H216657   1.043   4.435   4.877
 5551TIP3   OH216658   0.068   4.202   0.038
 5551TIP3    H116659   0.077   4.294   0.062
 5551TIP3    H216660   0.002   4.202  -0.031
 5552TIP3   OH216661   6.300   4.426   4.149
 5552TIP3    H116662   6.224   4.426   4.091
 5552TIP3    H216663   6.316   4.518   4.168
 5553TIP3   OH216664   3.108   5.786   0.954
 5553TIP3    H116665   3.051   5.711   0.933
 5553TIP3    H216666   3.189   5.768   0.906
 5554TIP3   OH216667   5.718   1.008   4.724
 5554TIP3    H116668   5.772   1.008   4.803
 5554TIP3    H216669   5.629   0.988   4.756
 5555TIP3   OH216670   2.673   4.520   4.033
 5555TIP3    H116671   2.651   4.467   4.109
 5555TIP3    H216672   2.594   4.518   3.978
 5556TIP3   OH216673   6.243   1.586   0.688
 5556TIP3    H116674   6.164   1.555   0.643
 5556TIP3    H216675   6.268   1.666   0.642
 5557TIP3   OH216676   0.643   4.689   1.187
 5557TIP3    H116677   0.703   4.651   1.252
 5557TIP3    H216678   0.560   4.645   1.203
 5558TIP3   OH216679   5.379   4.127   3.030
 5558TIP3    H116680   5.323   4.171   2.966
 5558TIP3    H216681   5.340   4.149   3.115
 5559TIP3   OH216682   2.010   0.670   2.018
 5559TIP3    H116683   2.080   0.733   2.030
 5559TIP3    H216684   1.964   0.668   2.102
 5560TIP3   OH216685   5.294   3.142   0.780
 5560TIP3    H116686   5.337   3.189   0.709
 5560TIP3    H216687   5.217   3.102   0.740
 5561TIP3   OH216688   0.117   3.260   3.211
 5561TIP3    H116689   0.056   3.198   3.172
 5561TIP3    H216690   0.061   3.327   3.252
 5562TIP3   OH216691   2.622   4.997   3.169
 5562TIP3    H116692   2.685   4.961   3.106
 5562TIP3    H216693   2.624   4.937   3.243
 5563TIP3   OH216694   2.681   4.971   2.640
 5563TIP3    H116695   2.624   4.947   2.713
 5563TIP3    H216696   2.732   5.045   2.673
 5564TIP3   OH216697   3.344   2.762   4.270
 5564TIP3    H116698   3.414   2.824   4.287
 5564TIP3    H216699   3.273   2.815   4.234
 5565TIP3   OH216700   0.751   2.728   2.611
 5565TIP3    H116701   0.716   2.798   2.555
 5565TIP3    H216702   0.837   2.708   2.573
 5566TIP3   OH216703   4.385   5.072   1.161
 5566TIP3    H116704   4.366   5.051   1.070
 5566TIP3    H216705   4.381   5.168   1.165
 5567TIP3   OH216706   6.355   4.582   0.873
 5567TIP3    H116707   6.367   4.610   0.964
 5567TIP3    H216708   6.415   4.637   0.823
 5568TIP3   OH216709   3.482   3.756   1.946
 5568TIP3    H116710   3.544   3.727   2.012
 5568TIP3    H216711   3.512   3.716   1.864
 5569TIP3   OH216712   4.459   2.570   1.569
 5569TIP3    H116713   4.393   2.521   1.521
 5569TIP3    H216714   4.410   2.638   1.615
 5570TIP3   OH216715   0.682   4.140   1.323
 5570TIP3    H116716   0.587   4.143   1.317
 5570TIP3    H216717   0.712   4.138   1.232
 5571TIP3   OH216718   3.644   4.092   3.776
 5571TIP3    H116719   3.652   4.141   3.694
 5571TIP3    H216720   3.561   4.045   3.769
 5572TIP3   OH216721   3.268   5.903   0.540
 5572TIP3    H116722   3.196   5.841   0.527
 5572TIP3    H216723   3.331   5.855   0.594
 5573TIP3   OH216724   3.162   5.521   3.984
 5573TIP3    H116725   3.213   5.444   3.957
 5573TIP3    H216726   3.149   5.509   4.078
 5574TIP3   OH216727   3.965   2.954   1.764
 5574TIP3    H116728   3.945   2.885   1.701
 5574TIP3    H216729   3.896   2.947   1.830
 5575TIP3   OH216730   0.818   5.110   1.910
 5575TIP3    H116731   0.810   5.184   1.970
 5575TIP3    H216732   0.905   5.121   1.870
 5576TIP3   OH216733   0.353   4.143   1.007
 5576TIP3    H116734   0.373   4.060   1.051
 5576TIP3    H216735   0.264   4.165   1.036
 5577TIP3   OH216736   5.093   3.242   0.122
 5577TIP3    H116737   5.170   3.197   0.156
 5577TIP3    H216738   5.027   3.173   0.112
 5578TIP3   OH216739   5.859   2.465   0.771
 5578TIP3    H116740   5.770   2.495   0.752
 5578TIP3    H216741   5.898   2.536   0.821
 5579TIP3   OH216742   1.448   1.014   1.553
 5579TIP3    H116743   1.365   1.060   1.542
 5579TIP3    H216744   1.425   0.936   1.605
 5580TIP3   OH216745   2.671   1.074   3.611
 5580TIP3    H116746   2.595   1.125   3.582
 5580TIP3    H216747   2.746   1.130   3.592
 5581TIP3   OH216748   6.277   3.376   1.080
 5581TIP3    H116749   6.296   3.307   1.143
 5581TIP3    H216750   6.183   3.390   1.087
 5582TIP3   OH216751   1.640   3.018   1.367
 5582TIP3    H116752   1.669   3.101   1.404
 5582TIP3    H216753   1.721   2.976   1.337
 5583TIP3   OH216754   5.439   3.404   4.448
 5583TIP3    H116755   5.377   3.349   4.495
 5583TIP3    H216756   5.406   3.493   4.458
 5584TIP3   OH216757   3.210   1.597   3.290
 5584TIP3    H116758   3.236   1.687   3.269
 5584TIP3    H216759   3.155   1.570   3.215
 5585TIP3   OH216760   2.652   5.182   4.587
 5585TIP3    H116761   2.597   5.109   4.559
 5585TIP3    H216762   2.644   5.246   4.516
 5586TIP3   OH216763   4.840   5.589   4.261
 5586TIP3    H116764   4.796   5.663   4.304
 5586TIP3    H216765   4.827   5.515   4.321
 5587TIP3   OH216766   1.459   1.472   0.228
 5587TIP3    H116767   1.388   1.409   0.214
 5587TIP3    H216768   1.466   1.480   0.323
 5588TIP3   OH216769   4.841   4.019   4.087
 5588TIP3    H116770   4.909   4.049   4.147
 5588TIP3    H216771   4.760   4.024   4.138
 5589TIP3   OH216772   0.195   3.556   3.278
 5589TIP3    H116773   0.167   3.491   3.214
 5589TIP3    H216774   0.128   3.553   3.346
 5590TIP3   OH216775   3.906   4.078   4.973
 5590TIP3    H116776   3.997   4.079   4.942
 5590TIP3    H216777   3.879   3.987   4.963
 5591TIP3   OH216778   0.430   2.431   0.271
 5591TIP3    H116779   0.456   2.506   0.325
 5591TIP3    H216780   0.509   2.410   0.221
 5592TIP3   OH216781   1.096   1.939   3.916
 5592TIP3    H116782   1.173   1.910   3.966
 5592TIP3    H216783   1.076   1.865   3.859
 5593TIP3   OH216784   4.872   4.597   2.597
 5593TIP3    H116785   4.786   4.636   2.614
 5593TIP3    H216786   4.856   4.536   2.525
 5594TIP3   OH216787   5.464   1.975   2.333
 5594TIP3    H116788   5.453   1.935   2.246
 5594TIP3    H216789   5.554   1.954   2.357
 5595TIP3   OH216790   4.119   2.432   0.747
 5595TIP3    H116791   4.086   2.522   0.748
 5595TIP3    H216792   4.151   2.418   0.836
 5596TIP3   OH216793   4.139   3.346   0.714
 5596TIP3    H116794   4.214   3.292   0.741
 5596TIP3    H216795   4.098   3.297   0.643
 5597TIP3   OH216796   1.535   2.031   0.139
 5597TIP3    H116797   1.620   2.072   0.123
 5597TIP3    H216798   1.498   2.018   0.052
 5598TIP3   OH216799   5.062   5.170   2.851
 5598TIP3    H116800   5.108   5.124   2.922
 5598TIP3    H216801   5.050   5.104   2.783
 5599TIP3   OH216802   5.506   2.351   1.534
 5599TIP3    H116803   5.524   2.354   1.628
 5599TIP3    H216804   5.585   2.386   1.493
 5600TIP3   OH216805   6.105   5.166   2.249
 5600TIP3    H116806   6.146   5.250   2.232
 5600TIP3    H216807   6.175   5.102   2.239
 5601TIP3   OH216808   5.086   2.417   2.120
 5601TIP3    H116809   5.075   2.362   2.198
 5601TIP3    H216810   5.180   2.433   2.115
 5602TIP3   OH216811   0.763   1.568   1.787
 5602TIP3    H116812   0.671   1.587   1.801
 5602TIP3    H216813   0.786   1.613   1.706
 5603TIP3   OH216814   4.403   5.057   2.314
 5603TIP3    H116815   4.451   4.975   2.308
 5603TIP3    H216816   4.330   5.047   2.253
 5604TIP3   OH216817   3.706   1.575   2.787
 5604TIP3    H116818   3.754   1.568   2.870
 5604TIP3    H216819   3.614   1.568   2.812
 5605TIP3   OH216820   0.446   3.141   2.304
 5605TIP3    H116821   0.487   3.219   2.341
 5605TIP3    H216822   0.424   3.087   2.380
 5606TIP3   OH216823   2.111   1.820   1.720
 5606TIP3    H116824   2.153   1.880   1.782
 5606TIP3    H216825   2.156   1.836   1.637
 5607TIP3   OH216826   6.233   2.335   5.013
 5607TIP3    H116827   6.263   2.250   5.046
 5607TIP3    H216828   6.304   2.367   4.958
 5608TIP3   OH216829   4.035   0.300   4.327
 5608TIP3    H116830   4.049   0.319   4.420
 5608TIP3    H216831   4.116   0.256   4.299
 5609TIP3   OH216832   4.586   5.956   2.324
 5609TIP3    H116833   4.580   5.864   2.297
 5609TIP3    H216834   4.507   5.970   2.377
 5610TIP3   OH216835   4.399   3.032   2.150
 5610TIP3    H116836   4.462   3.034   2.222
 5610TIP3    H216837   4.355   2.948   2.158
 5611TIP3   OH216838   0.351   0.845   2.520
 5611TIP3    H116839   0.382   0.925   2.563
 5611TIP3    H216840   0.256   0.851   2.523
 5612TIP3   OH216841   1.558   3.352   1.683
 5612TIP3    H116842   1.629   3.321   1.738
 5612TIP3    H216843   1.499   3.277   1.675
 5613TIP3   OH216844   3.035   4.623   4.567
 5613TIP3    H116845   3.018   4.558   4.499
 5613TIP3    H216846   3.064   4.700   4.519
 5614TIP3   OH216847   0.955   0.765   3.451
 5614TIP3    H116848   1.023   0.717   3.497
 5614TIP3    H216849   1.002   0.840   3.412
 5615TIP3   OH216850   6.101   4.844   2.972
 5615TIP3    H116851   6.025   4.795   2.940
 5615TIP3    H216852   6.147   4.783   3.029
 5616TIP3   OH216853   4.028   0.087   1.133
 5616TIP3    H116854   3.986   0.102   1.217
 5616TIP3    H216855   3.977   0.140   1.071
 5617TIP3   OH216856   2.296   1.338   4.467
 5617TIP3    H116857   2.356   1.270   4.498
 5617TIP3    H216858   2.316   1.347   4.374
 5618TIP3   OH216859   3.460   3.383   3.724
 5618TIP3    H116860   3.492   3.472   3.712
 5618TIP3    H216861   3.391   3.390   3.790
 5619TIP3   OH216862   4.855   3.566   1.488
 5619TIP3    H116863   4.794   3.522   1.548
 5619TIP3    H216864   4.909   3.621   1.545
 5620TIP3   OH216865   2.311   5.576   3.846
 5620TIP3    H116866   2.274   5.658   3.812
 5620TIP3    H216867   2.338   5.597   3.935
 5621TIP3   OH216868   0.347   3.780   4.666
 5621TIP3    H116869   0.314   3.728   4.738
 5621TIP3    H216870   0.313   3.868   4.682
 5622TIP3   OH216871   3.330   2.493   0.915
 5622TIP3    H116872   3.282   2.554   0.859
 5622TIP3    H216873   3.359   2.424   0.855
 5623TIP3   OH216874   4.030   1.299   3.041
 5623TIP3    H116875   3.989   1.302   2.954
 5623TIP3    H216876   3.978   1.361   3.093
 5624TIP3   OH216877   2.461   4.518   4.235
 5624TIP3    H116878   2.486   4.560   4.317
 5624TIP3    H216879   2.501   4.432   4.238
 5625TIP3   OH216880   2.527   0.439   1.711
 5625TIP3    H116881   2.486   0.483   1.637
 5625TIP3    H216882   2.506   0.495   1.786
 5626TIP3   OH216883   3.964   4.835   3.888
 5626TIP3    H116884   4.038   4.863   3.941
 5626TIP3    H216885   4.002   4.777   3.822
 5627TIP3   OH216886   1.633   0.042   2.850
 5627TIP3    H116887   1.613  -0.004   2.769
 5627TIP3    H216888   1.549   0.078   2.879
 5628TIP3   OH216889   3.622   3.297   2.128
 5628TIP3    H116890   3.555   3.349   2.084
 5628TIP3    H216891   3.679   3.267   2.058
 5629TIP3   OH216892   5.313   4.832   3.600
 5629TIP3    H116893   5.286   4.742   3.582
 5629TIP3    H216894   5.393   4.823   3.651
 5630TIP3   OH216895   2.398   1.721   1.272
 5630TIP3    H116896   2.352   1.798   1.239
 5630TIP3    H216897   2.489   1.735   1.246
 5631TIP3   OH216898   3.198   2.395   1.363
 5631TIP3    H116899   3.194   2.429   1.274
 5631TIP3    H216900   3.253   2.317   1.357
 5632TIP3   OH216901   0.153   0.729   1.009
 5632TIP3    H116902   0.234   0.775   0.986
 5632TIP3    H216903   0.181   0.640   1.027
 5633TIP3   OH216904   3.843   3.473   0.003
 5633TIP3    H116905   3.785   3.528   0.055
 5633TIP3    H216906   3.808   3.478  -0.086
 5634TIP3   OH216907   2.693   4.533   2.754
 5634TIP3    H116908   2.753   4.480   2.807
 5634TIP3    H216909   2.632   4.571   2.816
 5635TIP3   OH216910   2.873   2.523   2.793
 5635TIP3    H116911   2.795   2.483   2.754
 5635TIP3    H216912   2.891   2.598   2.737
 5636TIP3   OH216913   6.193   3.231   3.763
 5636TIP3    H116914   6.178   3.220   3.857
 5636TIP3    H216915   6.135   3.303   3.739
 5637TIP3   OH216916   5.384   2.706   2.910
 5637TIP3    H116917   5.403   2.800   2.912
 5637TIP3    H216918   5.288   2.702   2.903
 5638TIP3   OH216919   1.124   0.116   0.318
 5638TIP3    H116920   1.119   0.029   0.278
 5638TIP3    H216921   1.159   0.172   0.249
 5639TIP3   OH216922   1.015   3.147   1.698
 5639TIP3    H116923   0.996   3.088   1.770
 5639TIP3    H216924   1.002   3.094   1.619
 5640TIP3   OH216925   6.221   0.750   3.637
 5640TIP3    H116926   6.236   0.672   3.692
 5640TIP3    H216927   6.259   0.822   3.687
 5641TIP3   OH216928   2.514   2.843   4.029
 5641TIP3    H116929   2.463   2.802   4.099
 5641TIP3    H216930   2.461   2.918   4.001
 5642TIP3   OH216931   2.735   5.300   2.431
 5642TIP3    H116932   2.788   5.234   2.385
 5642TIP3    H216933   2.681   5.338   2.362
 5643TIP3   OH216934   1.363   3.203   3.348
 5643TIP3    H116935   1.433   3.250   3.302
 5643TIP3    H216936   1.352   3.251   3.430
 5644TIP3   OH216937   5.637   2.094   1.650
 5644TIP3    H116938   5.552   2.050   1.656
 5644TIP3    H216939   5.629   2.170   1.708
 5645TIP3   OH216940   1.661   0.495   4.492
 5645TIP3    H116941   1.715   0.462   4.564
 5645TIP3    H216942   1.689   0.445   4.416
 5646TIP3   OH216943   4.178   2.069   0.004
 5646TIP3    H116944   4.123   2.143  -0.023
 5646TIP3    H216945   4.209   2.093   0.091
 5647TIP3   OH216946   2.910   1.168   1.617
 5647TIP3    H116947   2.992   1.191   1.661
 5647TIP3    H216948   2.932   1.092   1.563
 5648TIP3   OH216949   6.138   4.245   0.583
 5648TIP3    H116950   6.190   4.324   0.565
 5648TIP3    H216951   6.153   4.227   0.676
 5649TIP3   OH216952   4.537   5.116   0.470
 5649TIP3    H116953   4.615   5.172   0.469
 5649TIP3    H216954   4.552   5.055   0.543
 5650TIP3   OH216955   0.972   1.620   0.335
 5650TIP3    H116956   0.893   1.612   0.281
 5650TIP3    H216957   0.989   1.530   0.364
 5651TIP3   OH216958   0.510   5.178   2.907
 5651TIP3    H116959   0.590   5.140   2.944
 5651TIP3    H216960   0.500   5.135   2.822
 5652TIP3   OH216961   2.877   1.620   2.588
 5652TIP3    H116962   2.879   1.525   2.601
 5652TIP3    H216963   2.876   1.656   2.676
 5653TIP3   OH216964   1.666   2.142   2.640
 5653TIP3    H116965   1.590   2.146   2.582
 5653TIP3    H216966   1.670   2.051   2.669
 5654TIP3   OH216967   1.318   0.165   2.101
 5654TIP3    H116968   1.366   0.211   2.033
 5654TIP3    H216969   1.283   0.234   2.157
 5655TIP3   OH216970   0.226   4.628   3.706
 5655TIP3    H116971   0.302   4.684   3.722
 5655TIP3    H216972   0.169   4.680   3.650
 5656TIP3   OH216973   1.104   4.219   0.259
 5656TIP3    H116974   1.124   4.226   0.165
 5656TIP3    H216975   1.137   4.301   0.296
 5657TIP3   OH216976   1.042   3.890   0.470
 5657TIP3    H116977   0.959   3.841   0.468
 5657TIP3    H216978   1.023   3.971   0.422
 5658TIP3   OH216979   2.511   3.220   2.534
 5658TIP3    H116980   2.482   3.152   2.473
 5658TIP3    H216981   2.498   3.182   2.620
 5659TIP3   OH216982   0.378   3.423   0.570
 5659TIP3    H116983   0.463   3.444   0.609
 5659TIP3    H216984   0.373   3.478   0.492
 5660TIP3   OH216985   1.157   5.460   3.419
 5660TIP3    H116986   1.119   5.547   3.423
 5660TIP3    H216987   1.153   5.427   3.509
 5661TIP3   OH216988   1.300   1.099   1.281
 5661TIP3    H116989   1.235   1.115   1.350
 5661TIP3    H216990   1.354   1.177   1.281
 5662TIP3   OH216991   4.674   5.522   1.198
 5662TIP3    H116992   4.589   5.529   1.156
 5662TIP3    H216993   4.655   5.513   1.291
 5663TIP3   OH216994   6.222   5.059   1.960
 5663TIP3    H116995   6.253   5.045   2.049
 5663TIP3    H216996   6.253   5.147   1.937
 5664TIP3   OH216997   6.150   5.404   3.052
 5664TIP3    H116998   6.235   5.396   3.010
 5664TIP3    H216999   6.142   5.498   3.072
 5665TIP3   OH217000   4.147   4.941   3.120
 5665TIP3    H117001   4.108   4.934   3.207
 5665TIP3    H217002   4.233   4.981   3.135
 5666TIP3   OH217003   2.498   4.750   2.175
 5666TIP3    H117004   2.464   4.684   2.236
 5666TIP3    H217005   2.553   4.806   2.229
 5667TIP3   OH217006   3.876   0.998   2.507
 5667TIP3    H117007   3.864   1.065   2.440
 5667TIP3    H217008   3.970   0.996   2.523
 5668TIP3   OH217009   5.871   1.484   4.571
 5668TIP3    H117010   5.803   1.479   4.504
 5668TIP3    H217011   5.862   1.403   4.621
 5669TIP3   OH217012   1.260   1.179   2.560
 5669TIP3    H117013   1.255   1.272   2.583
 5669TIP3    H217014   1.265   1.133   2.644
 5670TIP3   OH217015   3.872   5.570   5.075
 5670TIP3    H117016   3.852   5.651   5.122
 5670TIP3    H217017   3.941   5.595   5.014
 5671TIP3   OH217018   3.784   5.536   4.677
 5671TIP3    H117019   3.810   5.545   4.585
 5671TIP3    H217020   3.721   5.465   4.678
 5672TIP3   OH217021   4.213   4.103   0.562
 5672TIP3    H117022   4.288   4.157   0.589
 5672TIP3    H217023   4.204   4.121   0.468
 5673TIP3   OH217024   0.982   2.809   0.710
 5673TIP3    H117025   0.954   2.885   0.660
 5673TIP3    H217026   0.930   2.813   0.790
 5674TIP3   OH217027   5.734   2.089   4.446
 5674TIP3    H117028   5.759   2.095   4.354
 5674TIP3    H217029   5.771   2.005   4.475
 5675TIP3   OH217030   1.404   3.681   3.321
 5675TIP3    H117031   1.458   3.638   3.254
 5675TIP3    H217032   1.316   3.684   3.282
 5676TIP3   OH217033   2.607   4.408   3.227
 5676TIP3    H117034   2.648   4.386   3.311
 5676TIP3    H217035   2.667   4.471   3.187
 5677TIP3   OH217036   1.161   0.549   3.568
 5677TIP3    H117037   1.142   0.534   3.661
 5677TIP3    H217038   1.234   0.610   3.568
 5678TIP3   OH217039   6.059   0.116   3.321
 5678TIP3    H117040   6.108   0.170   3.259
 5678TIP3    H217041   6.104   0.127   3.404
 5679TIP3   OH217042   1.128   1.325   2.315
 5679TIP3    H117043   1.092   1.241   2.342
 5679TIP3    H217044   1.173   1.359   2.392
 5680TIP3   OH217045   6.197   1.566   0.314
 5680TIP3    H117046   6.165   1.482   0.279
 5680TIP3    H217047   6.244   1.542   0.393
 5681TIP3   OH217048   4.104   1.429   0.836
 5681TIP3    H117049   4.155   1.509   0.828
 5681TIP3    H217050   4.014   1.459   0.852
 5682TIP3   OH217051   2.234   0.390   2.852
 5682TIP3    H117052   2.268   0.421   2.936
 5682TIP3    H217053   2.294   0.426   2.787
 5683TIP3   OH217054   6.308   4.425   3.111
 5683TIP3    H117055   6.364   4.348   3.101
 5683TIP3    H217056   6.285   4.450   3.021
 5684TIP3   OH217057   4.557   0.013   0.621
 5684TIP3    H117058   4.637  -0.035   0.641
 5684TIP3    H217059   4.548   0.005   0.526
 5685TIP3   OH217060   1.414   1.752   0.925
 5685TIP3    H117061   1.418   1.714   0.838
 5685TIP3    H217062   1.441   1.681   0.984
 5686TIP3   OH217063   3.387   5.126   1.043
 5686TIP3    H117064   3.401   5.107   1.135
 5686TIP3    H217065   3.336   5.207   1.042
 5687TIP3   OH217066   5.844   5.957   3.137
 5687TIP3    H117067   5.872   5.948   3.046
 5687TIP3    H217068   5.766   6.011   3.133
 5688TIP3   OH217069   0.073   5.908   1.031
 5688TIP3    H117070   0.039   5.833   1.079
 5688TIP3    H217071   0.049   5.891   0.940
 5689TIP3   OH217072   2.297   1.384   1.158
 5689TIP3    H117073   2.208   1.348   1.155
 5689TIP3    H217074   2.351   1.312   1.190
 5690TIP3   OH217075   5.341   5.838   0.259
 5690TIP3    H117076   5.377   5.757   0.221
 5690TIP3    H217077   5.342   5.822   0.353
 5691TIP3   OH217078   5.918   4.367   0.489
 5691TIP3    H117079   5.964   4.435   0.439
 5691TIP3    H217080   5.987   4.328   0.543
 5692TIP3   OH217081   4.590   3.174   1.262
 5692TIP3    H117082   4.500   3.201   1.245
 5692TIP3    H217083   4.631   3.174   1.175
 5693TIP3   OH217084   2.154   5.150   3.787
 5693TIP3    H117085   2.075   5.110   3.752
 5693TIP3    H217086   2.221   5.132   3.721
 5694TIP3   OH217087   1.326   0.980   0.676
 5694TIP3    H117088   1.322   0.917   0.604
 5694TIP3    H217089   1.247   1.033   0.665
 5695TIP3   OH217090   5.195   0.877   4.919
 5695TIP3    H117091   5.142   0.801   4.944
 5695TIP3    H217092   5.150   0.952   4.957
 5696TIP3   OH217093   3.157   1.386   0.806
 5696TIP3    H117094   3.153   1.478   0.832
 5696TIP3    H217095   3.068   1.365   0.778
 5697TIP3   OH217096   6.004   1.287   2.494
 5697TIP3    H117097   6.004   1.250   2.582
 5697TIP3    H217098   5.956   1.224   2.441
 5698TIP3   OH217099   1.607   1.886   4.165
 5698TIP3    H117100   1.562   1.920   4.088
 5698TIP3    H217101   1.688   1.849   4.131
 5699TIP3   OH217102   3.628   3.311   3.040
 5699TIP3    H117103   3.606   3.290   3.131
 5699TIP3    H217104   3.551   3.358   3.007
 5700TIP3   OH217105   3.492   4.232   2.614
 5700TIP3    H117106   3.432   4.172   2.569
 5700TIP3    H217107   3.562   4.248   2.551
 5701TIP3   OH217108   5.985   5.364   0.209
 5701TIP3    H117109   5.932   5.286   0.199
 5701TIP3    H217110   6.069   5.341   0.169
 5702TIP3   OH217111   1.191   4.975   1.948
 5702TIP3    H117112   1.122   4.966   2.014
 5702TIP3    H217113   1.149   5.019   1.874
 5703TIP3   OH217114   1.013   0.662   0.435
 5703TIP3    H117115   1.027   0.612   0.355
 5703TIP3    H217116   1.006   0.753   0.405
 5704TIP3   OH217117   5.952   3.544   0.123
 5704TIP3    H117118   6.018   3.581   0.065
 5704TIP3    H217119   5.925   3.618   0.178
 5705TIP3   OH217120   2.641   1.866   4.894
 5705TIP3    H117121   2.634   1.934   4.827
 5705TIP3    H217122   2.612   1.786   4.849
 5706TIP3   OH217123   2.553   1.764   4.193
 5706TIP3    H117124   2.551   1.690   4.133
 5706TIP3    H217125   2.470   1.760   4.240
 5707TIP3   OH217126   5.089   4.399   2.332
 5707TIP3    H117127   5.002   4.383   2.371
 5707TIP3    H217128   5.099   4.328   2.268
 5708TIP3   OH217129   2.377   0.778   2.071
 5708TIP3    H117130   2.433   0.853   2.090
 5708TIP3    H217131   2.288   0.809   2.089
 5709TIP3   OH217132   0.648   0.429   2.297
 5709TIP3    H117133   0.712   0.407   2.365
 5709TIP3    H217134   0.567   0.388   2.325
 5710TIP3   OH217135   6.267   5.474   2.169
 5710TIP3    H117136   6.270   5.564   2.138
 5710TIP3    H217137   6.358   5.453   2.190
 5711TIP3   OH217138   2.145   1.052   4.414
 5711TIP3    H117139   2.153   1.141   4.379
 5711TIP3    H217140   2.215   1.004   4.372
 5712TIP3   OH217141   1.964   3.256   0.571
 5712TIP3    H117142   1.967   3.270   0.665
 5712TIP3    H217143   1.919   3.333   0.537
 5713TIP3   OH217144   4.129   5.830   2.951
 5713TIP3    H117145   4.094   5.912   2.918
 5713TIP3    H217146   4.136   5.774   2.873
 5714TIP3   OH217147   6.281   1.322   2.894
 5714TIP3    H117148   6.372   1.326   2.865
 5714TIP3    H217149   6.268   1.231   2.921
 5715TIP3   OH217150   2.175   3.841   3.193
 5715TIP3    H117151   2.095   3.816   3.148
 5715TIP3    H217152   2.153   3.837   3.286
 5716TIP3   OH217153   6.056   0.073   0.801
 5716TIP3    H117154   5.991   0.115   0.745
 5716TIP3    H217155   6.004   0.029   0.869
 5717TIP3   OH217156   5.087   0.997   2.481
 5717TIP3    H117157   5.003   1.028   2.514
 5717TIP3    H217158   5.138   0.978   2.560
 5718TIP3   OH217159   0.345   3.496   4.439
 5718TIP3    H117160   0.370   3.501   4.347
 5718TIP3    H217161   0.408   3.436   4.478
 5719TIP3   OH217162   3.975   3.731   0.793
 5719TIP3    H117163   3.984   3.825   0.808
 5719TIP3    H217164   3.950   3.725   0.700
 5720TIP3   OH217165   0.807   5.930   0.681
 5720TIP3    H117166   0.783   5.981   0.759
 5720TIP3    H217167   0.864   5.989   0.631
 5721TIP3   OH217168   2.173   1.037   1.098
 5721TIP3    H117169   2.185   0.943   1.113
 5721TIP3    H217170   2.218   1.054   1.015
 5722TIP3   OH217171   3.697   1.078   3.115
 5722TIP3    H117172   3.731   1.106   3.030
 5722TIP3    H217173   3.741   1.134   3.179
 5723TIP3   OH217174   0.807   1.658   3.746
 5723TIP3    H117175   0.741   1.588   3.739
 5723TIP3    H217176   0.756   1.739   3.744
 5724TIP3   OH217177   3.684   4.600   1.738
 5724TIP3    H117178   3.634   4.580   1.659
 5724TIP3    H217179   3.618   4.632   1.800
 5725TIP3   OH217180   1.396   4.056   2.911
 5725TIP3    H117181   1.390   4.023   2.821
 5725TIP3    H217182   1.328   4.009   2.959
 5726TIP3   OH217183   2.930   3.423   0.058
 5726TIP3    H117184   2.863   3.489   0.040
 5726TIP3    H217185   3.004   3.473   0.094
 5727TIP3   OH217186   3.653   1.798   2.252
 5727TIP3    H117187   3.746   1.805   2.229
 5727TIP3    H217188   3.652   1.768   2.343
 5728TIP3   OH217189   0.106   5.998   4.250
 5728TIP3    H117190   0.027   5.971   4.204
 5728TIP3    H217191   0.178   5.971   4.193
 5729TIP3   OH217192   2.265   0.583   1.701
 5729TIP3    H117193   2.238   0.639   1.773
 5729TIP3    H217194   2.191   0.524   1.687
 5730TIP3   OH217195   4.564   3.201   1.987
 5730TIP3    H117196   4.509   3.127   2.014
 5730TIP3    H217197   4.572   3.191   1.892
 5731TIP3   OH217198   4.051   3.931   4.597
 5731TIP3    H117199   3.992   3.877   4.649
 5731TIP3    H217200   3.993   3.987   4.546
 5732TIP3   OH217201   1.922   1.922   3.549
 5732TIP3    H117202   1.852   1.960   3.496
 5732TIP3    H217203   1.963   1.857   3.492
 5733TIP3   OH217204   0.743   3.173   3.087
 5733TIP3    H117205   0.801   3.247   3.103
 5733TIP3    H217206   0.681   3.204   3.022
 5734TIP3   OH217207   2.247   2.005   4.010
 5734TIP3    H117208   2.218   1.916   4.027
 5734TIP3    H217209   2.224   2.021   3.919
 5735TIP3   OH217210   2.126   4.870   0.072
 5735TIP3    H117211   2.132   4.788   0.120
 5735TIP3    H217212   2.093   4.933   0.136
 5736TIP3   OH217213   0.142   0.310   0.601
 5736TIP3    H117214   0.188   0.242   0.553
 5736TIP3    H217215   0.070   0.264   0.644
 5737TIP3   OH217216   3.329   4.239   4.317
 5737TIP3    H117217   3.388   4.247   4.243
 5737TIP3    H217218   3.308   4.330   4.341
 5738TIP3   OH217219   0.814   3.867   1.752
 5738TIP3    H117220   0.738   3.841   1.803
 5738TIP3    H217221   0.878   3.797   1.766
 5739TIP3   OH217222   5.021   3.680   4.713
 5739TIP3    H117223   5.093   3.743   4.715
 5739TIP3    H217224   5.045   3.615   4.779
 5740TIP3   OH217225   2.498   0.426   4.319
 5740TIP3    H117226   2.519   0.332   4.323
 5740TIP3    H217227   2.403   0.429   4.327
 5741TIP3   OH217228   2.637   4.565   3.529
 5741TIP3    H117229   2.624   4.592   3.620
 5741TIP3    H217230   2.674   4.477   3.535
 5742TIP3   OH217231   4.013   5.899   0.552
 5742TIP3    H117232   3.967   5.970   0.598
 5742TIP3    H217233   4.011   5.925   0.460
 5743TIP3   OH217234   1.084   3.775   0.737
 5743TIP3    H117235   1.131   3.807   0.814
 5743TIP3    H217236   1.125   3.820   0.663
 5744TIP3   OH217237   3.111   1.678   5.090
 5744TIP3    H117238   3.171   1.745   5.058
 5744TIP3    H217239   3.027   1.700   5.049
 5745TIP3   OH217240   2.391   2.207   0.312
 5745TIP3    H117241   2.352   2.294   0.323
 5745TIP3    H217242   2.367   2.181   0.223
 5746TIP3   OH217243   1.099   2.430   0.688
 5746TIP3    H117244   1.123   2.355   0.633
 5746TIP3    H217245   1.076   2.499   0.626
 5747TIP3   OH217246   5.590   0.262   3.278
 5747TIP3    H117247   5.670   0.289   3.323
 5747TIP3    H217248   5.525   0.250   3.348
 5748TIP3   OH217249   0.176   5.137   1.978
 5748TIP3    H117250   0.236   5.070   2.012
 5748TIP3    H217251   0.215   5.220   2.007
 5749TIP3   OH217252   1.221   4.470   2.670
 5749TIP3    H117253   1.303   4.422   2.677
 5749TIP3    H217254   1.157   4.414   2.714
 5750TIP3   OH217255   1.339   3.305   0.397
 5750TIP3    H117256   1.366   3.345   0.480
 5750TIP3    H217257   1.258   3.258   0.418
 5751TIP3   OH217258   2.426   5.850   2.089
 5751TIP3    H117259   2.515   5.849   2.054
 5751TIP3    H217260   2.370   5.856   2.012
 5752TIP3   OH217261   4.012   4.394   0.589
 5752TIP3    H117262   3.970   4.475   0.616
 5752TIP3    H217263   4.106   4.410   0.603
 5753TIP3   OH217264   3.883   0.339   3.537
 5753TIP3    H117265   3.864   0.282   3.611
 5753TIP3    H217266   3.802   0.338   3.485
 5754TIP3   OH217267   0.803   4.133   4.535
 5754TIP3    H117268   0.891   4.109   4.506
 5754TIP3    H217269   0.745   4.068   4.495
 5755TIP3   OH217270   0.529   1.085   3.941
 5755TIP3    H117271   0.439   1.057   3.951
 5755TIP3    H217272   0.580   1.023   3.994
 5756TIP3   OH217273   6.335   4.512   2.612
 5756TIP3    H117274   6.286   4.582   2.569
 5756TIP3    H217275   6.413   4.499   2.556
 5757TIP3   OH217276   1.655   2.527   1.190
 5757TIP3    H117277   1.726   2.488   1.140
 5757TIP3    H217278   1.587   2.546   1.125
 5758TIP3   OH217279   6.003   1.966   2.326
 5758TIP3    H117280   6.017   1.979   2.420
 5758TIP3    H217281   6.083   1.999   2.285
 5759TIP3   OH217282   1.297   4.731   2.993
 5759TIP3    H117283   1.279   4.637   2.998
 5759TIP3    H217284   1.213   4.772   3.014
 5760TIP3   OH217285   0.457   3.897   1.074
 5760TIP3    H117286   0.537   3.847   1.094
 5760TIP3    H217287   0.435   3.871   0.985
 5761TIP3   OH217288   5.405   0.965   3.625
 5761TIP3    H117289   5.409   1.033   3.692
 5761TIP3    H217290   5.496   0.943   3.607
 5762TIP3   OH217291   5.847   3.123   0.837
 5762TIP3    H117292   5.754   3.134   0.819
 5762TIP3    H217293   5.851   3.067   0.914
 5763TIP3   OH217294   2.817   3.115   4.593
 5763TIP3    H117295   2.728   3.149   4.606
 5763TIP3    H217296   2.863   3.184   4.545
 5764TIP3   OH217297   6.087   3.353   0.455
 5764TIP3    H117298   6.154   3.323   0.517
 5764TIP3    H217299   6.018   3.287   0.460
 5765TIP3   OH217300   0.594   1.865   1.404
 5765TIP3    H117301   0.664   1.823   1.354
 5765TIP3    H217302   0.519   1.806   1.396
 5766TIP3   OH217303   0.970   6.032  -0.006
 5766TIP3    H117304   0.896   5.979   0.025
 5766TIP3    H217305   1.017   6.057   0.073
 5767TIP3   OH217306   5.507   1.008   2.040
 5767TIP3    H117307   5.556   1.022   2.121
 5767TIP3    H217308   5.573   0.986   1.975
 5768TIP3   OH217309   5.021   0.013   3.618
 5768TIP3    H117310   5.107   0.038   3.583
 5768TIP3    H217311   5.031   0.021   3.713
 5769TIP3   OH217312   3.573   0.306   0.815
 5769TIP3    H117313   3.583   0.398   0.790
 5769TIP3    H217314   3.497   0.275   0.766
 5770TIP3   OH217315   3.741   0.013   0.274
 5770TIP3    H117316   3.692  -0.064   0.246
 5770TIP3    H217317   3.749   0.003   0.369
 5771TIP3   OH217318   3.832   1.604   2.077
 5771TIP3    H117319   3.773   1.577   2.147
 5771TIP3    H217320   3.912   1.632   2.122
 5772TIP3   OH217321   6.056   1.422   0.047
 5772TIP3    H117322   6.051   1.338   0.092
 5772TIP3    H217323   6.027   1.402  -0.043
 5773TIP3   OH217324   3.492   5.997   2.715
 5773TIP3    H117325   3.518   5.924   2.660
 5773TIP3    H217326   3.549   5.991   2.792
 5774TIP3   OH217327   0.631   2.912   2.473
 5774TIP3    H117328   0.547   2.937   2.511
 5774TIP3    H217329   0.674   2.996   2.453
 5775TIP3   OH217330   4.590   2.618   3.199
 5775TIP3    H117331   4.515   2.558   3.199
 5775TIP3    H217332   4.657   2.572   3.149
 5776TIP3   OH217333   2.985   5.112   3.309
 5776TIP3    H117334   3.057   5.141   3.253
 5776TIP3    H217335   2.940   5.045   3.257
 5777TIP3   OH217336   5.501   3.957   1.965
 5777TIP3    H117337   5.571   3.897   1.990
 5777TIP3    H217338   5.469   3.992   2.048
 5778TIP3   OH217339   4.736   1.487   4.962
 5778TIP3    H117340   4.760   1.394   4.966
 5778TIP3    H217341   4.641   1.488   4.975
 5779TIP3   OH217342   2.519   1.390   2.016
 5779TIP3    H117343   2.484   1.307   2.048
 5779TIP3    H217344   2.443   1.435   1.980
 5780TIP3   OH217345   5.943   1.438   3.168
 5780TIP3    H117346   5.992   1.427   3.250
 5780TIP3    H217347   5.936   1.350   3.133
 5781TIP3   OH217348   5.937   0.882   4.083
 5781TIP3    H117349   5.996   0.875   4.158
 5781TIP3    H217350   5.851   0.863   4.119
 5782TIP3   OH217351   3.689   3.774   2.865
 5782TIP3    H117352   3.777   3.739   2.882
 5782TIP3    H217353   3.698   3.823   2.784
 5783TIP3   OH217354   3.084   4.164   3.356
 5783TIP3    H117355   3.179   4.165   3.374
 5783TIP3    H217356   3.045   4.129   3.437
 5784TIP3   OH217357   1.543   4.322   1.189
 5784TIP3    H117358   1.581   4.239   1.220
 5784TIP3    H217359   1.568   4.386   1.256
 5785TIP3   OH217360   5.275   1.322   1.842
 5785TIP3    H117361   5.366   1.346   1.859
 5785TIP3    H217362   5.279   1.232   1.811
 5786TIP3   OH217363   1.122   0.219   0.756
 5786TIP3    H117364   1.070   0.205   0.677
 5786TIP3    H217365   1.184   0.146   0.757
 5787TIP3   OH217366   3.332   2.048   2.327
 5787TIP3    H117367   3.328   2.072   2.419
 5787TIP3    H217368   3.249   2.004   2.310
 5788TIP3   OH217369   5.556   0.058   4.666
 5788TIP3    H117370   5.523  -0.018   4.619
 5788TIP3    H217371   5.496   0.068   4.740
 5789TIP3   OH217372   3.102   1.187   4.514
 5789TIP3    H117373   3.194   1.196   4.489
 5789TIP3    H217374   3.068   1.277   4.517
 5790TIP3   OH217375   5.276   2.071   2.828
 5790TIP3    H117376   5.371   2.076   2.828
 5790TIP3    H217377   5.249   2.125   2.754
 5791TIP3   OH217378   3.582   5.635   2.298
 5791TIP3    H117379   3.604   5.621   2.206
 5791TIP3    H217380   3.486   5.635   2.299
 5792TIP3   OH217381   2.706   0.278   0.485
 5792TIP3    H117382   2.722   0.322   0.568
 5792TIP3    H217383   2.757   0.197   0.489
 5793TIP3   OH217384   4.281   1.058   1.955
 5793TIP3    H117385   4.231   1.133   1.923
 5793TIP3    H217386   4.288   0.999   1.880
 5794TIP3   OH217387   5.626   1.810   2.701
 5794TIP3    H117388   5.597   1.795   2.791
 5794TIP3    H217389   5.612   1.726   2.657
 5795TIP3   OH217390   1.294   4.347   0.795
 5795TIP3    H117391   1.355   4.365   0.866
 5795TIP3    H217392   1.335   4.277   0.744
 5796TIP3   OH217393   5.611   3.750   4.517
 5796TIP3    H117394   5.607   3.770   4.424
 5796TIP3    H217395   5.590   3.833   4.560
 5797TIP3   OH217396   2.548   4.680   1.748
 5797TIP3    H117397   2.610   4.680   1.822
 5797TIP3    H217398   2.573   4.605   1.695
 5798TIP3   OH217399   2.866   0.890   2.319
 5798TIP3    H117400   2.879   0.953   2.389
 5798TIP3    H217401   2.779   0.854   2.335
 5799TIP3   OH217402   3.123   0.122   1.231
 5799TIP3    H117403   3.081   0.095   1.313
 5799TIP3    H217404   3.213   0.090   1.240
 5800TIP3   OH217405   1.322   5.625   4.043
 5800TIP3    H117406   1.320   5.694   4.110
 5800TIP3    H217407   1.280   5.550   4.084
 5801TIP3   OH217408   2.257   5.493   4.731
 5801TIP3    H117409   2.246   5.587   4.713
 5801TIP3    H217410   2.183   5.471   4.788
 5802TIP3   OH217411   3.416   1.777   3.629
 5802TIP3    H117412   3.421   1.872   3.640
 5802TIP3    H217413   3.322   1.758   3.629
 5803TIP3   OH217414   3.979   0.539   3.710
 5803TIP3    H117415   3.962   0.464   3.654
 5803TIP3    H217416   4.044   0.508   3.773
 5804TIP3   OH217417   5.636   3.562   1.040
 5804TIP3    H117418   5.713   3.596   0.995
 5804TIP3    H217419   5.571   3.632   1.033
 5805TIP3   OH217420   2.020   5.224   0.964
 5805TIP3    H117421   2.064   5.306   0.985
 5805TIP3    H217422   1.939   5.227   1.015
 5806TIP3   OH217423   5.733   2.012   4.164
 5806TIP3    H117424   5.687   2.055   4.091
 5806TIP3    H217425   5.818   1.986   4.126
 5807TIP3   OH217426   5.508   0.649   3.370
 5807TIP3    H117427   5.516   0.607   3.285
 5807TIP3    H217428   5.585   0.620   3.419
 5808TIP3   OH217429   2.594   4.913   1.064
 5808TIP3    H117430   2.576   4.826   1.101
 5808TIP3    H217431   2.686   4.908   1.037
 5809TIP3   OH217432   2.617   0.741   4.731
 5809TIP3    H117433   2.676   0.816   4.729
 5809TIP3    H217434   2.589   0.735   4.822
 5810TIP3   OH217435   0.013   5.884   0.357
 5810TIP3    H117436   0.031   5.797   0.391
 5810TIP3    H217437  -0.005   5.937   0.435
 5811TIP3   OH217438   2.874   0.649   0.597
 5811TIP3    H117439   2.847   0.576   0.652
 5811TIP3    H217440   2.809   0.652   0.527
 5812TIP3   OH217441   3.116   0.516   1.904
 5812TIP3    H117442   3.145   0.475   1.822
 5812TIP3    H217443   3.036   0.563   1.880
 5813TIP3   OH217444   0.048   1.352   4.458
 5813TIP3    H117445  -0.034   1.396   4.481
 5813TIP3    H217446   0.100   1.420   4.415
 5814TIP3   OH217447   6.099   1.076   0.421
 5814TIP3    H117448   6.177   1.074   0.476
 5814TIP3    H217449   6.050   0.997   0.446
 5815TIP3   OH217450   0.276   4.025   4.892
 5815TIP3    H117451   0.316   4.062   4.971
 5815TIP3    H217452   0.348   4.019   4.829
 5816TIP3   OH217453   6.133   3.670   1.530
 5816TIP3    H117454   6.212   3.718   1.503
 5816TIP3    H217455   6.166   3.587   1.565
 5817TIP3   OH217456   0.444   5.790   5.031
 5817TIP3    H117457   0.465   5.883   5.042
 5817TIP3    H217458   0.379   5.771   5.099
 5818TIP3   OH217459   0.189   4.507   4.739
 5818TIP3    H117460   0.252   4.435   4.745
 5818TIP3    H217461   0.169   4.530   4.829
 5819TIP3   OH217462   3.925   4.377   2.839
 5819TIP3    H117463   3.994   4.324   2.878
 5819TIP3    H217464   3.934   4.462   2.883
 5820TIP3   OH217465   5.427   2.993   3.872
 5820TIP3    H117466   5.406   3.086   3.865
 5820TIP3    H217467   5.513   2.991   3.915
 5821TIP3   OH217468   3.340   4.327   3.207
 5821TIP3    H117469   3.425   4.305   3.246
 5821TIP3    H217470   3.356   4.409   3.161
 5822TIP3   OH217471   2.502   2.572   0.277
 5822TIP3    H117472   2.461   2.557   0.191
 5822TIP3    H217473   2.429   2.563   0.339
 5823TIP3   OH217474   5.277   0.834   2.126
 5823TIP3    H117475   5.257   0.833   2.219
 5823TIP3    H217476   5.363   0.875   2.120
 5824TIP3   OH217477   3.976   0.514   1.154
 5824TIP3    H117478   3.949   0.546   1.240
 5824TIP3    H217479   4.022   0.589   1.114
 5825TIP3   OH217480   2.876   5.667   1.847
 5825TIP3    H117481   2.958   5.715   1.853
 5825TIP3    H217482   2.902   5.579   1.819
 5826TIP3   OH217483   2.929   5.324   1.220
 5826TIP3    H117484   2.951   5.414   1.240
 5826TIP3    H217485   2.835   5.325   1.202
 5827TIP3   OH217486   0.086   0.273   2.728
 5827TIP3    H117487  -0.009   0.285   2.725
 5827TIP3    H217488   0.119   0.319   2.651
 5828TIP3   OH217489   1.666   4.994   3.186
 5828TIP3    H117490   1.583   4.965   3.149
 5828TIP3    H217491   1.703   5.052   3.121
 5829TIP3   OH217492   2.298   2.055   1.859
 5829TIP3    H117493   2.250   2.100   1.789
 5829TIP3    H217494   2.372   2.013   1.815
 5830TIP3   OH217495   3.512   2.724   3.565
 5830TIP3    H117496   3.464   2.777   3.501
 5830TIP3    H217497   3.502   2.772   3.648
 5831TIP3   OH217498   5.807   3.211   1.548
 5831TIP3    H117499   5.859   3.287   1.575
 5831TIP3    H217500   5.765   3.238   1.466
 5832TIP3   OH217501   3.488   5.080   0.234
 5832TIP3    H117502   3.515   5.006   0.180
 5832TIP3    H217503   3.555   5.084   0.303
 5833TIP3   OH217504   0.640   4.893   2.010
 5833TIP3    H117505   0.633   4.814   1.955
 5833TIP3    H217506   0.692   4.954   1.958
 5834TIP3   OH217507   5.742   5.850   0.030
 5834TIP3    H117508   5.663   5.897   0.058
 5834TIP3    H217509   5.740   5.769   0.082
 5835TIP3   OH217510   1.794   5.921   4.395
 5835TIP3    H117511   1.736   5.847   4.378
 5835TIP3    H217512   1.769   5.986   4.329
 5836TIP3   OH217513   4.954   5.362   3.085
 5836TIP3    H117514   4.988   5.449   3.066
 5836TIP3    H217515   4.974   5.311   3.007
 5837TIP3   OH217516   1.582   2.979   0.247
 5837TIP3    H117517   1.602   3.070   0.271
 5837TIP3    H217518   1.531   2.946   0.321
 5838TIP3   OH217519   1.060   0.928   3.233
 5838TIP3    H117520   1.152   0.944   3.255
 5838TIP3    H217521   1.046   0.976   3.151
 5839TIP3   OH217522   1.747   4.730   1.602
 5839TIP3    H117523   1.741   4.824   1.620
 5839TIP3    H217524   1.657   4.699   1.611
 5840TIP3   OH217525   1.620   3.276   4.424
 5840TIP3    H117526   1.578   3.226   4.494
 5840TIP3    H217527   1.569   3.255   4.345
 5841TIP3   OH217528   0.581   5.735   1.174
 5841TIP3    H117529   0.546   5.646   1.184
 5841TIP3    H217530   0.545   5.766   1.091
 5842TIP3   OH217531   1.434   0.038   2.624
 5842TIP3    H117532   1.507   0.039   2.562
 5842TIP3    H217533   1.411  -0.055   2.632
 5843TIP3   OH217534   3.530   1.132   4.625
 5843TIP3    H117535   3.495   1.081   4.698
 5843TIP3    H217536   3.458   1.137   4.563
 5844TIP3   OH217537   5.460   0.913   4.056
 5844TIP3    H117538   5.522   0.917   4.128
 5844TIP3    H217539   5.421   0.826   4.063
 5845TIP3   OH217540   3.904   0.303   0.980
 5845TIP3    H117541   3.930   0.382   1.028
 5845TIP3    H217542   3.977   0.285   0.922
 5846TIP3   OH217543   1.154   2.403   0.155
 5846TIP3    H117544   1.139   2.309   0.161
 5846TIP3    H217545   1.215   2.413   0.082
 5847TIP3   OH217546   2.217   2.197   1.642
 5847TIP3    H117547   2.128   2.164   1.626
 5847TIP3    H217548   2.210   2.291   1.629
 5848TIP3   OH217549   0.487   0.089   3.835
 5848TIP3    H117550   0.490   0.170   3.886
 5848TIP3    H217551   0.545   0.105   3.761
 5849TIP3   OH217552   0.853   3.365   3.945
 5849TIP3    H117553   0.897   3.316   3.876
 5849TIP3    H217554   0.776   3.403   3.902
 5850TIP3   OH217555   5.977   4.441   1.785
 5850TIP3    H117556   5.964   4.382   1.859
 5850TIP3    H217557   5.898   4.494   1.783
 5851TIP3   OH217558   1.856   5.978   5.111
 5851TIP3    H117559   1.872   5.914   5.181
 5851TIP3    H217560   1.893   6.060   5.145
 5852TIP3   OH217561   0.988   0.492   0.863
 5852TIP3    H117562   1.052   0.535   0.806
 5852TIP3    H217563   0.922   0.560   0.878
 5853TIP3   OH217564   1.843   4.680   1.222
 5853TIP3    H117565   1.752   4.683   1.251
 5853TIP3    H217566   1.889   4.740   1.281
 5854TIP3   OH217567   6.327   5.733   2.097
 5854TIP3    H117568   6.400   5.731   2.035
 5854TIP3    H217569   6.302   5.826   2.100
 5855TIP3   OH217570   3.002   4.577   3.458
 5855TIP3    H117571   2.997   4.669   3.432
 5855TIP3    H217572   2.994   4.578   3.554
 5856TIP3   OH217573   2.415   4.693   4.486
 5856TIP3    H117574   2.347   4.680   4.421
 5856TIP3    H217575   2.381   4.653   4.566
 5857TIP3   OH217576   5.459   1.988   3.161
 5857TIP3    H117577   5.441   2.076   3.130
 5857TIP3    H217578   5.372   1.950   3.176
 5858TIP3   OH217579   2.505   1.071   0.741
 5858TIP3    H117580   2.444   1.016   0.693
 5858TIP3    H217581   2.450   1.133   0.789
 5859TIP3   OH217582   1.633   1.658   1.195
 5859TIP3    H117583   1.642   1.745   1.156
 5859TIP3    H217584   1.616   1.675   1.288
 5860TIP3   OH217585   1.986   3.561   1.822
 5860TIP3    H117586   2.000   3.638   1.876
 5860TIP3    H217587   2.073   3.525   1.808
 5861TIP3   OH217588   3.443   5.962   2.399
 5861TIP3    H117589   3.536   5.984   2.392
 5861TIP3    H217590   3.438   5.872   2.366
 5862TIP3   OH217591   4.918   3.327   1.280
 5862TIP3    H117592   4.955   3.393   1.222
 5862TIP3    H217593   4.879   3.377   1.352
 5863TIP3   OH217594   3.581   0.017   2.183
 5863TIP3    H117595   3.673   0.019   2.211
 5863TIP3    H217596   3.532   0.007   2.265
 5864TIP3   OH217597   1.909   2.097   1.006
 5864TIP3    H117598   2.003   2.077   1.007
 5864TIP3    H217599   1.881   2.077   0.917
 5865TIP3   OH217600   2.771   1.306   4.338
 5865TIP3    H117601   2.805   1.387   4.300
 5865TIP3    H217602   2.676   1.312   4.326
 5866TIP3   OH217603   1.012   5.692   0.787
 5866TIP3    H117604   0.919   5.691   0.807
 5866TIP3    H217605   1.034   5.600   0.771
 5867TIP3   OH217606   3.151   3.397   2.255
 5867TIP3    H117607   3.236   3.391   2.297
 5867TIP3    H217608   3.159   3.343   2.176
 5868TIP3   OH217609   2.137   1.108   0.311
 5868TIP3    H117610   2.120   1.102   0.405
 5868TIP3    H217611   2.198   1.181   0.302
 5869TIP3   OH217612   0.530   1.041   1.941
 5869TIP3    H117613   0.460   1.089   1.897
 5869TIP3    H217614   0.595   1.108   1.963
 5870TIP3   OH217615   3.842   5.154   2.150
 5870TIP3    H117616   3.825   5.132   2.059
 5870TIP3    H217617   3.778   5.104   2.200
 5871TIP3   OH217618   0.622   0.252   2.772
 5871TIP3    H117619   0.634   0.219   2.861
 5871TIP3    H217620   0.696   0.217   2.723
 5872TIP3   OH217621   2.127   0.903   2.113
 5872TIP3    H117622   2.094   0.965   2.049
 5872TIP3    H217623   2.120   0.948   2.197
 5873TIP3   OH217624   6.108   3.577   4.961
 5873TIP3    H117625   6.077   3.492   4.995
 5873TIP3    H217626   6.095   3.638   5.034
 5874TIP3   OH217627   6.049   3.307   0.155
 5874TIP3    H117628   6.074   3.310   0.248
 5874TIP3    H217629   6.011   3.393   0.138
 5875TIP3   OH217630   2.119   2.513   3.220
 5875TIP3    H117631   2.171   2.580   3.264
 5875TIP3    H217632   2.065   2.475   3.289
 5876TIP3   OH217633   2.266   1.697   2.802
 5876TIP3    H117634   2.297   1.787   2.811
 5876TIP3    H217635   2.238   1.690   2.711
 5877TIP3   OH217636   2.773   0.443   4.752
 5877TIP3    H117637   2.747   0.351   4.757
 5877TIP3    H217638   2.701   0.491   4.790
 5878TIP3   OH217639   3.608   4.820   5.025
 5878TIP3    H117640   3.583   4.744   5.077
 5878TIP3    H217641   3.547   4.889   5.051
 5879TIP3   OH217642   2.652   4.907   3.668
 5879TIP3    H117643   2.691   4.881   3.752
 5879TIP3    H217644   2.725   4.943   3.617
 5880TIP3   OH217645   1.766   0.704   4.861
 5880TIP3    H117646   1.795   0.686   4.772
 5880TIP3    H217647   1.809   0.786   4.885
 5881TIP3   OH217648   3.711   4.679   3.252
 5881TIP3    H117649   3.696   4.638   3.337
 5881TIP3    H217650   3.785   4.739   3.268
 5882TIP3   OH217651   2.488   2.077   1.375
 5882TIP3    H117652   2.580   2.060   1.392
 5882TIP3    H217653   2.474   2.167   1.405
 5883TIP3   OH217654   1.045   5.145   1.753
 5883TIP3    H117655   1.050   5.236   1.780
 5883TIP3    H217656   1.074   5.145   1.662
 5884TIP3   OH217657   5.683   5.170   2.980
 5884TIP3    H117658   5.711   5.213   2.899
 5884TIP3    H217659   5.676   5.242   3.043
 5885TIP3   OH217660   3.053   2.016   2.260
 5885TIP3    H117661   3.087   2.065   2.186
 5885TIP3    H217662   3.037   2.083   2.328
 5886TIP3   OH217663   0.774   1.481   4.237
 5886TIP3    H117664   0.780   1.526   4.153
 5886TIP3    H217665   0.793   1.389   4.216
 5887TIP3   OH217666   3.969   4.042   0.739
 5887TIP3    H117667   3.991   4.099   0.813
 5887TIP3    H217668   4.040   4.055   0.676
 5888TIP3   OH217669   2.657   4.819   4.205
 5888TIP3    H117670   2.688   4.735   4.240
 5888TIP3    H217671   2.563   4.807   4.192
 5889TIP3   OH217672   2.028   3.523   4.248
 5889TIP3    H117673   2.093   3.536   4.316
 5889TIP3    H217674   1.947   3.559   4.285
 5890TIP3   OH217675   3.621   2.108   2.358
 5890TIP3    H117676   3.696   2.076   2.307
 5890TIP3    H217677   3.546   2.061   2.321
 5891TIP3   OH217678   1.301   3.332   0.783
 5891TIP3    H117679   1.233   3.278   0.744
 5891TIP3    H217680   1.278   3.422   0.757
 5892TIP3   OH217681   4.415   4.521   2.175
 5892TIP3    H117682   4.495   4.515   2.227
 5892TIP3    H217683   4.432   4.466   2.099
 5893TIP3   OH217684   4.586   0.823  -0.014
 5893TIP3    H117685   4.659   0.780   0.032
 5893TIP3    H217686   4.599   0.916   0.003
 5894TIP3   OH217687   3.919   5.303   2.693
 5894TIP3    H117688   3.994   5.305   2.753
 5894TIP3    H217689   3.946   5.242   2.624
 5895TIP3   OH217690   6.396   5.482   3.238
 5895TIP3    H117691   6.319   5.537   3.222
 5895TIP3    H217692   6.465   5.521   3.186
 5896TIP3   OH217693   5.990   2.377   2.310
 5896TIP3    H117694   5.989   2.321   2.387
 5896TIP3    H217695   5.926   2.445   2.328
 5897TIP3   OH217696   2.392   5.195   2.191
 5897TIP3    H117697   2.482   5.167   2.177
 5897TIP3    H217698   2.392   5.289   2.170
 5898TIP3   OH217699   5.384   5.656   4.708
 5898TIP3    H117700   5.437   5.614   4.776
 5898TIP3    H217701   5.383   5.593   4.636
 5899TIP3   OH217702   0.242   0.228   4.922
 5899TIP3    H117703   0.322   0.224   4.870
 5899TIP3    H217704   0.171   0.216   4.859
 5900TIP3   OH217705   5.363   4.775   2.124
 5900TIP3    H117706   5.343   4.713   2.054
 5900TIP3    H217707   5.454   4.756   2.147
 5901TIP3   OH217708   0.489   0.219   4.783
 5901TIP3    H117709   0.559   0.191   4.725
 5901TIP3    H217710   0.508   0.311   4.802
 5902TIP3   OH217711   1.588   4.191   1.527
 5902TIP3    H117712   1.499   4.159   1.514
 5902TIP3    H217713   1.628   4.186   1.440
 5903TIP3   OH217714   0.327   1.851   4.405
 5903TIP3    H117715   0.276   1.908   4.347
 5903TIP3    H217716   0.418   1.864   4.378
 5904TIP3   OH217717   4.645   0.872   1.705
 5904TIP3    H117718   4.708   0.874   1.776
 5904TIP3    H217719   4.692   0.906   1.629
 5905TIP3   OH217720   4.666   4.175   4.435
 5905TIP3    H117721   4.613   4.169   4.356
 5905TIP3    H217722   4.603   4.193   4.505
 5906TIP3   OH217723   4.989   1.043   3.943
 5906TIP3    H117724   5.022   1.131   3.928
 5906TIP3    H217725   5.062   0.985   3.922
 5907TIP3   OH217726   2.446   4.337   0.770
 5907TIP3    H117727   2.509   4.267   0.790
 5907TIP3    H217728   2.495   4.399   0.717
 5908TIP3   OH217729   4.102   1.933   0.652
 5908TIP3    H117730   4.072   2.019   0.683
 5908TIP3    H217731   4.049   1.871   0.701
 5909TIP3   OH217732   0.842   3.632   2.079
 5909TIP3    H117733   0.925   3.645   2.126
 5909TIP3    H217734   0.820   3.540   2.093
 5910TIP3   OH217735   2.580   5.195   1.752
 5910TIP3    H117736   2.543   5.257   1.689
 5910TIP3    H217737   2.562   5.109   1.714
 5911TIP3   OH217738   0.779   2.429   1.611
 5911TIP3    H117739   0.687   2.406   1.604
 5911TIP3    H217740   0.825   2.358   1.566
 5912TIP3   OH217741   0.829   2.025   2.572
 5912TIP3    H117742   0.828   2.062   2.660
 5912TIP3    H217743   0.850   1.933   2.585
 5913TIP3   OH217744   1.970   0.093   1.930
 5913TIP3    H117745   1.971   0.185   1.906
 5913TIP3    H217746   2.004   0.047   1.853
 5914TIP3   OH217747   2.981   5.771   5.143
 5914TIP3    H117748   2.982   5.859   5.107
 5914TIP3    H217749   2.984   5.713   5.066
 5915TIP3   OH217750   3.743   1.272   4.425
 5915TIP3    H117751   3.719   1.259   4.333
 5915TIP3    H217752   3.665   1.248   4.474
 5916TIP3   OH217753   0.382   3.914   0.563
 5916TIP3    H117754   0.470   3.939   0.534
 5916TIP3    H217755   0.353   3.850   0.498
 5917TIP3   OH217756   5.879   1.106   4.352
 5917TIP3    H117757   5.865   1.038   4.418
 5917TIP3    H217758   5.973   1.101   4.333
 5918TIP3   OH217759   5.927   4.693   3.912
 5918TIP3    H117760   5.933   4.788   3.925
 5918TIP3    H217761   6.014   4.668   3.881
 5919TIP3   OH217762   3.206   3.812   1.895
 5919TIP3    H117763   3.187   3.806   1.802
 5919TIP3    H217764   3.301   3.823   1.900
 5920TIP3   OH217765   2.188   5.763   4.699
 5920TIP3    H117766   2.274   5.781   4.659
 5920TIP3    H217767   2.126   5.773   4.627
 5921TIP3   OH217768   1.932   2.132   1.723
 5921TIP3    H117769   1.844   2.163   1.747
 5921TIP3    H217770   1.916   2.068   1.654
 5922TIP3   OH217771   3.622   4.591   3.509
 5922TIP3    H117772   3.686   4.638   3.562
 5922TIP3    H217773   3.537   4.615   3.547
 5923TIP3   OH217774   3.552   3.005   2.803
 5923TIP3    H117775   3.462   2.980   2.781
 5923TIP3    H217776   3.576   3.069   2.736
 5924TIP3   OH217777   0.483   2.570   2.102
 5924TIP3    H117778   0.531   2.487   2.102
 5924TIP3    H217779   0.522   2.621   2.173
 5925TIP3   OH217780   3.199   4.449   1.389
 5925TIP3    H117781   3.110   4.485   1.389
 5925TIP3    H217782   3.188   4.360   1.422
 5926TIP3   OH217783   4.524   3.972   2.052
 5926TIP3    H117784   4.528   3.883   2.017
 5926TIP3    H217785   4.448   3.972   2.110
 5927TIP3   OH217786   4.541   2.611   4.174
 5927TIP3    H117787   4.552   2.519   4.199
 5927TIP3    H217788   4.629   2.647   4.174
 5928TIP3   OH217789   4.108   2.292   2.971
 5928TIP3    H117790   4.196   2.273   3.003
 5928TIP3    H217791   4.073   2.355   3.035
 5929TIP3   OH217792   4.354   5.986   2.574
 5929TIP3    H117793   4.312   5.944   2.499
 5929TIP3    H217794   4.321   6.076   2.572
 5930TIP3   OH217795   5.242   0.220   3.186
 5930TIP3    H117796   5.281   0.169   3.115
 5930TIP3    H217797   5.218   0.303   3.147
 5931TIP3   OH217798   3.734   5.931   2.867
 5931TIP3    H117799   3.744   5.959   2.958
 5931TIP3    H217800   3.750   5.837   2.869
 5932TIP3   OH217801   1.682   0.241   3.488
 5932TIP3    H117802   1.631   0.162   3.507
 5932TIP3    H217803   1.683   0.289   3.571
 5933TIP3   OH217804   1.723   0.202   2.461
 5933TIP3    H117805   1.730   0.121   2.410
 5933TIP3    H217806   1.676   0.262   2.403
 5934TIP3   OH217807   3.241   1.609   1.279
 5934TIP3    H117808   3.233   1.517   1.307
 5934TIP3    H217809   3.281   1.653   1.353
 5935TIP3   OH217810   4.064   2.186   3.565
 5935TIP3    H117811   3.997   2.240   3.523
 5935TIP3    H217812   4.147   2.220   3.531
 5936TIP3   OH217813   6.287   4.515   4.668
 5936TIP3    H117814   6.382   4.514   4.676
 5936TIP3    H217815   6.258   4.438   4.718
 5937TIP3   OH217816   5.743   1.267   2.770
 5937TIP3    H117817   5.704   1.275   2.857
 5937TIP3    H217818   5.838   1.265   2.787
 5938TIP3   OH217819   3.637   2.733   1.954
 5938TIP3    H117820   3.552   2.724   1.998
 5938TIP3    H217821   3.640   2.660   1.892
 5939TIP3   OH217822   3.988   0.600   0.271
 5939TIP3    H117823   3.918   0.554   0.318
 5939TIP3    H217824   3.950   0.623   0.187
 5940TIP3   OH217825   5.757   3.753   2.258
 5940TIP3    H117826   5.819   3.702   2.310
 5940TIP3    H217827   5.672   3.711   2.274
 5941TIP3   OH217828   4.367   3.143   3.465
 5941TIP3    H117829   4.335   3.122   3.553
 5941TIP3    H217830   4.289   3.139   3.409
 5942TIP3   OH217831   2.715   1.126   2.871
 5942TIP3    H117832   2.803   1.105   2.901
 5942TIP3    H217833   2.674   1.173   2.944
 5943TIP3   OH217834   3.803   0.014   2.322
 5943TIP3    H117835   3.851  -0.066   2.301
 5943TIP3    H217836   3.813   0.025   2.416
 5944TIP3   OH217837   3.122   0.108   1.993
 5944TIP3    H117838   3.178   0.183   2.014
 5944TIP3    H217839   3.097   0.072   2.078
 5945TIP3   OH217840   5.166   3.169   2.000
 5945TIP3    H117841   5.211   3.090   1.969
 5945TIP3    H217842   5.087   3.174   1.945
 5946TIP3   OH217843   6.212   5.937   3.546
 5946TIP3    H117844   6.176   5.897   3.467
 5946TIP3    H217845   6.299   5.966   3.521
 5947TIP3   OH217846   3.218   5.000   4.145
 5947TIP3    H117847   3.237   5.070   4.208
 5947TIP3    H217848   3.287   4.935   4.159
 5948TIP3   OH217849   2.914   3.998   3.513
 5948TIP3    H117850   2.828   4.001   3.471
 5948TIP3    H217851   2.948   3.911   3.493
 5949TIP3   OH217852   0.079   3.592   3.510
 5949TIP3    H117853   0.101   3.682   3.532
 5949TIP3    H217854   0.067   3.548   3.595
 5950TIP3   OH217855   2.986   5.092   3.791
 5950TIP3    H117856   3.059   5.082   3.730
 5950TIP3    H217857   2.909   5.100   3.735
 5951TIP3   OH217858   2.860   4.604   4.796
 5951TIP3    H117859   2.769   4.631   4.781
 5951TIP3    H217860   2.905   4.628   4.714
 5952TIP3   OH217861   4.609   0.997   3.089
 5952TIP3    H117862   4.699   1.006   3.058
 5952TIP3    H217863   4.586   0.906   3.067
 5953TIP3   OH217864   1.258   1.311   2.915
 5953TIP3    H117865   1.325   1.355   2.862
 5953TIP3    H217866   1.187   1.375   2.920
 5954TIP3   OH217867   4.621   2.384   2.650
 5954TIP3    H117868   4.550   2.359   2.710
 5954TIP3    H217869   4.649   2.302   2.611
 5955TIP3   OH217870   6.338   4.086   4.740
 5955TIP3    H117871   6.286   4.146   4.687
 5955TIP3    H217872   6.299   4.089   4.827
 5956TIP3   OH217873   4.122   4.992   0.306
 5956TIP3    H117874   4.209   4.954   0.320
 5956TIP3    H217875   4.138   5.078   0.269
 5957TIP3   OH217876   3.017   2.296   2.873
 5957TIP3    H117877   2.950   2.234   2.901
 5957TIP3    H217878   2.969   2.376   2.852
 5958TIP3   OH217879   5.506   2.112   4.036
 5958TIP3    H117880   5.503   2.035   3.979
 5958TIP3    H217881   5.426   2.160   4.015
 5959TIP3   OH217882   5.124   4.803   2.912
 5959TIP3    H117883   5.185   4.735   2.940
 5959TIP3    H217884   5.149   4.881   2.963
 5960TIP3   OH217885   5.368   2.805   4.469
 5960TIP3    H117886   5.404   2.735   4.414
 5960TIP3    H217887   5.275   2.805   4.450
 5961TIP3   OH217888   1.059   0.677   2.703
 5961TIP3    H117889   0.975   0.644   2.671
 5961TIP3    H217890   1.036   0.737   2.774
 5962TIP3   OH217891   4.069   3.923   4.250
 5962TIP3    H117892   4.104   3.843   4.210
 5962TIP3    H217893   3.980   3.900   4.276
 5963TIP3   OH217894   5.116   1.649   0.993
 5963TIP3    H117895   5.198   1.671   1.037
 5963TIP3    H217896   5.096   1.560   1.024
 5964TIP3   OH217897   3.180   3.140   5.116
 5964TIP3    H117898   3.223   3.186   5.188
 5964TIP3    H217899   3.241   3.148   5.043
 5965TIP3   OH217900   4.150   4.112   0.271
 5965TIP3    H117901   4.101   4.188   0.304
 5965TIP3    H217902   4.195   4.145   0.193
 5966TIP3   OH217903   5.041   5.600   4.576
 5966TIP3    H117904   5.007   5.526   4.526
 5966TIP3    H217905   4.966   5.633   4.625
 5967TIP3   OH217906   2.610   3.897   4.425
 5967TIP3    H117907   2.604   3.978   4.475
 5967TIP3    H217908   2.523   3.887   4.386
 5968TIP3   OH217909   0.030   5.630   4.130
 5968TIP3    H117910  -0.049   5.581   4.155
 5968TIP3    H217911   0.061   5.586   4.051
 5969TIP3   OH217912   4.559   4.136   4.158
 5969TIP3    H117913   4.596   4.160   4.072
 5969TIP3    H217914   4.468   4.112   4.139
 5970TIP3   OH217915   0.686   0.782   0.518
 5970TIP3    H117916   0.695   0.743   0.431
 5970TIP3    H217917   0.657   0.872   0.501
 5971TIP3   OH217918   2.949   2.694   4.281
 5971TIP3    H117919   2.876   2.634   4.262
 5971TIP3    H217920   2.914   2.756   4.345
 5972TIP3   OH217921   3.397   3.346   1.214
 5972TIP3    H117922   3.415   3.419   1.273
 5972TIP3    H217923   3.317   3.306   1.250
 5973TIP3   OH217924   0.859   4.822   0.046
 5973TIP3    H117925   0.914   4.853   0.118
 5973TIP3    H217926   0.817   4.901   0.012
 5974TIP3   OH217927   2.125   4.138   3.661
 5974TIP3    H117928   2.165   4.120   3.576
 5974TIP3    H217929   2.049   4.080   3.664
 5975TIP3   OH217930   5.077   5.900   0.646
 5975TIP3    H117931   5.003   5.917   0.587
 5975TIP3    H217932   5.107   5.988   0.671
 5976TIP3   OH217933   3.097   3.760   1.658
 5976TIP3    H117934   3.061   3.830   1.604
 5976TIP3    H217935   3.021   3.715   1.694
 5977TIP3   OH217936   1.388   2.896   4.651
 5977TIP3    H117937   1.295   2.912   4.639
 5977TIP3    H217938   1.393   2.811   4.694
 5978TIP3   OH217939   1.812   0.729   2.220
 5978TIP3    H117940   1.748   0.684   2.166
 5978TIP3    H217941   1.760   0.785   2.278
 5979TIP3   OH217942   0.561   3.432   2.219
 5979TIP3    H117943   0.646   3.403   2.188
 5979TIP3    H217944   0.554   3.396   2.308
 5980TIP3   OH217945   2.043   1.101   3.653
 5980TIP3    H117946   2.029   1.014   3.688
 5980TIP3    H217947   2.124   1.131   3.696
 5981TIP3   OH217948   2.889   1.418   4.864
 5981TIP3    H117949   2.826   1.410   4.936
 5981TIP3    H217950   2.838   1.399   4.785
 5982TIP3   OH217951   4.363   5.760   3.730
 5982TIP3    H117952   4.439   5.811   3.756
 5982TIP3    H217953   4.396   5.671   3.719
 5983TIP3   OH217954   6.054   5.514   4.529
 5983TIP3    H117955   6.045   5.576   4.602
 5983TIP3    H217956   6.076   5.569   4.454
 5984TIP3   OH217957   5.304   5.394   0.800
 5984TIP3    H117958   5.356   5.316   0.817
 5984TIP3    H217959   5.239   5.396   0.870
 5985TIP3   OH217960   1.836   2.789   3.698
 5985TIP3    H117961   1.794   2.732   3.763
 5985TIP3    H217962   1.914   2.823   3.743
 5986TIP3   OH217963   5.525   5.345   2.227
 5986TIP3    H117964   5.493   5.433   2.248
 5986TIP3    H217965   5.616   5.345   2.256
 5987TIP3   OH217966   5.707   2.152   3.612
 5987TIP3    H117967   5.693   2.101   3.532
 5987TIP3    H217968   5.624   2.196   3.628
 5988TIP3   OH217969   5.222   3.528   0.670
 5988TIP3    H117970   5.128   3.524   0.654
 5988TIP3    H217971   5.251   3.608   0.627
 5989TIP3   OH217972   5.529   0.198   1.794
 5989TIP3    H117973   5.605   0.157   1.753
 5989TIP3    H217974   5.566   0.246   1.869
 5990TIP3   OH217975   2.084   5.409   3.865
 5990TIP3    H117976   2.174   5.439   3.879
 5990TIP3    H217977   2.092   5.317   3.842
 5991TIP3   OH217978   4.246   0.674   1.906
 5991TIP3    H117979   4.297   0.647   1.982
 5991TIP3    H217980   4.295   0.748   1.869
 5992TIP3   OH217981   1.076   3.291   2.181
 5992TIP3    H117982   1.061   3.327   2.093
 5992TIP3    H217983   1.137   3.218   2.167
 5993TIP3   OH217984   1.154   4.643   0.134
 5993TIP3    H117985   1.085   4.703   0.163
 5993TIP3    H217986   1.236   4.690   0.149
 5994TIP3   OH217987   3.016   2.187   3.925
 5994TIP3    H117988   2.946   2.190   3.861
 5994TIP3    H217989   3.056   2.101   3.913
 5995TIP3   OH217990   1.880   1.017   0.764
 5995TIP3    H117991   1.875   0.949   0.831
 5995TIP3    H217992   1.935   1.085   0.803
 5996TIP3   OH217993   4.318   5.833   1.005
 5996TIP3    H117994   4.337   5.747   1.041
 5996TIP3    H217995   4.223   5.833   0.990
 5997TIP3   OH217996   5.311   3.822   0.680
 5997TIP3    H117997   5.321   3.917   0.675
 5997TIP3    H217998   5.399   3.790   0.704
 5998TIP3   OH217999   5.012   0.185   0.733
 5998TIP3    H118000   4.938   0.214   0.680
 5998TIP3    H218001   5.087   0.189   0.674
 5999TIP3   OH218002   2.655   1.541   4.512
 5999TIP3    H118003   2.737   1.589   4.499
 5999TIP3    H218004   2.674   1.480   4.582
 6000TIP3   OH218005   4.214   1.740   0.178
 6000TIP3    H118006   4.232   1.803   0.248
 6000TIP3    H218007   4.259   1.776   0.102
 6001TIP3   OH218008   3.634   1.248   2.104
 6001TIP3    H118009   3.693   1.198   2.161
 6001TIP3    H218010   3.641   1.338   2.135
 6002TIP3   OH218011   6.161   5.279   0.445
 6002TIP3    H118012   6.180   5.326   0.364
 6002TIP3    H218013   6.214   5.200   0.440
 6003TIP3   OH218014   3.487   3.715   2.648
 6003TIP3    H118015   3.490   3.806   2.678
 6003TIP3    H218016   3.574   3.699   2.611
 6004TIP3   OH218017   5.918   2.247   1.002
 6004TIP3    H118018   5.881   2.169   1.043
 6004TIP3    H218019   6.013   2.238   1.012
 6005TIP3   OH218020   4.770   1.689   0.325
 6005TIP3    H118021   4.861   1.659   0.317
 6005TIP3    H218022   4.719   1.609   0.336
 6006TIP3   OH218023   5.567   1.629   0.139
 6006TIP3    H118024   5.538   1.720   0.134
 6006TIP3    H218025   5.659   1.632   0.114
 6007TIP3   OH218026   2.180   3.003   2.063
 6007TIP3    H118027   2.192   3.024   2.155
 6007TIP3    H218028   2.093   3.037   2.041
 6008TIP3   OH218029   0.723   2.264   1.335
 6008TIP3    H118030   0.635   2.228   1.347
 6008TIP3    H218031   0.709   2.355   1.310
 6009TIP3   OH218032   4.297   4.881   0.486
 6009TIP3    H118033   4.371   4.853   0.432
 6009TIP3    H218034   4.309   4.835   0.569
 6010TIP3   OH218035   5.806   1.630   3.012
 6010TIP3    H118036   5.850   1.637   2.927
 6010TIP3    H218037   5.843   1.551   3.051
 6011TIP3   OH218038   3.209   0.328   1.690
 6011TIP3    H118039   3.250   0.282   1.617
 6011TIP3    H218040   3.138   0.269   1.718
 6012TIP3   OH218041   1.255   2.315   2.787
 6012TIP3    H118042   1.210   2.231   2.776
 6012TIP3    H218043   1.193   2.369   2.835
 6013TIP3   OH218044   1.537   3.967   1.902
 6013TIP3    H118045   1.604   3.977   1.971
 6013TIP3    H218046   1.498   3.881   1.920
 6014TIP3   OH218047   1.339   2.723   4.889
 6014TIP3    H118048   1.422   2.678   4.904
 6014TIP3    H218049   1.306   2.685   4.807
 6015TIP3   OH218050   3.674   0.232   1.855
 6015TIP3    H118051   3.587   0.197   1.837
 6015TIP3    H218052   3.673   0.320   1.817
 6016TIP3   OH218053   5.582   0.361   2.046
 6016TIP3    H118054   5.613   0.378   2.134
 6016TIP3    H218055   5.488   0.383   2.049
 6017TIP3   OH218056   3.315   5.015   4.782
 6017TIP3    H118057   3.364   5.045   4.858
 6017TIP3    H218058   3.355   4.931   4.759
 6018TIP3   OH218059   2.083   0.140   1.213
 6018TIP3    H118060   1.994   0.158   1.185
 6018TIP3    H218061   2.108   0.062   1.163
 6019TIP3   OH218062   3.385   1.302   4.431
 6019TIP3    H118063   3.369   1.313   4.337
 6019TIP3    H218064   3.404   1.390   4.462
 6020TIP3   OH218065   1.749   2.801   4.873
 6020TIP3    H118066   1.689   2.728   4.859
 6020TIP3    H218067   1.749   2.814   4.968
 6021TIP3   OH218068   4.865   0.320   3.730
 6021TIP3    H118069   4.853   0.275   3.646
 6021TIP3    H218070   4.957   0.345   3.731
 6022TIP3   OH218071   4.975   4.406   5.032
 6022TIP3    H118072   4.958   4.424   5.125
 6022TIP3    H218073   5.014   4.486   4.998
 6023TIP3   OH218074   3.168   5.086   1.647
 6023TIP3    H118075   3.087   5.066   1.695
 6023TIP3    H218076   3.144   5.159   1.590
 6024TIP3   OH218077   1.301   3.043   0.675
 6024TIP3    H118078   1.376   2.990   0.649
 6024TIP3    H218079   1.255   3.062   0.594
 6025TIP3   OH218080   0.028   2.712   3.545
 6025TIP3    H118081  -0.040   2.687   3.483
 6025TIP3    H218082   0.083   2.634   3.554
 6026TIP3   OH218083   0.466   0.319   1.045
 6026TIP3    H118084   0.457   0.243   1.102
 6026TIP3    H218085   0.553   0.354   1.065
 6027TIP3   OH218086   2.309   3.319   3.483
 6027TIP3    H118087   2.311   3.223   3.479
 6027TIP3    H218088   2.219   3.339   3.511
 6028TIP3   OH218089   0.457   5.593   1.842
 6028TIP3    H118090   0.553   5.588   1.851
 6028TIP3    H218091   0.443   5.625   1.753
 6029TIP3   OH218092   4.225   0.824   5.083
 6029TIP3    H118093   4.304   0.859   5.124
 6029TIP3    H218094   4.168   0.900   5.074
 6030TIP3   OH218095   5.389   0.320   0.133
 6030TIP3    H118096   5.478   0.335   0.102
 6030TIP3    H218097   5.356   0.249   0.077
 6031TIP3   OH218098   3.859   1.202   0.260
 6031TIP3    H118099   3.806   1.259   0.315
 6031TIP3    H218100   3.798   1.168   0.195
 6032TIP3   OH218101   3.685   1.365   0.383
 6032TIP3    H118102   3.642   1.427   0.441
 6032TIP3    H218103   3.635   1.284   0.391
 6033TIP3   OH218104   3.409   1.222   3.569
 6033TIP3    H118105   3.342   1.286   3.546
 6033TIP3    H218106   3.376   1.139   3.533
 6034TIP3   OH218107   2.943   3.547   3.355
 6034TIP3    H118108   2.966   3.477   3.295
 6034TIP3    H218109   2.849   3.536   3.369
 6035TIP3   OH218110   3.007   3.082   3.462
 6035TIP3    H118111   3.011   3.019   3.534
 6035TIP3    H218112   3.087   3.134   3.471
 6036TIP3   OH218113   3.295   2.489   3.248
 6036TIP3    H118114   3.275   2.555   3.181
 6036TIP3    H218115   3.290   2.405   3.202
 6037TIP3   OH218116   4.440   0.109   3.346
 6037TIP3    H118117   4.526   0.068   3.352
 6037TIP3    H218118   4.451   0.179   3.281
 6038TIP3   OH218119   2.353   5.725   5.071
 6038TIP3    H118120   2.313   5.807   5.099
 6038TIP3    H218121   2.333   5.663   5.141
 6039TIP3   OH218122   4.081   0.462   3.336
 6039TIP3    H118123   4.030   0.388   3.302
 6039TIP3    H218124   4.039   0.482   3.420
 6040TIP3   OH218125   5.664   1.305   1.444
 6040TIP3    H118126   5.709   1.348   1.372
 6040TIP3    H218127   5.655   1.372   1.511
 6041TIP3   OH218128   3.128   1.587   4.233
 6041TIP3    H118129   3.171   1.504   4.213
 6041TIP3    H218130   3.198   1.644   4.265
 6042TIP3   OH218131   0.147   2.892   4.721
 6042TIP3    H118132   0.056   2.912   4.700
 6042TIP3    H218133   0.190   2.977   4.725
 6043TIP3   OH218134   0.793   3.028   3.845
 6043TIP3    H118135   0.833   3.009   3.930
 6043TIP3    H218136   0.840   3.104   3.812
 6044TIP3   OH218137   6.226   2.028   0.817
 6044TIP3    H118138   6.216   2.068   0.731
 6044TIP3    H218139   6.175   2.084   0.876
 6045TIP3   OH218140   2.855   2.724   1.192
 6045TIP3    H118141   2.873   2.784   1.119
 6045TIP3    H218142   2.762   2.705   1.185
 6046TIP3   OH218143   2.822   5.733   3.953
 6046TIP3    H118144   2.746   5.769   3.908
 6046TIP3    H218145   2.873   5.691   3.884
 6047TIP3   OH218146   3.191   2.830   4.580
 6047TIP3    H118147   3.219   2.820   4.671
 6047TIP3    H218148   3.118   2.768   4.571
 6048TIP3   OH218149   1.801   2.808   0.507
 6048TIP3    H118150   1.854   2.735   0.539
 6048TIP3    H218151   1.864   2.873   0.477
 6049TIP3   OH218152   0.563   3.997   3.678
 6049TIP3    H118153   0.637   4.057   3.677
 6049TIP3    H218154   0.512   4.022   3.755
 6050TIP3   OH218155   1.508   1.624   2.470
 6050TIP3    H118156   1.445   1.552   2.472
 6050TIP3    H218157   1.458   1.700   2.502
 6051TIP3   OH218158   4.208   1.932   3.558
 6051TIP3    H118159   4.148   1.871   3.602
 6051TIP3    H218160   4.176   2.019   3.582
 6052TIP3   OH218161   1.755   2.660   3.182
 6052TIP3    H118162   1.820   2.700   3.125
 6052TIP3    H218163   1.784   2.681   3.271
 6053TIP3   OH218164   5.906   3.981   4.980
 6053TIP3    H118165   5.893   3.911   4.916
 6053TIP3    H218166   5.897   4.062   4.930
 6054TIP3   OH218167   1.182   5.448   2.377
 6054TIP3    H118168   1.103   5.485   2.416
 6054TIP3    H218169   1.236   5.523   2.356
 6055TIP3   OH218170   1.796   4.152   0.982
 6055TIP3    H118171   1.851   4.164   1.060
 6055TIP3    H218172   1.803   4.059   0.961
 6056TIP3   OH218173   0.350   3.828   2.883
 6056TIP3    H118174   0.317   3.741   2.861
 6056TIP3    H218175   0.311   3.886   2.817
 6057TIP3   OH218176   3.751   0.940   4.689
 6057TIP3    H118177   3.695   0.990   4.629
 6057TIP3    H218178   3.691   0.905   4.754
 6058TIP3   OH218179   1.688   4.465   4.296
 6058TIP3    H118180   1.710   4.403   4.225
 6058TIP3    H218181   1.743   4.541   4.279
 6059TIP3   OH218182   2.261   3.903   4.306
 6059TIP3    H118183   2.267   3.996   4.328
 6059TIP3    H218184   2.191   3.898   4.241
 6060TIP3   OH218185   2.280   3.028   3.508
 6060TIP3    H118186   2.203   2.973   3.496
 6060TIP3    H218187   2.337   2.976   3.566
 6061TIP3   OH218188   2.843   5.143   0.790
 6061TIP3    H118189   2.819   5.062   0.745
 6061TIP3    H218190   2.765   5.198   0.784
 6062TIP3   OH218191   2.019   4.341   3.048
 6062TIP3    H118192   1.951   4.405   3.028
 6062TIP3    H218193   2.091   4.363   2.988
 6063TIP3   OH218194   2.262   1.975   1.294
 6063TIP3    H118195   2.197   2.024   1.344
 6063TIP3    H218196   2.344   2.022   1.308
 6064TIP3   OH218197   4.027   3.141   3.590
 6064TIP3    H118198   4.079   3.167   3.666
 6064TIP3    H218199   4.053   3.203   3.521
 6065TIP3   OH218200   0.887   0.690   0.043
 6065TIP3    H118201   0.981   0.682   0.056
 6065TIP3    H218202   0.872   0.654  -0.045
 6066TIP3   OH218203   2.934   2.843   2.801
 6066TIP3    H118204   2.972   2.788   2.870
 6066TIP3    H218205   2.978   2.816   2.721
 6067TIP3   OH218206   2.972   1.720   1.200
 6067TIP3    H118207   2.945   1.788   1.262
 6067TIP3    H218208   3.063   1.702   1.222
 6068TIP3   OH218209   3.510   5.086   4.483
 6068TIP3    H118210   3.582   5.076   4.421
 6068TIP3    H218211   3.538   5.038   4.561
 6069TIP3   OH218212   2.855   1.547   4.216
 6069TIP3    H118213   2.819   1.619   4.268
 6069TIP3    H218214   2.949   1.561   4.216
 6070TIP3   OH218215   0.575   2.620   4.412
 6070TIP3    H118216   0.621   2.630   4.329
 6070TIP3    H218217   0.543   2.708   4.432
 6071TIP3   OH218218   2.120   3.469   3.780
 6071TIP3    H118219   2.040   3.472   3.832
 6071TIP3    H218220   2.184   3.518   3.832
 6072TIP3   OH218221   4.987   4.461   0.087
 6072TIP3    H118222   5.029   4.531   0.037
 6072TIP3    H218223   4.981   4.387   0.027
 6073TIP3   OH218224   2.336   3.643   2.899
 6073TIP3    H118225   2.383   3.679   2.974
 6073TIP3    H218226   2.331   3.549   2.918
 6074TIP3   OH218227   2.177   4.151   0.269
 6074TIP3    H118228   2.115   4.091   0.312
 6074TIP3    H218229   2.252   4.154   0.329
 6075TIP3   OH218230   6.344   1.792   0.237
 6075TIP3    H118231   6.352   1.792   0.142
 6075TIP3    H218232   6.284   1.720   0.257
 6076TIP3   OH218233   0.214   0.856   1.651
 6076TIP3    H118234   0.292   0.802   1.655
 6076TIP3    H218235   0.160   0.815   1.583
 6077TIP3   OH218236   3.641   4.839   0.013
 6077TIP3    H118237   3.718   4.857  -0.040
 6077TIP3    H218238   3.676   4.818   0.100
 6078TIP3   OH218239   5.883   1.584   4.970
 6078TIP3    H118240   5.797   1.622   4.988
 6078TIP3    H218241   5.942   1.628   5.031
 6079TIP3   OH218242   3.310   0.551   1.179
 6079TIP3    H118243   3.231   0.508   1.212
 6079TIP3    H218244   3.295   0.561   1.085
 6080TIP3   OH218245   2.842   4.416   2.459
 6080TIP3    H118246   2.754   4.449   2.442
 6080TIP3    H218247   2.858   4.351   2.391
 6081TIP3   OH218248   2.340   3.853   1.169
 6081TIP3    H118249   2.377   3.815   1.090
 6081TIP3    H218250   2.277   3.918   1.137
 6082TIP3   OH218251   1.614   0.927   4.143
 6082TIP3    H118252   1.705   0.951   4.158
 6082TIP3    H218253   1.564   0.990   4.196
 6083TIP3   OH218254   1.217   0.796   2.505
 6083TIP3    H118255   1.284   0.735   2.474
 6083TIP3    H218256   1.143   0.739   2.529
 6084TIP3   OH218257   3.020   4.488   0.775
 6084TIP3    H118258   3.075   4.513   0.850
 6084TIP3    H218259   3.032   4.559   0.712
 6085TIP3   OH218260   1.862   4.479   1.485
 6085TIP3    H118261   1.933   4.523   1.439
 6085TIP3    H218262   1.902   4.401   1.524
 6086TIP3   OH218263   1.835   3.649   4.689
 6086TIP3    H118264   1.874   3.564   4.711
 6086TIP3    H218265   1.904   3.696   4.642
 6087TIP3   OH218266   5.717   0.026   2.052
 6087TIP3    H118267   5.792  -0.022   2.087
 6087TIP3    H218268   5.743   0.118   2.057
 6088TIP3   OH218269   0.851   1.118   2.392
 6088TIP3    H118270   0.918   1.076   2.338
 6088TIP3    H218271   0.889   1.120   2.480
 6089TIP3   OH218272   2.647   2.761   0.915
 6089TIP3    H118273   2.586   2.755   0.842
 6089TIP3    H218274   2.608   2.705   0.983
 6090TIP3   OH218275   1.149   0.701   4.531
 6090TIP3    H118276   1.219   0.636   4.524
 6090TIP3    H218277   1.097   0.691   4.452
 6091TIP3   OH218278   1.723   1.716   1.633
 6091TIP3    H118279   1.670   1.749   1.561
 6091TIP3    H218280   1.694   1.626   1.646
 6092TIP3   OH218281   5.144   5.582   4.101
 6092TIP3    H118282   5.126   5.497   4.061
 6092TIP3    H218283   5.065   5.601   4.153
 6093TIP3   OH218284   2.281   0.336   1.275
 6093TIP3    H118285   2.205   0.282   1.255
 6093TIP3    H218286   2.344   0.275   1.313
 6094TIP3   OH218287   4.678   1.057   2.079
 6094TIP3    H118288   4.641   0.971   2.061
 6094TIP3    H218289   4.668   1.068   2.174
 6095TIP3   OH218290   1.460   1.437   2.771
 6095TIP3    H118291   1.548   1.456   2.739
 6095TIP3    H218292   1.402   1.486   2.714
 6096TIP3   OH218293   4.995   2.044   1.580
 6096TIP3    H118294   5.084   2.061   1.612
 6096TIP3    H218295   5.007   2.014   1.490
 6097TIP3   OH218296   4.291   0.671   4.843
 6097TIP3    H118297   4.319   0.751   4.800
 6097TIP3    H218298   4.241   0.700   4.919
 6098TIP3   OH218299   5.355   4.766   1.838
 6098TIP3    H118300   5.427   4.715   1.802
 6098TIP3    H218301   5.358   4.849   1.790
 6099TIP3   OH218302   1.217   3.651   4.102
 6099TIP3    H118303   1.240   3.732   4.057
 6099TIP3    H218304   1.290   3.592   4.083
 6100TIP3   OH218305   1.373   5.430   2.644
 6100TIP3    H118306   1.309   5.368   2.609
 6100TIP3    H218307   1.427   5.377   2.703
 6101TIP3   OH218308   0.435   4.767   3.847
 6101TIP3    H118309   0.500   4.824   3.806
 6101TIP3    H218310   0.408   4.813   3.926
 6102TIP3   OH218311   3.283   3.770   3.104
 6102TIP3    H118312   3.369   3.730   3.092
 6102TIP3    H218313   3.227   3.700   3.138
 6103TIP3   OH218314   3.125   0.798   3.923
 6103TIP3    H118315   3.062   0.829   3.857
 6103TIP3    H218316   3.207   0.789   3.874
 6104TIP3   OH218317   4.959   4.298   4.011
 6104TIP3    H118318   4.881   4.252   4.041
 6104TIP3    H218319   5.014   4.306   4.088
 6105TIP3   OH218320   5.925   0.627   4.567
 6105TIP3    H118321   5.853   0.588   4.518
 6105TIP3    H218322   5.897   0.621   4.659
 6106TIP3   OH218323   0.890   2.745   3.958
 6106TIP3    H118324   0.942   2.687   3.903
 6106TIP3    H218325   0.954   2.787   4.016
 6107TIP3   OH218326   4.022   0.503   2.148
 6107TIP3    H118327   3.978   0.418   2.154
 6107TIP3    H218328   4.025   0.522   2.054
 6108TIP3   OH218329   4.063   4.788   0.097
 6108TIP3    H118330   4.117   4.731   0.152
 6108TIP3    H218331   4.023   4.849   0.158
 6109TIP3   OH218332   0.466   5.247   0.367
 6109TIP3    H118333   0.379   5.282   0.350
 6109TIP3    H218334   0.460   5.207   0.453
 6110TIP3   OH218335   1.210   5.170   4.344
 6110TIP3    H118336   1.163   5.203   4.420
 6110TIP3    H218337   1.292   5.135   4.378
 6111TIP3   OH218338   3.982   5.207   3.769
 6111TIP3    H118339   4.059   5.255   3.739
 6111TIP3    H218340   3.974   5.232   3.861
 6112TIP3   OH218341   3.570   5.535   4.006
 6112TIP3    H118342   3.495   5.593   4.018
 6112TIP3    H218343   3.536   5.447   4.020
 6113TIP3   OH218344   4.082   5.570   3.464
 6113TIP3    H118345   4.003   5.541   3.510
 6113TIP3    H218346   4.104   5.497   3.406
 6114TIP3   OH218347   5.670   0.848   3.844
 6114TIP3    H118348   5.614   0.809   3.778
 6114TIP3    H218349   5.612   0.867   3.918
 6115TIP3   OH218350   5.926   4.950   4.561
 6115TIP3    H118351   5.946   5.044   4.559
 6115TIP3    H218352   5.830   4.946   4.559
 6116TIP3   OH218353   3.740   1.587   5.056
 6116TIP3    H118354   3.646   1.606   5.049
 6116TIP3    H218355   3.747   1.530   5.133
 6117TIP3   OH218356   0.358   1.986   2.144
 6117TIP3    H118357   0.336   2.079   2.140
 6117TIP3    H218358   0.370   1.960   2.052
 6118TIP3   OH218359   3.185   5.835   4.284
 6118TIP3    H118360   3.141   5.914   4.252
 6118TIP3    H218361   3.192   5.848   4.379
 6119TIP3   OH218362   4.055   2.238   4.361
 6119TIP3    H118363   4.033   2.155   4.402
 6119TIP3    H218364   4.084   2.294   4.433
 6120TIP3   OH218365   2.885   5.615   3.720
 6120TIP3    H118366   2.826   5.543   3.745
 6120TIP3    H218367   2.843   5.655   3.644
 6121TIP3   OH218368   4.877   0.836   1.903
 6121TIP3    H118369   4.846   0.909   1.956
 6121TIP3    H218370   4.964   0.862   1.874
 6122TIP3   OH218371   6.263   3.199   2.815
 6122TIP3    H118372   6.311   3.186   2.897
 6122TIP3    H218373   6.257   3.111   2.776
 6123TIP3   OH218374   1.470   0.378   3.006
 6123TIP3    H118375   1.397   0.437   3.027
 6123TIP3    H218376   1.538   0.436   2.971
 6124TIP3   OH218377   5.078   4.950   4.983
 6124TIP3    H118378   5.061   5.044   4.976
 6124TIP3    H218379   5.098   4.936   5.075
 6125TIP3   OH218380   1.414   4.723   0.867
 6125TIP3    H118381   1.439   4.638   0.903
 6125TIP3    H218382   1.481   4.742   0.802
 6126TIP3   OH218383   5.485   0.780   4.726
 6126TIP3    H118384   5.468   0.688   4.706
 6126TIP3    H218385   5.404   0.812   4.766
 6127TIP3   OH218386   4.295   1.281   3.960
 6127TIP3    H118387   4.221   1.260   4.017
 6127TIP3    H218388   4.341   1.352   4.006
 6128TIP3   OH218389   1.924   3.978   3.759
 6128TIP3    H118390   1.899   3.889   3.733
 6128TIP3    H218391   1.882   3.990   3.844
 6129TIP3   OH218392   5.817   3.148   4.218
 6129TIP3    H118393   5.801   3.215   4.152
 6129TIP3    H218394   5.857   3.076   4.169
 6130TIP3   OH218395   0.308   4.465   4.310
 6130TIP3    H118396   0.272   4.553   4.313
 6130TIP3    H218397   0.235   4.408   4.334
 6131TIP3   OH218398   6.174   3.909   2.339
 6131TIP3    H118399   6.136   3.991   2.309
 6131TIP3    H218400   6.232   3.882   2.268
 6132TIP3   OH218401   6.271   0.482   1.969
 6132TIP3    H118402   6.217   0.560   1.983
 6132TIP3    H218403   6.295   0.487   1.876
 6133TIP3   OH218404   4.849   5.753   1.123
 6133TIP3    H118405   4.805   5.679   1.164
 6133TIP3    H218406   4.833   5.742   1.029
 6134TIP3   OH218407   5.095   1.628   3.897
 6134TIP3    H118408   5.011   1.591   3.871
 6134TIP3    H218409   5.106   1.601   3.988
 6135TIP3   OH218410   2.093   3.555   0.554
 6135TIP3    H118411   2.051   3.544   0.639
 6135TIP3    H218412   2.185   3.571   0.573
 6136TIP3   OH218413   4.991   0.123   3.264
 6136TIP3    H118414   4.944   0.137   3.182
 6136TIP3    H218415   5.081   0.146   3.245
 6137TIP3   OH218416   3.672   0.684   0.735
 6137TIP3    H118417   3.656   0.770   0.773
 6137TIP3    H218418   3.767   0.671   0.743
 6138TIP3   OH218419   3.541   2.944   4.312
 6138TIP3    H118420   3.572   2.987   4.233
 6138TIP3    H218421   3.506   3.015   4.366
 6139TIP3   OH218422   2.024   3.800   0.053
 6139TIP3    H118423   2.024   3.890   0.086
 6139TIP3    H218424   2.000   3.746   0.128
 6140TIP3   OH218425   4.697   0.981   3.475
 6140TIP3    H118426   4.677   0.887   3.470
 6140TIP3    H218427   4.631   1.016   3.535
 6141TIP3   OH218428   5.431   1.044   2.698
 6141TIP3    H118429   5.490   0.979   2.737
 6141TIP3    H218430   5.479   1.075   2.621
 6142TIP3   OH218431   0.357   4.818   3.075
 6142TIP3    H118432   0.352   4.736   3.026
 6142TIP3    H218433   0.386   4.792   3.163
 6143TIP3   OH218434   6.261   0.643  -0.010
 6143TIP3    H118435   6.346   0.600  -0.015
 6143TIP3    H218436   6.281   0.735   0.004
 6144TIP3   OH218437   4.695   1.768   3.810
 6144TIP3    H118438   4.723   1.693   3.862
 6144TIP3    H218439   4.775   1.799   3.768
 6145TIP3   OH218440   4.455   3.141   2.503
 6145TIP3    H118441   4.360   3.145   2.516
 6145TIP3    H218442   4.490   3.192   2.576
 6146TIP3   OH218443   1.977   4.395   4.954
 6146TIP3    H118444   1.938   4.308   4.942
 6146TIP3    H218445   1.902   4.454   4.951
 6147TIP3   OH218446   5.516   1.231   4.922
 6147TIP3    H118447   5.482   1.142   4.920
 6147TIP3    H218448   5.518   1.254   5.015
 6148TIP3   OH218449   5.268   1.769   0.343
 6148TIP3    H118450   5.336   1.704   0.362
 6148TIP3    H218451   5.252   1.812   0.427
 6149TIP3   OH218452   2.300   3.745   0.324
 6149TIP3    H118453   2.213   3.757   0.287
 6149TIP3    H218454   2.291   3.668   0.381
 6150TIP3   OH218455   0.802   4.860   3.025
 6150TIP3    H118456   0.774   4.770   3.007
 6150TIP3    H218457   0.896   4.852   3.043
 6151TIP3   OH218458   0.869   2.486   2.055
 6151TIP3    H118459   0.868   2.434   1.975
 6151TIP3    H218460   0.868   2.421   2.126
 6152TIP3   OH218461   1.499   1.065   4.667
 6152TIP3    H118462   1.473   1.127   4.600
 6152TIP3    H218463   1.475   0.979   4.631
 6153TIP3   OH218464   4.919   5.121   1.657
 6153TIP3    H118465   4.964   5.205   1.671
 6153TIP3    H218466   4.989   5.055   1.664
 6154TIP3   OH218467   1.534   2.748   2.628
 6154TIP3    H118468   1.497   2.660   2.619
 6154TIP3    H218469   1.613   2.747   2.575
 6155TIP3   OH218470   4.189   3.908   1.621
 6155TIP3    H118471   4.104   3.875   1.651
 6155TIP3    H218472   4.229   3.948   1.698
 6156TIP3   OH218473   5.695   3.475   4.947
 6156TIP3    H118474   5.683   3.457   4.854
 6156TIP3    H218475   5.633   3.546   4.966
 6157TIP3   OH218476   5.768   3.049   4.503
 6157TIP3    H118477   5.682   3.025   4.537
 6157TIP3    H218478   5.755   3.058   4.408
 6158TIP3   OH218479   3.172   1.175   1.718
 6158TIP3    H118480   3.223   1.256   1.708
 6158TIP3    H218481   3.237   1.105   1.711
 6159TIP3   OH218482   4.489   1.773   4.059
 6159TIP3    H118483   4.577   1.748   4.088
 6159TIP3    H218484   4.481   1.865   4.082
 6160TIP3   OH218485   2.858   0.426   2.073
 6160TIP3    H118486   2.849   0.441   1.979
 6160TIP3    H218487   2.836   0.510   2.113
 6161TIP3   OH218488   3.548   0.811   4.426
 6161TIP3    H118489   3.504   0.785   4.345
 6161TIP3    H218490   3.507   0.894   4.451
 6162TIP3   OH218491   1.561   4.721   4.534
 6162TIP3    H118492   1.503   4.728   4.458
 6162TIP3    H218493   1.649   4.733   4.499
 6163TIP3   OH218494   2.191   5.093   5.151
 6163TIP3    H118495   2.259   5.078   5.085
 6163TIP3    H218496   2.111   5.109   5.100
 6164TIP3   OH218497   1.774   5.711   3.216
 6164TIP3    H118498   1.798   5.804   3.219
 6164TIP3    H218499   1.825   5.675   3.143
 6165TIP3   OH218500   4.603   3.753   0.326
 6165TIP3    H118501   4.600   3.663   0.360
 6165TIP3    H218502   4.643   3.804   0.396
 6166TIP3   OH218503   2.924   4.445   0.212
 6166TIP3    H118504   2.940   4.380   0.144
 6166TIP3    H218505   2.947   4.400   0.294
 6167TIP3   OH218506   1.632   5.523   1.465
 6167TIP3    H118507   1.598   5.554   1.382
 6167TIP3    H218508   1.581   5.443   1.484
 6168TIP3   OH218509   2.979   4.134   0.197
 6168TIP3    H118510   2.982   4.134   0.101
 6168TIP3    H218511   2.903   4.081   0.219
 6169TIP3   OH218512   3.829   3.799   4.855
 6169TIP3    H118513   3.873   3.736   4.912
 6169TIP3    H218514   3.747   3.819   4.901
 6170TIP3   OH218515   2.088   3.169   3.235
 6170TIP3    H118516   2.149   3.102   3.266
 6170TIP3    H218517   2.133   3.252   3.251
 6171TIP3   OH218518   2.021   0.508   3.701
 6171TIP3    H118519   1.945   0.562   3.724
 6171TIP3    H218520   1.984   0.421   3.684
 6172TIP3   OH218521   4.395   0.095   4.738
 6172TIP3    H118522   4.447   0.020   4.767
 6172TIP3    H218523   4.313   0.088   4.787
 6173TIP3   OH218524   5.490   0.971   1.599
 6173TIP3    H118525   5.570   0.958   1.549
 6173TIP3    H218526   5.458   1.057   1.573
 6174TIP3   OH218527   3.853   3.027   0.700
 6174TIP3    H118528   3.854   2.986   0.613
 6174TIP3    H218529   3.945   3.041   0.721
 6175TIP3   OH218530   4.340   2.216   3.118
 6175TIP3    H118531   4.385   2.284   3.169
 6175TIP3    H218532   4.326   2.145   3.180
 6176TIP3   OH218533   1.053   3.848   4.940
 6176TIP3    H118534   1.122   3.875   4.880
 6176TIP3    H218535   1.051   3.916   5.007
 6177TIP3   OH218536   5.006   0.584   1.720
 6177TIP3    H118537   5.004   0.598   1.814
 6177TIP3    H218538   4.915   0.591   1.692
 6178TIP3   OH218539   5.239   0.256   2.768
 6178TIP3    H118540   5.223   0.184   2.707
 6178TIP3    H218541   5.277   0.213   2.845
 6179TIP3   OH218542   3.417   3.412   1.985
 6179TIP3    H118543   3.419   3.420   1.890
 6179TIP3    H218544   3.339   3.360   2.004
 6180TIP3   OH218545   0.737   2.341   3.030
 6180TIP3    H118546   0.698   2.398   3.097
 6180TIP3    H218547   0.795   2.283   3.078
 6181TIP3   OH218548   5.957   3.232   1.923
 6181TIP3    H118549   5.900   3.308   1.936
 6181TIP3    H218550   6.044   3.264   1.943
 6182TIP3   OH218551   2.052   0.192  -0.015
 6182TIP3    H118552   2.038   0.137   0.062
 6182TIP3    H218553   2.019   0.278   0.011
 6183TIP3   OH218554   3.266   2.926   2.068
 6183TIP3    H118555   3.297   2.991   2.005
 6183TIP3    H218556   3.305   2.953   2.151
 6184TIP3   OH218557   6.264   3.012   5.191
 6184TIP3    H118558   6.297   3.102   5.195
 6184TIP3    H218559   6.197   3.014   5.123
 6185TIP3   OH218560   3.645   1.586   0.524
 6185TIP3    H118561   3.573   1.645   0.547
 6185TIP3    H218562   3.685   1.564   0.608
 6186TIP3   OH218563   1.882   0.435   0.033
 6186TIP3    H118564   1.800   0.386   0.025
 6186TIP3    H218565   1.877   0.501  -0.035
 6187TIP3   OH218566   3.603   2.689   0.981
 6187TIP3    H118567   3.686   2.718   1.018
 6187TIP3    H218568   3.537   2.744   1.023
 6188TIP3   OH218569   5.284   1.705   3.333
 6188TIP3    H118570   5.370   1.663   3.339
 6188TIP3    H218571   5.249   1.701   3.421
 6189TIP3   OH218572   1.010   2.704   1.892
 6189TIP3    H118573   0.985   2.645   1.821
 6189TIP3    H218574   1.087   2.750   1.860
 6190TIP3   OH218575   3.597   5.510   1.665
 6190TIP3    H118576   3.609   5.480   1.755
 6190TIP3    H218577   3.658   5.457   1.614
 6191TIP3   OH218578   3.090   3.654   0.663
 6191TIP3    H118579   3.088   3.741   0.623
 6191TIP3    H218580   3.127   3.669   0.751
 6192TIP3   OH218581   0.746   4.545   4.977
 6192TIP3    H118582   0.708   4.463   5.010
 6192TIP3    H218583   0.673   4.606   4.973
 6193TIP3   OH218584   3.520   4.396   3.937
 6193TIP3    H118585   3.575   4.444   3.874
 6193TIP3    H218586   3.538   4.304   3.920
 6194TIP3   OH218587   0.191   5.269   2.860
 6194TIP3    H118588   0.249   5.253   2.785
 6194TIP3    H218589   0.175   5.182   2.896
 6195TIP3   OH218590   0.557   3.107   0.379
 6195TIP3    H118591   0.561   3.029   0.433
 6195TIP3    H218592   0.588   3.177   0.436
 6196TIP3   OH218593   0.756   3.205   1.034
 6196TIP3    H118594   0.837   3.243   1.067
 6196TIP3    H218595   0.783   3.125   0.988
 6197TIP3   OH218596   0.977   2.989   0.154
 6197TIP3    H118597   0.890   3.021   0.180
 6197TIP3    H218598   0.973   2.981   0.059
 6198TIP3   OH218599   3.685   5.150   2.448
 6198TIP3    H118600   3.705   5.105   2.530
 6198TIP3    H218601   3.770   5.182   2.417
 6199TIP3   OH218602   2.049   1.443   0.879
 6199TIP3    H118603   2.097   1.491   0.946
 6199TIP3    H218604   2.099   1.458   0.799
 6200TIP3   OH218605   5.235   4.838   1.075
 6200TIP3    H118606   5.195   4.752   1.086
 6200TIP3    H218607   5.163   4.894   1.044
 6201TIP3   OH218608   1.612   4.368   3.362
 6201TIP3    H118609   1.591   4.343   3.452
 6201TIP3    H218610   1.526   4.371   3.318
 6202TIP3   OH218611   4.116   0.773   1.281
 6202TIP3    H118612   4.076   0.850   1.241
 6202TIP3    H218613   4.077   0.767   1.368
 6203TIP3   OH218614   6.023   2.850   4.793
 6203TIP3    H118615   6.046   2.778   4.852
 6203TIP3    H218616   5.943   2.821   4.749
 6204TIP3   OH218617   3.359   5.919   1.964
 6204TIP3    H118618   3.438   5.959   2.001
 6204TIP3    H218619   3.392   5.854   1.903
 6205TIP3   OH218620   0.406   5.091   3.629
 6205TIP3    H118621   0.389   5.163   3.568
 6205TIP3    H218622   0.495   5.063   3.609
 6206TIP3   OH218623   5.346   5.301   2.014
 6206TIP3    H118624   5.391   5.291   2.098
 6206TIP3    H218625   5.406   5.353   1.960
 6207TIP3   OH218626   2.534   4.640   1.155
 6207TIP3    H118627   2.611   4.590   1.181
 6207TIP3    H218628   2.471   4.575   1.124
 6208TIP3   OH218629   1.372   5.691   2.538
 6208TIP3    H118630   1.423   5.667   2.460
 6208TIP3    H218631   1.392   5.623   2.602
 6209TIP3   OH218632   3.057   4.094   2.246
 6209TIP3    H118633   3.024   4.046   2.322
 6209TIP3    H218634   3.000   4.171   2.239
 6210TIP3   OH218635   6.082   0.142   2.268
 6210TIP3    H118636   6.145   0.166   2.201
 6210TIP3    H218637   6.093   0.047   2.279
 6211TIP3   OH218638   4.441   2.720   0.922
 6211TIP3    H118639   4.432   2.813   0.902
 6211TIP3    H218640   4.466   2.679   0.839
 6212TIP3   OH218641   3.786   5.307   0.728
 6212TIP3    H118642   3.738   5.225   0.736
 6212TIP3    H218643   3.726   5.367   0.685
 6213TIP3   OH218644   5.899   3.288   4.918
 6213TIP3    H118645   5.951   3.311   4.995
 6213TIP3    H218646   5.819   3.339   4.928
 6214TIP3   OH218647   1.966   5.969   4.007
 6214TIP3    H118648   2.022   5.958   4.083
 6214TIP3    H218649   1.885   6.008   4.042
 6215TIP3   OH218650   5.490   4.978   2.985
 6215TIP3    H118651   5.463   4.956   3.074
 6215TIP3    H218652   5.566   5.034   2.996
 6216TIP3   OH218653   0.663   5.527   3.068
 6216TIP3    H118654   0.716   5.604   3.045
 6216TIP3    H218655   0.718   5.478   3.130
 6217TIP3   OH218656   1.765   5.669   4.941
 6217TIP3    H118657   1.786   5.686   5.033
 6217TIP3    H218658   1.695   5.730   4.920
 6218TIP3   OH218659   4.108   4.677   4.494
 6218TIP3    H118660   4.184   4.652   4.441
 6218TIP3    H218661   4.036   4.682   4.431
 6219TIP3   OH218662   1.059   0.919   0.322
 6219TIP3    H118663   1.058   0.911   0.227
 6219TIP3    H218664   1.152   0.920   0.346
 6220TIP3   OH218665   0.537   5.470   2.789
 6220TIP3    H118666   0.570   5.402   2.848
 6220TIP3    H218667   0.506   5.540   2.847
 6221TIP3   OH218668   1.128   3.393   1.553
 6221TIP3    H118669   1.061   3.438   1.501
 6221TIP3    H218670   1.088   3.309   1.575
 6222TIP3   OH218671   3.429   3.697   0.231
 6222TIP3    H118672   3.429   3.712   0.136
 6222TIP3    H218673   3.490   3.763   0.265
 6223TIP3   OH218674   5.924   4.983   3.247
 6223TIP3    H118675   5.830   4.968   3.256
 6223TIP3    H218676   5.962   4.937   3.321
 6224TIP3   OH218677   1.672   3.338   5.150
 6224TIP3    H118678   1.684   3.313   5.059
 6224TIP3    H218679   1.745   3.296   5.196
 6225TIP3   OH218680   5.013   1.258   4.840
 6225TIP3    H118681   5.049   1.345   4.822
 6225TIP3    H218682   4.944   1.274   4.905
 6226TIP3   OH218683   3.602   3.155   1.833
 6226TIP3    H118684   3.650   3.115   1.906
 6226TIP3    H218685   3.521   3.105   1.828
 6227TIP3   OH218686   2.544   3.379   4.062
 6227TIP3    H118687   2.455   3.391   4.096
 6227TIP3    H218688   2.534   3.382   3.967
 6228TIP3   OH218689   0.485   1.367   1.798
 6228TIP3    H118690   0.568   1.361   1.847
 6228TIP3    H218691   0.509   1.412   1.717
 6229TIP3   OH218692   5.202   1.129   3.516
 6229TIP3    H118693   5.140   1.057   3.501
 6229TIP3    H218694   5.283   1.086   3.542
 6230TIP3   OH218695   5.479   3.684   2.263
 6230TIP3    H118696   5.388   3.711   2.266
 6230TIP3    H218697   5.495   3.662   2.171
 6231TIP3   OH218698   0.471   1.691   2.069
 6231TIP3    H118699   0.527   1.616   2.088
 6231TIP3    H218700   0.384   1.654   2.057
 6232TIP3   OH218701   1.391   3.517   4.508
 6232TIP3    H118702   1.341   3.578   4.454
 6232TIP3    H218703   1.328   3.483   4.571
 6233TIP3   OH218704   1.008   4.636   2.867
 6233TIP3    H118705   1.060   4.713   2.891
 6233TIP3    H218706   1.028   4.571   2.934
 6234TIP3   OH218707   3.386   4.142   3.458
 6234TIP3    H118708   3.412   4.200   3.529
 6234TIP3    H218709   3.452   4.156   3.390
 6235TIP3   OH218710   2.427   3.956   3.642
 6235TIP3    H118711   2.483   3.891   3.685
 6235TIP3    H218712   2.338   3.927   3.662
 6236TIP3   OH218713   5.078   1.942   1.306
 6236TIP3    H118714   5.024   1.863   1.301
 6236TIP3    H218715   5.065   1.985   1.221
 6237TIP3   OH218716   1.545   2.417   4.269
 6237TIP3    H118717   1.581   2.359   4.336
 6237TIP3    H218718   1.564   2.373   4.186
 6238TIP3   OH218719   5.008   4.164   0.881
 6238TIP3    H118720   5.068   4.129   0.946
 6238TIP3    H218721   5.041   4.131   0.797
 6239TIP3   OH218722   1.368   2.274   0.665
 6239TIP3    H118723   1.435   2.247   0.602
 6239TIP3    H218724   1.359   2.368   0.651
 6240TIP3   OH218725   4.157   3.567   0.897
 6240TIP3    H118726   4.086   3.615   0.854
 6240TIP3    H218727   4.167   3.487   0.845
 6241TIP3   OH218728   1.175   0.019   5.056
 6241TIP3    H118729   1.108   0.080   5.088
 6241TIP3    H218730   1.172  -0.055   5.117
 6242TIP3   OH218731   1.050   4.266   2.791
 6242TIP3    H118732   0.958   4.259   2.766
 6242TIP3    H218733   1.050   4.266   2.887
 6243TIP3   OH218734   4.636   2.286   2.205
 6243TIP3    H118735   4.712   2.236   2.176
 6243TIP3    H218736   4.633   2.273   2.299
 6244TIP3   OH218737   4.092   1.944   2.316
 6244TIP3    H118738   4.100   1.938   2.411
 6244TIP3    H218739   4.051   1.861   2.291
 6245TIP3   OH218740   3.465   4.323   2.252
 6245TIP3    H118741   3.412   4.248   2.225
 6245TIP3    H218742   3.550   4.286   2.276
 6246TIP3   OH218743   4.202   0.089   1.588
 6246TIP3    H118744   4.209   0.177   1.626
 6246TIP3    H218745   4.178   0.105   1.496
 6247TIP3   OH218746   1.203   2.466   1.029
 6247TIP3    H118747   1.117   2.438   0.998
 6247TIP3    H218748   1.262   2.394   1.004
 6248TIP3   OH218749   3.253   2.364   1.812
 6248TIP3    H118750   3.189   2.392   1.747
 6248TIP3    H218751   3.244   2.427   1.883
 6249TIP3   OH218752  -0.065   4.357   3.792
 6249TIP3    H118753  -0.091   4.272   3.827
 6249TIP3    H218754   0.030   4.349   3.778
 6250TIP3   OH218755   1.439   1.452   1.028
 6250TIP3    H118756   1.405   1.391   0.962
 6250TIP3    H218757   1.488   1.396   1.089
 6251TIP3   OH218758   2.007   4.356   4.169
 6251TIP3    H118759   1.963   4.317   4.094
 6251TIP3    H218760   2.000   4.290   4.238
 6252TIP3   OH218761   3.015   0.332   4.839
 6252TIP3    H118762   3.083   0.356   4.776
 6252TIP3    H218763   2.936   0.376   4.807
 6253TIP3   OH218764   5.239   2.327   0.497
 6253TIP3    H118765   5.145   2.307   0.489
 6253TIP3    H218766   5.252   2.404   0.443
 6254TIP3   OH218767   3.271   3.716   3.939
 6254TIP3    H118768   3.183   3.717   3.977
 6254TIP3    H218769   3.292   3.623   3.930
 6255TIP3   OH218770   4.410   5.383   2.657
 6255TIP3    H118771   4.413   5.417   2.567
 6255TIP3    H218772   4.441   5.293   2.650
 6256TIP3   OH218773   6.047   1.133   3.984
 6256TIP3    H118774   6.002   1.126   3.899
 6256TIP3    H218775   6.006   1.065   4.038
 6257TIP3   OH218776   5.006   0.624   2.498
 6257TIP3    H118777   4.972   0.558   2.438
 6257TIP3    H218778   4.939   0.692   2.499
 6258TIP3   OH218779   6.289   2.699   4.553
 6258TIP3    H118780   6.209   2.728   4.597
 6258TIP3    H218781   6.261   2.630   4.494
 6259TIP3   OH218782   5.945   4.974   0.070
 6259TIP3    H118783   5.898   5.055   0.091
 6259TIP3    H218784   6.038   4.998   0.075
 6260TIP3   OH218785   4.675   3.691   1.830
 6260TIP3    H118786   4.654   3.617   1.773
 6260TIP3    H218787   4.660   3.768   1.775
 6261TIP3   OH218788   2.070   5.615   2.716
 6261TIP3    H118789   2.119   5.677   2.769
 6261TIP3    H218790   2.104   5.529   2.741
 6262TIP3   OH218791   2.633   4.236   0.086
 6262TIP3    H118792   2.597   4.185   0.014
 6262TIP3    H218793   2.596   4.324   0.075
 6263TIP3   OH218794   3.784   2.035   0.416
 6263TIP3    H118795   3.806   1.947   0.445
 6263TIP3    H218796   3.868   2.080   0.408
 6264TIP3   OH218797   3.429   1.251   3.296
 6264TIP3    H118798   3.509   1.271   3.344
 6264TIP3    H218799   3.418   1.324   3.236
 6265TIP3   OH218800   1.174   3.258   3.792
 6265TIP3    H118801   1.166   3.282   3.884
 6265TIP3    H218802   1.084   3.235   3.765
 6266TIP3   OH218803   5.370   3.361  -0.010
 6266TIP3    H118804   5.283   3.326   0.011
 6266TIP3    H218805   5.371   3.448   0.030
 6267TIP3   OH218806   3.881   3.755   3.801
 6267TIP3    H118807   3.854   3.828   3.856
 6267TIP3    H218808   3.843   3.773   3.715
 6268TIP3   OH218809   1.228   5.840   3.784
 6268TIP3    H118810   1.314   5.797   3.782
 6268TIP3    H218811   1.214   5.861   3.877
 6269TIP3   OH218812   5.622   4.617   0.034
 6269TIP3    H118813   5.545   4.629   0.090
 6269TIP3    H218814   5.693   4.659   0.082
 6270TIP3   OH218815   2.159   3.560   2.151
 6270TIP3    H118816   2.236   3.617   2.153
 6270TIP3    H218817   2.085   3.620   2.139
 6271TIP3   OH218818   2.322   5.643   1.007
 6271TIP3    H118819   2.392   5.673   0.948
 6271TIP3    H218820   2.286   5.724   1.044
 6272TIP3   OH218821   2.781   4.573   3.097
 6272TIP3    H118822   2.843   4.568   3.024
 6272TIP3    H218823   2.756   4.665   3.100
 6273TIP3   OH218824   4.354   2.148   2.191
 6273TIP3    H118825   4.415   2.208   2.149
 6273TIP3    H218826   4.281   2.204   2.219
 6274TIP3   OH218827   2.513   2.426   0.781
 6274TIP3    H118828   2.514   2.488   0.709
 6274TIP3    H218829   2.421   2.407   0.795
 6275TIP3   OH218830   0.559   2.682   1.543
 6275TIP3    H118831   0.645   2.723   1.531
 6275TIP3    H218832   0.547   2.680   1.638
 6276TIP3   OH218833   0.960   5.121   4.231
 6276TIP3    H118834   0.899   5.192   4.213
 6276TIP3    H218835   1.037   5.164   4.270
 6277TIP3   OH218836   0.874   5.478   4.507
 6277TIP3    H118837   0.815   5.508   4.438
 6277TIP3    H218838   0.818   5.473   4.585
 6278TIP3   OH218839   2.985   2.063   3.661
 6278TIP3    H118840   2.913   2.105   3.613
 6278TIP3    H218841   3.013   1.992   3.604
 6279TIP3   OH218842   2.751   1.259   2.438
 6279TIP3    H118843   2.703   1.305   2.508
 6279TIP3    H218844   2.787   1.181   2.481
 6280TIP3   OH218845   4.919   4.500   4.695
 6280TIP3    H118846   5.000   4.536   4.731
 6280TIP3    H218847   4.869   4.577   4.666
 6281TIP3   OH218848   2.427   5.763   4.551
 6281TIP3    H118849   2.461   5.707   4.481
 6281TIP3    H218850   2.478   5.738   4.628
 6282TIP3   OH218851   5.060   0.129   1.587
 6282TIP3    H118852   5.142   0.142   1.634
 6282TIP3    H218853   5.066   0.039   1.554
 6283TIP3   OH218854   3.931   1.035   1.656
 6283TIP3    H118855   3.890   1.119   1.632
 6283TIP3    H218856   3.993   1.057   1.725
 6284TIP3   OH218857   3.701   3.196   0.380
 6284TIP3    H118858   3.751   3.149   0.313
 6284TIP3    H218859   3.749   3.181   0.461
 6285TIP3   OH218860   6.155   0.170   2.972
 6285TIP3    H118861   6.182   0.229   3.042
 6285TIP3    H218862   6.238   0.139   2.934
 6286TIP3   OH218863   3.817   2.356   2.622
 6286TIP3    H118864   3.734   2.403   2.608
 6286TIP3    H218865   3.802   2.305   2.702
 6287TIP3   OH218866   6.159   4.585   3.872
 6287TIP3    H118867   6.198   4.500   3.855
 6287TIP3    H218868   6.196   4.643   3.806
 6288TIP3   OH218869   5.243   2.126   1.594
 6288TIP3    H118870   5.248   2.170   1.509
 6288TIP3    H218871   5.213   2.194   1.655
 6289TIP3   OH218872   0.565   5.967   3.800
 6289TIP3    H118873   0.487   6.020   3.783
 6289TIP3    H218874   0.570   5.907   3.726
 6290TIP3   OH218875   2.647   1.181   1.007
 6290TIP3    H118876   2.670   1.251   0.946
 6290TIP3    H218877   2.714   1.185   1.075
 6291TIP3   OH218878   0.118   4.638   2.915
 6291TIP3    H118879   0.172   4.624   2.837
 6291TIP3    H218880   0.165   4.591   2.985
 6292TIP3   OH218881   3.350   1.406   1.688
 6292TIP3    H118882   3.423   1.412   1.750
 6292TIP3    H218883   3.310   1.493   1.690
 6293TIP3   OH218884   3.583   2.989   4.796
 6293TIP3    H118885   3.554   3.036   4.718
 6293TIP3    H218886   3.571   2.897   4.774
 6294TIP3   OH218887   4.268   0.378   1.141
 6294TIP3    H118888   4.266   0.356   1.234
 6294TIP3    H218889   4.298   0.469   1.138
 6295TIP3   OH218890   2.990   2.997   2.307
 6295TIP3    H118891   3.011   2.906   2.286
 6295TIP3    H218892   2.994   3.042   2.223
 6296TIP3   OH218893   1.246   5.998   1.212
 6296TIP3    H118894   1.337   5.998   1.242
 6296TIP3    H218895   1.235   5.915   1.165
 6297TIP3   OH218896   4.457   0.864   4.478
 6297TIP3    H118897   4.496   0.799   4.419
 6297TIP3    H218898   4.510   0.942   4.467
 6298TIP3   OH218899   1.635   3.302   4.118
 6298TIP3    H118900   1.613   3.232   4.057
 6298TIP3    H218901   1.663   3.375   4.063
 6299TIP3   OH218902   6.323   1.818   3.119
 6299TIP3    H118903   6.392   1.809   3.053
 6299TIP3    H218904   6.251   1.764   3.085
 6300TIP3   OH218905   1.015   0.432   4.640
 6300TIP3    H118906   0.977   0.451   4.554
 6300TIP3    H218907   0.944   0.391   4.689
 6301TIP3   OH218908   1.991   5.757   4.518
 6301TIP3    H118909   1.929   5.808   4.465
 6301TIP3    H218910   2.033   5.698   4.456
 6302TIP3   OH218911   2.248   1.749   4.693
 6302TIP3    H118912   2.273   1.697   4.617
 6302TIP3    H218913   2.255   1.689   4.767
 6303TIP3   OH218914   4.686   1.704   0.909
 6303TIP3    H118915   4.701   1.613   0.884
 6303TIP3    H218916   4.594   1.706   0.938
 6304TIP3   OH218917   3.306   0.638   2.791
 6304TIP3    H118918   3.221   0.597   2.775
 6304TIP3    H218919   3.288   0.732   2.790
 6305TIP3   OH218920   4.637   0.020   5.221
 6305TIP3    H118921   4.623   0.019   5.126
 6305TIP3    H218922   4.558  -0.021   5.257
 6306TIP3   OH218923   3.010   5.612   0.299
 6306TIP3    H118924   3.083   5.594   0.239
 6306TIP3    H218925   2.952   5.536   0.290
 6307TIP3   OH218926   5.326   5.107   2.752
 6307TIP3    H118927   5.244   5.078   2.712
 6307TIP3    H218928   5.332   5.059   2.834
 6308TIP3   OH218929   5.651   4.790   2.276
 6308TIP3    H118930   5.645   4.871   2.327
 6308TIP3    H218931   5.649   4.721   2.342
 6309TIP3   OH218932   1.253   1.071   0.104
 6309TIP3    H118933   1.347   1.051   0.102
 6309TIP3    H218934   1.250   1.167   0.107
 6310TIP3   OH218935   5.406   5.714   5.137
 6310TIP3    H118936   5.406   5.748   5.226
 6310TIP3    H218937   5.467   5.641   5.139
 6311TIP3   OH218938   1.195   4.595   1.662
 6311TIP3    H118939   1.210   4.598   1.756
 6311TIP3    H218940   1.236   4.513   1.633
 6312TIP3   OH218941   1.812   5.847   1.553
 6312TIP3    H118942   1.819   5.830   1.459
 6312TIP3    H218943   1.878   5.914   1.571
 6313TIP3   OH218944   3.040   1.341   2.437
 6313TIP3    H118945   2.947   1.326   2.417
 6313TIP3    H218946   3.087   1.297   2.366
 6314TIP3   OH218947   0.413   5.446   3.135
 6314TIP3    H118948   0.503   5.478   3.134
 6314TIP3    H218949   0.411   5.378   3.066
 6315TIP3   OH218950   5.245   4.169   1.918
 6315TIP3    H118951   5.333   4.187   1.886
 6315TIP3    H218952   5.236   4.225   1.996
 6316TIP3   OH218953   2.430   2.460   3.850
 6316TIP3    H118954   2.521   2.489   3.856
 6316TIP3    H218955   2.399   2.460   3.941
 6317TIP3   OH218956   0.353   2.902   3.250
 6317TIP3    H118957   0.315   2.977   3.297
 6317TIP3    H218958   0.430   2.937   3.206
 6318TIP3   OH218959   3.818   2.234   2.888
 6318TIP3    H118960   3.911   2.256   2.898
 6318TIP3    H218961   3.812   2.145   2.922
 6319TIP3   OH218962   2.012   4.133   1.828
 6319TIP3    H118963   1.954   4.163   1.898
 6319TIP3    H218964   1.999   4.197   1.757
 6320TIP3   OH218965   5.770   2.945   4.994
 6320TIP3    H118966   5.716   2.870   4.968
 6320TIP3    H218967   5.757   3.009   4.923
 6321TIP3   OH218968   0.238   0.670   4.547
 6321TIP3    H118969   0.189   0.748   4.521
 6321TIP3    H218970   0.171   0.601   4.553
 6322TIP3   OH218971   3.263   5.087   0.727
 6322TIP3    H118972   3.237   5.012   0.781
 6322TIP3    H218973   3.222   5.162   0.770
 6323TIP3   OH218974   1.710   0.785   2.516
 6323TIP3    H118975   1.730   0.692   2.507
 6323TIP3    H218976   1.649   0.790   2.590
 6324TIP3   OH218977   5.954   3.218   2.776
 6324TIP3    H118978   5.874   3.194   2.823
 6324TIP3    H218979   6.023   3.209   2.841
 6325TIP3   OH218980   5.720   0.503   5.204
 6325TIP3    H118981   5.631   0.504   5.238
 6325TIP3    H218982   5.720   0.433   5.139
 6326TIP3   OH218983   4.181   3.369   4.590
 6326TIP3    H118984   4.197   3.347   4.681
 6326TIP3    H218985   4.129   3.450   4.593
 6327TIP3   OH218986   3.983   3.267   4.022
 6327TIP3    H118987   4.000   3.313   3.940
 6327TIP3    H218988   3.995   3.333   4.090
 6328TIP3   OH218989   4.713   5.327   0.562
 6328TIP3    H118990   4.736   5.305   0.652
 6328TIP3    H218991   4.794   5.361   0.524
 6329TIP3   OH218992   4.288   1.277   2.915
 6329TIP3    H118993   4.234   1.286   2.994
 6329TIP3    H218994   4.377   1.299   2.945
 6330TIP3   OH218995   3.371   3.699   2.312
 6330TIP3    H118996   3.386   3.782   2.267
 6330TIP3    H218997   3.296   3.715   2.369
 6331TIP3   OH218998   1.363   0.751   3.549
 6331TIP3    H118999   1.456   0.741   3.527
 6331TIP3    H219000   1.362   0.824   3.612
 6332TIP3   OH219001   0.374   2.932   0.664
 6332TIP3    H119002   0.442   2.978   0.713
 6332TIP3    H219003   0.341   2.997   0.602
 6333TIP3   OH219004   4.598   0.468   1.434
 6333TIP3    H119005   4.519   0.492   1.387
 6333TIP3    H219006   4.581   0.379   1.465
 6334TIP3   OH219007   4.280   3.563   1.817
 6334TIP3    H119008   4.359   3.588   1.865
 6334TIP3    H219009   4.227   3.515   1.880
 6335TIP3   OH219010   5.699   0.134   0.900
 6335TIP3    H119011   5.755   0.201   0.940
 6335TIP3    H219012   5.741   0.051   0.924
 6336TIP3   OH219013   3.360   2.495   5.023
 6336TIP3    H119014   3.282   2.549   5.014
 6336TIP3    H219015   3.333   2.422   5.079
 6337TIP3   OH219016   2.211   1.250   4.214
 6337TIP3    H119017   2.146   1.297   4.162
 6337TIP3    H219018   2.229   1.171   4.163
 6338TIP3   OH219019   2.029   0.033   3.249
 6338TIP3    H119020   1.971  -0.035   3.284
 6338TIP3    H219021   1.988   0.116   3.276
 6339TIP3   OH219022   1.814   2.911   1.115
 6339TIP3    H119023   1.848   2.876   1.197
 6339TIP3    H219024   1.801   3.005   1.133
 6340TIP3   OH219025   4.967   4.293   0.536
 6340TIP3    H119026   5.022   4.346   0.478
 6340TIP3    H219027   5.024   4.224   0.567
 6341TIP3   OH219028   5.478   4.023   3.915
 6341TIP3    H119029   5.401   4.080   3.916
 6341TIP3    H219030   5.546   4.075   3.957
 6342TIP3   OH219031   3.551   4.181   5.038
 6342TIP3    H119032   3.625   4.237   5.063
 6342TIP3    H219033   3.474   4.236   5.047
 6343TIP3   OH219034   0.685   0.311   2.047
 6343TIP3    H119035   0.646   0.373   2.108
 6343TIP3    H219036   0.776   0.341   2.038
 6344TIP3   OH219037   5.907   5.410   1.502
 6344TIP3    H119038   5.972   5.370   1.559
 6344TIP3    H219039   5.899   5.350   1.428
 6345TIP3   OH219040   5.483   3.855   1.404
 6345TIP3    H119041   5.561   3.889   1.359
 6345TIP3    H219042   5.466   3.919   1.473
 6346TIP3   OH219043   0.265   0.955   2.756
 6346TIP3    H119044   0.240   1.047   2.756
 6346TIP3    H219045   0.197   0.912   2.704
 6347TIP3   OH219046   5.981   1.463   2.247
 6347TIP3    H119047   5.977   1.452   2.152
 6347TIP3    H219048   6.057   1.412   2.274
 6348TIP3   OH219049   2.154   1.253   1.689
 6348TIP3    H119050   2.240   1.291   1.707
 6348TIP3    H219051   2.167   1.202   1.609
 6349TIP3   OH219052   0.442   5.664   3.917
 6349TIP3    H119053   0.353   5.641   3.943
 6349TIP3    H219054   0.497   5.594   3.953
 6350TIP3   OH219055   0.778   4.040   2.135
 6350TIP3    H119056   0.863   4.060   2.174
 6350TIP3    H219057   0.763   4.112   2.074
 6351TIP3   OH219058   3.759   1.936   2.865
 6351TIP3    H119059   3.710   1.854   2.856
 6351TIP3    H219060   3.768   1.969   2.776
 6352TIP3   OH219061   0.631   1.008   2.271
 6352TIP3    H119062   0.689   0.969   2.205
 6352TIP3    H219063   0.691   1.050   2.333
 6353TIP3   OH219064   4.506   3.824   2.843
 6353TIP3    H119065   4.438   3.799   2.906
 6353TIP3    H219066   4.523   3.745   2.793
 6354TIP3   OH219067   2.411   0.445   2.642
 6354TIP3    H119068   2.342   0.500   2.606
 6354TIP3    H219069   2.490   0.498   2.636
 6355TIP3   OH219070   0.661   2.400   0.125
 6355TIP3    H119071   0.744   2.444   0.142
 6355TIP3    H219072   0.667   2.319   0.176
 6356TIP3   OH219073   3.276   3.233   1.574
 6356TIP3    H119074   3.239   3.216   1.487
 6356TIP3    H219075   3.208   3.284   1.619
 6357TIP3   OH219076   5.166   2.323   1.801
 6357TIP3    H119077   5.091   2.377   1.776
 6357TIP3    H219078   5.143   2.288   1.887
 6358TIP3   OH219079   6.242   4.734   4.492
 6358TIP3    H119080   6.290   4.652   4.483
 6358TIP3    H219081   6.309   4.802   4.492
 6359TIP3   OH219082   5.976   5.711   1.012
 6359TIP3    H119083   5.930   5.643   1.061
 6359TIP3    H219084   6.055   5.667   0.980
 6360TIP3   OH219085   0.905   4.832   0.855
 6360TIP3    H119086   0.917   4.741   0.829
 6360TIP3    H219087   0.969   4.846   0.924
 6361TIP3   OH219088   5.745   3.312   1.072
 6361TIP3    H119089   5.712   3.400   1.054
 6361TIP3    H219090   5.748   3.269   0.987
 6362TIP3   OH219091   2.518   4.231   3.671
 6362TIP3    H119092   2.576   4.267   3.604
 6362TIP3    H219093   2.508   4.139   3.647
 6363TIP3   OH219094   4.793   3.766   4.888
 6363TIP3    H119095   4.806   3.856   4.918
 6363TIP3    H219096   4.878   3.741   4.852
 6364TIP3   OH219097   3.416   4.888   3.432
 6364TIP3    H119098   3.454   4.813   3.479
 6364TIP3    H219099   3.448   4.964   3.480
 6365TIP3   OH219100   4.124   5.230   4.704
 6365TIP3    H119101   4.050   5.200   4.757
 6365TIP3    H219102   4.171   5.149   4.683
 6366TIP3   OH219103   1.570   0.917   2.293
 6366TIP3    H119104   1.536   1.006   2.297
 6366TIP3    H219105   1.603   0.900   2.381
 6367TIP3   OH219106   0.203   4.605   4.987
 6367TIP3    H119107   0.136   4.666   5.018
 6367TIP3    H219108   0.277   4.619   5.046
 6368TIP3   OH219109   4.211   5.121   5.001
 6368TIP3    H119110   4.305   5.124   5.015
 6368TIP3    H219111   4.191   5.027   4.991
 6369TIP3   OH219112   1.850   2.729   1.960
 6369TIP3    H119113   1.891   2.739   2.046
 6369TIP3    H219114   1.924   2.731   1.898
 6370TIP3   OH219115   1.225   3.685   4.376
 6370TIP3    H119116   1.181   3.765   4.407
 6370TIP3    H219117   1.189   3.671   4.288
 6371TIP3   OH219118   1.482   1.171   1.999
 6371TIP3    H119119   1.546   1.174   2.070
 6371TIP3    H219120   1.508   1.095   1.946
 6372TIP3   OH219121   0.903   3.902   3.064
 6372TIP3    H119122   0.870   3.840   2.998
 6372TIP3    H219123   0.841   3.975   3.061
 6373TIP3   OH219124   2.464   0.101   0.691
 6373TIP3    H119125   2.466   0.008   0.668
 6373TIP3    H219126   2.376   0.114   0.727
 6374TIP3   OH219127   2.385   2.451   2.739
 6374TIP3    H119128   2.452   2.397   2.781
 6374TIP3    H219129   2.393   2.537   2.781
 6375TIP3   OH219130   2.250   0.951   0.846
 6375TIP3    H119131   2.332   0.915   0.878
 6375TIP3    H219132   2.204   0.876   0.808
 6376TIP3   OH219133   2.888   3.344   3.630
 6376TIP3    H119134   2.891   3.276   3.563
 6376TIP3    H219135   2.971   3.391   3.621
 6377TIP3   OH219136   0.620   4.109   2.519
 6377TIP3    H119137   0.526   4.123   2.506
 6377TIP3    H219138   0.644   4.169   2.588
 6378TIP3   OH219139   2.619   1.004   4.158
 6378TIP3    H119140   2.705   0.966   4.176
 6378TIP3    H219141   2.616   1.013   4.062
 6379TIP3   OH219142   4.010   3.068   3.134
 6379TIP3    H119143   4.008   3.160   3.158
 6379TIP3    H219144   3.930   3.031   3.170
 6380TIP3   OH219145   6.260   4.481   1.852
 6380TIP3    H119146   6.287   4.564   1.892
 6380TIP3    H219147   6.164   4.483   1.857
 6381TIP3   OH219148   1.146   4.697   0.921
 6381TIP3    H119149   1.225   4.700   0.867
 6381TIP3    H219150   1.114   4.607   0.913
 6382TIP3   OH219151   5.806   4.115   3.397
 6382TIP3    H119152   5.738   4.168   3.356
 6382TIP3    H219153   5.888   4.144   3.356
 6383TIP3   OH219154   1.754   5.747   1.834
 6383TIP3    H119155   1.785   5.764   1.746
 6383TIP3    H219156   1.766   5.653   1.847
 6384TIP3   OH219157   1.098   5.928   2.245
 6384TIP3    H119158   1.104   5.907   2.339
 6384TIP3    H219159   1.014   5.892   2.218
 6385TIP3   OH219160   0.492   0.307   4.010
 6385TIP3    H119161   0.550   0.370   3.968
 6385TIP3    H219162   0.534   0.289   4.094
 6386TIP3   OH219163   1.314   2.926   3.325
 6386TIP3    H119164   1.337   3.006   3.373
 6386TIP3    H219165   1.392   2.906   3.273
 6387TIP3   OH219166   4.061   4.713   3.624
 6387TIP3    H119167   4.115   4.666   3.687
 6387TIP3    H219168   4.122   4.739   3.554
 6388TIP3   OH219169   2.234   0.601   1.380
 6388TIP3    H119170   2.230   0.617   1.474
 6388TIP3    H219171   2.256   0.508   1.373
 6389TIP3   OH219172   0.354   3.632   4.924
 6389TIP3    H119173   0.347   3.696   4.995
 6389TIP3    H219174   0.432   3.580   4.948
 6390TIP3   OH219175   2.886   1.511   1.054
 6390TIP3    H119176   2.918   1.449   1.120
 6390TIP3    H219177   2.939   1.590   1.067
 6391TIP3   OH219178   3.764   5.021   3.168
 6391TIP3    H119179   3.811   5.093   3.127
 6391TIP3    H219180   3.829   4.976   3.221
 6392TIP3   OH219181   3.680   0.947   0.967
 6392TIP3    H119182   3.649   0.965   1.056
 6392TIP3    H219183   3.667   1.030   0.920
 6393TIP3   OH219184   6.304   4.081   3.776
 6393TIP3    H119185   6.384   4.098   3.725
 6393TIP3    H219186   6.234   4.083   3.711
 6394TIP3   OH219187   2.241   4.480   4.054
 6394TIP3    H119188   2.194   4.406   4.091
 6394TIP3    H219189   2.309   4.501   4.118
 6395TIP3   OH219190   1.095   4.392   4.092
 6395TIP3    H119191   1.013   4.393   4.141
 6395TIP3    H219192   1.158   4.354   4.152
 6396TIP3   OH219193   4.839   3.128   2.727
 6396TIP3    H119194   4.810   3.063   2.790
 6396TIP3    H219195   4.903   3.083   2.672
 6397TIP3   OH219196   2.830   2.229   5.155
 6397TIP3    H119197   2.760   2.164   5.156
 6397TIP3    H219198   2.820   2.275   5.072
 6398TIP3   OH219199   2.356   3.394   3.065
 6398TIP3    H119200   2.261   3.387   3.058
 6398TIP3    H219201   2.370   3.444   3.146
 6399TIP3   OH219202   3.757   3.172   4.591
 6399TIP3    H119203   3.790   3.154   4.679
 6399TIP3    H219204   3.824   3.135   4.533
 6400TIP3   OH219205   3.439   4.562   2.100
 6400TIP3    H119206   3.470   4.504   2.169
 6400TIP3    H219207   3.376   4.620   2.143
 6401TIP3   OH219208   5.668   5.697   3.614
 6401TIP3    H119209   5.654   5.786   3.645
 6401TIP3    H219210   5.607   5.688   3.540
 6402TIP3   OH219211   4.945   3.722   3.448
 6402TIP3    H119212   4.892   3.798   3.473
 6402TIP3    H219213   5.017   3.721   3.511
 6403TIP3   OH219214   4.807   0.672   0.818
 6403TIP3    H119215   4.830   0.728   0.744
 6403TIP3    H219216   4.866   0.596   0.810
 6404TIP3   OH219217   1.503   1.311   4.975
 6404TIP3    H119218   1.437   1.332   4.909
 6404TIP3    H219219   1.552   1.238   4.937
 6405TIP3   OH219220   1.754   4.273   2.281
 6405TIP3    H119221   1.707   4.289   2.363
 6405TIP3    H219222   1.800   4.190   2.295
 6406TIP3   OH219223   0.255   4.673   2.586
 6406TIP3    H119224   0.281   4.617   2.514
 6406TIP3    H219225   0.336   4.720   2.611
 6407TIP3   OH219226   0.279   4.614   1.209
 6407TIP3    H119227   0.291   4.690   1.265
 6407TIP3    H219228   0.361   4.566   1.214
 6408TIP3   OH219229   4.194   5.892   4.988
 6408TIP3    H119230   4.151   5.977   4.982
 6408TIP3    H219231   4.155   5.840   4.917
 6409TIP3   OH219232   1.098   5.729   4.549
 6409TIP3    H119233   1.038   5.729   4.624
 6409TIP3    H219234   1.076   5.649   4.501
 6410TIP3   OH219235   2.877   5.753   2.520
 6410TIP3    H119236   2.865   5.833   2.570
 6410TIP3    H219237   2.957   5.768   2.469
 6411TIP3   OH219238   1.187   4.546   0.594
 6411TIP3    H119239   1.242   4.536   0.516
 6411TIP3    H219240   1.221   4.480   0.655
 6412TIP3   OH219241   1.300   3.167   1.872
 6412TIP3    H119242   1.340   3.147   1.956
 6412TIP3    H219243   1.228   3.227   1.893
 6413TIP3   OH219244   0.501   1.694   1.769
 6413TIP3    H119245   0.424   1.751   1.772
 6413TIP3    H219246   0.510   1.661   1.858
 6414TIP3   OH219247   2.695   3.401   4.887
 6414TIP3    H119248   2.761   3.412   4.818
 6414TIP3    H219249   2.742   3.360   4.959
 6415TIP3   OH219250   3.624   0.052   4.289
 6415TIP3    H119251   3.577   0.133   4.272
 6415TIP3    H219252   3.691   0.048   4.221
 6416TIP3   OH219253   4.357   4.018   1.810
 6416TIP3    H119254   4.317   4.003   1.896
 6416TIP3    H219255   4.446   4.046   1.830
 6417TIP3   OH219256   3.152   3.538   2.957
 6417TIP3    H119257   3.195   3.455   2.937
 6417TIP3    H219258   3.111   3.524   3.043
 6418TIP3   OH219259   3.790   3.684   4.142
 6418TIP3    H119260   3.789   3.676   4.237
 6418TIP3    H219261   3.861   3.627   4.113
 6419TIP3   OH219262   2.082   4.405   0.449
 6419TIP3    H119263   1.989   4.395   0.428
 6419TIP3    H219264   2.100   4.337   0.513
 6420TIP3   OH219265   3.719   4.804   0.299
 6420TIP3    H119266   3.788   4.742   0.322
 6420TIP3    H219267   3.638   4.759   0.321
 6421TIP3   OH219268   4.162   3.626   1.539
 6421TIP3    H119269   4.167   3.718   1.515
 6421TIP3    H219270   4.195   3.622   1.629
 6422TIP3   OH219271   0.158   5.641   3.054
 6422TIP3    H119272   0.119   5.726   3.073
 6422TIP3    H219273   0.249   5.660   3.034
 6423TIP3   OH219274   2.020   3.834   1.116
 6423TIP3    H119275   1.941   3.834   1.062
 6423TIP3    H219276   2.085   3.788   1.063
 6424TIP3   OH219277   1.830   3.749   0.296
 6424TIP3    H119278   1.909   3.696   0.296
 6424TIP3    H219279   1.758   3.685   0.295
 6425TIP3   OH219280   5.898   4.321   3.604
 6425TIP3    H119281   5.841   4.272   3.545
 6425TIP3    H219282   5.902   4.268   3.684
 6426TIP3   OH219283   5.749   1.675   1.969
 6426TIP3    H119284   5.820   1.711   2.023
 6426TIP3    H219285   5.714   1.603   2.021
 6427TIP3   OH219286   3.053   5.373   2.359
 6427TIP3    H119287   2.985   5.414   2.412
 6427TIP3    H219288   3.131   5.373   2.414
 6428TIP3   OH219289   3.438   0.367   2.727
 6428TIP3    H119290   3.411   0.458   2.742
 6428TIP3    H219291   3.462   0.364   2.634
 6429TIP3   OH219292   3.886   3.717   0.530
 6429TIP3    H119293   3.960   3.749   0.478
 6429TIP3    H219294   3.864   3.633   0.490
 6430TIP3   OH219295   4.294   5.392   4.845
 6430TIP3    H119296   4.225   5.330   4.821
 6430TIP3    H219297   4.335   5.416   4.762
 6431TIP3   OH219298   0.074   2.224   3.965
 6431TIP3    H119299   0.084   2.169   3.886
 6431TIP3    H219300   0.159   2.217   4.009
 6432TIP3   OH219301   0.616   5.182   3.226
 6432TIP3    H119302   0.669   5.181   3.146
 6432TIP3    H219303   0.526   5.176   3.195
 6433TIP3   OH219304   3.809   2.637   0.541
 6433TIP3    H119305   3.745   2.566   0.532
 6433TIP3    H219306   3.847   2.624   0.628
 6434TIP3   OH219307   5.216   2.820   3.754
 6434TIP3    H119308   5.168   2.777   3.825
 6434TIP3    H219309   5.293   2.856   3.797
 6435TIP3   OH219310   1.533   0.794   5.061
 6435TIP3    H119311   1.615   0.808   5.013
 6435TIP3    H219312   1.496   0.882   5.071
 6436TIP3   OH219313   1.016   3.669   1.834
 6436TIP3    H119314   1.101   3.626   1.841
 6436TIP3    H219315   0.981   3.667   1.923
 6437TIP3   OH219316   0.381   5.494   0.950
 6437TIP3    H119317   0.364   5.412   0.904
 6437TIP3    H219318   0.395   5.558   0.881
 6438TIP3   OH219319   4.806   0.786   2.811
 6438TIP3    H119320   4.715   0.762   2.830
 6438TIP3    H219321   4.858   0.712   2.843
 6439TIP3   OH219322   0.216   5.928   2.283
 6439TIP3    H119323   0.282   5.988   2.317
 6439TIP3    H219324   0.221   5.940   2.188
 6440TIP3   OH219325   5.319   3.443   4.791
 6440TIP3    H119326   5.233   3.447   4.832
 6440TIP3    H219327   5.309   3.379   4.721
 6441TIP3   OH219328   2.526   3.878   2.755
 6441TIP3    H119329   2.496   3.787   2.760
 6441TIP3    H219330   2.473   3.917   2.686
 6442TIP3   OH219331   5.216   2.834   2.219
 6442TIP3    H119332   5.185   2.922   2.198
 6442TIP3    H219333   5.215   2.788   2.135
 6443TIP3   OH219334   2.477   3.222   4.427
 6443TIP3    H119335   2.487   3.132   4.397
 6443TIP3    H219336   2.383   3.236   4.435
 6444TIP3   OH219337   0.953   1.774   0.852
 6444TIP3    H119338   0.921   1.790   0.941
 6444TIP3    H219339   0.974   1.681   0.851
 6445TIP3   OH219340   1.796   3.521   2.147
 6445TIP3    H119341   1.796   3.599   2.091
 6445TIP3    H219342   1.837   3.551   2.228
 6446TIP3   OH219343   2.314   1.694   0.441
 6446TIP3    H119344   2.383   1.681   0.506
 6446TIP3    H219345   2.355   1.672   0.357
 6447TIP3   OH219346   5.335   4.182   1.533
 6447TIP3    H119347   5.412   4.151   1.581
 6447TIP3    H219348   5.283   4.103   1.519
 6448TIP3   OH219349   2.132   5.788   3.805
 6448TIP3    H119350   2.077   5.812   3.730
 6448TIP3    H219351   2.086   5.825   3.881
 6449TIP3   OH219352   3.540   3.692   3.088
 6449TIP3    H119353   3.597   3.707   3.013
 6449TIP3    H219354   3.597   3.704   3.164
 6450TIP3   OH219355   6.025   4.927   1.010
 6450TIP3    H119356   6.038   4.889   0.923
 6450TIP3    H219357   5.945   4.886   1.043
 6451TIP3   OH219358   1.679   1.573   0.858
 6451TIP3    H119359   1.584   1.579   0.864
 6451TIP3    H219360   1.698   1.479   0.863
 6452TIP3   OH219361   1.607   0.690   3.423
 6452TIP3    H119362   1.591   0.761   3.360
 6452TIP3    H219363   1.628   0.614   3.368
 6453TIP3   OH219364   1.944   5.753   0.905
 6453TIP3    H119365   1.944   5.742   1.000
 6453TIP3    H219366   1.914   5.669   0.870
 6454TIP3   OH219367   6.289   1.810   4.028
 6454TIP3    H119368   6.332   1.853   3.954
 6454TIP3    H219369   6.271   1.881   4.090
 6455TIP3   OH219370   0.190   1.109   0.283
 6455TIP3    H119371   0.265   1.096   0.341
 6455TIP3    H219372   0.135   1.172   0.329
 6456TIP3   OH219373   1.170   0.967   1.067
 6456TIP3    H119374   1.201   1.023   1.138
 6456TIP3    H219375   1.087   0.932   1.098
 6457TIP3   OH219376   2.698   1.686   1.672
 6457TIP3    H119377   2.703   1.591   1.683
 6457TIP3    H219378   2.680   1.699   1.579
 6458TIP3   OH219379   3.085   1.984   0.425
 6458TIP3    H119380   2.998   1.961   0.394
 6458TIP3    H219381   3.110   2.061   0.373
 6459TIP3   OH219382   2.170   0.561   2.605
 6459TIP3    H119383   2.147   0.576   2.513
 6459TIP3    H219384   2.089   0.533   2.646
 6460TIP3   OH219385   5.777   5.732   4.945
 6460TIP3    H119386   5.682   5.718   4.939
 6460TIP3    H219387   5.815   5.645   4.944
 6461TIP3   OH219388   6.168   0.777   0.675
 6461TIP3    H119389   6.217   0.696   0.657
 6461TIP3    H219390   6.209   0.813   0.753
 6462TIP3   OH219391   0.381   1.468   5.180
 6462TIP3    H119392   0.352   1.559   5.176
 6462TIP3    H219393   0.324   1.422   5.119
 6463TIP3   OH219394   3.269   0.905   3.607
 6463TIP3    H119395   3.304   0.944   3.527
 6463TIP3    H219396   3.286   0.811   3.597
 6464TIP3   OH219397   5.343   3.182   2.810
 6464TIP3    H119398   5.265   3.128   2.823
 6464TIP3    H219399   5.409   3.144   2.868
 6465TIP3   OH219400   0.143   1.624   4.356
 6465TIP3    H119401   0.060   1.670   4.345
 6465TIP3    H219402   0.199   1.687   4.401
 6466TIP3   OH219403   2.764   2.441   0.345
 6466TIP3    H119404   2.812   2.472   0.422
 6466TIP3    H219405   2.672   2.452   0.367
 6467TIP3   OH219406   2.253   4.102   1.030
 6467TIP3    H119407   2.332   4.099   0.976
 6467TIP3    H219408   2.181   4.081   0.970
 6468TIP3   OH219409   2.760   2.210   3.683
 6468TIP3    H119410   2.720   2.272   3.744
 6468TIP3    H219411   2.737   2.124   3.718
 6469TIP3   OH219412   6.342   2.517   0.662
 6469TIP3    H119413   6.255   2.519   0.701
 6469TIP3    H219414   6.328   2.487   0.573
 6470TIP3   OH219415   3.388   5.721   0.854
 6470TIP3    H119416   3.326   5.652   0.827
 6470TIP3    H219417   3.434   5.683   0.929
 6471TIP3   OH219418   1.459   1.967   3.233
 6471TIP3    H119419   1.389   2.009   3.182
 6471TIP3    H219420   1.420   1.885   3.263
 6472TIP3   OH219421   1.607   4.920   0.193
 6472TIP3    H119422   1.520   4.920   0.153
 6472TIP3    H219423   1.591   4.895   0.284
 6473TIP3   OH219424   0.331   2.027   0.699
 6473TIP3    H119425   0.302   1.978   0.622
 6473TIP3    H219426   0.416   2.063   0.675
 6474TIP3   OH219427   2.183   0.940   2.582
 6474TIP3    H119428   2.112   0.908   2.526
 6474TIP3    H219429   2.139   0.963   2.664
 6475TIP3   OH219430   5.446   5.877   4.388
 6475TIP3    H119431   5.516   5.812   4.384
 6475TIP3    H219432   5.365   5.825   4.384
 6476TIP3   OH219433   4.881   5.862   3.539
 6476TIP3    H119434   4.838   5.873   3.454
 6476TIP3    H219435   4.862   5.943   3.586
 6477TIP3   OH219436   0.200   2.099   0.958
 6477TIP3    H119437   0.242   2.064   0.879
 6477TIP3    H219438   0.262   2.078   1.029
 6478TIP3   OH219439   2.689   2.277   2.714
 6478TIP3    H119440   2.661   2.278   2.623
 6478TIP3    H219441   2.676   2.186   2.742
 6479TIP3   OH219442   2.354   3.397   2.351
 6479TIP3    H119443   2.306   3.400   2.268
 6479TIP3    H219444   2.424   3.333   2.336
 6480TIP3   OH219445   3.734   4.887   4.057
 6480TIP3    H119446   3.652   4.884   4.008
 6480TIP3    H219447   3.802   4.888   3.990
 6481TIP3   OH219448   1.149   4.394   3.639
 6481TIP3    H119449   1.083   4.352   3.693
 6481TIP3    H219450   1.175   4.472   3.689
 6482TIP3   OH219451   4.937   2.281   1.375
 6482TIP3    H119452   4.985   2.199   1.365
 6482TIP3    H219453   5.004   2.345   1.400
 6483TIP3   OH219454   3.951   0.193   2.781
 6483TIP3    H119455   3.856   0.201   2.775
 6483TIP3    H219456   3.972   0.110   2.739
 6484TIP3   OH219457   4.725   0.599   1.681
 6484TIP3    H119458   4.683   0.683   1.700
 6484TIP3    H219459   4.682   0.568   1.601
 6485TIP3   OH219460   4.019   1.753   3.106
 6485TIP3    H119461   3.985   1.726   3.191
 6485TIP3    H219462   4.081   1.824   3.127
 6486TIP3   OH219463   4.935   4.072   2.852
 6486TIP3    H119464   4.948   4.085   2.946
 6486TIP3    H219465   4.906   3.982   2.844
 6487TIP3   OH219466   4.874   0.009   2.596
 6487TIP3    H119467   4.909   0.074   2.536
 6487TIP3    H219468   4.791  -0.018   2.556
 6488TIP3   OH219469   3.505   3.876   4.264
 6488TIP3    H119470   3.596   3.877   4.293
 6488TIP3    H219471   3.470   3.794   4.300
 6489TIP3   OH219472   1.684   5.525   3.398
 6489TIP3    H119473   1.720   5.585   3.333
 6489TIP3    H219474   1.713   5.559   3.482
 6490TIP3   OH219475   6.362   5.191   3.259
 6490TIP3    H119476   6.343   5.284   3.253
 6490TIP3    H219477   6.293   5.149   3.208
 6491TIP3   OH219478   2.083   4.698   4.572
 6491TIP3    H119479   1.993   4.724   4.553
 6491TIP3    H219480   2.075   4.629   4.637
 6492TIP3   OH219481   0.462   4.633   2.878
 6492TIP3    H119482   0.553   4.630   2.850
 6492TIP3    H219483   0.413   4.596   2.804
 6493TIP3   OH219484   1.727   3.259   4.902
 6493TIP3    H119485   1.730   3.325   4.834
 6493TIP3    H219486   1.786   3.190   4.871
 6494TIP3   OH219487   3.581   5.546   3.262
 6494TIP3    H119488   3.585   5.463   3.213
 6494TIP3    H219489   3.494   5.581   3.242
 6495TIP3   OH219490   0.995   1.407   2.680
 6495TIP3    H119491   0.958   1.477   2.626
 6495TIP3    H219492   0.933   1.334   2.671
 6496TIP3   OH219493   1.392   4.203   4.880
 6496TIP3    H119494   1.364   4.216   4.789
 6496TIP3    H219495   1.311   4.203   4.930
 6497TIP3   OH219496   4.030   4.472   3.181
 6497TIP3    H119497   4.008   4.544   3.122
 6497TIP3    H219498   4.125   4.460   3.170
 6498TIP3   OH219499   0.777   0.675   0.935
 6498TIP3    H119500   0.850   0.735   0.922
 6498TIP3    H219501   0.721   0.718   0.999
 6499TIP3   OH219502   1.122   0.326   0.164
 6499TIP3    H119503   1.129   0.414   0.126
 6499TIP3    H219504   1.052   0.334   0.229
 6500TIP3   OH219505   0.725   5.577   4.282
 6500TIP3    H119506   0.634   5.553   4.296
 6500TIP3    H219507   0.728   5.613   4.193
 6501TIP3   OH219508   1.512   3.530   2.364
 6501TIP3    H119509   1.464   3.449   2.384
 6501TIP3    H219510   1.467   3.567   2.289
 6502TIP3   OH219511   5.958   5.868   4.098
 6502TIP3    H119512   5.923   5.781   4.080
 6502TIP3    H219513   5.890   5.928   4.069
 6503TIP3   OH219514   6.045   1.232   2.770
 6503TIP3    H119515   6.140   1.246   2.778
 6503TIP3    H219516   6.029   1.152   2.819
 6504TIP3   OH219517   1.829   1.937   2.139
 6504TIP3    H119518   1.895   1.971   2.079
 6504TIP3    H219519   1.793   2.015   2.182
 6505TIP3   OH219520   4.112   0.212   2.992
 6505TIP3    H119521   4.051   0.224   3.064
 6505TIP3    H219522   4.056   0.199   2.915
 6506TIP3   OH219523   0.574   1.013   2.714
 6506TIP3    H119524   0.508   1.073   2.750
 6506TIP3    H219525   0.529   0.929   2.709
 6507TIP3   OH219526   5.522   5.400   3.070
 6507TIP3    H119527   5.520   5.368   2.980
 6507TIP3    H219528   5.608   5.442   3.078
 6508TIP3   OH219529   1.035   3.791   1.486
 6508TIP3    H119530   0.962   3.850   1.506
 6508TIP3    H219531   1.068   3.762   1.571
 6509TIP3   OH219532   6.096   3.156   1.457
 6509TIP3    H119533   6.128   3.133   1.544
 6509TIP3    H219534   6.003   3.175   1.470
 6510TIP3   OH219535   0.959   1.512   3.556
 6510TIP3    H119536   0.884   1.466   3.520
 6510TIP3    H219537   0.926   1.551   3.638
 6511TIP3   OH219538   5.111   3.129   3.068
 6511TIP3    H119539   5.165   3.172   3.135
 6511TIP3    H219540   5.049   3.077   3.117
 6512TIP3   OH219541   3.363   0.672   2.292
 6512TIP3    H119542   3.297   0.702   2.230
 6512TIP3    H219543   3.430   0.741   2.291
 6513TIP3   OH219544   3.304   4.221   2.827
 6513TIP3    H119545   3.307   4.133   2.865
 6513TIP3    H219546   3.395   4.246   2.816
 6514TIP3   OH219547   3.908   4.008   2.861
 6514TIP3    H119548   3.954   3.928   2.836
 6514TIP3    H219549   3.941   4.074   2.799
 6515TIP3   OH219550   0.438   5.082   0.070
 6515TIP3    H119551   0.479   5.020   0.130
 6515TIP3    H219552   0.509   5.138   0.040
 6516TIP3   OH219553   4.240   1.977   2.905
 6516TIP3    H119554   4.195   2.009   2.983
 6516TIP3    H219555   4.333   1.986   2.927
 6517TIP3   OH219556   5.826   0.000   2.428
 6517TIP3    H119557   5.814  -0.051   2.508
 6517TIP3    H219558   5.902   0.056   2.446
 6518TIP3   OH219559   5.346   0.107   2.355
 6518TIP3    H119560   5.410   0.037   2.368
 6518TIP3    H219561   5.319   0.098   2.263
 6519TIP3   OH219562   1.589   4.590   4.044
 6519TIP3    H119563   1.525   4.659   4.062
 6519TIP3    H219564   1.595   4.541   4.125
 6520TIP3   OH219565   5.996   3.503   3.017
 6520TIP3    H119566   5.999   3.470   3.106
 6520TIP3    H219567   5.903   3.495   2.992
 6521TIP3   OH219568   4.129   3.754   3.924
 6521TIP3    H119569   4.126   3.689   3.994
 6521TIP3    H219570   4.050   3.737   3.871
 6522TIP3   OH219571   0.888   3.742   4.094
 6522TIP3    H119572   0.887   3.773   4.004
 6522TIP3    H219573   0.812   3.684   4.101
 6523TIP3   OH219574   0.515   0.098   2.022
 6523TIP3    H119575   0.542   0.183   2.055
 6523TIP3    H219576   0.596   0.048   2.014
 6524TIP3   OH219577   3.817   5.825   5.163
 6524TIP3    H119578   3.754   5.893   5.141
 6524TIP3    H219579   3.874   5.865   5.229
 6525TIP3   OH219580   0.182   4.998   2.924
 6525TIP3    H119581   0.092   4.996   2.957
 6525TIP3    H219582   0.228   4.931   2.974
 6526TIP3   OH219583   3.826   1.249   3.296
 6526TIP3    H119584   3.801   1.334   3.333
 6526TIP3    H219585   3.920   1.242   3.313
 6527TIP3   OH219586   5.426   5.401   1.152
 6527TIP3    H119587   5.402   5.493   1.146
 6527TIP3    H219588   5.513   5.401   1.191
 6528TIP3   OH219589   6.086   1.907   1.594
 6528TIP3    H119590   6.112   1.980   1.650
 6528TIP3    H219591   5.993   1.922   1.576
 6529TIP3   OH219592   4.896   1.405   0.024
 6529TIP3    H119593   4.987   1.422   0.046
 6529TIP3    H219594   4.858   1.369   0.104
 6530TIP3   OH219595   2.855   5.733   0.760
 6530TIP3    H119596   2.795   5.784   0.705
 6530TIP3    H219597   2.880   5.659   0.705
 6531TIP3   OH219598   6.065   2.019   4.968
 6531TIP3    H119599   6.147   2.058   4.998
 6531TIP3    H219600   6.047   2.062   4.885
 6532TIP3   OH219601   4.417   0.991   0.638
 6532TIP3    H119602   4.462   1.070   0.666
 6532TIP3    H219603   4.324   1.015   0.635
 6533TIP3   OH219604   5.863   0.722   0.757
 6533TIP3    H119605   5.942   0.705   0.707
 6533TIP3    H219606   5.807   0.770   0.697
 6534TIP3   OH219607   2.567   3.284   2.848
 6534TIP3    H119608   2.503   3.307   2.915
 6534TIP3    H219609   2.562   3.189   2.841
 6535TIP3   OH219610   0.238   4.106   3.605
 6535TIP3    H119611   0.161   4.102   3.549
 6535TIP3    H219612   0.311   4.084   3.547
 6536TIP3   OH219613   3.377   1.171   5.090
 6536TIP3    H119614   3.422   1.154   5.172
 6536TIP3    H219615   3.386   1.266   5.077
 6537TIP3   OH219616   0.253   1.784   1.688
 6537TIP3    H119617   0.191   1.803   1.759
 6537TIP3    H219618   0.205   1.725   1.630
 6538TIP3   OH219619   5.843   4.625   0.696
 6538TIP3    H119620   5.790   4.564   0.746
 6538TIP3    H219621   5.933   4.612   0.728
 6539TIP3   OH219622   3.393   1.651   2.386
 6539TIP3    H119623   3.332   1.603   2.443
 6539TIP3    H219624   3.343   1.668   2.306
 6540TIP3   OH219625   5.261   0.154   0.624
 6540TIP3    H119626   5.313   0.083   0.587
 6540TIP3    H219627   5.308   0.180   0.704
 6541TIP3   OH219628   6.190   4.527   3.331
 6541TIP3    H119629   6.255   4.482   3.277
 6541TIP3    H219630   6.194   4.483   3.416
 6542TIP3   OH219631   2.519   0.929   1.004
 6542TIP3    H119632   2.557   1.016   0.991
 6542TIP3    H219633   2.585   0.868   0.971
 6543TIP3   OH219634   1.561   0.524   2.585
 6543TIP3    H119635   1.514   0.564   2.512
 6543TIP3    H219636   1.650   0.513   2.553
 6544TIP3   OH219637   4.952   2.725   3.158
 6544TIP3    H119638   4.923   2.719   3.249
 6544TIP3    H219639   4.959   2.819   3.141
 6545TIP3   OH219640   4.002   5.128   2.496
 6545TIP3    H119641   3.997   5.053   2.436
 6545TIP3    H219642   4.050   5.194   2.446
 6546TIP3   OH219643   6.253   3.555   3.021
 6546TIP3    H119644   6.158   3.558   3.009
 6546TIP3    H219645   6.266   3.524   3.110
 6547TIP3   OH219646   6.199   4.838   0.683
 6547TIP3    H119647   6.209   4.851   0.588
 6547TIP3    H219648   6.278   4.877   0.720
 6548TIP3   OH219649   2.841   2.458   0.087
 6548TIP3    H119650   2.812   2.467   0.177
 6548TIP3    H219651   2.931   2.424   0.093
 6549TIP3   OH219652   4.238   1.742   4.667
 6549TIP3    H119653   4.315   1.755   4.612
 6549TIP3    H219654   4.203   1.658   4.639
 6550TIP3   OH219655   4.021   0.537   1.867
 6550TIP3    H119656   3.963   0.611   1.850
 6550TIP3    H219657   4.103   0.577   1.896
 6551TIP3   OH219658   2.571   0.186   0.920
 6551TIP3    H119659   2.538   0.151   0.837
 6551TIP3    H219660   2.587   0.279   0.902
 6552TIP3   OH219661   1.520   2.584   3.997
 6552TIP3    H119662   1.446   2.588   3.937
 6552TIP3    H219663   1.530   2.490   4.015
 6553TIP3   OH219664   0.433   1.414   0.185
 6553TIP3    H119665   0.422   1.350   0.114
 6553TIP3    H219666   0.344   1.443   0.205
 6554TIP3   OH219667   2.308   0.617   3.291
 6554TIP3    H119668   2.217   0.599   3.313
 6554TIP3    H219669   2.328   0.556   3.220
 6555TIP3   OH219670   0.093   5.451   1.110
 6555TIP3    H119671   0.042   5.371   1.096
 6555TIP3    H219672   0.118   5.480   1.022
 6556TIP3   OH219673   1.151   1.559   1.319
 6556TIP3    H119674   1.184   1.616   1.388
 6556TIP3    H219675   1.132   1.618   1.246
 6557TIP3   OH219676   4.880   1.986   4.401
 6557TIP3    H119677   4.849   1.907   4.445
 6557TIP3    H219678   4.881   2.053   4.469
 6558TIP3   OH219679   2.090   3.420   2.500
 6558TIP3    H119680   2.133   3.475   2.434
 6558TIP3    H219681   2.140   3.338   2.500
 6559TIP3   OH219682   5.210   2.354   1.128
 6559TIP3    H119683   5.198   2.346   1.223
 6559TIP3    H219684   5.288   2.408   1.118
 6560TIP3   OH219685   3.860   1.986   4.385
 6560TIP3    H119686   3.767   2.010   4.383
 6560TIP3    H219687   3.871   1.923   4.314
 6561TIP3   OH219688   1.680   5.176   3.406
 6561TIP3    H119689   1.690   5.119   3.330
 6561TIP3    H219690   1.732   5.254   3.384
 6562TIP3   OH219691   2.665   4.930   4.777
 6562TIP3    H119692   2.695   4.931   4.686
 6562TIP3    H219693   2.734   4.975   4.826
 6563TIP3   OH219694   6.252   2.404   4.132
 6563TIP3    H119695   6.319   2.366   4.075
 6563TIP3    H219696   6.231   2.488   4.092
 6564TIP3   OH219697   5.130   5.328   1.654
 6564TIP3    H119698   5.189   5.401   1.635
 6564TIP3    H219699   5.155   5.260   1.591
 6565TIP3   OH219700   4.872   3.453   3.514
 6565TIP3    H119701   4.905   3.535   3.479
 6565TIP3    H219702   4.780   3.451   3.486
 6566TIP3   OH219703   6.260   1.082   2.583
 6566TIP3    H119704   6.176   1.039   2.564
 6566TIP3    H219705   6.325   1.013   2.569
 6567TIP3   OH219706   3.007   0.250   4.480
 6567TIP3    H119707   2.997   0.180   4.543
 6567TIP3    H219708   3.063   0.314   4.524
 6568TIP3   OH219709   5.480   4.285   1.859
 6568TIP3    H119710   5.546   4.226   1.895
 6568TIP3    H219711   5.521   4.324   1.782
 6569TIP3   OH219712  -0.001   5.677   0.050
 6569TIP3    H119713  -0.062   5.750   0.062
 6569TIP3    H219714   0.074   5.715   0.005
 6570TIP3   OH219715   2.845   4.160   3.121
 6570TIP3    H119716   2.759   4.188   3.091
 6570TIP3    H219717   2.835   4.067   3.142
 6571TIP3   OH219718   3.199   2.504   0.192
 6571TIP3    H119719   3.165   2.527   0.279
 6571TIP3    H219720   3.277   2.452   0.210
 6572TIP3   OH219721   2.608   4.446   3.777
 6572TIP3    H119722   2.690   4.440   3.826
 6572TIP3    H219723   2.588   4.356   3.752
 6573TIP3   OH219724   0.988   2.614   0.479
 6573TIP3    H119725   0.996   2.706   0.505
 6573TIP3    H219726   0.901   2.608   0.439
 6574TIP3   OH219727   0.708   5.410   2.575
 6574TIP3    H119728   0.662   5.445   2.499
 6574TIP3    H219729   0.647   5.422   2.648
 6575TIP3   OH219730   5.650   5.104   1.448
 6575TIP3    H119731   5.570   5.154   1.430
 6575TIP3    H219732   5.630   5.057   1.529
 6576TIP3   OH219733   5.053   1.753   4.268
 6576TIP3    H119734   5.010   1.674   4.300
 6576TIP3    H219735   5.120   1.772   4.334
 6577TIP3   OH219736   4.720   5.399   1.452
 6577TIP3    H119737   4.741   5.434   1.539
 6577TIP3    H219738   4.805   5.377   1.414
 6578TIP3   OH219739   5.850   2.617   4.370
 6578TIP3    H119740   5.837   2.669   4.449
 6578TIP3    H219741   5.787   2.545   4.377
 6579TIP3   OH219742   1.562   0.512   0.166
 6579TIP3    H119743   1.603   0.596   0.147
 6579TIP3    H219744   1.573   0.461   0.086
 6580TIP3   OH219745   0.286   4.402   1.974
 6580TIP3    H119746   0.272   4.491   1.940
 6580TIP3    H219747   0.323   4.415   2.061
 6581TIP3   OH219748   4.576   4.822   4.542
 6581TIP3    H119749   4.636   4.753   4.513
 6581TIP3    H219750   4.578   4.818   4.637
 6582TIP3   OH219751   5.931   2.550   2.777
 6582TIP3    H119752   5.842   2.561   2.744
 6582TIP3    H219753   5.984   2.607   2.720
 6583TIP3   OH219754   0.205   0.282   4.310
 6583TIP3    H119755   0.133   0.220   4.309
 6583TIP3    H219756   0.249   0.267   4.394
 6584TIP3   OH219757   3.806   5.010   2.683
 6584TIP3    H119758   3.830   5.012   2.775
 6584TIP3    H219759   3.886   5.034   2.636
 6585TIP3   OH219760   5.949   5.260   0.634
 6585TIP3    H119761   5.994   5.236   0.715
 6585TIP3    H219762   6.017   5.258   0.567
 6586TIP3   OH219763   3.059   0.313   2.226
 6586TIP3    H119764   3.020   0.318   2.139
 6586TIP3    H219765   2.985   0.301   2.285
 6587TIP3   OH219766   2.217   4.097   3.386
 6587TIP3    H119767   2.222   4.005   3.414
 6587TIP3    H219768   2.146   4.099   3.323
 6588TIP3   OH219769   4.225   1.999   4.340
 6588TIP3    H119770   4.189   2.005   4.428
 6588TIP3    H219771   4.317   1.980   4.353
 6589TIP3   OH219772   0.925   5.110   3.291
 6589TIP3    H119773   0.853   5.153   3.245
 6589TIP3    H219774   1.003   5.159   3.264
 6590TIP3   OH219775   0.741   4.659   4.678
 6590TIP3    H119776   0.739   4.647   4.773
 6590TIP3    H219777   0.829   4.634   4.653
 6591TIP3   OH219778   0.339   4.402   2.694
 6591TIP3    H119779   0.364   4.469   2.630
 6591TIP3    H219780   0.245   4.390   2.680
 6592TIP3   OH219781   3.486   5.274   4.139
 6592TIP3    H119782   3.458   5.222   4.063
 6592TIP3    H219783   3.414   5.265   4.202
 6593TIP3   OH219784   6.312   2.156   1.958
 6593TIP3    H119785   6.359   2.227   1.913
 6593TIP3    H219786   6.239   2.137   1.900
 6594TIP3   OH219787   1.013   5.071   0.448
 6594TIP3    H119788   0.962   5.149   0.430
 6594TIP3    H219789   1.103   5.103   0.461
 6595TIP3   OH219790   4.059   3.213   1.823
 6595TIP3    H119791   4.148   3.187   1.798
 6595TIP3    H219792   4.007   3.133   1.814
 6596TIP3   OH219793   3.747   1.740   3.886
 6596TIP3    H119794   3.679   1.693   3.935
 6596TIP3    H219795   3.821   1.680   3.884
 6597TIP3   OH219796   4.509   1.518   2.162
 6597TIP3    H119797   4.568   1.552   2.229
 6597TIP3    H219798   4.554   1.441   2.126
 6598TIP3   OH219799   3.796   5.878   0.054
 6598TIP3    H119800   3.884   5.899   0.020
 6598TIP3    H219801   3.758   5.963   0.076
 6599TIP3   OH219802   3.038   3.466   0.470
 6599TIP3    H119803   3.079   3.536   0.522
 6599TIP3    H219804   3.098   3.453   0.396
 6600TIP3   OH219805   0.044   0.429   4.700
 6600TIP3    H119806  -0.027   0.419   4.636
 6600TIP3    H219807   0.116   0.377   4.664
 6601TIP3   OH219808   2.981   4.439   4.361
 6601TIP3    H119809   3.070   4.468   4.342
 6601TIP3    H219810   2.990   4.345   4.380
 6602TIP3   OH219811   0.411   3.440   1.694
 6602TIP3    H119812   0.454   3.362   1.730
 6602TIP3    H219813   0.441   3.444   1.604
 6603TIP3   OH219814   1.349   1.201   3.511
 6603TIP3    H119815   1.440   1.231   3.504
 6603TIP3    H219816   1.297   1.281   3.515
 6604TIP3   OH219817   0.911   0.390   2.455
 6604TIP3    H119818   1.006   0.400   2.448
 6604TIP3    H219819   0.889   0.435   2.537
 6605TIP3   OH219820   1.278   0.247   4.762
 6605TIP3    H119821   1.200   0.192   4.759
 6605TIP3    H219822   1.334   0.207   4.828
 6606TIP3   OH219823   3.866   1.183   2.230
 6606TIP3    H119824   3.937   1.125   2.201
 6606TIP3    H219825   3.909   1.245   2.290
 6607TIP3   OH219826   3.192   3.068   1.096
 6607TIP3    H119827   3.169   3.071   1.003
 6607TIP3    H219828   3.275   3.020   1.099
 6608TIP3   OH219829   5.113   0.676   1.991
 6608TIP3    H119830   5.177   0.732   2.035
 6608TIP3    H219831   5.033   0.729   1.986
 6609TIP3   OH219832   2.747   1.283   2.156
 6609TIP3    H119833   2.829   1.248   2.119
 6609TIP3    H219834   2.744   1.247   2.245
 6610TIP3   OH219835   2.079   1.635   4.370
 6610TIP3    H119836   2.044   1.556   4.329
 6610TIP3    H219837   2.021   1.652   4.444
 6611TIP3   OH219838   0.680   4.344   4.735
 6611TIP3    H119839   0.761   4.302   4.704
 6611TIP3    H219840   0.619   4.271   4.748
 6612TIP3   OH219841   4.314   4.088   4.570
 6612TIP3    H119842   4.240   4.029   4.559
 6612TIP3    H219843   4.369   4.072   4.494
 6613TIP3   OH219844   1.405   2.429   3.613
 6613TIP3    H119845   1.450   2.513   3.608
 6613TIP3    H219846   1.475   2.364   3.615
 6614TIP3   OH219847   5.080   1.703   3.638
 6614TIP3    H119848   5.092   1.619   3.593
 6614TIP3    H219849   5.085   1.680   3.731
 6615TIP3   OH219850   6.081   4.550   0.383
 6615TIP3    H119851   6.171   4.532   0.411
 6615TIP3    H219852   6.089   4.622   0.320
 6616TIP3   OH219853   3.216   1.141   0.938
 6616TIP3    H119854   3.301   1.171   0.972
 6616TIP3    H219855   3.171   1.221   0.913
 6617TIP3   OH219856   1.055   3.951   3.608
 6617TIP3    H119857   1.002   3.933   3.531
 6617TIP3    H219858   1.014   3.900   3.678
 6618TIP3   OH219859   0.277   2.567   1.673
 6618TIP3    H119860   0.270   2.660   1.693
 6618TIP3    H219861   0.291   2.564   1.579
 6619TIP3   OH219862   4.778   5.312   2.804
 6619TIP3    H119863   4.815   5.226   2.789
 6619TIP3    H219864   4.810   5.365   2.730
 6620TIP3   OH219865   3.872   3.540   1.671
 6620TIP3    H119866   3.812   3.523   1.598
 6620TIP3    H219867   3.959   3.533   1.632
 6621TIP3   OH219868   3.611   3.900   5.038
 6621TIP3    H119869   3.567   3.983   5.024
 6621TIP3    H219870   3.629   3.897   5.132
 6622TIP3   OH219871   3.082   3.767   1.174
 6622TIP3    H119872   3.082   3.696   1.238
 6622TIP3    H219873   3.098   3.724   1.090
 6623TIP3   OH219874  -0.017   4.466   0.488
 6623TIP3    H119875   0.038   4.388   0.493
 6623TIP3    H219876   0.031   4.533   0.536
 6624TIP3   OH219877   0.636   1.416   5.022
 6624TIP3    H119878   0.555   1.436   5.068
 6624TIP3    H219879   0.613   1.419   4.929
 6625TIP3   OH219880   1.715   1.546   2.317
 6625TIP3    H119881   1.665   1.597   2.381
 6625TIP3    H219882   1.680   1.573   2.233
 6626TIP3   OH219883   3.244   3.204   3.505
 6626TIP3    H119884   3.205   3.289   3.526
 6626TIP3    H219885   3.323   3.200   3.559
 6627TIP3   OH219886   3.306   2.088   4.815
 6627TIP3    H119887   3.306   2.076   4.720
 6627TIP3    H219888   3.324   2.182   4.827
 6628TIP3   OH219889   0.072   4.203   1.306
 6628TIP3    H119890   0.101   4.117   1.278
 6628TIP3    H219891   0.095   4.261   1.233
 6629TIP3   OH219892   2.112   5.045   3.400
 6629TIP3    H119893   2.195   5.003   3.424
 6629TIP3    H219894   2.119   5.057   3.305
 6630TIP3   OH219895   5.119   3.009   2.833
 6630TIP3    H119896   5.045   2.954   2.806
 6630TIP3    H219897   5.088   3.053   2.912
 6631TIP3   OH219898   2.963   4.932  -0.042
 6631TIP3    H119899   2.953   4.856  -0.099
 6631TIP3    H219900   2.929   4.903   0.043
 6632TIP3   OH219901   1.656   4.627   2.618
 6632TIP3    H119902   1.736   4.575   2.610
 6632TIP3    H219903   1.617   4.600   2.701
 6633TIP3   OH219904   0.245   4.656   1.857
 6633TIP3    H119905   0.239   4.643   1.762
 6633TIP3    H219906   0.209   4.743   1.872
 6634TIP3   OH219907   1.159   5.895   3.368
 6634TIP3    H119908   1.138   5.941   3.449
 6634TIP3    H219909   1.247   5.862   3.381
 6635TIP3   OH219910   4.422   2.878   2.556
 6635TIP3    H119911   4.497   2.848   2.507
 6635TIP3    H219912   4.413   2.971   2.532
 6636TIP3   OH219913   4.076   4.980   1.019
 6636TIP3    H119914   4.018   5.056   1.025
 6636TIP3    H219915   4.159   5.016   0.987
 6637TIP3   OH219916   2.850   0.111   3.182
 6637TIP3    H119917   2.933   0.082   3.143
 6637TIP3    H219918   2.867   0.112   3.276
 6638TIP3   OH219919   0.839   5.692   3.704
 6638TIP3    H119920   0.924   5.649   3.710
 6638TIP3    H219921   0.778   5.623   3.676
 6639TIP3   OH219922   3.400   2.484   3.494
 6639TIP3    H119923   3.419   2.574   3.519
 6639TIP3    H219924   3.345   2.492   3.416
 6640TIP3   OH219925   0.662   1.074   0.169
 6640TIP3    H119926   0.678   1.071   0.264
 6640TIP3    H219927   0.592   1.010   0.155
 6641TIP3   OH219928   1.364   2.150   4.205
 6641TIP3    H119929   1.270   2.169   4.212
 6641TIP3    H219930   1.396   2.149   4.295
 6642TIP3   OH219931   4.245   4.042   2.915
 6642TIP3    H119932   4.224   4.024   2.824
 6642TIP3    H219933   4.172   4.003   2.964
 6643TIP3   OH219934   2.053   0.442   1.602
 6643TIP3    H119935   1.963   0.474   1.593
 6643TIP3    H219936   2.059   0.371   1.537
 6644TIP3   OH219937   5.092   0.750   0.741
 6644TIP3    H119938   5.136   0.709   0.816
 6644TIP3    H219939   5.108   0.843   0.752
 6645TIP3   OH219940   1.290   3.339   3.565
 6645TIP3    H119941   1.264   3.270   3.626
 6645TIP3    H219942   1.231   3.412   3.585
   6.34881   5.98572   5.18379   0.00000   0.00000  -2.11628   0.00000  -2.11628  -2.99286
