Title
19942
    1ASP      N    1   0.306   2.685   3.231  0.2201 -0.7917 -0.3510
    1ASP    HT1    2   0.217   2.661   3.183 -0.4314 -1.0309  0.9374
    1ASP    HT2    3   0.361   2.753   3.174  1.5850 -1.1104  0.5312
    1ASP    HT3    4   0.268   2.732   3.315 -2.0897 -1.5557 -0.9038
    1ASP     CA    5   0.375   2.561   3.264 -0.1397  0.2389 -0.2432
    1ASP     HA    6   0.467   2.586   3.314  0.7667 -0.6862 -1.3827
    1ASP     CB    7   0.283   2.481   3.360  0.9069  0.6534 -0.0161
    1ASP    HB1    8   0.206   2.426   3.302  0.0293 -1.0231  2.5659
    1ASP    HB2    9   0.228   2.554   3.423  0.1177 -0.5573  0.7271
    1ASP     CG   10   0.354   2.388   3.447 -0.4852  0.4149 -0.5946
    1ASP    OD1   11   0.295   2.316   3.526  0.2730  0.4196 -0.3979
    1ASP    OD2   12   0.479   2.370   3.437  0.4029 -0.1253  0.2281
    1ASP      C   13   0.418   2.479   3.141  0.0257 -0.4907  0.1261
    1ASP      O   14   0.377   2.520   3.031  0.0758 -0.2012  0.1979
    2ALA      N   15   0.494   2.376   3.157  0.7883 -0.0520 -0.3053
    2ALA     HN   16   0.518   2.351   3.251  2.0380  1.2361 -0.2553
    2ALA     CA   17   0.522   2.277   3.058  0.4261 -0.7392  0.4137
    2ALA     HA   18   0.573   2.319   2.973 -0.7132 -0.3094 -0.0797
    2ALA     CB   19   0.624   2.176   3.102  0.1999 -1.0940  0.2118
    2ALA    HB1   20   0.721   2.226   3.121 -0.0293 -1.3585  2.3848
    2ALA    HB2   21   0.647   2.099   3.025 -1.0842 -1.8372  0.5414
    2ALA    HB3   22   0.588   2.130   3.198 -0.2910 -0.5560  0.2912
    2ALA      C   23   0.397   2.200   3.014  0.3515 -0.1398 -0.1597
    2ALA      O   24   0.296   2.199   3.085 -0.3452  0.3933 -0.2488
    3ASP      N   25   0.401   2.150   2.891  0.0784 -0.2223  0.1408
    3ASP     HN   26   0.477   2.168   2.828  0.5559  1.4303  1.1447
    3ASP     CA   27   0.287   2.085   2.831 -0.1791 -0.0588 -0.3025
    3ASP     HA   28   0.193   2.137   2.846 -0.1870 -0.1385 -0.0719
    3ASP     CB   29   0.324   2.077   2.679 -0.0175 -0.3226  1.2601
    3ASP    HB1   30   0.403   2.000   2.663  0.8529  0.6213  0.9277
    3ASP    HB2   31   0.370   2.177   2.665  3.3231 -1.8953 -0.3142
    3ASP     CG   32   0.217   2.064   2.576  0.5636  0.0604 -0.0674
    3ASP    OD1   33   0.238   2.050   2.462 -0.2429  0.4078  0.2568
    3ASP    OD2   34   0.098   2.059   2.620  0.3736 -0.4403 -0.4973
    3ASP      C   35   0.272   1.947   2.890  0.3678 -0.0193  0.1712
    3ASP      O   36   0.359   1.892   2.950  0.0548  0.1979  0.2970
    4GLY      N   37   0.154   1.883   2.867  0.0657  0.5407  0.1744
    4GLY     HN   38   0.098   1.932   2.801  2.2581  1.9071 -0.8129
    4GLY     CA   39   0.106   1.749   2.916  0.1584 -0.1870 -0.0848
    4GLY    HA1   40   0.010   1.723   2.874  0.3939 -1.4969  0.1284
    4GLY    HA2   41   0.103   1.752   3.024 -1.3376 -1.0079 -0.0803
    4GLY      C   42   0.197   1.634   2.889  0.9310  0.8513  0.4895
    4GLY      O   43   0.288   1.656   2.809  0.1549  0.3996  0.4586
    5PRO      N   44   0.155   1.513   2.934  0.4173 -0.6287  0.2887
    5PRO     CD   45   0.042   1.479   3.032  0.4851  0.2659  0.4027
    5PRO    HD1   46  -0.057   1.502   2.987  0.0680  1.8930  2.0451
    5PRO    HD2   47   0.054   1.532   3.128 -0.3303  2.5257 -0.6736
    5PRO     CA   48   0.232   1.396   2.908  0.0921 -0.6146 -0.2399
    5PRO     HA   49   0.339   1.410   2.905  0.2876 -1.1551  1.9433
    5PRO     CB   50   0.202   1.305   3.028  0.0676  0.6388  0.7118
    5PRO    HB1   51   0.266   1.331   3.115  0.6742  1.1155  0.1338
    5PRO    HB2   52   0.225   1.198   3.005 -1.6538  0.4826 -0.5241
    5PRO     CG   53   0.058   1.330   3.061 -0.4592  0.1524  0.5957
    5PRO    HG1   54  -0.016   1.279   2.996  0.2679  1.8214 -1.7037
    5PRO    HG2   55   0.038   1.307   3.168  0.5076  0.9584  0.9649
    5PRO      C   56   0.184   1.334   2.774  0.0023 -0.2184 -0.0594
    5PRO      O   57   0.101   1.234   2.763 -0.1263 -0.0936 -0.9532
    6GLY      N   58   0.242   1.397   2.668  0.3266 -0.0451  0.2256
    6GLY     HN   59   0.307   1.466   2.696 -0.2926  1.1603 -1.1585
    6GLY     CA   60   0.238   1.362   2.526 -0.0496  0.1404  1.0169
    6GLY    HA1   61   0.266   1.449   2.467  0.8514 -1.5844 -1.2505
    6GLY    HA2   62   0.142   1.318   2.505  0.3525 -0.6581  0.8243
    6GLY      C   63   0.349   1.255   2.497  0.3781  0.8354 -0.0707
    6GLY      O   64   0.409   1.206   2.595  0.1252 -0.3208  0.3135
    7ASP      N   65   0.368   1.213   2.379 -0.1210 -0.7117  0.0357
    7ASP     HN   66   0.330   1.264   2.303  0.7729  0.7365  0.5326
    7ASP     CA   67   0.444   1.106   2.337 -0.0050  0.4465  0.4733
    7ASP     HA   68   0.445   1.033   2.416  2.9816  1.6323  1.6712
    7ASP     CB   69   0.393   1.035   2.210  0.5682 -0.2218  0.7869
    7ASP    HB1   70   0.469   0.974   2.156 -0.2163 -0.1764 -0.3974
    7ASP    HB2   71   0.360   1.120   2.146 -0.1871 -0.4659  0.8440
    7ASP     CG   72   0.266   0.953   2.224  0.2605  0.4273 -0.0032
    7ASP    OD1   73   0.209   0.960   2.334  0.1478 -0.1501 -0.2118
    7ASP    OD2   74   0.227   0.882   2.126 -0.6266 -0.0951 -0.5474
    7ASP      C   75   0.589   1.142   2.318  0.1374 -0.4802  0.4334
    7ASP      O   76   0.614   1.246   2.261 -0.2753 -0.5995 -0.9888
    8PRO      N   77   0.692   1.068   2.361 -0.2243  0.2156 -0.2695
    8PRO     CD   78   0.673   0.941   2.428  0.0297  0.0685 -0.3427
    8PRO    HD1   79   0.635   0.868   2.353 -2.4122  1.2758 -0.3912
    8PRO    HD2   80   0.609   0.938   2.519  1.4375 -0.1684  0.6635
    8PRO     CA   81   0.834   1.110   2.349  0.1454 -0.1582 -0.2791
    8PRO     HA   82   0.835   1.195   2.417 -0.8150 -0.5045  0.1933
    8PRO     CB   83   0.908   0.981   2.394 -0.2148  0.8054  0.3761
    8PRO    HB1   84   1.001   1.010   2.446  0.1348  1.1212 -0.4103
    8PRO    HB2   85   0.936   0.921   2.304  0.2997  0.7779  0.5544
    8PRO     CG   86   0.815   0.905   2.483  0.1746 -0.5378  0.0980
    8PRO    HG1   87   0.825   0.794   2.487 -2.2489 -0.8425 -0.8469
    8PRO    HG2   88   0.831   0.955   2.581  2.3054 -1.5856  0.3544
    8PRO      C   89   0.888   1.157   2.218  0.8360 -0.0328  0.5279
    8PRO      O   90   0.857   1.099   2.108 -0.3579  0.0722 -0.0801
    9ASP      N   91   0.976   1.254   2.224  0.2330  0.1348 -0.2806
    9ASP     HN   92   1.005   1.290   2.312  2.7224  1.1752 -1.4216
    9ASP     CA   93   1.038   1.301   2.105 -0.5680 -0.2567 -0.4580
    9ASP     HA   94   0.963   1.332   2.034  1.9745  0.4767 -3.0395
    9ASP     CB   95   1.108   1.442   2.126  0.6073  0.1378  0.5963
    9ASP    HB1   96   1.166   1.469   2.035 -2.7291  2.2025 -1.1021
    9ASP    HB2   97   1.171   1.444   2.217 -1.0587  0.0913  1.7941
    9ASP     CG   98   1.009   1.553   2.145  0.1652 -0.3189  0.1450
    9ASP    OD1   99   1.052   1.670   2.165  0.2550  0.9279 -0.5961
    9ASP    OD2  100   0.883   1.532   2.140 -0.2843  0.8466 -0.2053
    9ASP      C  101   1.138   1.203   2.041  0.2493 -0.6400  0.3367
    9ASP      O  102   1.207   1.128   2.109  0.2677  0.0683 -0.0814
   10ALA      N  103   1.145   1.197   1.907 -0.0811  0.0867 -0.7979
   10ALA     HN  104   1.110   1.268   1.847  0.5626  0.6339 -0.5345
   10ALA     CA  105   1.218   1.094   1.843 -1.2220 -0.0747 -0.5954
   10ALA     HA  106   1.219   1.004   1.902  1.5873  0.1568 -0.1346
   10ALA     CB  107   1.146   1.064   1.708  0.3440  0.1321  0.0006
   10ALA    HB1  108   1.045   1.031   1.738  0.6721 -0.6597  0.2451
   10ALA    HB2  109   1.198   0.977   1.663  0.3192  0.6840 -1.1198
   10ALA    HB3  110   1.142   1.155   1.645  0.9546  0.9276  1.0671
   10ALA      C  111   1.367   1.142   1.827  0.4389 -0.0738 -0.3114
   10ALA      O  112   1.393   1.257   1.793  0.0907  0.0319  0.0099
   11GLY      N  113   1.461   1.055   1.856 -0.4500  0.0046  0.2927
   11GLY     HN  114   1.430   0.961   1.870  2.2477 -1.2128 -0.9631
   11GLY     CA  115   1.600   1.078   1.857  0.1442  0.1139  0.1973
   11GLY    HA1  116   1.623   1.181   1.833  2.1746  0.6749  3.8418
   11GLY    HA2  117   1.634   1.009   1.781  0.0572  0.6571 -0.3485
   11GLY      C  118   1.670   1.048   1.986  0.1726  0.8121  0.1600
   11GLY    OT1  119   1.767   0.962   1.983 -0.1723 -0.0241 -0.0547
   11GLY    OT2  120   1.643   1.107   2.097  0.4036 -0.4559 -0.4556
   12LIT    LIT  121   1.658   2.390   1.753  0.3688  1.3625  0.0008
   13LIT    LIT  122   4.688   3.510   0.412 -0.5732  0.0577 -0.9404
   14LIT    LIT  123   4.324   5.094   1.673 -1.0984  1.2252  0.2236
   15LIT    LIT  124   1.289   3.396   4.122 -0.0293 -0.5572 -0.6645
   16LIT    LIT  125   5.057   0.403   4.261  0.2569 -0.2247 -0.8464
   17LIT    LIT  126   4.445   4.364   3.570 -0.3131  0.1366  0.0508
   18LIT    LIT  127   4.896   4.464   4.175  0.7848  1.1591  0.3730
   19LIT    LIT  128   0.241   1.237   0.943 -0.2690 -0.1733 -0.6624
   20LIT    LIT  129   5.583   3.715   0.569  0.6701 -0.1967  0.5293
   21LIT    LIT  130   5.910   2.089   3.638  0.4650  0.5020 -0.0010
   22LIT    LIT  131   5.528   3.589   1.072 -0.8876  0.2748 -0.6751
   23LIT    LIT  132   1.093   4.633   4.841  1.3579  1.0697 -0.5278
   24LIT    LIT  133   3.771   1.066   3.844 -1.0828  1.7485 -0.0454
   25LIT    LIT  134   6.252   4.544   4.640 -0.2628 -0.6472 -0.2312
   26LIT    LIT  135   3.748   4.651   2.354  0.0847 -0.7766 -1.1077
   27LIT    LIT  136   0.306   4.643   0.928  0.0856 -1.0084 -0.2309
   28LIT    LIT  137   0.461   2.196   3.528  0.0075  0.8196  0.6432
   29LIT    LIT  138   3.240   3.312   1.812  0.2388  0.4571  0.0016
   30LIT    LIT  139   5.750   5.753   4.473 -0.2061  0.7623  0.8800
   31LIT    LIT  140   2.472   4.186   4.047  0.5473  0.6130  0.0113
   32LIT    LIT  141   2.152   3.089   5.072  0.6389  1.2364  0.1809
   33LIT    LIT  142   6.099   4.200   3.664 -0.9396  0.2309  0.4579
   34CLA    CLA  143   1.490   3.071   3.594  0.3346 -0.0309  0.1930
   35CLA    CLA  144   4.336   4.782   2.352  0.4144  0.1749 -0.1503
   36CLA    CLA  145   4.530   4.708   3.218 -0.0504  0.0926 -0.0973
   37CLA    CLA  146   0.110   4.081   0.518  0.0877 -0.0419 -0.0439
   38CLA    CLA  147   4.163   2.937   1.493 -0.0753  0.1505 -0.4359
   39CLA    CLA  148   0.476   1.456   0.080 -0.5326 -0.2549 -0.0607
   40CLA    CLA  149   0.624   2.114   5.109  0.1031 -0.1480 -0.0448
   41CLA    CLA  150   3.796   5.616   0.249  0.0154  0.1205 -0.0727
   42CLA    CLA  151   6.250   2.157   4.290 -0.1894  0.1799 -0.1880
   43CLA    CLA  152   5.694   0.613   4.384  0.0043 -0.3602  0.1174
   44CLA    CLA  153   6.271   2.337   0.505  0.1158  0.1150 -0.1049
   45CLA    CLA  154   1.891   0.006   3.556 -0.1410  0.0222  0.1351
   46CLA    CLA  155   0.766   5.452   3.759  0.1094  0.2182  0.0153
   47CLA    CLA  156   1.478   3.506   4.199  0.1141 -0.0874 -0.6157
   48CLA    CLA  157   5.643   3.184   2.184 -0.3009  0.4877 -0.6903
   49CLA    CLA  158   2.760   1.018   4.016  0.2910 -0.2462 -0.0752
   50CLA    CLA  159   4.650   3.492   4.986 -0.2094 -0.3739 -0.1503
   51CLA    CLA  160   0.717   3.889   3.470  0.3277  0.2788 -0.1204
   52TIP3   OH2  161   3.481   4.079   4.972 -0.0715  0.5119  0.6629
   52TIP3    H1  162   3.404   4.135   4.983 -0.7132 -0.8344  4.1881
   52TIP3    H2  163   3.464   4.031   4.891 -1.8565  1.8334  0.1838
   53TIP3   OH2  164   1.683   5.002   0.298 -0.3803 -0.3530  0.1166
   53TIP3    H1  165   1.608   5.024   0.243 -0.0057 -1.7971 -1.0142
   53TIP3    H2  166   1.652   4.929   0.352  0.4107 -1.4905 -0.9150
   54TIP3   OH2  167   4.327   2.187   0.698 -0.3768 -0.3530  0.0599
   54TIP3    H1  168   4.270   2.132   0.645 -1.5254 -0.5681  1.4499
   54TIP3    H2  169   4.333   2.142   0.782 -0.2272  0.9560  0.7754
   55TIP3   OH2  170   2.647   0.508   1.719  0.3711 -0.2116  0.2504
   55TIP3    H1  171   2.635   0.434   1.659  0.4620  0.6428 -0.8528
   55TIP3    H2  172   2.737   0.536   1.705 -0.1496  1.1593 -0.6203
   56TIP3   OH2  173   5.887   3.481   4.169 -0.2176 -0.3044 -0.2740
   56TIP3    H1  174   5.900   3.392   4.203 -1.2913 -0.3187  0.1747
   56TIP3    H2  175   5.866   3.533   4.247  3.2004  1.0171 -0.0743
   57TIP3   OH2  176   0.579   4.698   3.391 -0.2552 -0.2572  0.1462
   57TIP3    H1  177   0.674   4.688   3.384 -0.0787  0.9288  0.6252
   57TIP3    H2  178   0.543   4.621   3.347  0.9278 -0.5709 -0.2939
   58TIP3   OH2  179   2.710   4.415   4.963 -0.6028 -0.1038 -0.2750
   58TIP3    H1  180   2.777   4.469   5.006 -0.1633 -0.3915 -0.5787
   58TIP3    H2  181   2.633   4.422   5.019 -0.4252  0.5161 -0.1023
   59TIP3   OH2  182   0.671   4.211   4.169  0.1338  0.9969 -0.2633
   59TIP3    H1  183   0.632   4.151   4.233 -0.7835  0.2429 -1.4660
   59TIP3    H2  184   0.753   4.239   4.209 -0.4951  0.7140  1.3081
   60TIP3   OH2  185  -0.025   4.237   5.083  0.3126  0.4787 -0.2555
   60TIP3    H1  186  -0.033   4.160   5.140 -1.1426 -0.0934 -1.1746
   60TIP3    H2  187   0.067   4.262   5.090  0.8373 -1.3703  0.0395
   61TIP3   OH2  188   3.958   0.325   4.974 -0.4198 -0.2071 -0.1093
   61TIP3    H1  189   4.022   0.359   5.037 -1.2020 -0.0798  0.6314
   61TIP3    H2  190   3.916   0.251   5.020 -2.4032  1.1231  0.3329
   62TIP3   OH2  191   4.129   5.907   2.671 -0.2192 -0.4357  0.6261
   62TIP3    H1  192   4.054   5.849   2.658  0.5082 -1.2329 -0.2514
   62TIP3    H2  193   4.174   5.871   2.747  0.4629 -1.3216 -0.1689
   63TIP3   OH2  194   0.974   3.369   2.948 -0.3252  0.5142  0.1047
   63TIP3    H1  195   0.886   3.339   2.969 -0.8355  1.6286 -0.3319
   63TIP3    H2  196   0.980   3.362   2.853  0.6438 -1.0481  0.2538
   64TIP3   OH2  197   3.266   3.458   5.093 -0.3168 -0.7817  0.3801
   64TIP3    H1  198   3.180   3.451   5.135 -0.4726 -0.8081  0.0561
   64TIP3    H2  199   3.262   3.398   5.019  0.4160 -1.7594  1.0862
   65TIP3   OH2  200   2.505   3.945   4.659  0.3227 -0.0983  0.1832
   65TIP3    H1  201   2.545   3.992   4.732  2.0353 -0.8413 -0.2319
   65TIP3    H2  202   2.458   3.873   4.700  1.7016 -0.8188  0.5547
   66TIP3   OH2  203   0.108   4.787   3.098 -0.3467  0.6515 -0.4223
   66TIP3    H1  204   0.075   4.874   3.074  0.7606  0.8435 -1.2812
   66TIP3    H2  205   0.176   4.768   3.034  0.9741  0.0961  1.0755
   67TIP3   OH2  206   3.135   3.522   2.869  0.5818 -0.3114 -0.0614
   67TIP3    H1  207   3.104   3.556   2.953  0.9441 -0.6632  0.2186
   67TIP3    H2  208   3.199   3.455   2.892  0.7537 -0.3475 -0.6213
   68TIP3   OH2  209   2.343   5.483   1.011 -0.3610  0.0933  0.2921
   68TIP3    H1  210   2.318   5.396   1.043 -0.3802  0.2368  0.6686
   68TIP3    H2  211   2.438   5.478   0.999 -0.2756  0.2004  0.8840
   69TIP3   OH2  212   0.950   4.827   3.641 -0.1005 -0.1329  0.0799
   69TIP3    H1  213   0.861   4.809   3.612 -0.9220  0.7228  1.9301
   69TIP3    H2  214   0.950   4.920   3.663  2.0660  0.6199 -2.5312
   70TIP3   OH2  215   5.996   1.670   0.224  0.2897  0.2566 -0.1892
   70TIP3    H1  216   6.015   1.718   0.143 -1.9851 -0.6770 -1.3825
   70TIP3    H2  217   5.926   1.720   0.265 -1.1934 -1.2177 -0.7857
   71TIP3   OH2  218   0.282   5.579   1.476 -0.1746  0.0103 -0.2422
   71TIP3    H1  219   0.189   5.599   1.460 -0.5285 -0.5111  1.0091
   71TIP3    H2  220   0.282   5.487   1.500  0.4541  0.3789  1.2683
   72TIP3   OH2  221   6.007   5.411   2.176 -0.4306 -0.0037 -0.1293
   72TIP3    H1  222   6.001   5.369   2.262 -1.2217  0.6754  0.1563
   72TIP3    H2  223   6.032   5.501   2.195  3.5049 -0.7723 -0.8431
   73TIP3   OH2  224   5.735   1.146   1.787 -0.3395 -0.2492  0.0276
   73TIP3    H1  225   5.786   1.067   1.775  1.1879  0.8525 -1.1498
   73TIP3    H2  226   5.669   1.143   1.717  0.6047  0.1539 -0.9040
   74TIP3   OH2  227   3.704   4.077   3.475 -0.0580 -0.3908 -0.0743
   74TIP3    H1  228   3.618   4.051   3.443 -0.2514 -1.0898  0.9563
   74TIP3    H2  229   3.687   4.115   3.561  0.6408 -0.3281  0.0432
   75TIP3   OH2  230   0.084   4.132   0.211 -0.6463  0.2362  0.6049
   75TIP3    H1  231   0.037   4.208   0.178 -0.8303 -0.0283  0.2638
   75TIP3    H2  232   0.086   4.145   0.306  0.0417  1.0852  0.4850
   76TIP3   OH2  233   5.363   1.198   0.844 -0.0400 -0.2049 -0.1390
   76TIP3    H1  234   5.311   1.124   0.875 -2.4136  1.3943 -0.0781
   76TIP3    H2  235   5.373   1.253   0.921  0.9634 -0.0256 -0.3903
   77TIP3   OH2  236   3.210   2.802   0.347 -0.5987  0.1357  0.1382
   77TIP3    H1  237   3.182   2.860   0.276 -1.0990 -1.0964 -0.7117
   77TIP3    H2  238   3.129   2.780   0.393 -0.3032  0.7577  0.9846
   78TIP3   OH2  239   5.370   5.312   4.369  0.0114  0.8708  0.3972
   78TIP3    H1  240   5.457   5.292   4.406 -0.4616 -3.9932 -0.3795
   78TIP3    H2  241   5.377   5.284   4.278 -2.8357 -1.9329  0.8677
   79TIP3   OH2  242   4.224   4.094   0.298  0.6794 -0.1283  0.0764
   79TIP3    H1  243   4.139   4.060   0.272  1.0831 -0.0409 -1.4387
   79TIP3    H2  244   4.205   4.180   0.336 -0.0064 -0.5933  0.8177
   80TIP3   OH2  245   4.993   3.025   4.574 -0.2016 -0.3590  0.1274
   80TIP3    H1  246   4.922   3.089   4.582  0.5146  0.7812 -1.9044
   80TIP3    H2  247   4.974   2.978   4.493 -0.1711 -2.0832  1.0819
   81TIP3   OH2  248   5.001   5.662   1.195 -0.2480 -0.0012  0.3599
   81TIP3    H1  249   5.016   5.739   1.250  0.2603  0.3663 -0.2760
   81TIP3    H2  250   4.995   5.697   1.106 -3.4925 -0.2793  0.3546
   82TIP3   OH2  251   5.003   5.500   0.023  0.0600 -0.2345  0.4690
   82TIP3    H1  252   4.993   5.583   0.069  1.8392  0.2813  0.0266
   82TIP3    H2  253   4.967   5.435   0.083  0.2062  0.6750  1.5796
   83TIP3   OH2  254   4.709   3.548   1.920 -0.0475  0.4051 -0.4569
   83TIP3    H1  255   4.711   3.626   1.974  2.0607  1.2072 -1.5931
   83TIP3    H2  256   4.755   3.572   1.840  1.3296 -2.1719 -0.5727
   84TIP3   OH2  257   5.350   5.510   0.588 -0.0144  0.0610 -0.2490
   84TIP3    H1  258   5.407   5.540   0.659  0.6517 -1.0714 -0.2773
   84TIP3    H2  259   5.261   5.514   0.625  0.3074 -0.3353  0.5955
   85TIP3   OH2  260   2.513   4.381   0.719 -0.4432  0.4592 -0.0128
   85TIP3    H1  261   2.471   4.296   0.729  1.3404 -0.4320  0.4552
   85TIP3    H2  262   2.479   4.434   0.791 -1.0195 -0.1012  0.1328
   86TIP3   OH2  263   0.520   3.976   5.082 -0.5445  0.1044  0.0242
   86TIP3    H1  264   0.564   3.900   5.119 -1.7756 -0.0405  1.2773
   86TIP3    H2  265   0.540   4.047   5.143 -1.8570  0.0721  0.5259
   87TIP3   OH2  266   2.960   4.489   4.520  0.2213  0.0442  0.5306
   87TIP3    H1  267   2.923   4.564   4.568  1.3071  0.4664  0.7553
   87TIP3    H2  268   3.054   4.507   4.519  0.4590 -1.1675  0.3009
   88TIP3   OH2  269   2.625   0.766   0.158  0.1798 -0.5946  0.0366
   88TIP3    H1  270   2.539   0.728   0.177  1.3324 -3.7712 -0.4151
   88TIP3    H2  271   2.639   0.747   0.065  1.8379 -1.2943  0.4016
   89TIP3   OH2  272   6.012   5.661   2.747  0.2497  0.1899  0.3987
   89TIP3    H1  273   6.052   5.610   2.818 -0.2745 -1.5374 -0.5076
   89TIP3    H2  274   6.026   5.609   2.668 -3.0569 -0.1703 -0.0993
   90TIP3   OH2  275   5.846   3.135   3.828  0.2320  0.1478  0.2319
   90TIP3    H1  276   5.855   3.059   3.885  0.6619  0.3882  0.4938
   90TIP3    H2  277   5.774   3.113   3.769  1.6310 -1.2938 -1.0265
   91TIP3   OH2  278   3.027   3.519   0.712 -0.5408 -0.5014 -0.1203
   91TIP3    H1  279   2.975   3.454   0.665 -0.7708  0.2655 -0.9363
   91TIP3    H2  280   3.066   3.470   0.784  1.9545 -2.3634 -2.5474
   92TIP3   OH2  281   0.605   2.775   3.182  0.9103  0.3552  0.1265
   92TIP3    H1  282   0.606   2.870   3.170  1.2620  0.4437  0.7647
   92TIP3    H2  283   0.589   2.763   3.276 -1.0801 -0.2669 -0.2423
   93TIP3   OH2  284   6.160   4.238   0.313  0.2424 -0.1701 -0.0714
   93TIP3    H1  285   6.210   4.291   0.251  0.2177 -0.7282 -0.5750
   93TIP3    H2  286   6.075   4.226   0.272  0.0459 -0.0941  0.3129
   94TIP3   OH2  287   1.831   5.658   2.934  0.0873  0.0280  0.2558
   94TIP3    H1  288   1.768   5.603   2.888 -1.2295 -0.9310  2.9896
   94TIP3    H2  289   1.902   5.598   2.957  2.0232  1.0404 -2.5455
   95TIP3   OH2  290   0.380   4.390   1.384  0.1134 -0.3326  0.4921
   95TIP3    H1  291   0.400   4.412   1.293 -1.7054  0.8681  0.3246
   95TIP3    H2  292   0.428   4.455   1.435 -0.5676  0.3495  0.2739
   96TIP3   OH2  293   3.569   2.352   2.466 -0.3319 -0.0147 -0.0188
   96TIP3    H1  294   3.602   2.340   2.377 -0.6869 -0.2295 -0.1212
   96TIP3    H2  295   3.488   2.402   2.455 -0.5933 -0.3991  0.1515
   97TIP3   OH2  296   4.912   0.009   2.418 -0.8249  0.2153  0.6887
   97TIP3    H1  297   4.887   0.095   2.453 -1.0187  0.6933 -0.5646
   97TIP3    H2  298   4.962   0.029   2.339 -2.7605 -0.8142 -0.8826
   98TIP3   OH2  299   5.897   4.682   0.014  0.0988  0.3377  0.2180
   98TIP3    H1  300   5.987   4.688  -0.018 -0.2027  0.0395 -0.7321
   98TIP3    H2  301   5.893   4.600   0.063  0.1688 -0.0096 -0.3497
   99TIP3   OH2  302   2.981   1.810   1.145 -0.4841  0.3285  0.0069
   99TIP3    H1  303   3.073   1.833   1.130 -0.8827  1.9582 -0.1082
   99TIP3    H2  304   2.975   1.718   1.118  1.1157  0.1746  0.0727
  100TIP3   OH2  305   3.451   2.104   0.623 -0.1882  0.1501 -0.0857
  100TIP3    H1  306   3.504   2.030   0.595 -1.1532 -0.4223 -0.4565
  100TIP3    H2  307   3.399   2.128   0.546  0.5092  1.5941 -0.1482
  101TIP3   OH2  308   3.291   5.642   4.502  0.2267 -0.0091 -0.0564
  101TIP3    H1  309   3.251   5.672   4.421  0.0791 -0.5135 -0.1727
  101TIP3    H2  310   3.233   5.676   4.571  0.9036  1.2935 -0.0905
  102TIP3   OH2  311   6.044   1.324   0.780 -0.1606  0.0775 -0.5075
  102TIP3    H1  312   6.015   1.264   0.848  0.1889 -0.2820 -0.6679
  102TIP3    H2  313   6.034   1.274   0.698 -2.7351  1.2745 -0.9984
  103TIP3   OH2  314   0.260   5.278   5.012 -0.6412 -0.1055 -0.0126
  103TIP3    H1  315   0.232   5.203   5.064  0.4555 -2.3382 -2.4056
  103TIP3    H2  316   0.356   5.275   5.016 -0.5619  0.3471 -1.2042
  104TIP3   OH2  317   0.714   4.997   0.721 -0.3956  0.4663  0.1042
  104TIP3    H1  318   0.623   4.976   0.700 -1.1234  1.3671  2.1747
  104TIP3    H2  319   0.718   4.996   0.816  1.6846  0.8187  0.0663
  105TIP3   OH2  320   0.678   5.668   0.614  0.0207  0.3114 -0.3050
  105TIP3    H1  321   0.755   5.614   0.627  0.0762  0.1061 -1.3943
  105TIP3    H2  322   0.642   5.681   0.702  1.5231  0.7620  0.2760
  106TIP3   OH2  323   2.771   5.507   3.444 -0.1259  0.2096 -0.6844
  106TIP3    H1  324   2.755   5.436   3.382 -0.6877 -0.2694  0.0002
  106TIP3    H2  325   2.709   5.492   3.515  0.5025  0.7454 -0.0003
  107TIP3   OH2  326   2.193   2.677   2.493 -0.0735  0.2153  0.4482
  107TIP3    H1  327   2.098   2.676   2.482 -0.3253  1.9467  1.9878
  107TIP3    H2  328   2.218   2.585   2.488 -1.8128 -0.2699 -0.0624
  108TIP3   OH2  329   2.583   2.374   3.422  0.1815  0.8617  0.6711
  108TIP3    H1  330   2.498   2.334   3.404  0.2872  0.9777 -0.1350
  108TIP3    H2  331   2.570   2.467   3.401  0.2770  1.0348  1.3556
  109TIP3   OH2  332   4.058   1.385   4.774 -0.4224 -0.3143 -0.7733
  109TIP3    H1  333   3.999   1.439   4.723 -1.8892 -0.9364  0.2106
  109TIP3    H2  334   4.064   1.302   4.727 -0.4101 -0.2843 -0.8238
  110TIP3   OH2  335   1.190   5.094   5.015 -0.2175  0.0300 -0.4106
  110TIP3    H1  336   1.207   5.142   5.096 -1.3765 -1.5781  0.8599
  110TIP3    H2  337   1.095   5.084   5.013 -0.0046 -2.5696 -0.3273
  111TIP3   OH2  338   4.544   5.923   0.412 -0.0611 -0.1496 -0.3566
  111TIP3    H1  339   4.599   5.883   0.344  0.3645 -0.4756  0.1759
  111TIP3    H2  340   4.467   5.867   0.416 -1.4088  1.3966 -2.4937
  112TIP3   OH2  341   5.761   1.230   2.044  0.4432 -1.0417 -0.2521
  112TIP3    H1  342   5.765   1.199   1.953  1.3840 -0.6993 -0.3428
  112TIP3    H2  343   5.811   1.312   2.043  2.5664 -2.2292  1.0404
  113TIP3   OH2  344   0.471   4.980   2.916 -0.2591  0.4676 -0.6640
  113TIP3    H1  345   0.561   4.981   2.882  0.5068  1.0079  1.2092
  113TIP3    H2  346   0.449   5.072   2.928 -0.3841  0.3134  0.4624
  114TIP3   OH2  347   2.064   4.873   2.334 -0.1511 -0.2577 -0.3257
  114TIP3    H1  348   2.035   4.960   2.362 -0.9737 -0.0967 -1.6002
  114TIP3    H2  349   2.015   4.856   2.254 -0.1380 -1.9914 -0.0001
  115TIP3   OH2  350   4.060   5.735   4.484 -0.1963 -0.0108  0.0298
  115TIP3    H1  351   4.032   5.777   4.566 -0.1046  0.8890 -0.3895
  115TIP3    H2  352   4.121   5.797   4.445  0.4743 -0.8388 -0.2902
  116TIP3   OH2  353   0.715   4.649   1.946  0.0563  0.5689 -0.3098
  116TIP3    H1  354   0.766   4.730   1.953 -0.7597  1.0235  0.9552
  116TIP3    H2  355   0.705   4.620   2.037  1.1601 -1.5127 -0.8131
  117TIP3   OH2  356   6.082   3.381   2.874  0.0960 -0.1597  0.2467
  117TIP3    H1  357   6.033   3.422   2.803  0.3081 -1.4282 -0.6525
  117TIP3    H2  358   6.152   3.333   2.830  0.0333 -1.2303  1.2927
  118TIP3   OH2  359   2.355   5.848   3.827 -0.0237  0.1400  0.0018
  118TIP3    H1  360   2.393   5.778   3.881 -2.8126  0.0343  2.0256
  118TIP3    H2  361   2.343   5.920   3.888 -2.7993  0.2258 -0.5417
  119TIP3   OH2  362   5.160   3.199   0.548  0.2080 -0.6051  0.3277
  119TIP3    H1  363   5.227   3.156   0.495 -1.0801 -1.0042 -1.0427
  119TIP3    H2  364   5.106   3.127   0.581  0.2568 -0.2718  1.1484
  120TIP3   OH2  365   1.125   2.114   2.945  0.9615  0.0564  0.0341
  120TIP3    H1  366   1.191   2.184   2.945  1.0159  0.2121 -3.4627
  120TIP3    H2  367   1.161   2.048   2.886 -0.4159 -1.6110  0.9613
  121TIP3   OH2  368   3.876   4.793   1.983 -0.0752 -0.4763 -0.0461
  121TIP3    H1  369   3.865   4.879   1.942  0.4856  0.1414  1.0522
  121TIP3    H2  370   3.853   4.807   2.075 -0.7889 -1.7058 -0.0037
  122TIP3   OH2  371   1.900   2.650   2.901 -0.1507 -0.1695 -0.2078
  122TIP3    H1  372   1.928   2.700   2.824  0.7916 -0.7411 -0.2492
  122TIP3    H2  373   1.965   2.671   2.968 -0.2627 -0.6329  0.0503
  123TIP3   OH2  374   3.726   2.626   0.667 -0.2543  0.2498 -0.1423
  123TIP3    H1  375   3.653   2.565   0.659 -0.9231  1.2179 -1.9269
  123TIP3    H2  376   3.799   2.581   0.624  0.6286 -1.2017  2.6123
  124TIP3   OH2  377   0.400   3.613   1.240 -0.0827 -0.0754  0.3344
  124TIP3    H1  378   0.306   3.630   1.237 -0.1535  0.0864  2.3323
  124TIP3    H2  379   0.436   3.664   1.167 -1.5940 -0.6881 -0.8870
  125TIP3   OH2  380   4.942   0.951   1.823  0.8415 -0.1357 -0.1574
  125TIP3    H1  381   4.885   1.023   1.852  0.2349 -0.2364 -1.0625
  125TIP3    H2  382   4.963   0.904   1.904 -2.7781 -1.8530 -0.0437
  126TIP3   OH2  383   2.137   2.086   1.944 -0.8016  0.1570  0.0954
  126TIP3    H1  384   2.072   2.022   1.915  0.4401 -1.1136 -0.0282
  126TIP3    H2  385   2.214   2.033   1.964 -0.3428  1.4326  1.9077
  127TIP3   OH2  386   2.691   1.534   4.962  0.0763 -0.0790 -0.5585
  127TIP3    H1  387   2.622   1.564   5.020  0.6099  0.6456 -0.2903
  127TIP3    H2  388   2.708   1.607   4.903  1.0867  0.0156 -0.1790
  128TIP3   OH2  389   5.609   4.462   3.879 -0.2544 -0.2928 -0.2747
  128TIP3    H1  390   5.684   4.419   3.921 -0.0739 -1.3441 -1.5959
  128TIP3    H2  391   5.619   4.555   3.902 -0.4583 -0.8565  2.3539
  129TIP3   OH2  392   5.988   5.301   2.800  0.1684 -0.3730 -0.0147
  129TIP3    H1  393   6.036   5.324   2.720 -0.8794  1.0328 -0.2743
  129TIP3    H2  394   5.908   5.260   2.768  0.6530 -1.6867  0.3929
  130TIP3   OH2  395   5.894   1.158   4.961 -0.5826  0.1063  0.1761
  130TIP3    H1  396   5.897   1.207   4.879 -0.4507 -0.8999 -0.4235
  130TIP3    H2  397   5.950   1.209   5.020 -1.8075  1.6148  0.1001
  131TIP3   OH2  398   5.297   0.549   4.161  0.8807  0.0735 -0.0290
  131TIP3    H1  399   5.370   0.548   4.099  2.4712  2.1422  1.6345
  131TIP3    H2  400   5.275   0.641   4.170 -0.9324 -0.3945  0.6852
  132TIP3   OH2  401   1.400   2.549   0.795  0.0493  0.7149 -0.0579
  132TIP3    H1  402   1.406   2.598   0.713 -0.7564 -1.5647 -1.5816
  132TIP3    H2  403   1.315   2.505   0.790 -0.4344  1.2306  2.4777
  133TIP3   OH2  404   1.686   4.684   1.852  0.7969  0.0456 -0.3262
  133TIP3    H1  405   1.704   4.743   1.779 -0.8889  1.4053  0.2831
  133TIP3    H2  406   1.646   4.740   1.919  0.6472 -1.4912  0.9220
  134TIP3   OH2  407  -0.017   4.103   3.391  0.2750 -0.4326  0.6001
  134TIP3    H1  408  -0.058   4.032   3.341 -1.1967  1.0977 -0.4917
  134TIP3    H2  409   0.076   4.098   3.370  0.1278 -1.7359  0.1846
  135TIP3   OH2  410   4.329   1.437   2.752  0.5513 -0.1600 -0.1236
  135TIP3    H1  411   4.387   1.362   2.738  1.0508  0.6140 -2.6710
  135TIP3    H2  412   4.243   1.406   2.723  0.4668 -0.1367  0.0954
  136TIP3   OH2  413   3.921   2.026   3.348 -0.9098  0.1949  0.2124
  136TIP3    H1  414   3.854   2.094   3.343 -0.7548  0.3151 -0.3607
  136TIP3    H2  415   3.951   2.016   3.257 -0.2279  0.0721  0.4467
  137TIP3   OH2  416   2.186   2.489   4.599  0.0820 -0.0467  0.0525
  137TIP3    H1  417   2.205   2.544   4.675  0.5058 -0.6642  0.4047
  137TIP3    H2  418   2.168   2.403   4.636  1.7495 -0.7296 -0.6189
  138TIP3   OH2  419   4.311   3.586   1.466  0.5568 -0.9021 -0.5972
  138TIP3    H1  420   4.269   3.635   1.395  1.3679  0.3095 -0.2853
  138TIP3    H2  421   4.405   3.591   1.445  0.8751  0.1721  0.9580
  139TIP3   OH2  422   1.180   5.370   2.611 -0.4885  0.4565 -0.1244
  139TIP3    H1  423   1.235   5.314   2.556  0.9357  0.9273  0.7646
  139TIP3    H2  424   1.106   5.393   2.556 -0.1971 -0.8471 -1.1031
  140TIP3   OH2  425   4.239   1.785   1.029 -0.0872 -0.3534  0.4538
  140TIP3    H1  426   4.183   1.722   0.984  0.3534  0.3460 -1.1418
  140TIP3    H2  427   4.273   1.737   1.105  1.5463 -2.6404 -1.5650
  141TIP3   OH2  428   1.733   4.339   0.867  0.1437 -0.4796 -0.0709
  141TIP3    H1  429   1.763   4.254   0.835 -0.0275 -0.3367 -0.6305
  141TIP3    H2  430   1.661   4.362   0.809  0.6445  0.3740 -0.3731
  142TIP3   OH2  431   2.891   4.293   2.431  0.1295 -0.3491 -0.5402
  142TIP3    H1  432   2.867   4.274   2.522 -0.1845 -0.7228 -0.6973
  142TIP3    H2  433   2.808   4.288   2.383  0.2387  0.1931 -0.7910
  143TIP3   OH2  434   1.154   2.853   5.012  0.0684  0.0382 -0.0220
  143TIP3    H1  435   1.121   2.927   4.960 -0.5603  0.6958  1.2714
  143TIP3    H2  436   1.245   2.876   5.030 -0.2570  0.7444  0.7746
  144TIP3   OH2  437   3.417   1.649   0.439  0.4460 -0.4842 -0.3024
  144TIP3    H1  438   3.370   1.636   0.521  0.7733 -0.1115 -0.0507
  144TIP3    H2  439   3.395   1.573   0.385  1.8148 -1.7623  0.8709
  145TIP3   OH2  440   0.786   1.470   1.490 -0.2777 -0.2596  0.4300
  145TIP3    H1  441   0.797   1.457   1.584  2.5056  0.5928  0.3094
  145TIP3    H2  442   0.867   1.439   1.452 -1.2902 -0.4333 -1.7185
  146TIP3   OH2  443   5.965   5.083   0.398 -0.4614  0.1282 -0.0284
  146TIP3    H1  444   5.976   5.100   0.492 -1.0427  0.4580 -0.0122
  146TIP3    H2  445   6.054   5.070   0.365 -0.1772  0.8469  0.4184
  147TIP3   OH2  446   2.391   0.976   0.172  0.0000  0.3409 -0.2086
  147TIP3    H1  447   2.378   1.071   0.165 -1.1872  0.2596  0.5009
  147TIP3    H2  448   2.486   0.966   0.180  0.1317  1.4979 -0.0102
  148TIP3   OH2  449   1.859   4.410   2.877 -0.1746  0.3584  0.0787
  148TIP3    H1  450   1.947   4.445   2.891 -0.2392  0.8800 -0.7216
  148TIP3    H2  451   1.863   4.369   2.790 -0.7508  0.4892 -0.0127
  149TIP3   OH2  452   3.389   0.670   1.580  0.0718  0.2452  0.0924
  149TIP3    H1  453   3.435   0.754   1.584  2.8250 -1.0110 -2.0783
  149TIP3    H2  454   3.441   0.611   1.633  0.7597 -1.0749 -1.9178
  150TIP3   OH2  455   0.135   4.086   4.104 -0.1713  0.0651  0.4181
  150TIP3    H1  456   0.046   4.119   4.096 -0.1910  0.3013  1.4201
  150TIP3    H2  457   0.179   4.150   4.160  0.3315 -0.5881  0.7798
  151TIP3   OH2  458   4.659   2.576   3.996 -0.4888  0.4606 -0.0576
  151TIP3    H1  459   4.567   2.577   4.020 -0.2309  0.1126  1.0086
  151TIP3    H2  460   4.682   2.668   3.983 -1.4305  0.4297 -2.1950
  152TIP3   OH2  461   0.202   4.856   4.126 -0.0892 -0.1460  0.0046
  152TIP3    H1  462   0.118   4.891   4.155  0.1451  0.1249  0.3680
  152TIP3    H2  463   0.247   4.930   4.087 -0.2896 -0.4468 -0.8121
  153TIP3   OH2  464   3.364   1.523   4.446  0.1109 -0.4334  0.1562
  153TIP3    H1  465   3.368   1.611   4.407  1.0662 -1.1474 -1.4996
  153TIP3    H2  466   3.427   1.526   4.517 -1.2305  0.7417  1.3566
  154TIP3   OH2  467   5.859   4.838   1.451 -0.0035 -0.1347  0.1342
  154TIP3    H1  468   5.949   4.807   1.463  0.2920  0.9886  0.9896
  154TIP3    H2  469   5.817   4.825   1.536 -0.7255 -0.8470 -0.3184
  155TIP3   OH2  470   4.388   2.908   2.532 -0.1478 -0.5643 -0.0209
  155TIP3    H1  471   4.476   2.919   2.567  0.0694 -0.5629 -0.5613
  155TIP3    H2  472   4.334   2.886   2.609 -0.4225  3.0738  0.9787
  156TIP3   OH2  473   3.035   1.329   0.229  0.5409  0.2197  0.2268
  156TIP3    H1  474   3.060   1.374   0.148  0.7389  0.0661  0.2002
  156TIP3    H2  475   3.036   1.236   0.206 -2.7166  0.2582 -0.5294
  157TIP3   OH2  476   3.703   5.335   4.630 -0.5408 -0.0077  0.3968
  157TIP3    H1  477   3.708   5.334   4.726 -0.8019  0.7442  0.4255
  157TIP3    H2  478   3.612   5.357   4.612  0.1472  3.1287  0.0264
  158TIP3   OH2  479   2.488   5.796   4.711  0.8176 -0.3369  0.6680
  158TIP3    H1  480   2.536   5.777   4.630  0.1258  1.0752 -0.1015
  158TIP3    H2  481   2.396   5.800   4.685  0.4349 -1.2243  1.7989
  159TIP3   OH2  482   3.707   0.409   2.036 -0.3782  0.1660 -0.1826
  159TIP3    H1  483   3.685   0.502   2.043 -0.0607  0.3024 -0.8957
  159TIP3    H2  484   3.755   0.402   1.953 -0.9818 -0.7432 -0.4649
  160TIP3   OH2  485   2.968   1.221   0.679 -0.6330  0.3050 -0.2265
  160TIP3    H1  486   3.005   1.174   0.604  0.0781 -1.4425  1.1504
  160TIP3    H2  487   2.894   1.167   0.707  0.2367 -0.0894  1.4322
  161TIP3   OH2  488   6.222   4.542   0.554  0.3595 -0.1710  0.0389
  161TIP3    H1  489   6.231   4.447   0.539 -1.1033 -0.2587 -0.4514
  161TIP3    H2  490   6.149   4.550   0.616  1.7678  0.5727  1.6780
  162TIP3   OH2  491   2.871   3.648   4.616  0.1365 -0.4942 -0.3111
  162TIP3    H1  492   2.964   3.647   4.594  0.5600 -1.5572  1.3712
  162TIP3    H2  493   2.836   3.569   4.576  0.4636 -1.3110  0.9741
  163TIP3   OH2  494   4.251   0.218   2.005 -0.0402 -0.2020  0.5163
  163TIP3    H1  495   4.258   0.177   2.092 -1.6469 -1.2314  0.2067
  163TIP3    H2  496   4.328   0.187   1.957  0.6708  0.0828  1.4400
  164TIP3   OH2  497   2.232   4.960   4.519  0.0175 -0.0571  0.1826
  164TIP3    H1  498   2.279   5.041   4.498 -0.6533  0.0974 -0.7440
  164TIP3    H2  499   2.183   4.981   4.598  0.3749  0.2266  0.3332
  165TIP3   OH2  500   5.076   1.757   3.176 -0.2587 -0.8079  0.3627
  165TIP3    H1  501   4.985   1.743   3.200 -0.4693 -1.3247 -0.7110
  165TIP3    H2  502   5.073   1.807   3.095  0.4453  0.6437  1.1881
  166TIP3   OH2  503   4.784   3.391   3.102  0.5295  0.3549  0.2533
  166TIP3    H1  504   4.822   3.337   3.034  2.3206  0.8851  0.7655
  166TIP3    H2  505   4.830   3.365   3.182  1.8213  2.8434  0.4495
  167TIP3   OH2  506   4.010   1.006   3.065 -0.3704 -0.5549  0.4514
  167TIP3    H1  507   3.977   1.086   3.024  0.0361 -0.5810  0.0579
  167TIP3    H2  508   3.940   0.978   3.124 -0.8009 -0.3000  0.0651
  168TIP3   OH2  509   1.904   1.164   4.602  0.1166  0.0657 -0.0226
  168TIP3    H1  510   1.973   1.150   4.666  1.2641  1.3374 -0.9369
  168TIP3    H2  511   1.936   1.234   4.545 -0.7903 -1.0719 -2.0837
  169TIP3   OH2  512   1.162   1.565   4.716  0.1058 -0.1773  0.1213
  169TIP3    H1  513   1.247   1.590   4.681 -0.6084  0.9360 -0.8849
  169TIP3    H2  514   1.136   1.640   4.770 -0.3447 -0.4234  0.2469
  170TIP3   OH2  515   5.019   4.318   0.327  0.1619 -0.6752 -0.2554
  170TIP3    H1  516   5.013   4.254   0.398  1.9835 -1.8182 -1.0506
  170TIP3    H2  517   4.969   4.280   0.255 -2.2183  0.7710  0.5115
  171TIP3   OH2  518   1.942   0.660   1.915  0.3578  0.2144 -0.4537
  171TIP3    H1  519   1.884   0.684   1.987  0.0898  0.8601 -0.8812
  171TIP3    H2  520   1.980   0.577   1.942  0.4804  0.5879  0.5713
  172TIP3   OH2  521   3.982   3.170   3.303  0.2255  0.0972 -0.5300
  172TIP3    H1  522   3.966   3.078   3.324  2.7969 -0.4035 -0.3458
  172TIP3    H2  523   3.940   3.218   3.374  1.2939 -1.1360  1.0266
  173TIP3   OH2  524   4.387   1.584   0.321 -0.3134 -0.0337  0.4204
  173TIP3    H1  525   4.453   1.522   0.352  0.7839  1.2717  0.8086
  173TIP3    H2  526   4.329   1.597   0.396 -0.5377 -0.5523  0.3441
  174TIP3   OH2  527   1.398   3.419   4.625  0.3198  0.1570 -0.2144
  174TIP3    H1  528   1.335   3.469   4.676  1.7577 -0.1302  1.9576
  174TIP3    H2  529   1.419   3.343   4.679  0.9004 -0.9162 -1.8541
  175TIP3   OH2  530   1.786   2.510   0.748  0.1549  0.4092 -0.2300
  175TIP3    H1  531   1.843   2.450   0.699  0.8778 -0.7069  1.8489
  175TIP3    H2  532   1.784   2.474   0.837 -0.4226  2.7986  0.8006
  176TIP3   OH2  533   4.683   0.878   3.006 -0.2580  0.9625  0.3669
  176TIP3    H1  534   4.616   0.813   3.025 -1.1964  1.3281 -1.4102
  176TIP3    H2  535   4.634   0.960   2.998  0.6499  1.5535  0.7340
  177TIP3   OH2  536   3.343   5.368   0.386 -0.7678 -0.1532  0.1238
  177TIP3    H1  537   3.265   5.340   0.339 -0.5658  0.4017 -0.5614
  177TIP3    H2  538   3.388   5.286   0.408 -1.1814 -0.4446 -0.0970
  178TIP3   OH2  539   5.427   2.068   0.636 -0.2495 -0.3164  0.4347
  178TIP3    H1  540   5.432   2.042   0.544  0.2207  0.1711  0.3153
  178TIP3    H2  541   5.504   2.124   0.649 -1.5584  1.5395  0.5110
  179TIP3   OH2  542   2.196   2.288   3.136 -0.3300  0.3260 -0.1905
  179TIP3    H1  543   2.171   2.348   3.066  0.5713 -0.2173 -1.0052
  179TIP3    H2  544   2.129   2.220   3.134 -0.3744  0.3763 -0.4431
  180TIP3   OH2  545   0.890   2.275   0.485  0.5609  0.0635  0.0955
  180TIP3    H1  546   0.967   2.288   0.429  0.8470 -0.0361  0.4671
  180TIP3    H2  547   0.819   2.321   0.439  1.1585  1.4296  0.4887
  181TIP3   OH2  548   4.299   1.963   4.587 -0.4261 -0.0010 -0.7383
  181TIP3    H1  549   4.346   1.880   4.590  1.3580  0.9182 -1.4484
  181TIP3    H2  550   4.276   1.974   4.494  1.1555  1.1927 -1.0348
  182TIP3   OH2  551   1.234   3.762   0.854 -0.0905  0.2111 -0.1564
  182TIP3    H1  552   1.172   3.690   0.839  0.2525  0.0201 -0.6875
  182TIP3    H2  553   1.311   3.719   0.890 -0.6371  0.5774  1.5145
  183TIP3   OH2  554   4.121   3.847   2.947 -0.0992  0.0272 -0.3958
  183TIP3    H1  555   4.186   3.808   2.889  0.0869 -1.5353  0.7758
  183TIP3    H2  556   4.051   3.781   2.951 -1.7309  1.5869 -1.4929
  184TIP3   OH2  557   5.614   5.744   3.818  0.1616 -0.0421 -0.2692
  184TIP3    H1  558   5.649   5.658   3.795  0.1359 -0.3279  0.7150
  184TIP3    H2  559   5.658   5.805   3.759  2.6838 -0.3357  1.1739
  185TIP3   OH2  560   3.963   4.381   5.128 -0.0105 -0.1676 -0.1631
  185TIP3    H1  561   3.916   4.301   5.105  0.7758 -0.5052 -0.6283
  185TIP3    H2  562   4.030   4.354   5.190  1.2936 -0.1682 -1.5238
  186TIP3   OH2  563   6.231   3.658   0.537  0.0869  0.5740  0.0914
  186TIP3    H1  564   6.264   3.672   0.625  0.7928 -1.1109  0.1303
  186TIP3    H2  565   6.137   3.672   0.544  0.3697  2.5248  0.6202
  187TIP3   OH2  566   2.710   3.904   0.160  0.0064 -0.1321 -0.2596
  187TIP3    H1  567   2.637   3.929   0.217 -1.5856 -1.6530 -1.5258
  187TIP3    H2  568   2.689   3.942   0.075  0.7797 -0.4317 -0.5923
  188TIP3   OH2  569   6.207   1.865   1.938  0.3644  0.6794  0.8392
  188TIP3    H1  570   6.265   1.942   1.939 -0.5941  1.4443  0.0558
  188TIP3    H2  571   6.235   1.816   1.860  0.4175  0.6877  0.8530
  189TIP3   OH2  572   2.922   1.048   1.241  0.1128 -0.6306  0.6866
  189TIP3    H1  573   3.012   1.038   1.209  0.1245  3.0523 -0.9871
  189TIP3    H2  574   2.929   1.043   1.336  1.9793 -1.0582  0.5679
  190TIP3   OH2  575   5.600   2.777   3.801  0.0296  0.4770  0.3828
  190TIP3    H1  576   5.512   2.770   3.838  0.3521 -3.1207  0.8295
  190TIP3    H2  577   5.641   2.848   3.850 -2.2109  1.4224  1.0167
  191TIP3   OH2  578   4.127   4.441   0.770 -0.1031 -0.6182 -0.0322
  191TIP3    H1  579   4.105   4.518   0.823 -1.0681 -0.6035 -0.4417
  191TIP3    H2  580   4.069   4.372   0.802 -1.6793 -0.2538 -1.9342
  192TIP3   OH2  581   0.431   4.935   4.357  0.0367  0.6897 -0.2468
  192TIP3    H1  582   0.507   4.964   4.408 -0.0768  0.2165  0.2044
  192TIP3    H2  583   0.356   4.978   4.399  0.0619  1.2895 -0.7937
  193TIP3   OH2  584   5.724   0.980   5.213 -0.2040  0.1710  0.0062
  193TIP3    H1  585   5.654   0.945   5.158 -1.4012  1.9887  0.3043
  193TIP3    H2  586   5.802   0.975   5.158 -0.4100 -2.2678 -0.1912
  194TIP3   OH2  587   3.130   0.898   1.749  0.7142  0.1684  0.3540
  194TIP3    H1  588   3.074   0.885   1.826  0.6923  1.6183  0.6144
  194TIP3    H2  589   3.212   0.855   1.772  0.3060 -0.4485  0.6940
  195TIP3   OH2  590   3.212   5.521   1.734 -0.1773  0.1697  0.5361
  195TIP3    H1  591   3.139   5.572   1.699  0.1906 -0.5863 -1.4515
  195TIP3    H2  592   3.289   5.552   1.685  0.3399 -1.0225  0.5622
  196TIP3   OH2  593   3.940   5.911   3.451  0.0283  0.3555 -0.4497
  196TIP3    H1  594   4.023   5.875   3.422 -0.2095  0.0899 -0.8118
  196TIP3    H2  595   3.903   5.842   3.507  0.6747  1.0312  0.8483
  197TIP3   OH2  596   0.772   3.804   0.389 -0.0757  0.3337  0.2072
  197TIP3    H1  597   0.866   3.810   0.375 -0.0369 -1.4211 -0.5477
  197TIP3    H2  598   0.755   3.711   0.402 -1.4563  0.8073  2.4070
  198TIP3   OH2  599   0.842   4.423   0.047 -0.1251  0.1079 -0.2394
  198TIP3    H1  600   0.781   4.495   0.037 -0.5298 -0.5219 -3.2775
  198TIP3    H2  601   0.867   4.399  -0.042  2.1895 -1.6798  0.7523
  199TIP3   OH2  602   5.667   5.451   2.497  0.3511 -0.3932 -0.3979
  199TIP3    H1  603   5.685   5.398   2.574  1.9565  1.8065  0.8676
  199TIP3    H2  604   5.582   5.421   2.466 -0.2878 -1.4676  2.1476
  200TIP3   OH2  605   3.358   3.049   0.813  0.6204  0.3497  0.4345
  200TIP3    H1  606   3.352   3.041   0.718 -1.2334  1.1081  0.4456
  200TIP3    H2  607   3.399   2.968   0.842  0.5780 -0.1917 -0.9623
  201TIP3   OH2  608   3.099   4.412   1.172  0.6007  0.6103  0.2491
  201TIP3    H1  609   3.151   4.484   1.136  0.9791  0.2151  0.0032
  201TIP3    H2  610   3.034   4.456   1.228  0.4928  1.1762 -0.3036
  202TIP3   OH2  611   0.630   1.624   1.313 -1.0699 -0.2592 -0.2173
  202TIP3    H1  612   0.667   1.572   1.384  0.2706  0.1550 -0.5791
  202TIP3    H2  613   0.697   1.622   1.244 -2.4434 -0.8831 -1.5944
  203TIP3   OH2  614   4.967   0.265   3.134  0.7721  0.0532 -0.0783
  203TIP3    H1  615   5.037   0.206   3.106  0.3072 -0.5117 -0.0509
  203TIP3    H2  616   4.889   0.211   3.139  0.3380  0.6655 -0.0327
  204TIP3   OH2  617   3.170   0.953   3.001 -0.2594  0.0382  0.3310
  204TIP3    H1  618   3.254   0.940   3.044 -0.7047  0.7763  1.4844
  204TIP3    H2  619   3.105   0.938   3.071 -1.0685 -0.1451 -0.4405
  205TIP3   OH2  620   0.093   2.936   4.674  1.1747  0.0154  0.6133
  205TIP3    H1  621   0.072   2.843   4.673 -0.9122  0.4516  0.9271
  205TIP3    H2  622   0.027   2.977   4.618 -0.0431  1.6723  3.0685
  206TIP3   OH2  623   2.381   2.693   0.518  0.1773  0.0291  0.2628
  206TIP3    H1  624   2.323   2.765   0.494  1.1164  0.6463 -0.2178
  206TIP3    H2  625   2.371   2.685   0.613  1.5970  2.2080  0.6759
  207TIP3   OH2  626   0.528   5.830   4.794 -0.0085  0.6184  0.1380
  207TIP3    H1  627   0.569   5.790   4.871  0.1841 -0.0537 -0.2997
  207TIP3    H2  628   0.576   5.912   4.782 -0.4442  1.0199  1.0836
  208TIP3   OH2  629   4.856   0.904   4.090  0.2948 -0.3110 -0.3928
  208TIP3    H1  630   4.837   0.988   4.132  1.9080 -1.0399  2.0314
  208TIP3    H2  631   4.771   0.873   4.060 -1.2057  0.0867  2.9184
  209TIP3   OH2  632   5.172   5.270   4.706 -0.4291 -0.3166 -0.7958
  209TIP3    H1  633   5.239   5.315   4.655 -0.0953  0.8841  0.6105
  209TIP3    H2  634   5.213   5.187   4.732  0.7064  0.5715  0.3725
  210TIP3   OH2  635   1.027   1.365   2.493 -0.2770 -0.1529 -0.6166
  210TIP3    H1  636   1.117   1.390   2.510 -0.8529  2.5949 -1.1271
  210TIP3    H2  637   1.009   1.294   2.555  1.6535  0.5219  0.7995
  211TIP3   OH2  638   3.502   1.393   0.733  0.3312  0.2074  0.2235
  211TIP3    H1  639   3.435   1.454   0.704  1.1017  0.5108 -0.9866
  211TIP3    H2  640   3.532   1.428   0.817  0.0807  0.9443  0.0135
  212TIP3   OH2  641   2.719   3.485   0.315  0.5009 -0.4247  0.2399
  212TIP3    H1  642   2.740   3.577   0.333  0.1756 -0.3869  0.4375
  212TIP3    H2  643   2.636   3.488   0.268  0.6083 -0.6066  0.0365
  213TIP3   OH2  644   1.184   1.862   4.536  0.1043  0.1467  0.3165
  213TIP3    H1  645   1.095   1.828   4.544 -1.1183  2.2886 -2.4783
  213TIP3    H2  646   1.199   1.908   4.619 -0.8491 -1.2782  1.3269
  214TIP3   OH2  647   2.966   3.905   4.521  0.2542 -0.1713 -0.3975
  214TIP3    H1  648   2.966   3.810   4.510 -0.0288 -0.4009  1.3309
  214TIP3    H2  649   2.938   3.919   4.611  0.8216  1.5444 -0.4475
  215TIP3   OH2  650   3.979   4.527   1.850  0.2470  0.5299 -0.3126
  215TIP3    H1  651   4.059   4.529   1.797 -0.8066  0.2957 -1.9894
  215TIP3    H2  652   3.962   4.618   1.872  0.2638  0.7301 -1.0946
  216TIP3   OH2  653   0.776   5.049   1.702  0.2610 -0.0069 -0.3953
  216TIP3    H1  654   0.799   5.089   1.786  0.3958 -0.8613 -0.0197
  216TIP3    H2  655   0.726   4.971   1.725  0.3882 -0.3068 -1.1029
  217TIP3   OH2  656   2.328   1.851   0.701 -0.4004 -0.1939 -0.8620
  217TIP3    H1  657   2.348   1.914   0.632  0.1305 -0.0820 -0.6121
  217TIP3    H2  658   2.299   1.904   0.775  1.1135 -0.1302 -0.2697
  218TIP3   OH2  659   2.930   2.433   0.480 -0.0277 -0.0144  0.1901
  218TIP3    H1  660   2.946   2.486   0.402  1.7168 -1.4341 -0.4844
  218TIP3    H2  661   2.846   2.390   0.463  0.6033 -0.7574 -1.2038
  219TIP3   OH2  662   4.195   1.678   3.882 -0.1239 -0.4093 -1.0433
  219TIP3    H1  663   4.280   1.721   3.878 -0.7950  0.9874 -0.7899
  219TIP3    H2  664   4.149   1.707   3.802 -1.2621  0.8812  0.0222
  220TIP3   OH2  665   3.735   5.894   4.591 -0.5795 -0.5850 -0.0510
  220TIP3    H1  666   3.750   5.967   4.530  0.1297 -0.4980  0.2168
  220TIP3    H2  667   3.778   5.922   4.672 -1.4295 -0.7397  0.4699
  221TIP3   OH2  668   6.074   1.250   1.766  0.0872  0.1557  0.0333
  221TIP3    H1  669   6.145   1.296   1.720 -0.4504 -1.4060 -2.5676
  221TIP3    H2  670   6.043   1.313   1.831  2.5148  1.6198 -0.0842
  222TIP3   OH2  671   5.190   5.246   0.057  0.0079  0.0988 -0.0743
  222TIP3    H1  672   5.243   5.325   0.072 -2.5245  1.6331  1.5751
  222TIP3    H2  673   5.133   5.269  -0.017  1.0542 -1.2746 -1.3812
  223TIP3   OH2  674   2.068   3.262   2.552 -0.2780  0.1341 -0.5989
  223TIP3    H1  675   2.078   3.347   2.594 -0.9338 -0.2397  0.3547
  223TIP3    H2  676   1.987   3.270   2.502 -0.3846  0.0477 -0.4413
  224TIP3   OH2  677   3.695   1.597   4.264  0.4684 -0.0506  0.4840
  224TIP3    H1  678   3.787   1.573   4.271  0.4370 -0.7293 -1.0981
  224TIP3    H2  679   3.649   1.514   4.255 -0.2457  0.3134  0.6792
  225TIP3   OH2  680   3.012   2.742   0.651  0.7261  0.3404 -0.5806
  225TIP3    H1  681   3.081   2.809   0.650  1.7739 -0.7173 -0.5873
  225TIP3    H2  682   2.951   2.773   0.717  2.1195  0.4044  0.7401
  226TIP3   OH2  683   4.528   3.351   1.993  0.0996 -0.0908  0.5233
  226TIP3    H1  684   4.495   3.371   2.080 -0.6264 -0.1555  0.2637
  226TIP3    H2  685   4.584   3.425   1.971  0.5552 -0.2253  1.1729
  227TIP3   OH2  686   1.571   4.850   3.797  0.1973  0.0641 -0.4090
  227TIP3    H1  687   1.513   4.832   3.870  1.1084  0.2572  0.3865
  227TIP3    H2  688   1.533   4.801   3.723  1.2034 -3.1858  1.0510
  228TIP3   OH2  689   4.321   0.592   0.373  0.2055  0.4500  0.3202
  228TIP3    H1  690   4.236   0.553   0.354  0.3226  0.7851 -0.9710
  228TIP3    H2  691   4.300   0.674   0.417 -0.2353  1.3404 -1.4573
  229TIP3   OH2  692  -0.017   5.904   3.024 -0.8240  0.0562  0.6007
  229TIP3    H1  693   0.034   5.946   3.093  1.2940 -3.0540  1.1528
  229TIP3    H2  694   0.047   5.848   2.979 -1.8838  2.3892 -4.4600
  230TIP3   OH2  695   2.421   2.923   3.621  0.1359 -0.0871  0.2684
  230TIP3    H1  696   2.342   2.913   3.568  0.0836  3.9141 -0.7583
  230TIP3    H2  697   2.388   2.926   3.711 -0.7721  0.4588 -0.0648
  231TIP3   OH2  698   3.012   2.329   1.429  0.2686 -0.2245 -0.2464
  231TIP3    H1  699   3.088   2.317   1.485  0.2178  1.4644  0.2390
  231TIP3    H2  700   3.008   2.249   1.376  1.2003 -1.1973  1.0888
  232TIP3   OH2  701   5.303   1.377   2.987  0.0437  0.0880 -0.0715
  232TIP3    H1  702   5.269   1.465   3.006 -2.1202 -0.7234  0.0362
  232TIP3    H2  703   5.297   1.331   3.071 -0.7699 -0.7433 -0.5720
  233TIP3   OH2  704   0.838   1.708   3.705 -0.0167 -0.2036  0.2354
  233TIP3    H1  705   0.765   1.748   3.659  1.1440  0.7246 -0.8746
  233TIP3    H2  706   0.830   1.739   3.795 -1.9235 -1.4912  0.5664
  234TIP3   OH2  707   3.263   0.647   3.638  0.3451 -0.1575  0.3502
  234TIP3    H1  708   3.226   0.658   3.550  1.4997 -0.0625 -0.1477
  234TIP3    H2  709   3.199   0.687   3.696 -1.0137 -1.3018 -0.3182
  235TIP3   OH2  710   0.323   3.166   0.623 -1.0550  0.1499  0.3022
  235TIP3    H1  711   0.321   3.243   0.680 -2.2127 -0.3589  0.9895
  235TIP3    H2  712   0.364   3.098   0.676  1.6970  0.7191 -0.9405
  236TIP3   OH2  713   1.200   1.806   3.240 -0.1092 -0.0166 -0.5568
  236TIP3    H1  714   1.112   1.779   3.213 -0.4277 -0.6089  0.9819
  236TIP3    H2  715   1.198   1.902   3.235 -0.3286 -0.0721 -1.9915
  237TIP3   OH2  716   3.049   1.327   1.366 -0.1290 -0.7260 -0.1313
  237TIP3    H1  717   2.955   1.307   1.373 -0.3557  0.3566  0.0525
  237TIP3    H2  718   3.087   1.249   1.325 -1.0584 -1.3033  0.0755
  238TIP3   OH2  719   5.816   0.878  -0.009  0.0346 -0.4061  0.0407
  238TIP3    H1  720   5.761   0.847   0.063 -0.0503 -0.3615 -0.0035
  238TIP3    H2  721   5.906   0.865   0.021 -0.0003 -0.1399  0.2600
  239TIP3   OH2  722   5.031   0.560   4.381  0.5360 -0.2402  0.3845
  239TIP3    H1  723   5.043   0.655   4.374 -1.7028  0.1804  1.3697
  239TIP3    H2  724   5.004   0.547   4.472  0.5524 -1.8069  0.1781
  240TIP3   OH2  725   2.382   4.376   0.148 -0.2372  0.1575 -0.0017
  240TIP3    H1  726   2.375   4.432   0.225 -1.1152 -1.7094  1.3482
  240TIP3    H2  727   2.376   4.437   0.074 -0.2134  1.9174  1.3690
  241TIP3   OH2  728   1.365   4.281   1.012 -0.5133 -0.0595  0.3016
  241TIP3    H1  729   1.453   4.289   1.050 -0.2059 -0.7202 -0.2476
  241TIP3    H2  730   1.360   4.190   0.983 -1.3475 -0.0003  0.2393
  242TIP3   OH2  731   5.283   2.513   4.123  0.2426  0.2651  0.0361
  242TIP3    H1  732   5.322   2.458   4.191  2.4607  1.2227 -0.3554
  242TIP3    H2  733   5.217   2.565   4.169 -0.8185 -1.5840  0.7026
  243TIP3   OH2  734   3.837   2.359   1.400 -0.2313  0.4564 -0.0236
  243TIP3    H1  735   3.826   2.418   1.326 -1.2775  2.8629  1.9146
  243TIP3    H2  736   3.758   2.305   1.400 -0.7948  1.2589 -0.0128
  244TIP3   OH2  737   2.865   3.715   0.269 -0.7043 -0.1709 -0.1715
  244TIP3    H1  738   2.885   3.694   0.178  1.3993 -0.9738  0.4201
  244TIP3    H2  739   2.802   3.787   0.264 -0.7256 -0.2883 -2.2488
  245TIP3   OH2  740   2.592   4.653   3.013  0.0117 -0.1258  0.3755
  245TIP3    H1  741   2.607   4.590   2.942  0.1608  0.2584  0.0579
  245TIP3    H2  742   2.510   4.697   2.989 -0.8035 -1.0861  1.2657
  246TIP3   OH2  743   2.632   4.020   3.392 -0.1264 -0.2507 -0.0377
  246TIP3    H1  744   2.608   4.084   3.325 -1.5252 -1.1776 -0.4673
  246TIP3    H2  745   2.630   3.936   3.346  1.8904 -0.6234  0.4634
  247TIP3   OH2  746   3.725   4.299   0.630  0.3458 -0.0048 -0.0669
  247TIP3    H1  747   3.800   4.262   0.677  2.6657  4.1169 -0.0698
  247TIP3    H2  748   3.751   4.295   0.538 -0.2542 -0.1199 -0.2330
  248TIP3   OH2  749   0.151   5.474   1.941  0.0343  0.0751 -0.0473
  248TIP3    H1  750   0.245   5.469   1.923 -0.0427  1.5462 -1.0130
  248TIP3    H2  751   0.134   5.567   1.955 -1.1821 -0.2449  0.7320
  249TIP3   OH2  752   4.307   2.446   0.780 -0.4386  0.2764 -0.0958
  249TIP3    H1  753   4.343   2.496   0.707 -0.9474  0.4706 -0.2176
  249TIP3    H2  754   4.308   2.355   0.749  1.9839 -0.0611  0.7169
  250TIP3   OH2  755   1.207   2.340   0.950 -0.7105 -0.3419 -0.6977
  250TIP3    H1  756   1.231   2.425   0.988 -0.2043 -1.4844  1.7281
  250TIP3    H2  757   1.128   2.314   0.996  0.8900 -2.5781  1.0479
  251TIP3   OH2  758   0.288   3.706   0.696 -0.0194  0.0730  0.0587
  251TIP3    H1  759   0.246   3.725   0.612  0.0023 -0.4147 -0.0680
  251TIP3    H2  760   0.382   3.720   0.679  0.0102 -0.2652 -0.0720
  252TIP3   OH2  761   5.713   0.445   3.270 -0.6880  0.2375 -0.3898
  252TIP3    H1  762   5.768   0.495   3.210  0.6884 -0.5005  0.1997
  252TIP3    H2  763   5.678   0.511   3.330  1.8954  0.4854  1.0011
  253TIP3   OH2  764   5.105   5.469   1.711 -0.2439 -0.3547 -0.6490
  253TIP3    H1  765   5.021   5.424   1.703  0.0695 -0.8201 -1.3610
  253TIP3    H2  766   5.161   5.430   1.644  0.3472  0.3981 -0.6158
  254TIP3   OH2  767   2.777   0.243   3.520  0.2169 -0.3327 -0.2251
  254TIP3    H1  768   2.760   0.266   3.428  0.7481 -2.7467 -1.0017
  254TIP3    H2  769   2.693   0.258   3.563  0.1623  1.5990 -0.8811
  255TIP3   OH2  770   5.534   5.713   4.915  0.2108 -0.8840  0.5408
  255TIP3    H1  771   5.464   5.684   4.857 -0.9956 -2.0935  2.4946
  255TIP3    H2  772   5.549   5.805   4.891 -1.2946 -0.9033 -0.6267
  256TIP3   OH2  773   5.912   1.908   0.364 -0.0220 -0.1081 -0.2516
  256TIP3    H1  774   5.843   1.963   0.401 -0.6791  0.0899 -1.6993
  256TIP3    H2  775   5.947   1.958   0.291  1.6541 -0.2364  0.4064
  257TIP3   OH2  776   4.192   2.076   1.540  0.6163  0.1729  0.2167
  257TIP3    H1  777   4.197   2.013   1.467 -0.3618 -1.1866  1.2745
  257TIP3    H2  778   4.245   2.150   1.511 -1.0256  0.3891 -2.5524
  258TIP3   OH2  779   1.330   5.674   2.521  0.2362  0.4688 -0.2784
  258TIP3    H1  780   1.360   5.643   2.435  0.7401 -1.7348  0.6459
  258TIP3    H2  781   1.240   5.704   2.505 -0.6171 -2.2406 -1.1702
  259TIP3   OH2  782   3.834   2.938   3.363  0.3515  0.1746 -0.1630
  259TIP3    H1  783   3.782   2.987   3.298  1.6358  1.3690 -0.3342
  259TIP3    H2  784   3.769   2.905   3.425 -0.9718 -1.2822 -2.1918
  260TIP3   OH2  785   2.194   4.161   4.909  0.0713 -0.4522 -0.3753
  260TIP3    H1  786   2.279   4.194   4.937 -0.5642  0.5890  0.4385
  260TIP3    H2  787   2.160   4.228   4.850 -0.4944 -0.4831 -0.1010
  261TIP3   OH2  788   6.051   1.318   4.188 -0.0342  0.2536  0.0300
  261TIP3    H1  789   6.099   1.378   4.245  2.2851 -2.6000  1.3247
  261TIP3    H2  790   6.117   1.284   4.127 -1.4855 -0.2681 -1.3292
  262TIP3   OH2  791   5.501   5.533   1.122 -0.1105  0.1956  0.0238
  262TIP3    H1  792   5.579   5.556   1.072  0.5090 -0.4626  0.6468
  262TIP3    H2  793   5.445   5.610   1.117  0.8499  0.9128  0.0777
  263TIP3   OH2  794   3.655   3.614   0.311 -0.5664  0.2986  0.1723
  263TIP3    H1  795   3.592   3.646   0.374  0.0772  0.8189  0.5669
  263TIP3    H2  796   3.730   3.585   0.364 -1.0647 -1.7611 -0.1641
  264TIP3   OH2  797   0.432   0.522   4.657 -0.0699  0.3308  0.3716
  264TIP3    H1  798   0.526   0.527   4.674 -0.0717 -0.2494  0.5796
  264TIP3    H2  799   0.422   0.447   4.598 -0.1323  1.9358 -1.8087
  265TIP3   OH2  800   4.146   4.374   1.543 -0.2766  0.2978  0.4862
  265TIP3    H1  801   4.196   4.296   1.568  1.3786  1.2940  0.3884
  265TIP3    H2  802   4.146   4.428   1.622  0.0311  0.9345  0.0535
  266TIP3   OH2  803   0.714   4.533   4.594 -0.0960  0.0553  0.1703
  266TIP3    H1  804   0.656   4.558   4.665  0.1247  1.0025  0.0235
  266TIP3    H2  805   0.727   4.613   4.543  0.2870 -0.4487 -0.5519
  267TIP3   OH2  806   2.816   0.706   3.296  0.0354  0.0996 -0.2212
  267TIP3    H1  807   2.793   0.701   3.389 -0.9086 -0.9619 -0.4819
  267TIP3    H2  808   2.764   0.636   3.255  0.6552  0.3616 -1.5023
  268TIP3   OH2  809   0.450   4.569   1.906 -0.0632  0.6476 -0.5133
  268TIP3    H1  810   0.542   4.590   1.895 -0.0128  0.2505 -0.9002
  268TIP3    H2  811   0.421   4.624   1.979  0.2499  1.4498 -0.9807
  269TIP3   OH2  812   3.750   0.721   0.410  0.2133  0.6294 -0.2596
  269TIP3    H1  813   3.783   0.631   0.415  0.1020  0.5554 -0.8125
  269TIP3    H2  814   3.755   0.743   0.317 -1.2733  0.6176 -0.3640
  270TIP3   OH2  815   3.739   1.882   3.086 -0.0802 -0.7336  0.2132
  270TIP3    H1  816   3.704   1.963   3.122  1.4890 -0.1123  0.3942
  270TIP3    H2  817   3.696   1.874   3.001  0.3913  0.7767 -0.2063
  271TIP3   OH2  818   0.281   1.574   3.561 -0.3980 -0.1838 -0.4765
  271TIP3    H1  819   0.362   1.524   3.549  0.2424  0.4808  0.8999
  271TIP3    H2  820   0.246   1.544   3.645  0.1132  1.7703  0.4892
  272TIP3   OH2  821   4.527   0.064   0.169 -0.0691  0.5923  0.1478
  272TIP3    H1  822   4.467   0.137   0.156  0.0203  0.6522  0.0734
  272TIP3    H2  823   4.470  -0.009   0.193 -0.1006  0.8579  0.9311
  273TIP3   OH2  824   1.891   5.454   1.835 -0.5230  0.1131  0.3313
  273TIP3    H1  825   1.943   5.456   1.755 -0.1211 -1.1560  0.5345
  273TIP3    H2  826   1.914   5.535   1.881  0.0703  0.3220 -0.3184
  274TIP3   OH2  827   5.240   5.907   2.380  0.2414 -0.5935 -0.1439
  274TIP3    H1  828   5.201   5.933   2.297  1.6938 -1.0414 -0.9814
  274TIP3    H2  829   5.247   5.812   2.376  0.7241 -0.5844  0.3131
  275TIP3   OH2  830   3.922   5.381   3.174  0.0106  0.0572 -0.2642
  275TIP3    H1  831   3.962   5.466   3.191  0.3974 -0.2706  0.5142
  275TIP3    H2  832   3.835   5.402   3.139 -0.0392  0.7658  0.2737
  276TIP3   OH2  833   5.129   4.350   2.487  0.4131 -0.3439 -0.1838
  276TIP3    H1  834   5.171   4.429   2.523  0.3934 -1.6968  3.1562
  276TIP3    H2  835   5.198   4.284   2.489  0.0024 -0.8388 -1.4995
  277TIP3   OH2  836   2.474   0.462   1.971  0.6941  0.0543 -0.9158
  277TIP3    H1  837   2.438   0.545   2.002  1.3756  0.0863 -0.1687
  277TIP3    H2  838   2.406   0.426   1.914 -0.7498 -0.1311  0.8207
  278TIP3   OH2  839   2.405   2.092   1.522 -0.2185 -0.5983  0.0254
  278TIP3    H1  840   2.441   2.154   1.586  1.2924 -2.5723  1.1830
  278TIP3    H2  841   2.385   2.013   1.573 -2.8823 -0.8742 -1.2477
  279TIP3   OH2  842   0.310   3.871   2.829  0.1705 -0.3657  0.2888
  279TIP3    H1  843   0.375   3.821   2.879 -0.3587 -0.3057  1.0431
  279TIP3    H2  844   0.228   3.860   2.877 -0.5567 -1.0176 -1.0351
  280TIP3   OH2  845   1.930   0.363   3.254  0.6110  0.0649 -0.3207
  280TIP3    H1  846   1.885   0.435   3.210  0.3837 -0.7231 -1.4140
  280TIP3    H2  847   1.860   0.317   3.301  0.0845 -1.4838 -2.4592
  281TIP3   OH2  848   4.966   4.170   3.147 -0.2563 -0.1875 -0.3582
  281TIP3    H1  849   4.918   4.087   3.148  1.0428 -0.9787 -0.9282
  281TIP3    H2  850   5.023   4.165   3.224  0.7087 -0.3725 -1.0761
  282TIP3   OH2  851   6.059   2.277   0.884 -0.0140 -0.1478 -0.2501
  282TIP3    H1  852   6.136   2.265   0.827 -0.6673  0.4536 -1.3024
  282TIP3    H2  853   6.090   2.333   0.955  0.8612 -1.0306  0.0854
  283TIP3   OH2  854   1.750   4.477   4.634 -0.4018  0.2579 -0.1510
  283TIP3    H1  855   1.774   4.558   4.678  0.2113 -0.0804  0.1522
  283TIP3    H2  856   1.801   4.409   4.678  0.1544 -0.1124 -1.3052
  284TIP3   OH2  857   4.867   3.919   0.408  0.1203  0.6143  0.2842
  284TIP3    H1  858   4.872   3.861   0.484  0.3880  0.5556  0.2255
  284TIP3    H2  859   4.780   3.957   0.412  0.5967  1.6332  1.3696
  285TIP3   OH2  860   4.465   0.830   4.878 -0.2033 -0.6374  0.6208
  285TIP3    H1  861   4.528   0.901   4.887 -0.5036 -0.2331 -0.3222
  285TIP3    H2  862   4.469   0.806   4.785 -0.5709 -1.4123  0.7989
  286TIP3   OH2  863   6.329   5.394   2.149 -0.4252  0.2174  0.5441
  286TIP3    H1  864   6.388   5.399   2.074 -0.6305 -2.6662  0.0880
  286TIP3    H2  865   6.242   5.383   2.111 -0.8551  1.0547  1.2365
  287TIP3   OH2  866   4.146   3.710   3.639 -0.0872  0.0264 -0.0082
  287TIP3    H1  867   4.095   3.717   3.559  0.4238 -0.2392 -0.3607
  287TIP3    H2  868   4.088   3.743   3.708 -0.3893  0.6097 -0.5392
  288TIP3   OH2  869   4.679   0.841   1.726 -0.1496  0.2465  0.0160
  288TIP3    H1  870   4.753   0.899   1.744 -0.8609  1.6598 -1.4365
  288TIP3    H2  871   4.602   0.891   1.752 -0.6603 -1.0370  1.0753
  289TIP3   OH2  872   4.135   0.027   1.129 -0.5249 -0.2368 -0.0578
  289TIP3    H1  873   4.085  -0.032   1.072 -0.0228 -2.1165  1.3487
  289TIP3    H2  874   4.194   0.074   1.069 -0.8472 -1.2594 -1.2167
  290TIP3   OH2  875   4.492   0.551   3.012 -0.2420 -0.4915  0.6033
  290TIP3    H1  876   4.475   0.642   3.037  1.1919  0.0127 -0.1395
  290TIP3    H2  877   4.478   0.501   3.092  0.4027  0.5809  1.3999
  291TIP3   OH2  878   5.095   0.963   1.609 -0.0384 -0.0215  0.2261
  291TIP3    H1  879   5.080   0.873   1.581 -0.5601  0.5475 -1.4425
  291TIP3    H2  880   5.040   0.973   1.687  1.8825 -1.8161  1.9206
  292TIP3   OH2  881   3.472   5.451  -0.022  0.2820  0.1437  0.4677
  292TIP3    H1  882   3.460   5.414   0.066 -0.3456  1.7020  1.0818
  292TIP3    H2  883   3.567   5.458  -0.032  0.4055 -1.2535  0.4715
  293TIP3   OH2  884   4.262   1.452   0.565  0.0356  0.2952  0.2576
  293TIP3    H1  885   4.179   1.414   0.594  1.0104 -3.6558 -1.3686
  293TIP3    H2  886   4.317   1.449   0.643  0.2897 -2.7853  0.1149
  294TIP3   OH2  887   3.234   2.877   3.686  0.3666 -0.0456 -0.4579
  294TIP3    H1  888   3.170   2.909   3.622 -0.6843 -0.8416  0.1460
  294TIP3    H2  889   3.185   2.872   3.768  1.3548 -0.2097  0.1374
  295TIP3   OH2  890   1.014   1.800   4.100  0.5367 -0.5527  0.1271
  295TIP3    H1  891   0.977   1.839   4.179  1.2638  0.4449  0.0054
  295TIP3    H2  892   1.042   1.713   4.127 -1.9679 -1.3992  0.1744
  296TIP3   OH2  893   0.170   5.240   4.266  0.2611  0.2193  0.2349
  296TIP3    H1  894   0.093   5.198   4.227 -1.3778 -0.0539  3.4177
  296TIP3    H2  895   0.233   5.247   4.194 -2.8564  0.9136 -2.6916
  297TIP3   OH2  896   2.413   3.234   1.646 -0.3508 -0.0667 -0.2322
  297TIP3    H1  897   2.470   3.158   1.640 -1.2946 -0.8130 -0.0043
  297TIP3    H2  898   2.374   3.228   1.733 -0.3072  0.7850 -0.1358
  298TIP3   OH2  899   5.678   2.016   3.353 -0.3714 -0.4804  0.1762
  298TIP3    H1  900   5.687   1.961   3.276  2.4668  0.8209 -0.5434
  298TIP3    H2  901   5.658   1.955   3.424 -0.2901 -2.0368 -1.0809
  299TIP3   OH2  902   0.917   5.294   2.810 -0.3063 -0.6635 -0.0165
  299TIP3    H1  903   0.916   5.227   2.878  0.7049 -1.5580 -0.8391
  299TIP3    H2  904   0.912   5.244   2.728  1.1036  0.2069 -0.6727
  300TIP3   OH2  905   4.399   4.506   0.422  0.3880 -0.1769 -0.1855
  300TIP3    H1  906   4.462   4.518   0.352  0.7491  0.8117  0.2898
  300TIP3    H2  907   4.323   4.464   0.381  0.8660 -0.2394 -1.0064
  301TIP3   OH2  908   4.684   5.712   0.721  1.0194  0.2526 -0.1221
  301TIP3    H1  909   4.607   5.767   0.706  0.7232 -0.5158 -1.6163
  301TIP3    H2  910   4.756   5.760   0.679  1.1681  0.4797  0.3843
  302TIP3   OH2  911   0.688   1.393   2.036 -0.7604  0.3314 -0.7490
  302TIP3    H1  912   0.750   1.443   2.088  0.6333 -0.4742 -1.5525
  302TIP3    H2  913   0.648   1.332   2.098  0.4286 -0.2099 -0.4853
  303TIP3   OH2  914   5.114  -0.005   0.688 -0.2093  0.0492 -0.5298
  303TIP3    H1  915   5.049   0.022   0.622  0.6255  0.1877 -1.3223
  303TIP3    H2  916   5.101   0.055   0.761 -0.2484  0.7926 -1.1337
  304TIP3   OH2  917   0.491   4.076   2.843 -0.1403  0.3416  0.1488
  304TIP3    H1  918   0.436   3.998   2.834  0.7909 -0.3450  0.2159
  304TIP3    H2  919   0.478   4.124   2.761  0.0251 -0.3874 -0.3169
  305TIP3   OH2  920   6.316   0.846   2.331  0.0303  0.4291 -0.0109
  305TIP3    H1  921   6.309   0.855   2.427 -0.1799  2.2013 -0.1511
  305TIP3    H2  922   6.406   0.871   2.312  0.3883 -0.9554 -0.1990
  306TIP3   OH2  923   0.656   1.886   0.738 -0.2236  0.0232  0.0397
  306TIP3    H1  924   0.634   1.799   0.771  1.0465 -0.8834 -1.3869
  306TIP3    H2  925   0.654   1.877   0.643  1.5711  1.0968 -0.1488
  307TIP3   OH2  926   5.719   1.285   0.173 -0.1423 -0.3173  0.1535
  307TIP3    H1  927   5.800   1.331   0.148  0.0398 -0.4887  0.4252
  307TIP3    H2  928   5.691   1.242   0.092  0.0010 -0.2000  0.0392
  308TIP3   OH2  929   4.000   5.579   0.001  0.6014 -0.1191  0.3716
  308TIP3    H1  930   3.952   5.563   0.082  0.0761 -3.0045 -0.4149
  308TIP3    H2  931   4.058   5.503  -0.008  2.1936  1.1690 -0.9337
  309TIP3   OH2  932   1.712   2.581   2.254 -0.0575  0.1624  0.3325
  309TIP3    H1  933   1.715   2.649   2.186 -0.2469  0.2494  0.4099
  309TIP3    H2  934   1.703   2.499   2.205 -0.3595  0.2392  0.2561
  310TIP3   OH2  935   5.575   3.214   3.647  0.3803  0.2533  0.0051
  310TIP3    H1  936   5.482   3.194   3.630  0.5212  0.0086 -0.4987
  310TIP3    H2  937   5.573   3.267   3.726 -0.1354 -0.4118  0.4613
  311TIP3   OH2  938   1.310   5.993   0.005 -0.4152 -0.0234  0.5688
  311TIP3    H1  939   1.275   6.003   0.094 -0.5024 -1.9861  0.8104
  311TIP3    H2  940   1.254   5.926  -0.035  0.8424 -0.6167 -0.2694
  312TIP3   OH2  941   4.816   4.490   0.191 -0.3104  0.0013  0.1353
  312TIP3    H1  942   4.803   4.585   0.196 -0.7292 -0.0854  0.7863
  312TIP3    H2  943   4.874   4.469   0.264  0.4803 -0.1370 -0.5160
  313TIP3   OH2  944   3.988   5.603   5.072  0.1692 -0.3332  0.1004
  313TIP3    H1  945   4.003   5.628   4.981  3.6879  0.0544  0.6211
  313TIP3    H2  946   3.903   5.640   5.093 -0.0512  0.9465 -2.5747
  314TIP3   OH2  947   5.861   2.543   3.555  0.0711  0.2207 -0.2523
  314TIP3    H1  948   5.813   2.493   3.621  1.2118 -1.7281 -0.8060
  314TIP3    H2  949   5.845   2.494   3.473  2.2047  0.0466 -0.6093
  315TIP3   OH2  950   5.990   0.238   1.713  0.7016 -0.2582  0.2692
  315TIP3    H1  951   5.943   0.221   1.795 -0.5535  1.8752  0.0756
  315TIP3    H2  952   6.072   0.278   1.741  0.5407 -0.0933  0.5101
  316TIP3   OH2  953   3.174   4.926   0.743  0.0838  0.2223 -0.3968
  316TIP3    H1  954   3.171   5.017   0.712  0.6272 -0.0120 -1.1730
  316TIP3    H2  955   3.268   4.908   0.753 -0.0724  0.5284  2.1696
  317TIP3   OH2  956   1.738   0.637   3.655 -0.2385 -0.5668 -0.2318
  317TIP3    H1  957   1.819   0.638   3.603 -0.6910 -0.0109 -0.9383
  317TIP3    H2  958   1.684   0.705   3.616 -0.6408 -0.2153  0.8992
  318TIP3   OH2  959   0.538   5.172   3.131  0.2567 -0.2952 -0.1357
  318TIP3    H1  960   0.604   5.227   3.087 -1.7975  1.5185 -1.1336
  318TIP3    H2  961   0.506   5.227   3.203  1.2838 -1.9963  1.7057
  319TIP3   OH2  962   1.148   5.140   0.552  0.4073 -0.1095 -0.8899
  319TIP3    H1  963   1.176   5.126   0.462 -0.4088  1.2987 -1.4049
  319TIP3    H2  964   1.053   5.154   0.546  0.4239  0.5418  0.0989
  320TIP3   OH2  965   1.497   4.397   1.596  0.0651  0.4659  0.2019
  320TIP3    H1  966   1.508   4.388   1.691  1.1970  1.5871  0.2042
  320TIP3    H2  967   1.499   4.492   1.581  2.5956  0.2849 -1.1973
  321TIP3   OH2  968   0.994   3.481   0.042  0.3342 -0.1114 -0.3016
  321TIP3    H1  969   1.066   3.476   0.104  1.3821 -0.9172 -1.5211
  321TIP3    H2  970   0.915   3.464   0.094  1.1014 -0.0992  0.8930
  322TIP3   OH2  971  -0.008   1.642   2.144  0.2650  0.5822 -0.0143
  322TIP3    H1  972  -0.021   1.674   2.054 -1.3494  0.3736  0.1138
  322TIP3    H2  973   0.083   1.665   2.165 -0.0115  2.6737 -0.8876
  323TIP3   OH2  974   0.792   5.145   2.367 -0.0496  0.3944  0.0108
  323TIP3    H1  975   0.723   5.195   2.324  0.5668  1.4432  0.2123
  323TIP3    H2  976   0.797   5.063   2.318 -0.0180  1.1686 -1.3108
  324TIP3   OH2  977   3.333   0.457   1.424 -0.3535 -0.0280 -0.1803
  324TIP3    H1  978   3.349   0.546   1.454  0.6500 -0.5814  0.9933
  324TIP3    H2  979   3.369   0.401   1.493 -0.7046 -1.3436 -1.0275
  325TIP3   OH2  980   5.255   1.588   4.609  0.0254  0.2046 -0.3689
  325TIP3    H1  981   5.193   1.649   4.647  0.0116 -0.3731  0.5781
  325TIP3    H2  982   5.325   1.643   4.574  1.1672  0.7711  2.4962
  326TIP3   OH2  983   4.744   0.100   2.942 -0.1007  0.4330  0.0619
  326TIP3    H1  984   4.778   0.049   2.869  1.3829  0.8032  0.4605
  326TIP3    H2  985   4.655   0.068   2.954  1.0769 -2.9132  1.0547
  327TIP3   OH2  986   3.429   3.357   4.656 -0.2621 -0.0151  0.6271
  327TIP3    H1  987   3.520   3.328   4.666 -0.6846 -1.2645  1.0302
  327TIP3    H2  988   3.387   3.288   4.604 -1.3521 -0.2350  1.7656
  328TIP3   OH2  989   1.701   3.653   3.990  0.5202  0.0239  0.7876
  328TIP3    H1  990   1.698   3.747   4.003  0.4191  0.3244 -1.1017
  328TIP3    H2  991   1.645   3.617   4.059  0.5090  1.3342  1.4922
  329TIP3   OH2  992   3.468   3.612   4.241  0.1337  0.1184 -0.2624
  329TIP3    H1  993   3.561   3.625   4.260 -0.0771 -0.0052  0.9658
  329TIP3    H2  994   3.423   3.676   4.297 -0.5815 -1.0214  0.5178
  330TIP3   OH2  995   5.630   1.713   1.780  0.3116  0.1892  0.4234
  330TIP3    H1  996   5.537   1.688   1.784  0.5422 -0.6662  0.5811
  330TIP3    H2  997   5.638   1.785   1.842 -0.3934  0.7628 -0.1239
  331TIP3   OH2  998   5.996   5.453   4.177 -0.0617  0.4784 -0.1937
  331TIP3    H1  999   6.001   5.386   4.245 -2.4734 -0.4815 -0.8386
  331TIP3    H2 1000   6.055   5.421   4.108 -2.3339 -2.0309 -1.1999
  332TIP3   OH2 1001   1.765   1.788   2.810  0.3781 -0.3709 -0.2240
  332TIP3    H1 1002   1.755   1.709   2.756 -3.1185 -0.0852 -0.2352
  332TIP3    H2 1003   1.759   1.860   2.748  0.3836 -0.0776  0.1144
  333TIP3   OH2 1004   2.291   4.670   0.763  0.2658  0.0142 -0.0607
  333TIP3    H1 1005   2.246   4.616   0.698  0.5657 -3.9117  2.6672
  333TIP3    H2 1006   2.226   4.686   0.831  1.0040  0.5845  0.5387
  334TIP3   OH2 1007   4.867   0.869   3.359  0.1940 -0.4967  0.1731
  334TIP3    H1 1008   4.781   0.840   3.330  0.8746 -1.7534 -0.6640
  334TIP3    H2 1009   4.849   0.944   3.417 -1.4519 -0.8717  0.1854
  335TIP3   OH2 1010   0.707   3.674   1.675  0.0717 -0.5846  0.0475
  335TIP3    H1 1011   0.729   3.614   1.747 -0.4374 -1.0125 -0.1503
  335TIP3    H2 1012   0.683   3.616   1.602  0.9893 -0.1651 -0.6063
  336TIP3   OH2 1013   0.755   1.978   2.352 -0.0771  0.2023 -0.0921
  336TIP3    H1 1014   0.814   1.902   2.347  0.0628  0.3338 -0.5389
  336TIP3    H2 1015   0.667   1.940   2.348 -0.0274 -0.0001  0.6392
  337TIP3   OH2 1016   1.672   4.519   1.332  0.0624 -0.0526 -0.0118
  337TIP3    H1 1017   1.587   4.518   1.377 -1.1717  0.0183 -2.1824
  337TIP3    H2 1018   1.727   4.575   1.386 -1.5211  0.5521  1.0630
  338TIP3   OH2 1019   1.590   1.609   3.354 -0.4521  0.4198 -0.1152
  338TIP3    H1 1020   1.495   1.595   3.358 -0.8718  1.9814 -2.5455
  338TIP3    H2 1021   1.617   1.616   3.446 -2.9184  1.2677  0.6248
  339TIP3   OH2 1022   5.945   4.321   2.840 -0.3119 -0.9858  0.3229
  339TIP3    H1 1023   5.903   4.407   2.845 -0.4746 -0.8430 -2.0348
  339TIP3    H2 1024   6.034   4.340   2.810  0.2132 -1.5556  1.4590
  340TIP3   OH2 1025   5.340   2.371   5.005 -0.0176  0.2973  0.3054
  340TIP3    H1 1026   5.355   2.393   4.913 -0.6981  0.7391  0.2953
  340TIP3    H2 1027   5.422   2.331   5.033  0.5616  1.0696 -0.2265
  341TIP3   OH2 1028   6.321   2.363   4.515  0.0922 -0.2656  0.4057
  341TIP3    H1 1029   6.284   2.302   4.451  0.4592  0.1032 -0.1775
  341TIP3    H2 1030   6.262   2.438   4.514  0.3885 -0.0339  0.1005
  342TIP3   OH2 1031   2.148   0.684   2.578 -0.0671  0.0133 -0.0451
  342TIP3    H1 1032   2.186   0.596   2.573  1.7996  0.5066  2.8635
  342TIP3    H2 1033   2.057   0.669   2.602 -0.1673 -1.1304 -1.0429
  343TIP3   OH2 1034   3.578   1.845   2.874  0.0292  0.8154  0.1551
  343TIP3    H1 1035   3.523   1.796   2.813  1.0287  1.1501 -1.0520
  343TIP3    H2 1036   3.625   1.907   2.819 -0.0811  2.1062  1.4623
  344TIP3   OH2 1037   3.545   3.249   2.786  0.0466  0.2329  0.3401
  344TIP3    H1 1038   3.583   3.302   2.716  1.0014 -2.8953 -1.7002
  344TIP3    H2 1039   3.483   3.191   2.742  0.8022 -1.9929  1.9963
  345TIP3   OH2 1040   4.046   5.235   3.640  0.8003 -0.0963  0.0397
  345TIP3    H1 1041   4.041   5.196   3.727 -1.1186 -1.2076 -0.5010
  345TIP3    H2 1042   4.005   5.321   3.649  1.1413  0.0403  0.3355
  346TIP3   OH2 1043   2.156   1.684   3.130  0.0486  0.7012  0.8129
  346TIP3    H1 1044   2.067   1.662   3.102  0.1841  2.1724 -0.9737
  346TIP3    H2 1045   2.202   1.601   3.133 -0.6579  0.1867 -1.0881
  347TIP3   OH2 1046   2.542   3.497   1.109  0.1011 -0.0807 -0.7011
  347TIP3    H1 1047   2.501   3.421   1.067 -0.5100 -0.4882  0.5677
  347TIP3    H2 1048   2.489   3.512   1.188  2.2447 -0.5090  0.9190
  348TIP3   OH2 1049   2.421   5.903   2.945 -0.0085 -0.5603  0.0529
  348TIP3    H1 1050   2.352   5.922   2.881 -0.0086  1.4770  0.5881
  348TIP3    H2 1051   2.374   5.883   3.026 -0.0113  0.5261  0.3380
  349TIP3   OH2 1052   3.947   4.658   5.071 -0.1971 -0.1412  0.0949
  349TIP3    H1 1053   3.884   4.693   5.134  0.4667 -0.2900  0.8410
  349TIP3    H2 1054   3.951   4.565   5.090  0.9372  0.0073  0.6765
  350TIP3   OH2 1055   5.439   0.079   4.015 -0.6240  0.1179 -0.2507
  350TIP3    H1 1056   5.494   0.007   4.046  1.0140  1.3525 -0.1518
  350TIP3    H2 1057   5.369   0.085   4.080 -0.7842 -1.3542 -0.2577
  351TIP3   OH2 1058   0.041   3.138   1.153  0.4586  0.0606 -0.4434
  351TIP3    H1 1059   0.098   3.191   1.208  2.6735  0.0727 -2.5938
  351TIP3    H2 1060  -0.010   3.201   1.102  1.2769  0.1447 -1.1890
  352TIP3   OH2 1061   0.699   4.387   2.816 -0.2234 -0.1212 -0.1162
  352TIP3    H1 1062   0.647   4.382   2.896  0.0159 -1.5933 -0.0126
  352TIP3    H2 1063   0.691   4.300   2.776 -0.8525  0.7509 -2.0432
  353TIP3   OH2 1064   5.448   3.547   2.555 -0.0994 -0.3538 -0.3592
  353TIP3    H1 1065   5.498   3.470   2.528 -0.2559 -0.4303 -0.4319
  353TIP3    H2 1066   5.360   3.531   2.521  0.1302  0.3731 -1.3184
  354TIP3   OH2 1067   1.898   1.537   0.283 -0.6974 -0.3629  0.3682
  354TIP3    H1 1068   1.857   1.512   0.365 -1.7434  1.0428  0.3028
  354TIP3    H2 1069   1.828   1.530   0.218 -0.1115 -0.5922 -0.2516
  355TIP3   OH2 1070   3.105   4.162   5.097  0.0617  0.4193  0.2428
  355TIP3    H1 1071   3.014   4.190   5.107 -0.3248 -0.5788 -0.3569
  355TIP3    H2 1072   3.147   4.233   5.048 -0.6942  0.3672 -0.5121
  356TIP3   OH2 1073   2.292   4.011   1.095 -0.4633 -0.1692  0.1921
  356TIP3    H1 1074   2.206   4.052   1.103 -0.1487  0.6435 -0.3779
  356TIP3    H2 1075   2.274   3.918   1.088 -1.3382  0.0408 -0.5154
  357TIP3   OH2 1076   0.131   4.309   1.462  0.1640  0.0048 -0.1357
  357TIP3    H1 1077   0.224   4.331   1.452  0.2911 -0.7989 -0.7935
  357TIP3    H2 1078   0.085   4.382   1.421  0.5831 -0.8039 -2.1486
  358TIP3   OH2 1079   2.206   3.684   1.613  0.2013 -0.3830  0.4570
  358TIP3    H1 1080   2.235   3.611   1.668 -1.4329 -1.5343 -0.1413
  358TIP3    H2 1081   2.140   3.730   1.666 -0.1348 -0.4741  0.1215
  359TIP3   OH2 1082   0.927   3.244   5.060  0.1505  0.5336 -0.1803
  359TIP3    H1 1083   0.931   3.254   4.965 -0.4165 -0.1531 -0.2845
  359TIP3    H2 1084   0.833   3.234   5.079  0.3582 -0.7841  0.2809
  360TIP3   OH2 1085   2.684   2.166   1.244 -0.1502 -0.2332  0.0413
  360TIP3    H1 1086   2.641   2.081   1.246 -0.8588  0.1160  0.0568
  360TIP3    H2 1087   2.746   2.160   1.171  0.5468 -1.1013  0.6880
  361TIP3   OH2 1088   4.825   4.077   4.087 -0.5491 -0.2104  0.2527
  361TIP3    H1 1089   4.838   4.063   4.181  0.3291  0.2508  0.2136
  361TIP3    H2 1090   4.818   3.989   4.050  0.2960 -0.4352  0.6027
  362TIP3   OH2 1091   5.494   1.015   3.784 -0.1648 -0.0511  0.1359
  362TIP3    H1 1092   5.423   1.079   3.782 -0.8755 -0.7833 -2.6616
  362TIP3    H2 1093   5.572   1.067   3.806 -0.8001  1.7129 -1.4899
  363TIP3   OH2 1094   5.422   2.531   1.147  0.1631  0.6337 -0.3247
  363TIP3    H1 1095   5.412   2.480   1.067  0.2262  1.3110 -0.7718
  363TIP3    H2 1096   5.336   2.569   1.163  0.6933  2.3762 -1.3762
  364TIP3   OH2 1097   2.265   4.131   3.516 -0.9570  0.3404 -0.0489
  364TIP3    H1 1098   2.304   4.169   3.595  2.5403 -0.1771 -1.3505
  364TIP3    H2 1099   2.274   4.199   3.449  0.4061 -0.7794 -1.0672
  365TIP3   OH2 1100   0.933   3.308   1.081 -0.3095  0.2681  0.7430
  365TIP3    H1 1101   0.964   3.396   1.105 -1.7247  0.6209  1.3594
  365TIP3    H2 1102   0.878   3.323   1.004  0.2384 -0.2306  0.2436
  366TIP3   OH2 1103   5.427   2.805   1.361  0.2923 -0.1571  0.2962
  366TIP3    H1 1104   5.511   2.760   1.349  0.3225 -0.4564  1.4804
  366TIP3    H2 1105   5.408   2.795   1.454 -0.4105  1.0557  0.2997
  367TIP3   OH2 1106   6.025   3.846   3.547 -0.3362 -0.0469  0.1065
  367TIP3    H1 1107   6.048   3.795   3.625 -1.6565 -1.0137 -0.0937
  367TIP3    H2 1108   5.968   3.788   3.497 -0.5201  1.0270 -0.9754
  368TIP3   OH2 1109   1.481   3.605   1.655  0.5419 -0.1403 -0.5793
  368TIP3    H1 1110   1.540   3.659   1.709 -0.5415 -0.9368  1.5306
  368TIP3    H2 1111   1.394   3.639   1.674  0.1245 -0.3182 -2.0535
  369TIP3   OH2 1112   3.503   2.861   3.791  0.0400  0.0767  0.1439
  369TIP3    H1 1113   3.419   2.863   3.745 -0.0333 -1.1699  0.1960
  369TIP3    H2 1114   3.541   2.947   3.776 -0.4798  0.0637 -1.3339
  370TIP3   OH2 1115   0.962   5.715   1.160 -0.0258 -0.7297  0.2811
  370TIP3    H1 1116   0.929   5.805   1.165  1.0951 -0.2668 -0.3561
  370TIP3    H2 1117   0.884   5.661   1.175 -0.6242  0.3339  1.1996
  371TIP3   OH2 1118   2.411   5.517   3.734  0.3878 -0.0836 -0.1513
  371TIP3    H1 1119   2.437   5.467   3.657  1.4848  0.8259 -0.3991
  371TIP3    H2 1120   2.323   5.547   3.715 -0.4488 -2.1703  0.1436
  372TIP3   OH2 1121   4.892   3.294   1.171  0.0062  0.0187 -0.7445
  372TIP3    H1 1122   4.925   3.231   1.235 -0.1615 -0.4585 -1.1215
  372TIP3    H2 1123   4.804   3.264   1.151 -0.1406  0.4796 -0.7965
  373TIP3   OH2 1124   4.261   2.911   0.438 -0.4373 -0.2574  0.2984
  373TIP3    H1 1125   4.227   2.878   0.355 -0.0381 -0.4872  0.2201
  373TIP3    H2 1126   4.186   2.951   0.481 -0.4317  0.8201 -0.6424
  374TIP3   OH2 1127   5.098   1.558   0.167 -0.3297 -0.5390 -0.5479
  374TIP3    H1 1128   5.113   1.492   0.234 -0.7423 -0.3054 -0.2206
  374TIP3    H2 1129   5.028   1.613   0.202  0.6778  0.6864 -0.3441
  375TIP3   OH2 1130   3.093   2.989   4.889 -0.4108  0.0192  0.6689
  375TIP3    H1 1131   3.068   2.966   4.978 -2.2973 -1.1177 -0.0873
  375TIP3    H2 1132   3.161   2.927   4.865 -0.8870 -0.5839  0.8625
  376TIP3   OH2 1133   1.902   5.295   3.029  0.7768 -0.1156  0.1273
  376TIP3    H1 1134   1.859   5.304   2.944  0.0642 -1.0617  0.3812
  376TIP3    H2 1135   1.924   5.202   3.036 -1.6780 -0.6497  2.1513
  377TIP3   OH2 1136   4.902   1.164   0.980  0.1539 -0.0964  0.3016
  377TIP3    H1 1137   4.898   1.228   0.909  0.3297 -0.2482  0.1575
  377TIP3    H2 1138   4.991   1.129   0.976  0.8353  1.2897  1.7885
  378TIP3   OH2 1139   2.659   4.500   1.217 -0.0298 -0.4658 -0.4327
  378TIP3    H1 1140   2.646   4.469   1.128 -0.8182 -0.1252 -0.4474
  378TIP3    H2 1141   2.572   4.528   1.246  0.6628  2.2653 -0.6486
  379TIP3   OH2 1142   3.145   5.730   0.644 -0.1508  0.2995  0.6492
  379TIP3    H1 1143   3.133   5.820   0.612  1.0089 -1.0986 -4.8353
  379TIP3    H2 1144   3.056   5.696   0.655 -0.6104  1.5377  0.8914
  380TIP3   OH2 1145   5.525   4.041   0.963  0.1366  0.0602  0.2408
  380TIP3    H1 1146   5.481   4.101   0.902  0.4073 -0.5043 -0.5272
  380TIP3    H2 1147   5.618   4.060   0.952  0.4579 -2.2113 -1.9572
  381TIP3   OH2 1148   3.840   4.871   1.321 -0.1685 -0.1496  0.4228
  381TIP3    H1 1149   3.834   4.912   1.407  1.3358 -0.5047  0.7274
  381TIP3    H2 1150   3.932   4.879   1.297 -1.0625  3.1242 -2.7847
  382TIP3   OH2 1151   6.099   4.408   4.283 -0.1720  0.5764 -0.1052
  382TIP3    H1 1152   6.193   4.422   4.279  0.1535 -1.2418  0.2581
  382TIP3    H2 1153   6.067   4.435   4.197  0.7920  0.5203 -0.4943
  383TIP3   OH2 1154   4.417   2.393   4.708  0.3647 -0.6288  0.2116
  383TIP3    H1 1155   4.367   2.412   4.787  1.3053  1.0627  0.4391
  383TIP3    H2 1156   4.353   2.404   4.637 -0.5103 -2.2661  0.6928
  384TIP3   OH2 1157   4.450   0.928   3.661  0.2776  0.3736 -0.3793
  384TIP3    H1 1158   4.463   1.016   3.694 -1.6558 -0.1066  1.9119
  384TIP3    H2 1159   4.361   0.905   3.686  0.1343 -1.6532 -2.3627
  385TIP3   OH2 1160   1.580   4.873   0.687  0.0837  0.2431 -0.0548
  385TIP3    H1 1161   1.572   4.817   0.610 -0.5605 -0.3703  0.4446
  385TIP3    H2 1162   1.583   4.962   0.652 -0.5188 -0.0067 -0.7683
  386TIP3   OH2 1163   0.676   5.921   1.635  0.0643 -1.0426  0.3585
  386TIP3    H1 1164   0.604   5.983   1.647  1.0917  0.2815 -0.0094
  386TIP3    H2 1165   0.723   5.954   1.558  2.5567 -0.3208  2.0642
  387TIP3   OH2 1166   0.023   2.973   2.535 -0.5929 -0.0327  0.9818
  387TIP3    H1 1167   0.008   3.036   2.465  0.6232 -2.0571 -1.2302
  387TIP3    H2 1168   0.075   3.021   2.600  1.2344  0.9742 -1.1182
  388TIP3   OH2 1169   0.334   2.756   2.808 -0.1546  0.3487 -0.8497
  388TIP3    H1 1170   0.328   2.661   2.819  0.3365  0.2958 -0.9877
  388TIP3    H2 1171   0.402   2.768   2.742 -0.0884  0.8030 -0.7035
  389TIP3   OH2 1172   3.161   1.200   2.861 -0.2265 -0.4096 -0.0300
  389TIP3    H1 1173   3.155   1.108   2.886 -0.9088 -0.5563 -0.6866
  389TIP3    H2 1174   3.159   1.248   2.944 -1.3400 -0.9235  0.2511
  390TIP3   OH2 1175   4.886   0.759  -0.010  0.1380  0.0116  0.3080
  390TIP3    H1 1176   4.851   0.676  -0.045  1.4133 -1.3379  2.0569
  390TIP3    H2 1177   4.887   0.746   0.085 -0.2689  2.3332  0.6777
  391TIP3   OH2 1178   6.033   3.566   0.799 -0.4640 -0.6665 -0.0872
  391TIP3    H1 1179   6.042   3.660   0.785  2.0499 -0.5558  1.6217
  391TIP3    H2 1180   6.007   3.559   0.891 -2.0372 -1.6412 -0.5778
  392TIP3   OH2 1181   1.286   2.058   0.296 -0.0977 -0.2151  0.2170
  392TIP3    H1 1182   1.381   2.054   0.307 -0.2930 -1.8303  1.7686
  392TIP3    H2 1183   1.260   1.967   0.285 -1.4347  0.2593 -0.8068
  393TIP3   OH2 1184   5.822   3.984   3.222 -0.0072  0.2241 -0.0223
  393TIP3    H1 1185   5.897   3.930   3.196 -0.3036  0.8425 -2.3363
  393TIP3    H2 1186   5.849   4.074   3.203 -0.9847  0.5320 -0.0263
  394TIP3   OH2 1187   1.617   5.234   1.404 -0.3830 -0.2972 -0.2173
  394TIP3    H1 1188   1.597   5.191   1.320 -0.2723 -0.4152 -0.1835
  394TIP3    H2 1189   1.659   5.166   1.456 -0.6243 -0.2782  0.0051
  395TIP3   OH2 1190   3.373   3.918   1.731 -0.4523 -0.6762 -0.1248
  395TIP3    H1 1191   3.455   3.959   1.702 -1.3330  0.1472 -1.5658
  395TIP3    H2 1192   3.337   3.979   1.794 -1.2844  0.3559 -1.5492
  396TIP3   OH2 1193   2.115   3.205   3.832 -0.4738 -0.6937 -0.3070
  396TIP3    H1 1194   2.045   3.142   3.849  0.0485 -1.2409 -0.1259
  396TIP3    H2 1195   2.083   3.259   3.760 -2.4623  1.1939  1.8140
  397TIP3   OH2 1196   6.296   2.898   5.079 -0.1518 -0.1747  0.3701
  397TIP3    H1 1197   6.344   2.816   5.079  0.6523  0.2259 -1.6827
  397TIP3    H2 1198   6.207   2.874   5.053  0.1796 -0.3826 -0.6111
  398TIP3   OH2 1199   3.667   1.023   2.542 -0.0065 -0.2150  0.6369
  398TIP3    H1 1200   3.589   0.994   2.588  0.9711 -1.0429  1.8268
  398TIP3    H2 1201   3.718   1.070   2.608  0.8556 -0.3249  0.0693
  399TIP3   OH2 1202   5.541   5.134   3.285 -0.0983  0.9298  0.1605
  399TIP3    H1 1203   5.594   5.127   3.206 -0.0540 -0.5303  0.2873
  399TIP3    H2 1204   5.603   5.130   3.357 -0.3268 -0.5073  0.3034
  400TIP3   OH2 1205   6.266   3.959   0.092 -0.2241  0.7389  0.0641
  400TIP3    H1 1206   6.330   4.023   0.122  0.6471 -0.0198 -0.1279
  400TIP3    H2 1207   6.238   3.992   0.007 -0.8971  1.6335  0.6218
  401TIP3   OH2 1208   0.348   0.239   0.401  0.2843 -0.0923  0.3238
  401TIP3    H1 1209   0.332   0.148   0.377 -1.5277 -0.3229  2.0383
  401TIP3    H2 1210   0.436   0.239   0.438  0.8520 -0.8351 -0.9609
  402TIP3   OH2 1211   3.982   5.528   4.299  0.1089 -0.1146 -0.0320
  402TIP3    H1 1212   3.887   5.532   4.312 -0.1376  1.4379 -1.8669
  402TIP3    H2 1213   4.018   5.583   4.368 -0.3229 -0.4515  0.4756
  403TIP3   OH2 1214   2.976   0.623   2.614  0.1565  0.1716 -0.1102
  403TIP3    H1 1215   2.935   0.709   2.607  0.4834  0.4858  1.5793
  403TIP3    H2 1216   2.913   0.568   2.660  0.4410 -0.1683 -0.1110
  404TIP3   OH2 1217   3.133   5.613   5.003  0.1260 -0.4697 -0.1738
  404TIP3    H1 1218   3.110   5.533   5.049 -0.5462 -0.7680 -1.0036
  404TIP3    H2 1219   3.102   5.683   5.060  0.9340 -0.7832  0.6655
  405TIP3   OH2 1220   0.632   2.825   5.076  0.2959 -0.9108  0.2757
  405TIP3    H1 1221   0.672   2.844   4.991  0.3020 -0.8757  0.2867
  405TIP3    H2 1222   0.558   2.885   5.082  1.0815  0.0244  0.8751
  406TIP3   OH2 1223   2.449   5.677   2.239  0.5358 -0.3288 -0.3549
  406TIP3    H1 1224   2.449   5.588   2.274 -0.5141 -0.1249  0.1839
  406TIP3    H2 1225   2.511   5.725   2.293 -0.5510 -0.1914  0.8015
  407TIP3   OH2 1226   3.582   0.643   3.818  0.3055 -0.4321 -0.1806
  407TIP3    H1 1227   3.504   0.664   3.767  0.0920 -2.7959 -0.9698
  407TIP3    H2 1228   3.549   0.592   3.892  1.0339 -0.8616 -0.1444
  408TIP3   OH2 1229   2.190   0.816   2.344  0.1941 -0.2532 -0.0083
  408TIP3    H1 1230   2.099   0.843   2.334 -0.2249 -1.6608 -0.2378
  408TIP3    H2 1231   2.191   0.765   2.425  0.2661 -2.1013 -1.0923
  409TIP3   OH2 1232   5.625   2.891   1.840  0.4312  0.0963 -0.2054
  409TIP3    H1 1233   5.653   2.800   1.846 -0.4712 -0.1458  0.5319
  409TIP3    H2 1234   5.569   2.904   1.916  1.5271  1.6232  0.3834
  410TIP3   OH2 1235   2.814   1.869   3.432 -0.1321 -0.3487 -0.8350
  410TIP3    H1 1236   2.796   1.943   3.375  1.1805  0.8121  0.2031
  410TIP3    H2 1237   2.727   1.840   3.461 -0.6454  1.5524 -0.3236
  411TIP3   OH2 1238   0.760   2.627   0.959 -0.3418  0.1585  0.3714
  411TIP3    H1 1239   0.763   2.586   0.873 -1.6932 -0.4370  0.5795
  411TIP3    H2 1240   0.850   2.618   0.993 -0.0396 -0.4808 -0.5583
  412TIP3   OH2 1241   5.543   2.990   4.765  0.3183 -0.0687 -0.2579
  412TIP3    H1 1242   5.502   2.946   4.691  0.6956  0.5765 -0.8612
  412TIP3    H2 1243   5.469   3.013   4.823  0.0967 -1.2287 -0.0575
  413TIP3   OH2 1244   5.577   2.764   2.316  0.2535 -0.0255  0.0401
  413TIP3    H1 1245   5.615   2.838   2.363 -1.7226  1.1396 -0.0992
  413TIP3    H2 1246   5.580   2.789   2.224 -1.8185  0.6327  0.1002
  414TIP3   OH2 1247   4.746   4.169   4.738 -0.3675  0.3706  0.3721
  414TIP3    H1 1248   4.842   4.177   4.734  0.0505 -2.2905  2.4914
  414TIP3    H2 1249   4.724   4.103   4.672 -0.6837  0.5923  0.2537
  415TIP3   OH2 1250   0.793   5.198   1.912 -0.2381 -0.0177 -0.0617
  415TIP3    H1 1251   0.718   5.173   1.965 -0.7555  1.2941 -0.1494
  415TIP3    H2 1252   0.820   5.283   1.946  1.9742 -0.9731  0.7515
  416TIP3   OH2 1253   4.194   4.063   2.574  0.3118 -0.4274  0.0407
  416TIP3    H1 1254   4.213   4.135   2.514  0.0333 -1.4200 -1.2772
  416TIP3    H2 1255   4.217   4.097   2.660  0.8242  1.0001 -0.6325
  417TIP3   OH2 1256   3.320   0.932   3.554 -0.0586  0.0226  1.4415
  417TIP3    H1 1257   3.387   0.918   3.487  0.4464  0.1135  1.9275
  417TIP3    H2 1258   3.239   0.903   3.512  0.1280  0.7430  0.5241
  418TIP3   OH2 1259   2.521   1.479   2.663 -0.1260  0.2503  0.2417
  418TIP3    H1 1260   2.608   1.515   2.678 -0.7176  1.9497 -0.1652
  418TIP3    H2 1261   2.520   1.457   2.570  0.3912 -1.3758  0.5794
  419TIP3   OH2 1262   2.834   6.002   1.414 -0.7119  0.2675  0.0802
  419TIP3    H1 1263   2.828   5.930   1.352  0.8726  0.9877 -0.9759
  419TIP3    H2 1264   2.904   5.976   1.474  2.2054  2.2089 -2.2369
  420TIP3   OH2 1265   0.083   0.451   5.103 -0.3758  0.3278  0.2860
  420TIP3    H1 1266   0.017   0.422   5.167 -1.3383  0.2585 -0.7152
  420TIP3    H2 1267   0.075   0.547   5.103  0.3114  0.3948  0.9715
  421TIP3   OH2 1268   0.242   0.893   4.298  0.6342 -0.3343 -0.4463
  421TIP3    H1 1269   0.280   0.842   4.369 -0.8616  0.8393  1.2807
  421TIP3    H2 1270   0.170   0.839   4.265  0.0016 -0.0207  0.3763
  422TIP3   OH2 1271   3.964   0.869   2.127 -0.1329 -0.2336 -0.3962
  422TIP3    H1 1272   3.935   0.921   2.202 -1.6054 -0.0536 -1.0608
  422TIP3    H2 1273   4.040   0.821   2.159  1.3440  2.3668  0.2183
  423TIP3   OH2 1274   5.196   2.906   0.500  0.0200 -0.1317 -0.4517
  423TIP3    H1 1275   5.195   2.913   0.596  1.4152  0.9717 -0.4722
  423TIP3    H2 1276   5.105   2.893   0.475 -0.3239 -0.8121  1.0407
  424TIP3   OH2 1277   1.242   1.674   2.868 -0.6066  0.3809  0.1450
  424TIP3    H1 1278   1.288   1.601   2.909 -2.0946  0.4372  2.0908
  424TIP3    H2 1279   1.311   1.728   2.829  0.8415 -0.2896  1.6618
  425TIP3   OH2 1280   5.557   1.500   1.378  0.1500  0.6022  0.2266
  425TIP3    H1 1281   5.507   1.485   1.458 -0.2130 -2.1989 -0.4481
  425TIP3    H2 1282   5.621   1.429   1.375  0.5636  0.9919 -1.6546
  426TIP3   OH2 1283   5.136   1.276   3.598  0.2138 -0.0589 -0.7609
  426TIP3    H1 1284   5.162   1.244   3.684 -0.6735 -1.9270 -1.1523
  426TIP3    H2 1285   5.216   1.269   3.544  0.0531 -1.6073 -0.8211
  427TIP3   OH2 1286   0.908   1.940   5.090  0.3238  0.0549  0.2034
  427TIP3    H1 1287   0.824   1.986   5.096  0.1881 -0.0546 -0.7333
  427TIP3    H2 1288   0.967   2.002   5.047  0.6417  0.0167  0.5736
  428TIP3   OH2 1289   5.804   4.603   3.693 -0.3650 -0.4081  0.2388
  428TIP3    H1 1290   5.812   4.576   3.602 -1.1655 -0.1353  0.0810
  428TIP3    H2 1291   5.759   4.687   3.690  0.9254  0.3357  0.8041
  429TIP3   OH2 1292   4.793   5.168   5.134  0.5190 -0.9909 -0.1420
  429TIP3    H1 1293   4.871   5.119   5.107  0.7135 -0.4495 -0.5759
  429TIP3    H2 1294   4.784   5.237   5.068 -1.0814 -1.8153 -0.8234
  430TIP3   OH2 1295   0.578   5.918   1.111 -0.0774 -0.3122  0.0980
  430TIP3    H1 1296   0.650   5.918   1.049 -0.9965 -0.0445 -0.9963
  430TIP3    H2 1297   0.547   5.828   1.113 -0.2982 -0.2430 -0.1391
  431TIP3   OH2 1298   6.132   1.328   2.470 -0.4267  0.1833  0.8982
  431TIP3    H1 1299   6.075   1.396   2.434 -0.9737 -0.2407  0.9568
  431TIP3    H2 1300   6.142   1.265   2.398 -1.3058 -0.5304  1.3710
  432TIP3   OH2 1301   2.984   5.216   3.532  0.6161 -0.0074  0.1442
  432TIP3    H1 1302   2.931   5.249   3.604 -0.3390 -0.5335 -0.2957
  432TIP3    H2 1303   2.999   5.124   3.553 -0.6803 -0.4791 -0.8868
  433TIP3   OH2 1304   1.510   2.067   2.020 -0.1780  0.4160 -0.4870
  433TIP3    H1 1305   1.475   2.109   2.098 -1.1507  1.7067 -1.5607
  433TIP3    H2 1306   1.433   2.047   1.967  0.4046 -1.2278 -0.7538
  434TIP3   OH2 1307   4.637   1.499   3.185 -0.2283  0.7016  0.2065
  434TIP3    H1 1308   4.574   1.444   3.232 -0.1255  0.3857 -0.0267
  434TIP3    H2 1309   4.590   1.527   3.106  0.4859 -0.9256 -0.8366
  435TIP3   OH2 1310   3.550   4.746   1.964  0.0421 -0.3620  0.5018
  435TIP3    H1 1311   3.466   4.750   1.917  0.5772 -0.9040 -0.5545
  435TIP3    H2 1312   3.614   4.725   1.896  0.5803 -3.2512  1.7645
  436TIP3   OH2 1313   0.548   1.266   3.129  0.6073  0.2796 -0.3369
  436TIP3    H1 1314   0.496   1.345   3.113 -0.7599 -0.1125  1.7698
  436TIP3    H2 1315   0.488   1.207   3.173  2.3828 -0.8776  0.6347
  437TIP3   OH2 1316   3.215   2.909   4.522 -0.1340  0.0206  0.1720
  437TIP3    H1 1317   3.236   2.886   4.613 -2.2713 -1.3314  0.3986
  437TIP3    H2 1318   3.226   3.004   4.519  0.1799  0.0706  1.7940
  438TIP3   OH2 1319   3.063   3.809   3.481 -0.3959 -0.0380 -0.1015
  438TIP3    H1 1320   3.008   3.880   3.513  0.1874  0.0198  0.8419
  438TIP3    H2 1321   3.031   3.732   3.527  1.6658  0.3613  2.2383
  439TIP3   OH2 1322   0.965   5.383   2.444 -0.4240  0.3979  0.3052
  439TIP3    H1 1323   0.894   5.447   2.444 -1.5260 -0.7657 -1.1107
  439TIP3    H2 1324   0.922   5.298   2.443  0.9731 -0.3496 -0.5991
  440TIP3   OH2 1325   0.246   3.039   4.127  0.4531 -0.5938  0.1185
  440TIP3    H1 1326   0.183   2.973   4.156  0.5027  0.0951  1.9227
  440TIP3    H2 1327   0.328   2.990   4.116 -0.3174 -1.4894 -2.2247
  441TIP3   OH2 1328   4.147   1.294   4.221 -0.1571 -0.4407  0.2564
  441TIP3    H1 1329   4.051   1.288   4.216 -0.1066 -2.9308  0.9059
  441TIP3    H2 1330   4.173   1.334   4.138 -1.7566  0.6446  0.2258
  442TIP3   OH2 1331   1.189   5.759   2.229 -0.1217  0.2884 -0.3594
  442TIP3    H1 1332   1.206   5.831   2.169  0.7926  2.6393  2.4666
  442TIP3    H2 1333   1.273   5.713   2.236  0.1021  0.7371 -0.0367
  443TIP3   OH2 1334   3.716   3.944   4.359 -0.1698 -0.0301 -0.2436
  443TIP3    H1 1335   3.695   3.944   4.452 -1.3718 -0.3897 -0.4930
  443TIP3    H2 1336   3.641   3.986   4.317  0.4065  0.2291 -1.0431
  444TIP3   OH2 1337   3.637   3.448   3.782  0.2172 -0.2376 -0.6699
  444TIP3    H1 1338   3.600   3.362   3.800 -0.2253  0.3074  1.1883
  444TIP3    H2 1339   3.710   3.456   3.843  1.2778  0.0868 -1.9404
  445TIP3   OH2 1340   3.798   0.737   4.060  0.5244 -0.3424 -0.5619
  445TIP3    H1 1341   3.706   0.738   4.033  0.5045 -0.5842 -0.5000
  445TIP3    H2 1342   3.805   0.809   4.123  0.1251 -1.0305  0.2828
  446TIP3   OH2 1343   3.664   2.254   2.218  0.0800 -0.1518  0.4420
  446TIP3    H1 1344   3.714   2.289   2.144 -1.4309  0.8845 -0.1511
  446TIP3    H2 1345   3.688   2.162   2.222  1.4616  0.1461 -0.2666
  447TIP3   OH2 1346   5.399   0.169   1.165 -0.0493 -0.0420  0.1625
  447TIP3    H1 1347   5.448   0.125   1.096 -0.0286 -0.7726  0.6309
  447TIP3    H2 1348   5.447   0.146   1.245  0.5605  1.6527  0.3285
  448TIP3   OH2 1349   1.260   4.369   0.233  0.5511 -0.4983 -0.1017
  448TIP3    H1 1350   1.181   4.424   0.241  0.9429  0.3418 -1.6925
  448TIP3    H2 1351   1.248   4.321   0.152  0.0382 -3.1739  1.4562
  449TIP3   OH2 1352   1.044   1.398   1.692  0.5576 -0.3665 -0.1024
  449TIP3    H1 1353   1.058   1.384   1.598  1.4059  0.0405 -0.0541
  449TIP3    H2 1354   0.961   1.355   1.711  0.4890 -0.6549 -0.9934
  450TIP3   OH2 1355   4.451   3.837   3.323 -0.5023 -0.6960 -0.1168
  450TIP3    H1 1356   4.422   3.786   3.248  0.2186 -1.0885 -0.1393
  450TIP3    H2 1357   4.394   3.914   3.324 -0.6877 -0.8205 -0.9054
  451TIP3   OH2 1358   1.992   3.063   3.285  0.4866  0.0376 -0.5591
  451TIP3    H1 1359   1.900   3.055   3.312 -0.6552  0.5207 -3.8231
  451TIP3    H2 1360   2.011   3.157   3.293  0.5327  0.0137 -0.3813
  452TIP3   OH2 1361   2.035   0.919   3.800  0.3616 -0.1330  0.1489
  452TIP3    H1 1362   2.121   0.960   3.795 -0.2658  1.1506 -3.6985
  452TIP3    H2 1363   2.037   0.851   3.732 -1.9303  0.7180 -0.8898
  453TIP3   OH2 1364   3.410   0.893   3.080  0.0765 -0.1506 -0.2470
  453TIP3    H1 1365   3.417   0.822   3.144  0.2391 -0.4534 -0.5932
  453TIP3    H2 1366   3.499   0.925   3.070 -0.3340  2.0494  2.0357
  454TIP3   OH2 1367   4.636   5.916   0.108  0.0624 -1.0199 -0.2265
  454TIP3    H1 1368   4.666   5.981   0.044  0.2174 -2.5341 -1.7811
  454TIP3    H2 1369   4.714   5.895   0.159  0.1426 -0.4213 -0.0907
  455TIP3   OH2 1370   3.746   0.881   1.897 -0.2741 -0.4431  0.2546
  455TIP3    H1 1371   3.735   0.857   1.805  2.5091  0.0521 -0.2794
  455TIP3    H2 1372   3.819   0.827   1.928 -1.2972 -0.7789  2.3002
  456TIP3   OH2 1373   3.741   5.713   3.946  0.2269  0.4343 -0.1910
  456TIP3    H1 1374   3.689   5.638   3.974  0.7674 -0.8010 -2.3151
  456TIP3    H2 1375   3.705   5.737   3.860  0.4156  2.3056  0.1961
  457TIP3   OH2 1376   2.514   2.372   2.425  0.2493  0.4401  0.3425
  457TIP3    H1 1377   2.421   2.395   2.428  0.2052  0.8443 -1.9797
  457TIP3    H2 1378   2.517   2.292   2.372  1.3492  1.6126 -1.4713
  458TIP3   OH2 1379   5.301   3.140   3.554 -0.1658  0.7261 -0.2320
  458TIP3    H1 1380   5.315   3.058   3.602  0.0429  0.6410 -0.4399
  458TIP3    H2 1381   5.320   3.118   3.463  1.0451  1.3003 -0.1350
  459TIP3   OH2 1382   5.460   5.051   0.412 -0.5102 -0.0048 -0.3526
  459TIP3    H1 1383   5.465   4.966   0.367  1.0886 -0.3512  0.3999
  459TIP3    H2 1384   5.547   5.089   0.400  0.3410 -0.5480  3.2567
  460TIP3   OH2 1385   0.711   3.075   0.082 -1.3720  0.3384  0.1572
  460TIP3    H1 1386   0.638   3.128   0.048 -0.3860  0.8902 -1.1743
  460TIP3    H2 1387   0.787   3.104   0.032 -0.8931 -2.8816 -1.1965
  461TIP3   OH2 1388   0.708   4.609   2.522  0.1673  0.1141 -0.4312
  461TIP3    H1 1389   0.736   4.613   2.613 -0.0704 -1.7763 -0.2281
  461TIP3    H2 1390   0.759   4.537   2.485 -0.8094 -0.1095 -1.3911
  462TIP3   OH2 1391   0.605   5.534   4.590 -0.3461  0.8698  0.1324
  462TIP3    H1 1392   0.601   5.627   4.570  0.4031  0.9396  0.3014
  462TIP3    H2 1393   0.586   5.491   4.507  1.8468  1.1631 -0.5844
  463TIP3   OH2 1394   6.074   2.005   3.762 -0.1331  0.1408 -0.3415
  463TIP3    H1 1395   6.089   2.012   3.856 -0.4582  0.2924 -0.2993
  463TIP3    H2 1396   6.161   2.000   3.724 -0.0023  0.0071 -0.0255
  464TIP3   OH2 1397   5.566   2.707   2.847  0.2238 -0.2292  0.5032
  464TIP3    H1 1398   5.598   2.623   2.813  2.4248  0.7645 -0.1136
  464TIP3    H2 1399   5.545   2.758   2.769 -1.3598 -0.2660  0.8818
  465TIP3   OH2 1400   0.993   4.925   1.198 -0.2955 -0.4333 -0.3351
  465TIP3    H1 1401   0.993   4.854   1.133 -1.4640 -0.1204 -0.6924
  465TIP3    H2 1402   0.933   4.895   1.266 -2.2348  0.9321 -1.3392
  466TIP3   OH2 1403   0.680   5.448   4.846  0.6479 -0.0243  0.7554
  466TIP3    H1 1404   0.662   5.482   4.758 -1.2846  0.0417  1.1197
  466TIP3    H2 1405   0.654   5.520   4.904 -0.4396 -0.9376  1.4351
  467TIP3   OH2 1406   6.180   1.957   0.957 -0.6446  0.8301  0.1011
  467TIP3    H1 1407   6.203   1.996   0.873 -0.8881  2.2511  0.6662
  467TIP3    H2 1408   6.243   1.994   1.019 -1.7185  1.3889  0.8961
  468TIP3   OH2 1409   4.509   0.246   0.432  0.5203  0.0315 -0.7334
  468TIP3    H1 1410   4.551   0.294   0.362 -0.9986  0.9173 -1.0747
  468TIP3    H2 1411   4.542   0.156   0.423  0.3459  0.1178 -2.6003
  469TIP3   OH2 1412   1.580   1.405   1.035 -0.0322  0.4409 -0.0701
  469TIP3    H1 1413   1.607   1.496   1.029  0.9213  0.1409 -0.5536
  469TIP3    H2 1414   1.518   1.403   1.108  2.0692  0.9918  1.8690
  470TIP3   OH2 1415   2.711   2.212   0.772 -0.1073  0.3075  0.5567
  470TIP3    H1 1416   2.652   2.150   0.816 -0.6909  1.0188  0.7917
  470TIP3    H2 1417   2.652   2.274   0.729  0.4726  0.4068 -0.1019
  471TIP3   OH2 1418   6.272   3.552   1.284  0.0605  0.2617  0.0816
  471TIP3    H1 1419   6.230   3.629   1.322  0.5553  0.4689  0.2080
  471TIP3    H2 1420   6.328   3.518   1.353  2.0477  1.4366 -0.8301
  472TIP3   OH2 1421   1.253   5.917   1.957 -0.1577 -0.4455 -0.2863
  472TIP3    H1 1422   1.310   5.934   1.882 -0.2966 -0.0611 -0.3049
  472TIP3    H2 1423   1.312   5.919   2.033 -0.0283 -0.7733 -0.3728
  473TIP3   OH2 1424   4.476   5.947   4.048 -0.6417  0.7787  0.2312
  473TIP3    H1 1425   4.479   6.017   3.982 -0.8952 -0.5542 -1.2482
  473TIP3    H2 1426   4.566   5.915   4.052 -0.9757 -0.3798 -0.8915
  474TIP3   OH2 1427   2.448   2.653   3.142  0.0870 -0.3690  0.4049
  474TIP3    H1 1428   2.500   2.603   3.079  1.1495  0.6457  0.4365
  474TIP3    H2 1429   2.491   2.636   3.227  0.4875  0.6031  0.4085
  475TIP3   OH2 1430   3.701   2.355   4.080  0.0277 -0.3182 -0.1417
  475TIP3    H1 1431   3.672   2.375   3.991  1.2310 -0.9448 -0.6980
  475TIP3    H2 1432   3.635   2.294   4.113 -0.7446  0.3680 -0.3744
  476TIP3   OH2 1433   4.910   0.156   3.824  0.4570  0.5598 -0.1376
  476TIP3    H1 1434   4.906   0.146   3.729 -0.1359  2.8713 -0.4180
  476TIP3    H2 1435   4.923   0.067   3.857 -0.5006 -0.4658 -2.3071
  477TIP3   OH2 1436   6.014   5.127   3.538  0.1225 -0.0658  0.6449
  477TIP3    H1 1437   6.082   5.181   3.578  2.2572 -2.3429  0.2949
  477TIP3    H2 1438   6.020   5.043   3.582  0.2124 -1.5638 -2.0386
  478TIP3   OH2 1439   2.097   1.526   2.394  0.4189 -0.6975 -0.1428
  478TIP3    H1 1440   2.068   1.450   2.444  1.7366 -0.8882  0.3744
  478TIP3    H2 1441   2.153   1.575   2.455  0.0605  0.3848 -0.6465
  479TIP3   OH2 1442   1.559   2.726   1.902  0.1840 -0.2148 -0.2439
  479TIP3    H1 1443   1.636   2.752   1.951  0.3855  1.2998 -1.3032
  479TIP3    H2 1444   1.498   2.799   1.913 -0.6142 -0.8300 -0.4689
  480TIP3   OH2 1445   1.415   5.281   0.942  0.3699  0.3847  0.2627
  480TIP3    H1 1446   1.436   5.247   1.029  1.2146 -0.1305 -0.1257
  480TIP3    H2 1447   1.490   5.256   0.888 -0.2830  0.4145 -0.6886
  481TIP3   OH2 1448   5.317   3.190   0.197  0.0841  0.1916 -0.0233
  481TIP3    H1 1449   5.373   3.228   0.129  1.8945 -1.3259  0.5257
  481TIP3    H2 1450   5.312   3.097   0.174 -0.4993 -0.0665  1.0889
  482TIP3   OH2 1451   3.223   3.610   2.119  0.3623  0.3132  0.3021
  482TIP3    H1 1452   3.301   3.611   2.175  0.9100 -0.0195 -0.4329
  482TIP3    H2 1453   3.236   3.683   2.059 -0.4324  0.9394  0.8669
  483TIP3   OH2 1454   4.217   1.248   1.619  0.2515  0.1792 -0.4937
  483TIP3    H1 1455   4.213   1.153   1.607  1.2147  0.2340 -1.3305
  483TIP3    H2 1456   4.125   1.276   1.617 -0.2474 -0.9713  2.0325
  484TIP3   OH2 1457   5.253   5.109   5.150 -0.0369  0.1185  0.4491
  484TIP3    H1 1458   5.220   5.020   5.166 -1.6942  0.4128 -1.0842
  484TIP3    H2 1459   5.329   5.117   5.208 -0.5032 -1.9079  1.4180
  485TIP3   OH2 1460   0.842   4.206   1.376  0.2301 -0.6606  0.2039
  485TIP3    H1 1461   0.750   4.197   1.402  0.2230 -0.2453  0.3337
  485TIP3    H2 1462   0.874   4.279   1.430 -0.7381  2.7483 -3.3770
  486TIP3   OH2 1463   1.172   3.296   4.223 -0.4941 -0.0483 -0.7309
  486TIP3    H1 1464   1.208   3.267   4.307 -2.3466  0.6032  0.3523
  486TIP3    H2 1465   1.116   3.224   4.194  1.8014 -1.2306 -2.6105
  487TIP3   OH2 1466   3.722   2.040   1.163  0.2650  0.1016  0.2340
  487TIP3    H1 1467   3.684   2.091   1.235  0.9775  1.7144 -0.4931
  487TIP3    H2 1468   3.808   2.078   1.149  0.3366 -0.5139 -1.1534
  488TIP3   OH2 1469   3.811   3.097   1.054  0.0382 -0.7533 -0.0117
  488TIP3    H1 1470   3.847   3.022   1.006  1.1901 -0.0804 -0.2465
  488TIP3    H2 1471   3.716   3.085   1.049  0.0057 -0.1469 -3.4846
  489TIP3   OH2 1472   5.810   0.668   3.092 -0.1544 -0.5267 -0.8424
  489TIP3    H1 1473   5.890   0.684   3.141 -0.5550  0.2065 -0.4080
  489TIP3    H2 1474   5.839   0.641   3.005  0.5601 -0.6159 -0.5756
  490TIP3   OH2 1475   0.057   1.191   2.278 -0.0260  0.1332 -0.1178
  490TIP3    H1 1476  -0.036   1.199   2.297 -0.7377 -0.7872 -2.8651
  490TIP3    H2 1477   0.077   1.099   2.295 -0.3120 -0.3296 -2.1234
  491TIP3   OH2 1478   3.963   1.059   3.784 -0.4074 -0.0715 -0.2401
  491TIP3    H1 1479   4.033   1.020   3.837 -1.2930 -1.0679  0.2390
  491TIP3    H2 1480   4.008   1.096   3.708  0.7122 -0.0363  0.4228
  492TIP3   OH2 1481   5.353   0.313   2.749  0.0590 -0.0496  0.3245
  492TIP3    H1 1482   5.431   0.260   2.763  0.6081 -0.3503 -3.0341
  492TIP3    H2 1483   5.293   0.255   2.700 -0.6790  1.3363 -0.4998
  493TIP3   OH2 1484   4.897   1.593   0.969  0.4892  0.2094 -0.1517
  493TIP3    H1 1485   4.856   1.524   1.022  0.3847 -0.3103 -0.8919
  493TIP3    H2 1486   4.978   1.553   0.938  1.0819  0.8881  0.4894
  494TIP3   OH2 1487   6.318   4.651   2.263 -0.3044  0.0648 -0.0909
  494TIP3    H1 1488   6.231   4.690   2.253 -0.0107  0.5784 -0.6428
  494TIP3    H2 1489   6.346   4.676   2.351 -1.4284 -1.5591  0.7935
  495TIP3   OH2 1490   0.029   0.065   0.617 -0.1129 -0.7278 -0.1626
  495TIP3    H1 1491  -0.042   0.004   0.636 -0.7256  0.6394  2.4107
  495TIP3    H2 1492   0.019   0.086   0.525 -3.3192 -0.2992  0.1660
  496TIP3   OH2 1493   4.023   1.607   0.908 -0.3245  0.1799  0.2803
  496TIP3    H1 1494   3.972   1.688   0.912  2.2241  1.9169  0.0101
  496TIP3    H2 1495   4.055   1.603   0.818 -0.4695 -1.1749  0.2707
  497TIP3   OH2 1496   1.994   5.508   1.570  0.1170 -0.7426  0.3108
  497TIP3    H1 1497   1.916   5.484   1.520  1.0773 -0.5182 -1.3629
  497TIP3    H2 1498   2.036   5.576   1.517  0.5965  0.3427  2.0094
  498TIP3   OH2 1499   2.411   4.303   2.594  0.5943  0.0018 -0.4256
  498TIP3    H1 1500   2.430   4.215   2.559 -1.0395 -0.2425 -0.7552
  498TIP3    H2 1501   2.399   4.288   2.688  0.3052 -0.1247 -0.4830
  499TIP3   OH2 1502   4.816   5.651   5.037  0.1668 -0.2578 -0.5458
  499TIP3    H1 1503   4.770   5.672   4.956 -1.5629  1.2507  0.7475
  499TIP3    H2 1504   4.876   5.724   5.051  0.1837 -0.3235 -0.2601
  500TIP3   OH2 1505   5.357   5.547   2.105  0.1699 -0.1357  0.2160
  500TIP3    H1 1506   5.350   5.581   2.194  0.9693  0.4141  0.0862
  500TIP3    H2 1507   5.383   5.456   2.116 -0.8595 -0.3926  0.5559
  501TIP3   OH2 1508   3.908   1.708   3.248 -0.1239 -0.0526  0.1230
  501TIP3    H1 1509   3.878   1.731   3.160 -0.4312  2.2830  0.7537
  501TIP3    H2 1510   3.905   1.791   3.296  2.5133 -0.7187  1.6412
  502TIP3   OH2 1511   4.438   2.214   2.836 -0.1633 -0.2864 -0.0831
  502TIP3    H1 1512   4.391   2.149   2.888 -1.8558 -0.0180 -1.1871
  502TIP3    H2 1513   4.450   2.172   2.750 -0.6794  0.5903 -0.5986
  503TIP3   OH2 1514   3.341   2.049   3.717  0.1484 -0.0819 -0.0446
  503TIP3    H1 1515   3.299   2.087   3.640 -1.1190 -1.6531 -0.1661
  503TIP3    H2 1516   3.431   2.032   3.689 -0.0702  0.1364 -0.9055
  504TIP3   OH2 1517   1.593   5.780   0.539 -0.0680 -0.0398  0.1540
  504TIP3    H1 1518   1.583   5.690   0.570  0.7550 -0.0419  0.4335
  504TIP3    H2 1519   1.669   5.813   0.587 -1.0132  1.1650  0.8692
  505TIP3   OH2 1520   1.281   4.473   2.846 -0.8691 -0.2337 -0.1623
  505TIP3    H1 1521   1.296   4.489   2.939  0.6825 -1.7606 -0.1047
  505TIP3    H2 1522   1.308   4.555   2.804 -1.0312  0.2699  0.6818
  506TIP3   OH2 1523   2.586   5.858   5.127 -0.3216  0.2703  0.1502
  506TIP3    H1 1524   2.653   5.889   5.066 -1.0756  0.0395 -0.8166
  506TIP3    H2 1525   2.607   5.766   5.141  0.0290  0.3979  0.4892
  507TIP3   OH2 1526   3.480   4.957   2.695 -0.6361 -0.3214 -0.7497
  507TIP3    H1 1527   3.460   4.901   2.771  0.8882 -1.3551 -1.0601
  507TIP3    H2 1528   3.487   4.897   2.622  0.1798  0.3662 -1.2655
  508TIP3   OH2 1529   2.565   1.353   2.418 -0.6139  0.3729  0.0024
  508TIP3    H1 1530   2.484   1.305   2.433 -0.5888  0.3919  0.1916
  508TIP3    H2 1531   2.634   1.295   2.449 -0.6311  0.8265  0.9109
  509TIP3   OH2 1532   3.573   5.921   0.121  0.1631  0.1840 -0.1115
  509TIP3    H1 1533   3.519   5.847   0.091 -0.2379  1.1569 -1.9214
  509TIP3    H2 1534   3.509   5.985   0.152  0.2184  1.2145 -1.9732
  510TIP3   OH2 1535   3.017   2.380   4.229 -0.1932  0.7391 -0.2264
  510TIP3    H1 1536   3.034   2.292   4.197  1.8834  0.9693  0.0964
  510TIP3    H2 1537   2.927   2.377   4.261 -1.1806 -0.4232 -2.8604
  511TIP3   OH2 1538   2.691   2.242   4.093 -0.0246 -0.4453  0.3292
  511TIP3    H1 1539   2.727   2.204   4.013 -2.3473 -1.3998 -0.3653
  511TIP3    H2 1540   2.682   2.169   4.153  1.2155  0.1758  1.3096
  512TIP3   OH2 1541   1.789   2.257   2.239 -0.4086  0.2930  0.0210
  512TIP3    H1 1542   1.845   2.245   2.316 -1.5477 -0.6270  0.7539
  512TIP3    H2 1543   1.736   2.177   2.237 -0.5717  0.4215 -1.5908
  513TIP3   OH2 1544   1.055   4.187   2.834 -0.0221  0.2261  0.1635
  513TIP3    H1 1545   1.002   4.253   2.879 -1.0471 -1.4202  1.4616
  513TIP3    H2 1546   0.996   4.113   2.823  1.3534 -0.7989 -0.4925
  514TIP3   OH2 1547   2.025   4.112   4.190  0.3715  0.3729 -0.1873
  514TIP3    H1 1548   2.030   4.090   4.097  0.4969 -2.6406  0.4342
  514TIP3    H2 1549   2.106   4.075   4.227 -0.3956  0.1480  1.3355
  515TIP3   OH2 1550   0.707   3.474   0.148 -0.6716 -0.1638 -0.1292
  515TIP3    H1 1551   0.684   3.500   0.237 -1.4044  0.1513 -0.3965
  515TIP3    H2 1552   0.663   3.390   0.135  1.7988 -1.6952  0.7758
  516TIP3   OH2 1553   4.482   1.184   0.058 -0.1117  0.1038  0.4378
  516TIP3    H1 1554   4.483   1.169   0.153  0.9466  1.2016  0.6290
  516TIP3    H2 1555   4.548   1.252   0.044 -1.9543  1.7497 -0.7919
  517TIP3   OH2 1556   1.917   1.663   1.451 -0.5308  0.2467 -0.0095
  517TIP3    H1 1557   1.907   1.569   1.438 -1.5252  0.1575  1.2579
  517TIP3    H2 1558   1.945   1.696   1.366 -0.6939 -1.1157 -0.6154
  518TIP3   OH2 1559   4.583   4.628   0.600  0.3031  0.1572 -0.0105
  518TIP3    H1 1560   4.531   4.585   0.668  0.5543 -0.7787 -0.3894
  518TIP3    H2 1561   4.548   4.592   0.518  0.6496  0.5436 -0.3306
  519TIP3   OH2 1562   5.777   0.185   2.300  0.2230 -0.1315 -0.3489
  519TIP3    H1 1563   5.729   0.106   2.275 -0.9161  0.6811 -0.7811
  519TIP3    H2 1564   5.742   0.209   2.385 -0.0471  0.3831 -0.6011
  520TIP3   OH2 1565   4.116   1.950   4.174 -0.1696 -0.4876 -0.4232
  520TIP3    H1 1566   4.091   2.003   4.098 -1.7542  0.6492  0.8351
  520TIP3    H2 1567   4.092   1.861   4.149 -0.5136 -0.1506 -1.3316
  521TIP3   OH2 1568   5.258   1.085   1.987 -0.3399 -0.2285  0.0785
  521TIP3    H1 1569   5.174   1.126   2.003 -0.7473 -0.3043 -1.6557
  521TIP3    H2 1570   5.250   1.046   1.900  0.9652 -1.5878  0.5159
  522TIP3   OH2 1571   3.180   5.445   2.652  0.2759  0.2054 -0.1429
  522TIP3    H1 1572   3.206   5.353   2.649  0.9253  0.3631  0.4632
  522TIP3    H2 1573   3.194   5.472   2.743 -1.2525  0.5339  0.0221
  523TIP3   OH2 1574   3.613   2.700   1.661 -0.0135 -0.6254  0.1898
  523TIP3    H1 1575   3.679   2.715   1.728  0.9487  1.5042 -1.0980
  523TIP3    H2 1576   3.531   2.688   1.709  0.8953 -0.7876  1.7596
  524TIP3   OH2 1577   1.613   4.865   3.346  0.8319  0.3675 -0.5176
  524TIP3    H1 1578   1.646   4.906   3.426  0.6869  0.2025 -0.3736
  524TIP3    H2 1579   1.668   4.788   3.334 -1.5439 -1.8239  1.5565
  525TIP3   OH2 1580   1.685   2.902   3.769  0.0839  0.7208  0.2733
  525TIP3    H1 1581   1.668   2.815   3.733 -1.6950 -0.5420  3.7135
  525TIP3    H2 1582   1.629   2.960   3.718 -0.1956 -0.4536 -0.8115
  526TIP3   OH2 1583   2.977   0.950   2.535  0.0312  0.6065  0.0649
  526TIP3    H1 1584   2.885   0.924   2.536  0.5179 -1.3930  2.9499
  526TIP3    H2 1585   3.012   0.909   2.456 -0.9730 -1.0825  0.4466
  527TIP3   OH2 1586   6.037   3.926   5.108 -0.1486  0.3213 -0.0642
  527TIP3    H1 1587   5.978   3.928   5.183  0.2516 -0.2044  0.2751
  527TIP3    H2 1588   6.121   3.959   5.142  0.0877 -0.1022 -0.2253
  528TIP3   OH2 1589   3.482   5.777   3.816  0.0229 -0.2196 -0.9587
  528TIP3    H1 1590   3.548   5.774   3.747 -0.9582  0.7931 -1.9818
  528TIP3    H2 1591   3.438   5.861   3.804 -1.7017 -1.0050 -0.5664
  529TIP3   OH2 1592   1.780   4.606   0.567  0.2000  0.2375  0.5041
  529TIP3    H1 1593   1.849   4.660   0.529 -2.1305  1.6240 -2.1465
  529TIP3    H2 1594   1.769   4.640   0.656  0.8224  2.1574 -0.0990
  530TIP3   OH2 1595   0.824   2.424   0.254 -0.0025 -0.2300  0.0912
  530TIP3    H1 1596   0.788   2.479   0.184 -0.5084 -0.8429 -0.1342
  530TIP3    H2 1597   0.918   2.418   0.233  0.6101  2.5456  1.4690
  531TIP3   OH2 1598   0.949   5.041   0.131 -0.4211  0.0194  0.0629
  531TIP3    H1 1599   1.025   5.096   0.152 -0.8439  0.4023  0.6246
  531TIP3    H2 1600   0.941   4.982   0.207 -0.0696 -0.7150 -0.4617
  532TIP3   OH2 1601   3.490   1.645   3.572  0.3002  0.0586  0.2910
  532TIP3    H1 1602   3.483   1.650   3.477  1.1691 -0.2352  0.2040
  532TIP3    H2 1603   3.407   1.606   3.600  0.3899 -0.6569 -0.4140
  533TIP3   OH2 1604   2.668   5.355   3.780 -0.0613 -0.3566  0.2540
  533TIP3    H1 1605   2.584   5.393   3.806 -0.0088 -0.3166  0.3676
  533TIP3    H2 1606   2.663   5.348   3.685 -1.5230 -3.3847  0.4303
  534TIP3   OH2 1607   0.929   1.803   1.148 -0.0105 -0.5355 -0.4831
  534TIP3    H1 1608   0.889   1.716   1.141  2.4947 -1.9174  1.0128
  534TIP3    H2 1609   0.917   1.828   1.240 -0.1327  0.4378 -0.7463
  535TIP3   OH2 1610   3.101   0.567   3.307  0.1016 -0.3422 -1.2938
  535TIP3    H1 1611   3.063   0.515   3.377  0.7008 -0.0772 -0.7557
  535TIP3    H2 1612   3.030   0.579   3.244 -1.9011  3.1333  1.2662
  536TIP3   OH2 1613   4.501   4.928   3.621  0.2340  0.2510  0.1230
  536TIP3    H1 1614   4.566   4.991   3.652  0.1959 -0.8354  2.6802
  536TIP3    H2 1615   4.553   4.860   3.577  0.7132  0.0496  0.9795
  537TIP3   OH2 1616   2.067   5.843   2.985 -0.4478  0.0008 -0.0022
  537TIP3    H1 1617   2.039   5.932   3.007 -1.3572 -0.4525  0.7122
  537TIP3    H2 1618   1.991   5.804   2.942  0.1696 -0.2289 -0.9189
  538TIP3   OH2 1619   2.819   5.713   4.233 -0.1597 -0.0841 -0.5067
  538TIP3    H1 1620   2.848   5.681   4.147 -0.1405 -2.2009  0.2273
  538TIP3    H2 1621   2.844   5.644   4.294  1.5226  2.1658  1.5499
  539TIP3   OH2 1622   3.607   0.108   3.587  0.0821 -0.0350 -0.2070
  539TIP3    H1 1623   3.569   0.195   3.599 -0.5757  0.1298 -2.7908
  539TIP3    H2 1624   3.701   0.122   3.592 -0.0412  0.6480  0.3693
  540TIP3   OH2 1625   0.934   3.612   2.543 -0.4138  0.1238  0.5095
  540TIP3    H1 1626   0.936   3.704   2.570  0.2276  0.1048  0.5446
  540TIP3    H2 1627   0.847   3.600   2.504  0.2020  1.3064 -1.4127
  541TIP3   OH2 1628   0.417   2.495   1.195  0.4470  0.4720  0.0380
  541TIP3    H1 1629   0.376   2.520   1.112 -0.8986  0.9122  0.8074
  541TIP3    H2 1630   0.478   2.567   1.214  1.1305  0.1298 -0.7968
  542TIP3   OH2 1631   3.700   4.947   1.099 -0.1462  0.6869 -0.2666
  542TIP3    H1 1632   3.758   4.902   1.160 -0.5359  0.8368  0.2188
  542TIP3    H2 1633   3.714   5.040   1.117  1.7123  0.8551 -2.2319
  543TIP3   OH2 1634   0.573   2.196   4.390  0.3246  0.4394 -0.3997
  543TIP3    H1 1635   0.563   2.116   4.442 -0.8744 -0.6941 -2.2852
  543TIP3    H2 1636   0.533   2.264   4.445 -4.1531 -1.3049 -1.0623
  544TIP3   OH2 1637   2.032   5.201   5.008 -0.3684  0.1560  0.3080
  544TIP3    H1 1638   1.986   5.121   4.982  0.1317  0.0289 -0.1916
  544TIP3    H2 1639   2.089   5.174   5.079  0.0676 -0.0120 -0.1013
  545TIP3   OH2 1640   4.158   3.784   1.335  0.1507  0.4690 -0.3877
  545TIP3    H1 1641   4.066   3.761   1.331 -0.2963  1.9143  0.8064
  545TIP3    H2 1642   4.169   3.849   1.265  0.2896  0.2535 -0.5685
  546TIP3   OH2 1643   5.001   4.248   1.399  0.4504  0.1592 -0.8265
  546TIP3    H1 1644   4.936   4.221   1.334 -0.5611 -0.8213  0.5414
  546TIP3    H2 1645   5.085   4.237   1.355 -0.2688  1.5001 -2.6516
  547TIP3   OH2 1646   0.161   2.879   3.704 -0.4050  0.5490 -0.1579
  547TIP3    H1 1647   0.233   2.877   3.768 -1.0996  0.4221  0.6437
  547TIP3    H2 1648   0.144   2.972   3.690 -1.7736  0.6423  1.6560
  548TIP3   OH2 1649   3.481   5.467   2.416 -0.1424  0.0777  0.0627
  548TIP3    H1 1650   3.504   5.505   2.331 -0.8755  1.0517  0.2851
  548TIP3    H2 1651   3.410   5.406   2.397 -2.0523  2.1209  0.2524
  549TIP3   OH2 1652   4.250   1.818   2.104  0.3830 -0.1340 -0.6235
  549TIP3    H1 1653   4.316   1.884   2.126  1.4158 -1.0836 -0.7824
  549TIP3    H2 1654   4.197   1.859   2.036  0.4448  0.8567 -0.0999
  550TIP3   OH2 1655   1.616   1.760   2.524  0.4226  0.2567 -0.3493
  550TIP3    H1 1656   1.689   1.700   2.543 -1.4734 -1.8174  0.9627
  550TIP3    H2 1657   1.597   1.746   2.432 -0.1386 -1.4362 -0.0118
  551TIP3   OH2 1658   2.830   5.752   0.166  0.1342  0.2260  0.2186
  551TIP3    H1 1659   2.806   5.800   0.087  2.5359 -1.7471 -1.9154
  551TIP3    H2 1660   2.747   5.731   0.208 -1.1802  2.1419 -1.2410
  552TIP3   OH2 1661   3.940   4.113   2.849 -1.1526  0.3115  0.7247
  552TIP3    H1 1662   3.903   4.132   2.935 -3.2586 -1.0417  0.1995
  552TIP3    H2 1663   3.920   4.020   2.835 -0.9362  0.5315 -1.2448
  553TIP3   OH2 1664   1.715   1.684   3.706  0.0743 -0.3921  0.1569
  553TIP3    H1 1665   1.656   1.755   3.732  1.1452 -0.2793  2.5335
  553TIP3    H2 1666   1.657   1.609   3.692 -0.7998  0.1173  0.9233
  554TIP3   OH2 1667   5.265   4.785   4.168 -0.2707 -0.5174  0.1245
  554TIP3    H1 1668   5.309   4.750   4.090  2.8576  0.5146  1.2638
  554TIP3    H2 1669   5.228   4.869   4.138  1.0551 -0.0401 -0.2450
  555TIP3   OH2 1670   4.937   4.904   2.137 -0.5423  0.6071  0.1345
  555TIP3    H1 1671   4.975   4.850   2.068  2.3771  1.1866  1.1134
  555TIP3    H2 1672   4.988   4.985   2.135 -0.8054  0.9100  2.4548
  556TIP3   OH2 1673   0.732   2.948   1.328  0.1155 -0.0716  1.1685
  556TIP3    H1 1674   0.729   2.884   1.399  2.1965 -2.0639 -0.3902
  556TIP3    H2 1675   0.640   2.967   1.309 -0.5368 -1.7042  2.4889
  557TIP3   OH2 1676   5.063   2.763   2.486 -1.1161 -0.0441 -0.5637
  557TIP3    H1 1677   5.118   2.743   2.410 -0.6337 -1.1957  0.0608
  557TIP3    H2 1678   5.042   2.856   2.477  2.5763  1.0634  0.1466
  558TIP3   OH2 1679   4.794   0.835   4.752  0.2053 -0.2069 -0.2537
  558TIP3    H1 1680   4.810   0.818   4.660 -0.2722 -1.6579 -0.0950
  558TIP3    H2 1681   4.789   0.748   4.792 -0.7456  0.3604  0.9272
  559TIP3   OH2 1682   4.580   2.612   5.129 -0.4656  0.1704 -0.2977
  559TIP3    H1 1683   4.588   2.562   5.210  0.8250  1.3331  0.3470
  559TIP3    H2 1684   4.578   2.546   5.059  2.7710 -0.8535  0.3899
  560TIP3   OH2 1685  -0.015   2.117   1.891  0.3769 -0.1334 -0.4030
  560TIP3    H1 1686   0.079   2.126   1.904  0.1973  1.0669  0.1736
  560TIP3    H2 1687  -0.026   2.108   1.796  1.1028 -0.9783 -0.4206
  561TIP3   OH2 1688   0.596   0.896   1.266 -0.5376 -0.3555 -0.3343
  561TIP3    H1 1689   0.676   0.940   1.237 -0.4337 -0.4664 -0.2210
  561TIP3    H2 1690   0.560   0.856   1.187 -1.1392  0.7179 -0.6138
  562TIP3   OH2 1691   3.036   0.963   2.023 -0.3798  0.2475 -0.3974
  562TIP3    H1 1692   3.101   0.896   2.044 -1.1572 -0.2435  0.5300
  562TIP3    H2 1693   2.951   0.921   2.039 -0.8995  1.2648 -0.3710
  563TIP3   OH2 1694   6.085   0.656   2.541 -0.0308 -0.3269  0.3387
  563TIP3    H1 1695   6.172   0.628   2.512 -0.5252 -1.2694 -0.2962
  563TIP3    H2 1696   6.096   0.748   2.564  0.6584  0.1873 -1.8090
  564TIP3   OH2 1697   1.136   3.053   1.817 -0.2322  0.0000  0.0286
  564TIP3    H1 1698   1.149   2.963   1.788 -0.2618 -0.0549  0.1836
  564TIP3    H2 1699   1.185   3.059   1.899 -1.0851 -0.1796  0.5630
  565TIP3   OH2 1700   2.959   4.480   0.160 -0.0181 -0.3137  0.2597
  565TIP3    H1 1701   2.960   4.505   0.252  0.8461  2.0832 -0.3404
  565TIP3    H2 1702   3.013   4.401   0.156  0.4924 -0.0584  1.6837
  566TIP3   OH2 1703   0.050   2.864   2.834 -0.1241 -0.4478 -0.2661
  566TIP3    H1 1704   0.124   2.824   2.788 -0.5965 -0.4976 -0.9953
  566TIP3    H2 1705   0.077   2.955   2.848  0.0793 -0.4664 -0.5272
  567TIP3   OH2 1706   0.801   1.154   0.214  0.3327  0.7035 -0.2798
  567TIP3    H1 1707   0.768   1.169   0.126 -1.7703  0.4942  0.4102
  567TIP3    H2 1708   0.829   1.062   0.214  2.3517  1.2700 -1.2735
  568TIP3   OH2 1709   4.019   1.449   1.978  0.2553 -0.1827 -0.0725
  568TIP3    H1 1710   4.070   1.419   1.902  0.5404 -1.0440  0.4477
  568TIP3    H2 1711   3.992   1.538   1.954 -0.1178 -0.6247 -1.4204
  569TIP3   OH2 1712   4.216   2.191   5.010  0.4319  0.6904  0.1370
  569TIP3    H1 1713   4.268   2.132   4.956  0.3258 -1.0020  1.7710
  569TIP3    H2 1714   4.126   2.175   4.985  0.4492  0.6359  0.1101
  570TIP3   OH2 1715   5.890   4.472   1.817 -0.3627  1.1421 -0.1516
  570TIP3    H1 1716   5.822   4.479   1.884  1.2394  2.3803  1.4380
  570TIP3    H2 1717   5.848   4.503   1.737 -2.0206  0.6722  0.4903
  571TIP3   OH2 1718   5.494   5.011   1.521  0.3669 -0.3345 -0.2182
  571TIP3    H1 1719   5.586   4.986   1.516  0.6218  0.6899 -1.0401
  571TIP3    H2 1720   5.471   5.037   1.431 -0.1032  1.4755  0.3836
  572TIP3   OH2 1721   1.400   4.708   2.393  0.0050  0.0242  0.2373
  572TIP3    H1 1722   1.371   4.764   2.465  0.8304  0.8508 -0.0460
  572TIP3    H2 1723   1.348   4.628   2.402  0.2622  0.0080  1.8895
  573TIP3   OH2 1724   5.256   2.209   0.253 -0.2725 -0.5509 -0.2028
  573TIP3    H1 1725   5.168   2.227   0.286 -0.7039 -2.4675 -0.1861
  573TIP3    H2 1726   5.314   2.257   0.312 -1.2892  2.6896 -1.5671
  574TIP3   OH2 1727   5.476   0.147   1.477  1.0228 -0.4783  0.2824
  574TIP3    H1 1728   5.551   0.206   1.476  0.5141  0.1887  0.2807
  574TIP3    H2 1729   5.409   0.194   1.528  0.2937 -0.6400 -0.4997
  575TIP3   OH2 1730   3.329   2.378   0.509 -0.3521  0.0601  0.3491
  575TIP3    H1 1731   3.238   2.363   0.536 -1.1719  2.6049 -0.6407
  575TIP3    H2 1732   3.330   2.361   0.415  0.3249 -0.3700  0.4278
  576TIP3   OH2 1733   2.887   4.018   1.113 -0.4049  0.2434  0.2868
  576TIP3    H1 1734   2.909   4.033   1.021 -2.2252 -0.0837 -0.2406
  576TIP3    H2 1735   2.879   4.106   1.149  1.4832  0.3853  0.4863
  577TIP3   OH2 1736   4.166   3.702   0.789 -0.3676 -0.2949  0.7395
  577TIP3    H1 1737   4.230   3.702   0.860  0.5714 -0.0574 -0.0923
  577TIP3    H2 1738   4.216   3.678   0.711 -1.1662  0.5423 -0.0502
  578TIP3   OH2 1739   3.519   0.010   2.574 -0.1377 -0.5555 -1.1268
  578TIP3    H1 1740   3.594   0.028   2.519  0.1123 -0.1189 -0.6526
  578TIP3    H2 1741   3.528   0.070   2.648 -2.1911  1.1930 -2.1813
  579TIP3   OH2 1742   5.097   0.536   1.917 -0.0185 -0.3310  0.3004
  579TIP3    H1 1743   5.012   0.571   1.946  0.3607  0.2829  0.7129
  579TIP3    H2 1744   5.161   0.595   1.958  0.6862 -1.9605  1.6529
  580TIP3   OH2 1745   5.119   1.278   2.714  0.4558  0.5759  0.0308
  580TIP3    H1 1746   5.146   1.195   2.754 -1.4444  0.4357  1.1780
  580TIP3    H2 1747   5.121   1.341   2.786 -0.0457  1.0466 -0.3561
  581TIP3   OH2 1748   3.998   3.961   0.260  0.1601 -0.0136 -0.4821
  581TIP3    H1 1749   3.969   3.900   0.193  0.5918  0.0931 -0.7753
  581TIP3    H2 1750   4.007   3.908   0.339  1.1847 -0.4830 -0.8946
  582TIP3   OH2 1751   0.960   3.598   4.232 -0.4534  0.0469  0.2694
  582TIP3    H1 1752   0.906   3.541   4.287  0.4116 -0.2960  0.7840
  582TIP3    H2 1753   1.009   3.651   4.295  0.8258 -0.6010 -0.1481
  583TIP3   OH2 1754   4.030   2.799   3.251  0.1313  0.0093  0.4109
  583TIP3    H1 1755   3.984   2.863   3.306 -0.1649 -1.3000  1.7322
  583TIP3    H2 1756   3.965   2.732   3.232  0.6137 -0.2334 -0.4319
  584TIP3   OH2 1757   4.051   0.051   0.762  0.0443  0.6013  0.3944
  584TIP3    H1 1758   4.143   0.075   0.765 -0.2114  1.5797  0.5659
  584TIP3    H2 1759   4.026   0.038   0.853  0.3110 -0.9057  0.2862
  585TIP3   OH2 1760   3.958   4.243   0.805  0.2960  0.3659  0.4647
  585TIP3    H1 1761   3.903   4.234   0.883 -1.7100 -0.0063 -0.9337
  585TIP3    H2 1762   4.010   4.163   0.804 -0.3810 -0.0917  0.9022
  586TIP3   OH2 1763   0.625   1.642   0.839  0.3196 -0.1864  0.0168
  586TIP3    H1 1764   0.622   1.572   0.773 -0.8962  1.5681 -1.9265
  586TIP3    H2 1765   0.547   1.628   0.892  0.2405 -0.4737 -0.1720
  587TIP3   OH2 1766   4.633   0.613   2.320  0.1076  0.2945 -0.0199
  587TIP3    H1 1767   4.540   0.623   2.343  0.2513  0.2882  0.5916
  587TIP3    H2 1768   4.678   0.615   2.404  0.6430  0.0674 -0.2987
  588TIP3   OH2 1769   2.097   1.275   2.537 -0.3967 -0.0632  0.4531
  588TIP3    H1 1770   2.005   1.250   2.546 -0.7206  1.0566  0.4461
  588TIP3    H2 1771   2.114   1.333   2.612  0.3812 -0.4730  0.6056
  589TIP3   OH2 1772   4.837   2.741   1.825  0.3032 -0.2039  0.5907
  589TIP3    H1 1773   4.847   2.814   1.764 -0.5803 -0.7782 -0.2753
  589TIP3    H2 1774   4.927   2.716   1.847  0.6253  0.6318  0.2773
  590TIP3   OH2 1775   0.099   4.911   0.144  0.5734 -0.5621  0.1418
  590TIP3    H1 1776   0.160   4.960   0.089  1.3416 -0.3276  1.1594
  590TIP3    H2 1777   0.153   4.842   0.183 -0.0858 -1.0705  0.1622
  591TIP3   OH2 1778   5.513   1.539   2.796  0.3637 -0.2141  0.1965
  591TIP3    H1 1779   5.490   1.561   2.887  1.3445  1.2570  0.1300
  591TIP3    H2 1780   5.514   1.444   2.794  0.7731 -0.2822  1.8554
  592TIP3   OH2 1781   5.059   3.865   2.851 -0.0434 -0.1679  0.7200
  592TIP3    H1 1782   4.972   3.903   2.862 -0.2216 -0.8426  1.7223
  592TIP3    H2 1783   5.091   3.902   2.769 -1.3080  0.0214  0.2960
  593TIP3   OH2 1784   1.298   5.532   4.765 -0.3190 -0.4364 -0.1722
  593TIP3    H1 1785   1.276   5.588   4.691  0.5599 -0.0167 -0.1269
  593TIP3    H2 1786   1.214   5.513   4.807 -0.9617 -1.5733 -1.8966
  594TIP3   OH2 1787   1.777   3.136   3.478 -0.7161 -0.1250  0.1368
  594TIP3    H1 1788   1.720   3.124   3.554  1.2974 -0.8182  1.6457
  594TIP3    H2 1789   1.829   3.213   3.500  0.3768 -0.7503 -0.1641
  595TIP3   OH2 1790   5.789   2.853   4.674 -0.3275  0.0813  0.2907
  595TIP3    H1 1791   5.823   2.904   4.747 -0.3262 -1.0310  1.1063
  595TIP3    H2 1792   5.699   2.884   4.662  0.3079  1.6923 -0.6110
  596TIP3   OH2 1793   0.216   3.176   0.185  0.5181  0.3170  0.0335
  596TIP3    H1 1794   0.192   3.239   0.117  0.0928 -0.0733 -0.1817
  596TIP3    H2 1795   0.295   3.133   0.150  0.6400  0.5247  0.0513
  597TIP3   OH2 1796   4.342   4.998   4.635  0.0026  0.1697  0.2366
  597TIP3    H1 1797   4.254   4.965   4.653  0.0921  0.1183  0.5825
  597TIP3    H2 1798   4.384   4.929   4.585 -0.6404  0.7948 -1.2435
  598TIP3   OH2 1799   5.398   3.489   4.956  0.1850  0.4500  0.3660
  598TIP3    H1 1800   5.439   3.415   5.000  0.5008  1.0939  1.1751
  598TIP3    H2 1801   5.466   3.556   4.952  0.2056  0.3704 -1.2318
  599TIP3   OH2 1802   2.066   5.269   0.571  0.2846 -0.0476 -0.1546
  599TIP3    H1 1803   2.105   5.325   0.638  0.4286  0.4331 -0.6333
  599TIP3    H2 1804   2.040   5.330   0.501  0.0105 -0.5247 -0.4734
  600TIP3   OH2 1805   1.619   2.211   2.913  0.4347 -0.6059  0.2837
  600TIP3    H1 1806   1.613   2.142   2.979  0.6686  0.3561  1.3394
  600TIP3    H2 1807   1.650   2.167   2.835 -0.1986 -1.8391  0.7089
  601TIP3   OH2 1808   0.267   2.955   4.885 -0.0164  0.0735 -0.4395
  601TIP3    H1 1809   0.224   2.906   4.956  0.3460 -1.5693 -1.3037
  601TIP3    H2 1810   0.232   2.916   4.805  0.3429  1.2165 -1.1723
  602TIP3   OH2 1811   0.626   1.120   1.948 -0.4756 -0.5031  0.0439
  602TIP3    H1 1812   0.708   1.126   1.996 -0.4550 -2.2734  0.2914
  602TIP3    H2 1813   0.601   1.211   1.931  0.6938  0.0946  1.3802
  603TIP3   OH2 1814   3.885   4.138   3.716  0.3168 -0.2796  0.4626
  603TIP3    H1 1815   3.839   4.188   3.649 -0.8402 -1.7511  0.1190
  603TIP3    H2 1816   3.889   4.197   3.791  1.1894  1.2184 -0.6815
  604TIP3   OH2 1817   4.662   1.367   2.890  0.0489 -0.0192  0.2661
  604TIP3    H1 1818   4.618   1.320   2.820  0.4122  0.9047 -0.6052
  604TIP3    H2 1819   4.701   1.443   2.848  3.0202 -1.0706  0.8625
  605TIP3   OH2 1820   5.886   3.702   2.071  0.0922  0.4170 -0.3860
  605TIP3    H1 1821   5.805   3.698   2.020 -0.4171 -2.5012  0.4251
  605TIP3    H2 1822   5.863   3.752   2.149 -1.6961 -2.0363  0.8155
  606TIP3   OH2 1823   5.833   4.745   2.656  0.5353 -0.1823 -0.7063
  606TIP3    H1 1824   5.880   4.725   2.575  0.5685 -3.3825 -0.0202
  606TIP3    H2 1825   5.741   4.737   2.633  0.5311 -0.4816 -0.5958
  607TIP3   OH2 1826   3.292   0.298   2.686  0.5605 -0.2110 -0.3851
  607TIP3    H1 1827   3.314   0.379   2.731 -1.0841  0.3846 -0.6186
  607TIP3    H2 1828   3.294   0.231   2.755 -0.5250  0.4518  0.3134
  608TIP3   OH2 1829   1.476   4.013   0.484 -0.8211 -0.4036  0.0938
  608TIP3    H1 1830   1.508   4.047   0.568  0.3213 -1.8688  0.2956
  608TIP3    H2 1831   1.393   4.059   0.470 -0.4513  0.7574  1.4192
  609TIP3   OH2 1832   4.346   5.526   0.841  1.2361  0.2020  0.0161
  609TIP3    H1 1833   4.389   5.441   0.838  3.5058  1.3019 -1.0368
  609TIP3    H2 1834   4.370   5.562   0.927  0.8879  0.0678  0.1685
  610TIP3   OH2 1835   4.397   0.598   4.433 -0.3315 -0.1669  0.3740
  610TIP3    H1 1836   4.483   0.581   4.394 -0.1583 -0.4579  0.8664
  610TIP3    H2 1837   4.336   0.588   4.361  0.0512  0.0440  0.0171
  611TIP3   OH2 1838   3.207   1.492   3.560 -0.3845  0.1204  0.2287
  611TIP3    H1 1839   3.239   1.440   3.634  0.3419  0.8576  0.4488
  611TIP3    H2 1840   3.237   1.445   3.482 -1.1118 -0.6339  0.3960
  612TIP3   OH2 1841   2.666   1.871   0.121  0.1224 -0.7649 -0.1944
  612TIP3    H1 1842   2.724   1.862   0.045  0.1815  2.7701 -0.7237
  612TIP3    H2 1843   2.583   1.903   0.084 -0.3588 -0.4964  1.0765
  613TIP3   OH2 1844   3.794   3.999   2.045 -0.2124 -0.5528 -0.0190
  613TIP3    H1 1845   3.833   3.959   2.124  0.0951 -0.2728 -0.0268
  613TIP3    H2 1846   3.798   3.929   1.980  0.3725 -0.5027 -0.0471
  614TIP3   OH2 1847   4.548   4.600   1.075 -0.1610  0.2377 -0.3376
  614TIP3    H1 1848   4.547   4.692   1.049 -1.5047  0.8578  1.6490
  614TIP3    H2 1849   4.609   4.597   1.149  0.6934 -0.6886 -1.0757
  615TIP3   OH2 1850   3.094   3.025   5.162 -0.0730 -0.5686  0.1120
  615TIP3    H1 1851   3.181   3.028   5.122 -0.3878  0.8965 -0.5544
  615TIP3    H2 1852   3.107   3.055   5.252 -0.0252  0.9593 -0.3593
  616TIP3   OH2 1853   2.366   3.224   2.546  0.2388 -0.1386  0.3821
  616TIP3    H1 1854   2.294   3.264   2.498  0.2178 -0.6922 -0.0677
  616TIP3    H2 1855   2.327   3.194   2.628  0.2163  0.5745  0.6403
  617TIP3   OH2 1856   3.115   1.826   3.539 -0.1278  0.4983  0.1461
  617TIP3    H1 1857   3.028   1.865   3.531  1.0398  2.9499 -2.6388
  617TIP3    H2 1858   3.141   1.808   3.449  1.9144 -1.0424  0.9731
  618TIP3   OH2 1859   5.272   4.409   0.261 -0.2033  0.3640  0.1854
  618TIP3    H1 1860   5.184   4.386   0.290 -0.4123  0.7102 -0.1576
  618TIP3    H2 1861   5.274   4.381   0.169  0.0323  0.3887  0.1833
  619TIP3   OH2 1862   5.378   2.584   2.429  0.6350 -0.0225 -0.2646
  619TIP3    H1 1863   5.452   2.634   2.395  0.2999 -0.0608 -1.0831
  619TIP3    H2 1864   5.405   2.493   2.421  0.5953 -0.0275 -0.3499
  620TIP3   OH2 1865   0.517   1.672   3.774  0.4789 -0.4135  0.2141
  620TIP3    H1 1866   0.555   1.636   3.694  0.3649 -1.9408  0.8163
  620TIP3    H2 1867   0.449   1.732   3.744  0.8329 -0.5204 -0.8324
  621TIP3   OH2 1868   3.852   2.537   1.607  0.1013 -0.3058  0.2864
  621TIP3    H1 1869   3.839   2.485   1.528  1.4420 -0.3597  0.0713
  621TIP3    H2 1870   3.764   2.555   1.639 -0.5178  0.5979 -1.7849
  622TIP3   OH2 1871   2.246   0.219   0.286  0.0605 -0.4132 -0.5961
  622TIP3    H1 1872   2.307   0.263   0.226  1.8374  0.0812  1.4558
  622TIP3    H2 1873   2.239   0.130   0.251  1.5271 -0.3273 -1.2238
  623TIP3   OH2 1874   3.442   1.653   2.710 -0.2189 -0.2094  0.0533
  623TIP3    H1 1875   3.468   1.662   2.618 -0.7119  1.3113  0.0254
  623TIP3    H2 1876   3.350   1.628   2.707  0.0453 -1.2146  0.1445
  624TIP3   OH2 1877   1.561   3.112   5.098  0.1056  0.1408 -0.0831
  624TIP3    H1 1878   1.502   3.179   5.132  0.9646  0.4308  0.8811
  624TIP3    H2 1879   1.580   3.056   5.173 -0.0246 -0.7618 -0.7135
  625TIP3   OH2 1880   2.728   2.871   4.908  0.2522  0.2399 -0.2656
  625TIP3    H1 1881   2.784   2.797   4.930  1.1319  0.1104 -2.6646
  625TIP3    H2 1882   2.781   2.924   4.848 -0.1554  3.1116  1.6869
  626TIP3   OH2 1883   4.772   0.280   5.155  0.6071 -0.2445 -0.0538
  626TIP3    H1 1884   4.738   0.368   5.149  1.8853  0.1706 -2.1400
  626TIP3    H2 1885   4.704   0.224   5.117  1.2526  0.3283 -2.1983
  627TIP3   OH2 1886   5.681   3.834   1.920 -0.0355  0.7987  0.3053
  627TIP3    H1 1887   5.629   3.818   1.841  0.4934  2.8637 -0.5109
  627TIP3    H2 1888   5.617   3.868   1.983  0.2495  3.7537 -0.8343
  628TIP3   OH2 1889   2.169   2.282   1.462 -0.5082  0.1460 -0.0530
  628TIP3    H1 1890   2.239   2.218   1.474  0.5253  1.2297 -0.1099
  628TIP3    H2 1891   2.106   2.262   1.531 -0.7426 -1.5998 -0.7411
  629TIP3   OH2 1892   4.058   5.842   0.680 -0.6069  0.3987  0.2257
  629TIP3    H1 1893   4.124   5.849   0.748 -0.5141 -0.1389  0.1933
  629TIP3    H2 1894   3.975   5.833   0.727 -0.4750 -0.6367  0.2791
  630TIP3   OH2 1895   5.216   3.743   4.633  0.4038 -0.2739  0.1662
  630TIP3    H1 1896   5.256   3.733   4.720  0.0255  0.3894  0.4239
  630TIP3    H2 1897   5.261   3.679   4.579  0.5793 -0.7687  0.8768
  631TIP3   OH2 1898   1.180   5.778   1.460  0.4872 -0.3388 -0.4899
  631TIP3    H1 1899   1.155   5.706   1.402  0.7755 -1.4097  0.6819
  631TIP3    H2 1900   1.189   5.738   1.546  2.5809  0.7115 -0.1611
  632TIP3   OH2 1901   3.218   1.945   1.058 -0.0917  0.1931 -0.5271
  632TIP3    H1 1902   3.267   2.018   1.094  0.1896  0.8862 -2.2443
  632TIP3    H2 1903   3.176   1.980   0.980 -0.2758 -1.3739 -1.1628
  633TIP3   OH2 1904   6.215   5.445   0.671 -0.0155  0.6371  0.1167
  633TIP3    H1 1905   6.137   5.398   0.641  0.0197  0.6196  0.0528
  633TIP3    H2 1906   6.198   5.536   0.646 -0.3853  0.7719  0.8420
  634TIP3   OH2 1907   4.093   0.334   1.684 -0.3837 -0.3147  0.1156
  634TIP3    H1 1908   4.113   0.244   1.658  2.6427 -0.1963  1.5854
  634TIP3    H2 1909   4.068   0.378   1.603  0.2713 -1.9500 -1.0247
  635TIP3   OH2 1910   4.208   3.972   1.115 -0.2390  0.0385 -0.0192
  635TIP3    H1 1911   4.230   4.053   1.160  0.8048 -0.2874  0.1059
  635TIP3    H2 1912   4.293   3.928   1.103 -0.5974 -0.3360 -1.4180
  636TIP3   OH2 1913   2.027   4.447   5.002 -0.5016  0.0517  0.2479
  636TIP3    H1 1914   2.074   4.387   5.059 -0.0123  0.1057 -0.0927
  636TIP3    H2 1915   2.095   4.486   4.946 -0.8416  0.7428  0.3063
  637TIP3   OH2 1916   1.489   0.023   0.211 -0.1497 -0.0023  0.1671
  637TIP3    H1 1917   1.456  -0.016   0.292 -0.8119  0.7990  0.2985
  637TIP3    H2 1918   1.479   0.118   0.224  1.7353  0.2675  0.0025
  638TIP3   OH2 1919   1.114   4.652   1.218  0.0500  0.4666 -0.2589
  638TIP3    H1 1920   1.144   4.562   1.211 -0.3872  0.4223 -2.3745
  638TIP3    H2 1921   1.193   4.703   1.235  0.9136  0.0052 -2.4940
  639TIP3   OH2 1922   3.621   0.664   2.029  0.1849 -0.4748 -0.2887
  639TIP3    H1 1923   3.655   0.751   2.006  3.4097 -1.9464 -1.6210
  639TIP3    H2 1924   3.549   0.650   1.967  0.2668  0.8508 -0.7132
  640TIP3   OH2 1925   4.292   0.159   0.939  0.0585 -0.1115 -0.5210
  640TIP3    H1 1926   4.386   0.155   0.919  0.1489 -0.6166 -0.0335
  640TIP3    H2 1927   4.276   0.251   0.959  0.9823 -0.3873  1.8067
  641TIP3   OH2 1928   5.215   0.342   0.161 -0.2161  0.6621 -0.3784
  641TIP3    H1 1929   5.275   0.298   0.222 -1.7915  1.2950  1.7506
  641TIP3    H2 1930   5.229   0.297   0.078  0.7652 -1.4839  0.8559
  642TIP3   OH2 1931   1.303   4.928   2.046 -0.1150  0.8515  0.1673
  642TIP3    H1 1932   1.265   5.007   2.086  1.0737  1.5515 -0.0438
  642TIP3    H2 1933   1.323   4.955   1.957  0.8273  0.4837  0.2635
  643TIP3   OH2 1934   2.489   2.068   2.355  0.0471  0.2068  0.5364
  643TIP3    H1 1935   2.564   2.029   2.310  0.4576  0.2396  1.1609
  643TIP3    H2 1936   2.485   2.021   2.439 -1.3515 -0.5841  0.0446
  644TIP3   OH2 1937   6.197   5.869   2.705 -0.7938 -0.5381 -0.6854
  644TIP3    H1 1938   6.111   5.840   2.736 -0.7723  0.4941  0.4055
  644TIP3    H2 1939   6.258   5.834   2.770 -0.4673 -0.5884 -1.0183
  645TIP3   OH2 1940   0.857   2.737   0.542  0.1082  0.0591 -0.6429
  645TIP3    H1 1941   0.781   2.699   0.498 -1.3295  2.9088 -0.7941
  645TIP3    H2 1942   0.898   2.793   0.476  1.8273 -0.6787 -0.2579
  646TIP3   OH2 1943   5.338   3.396   3.261  0.0917  0.0640  0.3997
  646TIP3    H1 1944   5.318   3.306   3.285  0.4974 -0.1048  0.1081
  646TIP3    H2 1945   5.395   3.389   3.185  1.6353  0.5347  1.4834
  647TIP3   OH2 1946   0.095   2.199   3.391 -0.1522 -0.7693  0.2872
  647TIP3    H1 1947   0.175   2.230   3.434 -0.0590 -0.4362 -0.1210
  647TIP3    H2 1948   0.125   2.135   3.327 -0.2577 -0.9903  0.4570
  648TIP3   OH2 1949   3.099   3.886   0.357 -0.7649  0.2350  0.7336
  648TIP3    H1 1950   3.090   3.791   0.347  2.1787 -0.0257 -0.2033
  648TIP3    H2 1951   3.065   3.903   0.445 -1.0600 -1.7390  1.0584
  649TIP3   OH2 1952   4.159   1.522   3.131  0.6152  0.9310  0.0837
  649TIP3    H1 1953   4.146   1.486   3.219 -0.2597 -1.8216 -1.0548
  649TIP3    H2 1954   4.085   1.489   3.080  0.5748  3.2609 -1.5098
  650TIP3   OH2 1955   2.253   1.439   4.048  0.1172 -0.4401 -0.0137
  650TIP3    H1 1956   2.228   1.424   3.957 -2.9103 -1.0009  0.8074
  650TIP3    H2 1957   2.239   1.354   4.091  1.9974 -0.3265  0.9216
  651TIP3   OH2 1958   3.018   1.632   4.390 -0.1088 -0.0550 -0.2801
  651TIP3    H1 1959   3.070   1.654   4.312  0.4571 -2.2668 -0.6092
  651TIP3    H2 1960   2.931   1.667   4.372  0.1163 -0.1886 -1.7658
  652TIP3   OH2 1961   4.229   1.560   2.193 -0.2917 -0.3650 -0.3119
  652TIP3    H1 1962   4.165   1.512   2.141 -0.3964 -1.1608  0.5138
  652TIP3    H2 1963   4.247   1.640   2.143 -1.4285 -0.4431 -0.8650
  653TIP3   OH2 1964   4.312   5.163   1.862  0.6808  0.1278  0.0778
  653TIP3    H1 1965   4.318   5.111   1.943  1.4099 -0.7979 -0.5496
  653TIP3    H2 1966   4.334   5.252   1.890  2.2113 -0.3989  0.7005
  654TIP3   OH2 1967   2.162   2.556   1.727 -0.1202 -0.8150 -0.1853
  654TIP3    H1 1968   2.107   2.588   1.799  2.2669  1.5458  0.7504
  654TIP3    H2 1969   2.196   2.472   1.758 -1.4666 -1.2901  0.0914
  655TIP3   OH2 1970   2.906   5.173   3.807  0.0444  0.5744  0.0793
  655TIP3    H1 1971   2.933   5.103   3.747  0.3865 -0.2954  1.1946
  655TIP3    H2 1972   2.819   5.147   3.837  0.3221  0.3930  0.7786
  656TIP3   OH2 1973   2.761   2.766   1.526  0.4457 -0.4839 -0.4447
  656TIP3    H1 1974   2.728   2.708   1.596 -2.2965  0.9884 -0.3623
  656TIP3    H2 1975   2.727   2.728   1.445 -0.5276  0.4060 -0.4785
  657TIP3   OH2 1976   0.312   2.559   4.879 -0.2555 -0.6931 -0.2115
  657TIP3    H1 1977   0.365   2.489   4.918  0.2860  0.5321  1.3728
  657TIP3    H2 1978   0.371   2.603   4.819 -0.0103 -0.4153  0.2319
  658TIP3   OH2 1979   4.642   0.547   5.118 -0.0001  0.2768  0.2064
  658TIP3    H1 1980   4.552   0.549   5.151 -0.1239 -1.3891  0.0112
  658TIP3    H2 1981   4.681   0.627   5.153 -1.2931  0.5875  1.0288
  659TIP3   OH2 1982   0.828   1.630   4.442 -0.2641 -0.0781  0.2313
  659TIP3    H1 1983   0.753   1.571   4.442 -0.6916  0.4531  0.3020
  659TIP3    H2 1984   0.903   1.573   4.457 -0.6013 -0.6775 -0.2904
  660TIP3   OH2 1985   1.600   2.324   0.318 -0.1754  0.2841 -0.2021
  660TIP3    H1 1986   1.579   2.232   0.303  0.3553  0.2454 -0.7109
  660TIP3    H2 1987   1.667   2.345   0.253 -1.4173  1.4751 -1.1544
  661TIP3   OH2 1988   1.412   3.839   2.176 -0.0626 -0.1553 -0.0769
  661TIP3    H1 1989   1.402   3.817   2.269 -1.4369 -1.0282 -0.3904
  661TIP3    H2 1990   1.327   3.876   2.152  0.2590 -0.0108 -0.9978
  662TIP3   OH2 1991   1.262   0.040   3.865 -0.4129 -0.3022  0.6563
  662TIP3    H1 1992   1.212   0.077   3.792 -0.2902  0.7537  1.0820
  662TIP3    H2 1993   1.354   0.050   3.838 -0.3124  1.2579  1.4491
  663TIP3   OH2 1994   3.585   1.133   0.200 -0.2734  0.0084  0.0481
  663TIP3    H1 1995   3.634   1.208   0.235 -0.8218  0.0180  0.8220
  663TIP3    H2 1996   3.503   1.132   0.250 -1.5259  0.5747 -1.9090
  664TIP3   OH2 1997   5.603   5.479   4.758  0.0998  0.2304  1.1026
  664TIP3    H1 1998   5.586   5.490   4.852  1.5935  0.4684  1.3692
  664TIP3    H2 1999   5.697   5.461   4.753 -0.0650 -0.3241 -0.3147
  665TIP3   OH2 2000   5.947   1.428   0.092  0.1062  0.4404  0.0326
  665TIP3    H1 2001   5.950   1.489   0.166  0.7553  0.5124 -0.0469
  665TIP3    H2 2002   5.956   1.484   0.015 -1.6940  0.4877 -0.1774
  666TIP3   OH2 2003   1.981   4.512   1.191 -0.0839 -0.1254  0.2729
  666TIP3    H1 2004   1.993   4.601   1.225  2.0412  0.0803 -0.8164
  666TIP3    H2 2005   1.938   4.525   1.107 -0.3754 -0.1842  0.4128
  667TIP3   OH2 2006   5.697   0.901   3.032 -0.5449 -0.7012  0.8055
  667TIP3    H1 2007   5.747   0.828   2.996 -1.4033 -1.3236  0.8402
  667TIP3    H2 2008   5.703   0.890   3.127  0.1365 -0.1570  0.8301
  668TIP3   OH2 2009   2.084   1.904   2.374 -0.2583  0.0870 -0.2154
  668TIP3    H1 2010   2.153   1.863   2.322 -0.7369  0.1501 -0.9119
  668TIP3    H2 2011   2.003   1.871   2.337 -0.6153  0.2296  0.4181
  669TIP3   OH2 2012   6.337   5.665   0.111  0.0821 -0.6200  0.4056
  669TIP3    H1 2013   6.303   5.589   0.064 -0.4956 -1.3240  1.9084
  669TIP3    H2 2014   6.297   5.740   0.067  0.7152 -1.1507 -1.1405
  670TIP3   OH2 2015   0.851   3.267   4.778  0.3152  0.0892 -0.1035
  670TIP3    H1 2016   0.757   3.284   4.791  0.1905 -0.6867  0.0506
  670TIP3    H2 2017   0.868   3.293   4.688 -0.2721 -0.6956 -0.4545
  671TIP3   OH2 2018   4.500   0.298   2.823 -0.3561  0.2213 -0.6276
  671TIP3    H1 2019   4.414   0.268   2.853 -1.2008  1.6041 -1.5681
  671TIP3    H2 2020   4.539   0.340   2.899  0.0715 -1.5342  0.1799
  672TIP3   OH2 2021   5.174   0.021   1.577  0.5323 -0.6874 -0.1874
  672TIP3    H1 2022   5.203  -0.052   1.631 -1.0943 -0.0432  1.6501
  672TIP3    H2 2023   5.224   0.096   1.609  0.1449 -0.4478 -0.1450
  673TIP3   OH2 2024   1.722   3.572   2.259  0.1939 -0.3511  0.3176
  673TIP3    H1 2025   1.630   3.576   2.235 -0.1133 -1.9608  1.0859
  673TIP3    H2 2026   1.752   3.487   2.225  1.1823 -0.1852  0.7440
  674TIP3   OH2 2027   5.867   0.864   1.794 -0.2477 -0.9016  0.6738
  674TIP3    H1 2028   5.940   0.882   1.853 -1.3506  0.5474  1.6711
  674TIP3    H2 2029   5.909   0.832   1.714  1.3896 -1.3531  1.6548
  675TIP3   OH2 2030   4.557   5.531   4.580  0.2350 -0.0947 -0.1520
  675TIP3    H1 2031   4.477   5.583   4.582  0.0465 -0.3817  0.8331
  675TIP3    H2 2032   4.560   5.493   4.492  0.4902  1.7142 -0.9597
  676TIP3   OH2 2033   3.545   4.307   4.690  0.0417 -0.1095  0.2005
  676TIP3    H1 2034   3.590   4.278   4.769 -2.0023  0.2070  1.5517
  676TIP3    H2 2035   3.575   4.396   4.676  2.0719 -0.8815 -0.7044
  677TIP3   OH2 2036   1.395   5.878   4.736  0.2316  0.2286  0.3549
  677TIP3    H1 2037   1.470   5.820   4.727  0.2009  0.2115  0.2098
  677TIP3    H2 2038   1.329   5.841   4.678  1.6133  2.7598 -3.1770
  678TIP3   OH2 2039   3.586   2.953   1.450  0.2183  0.5974  0.1744
  678TIP3    H1 2040   3.566   2.904   1.371  0.4436  2.0860 -0.8518
  678TIP3    H2 2041   3.610   2.887   1.515 -2.3503 -0.8519 -0.2300
  679TIP3   OH2 2042   1.527   4.539   2.099  0.0256  0.0772  0.4844
  679TIP3    H1 2043   1.579   4.620   2.100  0.6417 -0.3069  0.3596
  679TIP3    H2 2044   1.548   4.496   2.181 -2.0230  1.0849  1.5901
  680TIP3   OH2 2045   2.706   2.883   4.238  0.1433 -0.3267 -0.1895
  680TIP3    H1 2046   2.681   2.793   4.259  0.4198 -0.4227 -0.2674
  680TIP3    H2 2047   2.630   2.919   4.192 -0.5745 -0.0345  1.1817
  681TIP3   OH2 2048   1.575   1.994   4.994  0.1828  0.0801  0.1070
  681TIP3    H1 2049   1.669   1.979   5.004 -0.0076 -0.7272  0.7491
  681TIP3    H2 2050   1.569   2.085   4.964  1.2206 -0.2745 -1.2401
  682TIP3   OH2 2051   0.606   1.664   2.837  0.6317  0.0666 -0.1614
  682TIP3    H1 2052   0.511   1.672   2.844  0.6090  0.2731 -0.6691
  682TIP3    H2 2053   0.636   1.752   2.816  0.8394 -0.1904 -0.9755
  683TIP3   OH2 2054   3.045   1.697   5.117  0.2253 -0.3324  0.1878
  683TIP3    H1 2055   3.128   1.704   5.166  0.7277  0.3081 -0.7295
  683TIP3    H2 2056   3.021   1.787   5.099  0.8967 -0.5601 -2.1290
  684TIP3   OH2 2057   5.327   5.306   1.892 -0.1363  0.2495 -0.3035
  684TIP3    H1 2058   5.293   5.264   1.813  0.4919  0.4006 -0.6613
  684TIP3    H2 2059   5.383   5.377   1.860 -0.9767  1.2086  0.2966
  685TIP3   OH2 2060   0.043   4.405   4.614 -0.6352 -0.6888  0.6348
  685TIP3    H1 2061   0.051   4.352   4.535  0.6760 -0.0926  0.3333
  685TIP3    H2 2062   0.110   4.370   4.673 -0.2833  0.1205  0.7246
  686TIP3   OH2 2063   2.837   5.662   4.585 -0.0413  0.4669 -0.5052
  686TIP3    H1 2064   2.743   5.674   4.572 -0.1906  1.6314  1.3698
  686TIP3    H2 2065   2.874   5.748   4.570  0.3367  0.7247  1.6021
  687TIP3   OH2 2066   4.268   1.414   2.429 -0.4549 -0.0731  0.0695
  687TIP3    H1 2067   4.202   1.466   2.475  0.6143  0.5354  0.9659
  687TIP3    H2 2068   4.262   1.443   2.338 -2.3959 -1.0841 -0.1910
  688TIP3   OH2 2069   4.796   0.313   4.006 -0.8631 -0.3568  0.4779
  688TIP3    H1 2070   4.846   0.253   3.951 -1.9995 -0.4532 -0.4934
  688TIP3    H2 2071   4.728   0.258   4.046 -1.9249  0.2402 -0.4362
  689TIP3   OH2 2072   4.352   4.179   1.613  0.1124  0.2481  0.2008
  689TIP3    H1 2073   4.421   4.188   1.547 -0.8046  0.5539 -0.7440
  689TIP3    H2 2074   4.314   4.093   1.596  0.7448 -0.2509  1.2206
  690TIP3   OH2 2075   2.687   3.362   2.580 -0.4539 -0.1072 -0.0276
  690TIP3    H1 2076   2.726   3.425   2.641 -1.2304  0.0532  0.3155
  690TIP3    H2 2077   2.714   3.277   2.615 -0.2657  0.0050  0.1075
  691TIP3   OH2 2078   4.283   3.352   2.448 -0.3403  0.0870 -0.0143
  691TIP3    H1 2079   4.272   3.357   2.353 -0.6089 -1.0299 -0.0497
  691TIP3    H2 2080   4.201   3.387   2.483 -0.6261 -0.3841 -0.2063
  692TIP3   OH2 2081   5.639   1.773   4.270 -0.0597 -0.0369  0.1026
  692TIP3    H1 2082   5.659   1.687   4.307 -1.1826 -2.1592 -3.6847
  692TIP3    H2 2083   5.724   1.808   4.243  0.1915 -2.5021 -2.9724
  693TIP3   OH2 2084   4.012   3.492   1.063  0.0045  0.3854  0.1852
  693TIP3    H1 2085   4.036   3.430   1.132 -1.5221  1.7670  2.0992
  693TIP3    H2 2086   3.984   3.438   0.990 -0.3207 -1.1763  1.4098
  694TIP3   OH2 2087   0.753   1.159   2.999  0.2361 -0.3691 -0.6124
  694TIP3    H1 2088   0.804   1.240   2.996 -1.3959  0.7410  0.0744
  694TIP3    H2 2089   0.667   1.186   3.032  0.9923 -3.0912  4.5214
  695TIP3   OH2 2090   3.582   2.486   4.633  0.1592 -0.3971  0.0080
  695TIP3    H1 2091   3.575   2.458   4.542 -1.0767  0.8668 -0.3250
  695TIP3    H2 2092   3.601   2.406   4.682  1.0766 -1.0679 -1.3612
  696TIP3   OH2 2093   1.001   4.549   1.894 -0.5471  0.0325 -0.0395
  696TIP3    H1 2094   0.969   4.632   1.929 -2.4787 -0.4942 -0.4381
  696TIP3    H2 2095   1.086   4.536   1.937 -0.8711  1.4807  1.1303
  697TIP3   OH2 2096   2.024   2.389   4.892 -0.2959 -0.0336 -0.1175
  697TIP3    H1 2097   2.085   2.451   4.932 -0.1162  0.4827 -1.1744
  697TIP3    H2 2098   2.080   2.323   4.851 -0.3458  1.1218 -2.2025
  698TIP3   OH2 2099   0.117   2.606   3.739  0.4526  0.1668  0.4216
  698TIP3    H1 2100   0.204   2.573   3.717 -0.0325  0.7251 -2.8021
  698TIP3    H2 2101   0.128   2.701   3.745  0.3303  0.1198  1.6922
  699TIP3   OH2 2102   3.979   1.364   0.634  0.0037  0.1513  0.0633
  699TIP3    H1 2103   3.897   1.316   0.649 -0.1804  0.7822  1.1600
  699TIP3    H2 2104   3.969   1.445   0.684  1.6261 -0.1123  0.8707
  700TIP3   OH2 2105   5.466   1.989   4.319  0.3721 -0.4688  0.0147
  700TIP3    H1 2106   5.400   1.993   4.250  0.1744 -0.6392  0.1939
  700TIP3    H2 2107   5.529   1.923   4.287  1.9818  1.6350 -1.4807
  701TIP3   OH2 2108   3.602   3.334   1.618  0.6321  0.1859  0.0823
  701TIP3    H1 2109   3.678   3.346   1.561  0.4963 -0.5701 -0.2753
  701TIP3    H2 2110   3.534   3.390   1.580  0.9095  0.6043  0.2054
  702TIP3   OH2 2111   6.036   5.683   2.210  0.2737 -0.4676  0.3270
  702TIP3    H1 2112   6.006   5.684   2.119 -0.3687 -1.6709  0.5084
  702TIP3    H2 2113   6.096   5.757   2.216  1.0973 -0.9607 -1.3315
  703TIP3   OH2 2114   1.980   5.021   2.992  0.2372  0.3379  0.3075
  703TIP3    H1 2115   1.887   5.003   3.005 -0.2876  0.1245 -2.9615
  703TIP3    H2 2116   2.023   4.936   3.003 -0.3143 -0.0768 -0.6526
  704TIP3   OH2 2117   1.032   2.469   2.879  0.0317  0.2095  0.2653
  704TIP3    H1 2118   1.046   2.557   2.914 -0.3750  0.3590  0.0604
  704TIP3    H2 2119   1.042   2.479   2.784 -1.7170  0.3901  0.0741
  705TIP3   OH2 2120   5.072   3.026   1.746  0.6382  0.2871 -0.4349
  705TIP3    H1 2121   5.055   2.945   1.795  0.4279  0.8029  0.3604
  705TIP3    H2 2122   5.165   3.021   1.723  0.9172  0.3410  0.6146
  706TIP3   OH2 2123   1.046   5.984   1.563  0.4556 -0.0365 -0.1595
  706TIP3    H1 2124   1.093   5.904   1.541  0.0928 -0.1465 -0.5433
  706TIP3    H2 2125   0.965   5.980   1.512  0.2738  0.4077  0.0816
  707TIP3   OH2 2126   1.591   4.863   2.037  0.6265 -0.5111  0.0192
  707TIP3    H1 2127   1.636   4.947   2.036  2.3782 -1.3932 -1.0722
  707TIP3    H2 2128   1.515   4.877   2.093  1.0087  1.7044  0.0768
  708TIP3   OH2 2129   0.888   3.578   3.974  0.3656  0.2485  0.2425
  708TIP3    H1 2130   0.901   3.576   4.069  0.3555  0.7527  0.2557
  708TIP3    H2 2131   0.808   3.629   3.962 -0.4701 -1.0469  0.0423
  709TIP3   OH2 2132   3.351   3.133   4.198 -0.0385  0.0243  0.2873
  709TIP3    H1 2133   3.268   3.092   4.172  0.3971 -0.2913 -0.6522
  709TIP3    H2 2134   3.381   3.179   4.120 -0.8404  2.7897  1.4687
  710TIP3   OH2 2135   0.825   2.530   4.444 -0.3008 -0.4053  0.5906
  710TIP3    H1 2136   0.764   2.501   4.377  1.6672 -0.0852 -1.4905
  710TIP3    H2 2137   0.817   2.626   4.443 -0.9072 -0.4388  1.4930
  711TIP3   OH2 2138   0.759   0.852   0.986 -0.2519  0.0792 -0.1610
  711TIP3    H1 2139   0.821   0.780   0.975 -1.0378 -1.2964  3.1756
  711TIP3    H2 2140   0.810   0.922   1.026 -0.4817 -0.5613  1.3254
  712TIP3   OH2 2141   4.239   0.971   1.601  0.7102  0.4334  0.9857
  712TIP3    H1 2142   4.285   0.936   1.677 -2.3674 -3.1096  1.4907
  712TIP3    H2 2143   4.280   0.926   1.526  0.6144  0.2819  1.0249
  713TIP3   OH2 2144   4.054   1.953   1.949 -0.5456  0.2603  0.0868
  713TIP3    H1 2145   4.069   2.018   1.880 -0.4044 -0.5191 -0.6200
  713TIP3    H2 2146   4.036   2.006   2.027  0.2517  1.1547 -0.3190
  714TIP3   OH2 2147   5.609   4.424   3.445  0.3865 -0.0432  0.5789
  714TIP3    H1 2148   5.530   4.434   3.393  0.2342 -3.7671 -0.1701
  714TIP3    H2 2149   5.578   4.403   3.533  0.5834 -0.0602  0.6447
  715TIP3   OH2 2150   5.588   4.475   1.155  0.3375 -0.0373  0.8418
  715TIP3    H1 2151   5.639   4.547   1.193  0.6390  1.4500 -2.0701
  715TIP3    H2 2152   5.614   4.474   1.063 -2.1206 -1.7549  0.0854
  716TIP3   OH2 2153   6.160   3.243   0.443 -0.2275  0.0839 -0.3556
  716TIP3    H1 2154   6.098   3.280   0.506 -1.6638  0.1374 -1.7479
  716TIP3    H2 2155   6.105   3.201   0.377  1.1162  1.3960 -2.4442
  717TIP3   OH2 2156   6.239   1.033   3.435  0.1787 -0.2603 -0.6179
  717TIP3    H1 2157   6.261   0.971   3.365  0.8857  0.2452 -0.8653
  717TIP3    H2 2158   6.219   0.978   3.511 -1.1282 -0.8329 -1.3526
  718TIP3   OH2 2159   5.488   2.131   0.100 -0.9391 -0.2921  0.1925
  718TIP3    H1 2160   5.426   2.167   0.164 -2.6125 -1.5106 -0.6538
  718TIP3    H2 2161   5.556   2.198   0.093 -2.0929  1.0843  1.2468
  719TIP3   OH2 2162   6.013   0.804   1.558 -0.8050  0.3175 -0.1577
  719TIP3    H1 2163   6.102   0.828   1.582 -1.1975  1.4661  0.1964
  719TIP3    H2 2164   6.013   0.708   1.561  0.1127  0.3323  0.9719
  720TIP3   OH2 2165   4.389   0.430   2.240 -0.1314  0.2917  0.4392
  720TIP3    H1 2166   4.374   0.451   2.332 -2.0754 -0.7252  0.4125
  720TIP3    H2 2167   4.303   0.438   2.199  0.4431 -0.5632 -1.0115
  721TIP3   OH2 2168   1.342   2.682   1.633  0.3675 -0.3080 -0.5712
  721TIP3    H1 2169   1.356   2.748   1.565 -1.5656 -1.5543 -2.3255
  721TIP3    H2 2170   1.270   2.717   1.685  1.3049  0.2729  0.3586
  722TIP3   OH2 2171   0.600   2.869   4.470  0.8536  0.3922 -0.5855
  722TIP3    H1 2172   0.663   2.845   4.401  1.1876  2.3448 -1.0113
  722TIP3    H2 2173   0.652   2.917   4.534  0.2908 -0.3239  0.4194
  723TIP3   OH2 2174   4.626   5.204   2.087  0.3492 -0.0784  0.0162
  723TIP3    H1 2175   4.617   5.126   2.143 -0.4822  0.2100  0.3056
  723TIP3    H2 2176   4.539   5.246   2.091  0.5245  0.3802 -0.8524
  724TIP3   OH2 2177   4.284   0.432   3.219 -0.3727 -0.2287 -0.3783
  724TIP3    H1 2178   4.374   0.399   3.218 -0.0202  0.6379  0.3094
  724TIP3    H2 2179   4.230   0.356   3.240  0.5664 -0.1504  2.9434
  725TIP3   OH2 2180   3.850   3.049   0.260  0.6224 -0.2506  0.3645
  725TIP3    H1 2181   3.781   3.034   0.195  0.7160 -6.3519  1.1538
  725TIP3    H2 2182   3.930   3.020   0.217  1.8044  1.3294  1.3758
  726TIP3   OH2 2183   2.757   0.343   4.223  0.0361  0.5464  0.0036
  726TIP3    H1 2184   2.692   0.413   4.229 -0.8948 -0.4103  1.9999
  726TIP3    H2 2185   2.740   0.288   4.300  2.2311 -0.5890 -0.2481
  727TIP3   OH2 2186   1.247   0.080   3.442  0.1729  0.2572 -0.8874
  727TIP3    H1 2187   1.167   0.052   3.487 -1.0139  1.1256 -2.3457
  727TIP3    H2 2188   1.218   0.149   3.382  2.2059  1.3604 -0.7175
  728TIP3   OH2 2189   4.362   5.549   0.180 -0.4180 -0.3257 -0.2023
  728TIP3    H1 2190   4.417   5.521   0.253 -1.1875 -0.8756  0.1896
  728TIP3    H2 2191   4.295   5.481   0.174 -1.8224  0.9545  0.1951
  729TIP3   OH2 2192   2.441   3.664   0.818 -0.0154 -0.0064  0.1986
  729TIP3    H1 2193   2.498   3.733   0.852 -0.5457  0.4995  0.0682
  729TIP3    H2 2194   2.393   3.632   0.895  0.7026 -0.6941  0.3767
  730TIP3   OH2 2195   4.909   4.746   0.144 -0.1779  0.3623  0.5546
  730TIP3    H1 2196   4.931   4.839   0.149  1.6663  0.1089 -1.2785
  730TIP3    H2 2197   4.976   4.709   0.086 -2.5712 -1.5740 -1.1459
  731TIP3   OH2 2198   4.820   3.188   4.845 -0.4303 -0.0822  0.7177
  731TIP3    H1 2199   4.731   3.221   4.836 -0.5809 -0.1303  1.8869
  731TIP3    H2 2200   4.866   3.222   4.769 -1.3826  0.1610  0.2360
  732TIP3   OH2 2201   6.020   1.625   4.404  0.3236 -1.2585 -0.0919
  732TIP3    H1 2202   6.072   1.699   4.372 -2.3410  0.6126 -0.4372
  732TIP3    H2 2203   6.039   1.621   4.498 -0.0421  0.4323  0.0953
  733TIP3   OH2 2204   4.496   1.760   2.614  0.0442  0.2719  0.2819
  733TIP3    H1 2205   4.408   1.752   2.652  0.2125 -0.0436  0.6077
  733TIP3    H2 2206   4.527   1.670   2.608  1.0177  0.4910  1.7413
  734TIP3   OH2 2207   5.330   3.965   3.523 -0.3177  0.0724  0.0431
  734TIP3    H1 2208   5.412   4.001   3.489  0.2954  0.7144  2.0725
  734TIP3    H2 2209   5.301   4.029   3.588 -1.2563 -1.2177  0.9444
  735TIP3   OH2 2210   2.705   3.781   3.224  0.3975  0.6770 -0.0319
  735TIP3    H1 2211   2.701   3.856   3.165  0.0724  0.4826 -0.2613
  735TIP3    H2 2212   2.653   3.713   3.180 -1.0919  1.0043  1.1534
  736TIP3   OH2 2213   0.377   4.023   0.941  0.1930 -0.4443 -0.2592
  736TIP3    H1 2214   0.367   4.000   0.848 -2.1025 -1.2778  0.1126
  736TIP3    H2 2215   0.287   4.030   0.973  0.9290 -0.7158  2.0455
  737TIP3   OH2 2216   5.148   2.253   4.158  0.1105 -0.8993 -0.0345
  737TIP3    H1 2217   5.098   2.334   4.147 -0.0832 -0.9750  0.2787
  737TIP3    H2 2218   5.219   2.277   4.218  0.9002 -0.5996 -1.0670
  738TIP3   OH2 2219   2.701   5.740   2.339 -0.0107 -0.0628 -0.7800
  738TIP3    H1 2220   2.751   5.821   2.349  0.8376 -0.6490 -0.0880
  738TIP3    H2 2221   2.753   5.674   2.385 -0.5958 -1.0388 -1.4770
  739TIP3   OH2 2222   0.226   3.665   3.980 -0.0440 -0.0437 -0.1190
  739TIP3    H1 2223   0.214   3.612   3.902  0.8752  0.3247 -0.5271
  739TIP3    H2 2224   0.272   3.608   4.042 -0.7975 -0.3444  0.1708
  740TIP3   OH2 2225   3.796   4.096   0.147 -0.0641 -0.4648  0.0472
  740TIP3    H1 2226   3.708   4.080   0.180  0.3144 -1.5500  0.5627
  740TIP3    H2 2227   3.851   4.033   0.192  0.5445 -1.8321 -2.4263
  741TIP3   OH2 2228   3.856   1.831   4.310 -1.1751 -0.0317  0.1577
  741TIP3    H1 2229   3.781   1.774   4.329  0.0295 -1.6820  0.1152
  741TIP3    H2 2230   3.925   1.771   4.283  0.0626  1.4947 -0.1492
  742TIP3   OH2 2231   2.569   3.065   2.477  0.0957  0.2088  0.1665
  742TIP3    H1 2232   2.512   2.988   2.481 -0.4235  0.4654 -1.5517
  742TIP3    H2 2233   2.514   3.138   2.504  0.2943  0.1222  0.8063
  743TIP3   OH2 2234   5.049   4.576   3.362 -0.0139  0.0701 -0.5581
  743TIP3    H1 2235   5.003   4.618   3.289  1.3138 -0.1044 -1.5385
  743TIP3    H2 2236   5.064   4.647   3.425 -1.9771  0.0372  0.0212
  744TIP3   OH2 2237   5.419   5.235   2.138 -0.2678 -0.1795 -0.5852
  744TIP3    H1 2238   5.379   5.250   2.053 -1.9720 -0.3159  0.1603
  744TIP3    H2 2239   5.448   5.144   2.136  0.2612 -0.0003 -1.2294
  745TIP3   OH2 2240   2.871   3.391   2.059 -0.2376  0.1185 -0.0327
  745TIP3    H1 2241   2.841   3.301   2.047 -0.0561  0.2483 -1.7317
  745TIP3    H2 2242   2.872   3.404   2.154  0.3813 -1.8856  0.2833
  746TIP3   OH2 2243   4.443   1.754   0.101  0.6390 -0.6897  0.5440
  746TIP3    H1 2244   4.416   1.691   0.168 -1.8324 -0.1151  0.2179
  746TIP3    H2 2245   4.364   1.766   0.048  1.8759  0.5820 -1.0848
  747TIP3   OH2 2246   5.072   5.117   3.617 -0.0776  0.6264  0.5729
  747TIP3    H1 2247   5.052   5.044   3.558  0.2627 -0.1233  1.3647
  747TIP3    H2 2248   5.028   5.192   3.577 -0.5094 -0.0235 -0.2150
  748TIP3   OH2 2249   2.120   0.402   3.796 -0.9857 -0.5968  0.3547
  748TIP3    H1 2250   2.065   0.335   3.757 -4.0133  1.1025  1.3591
  748TIP3    H2 2251   2.096   0.483   3.751  0.9584  0.2047  0.6411
  749TIP3   OH2 2252   6.334   2.316   5.083  0.5233 -0.3490 -0.0957
  749TIP3    H1 2253   6.256   2.266   5.058  0.8069 -1.6062  1.4030
  749TIP3    H2 2254   6.401   2.290   5.020 -0.0040  0.0215 -0.8193
  750TIP3   OH2 2255   2.485   3.604   3.832  0.4432 -0.0601 -0.2081
  750TIP3    H1 2256   2.409   3.643   3.875  0.5743  0.7430 -0.6914
  750TIP3    H2 2257   2.471   3.509   3.839 -0.5803  0.0836 -0.2646
  751TIP3   OH2 2258   4.179   3.571   4.934  0.0554  0.0382 -0.2243
  751TIP3    H1 2259   4.176   3.648   4.991  1.4722  0.6263 -0.8995
  751TIP3    H2 2260   4.254   3.587   4.876  0.4371 -1.9057 -0.3074
  752TIP3   OH2 2261   3.310   1.297   4.768 -0.5688 -0.1017 -0.1827
  752TIP3    H1 2262   3.317   1.321   4.675 -0.9760 -1.1762 -0.5100
  752TIP3    H2 2263   3.216   1.297   4.785 -0.7146 -2.8602 -0.6196
  753TIP3   OH2 2264   3.579   2.782   3.044  0.3001  0.0740  0.4663
  753TIP3    H1 2265   3.668   2.798   3.015  0.2796 -0.6306 -0.0123
  753TIP3    H2 2266   3.525   2.804   2.968  0.2381 -1.6833 -0.0428
  754TIP3   OH2 2267   2.850   3.889   1.468 -0.3161 -0.0729  0.5888
  754TIP3    H1 2268   2.863   3.946   1.393  0.6530 -0.6768  0.2810
  754TIP3    H2 2269   2.932   3.895   1.517 -1.1295  0.7508  1.9188
  755TIP3   OH2 2270   0.702   0.185   0.263  0.2757  0.1546 -0.7181
  755TIP3    H1 2271   0.616   0.226   0.249 -0.4358 -1.0966 -0.1571
  755TIP3    H2 2272   0.712   0.126   0.189 -0.0901 -0.8931  0.0520
  756TIP3   OH2 2273   1.019   2.643   0.758  0.1824 -0.1978 -0.2304
  756TIP3    H1 2274   0.952   2.669   0.695  1.9387 -0.6993 -2.4751
  756TIP3    H2 2275   1.050   2.558   0.726  1.5523 -0.1983  0.9762
  757TIP3   OH2 2276   0.649   0.128   3.839  0.4143  0.0340 -0.5100
  757TIP3    H1 2277   0.578   0.177   3.881  2.3243  1.0418  1.7297
  757TIP3    H2 2278   0.677   0.185   3.767  0.2430  0.5390 -0.1819
  758TIP3   OH2 2279   3.610   5.229   1.723  0.0757  0.3619 -0.4241
  758TIP3    H1 2280   3.525   5.187   1.730 -0.5845  1.5124 -1.1129
  758TIP3    H2 2281   3.636   5.217   1.631  1.6631 -1.7744  0.2361
  759TIP3   OH2 2282   5.874   1.704   0.565  0.3226  0.8088 -0.2564
  759TIP3    H1 2283   5.825   1.763   0.622 -1.0186 -0.2124 -0.3043
  759TIP3    H2 2284   5.933   1.762   0.516  0.3591  1.8787  0.9914
  760TIP3   OH2 2285   5.077   2.347   3.660 -0.9516 -0.7034 -0.7554
  760TIP3    H1 2286   5.141   2.290   3.702 -0.6700 -0.3708 -0.7325
  760TIP3    H2 2287   5.112   2.360   3.572 -0.1347  0.8109 -0.2299
  761TIP3   OH2 2288   3.389   2.902   2.875 -0.1964  0.3136 -0.2417
  761TIP3    H1 2289   3.307   2.875   2.833  0.2482  1.0469 -1.6090
  761TIP3    H2 2290   3.451   2.913   2.803  0.5939  1.5864  0.5996
  762TIP3   OH2 2291   0.115   0.197   3.929 -0.7428 -0.3459  0.3548
  762TIP3    H1 2292   0.084   0.278   3.969 -0.9281 -0.0967 -0.2868
  762TIP3    H2 2293   0.094   0.206   3.836  0.4694 -0.5384  0.0450
  763TIP3   OH2 2294   3.998   5.884   4.199 -0.4868 -0.5920 -0.6057
  763TIP3    H1 2295   4.057   5.852   4.267 -0.5084  1.4768  0.4460
  763TIP3    H2 2296   4.041   5.963   4.166 -2.0188  0.2005 -0.7652
  764TIP3   OH2 2297   0.900   2.640   3.412  0.2061 -0.2081  0.0907
  764TIP3    H1 2298   0.808   2.615   3.425  0.0247  0.9219  1.1491
  764TIP3    H2 2299   0.897   2.732   3.388  0.9924 -0.5472 -1.4016
  765TIP3   OH2 2300   5.597   1.926   1.951  0.4587 -0.5142  0.3100
  765TIP3    H1 2301   5.505   1.902   1.959  0.5663 -1.4707 -1.0027
  765TIP3    H2 2302   5.624   1.946   2.041 -1.5193  1.8600  0.4886
  766TIP3   OH2 2303   1.396   5.463   1.197  0.1401  0.0327 -0.2030
  766TIP3    H1 2304   1.376   5.375   1.229  0.5912 -0.4581 -1.2178
  766TIP3    H2 2305   1.313   5.510   1.204 -0.0864 -0.4396  0.4420
  767TIP3   OH2 2306   0.226   4.895   0.527 -0.0522  0.1139  0.2884
  767TIP3    H1 2307   0.154   4.957   0.538  0.4671  1.4202 -2.6933
  767TIP3    H2 2308   0.183   4.812   0.503 -0.6309  0.4316  0.2085
  768TIP3   OH2 2309   4.455   1.787   3.889  0.7979 -0.2771  0.7076
  768TIP3    H1 2310   4.502   1.707   3.864  0.3954 -0.2705 -0.1203
  768TIP3    H2 2311   4.511   1.858   3.857  0.1998 -0.2704 -0.3713
  769TIP3   OH2 2312   3.831   4.012   1.271  0.1957  0.3290 -0.3471
  769TIP3    H1 2313   3.864   4.034   1.184  0.9516  0.8207  0.0542
  769TIP3    H2 2314   3.807   3.919   1.264 -0.8198  0.6440 -1.3908
  770TIP3   OH2 2315   2.395   2.031   4.257 -0.2830 -0.5426  0.2446
  770TIP3    H1 2316   2.434   1.990   4.335  0.2036 -0.7012 -0.0782
  770TIP3    H2 2317   2.425   1.976   4.184  0.9271  0.7448 -0.2770
  771TIP3   OH2 2318   2.079   1.133   2.807  0.5314 -0.8146  0.0699
  771TIP3    H1 2319   1.992   1.125   2.768  0.3393 -3.6520  0.8961
  771TIP3    H2 2320   2.139   1.103   2.739  0.6520 -1.0188  0.2661
  772TIP3   OH2 2321   4.693   2.069   1.193  0.3779  0.3535 -0.2756
  772TIP3    H1 2322   4.692   1.974   1.191 -2.5055  0.3175 -1.0011
  772TIP3    H2 2323   4.743   2.091   1.272 -0.9412 -1.8021  1.2479
  773TIP3   OH2 2324   1.546   5.444   1.603 -0.0275 -0.1681  0.3356
  773TIP3    H1 2325   1.482   5.378   1.631 -0.7681 -0.0725 -1.0426
  773TIP3    H2 2326   1.586   5.406   1.525  0.8573  0.2481  0.5756
  774TIP3   OH2 2327   2.974   4.517   5.107  0.0016  0.2718 -0.0502
  774TIP3    H1 2328   3.045   4.518   5.043  1.7672 -0.1187  1.7904
  774TIP3    H2 2329   3.017   4.531   5.191 -1.6919 -2.7427  1.4902
  775TIP3   OH2 2330   1.025   0.760   0.440  0.6590  0.8507  0.3057
  775TIP3    H1 2331   1.105   0.718   0.409  0.9990  2.4727 -1.1945
  775TIP3    H2 2332   1.047   0.854   0.443 -1.2606  1.3716 -0.4551
  776TIP3   OH2 2333   0.092   5.953   0.587  0.4669  0.2034 -0.1589
  776TIP3    H1 2334   0.126   6.041   0.604  1.0747  0.3986 -2.1076
  776TIP3    H2 2335   0.170   5.898   0.582  0.2512 -0.0380 -1.0078
  777TIP3   OH2 2336   2.127   5.013   1.785 -0.3380  0.1222 -0.0353
  777TIP3    H1 2337   2.166   5.075   1.847 -0.9570 -0.2683  0.7583
  777TIP3    H2 2338   2.140   4.927   1.825  0.6912 -0.3034 -1.2240
  778TIP3   OH2 2339   5.126   2.850   5.130 -0.4275  0.2968  0.3685
  778TIP3    H1 2340   5.066   2.890   5.066 -1.3549 -0.6249  0.6333
  778TIP3    H2 2341   5.143   2.762   5.096  1.6589  0.8814 -0.2483
  779TIP3   OH2 2342   3.195   4.767   1.368  0.0420 -1.1410 -0.8145
  779TIP3    H1 2343   3.274   4.817   1.346  0.4307 -1.8712 -1.1576
  779TIP3    H2 2344   3.124   4.830   1.363  0.9153  0.3686  2.7175
  780TIP3   OH2 2345   3.781   2.819   2.228  0.0516  0.0447 -0.3427
  780TIP3    H1 2346   3.840   2.747   2.248  0.2297  0.5948  1.3401
  780TIP3    H2 2347   3.749   2.847   2.314 -0.5297  1.5276 -1.0147
  781TIP3   OH2 2348   3.800   5.480   0.542 -0.3646  0.5036 -0.2127
  781TIP3    H1 2349   3.751   5.400   0.524  1.2871 -0.5274 -0.2642
  781TIP3    H2 2350   3.837   5.505   0.458  0.8448  0.1236  0.1896
  782TIP3   OH2 2351   2.401   0.485   0.799 -0.1154  0.1178 -0.3570
  782TIP3    H1 2352   2.358   0.481   0.714 -0.4313 -0.1294 -0.1907
  782TIP3    H2 2353   2.491   0.459   0.782 -0.4201 -0.9310 -0.4616
  783TIP3   OH2 2354   1.781   1.723   1.752 -0.2229 -0.1037 -0.2960
  783TIP3    H1 2355   1.686   1.714   1.758 -0.3045  0.8551 -0.0398
  783TIP3    H2 2356   1.800   1.707   1.660 -0.4673 -1.6074 -0.1199
  784TIP3   OH2 2357   0.282   4.785   2.866 -0.0864  0.0374  0.0091
  784TIP3    H1 2358   0.337   4.707   2.860  0.0205 -0.2474  2.9270
  784TIP3    H2 2359   0.344   4.856   2.886 -0.4760  0.3066  0.2665
  785TIP3   OH2 2360   5.021   1.008   4.757 -0.0793  0.5759  0.3667
  785TIP3    H1 2361   5.084   0.957   4.808 -0.4310 -0.8141 -0.5308
  785TIP3    H2 2362   4.936   0.967   4.775 -0.4204  1.0336 -0.1478
  786TIP3   OH2 2363   1.059   5.023   0.795 -0.5567 -0.7427 -0.2253
  786TIP3    H1 2364   1.106   5.022   0.711 -1.4715 -1.3697 -0.7416
  786TIP3    H2 2365   1.019   4.937   0.802 -1.6004 -0.2449  0.2211
  787TIP3   OH2 2366   5.619   0.674   4.678 -0.4784 -0.2162 -0.0562
  787TIP3    H1 2367   5.629   0.615   4.602  1.4488  0.4280 -0.3556
  787TIP3    H2 2368   5.533   0.714   4.665 -0.3891 -0.4622 -1.6717
  788TIP3   OH2 2369   3.955   3.137   1.685  0.3466  0.2616 -0.0807
  788TIP3    H1 2370   3.859   3.139   1.674  0.3323 -1.5054 -0.6024
  788TIP3    H2 2371   3.984   3.066   1.627  1.8872  0.2472  0.6617
  789TIP3   OH2 2372   2.055   3.477   3.935  0.1692  0.0535  0.1627
  789TIP3    H1 2373   1.963   3.472   3.909  0.3893 -1.3016 -0.4706
  789TIP3    H2 2374   2.073   3.391   3.974  1.3176  0.0665 -0.3117
  790TIP3   OH2 2375   5.428   0.712   0.947  0.1903 -0.1621 -0.2752
  790TIP3    H1 2376   5.492   0.658   0.993  1.3676  2.0706  0.8899
  790TIP3    H2 2377   5.429   0.796   0.994  0.9682  2.0849 -3.9172
  791TIP3   OH2 2378   0.794   0.758   3.711  0.9977 -0.2813  0.6467
  791TIP3    H1 2379   0.792   0.828   3.646 -0.0062 -0.9950 -0.1211
  791TIP3    H2 2380   0.719   0.776   3.769 -1.0853 -2.2085 -1.2409
  792TIP3   OH2 2381   0.772   1.589   1.084  0.0801  0.3509 -0.2287
  792TIP3    H1 2382   0.745   1.498   1.095  1.7449 -0.3600 -1.5121
  792TIP3    H2 2383   0.766   1.604   0.990  1.2282  1.0686 -0.2068
  793TIP3   OH2 2384   3.338   4.902   3.674 -0.2043 -0.2292 -0.5457
  793TIP3    H1 2385   3.409   4.896   3.610  0.4772 -0.6055  0.2155
  793TIP3    H2 2386   3.383   4.914   3.758 -0.9901 -1.6196  0.0997
  794TIP3   OH2 2387   3.122   3.640   1.725 -0.0467 -0.1057  0.3018
  794TIP3    H1 2388   3.066   3.647   1.802  0.2965  0.4747  0.5063
  794TIP3    H2 2389   3.134   3.730   1.696 -2.2774 -0.4477 -2.0023
  795TIP3   OH2 2390   2.091   4.481   2.965 -0.1093  0.3197 -0.4650
  795TIP3    H1 2391   2.114   4.460   3.055  2.1793 -2.3286 -1.5070
  795TIP3    H2 2392   2.173   4.508   2.924 -0.5351 -0.9335 -2.3028
  796TIP3   OH2 2393   6.257   1.496   5.099  0.1882  0.0574 -0.1046
  796TIP3    H1 2394   6.337   1.462   5.059 -0.1213 -0.9793  0.1052
  796TIP3    H2 2395   6.245   1.441   5.176 -1.5868 -0.9057 -1.0071
  797TIP3   OH2 2396   3.929   5.145   2.233 -0.4671  0.4057  0.9421
  797TIP3    H1 2397   3.957   5.208   2.300  0.8776  1.0310 -0.1569
  797TIP3    H2 2398   3.986   5.070   2.246 -0.4813  0.3623  0.7522
  798TIP3   OH2 2399   2.564   5.137   1.776  0.0094  0.7159  0.2530
  798TIP3    H1 2400   2.602   5.049   1.775 -0.5746  0.4644 -0.0847
  798TIP3    H2 2401   2.557   5.161   1.683  0.1871  1.1320  0.3435
  799TIP3   OH2 2402   0.584   4.843   1.738  0.1586  0.0840 -0.2577
  799TIP3    H1 2403   0.596   4.788   1.816 -3.6213 -0.0897  0.3467
  799TIP3    H2 2404   0.520   4.909   1.764  1.1631  2.0277 -2.3500
  800TIP3   OH2 2405   5.045   1.537   2.837 -0.3066 -0.1648 -0.3985
  800TIP3    H1 2406   5.011   1.522   2.926  0.1904 -0.6318 -0.2792
  800TIP3    H2 2407   4.967   1.548   2.783 -0.6216  2.0588  0.4014
  801TIP3   OH2 2408   3.420   5.934   3.107 -0.0397 -0.1207  0.2780
  801TIP3    H1 2409   3.506   5.975   3.115  0.6179 -1.3190 -0.3586
  801TIP3    H2 2410   3.362   6.006   3.084  0.8594  0.6467  0.3309
  802TIP3   OH2 2411   6.017   1.402   2.002  0.2905  0.0974  0.2692
  802TIP3    H1 2412   5.957   1.443   2.064  1.5616  0.4031  1.3442
  802TIP3    H2 2413   6.092   1.376   2.055  1.8148  1.1685 -1.2574
  803TIP3   OH2 2414   0.985   1.854   0.375  0.3667 -0.0012  0.0163
  803TIP3    H1 2415   0.911   1.868   0.315  0.1345 -1.2089  0.0095
  803TIP3    H2 2416   0.962   1.905   0.453  0.6239  1.5099 -0.8541
  804TIP3   OH2 2417   0.034   2.572   4.108  0.1124  0.4936  0.1493
  804TIP3    H1 2418   0.083   2.641   4.153 -0.1440 -0.3778  1.8600
  804TIP3    H2 2419   0.088   2.494   4.117 -0.0698  0.2353 -0.8770
  805TIP3   OH2 2420   6.018   3.124   2.058  0.2446  0.1942 -0.7002
  805TIP3    H1 2421   6.039   3.033   2.036  0.4908  0.4596 -1.6063
  805TIP3    H2 2422   5.936   3.118   2.108 -0.2097 -0.4612 -1.5005
  806TIP3   OH2 2423   5.229   3.906   4.982  0.5096  0.0048 -0.1971
  806TIP3    H1 2424   5.188   3.829   4.943 -0.2598 -0.0817  0.7553
  806TIP3    H2 2425   5.309   3.919   4.931  1.0972 -1.9336  0.1428
  807TIP3   OH2 2426   2.309   3.473   1.253 -0.1346  0.0728 -0.3026
  807TIP3    H1 2427   2.290   3.406   1.319  1.5987  0.3933  0.5772
  807TIP3    H2 2428   2.318   3.554   1.304  0.7197  0.4222 -0.9972
  808TIP3   OH2 2429   2.396   0.843   3.652 -0.1020 -0.5225  0.4865
  808TIP3    H1 2430   2.409   0.936   3.631 -1.2922 -0.5143 -0.2816
  808TIP3    H2 2431   2.482   0.813   3.682  0.6009  0.5319 -0.4052
  809TIP3   OH2 2432   4.397   0.274   4.258  0.4712 -0.1100  0.4528
  809TIP3    H1 2433   4.382   0.208   4.326 -1.4995 -1.8167 -1.4929
  809TIP3    H2 2434   4.333   0.343   4.277  0.1832 -0.4025  0.5494
  810TIP3   OH2 2435   3.239   2.364   4.662 -0.2066  0.1937  0.1948
  810TIP3    H1 2436   3.221   2.410   4.580 -2.1661  1.0638  1.0433
  810TIP3    H2 2437   3.321   2.402   4.694 -0.6261  1.5042 -0.2332
  811TIP3   OH2 2438   6.122   3.928   0.481 -1.1520 -0.1444  0.7740
  811TIP3    H1 2439   6.093   3.904   0.393 -0.4417 -1.6677  0.9274
  811TIP3    H2 2440   6.184   3.999   0.468 -0.7241 -0.6558  0.0068
  812TIP3   OH2 2441   2.097   3.924   3.986  0.2837 -0.3706  0.6402
  812TIP3    H1 2442   2.082   3.885   3.899  1.5402  0.4552  0.0361
  812TIP3    H2 2443   2.033   3.880   4.042  2.0481 -3.8622  0.1801
  813TIP3   OH2 2444   1.884   4.120   0.790 -0.2533 -0.4250 -0.0961
  813TIP3    H1 2445   1.933   4.041   0.817  1.9829  1.0926  0.6196
  813TIP3    H2 2446   1.914   4.137   0.701  1.0679  0.8630  0.5643
  814TIP3   OH2 2447   3.157   4.813   4.048 -0.2362  0.0440 -0.1760
  814TIP3    H1 2448   3.089   4.820   4.116  0.5010  2.0354  0.4438
  814TIP3    H2 2449   3.162   4.902   4.011  1.5075 -0.2529 -0.7189
  815TIP3   OH2 2450   5.682   3.826   0.129 -0.1635  0.3397  0.2724
  815TIP3    H1 2451   5.759   3.787   0.089 -0.1291 -1.2526  1.7447
  815TIP3    H2 2452   5.612   3.812   0.065  0.5901  1.1786 -0.7754
  816TIP3   OH2 2453   3.209   3.890   4.102  0.1366  0.3971 -0.0761
  816TIP3    H1 2454   3.136   3.848   4.056  0.7941  0.5101 -1.2660
  816TIP3    H2 2455   3.166   3.945   4.167 -0.7833 -0.9270  0.4931
  817TIP3   OH2 2456   3.477   0.014   2.207  0.8891 -0.5475 -0.1962
  817TIP3    H1 2457   3.408   0.034   2.270 -0.0856  0.2913 -1.4598
  817TIP3    H2 2458   3.558   0.017   2.257  0.2205  0.8694  0.8653
  818TIP3   OH2 2459   6.097   3.976   1.566 -0.0336 -0.2902  0.7720
  818TIP3    H1 2460   6.166   4.041   1.582 -0.9465  0.9955 -0.2617
  818TIP3    H2 2461   6.070   3.948   1.653  0.7139  0.3659  1.2326
  819TIP3   OH2 2462   4.825   3.317   2.514 -0.2585 -0.1569  0.0217
  819TIP3    H1 2463   4.824   3.289   2.606  0.2212 -1.0410 -0.2344
  819TIP3    H2 2464   4.805   3.411   2.518 -2.4392 -0.5993  0.8680
  820TIP3   OH2 2465   1.350   3.165   1.643 -0.1990 -0.0553 -0.0003
  820TIP3    H1 2466   1.437   3.140   1.611  0.9126  3.6208 -0.3924
  820TIP3    H2 2467   1.365   3.200   1.730 -1.3131  0.4191  0.0214
  821TIP3   OH2 2468   5.444   0.794   3.241  0.4613  0.0173  0.4292
  821TIP3    H1 2469   5.418   0.783   3.149  2.6857  1.1294 -0.4009
  821TIP3    H2 2470   5.367   0.834   3.283 -0.0780  0.9101 -1.2992
  822TIP3   OH2 2471   1.254   3.237   4.483 -0.2981  0.1820 -0.2513
  822TIP3    H1 2472   1.315   3.295   4.528  2.4211 -0.5436 -2.7174
  822TIP3    H2 2473   1.278   3.149   4.513 -0.3528 -0.0880 -0.9739
  823TIP3   OH2 2474   0.613   2.317   1.043  0.0102  0.0076 -0.0908
  823TIP3    H1 2475   0.619   2.315   1.138 -1.1605 -1.7286 -0.0098
  823TIP3    H2 2476   0.649   2.402   1.018  0.7398  0.3054  1.8593
  824TIP3   OH2 2477   2.541   5.750   4.058 -0.4909 -0.1720 -0.3705
  824TIP3    H1 2478   2.517   5.748   4.150 -3.2734  0.2996 -0.9879
  824TIP3    H2 2479   2.557   5.658   4.036 -0.9048 -0.4299  0.3537
  825TIP3   OH2 2480   5.340   2.374   4.353 -0.1225  0.2829  0.3581
  825TIP3    H1 2481   5.429   2.345   4.377 -0.2525  0.3215  0.8937
  825TIP3    H2 2482   5.284   2.334   4.419 -0.4401  0.7415  0.3644
  826TIP3   OH2 2483   6.044   3.016   2.887  0.0008  0.1368 -0.3839
  826TIP3    H1 2484   6.011   2.985   2.802  0.4026 -0.5522 -0.2968
  826TIP3    H2 2485   6.063   2.936   2.936  2.0639  0.4787 -0.5282
  827TIP3   OH2 2486   0.469   3.255   2.222 -0.0431 -0.2508 -0.3603
  827TIP3    H1 2487   0.505   3.336   2.186  0.0984 -0.1321  0.0373
  827TIP3    H2 2488   0.431   3.209   2.147 -1.1855  0.7308 -0.4052
  828TIP3   OH2 2489   5.619   5.306   4.471  0.2917  0.5285 -0.6465
  828TIP3    H1 2490   5.672   5.367   4.419  1.6730  0.1334  0.2257
  828TIP3    H2 2491   5.616   5.345   4.558 -0.9533  0.5777 -0.6994
  829TIP3   OH2 2492   5.445   2.987   2.040  0.2715 -0.2543 -0.1333
  829TIP3    H1 2493   5.388   2.953   2.109  3.0467 -2.6858  1.1680
  829TIP3    H2 2494   5.497   3.055   2.083 -0.4301  0.7929 -0.8778
  830TIP3   OH2 2495   1.110   0.724   2.987 -0.6284 -0.2461 -0.0834
  830TIP3    H1 2496   1.126   0.759   2.899  0.8054 -1.4045 -0.3175
  830TIP3    H2 2497   1.049   0.652   2.974 -0.0189 -0.7499 -0.2237
  831TIP3   OH2 2498   4.696   0.349   3.009 -0.4454  0.1673  0.1629
  831TIP3    H1 2499   4.771   0.399   2.976  0.8625 -0.7031  1.6263
  831TIP3    H2 2500   4.717   0.258   2.988 -1.0962 -0.0796  0.5542
  832TIP3   OH2 2501   5.799   5.760   2.325 -0.5232 -0.0800 -0.1098
  832TIP3    H1 2502   5.808   5.730   2.416  0.0333  1.1352  0.2543
  832TIP3    H2 2503   5.883   5.739   2.285 -0.9666 -1.1437 -0.5324
  833TIP3   OH2 2504   3.922   1.258   2.945  0.6362 -0.2406  0.0251
  833TIP3    H1 2505   3.833   1.228   2.930  0.3408  0.2219  0.8027
  833TIP3    H2 2506   3.914   1.352   2.960  1.6632  0.6057 -3.5925
  834TIP3   OH2 2507   5.210   4.901   0.845 -1.0511 -0.0190  0.3818
  834TIP3    H1 2508   5.170   4.912   0.759 -0.3135  1.8980  0.2423
  834TIP3    H2 2509   5.151   4.841   0.891 -2.3339  0.2072 -0.8921
  835TIP3   OH2 2510   5.119   0.212   2.863 -0.2312 -0.4824 -0.1398
  835TIP3    H1 2511   5.195   0.268   2.881 -0.3830  0.0465 -1.0416
  835TIP3    H2 2512   5.152   0.123   2.869  0.2241 -0.2814  0.4481
  836TIP3   OH2 2513   4.525   3.440   0.469  0.2339 -0.1023 -0.2515
  836TIP3    H1 2514   4.454   3.477   0.522  0.9073  0.6600  0.1353
  836TIP3    H2 2515   4.488   3.359   0.433 -0.7845  0.2114  0.0499
  837TIP3   OH2 2516   1.910   4.454   2.241  0.1290  0.0852 -0.1914
  837TIP3    H1 2517   1.828   4.417   2.211  0.0610 -1.4269  1.6752
  837TIP3    H2 2518   1.888   4.501   2.322  0.9558  0.3571 -0.1081
  838TIP3   OH2 2519   5.134   1.816   1.660 -0.5718  0.1268 -0.0227
  838TIP3    H1 2520   5.046   1.850   1.648 -0.9596 -0.0149  1.9712
  838TIP3    H2 2521   5.168   1.863   1.736  0.5698 -0.7598  0.0532
  839TIP3   OH2 2522   0.285   5.069   3.186 -0.4136  0.2151  0.0427
  839TIP3    H1 2523   0.269   5.163   3.185 -1.0621  0.1299 -1.5424
  839TIP3    H2 2524   0.377   5.060   3.162  0.6129  0.4954  3.3357
  840TIP3   OH2 2525   0.536   1.736   0.217  0.6475  0.2366  0.0797
  840TIP3    H1 2526   0.514   1.671   0.151 -0.5060  0.3611  0.3314
  840TIP3    H2 2527   0.489   1.815   0.190 -1.5371 -0.2634  2.0862
  841TIP3   OH2 2528   4.570   1.096   3.310 -0.0824 -0.0417 -0.0758
  841TIP3    H1 2529   4.525   1.024   3.353  1.0410 -1.5569 -1.3068
  841TIP3    H2 2530   4.632   1.129   3.375 -1.7539  1.0001  1.0716
  842TIP3   OH2 2531   1.328   3.919   0.249  0.4029 -0.6141  0.1992
  842TIP3    H1 2532   1.382   3.950   0.176 -0.3160  0.4035  0.0792
  842TIP3    H2 2533   1.391   3.901   0.319  0.8841  0.8691  0.1744
  843TIP3   OH2 2534   2.132   4.610   2.246  0.6684  0.1498  0.0249
  843TIP3    H1 2535   2.055   4.563   2.217  1.8274 -1.5190 -0.4712
  843TIP3    H2 2536   2.100   4.666   2.317 -1.0807 -0.0763 -0.5379
  844TIP3   OH2 2537   0.308   1.826   3.569 -0.0357  0.3026  0.1602
  844TIP3    H1 2538   0.270   1.829   3.656 -1.6537 -0.9180 -0.4498
  844TIP3    H2 2539   0.291   1.737   3.538 -0.2508  0.9417 -1.7086
  845TIP3   OH2 2540   1.181   0.526   0.914 -0.2319  0.1900 -0.2491
  845TIP3    H1 2541   1.248   0.526   0.982  0.8015 -0.5474 -1.2260
  845TIP3    H2 2542   1.229   0.509   0.833 -1.2912  1.9469 -1.3207
  846TIP3   OH2 2543   4.649   1.405   0.017  0.6707 -0.2051 -0.0812
  846TIP3    H1 2544   4.669   1.449   0.100  0.8868 -1.7566  0.7310
  846TIP3    H2 2545   4.708   1.446  -0.047  0.0847  1.4262  0.3714
  847TIP3   OH2 2546   0.268   5.833   4.068 -0.2003  0.4792  0.8812
  847TIP3    H1 2547   0.187   5.884   4.078  0.2022  1.2345  0.3331
  847TIP3    H2 2548   0.266   5.804   3.977 -0.5800 -0.7775  1.2660
  848TIP3   OH2 2549   2.113   1.417   1.079  0.0176  0.0083 -0.0770
  848TIP3    H1 2550   2.111   1.342   1.139 -0.5887 -1.4173 -1.7743
  848TIP3    H2 2551   2.032   1.409   1.029  0.2066  1.5171 -0.6650
  849TIP3   OH2 2552   3.504   4.403   1.354  0.0967 -0.9898 -0.3184
  849TIP3    H1 2553   3.566   4.455   1.303  0.8513 -1.3343  0.2386
  849TIP3    H2 2554   3.418   4.425   1.316  0.6213 -1.1989 -1.6978
  850TIP3   OH2 2555   6.173   2.790   2.695  0.1999 -0.4079  0.0473
  850TIP3    H1 2556   6.265   2.810   2.714  0.0143 -0.6458  1.2899
  850TIP3    H2 2557   6.140   2.868   2.650  1.0252 -0.3622 -0.4878
  851TIP3   OH2 2558   3.744   2.686   4.566  0.5723  0.1413 -0.7134
  851TIP3    H1 2559   3.732   2.777   4.595  1.3821 -0.6341  2.4627
  851TIP3    H2 2560   3.666   2.640   4.600 -0.5671 -0.1906 -3.5425
  852TIP3   OH2 2561   0.016   1.815   0.362  0.0616  0.6280 -0.0746
  852TIP3    H1 2562   0.082   1.764   0.410 -1.1682 -0.6256  0.3347
  852TIP3    H2 2563  -0.059   1.756   0.355 -1.6253  2.5579  0.8772
  853TIP3   OH2 2564   4.257   0.817   0.784  0.4825  0.0753  0.3883
  853TIP3    H1 2565   4.235   0.741   0.729  0.2871 -0.0423  0.6259
  853TIP3    H2 2566   4.272   0.780   0.871 -1.1474  0.4756  0.8701
  854TIP3   OH2 2567   6.059   1.674   2.993  0.1999 -0.2410  0.6022
  854TIP3    H1 2568   6.046   1.628   2.910  0.8320  0.3483  0.1655
  854TIP3    H2 2569   6.068   1.766   2.968 -0.8088  0.0981  1.4380
  855TIP3   OH2 2570   5.082   2.769   1.715 -0.1752 -0.2050  0.6632
  855TIP3    H1 2571   5.041   2.786   1.630  0.0340  1.5646  0.8793
  855TIP3    H2 2572   5.096   2.675   1.716 -0.5268 -0.3181 -1.1183
  856TIP3   OH2 2573   4.321   3.773   2.792  0.1637  0.1112  0.1001
  856TIP3    H1 2574   4.387   3.840   2.812 -0.2799  0.7917 -0.6857
  856TIP3    H2 2575   4.373   3.696   2.767  0.6846  0.7865 -0.9826
  857TIP3   OH2 2576   3.582   1.555   4.926  0.4787  0.5717  0.2261
  857TIP3    H1 2577   3.500   1.544   4.975 -0.2060  1.0176 -0.7863
  857TIP3    H2 2578   3.633   1.617   4.979  0.4334 -0.1610  1.1657
  858TIP3   OH2 2579   3.617   1.412   0.990  0.3334 -0.6077  0.5140
  858TIP3    H1 2580   3.602   1.327   1.032 -0.3008 -0.8769 -0.2234
  858TIP3    H2 2581   3.692   1.449   1.036  1.6022 -2.2563 -0.1371
  859TIP3   OH2 2582   4.955   5.208   2.971  0.2661  0.4246 -0.4516
  859TIP3    H1 2583   4.861   5.224   2.973  0.3372  1.3397 -2.2731
  859TIP3    H2 2584   4.989   5.250   3.050 -0.8905 -0.4234  0.5308
  860TIP3   OH2 2585   2.441   4.734   1.889 -0.1852  0.1430  0.3115
  860TIP3    H1 2586   2.363   4.686   1.864  0.2254 -0.5129  0.2715
  860TIP3    H2 2587   2.409   4.808   1.940 -0.8871  0.3739 -0.4439
  861TIP3   OH2 2588   5.561   4.962   0.665  0.1220  0.1344 -0.0739
  861TIP3    H1 2589   5.544   4.954   0.571  0.1325 -0.2485 -0.0473
  861TIP3    H2 2590   5.508   4.892   0.704  1.8622 -1.2098 -0.0060
  862TIP3   OH2 2591   2.631   4.164   4.839 -0.1066 -0.0175  0.2168
  862TIP3    H1 2592   2.645   4.252   4.874  0.4474  0.0583 -0.1852
  862TIP3    H2 2593   2.552   4.132   4.884 -0.3689  0.7222  0.2855
  863TIP3   OH2 2594   0.990   4.724   2.237  0.6747 -0.3401  0.0212
  863TIP3    H1 2595   1.082   4.748   2.249  0.8190 -1.6404  2.0152
  863TIP3    H2 2596   0.943   4.778   2.301 -0.1185  0.9543 -1.5722
  864TIP3   OH2 2597   6.323   1.717   2.509  0.0394  0.0988  0.0408
  864TIP3    H1 2598   6.407   1.731   2.464 -0.4895  0.8286 -0.7321
  864TIP3    H2 2599   6.258   1.717   2.439 -0.7078  0.4199  0.7307
  865TIP3   OH2 2600   3.141   1.365   3.089 -0.5725  0.2878 -0.2197
  865TIP3    H1 2601   3.188   1.448   3.102 -1.8784  0.8306  1.3724
  865TIP3    H2 2602   3.049   1.391   3.081 -0.6776 -0.6246 -4.3668
  866TIP3   OH2 2603   5.379   5.476   5.186 -0.2447 -0.0440  0.0482
  866TIP3    H1 2604   5.373   5.440   5.097  1.8109  2.6204 -1.3059
  866TIP3    H2 2605   5.311   5.543   5.189 -0.6506 -0.4684  0.7283
  867TIP3   OH2 2606   6.034   1.168   1.022 -0.3326  0.1253 -0.6346
  867TIP3    H1 2607   6.039   1.073   1.015  1.1145  0.2716 -2.3364
  867TIP3    H2 2608   6.023   1.184   1.115  0.4790 -1.6887 -0.1727
  868TIP3   OH2 2609   6.124   1.085   2.342 -0.0839 -0.0116  0.3239
  868TIP3    H1 2610   6.134   1.000   2.299 -1.2707 -0.2553  0.4944
  868TIP3    H2 2611   6.030   1.092   2.359 -0.0379  1.4698  0.0535
  869TIP3   OH2 2612   5.309   4.971   2.320 -0.1351 -0.5913  0.3686
  869TIP3    H1 2613   5.241   4.969   2.387 -0.4267 -1.0008  0.0635
  869TIP3    H2 2614   5.382   4.922   2.359 -0.3095 -0.8423  0.3792
  870TIP3   OH2 2615   0.744   0.865   0.639 -0.8927  0.7531 -0.1414
  870TIP3    H1 2616   0.803   0.806   0.687 -2.0904 -0.4604 -0.1086
  870TIP3    H2 2617   0.795   0.945   0.627  1.2835 -0.7232 -1.3657
  871TIP3   OH2 2618   0.084   5.888   1.269 -0.6427  0.2874 -0.4278
  871TIP3    H1 2619   0.025   5.937   1.212 -0.3117  0.1399 -0.9010
  871TIP3    H2 2620   0.143   5.842   1.209 -0.3850  0.0130  0.0297
  872TIP3   OH2 2621   0.425   0.198   1.869  0.0676  0.2802 -0.2970
  872TIP3    H1 2622   0.400   0.278   1.915 -0.8042  0.0720 -0.3929
  872TIP3    H2 2623   0.521   0.202   1.866  0.0243  1.5155 -0.6729
  873TIP3   OH2 2624   1.963   3.919   0.360 -0.0932  0.4148  0.2557
  873TIP3    H1 2625   1.942   3.907   0.453  0.0025 -0.5218  0.1608
  873TIP3    H2 2626   1.878   3.930   0.317 -0.1636  0.4139  0.3941
  874TIP3   OH2 2627   5.624   5.931   0.553  0.1234  0.3374  0.4037
  874TIP3    H1 2628   5.612   5.858   0.613  0.0248  0.3540  0.4051
  874TIP3    H2 2629   5.535   5.966   0.540  0.4347  2.0037  2.3262
  875TIP3   OH2 2630   4.041   4.946   5.066 -0.8731 -0.5560 -0.4204
  875TIP3    H1 2631   3.997   4.880   5.012 -1.6702 -0.3246 -0.0619
  875TIP3    H2 2632   4.092   4.997   5.003  0.4823 -2.0562 -0.6007
  876TIP3   OH2 2633   3.747   3.154   4.896 -0.1027 -0.9497 -0.1566
  876TIP3    H1 2634   3.740   3.244   4.929  2.0897 -0.8013 -0.0003
  876TIP3    H2 2635   3.747   3.099   4.974  0.6516 -0.9309 -0.1440
  877TIP3   OH2 2636   5.052   5.314   2.017 -0.3353  0.1872  0.6789
  877TIP3    H1 2637   5.119   5.378   1.993 -0.2996 -0.1902 -0.2715
  877TIP3    H2 2638   5.100   5.233   2.035 -0.4972  0.0284  0.4100
  878TIP3   OH2 2639   0.552   5.672   3.320  0.4496  0.1918 -0.5234
  878TIP3    H1 2640   0.523   5.582   3.302  1.3193  0.0293 -1.1449
  878TIP3    H2 2641   0.610   5.663   3.396  0.8307  0.1725 -0.8148
  879TIP3   OH2 2642   4.753   5.392   4.992 -0.2256  0.7518  0.1667
  879TIP3    H1 2643   4.788   5.414   4.906  0.0543  1.5242  0.4701
  879TIP3    H2 2644   4.758   5.473   5.041 -1.6040  0.6434  0.5077
  880TIP3   OH2 2645   4.276   3.393   0.950  0.2058 -0.2029  0.3196
  880TIP3    H1 2646   4.247   3.481   0.974 -0.1785 -0.6252  1.4781
  880TIP3    H2 2647   4.199   3.338   0.961  0.8526 -0.9588  1.2632
  881TIP3   OH2 2648   2.280   0.340   1.805  0.0550  1.3914 -0.3376
  881TIP3    H1 2649   2.276   0.245   1.805 -2.1319  1.4242  0.4585
  881TIP3    H2 2650   2.261   0.365   1.714  0.2848  1.0764 -0.4722
  882TIP3   OH2 2651   4.981   4.990   1.152  0.2226  0.3127  0.8003
  882TIP3    H1 2652   5.005   4.900   1.128  1.5341  0.7071  0.5299
  882TIP3    H2 2653   4.999   5.041   1.074 -0.9011  0.7619  0.8260
  883TIP3   OH2 2654   6.077   0.820   3.918 -0.3108 -0.3880  0.0693
  883TIP3    H1 2655   5.984   0.812   3.896 -0.0022  1.1221 -2.1236
  883TIP3    H2 2656   6.077   0.853   4.008 -1.8162 -2.0510  0.7437
  884TIP3   OH2 2657   1.088   3.849   2.686  0.5635 -0.1277  0.2855
  884TIP3    H1 2658   1.121   3.880   2.770  0.5044 -0.6678  0.5103
  884TIP3    H2 2659   1.111   3.756   2.684 -1.1662 -0.6084  0.5747
  885TIP3   OH2 2660   1.100   2.512   4.723 -0.2686 -0.0987  0.0720
  885TIP3    H1 2661   1.035   2.580   4.738  0.3470  1.0707 -2.1224
  885TIP3    H2 2662   1.116   2.474   4.809 -0.9620  2.2352  1.2991
  886TIP3   OH2 2663   4.568   3.418   2.278 -0.2036 -0.1524 -0.3070
  886TIP3    H1 2664   4.498   3.477   2.307  0.8898  0.6935  0.7193
  886TIP3    H2 2665   4.583   3.361   2.353  0.2152 -0.3119 -0.5090
  887TIP3   OH2 2666   0.286   1.807   2.003 -0.2927 -0.2744  0.0132
  887TIP3    H1 2667   0.282   1.762   2.087 -0.0495  0.9497  0.7117
  887TIP3    H2 2668   0.272   1.899   2.025  2.7723  0.5297 -0.8844
  888TIP3   OH2 2669   3.078   5.424   4.537 -0.0179 -0.1660 -0.1878
  888TIP3    H1 2670   3.160   5.468   4.562 -0.2131 -0.5471  1.2156
  888TIP3    H2 2671   3.016   5.449   4.606 -0.5629 -1.3914 -0.2101
  889TIP3   OH2 2672   5.521   2.216   1.363 -0.4615 -0.6736  0.3895
  889TIP3    H1 2673   5.576   2.139   1.349  0.0744 -0.3194  0.5441
  889TIP3    H2 2674   5.575   2.290   1.335 -0.3259 -0.1881  1.8881
  890TIP3   OH2 2675   2.986   4.941   1.282 -0.0620 -0.1174  0.0719
  890TIP3    H1 2676   2.968   5.024   1.238 -2.5815 -0.0638  1.0494
  890TIP3    H2 2677   2.931   4.942   1.361  1.4433 -1.8247  1.2372
  891TIP3   OH2 2678   6.259   3.290   1.797  0.5141 -0.0070 -0.3294
  891TIP3    H1 2679   6.170   3.306   1.830  0.7723  1.7376 -0.3927
  891TIP3    H2 2680   6.248   3.282   1.702 -0.0925 -4.0547 -0.0921
  892TIP3   OH2 2681   3.678   4.239   4.904  0.5041 -0.6057  0.0403
  892TIP3    H1 2682   3.600   4.214   4.954  2.0773 -0.8280  2.5856
  892TIP3    H2 2683   3.739   4.167   4.918  2.4289  1.1695  1.1961
  893TIP3   OH2 2684   2.755   4.569   3.908 -0.0841  0.1456  0.5953
  893TIP3    H1 2685   2.742   4.503   3.839 -1.0050 -0.8410  1.6697
  893TIP3    H2 2686   2.760   4.518   3.989  2.4339  1.1494  1.1789
  894TIP3   OH2 2687   2.545   5.663   1.951  0.0794  0.2202 -0.3127
  894TIP3    H1 2688   2.518   5.666   2.043  0.9297  1.0027 -0.0707
  894TIP3    H2 2689   2.568   5.753   1.929 -0.9793  0.2111 -1.5810
  895TIP3   OH2 2690   2.455   1.751   0.955 -0.0865  0.0133 -0.2543
  895TIP3    H1 2691   2.440   1.834   0.999  1.0048 -0.5480  1.2822
  895TIP3    H2 2692   2.368   1.717   0.936 -0.5525  1.9730 -1.9223
  896TIP3   OH2 2693   4.696   0.651   0.314  0.7125 -0.3050  0.7634
  896TIP3    H1 2694   4.769   0.712   0.298  1.7055 -1.2446  1.5565
  896TIP3    H2 2695   4.682   0.655   0.409 -1.3551  1.0289  0.4615
  897TIP3   OH2 2696   3.245   5.532   3.059 -0.0499  0.3126  0.0804
  897TIP3    H1 2697   3.159   5.570   3.076  0.2920  0.8548  0.6364
  897TIP3    H2 2698   3.298   5.604   3.025  1.0800  0.8240  2.6642
  898TIP3   OH2 2699   0.856   1.056   4.756  0.1521 -0.2448  0.2445
  898TIP3    H1 2700   0.879   1.120   4.823  2.8283 -1.6385  0.8064
  898TIP3    H2 2701   0.888   1.093   4.674  1.4490 -0.6544  0.5311
  899TIP3   OH2 2702   5.993   5.411   5.073  0.1345  0.1518 -0.9456
  899TIP3    H1 2703   5.936   5.486   5.056  1.7745  1.2728 -1.7300
  899TIP3    H2 2704   6.082   5.447   5.072  0.9525 -1.7361 -0.9059
  900TIP3   OH2 2705   4.556   2.012   3.728 -0.5502  0.0984 -0.1481
  900TIP3    H1 2706   4.598   2.056   3.802 -0.1588  0.3898 -0.5286
  900TIP3    H2 2707   4.623   2.013   3.659 -0.1794 -1.9522  0.1176
  901TIP3   OH2 2708   4.129   4.672   3.848 -0.5865  0.3417  0.1573
  901TIP3    H1 2709   4.106   4.673   3.941 -0.9114  1.7307  0.0822
  901TIP3    H2 2710   4.197   4.738   3.840 -0.0700 -0.2581 -0.4869
  902TIP3   OH2 2711   1.707   2.205   0.584 -0.1057  0.1063  0.2186
  902TIP3    H1 2712   1.787   2.164   0.552  1.1405  2.3773  0.2889
  902TIP3    H2 2713   1.675   2.257   0.511  0.5077  2.0562  1.2656
  903TIP3   OH2 2714   5.547   5.099   3.974  0.1923 -0.0222 -0.5418
  903TIP3    H1 2715   5.607   5.024   3.981  1.9646  1.3033 -0.7355
  903TIP3    H2 2716   5.580   5.148   3.898 -1.1545  0.7728 -0.6329
  904TIP3   OH2 2717   3.185   5.703   0.202  0.1058  0.3331 -0.3625
  904TIP3    H1 2718   3.244   5.700   0.278  0.1928 -0.6314 -0.4563
  904TIP3    H2 2719   3.100   5.724   0.240 -0.2168 -1.8773  0.2661
  905TIP3   OH2 2720   5.221   4.671   2.252 -0.4032  0.2841 -0.1934
  905TIP3    H1 2721   5.281   4.725   2.201  0.1554 -0.0721  0.0727
  905TIP3    H2 2722   5.144   4.727   2.267 -0.1263  0.7541 -0.5170
  906TIP3   OH2 2723   4.552   3.496   1.326  0.3354 -0.1922  0.4456
  906TIP3    H1 2724   4.538   3.405   1.298  1.1911  0.4998 -2.5763
  906TIP3    H2 2725   4.542   3.547   1.245  3.8860  1.9748  1.1967
  907TIP3   OH2 2726   0.719   0.790   3.986  0.2257 -0.1078  0.2083
  907TIP3    H1 2727   0.776   0.806   4.062 -1.3682 -1.9758  1.9161
  907TIP3    H2 2728   0.700   0.697   3.990  1.6172 -0.7526 -3.7243
  908TIP3   OH2 2729   1.191   5.482   1.707  0.2402  0.1016 -0.2323
  908TIP3    H1 2730   1.180   5.567   1.749 -0.8782  0.3177 -0.9128
  908TIP3    H2 2731   1.104   5.442   1.710  0.4072 -0.3711 -1.2573
  909TIP3   OH2 2732   3.608   0.461   4.656 -0.1725  0.2786 -0.2510
  909TIP3    H1 2733   3.522   0.500   4.675 -0.3687 -0.7139  1.0380
  909TIP3    H2 2734   3.618   0.471   4.561 -1.5171  0.8018 -0.3647
  910TIP3   OH2 2735   0.605   0.562   3.170 -0.0470 -0.5450  0.1347
  910TIP3    H1 2736   0.513   0.537   3.163 -0.6139  0.9820  1.5460
  910TIP3    H2 2737   0.620   0.571   3.264  1.2207  0.4035 -0.1429
  911TIP3   OH2 2738   1.453   5.090   3.210 -0.0250  0.3140  0.6568
  911TIP3    H1 2739   1.537   5.133   3.224  0.3740 -0.0591 -0.4652
  911TIP3    H2 2740   1.470   4.998   3.230  0.0096  0.1324 -0.1879
  912TIP3   OH2 2741   3.639   1.865   4.974 -0.2096 -0.4379 -0.0890
  912TIP3    H1 2742   3.657   1.959   4.985 -1.1696  0.0826 -2.3653
  912TIP3    H2 2743   3.665   1.826   5.058 -0.0288  1.8856  1.0324
  913TIP3   OH2 2744   1.197   1.957   0.659  0.0655  0.1077 -0.4492
  913TIP3    H1 2745   1.211   2.000   0.744 -3.3177 -0.0968  0.3751
  913TIP3    H2 2746   1.154   2.024   0.606  0.3403 -0.3849 -1.3038
  914TIP3   OH2 2747   2.930   1.676   0.164  0.1344  0.4956 -0.0494
  914TIP3    H1 2748   2.836   1.663   0.173  0.1451  0.7955  0.5089
  914TIP3    H2 2749   2.965   1.657   0.251  0.5738  0.5169 -0.2199
  915TIP3   OH2 2750   3.105   2.985   2.247 -0.4679  0.0025 -0.0923
  915TIP3    H1 2751   3.014   3.013   2.234 -0.6743 -0.3346  0.6117
  915TIP3    H2 2752   3.157   3.064   2.231 -0.8540  0.1068 -0.8652
  916TIP3   OH2 2753   0.476   5.756   2.390  0.5989 -0.8808 -0.0504
  916TIP3    H1 2754   0.418   5.723   2.458  0.3110 -2.7303 -1.0983
  916TIP3    H2 2755   0.442   5.717   2.309  1.1175  0.9775 -1.2210
  917TIP3   OH2 2756   1.070   3.846   4.815  0.3909  0.1830  0.0181
  917TIP3    H1 2757   0.995   3.843   4.874  0.2198 -0.8865 -0.2343
  917TIP3    H2 2758   1.041   3.898   4.741  0.1280  0.3455  0.2363
  918TIP3   OH2 2759   6.173   2.983   3.620  0.3241 -0.2759  0.0102
  918TIP3    H1 2760   6.169   2.955   3.529 -0.4588 -1.7116  0.4411
  918TIP3    H2 2761   6.214   2.909   3.665  0.5752  0.3560  0.8396
  919TIP3   OH2 2762   2.409   4.484   0.986 -0.1827  0.1212 -0.2390
  919TIP3    H1 2763   2.325   4.530   0.986 -1.5232 -1.9493  3.2245
  919TIP3    H2 2764   2.386   4.392   0.974  1.8630 -0.3099 -1.2538
  920TIP3   OH2 2765   0.757   0.196   1.522  0.1241 -0.4100 -0.0650
  920TIP3    H1 2766   0.746   0.230   1.433 -0.3098  0.9059  0.4743
  920TIP3    H2 2767   0.681   0.140   1.535 -0.5761  0.5296 -0.0251
  921TIP3   OH2 2768   6.323   1.022   0.844  0.0935 -0.0588  0.2569
  921TIP3    H1 2769   6.304   1.053   0.933 -2.5528  0.7344 -0.5014
  921TIP3    H2 2770   6.323   1.101   0.791 -2.0849 -0.8219 -0.9851
  922TIP3   OH2 2771   5.021   5.598   2.413 -0.0947 -0.4933 -0.4663
  922TIP3    H1 2772   5.110   5.633   2.408 -0.2810  0.2628  1.0298
  922TIP3    H2 2773   5.026   5.514   2.368  1.3588 -0.4337 -0.4595
  923TIP3   OH2 2774   2.503   2.392   0.697  0.0219 -0.2936  0.1122
  923TIP3    H1 2775   2.501   2.416   0.604  0.4342  1.3422  0.5017
  923TIP3    H2 2776   2.448   2.457   0.740  0.8007 -0.3032  1.1549
  924TIP3   OH2 2777   3.149   0.697   2.849 -0.4093 -0.2704 -0.2428
  924TIP3    H1 2778   3.146   0.769   2.912 -0.7576 -0.2305 -0.3012
  924TIP3    H2 2779   3.151   0.741   2.763 -0.4052 -0.3288 -0.2724
  925TIP3   OH2 2780   0.137   3.777   0.458 -0.2802  0.3792 -0.5097
  925TIP3    H1 2781   0.055   3.739   0.425 -0.2903  0.6179 -0.7612
  925TIP3    H2 2782   0.110   3.862   0.493 -0.4425 -0.2403  0.9795
  926TIP3   OH2 2783   1.396   0.393   4.725 -0.3420  0.5799  0.5631
  926TIP3    H1 2784   1.401   0.322   4.661 -1.0342  1.1259 -0.1238
  926TIP3    H2 2785   1.481   0.393   4.768  0.2085  0.3214 -0.4903
  927TIP3   OH2 2786   2.916   5.849   2.068 -0.4503 -0.0552  0.7306
  927TIP3    H1 2787   2.842   5.901   2.099 -3.6899 -2.0750 -2.8120
  927TIP3    H2 2788   2.961   5.905   2.005 -0.9463  0.1038  0.5142
  928TIP3   OH2 2789   5.711   1.225   3.892 -0.2805 -0.4000  0.2431
  928TIP3    H1 2790   5.776   1.251   3.827  0.2635 -0.7743  0.6271
  928TIP3    H2 2791   5.741   1.264   3.973 -0.1268 -1.1912  0.5741
  929TIP3   OH2 2792   0.467   4.137   3.166  0.0522  0.1573  0.6245
  929TIP3    H1 2793   0.556   4.128   3.202  1.0122  0.9872 -1.4132
  929TIP3    H2 2794   0.480   4.146   3.072 -2.2192  0.3973  0.2860
  930TIP3   OH2 2795   5.171   1.060   0.974  0.0310 -0.5153  0.3583
  930TIP3    H1 2796   5.204   1.119   1.042  0.7149  1.0964 -1.2954
  930TIP3    H2 2797   5.177   0.973   1.013  1.9192  0.1928  1.8009
  931TIP3   OH2 2798   2.911   2.280   0.984 -0.9461  0.1046 -0.0978
  931TIP3    H1 2799   2.970   2.205   0.979  0.1258  0.7895  1.5816
  931TIP3    H2 2800   2.836   2.254   0.930 -0.1393 -1.7215 -0.4329
  932TIP3   OH2 2801   0.808   5.662   3.066 -0.1557  0.1333 -0.2606
  932TIP3    H1 2802   0.814   5.671   3.161  0.2516 -0.9934 -0.1701
  932TIP3    H2 2803   0.743   5.728   3.040 -2.4883 -1.4684  1.1310
  933TIP3   OH2 2804   0.228   0.851   0.699 -0.0249 -0.3415 -0.4264
  933TIP3    H1 2805   0.166   0.878   0.632 -1.0829 -0.1072  0.6080
  933TIP3    H2 2806   0.293   0.921   0.701  0.1018 -0.4237 -1.2919
  934TIP3   OH2 2807   0.037   4.351   2.446 -0.1105 -0.0076 -0.7114
  934TIP3    H1 2808   0.087   4.327   2.368  0.0460 -1.7408 -0.1110
  934TIP3    H2 2809   0.078   4.432   2.476  0.5043  0.1192 -1.8266
  935TIP3   OH2 2810   6.240   2.348   1.345  0.2744  0.4927  0.2742
  935TIP3    H1 2811   6.180   2.412   1.385  1.8557  0.0322  3.7969
  935TIP3    H2 2812   6.326   2.390   1.351  0.8293 -0.4309 -0.9857
  936TIP3   OH2 2813   4.168   1.589   1.442  0.0440 -0.8922 -0.2550
  936TIP3    H1 2814   4.130   1.535   1.510 -1.7158  1.4273  0.7654
  936TIP3    H2 2815   4.112   1.667   1.439  1.5652  0.2508 -2.5872
  937TIP3   OH2 2816   5.410   5.979   0.420 -0.2354 -0.7680 -0.0884
  937TIP3    H1 2817   5.334   6.022   0.380  0.7792  0.4301 -0.8077
  937TIP3    H2 2818   5.431   5.906   0.362  0.5077  0.2574 -1.1445
  938TIP3   OH2 2819   5.600   5.920   1.429  0.4432 -0.4733  0.2951
  938TIP3    H1 2820   5.624   5.911   1.337  0.8218 -0.9338  0.4298
  938TIP3    H2 2821   5.583   6.013   1.441  0.1629 -0.4484 -0.2951
  939TIP3   OH2 2822   0.712   0.665   4.342  0.0710  0.2137  0.1979
  939TIP3    H1 2823   0.620   0.661   4.319  0.0252 -0.5499  0.4728
  939TIP3    H2 2824   0.758   0.677   4.259 -0.1844 -0.9369 -0.1227
  940TIP3   OH2 2825   3.348   0.112   5.151  0.2250  0.0026  0.5970
  940TIP3    H1 2826   3.362   0.021   5.176  1.2531 -0.2313 -0.7460
  940TIP3    H2 2827   3.315   0.108   5.062 -1.1849  0.9096  1.0397
  941TIP3   OH2 2828   1.325   3.354   1.848 -0.0733  0.3813 -0.2226
  941TIP3    H1 2829   1.299   3.445   1.864  1.9531  0.9958 -0.1255
  941TIP3    H2 2830   1.414   3.348   1.883  0.6643 -1.0214 -2.1369
  942TIP3   OH2 2831   5.674   3.697   0.400 -0.2890 -0.0644 -0.3999
  942TIP3    H1 2832   5.694   3.631   0.333 -1.0236 -1.0572  0.3181
  942TIP3    H2 2833   5.707   3.779   0.364 -0.3743 -0.6269 -1.8364
  943TIP3   OH2 2834   1.568   1.384   4.156 -0.4297  0.4219  0.2341
  943TIP3    H1 2835   1.597   1.443   4.226  0.0337  0.3404  0.1146
  943TIP3    H2 2836   1.495   1.335   4.195  0.4304 -0.3043  0.9998
  944TIP3   OH2 2837   5.651   1.738   1.447  0.3219  0.0745 -0.5777
  944TIP3    H1 2838   5.699   1.717   1.527 -1.2754  0.0014  0.4137
  944TIP3    H2 2839   5.618   1.653   1.416 -1.0555  0.3537  0.0450
  945TIP3   OH2 2840   3.761   0.910   0.164  0.3392 -0.3377 -0.3637
  945TIP3    H1 2841   3.845   0.921   0.209  0.8692  0.2549 -1.4543
  945TIP3    H2 2842   3.717   0.994   0.176  0.1240 -0.4665 -0.2491
  946TIP3   OH2 2843   5.674   0.357   4.176  0.6792 -0.1041  0.2600
  946TIP3    H1 2844   5.660   0.297   4.248 -0.9976 -0.1846 -0.0978
  946TIP3    H2 2845   5.662   0.444   4.214  0.8759 -0.0903  0.2947
  947TIP3   OH2 2846   2.552   4.028   2.550 -0.2997  0.0741 -0.2041
  947TIP3    H1 2847   2.635   4.069   2.575 -0.8358  0.8381  0.3713
  947TIP3    H2 2848   2.550   3.946   2.599  0.1729 -0.0094 -0.3203
  948TIP3   OH2 2849   3.699   3.414   3.047 -0.0506  0.4759  0.6829
  948TIP3    H1 2850   3.708   3.321   3.026 -0.4236  0.9736 -2.0547
  948TIP3    H2 2851   3.775   3.434   3.101  0.9985 -1.0509 -0.1629
  949TIP3   OH2 2852   2.213   5.787   2.161 -0.4845 -0.0567 -0.0414
  949TIP3    H1 2853   2.192   5.874   2.196  0.8111  0.4639 -0.4565
  949TIP3    H2 2854   2.303   5.772   2.191  0.6076  0.3107 -2.8340
  950TIP3   OH2 2855   4.105   2.813   0.705 -0.2670 -0.0266 -0.3852
  950TIP3    H1 2856   4.137   2.754   0.637 -0.1682  0.3078 -0.6289
  950TIP3    H2 2857   4.082   2.755   0.778  0.6864 -0.2888 -0.2843
  951TIP3   OH2 2858   0.228   5.701   0.280 -0.5778  0.2424  0.0192
  951TIP3    H1 2859   0.297   5.643   0.250  0.1160  2.3928 -3.0416
  951TIP3    H2 2860   0.151   5.677   0.228 -1.1187  0.2489  0.7852
  952TIP3   OH2 2861   5.326   1.442   3.431 -0.5253  0.2983 -0.3393
  952TIP3    H1 2862   5.251   1.437   3.371  0.5495 -0.4941 -1.6508
  952TIP3    H2 2863   5.393   1.488   3.381  0.3492 -0.2537  0.3110
  953TIP3   OH2 2864   4.233   0.636   1.351 -0.5585  0.2664  0.4494
  953TIP3    H1 2865   4.289   0.687   1.410 -0.1128  0.1785  0.1014
  953TIP3    H2 2866   4.230   0.549   1.390  0.7528 -0.1444 -0.3066
  954TIP3   OH2 2867   2.430   3.479   2.681  0.2818  0.2621 -0.1521
  954TIP3    H1 2868   2.490   3.447   2.614  2.8603 -1.7568  2.7806
  954TIP3    H2 2869   2.384   3.400   2.711  0.4958  0.7359  1.5458
  955TIP3   OH2 2870   4.190   3.828   5.085 -0.0518  0.1832  0.4023
  955TIP3    H1 2871   4.190   3.923   5.096  0.8152  0.1858  0.3994
  955TIP3    H2 2872   4.105   3.801   5.120 -0.2888  0.9463  0.4515
  956TIP3   OH2 2873   5.349   4.769   0.569  0.2470 -0.6088  0.2211
  956TIP3    H1 2874   5.386   4.779   0.481  0.4135  0.1676  0.3719
  956TIP3    H2 2875   5.254   4.781   0.556  0.2022 -1.1258  0.0562
  957TIP3   OH2 2876   0.088   0.167   4.624 -0.3197  0.3957  0.4841
  957TIP3    H1 2877   0.005   0.211   4.638 -0.4096 -0.6187  4.1541
  957TIP3    H2 2878   0.154   0.231   4.650 -0.1445  0.1041  0.7640
  958TIP3   OH2 2879   4.944   4.854   3.737  0.3765  0.5823  0.0164
  958TIP3    H1 2880   4.881   4.918   3.704 -0.3484  0.4654  1.1183
  958TIP3    H2 2881   4.936   4.859   3.832 -0.4783 -1.8604  0.1443
  959TIP3   OH2 2882   3.629   1.816   1.051 -0.0247 -0.4927  0.1635
  959TIP3    H1 2883   3.668   1.892   1.094  0.0356 -0.1292 -0.5228
  959TIP3    H2 2884   3.616   1.844   0.961 -0.4023 -1.1558  0.0086
  960TIP3   OH2 2885   3.881   4.741   2.952  0.0909 -0.1412  0.1670
  960TIP3    H1 2886   3.923   4.687   3.020  1.0454  0.3346 -0.0254
  960TIP3    H2 2887   3.911   4.704   2.870  1.1508  0.9672  0.0353
  961TIP3   OH2 2888   4.510   5.697  -0.008  0.5980  0.4740 -0.4393
  961TIP3    H1 2889   4.475   5.645   0.065 -2.6636 -0.0867 -2.1999
  961TIP3    H2 2890   4.544   5.776   0.033 -0.8703  0.0789  1.7553
  962TIP3   OH2 2891   0.428   0.256   3.933  0.9212 -0.0740  0.6802
  962TIP3    H1 2892   0.411   0.318   3.862  1.5273  0.4540  0.9749
  962TIP3    H2 2893   0.366   0.280   4.002 -0.2758 -1.1554  0.0198
  963TIP3   OH2 2894   1.598   5.344   1.884 -0.3501 -0.4295 -0.1269
  963TIP3    H1 2895   1.546   5.411   1.840  0.2109 -0.3536 -0.6935
  963TIP3    H2 2896   1.683   5.385   1.899 -0.0733 -0.9320 -0.2743
  964TIP3   OH2 2897   4.813   4.412   2.793 -0.4064  0.5270 -0.1960
  964TIP3    H1 2898   4.869   4.465   2.850 -1.3150  1.6985 -0.3611
  964TIP3    H2 2899   4.864   4.332   2.777  0.9341  1.2764  0.1787
  965TIP3   OH2 2900   3.539   4.982   4.925 -0.8509  0.7618  0.0496
  965TIP3    H1 2901   3.480   4.935   4.984  0.2859  0.1685  0.7273
  965TIP3    H2 2902   3.594   4.914   4.887  0.0977  1.4145  0.2290
  966TIP3   OH2 2903   4.858   5.117   0.404  0.3672 -0.0911  0.0639
  966TIP3    H1 2904   4.833   5.096   0.314 -0.8226  0.8525  0.1457
  966TIP3    H2 2905   4.861   5.033   0.449  0.8854 -0.5611 -0.8238
  967TIP3   OH2 2906   2.508   3.104   0.212  0.5971  0.4276 -0.2004
  967TIP3    H1 2907   2.472   3.124   0.125  0.1679 -0.1302 -0.1556
  967TIP3    H2 2908   2.472   3.018   0.233  2.1284 -0.2533 -0.2438
  968TIP3   OH2 2909   2.603   5.391   4.551  0.2623  0.3133  0.1253
  968TIP3    H1 2910   2.656   5.333   4.606  0.3791  1.4687  1.2697
  968TIP3    H2 2911   2.635   5.375   4.462  0.5750 -1.0578  0.4646
  969TIP3   OH2 2912   3.292   4.210   2.656  0.1290 -0.2710 -0.8134
  969TIP3    H1 2913   3.345   4.150   2.603  2.3585  1.6732 -0.9219
  969TIP3    H2 2914   3.356   4.259   2.708 -1.5466  2.2096 -0.9419
  970TIP3   OH2 2915   5.318   3.971   2.973  0.4586  0.0004 -0.2589
  970TIP3    H1 2916   5.353   3.886   3.001  0.0400 -0.8704 -2.2463
  970TIP3    H2 2917   5.264   3.951   2.897  0.5861  2.1086 -0.9592
  971TIP3   OH2 2918   6.171   2.413   1.105  0.1378 -0.0653  0.2156
  971TIP3    H1 2919   6.212   2.494   1.074  1.3518 -0.5683  0.4688
  971TIP3    H2 2920   6.190   2.411   1.199 -0.8407 -0.1080  0.4247
  972TIP3   OH2 2921   4.517   2.091   5.193  0.1040  0.3961 -0.5005
  972TIP3    H1 2922   4.473   2.083   5.108 -0.1085  1.0692 -0.4591
  972TIP3    H2 2923   4.609   2.074   5.174  0.1621  1.2261 -0.9859
  973TIP3   OH2 2924   2.648   0.212   3.917 -0.5497 -0.0547 -0.6257
  973TIP3    H1 2925   2.645   0.306   3.930 -1.5477 -0.2353  0.6888
  973TIP3    H2 2926   2.561   0.181   3.943  0.0786 -1.4449 -0.0317
  974TIP3   OH2 2927   3.582   2.676   4.011 -0.4001  0.8661 -0.2740
  974TIP3    H1 2928   3.654   2.715   4.060  0.0547 -0.3835  0.0844
  974TIP3    H2 2929   3.571   2.734   3.935  0.9298  1.1287 -0.2919
  975TIP3   OH2 2930   0.884   5.840   5.018 -0.5305 -0.3011  0.1163
  975TIP3    H1 2931   0.959   5.890   4.985  1.0958 -0.9269  2.6152
  975TIP3    H2 2932   0.834   5.904   5.069 -0.5475 -0.3618  0.1752
  976TIP3   OH2 2933   0.233   3.809   4.896  0.0124  0.0086  0.3848
  976TIP3    H1 2934   0.145   3.781   4.869  0.1613 -0.7607  0.6847
  976TIP3    H2 2935   0.221   3.899   4.926 -0.5182  0.2010 -0.3687
  977TIP3   OH2 2936   5.728   2.131   4.714 -0.1408  0.1012  0.3640
  977TIP3    H1 2937   5.701   2.091   4.796  0.6192  0.1087  0.6260
  977TIP3    H2 2938   5.648   2.172   4.680 -0.7529 -0.9791  0.4570
  978TIP3   OH2 2939   4.692   4.298   0.491  0.2628 -0.6438  0.4670
  978TIP3    H1 2940   4.767   4.356   0.483 -0.8079  0.7612  0.1382
  978TIP3    H2 2941   4.716   4.220   0.440  0.7151  0.6258 -1.3675
  979TIP3   OH2 2942   3.140   3.119   2.908 -0.3013  0.1881  0.2445
  979TIP3    H1 2943   3.217   3.176   2.913  0.0210 -0.2547  0.3948
  979TIP3    H2 2944   3.130   3.099   2.815  0.1207 -0.2271  0.2853
  980TIP3   OH2 2945   5.719   0.619   3.729 -0.0685  0.3903  0.0586
  980TIP3    H1 2946   5.652   0.559   3.697  1.1740 -0.0505 -1.8974
  980TIP3    H2 2947   5.768   0.567   3.793 -0.3828  0.0813  0.0570
  981TIP3   OH2 2948   3.310   1.268   4.424  0.3746  0.4246  0.5152
  981TIP3    H1 2949   3.380   1.212   4.390  1.0055  1.8762 -0.6994
  981TIP3    H2 2950   3.350   1.355   4.430 -1.8742  1.8386 -2.4156
  982TIP3   OH2 2951   5.105   1.267   4.725  0.1946 -0.0626  0.5589
  982TIP3    H1 2952   5.187   1.239   4.764  0.4163 -1.4125 -0.7869
  982TIP3    H2 2953   5.053   1.187   4.716 -1.3398  0.7733  1.4902
  983TIP3   OH2 2954   6.157   0.634   5.098  0.3880 -0.0669 -0.1626
  983TIP3    H1 2955   6.219   0.686   5.149  0.2892 -1.1947  1.1517
  983TIP3    H2 2956   6.071   0.659   5.132  0.1386  0.7861 -1.3266
  984TIP3   OH2 2957   3.858   4.897   0.120 -0.1967 -0.3520  0.3122
  984TIP3    H1 2958   3.845   4.989   0.143 -1.0125 -0.3748 -0.0128
  984TIP3    H2 2959   3.923   4.899   0.050  0.9539 -0.1542  1.3472
  985TIP3   OH2 2960   3.434   4.021   0.942 -0.0039 -0.1545 -0.3395
  985TIP3    H1 2961   3.517   3.987   0.908  0.4915 -1.8045  2.2198
  985TIP3    H2 2962   3.459   4.078   1.014 -1.0043 -3.0000  2.4618
  986TIP3   OH2 2963   4.857   1.950   0.791  0.1247  0.3646  0.6052
  986TIP3    H1 2964   4.797   1.988   0.726  0.0262 -3.7523 -2.1319
  986TIP3    H2 2965   4.810   1.873   0.823  1.5448  0.5241  3.2434
  987TIP3   OH2 2966   6.237   1.092   5.060  0.1548  0.3002  0.3610
  987TIP3    H1 2967   6.265   1.162   5.000 -0.1982  0.2226  0.1030
  987TIP3    H2 2968   6.150   1.119   5.089  0.3323  0.3438  0.8548
  988TIP3   OH2 2969   3.365   0.337   4.933 -0.0642 -0.2561  0.6198
  988TIP3    H1 2970   3.285   0.343   4.985  0.4595 -1.0113  1.5438
  988TIP3    H2 2971   3.430   0.387   4.982  0.3275 -0.6331  0.4977
  989TIP3   OH2 2972   2.324   5.589   5.116 -0.2653 -0.2652  0.0552
  989TIP3    H1 2973   2.399   5.572   5.059  0.7155 -0.7556  1.4376
  989TIP3    H2 2974   2.321   5.684   5.125 -1.6073  0.0018 -2.2700
  990TIP3   OH2 2975   1.753   3.480   3.065 -0.0598  0.2754  0.3178
  990TIP3    H1 2976   1.809   3.420   3.015 -1.5741  0.4485 -1.7301
  990TIP3    H2 2977   1.809   3.555   3.084  1.4157 -1.0608  1.5489
  991TIP3   OH2 2978   3.908   0.148   3.335 -0.2573  0.4845 -0.3424
  991TIP3    H1 2979   3.869   0.064   3.356 -0.0480  0.8343  1.7224
  991TIP3    H2 2980   3.994   0.126   3.298  1.1190 -0.3366  2.9056
  992TIP3   OH2 2981   6.283   1.090   1.183 -0.8229  0.2718  0.2313
  992TIP3    H1 2982   6.225   1.027   1.141 -1.6355  0.4917  0.9960
  992TIP3    H2 2983   6.346   1.035   1.231 -2.1532 -0.0155  1.7523
  993TIP3   OH2 2984   1.790   3.528   1.541 -0.2184 -0.5542 -0.7095
  993TIP3    H1 2985   1.708   3.490   1.573  0.8465 -2.8414 -0.5359
  993TIP3    H2 2986   1.803   3.488   1.455  0.6191 -0.0781 -0.8100
  994TIP3   OH2 2987   6.033   1.617   1.804 -0.4376 -0.2156  0.0194
  994TIP3    H1 2988   6.055   1.555   1.874 -2.7414 -1.5374 -0.3105
  994TIP3    H2 2989   6.117   1.648   1.772  0.7270 -0.7030  2.3675
  995TIP3   OH2 2990   1.900   2.131   2.443  0.1113 -0.0598  0.4079
  995TIP3    H1 2991   1.970   2.066   2.429 -0.8277 -0.6896 -1.8043
  995TIP3    H2 2992   1.868   2.112   2.531  2.1427 -0.3064  1.1543
  996TIP3   OH2 2993   6.088   5.379   3.876 -0.2060  0.5655  0.5222
  996TIP3    H1 2994   6.149   5.363   3.804  0.5588 -1.5291  1.5642
  996TIP3    H2 2995   6.009   5.331   3.852 -0.9223  1.9554 -0.0577
  997TIP3   OH2 2996   6.192   1.552   0.395 -0.3019  0.5150  0.4424
  997TIP3    H1 2997   6.125   1.602   0.348  0.4046  1.3600  0.3144
  997TIP3    H2 2998   6.162   1.461   0.389 -1.5078  0.8854  0.5135
  998TIP3   OH2 2999   2.514   1.710   3.399 -0.4382  0.3238  0.4508
  998TIP3    H1 3000   2.541   1.699   3.307 -0.3328 -0.3713  0.5583
  998TIP3    H2 3001   2.419   1.706   3.396 -0.5363  2.1280  0.1528
  999TIP3   OH2 3002   0.843   5.171   3.910 -0.2179 -0.0175  0.2343
  999TIP3    H1 3003   0.917   5.167   3.849 -0.1487  0.9893  0.2464
  999TIP3    H2 3004   0.791   5.245   3.881 -0.4747  0.1423  1.0747
 1000TIP3   OH2 3005   4.253   2.898   4.356  0.0873 -0.3837 -0.0550
 1000TIP3    H1 3006   4.237   2.919   4.448  1.2207 -1.4376  0.4055
 1000TIP3    H2 3007   4.186   2.947   4.308  1.1341  2.4013  1.1082
 1001TIP3   OH2 3008   3.761   5.043   1.883 -0.3097  0.3784  0.6463
 1001TIP3    H1 3009   3.730   5.074   1.968 -0.2685  0.3905  0.6570
 1001TIP3    H2 3010   3.695   5.075   1.821 -0.1251  0.7264  0.6252
 1002TIP3   OH2 3011   2.279   4.684   3.265 -0.0909  0.9930  0.3255
 1002TIP3    H1 3012   2.295   4.725   3.180 -0.2462  1.0670  0.3320
 1002TIP3    H2 3013   2.198   4.724   3.296  0.3320  1.4738  0.8248
 1003TIP3   OH2 3014   0.356   1.262   0.288 -0.2807 -0.5101  0.4205
 1003TIP3    H1 3015   0.401   1.316   0.223 -0.2868 -0.0075  0.8311
 1003TIP3    H2 3016   0.399   1.177   0.281 -1.4242 -0.9985 -1.4455
 1004TIP3   OH2 3017   4.995   1.685   2.490  0.4720  0.2326 -0.0121
 1004TIP3    H1 3018   4.927   1.733   2.537  0.4349  0.0312  0.1424
 1004TIP3    H2 3019   5.021   1.743   2.418  1.3921  1.0633  0.9681
 1005TIP3   OH2 3020   0.740   4.973   2.846  0.1023  0.1475 -0.6145
 1005TIP3    H1 3021   0.799   4.998   2.918 -0.1395  3.8481 -1.5357
 1005TIP3    H2 3022   0.784   5.006   2.767 -2.1240  1.0046 -1.5568
 1006TIP3   OH2 3023   0.110   1.207   1.991 -0.3183  0.0174  0.9985
 1006TIP3    H1 3024   0.145   1.194   2.079  0.7186  0.1200  0.6124
 1006TIP3    H2 3025   0.057   1.129   1.975  1.8146 -1.4339  0.6281
 1007TIP3   OH2 3026   3.676   0.898   2.957  0.0089 -0.4642 -0.2476
 1007TIP3    H1 3027   3.750   0.888   2.897 -0.2630 -1.1567 -0.4848
 1007TIP3    H2 3028   3.644   0.808   2.970  0.1127 -0.3320  1.0069
 1008TIP3   OH2 3029   2.112   0.948   0.275  0.0506 -0.3360 -0.4837
 1008TIP3    H1 3030   2.197   0.948   0.231  0.4767 -0.3438  0.3235
 1008TIP3    H2 3031   2.084   0.857   0.274  1.1283 -0.7355  1.2460
 1009TIP3   OH2 3032   1.648   4.427   2.339 -0.2430  0.2779 -0.2352
 1009TIP3    H1 3033   1.691   4.342   2.331 -0.5986  0.1915 -1.4723
 1009TIP3    H2 3034   1.585   4.415   2.410 -0.7972 -0.7335 -0.8714
 1010TIP3   OH2 3035   6.281   4.943   4.548 -0.2761 -0.1074  0.0443
 1010TIP3    H1 3036   6.186   4.930   4.556 -0.3116  0.5476  0.8123
 1010TIP3    H2 3037   6.302   5.008   4.615  0.4617  0.9509 -1.1691
 1011TIP3   OH2 3038   2.880   4.170   1.414 -0.3367 -0.5464  0.6793
 1011TIP3    H1 3039   2.789   4.188   1.438 -0.3095  3.5472 -1.4163
 1011TIP3    H2 3040   2.928   4.177   1.496 -1.6577 -0.5026  1.4738
 1012TIP3   OH2 3041   4.986   2.904   4.893  0.0861  0.0985 -0.0869
 1012TIP3    H1 3042   4.952   2.839   4.831  0.7832 -0.9705  0.6155
 1012TIP3    H2 3043   4.985   2.986   4.844  1.3266 -0.8414 -1.8009
 1013TIP3   OH2 3044   0.921   5.204   5.109 -0.0958 -0.0288 -0.0002
 1013TIP3    H1 3045   0.898   5.193   5.017 -1.6375 -2.0319  0.5634
 1013TIP3    H2 3046   0.843   5.242   5.149 -0.7306 -2.2306  1.0179
 1014TIP3   OH2 3047   0.246   3.455   0.297 -0.5090  0.0684  0.5850
 1014TIP3    H1 3048   0.236   3.368   0.257 -2.1657  0.5230 -0.0922
 1014TIP3    H2 3049   0.207   3.447   0.383 -1.5905  0.3747  0.1388
 1015TIP3   OH2 3050   2.073   5.471   4.872 -0.1541 -0.5695  0.4318
 1015TIP3    H1 3051   2.164   5.497   4.860 -0.0066 -0.0445  2.3600
 1015TIP3    H2 3052   2.074   5.415   4.950 -1.6079  0.3370  1.1465
 1016TIP3   OH2 3053   0.383   1.215   1.367 -0.2794  0.4382 -0.0916
 1016TIP3    H1 3054   0.369   1.187   1.276  0.2157  1.2292 -0.4220
 1016TIP3    H2 3055   0.360   1.138   1.419  0.8506 -0.5121 -0.9468
 1017TIP3   OH2 3056   6.034   2.859   3.206  0.1115 -0.5568  0.3646
 1017TIP3    H1 3057   6.106   2.828   3.152 -1.0711 -0.4331 -1.3672
 1017TIP3    H2 3058   5.975   2.784   3.214 -0.4786 -0.1324  0.1345
 1018TIP3   OH2 3059   3.854   3.475   2.250  0.2438  0.2859 -0.0770
 1018TIP3    H1 3060   3.907   3.481   2.329 -0.7147  0.2596  0.5893
 1018TIP3    H2 3061   3.884   3.395   2.207  0.0235 -0.3075  0.8392
 1019TIP3   OH2 3062   0.306   5.477   4.433 -0.2663 -0.0719 -0.2708
 1019TIP3    H1 3063   0.347   5.414   4.374 -0.0993  0.1172 -0.3574
 1019TIP3    H2 3064   0.369   5.488   4.504  0.4978  1.3139 -1.1215
 1020TIP3   OH2 3065   5.143   1.523   0.850 -0.7093 -0.0683  0.0350
 1020TIP3    H1 3066   5.178   1.612   0.841 -1.2207  0.3271  1.6944
 1020TIP3    H2 3067   5.221   1.468   0.859 -0.2972 -0.0709 -2.5879
 1021TIP3   OH2 3068   2.645   2.824   1.143  0.4621 -0.7161 -0.4385
 1021TIP3    H1 3069   2.680   2.737   1.164 -0.4921 -0.7388  1.3354
 1021TIP3    H2 3070   2.718   2.884   1.159  0.2973 -0.9378  1.3523
 1022TIP3   OH2 3071   4.677   1.671   3.563 -0.6052 -0.4434 -0.4940
 1022TIP3    H1 3072   4.764   1.709   3.567 -0.7737  0.1546 -1.8948
 1022TIP3    H2 3073   4.692   1.577   3.561  0.0262 -0.3423 -0.8913
 1023TIP3   OH2 3074   1.200   2.635   4.487 -0.4909 -0.0572 -0.2050
 1023TIP3    H1 3075   1.181   2.579   4.563  0.1368 -0.4245 -0.3140
 1023TIP3    H2 3076   1.277   2.686   4.513  0.2684 -0.8134 -0.9066
 1024TIP3   OH2 3077   1.076   3.382   1.650  0.2411  0.5452  0.1613
 1024TIP3    H1 3078   1.016   3.365   1.722  1.1714  0.2833  0.9027
 1024TIP3    H2 3079   1.161   3.352   1.683  0.6058  0.0249 -1.2099
 1025TIP3   OH2 3080   0.436   2.859   3.879 -0.0197 -0.1762 -0.1395
 1025TIP3    H1 3081   0.444   2.846   3.973 -3.4473 -1.4951  0.0973
 1025TIP3    H2 3082   0.432   2.954   3.868 -2.8267  0.0093  1.5193
 1026TIP3   OH2 3083   5.657   0.923   4.435  0.6044  0.0309 -0.5828
 1026TIP3    H1 3084   5.562   0.930   4.428  0.5136 -0.6417 -0.0942
 1026TIP3    H2 3085   5.676   0.831   4.415  1.2178  0.3047 -1.3124
 1027TIP3   OH2 3086   5.691   5.386   0.865 -0.3599  0.1962  0.2333
 1027TIP3    H1 3087   5.634   5.372   0.790 -0.1214  0.4803 -0.0038
 1027TIP3    H2 3088   5.653   5.332   0.934  0.1003 -0.9910 -0.4188
 1028TIP3   OH2 3089   3.371   0.407   1.150  0.0036  0.2574 -0.3663
 1028TIP3    H1 3090   3.365   0.388   1.244 -3.6130 -1.9514 -0.8532
 1028TIP3    H2 3091   3.449   0.359   1.121  0.5554  0.0723  1.2972
 1029TIP3   OH2 3092   0.025   4.678   4.565 -0.2819 -0.1629  0.3423
 1029TIP3    H1 3093   0.092   4.659   4.499 -0.9933  0.6264 -0.6244
 1029TIP3    H2 3094  -0.003   4.767   4.546 -0.9721 -0.1649  1.3060
 1030TIP3   OH2 3095   2.844   5.580   2.487  0.1712 -0.3859  0.2273
 1030TIP3    H1 3096   2.884   5.504   2.446 -0.2037 -0.0291 -0.8232
 1030TIP3    H2 3097   2.808   5.547   2.570  1.7412 -0.9123  0.7329
 1031TIP3   OH2 3098   5.605   3.313   4.421 -0.0522 -0.2040 -0.3611
 1031TIP3    H1 3099   5.517   3.305   4.383 -0.0547 -1.5803 -0.1061
 1031TIP3    H2 3100   5.627   3.225   4.450  0.2652  0.6380  2.1943
 1032TIP3   OH2 3101   2.037   4.090   1.672 -0.1734  0.0470  0.5631
 1032TIP3    H1 3102   2.028   4.167   1.728 -0.6054  0.4710 -0.0820
 1032TIP3    H2 3103   2.014   4.121   1.585 -0.4728 -0.8508  0.3188
 1033TIP3   OH2 3104   5.652   2.771   3.385  0.4145  0.2679 -0.0296
 1033TIP3    H1 3105   5.594   2.794   3.313 -0.3270 -1.1654  0.0638
 1033TIP3    H2 3106   5.640   2.841   3.449 -2.3363 -0.6761  0.6011
 1034TIP3   OH2 3107   0.755   0.034   3.007  0.2225  0.2062  0.1526
 1034TIP3    H1 3108   0.822  -0.030   3.031 -0.6119 -0.8847 -0.3000
 1034TIP3    H2 3109   0.741   0.085   3.086  0.8075 -0.2805  0.5788
 1035TIP3   OH2 3110   1.085   1.352   3.783  0.4672 -0.0008  0.2854
 1035TIP3    H1 3111   1.075   1.321   3.693  1.3482 -0.2152  0.2548
 1035TIP3    H2 3112   1.153   1.419   3.777 -0.3221  0.8539  0.6037
 1036TIP3   OH2 3113   0.321   1.856  -0.006  0.2559  0.9873  0.3689
 1036TIP3    H1 3114   0.248   1.796  -0.016 -0.4847  1.7171  1.2304
 1036TIP3    H2 3115   0.307   1.898   0.079  1.6959  1.1221  0.5789
 1037TIP3   OH2 3116   1.215   3.998   3.441  0.1553 -0.0818  0.0714
 1037TIP3    H1 3117   1.177   3.910   3.440  1.4641 -0.6866 -1.8633
 1037TIP3    H2 3118   1.181   4.038   3.521 -1.2811 -1.9773  0.4771
 1038TIP3   OH2 3119   2.762   3.221   0.197 -0.4852 -0.2387 -0.0211
 1038TIP3    H1 3120   2.733   3.304   0.236 -1.4039 -1.2857  1.6412
 1038TIP3    H2 3121   2.689   3.161   0.212 -0.7014 -0.8573 -3.0752
 1039TIP3   OH2 3122   4.476   5.725   3.425  0.1575 -0.0866 -0.4577
 1039TIP3    H1 3123   4.521   5.691   3.502  1.1258  0.6272 -0.6940
 1039TIP3    H2 3124   4.520   5.807   3.405 -1.7727  1.0794 -0.2159
 1040TIP3   OH2 3125   4.621   5.330   1.746 -0.2331 -0.2246  0.1813
 1040TIP3    H1 3126   4.625   5.391   1.820 -2.0497  0.3130 -0.0902
 1040TIP3    H2 3127   4.704   5.283   1.748  0.2128  0.5583  1.8838
 1041TIP3   OH2 3128   2.323   4.079   3.970  0.5865  0.4443 -0.3147
 1041TIP3    H1 3129   2.307   4.118   3.884  0.2730 -0.3350 -0.6220
 1041TIP3    H2 3130   2.243   4.029   3.988  0.5897  0.7145  0.4988
 1042TIP3   OH2 3131   4.931   4.002   2.369  0.2400  0.0615  0.0838
 1042TIP3    H1 3132   4.940   3.930   2.432 -0.4308 -0.9658 -0.9438
 1042TIP3    H2 3133   4.883   4.070   2.416 -0.2929 -0.7051  0.6759
 1043TIP3   OH2 3134   3.797   5.060   3.980 -0.1045  0.3974  0.1880
 1043TIP3    H1 3135   3.738   5.055   4.056 -1.7887  1.9826 -0.9210
 1043TIP3    H2 3136   3.749   5.112   3.916  3.2960  3.4933 -0.1440
 1044TIP3   OH2 3137   2.337   2.279   3.386  0.2809 -0.2113  0.5955
 1044TIP3    H1 3138   2.259   2.267   3.441 -0.2378  0.8493  0.1212
 1044TIP3    H2 3139   2.305   2.262   3.297  0.0917  2.0861  0.1710
 1045TIP3   OH2 3140   3.469   3.962   2.053  0.0558  0.0879  0.2195
 1045TIP3    H1 3141   3.431   4.046   2.080  0.6087  0.8710 -1.3261
 1045TIP3    H2 3142   3.523   3.984   1.977  1.3379 -1.4519  0.6417
 1046TIP3   OH2 3143   1.609   2.353   3.966 -0.4063  0.2551  0.3285
 1046TIP3    H1 3144   1.558   2.433   3.975 -2.2077 -0.5475 -1.7214
 1046TIP3    H2 3145   1.688   2.368   4.018 -0.2084  3.7321 -0.7397
 1047TIP3   OH2 3146   5.749   2.474   4.841  0.1969  0.0863 -0.4376
 1047TIP3    H1 3147   5.697   2.554   4.848  0.4694  0.2618 -0.3920
 1047TIP3    H2 3148   5.706   2.423   4.773 -0.8364 -0.3879  0.5497
 1048TIP3   OH2 3149   1.814   3.774   3.496  0.2248  0.0293 -0.0325
 1048TIP3    H1 3150   1.834   3.858   3.537  2.1309 -0.6000  0.4029
 1048TIP3    H2 3151   1.799   3.795   3.404 -0.7238  0.9983  0.3139
 1049TIP3   OH2 3152   4.114   1.068   3.350  0.6999  0.1883  0.3549
 1049TIP3    H1 3153   4.133   1.047   3.258 -0.5741 -1.6133  0.4438
 1049TIP3    H2 3154   4.051   1.139   3.346 -0.5241 -0.8888 -0.2641
 1050TIP3   OH2 3155   3.688   1.394   0.314 -0.2921 -0.3359 -0.2716
 1050TIP3    H1 3156   3.655   1.463   0.256  1.5957  0.6078 -0.3177
 1050TIP3    H2 3157   3.781   1.416   0.325 -0.7022 -0.0105  3.7503
 1051TIP3   OH2 3158   5.209   4.484   4.767 -0.4027  0.1116 -0.2083
 1051TIP3    H1 3159   5.203   4.391   4.790  3.3351  0.4204  3.0970
 1051TIP3    H2 3160   5.243   4.485   4.677  0.0666 -1.7416 -0.0858
 1052TIP3   OH2 3161   1.035   3.011   4.457  0.1470 -0.3172  0.0149
 1052TIP3    H1 3162   1.043   3.017   4.362  0.7086  1.5927  0.1256
 1052TIP3    H2 3163   1.125   3.003   4.489 -0.1292 -2.8339  0.3613
 1053TIP3   OH2 3164   5.389   1.829   2.106 -0.1095 -0.3625 -0.0865
 1053TIP3    H1 3165   5.370   1.803   2.196 -0.3646  0.0300 -0.0258
 1053TIP3    H2 3166   5.375   1.750   2.055 -2.9968  0.1110 -0.2154
 1054TIP3   OH2 3167   3.898   0.725   0.777  0.2396 -0.5897  0.1789
 1054TIP3    H1 3168   3.803   0.735   0.779  0.3667  1.1221  3.0114
 1054TIP3    H2 3169   3.915   0.658   0.844  1.0302 -1.0793 -0.5023
 1055TIP3   OH2 3170   4.145   0.771   4.484 -0.1940 -0.0323 -0.5300
 1055TIP3    H1 3171   4.240   0.780   4.489 -0.3706  1.5449  1.0271
 1055TIP3    H2 3172   4.124   0.795   4.394  0.8045  0.6414 -0.6055
 1056TIP3   OH2 3173   0.245   3.616   3.382  0.4668 -0.0846 -0.7774
 1056TIP3    H1 3174   0.171   3.610   3.321  1.9442  0.8513 -2.7621
 1056TIP3    H2 3175   0.258   3.710   3.394  0.1084 -0.2415  1.1918
 1057TIP3   OH2 3176   2.316   5.267   3.013 -0.5181 -0.0981 -0.4252
 1057TIP3    H1 3177   2.357   5.353   3.026 -0.7534  0.2462 -1.7485
 1057TIP3    H2 3178   2.379   5.205   3.050  0.7986  0.4847 -1.5600
 1058TIP3   OH2 3179   1.723   5.443   0.387 -0.3208  0.1707  0.4799
 1058TIP3    H1 3180   1.664   5.419   0.458  0.5816 -0.1894  1.1333
 1058TIP3    H2 3181   1.673   5.425   0.307 -1.5711  1.1660  1.0013
 1059TIP3   OH2 3182   1.616   1.537   0.242 -0.5694  0.0562  0.2207
 1059TIP3    H1 3183   1.567   1.521   0.323  1.1650 -0.1337  1.2921
 1059TIP3    H2 3184   1.580   1.474   0.180 -0.6516 -1.1417  1.4188
 1060TIP3   OH2 3185   4.065   1.645   2.450  0.0714 -0.0478 -0.1717
 1060TIP3    H1 3186   3.983   1.638   2.498  0.3922 -0.3340  0.3534
 1060TIP3    H2 3187   4.044   1.619   2.361 -0.7061  1.2510 -0.3857
 1061TIP3   OH2 3188   2.098   3.644   1.353 -0.1063 -0.8348  0.0276
 1061TIP3    H1 3189   2.021   3.590   1.369 -0.9112  0.8237  2.3176
 1061TIP3    H2 3190   2.135   3.660   1.440  1.0708  0.8779 -0.7202
 1062TIP3   OH2 3191   0.895   0.582   0.588  1.1835  0.4836  0.1304
 1062TIP3    H1 3192   0.929   0.638   0.518  0.7708 -0.6896 -1.0385
 1062TIP3    H2 3193   0.935   0.617   0.668  0.5408  2.7591 -0.4781
 1063TIP3   OH2 3194   3.770   0.810   2.707  0.0692  0.3944  0.1859
 1063TIP3    H1 3195   3.718   0.736   2.676 -0.0217 -0.0625  1.3761
 1063TIP3    H2 3196   3.779   0.867   2.631 -1.0160 -0.1765 -0.3897
 1064TIP3   OH2 3197   4.655   1.319   1.461  0.2535 -0.1607  0.2170
 1064TIP3    H1 3198   4.563   1.338   1.483 -0.3655 -1.6394 -0.8745
 1064TIP3    H2 3199   4.700   1.319   1.545 -0.9358 -0.3245  0.8858
 1065TIP3   OH2 3200   5.362   0.162   3.428 -0.3810 -0.3455 -0.0362
 1065TIP3    H1 3201   5.358   0.257   3.425  0.1349 -0.2952  0.7507
 1065TIP3    H2 3202   5.301   0.137   3.497  0.3978 -0.5058  0.6105
 1066TIP3   OH2 3203   3.255   0.560   0.322 -0.5788 -0.6412 -0.1757
 1066TIP3    H1 3204   3.200   0.528   0.394 -0.5488 -1.3909 -0.4730
 1066TIP3    H2 3205   3.220   0.517   0.244 -1.7000  1.4592 -0.9062
 1067TIP3   OH2 3206   4.872   5.875   4.378 -0.4397 -0.1745  0.0383
 1067TIP3    H1 3207   4.835   5.815   4.314 -0.3877  0.4823 -0.6233
 1067TIP3    H2 3208   4.964   5.883   4.352 -0.6994  1.0605 -0.5858
 1068TIP3   OH2 3209   5.575   0.137   2.800 -0.7780 -0.1100  0.0098
 1068TIP3    H1 3210   5.514   0.070   2.770 -0.7881  0.6399 -1.7615
 1068TIP3    H2 3211   5.649   0.088   2.835 -0.1378 -1.1628 -2.5628
 1069TIP3   OH2 3212   0.968   3.996   4.618  0.5169 -0.1870 -0.3736
 1069TIP3    H1 3213   1.005   4.081   4.597  2.0577 -1.1756 -1.9240
 1069TIP3    H2 3214   0.873   4.008   4.609  0.5877  1.6884  0.9110
 1070TIP3   OH2 3215   2.350   5.828   0.460 -0.1707  0.5856  0.1737
 1070TIP3    H1 3216   2.297   5.821   0.381 -0.5115  2.1910  0.2400
 1070TIP3    H2 3217   2.433   5.786   0.437  0.0747  1.8113 -1.3499
 1071TIP3   OH2 3218   5.254   5.930   2.970 -0.8037 -0.3333 -0.2314
 1071TIP3    H1 3219   5.298   5.908   3.052 -1.3841  2.6224  0.9952
 1071TIP3    H2 3220   5.247   5.847   2.923  2.7588 -1.5549  1.0925
 1072TIP3   OH2 3221   1.417   0.517   1.033 -0.3978 -0.2506  0.2897
 1072TIP3    H1 3222   1.457   0.431   1.039 -0.2715 -0.1253  1.7968
 1072TIP3    H2 3223   1.432   0.556   1.119 -2.9769  0.1413  0.6479
 1073TIP3   OH2 3224   0.152   2.671   5.088 -0.0266 -0.2082 -0.4573
 1073TIP3    H1 3225   0.071   2.620   5.096  0.8805 -1.4762  1.4272
 1073TIP3    H2 3226   0.197   2.632   5.012 -0.4416 -0.5917 -0.5101
 1074TIP3   OH2 3227   3.027   2.490   4.002  0.1908 -0.1473 -0.1050
 1074TIP3    H1 3228   3.034   2.476   4.096  1.4844  0.7875 -0.0358
 1074TIP3    H2 3229   3.064   2.411   3.963  0.2678 -0.2536  0.1845
 1075TIP3   OH2 3230   4.573   2.523   2.492  0.1251  0.4202 -0.0544
 1075TIP3    H1 3231   4.632   2.544   2.564  1.0672 -0.8605 -0.4208
 1075TIP3    H2 3232   4.587   2.593   2.428  0.6172  0.5701  0.2150
 1076TIP3   OH2 3233   5.291   0.287   4.562  0.2846  0.2939  0.9355
 1076TIP3    H1 3234   5.243   0.262   4.483 -1.8154  0.9662  1.9426
 1076TIP3    H2 3235   5.327   0.373   4.542  0.6426  0.0274  0.3802
 1077TIP3   OH2 3236   3.579   0.429   5.090 -0.0119  0.1241 -0.2495
 1077TIP3    H1 3237   3.614   0.517   5.086  1.1677 -0.2590  0.9862
 1077TIP3    H2 3238   3.642   0.380   5.143 -2.0545 -0.7676  1.5255
 1078TIP3   OH2 3239   6.260   1.814   4.821  0.4081  0.4324  0.3622
 1078TIP3    H1 3240   6.210   1.739   4.853  1.1251  0.3415  1.2843
 1078TIP3    H2 3241   6.349   1.782   4.811  0.2005  0.3771 -2.0288
 1079TIP3   OH2 3242   2.945   1.647   0.710  0.4235 -0.6298 -0.4560
 1079TIP3    H1 3243   2.985   1.595   0.780  0.2807  0.1773  0.2403
 1079TIP3    H2 3244   2.851   1.628   0.716  0.3301 -0.0505  0.0188
 1080TIP3   OH2 3245   4.964   4.302   4.480  0.3342 -0.1716  0.3509
 1080TIP3    H1 3246   4.929   4.220   4.445 -1.2154  0.1967  0.9447
 1080TIP3    H2 3247   4.997   4.278   4.567  0.4279 -0.2837  0.2849
 1081TIP3   OH2 3248   0.884   2.311   5.107 -0.3776 -0.4266  0.2011
 1081TIP3    H1 3249   0.844   2.392   5.076 -0.1575  0.2240  1.5225
 1081TIP3    H2 3250   0.811   2.249   5.112 -0.6117 -0.2168 -0.4931
 1082TIP3   OH2 3251   3.750   2.682   0.929 -0.3724 -0.6645  0.2399
 1082TIP3    H1 3252   3.783   2.772   0.936  1.7439 -1.4262  0.6056
 1082TIP3    H2 3253   3.772   2.655   0.841 -0.2246 -1.1293  0.4207
 1083TIP3   OH2 3254   4.654   1.621   1.588 -0.0281  0.5442  0.7853
 1083TIP3    H1 3255   4.571   1.579   1.565  0.9086 -1.1177  0.2010
 1083TIP3    H2 3256   4.633   1.679   1.661 -1.4945 -0.7909  1.4914
 1084TIP3   OH2 3257   5.352   3.233   2.219  0.1101 -0.0888  0.6549
 1084TIP3    H1 3258   5.315   3.149   2.192  0.8888 -0.7048  1.4255
 1084TIP3    H2 3259   5.445   3.225   2.201 -0.1448  1.8129 -2.2081
 1085TIP3   OH2 3260   2.771   1.566   2.729  0.2993  0.4948 -0.4745
 1085TIP3    H1 3261   2.847   1.613   2.764  0.0140  0.9234 -0.4297
 1085TIP3    H2 3262   2.756   1.605   2.643 -0.5214  1.1368 -0.0429
 1086TIP3   OH2 3263   5.962   0.580   2.885  0.1549 -0.2749 -0.3602
 1086TIP3    H1 3264   5.937   0.514   2.820 -3.7204  0.6758 -0.0882
 1086TIP3    H2 3265   5.958   0.663   2.837  2.8090  0.0351 -0.1624
 1087TIP3   OH2 3266   1.021   3.035   2.794  0.4977 -0.0236 -0.5665
 1087TIP3    H1 3267   0.940   3.078   2.767  0.2564  0.5026  0.8625
 1087TIP3    H2 3268   1.008   3.015   2.887  1.2837 -1.6539 -0.7649
 1088TIP3   OH2 3269   4.156   1.418   3.960 -0.0078 -0.7679 -0.5726
 1088TIP3    H1 3270   4.071   1.397   3.921 -0.6450  0.8987 -0.1614
 1088TIP3    H2 3271   4.176   1.505   3.927  0.7940 -0.4966  0.5834
 1089TIP3   OH2 3272   3.576   0.898   1.293  0.3497 -0.4839  0.2482
 1089TIP3    H1 3273   3.481   0.887   1.293  0.5228 -2.3530 -0.0169
 1089TIP3    H2 3274   3.610   0.810   1.309  2.0346  0.3304  1.4244
 1090TIP3   OH2 3275   2.302   0.132   2.603  0.4790  0.3474 -0.1086
 1090TIP3    H1 3276   2.398   0.135   2.602  0.6035 -1.3038 -2.5202
 1090TIP3    H2 3277   2.280   0.074   2.675  1.5658 -2.2387 -1.7261
 1091TIP3   OH2 3278   0.900   5.282   0.862 -0.6890 -0.2750  0.4395
 1091TIP3    H1 3279   0.894   5.187   0.848 -2.0095 -0.2309  0.5799
 1091TIP3    H2 3280   0.968   5.292   0.929 -1.1473 -1.1893  1.0555
 1092TIP3   OH2 3281   5.287   3.599   2.014  0.6845  0.5078  0.7060
 1092TIP3    H1 3282   5.322   3.625   2.099  0.0381 -1.3791  1.5920
 1092TIP3    H2 3283   5.207   3.650   2.004  0.9343  0.9784  1.0780
 1093TIP3   OH2 3284   3.898   1.482   2.241  0.3575 -0.0007  0.1310
 1093TIP3    H1 3285   3.929   1.475   2.151  1.3759  0.3143  0.4356
 1093TIP3    H2 3286   3.897   1.392   2.274 -0.0978 -0.1244 -0.2177
 1094TIP3   OH2 3287   0.260   3.882   3.518  0.0118 -0.1571  0.1080
 1094TIP3    H1 3288   0.195   3.939   3.559  0.6390  0.5504  0.1378
 1094TIP3    H2 3289   0.315   3.852   3.590  0.9860  0.9207 -0.1552
 1095TIP3   OH2 3290   1.177   3.090   3.851  0.7363  0.7635 -0.3525
 1095TIP3    H1 3291   1.090   3.068   3.818 -0.3531  0.7505  2.2830
 1095TIP3    H2 3292   1.230   3.013   3.831 -0.6127 -0.4345  0.4046
 1096TIP3   OH2 3293   3.294   0.208   1.696 -0.1912 -0.1685  0.8980
 1096TIP3    H1 3294   3.255   0.133   1.651 -0.3550  0.3871  0.1039
 1096TIP3    H2 3295   3.243   0.283   1.666  0.5271  0.3723  1.0155
 1097TIP3   OH2 3296   4.350   4.038   0.693 -0.0677 -0.2972  0.4627
 1097TIP3    H1 3297   4.342   4.129   0.663 -0.7805 -0.9264 -1.3510
 1097TIP3    H2 3298   4.432   4.037   0.742 -0.1185  1.3556  0.6491
 1098TIP3   OH2 3299   0.589   5.520   1.665  0.4671  0.3220 -0.2793
 1098TIP3    H1 3300   0.572   5.600   1.714  0.5838 -0.1033  0.4802
 1098TIP3    H2 3301   0.568   5.542   1.574  1.0403  1.3710 -0.1681
 1099TIP3   OH2 3302   3.456   1.463   3.387  0.4494 -0.1226 -0.1817
 1099TIP3    H1 3303   3.494   1.375   3.374  0.8743  0.0111  0.1301
 1099TIP3    H2 3304   3.434   1.492   3.298 -0.4537 -0.8745 -0.2100
 1100TIP3   OH2 3305   3.679   1.148   1.410 -0.1203  0.0180 -0.2321
 1100TIP3    H1 3306   3.642   1.231   1.380 -0.3487 -0.3665 -1.0323
 1100TIP3    H2 3307   3.659   1.086   1.340 -1.8266 -1.2214  1.2450
 1101TIP3   OH2 3308   3.584   3.414   0.928  0.1790  0.3953  0.1946
 1101TIP3    H1 3309   3.625   3.495   0.961 -0.1536  1.1598 -1.1987
 1101TIP3    H2 3310   3.563   3.365   1.007  1.1884  1.2682  1.0513
 1102TIP3   OH2 3311   1.830   2.261   4.153  0.3572  0.3204 -0.6011
 1102TIP3    H1 3312   1.878   2.264   4.070  0.0916 -0.5473 -0.7967
 1102TIP3    H2 3313   1.878   2.197   4.206 -0.3928 -0.3207 -0.6820
 1103TIP3   OH2 3314   3.871   0.917   1.139 -0.5709  0.5146  0.4123
 1103TIP3    H1 3315   3.893   0.939   1.049  0.8394 -0.2066  0.5657
 1103TIP3    H2 3316   3.901   0.827   1.151 -0.0676  0.8448  1.8174
 1104TIP3   OH2 3317   5.074   3.515   0.835 -0.4779  0.3164  0.1541
 1104TIP3    H1 3318   5.048   3.492   0.746 -0.8549 -1.0351  0.5866
 1104TIP3    H2 3319   5.165   3.485   0.842 -0.2037  1.0867  0.0093
 1105TIP3   OH2 3320   2.041   5.121   4.267 -0.1845  0.0475  0.0792
 1105TIP3    H1 3321   1.963   5.075   4.299 -0.0686  0.0127  0.3104
 1105TIP3    H2 3322   2.023   5.136   4.174  0.9914 -3.0348 -0.7579
 1106TIP3   OH2 3323   3.356   0.215   3.303  0.1790  0.0137  0.0617
 1106TIP3    H1 3324   3.299   0.199   3.379  0.1325  1.8701  0.4480
 1106TIP3    H2 3325   3.384   0.127   3.277 -0.7019 -0.7579  1.5239
 1107TIP3   OH2 3326   4.304   1.073   4.785  0.3447 -0.1138 -0.1394
 1107TIP3    H1 3327   4.337   1.139   4.846  0.1401  0.0673 -0.2262
 1107TIP3    H2 3328   4.374   1.008   4.781  2.2710  1.9214 -2.9417
 1108TIP3   OH2 3329   4.419   2.487   1.794  0.0046  0.2068 -0.0630
 1108TIP3    H1 3330   4.386   2.573   1.769 -2.1162 -1.0783 -2.1250
 1108TIP3    H2 3331   4.514   2.499   1.799 -0.2086  2.6007 -0.4522
 1109TIP3   OH2 3332   5.217   4.069   0.128 -0.0969 -0.4550  0.4738
 1109TIP3    H1 3333   5.203   4.163   0.111 -1.0731 -0.3177  1.8966
 1109TIP3    H2 3334   5.308   4.054   0.103  0.3261  1.0629  0.9898
 1110TIP3   OH2 3335   3.813   3.346   0.398  0.2279 -0.3340 -0.2390
 1110TIP3    H1 3336   3.720   3.326   0.401  0.4210 -1.2138  2.1698
 1110TIP3    H2 3337   3.854   3.265   0.369  0.2766  0.1844 -1.7435
 1111TIP3   OH2 3338   4.647   1.199   2.379 -0.3651 -0.1596 -0.4394
 1111TIP3    H1 3339   4.590   1.219   2.454  0.2639  0.1004 -0.0268
 1111TIP3    H2 3340   4.731   1.175   2.418 -0.4402 -1.4517 -1.0005
 1112TIP3   OH2 3341   5.043   3.623   4.077 -0.8207 -0.0293 -0.2389
 1112TIP3    H1 3342   5.047   3.630   3.981  0.4308  1.5570 -0.1221
 1112TIP3    H2 3343   5.087   3.540   4.096  1.2451  0.8136 -0.9723
 1113TIP3   OH2 3344   0.199   1.797   4.900 -0.2527 -0.2797 -0.6359
 1113TIP3    H1 3345   0.142   1.779   4.975  1.0436 -0.6950  0.2899
 1113TIP3    H2 3346   0.271   1.848   4.937 -1.1173  2.2651 -2.2064
 1114TIP3   OH2 3347   2.968   3.160   0.040 -0.7014  0.1654  0.1667
 1114TIP3    H1 3348   2.884   3.176   0.082 -1.7248 -1.1933 -1.2259
 1114TIP3    H2 3349   2.950   3.170  -0.054  0.9815  0.9883 -0.0995
 1115TIP3   OH2 3350   5.501   4.669   1.462  0.0454  0.0016 -0.2435
 1115TIP3    H1 3351   5.526   4.710   1.380 -1.0293  3.0092  0.8014
 1115TIP3    H2 3352   5.417   4.628   1.444 -0.7911  1.7183 -0.3855
 1116TIP3   OH2 3353   0.336   2.891   1.484 -0.4364 -0.5207  0.3369
 1116TIP3    H1 3354   0.280   2.927   1.552  0.1278 -0.0152  0.5437
 1116TIP3    H2 3355   0.387   2.966   1.453  0.2550 -1.0010  0.2886
 1117TIP3   OH2 3356   4.416   3.670   3.720  0.2415  0.0685 -0.0594
 1117TIP3    H1 3357   4.391   3.629   3.803  0.1595  0.0014 -0.1169
 1117TIP3    H2 3358   4.336   3.710   3.688  0.2201 -0.0983 -0.2161
 1118TIP3   OH2 3359   3.083   5.164   0.369  0.0235  0.2389 -0.1392
 1118TIP3    H1 3360   3.072   5.083   0.319  1.2100 -0.1833  0.2382
 1118TIP3    H2 3361   3.107   5.229   0.304  0.7783 -0.1256 -0.2354
 1119TIP3   OH2 3362   2.260   2.661   2.758 -0.6219 -0.3179 -0.5687
 1119TIP3    H1 3363   2.350   2.630   2.748  0.4649  2.3867 -0.0171
 1119TIP3    H2 3364   2.227   2.672   2.669  0.1664  0.1586 -0.8038
 1120TIP3   OH2 3365   0.007   4.864   4.893  0.4311  0.2296 -0.1156
 1120TIP3    H1 3366   0.100   4.880   4.878  0.1532  1.1040 -0.9722
 1120TIP3    H2 3367  -0.037   4.940   4.857 -0.5936  0.1052  0.8147
 1121TIP3   OH2 3368   2.708   4.864   3.187  0.5842  0.2359  0.2433
 1121TIP3    H1 3369   2.720   4.807   3.111  1.0653  0.0829  0.4303
 1121TIP3    H2 3370   2.649   4.933   3.156  1.0195  0.3423 -0.3630
 1122TIP3   OH2 3371   5.563   2.352   3.379 -0.1171 -0.0661  0.0527
 1122TIP3    H1 3372   5.509   2.325   3.305  0.2814 -1.1233  0.1299
 1122TIP3    H2 3373   5.513   2.327   3.457 -0.9275  1.8146  0.1930
 1123TIP3   OH2 3374   5.980   2.268   0.378  0.2097 -0.9626  0.3385
 1123TIP3    H1 3375   5.906   2.296   0.432 -0.2558 -1.3991 -0.0511
 1123TIP3    H2 3376   6.057   2.289   0.430 -0.1918 -0.5428  0.7779
 1124TIP3   OH2 3377   4.116   3.780   2.620  0.4344  0.6709  0.1513
 1124TIP3    H1 3378   4.192   3.742   2.663  0.1863  1.9973  1.8345
 1124TIP3    H2 3379   4.145   3.867   2.592  0.3235  0.1752 -1.6784
 1125TIP3   OH2 3380   2.946   4.279   1.920  0.2618  0.2935 -0.2038
 1125TIP3    H1 3381   2.966   4.372   1.934  0.8591  0.0669  0.5623
 1125TIP3    H2 3382   2.942   4.243   2.008  0.1889 -0.4406 -0.5053
 1126TIP3   OH2 3383   4.859   2.629   0.550 -0.5706  0.2169  1.2086
 1126TIP3    H1 3384   4.772   2.613   0.588 -0.3516 -0.4321  1.4406
 1126TIP3    H2 3385   4.915   2.647   0.625 -0.7019  1.6557  0.9955
 1127TIP3   OH2 3386   6.003   5.099   1.834  0.3743  0.2842  0.0871
 1127TIP3    H1 3387   5.930   5.080   1.894 -0.2867  1.4065 -0.3380
 1127TIP3    H2 3388   6.071   5.036   1.859 -0.0448  0.4181  1.7271
 1128TIP3   OH2 3389   3.045   0.009   1.145 -0.1286  0.1021 -0.3139
 1128TIP3    H1 3390   3.132   0.021   1.107  0.1634  1.6918  0.7479
 1128TIP3    H2 3391   3.000   0.092   1.129 -0.8089 -0.0402  0.7207
 1129TIP3   OH2 3392   4.836   2.490   3.618 -0.0155  0.8320  0.1261
 1129TIP3    H1 3393   4.782   2.452   3.687  1.0314  0.3632  0.7064
 1129TIP3    H2 3394   4.924   2.460   3.638  0.6829  2.6888 -0.0189
 1130TIP3   OH2 3395   3.259   0.161   3.926  0.1781 -0.4030 -0.0493
 1130TIP3    H1 3396   3.282   0.246   3.889 -1.1727 -0.0802 -0.1962
 1130TIP3    H2 3397   3.246   0.103   3.851 -0.1631 -0.3869 -0.0086
 1131TIP3   OH2 3398   4.342   1.610   1.224  0.5272  0.5850  0.6537
 1131TIP3    H1 3399   4.310   1.605   1.314 -0.7979 -0.6131  0.1557
 1131TIP3    H2 3400   4.431   1.575   1.229  0.4740  0.5441  1.5071
 1132TIP3   OH2 3401   4.864   2.617   4.989 -0.0167  0.3816 -0.3260
 1132TIP3    H1 3402   4.956   2.639   4.998 -0.0622  0.5866 -0.3395
 1132TIP3    H2 3403   4.823   2.648   5.070  0.0176 -0.2195 -0.0724
 1133TIP3   OH2 3404   6.165   4.912   2.170  0.0405 -0.7395  0.5232
 1133TIP3    H1 3405   6.091   4.919   2.110 -0.9885  2.1456  1.9348
 1133TIP3    H2 3406   6.126   4.886   2.254  0.6702  0.2049  1.1295
 1134TIP3   OH2 3407   5.064   4.041   4.262 -0.2149 -0.2176 -0.5426
 1134TIP3    H1 3408   5.109   3.965   4.225  2.1701  0.5166  0.7153
 1134TIP3    H2 3409   4.984   4.004   4.301  0.8153 -2.0720 -0.0748
 1135TIP3   OH2 3410   0.034   4.427   4.266 -0.3428  0.2815 -0.3285
 1135TIP3    H1 3411   0.063   4.408   4.176 -0.8972  0.3976 -0.5347
 1135TIP3    H2 3412   0.086   4.503   4.292  1.1328 -0.8350  0.1171
 1136TIP3   OH2 3413   0.749   1.339   1.750 -0.7919  0.4099 -0.7861
 1136TIP3    H1 3414   0.760   1.372   1.840 -0.3402 -0.8753 -0.3549
 1136TIP3    H2 3415   0.659   1.362   1.728 -1.1899  0.0073  0.3176
 1137TIP3   OH2 3416   4.517   4.049   4.166 -0.0530 -0.0271 -0.5187
 1137TIP3    H1 3417   4.542   4.135   4.135  0.8926 -0.6360 -1.4853
 1137TIP3    H2 3418   4.428   4.036   4.133 -0.0706  0.4322 -0.6497
 1138TIP3   OH2 3419   3.544   2.956   2.168  0.2536 -0.0871  0.0663
 1138TIP3    H1 3420   3.469   2.902   2.140 -0.5408  1.5294 -1.1018
 1138TIP3    H2 3421   3.620   2.899   2.158 -0.6173 -1.1731 -0.5957
 1139TIP3   OH2 3422   1.928   3.905   1.366  0.8675  0.3319  0.1387
 1139TIP3    H1 3423   1.903   3.905   1.459  2.1116 -0.2013  0.5027
 1139TIP3    H2 3424   1.983   3.827   1.357 -1.4162 -1.1987 -1.7001
 1140TIP3   OH2 3425   2.672   1.048   2.474 -0.6058 -0.4415  0.5258
 1140TIP3    H1 3426   2.629   1.046   2.559  1.0290  0.9120  1.4339
 1140TIP3    H2 3427   2.662   0.959   2.440 -2.0453 -0.7712  1.7155
 1141TIP3   OH2 3428   0.482   0.182   4.704 -0.5111  0.4017 -0.2288
 1141TIP3    H1 3429   0.416   0.249   4.721 -0.5493  0.0557  1.0951
 1141TIP3    H2 3430   0.445   0.129   4.634 -1.2594  0.7062 -0.0751
 1142TIP3   OH2 3431   2.054   3.474   5.087 -0.5388  0.3283 -0.2090
 1142TIP3    H1 3432   2.031   3.483   4.994 -0.9593 -1.0130 -0.2602
 1142TIP3    H2 3433   2.135   3.422   5.086  0.4434  1.7980  0.1247
 1143TIP3   OH2 3434   5.621   5.438   3.261  0.5596  0.1034 -0.1170
 1143TIP3    H1 3435   5.701   5.406   3.303  0.1532  1.8273  2.1243
 1143TIP3    H2 3436   5.630   5.533   3.261 -0.7771  0.2597 -1.3547
 1144TIP3   OH2 3437   1.213   5.703   4.544 -0.0893 -0.1265 -0.1340
 1144TIP3    H1 3438   1.278   5.715   4.474  0.3889 -0.5678  0.2311
 1144TIP3    H2 3439   1.134   5.744   4.509  0.8388  2.0255  0.1026
 1145TIP3   OH2 3440   1.396   2.669   4.129 -0.4979  0.4599  0.0059
 1145TIP3    H1 3441   1.386   2.575   4.144 -0.0792  0.5767  1.0883
 1145TIP3    H2 3442   1.469   2.676   4.068  1.5620  0.1872  2.3006
 1146TIP3   OH2 3443   0.205   1.980   1.525 -0.3072 -0.2502  0.8437
 1146TIP3    H1 3444   0.264   2.014   1.458 -0.9869 -0.1476  0.2875
 1146TIP3    H2 3445   0.162   1.906   1.483 -0.6517 -0.2575  1.2118
 1147TIP3   OH2 3446   1.033   0.725   0.778  0.4559 -0.0323 -0.0649
 1147TIP3    H1 3447   1.053   0.670   0.854  1.0758 -1.5944 -1.3124
 1147TIP3    H2 3448   1.117   0.765   0.755 -0.0307  1.7139  0.9713
 1148TIP3   OH2 3449   2.657   4.997   3.859 -0.3071 -0.2100  0.3163
 1148TIP3    H1 3450   2.575   5.028   3.822  0.0813 -0.3841 -0.7306
 1148TIP3    H2 3451   2.631   4.938   3.930 -1.1147 -1.1403 -0.7167
 1149TIP3   OH2 3452   4.363   2.955   4.972  0.4301  0.0649 -0.1358
 1149TIP3    H1 3453   4.359   2.873   4.921  0.0308  0.2285 -0.3789
 1149TIP3    H2 3454   4.416   2.934   5.048  0.9809 -0.2080 -0.5893
 1150TIP3   OH2 3455   6.039   1.043   2.898 -0.0782  0.5964  0.4989
 1150TIP3    H1 3456   5.946   1.062   2.882  0.1207  0.2748 -1.1399
 1150TIP3    H2 3457   6.085   1.086   2.827  0.7929 -1.6677 -0.3847
 1151TIP3   OH2 3458   0.696   4.775   0.490  0.4918  0.2407  0.4452
 1151TIP3    H1 3459   0.634   4.710   0.457 -1.4215  2.3074 -0.3357
 1151TIP3    H2 3460   0.730   4.737   0.570 -2.1477 -0.8908  1.1458
 1152TIP3   OH2 3461   3.308   5.166   2.703 -0.0845  0.0069  0.3858
 1152TIP3    H1 3462   3.309   5.201   2.792  1.6409  0.7375  0.1218
 1152TIP3    H2 3463   3.371   5.094   2.704  0.1497  0.1903 -0.3003
 1153TIP3   OH2 3464   5.440   2.132   1.636 -0.2724 -0.0837  0.4135
 1153TIP3    H1 3465   5.447   2.172   1.549  0.0761  0.3069  0.6227
 1153TIP3    H2 3466   5.530   2.128   1.668 -0.3246 -0.8226  0.4958
 1154TIP3   OH2 3467   0.772   4.118   4.946  0.2747 -0.1481  0.1713
 1154TIP3    H1 3468   0.821   4.036   4.935 -0.4772 -0.6750  0.6043
 1154TIP3    H2 3469   0.781   4.139   5.039 -0.3487 -0.2762  0.2643
 1155TIP3   OH2 3470   0.394   4.763   1.043  0.2302 -0.5156 -0.2078
 1155TIP3    H1 3471   0.352   4.844   1.073 -3.7035 -2.0491 -0.9867
 1155TIP3    H2 3472   0.488   4.781   1.049 -0.3635  4.5424 -1.5778
 1156TIP3   OH2 3473   3.841   3.341   4.066 -0.1909  0.2010  0.0580
 1156TIP3    H1 3474   3.881   3.398   4.000 -2.3732  2.1654  0.2800
 1156TIP3    H2 3475   3.759   3.386   4.089 -0.3539 -1.3350  2.8272
 1157TIP3   OH2 3476   2.345   4.802   4.023 -0.1469  0.2656 -0.0420
 1157TIP3    H1 3477   2.291   4.801   4.101 -1.2176  1.2698 -0.7412
 1157TIP3    H2 3478   2.431   4.832   4.053 -0.3297 -0.0922  0.8595
 1158TIP3   OH2 3479   4.557   4.143   1.351  0.2593  0.8190 -0.7549
 1158TIP3    H1 3480   4.579   4.235   1.368 -1.7860  1.4874 -1.4505
 1158TIP3    H2 3481   4.495   4.146   1.278  1.8041 -1.2989 -2.2790
 1159TIP3   OH2 3482   3.325   5.676   1.249 -0.3616 -0.1968 -0.4496
 1159TIP3    H1 3483   3.302   5.768   1.238 -0.4432 -0.4707 -3.0061
 1159TIP3    H2 3484   3.420   5.674   1.243 -0.4515 -0.4409 -2.1601
 1160TIP3   OH2 3485   5.701   5.178   0.365  1.0161 -0.3909  0.0096
 1160TIP3    H1 3486   5.787   5.165   0.404  1.5220  0.4579 -0.7771
 1160TIP3    H2 3487   5.718   5.193   0.272  0.2851  2.2440  0.2163
 1161TIP3   OH2 3488   4.464   0.853   1.482 -0.2495  0.2776  0.2118
 1161TIP3    H1 3489   4.534   0.788   1.485  0.5372  1.1425  1.6157
 1161TIP3    H2 3490   4.497   0.920   1.422  0.4785  1.0374  1.4285
 1162TIP3   OH2 3491   1.838   4.445   0.362  0.2264  0.4763 -0.3919
 1162TIP3    H1 3492   1.824   4.481   0.449  1.2366  0.5222 -0.2366
 1162TIP3    H2 3493   1.798   4.358   0.365  0.8451  0.2035  0.3442
 1163TIP3   OH2 3494   4.052   3.130   3.999 -0.1932 -0.2464 -0.0480
 1163TIP3    H1 3495   3.982   3.181   4.040  0.5134  0.2915  0.5123
 1163TIP3    H2 3496   4.017   3.041   3.996 -0.5456 -0.1719  1.1051
 1164TIP3   OH2 3497   0.433   1.611   1.048  0.4673 -0.8026 -0.1268
 1164TIP3    H1 3498   0.342   1.603   1.075  0.5203 -0.9331  0.0146
 1164TIP3    H2 3499   0.480   1.629   1.129  0.3369  1.1017 -0.4299
 1165TIP3   OH2 3500   5.237   0.536   4.948 -1.0167 -0.0596 -0.5366
 1165TIP3    H1 3501   5.219   0.516   5.040  0.8466 -0.3071 -0.1752
 1165TIP3    H2 3502   5.304   0.472   4.922  0.8391  1.9675 -1.0726
 1166TIP3   OH2 3503   2.079   1.620   4.515 -0.1712 -0.1712 -0.2057
 1166TIP3    H1 3504   2.129   1.547   4.479  1.4369  0.7568  0.0242
 1166TIP3    H2 3505   2.085   1.688   4.448 -1.0264  0.0153 -0.1033
 1167TIP3   OH2 3506   3.864   0.541   4.750 -0.0840  0.0072  0.9224
 1167TIP3    H1 3507   3.879   0.511   4.839  0.8158 -0.6244  0.5633
 1167TIP3    H2 3508   3.773   0.518   4.732 -0.5690  0.9529  1.9749
 1168TIP3   OH2 3509   5.729   2.596   2.490 -0.4448 -0.6919 -0.3102
 1168TIP3    H1 3510   5.785   2.538   2.437 -0.1330 -0.6926  0.0131
 1168TIP3    H2 3511   5.682   2.649   2.427  1.1359  0.4512 -0.5657
 1169TIP3   OH2 3512   4.885   0.950   2.379  0.4854 -0.1038 -0.2840
 1169TIP3    H1 3513   4.968   0.944   2.331  0.1718  1.9080 -1.1592
 1169TIP3    H2 3514   4.898   1.022   2.441 -0.8141  0.7408 -0.9421
 1170TIP3   OH2 3515   5.839   0.588   2.296  0.5030  0.2057 -0.2458
 1170TIP3    H1 3516   5.842   0.629   2.209  3.8431  1.5786  0.3353
 1170TIP3    H2 3517   5.925   0.546   2.305 -0.7140 -2.1585  1.4473
 1171TIP3   OH2 3518   4.439   1.732   0.826  0.4383  0.6401 -0.1694
 1171TIP3    H1 3519   4.533   1.737   0.843  0.2377  0.6182  0.9891
 1171TIP3    H2 3520   4.398   1.762   0.907 -0.5700 -0.2759 -0.3220
 1172TIP3   OH2 3521   4.989   4.176   1.090  0.4830  0.4718 -0.3073
 1172TIP3    H1 3522   4.917   4.159   1.151  0.0108 -0.0090 -0.9906
 1172TIP3    H2 3523   4.949   4.222   1.017  0.1990 -2.5002 -2.1696
 1173TIP3   OH2 3524   5.834   2.421   0.784 -0.9955 -0.2640 -0.5469
 1173TIP3    H1 3525   5.893   2.483   0.742 -1.5741 -0.8551 -2.2967
 1173TIP3    H2 3526   5.890   2.348   0.811 -0.8228 -0.5423 -1.6364
 1174TIP3   OH2 3527   0.892   4.540   3.897  0.1750  0.2625 -0.1640
 1174TIP3    H1 3528   0.847   4.462   3.929 -0.3896  1.1593  1.3619
 1174TIP3    H2 3529   0.883   4.536   3.802 -1.1458 -0.7653 -0.0215
 1175TIP3   OH2 3530   1.449   0.270   2.337 -0.4417  0.4528 -0.1577
 1175TIP3    H1 3531   1.371   0.290   2.388 -0.0701  0.5905  0.3536
 1175TIP3    H2 3532   1.461   0.176   2.348  1.2298  0.8700  2.3111
 1176TIP3   OH2 3533   5.403   3.668   2.277 -0.2530 -0.2215 -0.1965
 1176TIP3    H1 3534   5.352   3.603   2.326 -0.8305 -1.0415 -1.8143
 1176TIP3    H2 3535   5.491   3.631   2.274 -0.2524 -0.2468  0.0804
 1177TIP3   OH2 3536   1.029   2.607   1.078  1.0445 -0.0112  0.1731
 1177TIP3    H1 3537   1.121   2.614   1.052  1.2986  0.3332  1.0982
 1177TIP3    H2 3538   1.007   2.695   1.111  1.1789 -0.7296  2.3668
 1178TIP3   OH2 3539   1.356   0.750   2.039 -0.2709  0.4436  0.1838
 1178TIP3    H1 3540   1.348   0.664   2.079 -1.6318  0.3922 -0.1385
 1178TIP3    H2 3541   1.334   0.811   2.110  2.5513  0.7026  0.9705
 1179TIP3   OH2 3542   3.721   4.814   3.710  0.3495  0.0244 -0.1448
 1179TIP3    H1 3543   3.655   4.759   3.753  1.5206 -0.9215  0.5030
 1179TIP3    H2 3544   3.804   4.779   3.740  1.1642  2.4420  0.6801
 1180TIP3   OH2 3545   2.673   4.480   3.228  0.0610 -0.2983 -0.2491
 1180TIP3    H1 3546   2.765   4.468   3.203  0.7495  0.8011  1.5502
 1180TIP3    H2 3547   2.646   4.559   3.183 -0.2306 -0.9780 -1.2983
 1181TIP3   OH2 3548   5.992   4.886   4.265 -0.3382  0.2017  0.1768
 1181TIP3    H1 3549   5.900   4.908   4.250 -0.4019 -0.8373 -1.2122
 1181TIP3    H2 3550   5.990   4.809   4.321 -0.4381 -1.2150 -1.6957
 1182TIP3   OH2 3551   6.188   5.629   3.702  0.1331 -0.0537 -0.1471
 1182TIP3    H1 3552   6.123   5.697   3.722  0.6144  0.3897 -0.0729
 1182TIP3    H2 3553   6.220   5.601   3.788  0.6387  0.3236 -0.2044
 1183TIP3   OH2 3554   1.556   3.036   2.935 -0.3761 -0.1167  0.2097
 1183TIP3    H1 3555   1.610   3.096   2.986  0.6840 -0.0106 -0.9896
 1183TIP3    H2 3556   1.525   2.971   2.999 -1.5558  1.6472  1.5319
 1184TIP3   OH2 3557   0.101   5.303   4.778 -0.2338  0.1099 -0.3586
 1184TIP3    H1 3558   0.156   5.301   4.857 -0.1774  0.9377 -0.3687
 1184TIP3    H2 3559   0.156   5.343   4.711 -0.7215  0.6246 -0.4616
 1185TIP3   OH2 3560   3.372   1.900   5.011  0.5532  0.3415  0.1563
 1185TIP3    H1 3561   3.317   1.953   4.953  0.1002 -1.4502 -1.1410
 1185TIP3    H2 3562   3.454   1.888   4.962  0.5034 -0.4625  0.2543
 1186TIP3   OH2 3563   5.650   2.392   3.728 -1.2959 -0.1211  0.4770
 1186TIP3    H1 3564   5.602   2.453   3.672 -0.7598  0.0136  0.1525
 1186TIP3    H2 3565   5.691   2.448   3.794  1.7243  0.3108 -1.5952
 1187TIP3   OH2 3566   3.031   3.675   4.893  0.4327 -0.2816  0.8028
 1187TIP3    H1 3567   2.962   3.649   4.831  0.5003 -0.8610  0.9598
 1187TIP3    H2 3568   3.075   3.592   4.915  1.7277  0.1689  0.0479
 1188TIP3   OH2 3569   2.497   0.789   0.646 -0.2806 -0.4497 -0.3707
 1188TIP3    H1 3570   2.547   0.733   0.585  1.2833  1.5177 -1.0019
 1188TIP3    H2 3571   2.554   0.796   0.723 -0.5714  0.0936 -0.2082
 1189TIP3   OH2 3572   4.018   0.971   2.617 -0.2433 -0.0737 -0.0864
 1189TIP3    H1 3573   3.976   0.989   2.701 -0.2483  1.4004 -0.3778
 1189TIP3    H2 3574   4.015   0.875   2.608  1.2032 -0.4123  2.3157
 1190TIP3   OH2 3575   1.897   4.651   2.450  0.3302 -0.3186  0.2549
 1190TIP3    H1 3576   1.989   4.674   2.462  1.1536 -2.2443 -1.7564
 1190TIP3    H2 3577   1.874   4.601   2.528  0.9157  0.3230  0.8495
 1191TIP3   OH2 3578   3.732   3.621   3.995 -0.3924 -0.2909  0.0042
 1191TIP3    H1 3579   3.669   3.553   4.018 -0.8442 -0.2800 -1.1394
 1191TIP3    H2 3580   3.736   3.678   4.072 -2.0637 -0.0749 -0.0423
 1192TIP3   OH2 3581   0.431   4.557   2.242 -0.0518 -0.3272 -0.6317
 1192TIP3    H1 3582   0.522   4.531   2.229  0.0309  0.2486 -1.2415
 1192TIP3    H2 3583   0.396   4.491   2.301  0.7456 -0.5879 -0.4298
 1193TIP3   OH2 3584   4.117   5.681   3.121 -0.2986  0.5463  0.2728
 1193TIP3    H1 3585   4.175   5.644   3.054 -1.3888 -0.3839 -0.1928
 1193TIP3    H2 3586   4.053   5.733   3.072  0.4609  2.0785  0.8320
 1194TIP3   OH2 3587   0.176   5.235   1.081 -0.1294 -0.1161  0.8130
 1194TIP3    H1 3588   0.127   5.210   1.003 -0.0197 -1.3295  1.1130
 1194TIP3    H2 3589   0.246   5.292   1.049 -0.8014  0.3784  0.1903
 1195TIP3   OH2 3590   3.290   5.945   2.689 -0.2006 -0.2770  0.1194
 1195TIP3    H1 3591   3.255   5.862   2.657 -1.3709 -0.4268  1.6874
 1195TIP3    H2 3592   3.217   6.006   2.683  0.7501  0.7951 -1.3705
 1196TIP3   OH2 3593   3.410   5.654   2.589 -0.1867  0.2679  0.2850
 1196TIP3    H1 3594   3.326   5.690   2.560 -0.1322 -1.1158 -1.7851
 1196TIP3    H2 3595   3.431   5.587   2.525  1.4548 -0.9755  2.0059
 1197TIP3   OH2 3596   6.083   0.810   3.097 -0.1839  0.2039 -0.0802
 1197TIP3    H1 3597   6.062   0.845   3.011  2.0405 -0.5649 -1.0237
 1197TIP3    H2 3598   6.171   0.842   3.115  0.7521 -2.3537  0.3381
 1198TIP3   OH2 3599   0.392   0.091   2.900  0.2572  0.3243  0.2843
 1198TIP3    H1 3600   0.377   0.179   2.867  1.0634  1.5135  2.7945
 1198TIP3    H2 3601   0.478   0.066   2.864 -0.2968  0.2148 -1.0174
 1199TIP3   OH2 3602   3.445   0.969   2.706 -0.2231 -0.4134  0.3303
 1199TIP3    H1 3603   3.356   0.941   2.686 -0.2803  0.5178 -0.8049
 1199TIP3    H2 3604   3.461   0.936   2.794 -1.2051 -1.7497  0.0507
 1200TIP3   OH2 3605   1.258   3.914   4.986  0.2049  0.1361 -0.0211
 1200TIP3    H1 3606   1.336   3.901   4.931  0.1322 -0.3374 -0.0213
 1200TIP3    H2 3607   1.188   3.870   4.938  0.4472 -1.6424  1.1489
 1201TIP3   OH2 3608   2.848   2.800   0.896 -0.0819 -0.1095  0.3932
 1201TIP3    H1 3609   2.789   2.725   0.905 -2.3630  1.6288  0.8542
 1201TIP3    H2 3610   2.905   2.794   0.973 -1.4065 -0.4042  1.3840
 1202TIP3   OH2 3611   3.084   4.984   3.645 -0.1168  0.3031  0.3208
 1202TIP3    H1 3612   3.171   4.950   3.625 -0.3910 -1.1513  1.4089
 1202TIP3    H2 3613   3.028   4.906   3.649 -1.2860  1.1278  0.5306
 1203TIP3   OH2 3614   6.298   5.063   3.908 -0.4700  0.0424 -0.2569
 1203TIP3    H1 3615   6.376   5.057   3.852  0.2678  2.3644  0.4238
 1203TIP3    H2 3616   6.230   5.100   3.852 -0.0675  1.2608  0.0375
 1204TIP3   OH2 3617   4.610   1.509   1.240 -0.0184  0.6211  0.1259
 1204TIP3    H1 3618   4.698   1.500   1.205 -0.0657 -1.5479  0.4545
 1204TIP3    H2 3619   4.609   1.453   1.317 -1.4323  1.3258  0.6543
 1205TIP3   OH2 3620   0.217   2.865   0.522 -0.5421 -0.3226 -0.0424
 1205TIP3    H1 3621   0.185   2.928   0.458  1.7854  1.3328  0.2910
 1205TIP3    H2 3622   0.195   2.904   0.607 -1.7565 -1.4891  0.2186
 1206TIP3   OH2 3623   3.126   3.733   4.319  0.2697 -0.2545 -0.0004
 1206TIP3    H1 3624   3.081   3.727   4.235  0.9213 -2.1478 -0.2628
 1206TIP3    H2 3625   3.203   3.787   4.302 -0.7901  1.2879 -0.0353
 1207TIP3   OH2 3626   4.016   0.595   3.104  0.5304 -0.1836 -0.3164
 1207TIP3    H1 3627   4.110   0.576   3.097  0.3670 -1.3038  0.3921
 1207TIP3    H2 3628   3.985   0.593   3.013  1.3035  0.9274 -0.6393
 1208TIP3   OH2 3629   0.970   1.732   2.885  0.3628  0.0511 -0.3159
 1208TIP3    H1 3630   1.065   1.741   2.870  0.0736  1.4587 -1.5552
 1208TIP3    H2 3631   0.941   1.675   2.814  0.4576 -1.6590  0.9436
 1209TIP3   OH2 3632   3.469   5.140   0.921 -0.7217  0.4488  0.3014
 1209TIP3    H1 3633   3.412   5.207   0.882  0.0529  0.1151 -1.5367
 1209TIP3    H2 3634   3.410   5.085   0.973 -1.5974  1.7011  0.6745
 1210TIP3   OH2 3635   1.034   3.779   3.419  0.2758 -0.0654  0.4606
 1210TIP3    H1 3636   0.960   3.834   3.391  1.5025  0.5757 -1.7604
 1210TIP3    H2 3637   0.993   3.710   3.471 -1.5571  1.7708  1.6156
 1211TIP3   OH2 3638   3.889   5.223   2.898 -0.0304 -0.0019 -0.3463
 1211TIP3    H1 3639   3.841   5.148   2.861 -0.0979 -0.3505  0.4231
 1211TIP3    H2 3640   3.861   5.226   2.990  1.7995 -0.5301  0.2679
 1212TIP3   OH2 3641   1.834   2.434   1.048 -0.9957  0.5415 -0.2694
 1212TIP3    H1 3642   1.759   2.388   1.084 -1.9106  2.2876  0.1496
 1212TIP3    H2 3643   1.907   2.407   1.104 -1.8436  0.9699  1.0835
 1213TIP3   OH2 3644   5.481   0.867   1.158  0.1784 -0.5092 -0.3361
 1213TIP3    H1 3645   5.427   0.901   1.230  2.0514 -0.4327  1.1161
 1213TIP3    H2 3646   5.567   0.906   1.172  0.6227 -0.5272 -2.6504
 1214TIP3   OH2 3647   0.173   2.169   0.476 -0.5339 -0.6737  0.9870
 1214TIP3    H1 3648   0.109   2.240   0.479 -0.9930 -1.0066 -0.1321
 1214TIP3    H2 3649   0.143   2.106   0.542 -0.4315 -0.0881  1.6002
 1215TIP3   OH2 3650   1.064   1.417   0.623  1.0254  0.2981 -0.1608
 1215TIP3    H1 3651   0.980   1.396   0.663  2.1335  0.1024  2.2207
 1215TIP3    H2 3652   1.063   1.512   0.613 -1.0279  0.0795 -4.0647
 1216TIP3   OH2 3653   5.387   3.503   4.490 -0.1984  0.3031  0.2879
 1216TIP3    H1 3654   5.453   3.483   4.556 -0.2224 -1.6224 -0.2139
 1216TIP3    H2 3655   5.432   3.557   4.426  0.4307  0.3407  0.7507
 1217TIP3   OH2 3656   0.153   3.319   2.977  0.1326 -0.0903  0.6975
 1217TIP3    H1 3657   0.079   3.258   2.976  1.0703 -1.2633  1.2652
 1217TIP3    H2 3658   0.114   3.403   3.003 -1.2917 -0.2503 -0.7754
 1218TIP3   OH2 3659   5.615   3.685   3.145 -0.6197  0.2174 -0.1286
 1218TIP3    H1 3660   5.527   3.717   3.161 -0.1780  1.6288 -0.3715
 1218TIP3    H2 3661   5.652   3.669   3.232 -0.3194  1.9497  0.0996
 1219TIP3   OH2 3662   0.647   3.713   4.023 -1.0511  0.1175  0.2918
 1219TIP3    H1 3663   0.591   3.769   3.971  0.1733  1.1389  0.0306
 1219TIP3    H2 3664   0.660   3.761   4.105 -0.6097 -0.1377  0.3759
 1220TIP3   OH2 3665   1.158   0.504   2.347  0.3567 -0.0536  0.0972
 1220TIP3    H1 3666   1.165   0.539   2.435 -0.4407  0.1716  0.0838
 1220TIP3    H2 3667   1.114   0.419   2.358 -0.5600  0.3758 -0.1567
 1221TIP3   OH2 3668   5.994   4.496   3.438  0.2542  0.1883 -0.0220
 1221TIP3    H1 3669   5.932   4.547   3.385  0.1091 -0.4724 -0.5146
 1221TIP3    H2 3670   6.073   4.549   3.440 -0.5664  1.4131  1.2810
 1222TIP3   OH2 3671   5.501   1.162   4.696 -0.0953 -0.2261  0.5822
 1222TIP3    H1 3672   5.477   1.253   4.710  0.3118 -0.0815  0.3427
 1222TIP3    H2 3673   5.554   1.139   4.773  0.3118 -0.0798  0.3462
 1223TIP3   OH2 3674   2.548   3.592   2.392  0.0133  0.1144 -0.0939
 1223TIP3    H1 3675   2.577   3.616   2.304 -0.0770  1.3868  0.2086
 1223TIP3    H2 3676   2.615   3.628   2.450  1.2260 -2.5496  0.2921
 1224TIP3   OH2 3677   6.159   2.234   4.838 -0.0432 -0.1735  0.1719
 1224TIP3    H1 3678   6.125   2.234   4.749 -0.0892  1.1623  0.1735
 1224TIP3    H2 3679   6.232   2.296   4.837 -0.3234  0.1962  1.1645
 1225TIP3   OH2 3680   3.461   1.285   1.904  0.4180  0.0410 -0.3024
 1225TIP3    H1 3681   3.430   1.203   1.944 -0.5153  0.5861  0.1130
 1225TIP3    H2 3682   3.554   1.269   1.888 -0.1416 -1.8715 -2.1753
 1226TIP3   OH2 3683   2.086   5.618   4.439 -0.2966 -0.3358 -0.2996
 1226TIP3    H1 3684   1.999   5.646   4.466  0.3575 -0.2780  1.9599
 1226TIP3    H2 3685   2.083   5.523   4.438 -0.0163 -0.3847  1.2829
 1227TIP3   OH2 3686   6.358   0.186   3.522 -0.2848 -0.1753 -0.2549
 1227TIP3    H1 3687   6.320   0.201   3.435  0.5053  0.7748 -0.4618
 1227TIP3    H2 3688   6.295   0.130   3.567 -1.3034  0.3302 -1.0186
 1228TIP3   OH2 3689   5.165   5.805   0.436  0.4086  0.2063  0.1504
 1228TIP3    H1 3690   5.170   5.894   0.472  1.0913 -0.0075  0.5978
 1228TIP3    H2 3691   5.222   5.807   0.359 -1.8343  0.9477 -1.6081
 1229TIP3   OH2 3692   2.232   5.387   0.224  0.1182 -0.3089  0.6900
 1229TIP3    H1 3693   2.269   5.402   0.311  0.5696 -0.2209  0.4844
 1229TIP3    H2 3694   2.248   5.468   0.176 -0.6822 -0.1339  0.7175
 1230TIP3   OH2 3695   4.045   3.572   1.650  0.0478 -1.0756 -0.5387
 1230TIP3    H1 3696   4.054   3.483   1.616  0.3225 -0.7625 -1.3129
 1230TIP3    H2 3697   4.106   3.624   1.598  0.3211 -0.5321  0.3014
 1231TIP3   OH2 3698   6.210   4.912   1.876 -0.3021  0.5251  0.4156
 1231TIP3    H1 3699   6.285   4.896   1.933 -2.2135 -1.5539  2.5766
 1231TIP3    H2 3700   6.165   4.828   1.872 -1.9912  1.4382 -1.6244
 1232TIP3   OH2 3701   3.681   5.776   2.376 -0.0380  0.1033 -0.9376
 1232TIP3    H1 3702   3.603   5.819   2.340  0.5612 -0.0672 -2.5007
 1232TIP3    H2 3703   3.680   5.689   2.337  0.5185 -0.1785 -0.3347
 1233TIP3   OH2 3704   0.698   2.988   3.611  0.5788  0.0104  0.0865
 1233TIP3    H1 3705   0.651   3.005   3.692  0.4786  0.7448 -0.1185
 1233TIP3    H2 3706   0.631   2.958   3.550  0.5366  0.1368  0.0708
 1234TIP3   OH2 3707   5.078   3.732   2.409 -0.3892 -0.0303  0.5122
 1234TIP3    H1 3708   5.138   3.743   2.335 -1.3604 -0.4302 -0.3547
 1234TIP3    H2 3709   5.008   3.676   2.376 -0.6956 -0.4803  1.8348
 1235TIP3   OH2 3710   1.826   3.376   1.311  0.6575  0.8358 -0.3962
 1235TIP3    H1 3711   1.869   3.422   1.238 -0.5916  3.3080  0.3087
 1235TIP3    H2 3712   1.772   3.310   1.269  0.7408  1.5398 -1.6679
 1236TIP3   OH2 3713   2.075   2.141   0.940 -0.3164 -0.5551  0.2153
 1236TIP3    H1 3714   2.130   2.216   0.919  0.1983 -0.5309  1.5674
 1236TIP3    H2 3715   2.065   2.095   0.856  0.0785  0.5271 -0.4553
 1237TIP3   OH2 3716   3.638   3.450   2.566  0.0649  0.2146 -0.0668
 1237TIP3    H1 3717   3.713   3.511   2.568 -0.7305  1.3184 -1.6133
 1237TIP3    H2 3718   3.605   3.457   2.477 -0.8903 -1.5160  0.1259
 1238TIP3   OH2 3719   2.550   1.152   1.118 -0.2584 -0.0291 -0.1273
 1238TIP3    H1 3720   2.518   1.174   1.206  0.2666  0.2500 -0.0030
 1238TIP3    H2 3721   2.472   1.153   1.063 -0.5779 -0.1104  0.3184
 1239TIP3   OH2 3722   3.227   2.340   1.576 -0.2135 -0.2995 -0.2778
 1239TIP3    H1 3723   3.295   2.407   1.584 -0.9564  0.3384  1.0962
 1239TIP3    H2 3724   3.257   2.269   1.634  2.1640 -2.7147 -4.0066
 1240TIP3   OH2 3725   2.963   2.220   4.980  0.1465 -0.2329  0.5195
 1240TIP3    H1 3726   3.043   2.188   4.938  0.8826  2.6885 -0.5485
 1240TIP3    H2 3727   2.894   2.166   4.942  1.2821 -0.6236 -1.1239
 1241TIP3   OH2 3728   1.407   5.607   3.827  0.2101  0.2182 -0.0046
 1241TIP3    H1 3729   1.473   5.605   3.896  0.5839 -1.2080 -0.3676
 1241TIP3    H2 3730   1.388   5.514   3.810 -1.5797  0.5849 -0.1947
 1242TIP3   OH2 3731   5.773   4.389   0.916 -0.0865 -0.2365  0.3629
 1242TIP3    H1 3732   5.864   4.371   0.940  0.5134 -0.2045 -1.6573
 1242TIP3    H2 3733   5.752   4.321   0.851 -1.5307 -0.2574  0.8239
 1243TIP3   OH2 3734   0.865   5.287   4.428 -0.3414  0.6224 -0.5677
 1243TIP3    H1 3735   0.888   5.379   4.446  0.6678  0.6386 -1.8222
 1243TIP3    H2 3736   0.832   5.287   4.338  0.7120 -0.3997 -0.9785
 1244TIP3   OH2 3737   3.716   5.702   5.073  0.2173  0.5568 -0.5354
 1244TIP3    H1 3738   3.670   5.747   5.144  0.4508  0.3210 -0.2325
 1244TIP3    H2 3739   3.659   5.714   4.997  0.1032  1.0551 -0.3786
 1245TIP3   OH2 3740   6.332   5.480   2.752  0.4027 -0.1527  0.0397
 1245TIP3    H1 3741   6.282   5.496   2.672  1.5569  0.5744 -0.5774
 1245TIP3    H2 3742   6.296   5.399   2.787 -2.0923  1.0232  0.3867
 1246TIP3   OH2 3743   0.973   2.658   2.427  0.2571 -0.2619 -0.4549
 1246TIP3    H1 3744   0.885   2.633   2.454 -1.4401  3.3176 -1.9629
 1246TIP3    H2 3745   0.982   2.622   2.339 -0.1512  0.2540 -0.7112
 1247TIP3   OH2 3746   3.785   4.311   3.945  0.0525  0.2710  0.1095
 1247TIP3    H1 3747   3.744   4.250   4.007 -1.8563  2.8304  1.5752
 1247TIP3    H2 3748   3.855   4.353   3.995 -0.6740  1.4511  0.1719
 1248TIP3   OH2 3749   5.042   2.010   4.184 -0.6588  0.6187 -0.1102
 1248TIP3    H1 3750   5.070   2.098   4.158  1.2012  0.3656  0.8380
 1248TIP3    H2 3751   5.061   2.005   4.277 -0.1048 -0.9981 -0.2688
 1249TIP3   OH2 3752   3.530   1.664   1.434  0.1905 -0.1307 -0.7257
 1249TIP3    H1 3753   3.476   1.743   1.432 -0.5987 -0.6585 -0.4162
 1249TIP3    H2 3754   3.590   1.675   1.360  0.9559  1.3463  0.0513
 1250TIP3   OH2 3755   3.831   4.802   0.621 -0.2038 -0.1425  0.3649
 1250TIP3    H1 3756   3.909   4.841   0.660  0.0009  0.2867 -0.4617
 1250TIP3    H2 3757   3.836   4.710   0.645  0.2461 -0.0094  0.8081
 1251TIP3   OH2 3758   3.575   0.620   1.248  0.3385 -0.2089 -0.5504
 1251TIP3    H1 3759   3.527   0.540   1.225  0.7743 -0.0392 -2.1783
 1251TIP3    H2 3760   3.602   0.656   1.163  0.1901  1.6461  0.1597
 1252TIP3   OH2 3761   5.453   5.485   0.332 -0.7426 -0.1885  0.9079
 1252TIP3    H1 3762   5.541   5.481   0.369 -0.6083  2.6123  1.0719
 1252TIP3    H2 3763   5.395   5.472   0.407 -0.4585  0.3524  1.2300
 1253TIP3   OH2 3764   1.241   1.084   2.622 -0.1845  0.1846  0.0238
 1253TIP3    H1 3765   1.335   1.071   2.635 -0.1269 -0.3873 -0.8811
 1253TIP3    H2 3766   1.219   1.156   2.681  0.8331  0.3641  0.2137
 1254TIP3   OH2 3767   3.678   5.737   3.631 -0.0450  0.4340 -0.0350
 1254TIP3    H1 3768   3.665   5.768   3.542 -1.1394  0.0468 -0.0322
 1254TIP3    H2 3769   3.767   5.701   3.632 -0.4648 -0.7196 -1.3368
 1255TIP3   OH2 3770   1.299   1.028   3.512 -0.3083 -1.2490  0.5808
 1255TIP3    H1 3771   1.226   0.993   3.562 -0.5830  0.3271  1.3419
 1255TIP3    H2 3772   1.359   1.064   3.578 -0.8893  1.2878 -0.1449
 1256TIP3   OH2 3773   2.662   2.275   2.921 -0.2349  0.4107 -0.5687
 1256TIP3    H1 3774   2.700   2.313   3.000  4.2305 -1.7532 -1.3863
 1256TIP3    H2 3775   2.590   2.220   2.953  0.2134  1.0474  1.7395
 1257TIP3   OH2 3776   1.301   2.457   2.023 -0.3805 -0.3214 -0.2489
 1257TIP3    H1 3777   1.281   2.485   1.934  3.0194 -0.6254 -1.2272
 1257TIP3    H2 3778   1.281   2.533   2.078  1.9109  1.6562 -1.9305
 1258TIP3   OH2 3779   3.034   4.214   1.633 -0.4097  0.6777 -0.0261
 1258TIP3    H1 3780   3.023   4.243   1.724  1.0813 -0.2184  0.4571
 1258TIP3    H2 3781   3.128   4.213   1.619 -0.5657 -0.4404 -1.1758
 1259TIP3   OH2 3782   0.669   2.173   0.814  0.0388 -0.2660 -0.1621
 1259TIP3    H1 3783   0.716   2.093   0.839  0.9467  0.5966  1.0064
 1259TIP3    H2 3784   0.647   2.215   0.897  1.8648  1.9713 -0.6792
 1260TIP3   OH2 3785   0.300   5.730   3.205  0.4088 -0.6258 -0.5016
 1260TIP3    H1 3786   0.270   5.821   3.202  1.3206 -0.2907  0.2321
 1260TIP3    H2 3787   0.377   5.732   3.262  0.6877 -1.7882 -0.8221
 1261TIP3   OH2 3788   4.414   1.797   1.483  0.7328  0.4898  0.0933
 1261TIP3    H1 3789   4.504   1.826   1.466  0.5784 -0.1376 -2.1032
 1261TIP3    H2 3790   4.361   1.853   1.426  0.0460 -1.2045 -0.9862
 1262TIP3   OH2 3791   2.617   0.859   2.191  0.0697 -0.3825 -0.1819
 1262TIP3    H1 3792   2.538   0.911   2.207  0.6780  0.3013  0.7580
 1262TIP3    H2 3793   2.586   0.769   2.184 -0.7915 -0.1288  0.2426
 1263TIP3   OH2 3794   3.223   2.226   2.176 -0.2576  0.1784  0.9330
 1263TIP3    H1 3795   3.251   2.150   2.126 -1.2327  0.7819 -0.6037
 1263TIP3    H2 3796   3.162   2.272   2.118  0.0759  1.9715  1.9200
 1264TIP3   OH2 3797   2.554   0.503   4.244 -0.8504  0.4797 -0.8871
 1264TIP3    H1 3798   2.517   0.480   4.329  1.2658  2.2969  0.6306
 1264TIP3    H2 3799   2.522   0.591   4.227  0.9956  1.2721 -0.5199
 1265TIP3   OH2 3800   4.135   2.926   4.732 -0.2781  0.1963 -0.4822
 1265TIP3    H1 3801   4.089   2.997   4.777 -0.7220  0.4816 -1.3639
 1265TIP3    H2 3802   4.210   2.969   4.689 -0.1525  0.0138 -0.4486
 1266TIP3   OH2 3803   5.418   4.336   2.372  0.2945  0.0255 -0.2638
 1266TIP3    H1 3804   5.381   4.335   2.460  0.0428 -0.0355 -0.3692
 1266TIP3    H2 3805   5.450   4.247   2.358  0.4158  0.0583 -0.2025
 1267TIP3   OH2 3806   6.071   4.240   4.924 -0.1473 -0.3914 -0.9788
 1267TIP3    H1 3807   6.101   4.187   4.850  0.6386  1.1339 -1.7898
 1267TIP3    H2 3808   6.151   4.275   4.962 -0.6390  0.0067 -0.2972
 1268TIP3   OH2 3809   4.429   2.279   3.856 -0.4204 -0.9751  0.6671
 1268TIP3    H1 3810   4.376   2.286   3.936  0.7713 -3.0696  1.7323
 1268TIP3    H2 3811   4.375   2.230   3.795 -0.6753 -0.9063  0.8352
 1269TIP3   OH2 3812   0.331   3.137   3.322 -0.4809 -0.1644  0.1122
 1269TIP3    H1 3813   0.247   3.184   3.327 -0.4458 -0.1047  0.1373
 1269TIP3    H2 3814   0.306   3.048   3.300 -0.5248 -0.0656 -0.2413
 1270TIP3   OH2 3815   3.032   3.315   4.387  0.2716 -0.5527  0.5694
 1270TIP3    H1 3816   3.015   3.239   4.333 -0.3222  1.0469 -1.6433
 1270TIP3    H2 3817   2.947   3.337   4.426 -1.0179  2.0532 -3.1777
 1271TIP3   OH2 3818   1.015   1.306   1.407  0.2635 -0.5934 -0.4016
 1271TIP3    H1 3819   1.077   1.357   1.355  0.9339  0.8014  1.6558
 1271TIP3    H2 3820   1.033   1.215   1.383  1.5486 -0.0721 -1.5042
 1272TIP3   OH2 3821   4.602   1.978   0.679 -0.9567  0.4764  0.4271
 1272TIP3    H1 3822   4.605   1.882   0.669 -0.6195  0.4044  1.1673
 1272TIP3    H2 3823   4.523   1.994   0.731 -2.1196  0.7699 -1.3376
 1273TIP3   OH2 3824   2.192   0.839   3.197  0.6178 -0.0979  0.6051
 1273TIP3    H1 3825   2.287   0.843   3.182  0.6875 -0.2279  1.0091
 1273TIP3    H2 3826   2.160   0.923   3.165  0.9465  0.1877  1.0182
 1274TIP3   OH2 3827   5.815   4.047   0.948 -0.2532 -0.4193  0.1583
 1274TIP3    H1 3828   5.852   4.032   1.035 -0.9728 -3.5568  0.0485
 1274TIP3    H2 3829   5.891   4.046   0.889 -0.0354 -1.9363  0.4257
 1275TIP3   OH2 3830   0.390   4.014   0.663 -0.5286  0.2888  0.4497
 1275TIP3    H1 3831   0.307   4.029   0.618 -1.0749  1.0171  1.6647
 1275TIP3    H2 3832   0.438   3.955   0.605 -1.7330  0.1662 -0.4601
 1276TIP3   OH2 3833   0.212   4.386   0.434 -0.4671  0.1665 -0.0849
 1276TIP3    H1 3834   0.175   4.303   0.464 -0.2078  0.1289  0.1410
 1276TIP3    H2 3835   0.292   4.360   0.387 -1.4402  0.1342 -1.8184
 1277TIP3   OH2 3836   0.048   3.951   2.152 -0.2669 -0.0545  0.2454
 1277TIP3    H1 3837   0.142   3.963   2.138 -0.0669 -0.7321  0.9500
 1277TIP3    H2 3838   0.007   4.004   2.083  0.6414 -1.9302 -1.8897
 1278TIP3   OH2 3839   2.014   3.330   3.289 -0.0800  0.0450 -0.7834
 1278TIP3    H1 3840   1.955   3.397   3.324  2.4049  2.0960 -0.2028
 1278TIP3    H2 3841   2.021   3.351   3.195  0.7751  0.7203 -0.5830
 1279TIP3   OH2 3842   2.541   3.477   4.165  0.0806 -0.4287  0.0219
 1279TIP3    H1 3843   2.563   3.566   4.193  1.1810 -0.9839  1.0397
 1279TIP3    H2 3844   2.468   3.488   4.105  0.2900  1.1745  0.0095
 1280TIP3   OH2 3845   0.897   5.920   3.503  0.0566 -0.0188 -0.0857
 1280TIP3    H1 3846   0.828   5.919   3.437  0.5976  0.1371 -0.6724
 1280TIP3    H2 3847   0.882   5.842   3.556 -0.1521 -0.3650 -0.6460
 1281TIP3   OH2 3848   4.658   5.196   4.825 -0.3827  0.1810  0.3103
 1281TIP3    H1 3849   4.563   5.207   4.836 -0.0931  2.1467  1.5237
 1281TIP3    H2 3850   4.696   5.261   4.884  1.7444 -0.6505 -0.0474
 1282TIP3   OH2 3851   3.598   2.967   2.701  0.9963 -0.1185  0.3452
 1282TIP3    H1 3852   3.635   2.885   2.668  0.7794  0.5031 -1.5842
 1282TIP3    H2 3853   3.674   3.021   2.724  1.1552 -0.5621  0.8641
 1283TIP3   OH2 3854   4.810   4.109   1.277 -0.2904  0.5619 -1.1555
 1283TIP3    H1 3855   4.791   4.017   1.257 -1.1505  0.6250 -0.6985
 1283TIP3    H2 3856   4.724   4.149   1.291  0.1519  0.8195  1.3346
 1284TIP3   OH2 3857   1.901   2.130   3.718 -0.2377  0.0025 -0.0573
 1284TIP3    H1 3858   1.990   2.107   3.690  0.1449 -0.0750  1.1448
 1284TIP3    H2 3859   1.856   2.156   3.638  1.4368  1.9282 -0.4334
 1285TIP3   OH2 3860   0.176   1.480   3.846 -0.3519  0.3238 -0.3141
 1285TIP3    H1 3861   0.194   1.386   3.836 -0.1196  0.5399 -2.5841
 1285TIP3    H2 3862   0.198   1.499   3.937 -0.3394 -1.8069  0.1822
 1286TIP3   OH2 3863   3.330   1.634   0.684  0.4061  0.3870  0.4820
 1286TIP3    H1 3864   3.371   1.677   0.759  1.4376  0.9136 -0.3491
 1286TIP3    H2 3865   3.237   1.633   0.704  0.3799  2.6654  0.7256
 1287TIP3   OH2 3866   3.678   4.027   4.619  0.4134  0.5237 -0.0607
 1287TIP3    H1 3867   3.733   3.987   4.686  0.7676  1.8480  0.4711
 1287TIP3    H2 3868   3.637   4.102   4.662  0.9006  1.5946 -1.3755
 1288TIP3   OH2 3869   1.561   0.694   0.631  0.3938  0.5695 -0.0541
 1288TIP3    H1 3870   1.615   0.707   0.709  1.1440  0.5665 -0.5577
 1288TIP3    H2 3871   1.614   0.637   0.575 -0.5756 -0.2905 -0.1277
 1289TIP3   OH2 3872   1.647   2.917   0.867  0.2955 -0.5775  0.0654
 1289TIP3    H1 3873   1.605   2.832   0.880 -0.1313 -0.3336  0.2906
 1289TIP3    H2 3874   1.596   2.977   0.920  1.5469 -0.4492  1.1907
 1290TIP3   OH2 3875   5.547   0.855   5.046 -0.1667  0.1224 -0.1378
 1290TIP3    H1 3876   5.578   0.765   5.056  0.7219  0.2718 -1.3452
 1290TIP3    H2 3877   5.454   0.847   5.025  0.3423 -0.6330 -2.2550
 1291TIP3   OH2 3878   1.248   1.644   3.694 -0.3050 -1.0110 -0.2155
 1291TIP3    H1 3879   1.289   1.716   3.647 -2.5719  1.1718  0.9608
 1291TIP3    H2 3880   1.165   1.629   3.650 -1.4393 -0.4724  1.6380
 1292TIP3   OH2 3881   2.343   5.031   5.008 -0.2918 -0.0426 -0.3569
 1292TIP3    H1 3882   2.376   4.955   5.055 -2.2055 -0.3028  0.6737
 1292TIP3    H2 3883   2.306   5.088   5.076 -1.3667  0.4926 -1.3429
 1293TIP3   OH2 3884   3.175   4.660   1.103 -0.5016  0.2176 -0.2957
 1293TIP3    H1 3885   3.157   4.690   1.192 -1.1843 -2.6993  0.6377
 1293TIP3    H2 3886   3.130   4.723   1.047 -1.1252  1.4023  1.4577
 1294TIP3   OH2 3887   1.016   2.719   4.288 -0.1325 -0.3749  0.4276
 1294TIP3    H1 3888   1.091   2.693   4.341 -0.1012 -1.2640 -0.0366
 1294TIP3    H2 3889   0.963   2.774   4.346  0.6468 -0.1148  0.8983
 1295TIP3   OH2 3890   3.882   5.528   1.461  0.5546 -0.4815  0.7349
 1295TIP3    H1 3891   3.790   5.500   1.453  0.9879 -1.4988 -1.9664
 1295TIP3    H2 3892   3.920   5.468   1.525  0.0632 -2.3416 -0.6251
 1296TIP3   OH2 3893   0.744   3.441   0.907  0.4361  0.1213 -0.0374
 1296TIP3    H1 3894   0.744   3.524   0.859  1.5993  1.4179  2.0989
 1296TIP3    H2 3895   0.706   3.461   0.992 -0.8533 -1.9560 -0.0359
 1297TIP3   OH2 3896   5.314   3.002   4.893 -0.6690  0.0797 -0.2024
 1297TIP3    H1 3897   5.281   3.086   4.922  0.9836  0.9026 -0.5651
 1297TIP3    H2 3898   5.254   2.937   4.931 -0.1209  1.2153  2.8382
 1298TIP3   OH2 3899   0.592   5.169   2.082 -0.1180 -0.5109 -0.2439
 1298TIP3    H1 3900   0.508   5.176   2.037 -0.2734  2.4494  0.3409
 1298TIP3    H2 3901   0.601   5.251   2.130  1.5866 -2.1073  2.4618
 1299TIP3   OH2 3902   2.301   3.221   2.807 -0.1436  0.3619  0.1439
 1299TIP3    H1 3903   2.257   3.139   2.828 -0.6056  0.2873 -1.0237
 1299TIP3    H2 3904   2.292   3.275   2.886 -0.0154 -0.6241  0.8449
 1300TIP3   OH2 3905   3.570   0.295   4.226 -0.1882 -0.2043 -0.2192
 1300TIP3    H1 3906   3.645   0.287   4.285  0.8678 -1.6580 -1.6734
 1300TIP3    H2 3907   3.588   0.233   4.155 -1.2397  1.7133 -2.2758
 1301TIP3   OH2 3908   0.997   2.321   4.566 -0.1140  0.4229  0.1378
 1301TIP3    H1 3909   1.038   2.371   4.637 -0.1392 -0.0409  0.4861
 1301TIP3    H2 3910   0.957   2.388   4.510  1.6133  0.9444 -0.5479
 1302TIP3   OH2 3911   4.472   2.685   4.421 -0.0786  0.7877  0.3263
 1302TIP3    H1 3912   4.425   2.605   4.444  0.7050  0.3555  0.4761
 1302TIP3    H2 3913   4.405   2.753   4.420 -0.5251  0.4035  1.6391
 1303TIP3   OH2 3914   2.320   0.015   3.189  0.1548 -0.5375  0.2725
 1303TIP3    H1 3915   2.240   0.058   3.218  0.4054  1.8236 -2.0879
 1303TIP3    H2 3916   2.390   0.074   3.218  0.7070 -0.5358 -1.0133
 1304TIP3   OH2 3917   2.319   2.041   1.262  0.4144 -0.2403  0.2097
 1304TIP3    H1 3918   2.381   2.008   1.197  1.8183 -1.3349  2.0028
 1304TIP3    H2 3919   2.368   2.039   1.344 -1.1802  1.4174  1.2648
 1305TIP3   OH2 3920   1.177   3.068   2.579 -0.7304 -0.1555 -0.5525
 1305TIP3    H1 3921   1.113   3.054   2.650 -1.6175  1.0733 -1.0720
 1305TIP3    H2 3922   1.138   3.025   2.503 -0.1888 -0.7351 -0.5069
 1306TIP3   OH2 3923   0.578   0.800   3.075 -0.3594  0.1182  0.0452
 1306TIP3    H1 3924   0.611   0.718   3.109 -0.0412  0.3873  0.3912
 1306TIP3    H2 3925   0.484   0.797   3.093 -0.5757 -0.7433 -1.1436
 1307TIP3   OH2 3926   5.959   5.887   3.309 -0.3552  0.3050  0.2400
 1307TIP3    H1 3927   6.054   5.899   3.298 -0.4764  0.8028 -0.3427
 1307TIP3    H2 3928   5.946   5.883   3.403 -0.0937  3.3178  0.5041
 1308TIP3   OH2 3929   0.204   4.911   3.405 -0.2497  0.1223  0.0310
 1308TIP3    H1 3930   0.261   4.961   3.345  1.8521 -0.2769  1.5719
 1308TIP3    H2 3931   0.188   4.829   3.358  1.8447 -0.4274  0.1612
 1309TIP3   OH2 3932   0.568   5.252   1.737  0.1433  0.0512 -0.0293
 1309TIP3    H1 3933   0.567   5.340   1.701 -0.3343 -0.4701 -1.3781
 1309TIP3    H2 3934   0.660   5.235   1.758  0.2434  0.8462  0.2009
 1310TIP3   OH2 3935   4.490   3.819   1.192  0.0784  0.1903  0.1423
 1310TIP3    H1 3936   4.581   3.806   1.165 -0.2009 -1.0699 -0.2633
 1310TIP3    H2 3937   4.496   3.857   1.280  0.9803  1.8089 -0.5840
 1311TIP3   OH2 3938   0.147   0.991   3.824  0.4282 -0.4467 -0.4730
 1311TIP3    H1 3939   0.095   0.941   3.887 -0.5072 -1.5071 -2.0084
 1311TIP3    H2 3940   0.094   1.069   3.807 -0.4122 -1.2052 -1.5298
 1312TIP3   OH2 3941   2.041   3.849   1.786  0.5522 -0.1730 -0.4078
 1312TIP3    H1 3942   2.109   3.875   1.848  1.5763 -0.1469 -1.4993
 1312TIP3    H2 3943   2.023   3.928   1.736  1.2755 -0.6926 -1.5296
 1313TIP3   OH2 3944   4.732   2.254   0.725  0.0789 -0.3607 -0.2518
 1313TIP3    H1 3945   4.673   2.179   0.719 -0.2976  0.0334 -3.3803
 1313TIP3    H2 3946   4.765   2.252   0.815 -0.9246 -3.4810  0.1726
 1314TIP3   OH2 3947   2.790   0.772   1.827 -0.4568  0.0624  0.3667
 1314TIP3    H1 3948   2.786   0.704   1.895 -0.7397 -0.2121  0.0819
 1314TIP3    H2 3949   2.832   0.729   1.753  0.0384  0.4244  0.4341
 1315TIP3   OH2 3950   2.672   5.348   2.685  0.5393 -0.6522  0.0763
 1315TIP3    H1 3951   2.637   5.425   2.641  2.0201 -1.0537 -1.9911
 1315TIP3    H2 3952   2.614   5.277   2.659  0.2474 -0.5513  0.4491
 1316TIP3   OH2 3953   0.295   2.250   4.706  0.2197 -0.3409  0.2871
 1316TIP3    H1 3954   0.276   2.208   4.622  1.8392 -1.6032  0.5087
 1316TIP3    H2 3955   0.384   2.283   4.696  0.9502 -1.6791  1.9113
 1317TIP3   OH2 3956   0.376   1.443   2.200 -0.3454  0.5565 -0.2284
 1317TIP3    H1 3957   0.416   1.454   2.113  0.7286  1.2402  0.3362
 1317TIP3    H2 3958   0.450   1.438   2.260 -1.0088 -1.4222  0.5273
 1318TIP3   OH2 3959   3.156   3.363   1.972 -0.4995 -0.7932 -0.0291
 1318TIP3    H1 3960   3.199   3.430   2.026  0.6624 -1.2606 -0.3229
 1318TIP3    H2 3961   3.070   3.352   2.011 -0.3075  0.0945  0.6882
 1319TIP3   OH2 3962   3.473   2.949   4.350  0.2540  0.2493 -0.3830
 1319TIP3    H1 3963   3.388   2.922   4.384 -0.2454  1.1527 -0.8555
 1319TIP3    H2 3964   3.453   3.026   4.295  1.2490 -0.1013 -1.2695
 1320TIP3   OH2 3965   1.056   0.523   5.009 -0.7398  1.0039 -0.0387
 1320TIP3    H1 3966   1.135   0.505   5.059 -0.7774  0.4894 -0.1610
 1320TIP3    H2 3967   1.022   0.605   5.046 -1.4067  0.0492  1.5820
 1321TIP3   OH2 3968   5.043   3.425   0.583  0.5246 -0.1851 -0.7447
 1321TIP3    H1 3969   5.087   3.345   0.556  1.4136 -0.7456  2.0338
 1321TIP3    H2 3970   5.092   3.495   0.541  1.5818 -0.9808 -0.8674
 1322TIP3   OH2 3971   5.472   3.891   2.146  0.2226 -0.7302  0.1721
 1322TIP3    H1 3972   5.428   3.820   2.194  0.1911 -1.7218 -1.2562
 1322TIP3    H2 3973   5.539   3.922   2.207 -1.2203 -0.4387  1.6847
 1323TIP3   OH2 3974   0.876   5.146   0.544  0.1705  0.0812  0.2412
 1323TIP3    H1 3975   0.818   5.087   0.593  0.5472 -1.0539 -0.6255
 1323TIP3    H2 3976   0.817   5.212   0.507 -0.2323  0.3928  1.4097
 1324TIP3   OH2 3977   1.191   3.408   0.590  0.4116  0.1550  0.2370
 1324TIP3    H1 3978   1.167   3.457   0.669 -0.7976  0.6261 -0.4021
 1324TIP3    H2 3979   1.260   3.348   0.620  0.6021  0.9351  1.4467
 1325TIP3   OH2 3980   1.198   4.413   4.496  0.2705  0.0731  0.2943
 1325TIP3    H1 3981   1.244   4.466   4.561  0.0540  0.6724 -0.0371
 1325TIP3    H2 3982   1.241   4.327   4.500  0.2925  0.1181  1.1859
 1326TIP3   OH2 3983   3.364   2.874   4.753  0.4910  0.2231  0.3272
 1326TIP3    H1 3984   3.448   2.901   4.713  0.3938  1.2919  0.8070
 1326TIP3    H2 3985   3.383   2.790   4.793  1.0550 -0.0542 -0.4774
 1327TIP3   OH2 3986   4.730   3.840   1.085 -0.4841 -0.7004 -0.5969
 1327TIP3    H1 3987   4.822   3.868   1.091 -0.9859  0.7830  1.3996
 1327TIP3    H2 3988   4.733   3.745   1.098  0.7572 -0.6332 -0.2663
 1328TIP3   OH2 3989   5.338   1.849   1.451  0.0298  0.2147  0.6699
 1328TIP3    H1 3990   5.271   1.861   1.519 -2.0803  1.3887 -1.4779
 1328TIP3    H2 3991   5.400   1.920   1.466  0.5805 -0.5695  2.3747
 1329TIP3   OH2 3992   5.014   4.151   4.705 -0.0394 -0.6078  0.1020
 1329TIP3    H1 3993   5.080   4.139   4.774  0.0222 -1.2159 -0.0541
 1329TIP3    H2 3994   5.024   4.073   4.650 -0.2106 -0.2134 -0.4908
 1330TIP3   OH2 3995   5.208   3.920   1.752 -0.4325  0.1505  0.2924
 1330TIP3    H1 3996   5.253   3.839   1.777 -0.8757 -0.0725  0.3982
 1330TIP3    H2 3997   5.186   3.908   1.660 -2.1727 -0.6940  0.7569
 1331TIP3   OH2 3998   1.775   2.202   0.853  0.5291  0.1154 -0.1567
 1331TIP3    H1 3999   1.870   2.203   0.864  0.6042 -3.2079  0.5151
 1331TIP3    H2 4000   1.762   2.192   0.758  0.7592  1.4416 -0.3532
 1332TIP3   OH2 4001   4.645   2.302   0.205 -0.2583  0.1941  0.3033
 1332TIP3    H1 4002   4.570   2.354   0.177 -0.8161 -0.4951  0.4732
 1332TIP3    H2 4003   4.632   2.217   0.163 -0.2602 -0.3408  1.3570
 1333TIP3   OH2 4004   3.987   0.668   1.771 -0.2239 -0.7237 -0.0349
 1333TIP3    H1 4005   4.010   0.752   1.732 -0.2431 -0.5304  0.3672
 1333TIP3    H2 4006   3.932   0.625   1.705  1.3230 -1.2219 -1.0403
 1334TIP3   OH2 4007   4.146   3.321   0.635  0.1606 -0.2250  0.2607
 1334TIP3    H1 4008   4.119   3.332   0.726  0.5662 -0.7814  0.4606
 1334TIP3    H2 4009   4.191   3.236   0.634 -0.3957 -0.5184 -0.5888
 1335TIP3   OH2 4010   0.116   4.059   1.330 -0.6611  0.4631  0.3859
 1335TIP3    H1 4011   0.125   4.138   1.384 -0.5306  0.9930 -0.3999
 1335TIP3    H2 4012   0.202   4.017   1.334  0.0355  1.6381 -1.1257
 1336TIP3   OH2 4013   0.621   2.816   0.748 -0.5148 -0.3280  0.0775
 1336TIP3    H1 4014   0.662   2.792   0.665 -1.9503  1.1286 -1.1173
 1336TIP3    H2 4015   0.647   2.747   0.809  2.1790 -0.4020 -1.0421
 1337TIP3   OH2 4016   1.061   0.755   3.647 -0.2292  0.2819 -0.3574
 1337TIP3    H1 4017   0.970   0.737   3.669  0.0011  0.2346  0.5848
 1337TIP3    H2 4018   1.079   0.840   3.687  0.2193  0.1591 -0.2938
 1338TIP3   OH2 4019   3.464   1.000   1.585 -0.0761  0.3470  0.1708
 1338TIP3    H1 4020   3.413   0.982   1.663  1.0543 -0.4152  0.7670
 1338TIP3    H2 4021   3.400   1.023   1.518 -1.2440 -1.2744  0.6868
 1339TIP3   OH2 4022   3.467   3.629   4.956 -0.1073  0.3270 -0.2822
 1339TIP3    H1 4023   3.425   3.656   4.875  1.7271 -0.2965 -1.4963
 1339TIP3    H2 4024   3.395   3.595   5.010 -1.3608  0.7718 -1.6155
 1340TIP3   OH2 4025   3.023   1.695   1.703 -0.1291  0.2968 -0.3886
 1340TIP3    H1 4026   3.027   1.650   1.619 -1.8745 -0.9130  0.1098
 1340TIP3    H2 4027   3.056   1.631   1.766  0.9631  1.1166 -0.0943
 1341TIP3   OH2 4028   0.837   1.876   4.293 -0.2378 -0.2501  0.7509
 1341TIP3    H1 4029   0.851   1.946   4.357  0.7997 -0.2795  0.5672
 1341TIP3    H2 4030   0.835   1.796   4.346 -0.3194 -0.1873  0.8439
 1342TIP3   OH2 4031   6.129   4.614   5.111  0.7363 -0.5779  0.2476
 1342TIP3    H1 4032   6.140   4.562   5.190 -2.2240 -0.1198  1.0938
 1342TIP3    H2 4033   6.043   4.656   5.122  1.7027  2.2060 -1.6787
 1343TIP3   OH2 4034   1.058   3.062   4.175 -0.3628 -0.0988  0.4937
 1343TIP3    H1 4035   1.113   2.995   4.135 -0.1610  0.5398 -0.3400
 1343TIP3    H2 4036   1.001   3.092   4.105 -1.7413 -0.6878  1.3280
 1344TIP3   OH2 4037   4.733   3.808   2.155 -0.1028 -0.5098  0.0515
 1344TIP3    H1 4038   4.781   3.850   2.084 -0.1905 -0.7183 -0.1313
 1344TIP3    H2 4039   4.709   3.880   2.214  0.0377 -0.3487 -0.0902
 1345TIP3   OH2 4040   2.710   4.227   1.005 -0.4109 -0.3827 -0.0845
 1345TIP3    H1 4041   2.756   4.160   0.955  0.3010 -0.1057  0.1830
 1345TIP3    H2 4042   2.628   4.186   1.033 -0.6851 -0.6352 -1.2243
 1346TIP3   OH2 4043   2.505   0.560   3.206  0.5002 -0.2465  0.1497
 1346TIP3    H1 4044   2.452   0.562   3.127 -0.7905 -0.0070  0.9950
 1346TIP3    H2 4045   2.505   0.651   3.238 -0.2868 -0.6062  1.2386
 1347TIP3   OH2 4046   1.509   2.259   3.605  0.8902  0.1928  0.4647
 1347TIP3    H1 4047   1.481   2.351   3.612 -1.1229 -0.2033 -1.3224
 1347TIP3    H2 4048   1.549   2.254   3.518 -1.4366 -1.1115 -0.6306
 1348TIP3   OH2 4049   3.507   3.811   0.443 -0.4135 -0.1953 -0.2735
 1348TIP3    H1 4050   3.534   3.896   0.477  0.4633 -0.7250  0.3823
 1348TIP3    H2 4051   3.522   3.750   0.515  1.9621 -1.4354 -1.7011
 1349TIP3   OH2 4052   4.197   4.735   3.201  0.6609  0.0016  0.1018
 1349TIP3    H1 4053   4.284   4.726   3.238  0.7830  0.5503 -0.0420
 1349TIP3    H2 4054   4.211   4.739   3.106  0.3356 -1.5973 -0.0515
 1350TIP3   OH2 4055   0.799   4.271   3.935  0.1914  0.2775 -0.2414
 1350TIP3    H1 4056   0.759   4.257   4.021  0.2301 -0.7448 -0.3790
 1350TIP3    H2 4057   0.765   4.200   3.881 -0.7821  1.5949 -1.4297
 1351TIP3   OH2 4058   1.843   1.238   2.642 -0.4654 -0.2545 -0.0776
 1351TIP3    H1 4059   1.800   1.286   2.571 -0.3991  0.9024  0.6297
 1351TIP3    H2 4060   1.775   1.180   2.676 -0.7959 -0.0911 -0.4481
 1352TIP3   OH2 4061   0.942   3.239   1.858  0.8967  0.0067  0.0396
 1352TIP3    H1 4062   0.931   3.219   1.951  0.0535 -1.1152 -0.2802
 1352TIP3    H2 4063   0.996   3.167   1.825  0.5538 -0.0104 -0.4901
 1353TIP3   OH2 4064   3.824   0.234   4.450  0.0060 -0.1168 -0.1666
 1353TIP3    H1 4065   3.898   0.236   4.511  1.4477 -2.2029 -1.6894
 1353TIP3    H2 4066   3.809   0.326   4.426  2.3583  0.3420 -0.0786
 1354TIP3   OH2 4067   5.623   3.476   2.045  0.2730 -0.2539  0.1056
 1354TIP3    H1 4068   5.638   3.490   2.139  0.5467 -0.2879  0.0682
 1354TIP3    H2 4069   5.613   3.381   2.036  1.1213 -0.3468 -0.0163
 1355TIP3   OH2 4070   5.768   3.165   1.440  0.3029  0.1558 -0.0975
 1355TIP3    H1 4071   5.744   3.257   1.451  0.9764  0.3024  0.2018
 1355TIP3    H2 4072   5.692   3.125   1.398  0.7663  1.2643 -2.1090
 1356TIP3   OH2 4073   5.073   0.674   1.480 -0.1036  0.2184  0.1457
 1356TIP3    H1 4074   5.161   0.652   1.449 -0.5290  0.6419 -1.4113
 1356TIP3    H2 4075   5.017   0.663   1.404 -0.9123  3.0454  0.2230
 1357TIP3   OH2 4076   2.405   1.537   4.270  0.0080  0.3730  0.0450
 1357TIP3    H1 4077   2.483   1.544   4.215 -0.0960  0.3197 -0.1116
 1357TIP3    H2 4078   2.346   1.480   4.221 -0.0507  0.2521  0.2548
 1358TIP3   OH2 4079   2.943   4.159   3.919 -0.4412  0.2811 -0.1312
 1358TIP3    H1 4080   2.937   4.132   3.827 -0.1680  1.0988 -0.3995
 1358TIP3    H2 4081   3.011   4.226   3.919 -0.1425 -0.0104  0.7440
 1359TIP3   OH2 4082   0.278   0.442   2.331 -0.2568 -0.3781 -0.2206
 1359TIP3    H1 4083   0.249   0.531   2.351  1.9357  0.3530 -0.0624
 1359TIP3    H2 4084   0.250   0.427   2.241  0.4825  1.0015 -0.7042
 1360TIP3   OH2 4085   5.516   0.959   0.575  0.0328 -0.3181  0.1814
 1360TIP3    H1 4086   5.425   0.931   0.563 -0.0646  0.3742 -0.7993
 1360TIP3    H2 4087   5.544   0.985   0.488  0.6501  1.0517  0.7682
 1361TIP3   OH2 4088   0.925   2.441   1.582 -0.1243  0.0161 -0.1293
 1361TIP3    H1 4089   0.975   2.371   1.539 -1.9664 -0.9816 -0.7620
 1361TIP3    H2 4090   0.976   2.520   1.565  0.4417 -0.7072 -2.1350
 1362TIP3   OH2 4091   5.075   5.609   1.953  0.0865 -0.4674 -0.4201
 1362TIP3    H1 4092   5.072   5.560   1.871  1.8677  1.6968 -1.9229
 1362TIP3    H2 4093   5.166   5.605   1.981 -0.0815  0.4718  0.3558
 1363TIP3   OH2 4094   0.241   1.047   0.972  0.0162  0.2414  0.0784
 1363TIP3    H1 4095   0.187   0.971   0.950  1.2158  0.1160 -2.9291
 1363TIP3    H2 4096   0.325   1.010   0.998  0.4879  0.4717 -1.0417
 1364TIP3   OH2 4097   5.009   2.262   4.744 -0.4860  0.3852  0.0392
 1364TIP3    H1 4098   4.942   2.239   4.680 -3.1978  1.1985  2.3860
 1364TIP3    H2 4099   4.979   2.345   4.783  1.4799  0.4055  1.7363
 1365TIP3   OH2 4100   6.007   5.872   4.718 -0.0808 -0.7278  0.1527
 1365TIP3    H1 4101   5.977   5.889   4.807 -0.4716 -0.7567  0.0271
 1365TIP3    H2 4102   5.947   5.805   4.684 -1.1692  0.6649 -0.7953
 1366TIP3   OH2 4103   2.643   3.976   5.135  0.1690 -0.6529 -0.0275
 1366TIP3    H1 4104   2.595   3.958   5.054  0.0803  1.0848 -0.4099
 1366TIP3    H2 4105   2.722   3.922   5.129 -0.3963 -1.4184 -0.7236
 1367TIP3   OH2 4106   2.370   1.029   4.630  0.2378  0.2371  0.0018
 1367TIP3    H1 4107   2.301   1.055   4.692 -1.8246 -0.9419 -1.6405
 1367TIP3    H2 4108   2.343   1.071   4.547 -0.1102 -2.4569 -1.3493
 1368TIP3   OH2 4109   1.846   2.486   4.330  0.0909  0.3270 -0.3799
 1368TIP3    H1 4110   1.820   2.434   4.406 -3.0079 -1.2667 -2.3233
 1368TIP3    H2 4111   1.826   2.430   4.255  1.2260  2.5501 -2.4748
 1369TIP3   OH2 4112   3.517   0.414   1.709  0.0684  0.1386  0.0176
 1369TIP3    H1 4113   3.612   0.400   1.710  0.2329  1.1061 -0.5132
 1369TIP3    H2 4114   3.480   0.329   1.686  0.6672 -0.8360  2.3141
 1370TIP3   OH2 4115   3.262   0.975   4.190 -0.1387 -0.0591 -0.5164
 1370TIP3    H1 4116   3.206   0.996   4.115 -0.4422  0.3501 -0.1806
 1370TIP3    H2 4117   3.206   0.923   4.248  0.4003 -1.2218 -1.0243
 1371TIP3   OH2 4118   2.455   0.021   2.177 -0.3545  0.3631  0.3520
 1371TIP3    H1 4119   2.528   0.054   2.228  0.1086 -0.6006  0.3421
 1371TIP3    H2 4120   2.378   0.039   2.230 -0.1181  1.3588  0.3777
 1372TIP3   OH2 4121   4.638   2.838   1.995 -0.3183  0.4298 -0.1014
 1372TIP3    H1 4122   4.699   2.796   1.934  0.1419  0.8680  0.0528
 1372TIP3    H2 4123   4.675   2.924   2.011 -1.9499  1.4322 -1.4594
 1373TIP3   OH2 4124   3.795   5.672   3.164  0.4727 -0.1029  0.5483
 1373TIP3    H1 4125   3.849   5.698   3.090  0.2948  1.0868  0.8125
 1373TIP3    H2 4126   3.738   5.604   3.130  2.5746 -1.9151  0.4337
 1374TIP3   OH2 4127   3.762   1.206   4.690  0.4048  0.0155 -0.1297
 1374TIP3    H1 4128   3.772   1.280   4.750 -2.6492  0.2547  0.2640
 1374TIP3    H2 4129   3.803   1.132   4.736  1.2869  0.9304  0.5958
 1375TIP3   OH2 4130   5.867   0.781   3.466  0.2192  0.0176  0.5155
 1375TIP3    H1 4131   5.936   0.743   3.411 -1.5699 -0.8655 -1.2681
 1375TIP3    H2 4132   5.790   0.728   3.447 -0.8151  0.4564  3.0468
 1376TIP3   OH2 4133   6.293   5.261   0.076 -0.1599  0.2182 -0.4405
 1376TIP3    H1 4134   6.379   5.288   0.111  0.1813  0.1221 -1.1968
 1376TIP3    H2 4135   6.312   5.229  -0.012 -0.5555 -2.3449  0.3109
 1377TIP3   OH2 4136   4.708   2.361   3.831 -0.0624  0.1218 -0.0916
 1377TIP3    H1 4137   4.634   2.303   3.848 -0.1125  0.8072  2.3660
 1377TIP3    H2 4138   4.696   2.434   3.892  1.5666  1.2583 -1.0471
 1378TIP3   OH2 4139   5.611   5.118   2.351 -0.1494  0.1539  0.1895
 1378TIP3    H1 4140   5.526   5.115   2.395 -0.6021  1.8818 -0.4877
 1378TIP3    H2 4141   5.595   5.081   2.265  0.3268 -1.5621  0.7998
 1379TIP3   OH2 4142   2.979   2.126   4.121  0.1094 -0.4379  0.5889
 1379TIP3    H1 4143   2.898   2.177   4.115  2.2065  3.0229 -1.1801
 1379TIP3    H2 4144   2.976   2.067   4.046 -1.0200 -0.8998  0.9614
 1380TIP3   OH2 4145   0.676   1.131   4.377 -0.1169  0.2022 -0.3607
 1380TIP3    H1 4146   0.644   1.169   4.458 -0.4958 -0.2652 -0.2858
 1380TIP3    H2 4147   0.713   1.047   4.402  5.0282  2.2936  0.2571
 1381TIP3   OH2 4148   5.362   5.432   3.694  0.0621  0.7388  0.2827
 1381TIP3    H1 4149   5.336   5.523   3.682 -0.8631  0.4176 -0.2930
 1381TIP3    H2 4150   5.452   5.428   3.662 -0.4208  1.1336 -1.1863
 1382TIP3   OH2 4151   1.467   5.367   0.488 -0.0909  0.4708  0.3969
 1382TIP3    H1 4152   1.377   5.399   0.484  0.3673  1.8085  0.3011
 1382TIP3    H2 4153   1.474   5.306   0.414 -1.1455 -0.3062  0.9086
 1383TIP3   OH2 4154   1.763   3.597   3.697  0.4677  0.0894 -0.4467
 1383TIP3    H1 4155   1.767   3.682   3.654  0.2175 -0.5422 -1.7643
 1383TIP3    H2 4156   1.715   3.613   3.778  0.4647  1.2002 -0.6593
 1384TIP3   OH2 4157   2.663   2.532   1.703 -0.0457 -0.0022  0.5638
 1384TIP3    H1 4158   2.649   2.438   1.692 -0.5398  0.3088 -2.1997
 1384TIP3    H2 4159   2.575   2.570   1.695  0.1544  0.7067  1.5864
 1385TIP3   OH2 4160   2.430   5.939   2.455 -0.1503 -0.0748 -0.2023
 1385TIP3    H1 4161   2.434   5.925   2.361 -2.0319 -0.5833 -0.2475
 1385TIP3    H2 4162   2.383   6.022   2.465  1.2144  0.6791  0.2998
 1386TIP3   OH2 4163   5.756   3.921   1.253  0.1231  0.2081  0.1647
 1386TIP3    H1 4164   5.838   3.882   1.224  0.2134  1.5837 -1.6594
 1386TIP3    H2 4165   5.756   3.910   1.348  2.5817  0.4315  0.2630
 1387TIP3   OH2 4166   5.702   3.439   0.287  0.3476 -0.2358  0.1346
 1387TIP3    H1 4167   5.683   3.414   0.378 -1.1366 -0.2083 -0.1435
 1387TIP3    H2 4168   5.671   3.365   0.235 -3.5118  1.6721 -0.6653
 1388TIP3   OH2 4169   4.942   3.310   1.796  1.2930 -0.1154 -0.0356
 1388TIP3    H1 4170   4.978   3.222   1.795  1.0936 -0.2249  1.1555
 1388TIP3    H2 4171   4.876   3.310   1.726  2.7059 -0.2618 -1.4322
 1389TIP3   OH2 4172   0.519   5.884   2.011 -0.3253  0.6416 -0.4581
 1389TIP3    H1 4173   0.437   5.917   2.047 -1.1442 -0.5785 -1.1053
 1389TIP3    H2 4174   0.553   5.826   2.078 -1.4986 -1.0887 -1.2644
 1390TIP3   OH2 4175   0.556   3.475   2.077 -0.0832 -0.1715  0.0947
 1390TIP3    H1 4176   0.467   3.493   2.047  0.0915  1.5326  0.4983
 1390TIP3    H2 4177   0.573   3.541   2.144  1.4070 -0.6076  0.1932
 1391TIP3   OH2 4178   5.687   5.380   2.966  0.8210 -0.5474  0.1150
 1391TIP3    H1 4179   5.674   5.384   3.061 -0.2321 -0.8689 -0.0017
 1391TIP3    H2 4180   5.671   5.469   2.936 -1.5820 -0.9633 -0.0484
 1392TIP3   OH2 4181   0.746   3.101   4.238  0.2351  0.5105 -0.2058
 1392TIP3    H1 4182   0.754   3.117   4.144  0.8462 -0.1148 -0.2753
 1392TIP3    H2 4183   0.742   3.005   4.245  2.4968  0.3996  0.5315
 1393TIP3   OH2 4184   2.421   1.966   0.338  0.2915 -0.2862  0.0474
 1393TIP3    H1 4185   2.513   1.946   0.356  0.6189  0.0947 -1.1442
 1393TIP3    H2 4186   2.420   1.997   0.248 -1.1530 -1.2001 -0.2816
 1394TIP3   OH2 4187   3.076   5.782   3.745  0.8774 -0.3008 -0.3046
 1394TIP3    H1 4188   3.123   5.786   3.829  0.1821  0.0720  0.0784
 1394TIP3    H2 4189   3.075   5.873   3.714  0.4453 -0.3118 -0.3264
 1395TIP3   OH2 4190   4.587   2.469   4.896 -0.1922  0.2147 -0.4109
 1395TIP3    H1 4191   4.656   2.406   4.919  0.5258  1.3413  0.6527
 1395TIP3    H2 4192   4.532   2.423   4.832 -0.8796 -2.2366  1.7858
 1396TIP3   OH2 4193   1.577   2.824   0.203  0.4796  0.1073 -0.1567
 1396TIP3    H1 4194   1.581   2.916   0.228  0.1859  0.4215 -1.2121
 1396TIP3    H2 4195   1.668   2.794   0.206  0.4781  0.1611  1.0906
 1397TIP3   OH2 4196   0.240   1.808   3.834 -0.0371  0.0430  0.0342
 1397TIP3    H1 4197   0.281   1.808   3.921 -0.2499  1.4951  0.1590
 1397TIP3    H2 4198   0.164   1.752   3.843  1.4178 -2.0366  0.0313
 1398TIP3   OH2 4199   3.770   2.530   2.516 -0.0896  0.3229 -0.1897
 1398TIP3    H1 4200   3.730   2.617   2.524 -1.5819  0.0156 -2.9696
 1398TIP3    H2 4201   3.697   2.469   2.525  0.7073 -0.5985  0.2786
 1399TIP3   OH2 4202   4.667   3.158   0.207  0.0356  0.6201  0.3417
 1399TIP3    H1 4203   4.631   3.116   0.129  1.2806  0.7086 -0.3050
 1399TIP3    H2 4204   4.615   3.122   0.279  0.0893 -0.9000 -0.3340
 1400TIP3   OH2 4205   2.621   1.016   3.593 -0.2995  0.4703 -0.0791
 1400TIP3    H1 4206   2.605   1.065   3.513  0.2027  1.5796  0.4745
 1400TIP3    H2 4207   2.609   1.079   3.664 -2.0956 -0.8146  0.8405
 1401TIP3   OH2 4208   2.421   4.805   4.802 -0.2089  0.3370  0.1620
 1401TIP3    H1 4209   2.414   4.729   4.860  0.8564 -1.4150 -1.8372
 1401TIP3    H2 4210   2.347   4.861   4.827 -2.0966 -2.1699  0.6636
 1402TIP3   OH2 4211   1.085   5.370   4.848 -0.2760 -0.1318  0.2725
 1402TIP3    H1 4212   1.012   5.332   4.799 -0.8718  0.7291  0.4565
 1402TIP3    H2 4213   1.129   5.296   4.888  0.4761 -0.9249 -1.8588
 1403TIP3   OH2 4214   3.800   1.726   1.650  0.3294  0.0413  0.0207
 1403TIP3    H1 4215   3.857   1.745   1.575  1.6707 -0.8444  0.7814
 1403TIP3    H2 4216   3.798   1.631   1.655 -1.0504  0.0544  0.1764
 1404TIP3   OH2 4217   2.880   3.445   5.021  0.1536 -0.0309  0.4349
 1404TIP3    H1 4218   2.843   3.517   5.072  1.7821  0.1421  1.4258
 1404TIP3    H2 4219   2.803   3.403   4.981 -0.8082  3.7885 -2.4308
 1405TIP3   OH2 4220   6.363   3.221   3.387 -0.0242 -0.2403  0.0990
 1405TIP3    H1 4221   6.382   3.141   3.337 -0.1936  1.0657 -2.2137
 1405TIP3    H2 4222   6.273   3.243   3.364  0.6330  1.6395 -0.9406
 1406TIP3   OH2 4223   1.365   5.618   0.918 -0.0018 -0.0092 -0.1026
 1406TIP3    H1 4224   1.274   5.643   0.899 -0.3201 -1.3298 -0.4640
 1406TIP3    H2 4225   1.360   5.524   0.937  1.3239 -0.1549 -0.3854
 1407TIP3   OH2 4226   6.264   4.403   0.120 -0.0749 -0.1895 -0.2433
 1407TIP3    H1 4227   6.229   4.398   0.031 -2.8143  0.9374  0.6597
 1407TIP3    H2 4228   6.292   4.494   0.130  0.1485 -0.2922  0.0853
 1408TIP3   OH2 4229   4.866   2.602   0.076  0.5953 -0.0694 -0.0602
 1408TIP3    H1 4230   4.811   2.600   0.154  1.9033  0.6580  0.8983
 1408TIP3    H2 4231   4.865   2.511   0.044  2.2313 -1.0376  2.3861
 1409TIP3   OH2 4232   0.014   5.604   1.360  0.1648  0.3926 -0.4814
 1409TIP3    H1 4233   0.017   5.656   1.280 -2.0348 -1.0101 -1.5687
 1409TIP3    H2 4234  -0.030   5.661   1.424 -1.6012  0.1868 -1.4547
 1410TIP3   OH2 4235   5.336   5.682   4.727 -0.4839 -0.7417  0.0780
 1410TIP3    H1 4236   5.313   5.775   4.737 -0.1772 -0.7424  0.8693
 1410TIP3    H2 4237   5.287   5.653   4.651 -0.8872 -0.0198  0.0579
 1411TIP3   OH2 4238   4.535   5.000   0.508 -0.2159 -0.0464  0.4747
 1411TIP3    H1 4239   4.564   5.036   0.592  0.3243  1.1839 -0.2165
 1411TIP3    H2 4240   4.441   5.020   0.505  0.2749  2.4209 -0.3905
 1412TIP3   OH2 4241   3.082   5.828   1.062 -0.0559  0.4590 -0.4024
 1412TIP3    H1 4242   3.141   5.845   1.135  0.2317 -0.5487 -0.3807
 1412TIP3    H2 4243   3.057   5.736   1.072 -0.2701  0.3968 -1.3829
 1413TIP3   OH2 4244   6.187   5.930   2.277 -0.0029 -0.2993  0.1114
 1413TIP3    H1 4245   6.118   5.934   2.343 -1.3011  0.5050 -1.2384
 1413TIP3    H2 4246   6.175   6.009   2.225  2.3313  0.1685  0.1691
 1414TIP3   OH2 4247   2.300   2.598   1.123  0.1588  0.2087  0.6925
 1414TIP3    H1 4248   2.230   2.544   1.161 -0.1599  0.1276  0.0045
 1414TIP3    H2 4249   2.367   2.602   1.192 -0.6348  0.5153  1.4778
 1415TIP3   OH2 4250   0.406   2.629   1.568 -0.4258  0.4467 -0.3692
 1415TIP3    H1 4251   0.437   2.648   1.656 -0.3906 -0.2933 -0.2105
 1415TIP3    H2 4252   0.369   2.711   1.536  0.5138  0.9991 -0.0669
 1416TIP3   OH2 4253   5.667   5.869   1.866 -0.5378 -0.2320 -1.1229
 1416TIP3    H1 4254   5.599   5.851   1.802 -1.3351 -1.2950 -0.0143
 1416TIP3    H2 4255   5.678   5.787   1.914 -0.7626  0.8343  0.8560
 1417TIP3   OH2 4256   0.835   0.949   3.497  0.1838  0.4410  0.3772
 1417TIP3    H1 4257   0.854   1.031   3.542 -2.6614  0.4546  1.7652
 1417TIP3    H2 4258   0.771   0.973   3.429  1.0803 -0.3054 -0.7865
 1418TIP3   OH2 4259   2.690   3.148   4.642  0.4464  0.6456  0.5128
 1418TIP3    H1 4260   2.633   3.100   4.581  1.5918  1.0146 -0.9039
 1418TIP3    H2 4261   2.748   3.081   4.677  0.9304  0.7049 -0.1598
 1419TIP3   OH2 4262   2.600   4.248   1.427 -0.3096 -0.0632 -0.3414
 1419TIP3    H1 4263   2.522   4.243   1.483 -0.1045  0.4875 -0.0050
 1419TIP3    H2 4264   2.568   4.221   1.341 -0.2794 -2.4781  0.3474
 1420TIP3   OH2 4265   4.308   2.116   2.093  0.2343 -0.2421  0.0161
 1420TIP3    H1 4266   4.307   2.203   2.052  1.1360 -0.3187 -0.2022
 1420TIP3    H2 4267   4.257   2.126   2.173  0.2312  0.4597 -0.0677
 1421TIP3   OH2 4268   5.661   4.569   4.790 -0.1688  0.6158  0.1454
 1421TIP3    H1 4269   5.720   4.494   4.790  2.7658  2.7433  0.1235
 1421TIP3    H2 4270   5.704   4.633   4.847 -3.1187  1.8972  1.0845
 1422TIP3   OH2 4271   1.192   3.397   3.359 -0.2253 -0.4498  0.3620
 1422TIP3    H1 4272   1.270   3.363   3.315 -2.2216 -2.9461 -1.5704
 1422TIP3    H2 4273   1.199   3.365   3.449  0.8893 -0.7520  0.1856
 1423TIP3   OH2 4274   4.225   5.367   4.879  0.0991  0.5700 -0.0219
 1423TIP3    H1 4275   4.184   5.396   4.798 -0.6881  0.0866  0.1872
 1423TIP3    H2 4276   4.251   5.449   4.923 -1.1693  0.9348  0.0950
 1424TIP3   OH2 4277   2.934   2.742   3.596 -0.4124 -0.3090  0.3951
 1424TIP3    H1 4278   2.975   2.728   3.681 -1.0310 -0.9603  0.5904
 1424TIP3    H2 4279   2.842   2.722   3.609 -0.4604 -0.7625 -0.5063
 1425TIP3   OH2 4280   4.060   4.944   2.374 -0.1857 -0.1444  0.4048
 1425TIP3    H1 4281   4.145   4.903   2.359  0.9072  2.8165 -2.7825
 1425TIP3    H2 4282   4.076   5.009   2.441  0.3273  0.9081 -0.7034
 1426TIP3   OH2 4283   2.713   2.664   2.061  0.0858 -0.3681 -0.3801
 1426TIP3    H1 4284   2.792   2.617   2.034  0.9455 -0.4496  2.0458
 1426TIP3    H2 4285   2.729   2.686   2.152 -2.9311 -0.8354  0.3485
 1427TIP3   OH2 4286   5.052   1.876   2.300  0.7044  0.7193 -0.5374
 1427TIP3    H1 4287   5.090   1.929   2.230 -1.4993  0.8954 -1.6875
 1427TIP3    H2 4288   4.971   1.921   2.324 -0.9820 -1.7214 -1.1728
 1428TIP3   OH2 4289   2.320   1.423   3.515  0.6179  0.4222  0.8521
 1428TIP3    H1 4290   2.305   1.502   3.462  0.7475 -0.4649 -0.5503
 1428TIP3    H2 4291   2.304   1.351   3.455  0.9600 -0.6245  1.9947
 1429TIP3   OH2 4292   4.582   3.290   4.787  0.0602  0.3641 -0.4996
 1429TIP3    H1 4293   4.599   3.345   4.863  3.7101 -0.5739 -0.4913
 1429TIP3    H2 4294   4.581   3.351   4.713  1.8647  0.7552 -0.2418
 1430TIP3   OH2 4295   1.021   2.230   4.217  0.2408 -0.0387 -0.3085
 1430TIP3    H1 4296   1.003   2.179   4.296  4.1510 -1.5506 -0.1861
 1430TIP3    H2 4297   1.076   2.302   4.247 -2.7625  2.8083 -0.9678
 1431TIP3   OH2 4298   0.769   3.872   0.904  0.5026 -0.3236  0.1491
 1431TIP3    H1 4299   0.778   3.784   0.868  0.9187  0.1159 -0.8701
 1431TIP3    H2 4300   0.693   3.867   0.961 -0.0322 -1.1273 -0.6021
 1432TIP3   OH2 4301   5.453   4.378   3.675 -0.3738 -0.0733 -0.0388
 1432TIP3    H1 4302   5.392   4.449   3.653  0.5369  0.4372 -1.0268
 1432TIP3    H2 4303   5.508   4.415   3.744 -0.4426 -0.1076  0.0333
 1433TIP3   OH2 4304   6.184   0.305   4.578 -0.5060  0.2159 -0.3573
 1433TIP3    H1 4305   6.142   0.371   4.633 -0.6277 -0.1117 -0.0529
 1433TIP3    H2 4306   6.111   0.255   4.542 -0.4139  0.2493 -0.5895
 1434TIP3   OH2 4307   4.238   0.230   0.185 -0.3686 -0.0902  0.1658
 1434TIP3    H1 4308   4.147   0.257   0.191  0.0671  1.2056  1.7110
 1434TIP3    H2 4309   4.258   0.192   0.271  0.8531  0.7776  0.2917
 1435TIP3   OH2 4310   4.209   2.650   4.683  0.2315 -0.2207  0.4416
 1435TIP3    H1 4311   4.181   2.739   4.659 -2.4528 -0.8629  0.7782
 1435TIP3    H2 4312   4.283   2.663   4.742  1.4048  1.6738 -1.3211
 1436TIP3   OH2 4313   2.741   2.001   4.189  0.0258 -0.2863  0.5493
 1436TIP3    H1 4314   2.817   2.009   4.246  1.9183 -0.3864 -1.8206
 1436TIP3    H2 4315   2.759   1.924   4.134 -1.8064 -0.3347 -0.0830
 1437TIP3   OH2 4316   4.888   2.784   1.533 -0.3698  0.1005 -0.4495
 1437TIP3    H1 4317   4.812   2.840   1.520  0.0436  0.3864 -1.8047
 1437TIP3    H2 4318   4.917   2.761   1.444  0.3806 -1.0216  0.0537
 1438TIP3   OH2 4319   5.448   2.311   2.405  0.0610 -0.0536 -0.2024
 1438TIP3    H1 4320   5.427   2.281   2.493 -0.0432 -0.5898 -0.4030
 1438TIP3    H2 4321   5.537   2.281   2.389 -0.1032 -0.4148 -0.4670
 1439TIP3   OH2 4322   1.072   3.452   2.351  0.2149 -0.7478 -0.1671
 1439TIP3    H1 4323   0.984   3.420   2.335  0.4422 -1.6202  0.2347
 1439TIP3    H2 4324   1.066   3.502   2.433 -0.1208  0.1806 -0.7414
 1440TIP3   OH2 4325   6.217   5.744   3.350 -0.2865 -0.3102  0.2903
 1440TIP3    H1 4326   6.129   5.740   3.389  0.0635 -1.5667  0.9971
 1440TIP3    H2 4327   6.262   5.812   3.401 -0.0905 -1.3823  1.5953
 1441TIP3   OH2 4328   1.258   2.565   1.355 -0.0864 -0.4038 -0.1578
 1441TIP3    H1 4329   1.193   2.623   1.394 -0.1311 -0.5288 -0.0476
 1441TIP3    H2 4330   1.311   2.534   1.428  0.2776 -0.0776 -0.2808
 1442TIP3   OH2 4331   6.142   4.523   1.629 -0.2615 -0.6789 -0.9402
 1442TIP3    H1 4332   6.174   4.495   1.715 -0.0644  0.5570 -0.5992
 1442TIP3    H2 4333   6.046   4.524   1.639 -0.2226 -0.0137 -0.5491
 1443TIP3   OH2 4334   2.272   4.767   4.288 -0.4299  0.1140 -0.1856
 1443TIP3    H1 4335   2.211   4.702   4.322  0.0264 -0.0131  0.4034
 1443TIP3    H2 4336   2.258   4.845   4.342 -1.1325  0.5908 -1.0339
 1444TIP3   OH2 4337   0.244   4.000   2.554  0.2451 -0.1721  0.1949
 1444TIP3    H1 4338   0.183   3.955   2.495  1.0172 -0.7367 -0.1943
 1444TIP3    H2 4339   0.284   3.929   2.605  0.6214  0.1842  0.3961
 1445TIP3   OH2 4340   1.928   3.612   0.851  0.1872  0.1777 -0.2370
 1445TIP3    H1 4341   1.964   3.638   0.766  0.1098 -0.4269 -0.4615
 1445TIP3    H2 4342   1.998   3.560   0.891  0.0268  0.0267 -0.1537
 1446TIP3   OH2 4343   4.742   1.842   2.013 -0.0413 -0.6341  0.1867
 1446TIP3    H1 4344   4.793   1.920   1.994 -1.9026  0.6567  0.2655
 1446TIP3    H2 4345   4.732   1.843   2.108 -2.0488  0.3784  0.0017
 1447TIP3   OH2 4346   4.754   3.387   0.277 -0.9159 -0.2122  0.2270
 1447TIP3    H1 4347   4.845   3.379   0.249 -1.0034  1.9687 -0.9295
 1447TIP3    H2 4348   4.716   3.301   0.263  0.5388 -0.6943 -0.9290
 1448TIP3   OH2 4349   3.423   3.319   0.722  0.1291  0.6707  0.4665
 1448TIP3    H1 4350   3.403   3.233   0.759 -0.2127  1.3871  2.0539
 1448TIP3    H2 4351   3.486   3.356   0.783  0.6949  1.3399 -0.5070
 1449TIP3   OH2 4352   0.307   3.348   2.730  0.2628  0.3066  0.1141
 1449TIP3    H1 4353   0.280   3.368   2.820  0.4030  1.2024 -0.0337
 1449TIP3    H2 4354   0.402   3.337   2.735  0.3611  1.0796 -0.0507
 1450TIP3   OH2 4355   1.298   0.274   4.401  0.1973 -0.1863  0.1367
 1450TIP3    H1 4356   1.207   0.304   4.402  0.3430  0.2449  0.9179
 1450TIP3    H2 4357   1.326   0.287   4.310 -0.3574  0.1794  0.0115
 1451TIP3   OH2 4358   0.146   3.576   3.728 -0.3080  0.3700  0.0303
 1451TIP3    H1 4359   0.109   3.632   3.660 -0.5105 -0.2462 -0.3702
 1451TIP3    H2 4360   0.081   3.507   3.741 -0.7798  1.0674  1.6226
 1452TIP3   OH2 4361   5.855   1.459   0.461  0.4529  0.5120 -0.4920
 1452TIP3    H1 4362   5.852   1.546   0.500 -0.0638  1.7097 -2.9974
 1452TIP3    H2 4363   5.947   1.447   0.438  0.3805  0.7636 -0.9142
 1453TIP3   OH2 4364   0.332   3.224   0.984 -0.5063 -0.0911 -0.0220
 1453TIP3    H1 4365   0.297   3.269   0.907 -0.8902  0.2332  0.3376
 1453TIP3    H2 4366   0.418   3.192   0.955 -0.6389  0.0402 -0.5791
 1454TIP3   OH2 4367   2.806   3.188   3.862 -0.3540 -0.3267 -0.2132
 1454TIP3    H1 4368   2.747   3.181   3.787 -1.1396 -0.3787  0.4015
 1454TIP3    H2 4369   2.749   3.185   3.939  0.5811 -2.3734  0.4790
 1455TIP3   OH2 4370   0.850   1.213   3.634  0.0776  0.2847  0.4621
 1455TIP3    H1 4371   0.871   1.288   3.577  0.5348 -0.2582 -0.0984
 1455TIP3    H2 4372   0.764   1.233   3.669 -0.2625  0.5894 -0.5018
 1456TIP3   OH2 4373   1.781   3.024   0.643  0.1222  0.2512 -0.0312
 1456TIP3    H1 4374   1.800   2.940   0.600  0.7694 -0.1200  0.9462
 1456TIP3    H2 4375   1.730   3.000   0.720  0.5631  0.7330  0.4125
 1457TIP3   OH2 4376   2.704   3.662   5.108  0.0275 -0.1625 -0.9850
 1457TIP3    H1 4377   2.609   3.673   5.106  0.0510  1.3067  1.5241
 1457TIP3    H2 4378   2.730   3.662   5.015 -2.2494  1.0679 -1.7149
 1458TIP3   OH2 4379   2.931   3.526   2.377  0.2669 -0.5475 -0.2259
 1458TIP3    H1 4380   2.965   3.588   2.312  1.8660  0.7387  1.6989
 1458TIP3    H2 4381   2.859   3.572   2.419  0.1408 -0.8072 -0.1570
 1459TIP3   OH2 4382   3.992   0.678   2.829  0.2367  0.1557 -0.0336
 1459TIP3    H1 4383   4.046   0.667   2.751 -0.7738  0.0101 -0.7437
 1459TIP3    H2 4384   3.902   0.676   2.796 -0.2005  0.6628  1.0717
 1460TIP3   OH2 4385   2.590   0.761   1.277 -0.2738 -0.0778 -0.0355
 1460TIP3    H1 4386   2.522   0.826   1.296 -1.9492 -1.1953 -1.8202
 1460TIP3    H2 4387   2.651   0.806   1.218 -0.1137  0.5825  0.6324
 1461TIP3   OH2 4388   2.648   3.392   4.860  0.4213 -0.0504  0.0933
 1461TIP3    H1 4389   2.601   3.475   4.859 -1.2412 -0.8779  2.2578
 1461TIP3    H2 4390   2.642   3.360   4.770 -3.2430 -0.0843  0.1965
 1462TIP3   OH2 4391   0.683   3.969   4.645 -0.1252 -0.0894  0.5135
 1462TIP3    H1 4392   0.612   3.958   4.708  0.1887 -2.0634  0.5818
 1462TIP3    H2 4393   0.639   3.976   4.560 -0.4190 -0.6979  0.6174
 1463TIP3   OH2 4394   0.675   3.592   2.473  0.3270 -0.3216  0.2833
 1463TIP3    H1 4395   0.610   3.660   2.463  0.6101  0.0809  1.1002
 1463TIP3    H2 4396   0.625   3.511   2.478 -0.1862  0.0601  1.7808
 1464TIP3   OH2 4397   5.548   0.986   2.394 -0.3377 -0.3124 -0.0268
 1464TIP3    H1 4398   5.612   0.971   2.464  0.2757 -0.2335 -0.5520
 1464TIP3    H2 4399   5.602   1.003   2.316 -1.0045 -0.2115 -0.4761
 1465TIP3   OH2 4400   2.982   1.810   2.533  0.2974  0.3589  0.0957
 1465TIP3    H1 4401   2.985   1.850   2.446  1.2053 -0.0326 -0.0642
 1465TIP3    H2 4402   2.890   1.814   2.558 -0.0001  0.3495 -0.9543
 1466TIP3   OH2 4403   4.232   0.221   3.977  0.8136 -0.4233 -0.4749
 1466TIP3    H1 4404   4.172   0.247   3.907  0.1405  0.5719  0.4320
 1466TIP3    H2 4405   4.197   0.139   4.010  0.4433 -0.2882 -0.5281
 1467TIP3   OH2 4406   4.241   1.611   4.670  0.4064  0.1012 -0.2713
 1467TIP3    H1 4407   4.185   1.686   4.692  1.7557  0.5055  2.1508
 1467TIP3    H2 4408   4.211   1.541   4.727  0.3754 -0.6543 -1.1867
 1468TIP3   OH2 4409   0.489   2.885   0.431  0.3669  0.3858 -0.7060
 1468TIP3    H1 4410   0.515   2.804   0.386  2.1766  0.2587  0.4838
 1468TIP3    H2 4411   0.405   2.863   0.472  1.2892 -1.2735  0.4372
 1469TIP3   OH2 4412   5.353   4.014   4.711  0.3630  0.8096  0.2947
 1469TIP3    H1 4413   5.322   3.987   4.625 -1.5443 -0.7885  1.3887
 1469TIP3    H2 4414   5.427   3.956   4.729 -0.8221 -0.6615  0.7063
 1470TIP3   OH2 4415   4.275   5.820   0.252  0.1327 -0.8566 -0.8242
 1470TIP3    H1 4416   4.198   5.797   0.304  0.1978 -0.0464 -0.3516
 1470TIP3    H2 4417   4.302   5.738   0.212 -2.3574 -0.7720 -2.9258
 1471TIP3   OH2 4418   5.777   4.219   1.210 -0.1265 -0.1892  0.6023
 1471TIP3    H1 4419   5.717   4.146   1.194 -1.7785  1.2449 -0.1168
 1471TIP3    H2 4420   5.732   4.272   1.277  1.1155  0.0961  1.2327
 1472TIP3   OH2 4421   6.191   2.323   3.888  0.6648 -0.1738  0.1272
 1472TIP3    H1 4422   6.170   2.415   3.904  0.1437 -0.0463 -1.2036
 1472TIP3    H2 4423   6.261   2.325   3.822 -1.2420 -0.7316 -2.0337
 1473TIP3   OH2 4424   5.822   1.918   4.536 -0.1343  0.3725  0.2366
 1473TIP3    H1 4425   5.892   1.957   4.484  0.0006  0.8995  0.7986
 1473TIP3    H2 4426   5.791   1.990   4.591  0.2399 -0.3545  1.4320
 1474TIP3   OH2 4427   4.209   2.848   3.995 -0.7316 -0.4411 -0.0703
 1474TIP3    H1 4428   4.138   2.847   4.059 -0.5910 -1.2730  0.0846
 1474TIP3    H2 4429   4.212   2.759   3.961  0.2715 -0.4231 -0.0491
 1475TIP3   OH2 4430   2.785   5.194   4.639  0.4469 -0.5159 -0.1767
 1475TIP3    H1 4431   2.754   5.124   4.696 -0.5552  1.5542  1.9876
 1475TIP3    H2 4432   2.874   5.169   4.617  0.0635 -2.5362  0.3515
 1476TIP3   OH2 4433   3.589   2.697   3.310  1.0571 -0.8514  0.1725
 1476TIP3    H1 4434   3.592   2.738   3.223  1.1316 -0.8734  0.1645
 1476TIP3    H2 4435   3.519   2.743   3.356  0.2839 -1.5774 -0.2669
 1477TIP3   OH2 4436   5.108   2.744   2.812  0.2700  0.5102 -0.3517
 1477TIP3    H1 4437   5.091   2.672   2.751 -0.3571  0.1775  0.2120
 1477TIP3    H2 4438   5.058   2.722   2.890  2.9387 -0.3477  1.2648
 1478TIP3   OH2 4439   3.896   1.191   0.408 -0.3777 -0.5183 -0.0848
 1478TIP3    H1 4440   3.915   1.284   0.424 -3.5146 -0.1862  2.8180
 1478TIP3    H2 4441   3.890   1.153   0.496 -2.0545 -2.7893 -1.0987
 1479TIP3   OH2 4442   1.230   5.094   2.990  0.2284  0.4092 -0.0270
 1479TIP3    H1 4443   1.281   5.042   3.051  2.2651  2.3165 -0.0026
 1479TIP3    H2 4444   1.280   5.092   2.908 -0.9077  0.3745 -0.7523
 1480TIP3   OH2 4445   5.264   3.480   4.129 -0.5697  0.1285 -0.5809
 1480TIP3    H1 4446   5.294   3.566   4.102 -1.1910  0.3495 -0.5856
 1480TIP3    H2 4447   5.316   3.418   4.077  1.0384  0.4435  0.5774
 1481TIP3   OH2 4448   4.397   5.485   0.455 -0.0172 -0.4540  0.9072
 1481TIP3    H1 4449   4.467   5.534   0.499 -0.6329 -0.3453  1.7853
 1481TIP3    H2 4450   4.316   5.518   0.494 -0.6459  0.1195 -0.7878
 1482TIP3   OH2 4451   1.675   5.671   1.657 -0.4869  0.2888 -0.7703
 1482TIP3    H1 4452   1.634   5.585   1.646  0.7279 -0.4867  0.3466
 1482TIP3    H2 4453   1.697   5.699   1.569  0.2800 -1.1780 -1.0822
 1483TIP3   OH2 4454   4.294   2.462   3.119 -0.6423 -0.0171 -0.0500
 1483TIP3    H1 4455   4.255   2.550   3.123  0.0371  0.3289 -0.6707
 1483TIP3    H2 4456   4.351   2.466   3.042  1.6270 -0.0659  1.5461
 1484TIP3   OH2 4457   5.816   4.329   4.864  0.2178 -0.0713 -0.0583
 1484TIP3    H1 4458   5.904   4.292   4.854 -0.3697 -1.2753 -1.1426
 1484TIP3    H2 4459   5.787   4.300   4.950  0.1714 -1.3163 -0.4725
 1485TIP3   OH2 4460   0.438   4.311   0.695  1.0213 -0.2201 -0.1366
 1485TIP3    H1 4461   0.343   4.296   0.698  0.7475  1.3368 -0.3373
 1485TIP3    H2 4462   0.474   4.243   0.751 -0.0784 -1.8627 -1.3230
 1486TIP3   OH2 4463   2.158   3.609   0.397 -0.0304  0.5117 -0.1762
 1486TIP3    H1 4464   2.229   3.550   0.424 -0.3589  0.2778  0.1832
 1486TIP3    H2 4465   2.203   3.680   0.352  0.4504  0.4205  0.1448
 1487TIP3   OH2 4466   3.293   1.990   4.579  0.4049  0.5710 -0.3220
 1487TIP3    H1 4467   3.377   2.034   4.591  1.0254 -0.7360  0.3552
 1487TIP3    H2 4468   3.288   1.974   4.485  1.4853 -0.3757 -0.2434
 1488TIP3   OH2 4469   5.948   4.226   2.549 -0.0355  0.6790  0.6360
 1488TIP3    H1 4470   5.878   4.162   2.560  0.1586  0.4902  0.7830
 1488TIP3    H2 4471   6.025   4.184   2.588  0.3287  0.5810 -0.1636
 1489TIP3   OH2 4472   1.169   0.474   3.981 -0.2069  0.2910  0.4415
 1489TIP3    H1 4473   1.082   0.506   3.957  0.5307  2.1076  0.0414
 1489TIP3    H2 4474   1.223   0.491   3.904  0.4153 -1.3194  0.4805
 1490TIP3   OH2 4475   4.172   0.970   3.896 -0.2566  0.4655  0.5225
 1490TIP3    H1 4476   4.227   0.998   3.969  1.0415  1.4888 -0.7839
 1490TIP3    H2 4477   4.171   0.874   3.902  1.7455  0.3942  0.5817
 1491TIP3   OH2 4478   0.585   3.333   1.406  0.4047 -0.1573 -0.4313
 1491TIP3    H1 4479   0.524   3.260   1.390  0.5097  0.0203 -1.6627
 1491TIP3    H2 4480   0.626   3.310   1.490 -0.7111 -0.7199 -0.0140
 1492TIP3   OH2 4481   1.136   5.159   3.964  0.6263 -0.1139  0.0767
 1492TIP3    H1 4482   1.105   5.247   3.945  1.7300  0.4579  0.8126
 1492TIP3    H2 4483   1.095   5.136   4.047 -1.4042 -1.2088 -1.1539
 1493TIP3   OH2 4484   5.598   1.902   0.928  0.2859 -0.1969 -0.2280
 1493TIP3    H1 4485   5.649   1.836   0.975  0.0982 -0.5314 -0.4859
 1493TIP3    H2 4486   5.635   1.903   0.840 -0.1118 -0.4082 -0.4035
 1494TIP3   OH2 4487   1.743   0.464   0.536 -0.3904 -0.0556  0.3890
 1494TIP3    H1 4488   1.691   0.470   0.456  0.8899  1.9725 -0.3602
 1494TIP3    H2 4489   1.748   0.370   0.555 -2.7428 -0.4251 -0.5088
 1495TIP3   OH2 4490   2.874   3.476   3.848  0.4915 -0.1364  0.2486
 1495TIP3    H1 4491   2.886   3.509   3.937  2.0260 -1.9285  0.7617
 1495TIP3    H2 4492   2.805   3.410   3.856  1.1853 -0.8748  0.2977
 1496TIP3   OH2 4493   5.987   0.926   5.102  0.3089  0.5595  0.0810
 1496TIP3    H1 4494   5.981   0.996   5.038  1.3054 -0.1110 -0.7746
 1496TIP3    H2 4495   6.081   0.917   5.120  0.2158 -0.6051  0.1053
 1497TIP3   OH2 4496   1.800   1.032   1.556  0.1191  0.0148  0.5785
 1497TIP3    H1 4497   1.857   1.016   1.481 -0.6071 -0.7321  0.1602
 1497TIP3    H2 4498   1.855   1.078   1.619  0.8660  0.2673 -0.2386
 1498TIP3   OH2 4499   1.067   1.063   0.403 -0.0968  0.2410 -0.4038
 1498TIP3    H1 4500   1.047   1.040   0.312  1.1475 -0.0305 -0.6279
 1498TIP3    H2 4501   1.163   1.067   0.406 -0.0274 -1.2670  1.2519
 1499TIP3   OH2 4502   2.020   0.040   1.111  0.5237  0.4285  0.3270
 1499TIP3    H1 4503   1.938   0.085   1.134  0.3246 -0.0636  0.5993
 1499TIP3    H2 4504   2.005   0.008   1.022  1.4519  2.6987 -0.7253
 1500TIP3   OH2 4505   0.460   5.925   4.537 -0.1355 -0.2345  0.2080
 1500TIP3    H1 4506   0.444   5.886   4.624 -0.1735 -1.0509 -0.1571
 1500TIP3    H2 4507   0.537   5.879   4.504 -0.5036 -0.3897 -0.4588
 1501TIP3   OH2 4508   0.583   4.222   2.316  0.6144  0.0389  0.7388
 1501TIP3    H1 4509   0.674   4.243   2.295  1.0074  0.4565  2.6620
 1501TIP3    H2 4510   0.537   4.227   2.232  2.1890  0.6826 -0.1274
 1502TIP3   OH2 4511   1.897   2.714   2.475 -0.3751  0.2603 -0.2482
 1502TIP3    H1 4512   1.849   2.632   2.465  0.1854 -0.0773 -0.2484
 1502TIP3    H2 4513   1.874   2.765   2.397  0.1399 -0.3596 -0.8226
 1503TIP3   OH2 4514   2.622   3.470   1.761  0.0985 -0.0712  0.1451
 1503TIP3    H1 4515   2.611   3.443   1.853 -0.2686 -2.1393 -0.4458
 1503TIP3    H2 4516   2.640   3.388   1.715 -0.6614  0.7948 -1.7717
 1504TIP3   OH2 4517   3.411   2.997   0.198 -0.4699  0.6769  0.0790
 1504TIP3    H1 4518   3.398   2.913   0.155 -2.0908  1.8047 -1.8040
 1504TIP3    H2 4519   3.351   3.057   0.154  0.8661  2.9312  1.1059
 1505TIP3   OH2 4520   5.309   2.632   2.959  0.2452  0.4945  0.1173
 1505TIP3    H1 4521   5.262   2.632   2.876  1.0279 -1.3905 -0.3614
 1505TIP3    H2 4522   5.401   2.641   2.935  0.5992 -1.2806  0.6514
 1506TIP3   OH2 4523   5.363   4.937   3.438  0.1339 -0.0488  0.5151
 1506TIP3    H1 4524   5.436   4.888   3.400  0.4797  2.4638 -2.5426
 1506TIP3    H2 4525   5.402   5.019   3.467 -1.1830  0.6864  0.3136
 1507TIP3   OH2 4526   5.059   5.586   3.172 -0.3395 -0.7851 -0.1207
 1507TIP3    H1 4527   5.091   5.503   3.135 -0.3184 -0.1561 -1.5693
 1507TIP3    H2 4528   4.995   5.617   3.108 -0.7092  0.0851  0.6579
 1508TIP3   OH2 4529   3.604   4.986   2.359  0.1863  0.0158  0.0904
 1508TIP3    H1 4530   3.539   5.039   2.405  0.0105 -2.0711  2.5036
 1508TIP3    H2 4531   3.555   4.942   2.290 -0.1546  1.1903 -0.4301
 1509TIP3   OH2 4532   4.967   3.042   0.350 -0.0027  0.6513  0.3150
 1509TIP3    H1 4533   5.032   3.109   0.327 -0.1466  0.6095 -0.2272
 1509TIP3    H2 4534   4.912   3.034   0.272  0.5841 -0.7840  0.0318
 1510TIP3   OH2 4535   2.336   3.617   3.399 -0.2344  0.0697 -0.2983
 1510TIP3    H1 4536   2.244   3.624   3.424  0.0896 -0.2511  1.1117
 1510TIP3    H2 4537   2.366   3.537   3.443  0.6032 -0.0811 -1.1229
 1511TIP3   OH2 4538   6.009   2.901   5.010  0.0572  0.0293  0.2895
 1511TIP3    H1 4539   5.947   2.894   5.083  1.3902 -1.6354  1.3636
 1511TIP3    H2 4540   5.997   2.819   4.961 -1.2505  1.3890 -1.7924
 1512TIP3   OH2 4541   2.685   4.016   1.747  0.3149 -0.2905  0.0381
 1512TIP3    H1 4542   2.779   4.012   1.766  0.1119 -0.6638  1.0554
 1512TIP3    H2 4543   2.660   4.107   1.763  0.6336 -0.0221 -0.9437
 1513TIP3   OH2 4544   4.931   1.924   1.382 -0.0858 -0.5429  0.4769
 1513TIP3    H1 4545   4.917   2.019   1.391 -1.3494 -0.8003  1.4117
 1513TIP3    H2 4546   5.005   1.917   1.322  0.8180  1.0606  1.3339
 1514TIP3   OH2 4547   4.169   4.420   1.280  0.2073  0.3743  0.5599
 1514TIP3    H1 4548   4.176   4.515   1.276 -2.6368  0.8382  2.9021
 1514TIP3    H2 4549   4.194   4.398   1.369 -0.2974 -0.9443  0.3941
 1515TIP3   OH2 4550   1.888   3.329   0.431  0.3434  0.0246  0.2441
 1515TIP3    H1 4551   1.872   3.424   0.434  1.8203  0.3040 -0.0343
 1515TIP3    H2 4552   1.927   3.308   0.515  1.0277 -0.1290 -0.1045
 1516TIP3   OH2 4553   5.357   2.753   3.910 -0.5945  0.3093 -0.0271
 1516TIP3    H1 4554   5.284   2.809   3.939 -2.2325 -2.0276  0.6794
 1516TIP3    H2 4555   5.370   2.692   3.982  1.5194  0.0928 -0.5373
 1517TIP3   OH2 4556   1.937   5.771   0.964 -0.1099 -0.7395  0.2263
 1517TIP3    H1 4557   1.872   5.794   1.031 -0.5548 -4.0531  1.0950
 1517TIP3    H2 4558   1.895   5.704   0.911  1.3498 -0.3687 -1.5079
 1518TIP3   OH2 4559   0.119  -0.010   5.017 -0.0168 -0.3094  0.1353
 1518TIP3    H1 4560   0.062   0.021   4.946 -2.9715  0.2545  2.5407
 1518TIP3    H2 4561   0.162   0.070   5.048 -1.0039 -0.0168  0.8082
 1519TIP3   OH2 4562   1.801   3.698   2.502  0.1984 -0.1734 -0.2603
 1519TIP3    H1 4563   1.785   3.650   2.421 -1.5347  0.7514 -0.5254
 1519TIP3    H2 4564   1.723   3.679   2.556 -0.9684  2.8539 -0.6787
 1520TIP3   OH2 4565   2.750   2.334   3.198  0.2140 -0.0800 -0.1163
 1520TIP3    H1 4566   2.840   2.365   3.205  0.0163  1.2347 -2.3371
 1520TIP3    H2 4567   2.703   2.380   3.268  0.6898  1.7511 -0.9378
 1521TIP3   OH2 4568   1.439   5.153   1.175 -0.1417 -0.3933  0.7706
 1521TIP3    H1 4569   1.371   5.130   1.239 -0.4690 -1.2131  0.1485
 1521TIP3    H2 4570   1.442   5.078   1.116 -1.8842  1.4748 -1.9195
 1522TIP3   OH2 4571   0.897   0.593   1.123  0.4351  0.1217  0.0515
 1522TIP3    H1 4572   0.816   0.570   1.170  1.5342 -0.7281  1.6719
 1522TIP3    H2 4573   0.908   0.523   1.059  0.7121 -0.6867  0.9574
 1523TIP3   OH2 4574   5.910   4.187   1.476 -0.6515 -0.3909 -0.0146
 1523TIP3    H1 4575   5.826   4.168   1.435 -1.4625 -0.8845  1.7659
 1523TIP3    H2 4576   5.936   4.104   1.516  1.0329 -0.4189 -1.0688
 1524TIP3   OH2 4577   0.029   2.376   4.770 -0.3004 -0.2760  0.4267
 1524TIP3    H1 4578   0.010   2.367   4.676  2.1499  0.9050 -0.2644
 1524TIP3    H2 4579   0.124   2.373   4.775 -0.2932  1.4577  2.6971
 1525TIP3   OH2 4580   1.130   5.755   1.749 -0.2412 -0.3358 -0.4589
 1525TIP3    H1 4581   1.167   5.801   1.824 -0.8142  1.0797 -1.0244
 1525TIP3    H2 4582   1.035   5.764   1.760 -0.4082 -2.0776 -0.1706
 1526TIP3   OH2 4583   1.006   0.286   2.443  0.2685  0.0555  0.3372
 1526TIP3    H1 4584   0.971   0.219   2.384 -0.3555  1.0054 -0.4052
 1526TIP3    H2 4585   0.934   0.307   2.502  0.4545  0.0920  0.5551
 1527TIP3   OH2 4586   2.959   0.236   0.229 -0.6540  0.6698  0.1768
 1527TIP3    H1 4587   2.962   0.140   0.224 -0.2308  0.7353 -1.0985
 1527TIP3    H2 4588   3.028   0.259   0.291 -0.8190  0.1599  0.5610
 1528TIP3   OH2 4589   4.221   2.629   0.541  0.0189  0.2292  0.2910
 1528TIP3    H1 4590   4.256   2.553   0.494 -0.4444  0.3330 -0.2360
 1528TIP3    H2 4591   4.253   2.704   0.491 -0.5007  0.3402  0.1220
 1529TIP3   OH2 4592   5.885   0.655   5.108  0.2482 -1.2520  0.7515
 1529TIP3    H1 4593   5.872   0.626   5.018 -1.2226 -0.7493  0.7760
 1529TIP3    H2 4594   5.876   0.750   5.104 -0.2694 -1.2613  1.4782
 1530TIP3   OH2 4595   0.051   2.654   4.700 -0.1572 -0.6712  0.1652
 1530TIP3    H1 4596  -0.003   2.608   4.764 -0.2807 -0.4930  0.1912
 1530TIP3    H2 4597   0.138   2.615   4.709 -0.0470 -0.3005  0.8056
 1531TIP3   OH2 4598   5.999   0.130   2.062 -0.0435 -0.0123  0.0375
 1531TIP3    H1 4599   6.076   0.182   2.083  0.5735 -0.9005  0.0192
 1531TIP3    H2 4600   5.938   0.147   2.134  1.1861 -1.3103  1.4510
 1532TIP3   OH2 4601   0.378   0.222   1.354 -0.0058  0.3651 -0.2683
 1532TIP3    H1 4602   0.406   0.309   1.327 -2.4695  2.2335  2.5993
 1532TIP3    H2 4603   0.455   0.167   1.343  1.6219  2.8515 -2.2388
 1533TIP3   OH2 4604   0.337   0.512   0.481 -0.1051  0.4893 -0.1647
 1533TIP3    H1 4605   0.275   0.559   0.425 -0.2413  1.6272  0.8959
 1533TIP3    H2 4606   0.329   0.421   0.454 -1.0320  0.8452 -1.1739
 1534TIP3   OH2 4607   2.638   4.451   4.705  0.5370  0.3857 -0.2350
 1534TIP3    H1 4608   2.670   4.529   4.659  1.4526 -0.3938 -0.9593
 1534TIP3    H2 4609   2.662   4.466   4.796  0.2569  1.1754 -0.2839
 1535TIP3   OH2 4610   5.526   3.773   3.909 -0.0099  0.1817 -0.0992
 1535TIP3    H1 4611   5.610   3.735   3.882 -0.3485 -0.6166 -0.0364
 1535TIP3    H2 4612   5.471   3.769   3.831 -0.2104  0.0714  0.0470
 1536TIP3   OH2 4613   4.643   3.379   4.141 -0.4407 -0.6659 -0.0599
 1536TIP3    H1 4614   4.687   3.310   4.191  1.4352  1.3177  1.2158
 1536TIP3    H2 4615   4.666   3.361   4.050 -0.3903 -1.9827  0.2002
 1537TIP3   OH2 4616   1.317   4.198   2.749 -0.0645 -0.1454  0.4077
 1537TIP3    H1 4617   1.223   4.198   2.730  0.5053 -0.1909 -3.2217
 1537TIP3    H2 4618   1.334   4.283   2.789 -1.4548  0.5389 -0.3791
 1538TIP3   OH2 4619   2.433   3.446   3.604  0.2412 -0.3038 -0.3423
 1538TIP3    H1 4620   2.439   3.400   3.688  0.6739  2.3574  1.1824
 1538TIP3    H2 4621   2.469   3.533   3.622 -1.2483  0.9310 -2.8629
 1539TIP3   OH2 4622   3.278   3.274   0.192 -0.5104  0.2034 -0.1003
 1539TIP3    H1 4623   3.304   3.293   0.282 -3.0058 -0.0681  0.7788
 1539TIP3    H2 4624   3.225   3.194   0.199 -0.4070 -0.0620 -1.8739
 1540TIP3   OH2 4625   5.820   1.545   1.658  0.2585 -0.3939 -0.2766
 1540TIP3    H1 4626   5.752   1.591   1.708 -0.4093 -0.9545 -0.6510
 1540TIP3    H2 4627   5.901   1.592   1.680 -0.0861 -0.3136  0.9358
 1541TIP3   OH2 4628   3.109   1.860   0.090 -0.2425 -0.0329 -0.2111
 1541TIP3    H1 4629   3.124   1.895   0.178 -0.0843 -1.1962  0.2453
 1541TIP3    H2 4630   3.040   1.795   0.102  0.0459 -0.4710 -0.8812
 1542TIP3   OH2 4631   5.394   1.029   4.486  0.2983  0.4327 -0.3646
 1542TIP3    H1 4632   5.409   1.080   4.566 -0.2345 -0.2956  0.2224
 1542TIP3    H2 4633   5.341   0.955   4.516 -0.3498  0.4222 -1.4904
 1543TIP3   OH2 4634   3.765   0.432   2.961  0.9135 -0.3684  0.3541
 1543TIP3    H1 4635   3.755   0.350   3.009  0.8195 -1.1501 -0.9479
 1543TIP3    H2 4636   3.814   0.408   2.882 -2.1807  0.0497 -1.8745
 1544TIP3   OH2 4637   5.570   2.215   4.450 -0.3439  0.4188  0.1189
 1544TIP3    H1 4638   5.632   2.246   4.385 -0.1380 -0.8744 -0.3354
 1544TIP3    H2 4639   5.547   2.126   4.422 -0.4832 -0.0648  1.6311
 1545TIP3   OH2 4640   5.345   3.189   1.514 -0.2386  0.2020  0.1344
 1545TIP3    H1 4641   5.360   3.283   1.506 -2.6829  0.8049  1.4422
 1545TIP3    H2 4642   5.354   3.171   1.608 -3.0035 -0.1140  0.4239
 1546TIP3   OH2 4643   6.287   1.498   1.027  0.1485  0.7991 -0.1220
 1546TIP3    H1 4644   6.209   1.554   1.024 -0.7914 -0.4259  0.4250
 1546TIP3    H2 4645   6.358   1.556   1.055 -1.1550  1.3450  2.3150
 1547TIP3   OH2 4646   1.560   2.647   3.697  0.3795  0.1678 -0.1298
 1547TIP3    H1 4647   1.586   2.626   3.607  1.2268 -0.5397  0.2675
 1547TIP3    H2 4648   1.472   2.612   3.705 -0.4603  1.8568 -1.2361
 1548TIP3   OH2 4649   5.811   2.217   1.121  0.4966 -0.2822  0.3665
 1548TIP3    H1 4650   5.835   2.214   1.213 -0.2193  0.1627  0.5762
 1548TIP3    H2 4651   5.830   2.307   1.094 -0.0964 -0.1707  0.3100
 1549TIP3   OH2 4652  -0.015   1.390   1.737 -0.0884 -0.1681 -0.2172
 1549TIP3    H1 4653   0.027   1.342   1.809  1.2431  1.4892  0.1927
 1549TIP3    H2 4654   0.023   1.353   1.658 -0.0086 -0.6190  0.0279
 1550TIP3   OH2 4655   0.875   0.787   1.763 -0.1847 -0.3741  0.7789
 1550TIP3    H1 4656   0.837   0.868   1.729 -2.8616 -1.6738  0.4118
 1550TIP3    H2 4657   0.882   0.801   1.857 -2.2755 -0.2678  0.9628
 1551TIP3   OH2 4658   0.335   3.872   3.234  0.4116  0.2704 -0.0653
 1551TIP3    H1 4659   0.300   3.891   3.321 -1.3765  0.0779 -0.7106
 1551TIP3    H2 4660   0.367   3.957   3.202 -0.8182  0.7556 -0.0327
 1552TIP3   OH2 4661   4.106   4.820   1.217 -0.5717  0.4254  1.0363
 1552TIP3    H1 4662   4.196   4.785   1.218 -0.7326 -0.0009  2.2464
 1552TIP3    H2 4663   4.117   4.914   1.230 -0.1981  0.7204 -1.0808
 1553TIP3   OH2 4664   5.405   1.528   2.095 -0.0181 -0.4151 -0.2055
 1553TIP3    H1 4665   5.429   1.564   2.010 -2.2289  0.0500 -0.6919
 1553TIP3    H2 4666   5.407   1.433   2.083 -2.1807 -0.3707 -1.4233
 1554TIP3   OH2 4667   1.191   5.348   3.067  0.0571 -0.1871 -0.4259
 1554TIP3    H1 4668   1.212   5.259   3.039  2.1763  0.3210 -0.6658
 1554TIP3    H2 4669   1.231   5.356   3.154 -0.0067  0.5544 -0.4569
 1555TIP3   OH2 4670   5.289   5.803   0.685  0.0258  0.8417  0.0751
 1555TIP3    H1 4671   5.214   5.836   0.736 -0.3545 -0.9003  0.6906
 1555TIP3    H2 4672   5.253   5.788   0.598 -0.6162 -0.8698  0.6070
 1556TIP3   OH2 4673   2.612   1.670   4.089  0.1455  0.2804 -0.2589
 1556TIP3    H1 4674   2.668   1.728   4.036 -1.2839  2.4068  0.4023
 1556TIP3    H2 4675   2.523   1.693   4.061 -0.4918 -1.3058  0.4006
 1557TIP3   OH2 4676   1.239   4.650   4.711 -0.2025 -0.0846 -0.4902
 1557TIP3    H1 4677   1.334   4.661   4.719 -0.3176 -0.1126  1.0805
 1557TIP3    H2 4678   1.217   4.701   4.632  1.1949 -0.6928 -1.3171
 1558TIP3   OH2 4679   4.807   2.528   1.537  0.7760  0.2455  0.2757
 1558TIP3    H1 4680   4.814   2.493   1.625 -1.5569 -0.0452  0.3967
 1558TIP3    H2 4681   4.828   2.621   1.546 -0.2548  0.3872  1.2896
 1559TIP3   OH2 4682   0.864   5.768   3.732 -0.1583  0.2199 -0.1207
 1559TIP3    H1 4683   0.800   5.830   3.767 -0.9943 -0.2338 -0.7959
 1559TIP3    H2 4684   0.863   5.695   3.793 -1.2765 -0.3664 -0.7907
 1560TIP3   OH2 4685   3.771   1.198   2.364 -0.1764  0.2941 -0.3371
 1560TIP3    H1 4686   3.716   1.272   2.337  0.2320  0.7636  0.0955
 1560TIP3    H2 4687   3.731   1.166   2.445 -0.2401  0.1637 -0.4195
 1561TIP3   OH2 4688   2.145   4.348   2.480  0.1371  0.0222  0.0431
 1561TIP3    H1 4689   2.224   4.318   2.525  0.1693  0.0397 -0.0008
 1561TIP3    H2 4690   2.153   4.443   2.479  0.2983  0.0096 -0.2868
 1562TIP3   OH2 4691   2.549   3.065   5.052 -0.1292 -0.0791  0.6365
 1562TIP3    H1 4692   2.585   3.001   4.991  0.6227  1.0723 -0.1705
 1562TIP3    H2 4693   2.511   3.132   4.995  2.0578  1.8762  1.3531
 1563TIP3   OH2 4694   1.641   0.174   4.295 -0.3765  0.3106 -0.1193
 1563TIP3    H1 4695   1.660   0.263   4.326 -0.2589  0.2606 -0.0455
 1563TIP3    H2 4696   1.634   0.182   4.200 -2.4601  0.7928  0.0285
 1564TIP3   OH2 4697   4.394   5.124   4.865 -0.5866 -0.2565  0.5264
 1564TIP3    H1 4698   4.335   5.200   4.862 -0.2117  0.0204  0.0111
 1564TIP3    H2 4699   4.381   5.081   4.781 -0.2399 -0.3340  0.5115
 1565TIP3   OH2 4700   0.857   2.011   0.566 -0.1502 -0.2953  0.5670
 1565TIP3    H1 4701   0.873   2.103   0.546  1.7981 -0.8911 -0.9457
 1565TIP3    H2 4702   0.827   2.010   0.657 -2.7999  2.0127 -0.1343
 1566TIP3   OH2 4703   3.024   0.336   1.402  0.0446 -0.2119  0.1528
 1566TIP3    H1 4704   2.968   0.312   1.327 -0.0852 -1.5176  0.6393
 1566TIP3    H2 4705   3.102   0.375   1.362 -1.4544  2.3075 -0.5274
 1567TIP3   OH2 4706   0.434   3.053   2.625 -0.1178 -0.6509  0.0002
 1567TIP3    H1 4707   0.485   2.975   2.651  1.6480  0.8278  1.2600
 1567TIP3    H2 4708   0.472   3.124   2.677 -0.8152  1.3150 -2.0519
 1568TIP3   OH2 4709   5.542   4.777   1.228 -0.3162  0.4125 -0.6057
 1568TIP3    H1 4710   5.523   4.870   1.241 -1.0862  0.4581 -1.9324
 1568TIP3    H2 4711   5.508   4.757   1.141 -1.2410 -1.3989  0.1132
 1569TIP3   OH2 4712   4.293   2.763   3.329 -0.0296 -0.2735 -0.3580
 1569TIP3    H1 4713   4.268   2.741   3.419  2.1467  0.1695  0.4141
 1569TIP3    H2 4714   4.209   2.773   3.283 -1.1791 -2.0178  1.2144
 1570TIP3   OH2 4715   4.294   5.722   4.113 -0.0058  0.3483 -0.1605
 1570TIP3    H1 4716   4.344   5.803   4.104 -0.6697  0.6036 -2.2606
 1570TIP3    H2 4717   4.260   5.705   4.025  0.0461 -2.1938  0.2179
 1571TIP3   OH2 4718   2.141   4.321   4.684  0.1946  0.1155 -0.1800
 1571TIP3    H1 4719   2.207   4.389   4.668  1.5677 -0.9115  0.7909
 1571TIP3    H2 4720   2.148   4.262   4.609 -1.3875  1.2659 -1.3057
 1572TIP3   OH2 4721   5.932   5.693   4.462 -0.1593 -0.9170  0.0156
 1572TIP3    H1 4722   5.985   5.615   4.445 -1.2419 -1.0312 -3.6927
 1572TIP3    H2 4723   5.994   5.766   4.452  0.2223 -1.1715  0.4620
 1573TIP3   OH2 4724   0.647   4.182   1.786  0.0476  0.0447 -0.4638
 1573TIP3    H1 4725   0.712   4.136   1.732  0.4742  2.2637 -1.9689
 1573TIP3    H2 4726   0.692   4.261   1.815 -1.2400  0.4651  0.4822
 1574TIP3   OH2 4727   2.321   3.332   0.670 -0.5832  0.2348 -0.6707
 1574TIP3    H1 4728   2.366   3.416   0.669 -1.2755  0.6575  0.8772
 1574TIP3    H2 4729   2.381   3.273   0.716 -0.3513  0.0036 -1.2474
 1575TIP3   OH2 4730   0.135   2.823   4.271  0.4436  0.1754 -0.4800
 1575TIP3    H1 4731   0.208   2.851   4.326 -0.2915  2.6307 -0.6342
 1575TIP3    H2 4732   0.070   2.787   4.332  1.1887 -0.7504 -0.2083
 1576TIP3   OH2 4733   1.267   1.735   2.321  0.3280  0.1095 -0.7278
 1576TIP3    H1 4734   1.202   1.705   2.258 -1.2358  2.8887 -0.5792
 1576TIP3    H2 4735   1.231   1.710   2.406 -0.1025  0.8171 -0.6961
 1577TIP3   OH2 4736   0.132   2.957   0.796 -0.2125  0.0203 -0.0261
 1577TIP3    H1 4737   0.094   2.892   0.854  1.7126 -1.8211 -0.6891
 1577TIP3    H2 4738   0.221   2.971   0.831  0.7327 -0.5920 -2.0386
 1578TIP3   OH2 4739   5.466   4.060   2.386 -0.1923  0.0370  0.1652
 1578TIP3    H1 4740   5.375   4.045   2.361 -0.5440 -0.9438  1.8772
 1578TIP3    H2 4741   5.492   3.981   2.433  0.6426  1.3532  2.0943
 1579TIP3   OH2 4742   3.243   0.279   1.954  0.0428  0.1203  0.3116
 1579TIP3    H1 4743   3.330   0.282   1.994  1.0083 -0.7244 -1.5862
 1579TIP3    H2 4744   3.258   0.245   1.866 -2.0806  1.0272 -0.4823
 1580TIP3   OH2 4745   1.911   0.786   4.866 -0.2056 -0.1467  0.0846
 1580TIP3    H1 4746   1.937   0.842   4.939  1.3017 -0.8818  0.1624
 1580TIP3    H2 4747   1.989   0.782   4.810 -1.4872  0.8338 -1.8909
 1581TIP3   OH2 4748   0.545   1.909   4.487  0.6829  0.2746 -0.5624
 1581TIP3    H1 4749   0.471   1.857   4.456 -0.0377  1.0743 -0.2479
 1581TIP3    H2 4750   0.549   1.893   4.581 -0.4822  1.8624 -0.1933
 1582TIP3   OH2 4751   1.385   4.605   1.435  0.1143 -0.0837  0.1235
 1582TIP3    H1 4752   1.307   4.598   1.489  0.8713 -0.4696  1.2130
 1582TIP3    H2 4753   1.356   4.581   1.347 -1.1680  0.6586  0.3208
 1583TIP3   OH2 4754   3.934   1.474   4.343 -0.4100 -0.2419  0.0913
 1583TIP3    H1 4755   4.028   1.487   4.355 -0.0631 -0.1711 -2.2777
 1583TIP3    H2 4756   3.911   1.407   4.408  1.3194 -0.4962  0.5044
 1584TIP3   OH2 4757   0.998   2.049   0.067 -0.1413 -0.1902  0.4554
 1584TIP3    H1 4758   0.959   1.995   0.136 -1.3541  0.8869  0.6550
 1584TIP3    H2 4759   0.924   2.074   0.011  0.7283 -0.5334 -0.8921
 1585TIP3   OH2 4760   3.235   2.763   4.294  0.0916 -0.0413 -0.1687
 1585TIP3    H1 4761   3.155   2.786   4.247 -0.8512 -3.4942 -0.5682
 1585TIP3    H2 4762   3.229   2.811   4.377 -3.2137 -1.2267  0.4486
 1586TIP3   OH2 4763   6.284   2.794   2.027 -0.1413  0.1338  0.4352
 1586TIP3    H1 4764   6.338   2.751   1.961 -2.3213 -0.3058 -1.2138
 1586TIP3    H2 4765   6.328   2.877   2.044  1.3328 -0.4382 -0.3759
 1587TIP3   OH2 4766   2.654   2.152   2.016 -0.4281 -0.0115 -0.8047
 1587TIP3    H1 4767   2.670   2.085   2.084  1.0695  0.7627 -0.3354
 1587TIP3    H2 4768   2.681   2.109   1.935 -3.2240 -1.3197 -1.1637
 1588TIP3   OH2 4769   0.869   2.149   3.333  0.6194 -0.0787 -0.5720
 1588TIP3    H1 4770   0.908   2.136   3.246  1.8103  1.4422 -0.3158
 1588TIP3    H2 4771   0.938   2.192   3.384  0.0328 -1.1723  1.2306
 1589TIP3   OH2 4772   5.702   3.212   1.822  0.2029  0.6098  0.0422
 1589TIP3    H1 4773   5.612   3.185   1.807  0.5562  0.0022 -1.0237
 1589TIP3    H2 4774   5.715   3.200   1.917 -0.2615 -1.0848 -0.0799
 1590TIP3   OH2 4775   0.526   3.554   4.350 -0.1338  0.1238  0.7773
 1590TIP3    H1 4776   0.591   3.563   4.281 -0.3292 -1.2678  0.3683
 1590TIP3    H2 4777   0.573   3.575   4.431  0.6271 -0.1282  0.4106
 1591TIP3   OH2 4778   4.466   3.820   2.496  0.3089  0.3632  0.2707
 1591TIP3    H1 4779   4.478   3.877   2.421 -0.4538  0.6593  0.3618
 1591TIP3    H2 4780   4.417   3.874   2.559 -0.1948 -0.3057  0.4575
 1592TIP3   OH2 4781   3.161   1.230   3.339  0.2928 -0.3734 -0.4972
 1592TIP3    H1 4782   3.090   1.167   3.325  0.2609 -0.5622  0.4449
 1592TIP3    H2 4783   3.165   1.280   3.258 -1.6275  0.3380 -0.2126
 1593TIP3   OH2 4784   5.728   4.732   1.943 -0.0715 -0.2019  0.3519
 1593TIP3    H1 4785   5.666   4.747   2.014 -1.1228  0.8636 -0.7565
 1593TIP3    H2 4786   5.688   4.662   1.891 -0.8337  1.0894 -0.8601
 1594TIP3   OH2 4787   0.838   4.646   3.400 -0.1378 -0.7302  0.0112
 1594TIP3    H1 4788   0.814   4.602   3.482  0.4725 -2.4782 -0.6906
 1594TIP3    H2 4789   0.933   4.652   3.404 -0.1347 -0.5229 -0.4301
 1595TIP3   OH2 4790   2.870   1.342   3.742  0.2116  0.5478 -0.4472
 1595TIP3    H1 4791   2.898   1.251   3.730 -0.4046  0.2095  0.5476
 1595TIP3    H2 4792   2.843   1.370   3.655 -0.5157 -0.5477 -0.5944
 1596TIP3   OH2 4793   2.621   0.031   0.399 -0.5469  0.2555  0.4149
 1596TIP3    H1 4794   2.708   0.071   0.408 -0.1987 -0.1935 -0.7712
 1596TIP3    H2 4795   2.571   0.096   0.350 -0.7413  0.3057  0.6790
 1597TIP3   OH2 4796   6.271   0.957   1.582  0.2097  0.2368  0.5582
 1597TIP3    H1 4797   6.289   0.926   1.671 -0.7582  0.2603  0.7770
 1597TIP3    H2 4798   6.318   0.896   1.525  0.7977  0.1941  1.0814
 1598TIP3   OH2 4799   0.558   0.927   3.825 -0.6835  0.6083 -0.2055
 1598TIP3    H1 4800   0.622   0.896   3.888 -1.9965 -0.4229  0.6816
 1598TIP3    H2 4801   0.480   0.874   3.841 -1.7239  1.7049 -1.3349
 1599TIP3   OH2 4802   4.049   5.579   4.017 -0.2963 -0.1627 -0.5251
 1599TIP3    H1 4803   4.013   5.636   4.085 -0.1262  1.0974 -1.4783
 1599TIP3    H2 4804   3.999   5.498   4.026 -2.4987  1.0822 -0.9783
 1600TIP3   OH2 4805   1.966   1.881   0.542  0.5783 -0.3116  0.2900
 1600TIP3    H1 4806   1.880   1.842   0.557  0.2591  0.3410  0.2149
 1600TIP3    H2 4807   1.995   1.843   0.459 -1.1443  1.9052 -1.5025
 1601TIP3   OH2 4808   4.948   5.017   3.362  0.3779  0.0235 -0.8370
 1601TIP3    H1 4809   4.977   4.933   3.398 -1.5512 -0.7812 -1.0364
 1601TIP3    H2 4810   4.914   4.995   3.275 -0.8344  0.8743 -0.5985
 1602TIP3   OH2 4811   4.559   4.379   3.391 -0.1721  0.3737 -0.2356
 1602TIP3    H1 4812   4.643   4.424   3.381 -0.0205 -0.1005 -1.2758
 1602TIP3    H2 4813   4.519   4.384   3.304  0.2120 -2.1558 -0.6573
 1603TIP3   OH2 4814   5.431   1.819   2.618  0.1489  0.1503 -0.3585
 1603TIP3    H1 4815   5.368   1.747   2.611 -1.2986  1.4836 -1.8284
 1603TIP3    H2 4816   5.401   1.870   2.694  0.4149 -0.0987 -0.0865
 1604TIP3   OH2 4817   6.341   1.019   2.908 -0.2142  0.1456  0.6090
 1604TIP3    H1 4818   6.245   1.028   2.902 -0.0788  0.6936 -1.4458
 1604TIP3    H2 4819   6.375   1.084   2.846  1.4266 -1.1885  0.0346
 1605TIP3   OH2 4820   4.149   2.588   4.255  0.2179  0.7354  0.1622
 1605TIP3    H1 4821   4.083   2.657   4.263 -0.6267 -0.0893  0.4139
 1605TIP3    H2 4822   4.111   2.513   4.301  0.8262 -0.1150 -0.7059
 1606TIP3   OH2 4823   6.186   4.413   2.989 -0.2456 -0.5709  0.2105
 1606TIP3    H1 4824   6.278   4.387   2.994 -0.0397 -0.1861 -1.2877
 1606TIP3    H2 4825   6.152   4.395   3.077  1.3982 -0.1631  0.9694
 1607TIP3   OH2 4826   2.989   2.449   3.317 -0.1639 -0.6801  0.0452
 1607TIP3    H1 4827   2.949   2.532   3.295  0.8260 -0.5381 -1.3241
 1607TIP3    H2 4828   3.083   2.467   3.320  0.0091 -1.5788  0.5000
 1608TIP3   OH2 4829   1.909   0.806   2.664 -0.2340 -0.4352  0.5859
 1608TIP3    H1 4830   1.885   0.882   2.718 -0.8832 -1.2788  1.5054
 1608TIP3    H2 4831   1.947   0.744   2.726 -2.1079 -1.9236  0.3329
 1609TIP3   OH2 4832   6.262   3.433   3.762  0.1771  0.5378 -0.7295
 1609TIP3    H1 4833   6.201   3.366   3.730  2.3594 -2.4281  0.8720
 1609TIP3    H2 4834   6.249   3.435   3.856  2.9646 -0.8113 -0.2098
 1610TIP3   OH2 4835   0.739   4.577   0.846  0.3775  0.0846  0.3500
 1610TIP3    H1 4836   0.783   4.563   0.762  1.7268  0.6718  0.9244
 1610TIP3    H2 4837   0.790   4.526   0.908  0.8556  1.5564  1.2065
 1611TIP3   OH2 4838   2.455   1.825   2.876  0.7831  0.0133 -0.6769
 1611TIP3    H1 4839   2.475   1.837   2.783 -0.0009 -0.3333 -0.8930
 1611TIP3    H2 4840   2.384   1.761   2.878 -0.6968  1.5914  0.0395
 1612TIP3   OH2 4841   6.057   1.290   3.108  0.5129 -0.4365  0.0866
 1612TIP3    H1 4842   5.996   1.216   3.102  0.5457 -0.6764  2.0312
 1612TIP3    H2 4843   6.114   1.281   3.031 -2.0116 -0.0491 -1.9794
 1613TIP3   OH2 4844   3.419   4.868   2.171 -0.2833  0.7086 -0.6773
 1613TIP3    H1 4845   3.472   4.817   2.110 -0.0694  0.0986  0.0210
 1613TIP3    H2 4846   3.342   4.814   2.187 -0.8220  1.3064 -1.1719
 1614TIP3   OH2 4847   2.226   2.183   4.009 -0.5392  0.3649  0.6414
 1614TIP3    H1 4848   2.293   2.245   4.038  0.0806  1.1818 -2.2460
 1614TIP3    H2 4849   2.265   2.139   3.933 -1.4642 -2.7005  1.7919
 1615TIP3   OH2 4850   6.157   2.162   2.094  0.0426 -0.1018 -0.4635
 1615TIP3    H1 4851   6.209   2.139   2.171 -1.2503 -1.1510  0.1444
 1615TIP3    H2 4852   6.216   2.149   2.020  0.9425 -0.2791  0.2728
 1616TIP3   OH2 4853   0.856   3.958   1.454  0.2793  0.2558  0.9179
 1616TIP3    H1 4854   0.846   4.043   1.412 -1.1690  0.7316  2.1228
 1616TIP3    H2 4855   0.920   3.972   1.524  2.3763 -0.4375 -0.7531
 1617TIP3   OH2 4856   4.853   0.611   4.897  0.4146 -0.6964 -0.2922
 1617TIP3    H1 4857   4.928   0.595   4.955 -1.2162 -4.0236  1.1957
 1617TIP3    H2 4858   4.777   0.599   4.953 -1.3050  1.5495 -1.9865
 1618TIP3   OH2 4859   3.885   3.869   2.755  0.3448  0.1040  0.1279
 1618TIP3    H1 4860   3.837   3.791   2.727 -0.1905  0.3598  0.3287
 1618TIP3    H2 4861   3.971   3.859   2.714  0.2287 -0.5076  0.0095
 1619TIP3   OH2 4862   0.893   0.341   0.458 -0.0077  1.4074  0.8355
 1619TIP3    H1 4863   0.856   0.417   0.503 -0.6361  1.9396 -0.5502
 1619TIP3    H2 4864   0.844   0.335   0.376 -0.8665 -1.2455  1.4294
 1620TIP3   OH2 4865   3.223   5.715   4.008  0.0583  0.0874 -0.2949
 1620TIP3    H1 4866   3.297   5.771   4.032 -0.4018  0.1620  1.0112
 1620TIP3    H2 4867   3.257   5.626   4.017 -0.1257  0.1083  0.7992
 1621TIP3   OH2 4868   0.366   5.396   2.456 -0.3183 -0.0537  0.7741
 1621TIP3    H1 4869   0.436   5.397   2.391  0.7046  0.1081  1.8489
 1621TIP3    H2 4870   0.288   5.422   2.408  0.0754 -1.5322 -0.7609
 1622TIP3   OH2 4871   4.247   5.543   3.842 -0.1743  0.5188 -0.2568
 1622TIP3    H1 4872   4.174   5.565   3.900  1.4625  1.6012  1.4961
 1622TIP3    H2 4873   4.240   5.606   3.770 -0.3424  1.3825  0.4879
 1623TIP3   OH2 4874   4.677   3.212   5.182 -0.7061 -0.1356  0.5166
 1623TIP3    H1 4875   4.705   3.130   5.143  0.9725  0.0772  1.1922
 1623TIP3    H2 4876   4.650   3.266   5.108 -1.0672 -1.0102 -0.0003
 1624TIP3   OH2 4877   1.303   0.917   2.272 -0.5305  0.2985 -0.2287
 1624TIP3    H1 4878   1.306   0.928   2.367  0.5936  0.7626 -0.3017
 1624TIP3    H2 4879   1.249   0.991   2.241 -0.2002  0.6288 -0.0191
 1625TIP3   OH2 4880   5.658   3.640   4.911  0.7091 -0.4690  0.0898
 1625TIP3    H1 4881   5.692   3.569   4.966 -0.7544 -0.3892  1.1482
 1625TIP3    H2 4882   5.710   3.716   4.937  0.3895 -0.5490  1.0110
 1626TIP3   OH2 4883   0.197   5.774   1.045 -0.2542  0.1258  0.0257
 1626TIP3    H1 4884   0.136   5.711   1.006  1.4952 -0.3924 -2.0678
 1626TIP3    H2 4885   0.280   5.726   1.052  0.8183  1.8257 -0.4659
 1627TIP3   OH2 4886   3.531   1.563   4.664 -0.1834  0.3085  0.0003
 1627TIP3    H1 4887   3.544   1.654   4.636  1.2253 -0.2324 -1.2108
 1627TIP3    H2 4888   3.548   1.565   4.758  1.0710  1.1033 -0.2118
 1628TIP3   OH2 4889   2.385   1.630   3.783  0.1623  0.6290 -0.4510
 1628TIP3    H1 4890   2.289   1.630   3.780  0.1369  0.3620  0.1619
 1628TIP3    H2 4891   2.408   1.719   3.811  0.1761  1.2620 -2.3764
 1629TIP3   OH2 4892   5.033   2.501   0.376 -0.2763 -0.2392  0.0873
 1629TIP3    H1 4893   4.972   2.555   0.426  1.1983  0.2162  1.4857
 1629TIP3    H2 4894   5.036   2.418   0.423  0.5654 -0.0666  0.3594
 1630TIP3   OH2 4895   1.639   0.516   0.272  0.0563 -0.0290  0.1361
 1630TIP3    H1 4896   1.714   0.518   0.213  1.0216  0.3027  1.3484
 1630TIP3    H2 4897   1.571   0.470   0.222  1.0223 -0.2648 -1.0096
 1631TIP3   OH2 4898   3.010   4.257   2.816 -0.3511 -0.0183  0.5142
 1631TIP3    H1 4899   3.039   4.334   2.766 -0.2276 -0.3516  0.0706
 1631TIP3    H2 4900   3.088   4.227   2.862 -0.6370  0.7546  1.5461
 1632TIP3   OH2 4901   4.466   1.312   4.932 -0.1019  0.1723  0.5942
 1632TIP3    H1 4902   4.531   1.248   4.903 -0.7650 -0.0945 -0.3664
 1632TIP3    H2 4903   4.482   1.389   4.876 -1.1653 -0.2171 -0.2890
 1633TIP3   OH2 4904   5.884   4.735   5.211  0.4389  0.3161 -0.4492
 1633TIP3    H1 4905   5.944   4.807   5.191 -0.5857  1.3678  0.1777
 1633TIP3    H2 4906   5.835   4.722   5.130  0.7868  0.1548 -0.6374
 1634TIP3   OH2 4907   0.735   2.515   2.513 -0.1057 -0.3402  0.1876
 1634TIP3    H1 4908   0.767   2.426   2.529  1.6425  0.2473  0.1519
 1634TIP3    H2 4909   0.761   2.565   2.590 -1.1610  0.1431  0.2555
 1635TIP3   OH2 4910   4.670   3.321   2.837  0.4605  0.3729  0.4896
 1635TIP3    H1 4911   4.706   3.410   2.832 -0.0064  0.4923 -1.9805
 1635TIP3    H2 4912   4.618   3.312   2.758 -1.4379 -1.3268  1.8345
 1636TIP3   OH2 4913   3.276   2.173   3.469 -0.0709  0.7531  0.5748
 1636TIP3    H1 4914   3.322   2.226   3.404  1.4884 -1.7091 -0.4551
 1636TIP3    H2 4915   3.191   2.156   3.429  0.7818 -0.5324 -0.7757
 1637TIP3   OH2 4916   2.591   2.858   2.988  0.8466  0.3493 -0.2228
 1637TIP3    H1 4917   2.520   2.890   2.932  0.9051  1.4470  0.3142
 1637TIP3    H2 4918   2.551   2.786   3.038  0.4997  0.0717 -0.8953
 1638TIP3   OH2 4919   2.238   1.248   3.302  0.6190 -0.8014 -0.0692
 1638TIP3    H1 4920   2.255   1.269   3.210  0.0489 -1.6437 -0.3740
 1638TIP3    H2 4921   2.146   1.272   3.314  0.6156 -0.9552  0.2020
 1639TIP3   OH2 4922   0.861   2.137   4.437  0.0572  0.4943 -0.4337
 1639TIP3    H1 4923   0.910   2.193   4.497 -0.5361  1.0685 -0.4817
 1639TIP3    H2 4924   0.773   2.175   4.434 -0.2194 -0.1578 -0.8345
 1640TIP3   OH2 4925   2.405   5.205   3.919 -0.7396 -0.0126  0.3889
 1640TIP3    H1 4926   2.368   5.188   4.006  2.6122 -2.4055  1.5619
 1640TIP3    H2 4927   2.439   5.294   3.924  1.0003 -0.6980  2.3095
 1641TIP3   OH2 4928   1.097   5.410   3.630 -0.4106  0.1041  0.3491
 1641TIP3    H1 4929   1.144   5.493   3.626 -0.0920 -0.0293  1.1807
 1641TIP3    H2 4930   1.004   5.435   3.625 -0.2944  0.3361 -1.7438
 1642TIP3   OH2 4931   0.612   0.579   0.903  0.3834 -0.3221  0.0204
 1642TIP3    H1 4932   0.550   0.589   0.831 -1.9220  0.7240  1.9877
 1642TIP3    H2 4933   0.647   0.667   0.916  0.1398 -0.3128  0.6609
 1643TIP3   OH2 4934   2.325   1.058   0.967 -0.2571 -0.8772 -0.4853
 1643TIP3    H1 4935   2.280   0.986   1.011 -0.3886 -0.0726  0.7609
 1643TIP3    H2 4936   2.260   1.091   0.904 -1.1670 -0.2450  0.7282
 1644TIP3   OH2 4937   1.848   4.705   1.452 -0.5791 -0.1717 -0.1952
 1644TIP3    H1 4938   1.819   4.767   1.518 -3.3620  0.2629 -1.6435
 1644TIP3    H2 4939   1.932   4.672   1.484 -0.9784  1.2659  2.6315
 1645TIP3   OH2 4940   3.944   0.915   0.583 -0.5112  0.8868  0.2984
 1645TIP3    H1 4941   3.937   0.866   0.665  0.0503  1.3074  0.6039
 1645TIP3    H2 4942   3.888   0.867   0.522  0.1549 -0.2207  0.5383
 1646TIP3   OH2 4943   1.051   1.469   0.954  0.0193 -0.4434 -0.2272
 1646TIP3    H1 4944   0.990   1.397   0.932  0.4172 -0.7323 -0.4012
 1646TIP3    H2 4945   1.063   1.462   1.048 -0.6769 -0.0151 -0.0981
 1647TIP3   OH2 4946   4.231   0.490   2.832 -0.5966  0.1088  0.0427
 1647TIP3    H1 4947   4.300   0.510   2.769 -1.2785 -0.0603 -0.7878
 1647TIP3    H2 4948   4.274   0.440   2.901 -0.0100 -0.5239 -0.7667
 1648TIP3   OH2 4949   2.984   2.640   2.064  0.4602 -0.3210  0.2983
 1648TIP3    H1 4950   2.968   2.592   1.983  0.3356  0.8396 -0.3775
 1648TIP3    H2 4951   3.051   2.588   2.110 -0.1488 -1.4864 -0.0910
 1649TIP3   OH2 4952   5.635   4.343   1.410 -0.1818 -0.2613 -0.5451
 1649TIP3    H1 4953   5.606   4.346   1.501  1.2718  0.1871 -0.0637
 1649TIP3    H2 4954   5.566   4.389   1.361 -0.2508  0.8813  0.5580
 1650TIP3   OH2 4955   5.218   1.659   5.023 -0.5299  0.1355  0.4060
 1650TIP3    H1 4956   5.183   1.748   5.029 -1.1817 -0.0549 -0.3481
 1650TIP3    H2 4957   5.273   1.649   5.101  0.2297  1.4783  0.0691
 1651TIP3   OH2 4958   2.512   4.890   0.810  0.9015 -0.4896  0.4592
 1651TIP3    H1 4959   2.464   4.808   0.804 -1.4248  0.7707  0.5815
 1651TIP3    H2 4960   2.534   4.899   0.903  0.3974 -0.5622  0.5845
 1652TIP3   OH2 4961   3.776   4.187   1.008  0.8856  0.0256 -0.5355
 1652TIP3    H1 4962   3.724   4.170   1.086 -0.8406  0.2989 -1.5798
 1652TIP3    H2 4963   3.744   4.123   0.944  2.0225  0.0390 -1.1365
 1653TIP3   OH2 4964   0.727   4.517   2.203  0.0840  0.6356 -0.5564
 1653TIP3    H1 4965   0.754   4.426   2.216  0.1939  0.5472 -1.3637
 1653TIP3    H2 4966   0.807   4.568   2.218  0.0438  0.5992 -0.1964
 1654TIP3   OH2 4967   2.432   1.595   0.161  0.2383  0.1364  0.3504
 1654TIP3    H1 4968   2.354   1.649   0.143 -1.5530 -2.6781 -1.0278
 1654TIP3    H2 4969   2.442   1.598   0.256  0.5889  3.2262  0.3326
 1655TIP3   OH2 4970   1.155   4.445   0.962 -0.6071  0.3509  0.2669
 1655TIP3    H1 4971   1.200   4.363   0.978 -0.4114  0.9369  3.1754
 1655TIP3    H2 4972   1.217   4.498   0.912  1.3534  0.5001  2.6911
 1656TIP3   OH2 4973   2.946   4.497   0.454  0.0736 -0.3640 -0.2881
 1656TIP3    H1 4974   3.035   4.496   0.489  0.5663 -0.4364 -1.4822
 1656TIP3    H2 4975   2.921   4.404   0.452 -0.6313 -0.2356  1.4683
 1657TIP3   OH2 4976   5.882   1.285   4.724  0.5396 -0.5380 -0.8507
 1657TIP3    H1 4977   5.848   1.370   4.749 -0.8410 -0.6639 -2.1512
 1657TIP3    H2 4978   5.839   1.265   4.640  1.0538 -2.3608 -0.7364
 1658TIP3   OH2 4979   1.224   2.238   2.563  0.4850  0.2289 -0.2062
 1658TIP3    H1 4980   1.151   2.187   2.527 -0.9976  1.0517  1.5009
 1658TIP3    H2 4981   1.191   2.327   2.568  2.2505  0.9708 -0.9971
 1659TIP3   OH2 4982   4.036   2.633   2.233 -0.4792  0.6620  0.3401
 1659TIP3    H1 4983   4.071   2.643   2.145  1.2827 -3.0466  0.4504
 1659TIP3    H2 4984   4.099   2.677   2.290  0.6831 -0.5589  0.0292
 1660TIP3   OH2 4985   6.114   0.904   1.091  0.3590  0.4291 -0.2668
 1660TIP3    H1 4986   6.036   0.901   1.146  1.1581  0.5165  0.8986
 1660TIP3    H2 4987   6.139   0.813   1.079  1.2256  0.4565  1.0794
 1661TIP3   OH2 4988   3.315   1.412   4.161  0.1279  0.2789  0.2002
 1661TIP3    H1 4989   3.294   1.387   4.251  0.5173 -1.3389 -0.1265
 1661TIP3    H2 4990   3.402   1.376   4.145  0.6281  1.6767 -0.4336
 1662TIP3   OH2 4991   1.671   0.432   2.258  0.1063  0.5951  0.1461
 1662TIP3    H1 4992   1.716   0.395   2.182  1.1953  0.1945  0.9446
 1662TIP3    H2 4993   1.630   0.357   2.301 -1.4067  0.9641 -0.5922
 1663TIP3   OH2 4994   4.497   4.386   3.752 -0.7727 -0.0997 -0.7195
 1663TIP3    H1 4995   4.547   4.464   3.777  0.7765 -0.5099 -2.3431
 1663TIP3    H2 4996   4.550   4.313   3.784 -1.3093 -0.5190 -0.7849
 1664TIP3   OH2 4997   0.764   5.953   1.378  0.7382 -0.0479  0.4118
 1664TIP3    H1 4998   0.801   5.934   1.291  1.1426 -1.7225  0.9067
 1664TIP3    H2 4999   0.698   6.020   1.361  1.4240  0.3069 -1.0595
 1665TIP3   OH2 5000   3.446   1.265   2.705 -0.3304  0.3427  0.0553
 1665TIP3    H1 5001   3.411   1.325   2.639  0.0681  0.0890 -0.3880
 1665TIP3    H2 5002   3.390   1.188   2.700 -0.6940  0.5766  0.4592
 1666TIP3   OH2 5003   0.634   0.528   4.065  0.2128 -0.8221  0.5704
 1666TIP3    H1 5004   0.702   0.499   4.126  1.3442  0.3330 -0.0640
 1666TIP3    H2 5005   0.573   0.578   4.119  1.2008  0.1834  0.8137
 1667TIP3   OH2 5006   1.426   0.078   0.832 -0.0989 -0.2191  0.2779
 1667TIP3    H1 5007   1.482   0.141   0.786 -0.5234 -0.1601 -0.1715
 1667TIP3    H2 5008   1.402   0.014   0.765 -1.4318  0.3463  0.1846
 1668TIP3   OH2 5009   3.513   4.143   0.146 -0.0847  0.1930  0.5089
 1668TIP3    H1 5010   3.448   4.083   0.182 -1.1464  1.2310  0.3638
 1668TIP3    H2 5011   3.519   4.213   0.210  1.5511 -0.2852  0.9401
 1669TIP3   OH2 5012   1.206   3.065   2.094 -0.2765 -0.4390 -0.3411
 1669TIP3    H1 5013   1.217   2.995   2.158 -0.9390 -0.9078 -0.7252
 1669TIP3    H2 5014   1.233   3.144   2.141  0.3179 -0.9235  0.1514
 1670TIP3   OH2 5015   1.032   0.479   4.667  0.3446 -0.3801 -0.0054
 1670TIP3    H1 5016   1.117   0.440   4.645  0.5764 -0.3993  0.8792
 1670TIP3    H2 5017   1.026   0.470   4.762 -1.7765 -2.6654 -0.2479
 1671TIP3   OH2 5018   1.513   0.754   0.230 -0.1248 -0.2403 -0.4268
 1671TIP3    H1 5019   1.542   0.670   0.264  0.2869  0.6357  1.5090
 1671TIP3    H2 5020   1.587   0.813   0.244 -0.9800  0.8208 -0.1892
 1672TIP3   OH2 5021   0.853   1.282   0.896  0.1263 -0.2222  0.5728
 1672TIP3    H1 5022   0.883   1.215   0.834 -0.7903  0.2944 -0.4600
 1672TIP3    H2 5023   0.779   1.324   0.852  1.0496  1.8883  0.9187
 1673TIP3   OH2 5024   1.563   3.059   0.445  1.0059 -0.2487  0.0010
 1673TIP3    H1 5025   1.484   3.038   0.495  0.6822  0.5930 -0.1357
 1673TIP3    H2 5026   1.632   3.064   0.510  0.6204  0.6643  0.3524
 1674TIP3   OH2 5027   0.802   1.529   4.132  0.6329 -0.4754 -0.1348
 1674TIP3    H1 5028   0.893   1.535   4.162  0.6275  1.0191 -0.3118
 1674TIP3    H2 5029   0.806   1.477   4.052  0.6529 -4.4995  2.2249
 1675TIP3   OH2 5030   4.031   1.702   4.136  0.0043  0.2127 -0.7083
 1675TIP3    H1 5031   4.012   1.703   4.042 -1.9797  0.3373 -0.3483
 1675TIP3    H2 5032   4.057   1.612   4.154 -3.3831 -0.9037 -0.7609
 1676TIP3   OH2 5033   5.352   3.706   3.035 -0.1408  0.5635  0.2833
 1676TIP3    H1 5034   5.273   3.662   3.065 -1.2904  1.4968 -1.2111
 1676TIP3    H2 5035   5.385   3.649   2.964  1.0160 -0.2281  1.4083
 1677TIP3   OH2 5036   1.873   2.654   3.928 -0.1430  0.8136  0.0120
 1677TIP3    H1 5037   1.878   2.687   3.839 -3.4371 -0.0742 -0.6274
 1677TIP3    H2 5038   1.878   2.732   3.983  2.2218  1.3481 -0.8402
 1678TIP3   OH2 5039   1.837   2.151   4.894  0.2738 -0.0891  0.0905
 1678TIP3    H1 5040   1.867   2.235   4.930 -0.7049  0.1135  0.4801
 1678TIP3    H2 5041   1.794   2.174   4.812 -0.0869 -0.1816  0.2482
 1679TIP3   OH2 5042   2.214   1.541   2.142 -0.6821 -0.2112 -0.1671
 1679TIP3    H1 5043   2.165   1.519   2.221 -1.0602  0.6081 -0.1654
 1679TIP3    H2 5044   2.148   1.546   2.073 -0.4856  0.0471 -0.3395
 1680TIP3   OH2 5045   0.770   1.549   0.534  0.5027 -0.1940  0.1077
 1680TIP3    H1 5046   0.832   1.617   0.509 -0.2593  0.8531  0.9732
 1680TIP3    H2 5047   0.741   1.511   0.451 -1.9170  3.1204 -0.7622
 1681TIP3   OH2 5048   0.018   1.329   4.896  0.0470  0.2338  0.8657
 1681TIP3    H1 5049   0.089   1.357   4.838  1.1785  1.4164  2.7131
 1681TIP3    H2 5050  -0.055   1.310   4.838  0.3330  3.6473 -0.8126
 1682TIP3   OH2 5051   5.952   0.944   1.327 -0.0318  0.3847  0.2419
 1682TIP3    H1 5052   5.944   1.028   1.372 -0.0623 -0.3659  1.6683
 1682TIP3    H2 5053   5.969   0.880   1.396  0.9220 -0.6669 -0.9134
 1683TIP3   OH2 5054   4.699   5.573   0.285 -0.1852 -0.1583 -0.4517
 1683TIP3    H1 5055   4.683   5.526   0.203  3.6164 -1.0767 -0.8565
 1683TIP3    H2 5056   4.702   5.505   0.351 -1.8535  0.4307  0.2682
 1684TIP3   OH2 5057   1.193   3.521   4.011 -0.3307  0.7612  0.1069
 1684TIP3    H1 5058   1.156   3.600   4.051  0.5266  0.8336  0.7838
 1684TIP3    H2 5059   1.125   3.492   3.950 -2.8383 -0.7043  3.2462
 1685TIP3   OH2 5060   5.594   4.502   3.076  0.1997  0.0269 -0.4465
 1685TIP3    H1 5061   5.571   4.526   2.987  0.3345 -1.1646 -0.8196
 1685TIP3    H2 5062   5.683   4.467   3.070  0.7552  1.1947  0.3919
 1686TIP3   OH2 5063   4.532   1.906   0.297  0.1967 -0.0328 -1.0011
 1686TIP3    H1 5064   4.520   1.845   0.224 -1.0474 -0.7399 -0.2532
 1686TIP3    H2 5065   4.461   1.970   0.287 -0.4468 -0.5601 -0.0402
 1687TIP3   OH2 5066   2.241   1.650   3.408 -0.1555  0.5540 -0.0582
 1687TIP3    H1 5067   2.206   1.683   3.325  2.2146  1.4727 -0.7736
 1687TIP3    H2 5068   2.191   1.697   3.475 -2.0546 -0.1377 -0.9122
 1688TIP3   OH2 5069   0.390   1.341   1.026 -0.0012 -0.9864 -0.1581
 1688TIP3    H1 5070   0.455   1.292   1.077 -0.3229 -0.6683  0.5675
 1688TIP3    H2 5071   0.423   1.431   1.025  1.0173 -1.3194 -2.1848
 1689TIP3   OH2 5072   0.920   1.765   2.366  0.2182 -0.0444 -0.1480
 1689TIP3    H1 5073   0.975   1.744   2.290  0.3930 -1.3174  0.3154
 1689TIP3    H2 5074   0.884   1.681   2.394 -0.0216  0.4438  1.0543
 1690TIP3   OH2 5075   3.983   0.763   5.072  0.2666  0.9967 -0.2927
 1690TIP3    H1 5076   4.047   0.764   5.000  0.2887 -0.0212 -0.3034
 1690TIP3    H2 5077   4.008   0.687   5.125 -2.2135 -0.7841 -1.4831
 1691TIP3   OH2 5078   2.809   1.943   0.737 -0.0432  0.3328 -0.0705
 1691TIP3    H1 5079   2.828   1.852   0.715  1.0199 -0.2876  2.9338
 1691TIP3    H2 5080   2.761   1.977   0.662  1.7404 -1.9357 -2.3998
 1692TIP3   OH2 5081   3.042   1.639   3.895 -0.6765 -0.4115 -0.9845
 1692TIP3    H1 5082   2.977   1.606   3.832  0.2156  0.9845 -2.7332
 1692TIP3    H2 5083   3.106   1.685   3.841 -0.6674  2.2230  1.0434
 1693TIP3   OH2 5084   4.699   0.200   3.417  0.0454  0.0055  0.0875
 1693TIP3    H1 5085   4.656   0.139   3.476  3.0302 -1.1681  1.2716
 1693TIP3    H2 5086   4.748   0.143   3.357  2.0855  1.1795  0.5619
 1694TIP3   OH2 5087   0.838   4.945   4.900 -0.5778  0.6222  0.3262
 1694TIP3    H1 5088   0.853   5.035   4.872 -0.5458  0.2679 -0.8163
 1694TIP3    H2 5089   0.778   4.908   4.835 -1.0331 -0.0292  1.0824
 1695TIP3   OH2 5090   5.969   3.236   1.791  0.3165 -0.5317  0.7423
 1695TIP3    H1 5091   6.002   3.201   1.874 -0.0557  0.3337  1.2829
 1695TIP3    H2 5092   5.883   3.196   1.780 -0.0854  0.1344  1.3310
 1696TIP3   OH2 5093   0.655   1.913   2.705 -0.0093 -0.2549  0.3147
 1696TIP3    H1 5094   0.748   1.927   2.686 -0.0232 -1.2291 -0.5234
 1696TIP3    H2 5095   0.627   1.995   2.745  1.0087  0.3738 -0.2060
 1697TIP3   OH2 5096   5.043   2.851   3.451 -0.0509  0.3008  0.0511
 1697TIP3    H1 5097   5.083   2.803   3.378  0.2298  0.0729  0.3477
 1697TIP3    H2 5098   5.091   2.820   3.528 -0.8291 -0.0107  0.4188
 1698TIP3   OH2 5099   6.284   3.973   4.895  0.2680  0.3563 -0.1578
 1698TIP3    H1 5100   6.196   3.960   4.929  0.3701 -0.7203 -0.2818
 1698TIP3    H2 5101   6.324   4.037   4.954 -0.3918  0.4027  0.2433
 1699TIP3   OH2 5102   5.116   3.799   0.169  0.0411  0.0204  0.3104
 1699TIP3    H1 5103   5.026   3.830   0.161  0.1384  0.0515 -0.9323
 1699TIP3    H2 5104   5.167   3.879   0.184 -0.0372  0.1253  0.0340
 1700TIP3   OH2 5105   5.061   1.431   4.950  0.2642  0.5651 -0.2083
 1700TIP3    H1 5106   5.126   1.501   4.944 -1.8688  2.6582 -0.5316
 1700TIP3    H2 5107   5.063   1.389   4.863 -0.2147  1.9774 -0.9329
 1701TIP3   OH2 5108   1.318   1.836   1.287  0.1865 -0.5984  0.0651
 1701TIP3    H1 5109   1.289   1.906   1.227  1.8055  0.1407  0.0974
 1701TIP3    H2 5110   1.264   1.848   1.365 -0.1468  0.0717 -0.2562
 1702TIP3   OH2 5111   1.750   5.200   4.684  0.3656  0.0048 -0.0478
 1702TIP3    H1 5112   1.845   5.209   4.679  0.3409  1.5465  1.2619
 1702TIP3    H2 5113   1.722   5.187   4.594  1.8157 -0.5481 -0.4469
 1703TIP3   OH2 5114   2.716   0.935   1.075 -0.2988 -0.1915 -0.0151
 1703TIP3    H1 5115   2.659   1.008   1.098 -0.0463  0.2363 -0.7388
 1703TIP3    H2 5116   2.792   0.944   1.133 -1.0334 -0.8798  1.0945
 1704TIP3   OH2 5117   3.372   1.329   1.561 -0.2803 -0.3211 -0.2966
 1704TIP3    H1 5118   3.348   1.260   1.623 -0.5758 -0.6224 -0.7433
 1704TIP3    H2 5119   3.377   1.408   1.615  2.0939 -1.0024  0.6262
 1705TIP3   OH2 5120   4.003   3.787   3.397 -0.3576  0.7989  0.2144
 1705TIP3    H1 5121   3.936   3.798   3.329 -0.7716 -0.5098  0.3885
 1705TIP3    H2 5122   4.005   3.872   3.441 -0.7199  1.3829 -0.8554
 1706TIP3   OH2 5123   3.587   0.592   2.690  0.0268  0.4980  0.6183
 1706TIP3    H1 5124   3.523   0.610   2.621  0.3402  2.7655  0.8315
 1706TIP3    H2 5125   3.534   0.561   2.764 -0.4642 -0.5101 -0.1285
 1707TIP3   OH2 5126   2.363   4.904   1.480  0.0355 -0.1482 -0.7754
 1707TIP3    H1 5127   2.343   4.928   1.570 -0.9701 -2.5167 -0.3059
 1707TIP3    H2 5128   2.313   4.966   1.427 -0.1431  0.6469  0.2868
 1708TIP3   OH2 5129   4.738   0.706   4.251  0.1416  0.7940 -0.0409
 1708TIP3    H1 5130   4.760   0.678   4.162 -1.4560  0.7321 -0.4578
 1708TIP3    H2 5131   4.671   0.774   4.238 -1.1274 -0.1792  1.1348
 1709TIP3   OH2 5132   2.925   3.539   1.520 -0.2154  0.7688 -0.0612
 1709TIP3    H1 5133   2.873   3.591   1.581 -1.0854  0.2870 -0.3747
 1709TIP3    H2 5134   2.879   3.547   1.437 -0.3938 -0.5239 -0.1122
 1710TIP3   OH2 5135   6.275   5.952   1.818  0.1953 -0.0373 -0.0326
 1710TIP3    H1 5136   6.187   5.942   1.853 -0.2021  0.7358 -0.7541
 1710TIP3    H2 5137   6.325   5.992   1.889 -0.1097 -0.2179  0.2851
 1711TIP3   OH2 5138   2.913   4.011   2.985  0.0181  0.2699 -0.0202
 1711TIP3    H1 5139   2.926   3.992   3.078 -1.2904 -0.1710  0.0991
 1711TIP3    H2 5140   2.950   4.099   2.972 -0.1262  0.4860  0.9999
 1712TIP3   OH2 5141   1.859   3.013   4.802  0.1773 -0.6027  0.0659
 1712TIP3    H1 5142   1.838   2.945   4.866  0.1328  0.0997  0.8137
 1712TIP3    H2 5143   1.873   2.965   4.720 -1.3396 -1.3739  0.2187
 1713TIP3   OH2 5144   1.335   1.094   1.171 -0.2927 -0.2303 -0.0664
 1713TIP3    H1 5145   1.361   1.123   1.084 -0.5392 -0.5500 -0.2502
 1713TIP3    H2 5146   1.404   1.034   1.199 -0.2492 -0.1819 -0.0702
 1714TIP3   OH2 5147   6.318   1.260   0.689  0.1126  0.5953  0.5610
 1714TIP3    H1 5148   6.232   1.299   0.701 -0.1256  0.8044 -1.5431
 1714TIP3    H2 5149   6.324   1.242   0.595  1.1104 -2.3668  1.0781
 1715TIP3   OH2 5150   1.116   0.856   2.732  0.2473  0.3530  0.3325
 1715TIP3    H1 5151   1.027   0.882   2.758 -0.2978  0.2916 -1.3569
 1715TIP3    H2 5152   1.148   0.930   2.680  0.9361  0.0691  0.3434
 1716TIP3   OH2 5153   2.905   5.723   1.370 -0.4077 -0.0562  0.7238
 1716TIP3    H1 5154   2.955   5.681   1.301  1.5954  0.9487  1.4961
 1716TIP3    H2 5155   2.843   5.657   1.399 -0.7583 -0.7626 -1.4566
 1717TIP3   OH2 5156   4.337   5.304   2.262  0.1539  0.4063 -0.0513
 1717TIP3    H1 5157   4.261   5.297   2.204  0.9975  1.2906 -1.3424
 1717TIP3    H2 5158   4.337   5.395   2.291  0.3596  0.2463  0.4623
 1718TIP3   OH2 5159   1.620   1.748   4.222  0.2686 -0.6345 -0.1574
 1718TIP3    H1 5160   1.590   1.688   4.290 -0.1317  1.0559  1.2614
 1718TIP3    H2 5161   1.541   1.772   4.174  0.4633 -1.4067 -0.8676
 1719TIP3   OH2 5162   4.431   2.690   4.855  0.0264  0.3046  0.4474
 1719TIP3    H1 5163   4.478   2.609   4.876  0.7226  0.2295 -1.2378
 1719TIP3    H2 5164   4.500   2.752   4.830 -0.6746  0.5180 -1.0583
 1720TIP3   OH2 5165   2.390   3.342   4.363 -0.3217  0.1204  0.4022
 1720TIP3    H1 5166   2.442   3.386   4.296 -0.4982 -0.0472  0.1575
 1720TIP3    H2 5167   2.301   3.374   4.349 -0.2101  0.7900  1.1344
 1721TIP3   OH2 5168   1.079   3.747   2.254 -0.7655 -0.4107  0.3454
 1721TIP3    H1 5169   1.004   3.723   2.200 -2.4993  1.3272  1.8372
 1721TIP3    H2 5170   1.104   3.665   2.297 -1.3265 -1.1659 -0.7038
 1722TIP3   OH2 5171   3.705   5.173   1.413 -0.5831 -0.0796  0.2816
 1722TIP3    H1 5172   3.747   5.258   1.422  2.2093 -1.1313 -1.2162
 1722TIP3    H2 5173   3.697   5.160   1.318 -1.8395 -1.0971  0.4945
 1723TIP3   OH2 5174   1.923   2.827   0.909 -0.4795 -0.7133  0.0813
 1723TIP3    H1 5175   1.951   2.820   1.000  0.0030 -1.6463 -0.1239
 1723TIP3    H2 5176   1.836   2.867   0.913 -0.4671 -0.7616  0.9424
 1724TIP3   OH2 5177   2.537   4.710   2.700 -0.2960 -0.3490 -0.0512
 1724TIP3    H1 5178   2.628   4.736   2.688 -0.7157  2.7790  2.1667
 1724TIP3    H2 5179   2.503   4.700   2.611  1.9560 -0.6961 -0.9364
 1725TIP3   OH2 5180   5.350   1.668   1.875 -0.3210 -0.0657 -0.1985
 1725TIP3    H1 5181   5.320   1.751   1.838  0.2860 -0.4474 -1.5962
 1725TIP3    H2 5182   5.270   1.618   1.892 -0.6083  0.0272 -1.2346
 1726TIP3   OH2 5183   0.112   3.794   4.332  0.4888 -0.0790  0.3865
 1726TIP3    H1 5184   0.184   3.853   4.312 -0.5728  1.0659 -0.2523
 1726TIP3    H2 5185   0.070   3.778   4.247 -0.4954 -0.0447  0.8459
 1727TIP3   OH2 5186   0.784   5.326   4.142 -0.0979 -0.1233 -0.3347
 1727TIP3    H1 5187   0.828   5.382   4.078 -2.0443  0.3888 -1.3102
 1727TIP3    H2 5188   0.812   5.237   4.118 -0.1036  0.1295 -1.3573
 1728TIP3   OH2 5189   1.661   4.467   3.158  0.2249 -0.0277  0.3107
 1728TIP3    H1 5190   1.613   4.384   3.158  0.3282 -0.0977 -0.6380
 1728TIP3    H2 5191   1.613   4.523   3.098 -0.3694  0.9373  1.6508
 1729TIP3   OH2 5192   4.790   5.442   1.961  0.1336  0.3859  0.0042
 1729TIP3    H1 5193   4.880   5.422   1.984  0.1485  0.4784  0.0255
 1729TIP3    H2 5194   4.737   5.400   2.029  0.1034 -0.6631 -0.6449
 1730TIP3   OH2 5195   4.135   4.460   2.670 -0.1875 -0.1159  0.0805
 1730TIP3    H1 5196   4.152   4.399   2.741  0.5531  0.2891  0.2595
 1730TIP3    H2 5197   4.198   4.436   2.602 -1.2601 -0.8675 -0.6939
 1731TIP3   OH2 5198   4.874   2.155   0.963 -0.4914 -0.5520 -0.1350
 1731TIP3    H1 5199   4.890   2.069   0.924 -0.5948 -0.4884 -0.3215
 1731TIP3    H2 5200   4.813   2.137   1.035 -1.0634 -0.5508 -0.6047
 1732TIP3   OH2 5201   5.694   4.275   2.862  0.2195  0.1855 -0.0560
 1732TIP3    H1 5202   5.672   4.249   2.952  1.6717  0.2354  0.3260
 1732TIP3    H2 5203   5.789   4.270   2.857  0.1854  0.4096 -1.5359
 1733TIP3   OH2 5204   2.016   1.609   1.964  0.6959 -0.0645  0.2970
 1733TIP3    H1 5205   1.965   1.691   1.964 -0.3163 -0.6772  0.0277
 1733TIP3    H2 5206   1.953   1.541   1.941  1.8390 -0.7385 -1.0638
 1734TIP3   OH2 5207   3.421   5.917   0.670  0.1728  0.6296 -0.7011
 1734TIP3    H1 5208   3.453   5.831   0.643 -0.9302  0.6009 -2.0286
 1734TIP3    H2 5209   3.493   5.976   0.649  0.9420  0.0502  0.2255
 1735TIP3   OH2 5210   1.783   5.005   4.274 -0.4106  0.4835  0.0205
 1735TIP3    H1 5211   1.764   5.054   4.355 -2.2202 -0.2159  0.0709
 1735TIP3    H2 5212   1.719   4.934   4.274  0.8882 -0.7518 -1.0331
 1736TIP3   OH2 5213   5.218   0.785   4.552 -0.0332  0.4465 -0.1117
 1736TIP3    H1 5214   5.176   0.781   4.638  1.7219 -0.2372  0.7718
 1736TIP3    H2 5215   5.260   0.699   4.543  0.5850  0.8509 -1.2434
 1737TIP3   OH2 5216   6.234   0.237   2.355  0.7338  0.1510  0.4402
 1737TIP3    H1 5217   6.242   0.214   2.262 -0.1997  1.5534 -0.0188
 1737TIP3    H2 5218   6.183   0.166   2.393 -0.6983  0.5852 -0.5879
 1738TIP3   OH2 5219   0.583   4.223   1.458  0.1835 -0.1077  1.0168
 1738TIP3    H1 5220   0.526   4.148   1.473  0.2721 -0.5060 -0.4865
 1738TIP3    H2 5221   0.523   4.295   1.439  0.1149  0.1392  2.0735
 1739TIP3   OH2 5222   3.603   1.181   0.493 -0.1151 -0.1565  0.0139
 1739TIP3    H1 5223   3.608   1.268   0.455  0.1057  0.2039  0.8548
 1739TIP3    H2 5224   3.636   1.123   0.425 -0.2158  0.4162 -0.5315
 1740TIP3   OH2 5225   4.636   4.048   1.819  0.2181 -0.0202  0.2470
 1740TIP3    H1 5226   4.554   4.097   1.818 -0.0426 -0.4008  1.4800
 1740TIP3    H2 5227   4.704   4.114   1.809 -0.2317  0.2783 -1.0329
 1741TIP3   OH2 5228   1.794   2.767   0.547  0.4167  0.2485  0.1196
 1741TIP3    H1 5229   1.801   2.708   0.623  1.7990  1.4829  1.0127
 1741TIP3    H2 5230   1.744   2.717   0.483  0.1189 -1.2574  1.4469
 1742TIP3   OH2 5231   5.394   0.781   3.888  0.1704  0.0273 -0.3501
 1742TIP3    H1 5232   5.448   0.860   3.895  0.6187 -0.2636 -0.4889
 1742TIP3    H2 5233   5.332   0.801   3.818  0.3215  0.2394 -0.4251
 1743TIP3   OH2 5234   0.492   3.476   0.549  0.5847 -0.5865 -0.7037
 1743TIP3    H1 5235   0.518   3.423   0.624 -0.1676 -0.9030 -0.6521
 1743TIP3    H2 5236   0.440   3.417   0.495  0.2581 -0.0741 -0.9585
 1744TIP3   OH2 5237   6.027   2.435   2.114 -0.2300  0.4964 -0.1141
 1744TIP3    H1 5238   5.965   2.428   2.042 -0.4161  0.0944  0.0836
 1744TIP3    H2 5239   6.059   2.346   2.128 -1.3735  0.2575  1.3151
 1745TIP3   OH2 5240   0.908   3.870   5.063  0.1993 -0.9064 -0.1696
 1745TIP3    H1 5241   0.819   3.840   5.081  0.0490  0.3574  1.3984
 1745TIP3    H2 5242   0.958   3.843   5.140  0.8987 -0.4984 -0.4752
 1746TIP3   OH2 5243   4.866   1.641   1.846  0.4436  0.1553 -0.1756
 1746TIP3    H1 5244   4.863   1.688   1.762 -0.4737  0.9794  0.3019
 1746TIP3    H2 5245   4.827   1.702   1.909 -0.9112 -1.3030  0.4375
 1747TIP3   OH2 5246   5.129   2.505   1.719  0.2463 -0.0673 -0.0313
 1747TIP3    H1 5247   5.069   2.431   1.718  1.8756 -1.4630  1.0654
 1747TIP3    H2 5248   5.171   2.502   1.805  1.4172  1.2498 -0.5126
 1748TIP3   OH2 5249   6.268   2.404   3.383  0.3942  0.2242 -0.1551
 1748TIP3    H1 5250   6.329   2.332   3.365 -0.7075 -0.4683 -1.3608
 1748TIP3    H2 5251   6.215   2.410   3.304 -1.4233  0.4599  1.0281
 1749TIP3   OH2 5252   3.671   4.657   1.705  0.3245 -0.0070  0.0992
 1749TIP3    H1 5253   3.638   4.587   1.648  0.9339 -0.9751  0.9038
 1749TIP3    H2 5254   3.733   4.705   1.650 -0.7512  0.4526 -0.7315
 1750TIP3   OH2 5255   1.328   0.053   2.111  0.0034 -0.4956  0.3507
 1750TIP3    H1 5256   1.308  -0.008   2.039 -0.9416 -1.6569  1.5477
 1750TIP3    H2 5257   1.270   0.128   2.095 -1.7673 -1.6518  0.9854
 1751TIP3   OH2 5258   0.839   4.462   0.380  0.0717 -0.2149 -0.1566
 1751TIP3    H1 5259   0.756   4.424   0.409 -0.5020 -0.5121 -2.0700
 1751TIP3    H2 5260   0.900   4.388   0.380  0.3362 -0.0267  1.1012
 1752TIP3   OH2 5261   2.794   0.508   0.035  0.0320 -0.5806 -0.4071
 1752TIP3    H1 5262   2.701   0.502   0.015 -0.6675  0.5504  2.0890
 1752TIP3    H2 5263   2.822   0.589  -0.008  0.1607 -1.4561 -2.0343
 1753TIP3   OH2 5264   5.223   2.989   2.202  0.1183 -0.0374 -0.2319
 1753TIP3    H1 5265   5.177   2.988   2.285  0.6231 -1.3117  0.0455
 1753TIP3    H2 5266   5.163   3.033   2.142  0.0131  1.4875  0.9277
 1754TIP3   OH2 5267   2.456   5.388   0.027 -0.4047  0.2616  0.5438
 1754TIP3    H1 5268   2.498   5.331   0.091  1.7990  1.0723 -0.0817
 1754TIP3    H2 5269   2.492   5.361  -0.057 -0.8789  1.2409  0.0059
 1755TIP3   OH2 5270   2.585   3.582   4.477  0.2959 -0.4299 -0.0703
 1755TIP3    H1 5271   2.616   3.670   4.459  1.0092 -0.5315  0.6069
 1755TIP3    H2 5272   2.490   3.587   4.467  0.3834  0.2722 -0.5957
 1756TIP3   OH2 5273  -0.022   0.525   2.533  0.8735  0.0375 -0.6295
 1756TIP3    H1 5274  -0.009   0.431   2.546  0.7525  0.2200  1.0845
 1756TIP3    H2 5275   0.061   0.565   2.559 -0.1087  0.5926  1.9830
 1757TIP3   OH2 5276   5.569   2.699   4.868 -0.4547  0.4420  0.2919
 1757TIP3    H1 5277   5.516   2.705   4.948  0.3806  1.2781  0.7945
 1757TIP3    H2 5278   5.571   2.788   4.834 -1.5778 -0.0619 -1.2028
 1758TIP3   OH2 5279   1.361   2.254   4.649 -0.3300 -0.2620  0.0954
 1758TIP3    H1 5280   1.411   2.265   4.568 -1.0041  2.5345 -0.0280
 1758TIP3    H2 5281   1.337   2.343   4.675 -1.3369 -1.1897  2.6319
 1759TIP3   OH2 5282   2.095   2.080   0.677 -0.1199 -0.9182  0.2857
 1759TIP3    H1 5283   2.059   2.010   0.623  0.2617 -1.5411  0.8211
 1759TIP3    H2 5284   2.183   2.094   0.643 -0.4789 -0.1150 -0.3517
 1760TIP3   OH2 5285   2.683   1.224   2.074  0.1450  0.3823  0.3843
 1760TIP3    H1 5286   2.731   1.210   2.155 -0.1832 -0.5987  0.4344
 1760TIP3    H2 5287   2.591   1.227   2.100 -0.1933 -2.4418 -0.1467
 1761TIP3   OH2 5288   0.413   0.113   2.180 -0.6109  0.0089 -0.2833
 1761TIP3    H1 5289   0.481   0.176   2.158 -0.6648  0.0438 -0.3519
 1761TIP3    H2 5290   0.452   0.028   2.160 -0.6479  0.0393 -0.4812
 1762TIP3   OH2 5291   0.104   0.974   0.480 -0.5852 -0.6393  0.3845
 1762TIP3    H1 5292   0.028   0.995   0.425  0.3304  1.6275 -0.1470
 1762TIP3    H2 5293   0.171   1.037   0.453  0.8022 -1.2103  2.2725
 1763TIP3   OH2 5294   1.738   2.382   0.100  0.8677 -0.1550  0.4548
 1763TIP3    H1 5295   1.652   2.362   0.062  0.8930 -0.1006  0.3714
 1763TIP3    H2 5296   1.734   2.475   0.120  0.7428 -0.2417  0.8629
 1764TIP3   OH2 5297   0.129   4.422   2.856 -0.2832 -0.2168 -0.4714
 1764TIP3    H1 5298   0.197   4.399   2.792  1.4121  1.3460  0.6545
 1764TIP3    H2 5299   0.097   4.508   2.828  0.3198  0.3858  0.6035
 1765TIP3   OH2 5300   2.642   1.595   1.049 -0.2054  0.4682  0.1850
 1765TIP3    H1 5301   2.674   1.556   0.967 -0.1482  0.6704  0.1123
 1765TIP3    H2 5302   2.556   1.631   1.027 -1.1778 -1.3837  0.7316
 1766TIP3   OH2 5303   5.507   3.270   2.490 -0.1477 -0.2822  0.2504
 1766TIP3    H1 5304   5.424   3.224   2.492 -0.9166  0.9924 -1.0435
 1766TIP3    H2 5305   5.539   3.259   2.401  1.1774 -0.8985  0.7727
 1767TIP3   OH2 5306   1.205   4.968   3.790 -0.3652  0.2423 -0.1380
 1767TIP3    H1 5307   1.176   4.884   3.825  2.9222  0.2228  3.1650
 1767TIP3    H2 5308   1.174   5.033   3.853 -0.0666  1.1135 -0.8564
 1768TIP3   OH2 5309   3.044   2.162   0.565  0.7929  0.5207  0.0285
 1768TIP3    H1 5310   3.012   2.136   0.478  0.5477  0.1087  0.2389
 1768TIP3    H2 5311   3.019   2.254   0.573 -1.6125 -0.1227  0.7448
 1769TIP3   OH2 5312   1.813   2.758   2.055 -0.4301 -0.5015  0.2690
 1769TIP3    H1 5313   1.883   2.693   2.057 -0.3333 -0.3929  0.4575
 1769TIP3    H2 5314   1.853   2.837   2.090 -0.2166 -0.0026 -1.0597
 1770TIP3   OH2 5315   4.658   0.228   0.717 -0.0062 -0.2256 -0.4231
 1770TIP3    H1 5316   4.715   0.260   0.648  0.9224  2.3240  1.3595
 1770TIP3    H2 5317   4.711   0.232   0.796 -1.2592 -2.3037  0.6272
 1771TIP3   OH2 5318   3.578   0.006   1.734  0.1209 -1.0682  0.9803
 1771TIP3    H1 5319   3.577  -0.046   1.654 -1.7709 -0.8643  0.8443
 1771TIP3    H2 5320   3.558   0.095   1.706  1.6989 -0.5386  1.4215
 1772TIP3   OH2 5321   5.973   2.118   1.692  0.9872  0.2763 -0.5431
 1772TIP3    H1 5322   5.973   2.122   1.787  0.1441  0.6775 -0.5507
 1772TIP3    H2 5323   5.980   2.025   1.671 -0.5459  0.0371 -0.0628
 1773TIP3   OH2 5324   4.974   5.878   1.765 -0.1640  0.3743  0.4088
 1773TIP3    H1 5325   5.039   5.819   1.725 -0.5194  1.3359 -1.7596
 1773TIP3    H2 5326   4.924   5.822   1.823  2.0532 -0.5770  1.5332
 1774TIP3   OH2 5327   4.364   3.731   0.984 -0.4515 -0.8739  0.2970
 1774TIP3    H1 5328   4.426   3.707   0.916  2.0141  0.8361  1.7893
 1774TIP3    H2 5329   4.418   3.759   1.058 -2.9798  0.8638  1.6660
 1775TIP3   OH2 5330   3.218   0.373   3.126  0.4358  0.0177 -0.5650
 1775TIP3    H1 5331   3.275   0.310   3.169 -1.8434 -1.9566 -0.2095
 1775TIP3    H2 5332   3.194   0.435   3.195 -2.8804 -2.8916  1.2330
 1776TIP3   OH2 5333   5.143   1.375   0.367 -0.6247  0.0478 -0.2909
 1776TIP3    H1 5334   5.058   1.338   0.393  0.0337 -0.1280  1.8670
 1776TIP3    H2 5335   5.206   1.306   0.387  0.1493  0.5898 -0.7974
 1777TIP3   OH2 5336   0.964   1.371   0.290 -0.5384 -0.1317 -0.4907
 1777TIP3    H1 5337   0.976   1.365   0.385  0.1992 -0.5983 -0.6113
 1777TIP3    H2 5338   0.888   1.316   0.272  0.6166 -1.8256 -0.4289
 1778TIP3   OH2 5339   6.264   5.936   4.837  0.6285  0.3896 -0.6196
 1778TIP3    H1 5340   6.191   5.905   4.783 -0.1460  0.0285  0.5970
 1778TIP3    H2 5341   6.322   5.860   4.845  0.0069 -0.0188  0.2384
 1779TIP3   OH2 5342   1.275   1.289   2.423  0.0325  0.4639  0.3084
 1779TIP3    H1 5343   1.269   1.198   2.452 -3.2950  0.8754  1.3279
 1779TIP3    H2 5344   1.329   1.285   2.344 -2.3782 -2.9067 -1.4337
 1780TIP3   OH2 5345   5.265   4.586   2.545  0.5491  0.3564  0.7079
 1780TIP3    H1 5346   5.280   4.604   2.452 -0.7486 -0.0287  0.4126
 1780TIP3    H2 5347   5.260   4.673   2.586  1.2444  0.5241  0.4530
 1781TIP3   OH2 5348   1.921   3.014   3.859  0.3602  0.0355 -0.2044
 1781TIP3    H1 5349   2.001   2.962   3.855  0.8611  0.8139 -0.5927
 1781TIP3    H2 5350   1.857   2.963   3.808  0.1796 -1.2791  1.2677
 1782TIP3   OH2 5351   4.179   5.013   2.716  0.3604 -0.6494  0.0943
 1782TIP3    H1 5352   4.194   5.039   2.806  0.7765 -0.1239 -0.1235
 1782TIP3    H2 5353   4.166   4.918   2.720 -0.2307 -0.5490  0.7756
 1783TIP3   OH2 5354   0.344   5.037   1.428  0.1890  0.0779  0.0446
 1783TIP3    H1 5355   0.256   5.002   1.414  0.7461 -1.5039  0.2647
 1783TIP3    H2 5356   0.354   5.039   1.523  1.0976 -1.7221  0.0237
 1784TIP3   OH2 5357   4.751   2.974   5.043 -0.1167 -0.1255 -0.0371
 1784TIP3    H1 5358   4.789   3.013   4.964 -0.8590 -1.3249 -1.0509
 1784TIP3    H2 5359   4.802   2.894   5.057  1.1065  0.9210  1.7359
 1785TIP3   OH2 5360   5.030   0.420   4.077  0.4407  0.4781 -0.1065
 1785TIP3    H1 5361   4.948   0.393   4.035  0.2884  0.9592 -0.1258
 1785TIP3    H2 5362   5.067   0.484   4.017  0.7877  0.3304 -0.0512
 1786TIP3   OH2 5363   2.723   3.054   3.154 -0.1123 -0.0090  0.5908
 1786TIP3    H1 5364   2.662   2.986   3.125  0.0243  0.8405 -1.8721
 1786TIP3    H2 5365   2.758   3.020   3.236  0.9179 -3.6222 -1.1201
 1787TIP3   OH2 5366   6.296   4.465   1.096 -0.3366 -0.4353  0.0519
 1787TIP3    H1 5367   6.206   4.435   1.099 -0.8468  1.0759  1.3348
 1787TIP3    H2 5368   6.344   4.407   1.155 -0.6118 -0.7669 -0.0489
 1788TIP3   OH2 5369   0.603   0.513   1.517 -0.2362 -0.3071  0.3096
 1788TIP3    H1 5370   0.597   0.473   1.604  0.1248 -0.7298  0.1407
 1788TIP3    H2 5371   0.658   0.590   1.530 -0.3996 -0.2212  0.5056
 1789TIP3   OH2 5372   0.095   0.644   2.131 -0.5271 -0.0193 -0.1439
 1789TIP3    H1 5373   0.121   0.727   2.170 -1.0346 -0.6251  1.6062
 1789TIP3    H2 5374   0.004   0.656   2.105 -0.3749  0.1923 -0.5898
 1790TIP3   OH2 5375   0.828   0.161   1.849 -0.0916  0.2596  0.2406
 1790TIP3    H1 5376   0.910   0.148   1.896  0.5280  1.5498 -0.4211
 1790TIP3    H2 5377   0.803   0.074   1.819  1.1724 -0.1264  0.2625
 1791TIP3   OH2 5378   2.571   3.547   3.116 -0.0868 -0.4401 -0.0322
 1791TIP3    H1 5379   2.658   3.526   3.148  0.2663 -0.8374 -1.1897
 1791TIP3    H2 5380   2.525   3.463   3.114 -0.6415 -0.1678  0.9764
 1792TIP3   OH2 5381   5.811   4.967   2.852  0.4554 -0.2610  0.4532
 1792TIP3    H1 5382   5.808   4.889   2.796  2.4622 -1.3983  1.8158
 1792TIP3    H2 5383   5.894   5.010   2.828  0.6024  0.0497  1.4889
 1793TIP3   OH2 5384   1.493   0.179   4.553  0.1830 -0.0575  0.0024
 1793TIP3    H1 5385   1.578   0.206   4.519  0.2819  1.0512  1.0512
 1793TIP3    H2 5386   1.429   0.228   4.502  0.2818  0.7113  0.5949
 1794TIP3   OH2 5387   4.547   0.980   2.606 -0.1098 -0.1213 -0.6983
 1794TIP3    H1 5388   4.492   0.906   2.634  0.1622  0.8104  2.7808
 1794TIP3    H2 5389   4.496   1.023   2.538 -1.6342 -1.8020 -0.6968
 1795TIP3   OH2 5390   4.671   0.524   4.620  0.3405  0.0687 -0.0240
 1795TIP3    H1 5391   4.643   0.450   4.566  0.4174 -1.2599  1.6690
 1795TIP3    H2 5392   4.660   0.600   4.563 -1.6112 -1.0008 -1.2001
 1796TIP3   OH2 5393   0.534   0.464   0.134 -0.2353 -0.0385 -0.1211
 1796TIP3    H1 5394   0.505   0.513   0.211  1.8407  0.5957  0.3184
 1796TIP3    H2 5395   0.545   0.530   0.066  0.0497 -0.2770 -0.3096
 1797TIP3   OH2 5396   0.920   5.758   2.349 -0.5900 -0.0185 -0.0662
 1797TIP3    H1 5397   0.974   5.757   2.428 -0.7192 -0.2589  0.0216
 1797TIP3    H2 5398   0.983   5.758   2.277 -0.4292 -1.9242  0.0086
 1798TIP3   OH2 5399   5.869   4.949   4.789  0.1647 -0.0686  0.1535
 1798TIP3    H1 5400   5.923   5.025   4.811 -0.9351 -0.0237  3.1039
 1798TIP3    H2 5401   5.805   4.983   4.726  0.4099  1.1715  0.5410
 1799TIP3   OH2 5402   5.546   5.753   0.772  0.3184  0.5045 -0.0423
 1799TIP3    H1 5403   5.461   5.779   0.738  0.2195  1.2171  0.7234
 1799TIP3    H2 5404   5.534   5.746   0.866  0.7623 -0.7675 -0.0601
 1800TIP3   OH2 5405   2.051   3.008   4.266  0.5843  0.1296  0.5106
 1800TIP3    H1 5406   2.030   3.057   4.187 -0.7482  0.6773  1.1778
 1800TIP3    H2 5407   1.993   3.044   4.333  0.4892 -1.4705  1.3418
 1801TIP3   OH2 5408   2.981   5.533   0.320  0.6226 -0.2725  0.3898
 1801TIP3    H1 5409   2.944   5.599   0.262  3.2464  0.6656 -0.3692
 1801TIP3    H2 5410   2.919   5.525   0.392 -1.4014  0.5150 -1.1986
 1802TIP3   OH2 5411   4.775   0.938   1.300  0.2140 -0.1627 -0.2239
 1802TIP3    H1 5412   4.845   0.994   1.334  0.5984 -0.2337 -0.8829
 1802TIP3    H2 5413   4.814   0.851   1.293 -0.4974 -0.6310  1.1699
 1803TIP3   OH2 5414   1.898   4.251   3.579  0.3826 -0.2782  0.8637
 1803TIP3    H1 5415   1.908   4.237   3.484  0.1259  1.8985  0.4587
 1803TIP3    H2 5416   1.970   4.309   3.602  1.2500 -1.8486  2.3347
 1804TIP3   OH2 5417   3.347   3.910   4.412  0.4391  0.2908 -0.0261
 1804TIP3    H1 5418   3.389   3.986   4.452 -1.3325  0.9495  0.6858
 1804TIP3    H2 5419   3.262   3.904   4.456 -0.4420 -0.6619 -1.7490
 1805TIP3   OH2 5420   5.069   2.657   4.288 -0.3599  0.5944  0.0106
 1805TIP3    H1 5421   5.019   2.597   4.233 -0.7580 -0.4258  1.4301
 1805TIP3    H2 5422   5.011   2.677   4.361  0.5493  1.0632  0.6295
 1806TIP3   OH2 5423   0.875   3.065   0.591 -0.3186 -0.1842 -0.2781
 1806TIP3    H1 5424   0.865   3.095   0.681 -1.1718  0.3740 -0.5487
 1806TIP3    H2 5425   0.858   2.971   0.594 -0.6101 -0.1193  0.1009
 1807TIP3   OH2 5426   2.208   1.734   2.549 -0.5215  1.2439  0.3912
 1807TIP3    H1 5427   2.210   1.752   2.643 -0.4807  0.9958  0.4384
 1807TIP3    H2 5428   2.174   1.814   2.510 -0.2626  1.4515  0.5914
 1808TIP3   OH2 5429   4.342   1.883   4.302 -0.5814  0.1184 -0.4891
 1808TIP3    H1 5430   4.366   1.793   4.281  1.2890  0.9045 -2.1563
 1808TIP3    H2 5431   4.266   1.902   4.246  0.6777  0.3340 -2.2271
 1809TIP3   OH2 5432   2.241   1.927   3.177 -0.2410 -0.2061  0.0611
 1809TIP3    H1 5433   2.235   1.837   3.147 -1.7867 -0.2177  0.3454
 1809TIP3    H2 5434   2.324   1.930   3.225  0.5291 -1.0815 -1.1648
 1810TIP3   OH2 5435   2.674   4.532   1.989 -0.9383 -1.0267 -0.7920
 1810TIP3    H1 5436   2.584   4.564   1.979 -0.5922  1.8033  2.9011
 1810TIP3    H2 5437   2.723   4.583   1.925 -1.2851  2.1330  1.1830
 1811TIP3   OH2 5438   2.396   0.985   2.280 -0.1431 -0.7689 -0.1449
 1811TIP3    H1 5439   2.310   0.949   2.301 -1.7251  2.7871  0.0022
 1811TIP3    H2 5440   2.384   1.028   2.196  1.1980  0.6786  0.3667
 1812TIP3   OH2 5441   5.284   3.081   2.619 -0.0898 -0.0553 -0.0915
 1812TIP3    H1 5442   5.350   3.012   2.607  0.5334  0.5908 -0.4659
 1812TIP3    H2 5443   5.248   3.064   2.706  1.6124  0.4240  0.7686
 1813TIP3   OH2 5444   5.955   4.436   0.092 -0.0666 -0.1655  0.3478
 1813TIP3    H1 5445   6.045   4.458   0.116 -0.2704  0.8513  0.2097
 1813TIP3    H2 5446   5.963   4.352   0.047  0.9189  0.3044 -0.4080
 1814TIP3   OH2 5447   4.311   4.309   0.614 -0.5425 -0.0113  0.2257
 1814TIP3    H1 5448   4.356   4.377   0.565 -0.1450 -1.1080 -1.0032
 1814TIP3    H2 5449   4.219   4.333   0.610 -0.4001  0.4817 -0.1422
 1815TIP3   OH2 5450   0.250   2.140   1.946 -0.0623  0.4756  1.0392
 1815TIP3    H1 5451   0.340   2.119   1.918  0.0898  0.8111  1.2623
 1815TIP3    H2 5452   0.253   2.133   2.041 -0.5387 -0.5097  0.9802
 1816TIP3   OH2 5453   0.656   4.657   0.069 -0.4348 -0.1808 -0.2154
 1816TIP3    H1 5454   0.565   4.682   0.050 -0.4787 -0.2145 -0.0534
 1816TIP3    H2 5455   0.699   4.740   0.091 -0.2967 -0.0928 -0.8060
 1817TIP3   OH2 5456   0.952   3.550   4.654 -0.2523  0.3560  0.6109
 1817TIP3    H1 5457   1.043   3.575   4.644 -0.5851  0.8988 -1.5023
 1817TIP3    H2 5458   0.953   3.454   4.648  0.0997  0.4053 -0.1981
 1818TIP3   OH2 5459   4.281   5.822   2.153  0.1274  0.0190 -0.1530
 1818TIP3    H1 5460   4.285   5.868   2.069 -5.6430 -0.0733 -0.8676
 1818TIP3    H2 5461   4.292   5.890   2.219  2.2629  0.4865 -0.9244
 1819TIP3   OH2 5462   5.783   5.587   0.527 -0.0013  0.0417 -0.2442
 1819TIP3    H1 5463   5.743   5.505   0.556  1.7880 -0.9092 -0.3041
 1819TIP3    H2 5464   5.790   5.578   0.432  2.0759 -0.6856 -0.0647
 1820TIP3   OH2 5465   5.139   0.687   2.787  0.0065  0.3540 -0.1677
 1820TIP3    H1 5466   5.147   0.640   2.704  0.6605 -0.3330  0.2620
 1820TIP3    H2 5467   5.129   0.618   2.852 -0.8377  0.8963  0.3001
 1821TIP3   OH2 5468   4.623   4.389   1.425 -0.1464 -0.1728  0.0963
 1821TIP3    H1 5469   4.566   4.429   1.492  2.5959  0.2994  2.3157
 1821TIP3    H2 5470   4.671   4.463   1.388  1.6082 -0.8752  0.8847
 1822TIP3   OH2 5471   1.086   2.356   1.291 -0.4490 -0.6202  0.2812
 1822TIP3    H1 5472   1.146   2.428   1.272  0.2088 -0.2656  3.2836
 1822TIP3    H2 5473   1.007   2.377   1.242  0.1996  1.4414  0.0165
 1823TIP3   OH2 5474   1.797   5.927   4.825  0.0201  0.0061 -0.2640
 1823TIP3    H1 5475   1.880   5.910   4.780  0.6769  0.4006  0.7795
 1823TIP3    H2 5476   1.788   6.023   4.823  0.5130  0.0994  1.2237
 1824TIP3   OH2 5477   1.372   5.946   0.713 -0.5105 -0.6785  0.5413
 1824TIP3    H1 5478   1.373   5.881   0.642 -0.8271 -1.7265  1.4743
 1824TIP3    H2 5479   1.428   6.016   0.681  0.0484 -1.5223 -0.4035
 1825TIP3   OH2 5480   5.865   0.536   0.265 -0.0092  0.3378  0.3236
 1825TIP3    H1 5481   5.931   0.515   0.330 -0.0344 -0.6515  0.0474
 1825TIP3    H2 5482   5.913   0.539   0.182 -0.6934 -3.7546 -0.4469
 1826TIP3   OH2 5483   0.369   4.719   5.022 -0.3498 -0.2957 -0.2777
 1826TIP3    H1 5484   0.449   4.756   5.059 -0.3059 -1.6980  1.1757
 1826TIP3    H2 5485   0.306   4.723   5.094 -1.1792 -0.4311 -0.9876
 1827TIP3   OH2 5486   5.519   5.502   1.721  0.5786  0.1904 -0.7787
 1827TIP3    H1 5487   5.571   5.547   1.787  0.7718 -1.7087  0.4393
 1827TIP3    H2 5488   5.534   5.552   1.640  1.3093  1.8438  0.3276
 1828TIP3   OH2 5489   4.711   0.859   0.725  0.5232  0.0759 -0.2992
 1828TIP3    H1 5490   4.681   0.876   0.814  0.1621  1.2384 -0.6335
 1828TIP3    H2 5491   4.806   0.849   0.733  0.5951  1.0273  0.0922
 1829TIP3   OH2 5492   2.918   0.689   1.359 -0.0156 -0.4883  0.3546
 1829TIP3    H1 5493   2.996   0.731   1.397  0.4666 -0.5708 -0.5163
 1829TIP3    H2 5494   2.930   0.698   1.264 -1.8334  0.9194  0.1955
 1830TIP3   OH2 5495   4.138   1.956   1.292 -0.2454 -0.6023  0.5210
 1830TIP3    H1 5496   4.107   2.026   1.235  0.1061  0.6109  1.7815
 1830TIP3    H2 5497   4.207   1.913   1.241  0.9103  1.2340  0.4547
 1831TIP3   OH2 5498   1.187   3.158   5.049 -0.2227  0.0939  0.4249
 1831TIP3    H1 5499   1.176   3.100   5.124  1.7909  2.1389  2.4939
 1831TIP3    H2 5500   1.101   3.199   5.036 -0.9472 -1.3106  0.6776
 1832TIP3   OH2 5501   3.777   3.079   0.674 -0.1605  0.1433 -0.0077
 1832TIP3    H1 5502   3.732   3.163   0.665  0.1239  0.1049 -2.1387
 1832TIP3    H2 5503   3.723   3.017   0.625  1.4883 -0.1513 -1.5438
 1833TIP3   OH2 5504   3.302   4.936   3.373 -0.1061 -0.1662 -0.3158
 1833TIP3    H1 5505   3.300   5.029   3.350 -0.5535 -0.5886 -2.1412
 1833TIP3    H2 5506   3.384   4.925   3.421  0.7673  0.8705 -1.5108
 1834TIP3   OH2 5507   1.373   0.464   2.153 -0.0388 -0.0915  0.2591
 1834TIP3    H1 5508   1.425   0.397   2.196  0.9710  0.4145 -0.1408
 1834TIP3    H2 5509   1.313   0.495   2.221 -0.9025 -1.7588  0.2929
 1835TIP3   OH2 5510   3.777   3.518   4.551 -0.9480 -0.4000 -0.9981
 1835TIP3    H1 5511   3.733   3.582   4.607  2.2599  0.8337  0.3212
 1835TIP3    H2 5512   3.751   3.433   4.588 -1.3939  0.3051  0.3890
 1836TIP3   OH2 5513   4.626   4.933   2.126 -0.0430 -0.1851 -0.5230
 1836TIP3    H1 5514   4.718   4.930   2.154 -0.4806 -0.8789  0.9512
 1836TIP3    H2 5515   4.606   4.843   2.099 -0.4064 -0.1378 -0.4165
 1837TIP3   OH2 5516   6.032   5.204   0.702 -0.1911  0.3618 -0.2082
 1837TIP3    H1 5517   6.022   5.285   0.751 -1.8427  1.0100 -1.5397
 1837TIP3    H2 5518   5.949   5.159   0.713  0.6657 -1.1453  0.4239
 1838TIP3   OH2 5519   5.756   4.036   2.582 -0.0359 -0.6634 -0.5485
 1838TIP3    H1 5520   5.675   4.057   2.629  0.0825 -0.0246 -0.6229
 1838TIP3    H2 5521   5.800   3.973   2.638 -0.4150 -0.7426 -0.3334
 1839TIP3   OH2 5522   0.398   5.414   4.794  0.4623 -0.3152  0.4558
 1839TIP3    H1 5523   0.373   5.326   4.764 -1.0979  0.1833  0.2344
 1839TIP3    H2 5524   0.494   5.413   4.791  0.4537 -1.4715 -1.1310
 1840TIP3   OH2 5525   0.084   5.701   2.501  0.1640  0.2539  0.0689
 1840TIP3    H1 5526   0.121   5.721   2.587  0.3752  3.1222 -0.5840
 1840TIP3    H2 5527  -0.001   5.744   2.501  0.1365  0.2415 -1.1173
 1841TIP3   OH2 5528   6.116   3.461   3.374  0.2810  0.1312 -0.0009
 1841TIP3    H1 5529   6.077   3.482   3.459 -0.7981  0.1813 -0.4877
 1841TIP3    H2 5530   6.074   3.379   3.348  0.7267  0.0271 -0.4178
 1842TIP3   OH2 5531   3.108   1.570   2.497 -0.0679  0.5318 -0.2673
 1842TIP3    H1 5532   3.067   1.656   2.499 -1.4246 -0.1055  0.7819
 1842TIP3    H2 5533   3.105   1.545   2.404 -2.2168  0.4718 -0.2376
 1843TIP3   OH2 5534   2.695   4.461   4.140  0.0493  0.2496  0.4076
 1843TIP3    H1 5535   2.631   4.415   4.086  1.0397 -1.2698  0.4542
 1843TIP3    H2 5536   2.651   4.474   4.224 -0.2140 -0.7604  0.4371
 1844TIP3   OH2 5537   0.496   3.279   0.301  0.0698  0.1258 -0.0698
 1844TIP3    H1 5538   0.498   3.206   0.239  0.1183  0.2627 -0.2309
 1844TIP3    H2 5539   0.573   3.265   0.356  0.3230  0.2945 -0.3787
 1845TIP3   OH2 5540   0.559   4.525   0.538 -0.3084  0.2068  0.0972
 1845TIP3    H1 5541   0.522   4.443   0.571 -0.8907  0.5772  0.4023
 1845TIP3    H2 5542   0.554   4.518   0.443 -1.4957  0.3817  0.1351
 1846TIP3   OH2 5543   4.537   4.762   1.403 -0.2229  0.5027 -0.9881
 1846TIP3    H1 5544   4.500   4.837   1.356 -0.6146  0.1912 -1.1794
 1846TIP3    H2 5545   4.632   4.774   1.395 -0.2541  1.9542  0.5675
 1847TIP3   OH2 5546   3.850   0.041   4.227 -0.5768 -0.0638  0.0362
 1847TIP3    H1 5547   3.825   0.080   4.310  0.9582  0.0448  0.4889
 1847TIP3    H2 5548   3.901  -0.037   4.251 -2.1395 -1.4278 -0.8368
 1848TIP3   OH2 5549   5.724   5.465   4.220 -0.2982  0.2689 -0.0874
 1848TIP3    H1 5550   5.684   5.418   4.147 -1.8798  1.3720  0.0211
 1848TIP3    H2 5551   5.818   5.467   4.199 -0.1996 -2.4675 -0.3144
 1849TIP3   OH2 5552   3.920   3.387   3.500  0.0990  0.2417  0.0103
 1849TIP3    H1 5553   3.894   3.466   3.547  1.0118  0.4344  0.2011
 1849TIP3    H2 5554   4.016   3.388   3.500  0.1278 -0.0390 -1.3659
 1850TIP3   OH2 5555   5.059   5.391   1.291 -0.5603  0.0473 -0.1706
 1850TIP3    H1 5556   4.995   5.460   1.273 -1.9407 -1.7610 -2.8333
 1850TIP3    H2 5557   5.114   5.389   1.212 -0.4018 -1.7185 -0.0461
 1851TIP3   OH2 5558   1.260   0.615   3.185 -0.7314  0.1124  0.4358
 1851TIP3    H1 5559   1.201   0.647   3.117 -1.3604  0.4493  1.1205
 1851TIP3    H2 5560   1.222   0.647   3.267 -0.0780 -0.4156  0.9632
 1852TIP3   OH2 5561   2.403   4.461   3.132  0.1519 -0.1083  0.3441
 1852TIP3    H1 5562   2.385   4.543   3.178  0.5831 -1.1678  2.5296
 1852TIP3    H2 5563   2.488   4.433   3.166  0.2424 -1.2275 -0.7347
 1853TIP3   OH2 5564   4.991   1.171   2.049  0.1571 -0.0984  0.1274
 1853TIP3    H1 5565   4.923   1.115   2.087  0.4908 -1.1682 -0.8088
 1853TIP3    H2 5566   4.955   1.259   2.056 -1.7898 -0.7107 -1.2400
 1854TIP3   OH2 5567   5.076   3.667   3.533  0.2732  0.1239 -0.6079
 1854TIP3    H1 5568   5.080   3.709   3.447 -0.4782  3.9406  1.0035
 1854TIP3    H2 5569   4.983   3.663   3.553  0.1966 -3.6432 -1.0979
 1855TIP3   OH2 5570   4.701   4.991   0.745 -0.5153  0.4715 -0.2364
 1855TIP3    H1 5571   4.761   4.953   0.681 -0.1074 -0.3223  0.5772
 1855TIP3    H2 5572   4.739   5.077   0.765  1.1832 -0.5569  1.2717
 1856TIP3   OH2 5573   3.727   3.545   1.339  1.0068  0.8648 -0.6790
 1856TIP3    H1 5574   3.635   3.526   1.355  0.9057  1.9631  0.1542
 1856TIP3    H2 5575   3.773   3.467   1.370  0.5001  1.2368  1.0909
 1857TIP3   OH2 5576   5.584   4.545   0.030 -0.4181  0.5722  0.1624
 1857TIP3    H1 5577   5.631   4.536   0.112  0.3887 -0.9338 -0.4323
 1857TIP3    H2 5578   5.563   4.455   0.004 -1.0240  1.0432 -1.0639
 1858TIP3   OH2 5579   1.840   1.857   2.289 -0.2318 -0.3057  0.1522
 1858TIP3    H1 5580   1.786   1.932   2.314  0.8433  0.6072 -0.2236
 1858TIP3    H2 5581   1.807   1.832   2.203 -1.7678 -1.4173  1.0026
 1859TIP3   OH2 5582   5.817   0.493   4.878  0.4903 -0.1644 -0.0184
 1859TIP3    H1 5583   5.862   0.424   4.830  1.4538  1.1650 -1.1317
 1859TIP3    H2 5584   5.762   0.536   4.813 -1.1241 -0.6595  0.9464
 1860TIP3   OH2 5585   0.485   5.662   4.194  0.2956 -0.1546  0.1504
 1860TIP3    H1 5586   0.514   5.610   4.119 -0.6000  0.0316 -0.3423
 1860TIP3    H2 5587   0.414   5.716   4.159  1.4314  1.6904  0.5260
 1861TIP3   OH2 5588   6.023   0.528   2.037 -0.0324  0.0440  0.4856
 1861TIP3    H1 5589   6.043   0.496   2.125  0.8641 -0.3926  0.1375
 1861TIP3    H2 5590   6.074   0.608   2.028  1.2264 -0.7914 -0.2157
 1862TIP3   OH2 5591   5.650   0.578   1.661 -0.2401 -0.4038  0.0111
 1862TIP3    H1 5592   5.695   0.606   1.740 -1.0028  1.7312 -0.2445
 1862TIP3    H2 5593   5.714   0.524   1.614 -0.0544 -2.4340  2.4043
 1863TIP3   OH2 5594   6.267   0.742   4.650 -0.3628  0.2856 -0.1564
 1863TIP3    H1 5595   6.304   0.661   4.614  0.8195  0.4531  0.6275
 1863TIP3    H2 5596   6.220   0.714   4.728 -1.2364  0.1772 -0.7092
 1864TIP3   OH2 5597   1.275   3.222   3.059  0.3999  0.5313 -0.3775
 1864TIP3    H1 5598   1.288   3.209   3.153  2.2166  2.8330 -0.2110
 1864TIP3    H2 5599   1.194   3.273   3.053 -1.0633 -1.6539 -0.3170
 1865TIP3   OH2 5600   0.184   4.273   2.213 -0.4981 -1.0547  0.5813
 1865TIP3    H1 5601   0.239   4.197   2.199 -0.4092 -1.0489  0.8863
 1865TIP3    H2 5602   0.183   4.319   2.129 -1.2240 -1.8280  0.1487
 1866TIP3   OH2 5603   3.649   3.141   3.009 -0.6264  0.7504 -0.1156
 1866TIP3    H1 5604   3.574   3.177   2.962  0.7942  2.1488 -1.4160
 1866TIP3    H2 5605   3.701   3.096   2.942  0.1185  0.5229  0.5955
 1867TIP3   OH2 5606   0.871   0.550   3.005  0.2032 -0.5172 -0.1670
 1867TIP3    H1 5607   0.809   0.553   2.932  0.1294  0.3250 -0.0826
 1867TIP3    H2 5608   0.827   0.599   3.075  0.5976 -0.6622  0.1854
 1868TIP3   OH2 5609   3.148   0.598   4.495 -0.0220 -0.2326  0.2116
 1868TIP3    H1 5610   3.235   0.577   4.462  1.4369  1.9437  2.3399
 1868TIP3    H2 5611   3.115   0.516   4.531  1.4636 -0.9514  0.0039
 1869TIP3   OH2 5612   5.374   2.844   1.091  0.0169  0.0033 -0.0619
 1869TIP3    H1 5613   5.330   2.929   1.091 -0.0837 -0.0487 -0.0944
 1869TIP3    H2 5614   5.368   2.813   1.181 -0.5058 -0.2584 -0.1846
 1870TIP3   OH2 5615   4.077   0.340   3.785  0.1268  0.2135  0.8941
 1870TIP3    H1 5616   4.059   0.330   3.691 -0.7054  0.8494  0.9800
 1870TIP3    H2 5617   4.009   0.399   3.817  1.9471  2.1867  1.3833
 1871TIP3   OH2 5618   2.799   5.019   4.877 -0.0753 -0.3662 -0.3167
 1871TIP3    H1 5619   2.800   4.929   4.908 -0.4822  0.4030  2.1039
 1871TIP3    H2 5620   2.821   5.072   4.954  0.1468  1.6140 -1.6644
 1872TIP3   OH2 5621   5.579   2.440   4.022  0.0705 -0.3142  0.6655
 1872TIP3    H1 5622   5.484   2.433   4.011  0.1852 -0.4178 -0.3399
 1872TIP3    H2 5623   5.610   2.350   4.022  0.1177 -0.3035  1.5564
 1873TIP3   OH2 5624   4.310   4.367   4.363  0.1347 -0.0592  0.2458
 1873TIP3    H1 5625   4.244   4.370   4.432 -0.3122 -1.5673 -0.0889
 1873TIP3    H2 5626   4.386   4.410   4.402  0.1078 -1.4193  1.9441
 1874TIP3   OH2 5627   4.314   4.762   0.962 -1.2547  0.4566 -0.0411
 1874TIP3    H1 5628   4.374   4.810   0.905 -0.2204  1.4970  1.8124
 1874TIP3    H2 5629   4.234   4.816   0.963 -1.3802  0.2867 -0.7066
 1875TIP3   OH2 5630   0.977   0.201   2.767 -1.0936 -0.8265  0.0759
 1875TIP3    H1 5631   1.028   0.125   2.795 -1.2557 -0.6714  0.8108
 1875TIP3    H2 5632   0.936   0.173   2.685  3.1696  0.2944 -2.7951
 1876TIP3   OH2 5633   4.528   4.393   3.122  0.0869 -0.5509 -0.0301
 1876TIP3    H1 5634   4.499   4.484   3.133 -1.7649 -0.6603 -2.8925
 1876TIP3    H2 5635   4.621   4.400   3.100  0.2600  0.5325  0.9707
 1877TIP3   OH2 5636   0.485   5.084   5.185  0.6207  0.7559 -0.2943
 1877TIP3    H1 5637   0.548   5.018   5.158  1.5481  0.9904  1.1947
 1877TIP3    H2 5638   0.400   5.047   5.163  1.2232  0.1181 -1.6589
 1878TIP3   OH2 5639   2.048   2.352   1.193  0.0834 -0.1713 -0.5550
 1878TIP3    H1 5640   2.053   2.331   1.287  0.9891 -0.4097 -0.6438
 1878TIP3    H2 5641   2.098   2.282   1.151 -0.4914 -0.1753 -1.2403
 1879TIP3   OH2 5642   0.343   1.247   3.909  0.0543 -0.1001 -0.1334
 1879TIP3    H1 5643   0.406   1.304   3.952 -0.0641  0.2724 -0.4472
 1879TIP3    H2 5644   0.324   1.178   3.973  2.1690 -1.2698 -0.6619
 1880TIP3   OH2 5645   5.284   5.161   3.190 -0.2032  0.6497 -0.0795
 1880TIP3    H1 5646   5.367   5.128   3.226 -1.2310 -0.2292  1.5993
 1880TIP3    H2 5647   5.305   5.181   3.099  1.5195 -0.8524 -0.0928
 1881TIP3   OH2 5648   2.070   4.464   3.636 -0.1809 -0.3066  0.2087
 1881TIP3    H1 5649   2.162   4.489   3.625 -0.1715 -0.6987 -0.7104
 1881TIP3    H2 5650   2.037   4.522   3.705  0.3946  0.8029 -0.4210
 1882TIP3   OH2 5651   2.450   4.948   0.219  0.0772 -0.3907  0.4576
 1882TIP3    H1 5652   2.525   4.889   0.211  0.6193  0.1251  1.5618
 1882TIP3    H2 5653   2.489   5.035   0.227 -0.7041  0.0819 -0.6545
 1883TIP3   OH2 5654   4.444   2.051   4.846 -0.7551 -0.3454  0.4403
 1883TIP3    H1 5655   4.410   2.024   4.761 -2.8463 -1.6442  1.5815
 1883TIP3    H2 5656   4.455   1.969   4.894  1.9596  0.2156  0.9652
 1884TIP3   OH2 5657   4.970   4.563   3.021 -0.2400  0.2349  0.2137
 1884TIP3    H1 5658   5.061   4.574   2.993 -0.3850 -0.3177 -0.5010
 1884TIP3    H2 5659   4.957   4.630   3.088 -0.1781  2.3225 -1.7580
 1885TIP3   OH2 5660   4.267   1.867   0.427  0.3272 -0.2225 -0.8197
 1885TIP3    H1 5661   4.361   1.888   0.431  0.5180 -0.5970 -2.3658
 1885TIP3    H2 5662   4.232   1.931   0.365 -0.2180 -0.7801 -1.0947
 1886TIP3   OH2 5663   2.932   4.285   4.352 -0.2762  0.2662 -0.2020
 1886TIP3    H1 5664   2.941   4.351   4.421  0.3924 -0.4403  0.3889
 1886TIP3    H2 5665   2.924   4.337   4.271 -2.4021  1.1361  0.4964
 1887TIP3   OH2 5666   4.754   1.285   4.893  0.2097  0.3715  0.4275
 1887TIP3    H1 5667   4.839   1.259   4.928  0.5232  0.9978  0.1423
 1887TIP3    H2 5668   4.742   1.374   4.924  0.1359  0.6582 -0.4141
 1888TIP3   OH2 5669   1.293   2.432   3.986  0.0894  0.9587  0.4232
 1888TIP3    H1 5670   1.202   2.461   3.994 -0.3909  0.0158 -1.1174
 1888TIP3    H2 5671   1.289   2.338   4.002  1.1584  1.2109  2.4343
 1889TIP3   OH2 5672   4.656   2.586   0.284  0.0777  0.2647 -0.3120
 1889TIP3    H1 5673   4.615   2.643   0.349 -1.4739 -0.5077 -0.5541
 1889TIP3    H2 5674   4.645   2.497   0.319  0.8698 -0.0256 -0.7710
 1890TIP3   OH2 5675   0.324   0.724   3.149  0.3163  0.6755  0.1065
 1890TIP3    H1 5676   0.265   0.730   3.224 -0.2658  0.1085 -0.2959
 1890TIP3    H2 5677   0.267   0.698   3.076  0.8859  1.1212 -0.5113
 1891TIP3   OH2 5678   0.366   0.869   4.836 -0.0103  0.3729 -0.1712
 1891TIP3    H1 5679   0.301   0.875   4.766  0.5171 -1.7525 -0.9382
 1891TIP3    H2 5680   0.446   0.904   4.797 -0.3682  1.8330  0.3579
 1892TIP3   OH2 5681   5.446   1.264   2.773  0.5675 -0.1900 -0.3745
 1892TIP3    H1 5682   5.383   1.305   2.831  0.4346  1.1784 -1.4303
 1892TIP3    H2 5683   5.516   1.233   2.831 -0.1468  0.0100  0.6098
 1893TIP3   OH2 5684   0.368   5.073   1.703 -0.3298  0.0339  0.0064
 1893TIP3    H1 5685   0.292   5.119   1.739 -0.6488 -0.2555 -0.2934
 1893TIP3    H2 5686   0.439   5.136   1.711 -0.5724  0.2680  0.3994
 1894TIP3   OH2 5687   0.704   0.386   1.739  0.3328 -0.3220  0.3146
 1894TIP3    H1 5688   0.735   0.298   1.761  0.3491 -0.2747  0.4831
 1894TIP3    H2 5689   0.732   0.441   1.813  0.2872 -0.1835  0.2301
 1895TIP3   OH2 5690   4.274   3.549   0.574 -0.2135  0.5752  0.1055
 1895TIP3    H1 5691   4.236   3.469   0.610 -1.0005  0.8536 -0.0755
 1895TIP3    H2 5692   4.233   3.559   0.488 -0.7806  1.6003  0.4651
 1896TIP3   OH2 5693   3.539   4.183   1.126  0.5468 -0.5851  0.5353
 1896TIP3    H1 5694   3.528   4.257   1.067  1.1165  0.0113  1.1648
 1896TIP3    H2 5695   3.463   4.186   1.184  1.5293  0.7047  1.8260
 1897TIP3   OH2 5696   3.439   1.905   1.509 -0.1570  0.4050 -0.4549
 1897TIP3    H1 5697   3.504   1.956   1.557  1.2172  0.6583 -2.4426
 1897TIP3    H2 5698   3.394   1.968   1.454 -1.6190  0.1086  0.3539
 1898TIP3   OH2 5699   2.577   1.687   3.114 -0.0491 -0.5784 -0.1907
 1898TIP3    H1 5700   2.612   1.599   3.098 -0.2143 -0.7364  0.2899
 1898TIP3    H2 5701   2.575   1.728   3.028 -0.6536 -1.3046 -0.5383
 1899TIP3   OH2 5702   5.525   4.129   3.395  0.5574 -0.2936 -0.2292
 1899TIP3    H1 5703   5.583   4.055   3.377  2.5507  0.8338  1.0969
 1899TIP3    H2 5704   5.582   4.206   3.385 -0.6790  0.8751  1.2731
 1900TIP3   OH2 5705   0.730   4.610   1.231  0.2670  0.0397 -0.0359
 1900TIP3    H1 5706   0.784   4.647   1.301 -0.4662 -1.5966  1.4670
 1900TIP3    H2 5707   0.790   4.554   1.181  0.5362  0.3022 -0.0098
 1901TIP3   OH2 5708   4.461   1.820   5.005 -0.3300  0.3905  0.6092
 1901TIP3    H1 5709   4.435   1.743   4.955 -0.1592  0.8988 -0.2727
 1901TIP3    H2 5710   4.518   1.785   5.074 -0.7668 -0.3407  0.6179
 1902TIP3   OH2 5711   2.867   5.180   2.208  0.3664  0.1419  0.6029
 1902TIP3    H1 5712   2.839   5.193   2.118 -1.5997 -0.0816  1.1394
 1902TIP3    H2 5713   2.923   5.102   2.205 -0.9668 -0.8313 -0.2304
 1903TIP3   OH2 5714   2.075   4.323   0.821  0.6744 -0.4054  0.3355
 1903TIP3    H1 5715   2.007   4.255   0.817  0.9275 -0.6617  0.3914
 1903TIP3    H2 5716   2.041   4.387   0.884  1.6504 -1.8411  2.4634
 1904TIP3   OH2 5717   3.018   1.657   2.863 -0.6310 -0.5754  0.0489
 1904TIP3    H1 5718   3.075   1.581   2.856  0.2446  0.1723 -1.3847
 1904TIP3    H2 5719   2.991   1.659   2.955  0.3937 -1.8337  0.3998
 1905TIP3   OH2 5720   2.699   2.280   5.175 -0.2085  0.1135 -0.6192
 1905TIP3    H1 5721   2.665   2.367   5.152  1.5447  1.1722  0.5376
 1905TIP3    H2 5722   2.777   2.270   5.120 -0.2738 -0.6390 -0.5796
 1906TIP3   OH2 5723   2.853   1.562   1.505 -0.0117  0.3114 -0.2853
 1906TIP3    H1 5724   2.863   1.586   1.413 -0.2939 -0.8458 -0.6329
 1906TIP3    H2 5725   2.835   1.468   1.503 -2.1407  0.6530  0.8355
 1907TIP3   OH2 5726   4.850   2.052   4.581 -0.5050  0.2289 -0.0994
 1907TIP3    H1 5727   4.790   2.049   4.656 -1.0247 -0.3076 -0.5239
 1907TIP3    H2 5728   4.796   2.081   4.508 -0.4525 -0.9892 -0.6542
 1908TIP3   OH2 5729   0.120   0.152   1.461 -0.1879 -0.5990  0.1961
 1908TIP3    H1 5730   0.202   0.171   1.416  0.3483 -0.6992  1.0912
 1908TIP3    H2 5731   0.052   0.193   1.408  0.1662 -2.4172 -1.7974
 1909TIP3   OH2 5732   4.767   4.512   1.710 -0.1486 -0.3057  0.0813
 1909TIP3    H1 5733   4.797   4.548   1.626  0.1278 -0.2052  0.2240
 1909TIP3    H2 5734   4.743   4.589   1.762  0.9955 -0.2866  0.6014
 1910TIP3   OH2 5735   4.347   5.687   4.515 -0.0798 -0.1410  0.2003
 1910TIP3    H1 5736   4.254   5.699   4.497 -0.4871  0.3346  2.3644
 1910TIP3    H2 5737   4.390   5.705   4.431 -1.8574  0.6590 -0.5850
 1911TIP3   OH2 5738   4.808   1.556   4.915  0.0718 -0.5192 -0.0662
 1911TIP3    H1 5739   4.873   1.514   4.972  0.3841 -0.2504 -0.2171
 1911TIP3    H2 5740   4.811   1.649   4.939  1.1730 -0.1595 -1.4054
 1912TIP3   OH2 5741   1.102   2.146   5.019 -0.5725  0.4347 -0.0981
 1912TIP3    H1 5742   1.156   2.192   5.083  0.0037 -0.2234 -0.1004
 1912TIP3    H2 5743   1.037   2.211   4.991 -0.1881  1.0366  0.3880
 1913TIP3   OH2 5744   3.329   4.984   3.010 -0.0786  0.0189  0.1847
 1913TIP3    H1 5745   3.388   5.000   3.084 -0.2362  0.3836  0.2329
 1913TIP3    H2 5746   3.311   5.071   2.974 -1.8666  0.1081  1.1615
 1914TIP3   OH2 5747   6.352   2.413   2.069  0.4957 -0.1345  0.6348
 1914TIP3    H1 5748   6.406   2.403   1.991  0.5728 -2.3463  0.9317
 1914TIP3    H2 5749   6.262   2.409   2.037  0.5000 -2.6981  0.7586
 1915TIP3   OH2 5750   3.814   0.281   2.250 -0.2861 -0.5589 -0.3766
 1915TIP3    H1 5751   3.801   0.330   2.168  1.4281  1.4460  0.4460
 1915TIP3    H2 5752   3.746   0.316   2.308  1.3583  1.5253  0.4269
 1916TIP3   OH2 5753   2.784   1.977   1.011 -0.0346 -0.1113  0.0119
 1916TIP3    H1 5754   2.865   1.929   1.029  0.7815  0.5394 -1.6657
 1916TIP3    H2 5755   2.782   1.984   0.915 -2.0894 -0.0973  0.0246
 1917TIP3   OH2 5756   0.930   0.249   3.088  0.2899  0.2210 -0.0300
 1917TIP3    H1 5757   0.898   0.339   3.086 -1.9630 -0.4841  0.8073
 1917TIP3    H2 5758   0.897   0.210   3.007  1.6266  0.2433 -0.5996
 1918TIP3   OH2 5759   4.108   5.020   4.229 -0.0948 -0.0373  0.1365
 1918TIP3    H1 5760   4.153   5.085   4.175 -1.3882 -0.5567 -1.6640
 1918TIP3    H2 5761   4.178   4.971   4.271  0.9308  1.6879  0.5775
 1919TIP3   OH2 5762   5.702   4.662   4.447 -0.0095 -0.2669 -0.0440
 1919TIP3    H1 5763   5.637   4.618   4.501  0.5889  0.5610  1.4161
 1919TIP3    H2 5764   5.679   4.755   4.452  0.3894 -0.1194 -0.7662
 1920TIP3   OH2 5765   0.683   0.693   2.128 -0.1174  0.1497 -0.4291
 1920TIP3    H1 5766   0.588   0.700   2.119 -0.0824 -0.9430 -2.3392
 1920TIP3    H2 5767   0.718   0.750   2.060  0.5530 -0.3615 -0.5274
 1921TIP3   OH2 5768   5.504   3.958   1.632  0.0963  0.2644  0.3968
 1921TIP3    H1 5769   5.513   4.009   1.711 -1.8285  0.1878  0.7179
 1921TIP3    H2 5770   5.449   3.883   1.657 -1.5231  0.8186 -1.1909
 1922TIP3   OH2 5771   1.339   3.840   3.110 -0.1833 -0.0540 -0.1328
 1922TIP3    H1 5772   1.321   3.782   3.184 -0.8028  0.3978  0.0782
 1922TIP3    H2 5773   1.253   3.857   3.072  0.1372 -0.3159 -0.9890
 1923TIP3   OH2 5774   2.130   3.298   4.532 -0.1756 -0.7340  0.3217
 1923TIP3    H1 5775   2.098   3.388   4.529  0.0078 -0.4440  3.4428
 1923TIP3    H2 5776   2.056   3.248   4.565  0.7491 -1.0587  2.0177
 1924TIP3   OH2 5777   5.263   4.721   2.953 -0.4814 -0.1201  0.3191
 1924TIP3    H1 5778   5.355   4.745   2.939 -0.5281  0.5897  1.1663
 1924TIP3    H2 5779   5.226   4.794   3.001 -1.7491  0.0338 -0.8270
 1925TIP3   OH2 5780   2.419   3.363   4.629  0.1934  0.3332 -0.1203
 1925TIP3    H1 5781   2.338   3.343   4.581 -0.8757  0.2698  1.6189
 1925TIP3    H2 5782   2.476   3.404   4.564 -0.3673 -1.6143 -1.9597
 1926TIP3   OH2 5783   5.947   4.811   2.067  0.3006 -0.7450  0.4113
 1926TIP3    H1 5784   5.871   4.780   2.017 -0.2018  0.1233  0.6010
 1926TIP3    H2 5785   6.020   4.756   2.037 -0.1116 -0.6670 -0.8183
 1927TIP3   OH2 5786   5.300   2.457   0.019  0.4916  0.5331 -0.5631
 1927TIP3    H1 5787   5.267   2.369  -0.002  0.6564  0.7193 -1.6388
 1927TIP3    H2 5788   5.221   2.511   0.025  0.3189  0.1469  1.0044
 1928TIP3   OH2 5789   2.668   5.289   2.350 -0.4581  0.7112  0.1803
 1928TIP3    H1 5790   2.688   5.378   2.379  1.4612 -0.0518  1.4353
 1928TIP3    H2 5791   2.736   5.269   2.285 -0.0508 -0.2646  0.8793
 1929TIP3   OH2 5792   5.873   2.233   1.411  0.0747 -0.8047  0.0835
 1929TIP3    H1 5793   5.826   2.151   1.426 -0.9184 -0.6435 -1.8567
 1929TIP3    H2 5794   5.869   2.279   1.495 -2.8575 -1.0225  0.1569
 1930TIP3   OH2 5795   0.969   1.335   4.664 -0.1776  0.0327  0.0925
 1930TIP3    H1 5796   1.041   1.393   4.689 -0.6021  0.4668  0.3289
 1930TIP3    H2 5797   0.956   1.351   4.570 -0.3070  0.3373  0.1614
 1931TIP3   OH2 5798   0.377   0.391   0.912 -0.4765 -0.0254  0.0254
 1931TIP3    H1 5799   0.377   0.470   0.858  0.4531 -0.2603 -0.3450
 1931TIP3    H2 5800   0.288   0.356   0.903 -0.6451  0.5160 -0.4994
 1932TIP3   OH2 5801   4.283   4.442   0.015 -0.0586  0.3463  0.7924
 1932TIP3    H1 5802   4.195   4.406   0.005  0.5121 -1.2387  1.2941
 1932TIP3    H2 5803   4.269   4.537   0.017 -1.8083  0.1165  1.4472
 1933TIP3   OH2 5804   2.531   5.024   4.726 -0.2670  0.9687 -0.0839
 1933TIP3    H1 5805   2.616   5.024   4.770 -0.4049  1.6606  0.1906
 1933TIP3    H2 5806   2.496   4.936   4.743 -0.7402  1.5191  2.0697
 1934TIP3   OH2 5807   3.375   0.894   3.823  0.1372 -0.2090 -0.1887
 1934TIP3    H1 5808   3.377   0.918   3.730  0.6257  1.4529  0.2192
 1934TIP3    H2 5809   3.289   0.923   3.853  0.0378 -0.6147 -0.0672
 1935TIP3   OH2 5810   1.745   0.917   0.284  0.6107 -0.1343  0.2653
 1935TIP3    H1 5811   1.694   0.997   0.294  1.2193  0.5233 -1.3923
 1935TIP3    H2 5812   1.814   0.924   0.350 -0.4340 -0.2044  1.3692
 1936TIP3   OH2 5813   2.279   3.241   0.324 -0.9207 -0.2344 -0.0897
 1936TIP3    H1 5814   2.362   3.193   0.327 -0.3985  0.4883 -1.6593
 1936TIP3    H2 5815   2.300   3.327   0.362 -0.7839  0.1527 -1.0234
 1937TIP3   OH2 5816   1.945   1.912   1.884 -0.5223  0.3254  0.2727
 1937TIP3    H1 5817   1.864   1.904   1.933 -1.5260  0.8953 -1.2178
 1937TIP3    H2 5818   1.930   1.860   1.805  0.3411  0.8945 -0.2861
 1938TIP3   OH2 5819   5.320   0.822   4.169 -0.2505  0.2704 -0.3593
 1938TIP3    H1 5820   5.395   0.873   4.199  0.2702 -0.9001  0.3759
 1938TIP3    H2 5821   5.309   0.848   4.077  1.4988 -0.0738 -0.6942
 1939TIP3   OH2 5822   1.090   1.746   0.912  0.5123 -0.0241  0.3331
 1939TIP3    H1 5823   1.035   1.780   0.983  0.4488 -1.6540  1.1219
 1939TIP3    H2 5824   1.083   1.651   0.920  0.4858 -0.2693 -1.8981
 1940TIP3   OH2 5825   1.696   1.112   0.875 -0.3025 -0.7101 -0.1525
 1940TIP3    H1 5826   1.742   1.148   0.799 -0.6245 -0.0821 -0.0638
 1940TIP3    H2 5827   1.715   1.019   0.873  0.9330 -0.4765 -0.1362
 1941TIP3   OH2 5828   4.052   0.995   1.351  0.1875 -0.2093 -1.0301
 1941TIP3    H1 5829   3.998   0.986   1.273 -0.0520 -1.1509 -0.7757
 1941TIP3    H2 5830   4.141   0.975   1.321  0.5113  1.7543 -1.5386
 1942TIP3   OH2 5831   5.805   5.658   5.087  0.0956 -0.3069 -0.0531
 1942TIP3    H1 5832   5.761   5.699   5.161 -0.9255  1.5914 -1.6270
 1942TIP3    H2 5833   5.753   5.579   5.069  0.9810 -1.3735  1.8525
 1943TIP3   OH2 5834   1.346   0.625   4.550 -0.1808  0.4217  0.7469
 1943TIP3    H1 5835   1.404   0.555   4.519  2.6209  2.5872  0.7915
 1943TIP3    H2 5836   1.355   0.623   4.645  1.4395  2.0042  0.6613
 1944TIP3   OH2 5837   2.146   1.818   4.316  0.3429  0.2688  0.1620
 1944TIP3    H1 5838   2.081   1.881   4.286 -3.2486 -3.0290  0.2734
 1944TIP3    H2 5839   2.171   1.770   4.237  2.4560  1.1887  0.1979
 1945TIP3   OH2 5840   5.681   5.651   2.885 -0.0374 -0.2485 -0.0452
 1945TIP3    H1 5841   5.628   5.730   2.885 -0.4581 -0.5253 -0.1014
 1945TIP3    H2 5842   5.771   5.682   2.895 -0.1586  0.2596 -0.4640
 1946TIP3   OH2 5843   1.550   4.712   3.054  0.1654 -0.1178  0.5000
 1946TIP3    H1 5844   1.457   4.733   3.045  0.4210  1.0693  0.3831
 1946TIP3    H2 5845   1.570   4.655   2.979 -0.4317 -0.2630  0.4498
 1947TIP3   OH2 5846   5.652   3.005   2.426  0.0490 -0.2612 -0.1800
 1947TIP3    H1 5847   5.641   3.071   2.358 -4.8140 -0.1223  0.3443
 1947TIP3    H2 5848   5.668   3.054   2.506 -1.5613  0.2333 -0.1256
 1948TIP3   OH2 5849   6.098   5.404   1.407  0.2420  0.6914 -0.1424
 1948TIP3    H1 5850   6.050   5.355   1.474 -1.8714 -0.4875 -2.3343
 1948TIP3    H2 5851   6.176   5.350   1.390 -0.0525  0.1374  0.2187
 1949TIP3   OH2 5852   0.353   5.150   0.654  0.6650  0.3797  0.1259
 1949TIP3    H1 5853   0.382   5.232   0.694  0.5570  1.4110 -1.8009
 1949TIP3    H2 5854   0.419   5.086   0.681  1.5883  1.4270  0.4384
 1950TIP3   OH2 5855   1.799   5.599   3.820 -0.4569  0.2218  0.1643
 1950TIP3    H1 5856   1.724   5.596   3.879 -1.1625  0.9241 -0.6547
 1950TIP3    H2 5857   1.799   5.688   3.786  0.3354  0.0263 -0.3807
 1951TIP3   OH2 5858   4.941   0.132   0.488 -0.4417  0.2394 -0.1211
 1951TIP3    H1 5859   4.952   0.225   0.508  1.3895  0.0937 -0.2439
 1951TIP3    H2 5860   4.899   0.131   0.402  0.9480  1.0054 -0.8539
 1952TIP3   OH2 5861   3.375   0.540   2.877 -0.5465 -0.1473 -0.6332
 1952TIP3    H1 5862   3.296   0.588   2.851 -1.0860 -0.0470  1.1034
 1952TIP3    H2 5863   3.348   0.490   2.954  0.8386 -0.8703 -0.5962
 1953TIP3   OH2 5864   0.081   2.919   1.688 -0.1481  0.4889  0.3525
 1953TIP3    H1 5865  -0.013   2.916   1.671 -0.5232  1.2691  2.0926
 1953TIP3    H2 5866   0.097   2.846   1.748 -0.0374  1.5430  1.6546
 1954TIP3   OH2 5867   4.975   1.141   1.414  0.2452  0.2982 -0.0739
 1954TIP3    H1 5868   4.960   1.227   1.454  1.0688  0.1640  0.5618
 1954TIP3    H2 5869   5.002   1.085   1.487  1.7799  0.0367 -0.8063
 1955TIP3   OH2 5870   3.314   0.473   0.580 -0.5543 -0.2498 -0.2708
 1955TIP3    H1 5871   3.335   0.567   0.572 -1.0938 -0.1154 -0.1053
 1955TIP3    H2 5872   3.331   0.453   0.672 -0.9265 -0.1923 -0.1872
 1956TIP3   OH2 5873   1.101   3.583   0.339 -0.3383  0.6684  0.2361
 1956TIP3    H1 5874   1.176   3.528   0.359  0.4434  0.8665 -1.9313
 1956TIP3    H2 5875   1.054   3.591   0.423 -0.3232 -2.9459  0.7339
 1957TIP3   OH2 5876   5.908   0.408   0.717  0.1562 -0.2822 -0.0930
 1957TIP3    H1 5877   5.861   0.359   0.785 -0.8591  1.2041  0.3345
 1957TIP3    H2 5878   5.868   0.378   0.635 -0.9064  0.2696  0.2049
 1958TIP3   OH2 5879   4.094   2.296   3.675 -0.4411 -0.0682 -0.0399
 1958TIP3    H1 5880   4.163   2.231   3.672  0.4179  0.7462  1.1615
 1958TIP3    H2 5881   4.083   2.324   3.584 -0.1318 -1.1503 -0.4274
 1959TIP3   OH2 5882   4.407   4.172   0.093 -0.4091  0.1307 -0.7143
 1959TIP3    H1 5883   4.331   4.148   0.147 -0.6370  0.0526 -1.0703
 1959TIP3    H2 5884   4.440   4.252   0.134  0.6458 -1.0035  0.7690
 1960TIP3   OH2 5885   5.923   1.971   1.034  0.0197 -0.4231 -0.2422
 1960TIP3    H1 5886   5.893   2.058   1.061  0.4783  0.0952 -1.3211
 1960TIP3    H2 5887   6.008   1.987   0.992  1.5727 -1.7539  2.1080
 1961TIP3   OH2 5888   1.178   2.179   0.502  0.3373  0.2930 -0.4186
 1961TIP3    H1 5889   1.237   2.121   0.453  1.3301  0.1622  0.8969
 1961TIP3    H2 5890   1.234   2.249   0.534  0.6661 -1.6187  3.8803
 1962TIP3   OH2 5891   0.995   1.253   3.243  0.4309  0.0111  0.5979
 1962TIP3    H1 5892   0.997   1.179   3.183  0.6784  0.2225  0.3459
 1962TIP3    H2 5893   0.903   1.261   3.268  0.1393  0.6020 -0.5929
 1963TIP3   OH2 5894   4.063   1.025   1.887  0.0631  0.0366  0.2920
 1963TIP3    H1 5895   4.053   0.955   1.951  1.1764 -0.8791 -0.4853
 1963TIP3    H2 5896   4.158   1.033   1.875 -0.0962  0.7256 -0.6500
 1964TIP3   OH2 5897   6.205   2.642   0.930 -0.2526 -0.2277  0.0253
 1964TIP3    H1 5898   6.166   2.586   0.863  1.6745 -0.5029 -0.9655
 1964TIP3    H2 5899   6.170   2.729   0.913 -2.0550 -0.8132  0.5741
 1965TIP3   OH2 5900   2.220   4.042   2.411  1.0764 -0.4684 -0.1696
 1965TIP3    H1 5901   2.130   4.071   2.393 -0.0045 -3.4869 -0.0970
 1965TIP3    H2 5902   2.272   4.122   2.405 -1.5290  1.3153 -0.6841
 1966TIP3   OH2 5903   6.071   0.911   0.081 -0.1715 -0.1290  0.2166
 1966TIP3    H1 5904   6.063   0.848   0.152  1.7211 -0.5095  0.1456
 1966TIP3    H2 5905   6.113   0.987   0.120  0.0869  0.0069 -0.3113
 1967TIP3   OH2 5906   2.723   5.553   1.487 -0.2681 -0.1992 -0.0275
 1967TIP3    H1 5907   2.628   5.543   1.483 -0.3868  0.7823  0.0693
 1967TIP3    H2 5908   2.756   5.464   1.491 -1.1820 -0.5565 -0.1446
 1968TIP3   OH2 5909   1.266   5.297   3.332  0.2691  0.7634  0.0604
 1968TIP3    H1 5910   1.323   5.326   3.403 -0.6233  1.0893  0.6443
 1968TIP3    H2 5911   1.323   5.240   3.278  0.6851 -0.2966  1.5617
 1969TIP3   OH2 5912   3.851   3.208   2.101 -0.1322 -0.1494  0.1397
 1969TIP3    H1 5913   3.933   3.203   2.052 -0.3518 -1.4637 -0.1520
 1969TIP3    H2 5914   3.784   3.226   2.035 -0.3535 -1.3692 -0.0041
 1970TIP3   OH2 5915   1.582   1.199   2.882 -0.7481  0.0183 -0.3160
 1970TIP3    H1 5916   1.494   1.205   2.845 -0.6689  1.0683 -0.3623
 1970TIP3    H2 5917   1.592   1.278   2.935  1.1086  1.3546 -2.4679
 1971TIP3   OH2 5918   1.052   2.317   3.141  0.3480  1.1015  0.3043
 1971TIP3    H1 5919   1.028   2.366   3.220 -3.4498  2.6593 -1.5269
 1971TIP3    H2 5920   1.034   2.378   3.070  1.3909 -1.0086 -1.8837
 1972TIP3   OH2 5921   5.226   2.162   1.109  0.1809 -0.1524 -0.3077
 1972TIP3    H1 5922   5.241   2.146   1.016  0.9926 -0.5966 -0.1114
 1972TIP3    H2 5923   5.299   2.118   1.153 -0.8851 -1.0705  0.6265
 1973TIP3   OH2 5924   4.054   2.202   2.566 -0.0647 -0.5032 -0.0743
 1973TIP3    H1 5925   4.102   2.131   2.524  2.4751 -0.2778  2.2052
 1973TIP3    H2 5926   4.060   2.276   2.506  0.5043 -1.1456 -0.8133
 1974TIP3   OH2 5927   5.991   3.071   4.794  0.1501 -0.4933 -0.0129
 1974TIP3    H1 5928   6.026   3.159   4.809 -0.0232 -0.3256 -0.5881
 1974TIP3    H2 5929   6.007   3.025   4.877 -1.7014  0.7123  1.0919
 1975TIP3   OH2 5930   3.546   2.104   4.563  0.0793  0.3952  0.6696
 1975TIP3    H1 5931   3.569   2.161   4.637  1.1580  0.6238  0.1818
 1975TIP3    H2 5932   3.564   2.156   4.485  0.0088 -0.2195  0.2303
 1976TIP3   OH2 5933   5.358   0.513   0.358 -0.0785  0.3716 -0.5204
 1976TIP3    H1 5934   5.362   0.467   0.442 -1.0037  0.7620 -0.2542
 1976TIP3    H2 5935   5.334   0.445   0.295 -0.0732  0.2136 -0.3523
 1977TIP3   OH2 5936   0.555   3.307   0.753  0.4688 -0.2694  0.1195
 1977TIP3    H1 5937   0.571   3.213   0.745  0.9237 -0.2020  0.1974
 1977TIP3    H2 5938   0.628   3.339   0.806  0.5977  0.2111 -0.3397
 1978TIP3   OH2 5939   0.411   0.955   1.451  0.4534  0.3675 -0.0006
 1978TIP3    H1 5940   0.454   0.935   1.534 -0.5147 -0.2180  0.3730
 1978TIP3    H2 5941   0.476   0.931   1.384  0.8968 -0.0118  0.5583
 1979TIP3   OH2 5942   1.215   5.258   1.319  0.6461 -0.0817  0.3231
 1979TIP3    H1 5943   1.144   5.257   1.383  0.1018  0.4297 -0.2671
 1979TIP3    H2 5944   1.175   5.289   1.238  1.1395 -1.4874 -0.5034
 1980TIP3   OH2 5945   1.533   5.549   0.697 -0.2778 -0.3370 -0.5665
 1980TIP3    H1 5946   1.506   5.468   0.652  0.7610 -0.7812 -0.4085
 1980TIP3    H2 5947   1.470   5.558   0.768 -2.3620  0.7193 -2.3947
 1981TIP3   OH2 5948   2.407   3.813   3.207  0.4541 -0.3141  0.4589
 1981TIP3    H1 5949   2.405   3.726   3.247  0.1358 -1.0678 -1.1191
 1981TIP3    H2 5950   2.331   3.857   3.244 -0.8323 -1.5882 -0.5275
 1982TIP3   OH2 5951   4.601   3.443   0.010  0.4383  0.0824  0.4169
 1982TIP3    H1 5952   4.637   3.414   0.094  2.9252 -1.6829 -1.1474
 1982TIP3    H2 5953   4.655   3.517  -0.016  1.8035 -1.3435 -1.0212
 1983TIP3   OH2 5954   0.107   0.624   0.390  0.0163 -0.3223  0.7576
 1983TIP3    H1 5955   0.066   0.553   0.342  0.3564 -0.5290  0.7705
 1983TIP3    H2 5956   0.036   0.687   0.404  0.1509  0.2901 -1.0213
 1984TIP3   OH2 5957   1.798   0.247   3.769  0.0147 -0.5826  0.2882
 1984TIP3    H1 5958   1.850   0.190   3.712 -0.2448 -0.3248 -0.2149
 1984TIP3    H2 5959   1.774   0.321   3.713  1.5755  0.7699  1.3065
 1985TIP3   OH2 5960   3.211   0.136   3.512 -0.4358 -0.4711 -0.1132
 1985TIP3    H1 5961   3.134   0.081   3.522 -0.1063 -0.8029  0.6101
 1985TIP3    H2 5962   3.192   0.215   3.562 -0.1845 -0.6873  0.3318
 1986TIP3   OH2 5963   3.567   2.415   0.612 -0.1339  0.0681 -0.1772
 1986TIP3    H1 5964   3.556   2.341   0.673 -0.8994 -0.7917 -1.3145
 1986TIP3    H2 5965   3.483   2.420   0.566 -0.5194  2.4179  0.6650
 1987TIP3   OH2 5966   5.365   3.095   1.804  0.2793  0.1443  0.0533
 1987TIP3    H1 5967   5.415   3.067   1.880  0.3224  1.2711  0.4503
 1987TIP3    H2 5968   5.327   3.180   1.829 -1.1805 -0.2982 -0.5236
 1988TIP3   OH2 5969   6.032   5.209   4.284  0.0627  0.5324  0.2654
 1988TIP3    H1 5970   6.107   5.205   4.225  1.5900  1.4812  2.0142
 1988TIP3    H2 5971   6.009   5.118   4.300  0.5422  0.2374 -0.6456
 1989TIP3   OH2 5972   0.201   3.421   0.781  0.1303  0.3388  0.3290
 1989TIP3    H1 5973   0.115   3.409   0.741  1.6807 -0.2055 -3.3341
 1989TIP3    H2 5974   0.236   3.499   0.738  3.1326 -2.0249 -1.9929
 1990TIP3   OH2 5975   3.276   1.148   1.400 -0.2465 -0.0592 -0.4014
 1990TIP3    H1 5976   3.306   1.217   1.460  0.1455 -0.0660 -0.5865
 1990TIP3    H2 5977   3.327   1.162   1.320  1.4488 -1.8611  0.2757
 1991TIP3   OH2 5978   1.793   4.071   4.636 -0.2700 -0.0036  0.9225
 1991TIP3    H1 5979   1.770   4.138   4.571  0.3930  0.0805  0.7688
 1991TIP3    H2 5980   1.811   4.121   4.715 -1.7177 -0.1486  1.3790
 1992TIP3   OH2 5981   4.186   1.955   0.695  0.8515 -0.4963  0.1576
 1992TIP3    H1 5982   4.213   1.905   0.618  3.1113 -0.5515  0.9269
 1992TIP3    H2 5983   4.145   1.891   0.753 -2.5441 -0.1622 -1.6285
 1993TIP3   OH2 5984   6.177   0.740   2.107  0.1774 -0.0219 -0.3554
 1993TIP3    H1 5985   6.232   0.791   2.168 -0.0261 -0.1989 -0.0242
 1993TIP3    H2 5986   6.087   0.760   2.133  0.0564  0.7490 -1.2876
 1994TIP3   OH2 5987   2.207   0.957   5.082  0.1323  0.0002  0.0421
 1994TIP3    H1 5988   2.281   0.896   5.079 -0.9248 -1.2828 -1.7049
 1994TIP3    H2 5989   2.238   1.030   5.136  2.1218 -1.1864  0.5988
 1995TIP3   OH2 5990   4.175   1.475   0.134 -0.2483 -0.6737  0.2809
 1995TIP3    H1 5991   4.246   1.531   0.165 -0.8524 -0.4045  1.2393
 1995TIP3    H2 5992   4.214   1.388   0.129  0.7927 -0.1510 -1.5672
 1996TIP3   OH2 5993   0.901   1.356   4.383  0.3035 -0.5968  0.0815
 1996TIP3    H1 5994   0.832   1.303   4.343 -0.0876 -0.0327 -0.0117
 1996TIP3    H2 5995   0.966   1.367   4.314 -0.7686  1.0943 -0.7372
 1997TIP3   OH2 5996   2.022   0.135   4.276 -0.3076  0.3256  0.2212
 1997TIP3    H1 5997   1.984   0.215   4.242 -0.5053  0.4459  0.7229
 1997TIP3    H2 5998   2.025   0.147   4.371  1.5485  0.5927  0.1819
 1998TIP3   OH2 5999   5.845   1.239   3.498  0.5497 -0.4096 -0.1213
 1998TIP3    H1 6000   5.784   1.260   3.428  0.8911 -0.0818 -0.3237
 1998TIP3    H2 6001   5.932   1.260   3.462  0.8978 -1.9342 -0.2570
 1999TIP3   OH2 6002   3.304   0.838   1.281 -0.4483 -0.1569 -0.1691
 1999TIP3    H1 6003   3.269   0.820   1.368  0.0155  0.4317  0.1447
 1999TIP3    H2 6004   3.242   0.900   1.242  0.4370  1.2571  0.5642
 2000TIP3   OH2 6005   1.803   1.122   0.014  0.4813  0.2953 -0.3358
 2000TIP3    H1 6006   1.893   1.116   0.046  1.5053  0.1919 -3.0200
 2000TIP3    H2 6007   1.766   1.035   0.031  0.6038  0.5364  1.3855
 2001TIP3   OH2 6008   1.574   1.252   0.566 -0.4033 -0.2704 -0.0687
 2001TIP3    H1 6009   1.534   1.288   0.645  1.0324  0.1466  0.4981
 2001TIP3    H2 6010   1.517   1.282   0.494 -0.2820  1.5984  0.5601
 2002TIP3   OH2 6011   4.498   2.603   1.411 -1.1829 -0.5272  0.2117
 2002TIP3    H1 6012   4.433   2.581   1.344 -1.2515 -0.4477  0.2517
 2002TIP3    H2 6013   4.581   2.576   1.373 -1.1977 -0.2861  0.0053
 2003TIP3   OH2 6014   1.469   5.487   2.703  0.2785  0.2457  0.4257
 2003TIP3    H1 6015   1.398   5.466   2.765 -0.3053 -0.7334 -0.5433
 2003TIP3    H2 6016   1.429   5.547   2.640  0.2881 -0.3427 -0.1487
 2004TIP3   OH2 6017   3.226   0.155   4.543 -0.5743 -0.0442  0.1564
 2004TIP3    H1 6018   3.285   0.130   4.473 -0.7978  1.1114 -0.4760
 2004TIP3    H2 6019   3.139   0.147   4.505 -0.8966 -2.1244  1.2047
 2005TIP3   OH2 6020   2.934   5.349   1.698  0.3991 -0.1118 -0.4528
 2005TIP3    H1 6021   2.917   5.443   1.696  1.0251  0.0079 -0.2794
 2005TIP3    H2 6022   2.859   5.310   1.652 -0.3922  0.3852  0.3725
 2006TIP3   OH2 6023   0.682   5.740   2.183 -0.2136 -0.2508  0.3811
 2006TIP3    H1 6024   0.762   5.765   2.230 -0.9712  1.0372  1.0388
 2006TIP3    H2 6025   0.613   5.747   2.249 -0.8933 -1.3521 -0.1800
 2007TIP3   OH2 6026   3.257   5.461   0.688  0.0757 -0.1949 -0.0572
 2007TIP3    H1 6027   3.234   5.551   0.664 -0.0337 -0.5156 -1.1814
 2007TIP3    H2 6028   3.302   5.470   0.772 -0.8154  0.8107  0.3447
 2008TIP3   OH2 6029   2.109   2.344   0.313  0.6801 -0.6388  0.2540
 2008TIP3    H1 6030   2.131   2.258   0.275  1.4556 -0.3200 -0.0508
 2008TIP3    H2 6031   2.112   2.404   0.239 -1.1897 -0.5413  0.2168
 2009TIP3   OH2 6032   0.933   4.841   1.929  0.7544 -0.4723  0.4994
 2009TIP3    H1 6033   0.894   4.855   2.015  0.1379  1.1053 -0.0066
 2009TIP3    H2 6034   1.011   4.897   1.929 -0.1663  0.8828 -0.5298
 2010TIP3   OH2 6035   1.131   4.356   4.014 -0.5237 -0.2302 -0.0840
 2010TIP3    H1 6036   1.037   4.372   4.006 -0.7942 -1.3470  0.5732
 2010TIP3    H2 6037   1.144   4.270   3.973  0.4073  0.3958 -1.1615
 2011TIP3   OH2 6038   0.170   2.169   4.926 -0.0350  0.0262 -0.3877
 2011TIP3    H1 6039   0.196   2.079   4.944  0.6324  0.2699 -0.0813
 2011TIP3    H2 6040   0.218   2.192   4.846  0.3609  0.3373 -0.0659
 2012TIP3   OH2 6041   0.960   2.221   1.013  0.0654 -0.5434 -0.1724
 2012TIP3    H1 6042   0.938   2.133   0.984  0.8697 -0.1627 -2.0824
 2012TIP3    H2 6043   0.882   2.273   0.993  0.1407 -0.5328 -0.4375
 2013TIP3   OH2 6044   0.188   1.481   0.178 -0.1145  0.1377  0.4549
 2013TIP3    H1 6045   0.278   1.481   0.147 -0.4465 -1.9656 -0.6738
 2013TIP3    H2 6046   0.192   1.522   0.264  1.6064  1.7609 -0.3260
 2014TIP3   OH2 6047   5.796   0.851   3.848  0.4686  0.2583 -0.0407
 2014TIP3    H1 6048   5.744   0.781   3.810  1.4933 -0.0025 -1.0240
 2014TIP3    H2 6049   5.790   0.922   3.784  2.4805 -0.3004 -0.9181
 2015TIP3   OH2 6050   3.651   2.751   4.307 -0.2160  0.1631 -0.3064
 2015TIP3    H1 6051   3.594   2.827   4.307  1.0939  1.2115  0.9380
 2015TIP3    H2 6052   3.610   2.690   4.369  0.0227  0.9377  0.6385
 2016TIP3   OH2 6053   3.662   1.918   0.798 -0.1865 -0.3226 -0.3178
 2016TIP3    H1 6054   3.612   1.888   0.723 -0.3983  1.4159 -0.9158
 2016TIP3    H2 6055   3.626   2.005   0.818  1.0008 -0.0373  0.7211
 2017TIP3   OH2 6056   2.660   0.814   4.852  0.2255 -0.1184  0.2427
 2017TIP3    H1 6057   2.597   0.764   4.800  1.7737 -1.9483  0.0292
 2017TIP3    H2 6058   2.682   0.889   4.797 -1.4194  0.3546  0.1607
 2018TIP3   OH2 6059   4.583   5.268   3.489 -0.6431 -0.0519  0.2679
 2018TIP3    H1 6060   4.558   5.326   3.416  0.4323 -2.0695 -1.8192
 2018TIP3    H2 6061   4.523   5.194   3.483 -0.4516 -0.3170  1.3810
 2019TIP3   OH2 6062   1.861   1.632   2.473 -0.3516 -0.1533 -0.0727
 2019TIP3    H1 6063   1.918   1.564   2.438  0.7197 -1.0640  3.1658
 2019TIP3    H2 6064   1.894   1.713   2.434  0.9503 -1.0276 -0.8471
 2020TIP3   OH2 6065   2.207   5.842   4.612  0.6030 -0.1312  0.0375
 2020TIP3    H1 6066   2.168   5.850   4.699  2.1312 -0.7494  0.8161
 2020TIP3    H2 6067   2.161   5.768   4.572 -0.0637  0.1204  0.3344
 2021TIP3   OH2 6068   3.067   3.962   3.250  0.1459  0.1011  0.2078
 2021TIP3    H1 6069   3.139   3.921   3.202 -0.1399 -0.1581 -0.0024
 2021TIP3    H2 6070   3.080   3.934   3.341  0.6287  0.5108  0.2706
 2022TIP3   OH2 6071   3.101   0.773   5.065  0.4311  0.3489 -0.2311
 2022TIP3    H1 6072   3.009   0.799   5.073 -0.3486 -2.2847  0.5376
 2022TIP3    H2 6073   3.103   0.717   4.987  1.2958  0.0640 -0.0152
 2023TIP3   OH2 6074   4.837   1.167   3.005 -0.0032 -0.2393 -0.6150
 2023TIP3    H1 6075   4.766   1.229   2.994  1.9336  2.0768 -0.8692
 2023TIP3    H2 6076   4.854   1.133   2.917  0.6327  0.9231 -0.9604
 2024TIP3   OH2 6077   2.518   2.850   3.889  0.5332  0.1360  0.2440
 2024TIP3    H1 6078   2.612   2.834   3.899  0.4675 -0.2879  0.2235
 2024TIP3    H2 6079   2.491   2.789   3.820  0.3287  0.5757 -0.0661
 2025TIP3   OH2 6080   1.664   4.731   2.310 -0.3902 -0.3639 -0.0901
 2025TIP3    H1 6081   1.715   4.670   2.364  0.4189  0.7578  0.4655
 2025TIP3    H2 6082   1.577   4.731   2.349  0.0288 -0.0088  0.8748
 2026TIP3   OH2 6083   4.778   3.519   0.577 -0.4761 -0.6151 -0.4502
 2026TIP3    H1 6084   4.872   3.512   0.589 -0.4542 -1.2900 -0.9222
 2026TIP3    H2 6085   4.741   3.490   0.661 -0.2910  4.3842  1.6942
 2027TIP3   OH2 6086   2.762   4.382   2.918  0.1396  0.4783  0.9833
 2027TIP3    H1 6087   2.764   4.440   2.842 -2.0115  0.9359  1.2060
 2027TIP3    H2 6088   2.822   4.422   2.981  2.4814 -0.2671 -0.6350
 2028TIP3   OH2 6089   3.082   4.043   4.306 -0.1136 -0.5574  0.7568
 2028TIP3    H1 6090   3.069   4.133   4.337  0.5710 -0.6341  1.2729
 2028TIP3    H2 6091   3.035   3.990   4.370 -0.6768 -0.5646  0.3482
 2029TIP3   OH2 6092   0.634   1.279   4.987  0.2674  0.4276 -0.2795
 2029TIP3    H1 6093   0.718   1.322   4.969  0.8234 -0.5037 -0.0183
 2029TIP3    H2 6094   0.571   1.324   4.930  0.6732  2.0178  0.4741
 2030TIP3   OH2 6095   5.439   1.309   3.649  0.2154 -0.7268  0.1085
 2030TIP3    H1 6096   5.430   1.217   3.623 -0.1544  0.1199 -3.1394
 2030TIP3    H2 6097   5.413   1.359   3.572  1.0867  2.1478  1.5303
 2031TIP3   OH2 6098   2.612   5.875   3.620  0.2838  0.2648 -0.6299
 2031TIP3    H1 6099   2.615   5.794   3.670  0.6849  0.4627 -0.3278
 2031TIP3    H2 6100   2.697   5.878   3.574  1.2626  1.6092  1.1240
 2032TIP3   OH2 6101   2.827   2.200   3.862  0.2031 -0.7213  0.1751
 2032TIP3    H1 6102   2.812   2.138   3.790  3.2954 -2.7538  1.1018
 2032TIP3    H2 6103   2.892   2.262   3.827 -1.8515  1.3349 -0.2716
 2033TIP3   OH2 6104   5.808   3.789   2.724  0.2796 -0.1889 -0.2742
 2033TIP3    H1 6105   5.733   3.804   2.782  0.2798  0.3408 -0.4124
 2033TIP3    H2 6106   5.811   3.693   2.715 -0.4237 -0.2185 -0.3181
 2034TIP3   OH2 6107   2.050   3.308   3.562  0.4685  0.7643 -0.2275
 2034TIP3    H1 6108   2.029   3.344   3.476  0.8227  1.1894 -0.1344
 2034TIP3    H2 6109   1.981   3.342   3.620 -0.6363 -0.6966 -0.6119
 2035TIP3   OH2 6110   1.407   2.966   2.478 -0.3071 -0.2357 -0.5604
 2035TIP3    H1 6111   1.334   3.014   2.517 -0.3222  0.8483 -1.8729
 2035TIP3    H2 6112   1.376   2.941   2.391  0.5816 -0.5471 -0.7962
 2036TIP3   OH2 6113   4.095   4.057   4.480  0.3570  0.2666 -0.2529
 2036TIP3    H1 6114   4.047   4.060   4.398  2.4869 -0.7039 -1.6111
 2036TIP3    H2 6115   4.160   3.988   4.468 -0.0289 -0.7441  2.7007
 2037TIP3   OH2 6116   5.103   1.375   4.409  0.0715  0.0003 -0.4210
 2037TIP3    H1 6117   5.089   1.379   4.503  1.0752  1.5065 -0.3011
 2037TIP3    H2 6118   5.101   1.282   4.388  0.7330 -0.4230  1.2406
 2038TIP3   OH2 6119   3.363   0.794   5.134 -0.0490  0.7122 -0.0126
 2038TIP3    H1 6120   3.382   0.835   5.050 -0.0187 -0.4538 -0.5970
 2038TIP3    H2 6121   3.269   0.774   5.130 -0.2104  1.3400  0.5458
 2039TIP3   OH2 6122   1.018   2.333   1.849  0.0418 -0.1156 -0.2652
 2039TIP3    H1 6123   0.993   2.416   1.891  0.9331  0.7521 -1.4089
 2039TIP3    H2 6124   1.075   2.359   1.777  1.1433 -1.8002 -0.0334
 2040TIP3   OH2 6125   5.645   1.263   2.350  0.3538  0.3782 -0.2996
 2040TIP3    H1 6126   5.570   1.292   2.401  0.8255 -2.2797  2.1704
 2040TIP3    H2 6127   5.613   1.258   2.260 -1.7609  1.3636  0.3460
 2041TIP3   OH2 6128   4.944   5.765   3.821 -0.5439 -0.0276 -0.6076
 2041TIP3    H1 6129   4.940   5.758   3.725 -2.4946 -0.2861 -0.5436
 2041TIP3    H2 6130   4.980   5.681   3.849  0.9974  0.4209 -1.1291
 2042TIP3   OH2 6131   3.048   1.478   1.865 -0.2823 -0.0820  0.4997
 2042TIP3    H1 6132   3.020   1.387   1.864  0.1266 -0.2691 -2.0928
 2042TIP3    H2 6133   3.133   1.477   1.908 -2.3619 -0.0237  5.2124
 2043TIP3   OH2 6134   2.232   1.103   3.817 -0.3125 -0.3036 -0.3716
 2043TIP3    H1 6135   2.232   1.191   3.779  0.0657  1.8323  3.8688
 2043TIP3    H2 6136   2.323   1.076   3.816 -0.3324 -0.3571 -1.0871
 2044TIP3   OH2 6137   6.218   5.083   0.272 -0.1741 -0.3937 -0.1846
 2044TIP3    H1 6138   6.222   5.157   0.212  2.7175 -0.2605  0.0411
 2044TIP3    H2 6139   6.280   5.020   0.237 -0.5893 -1.5735  1.1002
 2045TIP3   OH2 6140   5.962   0.458   1.171  0.2588  0.3777  0.3631
 2045TIP3    H1 6141   6.007   0.380   1.139  0.6989  0.7928 -0.0373
 2045TIP3    H2 6142   5.978   0.525   1.105 -0.4622  0.7013  0.4983
 2046TIP3   OH2 6143   1.400   2.554   2.778  0.1090 -0.4518 -0.2511
 2046TIP3    H1 6144   1.483   2.601   2.786 -0.4119  0.4847 -0.1647
 2046TIP3    H2 6145   1.356   2.595   2.703 -0.0170 -1.3473 -0.6759
 2047TIP3   OH2 6146   1.052   5.715   2.623 -0.2931  0.6536 -0.0927
 2047TIP3    H1 6147   1.135   5.680   2.654 -0.5104  0.0773 -0.1395
 2047TIP3    H2 6148   0.986   5.674   2.680 -0.5089  1.5025  0.2811
 2048TIP3   OH2 6149   4.360   1.258   2.042  0.8964 -0.1229  0.3613
 2048TIP3    H1 6150   4.324   1.190   2.098 -0.9205  1.9830  1.9597
 2048TIP3    H2 6151   4.442   1.282   2.084  1.3613 -1.0568 -0.0002
 2049TIP3   OH2 6152   4.574   2.056   2.641 -0.1902  0.2675  0.1180
 2049TIP3    H1 6153   4.547   1.964   2.646  2.1566 -0.4496  0.9222
 2049TIP3    H2 6154   4.670   2.053   2.638 -0.0261  2.7159  0.6325
 2050TIP3   OH2 6155   2.096   5.521   2.948  0.6815  0.7055 -0.6094
 2050TIP3    H1 6156   2.102   5.425   2.941  0.9828  0.7091 -0.4336
 2050TIP3    H2 6157   2.184   5.552   2.927  0.6783  0.9223 -0.3106
 2051TIP3   OH2 6158   2.035   4.209   3.903  0.3944 -0.0018  0.8618
 2051TIP3    H1 6159   2.065   4.131   3.856 -0.9434 -0.1762  0.2619
 2051TIP3    H2 6160   2.100   4.276   3.883  0.4255 -0.3805 -0.3502
 2052TIP3   OH2 6161   3.303   3.852   5.119  0.2247 -0.4922  0.2021
 2052TIP3    H1 6162   3.367   3.911   5.079  0.3658  0.0201  1.1455
 2052TIP3    H2 6163   3.334   3.764   5.099  0.4424 -0.2486 -0.5529
 2053TIP3   OH2 6164   5.921   4.799   3.066 -0.2279  0.0307 -0.8013
 2053TIP3    H1 6165   6.012   4.772   3.081 -0.0947 -0.7620 -2.7283
 2053TIP3    H2 6166   5.929   4.887   3.027 -0.1682 -0.5870 -2.2483
 2054TIP3   OH2 6167   3.390   0.057   0.280 -0.4718 -0.3062 -0.0511
 2054TIP3    H1 6168   3.452  -0.010   0.309  0.1530 -0.4468 -1.5867
 2054TIP3    H2 6169   3.336   0.075   0.357  0.8817 -0.8476  1.0667
 2055TIP3   OH2 6170   4.770   4.909   4.665  0.5237  0.4149  0.2095
 2055TIP3    H1 6171   4.686   4.895   4.709  0.3242 -0.0004 -0.2837
 2055TIP3    H2 6172   4.747   4.956   4.585  0.4531 -1.5590 -1.0142
 2056TIP3   OH2 6173   1.935   1.914   3.910 -0.4072 -0.1032  0.1091
 2056TIP3    H1 6174   1.976   1.980   3.854  0.2996 -0.0024  0.7259
 2056TIP3    H2 6175   1.866   1.876   3.856  1.5399 -1.4544 -1.5744
 2057TIP3   OH2 6176   3.137   3.374   3.793 -0.1786 -0.1729 -0.1131
 2057TIP3    H1 6177   3.053   3.409   3.823  0.2295  0.8501 -0.1118
 2057TIP3    H2 6178   3.172   3.442   3.736 -0.0237 -1.2283 -1.3284
 2058TIP3   OH2 6179   4.054   1.680   0.629  0.1509  0.2533  0.3360
 2058TIP3    H1 6180   4.016   1.766   0.609  0.8419  0.6703  0.7962
 2058TIP3    H2 6181   4.106   1.657   0.552  1.4621  1.0984  0.9480
 2059TIP3   OH2 6182   6.285   4.669   0.160 -0.0735 -0.7002  0.2717
 2059TIP3    H1 6183   6.198   4.679   0.200  1.2586  0.0249  3.3397
 2059TIP3    H2 6184   6.307   4.756   0.127 -0.3604 -0.7942 -0.1689
 2060TIP3   OH2 6185   0.078   2.030   4.594 -0.5549  0.1593 -0.6808
 2060TIP3    H1 6186   0.008   2.086   4.560 -1.2970 -0.9137 -0.9804
 2060TIP3    H2 6187   0.034   1.970   4.654  0.4603  0.8250  0.7863
 2061TIP3   OH2 6188   0.815   1.072   1.199 -0.3519 -0.0012 -0.0820
 2061TIP3    H1 6189   0.907   1.076   1.224 -0.5296 -0.0704  0.6209
 2061TIP3    H2 6190   0.770   1.123   1.267 -0.7726  0.5144 -0.7342
 2062TIP3   OH2 6191   2.209   2.841   0.059  0.2162 -0.0221  0.6540
 2062TIP3    H1 6192   2.213   2.878  -0.028  1.1700 -0.8674  0.3129
 2062TIP3    H2 6193   2.301   2.829   0.084 -0.0536 -0.7988  1.3209
 2063TIP3   OH2 6194   0.758   3.879   2.603 -0.0097 -0.2671 -0.1239
 2063TIP3    H1 6195   0.710   3.906   2.524  0.1792  0.6471  0.0639
 2063TIP3    H2 6196   0.761   3.958   2.657 -0.3181 -0.9400  0.8959
 2064TIP3   OH2 6197   3.320   3.445   2.536  0.1667  0.7233 -0.2723
 2064TIP3    H1 6198   3.346   3.444   2.444 -0.0837  1.8420 -0.3768
 2064TIP3    H2 6199   3.250   3.510   2.540  0.3903  0.9164  0.7633
 2065TIP3   OH2 6200   4.301   2.657   2.768  0.1743  0.1140 -0.3622
 2065TIP3    H1 6201   4.284   2.590   2.702  1.1378  1.3393 -1.9533
 2065TIP3    H2 6202   4.378   2.626   2.815 -0.2596 -0.5715 -0.0983
 2066TIP3   OH2 6203   2.747   1.609   2.356  0.3259  0.1202 -0.3067
 2066TIP3    H1 6204   2.789   1.563   2.284  1.7956  1.5358 -0.3865
 2066TIP3    H2 6205   2.674   1.551   2.381  1.7126 -1.9538 -0.7885
 2067TIP3   OH2 6206   1.988   3.237   1.521  0.2638 -0.4816  0.5246
 2067TIP3    H1 6207   1.930   3.275   1.455 -0.2418 -1.2962  0.4832
 2067TIP3    H2 6208   1.973   3.289   1.599 -0.2521 -0.4486  0.4055
 2068TIP3   OH2 6209   2.816   1.261   1.087 -0.0731  0.0502 -0.1879
 2068TIP3    H1 6210   2.851   1.180   1.122  0.5061  0.5168  0.3409
 2068TIP3    H2 6211   2.721   1.253   1.097  0.0717  0.3039  1.8759
 2069TIP3   OH2 6212   3.410   5.528   5.041  0.0408  0.3649 -0.1021
 2069TIP3    H1 6213   3.323   5.569   5.042  0.1169  0.5249  0.0908
 2069TIP3    H2 6214   3.459   5.578   4.976  0.0422  0.3841 -0.0860
 2070TIP3   OH2 6215   2.133   3.804   3.205  0.0797 -0.0930  0.7029
 2070TIP3    H1 6216   2.087   3.720   3.193  2.2555 -1.2648  0.0205
 2070TIP3    H2 6217   2.127   3.847   3.120 -0.7090  0.2849  0.9434
 2071TIP3   OH2 6218   4.993   0.908   0.727 -0.1484  0.0653  0.8587
 2071TIP3    H1 6219   5.001   0.969   0.800  1.3489  1.5002 -0.4374
 2071TIP3    H2 6220   5.007   0.961   0.649 -0.1676 -1.6943 -0.4174
 2072TIP3   OH2 6221   3.065   2.024   0.814  0.2407 -0.0098  0.3370
 2072TIP3    H1 6222   3.108   2.057   0.735  1.7029 -1.0582  0.6525
 2072TIP3    H2 6223   2.972   2.036   0.797  0.4183 -1.4006 -2.1231
 2073TIP3   OH2 6224   0.321   5.616   0.717  0.4274 -0.4949  0.1465
 2073TIP3    H1 6225   0.343   5.623   0.810  1.3685 -1.5652  0.0222
 2073TIP3    H2 6226   0.305   5.706   0.690  0.6123 -0.1123  1.2329
 2074TIP3   OH2 6227   1.863   2.815   5.016  0.0636  0.2657  0.6186
 2074TIP3    H1 6228   1.903   2.741   5.062  3.0095  1.3784  0.0379
 2074TIP3    H2 6229   1.793   2.844   5.075  2.8687  0.8561  3.9559
 2075TIP3   OH2 6230   4.518   1.860   3.100 -0.2280  0.1458 -0.1607
 2075TIP3    H1 6231   4.461   1.909   3.041  0.0044 -2.1980 -2.5033
 2075TIP3    H2 6232   4.466   1.849   3.180 -1.6374  1.1355 -0.9054
 2076TIP3   OH2 6233   3.129   1.552   1.158 -0.5050 -0.0462 -0.1574
 2076TIP3    H1 6234   3.192   1.488   1.126 -1.1283 -0.4174 -0.6701
 2076TIP3    H2 6235   3.121   1.535   1.251 -0.3400 -0.4177 -0.2117
 2077TIP3   OH2 6236   1.385   1.744   1.721  0.0485 -0.0532 -0.4753
 2077TIP3    H1 6237   1.407   1.685   1.649  0.3115  1.9892 -2.1756
 2077TIP3    H2 6238   1.290   1.739   1.728 -0.0589  0.3147 -1.5273
 2078TIP3   OH2 6239   2.575   5.205   0.198 -0.1515 -0.5439 -0.3171
 2078TIP3    H1 6240   2.625   5.272   0.246 -0.1738 -0.4878 -0.3722
 2078TIP3    H2 6241   2.636   5.173   0.132 -0.8522  1.0567 -1.8282
 2079TIP3   OH2 6242   2.663   4.322   2.202 -0.7052  0.1135 -0.6316
 2079TIP3    H1 6243   2.646   4.231   2.177 -2.0650  0.4353 -0.9611
 2079TIP3    H2 6244   2.620   4.374   2.134  1.6969  1.0377 -1.5282
 2080TIP3   OH2 6245   6.194   2.073   1.331  0.2727  0.3036  0.1591
 2080TIP3    H1 6246   6.174   2.166   1.332  0.6204  0.3739  0.4022
 2080TIP3    H2 6247   6.110   2.031   1.309 -0.2892  0.5564  1.6929
 2081TIP3   OH2 6248   5.867   4.798   0.453 -0.0295  0.3579  0.4544
 2081TIP3    H1 6249   5.803   4.801   0.383  1.3980  0.3328 -0.9023
 2081TIP3    H2 6250   5.901   4.887   0.458  1.9378 -0.2552 -0.9271
 2082TIP3   OH2 6251   1.448   1.071   4.053  0.1900 -0.0324 -0.4595
 2082TIP3    H1 6252   1.481   1.149   4.098  0.0326 -0.5783  0.6585
 2082TIP3    H2 6253   1.354   1.085   4.048  0.2622  0.2580 -1.1026
 2083TIP3   OH2 6254   5.702   3.271   2.680 -0.3479 -0.2091 -0.2179
 2083TIP3    H1 6255   5.623   3.287   2.629 -0.4489 -2.6848 -0.9675
 2083TIP3    H2 6256   5.683   3.191   2.730  0.3869  1.1517  2.4085
 2084TIP3   OH2 6257   1.939   0.923   2.168  0.5793  0.3032 -0.3038
 2084TIP3    H1 6258   1.875   0.927   2.096 -0.0037  0.4639  0.2209
 2084TIP3    H2 6259   1.901   0.861   2.231  0.4175  1.2218  0.5133
 2085TIP3   OH2 6260   1.533   4.224   3.141  0.7835 -0.3214 -0.1946
 2085TIP3    H1 6261   1.526   4.147   3.199  0.1049  0.5702  0.9526
 2085TIP3    H2 6262   1.504   4.192   3.056 -1.6412 -0.8607  0.7324
 2086TIP3   OH2 6263   3.196   1.061   1.084  0.3293  0.3932  0.0530
 2086TIP3    H1 6264   3.282   1.102   1.092 -0.7207  2.9211 -0.4595
 2086TIP3    H2 6265   3.186   1.044   0.991  0.1297  0.4991  0.0531
 2087TIP3   OH2 6266   3.281   2.674   1.202  0.1032  0.0628  0.3295
 2087TIP3    H1 6267   3.214   2.640   1.261  1.0868 -0.8735  0.9459
 2087TIP3    H2 6268   3.265   2.630   1.119 -0.3773  0.2657  0.3123
 2088TIP3   OH2 6269   0.866   2.915   3.394  0.1620 -0.2194  0.2334
 2088TIP3    H1 6270   0.873   2.985   3.329  4.1729  0.4018  1.0575
 2088TIP3    H2 6271   0.858   2.961   3.478  0.0032 -0.8177  0.5470
 2089TIP3   OH2 6272   0.440   1.176   3.387  0.4844 -0.1526  0.0677
 2089TIP3    H1 6273   0.489   1.130   3.455  4.0301  3.4159  0.2754
 2089TIP3    H2 6274   0.373   1.225   3.434  2.3517  1.6018  1.0364
 2090TIP3   OH2 6275   2.913   1.967   2.907 -0.8430  0.5123  0.5941
 2090TIP3    H1 6276   2.895   2.035   2.843 -2.8870 -1.5857 -1.2363
 2090TIP3    H2 6277   2.925   1.887   2.855  0.3311 -0.7937  2.6929
 2091TIP3   OH2 6278   4.806   5.846   4.668  0.9230  0.3219 -0.4530
 2091TIP3    H1 6279   4.872   5.820   4.603  1.1301  1.6640 -0.8093
 2091TIP3    H2 6280   4.739   5.892   4.618  0.5910  0.5160  0.1528
 2092TIP3   OH2 6281   3.495   4.660   3.184 -0.6543 -0.5181  0.1825
 2092TIP3    H1 6282   3.583   4.696   3.193 -0.8821  0.3747 -0.9188
 2092TIP3    H2 6283   3.436   4.732   3.206 -1.1254  0.0967 -2.6286
 2093TIP3   OH2 6284   0.589   5.713   0.071  0.3279  0.4481  0.4086
 2093TIP3    H1 6285   0.636   5.738   0.151  1.9540 -1.6339  0.1914
 2093TIP3    H2 6286   0.510   5.670   0.103  0.0547  1.2409  0.8372
 2094TIP3   OH2 6287   0.320   2.563   4.279 -0.3399 -0.0158  0.2634
 2094TIP3    H1 6288   0.292   2.472   4.276 -0.1388 -0.1423  1.5413
 2094TIP3    H2 6289   0.351   2.576   4.369  0.6459  1.0149 -0.1900
 2095TIP3   OH2 6290   1.628   2.499   5.127 -0.2462  0.5118  0.1735
 2095TIP3    H1 6291   1.711   2.535   5.094 -0.9602  1.9417 -0.1245
 2095TIP3    H2 6292   1.628   2.520   5.220  0.0012 -0.0509  0.3041
 2096TIP3   OH2 6293   0.493   3.694   3.565  0.1045 -0.5570 -0.6818
 2096TIP3    H1 6294   0.470   3.637   3.491 -1.6744  0.3267 -0.8471
 2096TIP3    H2 6295   0.562   3.751   3.530 -0.6512 -0.2117 -1.6496
 2097TIP3   OH2 6296   5.736   0.352   2.057  0.1432  0.5585 -0.4069
 2097TIP3    H1 6297   5.743   0.296   2.135 -0.9401  0.2034 -0.5467
 2097TIP3    H2 6298   5.694   0.431   2.090 -3.7380 -0.9483 -1.1786
 2098TIP3   OH2 6299   1.036   3.033   4.807  0.2892  0.1039  0.2852
 2098TIP3    H1 6300   1.053   3.117   4.848 -1.4805  0.3216  0.6576
 2098TIP3    H2 6301   0.994   3.056   4.723 -1.2421 -0.3612  0.8791
 2099TIP3   OH2 6302   3.390   1.316   5.046  0.4523  0.7970  0.0918
 2099TIP3    H1 6303   3.405   1.228   5.080  0.5175  1.3428  1.5125
 2099TIP3    H2 6304   3.378   1.303   4.952  0.2509 -0.7506  0.3080
 2100TIP3   OH2 6305   4.772   3.579   3.969 -0.0474 -0.2059 -0.0752
 2100TIP3    H1 6306   4.722   3.566   4.049 -0.7709 -2.9461 -0.8697
 2100TIP3    H2 6307   4.795   3.672   3.970 -0.3882 -0.0424  3.0522
 2101TIP3   OH2 6308   5.142   5.284   0.658 -0.1543  0.4087  0.4378
 2101TIP3    H1 6309   5.236   5.282   0.674 -0.3644  1.7519  2.0449
 2101TIP3    H2 6310   5.130   5.232   0.579  1.6893 -1.4973  1.3375
 2102TIP3   OH2 6311   0.980   5.622   4.818  0.2940 -0.5471 -0.4624
 2102TIP3    H1 6312   0.995   5.532   4.847 -0.2036 -1.1517 -1.9686
 2102TIP3    H2 6313   0.995   5.675   4.896  3.9315 -1.6093 -0.2810
 2103TIP3   OH2 6314   1.957   1.600   3.778  0.2189  0.0097 -0.3031
 2103TIP3    H1 6315   1.886   1.653   3.744 -0.2725 -0.3120  0.1929
 2103TIP3    H2 6316   1.913   1.522   3.814  0.7464  0.1447  0.6615
 2104TIP3   OH2 6317   1.807   1.743   3.250  0.2181  0.4007  0.6633
 2104TIP3    H1 6318   1.747   1.687   3.299 -0.1635  0.4881  0.3026
 2104TIP3    H2 6319   1.849   1.684   3.188 -0.5485  0.5927 -0.0560
 2105TIP3   OH2 6320   5.201   4.065   0.892 -0.1682 -0.1686 -0.6582
 2105TIP3    H1 6321   5.163   3.977   0.895 -0.7234  0.0890  0.2007
 2105TIP3    H2 6322   5.179   4.103   0.977  1.8164  0.0799 -0.2034
 2106TIP3   OH2 6323   1.838   3.865   0.598 -0.4592  0.3040 -0.2156
 2106TIP3    H1 6324   1.902   3.799   0.622  0.1712  0.2977 -1.8427
 2106TIP3    H2 6325   1.794   3.886   0.681  1.5544  0.2542  0.9185
 2107TIP3   OH2 6326   1.021   1.601   0.142  0.1452  0.3906  1.0340
 2107TIP3    H1 6327   0.998   1.531   0.204  1.0581 -0.0775  0.8526
 2107TIP3    H2 6328   1.061   1.669   0.196 -1.3600  1.0994  1.3142
 2108TIP3   OH2 6329   3.051   4.204   3.644  0.1884 -0.1280 -0.2646
 2108TIP3    H1 6330   2.969   4.175   3.605  0.0857  1.2903 -1.1362
 2108TIP3    H2 6331   3.119   4.169   3.586  0.1401 -0.0384 -0.3748
 2109TIP3   OH2 6332   3.435   4.326   0.668 -0.0302 -0.2981 -0.9700
 2109TIP3    H1 6333   3.394   4.240   0.662  0.9669 -0.8951  0.3182
 2109TIP3    H2 6334   3.527   4.311   0.645  0.7227 -0.1031  1.5611
 2110TIP3   OH2 6335   4.976   4.572   3.712 -0.2788  0.4396  0.8279
 2110TIP3    H1 6336   4.939   4.656   3.742  1.1233  1.1659  0.6227
 2110TIP3    H2 6337   4.911   4.538   3.651 -1.4145  0.8009  1.7979
 2111TIP3   OH2 6338   3.943   5.632   2.092 -0.0722 -0.2767 -0.4315
 2111TIP3    H1 6339   3.866   5.589   2.129 -1.1597  2.2854  0.5254
 2111TIP3    H2 6340   3.908   5.711   2.050  2.0206  0.8729 -0.1230
 2112TIP3   OH2 6341   5.619   5.643   4.381 -0.5211  0.0088 -0.0648
 2112TIP3    H1 6342   5.636   5.568   4.324 -1.3515  0.6140 -1.1463
 2112TIP3    H2 6343   5.544   5.688   4.341  1.4366  2.8242 -0.8988
 2113TIP3   OH2 6344   0.879   0.525   1.441 -0.0099 -0.1596 -0.2519
 2113TIP3    H1 6345   0.853   0.521   1.533  1.3501 -2.3507  0.1078
 2113TIP3    H2 6346   0.867   0.435   1.409  4.6158 -0.8848 -0.6408
 2114TIP3   OH2 6347   5.950   3.400   1.543 -0.3894  0.2468  0.0648
 2114TIP3    H1 6348   5.932   3.317   1.588  2.3454 -1.5112 -1.7628
 2114TIP3    H2 6349   6.004   3.449   1.605  0.6249 -0.7566  0.0222
 2115TIP3   OH2 6350   2.168   0.203   4.907 -0.2896  0.1262  0.5047
 2115TIP3    H1 6351   2.112   0.132   4.876  0.2190  0.0089 -0.1703
 2115TIP3    H2 6352   2.108   0.265   4.947 -0.6286 -1.1881  2.1265
 2116TIP3   OH2 6353   2.746   4.112   0.621 -0.0018  0.5018  0.4868
 2116TIP3    H1 6354   2.713   4.077   0.704 -1.2114 -1.8215 -0.8668
 2116TIP3    H2 6355   2.683   4.180   0.597  0.8585  1.8389  1.8451
 2117TIP3   OH2 6356   5.915   3.628   0.206 -0.1450  0.0909 -0.7294
 2117TIP3    H1 6357   5.984   3.565   0.185 -0.2215 -0.1691 -0.2047
 2117TIP3    H2 6358   5.837   3.574   0.222 -0.4169  0.3676 -1.0948
 2118TIP3   OH2 6359   0.904   4.296   4.274  0.4629 -0.2227  0.5563
 2118TIP3    H1 6360   0.978   4.241   4.248  0.8354 -0.0887  1.3226
 2118TIP3    H2 6361   0.897   4.286   4.369 -2.2482 -2.4009  0.2539
 2119TIP3   OH2 6362   1.486   4.593   0.185  0.2233  0.5816 -0.3207
 2119TIP3    H1 6363   1.468   4.546   0.267 -0.6907 -0.9958 -1.3819
 2119TIP3    H2 6364   1.579   4.579   0.170  0.0162 -0.7325 -0.4905
 2120TIP3   OH2 6365   5.873   1.426   2.359 -0.4364 -0.3840  0.0385
 2120TIP3    H1 6366   5.822   1.427   2.278 -0.5962 -0.2617  0.1380
 2120TIP3    H2 6367   5.819   1.375   2.420 -0.5254 -0.1046  0.1972
 2121TIP3   OH2 6368   5.263   5.386   1.481 -0.2240  0.4435 -0.2056
 2121TIP3    H1 6369   5.195   5.402   1.415  0.8232 -1.1183 -1.7520
 2121TIP3    H2 6370   5.345   5.384   1.431  0.4161 -2.6401  0.7886
 2122TIP3   OH2 6371   5.693   2.759   1.364 -0.1452 -0.0137  1.0414
 2122TIP3    H1 6372   5.770   2.771   1.308 -1.1389 -0.1398 -0.3993
 2122TIP3    H2 6373   5.704   2.822   1.434  0.0125  1.8396 -0.5676
 2123TIP3   OH2 6374   4.099   5.079   1.303  0.0570 -0.6382  0.0915
 2123TIP3    H1 6375   4.055   5.148   1.352  0.6499 -0.8464  0.9265
 2123TIP3    H2 6376   4.093   5.107   1.212  0.4888  0.6320  0.4394
 2124TIP3   OH2 6377   2.816   4.207   0.071  0.6697  0.2605  0.3233
 2124TIP3    H1 6378   2.806   4.223  -0.023  1.1094 -1.1075  0.0181
 2124TIP3    H2 6379   2.883   4.139   0.076 -0.6245 -0.9971  1.5177
 2125TIP3   OH2 6380   6.079   4.859   3.946  0.3780  0.2089 -0.4946
 2125TIP3    H1 6381   6.109   4.773   3.916  0.5159 -0.1018  0.5124
 2125TIP3    H2 6382   6.158   4.902   3.979  0.0127 -0.0066  0.7086
 2126TIP3   OH2 6383   2.316   4.556   2.768  0.2876 -0.2094 -0.6321
 2126TIP3    H1 6384   2.377   4.487   2.793  0.7321 -0.1002 -1.4008
 2126TIP3    H2 6385   2.372   4.631   2.748  0.1691 -0.8460 -3.9441
 2127TIP3   OH2 6386   2.555   2.633   4.819 -0.2457  0.2146 -0.3346
 2127TIP3    H1 6387   2.606   2.699   4.865  0.2402  0.3750 -1.0888
 2127TIP3    H2 6388   2.554   2.662   4.728  1.6827 -1.8195 -1.0978
 2128TIP3   OH2 6389   2.361   0.547   4.758  0.3554 -0.2418  0.0002
 2128TIP3    H1 6390   2.409   0.597   4.692 -0.0020  0.1668  0.0477
 2128TIP3    H2 6391   2.272   0.540   4.724  0.3098 -0.5251  0.1714
 2129TIP3   OH2 6392   1.651   2.682   2.790 -0.3082  0.3597  0.5614
 2129TIP3    H1 6393   1.660   2.777   2.786 -0.0318  0.3358  0.6394
 2129TIP3    H2 6394   1.723   2.653   2.845  1.1658 -0.1311 -1.5379
 2130TIP3   OH2 6395   1.184   0.612   2.628 -0.0479 -0.3525 -0.0239
 2130TIP3    H1 6396   1.194   0.556   2.705  1.5805  0.3011  0.2633
 2130TIP3    H2 6397   1.164   0.699   2.663  0.2694 -0.1422 -0.3608
 2131TIP3   OH2 6398   1.446   5.573   4.298  0.2610 -0.1818  0.2172
 2131TIP3    H1 6399   1.492   5.579   4.214 -0.4489  0.6816 -0.1263
 2131TIP3    H2 6400   1.440   5.663   4.328  0.0535 -0.4357  0.9506
 2132TIP3   OH2 6401   0.283   0.271   5.041  0.7703  0.3336 -0.2958
 2132TIP3    H1 6402   0.206   0.329   5.048  0.3566 -0.2702  0.2075
 2132TIP3    H2 6403   0.354   0.323   5.078 -0.0529 -0.3002  2.4120
 2133TIP3   OH2 6404   4.227   2.288   4.058 -0.1309 -0.6367 -0.2765
 2133TIP3    H1 6405   4.137   2.266   4.078 -0.5637  0.9429 -0.3827
 2133TIP3    H2 6406   4.279   2.239   4.121 -1.0216 -1.9236 -0.5168
 2134TIP3   OH2 6407   2.055   4.759   3.055 -0.2640 -0.3339  0.0193
 2134TIP3    H1 6408   2.104   4.678   3.038  0.9713  0.3982  0.0224
 2134TIP3    H2 6409   2.012   4.743   3.139  2.3881  0.0635  1.5773
 2135TIP3   OH2 6410   4.928   0.579   3.044  0.2671  0.3791  0.1975
 2135TIP3    H1 6411   4.919   0.673   3.060 -0.6615  0.1237  1.2919
 2135TIP3    H2 6412   4.941   0.541   3.131  1.8998 -0.4029 -0.3421
 2136TIP3   OH2 6413   5.388   4.898   4.406  0.0230 -0.3974 -0.4170
 2136TIP3    H1 6414   5.384   4.865   4.317 -0.2629 -0.0828 -0.5201
 2136TIP3    H2 6415   5.300   4.932   4.424  0.3266  0.3672 -0.3370
 2137TIP3   OH2 6416   0.772   1.057   1.655 -0.3809  0.0737  0.1813
 2137TIP3    H1 6417   0.751   1.128   1.716 -0.8779  1.4517 -1.4914
 2137TIP3    H2 6418   0.739   1.088   1.570  0.3969 -1.6904 -0.8291
 2138TIP3   OH2 6419   5.448   1.523   0.905 -0.0886 -0.5143  0.6277
 2138TIP3    H1 6420   5.469   1.609   0.941 -1.7439  0.1341  0.1032
 2138TIP3    H2 6421   5.442   1.466   0.981 -1.2062  0.3311  1.1897
 2139TIP3   OH2 6422   5.977   3.832   0.682  0.0388  0.0267 -0.3888
 2139TIP3    H1 6423   5.996   3.912   0.731 -0.5859 -0.0656  0.0127
 2139TIP3    H2 6424   6.026   3.842   0.600  0.6155  0.4479 -0.0004
 2140TIP3   OH2 6425   5.987   1.566   2.761 -0.3606 -0.1377  0.0022
 2140TIP3    H1 6426   6.069   1.525   2.736 -0.1634 -0.0843  0.5621
 2140TIP3    H2 6427   5.970   1.629   2.691  1.2441  1.4804  0.9906
 2141TIP3   OH2 6428   5.334   4.774   4.640 -0.0447  0.5232  0.2967
 2141TIP3    H1 6429   5.346   4.812   4.554  1.8940  0.4585  0.5081
 2141TIP3    H2 6430   5.389   4.696   4.641 -2.3374 -1.2200  0.5899
 2142TIP3   OH2 6431   0.590   4.417   3.377  0.2063 -0.4699  0.3160
 2142TIP3    H1 6432   0.640   4.421   3.296 -0.0117 -2.2693  0.0539
 2142TIP3    H2 6433   0.610   4.331   3.414 -1.5634 -0.6744  0.9098
 2143TIP3   OH2 6434   5.197   2.341   3.402  0.2457 -0.2220  0.7417
 2143TIP3    H1 6435   5.219   2.434   3.402  1.6638 -0.5258 -0.1567
 2143TIP3    H2 6436   5.140   2.330   3.326  0.2543 -0.1309  0.7222
 2144TIP3   OH2 6437   3.557   0.883   4.881 -0.2693 -0.8749  0.1668
 2144TIP3    H1 6438   3.543   0.846   4.794  0.3040  1.1658 -0.8688
 2144TIP3    H2 6439   3.511   0.967   4.879 -0.0414 -0.6767  1.7694
 2145TIP3   OH2 6440   0.772   4.917   2.111  0.2402 -0.2586 -0.3492
 2145TIP3    H1 6441   0.710   4.987   2.093  2.4084  2.0330  0.5251
 2145TIP3    H2 6442   0.738   4.874   2.190  0.0096  1.3004  0.4281
 2146TIP3   OH2 6443   4.147   5.367   0.127 -0.0765  0.1028  0.1101
 2146TIP3    H1 6444   4.140   5.355   0.222  1.3610  0.7470  0.3188
 2146TIP3    H2 6445   4.143   5.278   0.091 -2.5177 -0.0659  0.5818
 2147TIP3   OH2 6446   1.236   2.433   4.274 -0.0078  0.4031 -0.1785
 2147TIP3    H1 6447   1.193   2.483   4.206 -0.5135  1.3311  0.7921
 2147TIP3    H2 6448   1.238   2.491   4.350 -0.7910 -1.0965  1.0645
 2148TIP3   OH2 6449   0.160   2.739   1.867 -0.0105  0.4654 -0.7868
 2148TIP3    H1 6450   0.210   2.669   1.826  0.6937  0.5282 -0.0693
 2148TIP3    H2 6451   0.212   2.763   1.944 -2.1742 -0.8945  1.2086
 2149TIP3   OH2 6452   4.850   4.714   3.220  0.3008  0.4333 -0.1448
 2149TIP3    H1 6453   4.858   4.805   3.193  0.1768  0.2469 -0.8171
 2149TIP3    H2 6454   4.759   4.692   3.204  0.5339 -0.0703 -0.8174
 2150TIP3   OH2 6455   3.294   4.235   0.344  0.1962  0.1803  0.0834
 2150TIP3    H1 6456   3.232   4.241   0.271  0.7999 -0.3386 -0.4827
 2150TIP3    H2 6457   3.246   4.269   0.420 -0.8907 -0.5411 -0.2677
 2151TIP3   OH2 6458   2.273   2.768   3.995  1.0196  0.6130 -0.4049
 2151TIP3    H1 6459   2.211   2.781   3.923  1.2849 -1.5098 -1.0862
 2151TIP3    H2 6460   2.354   2.808   3.965  0.4399  2.0546 -0.1464
 2152TIP3   OH2 6461   1.655   4.869   2.779 -0.0196  0.6040  0.2169
 2152TIP3    H1 6462   1.732   4.911   2.741  0.3149  0.9253  1.2310
 2152TIP3    H2 6463   1.689   4.794   2.827 -0.7472 -1.9724 -2.9696
 2153TIP3   OH2 6464   4.524   5.431   4.333  0.0390 -0.0418  0.1803
 2153TIP3    H1 6465   4.433   5.430   4.305 -0.3129  0.1085  1.2575
 2153TIP3    H2 6466   4.573   5.404   4.256 -0.8719  0.3563 -0.5581
 2154TIP3   OH2 6467   1.531   3.466   2.898  0.6821  0.3117  0.0561
 2154TIP3    H1 6468   1.570   3.441   2.982 -0.7416  1.2269  1.0515
 2154TIP3    H2 6469   1.451   3.414   2.893  1.6969 -1.1766 -1.7067
 2155TIP3   OH2 6470   1.440   4.145   2.523  0.3015  0.1725  0.3550
 2155TIP3    H1 6471   1.505   4.092   2.569  0.5030 -0.0326 -0.1683
 2155TIP3    H2 6472   1.365   4.148   2.584  1.0673  1.0696  1.2996
 2156TIP3   OH2 6473   3.126   0.765   1.510 -0.2744  0.7869 -0.4033
 2156TIP3    H1 6474   3.100   0.831   1.574 -1.3395  0.2004 -0.1985
 2156TIP3    H2 6475   3.191   0.711   1.556  0.4028  1.5073 -0.4863
 2157TIP3   OH2 6476   5.062   3.252   3.549 -0.2602  0.1395 -0.0571
 2157TIP3    H1 6477   5.045   3.232   3.641 -0.4294  0.9325  0.0912
 2157TIP3    H2 6478   5.151   3.221   3.534  0.8169  2.3574  1.1291
 2158TIP3   OH2 6479   5.068   0.850   4.289  0.0671  0.7858 -0.0346
 2158TIP3    H1 6480   5.163   0.858   4.275  0.2122  0.0245  0.4496
 2158TIP3    H2 6481   5.029   0.884   4.209  0.8060 -1.0139 -1.2155
 2159TIP3   OH2 6482   4.655   3.862   0.662 -0.0441 -0.1934  0.1417
 2159TIP3    H1 6483   4.603   3.783   0.677 -1.3847  0.1483 -2.3159
 2159TIP3    H2 6484   4.613   3.929   0.717 -1.1229 -0.3558 -0.4611
 2160TIP3   OH2 6485   3.969   0.445   0.693 -0.1943  0.1614 -0.3417
 2160TIP3    H1 6486   3.907   0.436   0.765  0.6641 -1.3301  0.2675
 2160TIP3    H2 6487   4.023   0.520   0.717 -1.2120  0.9626 -0.4831
 2161TIP3   OH2 6488   6.290   0.472   1.418 -0.1524 -0.2398 -0.1796
 2161TIP3    H1 6489   6.358   0.484   1.484 -1.6382  0.8542  1.2320
 2161TIP3    H2 6490   6.338   0.448   1.339  1.7772 -0.5449  1.0064
 2162TIP3   OH2 6491   1.991   5.122   1.567  0.2942 -0.1404  0.5150
 2162TIP3    H1 6492   2.042   5.071   1.630 -1.1153 -0.8687  1.1086
 2162TIP3    H2 6493   1.999   5.212   1.598  2.0238 -0.0762  0.0036
 2163TIP3   OH2 6494   4.640   3.136   2.162  0.1994  0.2343 -0.1644
 2163TIP3    H1 6495   4.571   3.136   2.228 -0.4086 -2.0375 -0.7309
 2163TIP3    H2 6496   4.606   3.192   2.092 -1.1782 -0.9669 -0.5022
 2164TIP3   OH2 6497   0.077   1.268   1.032 -0.5027 -0.3351  0.3776
 2164TIP3    H1 6498   0.023   1.219   1.095 -1.0851 -1.7526 -1.1453
 2164TIP3    H2 6499   0.028   1.348   1.017 -2.0097 -1.3919 -0.6222
 2165TIP3   OH2 6500   1.641   5.634   3.573 -0.8384 -0.5190  0.6074
 2165TIP3    H1 6501   1.641   5.586   3.656 -0.4712 -0.2728  0.7551
 2165TIP3    H2 6502   1.621   5.724   3.598 -2.6012 -0.7640  0.2187
 2166TIP3   OH2 6503   1.820   0.115   4.944 -1.0408  0.1873  0.2037
 2166TIP3    H1 6504   1.897   0.064   4.917 -0.2594  1.0704  0.7156
 2166TIP3    H2 6505   1.773   0.059   5.005  0.4154  0.4732  1.6495
 2167TIP3   OH2 6506   4.859   5.035   0.134  0.3482  0.0457  0.3020
 2167TIP3    H1 6507   4.780   4.981   0.122  0.3835  0.1305 -0.3450
 2167TIP3    H2 6508   4.840   5.115   0.086 -0.4127  1.3789  2.6449
 2168TIP3   OH2 6509   3.581   1.823   4.565  0.0326  0.3279  0.3817
 2168TIP3    H1 6510   3.543   1.814   4.477  0.0296  0.4953  0.3657
 2168TIP3    H2 6511   3.572   1.916   4.585 -2.2701 -0.0947  1.6083
 2169TIP3   OH2 6512   1.675   3.007   2.585  0.4686  0.4417 -0.0646
 2169TIP3    H1 6513   1.644   3.022   2.674 -1.0899  0.5822 -0.6105
 2169TIP3    H2 6514   1.599   2.975   2.538  0.7236  2.2222 -1.8294
 2170TIP3   OH2 6515   1.698   1.323   1.308 -0.1278  0.2359  0.1760
 2170TIP3    H1 6516   1.772   1.266   1.328 -0.8703 -0.4206  1.1438
 2170TIP3    H2 6517   1.705   1.339   1.214  0.1764 -1.3787 -0.1050
 2171TIP3   OH2 6518   1.246   3.273   0.880 -0.3120  0.3139  0.0852
 2171TIP3    H1 6519   1.317   3.254   0.819 -0.0034  1.4975  0.0511
 2171TIP3    H2 6520   1.289   3.312   0.956 -0.7505 -0.6475  0.8498
 2172TIP3   OH2 6521   2.999   5.866   0.382  0.3002  0.6188  0.1145
 2172TIP3    H1 6522   2.954   5.934   0.431  3.0800  2.0885  0.7715
 2172TIP3    H2 6523   2.928   5.817   0.339 -1.8470  3.4844  0.1165
 2173TIP3   OH2 6524   0.439   2.641   1.870 -0.3287  0.3143 -0.1302
 2173TIP3    H1 6525   0.523   2.680   1.894 -0.4290  0.4745 -0.0360
 2173TIP3    H2 6526   0.451   2.547   1.884  0.0108  0.2773 -0.6472
 2174TIP3   OH2 6527   4.432   3.138   2.373  0.6517  0.3919  0.3024
 2174TIP3    H1 6528   4.386   3.195   2.435  0.5107 -1.4137  1.9772
 2174TIP3    H2 6529   4.409   3.049   2.402  0.0580 -0.5591 -2.7694
 2175TIP3   OH2 6530   0.622   2.482   4.247  0.7316 -0.4342 -0.0555
 2175TIP3    H1 6531   0.696   2.447   4.199  0.0883 -1.5112 -0.2944
 2175TIP3    H2 6532   0.546   2.436   4.211  0.1074 -0.3997  1.1706
 2176TIP3   OH2 6533   4.951   3.629   0.342 -0.3724 -0.0835 -0.0436
 2176TIP3    H1 6534   4.965   3.723   0.335 -0.7148 -0.0318 -0.0507
 2176TIP3    H2 6535   4.965   3.596   0.253  1.4138 -0.2784  0.2719
 2177TIP3   OH2 6536   1.135   3.519   0.847  0.4330 -0.4368  0.2919
 2177TIP3    H1 6537   1.167   3.431   0.865  1.2754  0.1832  2.1553
 2177TIP3    H2 6538   1.093   3.546   0.929 -1.2835  0.3148 -0.7803
 2178TIP3   OH2 6539   4.469   5.460   3.288 -0.1197 -0.3480 -0.2406
 2178TIP3    H1 6540   4.478   5.553   3.309  3.1511 -0.6016 -0.0490
 2178TIP3    H2 6541   4.493   5.454   3.196 -1.8546 -0.8850 -0.7031
 2179TIP3   OH2 6542   3.993   4.652   3.611 -0.1292  0.1955 -0.3868
 2179TIP3    H1 6543   4.016   4.664   3.703  1.1652 -2.6882 -0.2212
 2179TIP3    H2 6544   4.071   4.679   3.563  0.7982 -2.1254 -0.3092
 2180TIP3   OH2 6545   3.781   4.859   4.722  0.4548  0.0952  0.1329
 2180TIP3    H1 6546   3.824   4.932   4.765  1.6792 -0.2873 -0.3774
 2180TIP3    H2 6547   3.852   4.814   4.675 -0.9287  1.1825 -3.2879
 2181TIP3   OH2 6548   4.606   0.282   2.167 -0.3133 -0.3699  0.3061
 2181TIP3    H1 6549   4.526   0.331   2.187 -0.4270  0.1247 -1.1880
 2181TIP3    H2 6550   4.675   0.329   2.214 -0.5680  0.6701 -0.3272
 2182TIP3   OH2 6551   5.491   2.823   3.155  0.3512  0.0823  0.8448
 2182TIP3    H1 6552   5.503   2.912   3.122 -0.4463  0.2428  0.9823
 2182TIP3    H2 6553   5.506   2.767   3.079 -2.1053  0.4778 -0.0145
 2183TIP3   OH2 6554   0.569   4.160   3.530  0.1462  0.2895 -0.3041
 2183TIP3    H1 6555   0.503   4.142   3.598  1.6294 -0.5347  0.9998
 2183TIP3    H2 6556   0.613   4.076   3.517  0.5836  0.6929 -1.5424
 2184TIP3   OH2 6557   6.075   3.569   1.706  0.0388  0.1801  0.5119
 2184TIP3    H1 6558   6.084   3.564   1.801 -0.2845  0.7367  0.5740
 2184TIP3    H2 6559   6.164   3.586   1.674  0.3646 -1.1704  0.6178
 2185TIP3   OH2 6560   2.693   1.767   1.683  0.5076 -0.3653 -0.5775
 2185TIP3    H1 6561   2.617   1.716   1.657 -0.8340  1.4698 -0.4237
 2185TIP3    H2 6562   2.761   1.741   1.621 -0.5714 -1.1928 -1.4538
 2186TIP3   OH2 6563   2.655   1.018   4.703  0.2461 -0.1195  0.5948
 2186TIP3    H1 6564   2.565   1.030   4.675  0.2484 -0.3924  0.4596
 2186TIP3    H2 6565   2.681   1.102   4.740 -0.0583 -0.0372  0.6212
 2187TIP3   OH2 6566   0.657   4.816   2.343 -0.0823  0.1025  0.1210
 2187TIP3    H1 6567   0.563   4.831   2.352 -0.7977 -2.5231 -1.7396
 2187TIP3    H2 6568   0.675   4.741   2.400 -0.2833 -2.6052 -3.0421
 2188TIP3   OH2 6569   3.638   4.039   1.692  0.6399  0.2303  0.3381
 2188TIP3    H1 6570   3.649   4.096   1.768  0.1957  1.3175 -0.3857
 2188TIP3    H2 6571   3.653   4.096   1.617 -0.8794 -0.3329 -0.4431
 2189TIP3   OH2 6572   5.368   2.789   1.624 -0.3478  0.0224  0.4055
 2189TIP3    H1 6573   5.287   2.757   1.663  0.6440 -1.7175  1.1658
 2189TIP3    H2 6574   5.406   2.845   1.691  0.2636 -1.1819  1.1086
 2190TIP3   OH2 6575   1.511   0.043   3.176  0.3942 -0.0866  0.6670
 2190TIP3    H1 6576   1.584   0.016   3.232  2.3740  1.4086 -1.0272
 2190TIP3    H2 6577   1.496   0.135   3.199  0.1455  0.0829 -0.1649
 2191TIP3   OH2 6578   2.865   1.801   3.142 -0.3938  0.1944  0.2012
 2191TIP3    H1 6579   2.832   1.835   3.225  0.9988 -0.5233  1.0669
 2191TIP3    H2 6580   2.881   1.880   3.089 -1.5559  0.6411  0.4733
 2192TIP3   OH2 6581   0.434   1.582   1.952  0.0218  0.2506 -0.4607
 2192TIP3    H1 6582   0.444   1.555   1.861  0.5764  0.1898 -0.3851
 2192TIP3    H2 6583   0.371   1.654   1.948 -0.7151 -0.4039 -0.7714
 2193TIP3   OH2 6584   0.351   2.462   3.735  1.0565 -0.0644  0.0900
 2193TIP3    H1 6585   0.346   2.377   3.689 -1.0194 -0.8074  1.5360
 2193TIP3    H2 6586   0.344   2.440   3.827 -1.0528  1.7360  0.4432
 2194TIP3   OH2 6587   1.099   2.355   0.277 -0.0280  0.2004  0.0117
 2194TIP3    H1 6588   1.160   2.428   0.269  0.8539 -0.6743 -1.9591
 2194TIP3    H2 6589   1.139   2.298   0.342  0.1822  0.6304  0.2657
 2195TIP3   OH2 6590   1.824   0.635   0.990  0.1528  0.8364  0.5814
 2195TIP3    H1 6591   1.891   0.698   0.967 -1.2185  2.0650 -0.2334
 2195TIP3    H2 6592   1.774   0.677   1.060 -0.0858  0.1864  0.8100
 2196TIP3   OH2 6593   2.392   2.457   0.021 -0.0998  0.1893 -0.2644
 2196TIP3    H1 6594   2.307   2.473   0.061 -0.9535 -1.6320 -1.2071
 2196TIP3    H2 6595   2.388   2.503  -0.063 -0.3376 -0.2092 -0.4788
 2197TIP3   OH2 6596   4.842   3.125   2.328 -0.1982  0.1163 -0.1583
 2197TIP3    H1 6597   4.853   3.189   2.398 -0.1121 -0.0839  0.0133
 2197TIP3    H2 6598   4.775   3.162   2.271 -0.3987  0.1972  0.1285
 2198TIP3   OH2 6599   4.182   4.115   5.153 -0.2674  0.5550  0.0524
 2198TIP3    H1 6600   4.227   4.138   5.234 -0.2860 -0.0869  0.2527
 2198TIP3    H2 6601   4.199   4.188   5.094 -1.5615  1.7919  1.1446
 2199TIP3   OH2 6602   1.167   5.385   4.288 -0.2432  0.5518 -0.3490
 2199TIP3    H1 6603   1.078   5.420   4.279 -0.3365  0.4349  0.1010
 2199TIP3    H2 6604   1.222   5.462   4.298 -0.3410  0.6117 -0.2582
 2200TIP3   OH2 6605   3.880   1.044   0.902  0.0910  0.0857  0.2040
 2200TIP3    H1 6606   3.968   1.030   0.867  0.2486  1.8697 -0.2451
 2200TIP3    H2 6607   3.833   1.088   0.831 -1.4647 -1.6078  0.1230
 2201TIP3   OH2 6608   3.184   3.600   1.407  0.4189  0.0616  0.4083
 2201TIP3    H1 6609   3.103   3.566   1.444 -0.3412  2.6026  1.2893
 2201TIP3    H2 6610   3.190   3.561   1.320 -1.4453 -0.6083  0.5467
 2202TIP3   OH2 6611   2.522   5.359   3.511 -0.4482 -0.2295 -0.4950
 2202TIP3    H1 6612   2.498   5.266   3.520  0.3843 -0.6064 -1.8385
 2202TIP3    H2 6613   2.484   5.386   3.427  1.1491 -0.0050 -1.1929
 2203TIP3   OH2 6614   1.481   2.059   1.138 -0.3718  0.5974 -0.1860
 2203TIP3    H1 6615   1.502   2.015   1.055  1.0485 -1.2648  1.0750
 2203TIP3    H2 6616   1.435   2.139   1.112 -1.0510 -0.5181 -2.7149
 2204TIP3   OH2 6617   5.243   0.104   3.781 -0.2907 -0.1041 -0.2974
 2204TIP3    H1 6618   5.332   0.086   3.812  0.4515 -0.0897 -2.3066
 2204TIP3    H2 6619   5.240   0.199   3.771 -0.9372  0.0163  0.8172
 2205TIP3   OH2 6620   1.011   5.841   4.386 -0.2272  0.1562 -0.2114
 2205TIP3    H1 6621   0.953   5.852   4.311  0.0842 -0.5700 -0.5739
 2205TIP3    H2 6622   0.952   5.826   4.460 -0.5172 -0.6166 -0.5826
 2206TIP3   OH2 6623   2.410   5.930   0.725  0.0949 -0.4723 -0.4468
 2206TIP3    H1 6624   2.385   6.022   0.734 -0.7511 -0.7678  0.3124
 2206TIP3    H2 6625   2.376   5.904   0.640  2.2322  0.4862 -1.6750
 2207TIP3   OH2 6626   5.421   4.561   4.298  0.5594 -0.6168  0.2252
 2207TIP3    H1 6627   5.360   4.549   4.371  0.5800  0.3849  0.4195
 2207TIP3    H2 6628   5.407   4.652   4.270 -0.3880 -1.3385 -1.8688
 2208TIP3   OH2 6629   5.713   4.376   2.614  0.9262  0.4601  0.0282
 2208TIP3    H1 6630   5.783   4.315   2.593  0.0177 -0.6169  0.0599
 2208TIP3    H2 6631   5.676   4.343   2.696 -1.8469 -1.0579 -1.6791
 2209TIP3   OH2 6632   1.677   2.244   1.896  0.0462  0.0004 -0.1592
 2209TIP3    H1 6633   1.690   2.291   1.979 -1.5505  0.8633 -0.3407
 2209TIP3    H2 6634   1.631   2.164   1.922 -1.4660  0.7879 -0.2604
 2210TIP3   OH2 6635   2.964   0.680   1.084  0.5924 -0.0182 -0.1459
 2210TIP3    H1 6636   2.895   0.628   1.044 -0.1894  2.0524 -1.6416
 2210TIP3    H2 6637   3.007   0.725   1.011  4.0400 -1.6855  0.6244
 2211TIP3   OH2 6638   2.028   4.165   0.568 -0.3010  0.1286  0.3211
 2211TIP3    H1 6639   1.983   4.210   0.497 -0.3658 -1.3064 -0.5890
 2211TIP3    H2 6640   2.120   4.189   0.558 -0.3910  0.3825  0.1091
 2212TIP3   OH2 6641   4.106   1.684   0.322  0.4063 -0.3243  0.0101
 2212TIP3    H1 6642   4.051   1.762   0.328  1.3818  0.3545  0.5793
 2212TIP3    H2 6643   4.194   1.716   0.342  0.7555 -1.6657  0.7141
 2213TIP3   OH2 6644   3.832   0.982   4.872  0.5791 -0.5655  0.0755
 2213TIP3    H1 6645   3.743   0.959   4.898  1.1530 -1.8491  0.9708
 2213TIP3    H2 6646   3.859   0.912   4.814  0.3085  0.8803 -1.9004
 2214TIP3   OH2 6647   1.359   1.623   0.455  0.6531 -0.5200  0.1546
 2214TIP3    H1 6648   1.352   1.529   0.439 -0.1176 -0.4905  0.2733
 2214TIP3    H2 6649   1.304   1.639   0.531 -0.3785  0.2361 -0.7135
 2215TIP3   OH2 6650   2.054   5.657   1.937  0.2518  0.2307 -0.7292
 2215TIP3    H1 6651   2.125   5.663   1.873 -0.3022  3.8996 -1.1915
 2215TIP3    H2 6652   2.092   5.692   2.018 -0.7559  1.4717 -0.7667
 2216TIP3   OH2 6653   0.205   1.202   5.062 -0.6074 -0.4845 -0.1204
 2216TIP3    H1 6654   0.157   1.238   5.137 -0.1012  2.0010 -0.9097
 2216TIP3    H2 6655   0.185   1.261   4.990  2.2167 -0.3953 -0.9282
 2217TIP3   OH2 6656   5.003   0.705   5.133  0.1671  0.4553 -0.2560
 2217TIP3    H1 6657   4.916   0.743   5.145 -0.1681 -0.5782  0.6821
 2217TIP3    H2 6658   5.012   0.641   5.203  2.1062  1.2694  0.3162
 2218TIP3   OH2 6659   1.346   0.304   4.141 -0.9888 -0.0005  0.2999
 2218TIP3    H1 6660   1.440   0.299   4.122 -0.9240 -0.1184  0.6445
 2218TIP3    H2 6661   1.316   0.379   4.089 -1.3324 -1.8044 -2.2423
 2219TIP3   OH2 6662   2.143   1.210   1.252  0.1568  0.3097  0.0435
 2219TIP3    H1 6663   2.080   1.140   1.234  0.2494 -0.3808  2.0610
 2219TIP3    H2 6664   2.094   1.273   1.305  0.7865  0.4385  0.4855
 2220TIP3   OH2 6665   1.323   2.994   0.543  0.3310  0.0685 -0.0613
 2220TIP3    H1 6666   1.273   2.962   0.617 -0.8599  1.0762 -0.3878
 2220TIP3    H2 6667   1.258   3.011   0.475  1.1614  0.9396 -0.6788
 2221TIP3   OH2 6668   5.280   4.601   1.074  0.1248 -0.1691 -0.5059
 2221TIP3    H1 6669   5.286   4.617   1.168  0.4545  0.2851 -0.6015
 2221TIP3    H2 6670   5.351   4.540   1.055  1.7296  1.6965 -0.8719
 2222TIP3   OH2 6671   4.451   1.344   1.046  0.0429  0.6714 -0.6696
 2222TIP3    H1 6672   4.387   1.295   1.096 -1.6421  3.7566  0.4286
 2222TIP3    H2 6673   4.526   1.353   1.104  0.6114 -1.0039 -1.1025
 2223TIP3   OH2 6674   4.136   1.668   3.603  0.5909 -0.0626  0.3876
 2223TIP3    H1 6675   4.228   1.645   3.589  0.2907 -0.3497 -1.2410
 2223TIP3    H2 6676   4.124   1.749   3.555  0.0800  0.2146  0.9665
 2224TIP3   OH2 6677   1.517   1.521   3.632  0.1435  0.3462 -0.7202
 2224TIP3    H1 6678   1.426   1.550   3.633  0.1789  0.4633 -0.8405
 2224TIP3    H2 6679   1.516   1.443   3.576  0.3729  1.2270 -2.0047
 2225TIP3   OH2 6680   1.899   5.872   3.624  0.2744 -0.0564  0.2744
 2225TIP3    H1 6681   1.870   5.950   3.671  0.9680  1.3730 -1.5481
 2225TIP3    H2 6682   1.820   5.841   3.579  0.0999 -0.1514  0.6423
 2226TIP3   OH2 6683   2.890   4.514   1.332 -0.0263  0.1560 -0.4387
 2226TIP3    H1 6684   2.884   4.422   1.358 -0.7845 -0.7024 -3.2836
 2226TIP3    H2 6685   2.802   4.535   1.299  0.2503  1.8057 -0.1968
 2227TIP3   OH2 6686   5.515   2.576   0.083 -0.5498 -0.5730  0.6222
 2227TIP3    H1 6687   5.587   2.514   0.071 -0.2165 -0.1701  0.5071
 2227TIP3    H2 6688   5.437   2.526   0.060 -0.1475 -0.5223 -1.0228
 2228TIP3   OH2 6689   1.074   3.126   3.453  0.2417 -0.5639  0.1025
 2228TIP3    H1 6690   1.111   3.195   3.507  1.4281 -0.1314 -1.2067
 2228TIP3    H2 6691   0.979   3.141   3.457  0.4136  0.4231  0.7440
 2229TIP3   OH2 6692   4.153   3.077   3.528 -0.0596  0.4172  0.3470
 2229TIP3    H1 6693   4.101   3.003   3.499  2.9749 -0.9188 -2.3314
 2229TIP3    H2 6694   4.186   3.051   3.614 -0.0081 -0.8228 -0.0270
 2230TIP3   OH2 6695   5.492   1.769   3.739  0.4799  0.1782 -0.3121
 2230TIP3    H1 6696   5.547   1.713   3.793  1.1880  1.5835  0.4967
 2230TIP3    H2 6697   5.425   1.711   3.703  0.7340 -1.0252  1.0835
 2231TIP3   OH2 6698   1.614   3.544   0.509  0.4196  0.0938  0.0386
 2231TIP3    H1 6699   1.668   3.598   0.451  0.5132  2.2963  2.0434
 2231TIP3    H2 6700   1.563   3.606   0.561 -1.5159 -1.8408  0.6248
 2232TIP3   OH2 6701   0.268   3.337   1.233  0.1621 -0.2958  0.3135
 2232TIP3    H1 6702   0.248   3.321   1.141 -2.5789  3.3742  0.0897
 2232TIP3    H2 6703   0.329   3.411   1.232  1.6723 -1.4503  1.5031
 2233TIP3   OH2 6704   5.863   4.988   1.199  0.4066  0.4027  0.1091
 2233TIP3    H1 6705   5.881   4.946   1.283 -1.4391 -0.7581 -0.0220
 2233TIP3    H2 6706   5.931   4.955   1.140  0.2103 -0.7728  0.5326
 2234TIP3   OH2 6707   5.707   0.262   2.578 -0.0415  0.2857  0.8162
 2234TIP3    H1 6708   5.655   0.223   2.648 -0.9403  0.0461  0.0481
 2234TIP3    H2 6709   5.779   0.306   2.622 -1.7198  1.9437  2.0474
 2235TIP3   OH2 6710   5.785   2.239   4.259 -0.2446 -0.4363 -0.0849
 2235TIP3    H1 6711   5.723   2.208   4.193  0.3170 -0.0464 -0.8073
 2235TIP3    H2 6712   5.869   2.245   4.213  0.3154 -0.8225  0.8387
 2236TIP3   OH2 6713   0.376   4.092   3.728  0.3801 -0.2341  0.2113
 2236TIP3    H1 6714   0.398   4.160   3.791  1.0322 -1.2053  1.0518
 2236TIP3    H2 6715   0.320   4.031   3.776 -1.3504  0.3703 -0.9172
 2237TIP3   OH2 6716   0.068   4.302   3.095  0.6617 -0.2259  0.3648
 2237TIP3    H1 6717   0.117   4.354   3.031  1.4307 -0.2264  0.9300
 2237TIP3    H2 6718   0.136   4.255   3.144  0.0091 -1.1947  0.3440
 2238TIP3   OH2 6719   2.343   4.520   3.522  0.1076 -0.2612 -0.1694
 2238TIP3    H1 6720   2.389   4.583   3.578 -1.0470 -0.0307  0.5436
 2238TIP3    H2 6721   2.349   4.557   3.434  0.7033  0.0976  0.0174
 2239TIP3   OH2 6722   3.344   2.276   0.822 -0.0190 -0.1251  0.1791
 2239TIP3    H1 6723   3.249   2.271   0.818 -0.1205 -0.7005  2.2733
 2239TIP3    H2 6724   3.374   2.217   0.753 -1.1669  0.3260 -0.7243
 2240TIP3   OH2 6725   0.333   2.898   4.429 -0.0431 -0.2382 -0.4846
 2240TIP3    H1 6726   0.426   2.885   4.413 -0.0995 -0.3308 -0.7426
 2240TIP3    H2 6727   0.329   2.938   4.516  0.3100  0.7378 -0.8900
 2241TIP3   OH2 6728   4.030   2.394   3.433  0.2618 -0.2872  0.1934
 2241TIP3    H1 6729   3.941   2.428   3.437 -0.0150 -1.0606  0.7671
 2241TIP3    H2 6730   4.047   2.381   3.339  0.7568  2.3287 -0.1747
 2242TIP3   OH2 6731   6.012   3.783   4.619  0.5357  0.2020 -0.5128
 2242TIP3    H1 6732   5.971   3.869   4.628 -2.4150 -1.0267 -0.7894
 2242TIP3    H2 6733   6.035   3.758   4.708 -0.1690  0.6044 -0.2078
 2243TIP3   OH2 6734   0.077   4.549   3.283 -0.5132 -0.6104 -0.0008
 2243TIP3    H1 6735  -0.004   4.601   3.279 -0.5097 -0.6065 -0.0228
 2243TIP3    H2 6736   0.059   4.473   3.228  0.1522  0.2923 -1.5221
 2244TIP3   OH2 6737   2.934   3.358   0.500 -0.5672  0.2271 -0.4657
 2244TIP3    H1 6738   2.908   3.386   0.413  0.0972 -0.7635 -0.9940
 2244TIP3    H2 6739   2.855   3.320   0.538 -1.1039  1.4877 -0.2681
 2245TIP3   OH2 6740   2.607   1.585  -0.022  0.1457  0.2729 -0.0155
 2245TIP3    H1 6741   2.656   1.667  -0.031 -0.1363  0.6949  1.8550
 2245TIP3    H2 6742   2.569   1.590   0.065  0.7381 -2.2030  0.4547
 2246TIP3   OH2 6743   2.086   3.745   0.111  0.0727  0.3046  0.2572
 2246TIP3    H1 6744   2.032   3.789   0.176  0.8948  0.6356  0.7250
 2246TIP3    H2 6745   2.162   3.801   0.100  1.0781 -0.9107  0.7622
 2247TIP3   OH2 6746   5.414   0.914   1.756  0.2849  0.3667  0.1382
 2247TIP3    H1 6747   5.509   0.911   1.753  0.2971  0.4009  0.4093
 2247TIP3    H2 6748   5.391   0.997   1.715  0.5105  1.6107  2.3471
 2248TIP3   OH2 6749   2.978   5.333   4.842 -0.1772  0.1121  0.4548
 2248TIP3    H1 6750   2.901   5.281   4.819  0.8866 -1.3111 -0.0916
 2248TIP3    H2 6751   3.051   5.270   4.839  1.1200  1.5636  0.1575
 2249TIP3   OH2 6752   4.007   4.680   0.949 -0.0629 -0.2875 -0.5440
 2249TIP3    H1 6753   3.913   4.691   0.964 -0.3778 -0.3345 -2.3061
 2249TIP3    H2 6754   4.046   4.686   1.037 -1.6557  0.1578  0.1715
 2250TIP3   OH2 6755   6.253   0.489   2.804 -0.4289 -0.2341 -0.1085
 2250TIP3    H1 6756   6.162   0.513   2.783 -0.2452  0.3563 -0.2480
 2250TIP3    H2 6757   6.301   0.508   2.723 -0.2204 -0.7929 -0.1204
 2251TIP3   OH2 6758   5.060   2.269   5.098 -0.5949 -0.4410  0.4926
 2251TIP3    H1 6759   5.090   2.214   5.171  1.0512 -0.5465 -0.2026
 2251TIP3    H2 6760   5.139   2.317   5.071 -1.5645  0.8301 -0.1541
 2252TIP3   OH2 6761   4.758   2.036   0.416  0.2058 -0.4905  0.1529
 2252TIP3    H1 6762   4.673   2.005   0.383  0.8531 -0.7003 -1.3935
 2252TIP3    H2 6763   4.748   2.034   0.511 -1.2635 -1.2500  0.0233
 2253TIP3   OH2 6764   2.998   1.041   3.270  0.3316 -0.7063  0.0591
 2253TIP3    H1 6765   2.912   1.074   3.245  0.4291  0.1295  0.7700
 2253TIP3    H2 6766   2.984   0.948   3.289 -0.1966 -0.8127 -0.8176
 2254TIP3   OH2 6767   2.215   1.696   2.832  0.4827 -0.2792  0.2338
 2254TIP3    H1 6768   2.153   1.689   2.904 -0.1988  0.8354 -0.2231
 2254TIP3    H2 6769   2.199   1.618   2.779  0.5627 -0.7898  0.9486
 2255TIP3   OH2 6770   1.637   5.501   4.506  0.7056 -0.0757 -0.0992
 2255TIP3    H1 6771   1.590   5.534   4.429  2.1845  0.0360 -1.0060
 2255TIP3    H2 6772   1.591   5.539   4.580  0.8247  2.0669 -1.0164
 2256TIP3   OH2 6773   2.169   0.670   3.683  0.2635 -0.4690  0.4306
 2256TIP3    H1 6774   2.134   0.683   3.595 -1.0205  0.9601  1.1041
 2256TIP3    H2 6775   2.235   0.738   3.692  1.4182 -1.5105  0.1017
 2257TIP3   OH2 6776   1.018   1.012   3.100 -0.2854 -0.1770  0.7505
 2257TIP3    H1 6777   0.977   0.937   3.056 -2.4167  0.6581  1.2041
 2257TIP3    H2 6778   1.097   0.975   3.140  0.0321 -1.6356 -1.0493
 2258TIP3   OH2 6779   3.553   0.836   2.385 -0.2076  0.5235  0.3223
 2258TIP3    H1 6780   3.479   0.894   2.367 -0.3745 -0.4024 -2.4024
 2258TIP3    H2 6781   3.627   0.895   2.398 -1.1595  1.4243  2.1603
 2259TIP3   OH2 6782   0.918   1.790   1.850  0.0173 -0.5721  1.2392
 2259TIP3    H1 6783   0.950   1.880   1.839  0.4375 -0.5807  2.2392
 2259TIP3    H2 6784   0.870   1.792   1.933 -4.0332 -0.1855 -0.8977
 2260TIP3   OH2 6785   2.729   0.346   0.862 -0.3556  0.0625 -1.1061
 2260TIP3    H1 6786   2.750   0.377   0.774 -0.0345  0.2223 -0.9748
 2260TIP3    H2 6787   2.745   0.422   0.918  2.2776 -0.8341 -0.5134
 2261TIP3   OH2 6788   4.970   0.811   3.737  0.2785 -0.1687  0.4331
 2261TIP3    H1 6789   5.026   0.829   3.661  0.1398 -0.8560  0.1667
 2261TIP3    H2 6790   4.881   0.822   3.705  0.2233 -0.3153  0.5338
 2262TIP3   OH2 6791   1.434   1.804   2.731 -0.0685 -0.6127  0.3053
 2262TIP3    H1 6792   1.482   1.862   2.791  1.4984 -2.8041  1.3268
 2262TIP3    H2 6793   1.494   1.790   2.658 -1.7655  1.6204 -1.6931
 2263TIP3   OH2 6794   4.317   5.498   1.361  0.9458  0.3148 -0.6062
 2263TIP3    H1 6795   4.257   5.529   1.293  2.3067  2.0485 -1.0902
 2263TIP3    H2 6796   4.364   5.425   1.321 -0.6067 -0.8885 -0.3120
 2264TIP3   OH2 6797   4.604   4.732   4.154 -0.4399 -0.3246 -0.4585
 2264TIP3    H1 6798   4.531   4.685   4.195  0.5888 -1.0588  0.5820
 2264TIP3    H2 6799   4.637   4.790   4.223  0.1401 -0.2015 -0.8353
 2265TIP3   OH2 6800   5.212   4.212   3.620  0.4817  0.0899 -0.4599
 2265TIP3    H1 6801   5.195   4.218   3.714  0.9980  1.5401 -0.4368
 2265TIP3    H2 6802   5.253   4.296   3.597  0.3742 -0.2363 -1.9748
 2266TIP3   OH2 6803   2.056   1.650   1.216 -0.1553 -0.2322 -0.5455
 2266TIP3    H1 6804   2.060   1.565   1.173  0.8367  0.2721 -1.4781
 2266TIP3    H2 6805   2.139   1.658   1.262  0.8904  1.2648 -2.5329
 2267TIP3   OH2 6806   5.720   3.218   4.807  0.0013  0.3702  0.4065
 2267TIP3    H1 6807   5.810   3.214   4.773  0.5707  0.7762  1.7968
 2267TIP3    H2 6808   5.680   3.136   4.779  0.9741 -0.0487  0.2066
 2268TIP3   OH2 6809   4.197   5.939   4.387 -0.0521 -0.0690 -0.1576
 2268TIP3    H1 6810   4.159   6.014   4.342  2.4757  0.7343 -1.1476
 2268TIP3    H2 6811   4.236   5.976   4.466 -0.3239 -0.6701  0.2688
 2269TIP3   OH2 6812   1.241   4.712   0.153 -0.2873  0.3503  0.4705
 2269TIP3    H1 6813   1.174   4.653   0.187  0.2376 -0.0709  0.7976
 2269TIP3    H2 6814   1.316   4.656   0.136 -0.4849  0.5698 -1.3038
 2270TIP3   OH2 6815   4.228   4.514   1.781 -0.4697  0.0198  0.4041
 2270TIP3    H1 6816   4.280   4.539   1.857 -1.3568  1.9959  0.4142
 2270TIP3    H2 6817   4.273   4.555   1.707 -0.5784 -0.4466  0.0751
 2271TIP3   OH2 6818   1.137   1.176   3.983 -0.1496 -0.0047 -0.4724
 2271TIP3    H1 6819   1.048   1.149   4.005 -0.2221  1.2503  0.9649
 2271TIP3    H2 6820   1.126   1.242   3.915 -0.4979  1.5202  1.0053
 2272TIP3   OH2 6821   1.481   5.055   2.876  0.1603 -0.2117 -0.0574
 2272TIP3    H1 6822   1.509   5.086   2.962 -0.6669  0.9972 -0.2007
 2272TIP3    H2 6823   1.541   4.983   2.856 -0.1518 -1.0901  1.8883
 2273TIP3   OH2 6824   4.633   3.060   4.526  0.6677 -0.2124  0.1031
 2273TIP3    H1 6825   4.658   3.076   4.435 -0.9494  0.2548 -0.2883
 2273TIP3    H2 6826   4.665   3.136   4.574 -0.4158  0.6395 -0.4810
 2274TIP3   OH2 6827   2.321   0.518   2.998 -0.0234 -0.3182 -0.1960
 2274TIP3    H1 6828   2.245   0.479   3.041  1.1628 -0.6678  1.7112
 2274TIP3    H2 6829   2.351   0.451   2.937 -0.5111 -0.6586 -0.0711
 2275TIP3   OH2 6830   5.528   0.781   3.608 -0.5056 -0.3230 -0.2173
 2275TIP3    H1 6831   5.505   0.863   3.652 -0.1315  0.5212 -1.5219
 2275TIP3    H2 6832   5.586   0.737   3.670 -0.1727  0.7215  0.2473
 2276TIP3   OH2 6833   5.570   0.571   5.072  0.2480 -0.2014 -0.2107
 2276TIP3    H1 6834   5.665   0.570   5.059  0.0808 -1.3378 -1.6478
 2276TIP3    H2 6835   5.559   0.584   5.166  1.7964  0.6998 -0.1180
 2277TIP3   OH2 6836   3.340   5.646   0.441 -0.0787  0.5955 -0.1205
 2277TIP3    H1 6837   3.282   5.684   0.508  2.3468  0.4466  2.2341
 2277TIP3    H2 6838   3.337   5.552   0.458  1.7154  0.6771  0.8759
 2278TIP3   OH2 6839   0.320   3.506   1.952  0.2940  0.2898  0.3525
 2278TIP3    H1 6840   0.251   3.441   1.939  0.0961  0.9487 -2.6755
 2278TIP3    H2 6841   0.277   3.580   1.993 -0.2179 -0.2414  0.7926
 2279TIP3   OH2 6842   4.196   0.761   2.264  0.0369  0.6985 -0.1769
 2279TIP3    H1 6843   4.252   0.750   2.341 -2.8095 -0.5840  1.8679
 2279TIP3    H2 6844   4.165   0.673   2.244 -0.8654  1.2979 -1.5489
 2280TIP3   OH2 6845   3.247   4.079   3.483  0.2774 -0.1510 -0.0812
 2280TIP3    H1 6846   3.299   4.067   3.562 -1.4383 -0.4798  1.0617
 2280TIP3    H2 6847   3.305   4.052   3.411  1.4380 -1.1163  1.1773
 2281TIP3   OH2 6848   2.837   1.186   2.316 -0.3475 -0.0421 -0.4911
 2281TIP3    H1 6849   2.834   1.261   2.374 -0.7910 -0.4973  0.0920
 2281TIP3    H2 6850   2.809   1.112   2.371 -1.8934 -0.3044 -1.5598
 2282TIP3   OH2 6851   1.689   5.411   0.074  0.1901  0.0599 -0.2146
 2282TIP3    H1 6852   1.779   5.411   0.105  0.3810  1.3845 -0.7263
 2282TIP3    H2 6853   1.691   5.360  -0.006  0.3994 -0.2816  0.0061
 2283TIP3   OH2 6854   3.812   4.829   2.330 -0.2876  0.4412 -0.0555
 2283TIP3    H1 6855   3.898   4.860   2.356 -0.1724 -0.6859  0.9551
 2283TIP3    H2 6856   3.752   4.900   2.354  0.1066  0.3646  1.1743
 2284TIP3   OH2 6857   2.258   2.012   3.760 -0.3591  0.4274 -0.0065
 2284TIP3    H1 6858   2.226   2.093   3.719 -2.1425  0.0711  0.5897
 2284TIP3    H2 6859   2.215   1.942   3.710  0.0817 -0.1129  0.3658
 2285TIP3   OH2 6860   0.224   1.675   3.296 -0.1141 -0.6304 -0.0908
 2285TIP3    H1 6861   0.289   1.646   3.232 -0.9416 -1.4727 -0.5702
 2285TIP3    H2 6862   0.210   1.598   3.352 -0.3865 -0.3142  0.2840
 2286TIP3   OH2 6863   5.608   2.346   2.067  0.2672 -0.0010 -0.3060
 2286TIP3    H1 6864   5.680   2.384   2.018  0.9021 -0.4046  0.2887
 2286TIP3    H2 6865   5.650   2.303   2.142 -0.4049 -1.7825 -0.8869
 2287TIP3   OH2 6866   3.626   0.130   0.555  0.2604  0.1042  0.3574
 2287TIP3    H1 6867   3.702   0.126   0.497  0.8736  1.9088  0.9899
 2287TIP3    H2 6868   3.568   0.194   0.514 -0.2544 -0.1513  0.6744
 2288TIP3   OH2 6869   4.424   2.947   1.697  0.8223  0.0481  0.1378
 2288TIP3    H1 6870   4.352   2.937   1.634 -0.8132  1.6061  1.6181
 2288TIP3    H2 6871   4.399   2.891   1.771  1.5614 -0.0076  0.3541
 2289TIP3   OH2 6872   5.748   3.931   4.569 -0.2849 -0.4835  0.1939
 2289TIP3    H1 6873   5.738   4.025   4.552 -0.1012 -0.4690  0.1621
 2289TIP3    H2 6874   5.770   3.926   4.662  0.3140 -0.4526  0.0557
 2290TIP3   OH2 6875   0.023   0.043   3.037 -0.3922  0.1835  0.6471
 2290TIP3    H1 6876  -0.069   0.057   3.014  0.1080  0.8189 -1.1156
 2290TIP3    H2 6877   0.055  -0.016   2.969  0.9954  1.5638  0.0736
 2291TIP3   OH2 6878   2.140   2.686   1.424  0.1337  0.3276  0.0885
 2291TIP3    H1 6879   2.201   2.612   1.412 -0.3455  0.2366 -2.2849
 2291TIP3    H2 6880   2.117   2.683   1.517 -0.9317 -3.3822 -0.1431
 2292TIP3   OH2 6881   2.497   2.515   2.671 -0.5150  0.3316 -0.4033
 2292TIP3    H1 6882   2.455   2.438   2.710  2.3669 -0.4167  1.5252
 2292TIP3    H2 6883   2.509   2.492   2.579  0.1083 -1.4946  0.0845
 2293TIP3   OH2 6884   2.012   4.336   0.160 -0.4704 -0.0498 -0.0008
 2293TIP3    H1 6885   2.002   4.383   0.243  0.9960  0.0944  0.1127
 2293TIP3    H2 6886   2.079   4.270   0.178 -0.4977 -0.3447 -0.9468
 2294TIP3   OH2 6887   0.496   3.922   4.830 -0.6242  0.2037 -0.4839
 2294TIP3    H1 6888   0.417   3.868   4.832  0.6143 -1.7238 -0.5098
 2294TIP3    H2 6889   0.519   3.934   4.923  0.9367 -2.2778 -0.4700
 2295TIP3   OH2 6890   1.263   2.005   1.902 -0.2010 -0.4306 -0.3224
 2295TIP3    H1 6891   1.264   1.914   1.932 -0.7896 -1.0151 -1.9419
 2295TIP3    H2 6892   1.287   1.999   1.809 -1.7411  0.8952 -0.8413
 2296TIP3   OH2 6893   1.804   5.343   2.264 -0.7250  0.0910 -0.0490
 2296TIP3    H1 6894   1.756   5.336   2.347 -0.1065  0.8344  0.3862
 2296TIP3    H2 6895   1.741   5.381   2.203 -1.8232 -2.2735 -0.4954
 2297TIP3   OH2 6896   4.705   5.753   2.377 -0.2939  0.5274 -0.4142
 2297TIP3    H1 6897   4.693   5.828   2.436  1.0157  0.2590  0.2233
 2297TIP3    H2 6898   4.754   5.690   2.428  1.6373  0.6151 -2.0336
 2298TIP3   OH2 6899   3.639   3.059   2.409 -0.1945 -0.3297 -0.3402
 2298TIP3    H1 6900   3.606   3.026   2.325 -0.1415  0.6390 -0.7620
 2298TIP3    H2 6901   3.573   3.033   2.473  0.0607 -1.6093 -0.5828
 2299TIP3   OH2 6902   1.160   3.975   2.126 -0.3063 -0.2866 -0.1644
 2299TIP3    H1 6903   1.171   4.039   2.196  0.3288 -1.4192  0.8151
 2299TIP3    H2 6904   1.123   3.898   2.170 -0.8804 -0.6701 -1.2740
 2300TIP3   OH2 6905   0.180   3.805   1.168  0.3437  0.5397 -0.2390
 2300TIP3    H1 6906   0.134   3.875   1.120  0.4229  1.5565  1.0969
 2300TIP3    H2 6907   0.239   3.852   1.227  2.0149 -0.7137 -0.8263
 2301TIP3   OH2 6908   4.944   2.041   3.319  0.6136  0.7144  0.3571
 2301TIP3    H1 6909   4.959   2.088   3.236 -1.4129  0.6638 -0.0742
 2301TIP3    H2 6910   4.912   1.955   3.292  0.5439  0.4727  1.2052
 2302TIP3   OH2 6911   2.059   5.692   4.004  0.3918 -0.0776 -0.4738
 2302TIP3    H1 6912   2.118   5.753   3.961  0.0481 -0.2586 -1.2228
 2302TIP3    H2 6913   2.114   5.617   4.026  0.7850  0.4383  0.3310
 2303TIP3   OH2 6914   4.893   1.473   1.238 -0.4085 -0.0702  0.1873
 2303TIP3    H1 6915   4.985   1.449   1.252 -0.1334  0.2298 -0.9753
 2303TIP3    H2 6916   4.870   1.524   1.315  0.0287 -1.1713  1.0687
 2304TIP3   OH2 6917   4.458   5.630   1.081  0.2110  0.0857 -0.0333
 2304TIP3    H1 6918   4.535   5.681   1.057  0.2007 -0.2741 -0.8864
 2304TIP3    H2 6919   4.491   5.562   1.139  0.4189  0.3595  0.1717
 2305TIP3   OH2 6920   1.358   4.741   2.773  0.8177 -0.4415  0.3312
 2305TIP3    H1 6921   1.450   4.763   2.790  0.4479  1.4555  0.0653
 2305TIP3    H2 6922   1.312   4.769   2.852 -0.0183  2.3600 -1.0346
 2306TIP3   OH2 6923   0.770   1.856   3.240 -0.2941 -0.3945 -0.0260
 2306TIP3    H1 6924   0.799   1.938   3.199  0.8433 -0.7475  0.0402
 2306TIP3    H2 6925   0.837   1.836   3.304  1.0149 -2.8457 -1.9879
 2307TIP3   OH2 6926   5.638   4.153   2.146 -0.0529 -0.2226 -0.1380
 2307TIP3    H1 6927   5.718   4.198   2.173 -0.3495  0.5152 -0.4555
 2307TIP3    H2 6928   5.579   4.163   2.222 -0.2042  0.1413 -0.3027
 2308TIP3   OH2 6929   0.215   5.157   3.819 -0.0585  0.3845 -0.1585
 2308TIP3    H1 6930   0.192   5.233   3.872 -0.7082 -0.4214  0.7359
 2308TIP3    H2 6931   0.309   5.147   3.832 -0.3319 -0.2711  1.4986
 2309TIP3   OH2 6932   4.582   5.745   2.730  0.5439  0.2629 -0.2596
 2309TIP3    H1 6933   4.643   5.802   2.684 -0.4371  1.1727 -0.4691
 2309TIP3    H2 6934   4.530   5.703   2.661  0.5364 -0.0628 -0.0624
 2310TIP3   OH2 6935   2.003   3.726   4.537  0.1018 -0.2792 -0.2036
 2310TIP3    H1 6936   1.957   3.744   4.619 -1.1209 -0.3074 -0.8622
 2310TIP3    H2 6937   1.983   3.802   4.481 -0.7541 -1.1678 -1.1615
 2311TIP3   OH2 6938   2.429   4.528   4.236 -0.3064 -0.1007  0.6530
 2311TIP3    H1 6939   2.473   4.545   4.319  1.2849  1.6833 -0.4811
 2311TIP3    H2 6940   2.372   4.603   4.222 -0.9445 -0.6284  0.3364
 2312TIP3   OH2 6941   3.228   3.939   2.260 -0.5074 -0.3078 -0.1444
 2312TIP3    H1 6942   3.292   3.877   2.294  0.7314  0.1974 -1.4703
 2312TIP3    H2 6943   3.182   3.971   2.337  0.2610 -1.3059  0.7517
 2313TIP3   OH2 6944   3.244   0.871   0.059 -0.2391 -0.3146  0.1194
 2313TIP3    H1 6945   3.339   0.865   0.052 -0.1990 -0.2818  0.6537
 2313TIP3    H2 6946   3.214   0.877  -0.032  0.3945  1.3873 -0.0117
 2314TIP3   OH2 6947   4.842   4.241   2.501 -0.4949  0.1432 -0.2649
 2314TIP3    H1 6948   4.882   4.236   2.588  2.1351 -0.4401 -1.4006
 2314TIP3    H2 6949   4.896   4.304   2.453 -0.7228 -0.9288 -2.0097
 2315TIP3   OH2 6950   4.866   2.344   2.475 -0.3828 -0.4018  0.0354
 2315TIP3    H1 6951   4.848   2.428   2.517  1.7801  0.2648 -0.2627
 2315TIP3    H2 6952   4.882   2.365   2.383  0.4549 -1.0755  0.0119
 2316TIP3   OH2 6953   0.109   4.131   4.441 -0.1733  0.1454 -0.0837
 2316TIP3    H1 6954   0.085   4.060   4.381 -0.7366 -0.4318  0.8172
 2316TIP3    H2 6955   0.089   4.097   4.528 -0.7098  1.5205  0.3405
 2317TIP3   OH2 6956   4.311   0.974   1.198 -0.0919 -0.0827  0.0710
 2317TIP3    H1 6957   4.376   1.025   1.247 -1.7173  0.7620  1.4390
 2317TIP3    H2 6958   4.288   1.030   1.123  1.7532 -1.0093 -1.2877
 2318TIP3   OH2 6959   2.598   3.131   2.882 -0.3377  0.6047  0.1731
 2318TIP3    H1 6960   2.532   3.191   2.918 -3.5661 -2.7072  0.3523
 2318TIP3    H2 6961   2.646   3.100   2.959 -0.6672  0.7443  0.4403
 2319TIP3   OH2 6962   3.103   0.763   2.335  0.7481  0.2148  0.2525
 2319TIP3    H1 6963   3.049   0.784   2.259 -0.4160 -0.1362  0.9585
 2319TIP3    H2 6964   3.143   0.679   2.313  1.6338  0.8285 -0.5826
 2320TIP3   OH2 6965   6.302   2.577   0.275  0.0404  0.2741 -0.0945
 2320TIP3    H1 6966   6.397   2.580   0.268  0.1576  2.5064  1.3041
 2320TIP3    H2 6967   6.285   2.517   0.348  0.3257 -0.5417 -0.6871
 2321TIP3   OH2 6968   1.003   0.514   1.941 -0.0863  0.0946  0.6354
 2321TIP3    H1 6969   1.012   0.609   1.944 -3.9576  0.6329  1.7101
 2321TIP3    H2 6970   1.020   0.491   1.850  0.2170  1.9456  0.1821
 2322TIP3   OH2 6971   3.668   1.158   3.691 -0.3705  0.4672  0.0383
 2322TIP3    H1 6972   3.631   1.245   3.672  1.2782  1.3419  0.6098
 2322TIP3    H2 6973   3.692   1.123   3.605 -1.3306  0.4441 -0.2214
 2323TIP3   OH2 6974   3.689   4.626   3.502 -0.2320  0.7608 -0.0646
 2323TIP3    H1 6975   3.721   4.622   3.412  0.6329 -1.6760  0.2714
 2323TIP3    H2 6976   3.751   4.683   3.547  0.0416  1.0092 -0.7462
 2324TIP3   OH2 6977   4.333   4.216   1.164 -0.7030 -0.5452  0.0645
 2324TIP3    H1 6978   4.286   4.294   1.192  0.6085 -0.5095  2.4972
 2324TIP3    H2 6979   4.389   4.245   1.092 -2.9186 -0.1815 -1.5976
 2325TIP3   OH2 6980   1.351   4.446   3.142  0.0298 -0.0304 -0.3407
 2325TIP3    H1 6981   1.382   4.359   3.167 -0.5108  0.1953  1.2180
 2325TIP3    H2 6982   1.355   4.497   3.222 -0.8307  1.0386 -0.9518
 2326TIP3   OH2 6983   2.743   0.689   2.834  0.0080  0.8763 -0.3735
 2326TIP3    H1 6984   2.764   0.778   2.865 -0.3096  0.4279  1.2481
 2326TIP3    H2 6985   2.649   0.692   2.817 -0.0328  0.8215 -0.1663
 2327TIP3   OH2 6986   2.895   3.961   2.234 -0.6838 -0.1702 -0.1024
 2327TIP3    H1 6987   2.806   3.942   2.203 -0.6149 -1.1184  0.2592
 2327TIP3    H2 6988   2.941   3.878   2.227 -0.1179  0.0623  0.7196
 2328TIP3   OH2 6989   0.258   3.264   3.592 -0.5371  0.0999  0.0292
 2328TIP3    H1 6990   0.176   3.241   3.547  0.1532 -2.5421 -0.0341
 2328TIP3    H2 6991   0.232   3.275   3.683 -1.1382  0.3631 -0.1656
 2329TIP3   OH2 6992   2.942   5.178   4.321 -0.4153  0.6447  0.2347
 2329TIP3    H1 6993   2.870   5.115   4.326  1.3275 -1.4034  1.4825
 2329TIP3    H2 6994   2.991   5.165   4.402  0.0220  3.7405  0.5826
 2330TIP3   OH2 6995   2.054   3.071   0.369 -0.4889 -0.4764 -0.4852
 2330TIP3    H1 6996   1.990   3.116   0.423 -0.5615 -3.1112  1.8357
 2330TIP3    H2 6997   2.118   3.138   0.347 -1.4903  1.1456  1.2674
 2331TIP3   OH2 6998   3.801   3.888   3.235 -0.0038 -0.5629  0.0835
 2331TIP3    H1 6999   3.731   3.908   3.297 -0.2833  1.3416 -0.7573
 2331TIP3    H2 7000   3.760   3.832   3.169 -0.6392  0.1328 -0.1312
 2332TIP3   OH2 7001   5.789   1.690   1.079 -0.6580  0.1842  0.4419
 2332TIP3    H1 7002   5.866   1.746   1.079 -0.2809 -0.3342  1.0398
 2332TIP3    H2 7003   5.823   1.601   1.069 -1.1909 -0.0259  0.4463
 2333TIP3   OH2 7004   3.892   4.456   1.328 -0.5719 -0.3958  0.0435
 2333TIP3    H1 7005   3.874   4.435   1.237 -1.5537 -0.4891  0.2545
 2333TIP3    H2 7006   3.985   4.434   1.339 -0.5822 -0.8981 -0.7811
 2334TIP3   OH2 7007   2.998   1.253   1.677  0.5612  0.0629  0.0246
 2334TIP3    H1 7008   2.914   1.258   1.723  1.3777 -0.2308  1.6088
 2334TIP3    H2 7009   2.983   1.299   1.595 -1.6278 -1.3612 -0.4794
 2335TIP3   OH2 7010   3.746   5.860   0.737 -0.0413 -0.2882 -0.3303
 2335TIP3    H1 7011   3.706   5.944   0.712 -1.7428 -0.6735  0.9556
 2335TIP3    H2 7012   3.702   5.795   0.683  0.1634 -0.5231 -0.2155
 2336TIP3   OH2 7013   1.938   0.951   5.076  0.3341  0.1304  0.6228
 2336TIP3    H1 7014   1.925   1.044   5.057 -1.3450 -0.3709 -0.9477
 2336TIP3    H2 7015   2.033   0.939   5.075  0.6006  1.8867  1.2967
 2337TIP3   OH2 7016   2.089   3.671   3.470  0.1117  0.2147  0.4259
 2337TIP3    H1 7017   2.015   3.713   3.513 -1.1932 -1.9559  0.4550
 2337TIP3    H2 7018   2.074   3.688   3.376 -0.9248 -0.9044  0.3662
 2338TIP3   OH2 7019   0.424   3.795   4.458 -0.4914  0.5192  0.0180
 2338TIP3    H1 7020   0.362   3.752   4.517  2.0700 -0.8214  1.8860
 2338TIP3    H2 7021   0.469   3.723   4.413  0.5938  1.3911 -0.3387
 2339TIP3   OH2 7022   0.425   5.923   1.464 -0.2516 -0.0969  0.4810
 2339TIP3    H1 7023   0.339   5.965   1.460  0.1506  0.6369 -0.5416
 2339TIP3    H2 7024   0.486   5.988   1.431  0.7941 -0.4302  1.6642
 2340TIP3   OH2 7025   0.570   1.225   4.597 -0.0549 -0.3720  0.2870
 2340TIP3    H1 7026   0.531   1.276   4.668 -0.2764 -2.5531  1.8520
 2340TIP3    H2 7027   0.498   1.172   4.564 -0.1130  1.0657 -2.1033
 2341TIP3   OH2 7028   1.359   5.091   4.799  0.2281 -0.1589  0.0363
 2341TIP3    H1 7029   1.439   5.079   4.849  0.1863 -0.4653  0.0322
 2341TIP3    H2 7030   1.289   5.089   4.865  0.3122  1.4029  0.1964
 2342TIP3   OH2 7031   0.362   1.724   4.113 -0.2011 -0.9240 -0.1922
 2342TIP3    H1 7032   0.360   1.768   4.198 -1.0227  0.2114 -0.7617
 2342TIP3    H2 7033   0.453   1.696   4.102  0.2655  0.2831  0.3937
 2343TIP3   OH2 7034   3.326   3.346   2.957 -0.1809  0.5278  0.1391
 2343TIP3    H1 7035   3.362   3.372   3.041 -1.2464 -1.1524  1.1764
 2343TIP3    H2 7036   3.402   3.322   2.904  0.3906 -1.1963  1.6514
 2344TIP3   OH2 7037   5.227   0.045   2.319 -0.2129 -0.7197  0.4675
 2344TIP3    H1 7038   5.197  -0.041   2.351 -1.8940 -0.6983 -0.9080
 2344TIP3    H2 7039   5.260   0.027   2.230 -0.1761 -0.0058  0.3320
 2345TIP3   OH2 7040   4.397   3.609   2.313 -0.2251 -0.5487 -0.2645
 2345TIP3    H1 7041   4.425   3.684   2.365 -0.2382 -1.2902  0.8524
 2345TIP3    H2 7042   4.374   3.645   2.227  1.0764  0.5248 -0.1878
 2346TIP3   OH2 7043   3.113   4.065   1.351 -0.7616  0.2542 -0.0447
 2346TIP3    H1 7044   3.101   3.981   1.396 -1.9830  0.7399  0.5621
 2346TIP3    H2 7045   3.028   4.107   1.354 -0.2955  1.3025 -0.8187
 2347TIP3   OH2 7046   2.475   0.663   2.651 -0.0537 -0.2634  0.6202
 2347TIP3    H1 7047   2.385   0.684   2.677  0.0616  2.2282 -0.6758
 2347TIP3    H2 7048   2.465   0.605   2.576 -0.7560  2.1784 -1.3009
 2348TIP3   OH2 7049   4.884   5.197   0.760 -0.8258  0.8007  0.7960
 2348TIP3    H1 7050   4.941   5.234   0.692 -0.9651 -1.0058 -0.3714
 2348TIP3    H2 7051   4.942   5.185   0.835 -0.3341  1.5383  0.5520
 2349TIP3   OH2 7052   3.417   5.360   1.970  0.5772 -0.0523 -0.2092
 2349TIP3    H1 7053   3.426   5.282   2.024 -1.9190 -0.4333 -0.2224
 2349TIP3    H2 7054   3.431   5.329   1.880  2.1818  0.0801 -0.0338
 2350TIP3   OH2 7055   1.406   2.018   1.610  0.1783  0.0021  0.4899
 2350TIP3    H1 7056   1.480   1.969   1.575  0.7119 -1.5585  3.4998
 2350TIP3    H2 7057   1.329   1.975   1.574  0.7007 -1.3744  0.9600
 2351TIP3   OH2 7058   3.597   4.405   1.620  0.0384 -0.0004 -0.4277
 2351TIP3    H1 7059   3.644   4.322   1.619 -0.1848 -0.2095  1.5044
 2351TIP3    H2 7060   3.562   4.415   1.531  1.5804 -1.0589 -1.1883
 2352TIP3   OH2 7061   2.212   5.854   0.183 -0.4277  0.0373 -0.2781
 2352TIP3    H1 7062   2.171   5.881   0.101  0.3812  0.0078 -0.7084
 2352TIP3    H2 7063   2.139   5.833   0.242 -1.0111  0.0389 -0.9958
 2353TIP3   OH2 7064   4.960   5.287   4.363 -0.4972 -0.0843  1.0648
 2353TIP3    H1 7065   5.019   5.346   4.410 -0.2618 -0.4272  1.2017
 2353TIP3    H2 7066   5.008   5.205   4.358 -0.4113  0.0186  0.0039
 2354TIP3   OH2 7067   4.622   5.296   1.446  0.1208 -0.0921 -0.1886
 2354TIP3    H1 7068   4.612   5.340   1.531  1.3257 -0.9737  0.4435
 2354TIP3    H2 7069   4.602   5.204   1.464  1.7076 -0.5268 -0.5463
 2355TIP3   OH2 7070   0.743   5.566   2.416  0.0501 -0.5402 -0.1399
 2355TIP3    H1 7071   0.703   5.613   2.489 -0.2494 -0.2386 -0.4906
 2355TIP3    H2 7072   0.825   5.612   2.399 -0.5258  0.2475 -0.8732
 2356TIP3   OH2 7073   0.829   2.850   2.925 -0.7210  0.1968  0.0743
 2356TIP3    H1 7074   0.805   2.898   3.005 -0.4298 -0.2509  0.4391
 2356TIP3    H2 7075   0.904   2.797   2.952  1.0907  1.9702 -1.1481
 2357TIP3   OH2 7076   2.303   0.089   1.447  0.1535 -0.4793  0.0974
 2357TIP3    H1 7077   2.349   0.148   1.387 -0.3986  1.4289  1.4548
 2357TIP3    H2 7078   2.271   0.018   1.391 -1.4941  1.8407 -2.1583
 2358TIP3   OH2 7079   6.244   0.617   3.839  0.4890 -0.5118  0.8194
 2358TIP3    H1 7080   6.191   0.686   3.878  0.2169 -1.4023  2.0960
 2358TIP3    H2 7081   6.181   0.562   3.793  0.6299 -0.2326  0.2895
 2359TIP3   OH2 7082   4.343   5.255   1.565  0.3810 -1.3058 -0.0220
 2359TIP3    H1 7083   4.293   5.333   1.589 -0.3264 -1.5824 -0.5803
 2359TIP3    H2 7084   4.415   5.288   1.511  1.3059 -0.8101  1.4447
 2360TIP3   OH2 7085   1.394   4.753   3.975  0.1199 -0.3687  0.2380
 2360TIP3    H1 7086   1.309   4.732   3.938 -0.1655 -0.1431  0.7566
 2360TIP3    H2 7087   1.442   4.671   3.973 -0.2016 -0.5560  0.1791
 2361TIP3   OH2 7088   0.279   1.245   3.620 -0.0552  0.4981  0.5997
 2361TIP3    H1 7089   0.317   1.226   3.706 -0.2147  0.6459  0.7033
 2361TIP3    H2 7090   0.185   1.243   3.634 -0.1155  2.7213  0.9515
 2362TIP3   OH2 7091   4.022   0.970   0.288  0.2962  0.2393  0.3095
 2362TIP3    H1 7092   3.990   1.053   0.322 -2.2343 -0.4377 -0.1603
 2362TIP3    H2 7093   4.087   0.941   0.352 -1.4777  0.8488  2.5511
 2363TIP3   OH2 7094   6.077   0.746   4.851  0.5713 -0.3529  0.4297
 2363TIP3    H1 7095   5.988   0.779   4.862  0.6272  0.3455 -1.0655
 2363TIP3    H2 7096   6.100   0.710   4.937 -0.6946  0.5544  1.1703
 2364TIP3   OH2 7097   1.963   5.509   3.276  0.0604 -0.4227  0.0214
 2364TIP3    H1 7098   2.058   5.501   3.289  0.0839 -1.2941 -0.5874
 2364TIP3    H2 7099   1.953   5.514   3.181 -0.4718  0.1880  0.1080
 2365TIP3   OH2 7100   2.774   5.903   2.697  0.1386 -0.6663  0.2668
 2365TIP3    H1 7101   2.794   5.960   2.623 -0.3698 -1.6599 -0.6743
 2365TIP3    H2 7102   2.687   5.868   2.677  0.3111 -1.5307  0.9602
 2366TIP3   OH2 7103   3.526   3.650   0.681 -0.6116  0.1061 -0.1276
 2366TIP3    H1 7104   3.507   3.564   0.718 -1.1389  0.4127  0.3376
 2366TIP3    H2 7105   3.442   3.696   0.683 -0.0551  1.1300  0.9949
 2367TIP3   OH2 7106   4.862   2.138   3.692 -0.0851  0.2636 -0.2733
 2367TIP3    H1 7107   4.823   2.145   3.779 -1.0611  1.3759 -0.7733
 2367TIP3    H2 7108   4.925   2.211   3.688 -1.0351  1.0712 -0.9670
 2368TIP3   OH2 7109   3.989   2.414   2.403  0.2517  0.1670  0.3859
 2368TIP3    H1 7110   4.021   2.477   2.339 -0.9534  0.8495  0.4379
 2368TIP3    H2 7111   3.898   2.439   2.420  0.1349 -0.8035  1.3707
 2369TIP3   OH2 7112   6.025   5.727   4.155 -0.5220 -0.3410  0.6812
 2369TIP3    H1 7113   6.003   5.634   4.162  0.9335 -0.7030  0.6958
 2369TIP3    H2 7114   5.944   5.768   4.124 -0.5221 -1.9504 -1.7435
 2370TIP3   OH2 7115   5.549   4.286   0.177 -0.1037 -1.0037 -0.0321
 2370TIP3    H1 7116   5.481   4.255   0.236 -0.2885  1.9234  1.4316
 2370TIP3    H2 7117   5.574   4.208   0.128 -2.6010 -2.7553  1.2329
 2371TIP3   OH2 7118   0.438   3.026   5.089 -0.4049  0.2926  0.0636
 2371TIP3    H1 7119   0.382   3.017   5.011  1.3367  1.6497 -1.4370
 2371TIP3    H2 7120   0.378   3.049   5.159 -1.9377 -0.0948 -1.0652
 2372TIP3   OH2 7121   1.453   0.238   3.780  0.7831 -0.1977 -0.0150
 2372TIP3    H1 7122   1.493   0.308   3.728  0.8341  0.2142  0.5590
 2372TIP3    H2 7123   1.361   0.263   3.787  0.7182 -0.4032 -0.1584
 2373TIP3   OH2 7124   4.198   0.761   4.907 -0.9349  0.0597  0.4286
 2373TIP3    H1 7125   4.288   0.793   4.916 -1.4435  1.5462  0.6141
 2373TIP3    H2 7126   4.160   0.814   4.837 -1.0419 -2.1087 -1.2648
 2374TIP3   OH2 7127   1.421   3.758   3.759 -0.0437  0.0834  0.5479
 2374TIP3    H1 7128   1.448   3.819   3.690  2.3040 -1.0134  0.4151
 2374TIP3    H2 7129   1.423   3.811   3.839  0.9580  0.4581  0.2892
 2375TIP3   OH2 7130   0.860   2.531   1.292  0.3492  0.0023  0.2552
 2375TIP3    H1 7131   0.939   2.565   1.252  0.4347  0.9778  1.2195
 2375TIP3    H2 7132   0.891   2.474   1.363  0.1849 -0.2602  0.1213
 2376TIP3   OH2 7133   1.980   2.352   0.605  0.2507  0.2226 -0.1104
 2376TIP3    H1 7134   2.010   2.394   0.524  0.7539 -0.5458 -0.3338
 2376TIP3    H2 7135   2.038   2.278   0.616  0.4620  0.5669  1.2057
 2377TIP3   OH2 7136   5.922   2.255   3.807  0.2385  0.2867  0.3948
 2377TIP3    H1 7137   6.015   2.251   3.830  0.1233 -1.1550  0.7239
 2377TIP3    H2 7138   5.898   2.346   3.820  1.4396  0.5454  0.9858
 2378TIP3   OH2 7139   5.273   5.001   4.783 -0.0280 -0.5459 -0.5775
 2378TIP3    H1 7140   5.230   4.964   4.860  1.8368  0.0987  0.8595
 2378TIP3    H2 7141   5.299   4.925   4.731 -0.8892 -1.0088 -0.3567
 2379TIP3   OH2 7142   3.593   4.780   3.947 -0.0328 -0.1647  0.7714
 2379TIP3    H1 7143   3.634   4.866   3.938 -0.5444 -0.0136 -0.2681
 2379TIP3    H2 7144   3.666   4.720   3.957  0.4607  0.1275 -0.8305
 2380TIP3   OH2 7145   0.879   1.161   4.035 -0.1693  0.2155  0.3208
 2380TIP3    H1 7146   0.826   1.234   4.003 -0.8242  0.3534  1.6420
 2380TIP3    H2 7147   0.815   1.094   4.060  0.4082 -0.6492 -0.4854
 2381TIP3   OH2 7148   3.052   1.283   4.839  0.3752  0.4331  0.2603
 2381TIP3    H1 7149   3.044   1.319   4.750 -0.3277  0.5095  0.3514
 2381TIP3    H2 7150   3.019   1.352   4.896  0.5159  0.2534  0.5590
 2382TIP3   OH2 7151   5.398   3.737   1.802 -0.7413  0.5364  0.4672
 2382TIP3    H1 7152   5.461   3.688   1.750 -2.8958  0.9800 -2.8240
 2382TIP3    H2 7153   5.367   3.674   1.867 -1.0713 -1.5145 -1.5513
 2383TIP3   OH2 7154   1.980   5.052   3.671 -0.8299  1.0639  0.1343
 2383TIP3    H1 7155   2.069   5.021   3.658 -0.9925  0.7081 -0.1410
 2383TIP3    H2 7156   1.983   5.144   3.644 -1.2597  0.2705 -3.1296
 2384TIP3   OH2 7157   3.224   2.559   2.207  0.3279  0.7734 -0.0941
 2384TIP3    H1 7158   3.265   2.643   2.185 -0.7025  0.6853 -2.7882
 2384TIP3    H2 7159   3.295   2.495   2.196  0.3263  0.9687 -1.4748
 2385TIP3   OH2 7160   5.496   3.368   4.725 -0.4172 -0.4712 -0.0773
 2385TIP3    H1 7161   5.522   3.307   4.795 -0.4166 -0.2958  0.0759
 2385TIP3    H2 7162   5.478   3.450   4.770 -1.0599 -0.5381 -0.2095
 2386TIP3   OH2 7163   3.117   0.450   0.836 -0.0783 -0.4641  0.5949
 2386TIP3    H1 7164   3.051   0.519   0.826 -0.0611 -0.3812  1.0302
 2386TIP3    H2 7165   3.124   0.437   0.930  0.7620 -0.2365  0.5775
 2387TIP3   OH2 7166   0.245   5.985   2.878  0.4513  0.8304  0.4818
 2387TIP3    H1 7167   0.206   6.029   2.954 -0.9380  3.1189 -1.3941
 2387TIP3    H2 7168   0.180   5.920   2.852  0.1825  1.1412  0.3566
 2388TIP3   OH2 7169   3.535   4.911   3.503  0.0095 -0.0064  0.1075
 2388TIP3    H1 7170   3.603   4.866   3.552 -0.2781 -0.4821  0.0728
 2388TIP3    H2 7171   3.582   4.976   3.451  0.3609  0.1863  0.6555
 2389TIP3   OH2 7172   5.626   3.511   4.091  0.6062 -0.3826 -0.1063
 2389TIP3    H1 7173   5.722   3.507   4.087  0.6878 -0.0225  1.0556
 2389TIP3    H2 7174   5.601   3.431   4.137  0.4423  0.0767  0.6173
 2390TIP3   OH2 7175   2.205   0.696   3.976 -0.4475 -0.4244 -0.3105
 2390TIP3    H1 7176   2.212   0.609   4.015 -2.6062 -0.9987 -1.0372
 2390TIP3    H2 7177   2.208   0.681   3.882 -0.9336  0.2537 -0.4440
 2391TIP3   OH2 7178   1.762   2.317   4.524 -0.0288 -1.0110  0.1173
 2391TIP3    H1 7179   1.670   2.324   4.499 -0.6572 -1.4856  2.1766
 2391TIP3    H2 7180   1.780   2.223   4.525  0.5083 -0.9189 -0.3159
 2392TIP3   OH2 7181   4.821   5.870   3.266 -0.7397  0.3361  0.4659
 2392TIP3    H1 7182   4.794   5.796   3.211  0.8800  0.2048 -0.2292
 2392TIP3    H2 7183   4.740   5.909   3.296 -1.6962  0.3658 -1.9726
 2393TIP3   OH2 7184   0.210   5.552   2.299 -0.1549 -0.4679  0.2370
 2393TIP3    H1 7185   0.123   5.532   2.264 -0.6749  2.1348 -0.1508
 2393TIP3    H2 7186   0.193   5.608   2.375  1.1626 -0.8740  0.8644
 2394TIP3   OH2 7187   3.112   1.452   4.570  0.3870 -0.0942 -0.2683
 2394TIP3    H1 7188   3.109   1.426   4.478 -4.1176  2.4337 -1.1424
 2394TIP3    H2 7189   3.108   1.548   4.568 -2.6705 -0.0188  2.3946
 2395TIP3   OH2 7190   4.326   4.667   1.251  0.3321 -0.2573 -0.3664
 2395TIP3    H1 7191   4.355   4.665   1.160 -0.9141  1.0471 -0.8310
 2395TIP3    H2 7192   4.407   4.665   1.302  1.0846 -0.2524 -1.5182
 2396TIP3   OH2 7193   6.079   1.795   5.182 -0.2450 -0.0229 -0.2980
 2396TIP3    H1 7194   6.107   1.857   5.250 -1.1695 -0.6014  0.6291
 2396TIP3    H2 7195   6.079   1.847   5.102 -2.0455  1.5115  0.6198
 2397TIP3   OH2 7196   1.897   0.985   3.315  0.3668  0.9340 -0.2173
 2397TIP3    H1 7197   1.869   1.052   3.378  1.0810  0.9617  0.0771
 2397TIP3    H2 7198   1.927   1.035   3.239  0.0415  0.9182 -0.3568
 2398TIP3   OH2 7199   3.732   2.788   3.600 -0.3137  0.2310  0.3717
 2398TIP3    H1 7200   3.752   2.814   3.689 -0.7443  1.7568  0.0403
 2398TIP3    H2 7201   3.639   2.765   3.601 -0.2148 -0.1802  0.4025
 2399TIP3   OH2 7202   2.250   3.278   5.050  0.5006 -0.2256  0.0731
 2399TIP3    H1 7203   2.316   3.281   5.119  0.3143 -0.5492  0.2653
 2399TIP3    H2 7204   2.298   3.248   4.972  0.4147 -1.2708  0.4102
 2400TIP3   OH2 7205   3.818   0.442   0.475 -0.2004  0.5557 -0.1706
 2400TIP3    H1 7206   3.737   0.394   0.495  0.5019 -0.1863  1.0903
 2400TIP3    H2 7207   3.851   0.469   0.561  0.6843  1.1967 -0.6934
 2401TIP3   OH2 7208   3.388   2.853   3.449 -0.0383 -0.5272 -0.3251
 2401TIP3    H1 7209   3.324   2.856   3.520 -0.1948 -0.7435 -0.4574
 2401TIP3    H2 7210   3.347   2.900   3.377  1.3576  2.5032  0.7107
 2402TIP3   OH2 7211   4.296   0.533   3.811  0.1888  0.2509 -0.2594
 2402TIP3    H1 7212   4.251   0.452   3.787 -0.4687  0.7063 -0.5805
 2402TIP3    H2 7213   4.257   0.600   3.755  1.3943  0.6343 -0.6752
 2403TIP3   OH2 7214   1.841   1.457   4.547 -0.0417 -0.6080 -0.2691
 2403TIP3    H1 7215   1.915   1.517   4.553  0.6486 -1.4489 -0.1606
 2403TIP3    H2 7216   1.836   1.416   4.634 -1.1446  0.0195 -0.0185
 2404TIP3   OH2 7217   3.777   4.665   4.243  0.3037 -0.2475  0.7496
 2404TIP3    H1 7218   3.825   4.591   4.280  2.0772  0.1495 -0.6443
 2404TIP3    H2 7219   3.812   4.742   4.287  0.5130 -0.0025  0.1662
 2405TIP3   OH2 7220   0.816   3.146   2.098  0.8366 -0.4304 -0.5382
 2405TIP3    H1 7221   0.766   3.117   2.174  1.3533  0.8760  0.3290
 2405TIP3    H2 7222   0.751   3.157   2.029 -0.0852  1.0713  0.5142
 2406TIP3   OH2 7223   4.950   0.778   0.262  0.5082 -0.1287  0.6134
 2406TIP3    H1 7224   5.001   0.722   0.320  1.1259  0.6378  0.8258
 2406TIP3    H2 7225   5.015   0.829   0.214 -0.0021 -0.4189 -0.4326
 2407TIP3   OH2 7226   0.320   0.783   0.377  0.2003 -0.2230  0.0293
 2407TIP3    H1 7227   0.407   0.754   0.406  0.0380 -1.0963 -0.2953
 2407TIP3    H2 7228   0.260   0.716   0.411  0.0230 -1.3837 -2.3230
 2408TIP3   OH2 7229   6.099   2.514   0.697 -0.3898 -0.3843 -0.1970
 2408TIP3    H1 7230   6.145   2.441   0.655 -1.3285 -0.7091 -0.6703
 2408TIP3    H2 7231   6.075   2.572   0.624  0.5093  0.4998  0.1919
 2409TIP3   OH2 7232   0.612   1.189   1.081  0.4401 -0.7148 -0.2312
 2409TIP3    H1 7233   0.577   1.126   1.018 -0.4127  1.1474 -1.7202
 2409TIP3    H2 7234   0.705   1.169   1.086  0.2216 -1.9771 -0.7661
 2410TIP3   OH2 7235   3.389   5.608   1.560  0.4450  0.1051 -0.2477
 2410TIP3    H1 7236   3.366   5.677   1.497 -0.7410  0.4288  0.5081
 2410TIP3    H2 7237   3.471   5.639   1.600  0.4774  0.5691 -0.6540
 2411TIP3   OH2 7238   1.450   5.827   4.423 -0.5541 -1.0452  0.1545
 2411TIP3    H1 7239   1.520   5.864   4.477  0.5979 -3.0286  0.1235
 2411TIP3    H2 7240   1.397   5.903   4.398  1.4721  0.5313  0.3205
 2412TIP3   OH2 7241   0.568   5.048  -0.004  0.1609  0.4828 -0.9421
 2412TIP3    H1 7242   0.643   5.044  -0.063  0.3953 -1.8710 -0.5682
 2412TIP3    H2 7243   0.598   5.006   0.076 -1.1285  0.8001 -0.2634
 2413TIP3   OH2 7244   4.612   4.327   0.759 -0.2472  0.2404 -0.1641
 2413TIP3    H1 7245   4.554   4.401   0.775  2.2862  2.5965 -1.0903
 2413TIP3    H2 7246   4.627   4.328   0.664  1.1100 -0.4057  0.0194
 2414TIP3   OH2 7247   3.150   0.416   0.115 -0.1162  0.5015  0.0304
 2414TIP3    H1 7248   3.116   0.501   0.086  0.8146  1.1646  0.7874
 2414TIP3    H2 7249   3.092   0.351   0.076  0.5582  1.3690 -2.6061
 2415TIP3   OH2 7250   5.704   4.190   5.056  0.3475 -0.1379  0.3535
 2415TIP3    H1 7251   5.624   4.229   5.091 -1.7806 -1.8526 -2.1673
 2415TIP3    H2 7252   5.737   4.135   5.128 -1.3507 -0.1900  1.1404
 2416TIP3   OH2 7253   4.342   5.759   0.534 -0.9140 -0.1942  0.0622
 2416TIP3    H1 7254   4.263   5.712   0.507 -0.7945  0.4787 -1.5907
 2416TIP3    H2 7255   4.319   5.800   0.617 -1.8805 -1.0033  0.2086
 2417TIP3   OH2 7256   3.999   5.394   4.671 -0.3279  0.3024 -0.2555
 2417TIP3    H1 7257   3.904   5.385   4.671 -0.1552 -2.0209 -0.8382
 2417TIP3    H2 7258   4.028   5.354   4.589  1.1941  0.4000  0.1878
 2418TIP3   OH2 7259   0.530   1.960   2.127 -0.3965  0.3346  0.0381
 2418TIP3    H1 7260   0.511   2.024   2.058 -1.2022  0.0596 -0.0073
 2418TIP3    H2 7261   0.582   1.893   2.083 -1.5997 -0.2573 -0.5239
 2419TIP3   OH2 7262   5.688   5.696   3.202 -0.0715  0.6239 -0.1801
 2419TIP3    H1 7263   5.732   5.723   3.283  1.1855 -0.4470 -0.4764
 2419TIP3    H2 7264   5.743   5.730   3.132 -2.3114  3.5051 -0.7324
 2420TIP3   OH2 7265   3.158   1.551   1.521 -0.1830 -0.5853 -0.0379
 2420TIP3    H1 7266   3.234   1.541   1.579  0.1251  0.1419 -0.3030
 2420TIP3    H2 7267   3.125   1.462   1.509  0.3389 -0.8527  0.4686
 2421TIP3   OH2 7268   3.289   2.374   3.203 -0.1309  0.1637 -0.0947
 2421TIP3    H1 7269   3.355   2.417   3.257 -0.2665  1.5061 -0.9504
 2421TIP3    H2 7270   3.251   2.445   3.151 -1.0553 -0.8531 -0.8453
 2422TIP3   OH2 7271   3.484   0.272   2.076 -0.0048 -0.0648  0.1001
 2422TIP3    H1 7272   3.499   0.178   2.076 -0.4340 -0.1563 -1.4135
 2422TIP3    H2 7273   3.571   0.310   2.063 -0.1476 -0.3815 -2.1639
 2423TIP3   OH2 7274   4.553   4.259   2.530 -0.1664 -0.3079  0.0507
 2423TIP3    H1 7275   4.538   4.180   2.479  0.9742  0.2734 -1.2392
 2423TIP3    H2 7276   4.643   4.284   2.511 -0.6150  1.5224  0.0871
 2424TIP3   OH2 7277   3.960   5.805   2.940  0.1247 -0.6104 -0.1916
 2424TIP3    H1 7278   3.986   5.897   2.949  0.1608 -0.5488 -0.8539
 2424TIP3    H2 7279   3.958   5.791   2.845 -0.4976 -1.1187 -0.1012
 2425TIP3   OH2 7280   1.205   3.628   4.709  0.2159  0.8141  0.0114
 2425TIP3    H1 7281   1.165   3.704   4.751 -1.0639 -0.2029  0.7519
 2425TIP3    H2 7282   1.288   3.616   4.754  0.8565  2.2873 -0.7394
 2426TIP3   OH2 7283   1.079   4.121   3.895  0.3617 -0.2327 -0.1202
 2426TIP3    H1 7284   1.137   4.075   3.835  1.6310 -0.3028  1.1231
 2426TIP3    H2 7285   1.018   4.054   3.925  1.3894 -0.8334  0.6849
 2427TIP3   OH2 7286   1.642   3.560   0.924 -0.0197  0.0884 -0.0985
 2427TIP3    H1 7287   1.617   3.646   0.957  1.7337 -0.4291  2.9673
 2427TIP3    H2 7288   1.737   3.555   0.939 -0.2129 -2.7129  0.8710
 2428TIP3   OH2 7289   2.361   1.188   2.451  0.5392 -0.0812 -0.4930
 2428TIP3    H1 7290   2.268   1.201   2.469  0.8822  0.3968  1.0559
 2428TIP3    H2 7291   2.363   1.117   2.387 -0.7857 -1.8986  1.3535
 2429TIP3   OH2 7292   2.320   5.227   4.172  0.4089  0.2396  0.3261
 2429TIP3    H1 7293   2.358   5.206   4.258  0.0910 -2.5136 -0.1160
 2429TIP3    H2 7294   2.230   5.196   4.178  0.3315  0.1817 -0.9273
 2430TIP3   OH2 7295   0.784   4.116   3.262  0.1327 -0.7653 -0.0771
 2430TIP3    H1 7296   0.864   4.077   3.226  1.1043 -0.8782  2.0783
 2430TIP3    H2 7297   0.767   4.068   3.342  0.2299  1.8561  1.6331
 2431TIP3   OH2 7298   2.120   1.143   0.822  0.7947 -0.4733  0.1903
 2431TIP3    H1 7299   2.074   1.221   0.791 -0.1352 -0.5149  1.4162
 2431TIP3    H2 7300   2.170   1.113   0.746  1.0973  1.2518 -0.3366
 2432TIP3   OH2 7301   4.414   0.612   3.418  0.2689 -0.0713  0.0218
 2432TIP3    H1 7302   4.436   0.528   3.458  0.5601 -1.2458 -2.4424
 2432TIP3    H2 7303   4.326   0.599   3.383  0.6008  0.3991 -1.0173
 2433TIP3   OH2 7304   3.610   5.380   0.330  0.4436  0.2054  0.1687
 2433TIP3    H1 7305   3.661   5.460   0.319 -0.0065  0.6449  1.1138
 2433TIP3    H2 7306   3.526   5.409   0.365 -0.8760 -0.4112 -2.2894
 2434TIP3   OH2 7307   0.356   5.609   2.626  0.4372 -0.2199  0.4275
 2434TIP3    H1 7308   0.347   5.526   2.579  2.1901  0.1135 -0.5946
 2434TIP3    H2 7309   0.344   5.586   2.718  2.1595 -1.8679  0.2972
 2435TIP3   OH2 7310   3.412   5.912   4.772 -0.6062  0.0232 -0.5470
 2435TIP3    H1 7311   3.453   5.992   4.737  1.9320 -1.0082 -0.1805
 2435TIP3    H2 7312   3.363   5.941   4.849 -0.9286  1.4043 -1.2438
 2436TIP3   OH2 7313   3.370   0.690   1.007  0.5656  0.2688 -0.1081
 2436TIP3    H1 7314   3.344   0.715   1.096 -0.0767 -0.3695 -0.1053
 2436TIP3    H2 7315   3.304   0.729   0.950 -0.5875 -1.5269 -0.0855
 2437TIP3   OH2 7316   4.062   1.358   5.035  0.1797 -0.4504  0.0218
 2437TIP3    H1 7317   4.069   1.391   4.945  0.4842 -1.1945 -0.2345
 2437TIP3    H2 7318   4.045   1.264   5.025 -2.1674 -0.1594  0.7152
 2438TIP3   OH2 7319   5.378   5.686   4.247  0.0699 -0.1382 -0.0649
 2438TIP3    H1 7320   5.432   5.730   4.181 -1.4464  1.8626 -0.0963
 2438TIP3    H2 7321   5.293   5.674   4.204 -0.9483  1.1933  1.4552
 2439TIP3   OH2 7322   1.297   2.370   3.309 -0.3947 -0.4693  0.4291
 2439TIP3    H1 7323   1.271   2.287   3.350 -1.8718  0.9419  2.5926
 2439TIP3    H2 7324   1.331   2.422   3.382  0.4586  0.8717 -0.8797
 2440TIP3   OH2 7325   0.773   4.383   3.170 -0.0169 -0.1631 -0.0031
 2440TIP3    H1 7326   0.856   4.413   3.206 -1.1587 -0.6161  3.3701
 2440TIP3    H2 7327   0.776   4.288   3.177 -0.8234 -0.1856  0.2178
 2441TIP3   OH2 7328   1.282   4.080   3.718  0.1099 -0.0160  0.1777
 2441TIP3    H1 7329   1.324   4.130   3.788  0.2544  1.1095 -0.7013
 2441TIP3    H2 7330   1.354   4.052   3.661  0.2082 -2.4050  1.3241
 2442TIP3   OH2 7331   6.113   5.184   1.118 -0.1780  0.0502 -0.3128
 2442TIP3    H1 7332   6.161   5.167   1.199  0.0256 -2.0677 -0.8258
 2442TIP3    H2 7333   6.092   5.098   1.083  0.2458  0.8671 -2.8273
 2443TIP3   OH2 7334   3.006   4.619   2.017  0.2460  0.1418  0.1562
 2443TIP3    H1 7335   2.968   4.653   2.098 -0.0866  1.9792 -0.7302
 2443TIP3    H2 7336   2.942   4.642   1.949  0.8612 -0.7287 -0.7433
 2444TIP3   OH2 7337   0.133   5.057   2.687 -0.3053  0.2147  0.1054
 2444TIP3    H1 7338   0.205   5.106   2.727 -0.4300 -0.1478  0.7990
 2444TIP3    H2 7339   0.175   4.982   2.646 -0.2674  0.0804  0.3854
 2445TIP3   OH2 7340   4.498   3.239   0.953 -0.3332  0.4508 -0.3406
 2445TIP3    H1 7341   4.523   3.194   1.033 -0.8813  0.3095 -0.2482
 2445TIP3    H2 7342   4.432   3.303   0.981  0.3762  1.2654 -0.4797
 2446TIP3   OH2 7343   0.679   0.335   2.020 -0.4861 -0.3892 -0.0348
 2446TIP3    H1 7344   0.740   0.374   2.082 -0.4582 -1.3312  0.5525
 2446TIP3    H2 7345   0.733   0.285   1.960 -0.6171 -0.6135  0.0311
 2447TIP3   OH2 7346   3.921   1.871   0.866 -0.1706 -0.1037 -0.3675
 2447TIP3    H1 7347   3.835   1.878   0.825  0.9670  3.4652 -2.5787
 2447TIP3    H2 7348   3.927   1.947   0.924  1.5159 -0.1721 -0.3968
 2448TIP3   OH2 7349   1.791   3.979   2.990  0.0040  0.0872  0.0251
 2448TIP3    H1 7350   1.707   3.995   2.948 -0.1728  0.3366  0.4656
 2448TIP3    H2 7351   1.807   4.058   3.042  0.0491 -0.3598  0.7078
 2449TIP3   OH2 7352   3.385   3.769   1.467 -0.4913 -0.2233 -0.1853
 2449TIP3    H1 7353   3.368   3.804   1.554  2.9725 -2.3391  1.5838
 2449TIP3    H2 7354   3.308   3.716   1.446 -0.9896 -0.4809  2.0888
 2450TIP3   OH2 7355   2.910   2.846   1.845  0.0290 -0.3175 -0.4255
 2450TIP3    H1 7356   2.956   2.773   1.804  0.8044 -0.1440  0.1034
 2450TIP3    H2 7357   2.909   2.825   1.939 -2.4323 -1.0971 -0.5580
 2451TIP3   OH2 7358   0.781   4.653   2.787 -0.1367  0.0254 -0.1060
 2451TIP3    H1 7359   0.770   4.559   2.800 -2.4296  0.0749 -1.1968
 2451TIP3    H2 7360   0.728   4.693   2.856  1.6200  0.6062  0.9884
 2452TIP3   OH2 7361   1.562   0.505   1.922 -0.4328  0.4975  0.0577
 2452TIP3    H1 7362   1.589   0.588   1.960 -1.8689  0.4585  1.2581
 2452TIP3    H2 7363   1.493   0.473   1.981 -1.4291 -0.4946 -1.5654
 2453TIP3   OH2 7364   2.703   3.823   1.940 -0.1913 -0.3298  0.3363
 2453TIP3    H1 7365   2.733   3.782   1.859  1.5998 -0.8295  1.1831
 2453TIP3    H2 7366   2.717   3.917   1.926  1.2058 -0.4999  0.4485
 2454TIP3   OH2 7367   1.754   4.703   4.137 -0.1856  0.1468 -0.5292
 2454TIP3    H1 7368   1.689   4.763   4.173  0.0612  0.4521 -0.5933
 2454TIP3    H2 7369   1.780   4.743   4.054  1.1089  0.7568  0.1326
 2455TIP3   OH2 7370   6.017   4.373   3.690 -0.2828 -0.0798 -0.1199
 2455TIP3    H1 7371   5.985   4.411   3.609  0.4047  0.6366 -0.0602
 2455TIP3    H2 7372   6.008   4.442   3.755 -0.9955 -0.7039  0.4697
 2456TIP3   OH2 7373   4.798   4.295  -0.020  0.0636 -0.6204 -0.6161
 2456TIP3    H1 7374   4.780   4.388  -0.007 -0.4268 -0.6272 -1.1815
 2456TIP3    H2 7375   4.773   4.254   0.063  0.2260 -0.2580 -0.3859
 2457TIP3   OH2 7376   5.669   5.740   4.646  0.5154 -0.1543 -0.1838
 2457TIP3    H1 7377   5.637   5.657   4.682  0.1556  0.1777  0.2819
 2457TIP3    H2 7378   5.632   5.807   4.704  1.8153  0.2668  0.2042
 2458TIP3   OH2 7379   5.083   1.818   4.690 -0.3487 -0.5923 -0.3752
 2458TIP3    H1 7380   5.129   1.899   4.710  0.9737 -1.0706 -1.2663
 2458TIP3    H2 7381   5.001   1.823   4.738 -1.0014  1.9352 -1.5835
 2459TIP3   OH2 7382   3.913   4.551   2.360  0.5683 -0.4078 -0.2492
 2459TIP3    H1 7383   3.913   4.457   2.381  0.9481 -0.2384  0.5515
 2459TIP3    H2 7384   4.004   4.570   2.337  0.6567 -0.0887  0.3323
 2460TIP3   OH2 7385   2.062   3.923   2.956  0.5808  0.3450  0.0408
 2460TIP3    H1 7386   2.103   3.969   2.883  0.5935 -0.4071 -0.4374
 2460TIP3    H2 7387   1.968   3.933   2.941  0.5846  0.2863 -0.0275
 2461TIP3   OH2 7388   6.096   4.912   1.062 -0.8381  0.0401 -0.2051
 2461TIP3    H1 7389   6.185   4.903   1.096 -0.7164 -1.1064 -0.7765
 2461TIP3    H2 7390   6.077   4.827   1.024 -2.1068  0.3468 -0.2813
 2462TIP3   OH2 7391   1.764   0.352   2.020  0.0407 -0.7670  0.0900
 2462TIP3    H1 7392   1.842   0.372   1.967  0.3563 -1.9143  0.1041
 2462TIP3    H2 7393   1.693   0.396   1.974  0.8568  1.4032  0.7818
 2463TIP3   OH2 7394   3.928   1.234   1.416 -0.5543 -0.1067 -0.1346
 2463TIP3    H1 7395   3.844   1.187   1.419 -0.6601  0.1034  0.3121
 2463TIP3    H2 7396   3.993   1.165   1.407 -0.4872 -0.6421  3.2374
 2464TIP3   OH2 7397   4.462   4.319   4.129  0.5081  0.4604 -0.2271
 2464TIP3    H1 7398   4.386   4.329   4.072  0.3320  2.1032  0.2551
 2464TIP3    H2 7399   4.439   4.367   4.208  2.2334  1.4567 -0.2747
 2465TIP3   OH2 7400   1.381   0.224   0.343 -0.2061 -0.0769 -0.1035
 2465TIP3    H1 7401   1.318   0.259   0.406  1.7060  2.7493  0.4245
 2465TIP3    H2 7402   1.363   0.272   0.262  0.4379 -0.1401 -0.2904
 2466TIP3   OH2 7403   6.004   1.109   1.536  0.6201 -0.0861  0.5678
 2466TIP3    H1 7404   6.075   1.050   1.562  1.4367  0.2533 -0.7799
 2466TIP3    H2 7405   5.996   1.170   1.609  1.8655 -0.0100  0.6672
 2467TIP3   OH2 7406   0.624   0.589   1.245 -0.0336  0.1451  0.0409
 2467TIP3    H1 7407   0.624   0.671   1.295  0.4489 -0.0683  0.3954
 2467TIP3    H2 7408   0.646   0.521   1.309 -0.1633 -0.2298 -0.3060
 2468TIP3   OH2 7409   2.081   0.232   2.798  0.3307  0.1476  0.4318
 2468TIP3    H1 7410   2.021   0.184   2.855 -0.6920 -0.3930 -1.0309
 2468TIP3    H2 7411   2.034   0.241   2.715  1.9788  0.3547 -0.5462
 2469TIP3   OH2 7412   6.075   0.994   1.920  0.3040  0.3339  0.4517
 2469TIP3    H1 7413   6.093   1.075   1.872 -1.5409  2.1318  2.5618
 2469TIP3    H2 7414   6.162   0.957   1.937  1.2375  2.0014 -0.3904
 2470TIP3   OH2 7415   0.002   2.077   2.292  0.0831 -0.1632  0.2931
 2470TIP3    H1 7416   0.067   2.014   2.260 -1.2010 -1.1985 -0.3650
 2470TIP3    H2 7417   0.034   2.102   2.379  1.5003 -0.4188 -0.1263
 2471TIP3   OH2 7418   1.084   5.739   3.143 -0.1914  1.2633  0.2958
 2471TIP3    H1 7419   1.070   5.680   3.216  0.5145 -1.1020 -1.3808
 2471TIP3    H2 7420   1.010   5.723   3.084  1.3275  0.0453 -1.3848
 2472TIP3   OH2 7421   0.625   5.325   0.133  0.1202  0.8071 -0.5490
 2472TIP3    H1 7422   0.603   5.259   0.068  0.1690  1.2922 -1.0599
 2472TIP3    H2 7423   0.690   5.381   0.090  2.8657 -0.8732  1.0700
 2473TIP3   OH2 7424   4.643   3.429   0.823 -0.3318  0.5344  0.3651
 2473TIP3    H1 7425   4.703   3.446   0.896 -0.8790  0.5850  0.8059
 2473TIP3    H2 7426   4.600   3.346   0.847  0.8138 -0.4376 -0.7726
 2474TIP3   OH2 7427   3.517   2.179   4.230 -0.2265  0.0560  0.5031
 2474TIP3    H1 7428   3.498   2.184   4.136  0.3064 -0.1347  0.3786
 2474TIP3    H2 7429   3.538   2.087   4.246 -0.0016  0.1458  0.7412
 2475TIP3   OH2 7430   3.873   2.471   3.739 -0.5247  0.2798  0.5074
 2475TIP3    H1 7431   3.935   2.398   3.736 -1.6728 -0.7013 -0.1831
 2475TIP3    H2 7432   3.800   2.443   3.684 -0.9163  2.0472  0.0544
 2476TIP3   OH2 7433   4.083   4.855   0.728  0.7152  0.0536  0.4350
 2476TIP3    H1 7434   4.152   4.812   0.679  0.0543 -0.1745 -0.3129
 2476TIP3    H2 7435   4.063   4.795   0.800  0.1428 -0.6647 -0.3168
 2477TIP3   OH2 7436   1.161   1.594   1.411 -0.4956 -1.0493 -0.0943
 2477TIP3    H1 7437   1.210   1.542   1.475 -2.1398 -2.5211  0.0402
 2477TIP3    H2 7438   1.210   1.584   1.330  0.0539 -1.5374  0.2817
 2478TIP3   OH2 7439   0.008   0.583   0.685  0.4865 -0.2023  0.2684
 2478TIP3    H1 7440   0.059   0.568   0.605 -0.0930 -0.0996 -0.1369
 2478TIP3    H2 7441  -0.045   0.504   0.694 -0.9260  0.5880 -0.6083
 2479TIP3   OH2 7442   5.036   0.797   2.539  0.0647  0.2747  0.0567
 2479TIP3    H1 7443   4.966   0.822   2.478 -0.9686 -0.1829  1.0100
 2479TIP3    H2 7444   5.117   0.808   2.489 -0.7324  0.1041 -1.3241
 2480TIP3   OH2 7445   0.250   4.162   4.939  0.0683  0.6280  0.4826
 2480TIP3    H1 7446   0.266   4.167   5.033  0.4825  3.8231  0.3637
 2480TIP3    H2 7447   0.336   4.171   4.900 -0.2153  0.4079 -0.2021
 2481TIP3   OH2 7448   1.391   3.324   5.189  0.5215  0.0343  0.0447
 2481TIP3    H1 7449   1.456   3.375   5.140  0.5789 -1.2891 -1.3650
 2481TIP3    H2 7450   1.319   3.312   5.127 -0.9309  1.1399  1.4572
 2482TIP3   OH2 7451   5.828   0.532   1.865  0.1462 -0.5289 -0.3684
 2482TIP3    H1 7452   5.789   0.455   1.906  1.9253 -0.6936  1.1270
 2482TIP3    H2 7453   5.901   0.556   1.922 -0.2521  2.1975 -0.8547
 2483TIP3   OH2 7454   2.837   3.069   1.121 -0.6326  0.4306  0.2228
 2483TIP3    H1 7455   2.810   3.094   1.210 -0.9184 -0.5864  0.4348
 2483TIP3    H2 7456   2.922   3.028   1.133 -0.6931  0.2526  0.0305
 2484TIP3   OH2 7457   2.539   5.614   4.914 -0.2825 -0.3806  0.5926
 2484TIP3    H1 7458   2.536   5.698   4.869 -0.9638  1.0696  3.1677
 2484TIP3    H2 7459   2.632   5.592   4.919 -0.1052  0.1477 -0.2009
 2485TIP3   OH2 7460   3.114   3.029   4.113  0.0153  0.1078  0.1200
 2485TIP3    H1 7461   3.067   3.055   4.034 -0.1537 -2.1284 -0.5893
 2485TIP3    H2 7462   3.051   2.980   4.164  0.7251 -0.3359  0.5942
 2486TIP3   OH2 7463   6.055   4.937   5.130 -0.6456 -0.8521 -0.4095
 2486TIP3    H1 7464   6.140   4.976   5.152  0.8429 -2.8796 -2.2391
 2486TIP3    H2 7465   6.020   4.992   5.060 -1.7527  0.9708  1.4230
 2487TIP3   OH2 7466   3.432   2.191   1.087  0.9091  0.3226 -0.1055
 2487TIP3    H1 7467   3.513   2.140   1.097  1.2568  0.8940  0.0498
 2487TIP3    H2 7468   3.420   2.198   0.992  0.6476 -0.3599 -0.1349
 2488TIP3   OH2 7469   6.034   0.051   2.429  0.1074  0.3011  0.8147
 2488TIP3    H1 7470   6.067  -0.036   2.408  0.5281  0.5413  0.4492
 2488TIP3    H2 7471   5.946   0.053   2.392  0.3878  0.2946  0.1125
 2489TIP3   OH2 7472   3.938   0.499   0.967  0.1806 -0.5672 -0.1563
 2489TIP3    H1 7473   3.945   0.565   1.036  0.4796 -0.0610 -0.6663
 2489TIP3    H2 7474   3.854   0.457   0.983 -0.4396  0.5479 -0.3513
 2490TIP3   OH2 7475   4.936   2.290   1.856 -0.0697  0.4437  0.1043
 2490TIP3    H1 7476   4.844   2.289   1.881  0.2663  0.0188  1.4050
 2490TIP3    H2 7477   4.980   2.334   1.929  0.6714  1.3242 -0.8447
 2491TIP3   OH2 7478   4.873   2.584   2.586 -0.1527  0.1963 -0.2159
 2491TIP3    H1 7479   4.924   2.657   2.549 -0.7279  0.3563 -0.7051
 2491TIP3    H2 7480   4.799   2.626   2.630 -0.9839 -0.1172 -1.2767
 2492TIP3   OH2 7481   3.678   2.040   2.718 -0.3868  0.3485  0.3291
 2492TIP3    H1 7482   3.629   2.117   2.687  1.0209  0.9479 -0.5623
 2492TIP3    H2 7483   3.769   2.072   2.725  0.4016 -1.4372 -0.9598
 2493TIP3   OH2 7484   0.397   0.595   0.728  0.1306 -0.2650 -0.1605
 2493TIP3    H1 7485   0.380   0.569   0.637  1.1239 -1.4129 -0.0407
 2493TIP3    H2 7486   0.327   0.657   0.748  0.8300  1.3262 -2.2458
 2494TIP3   OH2 7487   4.989   3.028   0.991  0.0913 -0.2552 -0.4430
 2494TIP3    H1 7488   4.990   2.933   1.005 -2.2424 -0.4831 -1.3400
 2494TIP3    H2 7489   4.917   3.059   1.047  0.4079  0.8910 -0.6640
 2495TIP3   OH2 7490   2.644   4.823   0.439 -0.5320 -0.2593  0.3495
 2495TIP3    H1 7491   2.674   4.881   0.370  1.2771  0.1359  1.3966
 2495TIP3    H2 7492   2.724   4.795   0.484 -1.6509  0.2680  2.8734
 2496TIP3   OH2 7493   1.058   3.124   1.239 -0.4728 -0.1647 -0.1635
 2496TIP3    H1 7494   1.023   3.198   1.190  2.1302  0.7605 -0.7827
 2496TIP3    H2 7495   1.084   3.160   1.323 -0.2949 -0.6532 -0.0041
 2497TIP3   OH2 7496   1.543   1.420   1.998  0.1879  0.2080  0.2178
 2497TIP3    H1 7497   1.527   1.388   2.087 -0.4717 -0.4566 -0.1267
 2497TIP3    H2 7498   1.524   1.346   1.942 -0.4619  0.9317 -0.5504
 2498TIP3   OH2 7499   2.905   3.613   1.914 -0.5066  0.3630 -0.1026
 2498TIP3    H1 7500   2.870   3.532   1.953  0.0223 -0.5983 -1.5325
 2498TIP3    H2 7501   2.855   3.625   1.834  0.0177  0.9756 -0.3483
 2499TIP3   OH2 7502   4.519   2.959   1.266 -0.3634 -0.2031  0.1249
 2499TIP3    H1 7503   4.479   3.021   1.328 -0.3855  0.3089 -0.3879
 2499TIP3    H2 7504   4.460   2.960   1.190  0.9430  1.0827 -0.9303
 2500TIP3   OH2 7505   5.940   1.915   1.314  0.2525  0.9604 -0.6478
 2500TIP3    H1 7506   5.850   1.937   1.338  0.6859  1.0461  1.0018
 2500TIP3    H2 7507   5.935   1.888   1.222 -1.6661 -0.3000 -0.2204
 2501TIP3   OH2 7508   4.272   4.437   3.968 -0.1886 -0.2766  0.0865
 2501TIP3    H1 7509   4.348   4.441   3.910 -0.8257  2.0547 -0.7003
 2501TIP3    H2 7510   4.203   4.399   3.914 -0.0444 -0.7836  0.2532
 2502TIP3   OH2 7511   3.980   2.483   1.093  0.1488 -0.0214  0.5933
 2502TIP3    H1 7512   4.028   2.442   1.165  0.4911  0.2626  0.5262
 2502TIP3    H2 7513   3.924   2.548   1.135 -0.8424 -0.9580  0.7636
 2503TIP3   OH2 7514   4.960   0.486   4.667  0.4047 -0.3523  0.0575
 2503TIP3    H1 7515   4.868   0.466   4.651  0.5694 -1.4396  0.3825
 2503TIP3    H2 7516   4.961   0.531   4.751  0.0341  0.9963 -0.6395
 2504TIP3   OH2 7517   1.990   5.521   0.420  0.1105  0.2537 -0.8617
 2504TIP3    H1 7518   1.997   5.607   0.378 -0.3183  0.5928 -0.2661
 2504TIP3    H2 7519   1.900   5.493   0.403 -1.2454  1.9530  2.6340
 2505TIP3   OH2 7520   4.455   0.483   2.626  0.0864 -0.0297  0.0772
 2505TIP3    H1 7521   4.505   0.541   2.682 -0.7536  0.2533  0.5586
 2505TIP3    H2 7522   4.467   0.396   2.664 -0.2696  0.1249  0.5500
 2506TIP3   OH2 7523   2.069   0.817   0.970  0.4084  0.0787 -0.2455
 2506TIP3    H1 7524   2.136   0.767   0.924  2.0140  0.7023  1.2835
 2506TIP3    H2 7525   2.099   0.819   1.061 -1.9473  0.0054  0.6033
 2507TIP3   OH2 7526   3.382   0.073   1.348 -0.6093 -0.0359 -0.6447
 2507TIP3    H1 7527   3.356   0.021   1.272 -0.5085 -0.5843 -0.3087
 2507TIP3    H2 7528   3.380   0.011   1.421  2.3068 -0.3079 -0.6842
 2508TIP3   OH2 7529   0.797   4.391   1.841  0.4387  0.7092 -0.1618
 2508TIP3    H1 7530   0.884   4.429   1.853 -0.4803  2.1909  2.5812
 2508TIP3    H2 7531   0.742   4.435   1.905 -2.0971 -1.0618 -0.9561
 2509TIP3   OH2 7532   3.526   5.240   3.501  0.1185 -0.0502  0.0767
 2509TIP3    H1 7533   3.487   5.326   3.514 -1.7357 -0.4216 -2.2646
 2509TIP3    H2 7534   3.609   5.257   3.458 -0.8050  0.5901 -1.5319
 2510TIP3   OH2 7535   0.705   5.413   3.414  0.3165 -0.4883  0.3956
 2510TIP3    H1 7536   0.708   5.419   3.509  1.5695 -0.5505  0.3712
 2510TIP3    H2 7537   0.754   5.333   3.393 -0.6909 -0.9540 -0.2603
 2511TIP3   OH2 7538   2.692   4.991   4.325  0.3784 -0.1059  0.0860
 2511TIP3    H1 7539   2.650   4.967   4.408 -1.7571  0.3087 -0.8190
 2511TIP3    H2 7540   2.691   4.910   4.273  0.2331  0.0297 -0.1243
 2512TIP3   OH2 7541   4.988   3.228   3.972  0.9150  0.0465  0.1594
 2512TIP3    H1 7542   5.025   3.250   4.057  0.0063  3.5149 -0.2017
 2512TIP3    H2 7543   5.007   3.304   3.917 -2.0969 -0.2528 -1.5266
 2513TIP3   OH2 7544   4.977   2.460   4.139  0.0552  0.2557  0.5977
 2513TIP3    H1 7545   4.887   2.437   4.163 -0.8002  2.6395 -0.0582
 2513TIP3    H2 7546   4.975   2.469   4.044  1.1693 -0.2235  0.5059
 2514TIP3   OH2 7547   4.415   1.412   1.530 -0.0305 -0.1238 -0.3081
 2514TIP3    H1 7548   4.342   1.355   1.555  0.4465 -0.6813 -0.1579
 2514TIP3    H2 7549   4.373   1.492   1.498 -0.7246  0.9417  2.8520
 2515TIP3   OH2 7550   4.131   0.908   4.211  0.1425 -0.6539 -0.1765
 2515TIP3    H1 7551   4.202   0.972   4.208 -1.6239  1.3699 -1.4359
 2515TIP3    H2 7552   4.135   0.864   4.126 -1.3547  0.9891 -1.1579
 2516TIP3   OH2 7553   1.109   0.795   5.152 -0.0497  0.4725 -0.0949
 2516TIP3    H1 7554   1.166   0.826   5.223 -2.1535  2.7824  0.7125
 2516TIP3    H2 7555   1.116   0.862   5.085 -0.6429 -0.0042 -0.6381
 2517TIP3   OH2 7556   5.847   4.283   2.273 -0.1165  0.9358  0.0437
 2517TIP3    H1 7557   5.935   4.295   2.236 -0.3719 -1.4762 -1.6002
 2517TIP3    H2 7558   5.862   4.243   2.358  0.4041 -0.2059 -0.5619
 2518TIP3   OH2 7559   0.962   5.381   0.296 -0.1389 -0.3641 -0.1840
 2518TIP3    H1 7560   0.892   5.328   0.335  0.2894  0.5172  1.9402
 2518TIP3    H2 7561   0.927   5.410   0.212 -0.7876 -3.0743 -0.9437
 2519TIP3   OH2 7562   6.127   4.944   0.638  0.3985  0.2787  0.0529
 2519TIP3    H1 7563   6.218   4.953   0.611 -0.2885 -1.0021 -3.1461
 2519TIP3    H2 7564   6.101   5.032   0.667  2.3045  0.8973  0.0314
 2520TIP3   OH2 7565   4.445   3.745   4.576 -0.1570  0.3591 -0.6929
 2520TIP3    H1 7566   4.469   3.741   4.668  1.0875  2.7821 -0.8272
 2520TIP3    H2 7567   4.384   3.672   4.564  1.5096 -1.5369  1.4236
 2521TIP3   OH2 7568   0.472   1.014   0.622  0.2916 -0.3860  0.3248
 2521TIP3    H1 7569   0.533   0.945   0.595 -0.4598 -0.8802 -0.1259
 2521TIP3    H2 7570   0.495   1.088   0.565  1.3605 -0.1027  1.0760
 2522TIP3   OH2 7571   3.477   1.710   2.425  0.5048 -0.5050 -0.8385
 2522TIP3    H1 7572   3.459   1.677   2.337  2.0452 -2.2285 -0.5876
 2522TIP3    H2 7573   3.556   1.763   2.415  0.2154 -0.0354 -0.6260
 2523TIP3   OH2 7574   5.731   0.758   0.649 -0.0760  0.7975 -0.9949
 2523TIP3    H1 7575   5.658   0.820   0.646 -1.1533 -0.3602  0.1537
 2523TIP3    H2 7576   5.690   0.672   0.648  1.2281  0.1117  0.2812
 2524TIP3   OH2 7577   5.335   0.968   1.441  0.2744  0.2588  0.1234
 2524TIP3    H1 7578   5.397   0.919   1.495 -0.7385 -0.3445  0.7680
 2524TIP3    H2 7579   5.249   0.946   1.477 -0.5623 -1.1809 -2.5214
 2525TIP3   OH2 7580   6.235   4.163   4.178  0.1053 -0.5298 -0.4812
 2525TIP3    H1 7581   6.140   4.174   4.182  0.2107  0.5018 -0.4329
 2525TIP3    H2 7582   6.268   4.210   4.254  0.6054 -1.7321  0.0600
 2526TIP3   OH2 7583   5.908   4.242   3.104  0.1873  0.7735 -0.1677
 2526TIP3    H1 7584   5.987   4.259   3.154  0.7346 -0.4089 -0.6048
 2526TIP3    H2 7585   5.933   4.261   3.013 -0.6574  2.4347 -0.1082
 2527TIP3   OH2 7586   2.672   3.621   2.135 -0.4367 -0.7080 -0.2293
 2527TIP3    H1 7587   2.762   3.631   2.165 -0.9574  1.8666  0.8196
 2527TIP3    H2 7588   2.661   3.689   2.069 -2.1578  0.6134  1.2726
 2528TIP3   OH2 7589   3.459   3.335   1.184  0.0738  0.1398 -0.5068
 2528TIP3    H1 7590   3.377   3.371   1.150 -0.2911 -0.4928 -0.3070
 2528TIP3    H2 7591   3.462   3.365   1.275 -0.1291 -0.1627 -0.4002
 2529TIP3   OH2 7592   5.537   4.041   0.038  0.2295 -0.0326  0.1409
 2529TIP3    H1 7593   5.568   3.967   0.089  1.5827  0.6110  0.3071
 2529TIP3    H2 7594   5.479   4.003  -0.028  1.3737 -1.3138 -0.1684
 2530TIP3   OH2 7595   4.029   2.142   1.742  0.0646  0.1111 -0.1080
 2530TIP3    H1 7596   4.084   2.113   1.669 -0.8479 -2.0939  0.0201
 2530TIP3    H2 7597   4.037   2.237   1.741  1.4305  0.0358 -1.9982
 2531TIP3   OH2 7598   0.442   3.049   3.540 -0.3024  0.6532 -0.0382
 2531TIP3    H1 7599   0.426   3.097   3.621 -0.3319  0.8537 -0.1610
 2531TIP3    H2 7600   0.420   3.112   3.471  1.0032  0.9413 -0.2155
 2532TIP3   OH2 7601   2.684   4.905   1.776  0.4951  0.2973  0.1745
 2532TIP3    H1 7602   2.748   4.903   1.848 -0.0808  2.1190  0.7963
 2532TIP3    H2 7603   2.630   4.827   1.789  0.5083  0.5057  1.6386
 2533TIP3   OH2 7604   6.036   5.315   3.084 -0.1918 -0.4630 -0.0570
 2533TIP3    H1 7605   6.008   5.291   2.995 -2.8273 -0.8809  0.7765
 2533TIP3    H2 7606   6.056   5.408   3.078 -1.0029 -0.3272 -0.9859
 2534TIP3   OH2 7607   5.688   2.930   1.119 -0.4320 -0.0797  0.2822
 2534TIP3    H1 7608   5.651   2.926   1.207 -1.4215 -0.3713 -0.1368
 2534TIP3    H2 7609   5.683   2.841   1.087 -0.1317  0.0389 -0.0946
 2535TIP3   OH2 7610   5.261   5.891   3.511 -0.1776  0.5990 -0.1064
 2535TIP3    H1 7611   5.220   5.806   3.491  0.4657 -0.3330  2.2197
 2535TIP3    H2 7612   5.209   5.925   3.585  1.3674  0.8061  0.9187
 2536TIP3   OH2 7613   2.778   3.729   0.518  0.2089  0.2651  0.0653
 2536TIP3    H1 7614   2.814   3.722   0.430 -0.0211  0.8531 -0.0818
 2536TIP3    H2 7615   2.834   3.793   0.562 -0.4495  0.9525 -0.0693
 2537TIP3   OH2 7616   3.636   4.996   0.781  0.1565 -0.3113  0.0681
 2537TIP3    H1 7617   3.578   5.045   0.839  0.7073  0.3919  0.0276
 2537TIP3    H2 7618   3.698   5.061   0.747 -0.1879 -0.6764 -1.3525
 2538TIP3   OH2 7619   4.378   5.100   1.026  0.2588  0.2474 -0.5847
 2538TIP3    H1 7620   4.392   5.055   0.943 -0.0227  0.6513 -0.8515
 2538TIP3    H2 7621   4.450   5.164   1.031  1.1072 -0.7314  0.1503
 2539TIP3   OH2 7622   1.793   2.473   4.752 -0.1028  0.3558 -0.1478
 2539TIP3    H1 7623   1.863   2.445   4.811 -1.3513 -0.6794  0.9150
 2539TIP3    H2 7624   1.808   2.424   4.671  0.0546 -0.3392  0.2933
 2540TIP3   OH2 7625   0.611   3.068   3.212 -0.3996 -0.3445 -0.5304
 2540TIP3    H1 7626   0.612   3.106   3.124 -0.1956 -0.4487 -0.5744
 2540TIP3    H2 7627   0.566   3.133   3.266 -0.2106 -0.1213 -0.6404
 2541TIP3   OH2 7628   2.955   0.543   2.929  0.2775  0.4210  0.6149
 2541TIP3    H1 7629   3.037   0.592   2.918 -0.3360  1.1076 -1.3185
 2541TIP3    H2 7630   2.887   0.605   2.901 -0.7273 -0.8043  0.2868
 2542TIP3   OH2 7631   3.259   5.417   1.223  0.2568  0.5558  0.3015
 2542TIP3    H1 7632   3.270   5.512   1.234  0.7274  0.5191  0.1745
 2542TIP3    H2 7633   3.317   5.379   1.289 -0.2779  0.3586  0.6580
 2543TIP3   OH2 7634   4.700   2.157   4.800 -0.6068 -0.3424  0.0245
 2543TIP3    H1 7635   4.616   2.131   4.836 -0.1936 -0.3076  1.0537
 2543TIP3    H2 7636   4.749   2.190   4.875 -0.0259  0.5618 -0.7247
 2544TIP3   OH2 7637   0.381  -0.029   2.557 -0.8517  0.4771 -0.1570
 2544TIP3    H1 7638   0.290  -0.009   2.536 -1.0893  0.2060  0.5847
 2544TIP3    H2 7639   0.407   0.041   2.618 -0.4263  0.7948 -0.6897
 2545TIP3   OH2 7640   1.336   2.466   3.689 -0.9910  0.8325  0.8616
 2545TIP3    H1 7641   1.247   2.491   3.714 -0.9281  0.4606  1.4786
 2545TIP3    H2 7642   1.371   2.420   3.766 -0.7422 -0.2182  0.1484
 2546TIP3   OH2 7643   5.656   1.352   5.104  0.6834  0.5695 -0.5690
 2546TIP3    H1 7644   5.573   1.385   5.140  1.2106  0.7039  0.5583
 2546TIP3    H2 7645   5.630   1.304   5.026 -0.6470 -0.6617  0.5571
 2547TIP3   OH2 7646   1.674   1.063   2.350  0.0841  0.2355 -0.3092
 2547TIP3    H1 7647   1.662   1.038   2.258 -0.9875  0.1260 -0.1596
 2547TIP3    H2 7648   1.730   1.140   2.347  0.0042  0.2763 -1.0660
 2548TIP3   OH2 7649   3.787   5.182   0.624  0.4224 -0.1616  0.2507
 2548TIP3    H1 7650   3.848   5.177   0.551 -0.5386  2.0105 -0.7701
 2548TIP3    H2 7651   3.841   5.203   0.700  1.0647  1.0088 -0.5030
 2549TIP3   OH2 7652   1.673   5.353   3.689  0.1030 -0.1381 -0.4764
 2549TIP3    H1 7653   1.648   5.266   3.720  1.3688 -0.7799 -1.1567
 2549TIP3    H2 7654   1.752   5.375   3.739 -0.0650  0.5077 -0.4873
 2550TIP3   OH2 7655   3.474   2.453   2.198  0.3141  0.3299 -0.9751
 2550TIP3    H1 7656   3.486   2.481   2.107  1.2453 -0.9083 -1.2801
 2550TIP3    H2 7657   3.512   2.365   2.200 -2.3335 -0.8915 -0.0807
 2551TIP3   OH2 7658   4.950   0.442   0.252 -0.3449 -0.2917 -0.1070
 2551TIP3    H1 7659   5.040   0.412   0.239 -0.3235 -0.2400 -0.0798
 2551TIP3    H2 7660   4.936   0.434   0.346  0.2045  1.2792  0.1551
 2552TIP3   OH2 7661   3.550   5.458   2.818 -0.1020 -0.1188 -0.4761
 2552TIP3    H1 7662   3.514   5.536   2.775  2.2363  0.6311 -1.2465
 2552TIP3    H2 7663   3.620   5.428   2.759  0.7638 -1.2643  1.0531
 2553TIP3   OH2 7664   5.270   4.483   3.486 -0.2361  0.0868 -0.1545
 2553TIP3    H1 7665   5.322   4.444   3.416  1.8211  2.7927 -0.3177
 2553TIP3    H2 7666   5.191   4.514   3.442  1.0009  1.7094 -1.3650
 2554TIP3   OH2 7667   1.112   5.164   1.811  1.0772 -0.3590  0.3897
 2554TIP3    H1 7668   1.156   5.157   1.895 -2.1555 -1.4582  2.1829
 2554TIP3    H2 7669   1.049   5.235   1.822  0.0041 -1.0715 -0.7717
 2555TIP3   OH2 7670   3.294   0.419   4.686 -0.9446  0.4323 -0.1970
 2555TIP3    H1 7671   3.331   0.379   4.765 -1.6407  2.1316  1.0353
 2555TIP3    H2 7672   3.265   0.344   4.633  0.4761 -0.7793  0.6561
 2556TIP3   OH2 7673   1.860   3.195   0.871  0.2220  0.2548 -0.6310
 2556TIP3    H1 7674   1.789   3.246   0.831  0.2856 -0.4300 -1.6368
 2556TIP3    H2 7675   1.899   3.147   0.798  0.7663 -0.5129  0.1537
 2557TIP3   OH2 7676   4.891   0.400   0.527  0.2118  0.0315  0.9408
 2557TIP3    H1 7677   4.930   0.443   0.604  0.3339  0.0142  0.8890
 2557TIP3    H2 7678   4.805   0.440   0.519 -0.3399 -0.9059  1.8807
 2558TIP3   OH2 7679   3.085   3.565   3.131  0.1642 -0.1025  0.5930
 2558TIP3    H1 7680   3.112   3.527   3.214  0.0865  0.9233  1.1141
 2558TIP3    H2 7681   3.122   3.654   3.132 -0.7540  0.3087  0.0291
 2559TIP3   OH2 7682   3.444   0.929   0.759  0.2198  0.2483 -0.2237
 2559TIP3    H1 7683   3.436   1.013   0.714 -0.2706 -0.2303 -1.0499
 2559TIP3    H2 7684   3.467   0.953   0.849  2.9378  1.1719 -1.0619
 2560TIP3   OH2 7685   1.040   2.685   1.533 -0.5068 -0.2921 -0.3431
 2560TIP3    H1 7686   1.046   2.713   1.625 -0.2483  0.8426 -0.6845
 2560TIP3    H2 7687   0.993   2.756   1.490  1.7893  0.5471 -1.6073
 2561TIP3   OH2 7688   4.628   3.191   3.437 -0.1087  0.0570  0.1427
 2561TIP3    H1 7689   4.617   3.284   3.458  0.4992 -0.1350  1.4431
 2561TIP3    H2 7690   4.540   3.161   3.416 -0.6531  0.5200  1.5980
 2562TIP3   OH2 7691   0.408   5.270   4.106 -0.1152 -0.5539 -0.4055
 2562TIP3    H1 7692   0.426   5.360   4.079  0.8542 -1.0652 -1.5506
 2562TIP3    H2 7693   0.476   5.218   4.063  0.8280 -1.5846  2.1214
 2563TIP3   OH2 7694   3.727   2.251   0.420  0.1560 -0.4229 -0.2294
 2563TIP3    H1 7695   3.666   2.295   0.478  0.9283  1.2014 -0.6033
 2563TIP3    H2 7696   3.757   2.175   0.470 -0.4642  0.0057  0.8241
 2564TIP3   OH2 7697   5.006   2.838   1.290 -0.1163 -0.4232  0.0922
 2564TIP3    H1 7698   5.090   2.876   1.316  0.0212 -1.4731  1.3418
 2564TIP3    H2 7699   5.003   2.848   1.195  0.5793  1.2730  0.2244
 2565TIP3   OH2 7700   0.435   4.607   4.447  0.8977 -0.6578 -0.1891
 2565TIP3    H1 7701   0.449   4.591   4.540 -0.3485  1.0466  0.3304
 2565TIP3    H2 7702   0.505   4.667   4.422 -0.3264  1.0283  0.3289
 2566TIP3   OH2 7703   5.983   4.581   3.875  0.2171 -0.2379  0.3949
 2566TIP3    H1 7704   5.897   4.593   3.835 -0.3653  0.4330  1.7964
 2566TIP3    H2 7705   5.965   4.552   3.964  1.4690 -0.7871  0.4998
 2567TIP3   OH2 7706   3.465   1.827   1.803 -0.4672  0.0303 -0.2240
 2567TIP3    H1 7707   3.460   1.808   1.709  3.1406 -1.6733 -0.2250
 2567TIP3    H2 7708   3.509   1.911   1.808 -1.1246  0.3703 -0.0250
 2568TIP3   OH2 7709   5.266   3.138   0.835  0.4626  0.3323  0.0814
 2568TIP3    H1 7710   5.226   3.125   0.749  0.2525  1.1186  0.0520
 2568TIP3    H2 7711   5.353   3.098   0.827  1.2598  2.1718 -1.1856
 2569TIP3   OH2 7712   4.757   5.573   3.670  0.0204 -0.0138 -0.0228
 2569TIP3    H1 7713   4.820   5.630   3.626  0.3987  0.2169  0.7808
 2569TIP3    H2 7714   4.679   5.627   3.681  0.6358  0.6342  1.4108
 2570TIP3   OH2 7715   4.421   4.239   1.870 -0.1806  0.2422  0.0037
 2570TIP3    H1 7716   4.349   4.275   1.923 -0.3681 -0.3051  0.1222
 2570TIP3    H2 7717   4.387   4.237   1.781 -0.7792 -1.2054  0.2466
 2571TIP3   OH2 7718   4.858   1.276   0.396  0.0604  0.6894  0.2019
 2571TIP3    H1 7719   4.825   1.256   0.483  1.1214  1.5818  0.8355
 2571TIP3    H2 7720   4.856   1.193   0.349  2.5634 -0.6123  2.1411
 2572TIP3   OH2 7721   2.384   0.227   4.698 -0.0948 -0.2235  0.1403
 2572TIP3    H1 7722   2.296   0.238   4.736 -0.1417 -1.0037  0.2686
 2572TIP3    H2 7723   2.442   0.266   4.763 -0.3471  0.4100 -0.0013
 2573TIP3   OH2 7724   3.445   3.955   2.566  0.6734  0.0529 -0.2213
 2573TIP3    H1 7725   3.439   3.912   2.481  0.1770 -1.0411  0.3526
 2573TIP3    H2 7726   3.365   3.929   2.612  1.0899  0.3683  0.7034
 2574TIP3   OH2 7727   3.699   1.457   1.710 -0.0349 -0.1061 -0.1927
 2574TIP3    H1 7728   3.700   1.368   1.675 -1.5645  0.5660 -2.1227
 2574TIP3    H2 7729   3.614   1.492   1.683  0.5733  1.9650  0.4343
 2575TIP3   OH2 7730   2.369   0.626   1.663 -0.5527  0.2173 -0.6129
 2575TIP3    H1 7731   2.398   0.717   1.667 -0.9597  0.3154  0.9759
 2575TIP3    H2 7732   2.437   0.577   1.708 -1.3887  0.0752  0.5735
 2576TIP3   OH2 7733   2.614   4.760   4.046  1.0911  0.1950 -0.0293
 2576TIP3    H1 7734   2.673   4.703   3.997  1.5095  0.4666  0.1474
 2576TIP3    H2 7735   2.628   4.735   4.138 -0.7699 -1.3419 -0.0992
 2577TIP3   OH2 7736   2.990   4.657   1.531 -0.1000 -0.2549 -0.1387
 2577TIP3    H1 7737   2.942   4.604   1.468  1.0766 -0.0265 -1.2864
 2577TIP3    H2 7738   3.074   4.675   1.488  0.3393  0.7845  1.0752
 2578TIP3   OH2 7739   0.634   4.894   0.236  0.1980  0.4818 -0.6770
 2578TIP3    H1 7740   0.681   4.837   0.296 -0.4770 -1.1192 -1.6106
 2578TIP3    H2 7741   0.575   4.945   0.292  1.2642  0.7296  0.2347
 2579TIP3   OH2 7742   4.262   3.916   1.575  0.0439  0.3388 -0.3356
 2579TIP3    H1 7743   4.197   3.861   1.530 -0.1187  0.9991 -0.9216
 2579TIP3    H2 7744   4.345   3.896   1.532  0.5110 -1.4748  1.2628
 2580TIP3   OH2 7745   5.791   5.084   0.772 -0.0552 -0.1112  0.7280
 2580TIP3    H1 7746   5.718   5.054   0.718  0.9254  0.8612 -1.2490
 2580TIP3    H2 7747   5.816   5.007   0.823 -0.5906 -1.3327 -0.7447
 2581TIP3   OH2 7748   2.962   2.779   4.170 -0.0609 -0.6478 -0.1473
 2581TIP3    H1 7749   2.899   2.788   4.242 -1.6503  4.5999 -1.7192
 2581TIP3    H2 7750   2.908   2.760   4.093  0.8868 -0.8765 -0.7663
 2582TIP3   OH2 7751   0.650   0.610   3.423 -0.2840 -0.1859 -0.0091
 2582TIP3    H1 7752   0.709   0.610   3.498  0.6044  0.0362 -0.6920
 2582TIP3    H2 7753   0.565   0.633   3.459 -0.1529 -1.3602  1.1421
 2583TIP3   OH2 7754   2.518   3.028   4.098 -0.0874 -0.0380 -0.1063
 2583TIP3    H1 7755   2.506   2.993   4.009 -0.5619  3.1035 -1.4194
 2583TIP3    H2 7756   2.447   3.092   4.108  0.4028  0.2328  2.2811
 2584TIP3   OH2 7757   5.040   3.287   0.214 -0.3623 -0.0487 -0.5721
 2584TIP3    H1 7758   5.048   3.369   0.164  1.2040 -0.6332 -1.3723
 2584TIP3    H2 7759   5.129   3.270   0.245 -0.0574 -2.6608 -2.5091
 2585TIP3   OH2 7760   4.693   3.106   1.110 -0.3534 -0.0264 -0.0534
 2585TIP3    H1 7761   4.653   3.048   1.046 -0.0467 -1.3598  0.9280
 2585TIP3    H2 7762   4.633   3.107   1.184 -0.8895  1.7985 -0.4491
 2586TIP3   OH2 7763   0.734   3.524   0.460 -0.7399 -0.1132 -0.1828
 2586TIP3    H1 7764   0.760   3.435   0.437 -2.4957 -0.4745 -0.9711
 2586TIP3    H2 7765   0.651   3.513   0.507  0.2403  0.9759  1.9131
 2587TIP3   OH2 7766   0.537   5.673   1.409 -0.4510 -0.3121  0.1201
 2587TIP3    H1 7767   0.508   5.756   1.447  1.2662  0.4803 -0.2015
 2587TIP3    H2 7768   0.461   5.616   1.417 -1.2714  0.8801  1.5532
 2588TIP3   OH2 7769   0.034   3.143   4.276 -0.0850 -0.1269  0.6714
 2588TIP3    H1 7770   0.117   3.120   4.235 -0.1510 -1.2448  1.1418
 2588TIP3    H2 7771   0.011   3.228   4.238  0.9482 -0.1083  0.0651
 2589TIP3   OH2 7772   1.085   1.520   4.157 -0.0711 -0.2032 -0.3458
 2589TIP3    H1 7773   1.148   1.510   4.228 -0.2952 -2.2579 -0.3813
 2589TIP3    H2 7774   1.132   1.490   4.079 -1.2625 -2.6418 -0.2315
 2590TIP3   OH2 7775   4.954   2.745   1.018  0.4217 -0.9013 -0.2171
 2590TIP3    H1 7776   4.865   2.715   0.996  0.6561 -1.1124 -0.8916
 2590TIP3    H2 7777   5.007   2.722   0.942  0.7312  0.7715 -0.5476
 2591TIP3   OH2 7778   2.576   2.976   2.133 -0.5072  0.0797  0.0776
 2591TIP3    H1 7779   2.609   3.036   2.065 -0.8318 -0.3557 -0.4746
 2591TIP3    H2 7780   2.582   2.889   2.093  0.2076 -0.2926  0.9696
 2592TIP3   OH2 7781   6.346   3.728   4.105 -0.3686  0.0465 -0.1054
 2592TIP3    H1 7782   6.407   3.678   4.051 -0.5855 -1.2956  0.8455
 2592TIP3    H2 7783   6.269   3.671   4.114 -0.8485  0.7783  0.5568
 2593TIP3   OH2 7784   3.363   1.740   0.094 -0.6052  0.3911 -0.4500
 2593TIP3    H1 7785   3.270   1.757   0.077 -0.5340 -0.3758 -1.7438
 2593TIP3    H2 7786   3.387   1.805   0.160 -1.4931  2.1632 -1.7805
 2594TIP3   OH2 7787   2.052   1.895   1.549 -0.3588  0.1588 -0.3523
 2594TIP3    H1 7788   1.957   1.908   1.544 -0.6166  0.0700  2.6462
 2594TIP3    H2 7789   2.065   1.804   1.525 -0.6977  0.7173 -2.9765
 2595TIP3   OH2 7790   3.514   5.651   4.824 -0.5698 -0.1520 -0.0081
 2595TIP3    H1 7791   3.487   5.741   4.810 -0.5807 -0.3895 -1.7730
 2595TIP3    H2 7792   3.564   5.628   4.745  1.9662 -0.7840  1.6471
 2596TIP3   OH2 7793   5.064   3.737   1.950  0.0967 -0.4765 -0.3861
 2596TIP3    H1 7794   5.004   3.757   1.878 -0.6504 -0.6741  0.1639
 2596TIP3    H2 7795   5.046   3.806   2.015  0.6775 -0.3675 -0.3338
 2597TIP3   OH2 7796   1.281   4.809   3.019  0.3020  0.0327 -0.0630
 2597TIP3    H1 7797   1.285   4.825   3.113  0.7035 -1.7141  0.2418
 2597TIP3    H2 7798   1.189   4.820   2.996  0.1986  0.4230  0.5284
 2598TIP3   OH2 7799   1.213   5.174   2.204 -0.3217  0.1097  0.0359
 2598TIP3    H1 7800   1.281   5.151   2.267 -1.7565 -0.3787  1.4982
 2598TIP3    H2 7801   1.170   5.251   2.243 -0.0453  0.9911 -1.3194
 2599TIP3   OH2 7802   2.243   3.500   1.003  0.0823  0.0296 -0.6563
 2599TIP3    H1 7803   2.247   3.476   1.096  1.2940 -2.3661 -1.2570
 2599TIP3    H2 7804   2.182   3.436   0.965  0.7328  0.0530 -1.7604
 2600TIP3   OH2 7805   5.725   2.916   1.595  0.1000  0.1236 -0.5956
 2600TIP3    H1 7806   5.682   2.930   1.679 -0.1967 -0.1371 -0.7028
 2600TIP3    H2 7807   5.729   3.003   1.555  0.6681  0.3307 -0.1148
 2601TIP3   OH2 7808   6.098   4.435   4.621  0.4848 -0.1001  0.7677
 2601TIP3    H1 7809   6.019   4.423   4.568  0.2270 -0.1031  1.1462
 2601TIP3    H2 7810   6.122   4.347   4.649  2.1680 -0.4591 -1.5054
 2602TIP3   OH2 7811   5.990   2.294   4.615  0.3311  0.2145 -0.3044
 2602TIP3    H1 7812   5.903   2.321   4.644  0.0964  0.4960 -1.2130
 2602TIP3    H2 7813   5.973   2.226   4.550  0.8142 -0.1121 -0.0908
 2603TIP3   OH2 7814   3.022   5.422   3.882  0.1135 -0.2331 -0.2337
 2603TIP3    H1 7815   3.003   5.331   3.861  0.6129 -0.0230 -1.6896
 2603TIP3    H2 7816   3.008   5.469   3.800  0.6311  0.8824  0.2981
 2604TIP3   OH2 7817   4.415   5.090   2.417 -0.4812 -0.4007 -0.1295
 2604TIP3    H1 7818   4.401   5.155   2.348 -0.8578 -1.0142 -0.6370
 2604TIP3    H2 7819   4.368   5.012   2.387  0.4298 -1.1013  0.2089
 2605TIP3   OH2 7820   2.419   3.182   4.859  0.0174  0.2873 -0.3898
 2605TIP3    H1 7821   2.441   3.250   4.795  0.9789  0.9236  0.5792
 2605TIP3    H2 7822   2.430   3.099   4.811 -1.9464  0.7765 -1.8293
 2606TIP3   OH2 7823   2.117   5.686   1.151  0.6093  0.9268  0.2951
 2606TIP3    H1 7824   2.066   5.605   1.145  0.0041  1.1109  2.2006
 2606TIP3    H2 7825   2.098   5.732   1.069  1.4338 -1.0783 -1.1080
 2607TIP3   OH2 7826   3.268   0.682   4.043  0.0538 -0.0763 -0.0785
 2607TIP3    H1 7827   3.325   0.759   4.053  1.5374 -1.2495  0.9627
 2607TIP3    H2 7828   3.209   0.686   4.119  0.1986 -0.0361  0.0319
 2608TIP3   OH2 7829   1.239   5.273   4.521 -0.5666 -0.4392  1.0257
 2608TIP3    H1 7830   1.275   5.340   4.579  2.2665 -0.0204 -0.9701
 2608TIP3    H2 7831   1.206   5.322   4.445 -1.6811 -1.1134  1.0628
 2609TIP3   OH2 7832   0.732   2.889   0.284  0.2521  0.7228  0.6998
 2609TIP3    H1 7833   0.677   2.945   0.340  0.7877 -0.0350  2.0389
 2609TIP3    H2 7834   0.722   2.926   0.196 -2.4049  0.5890  0.8744
 2610TIP3   OH2 7835   2.108   0.766   1.695  0.5332 -0.3104  0.1560
 2610TIP3    H1 7836   2.196   0.737   1.721  0.3867  0.0043  1.0111
 2610TIP3    H2 7837   2.049   0.713   1.748  0.1704 -1.0839 -0.9825
 2611TIP3   OH2 7838   1.948   5.960   2.472 -0.3655 -0.2482  0.3437
 2611TIP3    H1 7839   2.002   5.881   2.465  2.4981  1.6278 -0.2645
 2611TIP3    H2 7840   1.958   5.987   2.563 -0.8984 -0.2568  0.4093
 2612TIP3   OH2 7841   0.824   3.182   3.467  0.7664  0.1359  0.1255
 2612TIP3    H1 7842   0.765   3.134   3.525  0.5196  0.5120  0.1903
 2612TIP3    H2 7843   0.765   3.232   3.410  1.0005 -0.2904 -0.5065
 2613TIP3   OH2 7844   2.776   2.318   2.333 -0.3675  0.0004  0.1257
 2613TIP3    H1 7845   2.789   2.242   2.389  3.6239  0.2968 -0.0951
 2613TIP3    H2 7846   2.698   2.361   2.367  0.6627 -0.9253  4.2105
 2614TIP3   OH2 7847   1.522   4.404   4.531  0.1576  0.2796 -0.2610
 2614TIP3    H1 7848   1.591   4.464   4.561  0.6265 -0.4712  0.1943
 2614TIP3    H2 7849   1.495   4.358   4.611  0.9471 -1.2779 -0.8551
 2615TIP3   OH2 7850   0.218   0.821   1.801 -0.3600 -0.0786 -0.0150
 2615TIP3    H1 7851   0.290   0.884   1.808  0.5526 -1.2320  2.0883
 2615TIP3    H2 7852   0.218   0.776   1.886 -2.2984 -1.4943 -0.6992
 2616TIP3   OH2 7853   3.815   0.458   2.557 -0.1820  0.1892 -0.2985
 2616TIP3    H1 7854   3.756   0.389   2.525  0.8513  0.2893 -2.6653
 2616TIP3    H2 7855   3.759   0.514   2.609 -1.3208 -1.7671  0.7207
 2617TIP3   OH2 7856   0.417   5.453   1.903  0.0251 -0.5122 -0.2194
 2617TIP3    H1 7857   0.448   5.377   1.853  1.0901  1.0739 -2.1412
 2617TIP3    H2 7858   0.448   5.528   1.853 -1.1509  1.2136  1.5039
 2618TIP3   OH2 7859   4.575   1.119   4.012  0.4879  0.1785  0.6275
 2618TIP3    H1 7860   4.537   1.122   3.924  0.5750  0.1905  0.5902
 2618TIP3    H2 7861   4.670   1.127   3.997  0.5751 -0.7368  0.6643
 2619TIP3   OH2 7862   2.711   1.950   2.221  0.2041  0.6812  0.2804
 2619TIP3    H1 7863   2.692   1.868   2.177  0.0805  1.5581 -1.3723
 2619TIP3    H2 7864   2.804   1.944   2.246 -0.1099 -0.4129  1.2622
 2620TIP3   OH2 7865   5.282   4.838   0.296  0.3916 -0.2602 -0.0381
 2620TIP3    H1 7866   5.223   4.870   0.228  0.8472  1.2184  0.2323
 2620TIP3    H2 7867   5.323   4.760   0.257 -1.4966 -1.1706 -0.3244
 2621TIP3   OH2 7868   6.012   5.861   5.121 -0.2017  0.7799  0.5301
 2621TIP3    H1 7869   6.020   5.782   5.067 -2.1485 -0.4578  1.8825
 2621TIP3    H2 7870   5.924   5.854   5.159  0.2413  2.7337  2.0610
 2622TIP3   OH2 7871   6.198   1.957   2.644  0.3436  0.0488  0.5346
 2622TIP3    H1 7872   6.263   2.023   2.622  0.2117 -0.2872 -0.9868
 2622TIP3    H2 7873   6.234   1.875   2.608 -1.0641 -0.0698 -0.7045
 2623TIP3   OH2 7874   3.957   5.313   1.624 -0.1284  0.1873  0.4385
 2623TIP3    H1 7875   4.042   5.349   1.599 -0.6338  1.9054  1.0444
 2623TIP3    H2 7876   3.966   5.295   1.718  0.6184 -2.9007 -0.1032
 2624TIP3   OH2 7877   2.966   5.467   4.287 -0.2320 -0.4451 -0.6280
 2624TIP3    H1 7878   2.965   5.374   4.262  2.9749  0.0205 -3.2540
 2624TIP3    H2 7879   3.001   5.467   4.376  0.4013 -1.7683 -0.8392
 2625TIP3   OH2 7880   3.850   1.426   1.116  0.1675  0.5119 -0.0778
 2625TIP3    H1 7881   3.946   1.429   1.119  0.1918  1.1498 -1.0424
 2625TIP3    H2 7882   3.828   1.340   1.152  1.1866 -0.3007 -1.2906
 2626TIP3   OH2 7883   3.006   3.762   3.986 -0.1579 -0.0252  0.0978
 2626TIP3    H1 7884   3.060   3.683   3.981 -2.0094 -1.2938 -0.8442
 2626TIP3    H2 7885   3.029   3.811   3.907  1.3880  0.7205  0.9485
 2627TIP3   OH2 7886   2.763   4.979   3.561 -0.4637 -0.1630 -0.4121
 2627TIP3    H1 7887   2.787   4.894   3.598  0.6200  0.4081  0.2444
 2627TIP3    H2 7888   2.693   5.011   3.619 -2.2070 -1.3675 -1.7229
 2628TIP3   OH2 7889   2.211   2.910   2.305  0.1735 -0.3716 -0.0491
 2628TIP3    H1 7890   2.270   2.966   2.255 -1.8089  2.8632  0.9269
 2628TIP3    H2 7891   2.212   2.826   2.259  1.9127  0.9987 -2.7459
 2629TIP3   OH2 7892   2.351   5.725   4.330  0.0744  0.6449  0.4823
 2629TIP3    H1 7893   2.394   5.650   4.289 -0.0813  1.4591 -1.2717
 2629TIP3    H2 7894   2.262   5.695   4.349 -0.1713  0.5264 -0.7495
 2630TIP3   OH2 7895   1.173   2.863   0.738  0.4658 -0.6176  0.1125
 2630TIP3    H1 7896   1.158   2.903   0.824 -0.9212  0.8216 -0.7439
 2630TIP3    H2 7897   1.118   2.784   0.738 -0.9074  0.3066 -0.0458
 2631TIP3   OH2 7898   1.394   1.600   1.164 -0.1053 -0.2829 -0.1572
 2631TIP3    H1 7899   1.414   1.676   1.219  0.2031 -0.8207  0.5009
 2631TIP3    H2 7900   1.393   1.634   1.075 -0.0405  0.5043  0.1330
 2632TIP3   OH2 7901   5.456   1.810   0.046  0.4853 -0.2569 -0.1505
 2632TIP3    H1 7902   5.413   1.891   0.072  0.1364 -0.7352  0.8248
 2632TIP3    H2 7903   5.546   1.819   0.078  0.6470  0.0483 -0.6934
 2633TIP3   OH2 7904   0.048   3.113   3.692  0.0655 -0.1581 -1.1181
 2633TIP3    H1 7905  -0.024   3.074   3.643 -1.0425  0.3558  0.0538
 2633TIP3    H2 7906   0.036   3.208   3.682  2.2186  0.0070 -3.1988
 2634TIP3   OH2 7907   3.675   1.011   2.167  0.4461 -0.4817 -0.4899
 2634TIP3    H1 7908   3.743   0.978   2.109  1.1691 -1.5711  0.9288
 2634TIP3    H2 7909   3.712   1.089   2.206  0.8066 -0.9307  0.0861
 2635TIP3   OH2 7910   5.856   1.169   2.668  0.2650  0.1882 -0.3609
 2635TIP3    H1 7911   5.771   1.125   2.661  0.5776 -0.2239 -2.1008
 2635TIP3    H2 7912   5.892   1.165   2.579  1.3821  1.8313 -0.0171
 2636TIP3   OH2 7913   1.182   5.505   2.854 -0.1105  0.2116  0.7747
 2636TIP3    H1 7914   1.171   5.449   2.931  1.2741 -0.3570  0.5989
 2636TIP3    H2 7915   1.158   5.449   2.781 -0.2023  0.3477  0.7007
 2637TIP3   OH2 7916   2.084   1.149   2.179  0.5655 -0.4555  0.4936
 2637TIP3    H1 7917   2.019   1.220   2.178  1.4611  0.3926  0.9124
 2637TIP3    H2 7918   2.032   1.070   2.197 -0.5161  0.0016 -0.4866
 2638TIP3   OH2 7919   5.363   2.421   3.840  0.0039  0.1709 -0.4096
 2638TIP3    H1 7920   5.418   2.362   3.788  0.5179 -1.1816  1.5295
 2638TIP3    H2 7921   5.402   2.507   3.828  2.4235 -0.6888  0.6227
 2639TIP3   OH2 7922   0.642   3.217   1.889  0.2943  0.3245 -0.2959
 2639TIP3    H1 7923   0.575   3.242   1.953 -1.5093  0.6263 -2.2032
 2639TIP3    H2 7924   0.597   3.218   1.805  2.4951 -0.3863 -1.5726
 2640TIP3   OH2 7925   1.913   0.497   2.418  0.0081  0.7572  0.3893
 2640TIP3    H1 7926   1.887   0.453   2.499 -0.5311  0.1121 -0.1108
 2640TIP3    H2 7927   1.838   0.485   2.360 -0.4916  3.0589  0.4776
 2641TIP3   OH2 7928   3.117   4.234   0.128 -1.2119 -0.1822 -0.3551
 2641TIP3    H1 7929   3.078   4.150   0.104 -0.0828 -0.9892  0.5476
 2641TIP3    H2 7930   3.130   4.279   0.044 -1.8007 -0.8986 -0.8466
 2642TIP3   OH2 7931   5.701   3.921   3.455 -0.1880  0.1714 -0.3684
 2642TIP3    H1 7932   5.659   3.835   3.452 -3.2074  1.5382 -1.1439
 2642TIP3    H2 7933   5.744   3.930   3.370 -0.6812 -0.2147 -0.6643
 2643TIP3   OH2 7934   3.944   5.789   0.972  0.0877 -0.0073  0.0850
 2643TIP3    H1 7935   3.982   5.808   1.058  0.8945 -1.9197  0.2009
 2643TIP3    H2 7936   3.857   5.828   0.975 -0.0362 -0.3342  1.9276
 2644TIP3   OH2 7937   1.054   3.898   0.287 -0.5076  0.2340 -0.4525
 2644TIP3    H1 7938   1.138   3.942   0.272  0.0971 -0.7375 -0.0041
 2644TIP3    H2 7939   1.077   3.814   0.327 -1.7082  0.0256 -0.1481
 2645TIP3   OH2 7940   3.710   1.878   2.496 -0.0159  0.8033  0.4878
 2645TIP3    H1 7941   3.707   1.938   2.571 -1.0771  0.0104  1.1160
 2645TIP3    H2 7942   3.716   1.791   2.536 -3.7164  0.0885 -0.1448
 2646TIP3   OH2 7943   2.176   2.502   2.972 -0.1709 -0.0702  0.3121
 2646TIP3    H1 7944   2.237   2.500   3.046  1.9940  0.8698 -1.3265
 2646TIP3    H2 7945   2.207   2.574   2.917 -3.7984  1.5560  0.1439
 2647TIP3   OH2 7946   3.984   5.332   1.295  0.4554  0.1044  0.2812
 2647TIP3    H1 7947   3.924   5.336   1.221  1.2191 -2.9525 -0.6495
 2647TIP3    H2 7948   4.017   5.422   1.304  0.1821  0.6439 -2.9670
 2648TIP3   OH2 7949   4.104   2.264   0.340  0.8432 -0.2055 -0.8632
 2648TIP3    H1 7950   4.079   2.356   0.353  3.4462  0.3121  1.5236
 2648TIP3    H2 7951   4.065   2.218   0.414  0.3439 -0.8669 -1.5287
 2649TIP3   OH2 7952   2.833   3.046   2.366  0.2339 -0.3812  0.1522
 2649TIP3    H1 7953   2.861   2.994   2.441 -1.0575 -0.4997  0.5677
 2649TIP3    H2 7954   2.738   3.050   2.373  0.2584  1.6962 -0.0912
 2650TIP3   OH2 7955   3.501   3.236   2.149 -0.2512 -0.4074 -0.0598
 2650TIP3    H1 7956   3.532   3.252   2.060 -0.9194  1.1797 -0.0553
 2650TIP3    H2 7957   3.536   3.150   2.172  1.1388 -0.2265 -1.3163
 2651TIP3   OH2 7958   5.751   3.495   2.971  0.2279  0.0939 -0.4072
 2651TIP3    H1 7959   5.762   3.408   3.009  3.2704  0.7471  0.5400
 2651TIP3    H2 7960   5.719   3.549   3.043  0.2111  0.1348 -0.4450
 2652TIP3   OH2 7961   2.139   1.705   4.065 -0.4690 -0.5602 -0.0091
 2652TIP3    H1 7962   2.185   1.620   4.067 -0.8849 -0.7842  0.2394
 2652TIP3    H2 7963   2.047   1.682   4.051 -0.4432 -0.0835 -1.0238
 2653TIP3   OH2 7964   0.403   5.152   2.569 -0.0783  0.0566 -0.5627
 2653TIP3    H1 7965   0.390   5.237   2.527  0.1249  0.9366  1.0411
 2653TIP3    H2 7966   0.458   5.172   2.645 -2.9946 -0.8625  1.9682
 2654TIP3   OH2 7967   4.830   0.645   1.919 -0.0812 -0.4561  0.1946
 2654TIP3    H1 7968   4.742   0.618   1.943  0.2420 -0.7112  1.1199
 2654TIP3    H2 7969   4.821   0.681   1.830 -1.0860 -0.5797  0.2407
 2655TIP3   OH2 7970   2.595   0.951   1.915 -0.1715 -0.6278  0.4151
 2655TIP3    H1 7971   2.637   0.953   2.001 -0.1761  1.0151  0.4022
 2655TIP3    H2 7972   2.660   0.908   1.858  0.6011 -0.0544  0.8425
 2656TIP3   OH2 7973   2.256   1.319   4.951  0.3499  0.1572 -0.1828
 2656TIP3    H1 7974   2.243   1.380   5.023 -1.2610 -0.3579 -0.0032
 2656TIP3    H2 7975   2.344   1.285   4.965  0.2196  0.3524  1.3363
 2657TIP3   OH2 7976   3.439   4.894   1.270 -0.7016  0.3312  0.0279
 2657TIP3    H1 7977   3.445   4.930   1.181  1.5805  0.4284  0.1654
 2657TIP3    H2 7978   3.495   4.816   1.268  0.6682  1.2116  1.7620
 2658TIP3   OH2 7979   6.004   3.825   1.176 -0.1682 -0.0568 -0.0448
 2658TIP3    H1 7980   6.085   3.870   1.151  0.2514 -1.1995 -0.8718
 2658TIP3    H2 7981   6.030   3.768   1.248 -0.2202 -0.4524 -0.3359
 2659TIP3   OH2 7982   0.348   4.578   3.187  0.0906 -0.0442 -0.4109
 2659TIP3    H1 7983   0.414   4.646   3.173 -0.8724  0.6649 -1.6646
 2659TIP3    H2 7984   0.265   4.626   3.192 -0.5911 -1.1046 -1.1954
 2660TIP3   OH2 7985   5.394   3.756   3.674 -0.2339  0.0066 -0.4198
 2660TIP3    H1 7986   5.336   3.823   3.638  0.4314  1.1467  0.5657
 2660TIP3    H2 7987   5.413   3.698   3.600 -0.0612  1.4518 -1.5489
 2661TIP3   OH2 7988   5.812   3.657   1.633 -0.1095  0.1876  0.5473
 2661TIP3    H1 7989   5.876   3.586   1.632 -1.9880 -1.6018 -0.9855
 2661TIP3    H2 7990   5.744   3.628   1.695 -0.9600  0.5497 -0.1859
 2662TIP3   OH2 7991   2.731   1.072   1.619 -0.0276  0.2741 -0.2249
 2662TIP3    H1 7992   2.723   1.011   1.546  2.6635  0.4518 -0.7610
 2662TIP3    H2 7993   2.791   1.028   1.680  0.3357  1.4974  0.3266
 2663TIP3   OH2 7994   1.637   5.133   0.559 -0.4001  0.0511  0.5927
 2663TIP3    H1 7995   1.569   5.199   0.542  0.1104  0.6318  0.7586
 2663TIP3    H2 7996   1.651   5.091   0.474  1.1731  2.0095 -0.2097
 2664TIP3   OH2 7997   3.429   1.569   1.688  0.0483  0.4784  0.2911
 2664TIP3    H1 7998   3.444   1.631   1.759 -1.3598  0.0622  0.9836
 2664TIP3    H2 7999   3.459   1.614   1.609  1.4191  1.0342  1.1027
 2665TIP3   OH2 8000   1.908   0.382   4.230 -0.4943  0.2994  0.1125
 2665TIP3    H1 8001   1.891   0.382   4.136  0.1414  0.5708 -0.0092
 2665TIP3    H2 8002   1.828   0.415   4.269 -0.6936  0.3631 -0.3508
 2666TIP3   OH2 8003   1.195   3.082   0.237 -0.4223 -0.2092 -0.4251
 2666TIP3    H1 8004   1.258   3.149   0.209  0.1828 -1.1788 -1.4297
 2666TIP3    H2 8005   1.122   3.133   0.274 -0.2339  1.0486 -1.6645
 2667TIP3   OH2 8006   1.743   1.418   3.228 -0.1556 -0.4497 -0.3582
 2667TIP3    H1 8007   1.716   1.421   3.136  0.6912  0.1972 -0.6038
 2667TIP3    H2 8008   1.664   1.441   3.277 -0.0943  1.3999 -1.0493
 2668TIP3   OH2 8009   5.223   0.875   0.549 -0.0929  0.4385 -0.5143
 2668TIP3    H1 8010   5.206   0.827   0.630  0.1233  0.2146 -0.6007
 2668TIP3    H2 8011   5.165   0.835   0.484  1.5855 -1.1582 -1.1170
 2669TIP3   OH2 8012   1.328   5.299   3.731 -0.2725  0.1803  0.6267
 2669TIP3    H1 8013   1.336   5.207   3.757 -1.6796 -0.1552 -0.0413
 2669TIP3    H2 8014   1.239   5.306   3.695  0.6118  1.2550 -1.5059
 2670TIP3   OH2 8015   0.139   3.402   0.021 -0.0736  0.0975  0.1681
 2670TIP3    H1 8016   0.121   3.447  -0.062 -1.8836  0.1394  0.5510
 2670TIP3    H2 8017   0.072   3.435   0.081  0.6208 -0.6543  1.3950
 2671TIP3   OH2 8018   4.383   5.081   3.398 -0.5185  0.2674 -0.1996
 2671TIP3    H1 8019   4.338   5.016   3.452 -1.6605 -0.7032 -2.2009
 2671TIP3    H2 8020   4.336   5.162   3.415 -0.7892  0.0073  0.3361
 2672TIP3   OH2 8021   5.542   0.110   1.822 -0.0285  0.0743  0.8404
 2672TIP3    H1 8022   5.495   0.179   1.776  2.4125  0.7523 -0.8289
 2672TIP3    H2 8023   5.556   0.145   1.910  1.1106  1.7415  0.0438
 2673TIP3   OH2 8024   0.208   2.502   0.195  0.3746  0.7356 -0.4283
 2673TIP3    H1 8025   0.272   2.431   0.193 -0.6153 -0.2211  0.0458
 2673TIP3    H2 8026   0.213   2.543   0.109  0.9386  0.0461 -0.7319
 2674TIP3   OH2 8027   3.374   4.525   1.786  0.0821  0.2224 -0.4817
 2674TIP3    H1 8028   3.356   4.602   1.732 -0.2453 -0.7082 -1.7612
 2674TIP3    H2 8029   3.452   4.486   1.747 -1.3316 -1.6052 -1.6561
 2675TIP3   OH2 8030   1.508   3.956   1.540 -0.7765  0.2022 -0.1727
 2675TIP3    H1 8031   1.539   3.869   1.565 -1.3203  1.0475  4.3778
 2675TIP3    H2 8032   1.589   4.005   1.521 -0.2631 -0.5741 -0.0379
 2676TIP3   OH2 8033   6.270   4.239   3.602  0.1310 -0.2397 -0.6203
 2676TIP3    H1 8034   6.310   4.190   3.531  3.2239 -0.3892  1.0282
 2676TIP3    H2 8035   6.340   4.295   3.635 -1.4168  0.5094  1.7017
 2677TIP3   OH2 8036   3.652   5.465   3.076  0.9256  0.3578  0.7371
 2677TIP3    H1 8037   3.589   5.451   3.146  1.3252  0.2051  1.0743
 2677TIP3    H2 8038   3.601   5.457   2.996  0.8225 -1.5780  0.9309
 2678TIP3   OH2 8039   6.352   5.174   3.219 -0.2920 -0.9305 -0.1035
 2678TIP3    H1 8040   6.263   5.141   3.205 -0.7983  0.5311 -0.5881
 2678TIP3    H2 8041   6.373   5.151   3.309 -0.6608 -2.3760 -0.3600
 2679TIP3   OH2 8042   5.679   2.225   2.637 -0.4142  0.1134  0.1367
 2679TIP3    H1 8043   5.617   2.161   2.672 -0.8290  1.0647  1.2335
 2679TIP3    H2 8044   5.756   2.173   2.613 -1.0221 -0.8859  0.2864
 2680TIP3   OH2 8045   0.721   2.101   1.376  0.1479  0.9861  0.3901
 2680TIP3    H1 8046   0.685   2.013   1.367  2.1677  0.1905 -0.5106
 2680TIP3    H2 8047   0.653   2.159   1.339 -0.8275 -0.2652  0.1565
 2681TIP3   OH2 8048   4.049   4.824   0.404  0.3258  0.3955 -0.7420
 2681TIP3    H1 8049   3.969   4.791   0.446  1.0556  1.2142  1.3970
 2681TIP3    H2 8050   4.030   4.916   0.386  0.4000  0.3098 -1.2859
 2682TIP3   OH2 8051   3.248   5.648   1.969  0.0483 -0.1015  0.1022
 2682TIP3    H1 8052   3.249   5.593   1.890  1.9762 -0.8432  0.5917
 2682TIP3    H2 8053   3.314   5.609   2.026 -0.2407  1.3291  1.4664
 2683TIP3   OH2 8054   1.878   4.997   1.053 -0.3629  0.9306 -0.0926
 2683TIP3    H1 8055   1.876   4.904   1.077 -0.4497  0.4815 -1.7295
 2683TIP3    H2 8056   1.903   5.042   1.134  1.2481 -0.6530  0.3587
 2684TIP3   OH2 8057   3.887   4.427   4.343 -0.1805 -0.1622 -0.7519
 2684TIP3    H1 8058   3.802   4.383   4.334 -0.0422 -0.4928 -0.4485
 2684TIP3    H2 8059   3.918   4.401   4.430  0.1922  0.0316 -0.8277
 2685TIP3   OH2 8060   1.419   3.925   4.401 -0.2053  0.1439 -0.4922
 2685TIP3    H1 8061   1.471   3.890   4.473 -1.0132  0.2148  0.1354
 2685TIP3    H2 8062   1.342   3.868   4.397 -0.6749  0.7820 -0.6118
 2686TIP3   OH2 8063   3.965   1.913   2.308  0.1568  0.1432  0.2331
 2686TIP3    H1 8064   3.953   1.822   2.279 -0.3545  0.7838 -1.7159
 2686TIP3    H2 8065   3.891   1.930   2.366  0.4029 -0.7451  0.8321
 2687TIP3   OH2 8066   4.579   4.335   2.062 -0.4513  0.3764  0.1575
 2687TIP3    H1 8067   4.510   4.371   2.119 -1.4757 -0.4861 -0.4927
 2687TIP3    H2 8068   4.531   4.287   1.995  0.7915  0.1802 -0.6141
 2688TIP3   OH2 8069   5.024   3.020   0.705 -0.3429 -0.1260  0.2070
 2688TIP3    H1 8070   5.028   3.041   0.798 -0.5689 -0.8941  0.3990
 2688TIP3    H2 8071   4.936   3.047   0.678 -0.6357 -0.7862  0.4565
 2689TIP3   OH2 8072   1.611   5.140   1.703  0.5478  0.4192 -0.4119
 2689TIP3    H1 8073   1.605   5.193   1.782 -1.0985 -1.8423  1.0959
 2689TIP3    H2 8074   1.559   5.188   1.638  0.6643  1.5621  0.3104
 2690TIP3   OH2 8075   0.168   4.262   0.779  0.5609 -0.0163 -0.0391
 2690TIP3    H1 8076   0.090   4.222   0.816 -1.3783  2.9444 -0.6407
 2690TIP3    H2 8077   0.163   4.243   0.685 -0.4600  1.6638 -0.3535
 2691TIP3   OH2 8078   5.892   1.712   3.741 -0.7208  0.3387  0.0719
 2691TIP3    H1 8079   5.911   1.652   3.668  0.2493  0.0488  0.5471
 2691TIP3    H2 8080   5.970   1.707   3.796 -2.0444 -0.6685  1.9644
 2692TIP3   OH2 8081   1.803   4.778   4.898  0.1030  0.4067  0.0165
 2692TIP3    H1 8082   1.819   4.870   4.920 -2.0396  1.2920 -1.7785
 2692TIP3    H2 8083   1.822   4.771   4.805 -0.3968 -0.8156 -0.0183
 2693TIP3   OH2 8084   0.800   0.494   0.227 -0.3595  0.3258  0.0767
 2693TIP3    H1 8085   0.849   0.552   0.169  0.7259  1.5070  2.0585
 2693TIP3    H2 8086   0.713   0.487   0.187  0.2738  1.2614 -1.5462
 2694TIP3   OH2 8087   1.136   0.448   1.288  0.3696 -0.6184  0.0885
 2694TIP3    H1 8088   1.194   0.457   1.363 -1.1179  0.4506  1.1498
 2694TIP3    H2 8089   1.052   0.483   1.317 -0.9269 -2.3833 -1.3002
 2695TIP3   OH2 8090   0.647   5.418   3.058 -0.2955  0.5338  0.3505
 2695TIP3    H1 8091   0.564   5.425   3.105 -0.5709  0.4249 -0.1078
 2695TIP3    H2 8092   0.685   5.506   3.063 -1.2325  1.0427 -0.8463
 2696TIP3   OH2 8093   4.288   2.402   4.443 -0.0663 -0.0942 -0.1189
 2696TIP3    H1 8094   4.297   2.313   4.408 -0.3541 -0.1567 -0.0377
 2696TIP3    H2 8095   4.249   2.452   4.372 -0.4228 -0.1644  0.0233
 2697TIP3   OH2 8096   6.128   3.460   4.406  0.7435 -0.6616 -0.1148
 2697TIP3    H1 8097   6.107   3.553   4.398  0.0994 -0.8577 -0.8300
 2697TIP3    H2 8098   6.045   3.415   4.393  1.1892 -1.3717 -0.5929
 2698TIP3   OH2 8099   3.641   3.063   3.530 -0.1059  0.7966 -0.3805
 2698TIP3    H1 8100   3.646   3.092   3.439  0.4951 -0.3923 -0.7493
 2698TIP3    H2 8101   3.729   3.078   3.565 -0.2432  0.9380 -0.0942
 2699TIP3   OH2 8102   2.025   4.781   3.339  0.1101 -0.0162 -0.4037
 2699TIP3    H1 8103   2.001   4.865   3.379  0.7885 -0.5863  1.2980
 2699TIP3    H2 8104   1.945   4.729   3.344 -0.0101  0.1623 -0.4490
 2700TIP3   OH2 8105   1.542   2.521   3.446 -0.0106  0.3937 -0.0216
 2700TIP3    H1 8106   1.504   2.601   3.410  0.7609  0.8838  0.2129
 2700TIP3    H2 8107   1.599   2.488   3.376 -0.7427 -0.2590 -0.3209
 2701TIP3   OH2 8108   0.681   5.708   0.903  0.1641  0.0226 -0.0143
 2701TIP3    H1 8109   0.764   5.736   0.865 -0.2882  0.0436 -1.0353
 2701TIP3    H2 8110   0.699   5.623   0.942  0.7765  0.2550  0.2111
 2702TIP3   OH2 8111   4.725   5.237   3.147  0.0324 -0.1524 -0.2897
 2702TIP3    H1 8112   4.716   5.292   3.225 -1.5851  0.6320 -0.9662
 2702TIP3    H2 8113   4.648   5.180   3.149 -1.0544  1.1353 -2.1986
 2703TIP3   OH2 8114   4.900   0.288   4.338 -0.1489 -0.2676  0.2469
 2703TIP3    H1 8115   4.821   0.318   4.383  0.0388 -0.7815  0.9222
 2703TIP3    H2 8116   4.887   0.194   4.326 -0.1147 -0.1707 -0.6161
 2704TIP3   OH2 8117   3.640   3.232   1.911  0.2167  0.3836 -0.1671
 2704TIP3    H1 8118   3.607   3.143   1.905  0.9021  0.1149 -0.0588
 2704TIP3    H2 8119   3.672   3.252   1.823  0.3185  0.4155 -0.1238
 2705TIP3   OH2 8120   1.846   5.625   2.142 -0.0940 -0.1167  0.3329
 2705TIP3    H1 8121   1.888   5.705   2.111 -0.5204 -0.2691 -0.6941
 2705TIP3    H2 8122   1.917   5.570   2.173  0.3774  0.0023 -0.5097
 2706TIP3   OH2 8123   2.351   2.227   4.951 -0.2639  0.3421  0.1437
 2706TIP3    H1 8124   2.413   2.244   4.880 -0.7498  1.4700 -0.0209
 2706TIP3    H2 8125   2.306   2.310   4.965  0.0153  0.2235  1.9696
 2707TIP3   OH2 8126   6.234   0.199   4.289 -0.1540  0.1434  0.1595
 2707TIP3    H1 8127   6.231   0.294   4.299  0.7015  0.2762 -0.7236
 2707TIP3    H2 8128   6.233   0.185   4.195  0.7216 -0.6825  0.2616
 2708TIP3   OH2 8129   2.131   5.871   4.870  0.0083  0.3423  1.2346
 2708TIP3    H1 8130   2.136   5.960   4.905 -1.3503  0.9357  0.0216
 2708TIP3    H2 8131   2.168   5.816   4.939 -1.1717  1.5937  2.9519
 2709TIP3   OH2 8132   3.807   5.275   3.450 -0.6897 -1.0911 -0.0011
 2709TIP3    H1 8133   3.829   5.288   3.543 -1.0273  0.5159 -0.1153
 2709TIP3    H2 8134   3.869   5.330   3.403 -2.5724  0.7260 -0.5157
 2710TIP3   OH2 8135   6.139   5.302   1.930 -0.5305 -0.1255 -0.0089
 2710TIP3    H1 8136   6.086   5.226   1.909 -0.4171 -0.8988  2.2348
 2710TIP3    H2 8137   6.105   5.333   2.014  1.6927  0.1474  0.8588
 2711TIP3   OH2 8138   1.779   3.708   0.172 -0.1770 -0.2804  0.0987
 2711TIP3    H1 8139   1.730   3.667   0.101 -0.3780 -0.2501  0.2173
 2711TIP3    H2 8140   1.714   3.762   0.218  0.2673  0.8548 -0.5676
 2712TIP3   OH2 8141   4.041   1.493   3.397  0.3983  0.1490  0.3178
 2712TIP3    H1 8142   4.076   1.541   3.472 -0.2922  1.2936 -0.0701
 2712TIP3    H2 8143   3.987   1.557   3.351 -0.7920 -1.0983 -0.0535
 2713TIP3   OH2 8144   5.425   1.241   2.141  0.0159 -0.0376  0.1031
 2713TIP3    H1 8145   5.381   1.175   2.087 -0.6415  0.5262 -0.0655
 2713TIP3    H2 8146   5.391   1.226   2.229  0.4680 -0.4285  0.2161
 2714TIP3   OH2 8147   3.482   3.649   2.720 -0.0102  0.1094  0.1203
 2714TIP3    H1 8148   3.402   3.637   2.771 -0.7253  1.0769 -0.7325
 2714TIP3    H2 8149   3.477   3.583   2.651  0.8007 -0.9879  1.0904
 2715TIP3   OH2 8150   1.829   0.055   1.573  0.6814 -0.2816  0.5409
 2715TIP3    H1 8151   1.765   0.072   1.642  0.0492 -1.1399  0.1765
 2715TIP3    H2 8152   1.867   0.141   1.554  0.4933  0.0384  1.5910
 2716TIP3   OH2 8153   2.836   2.440   3.539  0.3028 -0.6208 -0.0372
 2716TIP3    H1 8154   2.749   2.411   3.511 -0.0273  0.6915 -0.4673
 2716TIP3    H2 8155   2.881   2.461   3.458  0.4936  0.1271  0.2570
 2717TIP3   OH2 8156   1.280   0.553   1.525 -0.1304 -0.5836 -0.4662
 2717TIP3    H1 8157   1.285   0.625   1.588 -1.6546 -2.2522  1.7069
 2717TIP3    H2 8158   1.368   0.515   1.526  0.4685  0.7234 -1.0480
 2718TIP3   OH2 8159   0.318   5.672   3.817  0.1347 -0.4005 -0.1060
 2718TIP3    H1 8160   0.238   5.639   3.776 -0.1956  0.8987 -0.5496
 2718TIP3    H2 8161   0.358   5.728   3.751 -0.1278  1.3016  1.1212
 2719TIP3   OH2 8162   1.574   1.855   1.437  0.8163 -0.1439  0.0577
 2719TIP3    H1 8163   1.550   1.764   1.452 -1.5457  0.4761  0.5370
 2719TIP3    H2 8164   1.511   1.886   1.372  0.2263  1.6410  1.3805
 2720TIP3   OH2 8165   4.564   2.307   1.093 -0.1731  0.3287 -0.0904
 2720TIP3    H1 8166   4.567   2.348   1.180  0.5441  0.3391 -0.1137
 2720TIP3    H2 8167   4.622   2.231   1.101 -1.4849 -0.7212 -0.0425
 2721TIP3   OH2 8168   3.501   4.377   0.933  0.1349  0.3271  0.3249
 2721TIP3    H1 8169   3.495   4.365   0.838  2.3799  0.1335  0.1606
 2721TIP3    H2 8170   3.507   4.472   0.945  0.7645  0.3136  0.1765
 2722TIP3   OH2 8171   5.623   0.660   3.389 -0.2896  0.6620 -0.1739
 2722TIP3    H1 8172   5.598   0.700   3.473  1.0309  3.2965 -0.9352
 2722TIP3    H2 8173   5.570   0.705   3.324 -0.7395 -0.8229 -0.8964
 2723TIP3   OH2 8174   5.294   3.699   1.393  0.1808  0.5835  1.1055
 2723TIP3    H1 8175   5.345   3.772   1.357  0.0093 -0.4359 -1.3739
 2723TIP3    H2 8176   5.204   3.732   1.397 -0.0360  0.2953 -0.7812
 2724TIP3   OH2 8177   4.261   4.368   5.039  0.1877 -0.3637 -0.6771
 2724TIP3    H1 8178   4.240   4.443   5.095 -1.8148 -0.8738 -0.6758
 2724TIP3    H2 8179   4.356   4.359   5.046  0.2515  1.0074  0.8124
 2725TIP3   OH2 8180   6.173   3.737   4.408  0.2061  0.5311 -0.4009
 2725TIP3    H1 8181   6.268   3.749   4.413  0.1036  1.8490 -1.2774
 2725TIP3    H2 8182   6.146   3.731   4.500  1.2841 -1.3590 -0.1600
 2726TIP3   OH2 8183   3.560   1.914   4.011 -0.2251 -0.2977  0.1375
 2726TIP3    H1 8184   3.602   1.886   3.930 -0.0349 -1.5585  0.6391
 2726TIP3    H2 8185   3.633   1.941   4.068 -0.3229  0.1658  0.0467
 2727TIP3   OH2 8186   1.235   4.144   0.464  0.4396 -0.2832 -0.2066
 2727TIP3    H1 8187   1.163   4.081   0.473 -2.1549  2.5721  1.2523
 2727TIP3    H2 8188   1.234   4.169   0.372  1.2722 -2.0485 -0.7243
 2728TIP3   OH2 8189   4.372   5.690   1.538  0.2941  0.1547 -0.7821
 2728TIP3    H1 8190   4.449   5.728   1.497 -0.7747 -0.0008 -3.1026
 2728TIP3    H2 8191   4.346   5.619   1.478 -2.3470  1.0161 -0.7861
 2729TIP3   OH2 8192   0.443   3.103   1.306  0.1760  0.1890  0.2287
 2729TIP3    H1 8193   0.473   3.095   1.215 -0.3224  1.0538 -0.0280
 2729TIP3    H2 8194   0.358   3.147   1.299  1.4389  2.9944  1.2859
 2730TIP3   OH2 8195   2.446   4.262   4.227 -0.1086  0.0861 -0.2529
 2730TIP3    H1 8196   2.463   4.238   4.318  1.4148  0.6471 -0.3600
 2730TIP3    H2 8197   2.424   4.355   4.229 -1.6591 -0.2471 -0.3148
 2731TIP3   OH2 8198   6.068   0.406   0.072 -0.5482  0.0046 -0.0214
 2731TIP3    H1 8199   6.135   0.436   0.011  0.0033 -0.4741  0.3357
 2731TIP3    H2 8200   6.092   0.315   0.090  0.1119  0.5276  1.9789
 2732TIP3   OH2 8201   1.029   0.038   1.993 -0.4348  0.3895 -0.4440
 2732TIP3    H1 8202   0.952   0.012   2.045  0.2960  0.5005  0.7334
 2732TIP3    H2 8203   1.076  -0.044   1.978  0.3618  0.5950  0.7764
 2733TIP3   OH2 8204   0.448   4.878   3.542  0.2305 -0.6799 -1.0931
 2733TIP3    H1 8205   0.360   4.876   3.504  0.5482  1.5292 -2.0919
 2733TIP3    H2 8206   0.506   4.867   3.468  0.8190  1.2921 -0.9782
 2734TIP3   OH2 8207   2.146   4.688   2.566 -0.0123 -0.2989  0.7849
 2734TIP3    H1 8208   2.196   4.764   2.536  1.0685 -1.2755  0.0135
 2734TIP3    H2 8209   2.202   4.647   2.632 -0.9912  0.0606  1.8701
 2735TIP3   OH2 8210   2.894   4.188   3.357  0.2057 -0.3529 -0.6084
 2735TIP3    H1 8211   2.830   4.165   3.289  0.2016  0.8253 -1.0309
 2735TIP3    H2 8212   2.979   4.167   3.317  0.1964  0.2219 -0.9447
 2736TIP3   OH2 8213   5.385   3.531   3.507 -0.0263 -0.5146  0.0950
 2736TIP3    H1 8214   5.317   3.518   3.573 -0.1960  1.6676  0.4121
 2736TIP3    H2 8215   5.360   3.471   3.436 -1.4344 -0.8281  0.8125
 2737TIP3   OH2 8216   5.323   0.301   0.873  0.2745 -0.2876 -0.7231
 2737TIP3    H1 8217   5.278   0.379   0.906  0.4136  0.1435 -1.5355
 2737TIP3    H2 8218   5.261   0.230   0.888  0.2503 -0.0797  0.2690
 2738TIP3   OH2 8219   2.884   0.231   1.102  0.3176 -0.6533  0.0533
 2738TIP3    H1 8220   2.956   0.294   1.103  1.2661 -1.7089  0.2333
 2738TIP3    H2 8221   2.840   0.246   1.019  1.0567 -0.3202 -0.2859
 2739TIP3   OH2 8222  -0.024   3.417   4.905 -0.1789  0.0935 -0.3361
 2739TIP3    H1 8223  -0.038   3.323   4.911 -1.7283  0.2822 -0.5025
 2739TIP3    H2 8224   0.065   3.427   4.870 -0.4989 -1.3180 -1.6183
 2740TIP3   OH2 8225   2.446   3.604   4.798 -0.1460 -0.3578 -0.8306
 2740TIP3    H1 8226   2.367   3.653   4.824 -0.5786 -1.6748  0.4751
 2740TIP3    H2 8227   2.415   3.541   4.733 -0.0642 -0.5304 -0.7020
 2741TIP3   OH2 8228   2.953   2.593   0.256  0.5905 -0.4292  0.3217
 2741TIP3    H1 8229   3.030   2.634   0.217  1.6277 -1.9919  0.6267
 2741TIP3    H2 8230   2.928   2.525   0.194 -0.2576 -0.2447  0.4561
 2742TIP3   OH2 8231   5.884   0.838   2.779 -0.2100 -0.3023 -0.3117
 2742TIP3    H1 8232   5.971   0.877   2.769 -0.3994  0.6096  1.2638
 2742TIP3    H2 8233   5.823   0.912   2.770 -0.9323 -1.0464 -2.2395
 2743TIP3   OH2 8234   0.373   5.921   5.181  0.0933  0.7424  0.3352
 2743TIP3    H1 8235   0.458   5.909   5.139  0.0905  0.3922  0.4264
 2743TIP3    H2 8236   0.314   5.943   5.109  0.3799  1.6077  0.3514
 2744TIP3   OH2 8237   2.016   1.398   3.293 -0.2045  0.3121  0.2501
 2744TIP3    H1 8238   2.027   1.487   3.325 -0.3602  0.9853 -1.4886
 2744TIP3    H2 8239   1.936   1.400   3.241 -0.0999 -0.8007  0.0082
 2745TIP3   OH2 8240   1.550   0.798   3.543 -0.5755  0.3552  0.0793
 2745TIP3    H1 8241   1.543   0.848   3.461  1.0395  2.5612  1.1574
 2745TIP3    H2 8242   1.509   0.855   3.609  0.3883 -0.2061  1.1952
 2746TIP3   OH2 8243   1.292   1.197   3.128  0.3162  0.1341 -0.5433
 2746TIP3    H1 8244   1.201   1.202   3.155  0.2665  1.7315 -0.9374
 2746TIP3    H2 8245   1.320   1.109   3.155 -0.0166  1.1021  3.6641
 2747TIP3   OH2 8246   0.243   0.448   1.725 -0.0618  0.1073 -0.2212
 2747TIP3    H1 8247   0.323   0.395   1.725  1.2157  1.8955  0.2446
 2747TIP3    H2 8248   0.253   0.505   1.648 -0.5075  0.8378  0.2491
 2748TIP3   OH2 8249   4.482   4.300   4.785  0.0739 -0.6366 -0.0745
 2748TIP3    H1 8250   4.563   4.256   4.758 -0.5741 -0.4938 -2.5546
 2748TIP3    H2 8251   4.413   4.254   4.737 -0.8655  1.5626 -1.0062
 2749TIP3   OH2 8252   2.399   0.939   1.388  0.4858 -0.0356 -0.2444
 2749TIP3    H1 8253   2.415   0.904   1.476  0.5424 -1.4472 -0.7759
 2749TIP3    H2 8254   2.408   1.033   1.398 -0.6444 -0.0540  1.5037
 2750TIP3   OH2 8255   5.027   2.108   2.650  0.2082 -0.5714  0.1809
 2750TIP3    H1 8256   5.014   2.183   2.591 -0.3650 -1.0994 -0.3777
 2750TIP3    H2 8257   4.967   2.125   2.723  0.8631  0.0437  0.5996
 2751TIP3   OH2 8258   3.902   5.435   2.714 -0.3682 -0.7354  0.8259
 2751TIP3    H1 8259   3.901   5.365   2.780 -1.7749  1.0238  2.8209
 2751TIP3    H2 8260   3.834   5.409   2.651  0.3496 -2.0012  0.5410
 2752TIP3   OH2 8261   2.940   2.739   4.524 -0.1014  0.2357 -0.0861
 2752TIP3    H1 8262   2.979   2.712   4.441 -0.3591  0.4556 -0.2806
 2752TIP3    H2 8263   3.011   2.735   4.587 -0.0389 -0.5041 -0.1966
 2753TIP3   OH2 8264   2.928   0.557   1.668 -0.6133  0.1156  0.1291
 2753TIP3    H1 8265   2.981   0.549   1.589 -1.6613 -0.0112 -0.5870
 2753TIP3    H2 8266   2.982   0.521   1.738  1.0177  1.7922 -0.2033
 2754TIP3   OH2 8267   2.045   2.655   4.395 -0.1064 -0.4826 -0.8664
 2754TIP3    H1 8268   2.099   2.616   4.464 -0.5839  1.2065  0.5381
 2754TIP3    H2 8269   1.980   2.587   4.374 -2.1447  0.0265  2.8561
 2755TIP3   OH2 8270   0.738   0.905   4.503 -0.0873  0.5082 -0.0987
 2755TIP3    H1 8271   0.691   0.904   4.586  0.7281 -0.4476  0.3806
 2755TIP3    H2 8272   0.717   0.821   4.462 -0.1073  0.7721 -0.6416
 2756TIP3   OH2 8273   3.750   4.212   3.035  0.1642  0.3727 -0.5058
 2756TIP3    H1 8274   3.706   4.293   3.009  0.7612  1.6194  2.0349
 2756TIP3    H2 8275   3.681   4.146   3.037 -0.9386  1.5167  0.2116
 2757TIP3   OH2 8276   1.904   5.114   3.318  0.6457  0.1787  0.1913
 2757TIP3    H1 8277   1.979   5.171   3.330 -0.8381  2.1784  0.5210
 2757TIP3    H2 8278   1.832   5.174   3.294 -0.9486 -1.5773  0.3525
 2758TIP3   OH2 8279   2.691   1.765   2.560  0.2969  0.0431  0.3442
 2758TIP3    H1 8280   2.614   1.822   2.563  0.0252 -0.3425  0.7909
 2758TIP3    H2 8281   2.696   1.737   2.469 -0.1937 -0.0619  0.3472
 2759TIP3   OH2 8282   5.060   4.759   1.006 -0.1519 -0.0916  0.3939
 2759TIP3    H1 8283   5.148   4.724   1.019  0.1856  0.1291 -1.0623
 2759TIP3    H2 8284   5.014   4.690   0.959 -0.1673  0.5089 -0.5034
 2760TIP3   OH2 8285   4.068   5.294   4.422 -0.0225 -0.4395 -0.4450
 2760TIP3    H1 8286   4.148   5.250   4.391  0.2723  0.6271 -1.2582
 2760TIP3    H2 8287   4.068   5.378   4.377  0.7107  1.4932  2.8479
 2761TIP3   OH2 8288   5.251   1.071   4.953 -0.1918 -0.0926 -0.0548
 2761TIP3    H1 8289   5.193   1.041   5.022 -1.1257 -0.3840 -0.9390
 2761TIP3    H2 8290   5.304   0.994   4.931 -0.7626 -0.3607 -0.5139
 2762TIP3   OH2 8291   4.067   4.376   3.782 -0.0186  0.0950 -0.7574
 2762TIP3    H1 8292   4.078   4.471   3.777  2.8937 -0.1285 -0.4082
 2762TIP3    H2 8293   4.056   4.348   3.692  1.1644  0.6074 -1.0756
 2763TIP3   OH2 8294   0.617   0.170   0.564 -0.2061 -0.1091 -0.2946
 2763TIP3    H1 8295   0.666   0.088   0.568 -0.9780 -0.5947 -0.6977
 2763TIP3    H2 8296   0.648   0.212   0.484  0.4045  0.1371  0.0648
 2764TIP3   OH2 8297   1.780   4.004   3.652 -0.0684 -0.1766  0.0900
 2764TIP3    H1 8298   1.754   4.029   3.740  0.5949  0.4792  0.1160
 2764TIP3    H2 8299   1.826   4.081   3.618 -0.9286 -0.1619 -1.0880
 2765TIP3   OH2 8300   4.762   5.366   0.481 -0.4078  0.0638 -0.5740
 2765TIP3    H1 8301   4.786   5.275   0.461  0.3941  0.5117 -1.7618
 2765TIP3    H2 8302   4.843   5.415   0.471 -0.5914  0.7775  1.1245
 2766TIP3   OH2 8303   5.366   1.150   3.452  0.2628 -0.2047 -0.1073
 2766TIP3    H1 8304   5.400   1.171   3.365  0.4438 -1.2428 -0.3027
 2766TIP3    H2 8305   5.306   1.077   3.437 -0.7020  0.4511  0.4766
 2767TIP3   OH2 8306   2.029   0.723   2.925 -0.3693 -0.0742  0.4427
 2767TIP3    H1 8307   2.012   0.629   2.926  1.7784 -0.5060  0.9374
 2767TIP3    H2 8308   2.035   0.748   3.017  0.3391  0.2662  0.3149
 2768TIP3   OH2 8309   1.399   0.824   3.801  0.0846 -0.0571  0.0033
 2768TIP3    H1 8310   1.314   0.860   3.827 -0.9576 -0.4928 -2.5737
 2768TIP3    H2 8311   1.384   0.730   3.794  0.6145 -0.0732 -1.0377
 2769TIP3   OH2 8312   1.229   2.170   0.038 -0.3774 -0.2779  0.1146
 2769TIP3    H1 8313   1.142   2.140   0.064 -0.2629  0.2960  1.1953
 2769TIP3    H2 8314   1.279   2.176   0.119 -0.0651  1.7400 -0.1844
 2770TIP3   OH2 8315   0.371   3.145   1.977  0.2796  0.3888 -0.7907
 2770TIP3    H1 8316   0.378   3.050   1.983 -2.0338  0.2692  1.5847
 2770TIP3    H2 8317   0.280   3.162   1.955  0.0637  2.0456  1.0682
 2771TIP3   OH2 8318   2.433   3.959   4.929  0.4315  0.3946  0.6562
 2771TIP3    H1 8319   2.391   4.030   4.977  0.1469  0.6530  0.0331
 2771TIP3    H2 8320   2.361   3.907   4.895  0.6407 -0.4239  1.4275
 2772TIP3   OH2 8321   5.936   5.450   0.801  0.1972 -0.9435 -0.4007
 2772TIP3    H1 8322   5.913   5.540   0.776  1.7151 -0.8216 -1.5167
 2772TIP3    H2 8323   5.853   5.411   0.828 -0.4327  0.9266  0.5895
 2773TIP3   OH2 8324   3.199   4.416   0.547  0.2242  0.1040  0.6447
 2773TIP3    H1 8325   3.223   4.507   0.529  0.7923 -0.2296 -0.3588
 2773TIP3    H2 8326   3.275   4.381   0.595 -0.8219  0.6810  2.8658
 2774TIP3   OH2 8327   2.235   0.628   1.439  0.0894  0.0383 -0.0034
 2774TIP3    H1 8328   2.299   0.642   1.509  0.8081 -0.9210 -0.4359
 2774TIP3    H2 8329   2.153   0.610   1.485  0.0848  1.4131  0.5602
 2775TIP3   OH2 8330   0.875   5.267   3.156 -0.5536 -0.2594  0.3564
 2775TIP3    H1 8331   0.803   5.304   3.106  0.0865 -2.1646 -2.1938
 2775TIP3    H2 8332   0.943   5.335   3.155 -1.4117  0.6147  0.6872
 2776TIP3   OH2 8333   5.683   3.020   0.859  0.7146 -0.3063  0.2518
 2776TIP3    H1 8334   5.725   2.947   0.813  1.0136  0.2194 -0.3184
 2776TIP3    H2 8335   5.707   3.007   0.951  1.1056 -0.6990  0.0986
 2777TIP3   OH2 8336   1.676   3.327   2.664 -0.3760  0.1122  0.2670
 2777TIP3    H1 8337   1.598   3.319   2.719 -1.5593  1.6645 -1.0687
 2777TIP3    H2 8338   1.707   3.417   2.680 -0.5094  0.4505 -1.2441
 2778TIP3   OH2 8339   4.220   1.692   1.791 -0.5202  0.5252 -0.2606
 2778TIP3    H1 8340   4.281   1.698   1.718 -0.7692  1.9374 -0.3855
 2778TIP3    H2 8341   4.215   1.599   1.811  1.2306  0.3164 -0.6244
 2779TIP3   OH2 8342   4.726   5.166   4.330 -0.0767 -0.2761  0.6238
 2779TIP3    H1 8343   4.685   5.189   4.414 -0.4608 -0.2746  0.4359
 2779TIP3    H2 8344   4.805   5.220   4.327  0.0256 -0.3924  1.0587
 2780TIP3   OH2 8345   5.983   0.215   3.889 -0.5383  0.2639  0.5397
 2780TIP3    H1 8346   5.897   0.205   3.848 -0.3262  0.5932 -0.0001
 2780TIP3    H2 8347   5.964   0.231   3.981 -1.0991  1.3460  0.2603
 2781TIP3   OH2 8348   4.005   3.235   0.886 -0.4642  0.4086  0.8903
 2781TIP3    H1 8349   3.949   3.183   0.944  0.8559 -3.1700 -0.7716
 2781TIP3    H2 8350   3.946   3.265   0.816 -0.6109 -2.6869 -0.4485
 2782TIP3   OH2 8351   1.046   3.480   3.755  0.0987 -0.7354  0.0383
 2782TIP3    H1 8352   1.086   3.499   3.670 -0.0412 -1.6318 -0.2357
 2782TIP3    H2 8353   0.983   3.552   3.768 -1.0693 -1.4547 -1.3968
 2783TIP3   OH2 8354   5.669   5.634   1.523  0.2171 -0.4793 -0.0278
 2783TIP3    H1 8355   5.644   5.719   1.488  1.8286  0.7348  1.6090
 2783TIP3    H2 8356   5.762   5.626   1.505  0.5689 -0.8761  1.7591
 2784TIP3   OH2 8357   0.030   5.025   2.993  0.8242 -0.2161 -0.6822
 2784TIP3    H1 8358   0.078   5.063   3.066  1.6685 -1.5143 -0.5317
 2784TIP3    H2 8359   0.090   5.032   2.918  0.6525 -0.4562 -0.8449
 2785TIP3   OH2 8360   5.431   2.752   5.131  0.0715 -0.1455  0.2461
 2785TIP3    H1 8361   5.487   2.727   5.204  0.8907 -0.0752 -0.3488
 2785TIP3    H2 8362   5.356   2.795   5.172  0.1932 -0.7090  1.0811
 2786TIP3   OH2 8363   1.773   2.150   1.208 -0.1728  0.0300 -0.0975
 2786TIP3    H1 8364   1.726   2.088   1.152  1.5481 -0.4150 -1.1185
 2786TIP3    H2 8365   1.864   2.123   1.202  0.2550  0.9522  1.7112
 2787TIP3   OH2 8366   3.098   4.376   3.168 -0.1449  0.2956 -0.1798
 2787TIP3    H1 8367   3.115   4.300   3.112 -1.9692 -0.6926  0.5286
 2787TIP3    H2 8368   3.149   4.359   3.247  0.8576  0.7158 -0.7163
 2788TIP3   OH2 8369   5.049   2.517   3.897  0.5892  0.2520  0.2680
 2788TIP3    H1 8370   5.135   2.546   3.927  0.9380 -0.3655 -0.1115
 2788TIP3    H2 8371   5.068   2.456   3.826 -0.1788  0.6728 -0.3183
 2789TIP3   OH2 8372   1.456   1.114   4.952  0.1498 -0.0905 -0.2230
 2789TIP3    H1 8373   1.520   1.152   4.893  0.4754  2.3646  1.5510
 2789TIP3    H2 8374   1.478   1.021   4.955  1.0506 -0.0252 -2.6995
 2790TIP3   OH2 8375   1.729   0.715   1.659 -0.2899  0.3415  0.0866
 2790TIP3    H1 8376   1.774   0.768   1.593 -1.4344  0.8673 -0.2992
 2790TIP3    H2 8377   1.741   0.763   1.741  2.1288 -0.8930  0.5564
 2791TIP3   OH2 8378   3.710   3.797   3.781 -0.5512 -0.1416 -0.3252
 2791TIP3    H1 8379   3.717   3.716   3.832 -0.7783 -0.1823 -0.3593
 2791TIP3    H2 8380   3.630   3.838   3.812 -1.2809 -0.7018 -1.4089
 2792TIP3   OH2 8381   2.169   2.980   2.813  0.2978  0.5431  0.3433
 2792TIP3    H1 8382   2.119   2.902   2.837  1.6007 -1.0173 -1.7300
 2792TIP3    H2 8383   2.149   2.994   2.720  1.3495  1.7303  0.2704
 2793TIP3   OH2 8384   5.803   5.526   3.745 -0.2723  0.4674 -0.0809
 2793TIP3    H1 8385   5.854   5.606   3.751 -1.0421  0.9537  0.0584
 2793TIP3    H2 8386   5.839   5.469   3.813  0.0684  0.8051  0.0222
 2794TIP3   OH2 8387   3.776   4.277   2.680 -0.1069  0.1634  0.4732
 2794TIP3    H1 8388   3.723   4.209   2.637 -1.1439  0.5263  1.1424
 2794TIP3    H2 8389   3.848   4.228   2.720  0.8892 -0.1913 -1.6012
 2795TIP3   OH2 8390   2.896   1.485   2.145  0.0743  0.0421  0.2733
 2795TIP3    H1 8391   2.848   1.496   2.062  0.7921  0.6557 -0.0736
 2795TIP3    H2 8392   2.936   1.399   2.139 -0.0587 -0.0074  0.0789
 2796TIP3   OH2 8393   4.067   5.902   4.693  0.5228  0.4510 -0.4573
 2796TIP3    H1 8394   3.977   5.906   4.727  0.2262  0.4257 -1.2000
 2796TIP3    H2 8395   4.110   5.978   4.730  1.0511 -1.0314  2.1867
 2797TIP3   OH2 8396   0.517   2.666   3.684 -0.2451 -1.0692  0.1118
 2797TIP3    H1 8397   0.508   2.733   3.752 -2.4968 -0.8251 -0.3430
 2797TIP3    H2 8398   0.461   2.594   3.714  1.6787 -2.5786  0.3058
 2798TIP3   OH2 8399   2.707   0.527   1.379  0.1449 -0.4264  0.1459
 2798TIP3    H1 8400   2.634   0.588   1.369 -1.1151 -1.8663  0.2923
 2798TIP3    H2 8401   2.785   0.581   1.365 -0.9706  0.8892 -1.4116
 2799TIP3   OH2 8402   0.710   5.011   3.262 -0.0962 -0.1587  0.2923
 2799TIP3    H1 8403   0.656   5.001   3.341  0.4324  1.9685  0.9951
 2799TIP3    H2 8404   0.667   5.082   3.214  0.8062  0.0338 -0.2414
 2800TIP3   OH2 8405   5.540   4.048   4.046 -0.0620 -0.0255 -0.1886
 2800TIP3    H1 8406   5.463   3.994   4.065  0.6695 -1.1933 -0.4855
 2800TIP3    H2 8407   5.543   4.052   3.950  1.1845 -1.4002 -0.2362
 2801TIP3   OH2 8408   5.782   2.847   5.170  0.0979  0.1331 -0.3175
 2801TIP3    H1 8409   5.765   2.756   5.146 -0.3080  0.2278 -0.3995
 2801TIP3    H2 8410   5.696   2.889   5.165  0.2631  0.4913 -0.1557
 2802TIP3   OH2 8411   4.196   4.694   4.645 -0.0725 -0.4946 -0.0395
 2802TIP3    H1 8412   4.101   4.692   4.659  0.0518  0.7154  1.2561
 2802TIP3    H2 8413   4.230   4.625   4.701 -0.2228 -1.5272 -1.1751
 2803TIP3   OH2 8414   0.916   4.272   0.669 -0.5579 -0.3612  0.4916
 2803TIP3    H1 8415   0.866   4.351   0.651 -0.4436 -0.5167 -0.5345
 2803TIP3    H2 8416   0.855   4.200   0.649 -0.6244 -0.5398  1.3021
 2804TIP3   OH2 8417   3.692   5.381   2.573 -0.2073 -0.3041  0.1551
 2804TIP3    H1 8418   3.612   5.409   2.530 -0.4607 -1.6712 -0.3149
 2804TIP3    H2 8419   3.683   5.286   2.581  1.4079 -0.4994 -0.0081
 2805TIP3   OH2 8420   5.087   0.047   1.867 -0.0612  0.0235 -0.3318
 2805TIP3    H1 8421   5.144   0.001   1.805 -1.5667 -0.0302 -1.7155
 2805TIP3    H2 8422   5.008   0.067   1.817 -1.4243 -0.2208  1.6414
 2806TIP3   OH2 8423   4.819   3.950   4.953 -0.4313  0.5457 -0.1803
 2806TIP3    H1 8424   4.876   4.026   4.961  0.1805  0.2674 -1.5798
 2806TIP3    H2 8425   4.782   3.957   4.865  0.3665 -1.2517 -0.6990
 2807TIP3   OH2 8426   6.243   4.614   4.824 -0.1069 -0.3034  0.0775
 2807TIP3    H1 8427   6.270   4.705   4.836 -1.0268  0.0229 -0.2457
 2807TIP3    H2 8428   6.196   4.593   4.904 -0.0482 -0.4344  0.0764
 2808TIP3   OH2 8429   3.816   3.134   1.321  0.6368 -0.2979  0.1139
 2808TIP3    H1 8430   3.752   3.070   1.352 -0.8418  0.6568 -0.8671
 2808TIP3    H2 8431   3.844   3.101   1.236  2.6442 -1.4926  1.1647
 2809TIP3   OH2 8432   0.941   0.001   3.777  0.5605  0.2464  0.1740
 2809TIP3    H1 8433   0.878  -0.049   3.829  1.4528 -0.4820  0.5694
 2809TIP3    H2 8434   0.917   0.093   3.792 -0.4787 -0.0201  0.2150
 2810TIP3   OH2 8435   2.443   2.346   4.065 -0.3949  0.5495  0.0659
 2810TIP3    H1 8436   2.533   2.330   4.093 -0.6977 -0.4533  0.5104
 2810TIP3    H2 8437   2.414   2.418   4.121  0.5717  1.8678 -1.0604
 2811TIP3   OH2 8438   4.187   1.957   2.475  0.0662 -0.1630 -0.1988
 2811TIP3    H1 8439   4.136   1.944   2.395 -1.1340 -0.2336  0.5546
 2811TIP3    H2 8440   4.181   1.873   2.521  0.7737 -0.1331 -0.0399
 2812TIP3   OH2 8441   4.524   0.650   0.094  0.1819  0.2380  0.2320
 2812TIP3    H1 8442   4.559   0.642   0.183 -2.0699  2.2716  1.3816
 2812TIP3    H2 8443   4.477   0.568   0.080 -0.6112  0.4423  1.5016
 2813TIP3   OH2 8444   1.622   1.476   2.977  0.6271  0.4081 -0.1803
 2813TIP3    H1 8445   1.567   1.552   2.995  0.4384  0.4334 -0.8511
 2813TIP3    H2 8446   1.627   1.471   2.882  1.3966  0.1241 -0.1339
 2814TIP3   OH2 8447   4.075   3.176   1.935 -0.3091 -0.1789 -0.3163
 2814TIP3    H1 8448   4.116   3.257   1.903 -1.2339 -0.1150 -1.4144
 2814TIP3    H2 8449   4.012   3.153   1.867  0.2057 -2.0457 -0.2169
 2815TIP3   OH2 8450   4.932   3.399   2.166 -0.0582 -0.5039 -0.0998
 2815TIP3    H1 8451   4.856   3.383   2.110  0.0988 -1.6004 -0.0332
 2815TIP3    H2 8452   4.907   3.472   2.222 -0.6182 -0.0889 -0.8699
 2816TIP3   OH2 8453   2.954   0.119   4.458 -0.0561  0.0609 -0.4229
 2816TIP3    H1 8454   2.977   0.150   4.370  0.8099  1.0066  0.1151
 2816TIP3    H2 8455   2.860   0.132   4.465  0.1717  1.9695 -0.4800
 2817TIP3   OH2 8456   5.695   0.697   4.068  0.2598  0.2630  0.2483
 2817TIP3    H1 8457   5.705   0.697   4.164 -1.1461 -1.0340  0.4360
 2817TIP3    H2 8458   5.636   0.771   4.050 -1.0479 -0.6541  0.6204
 2818TIP3   OH2 8459   3.088   2.445   0.709 -0.1351 -0.1726  0.7936
 2818TIP3    H1 8460   3.037   2.436   0.628 -1.7316 -1.1124  1.8416
 2818TIP3    H2 8461   3.114   2.537   0.711 -0.1257 -0.1179 -0.7389
 2819TIP3   OH2 8462   1.263   0.916   3.237 -0.1600 -0.2660  0.2385
 2819TIP3    H1 8463   1.243   0.824   3.252  0.8664 -0.4896  0.2712
 2819TIP3    H2 8464   1.264   0.955   3.325  0.2810 -0.4119  0.3010
 2820TIP3   OH2 8465   5.711   2.260   2.319 -0.0003 -0.6492 -0.7672
 2820TIP3    H1 8466   5.791   2.311   2.317 -0.2706  0.1235  2.4069
 2820TIP3    H2 8467   5.737   2.175   2.356 -0.8511  0.4079  2.5950
 2821TIP3   OH2 8468   4.884   1.634   1.460  0.0979  0.0826  0.3097
 2821TIP3    H1 8469   4.793   1.632   1.488 -0.1158  0.4317 -0.3478
 2821TIP3    H2 8470   4.907   1.727   1.459  0.8098 -0.0533  1.5461
 2822TIP3   OH2 8471   3.674   5.269   2.209 -0.4064  0.9030 -0.1895
 2822TIP3    H1 8472   3.598   5.212   2.206 -0.7941  1.4406 -0.9003
 2822TIP3    H2 8473   3.748   5.211   2.225 -1.1155  0.5205  2.0707
 2823TIP3   OH2 8474   0.946   4.289   4.538  0.0810 -0.4613 -0.2391
 2823TIP3    H1 8475   1.024   4.318   4.489 -0.6493  0.1444 -1.0628
 2823TIP3    H2 8476   0.937   4.353   4.609  0.4148 -0.6267 -0.0413
 2824TIP3   OH2 8477   5.521   1.636   1.141 -0.7270  0.2043 -0.0653
 2824TIP3    H1 8478   5.512   1.571   1.212 -0.1745 -2.2827 -2.1117
 2824TIP3    H2 8479   5.612   1.664   1.146 -0.5433 -0.3718 -0.1130
 2825TIP3   OH2 8480   4.730   0.164   1.429  0.4937  0.2523 -0.1405
 2825TIP3    H1 8481   4.805   0.104   1.437  1.7264  1.6351 -0.8693
 2825TIP3    H2 8482   4.737   0.222   1.504  0.0619  0.2986 -0.1339
 2826TIP3   OH2 8483   0.817   1.487   2.385  0.1902 -0.1612 -0.0786
 2826TIP3    H1 8484   0.895   1.448   2.424  1.9463  3.5819  0.6778
 2826TIP3    H2 8485   0.832   1.482   2.291  0.9814 -0.1779  0.0457
 2827TIP3   OH2 8486   3.859   5.430   3.715  0.1429 -0.2046 -0.7201
 2827TIP3    H1 8487   3.764   5.431   3.727  0.2287 -0.1275 -0.0603
 2827TIP3    H2 8488   3.895   5.447   3.801  0.7482  3.1466 -1.5000
 2828TIP3   OH2 8489   5.690   5.292   1.647 -0.3239 -0.3292  0.0420
 2828TIP3    H1 8490   5.683   5.262   1.556  2.4379  1.9307 -1.0861
 2828TIP3    H2 8491   5.621   5.358   1.655 -2.4304 -2.4867  0.5939
 2829TIP3   OH2 8492   5.159   3.974   2.601  0.0093 -0.2646 -0.3196
 2829TIP3    H1 8493   5.156   3.908   2.532 -2.7366  0.7502 -1.2913
 2829TIP3    H2 8494   5.210   4.046   2.564 -1.0035  0.0572 -1.1169
 2830TIP3   OH2 8495   2.587   3.004   1.621 -0.6067  0.5144  0.3408
 2830TIP3    H1 8496   2.515   2.955   1.580 -0.9126  0.2985  1.1239
 2830TIP3    H2 8497   2.666   2.969   1.579 -0.8645 -0.2310  0.4565
 2831TIP3   OH2 8498   3.273   3.207   3.363  0.3102 -0.1814 -0.4200
 2831TIP3    H1 8499   3.303   3.296   3.347 -1.4388  0.1738 -2.0882
 2831TIP3    H2 8500   3.313   3.156   3.292  0.5141 -0.5546 -0.0411
 2832TIP3   OH2 8501   0.380   4.642   3.666  0.3367 -0.7617 -0.1164
 2832TIP3    H1 8502   0.428   4.700   3.607 -2.1354  0.6951 -0.8206
 2832TIP3    H2 8503   0.327   4.587   3.608 -0.5416 -0.7590  0.6547
 2833TIP3   OH2 8504   3.016   4.866   0.996  0.0231 -0.3052  0.3215
 2833TIP3    H1 8505   3.030   4.889   0.904 -1.0257  0.7065  0.3898
 2833TIP3    H2 8506   2.923   4.844   1.002  0.2488 -1.1247  0.9950
 2834TIP3   OH2 8507   4.577   1.325   0.380 -0.3093 -0.5468  0.4219
 2834TIP3    H1 8508   4.537   1.246   0.345  0.3982 -0.4834 -0.5555
 2834TIP3    H2 8509   4.662   1.296   0.414 -1.3543 -0.8148  3.0926
 2835TIP3   OH2 8510   6.031   4.368   0.789  0.7582  0.0799  0.3487
 2835TIP3    H1 8511   5.981   4.449   0.782 -0.7242 -0.8800 -0.8625
 2835TIP3    H2 8512   6.065   4.354   0.700 -1.7468 -2.2348 -0.3811
 2836TIP3   OH2 8513   2.851   3.266   1.346 -0.9151 -0.1566 -0.4449
 2836TIP3    H1 8514   2.830   3.353   1.311 -0.7764 -0.1129 -0.4228
 2836TIP3    H2 8515   2.946   3.268   1.358 -1.0964  0.3598  1.2985
 2837TIP3   OH2 8516   3.247   2.495   4.367 -0.6163  0.3995  0.0243
 2837TIP3    H1 8517   3.169   2.475   4.315 -0.0668  1.1999 -1.1660
 2837TIP3    H2 8518   3.280   2.577   4.329  0.0090  0.8298  1.4308
 2838TIP3   OH2 8519   5.527   3.914   0.565 -0.3370  0.4221 -0.0074
 2838TIP3    H1 8520   5.545   3.973   0.492 -2.3046 -0.4497 -1.3116
 2838TIP3    H2 8521   5.453   3.954   0.611 -0.2567  0.0764  0.4300
 2839TIP3   OH2 8522   2.570   4.050   3.711 -0.1754 -0.2657 -0.5254
 2839TIP3    H1 8523   2.570   4.040   3.615 -0.6440 -1.0119 -0.4622
 2839TIP3    H2 8524   2.616   3.972   3.743  0.8765  0.4841 -0.1699
 2840TIP3   OH2 8525   4.180   3.179   2.798  0.1093 -0.3254  0.3478
 2840TIP3    H1 8526   4.269   3.210   2.817  0.0688  0.8599 -1.2471
 2840TIP3    H2 8527   4.193   3.091   2.762  0.7490  0.3002 -0.9936
 2841TIP3   OH2 8528   4.421   3.186   0.699  0.0575  0.3046 -0.2167
 2841TIP3    H1 8529   4.441   3.227   0.783 -0.5923 -0.8933  0.5430
 2841TIP3    H2 8530   4.420   3.092   0.718  0.0761  0.0048 -1.6081
 2842TIP3   OH2 8531   0.159   4.571   2.529  0.2131 -0.0981  0.1347
 2842TIP3    H1 8532   0.120   4.626   2.597  1.7122 -1.8752  2.5828
 2842TIP3    H2 8533   0.254   4.582   2.541  0.5201 -1.7678 -0.5138
 2843TIP3   OH2 8534   3.419   5.706   0.059  0.5000 -0.0203  0.0575
 2843TIP3    H1 8535   3.340   5.705   0.113 -0.2864  0.4885 -1.0298
 2843TIP3    H2 8536   3.420   5.621   0.015 -0.7439  0.7969 -1.6705
 2844TIP3   OH2 8537   1.393   3.224   4.833  0.3566  0.6790 -0.1546
 2844TIP3    H1 8538   1.324   3.196   4.893  0.5148 -0.0810 -0.3165
 2844TIP3    H2 8539   1.461   3.157   4.841 -0.0197  0.0357 -1.8660
 2845TIP3   OH2 8540   3.719   2.282   3.599 -0.1723 -0.5516  0.0615
 2845TIP3    H1 8541   3.623   2.289   3.596 -0.1125  0.6323  0.3621
 2845TIP3    H2 8542   3.746   2.277   3.508 -0.4117  1.2850 -0.1444
 2846TIP3   OH2 8543   1.025   3.877   4.354 -0.0871  0.3029 -0.8056
 2846TIP3    H1 8544   0.990   3.888   4.443 -1.9829 -1.1020 -1.3190
 2846TIP3    H2 8545   1.049   3.966   4.327  1.9624  0.5930  1.6019
 2847TIP3   OH2 8546   0.431   0.009   3.675  0.2609  0.3880 -0.3702
 2847TIP3    H1 8547   0.475   0.073   3.619  0.2502  0.1173 -0.6874
 2847TIP3    H2 8548   0.457   0.034   3.764 -1.8028  2.4617 -0.2440
 2848TIP3   OH2 8549   5.008   1.868   2.923  0.1880 -0.3332 -0.0262
 2848TIP3    H1 8550   4.974   1.816   2.850  0.0794  1.6768 -1.4992
 2848TIP3    H2 8551   4.930   1.900   2.969  0.2398 -3.1145  2.2350
 2849TIP3   OH2 8552   3.003   2.341   3.714 -0.4201 -0.6610  0.4494
 2849TIP3    H1 8553   2.948   2.391   3.654 -0.1243  0.6937  1.2619
 2849TIP3    H2 8554   3.083   2.392   3.722 -0.2788 -1.0297  1.6525
 2850TIP3   OH2 8555   2.946   5.692   3.980 -0.4169  0.0542  0.1259
 2850TIP3    H1 8556   2.951   5.653   3.893 -1.3856 -0.8937  0.4722
 2850TIP3    H2 8557   3.035   5.720   3.999  0.4923 -2.6252  0.1406
 2851TIP3   OH2 8558   3.967   3.647   3.060 -0.0859 -0.2895  0.7161
 2851TIP3    H1 8559   3.942   3.590   3.133 -0.6442 -1.3553 -0.2738
 2851TIP3    H2 8560   3.887   3.654   3.007  0.2072  0.7762  0.3932
 2852TIP3   OH2 8561   6.202   0.094   1.208 -0.1011  0.6962  0.2799
 2852TIP3    H1 8562   6.180   0.085   1.301  1.8903  0.4659  0.7753
 2852TIP3    H2 8563   6.264   0.023   1.191 -1.9122 -0.5170 -1.7699
 2853TIP3   OH2 8564   3.179   1.041   0.805  0.0669 -0.5596 -0.2713
 2853TIP3    H1 8565   3.248   1.076   0.748  0.0335 -1.7934 -1.1002
 2853TIP3    H2 8566   3.100   1.089   0.779  0.4900  0.4949  0.3269
 2854TIP3   OH2 8567   3.963   2.913   2.033 -0.1166  0.4396  0.0025
 2854TIP3    H1 8568   4.017   2.974   2.083  0.4672  0.2598 -0.4054
 2854TIP3    H2 8569   3.906   2.872   2.099 -1.1376  2.0372  0.1689
 2855TIP3   OH2 8570   5.987   4.616   1.030  0.1514 -0.2388  0.2915
 2855TIP3    H1 8571   6.003   4.522   1.038  0.5499 -0.2023 -0.0454
 2855TIP3    H2 8572   5.912   4.632   1.087 -1.8256 -1.2776 -1.8701
 2856TIP3   OH2 8573   2.469   0.375   2.816 -0.3776 -0.1533  0.1156
 2856TIP3    H1 8574   2.508   0.308   2.871  0.5867 -0.7429 -1.2152
 2856TIP3    H2 8575   2.543   0.421   2.778 -0.9828 -0.2120 -1.1970
 2857TIP3   OH2 8576   1.152   4.159   4.273 -0.0459  0.5310 -0.6955
 2857TIP3    H1 8577   1.209   4.124   4.205  0.7387 -1.1124  0.7236
 2857TIP3    H2 8578   1.211   4.186   4.343 -0.9028 -2.0975  1.2177
 2858TIP3   OH2 8579   1.286   3.587   3.585  0.2211 -0.5698 -0.5513
 2858TIP3    H1 8580   1.304   3.507   3.634  1.8544 -0.5131 -0.9933
 2858TIP3    H2 8581   1.322   3.657   3.638 -3.1886  0.2455  0.9496
 2859TIP3   OH2 8582   1.969   2.936   0.099 -0.0269 -0.5971 -0.3400
 2859TIP3    H1 8583   1.989   2.969   0.186 -0.1655  0.2519 -0.6163
 2859TIP3    H2 8584   2.048   2.889   0.072  0.3331 -0.1535 -0.0771
 2860TIP3   OH2 8585   3.610   4.183   1.920 -0.2828  0.0780  0.4284
 2860TIP3    H1 8586   3.680   4.165   1.983 -1.2930 -1.1913  1.2516
 2860TIP3    H2 8587   3.603   4.278   1.918  0.4350  0.1684  1.5068
 2861TIP3   OH2 8588   1.623   5.188   4.101  0.2947 -0.0674  0.3323
 2861TIP3    H1 8589   1.537   5.226   4.084 -0.4256 -0.9567  1.7848
 2861TIP3    H2 8590   1.639   5.204   4.194  0.5308 -2.1385  0.6983
 2862TIP3   OH2 8591   3.048   1.630   0.449  0.8410 -0.0830 -0.0552
 2862TIP3    H1 8592   3.026   1.630   0.542  2.4844  1.3445  0.3853
 2862TIP3    H2 8593   3.106   1.554   0.438 -1.3347 -1.7984 -0.5218
 2863TIP3   OH2 8594   2.741   5.338   0.603 -0.0680  0.1619  0.2848
 2863TIP3    H1 8595   2.784   5.257   0.630  0.5172  0.0767 -0.8593
 2863TIP3    H2 8596   2.712   5.321   0.513 -1.1214  0.7600  0.4985
 2864TIP3   OH2 8597   0.861   3.722   2.074 -0.4345 -0.6704 -0.0320
 2864TIP3    H1 8598   0.808   3.682   2.142 -0.7856  0.3051  0.2898
 2864TIP3    H2 8599   0.822   3.694   1.992 -1.5947  0.1898  0.1994
 2865TIP3   OH2 8600   0.028   3.862   3.712  0.0689  0.5400  0.4221
 2865TIP3    H1 8601  -0.051   3.824   3.751 -1.9837  3.5123 -0.4856
 2865TIP3    H2 8602   0.066   3.915   3.782 -0.3694  1.3343  0.0708
 2866TIP3   OH2 8603   4.017   2.152   0.571  0.0215  0.2034 -0.6378
 2866TIP3    H1 8604   4.007   2.240   0.608 -1.7618  0.4438 -1.5637
 2866TIP3    H2 8605   4.093   2.116   0.615  0.7119  2.1610 -0.1257
 2867TIP3   OH2 8606   2.384   0.660   0.320  0.3860 -0.3511 -0.6367
 2867TIP3    H1 8607   2.290   0.667   0.338  0.2896 -1.7848 -0.4175
 2867TIP3    H2 8608   2.388   0.609   0.238  0.9721 -0.9864 -0.2231
 2868TIP3   OH2 8609   4.944   0.875   3.065 -0.2609  0.7872 -0.3548
 2868TIP3    H1 8610   4.856   0.893   3.032 -0.2872 -0.4733 -1.0322
 2868TIP3    H2 8611   4.932   0.865   3.159 -0.8555  0.5812 -0.4447
 2869TIP3   OH2 8612   4.163   3.644   4.308 -0.3843 -0.3180 -0.1293
 2869TIP3    H1 8613   4.073   3.660   4.280 -0.7404  1.7109  1.8901
 2869TIP3    H2 8614   4.216   3.685   4.239 -1.0789  0.5437 -0.1769
 2870TIP3   OH2 8615   0.206   0.197   4.236  0.4261  0.4305  0.3709
 2870TIP3    H1 8616   0.191   0.135   4.164 -1.6073  0.9957  0.2487
 2870TIP3    H2 8617   0.125   0.195   4.287  1.2153  1.2544  1.7262
 2871TIP3   OH2 8618   1.876   3.495   4.458 -0.1744 -0.0744 -0.1327
 2871TIP3    H1 8619   1.798   3.512   4.405  0.2630 -0.6245 -0.9752
 2871TIP3    H2 8620   1.900   3.581   4.493 -2.3921 -0.1705  1.9406
 2872TIP3   OH2 8621   4.838   5.402   3.866  0.1836 -0.2558 -0.6208
 2872TIP3    H1 8622   4.833   5.470   3.799  0.2500 -0.0120 -0.3786
 2872TIP3    H2 8623   4.752   5.360   3.864 -1.1693  2.0958  1.5888
 2873TIP3   OH2 8624   2.481   3.998   2.839  0.1567 -0.0319  0.6548
 2873TIP3    H1 8625   2.469   3.909   2.871  1.2265 -1.1419 -1.7589
 2873TIP3    H2 8626   2.563   4.027   2.879  0.0497 -0.3106  1.0793
 2874TIP3   OH2 8627   4.684   4.197   3.886 -0.3647  0.7845  0.0123
 2874TIP3    H1 8628   4.722   4.173   3.970 -0.1691  0.6361 -0.1166
 2874TIP3    H2 8629   4.722   4.134   3.824  0.0954  1.3756 -0.3166
 2875TIP3   OH2 8630   0.718   4.641   4.954  0.4593  0.2432  0.3479
 2875TIP3    H1 8631   0.757   4.680   5.033  0.5062 -0.3912  0.6435
 2875TIP3    H2 8632   0.687   4.555   4.983  0.9939 -0.2366 -0.4717
 2876TIP3   OH2 8633   5.314   1.169   0.399  0.1041 -0.5697  0.3572
 2876TIP3    H1 8634   5.321   1.113   0.477  1.5400  0.5578  1.0849
 2876TIP3    H2 8635   5.402   1.170   0.363 -0.3378 -0.3008 -0.7522
 2877TIP3   OH2 8636   5.324   4.212   2.642 -0.3733  0.1968  0.3551
 2877TIP3    H1 8637   5.395   4.150   2.660  1.4043  2.5238  2.0376
 2877TIP3    H2 8638   5.270   4.210   2.721 -1.5616 -0.7117 -0.4546
 2878TIP3   OH2 8639   4.084   4.337   4.834  0.0258  0.9720 -0.1277
 2878TIP3    H1 8640   4.043   4.387   4.905  1.5365  1.5085  0.3880
 2878TIP3    H2 8641   4.173   4.321   4.863 -0.0507 -1.0425 -0.7945
 2879TIP3   OH2 8642   1.657   4.150   4.881  0.0351 -0.3297  0.2400
 2879TIP3    H1 8643   1.670   4.243   4.865  0.3711 -0.4639 -0.2798
 2879TIP3    H2 8644   1.744   4.117   4.902 -0.1416 -0.4629  0.7793
 2880TIP3   OH2 8645   6.116   2.604   2.525 -0.2938  0.0849 -0.2482
 2880TIP3    H1 8646   6.126   2.653   2.607  0.8122 -0.1011 -0.2526
 2880TIP3    H2 8647   6.200   2.558   2.515 -1.0320 -1.2124 -0.6355
 2881TIP3   OH2 8648   1.961   5.385   0.138 -0.6106  0.2292  0.0724
 2881TIP3    H1 8649   2.039   5.379   0.084 -0.4726  0.2583  0.2674
 2881TIP3    H2 8650   1.994   5.382   0.228 -0.7665  1.1236  0.1637
 2882TIP3   OH2 8651   4.631   4.644   3.846  0.6446  0.2997 -0.2342
 2882TIP3    H1 8652   4.717   4.664   3.810  0.4523 -0.0176 -0.8811
 2882TIP3    H2 8653   4.609   4.720   3.900  1.9661 -0.2449  1.1604
 2883TIP3   OH2 8654   2.481   2.053   3.605 -0.2443 -0.2824  0.3230
 2883TIP3    H1 8655   2.413   2.008   3.655  0.8289 -1.5189  0.7180
 2883TIP3    H2 8656   2.466   2.146   3.622 -0.1851 -0.6364  2.6012
 2884TIP3   OH2 8657   1.735   2.741   4.318  0.3840 -0.4193  0.1874
 2884TIP3    H1 8658   1.785   2.659   4.323  0.8962 -0.2234 -1.2822
 2884TIP3    H2 8659   1.782   2.794   4.254 -0.9687  0.3024 -0.2481
 2885TIP3   OH2 8660   5.708   2.184   3.996 -0.7617 -0.2768  0.0932
 2885TIP3    H1 8661   5.774   2.227   3.942  1.0632 -0.1456  2.3127
 2885TIP3    H2 8662   5.712   2.092   3.969  0.3213 -0.2712  0.1914
 2886TIP3   OH2 8663   2.390   1.793   4.750  0.2852  0.1399  0.5743
 2886TIP3    H1 8664   2.386   1.829   4.662 -1.2270  2.0536  1.3486
 2886TIP3    H2 8665   2.372   1.700   4.739 -1.2693  0.5728 -1.0200
 2887TIP3   OH2 8666   4.496   1.628   2.245  0.0615  0.1024 -0.6721
 2887TIP3    H1 8667   4.413   1.588   2.219  0.8816 -1.3969 -1.1729
 2887TIP3    H2 8668   4.476   1.721   2.257 -1.5443 -0.1179 -1.3671
 2888TIP3   OH2 8669   1.140   3.929   0.624 -0.3541 -0.1254 -0.3682
 2888TIP3    H1 8670   1.166   3.889   0.707  1.2806  0.5791 -0.5023
 2888TIP3    H2 8671   1.105   4.015   0.649  0.5243  0.2578 -0.4157
 2889TIP3   OH2 8672   4.726   1.690   0.762 -0.4279 -0.3661  0.2129
 2889TIP3    H1 8673   4.749   1.631   0.833  1.3887 -0.5914 -0.5186
 2889TIP3    H2 8674   4.794   1.677   0.696 -0.6244  1.6692 -0.4802
 2890TIP3   OH2 8675   0.606   2.218   2.407 -0.4621 -0.2104 -0.4320
 2890TIP3    H1 8676   0.667   2.146   2.389  0.5297  0.1007  1.4304
 2890TIP3    H2 8677   0.660   2.286   2.448 -2.0518 -0.0275  1.5651
 2891TIP3   OH2 8678   2.368   2.405   0.415  0.2031 -0.3294  0.2466
 2891TIP3    H1 8679   2.279   2.379   0.392 -0.4769  1.3584  0.7967
 2891TIP3    H2 8680   2.358   2.489   0.460  2.1642  0.4972 -0.7040
 2892TIP3   OH2 8681   2.782   5.005   0.242  0.3129  0.6701  0.0355
 2892TIP3    H1 8682   2.849   4.936   0.249  0.1417  0.6104  1.4242
 2892TIP3    H2 8683   2.771   5.019   0.148  2.8531  1.2363 -0.2574
 2893TIP3   OH2 8684   3.516   4.373   2.727 -0.4734  0.0144  0.2662
 2893TIP3    H1 8685   3.606   4.359   2.698 -0.4736  1.6145 -0.5754
 2893TIP3    H2 8686   3.522   4.443   2.792 -1.1780  0.5201 -0.2012
 2894TIP3   OH2 8687   0.544   1.514   2.409  0.0009 -0.3456  0.0465
 2894TIP3    H1 8688   0.552   1.604   2.441 -0.3731  0.0236 -0.8658
 2894TIP3    H2 8689   0.634   1.485   2.396  0.0984  0.4793 -1.2264
 2895TIP3   OH2 8690   4.740   3.006   2.832  0.2845  0.0752  0.3279
 2895TIP3    H1 8691   4.744   2.954   2.913 -1.1817 -0.4692  0.0823
 2895TIP3    H2 8692   4.762   3.095   2.860  0.8183 -0.2938  1.1350
 2896TIP3   OH2 8693   1.580   5.613   2.062 -0.9390 -0.8214  1.0291
 2896TIP3    H1 8694   1.668   5.612   2.099 -0.2810 -0.3932 -0.4702
 2896TIP3    H2 8695   1.583   5.679   1.993 -1.8781 -2.1589 -0.3493
 2897TIP3   OH2 8696   2.439   3.912   2.327 -0.1977 -0.4438 -0.6334
 2897TIP3    H1 8697   2.347   3.936   2.336 -0.2733 -0.1618 -1.9782
 2897TIP3    H2 8698   2.481   3.951   2.404 -1.4391 -1.9957  0.9054
 2898TIP3   OH2 8699   5.880   4.418   0.524  0.2389 -0.3700 -0.3722
 2898TIP3    H1 8700   5.887   4.323   0.512 -1.3286 -0.3682 -1.7013
 2898TIP3    H2 8701   5.879   4.453   0.435 -0.2771  0.7993  0.0735
 2899TIP3   OH2 8702   5.943   2.102   0.160 -0.0447 -0.6744 -0.8526
 2899TIP3    H1 8703   5.969   2.159   0.232  0.1485 -1.5855 -0.1792
 2899TIP3    H2 8704   5.938   2.160   0.084 -2.0079  0.6516  0.2108
 2900TIP3   OH2 8705   1.213   1.998   2.228  0.3039 -0.3992  0.0473
 2900TIP3    H1 8706   1.213   1.915   2.181 -1.4562 -0.0813 -0.6246
 2900TIP3    H2 8707   1.185   1.976   2.317 -2.0166 -0.3845 -0.5988
 2901TIP3   OH2 8708   3.070   0.795   3.464  0.4769 -0.5451 -0.5318
 2901TIP3    H1 8709   2.998   0.798   3.528  0.5725 -1.6728 -0.3366
 2901TIP3    H2 8710   3.056   0.712   3.418 -0.5202  0.9382 -3.1099
 2902TIP3   OH2 8711   5.790   4.649   3.272  0.1458  0.3888  0.0651
 2902TIP3    H1 8712   5.714   4.626   3.219  0.5986 -1.3986  0.1443
 2902TIP3    H2 8713   5.849   4.695   3.212 -0.3006  0.3380 -0.4123
 2903TIP3   OH2 8714   6.065   2.701   1.607  0.7441  0.7176 -0.6859
 2903TIP3    H1 8715   6.044   2.787   1.643 -1.8851 -0.1037 -0.0380
 2903TIP3    H2 8716   6.135   2.667   1.663 -0.4546  1.1393  1.1295
 2904TIP3   OH2 8717   1.482   5.473   3.210 -0.6578 -0.0131  0.7144
 2904TIP3    H1 8718   1.513   5.429   3.289 -0.5674  0.8869  1.1949
 2904TIP3    H2 8719   1.398   5.512   3.236  0.3559  2.1024  1.0510
 2905TIP3   OH2 8720   2.309   4.601   0.316  0.2081 -0.4876 -0.5448
 2905TIP3    H1 8721   2.280   4.669   0.256  1.1948  0.0133 -0.4695
 2905TIP3    H2 8722   2.336   4.649   0.395 -2.3109 -1.1948  0.8670
 2906TIP3   OH2 8723   5.457   0.437   1.196  0.6346  0.0375  0.0949
 2906TIP3    H1 8724   5.549   0.425   1.220  0.5671  1.6530  1.3477
 2906TIP3    H2 8725   5.426   0.349   1.175  2.2990 -0.6244  0.2117
 2907TIP3   OH2 8726   2.871   3.434   2.839 -0.5855  0.0292  0.0825
 2907TIP3    H1 8727   2.949   3.488   2.829 -0.6708  0.0368 -0.5238
 2907TIP3    H2 8728   2.901   3.360   2.893 -0.1993  0.1102 -0.0145
 2908TIP3   OH2 8729   3.852   5.091   4.846 -0.5651  0.5749  0.5906
 2908TIP3    H1 8730   3.875   5.162   4.906 -1.0710 -0.2677  1.8142
 2908TIP3    H2 8731   3.756   5.089   4.847 -0.5536 -0.2249  0.7038
 2909TIP3   OH2 8732   4.416   1.437   3.330  0.4600 -0.1837  0.8925
 2909TIP3    H1 8733   4.416   1.502   3.259  1.0993 -0.9865  0.1208
 2909TIP3    H2 8734   4.406   1.488   3.410  1.6726  0.9485  0.3614
 2910TIP3   OH2 8735   6.267   4.204   1.620  0.1200 -0.1697  0.2773
 2910TIP3    H1 8736   6.328   4.258   1.570 -0.8274  0.7463  0.0863
 2910TIP3    H2 8737   6.223   4.265   1.679 -2.3593 -0.3208 -1.2733
 2911TIP3   OH2 8738   1.931   4.973   0.186  0.1872 -0.2943  0.6136
 2911TIP3    H1 8739   1.985   5.051   0.174 -0.9822  0.3546 -0.6921
 2911TIP3    H2 8740   1.859   5.001   0.241  0.8604 -1.0302  1.9204
 2912TIP3   OH2 8741   1.351   4.972   4.195 -0.4897  0.3972  0.6511
 2912TIP3    H1 8742   1.377   4.900   4.139  1.4452  0.9141  0.8180
 2912TIP3    H2 8743   1.259   4.989   4.172  0.0894  0.3088 -2.0254
 2913TIP3   OH2 8744   4.267   4.025   3.314  0.6052  0.2457  0.5948
 2913TIP3    H1 8745   4.186   4.016   3.364  0.4721 -0.8408  0.2056
 2913TIP3    H2 8746   4.238   4.050   3.226  0.5675 -1.4636  0.0840
 2914TIP3   OH2 8747   1.563   5.058   0.047  0.1959 -0.0973 -0.4853
 2914TIP3    H1 8748   1.574   4.966   0.023  0.0677 -0.2179 -0.0980
 2914TIP3    H2 8749   1.645   5.100   0.024  0.9018 -0.6559  0.9080
 2915TIP3   OH2 8750   2.625   1.750   2.049  0.0112  0.2310 -0.1704
 2915TIP3    H1 8751   2.678   1.689   1.997 -0.3432 -0.6229  0.4413
 2915TIP3    H2 8752   2.580   1.694   2.112 -0.6372  1.0946  0.1473
 2916TIP3   OH2 8753   3.686   5.271   4.141  0.0099 -0.5833 -0.5285
 2916TIP3    H1 8754   3.670   5.179   4.162 -0.4612 -0.7433 -1.5306
 2916TIP3    H2 8755   3.708   5.312   4.225 -0.1456 -1.5322 -0.0178
 2917TIP3   OH2 8756   1.953   0.599   0.686  0.3388 -0.3772  0.7204
 2917TIP3    H1 8757   2.003   0.528   0.727  0.1394  0.1727  1.9452
 2917TIP3    H2 8758   1.896   0.554   0.623  0.4778 -1.2637  1.2022
 2918TIP3   OH2 8759   0.796   3.273   3.744 -0.8743  0.2600  0.1738
 2918TIP3    H1 8760   0.748   3.355   3.756  0.4610  0.9479  0.9124
 2918TIP3    H2 8761   0.872   3.296   3.693  0.2884 -0.2057  1.6143
 2919TIP3   OH2 8762   4.826   4.464   3.499  0.1012 -0.0187  0.2143
 2919TIP3    H1 8763   4.910   4.490   3.461 -0.7255 -0.1193 -1.7980
 2919TIP3    H2 8764   4.832   4.369   3.508  0.5787  0.0841  1.0913
 2920TIP3   OH2 8765   1.008   2.213   3.925  0.3747  0.3918  0.1469
 2920TIP3    H1 8766   1.037   2.243   4.012  0.1184 -0.8926  0.6936
 2920TIP3    H2 8767   1.057   2.132   3.910 -1.0776 -0.4865 -0.0098
 2921TIP3   OH2 8768   3.709   2.587   1.224  0.5826  0.3582 -0.6187
 2921TIP3    H1 8769   3.658   2.527   1.170  0.8914  1.1677 -1.8442
 2921TIP3    H2 8770   3.680   2.674   1.197  0.5464  0.7918  0.7356
 2922TIP3   OH2 8771   5.691   0.573   0.996  0.2351 -0.6864  0.2669
 2922TIP3    H1 8772   5.734   0.490   1.017 -0.8430 -1.2877  0.1839
 2922TIP3    H2 8773   5.763   0.632   0.974  1.3708 -0.3967  4.0448
 2923TIP3   OH2 8774   0.112   2.177   0.061 -0.1476  0.1986 -0.5411
 2923TIP3    H1 8775   0.187   2.220   0.102 -0.8154  1.5402 -0.6743
 2923TIP3    H2 8776   0.077   2.120   0.129  0.7200 -0.1075 -0.3359
 2924TIP3   OH2 8777   0.045   5.613   3.193 -0.0381 -0.6816 -0.3392
 2924TIP3    H1 8778  -0.012   5.660   3.253 -0.0235 -0.1419 -0.7363
 2924TIP3    H2 8779   0.133   5.643   3.215 -0.0242 -0.5544 -0.5613
 2925TIP3   OH2 8780   3.902   3.116   3.656  0.4602  0.0450 -0.3427
 2925TIP3    H1 8781   3.885   3.114   3.750 -0.0511 -0.0257 -0.4354
 2925TIP3    H2 8782   3.926   3.207   3.638  0.8839 -0.0148 -0.0883
 2926TIP3   OH2 8783   4.072   0.479   0.340  0.0144 -0.1810  0.1497
 2926TIP3    H1 8784   3.994   0.463   0.393  0.1727 -1.6054 -0.0068
 2926TIP3    H2 8785   4.042   0.534   0.268 -0.8457 -0.7039  0.1047
 2927TIP3   OH2 8786   3.441   3.933   4.752 -0.6517  0.1374  0.5009
 2927TIP3    H1 8787   3.352   3.901   4.738  0.1571 -1.6741 -0.9519
 2927TIP3    H2 8788   3.443   4.017   4.705 -1.5874  0.2127  0.5653
 2928TIP3   OH2 8789   5.493   3.910   1.326  0.3850 -0.2258 -0.2390
 2928TIP3    H1 8790   5.491   3.933   1.419 -1.7496  0.0803 -0.3148
 2928TIP3    H2 8791   5.581   3.936   1.297  0.5052  1.2848  1.3021
 2929TIP3   OH2 8792   1.111   5.137   1.041 -0.4164  0.2317  0.1456
 2929TIP3    H1 8793   1.128   5.108   0.952  1.4483 -1.7817  1.0748
 2929TIP3    H2 8794   1.090   5.057   1.089  0.4489  0.9940  1.8947
 2930TIP3   OH2 8795   1.517   3.002   3.976  0.5350 -0.4157 -0.3826
 2930TIP3    H1 8796   1.449   2.945   3.940 -1.7324  2.1930 -0.6503
 2930TIP3    H2 8797   1.588   2.999   3.912  0.4444 -2.7189 -0.4472
 2931TIP3   OH2 8798   2.291   1.547   4.753  0.0715 -0.3765 -0.3452
 2931TIP3    H1 8799   2.228   1.536   4.682 -2.0046 -0.2750  1.3704
 2931TIP3    H2 8800   2.288   1.463   4.800  2.2594 -0.8542 -0.9812
 2932TIP3   OH2 8801   2.884   1.123   5.011  0.3839  0.0090 -0.2760
 2932TIP3    H1 8802   2.953   1.165   4.960 -1.6703  1.8347 -1.7343
 2932TIP3    H2 8803   2.839   1.195   5.055 -0.3258 -1.1651  1.0016
 2933TIP3   OH2 8804   2.485   5.161   2.747 -0.3416  0.6564  0.3097
 2933TIP3    H1 8805   2.451   5.180   2.834 -2.4483  0.6403 -0.4482
 2933TIP3    H2 8806   2.463   5.070   2.731  0.3635  0.5470 -0.1039
 2934TIP3   OH2 8807   1.350   3.992   0.985  0.1448  0.0990 -0.4569
 2934TIP3    H1 8808   1.287   3.982   1.057 -0.4052 -2.7720 -1.2042
 2934TIP3    H2 8809   1.319   3.931   0.918  3.0795 -0.5792 -1.3135
 2935TIP3   OH2 8810   5.236   0.569   1.262 -0.2049  0.1002  0.1845
 2935TIP3    H1 8811   5.239   0.478   1.291  2.1466  0.0334 -0.0409
 2935TIP3    H2 8812   5.326   0.588   1.233 -0.0533  3.1012  2.1623
 2936TIP3   OH2 8813   1.035   3.229   0.403  0.5135 -0.3769  0.3828
 2936TIP3    H1 8814   1.017   3.157   0.463  0.9391 -1.4513 -0.7509
 2936TIP3    H2 8815   1.101   3.282   0.449  0.6918 -1.0720  0.9457
 2937TIP3   OH2 8816   5.490   2.285   3.128 -0.6543 -0.3007 -0.1428
 2937TIP3    H1 8817   5.428   2.213   3.136  0.5054 -1.4285 -1.0016
 2937TIP3    H2 8818   5.473   2.322   3.042 -0.0981 -0.6619 -0.4130
 2938TIP3   OH2 8819   5.479   1.168   1.622 -0.8728  0.1390  0.0810
 2938TIP3    H1 8820   5.463   1.262   1.635  2.6271  0.8723 -0.0655
 2938TIP3    H2 8821   5.418   1.144   1.552 -3.3004  1.7354  1.4742
 2939TIP3   OH2 8822   1.377   5.874   3.465 -0.1761 -0.0084  0.1051
 2939TIP3    H1 8823   1.394   5.955   3.513 -0.6458  0.7133 -0.9087
 2939TIP3    H2 8824   1.352   5.902   3.377  1.0724 -1.3094 -0.7229
 2940TIP3   OH2 8825   4.649   0.615   0.579 -0.0992  0.1361 -0.1566
 2940TIP3    H1 8826   4.584   0.559   0.622 -0.8446  1.3691  0.3865
 2940TIP3    H2 8827   4.673   0.679   0.646  1.6341 -0.2373 -0.3834
 2941TIP3   OH2 8828   6.156   1.670   1.381  0.1429  0.1265 -0.0965
 2941TIP3    H1 8829   6.119   1.677   1.293  0.0100  0.0671 -0.0474
 2941TIP3    H2 8830   6.129   1.583   1.410  1.8327 -0.6456 -0.7341
 2942TIP3   OH2 8831   5.504   3.591   2.817  0.0515  0.2197 -0.0770
 2942TIP3    H1 8832   5.467   3.575   2.730  0.2129  1.2630 -0.3422
 2942TIP3    H2 8833   5.598   3.603   2.801  0.3097 -0.9534  0.4196
 2943TIP3   OH2 8834   0.750   3.046   2.736  0.0978  0.1211  0.7183
 2943TIP3    H1 8835   0.787   3.000   2.660  0.9520 -0.2369  1.3400
 2943TIP3    H2 8836   0.764   2.986   2.809 -1.2959  0.1826  1.0683
 2944TIP3   OH2 8837   0.791   2.318   4.091  0.6886  0.4580  0.1560
 2944TIP3    H1 8838   0.754   2.236   4.058  0.9936  0.2106  0.4168
 2944TIP3    H2 8839   0.860   2.290   4.152  1.0964  0.9063 -0.0950
 2945TIP3   OH2 8840   6.346   5.587   0.928  0.6203  0.0235 -0.2611
 2945TIP3    H1 8841   6.299   5.547   1.000  2.3144  2.2606  2.2727
 2945TIP3    H2 8842   6.376   5.513   0.875 -1.5967 -1.6418  0.6670
 2946TIP3   OH2 8843   0.662   4.755   4.426 -0.1902  0.1348  0.3686
 2946TIP3    H1 8844   0.685   4.846   4.445 -2.3694  0.8181  0.0072
 2946TIP3    H2 8845   0.712   4.733   4.348 -0.6904  1.5126 -0.3730
 2947TIP3   OH2 8846   5.558   2.510   0.368  0.2170 -0.2196 -0.5934
 2947TIP3    H1 8847   5.525   2.522   0.279  0.1368  1.6067 -0.3567
 2947TIP3    H2 8848   5.485   2.536   0.424  0.2613 -1.3719  0.0222
 2948TIP3   OH2 8849   6.182   5.494   2.536  0.0716 -0.4212  0.3914
 2948TIP3    H1 8850   6.224   5.507   2.451  2.0853 -2.2594  1.0018
 2948TIP3    H2 8851   6.108   5.435   2.518  0.4249 -0.7157 -0.1175
 2949TIP3   OH2 8852   2.820   5.254   0.347 -0.9405 -0.0429  0.0655
 2949TIP3    H1 8853   2.793   5.175   0.299 -0.5766  0.6133 -1.2830
 2949TIP3    H2 8854   2.913   5.239   0.366 -0.7390  0.2610 -0.6429
 2950TIP3   OH2 8855   3.762   5.527   2.284  0.8806 -0.6257 -0.4052
 2950TIP3    H1 8856   3.723   5.448   2.247  0.3602 -0.9608  0.8250
 2950TIP3    H2 8857   3.831   5.496   2.342 -1.5534 -0.4837  2.8435
 2951TIP3   OH2 8858   0.807   1.413   3.873  0.0022 -0.0407  0.1405
 2951TIP3    H1 8859   0.895   1.390   3.843 -0.5860 -0.2309 -1.5557
 2951TIP3    H2 8860   0.773   1.471   3.805 -1.5524 -0.7955  0.2424
 2952TIP3   OH2 8861   4.135   1.067   0.791 -0.5722  0.2308 -0.5795
 2952TIP3    H1 8862   4.179   1.109   0.716  1.3206  1.9585  1.3626
 2952TIP3    H2 8863   4.164   0.976   0.787  0.7665  0.6518 -1.0994
 2953TIP3   OH2 8864   1.440   1.242   2.191  0.0772  0.0511  0.0562
 2953TIP3    H1 8865   1.367   1.180   2.184  0.2425 -0.7987  3.6927
 2953TIP3    H2 8866   1.517   1.190   2.170 -0.0246 -0.2303  0.3671
 2954TIP3   OH2 8867   0.445   0.656   4.244 -0.2866  0.0083  0.3069
 2954TIP3    H1 8868   0.400   0.572   4.247  0.0056 -0.1359  0.8422
 2954TIP3    H2 8869   0.423   0.697   4.328 -1.3795  0.9670 -0.4139
 2955TIP3   OH2 8870   5.824   0.480   3.932 -0.4753 -0.1825 -0.7347
 2955TIP3    H1 8871   5.800   0.405   3.987  0.0543 -0.8872 -1.4436
 2955TIP3    H2 8872   5.797   0.556   3.983 -2.7464 -0.8779 -0.8133
 2956TIP3   OH2 8873   2.102   0.142   3.325 -0.1236 -0.3487  0.2915
 2956TIP3    H1 8874   2.067   0.099   3.403 -1.6275  1.3928  0.6528
 2956TIP3    H2 8875   2.039   0.212   3.306  0.8309  0.0163 -1.7985
 2957TIP3   OH2 8876   2.754   0.415   3.288  0.4285  0.3180 -0.1745
 2957TIP3    H1 8877   2.813   0.389   3.217  0.5178  2.6188 -1.0592
 2957TIP3    H2 8878   2.673   0.438   3.243  0.0241  0.4982  0.6340
 2958TIP3   OH2 8879   3.265   4.995   1.055 -0.1075  0.3257  0.5352
 2958TIP3    H1 8880   3.287   4.926   0.992  0.7813  1.1794 -0.1070
 2958TIP3    H2 8881   3.189   4.960   1.102  1.0496 -1.6368  1.0865
 2959TIP3   OH2 8882   6.276   1.075   0.311 -0.2651 -0.3919 -0.9224
 2959TIP3    H1 8883   6.203   1.113   0.263 -1.2445  0.5921  1.2240
 2959TIP3    H2 8884   6.329   1.150   0.337 -0.2478 -0.8131  0.2938
 2960TIP3   OH2 8885   0.408   0.747   5.095 -0.6977  0.0226  0.0323
 2960TIP3    H1 8886   0.492   0.792   5.109 -0.3065 -0.3979 -0.8585
 2960TIP3    H2 8887   0.361   0.802   5.033  0.6415 -1.7294 -2.7371
 2961TIP3   OH2 8888   2.860   3.975   4.170  0.0375 -0.5542 -0.1667
 2961TIP3    H1 8889   2.929   4.009   4.226 -0.1775 -0.3696 -0.0126
 2961TIP3    H2 8890   2.890   3.993   4.081 -0.0591  0.0209 -0.0895
 2962TIP3   OH2 8891   2.847   2.510   1.112 -0.0809 -0.1507  0.4318
 2962TIP3    H1 8892   2.773   2.509   1.051 -1.7624  0.6569  2.3329
 2962TIP3    H2 8893   2.899   2.433   1.087 -2.2859 -1.5658 -0.1601
 2963TIP3   OH2 8894   3.774   1.629   2.574  0.3485 -0.2181 -0.4879
 2963TIP3    H1 8895   3.761   1.595   2.663  0.1605 -0.8458 -0.7507
 2963TIP3    H2 8896   3.739   1.560   2.517  0.9969 -0.0709 -1.0665
 2964TIP3   OH2 8897   0.325   1.776   4.410  0.1833 -0.1966  0.0892
 2964TIP3    H1 8898   0.326   1.738   4.498  0.7945 -1.4258 -0.4389
 2964TIP3    H2 8899   0.241   1.747   4.373  0.4506 -0.6496 -0.1559
 2965TIP3   OH2 8900   5.102   0.745   3.336  0.3937  0.0566  0.4215
 2965TIP3    H1 8901   5.013   0.779   3.336  0.1951 -0.4304 -0.8520
 2965TIP3    H2 8902   5.092   0.652   3.357  0.6636  0.1200  0.8513
 2966TIP3   OH2 8903   3.330   4.300   4.964 -0.4208  0.6318  0.8050
 2966TIP3    H1 8904   3.340   4.326   4.873  3.2007  1.2366  1.2324
 2966TIP3    H2 8905   3.341   4.382   5.014  0.9899 -0.1287  1.8277
 2967TIP3   OH2 8906   3.013   5.685   1.630 -0.2387  0.3889  0.0492
 2967TIP3    H1 8907   2.931   5.657   1.670 -0.1552 -0.8843 -0.6245
 2967TIP3    H2 8908   2.987   5.738   1.554 -0.4121  1.0010  0.5296
 2968TIP3   OH2 8909   3.731   5.860   1.383  0.1758  0.1073  0.1017
 2968TIP3    H1 8910   3.637   5.876   1.391  0.1780  0.1947 -0.0231
 2968TIP3    H2 8911   3.771   5.933   1.429  0.1868  0.5574 -0.5963
 2969TIP3   OH2 8912   1.130   2.657   2.103 -0.0223  0.5262  0.3540
 2969TIP3    H1 8913   1.062   2.591   2.091 -0.9726  1.7434 -1.3662
 2969TIP3    H2 8914   1.082   2.739   2.110  1.2582  1.3937 -0.7778
 2970TIP3   OH2 8915   1.368   5.330   4.058  0.3613 -0.1429 -0.0453
 2970TIP3    H1 8916   1.311   5.261   4.023 -0.6349  1.0165 -0.7708
 2970TIP3    H2 8917   1.310   5.384   4.112  0.8997  0.7173 -0.3085
 2971TIP3   OH2 8918   0.454   2.054   3.995 -0.2574  0.2486 -0.2894
 2971TIP3    H1 8919   0.384   2.020   4.051  1.1951 -1.4914  0.5980
 2971TIP3    H2 8920   0.535   2.032   4.043  0.9687  0.3388 -2.2195
 2972TIP3   OH2 8921   1.621   3.276   3.799 -1.2505  0.3390 -0.0588
 2972TIP3    H1 8922   1.575   3.220   3.737 -0.3780  0.9549 -1.2996
 2972TIP3    H2 8923   1.565   3.354   3.807 -0.0350  1.5594 -2.3779
 2973TIP3   OH2 8924   5.020   1.439   2.338  0.5034 -0.4588 -0.0294
 2973TIP3    H1 8925   4.947   1.487   2.298  1.8416  0.3596 -1.6068
 2973TIP3    H2 8926   5.061   1.502   2.397  1.3959 -0.0845 -1.0191
 2974TIP3   OH2 8927   4.622   5.304   2.430  0.1398 -0.1754  0.0415
 2974TIP3    H1 8928   4.550   5.242   2.421  1.4659 -1.7059 -0.5431
 2974TIP3    H2 8929   4.698   5.250   2.454  1.1722  1.3240  0.3073
 2975TIP3   OH2 8930   0.708   3.084   0.814  0.3793 -0.2341  0.5785
 2975TIP3    H1 8931   0.675   2.999   0.785  2.5454  0.0415 -3.4754
 2975TIP3    H2 8932   0.754   3.066   0.896  1.2573 -3.1792 -0.4217
 2976TIP3   OH2 8933   5.111   5.071   2.790 -0.3336 -0.1523  0.2839
 2976TIP3    H1 8934   5.077   5.131   2.856 -0.2117 -0.3729  0.5512
 2976TIP3    H2 8935   5.087   4.984   2.822  1.6560 -0.4217  1.1986
 2977TIP3   OH2 8936   2.787   4.191   2.686  0.1526 -0.3709  0.5880
 2977TIP3    H1 8937   2.733   4.264   2.716 -0.4140 -0.6408  0.2206
 2977TIP3    H2 8938   2.875   4.213   2.717 -0.2854 -0.2805  1.8323
 2978TIP3   OH2 8939   0.019   2.288   2.527 -0.2604 -0.3551  0.1736
 2978TIP3    H1 8940   0.044   2.201   2.557 -0.3009 -0.7364 -0.8451
 2978TIP3    H2 8941   0.050   2.347   2.595 -0.2180 -1.1611  0.8702
 2979TIP3   OH2 8942   4.201   3.378   4.363  0.2803 -0.1186 -0.1929
 2979TIP3    H1 8943   4.202   3.469   4.335  0.7300  0.2774  1.0371
 2979TIP3    H2 8944   4.266   3.335   4.307  1.2070  0.6593  0.2593
 2980TIP3   OH2 8945   1.398   2.691   0.550 -0.5846  0.2547  0.3949
 2980TIP3    H1 8946   1.381   2.785   0.562 -2.0759 -0.0006  0.5875
 2980TIP3    H2 8947   1.476   2.687   0.496 -0.2244  1.6046  0.7768
 2981TIP3   OH2 8948   3.393   0.843   1.843 -0.3733 -0.2989  0.1409
 2981TIP3    H1 8949   3.407   0.912   1.908 -0.5592  0.5434 -0.6942
 2981TIP3    H2 8950   3.399   0.762   1.893 -0.9274  0.3386  1.2981
 2982TIP3   OH2 8951   1.928   2.835   2.712 -0.2000  0.2186  0.1672
 2982TIP3    H1 8952   1.971   2.913   2.677 -0.8022  0.2302 -0.5635
 2982TIP3    H2 8953   1.906   2.782   2.636  0.5516 -0.8760  0.6779
 2983TIP3   OH2 8954   5.811   1.534   4.786  0.0991  0.7209 -0.7908
 2983TIP3    H1 8955   5.851   1.613   4.748  3.3887 -1.1473 -1.6181
 2983TIP3    H2 8956   5.832   1.539   4.879  1.5645  0.2159 -1.0672
 2984TIP3   OH2 8957   4.005   4.412   4.102 -0.3582  0.0081  0.1686
 2984TIP3    H1 8958   3.977   4.413   4.193  1.7177  3.8672  0.9708
 2984TIP3    H2 8959   4.100   4.406   4.106 -0.2868 -2.4476 -1.9935
 2985TIP3   OH2 8960   3.132   4.407   2.360 -0.8585  0.1648 -0.2497
 2985TIP3    H1 8961   3.038   4.389   2.368 -0.9165  0.8565  0.9340
 2985TIP3    H2 8962   3.145   4.423   2.267 -2.1907  1.4291 -0.2590
 2986TIP3   OH2 8963   4.647   4.043   0.278 -0.1122 -1.0320 -0.0119
 2986TIP3    H1 8964   4.566   4.009   0.317 -0.5391 -1.0593 -0.9073
 2986TIP3    H2 8965   4.625   4.056   0.186  0.0891  1.5006  0.2416
 2987TIP3   OH2 8966   2.912   3.324   1.051 -0.0572 -0.5128  0.0677
 2987TIP3    H1 8967   2.839   3.271   1.084 -1.4196  1.3988  0.3086
 2987TIP3    H2 8968   2.942   3.278   0.973 -0.9499 -1.8078  0.4652
 2988TIP3   OH2 8969   5.449   1.316   1.087  0.5960 -0.3129  0.1219
 2988TIP3    H1 8970   5.537   1.292   1.116  0.6314 -1.0673 -0.5719
 2988TIP3    H2 8971   5.405   1.348   1.166  1.9483  1.5230  0.2063
 2989TIP3   OH2 8972   3.469   2.373   4.412  0.3363 -0.3398 -0.3826
 2989TIP3    H1 8973   3.375   2.392   4.404  0.1243 -1.3269 -0.3486
 2989TIP3    H2 8974   3.491   2.329   4.330  0.8489  0.1467 -0.5152
 2990TIP3   OH2 8975   2.185   1.399   3.773  0.2311  0.0748  0.5120
 2990TIP3    H1 8976   2.091   1.415   3.763  0.1136 -0.0896  1.3132
 2990TIP3    H2 8977   2.221   1.413   3.685 -0.5044  0.3788  0.2517
 2991TIP3   OH2 8978   5.118   1.522   1.945  0.1345 -0.4221 -0.6258
 2991TIP3    H1 8979   5.059   1.481   2.007  0.1077  1.2411  0.5274
 2991TIP3    H2 8980   5.061   1.573   1.887  0.3405  0.3218 -0.1881
 2992TIP3   OH2 8981   2.424   2.842   2.477 -0.3438  0.1168 -0.0687
 2992TIP3    H1 8982   2.429   2.828   2.572 -0.4779  3.5781  0.5781
 2992TIP3    H2 8983   2.340   2.804   2.452 -1.4509  1.2472  1.6911
 2993TIP3   OH2 8984   1.073   4.215   2.387  0.1514 -0.5508 -0.3076
 2993TIP3    H1 8985   1.071   4.123   2.415  0.2795 -0.3597  0.3428
 2993TIP3    H2 8986   1.155   4.223   2.338  0.5562 -0.5778  0.3604
 2994TIP3   OH2 8987   4.733   5.057   3.666 -0.0190  0.1254 -0.1892
 2994TIP3    H1 8988   4.693   5.135   3.704 -1.1598  0.3175 -1.7088
 2994TIP3    H2 8989   4.789   5.091   3.596  0.4403 -0.3499 -0.0578
 2995TIP3   OH2 8990   2.442   5.699   1.405 -0.8076  0.3340  0.1366
 2995TIP3    H1 8991   2.417   5.788   1.427 -0.1304  0.6605 -0.3880
 2995TIP3    H2 8992   2.363   5.661   1.366 -0.9296  0.8916 -0.1746
 2996TIP3   OH2 8993   1.840   2.409   3.674  0.3376  0.4077  0.2912
 2996TIP3    H1 8994   1.749   2.381   3.667  0.0196  1.7278 -1.8654
 2996TIP3    H2 8995   1.864   2.392   3.765 -2.2980  0.6974  1.1208
 2997TIP3   OH2 8996   0.174   1.556   0.674 -0.5864  0.0974  0.2047
 2997TIP3    H1 8997   0.206   1.592   0.756 -2.0470 -0.6003  1.1259
 2997TIP3    H2 8998   0.103   1.497   0.699 -1.2138  0.0146 -1.5709
 2998TIP3   OH2 8999   3.960   4.587   3.169 -0.2083 -0.6798 -0.4553
 2998TIP3    H1 9000   4.041   4.637   3.182 -1.8381  1.6667  1.7799
 2998TIP3    H2 9001   3.981   4.499   3.200  0.8037  0.6060  3.0964
 2999TIP3   OH2 9002   2.339   2.020   0.953  0.5100  0.5375 -0.5986
 2999TIP3    H1 9003   2.256   2.058   0.982  0.0979  0.3677 -1.5189
 2999TIP3    H2 9004   2.399   2.095   0.950  0.2209  0.7751 -0.5498
 3000TIP3   OH2 9005   2.488   0.949   2.707  0.0048  0.5877 -0.9290
 3000TIP3    H1 9006   2.472   0.855   2.710 -1.9312  0.8926  0.6240
 3000TIP3    H2 9007   2.407   0.987   2.674 -0.4460  1.8831  1.4233
 3001TIP3   OH2 9008   3.034   3.279   2.310 -0.5920  0.5448 -0.3057
 3001TIP3    H1 9009   3.024   3.374   2.320  2.9514  0.8141  2.9104
 3001TIP3    H2 9010   2.960   3.242   2.359 -0.3247  1.7585  1.0935
 3002TIP3   OH2 9011   4.829   5.489   2.743 -0.1617 -0.0875 -0.3582
 3002TIP3    H1 9012   4.742   5.453   2.759 -0.9535  1.6933 -0.4218
 3002TIP3    H2 9013   4.873   5.423   2.690 -1.0312 -1.5521  0.6661
 3003TIP3   OH2 9014   0.875   2.792   4.522  0.3268 -0.0682  0.0482
 3003TIP3    H1 9015   0.909   2.741   4.595  0.2533  0.2392  0.2951
 3003TIP3    H2 9016   0.912   2.879   4.534  1.1643 -0.2786 -0.8599
 3004TIP3   OH2 9017   2.995   0.150   4.178  0.3559  0.4773 -0.9371
 3004TIP3    H1 9018   3.046   0.223   4.145  0.9669  0.3673 -0.2599
 3004TIP3    H2 9019   2.904   0.175   4.162  0.5160  1.7329 -0.0111
 3005TIP3   OH2 9020   2.254   2.406   2.524  0.0055  0.0330  0.6840
 3005TIP3    H1 9021   2.224   2.362   2.604 -1.8502 -1.3502 -0.7029
 3005TIP3    H2 9022   2.235   2.345   2.454  1.6619  1.1846 -0.8710
 3006TIP3   OH2 9023   1.042   0.067   4.460  0.2076 -0.0659  0.5785
 3006TIP3    H1 9024   1.088   0.144   4.428 -1.3331  1.5228  1.9767
 3006TIP3    H2 9025   1.000   0.030   4.382 -0.0150  1.2318  0.0575
 3007TIP3   OH2 9026   4.819   0.247   0.920  0.4642  0.2340  0.1951
 3007TIP3    H1 9027   4.881   0.185   0.957  1.3371  0.4911 -0.7690
 3007TIP3    H2 9028   4.796   0.305   0.992  1.7497  0.4404  0.4617
 3008TIP3   OH2 9029   2.120   5.020   4.792  0.3735  0.2657  0.2756
 3008TIP3    H1 9030   2.159   5.033   4.878 -1.3049 -2.3303  1.5452
 3008TIP3    H2 9031   2.069   5.100   4.777  1.4740  1.1788  1.2171
 3009TIP3   OH2 9032   2.026   4.161   1.066  0.2108 -0.1121  0.2701
 3009TIP3    H1 9033   1.948   4.175   1.121  1.1431  0.4111  1.5218
 3009TIP3    H2 9034   2.000   4.093   1.004 -0.6730 -1.2903  1.8484
 3010TIP3   OH2 9035   3.330   2.300   4.957 -0.0672  0.3089 -0.1836
 3010TIP3    H1 9036   3.400   2.357   4.988 -0.0560  0.5497 -0.6347
 3010TIP3    H2 9037   3.314   2.239   5.029  1.2255 -0.3209 -0.4113
 3011TIP3   OH2 9038   2.707   4.705   3.454  0.6565 -0.1510  0.2911
 3011TIP3    H1 9039   2.780   4.649   3.428 -0.2844 -1.5508  0.5434
 3011TIP3    H2 9040   2.678   4.745   3.372  1.4494  0.1227  0.1327
 3012TIP3   OH2 9041   0.080   1.743   4.279  0.0680 -0.8016  0.5060
 3012TIP3    H1 9042   0.059   1.796   4.201  0.4001 -1.0617  0.2398
 3012TIP3    H2 9043   0.015   1.673   4.278 -1.0741  0.1969  1.4647
 3013TIP3   OH2 9044   1.101   1.399   5.086 -0.2109  0.0331  0.1325
 3013TIP3    H1 9045   1.183   1.403   5.037 -0.2388  0.3509  0.1098
 3013TIP3    H2 9046   1.083   1.489   5.112  0.7780 -0.3408  2.3522
 3014TIP3   OH2 9047   4.723   1.286   1.150  0.3606 -0.1471  0.3870
 3014TIP3    H1 9048   4.773   1.253   1.075  0.3908  1.9596 -0.5688
 3014TIP3    H2 9049   4.790   1.318   1.211  0.2622  0.4117  0.2033
 3015TIP3   OH2 9050   1.756   3.310   4.169  0.2337 -0.0078 -0.7563
 3015TIP3    H1 9051   1.705   3.268   4.239 -1.2780  1.5695 -0.8317
 3015TIP3    H2 9052   1.700   3.382   4.139  1.6852  0.5488 -2.2703
 3016TIP3   OH2 9053   6.015   1.595   0.816  0.2361  0.2023  0.0208
 3016TIP3    H1 9054   5.990   1.621   0.727 -0.9879  0.9613  0.5474
 3016TIP3    H2 9055   6.043   1.504   0.808 -1.3462 -0.2543 -0.9244
 3017TIP3   OH2 9056   0.521   3.796   1.024 -0.0292  0.3886  0.4229
 3017TIP3    H1 9057   0.482   3.726   0.972  1.2422  0.8196 -1.2105
 3017TIP3    H2 9058   0.466   3.872   1.007 -1.5161 -0.1846  2.3382
 3018TIP3   OH2 9059   5.177   5.609   4.965 -0.3198 -0.1032  0.2525
 3018TIP3    H1 9060   5.094   5.641   4.930 -1.4091 -3.0773 -0.1624
 3018TIP3    H2 9061   5.239   5.619   4.893  0.2486  3.5402  1.0180
 3019TIP3   OH2 9062   2.357   0.454   0.510  0.1084  0.2854 -0.1963
 3019TIP3    H1 9063   2.321   0.373   0.473  2.3946 -1.1406  0.5060
 3019TIP3    H2 9064   2.379   0.507   0.433  0.2775 -0.5477 -0.7436
 3020TIP3   OH2 9065   0.037   3.042   3.188 -0.1424 -0.2734  0.4850
 3020TIP3    H1 9066   0.026   2.947   3.182 -0.1922 -0.2990  0.9711
 3020TIP3    H2 9067   0.040   3.071   3.097  1.8424 -0.9826  0.2671
 3021TIP3   OH2 9068   3.885   5.340   3.990  0.6222  0.0230  0.3025
 3021TIP3    H1 9069   3.934   5.258   3.999 -1.5645 -1.7259 -2.2055
 3021TIP3    H2 9070   3.798   5.320   4.024  0.4950  1.9072  1.2284
 3022TIP3   OH2 9071   0.200   4.678   0.281 -0.1857  0.4493 -0.1276
 3022TIP3    H1 9072   0.106   4.669   0.267  0.0586 -1.1497 -0.9679
 3022TIP3    H2 9073   0.220   4.615   0.351  0.5847 -1.0461 -1.6079
 3023TIP3   OH2 9074   6.311   2.051   3.640  0.5835 -0.0221 -0.2089
 3023TIP3    H1 9075   6.295   2.143   3.619 -0.2512  0.4800  2.2620
 3023TIP3    H2 9076   6.381   2.052   3.705  0.1545 -1.0466  0.3106
 3024TIP3   OH2 9077   1.321   1.331   0.423 -0.1818 -0.1132  0.0183
 3024TIP3    H1 9078   1.299   1.277   0.348  0.1157 -0.5404  0.2333
 3024TIP3    H2 9079   1.256   1.308   0.489 -0.9001  0.8057 -0.3529
 3025TIP3   OH2 9080   5.383   4.684   3.643 -0.0445  0.3371 -0.1521
 3025TIP3    H1 9081   5.438   4.748   3.597  3.3239 -1.0154  1.6332
 3025TIP3    H2 9082   5.358   4.621   3.575 -0.9158  1.8700 -1.3385
 3026TIP3   OH2 9083   1.376   4.592   3.358  0.7236 -0.3270  0.0734
 3026TIP3    H1 9084   1.396   4.680   3.327  1.8743 -0.2215  1.0463
 3026TIP3    H2 9085   1.296   4.602   3.409  1.8326  0.5314  1.7196
 3027TIP3   OH2 9086   5.201   4.071   2.310 -0.5090 -0.5262  0.2964
 3027TIP3    H1 9087   5.221   4.078   2.216 -0.6324  3.2164  0.3797
 3027TIP3    H2 9088   5.109   4.046   2.312 -0.8268  0.4698 -0.6637
 3028TIP3   OH2 9089   1.568   1.583   1.511 -0.6069  0.4470 -0.4048
 3028TIP3    H1 9090   1.499   1.516   1.509 -0.4230  0.1915  0.9326
 3028TIP3    H2 9091   1.646   1.535   1.538 -0.7388  1.3918  1.8268
 3029TIP3   OH2 9092   6.044   0.053   5.080  0.0355  0.2760  0.5696
 3029TIP3    H1 9093   6.008   0.109   5.148 -1.2014  1.4608 -0.9818
 3029TIP3    H2 9094   6.089  -0.017   5.128 -0.2582  1.3789  2.5660
 3030TIP3   OH2 9095   2.387   0.601   2.346 -0.3777 -0.2063  0.0207
 3030TIP3    H1 9096   2.327   0.549   2.292  0.8598  0.5190 -2.2308
 3030TIP3    H2 9097   2.352   0.690   2.342  0.3952  0.0864 -0.7201
 3031TIP3   OH2 9098   6.136   1.926   2.918 -0.2486 -0.1602 -0.2461
 3031TIP3    H1 9099   6.063   1.986   2.933 -1.1244 -1.3230  0.3228
 3031TIP3    H2 9100   6.145   1.923   2.822  1.2901  2.5269 -0.2945
 3032TIP3   OH2 9101   1.462   4.967   5.030  0.0863 -0.3890  0.5810
 3032TIP3    H1 9102   1.442   4.879   4.997  0.6885 -0.1993 -0.3261
 3032TIP3    H2 9103   1.377   5.009   5.041 -0.1642 -0.8062  0.2445
 3033TIP3   OH2 9104   1.366   1.687   0.824 -0.0537 -0.0442  0.2984
 3033TIP3    H1 9105   1.274   1.712   0.832 -0.4014 -1.4856  1.2341
 3033TIP3    H2 9106   1.414   1.770   0.829 -1.2514  0.6454  0.7437
 3034TIP3   OH2 9107   2.447   2.067   4.604 -0.3217 -0.3486 -0.0767
 3034TIP3    H1 9108   2.520   2.039   4.659 -1.0998 -0.6200  0.8291
 3034TIP3    H2 9109   2.416   1.987   4.562 -0.6822 -0.3792  0.2483
 3035TIP3   OH2 9110   5.778   2.527   4.371  0.1993  0.3026  0.2436
 3035TIP3    H1 9111   5.806   2.464   4.306  3.5987  0.4030  1.4203
 3035TIP3    H2 9112   5.773   2.610   4.324 -2.3769 -0.4170 -0.8798
 3036TIP3   OH2 9113   0.232   4.179   1.667  0.1383 -0.4565 -0.4675
 3036TIP3    H1 9114   0.191   4.241   1.608 -0.9822  0.5412  1.2662
 3036TIP3    H2 9115   0.164   4.115   1.686 -0.8969  1.3154  2.5820
 3037TIP3   OH2 9116   5.016   4.674   1.988  0.3635  0.5707 -0.6486
 3037TIP3    H1 9117   4.946   4.609   1.999  0.6512  0.4210  0.3807
 3037TIP3    H2 9118   5.071   4.637   1.918  0.0243  0.1578 -0.7070
 3038TIP3   OH2 9119   2.656   3.789   3.662  0.0478 -0.1065 -0.3175
 3038TIP3    H1 9120   2.622   3.719   3.718 -0.0486  0.2562  0.0785
 3038TIP3    H2 9121   2.579   3.820   3.615  0.2929 -1.1020 -1.4338
 3039TIP3   OH2 9122   2.334   0.269   2.347 -0.2849  0.0847  0.8249
 3039TIP3    H1 9123   2.415   0.317   2.331 -1.1026  1.2024 -0.1155
 3039TIP3    H2 9124   2.339   0.244   2.439  0.2441  1.8747  1.3187
 3040TIP3   OH2 9125   0.087   5.335   0.591 -0.0714  0.0826  0.3917
 3040TIP3    H1 9126   0.006   5.373   0.624 -1.7168 -1.8943 -1.1331
 3040TIP3    H2 9127   0.087   5.354   0.498  0.7818 -0.6952  0.2149
 3041TIP3   OH2 9128   5.918   0.257   4.777 -0.3629  0.3622 -0.6736
 3041TIP3    H1 9129   5.866   0.201   4.836  0.7615  0.0201  0.0222
 3041TIP3    H2 9130   5.958   0.196   4.715 -0.0961  0.5283 -0.6642
 3042TIP3   OH2 9131   3.254   2.079   4.825 -0.5228 -0.0078 -0.0039
 3042TIP3    H1 9132   3.296   2.165   4.817 -1.1189  0.2757 -0.0814
 3042TIP3    H2 9133   3.256   2.043   4.736 -1.8093  0.6500 -0.3143
 3043TIP3   OH2 9134   1.531   0.449   3.630  0.0102 -0.2392 -0.5786
 3043TIP3    H1 9135   1.601   0.514   3.629 -0.5856  0.4192 -0.2470
 3043TIP3    H2 9136   1.513   0.432   3.538  2.1051 -2.0943 -0.7451
 3044TIP3   OH2 9137   2.681   4.706   0.988 -0.0577 -0.1359 -0.0134
 3044TIP3    H1 9138   2.631   4.645   0.933  1.7971 -1.7471 -0.0188
 3044TIP3    H2 9139   2.726   4.650   1.051  2.4123  1.0952 -0.5551
 3045TIP3   OH2 9140   2.472   2.464   4.503 -0.2155 -0.1435  0.4089
 3045TIP3    H1 9141   2.393   2.518   4.515 -0.8132 -0.8969 -0.0627
 3045TIP3    H2 9142   2.535   2.523   4.463  0.3392  1.2046  2.9907
 3046TIP3   OH2 9143   0.227  -0.001   1.207 -0.0911  0.2293 -0.3668
 3046TIP3    H1 9144   0.277   0.064   1.255  1.2461 -0.2374 -1.0905
 3046TIP3    H2 9145   0.265  -0.002   1.119 -0.5218 -1.0481 -0.5665
 3047TIP3   OH2 9146   5.979   0.579   0.917  0.0180 -0.1606  0.4083
 3047TIP3    H1 9147   5.969   0.541   0.830  1.6567 -3.2785  1.4167
 3047TIP3    H2 9148   5.986   0.673   0.902 -0.4670 -0.5234 -2.7219
 3048TIP3   OH2 9149   0.922   4.163   2.011  0.2405 -0.4275 -0.2613
 3048TIP3    H1 9150   0.856   4.168   1.941  1.5030  0.7782 -1.4390
 3048TIP3    H2 9151   1.006   4.162   1.965  1.0866 -1.5734  1.2116
 3049TIP3   OH2 9152   3.595   0.343   2.425  0.3750 -0.1555 -0.4839
 3049TIP3    H1 9153   3.520   0.323   2.481  1.7089 -0.6118  1.2428
 3049TIP3    H2 9154   3.562   0.407   2.362 -1.1030  0.7556  1.1319
 3050TIP3   OH2 9155   2.581   5.117   3.358  0.0865  0.0026 -0.2682
 3050TIP3    H1 9156   2.624   5.193   3.319  0.4048  0.3509  0.7337
 3050TIP3    H2 9157   2.649   5.076   3.411  0.0434 -1.2549 -1.1456
 3051TIP3   OH2 9158   1.569   1.281   3.519  0.6470  0.1772 -0.0690
 3051TIP3    H1 9159   1.572   1.211   3.584  3.0935  1.9623  1.9341
 3051TIP3    H2 9160   1.648   1.270   3.467  0.7915  1.0941 -0.0696
 3052TIP3   OH2 9161   4.385   2.415   0.477  0.4192  0.0533 -0.0261
 3052TIP3    H1 9162   4.478   2.413   0.497 -0.1310 -0.3075  2.9356
 3052TIP3    H2 9163   4.359   2.323   0.473 -0.2222  0.0991  1.8300
 3053TIP3   OH2 9164   5.451   0.736   0.244 -0.4628 -0.4793  0.1703
 3053TIP3    H1 9165   5.393   0.697   0.178 -0.4136  0.1058 -0.2252
 3053TIP3    H2 9166   5.434   0.686   0.324 -1.9791  0.0967  0.2252
 3054TIP3   OH2 9167   1.533   1.025   1.455  0.2930 -0.2873 -0.1026
 3054TIP3    H1 9168   1.550   1.037   1.362 -0.2690 -0.9343 -0.2922
 3054TIP3    H2 9169   1.620   1.016   1.494  0.6882  2.3201 -0.2043
 3055TIP3   OH2 9170   1.629   5.805   1.888  0.1368  0.2866  0.0928
 3055TIP3    H1 9171   1.611   5.893   1.854  2.3414  0.5812 -0.4770
 3055TIP3    H2 9172   1.634   5.750   1.810  4.5138  0.8284 -0.2482
 3056TIP3   OH2 9173   1.661   0.833   4.755 -0.5540  0.4409  0.0122
 3056TIP3    H1 9174   1.603   0.831   4.830 -0.3707 -0.4579  0.1410
 3056TIP3    H2 9175   1.748   0.815   4.791 -0.6536 -1.3359 -0.5661
 3057TIP3   OH2 9176   5.578   2.160   0.971  0.1690 -0.0803  0.2160
 3057TIP3    H1 9177   5.655   2.167   1.028  1.1173 -0.9556 -0.8993
 3057TIP3    H2 9178   5.564   2.066   0.962 -1.2932  0.0709  0.7092
 3058TIP3   OH2 9179   2.067   4.558   4.326  0.1026 -0.1523  0.4828
 3058TIP3    H1 9180   2.039   4.525   4.241  1.1719  0.0282  0.0525
 3058TIP3    H2 9181   2.092   4.479   4.375  1.6019 -0.1137 -0.1606
 3059TIP3   OH2 9182   2.574   3.937   0.411  0.3518 -0.0671 -0.7706
 3059TIP3    H1 9183   2.538   4.022   0.385  2.4492  0.6118 -1.6486
 3059TIP3    H2 9184   2.638   3.957   0.479  0.9356 -0.9290 -1.0484
 3060TIP3   OH2 9185   2.666   0.488   4.677 -0.5068 -0.0380  0.2166
 3060TIP3    H1 9186   2.591   0.502   4.735  1.0570  0.6869  2.1833
 3060TIP3    H2 9187   2.670   0.566   4.623  0.1151  0.9898  1.6806
 3061TIP3   OH2 9188   3.724   4.958   2.859 -0.4546  0.4345 -0.1254
 3061TIP3    H1 9189   3.771   4.900   2.919  0.7926  0.5634 -0.9361
 3061TIP3    H2 9190   3.633   4.930   2.865 -0.0709 -0.7740  0.4427
 3062TIP3   OH2 9191   3.041   2.152   3.357 -0.4273  0.0748  0.1651
 3062TIP3    H1 9192   3.052   2.125   3.266  0.5567 -1.1179  0.6065
 3062TIP3    H2 9193   2.995   2.236   3.352 -0.5838 -0.0751 -1.4114
 3063TIP3   OH2 9194   4.554   4.063   2.344  0.0677 -0.1803  0.0379
 3063TIP3    H1 9195   4.477   4.076   2.289  0.0466  1.1788  0.3493
 3063TIP3    H2 9196   4.628   4.083   2.287  0.0449  1.2583  0.4700
 3064TIP3   OH2 9197   1.633   5.232   4.402 -0.0036  0.2894 -0.0725
 3064TIP3    H1 9198   1.556   5.190   4.443  0.7913  0.4146  1.6645
 3064TIP3    H2 9199   1.633   5.321   4.437 -0.4448  1.0988 -2.0348
 3065TIP3   OH2 9200   1.418   0.783   2.538 -0.0590  0.3363  0.1370
 3065TIP3    H1 9201   1.342   0.725   2.534  0.4984 -1.0309  4.2952
 3065TIP3    H2 9202   1.482   0.743   2.479 -0.3541 -2.3883  1.5161
 3066TIP3   OH2 9203   4.632   1.664   4.168  0.3577  0.2628 -0.0359
 3066TIP3    H1 9204   4.547   1.626   4.147 -0.4199  1.9768 -0.1680
 3066TIP3    H2 9205   4.656   1.624   4.251 -0.1214 -0.9395 -0.4536
 3067TIP3   OH2 9206   5.696   1.981   4.959 -0.0155  0.3555  0.2732
 3067TIP3    H1 9207   5.600   1.974   4.965 -0.0858 -0.4200 -1.0912
 3067TIP3    H2 9208   5.728   1.906   5.009 -0.0524  1.2166  1.6425
 3068TIP3   OH2 9209   5.193   2.267   4.556  0.1629 -0.2289  0.5557
 3068TIP3    H1 9210   5.168   2.186   4.511 -0.4904  0.7051 -0.8497
 3068TIP3    H2 9211   5.128   2.278   4.625 -0.8990  0.0696 -0.4741
 3069TIP3   OH2 9212   3.360   3.613   3.756  0.1707  0.5894 -0.2237
 3069TIP3    H1 9213   3.335   3.616   3.848  1.2437 -0.1878  0.1202
 3069TIP3    H2 9214   3.445   3.569   3.756  0.1890  0.5792 -1.5852
 3070TIP3   OH2 9215   5.697   0.034   5.114 -0.2170 -0.2822  1.1114
 3070TIP3    H1 9216   5.752   0.019   5.191  2.0261 -0.4371 -0.4020
 3070TIP3    H2 9217   5.716   0.124   5.089  1.2017 -1.0077 -0.7092
 3071TIP3   OH2 9218   4.857   5.412   0.958 -0.1066  0.2987  0.0532
 3071TIP3    H1 9219   4.864   5.364   0.876  0.1856  2.4176 -1.2409
 3071TIP3    H2 9220   4.842   5.344   1.025  0.0513 -1.5131 -1.6630
 3072TIP3   OH2 9221   2.633   1.184   0.409 -0.4721 -0.2464  0.5256
 3072TIP3    H1 9222   2.546   1.154   0.436 -1.5847  2.6808  0.5025
 3072TIP3    H2 9223   2.646   1.145   0.323 -1.5005 -1.1988  0.7809
 3073TIP3   OH2 9224   5.060   0.568   3.821  0.1301  0.0715  0.4084
 3073TIP3    H1 9225   4.967   0.546   3.825  0.2722 -0.5006  0.7380
 3073TIP3    H2 9226   5.064   0.649   3.769 -0.2651 -1.6826 -2.6238
 3074TIP3   OH2 9227   3.936   2.732   4.354  0.0038  0.3103 -0.0111
 3074TIP3    H1 9228   3.903   2.720   4.443 -1.1082 -1.1531 -0.5782
 3074TIP3    H2 9229   3.866   2.698   4.298  0.2377  2.1415 -1.5111
 3075TIP3   OH2 9230   2.236   2.040   2.722  0.6666 -0.0655 -0.1293
 3075TIP3    H1 9231   2.259   2.133   2.728  1.7481 -0.4050  1.5961
 3075TIP3    H2 9232   2.222   2.013   2.813  0.3847 -1.6051 -0.6061
 3076TIP3   OH2 9233   2.339   3.227   1.909  0.0272  0.2317 -0.3221
 3076TIP3    H1 9234   2.410   3.266   1.959 -0.3127  1.5884 -0.8620
 3076TIP3    H2 9235   2.328   3.140   1.947 -0.0865  1.1220  1.8406
 3077TIP3   OH2 9236   6.281   5.902   0.864 -0.4375 -0.2458  0.3908
 3077TIP3    H1 9237   6.329   5.951   0.796 -0.2127  0.5937  1.1393
 3077TIP3    H2 9238   6.295   5.810   0.841  1.0359 -0.0162  0.2265
 3078TIP3   OH2 9239   1.841   2.747   4.675 -0.1040 -0.4376  0.1611
 3078TIP3    H1 9240   1.778   2.740   4.604 -0.2946 -0.1693  0.2996
 3078TIP3    H2 9241   1.826   2.668   4.728 -0.0686 -0.5585 -0.0069
 3079TIP3   OH2 9242   0.111   0.693   1.577 -0.1854  0.4291  0.0761
 3079TIP3    H1 9243   0.154   0.739   1.650 -0.8518 -0.2498  0.9212
 3079TIP3    H2 9244   0.182   0.658   1.525  0.3904  2.8293 -0.9077
 3080TIP3   OH2 9245   6.277   3.699   2.819  0.2861  0.5759 -0.2289
 3080TIP3    H1 9246   6.355   3.734   2.861  0.3690 -1.0385  1.0872
 3080TIP3    H2 9247   6.255   3.620   2.870 -0.8316 -0.3264 -1.9774
 3081TIP3   OH2 9248   3.898   4.537   0.658  0.6104 -0.2676 -0.3215
 3081TIP3    H1 9249   3.977   4.499   0.697 -1.3567 -1.1694  3.1309
 3081TIP3    H2 9250   3.828   4.478   0.683 -1.5131  1.6405 -1.4214
 3082TIP3   OH2 9251   5.349   3.587   1.143  0.2136 -0.3074 -0.4394
 3082TIP3    H1 9252   5.306   3.502   1.129  2.4117 -1.8571  1.4607
 3082TIP3    H2 9253   5.304   3.624   1.220  0.3581 -0.5468 -0.2396
 3083TIP3   OH2 9254   3.200   5.194   4.177 -0.0630 -0.2195 -0.1367
 3083TIP3    H1 9255   3.125   5.180   4.235 -0.0992 -0.1838 -0.1758
 3083TIP3    H2 9256   3.168   5.169   4.090  0.1107 -0.6619 -0.0778
 3084TIP3   OH2 9257   1.002   2.144   2.402  0.2291  0.2989  0.7985
 3084TIP3    H1 9258   0.921   2.092   2.400  0.3294  0.1460  0.6845
 3084TIP3    H2 9259   1.019   2.166   2.310 -0.2222  1.1763  0.9115
 3085TIP3   OH2 9260   3.335   4.808   0.349 -0.2201 -0.5318  0.2512
 3085TIP3    H1 9261   3.358   4.899   0.364 -0.3060 -0.4765  0.0539
 3085TIP3    H2 9262   3.291   4.808   0.263 -0.6805 -0.6762  0.4814
 3086TIP3   OH2 9263   3.379   4.175   1.473  0.4302  0.1879 -0.0473
 3086TIP3    H1 9264   3.321   4.147   1.402 -0.6371 -0.5600  1.0912
 3086TIP3    H2 9265   3.433   4.244   1.434  0.1123 -0.4386 -1.6772
 3087TIP3   OH2 9266   3.922   2.655   3.915 -0.2508  0.2081 -0.2853
 3087TIP3    H1 9267   3.870   2.597   3.860 -0.6738  0.3343 -0.0190
 3087TIP3    H2 9268   3.896   2.634   4.004 -0.2641  0.6760 -0.1780
 3088TIP3   OH2 9269   2.126   1.190   4.144  0.7366 -0.0510 -0.0469
 3088TIP3    H1 9270   2.170   1.105   4.140  1.9685  0.5956 -0.7656
 3088TIP3    H2 9271   2.034   1.170   4.125  1.2686 -1.0599 -1.8153
 3089TIP3   OH2 9272   2.925   0.478   4.744 -0.2666 -0.0159 -0.2619
 3089TIP3    H1 9273   2.946   0.397   4.789 -0.6594  0.6438  1.1786
 3089TIP3    H2 9274   2.831   0.471   4.723 -0.8657  0.9488  1.8803
 3090TIP3   OH2 9275   3.211   1.485   2.810 -0.6304 -0.3153  0.1893
 3090TIP3    H1 9276   3.275   1.477   2.881 -0.0630  2.0939  0.0369
 3090TIP3    H2 9277   3.201   1.396   2.776  1.2976 -1.0432  1.3729
 3091TIP3   OH2 9278   2.302   5.621   1.838  0.5995  0.0011 -0.4694
 3091TIP3    H1 9279   2.393   5.620   1.866  0.3917 -1.2383  0.2493
 3091TIP3    H2 9280   2.299   5.685   1.767  2.0977 -0.1805 -0.7301
 3092TIP3   OH2 9281   6.050   2.336   3.130 -0.3498  0.0740  0.0997
 3092TIP3    H1 9282   6.087   2.286   3.057 -2.1081  0.6466 -1.2842
 3092TIP3    H2 9283   6.046   2.274   3.202  0.5554 -0.8054 -0.5697
 3093TIP3   OH2 9284   4.588   5.254   0.938  0.0976  0.0544  0.1589
 3093TIP3    H1 9285   4.611   5.321   0.873 -0.1045 -0.5987 -0.6055
 3093TIP3    H2 9286   4.671   5.232   0.979  0.3597 -0.0659 -0.4175
 3094TIP3   OH2 9287   3.801   3.724   1.936 -0.4655 -0.8898 -0.1023
 3094TIP3    H1 9288   3.762   3.703   1.852 -2.1872 -2.4908  1.0189
 3094TIP3    H2 9289   3.889   3.686   1.933 -0.3528 -0.5631 -1.2991
 3095TIP3   OH2 9290   4.455   4.584   1.622  0.2026  0.1963 -0.6631
 3095TIP3    H1 9291   4.476   4.625   1.706  1.6594 -0.2039 -0.8110
 3095TIP3    H2 9292   4.460   4.656   1.559 -0.9860  0.5163 -0.4118
 3096TIP3   OH2 9293   1.494   4.397   2.604 -0.2482  0.4707  1.0640
 3096TIP3    H1 9294   1.406   4.409   2.639 -0.8408  0.0070 -0.2340
 3096TIP3    H2 9295   1.505   4.302   2.598 -0.2299  0.5315 -0.1382
 3097TIP3   OH2 9296   2.281   1.149   1.647  0.5393 -0.0391 -0.2483
 3097TIP3    H1 9297   2.211   1.129   1.584 -1.2409  0.4701  1.4619
 3097TIP3    H2 9298   2.263   1.239   1.673  2.3464  0.3758 -0.3260
 3098TIP3   OH2 9299   1.405   1.428   0.731  0.3150  0.1626 -0.4383
 3098TIP3    H1 9300   1.382   1.521   0.730  0.0874  0.1054 -0.8678
 3098TIP3    H2 9301   1.321   1.383   0.742  0.6291  0.0567  2.2559
 3099TIP3   OH2 9302   1.226   5.950   1.078 -0.4587  0.1037  0.2635
 3099TIP3    H1 9303   1.302   5.910   1.119  0.1426  0.5229 -0.4074
 3099TIP3    H2 9304   1.221   5.910   0.992 -1.8437 -0.9331  0.7876
 3100TIP3   OH2 9305   1.451   4.366   3.507  0.2129  0.0101  0.4300
 3100TIP3    H1 9306   1.366   4.347   3.546  0.1893  0.4284  0.5865
 3100TIP3    H2 9307   1.432   4.421   3.431  0.3037 -0.3450  0.1459
 3101TIP3   OH2 9308   2.306   1.003   0.547 -0.5668  0.6331  0.0006
 3101TIP3    H1 9309   2.238   0.936   0.539  0.2576 -0.2433  0.0153
 3101TIP3    H2 9310   2.377   0.958   0.592 -0.3272  1.8003  0.8130
 3102TIP3   OH2 9311   4.845   1.888   2.645  0.1376  0.2346 -0.0036
 3102TIP3    H1 9312   4.923   1.944   2.646  0.8558 -0.7377 -0.3337
 3102TIP3    H2 9313   4.819   1.882   2.736 -0.7483  2.1680 -0.0724
 3103TIP3   OH2 9314   5.145   0.226   5.131  0.2399  0.6905  0.0792
 3103TIP3    H1 9315   5.238   0.250   5.135  0.0260  2.0567 -1.7556
 3103TIP3    H2 9316   5.103   0.301   5.089 -1.2722 -0.9103 -1.4362
 3104TIP3   OH2 9317   6.309   1.819   4.006 -0.0081  0.1284  0.3236
 3104TIP3    H1 9318   6.261   1.900   3.989  1.7583  1.3869  0.9988
 3104TIP3    H2 9319   6.318   1.777   3.921  0.9489  1.7920 -0.4437
 3105TIP3   OH2 9320   6.257   4.849   4.208 -0.0292 -0.4751 -1.1310
 3105TIP3    H1 9321   6.171   4.868   4.245  0.5896 -1.1632  0.8052
 3105TIP3    H2 9322   6.246   4.766   4.161 -0.6631  0.0136 -1.8528
 3106TIP3   OH2 9323   5.430   1.991   1.185  0.6004  0.1158  0.2666
 3106TIP3    H1 9324   5.394   1.924   1.242  0.4813 -0.8260 -0.8763
 3106TIP3    H2 9325   5.507   1.949   1.145  0.4918  0.6327 -0.5037
 3107TIP3   OH2 9326   3.365   2.852   5.147  0.1345  0.7360 -0.1826
 3107TIP3    H1 9327   3.322   2.799   5.081 -0.6248  2.3293 -1.0157
 3107TIP3    H2 9328   3.379   2.937   5.105  0.4748  1.5071  1.3955
 3108TIP3   OH2 9329   5.601   1.600   4.625  0.4972  0.0110 -0.6582
 3108TIP3    H1 9330   5.654   1.620   4.702  0.0730  0.5331 -0.4920
 3108TIP3    H2 9331   5.663   1.593   4.553  0.7901  0.6562 -0.4740
 3109TIP3   OH2 9332   2.900   5.702   0.747  0.1725  0.0681  0.0125
 3109TIP3    H1 9333   2.864   5.639   0.809 -0.2065 -2.1009 -2.2087
 3109TIP3    H2 9334   2.847   5.780   0.756  0.1988 -0.1389  2.4049
 3110TIP3   OH2 9335   4.974   3.872   1.251 -0.3485  0.3510 -0.0676
 3110TIP3    H1 9336   4.998   3.930   1.323  0.7569  0.6425 -0.6487
 3110TIP3    H2 9337   5.042   3.886   1.185  0.4421 -2.2439  0.1041
 3111TIP3   OH2 9338   5.761   1.651   3.980 -0.3845  0.1168 -0.6768
 3111TIP3    H1 9339   5.820   1.694   4.042  1.3723 -2.5103 -0.3809
 3111TIP3    H2 9340   5.801   1.666   3.894 -1.3905  1.5023 -0.9394
 3112TIP3   OH2 9341   1.254   2.882   0.038 -0.0210 -0.2293 -0.1925
 3112TIP3    H1 9342   1.320   2.933  -0.009 -1.0070  2.0307  0.7224
 3112TIP3    H2 9343   1.226   2.939   0.109 -1.1230 -2.1496  0.9986
 3113TIP3   OH2 9344   4.714   2.362   3.260  0.0968  0.3294 -0.1647
 3113TIP3    H1 9345   4.796   2.401   3.290 -0.2176  1.7212 -1.0605
 3113TIP3    H2 9346   4.654   2.373   3.333  0.5308 -0.1698  0.2773
 3114TIP3   OH2 9347   1.422   2.028   4.494 -0.4295  0.2754  0.0462
 3114TIP3    H1 9348   1.368   2.067   4.563  1.3177  0.9635  1.1212
 3114TIP3    H2 9349   1.480   1.969   4.541 -1.4230 -1.8630 -1.2920
 3115TIP3   OH2 9350   5.679   5.351   2.050 -0.5468 -0.3196  0.3289
 3115TIP3    H1 9351   5.747   5.389   2.105  0.5864  1.0455 -1.8715
 3115TIP3    H2 9352   5.599   5.358   2.102  0.6455 -0.2436  2.2503
 3116TIP3   OH2 9353   3.521   1.118   4.121  0.0961  0.6127  0.0876
 3116TIP3    H1 9354   3.475   1.145   4.041 -0.5097  1.1792  0.6118
 3116TIP3    H2 9355   3.453   1.078   4.175  0.4122  0.6479  0.5132
 3117TIP3   OH2 9356   3.466   0.476   4.027  0.1718  0.0979  0.1268
 3117TIP3    H1 9357   3.510   0.431   4.100  1.5421  0.7420 -0.2638
 3117TIP3    H2 9358   3.400   0.531   4.069  0.3779 -0.1599  0.8142
 3118TIP3   OH2 9359   4.300   2.001   2.965 -0.4757 -1.3375  0.3785
 3118TIP3    H1 9360   4.256   2.044   3.038 -0.4761  0.1988 -0.4649
 3118TIP3    H2 9361   4.229   1.961   2.914 -0.6453 -1.0469  0.3845
 3119TIP3   OH2 9362   5.538   4.036   2.775  0.4223 -0.3977  0.3753
 3119TIP3    H1 9363   5.553   4.126   2.802  0.4058 -0.3580  0.2503
 3119TIP3    H2 9364   5.550   3.985   2.856 -0.9837 -0.1416  0.7697
 3120TIP3   OH2 9365   3.654   2.977   0.075 -0.1685  0.3408  0.1642
 3120TIP3    H1 9366   3.576   3.009   0.120 -0.2297  1.6886 -0.8306
 3120TIP3    H2 9367   3.666   3.038   0.001  1.9168  0.2755  0.3861
 3121TIP3   OH2 9368   4.192   4.526   2.240  0.4664  0.1850 -0.4030
 3121TIP3    H1 9369   4.159   4.585   2.172  0.3771  0.3236 -0.2388
 3121TIP3    H2 9370   4.249   4.581   2.294 -0.6466  0.4541  0.5362
 3122TIP3   OH2 9371   1.896   5.085   0.674 -0.4922 -0.1954  0.3827
 3122TIP3    H1 9372   1.959   5.141   0.628  0.8285 -0.4548  1.8069
 3122TIP3    H2 9373   1.811   5.111   0.639  0.3648  0.3667 -1.3897
 3123TIP3   OH2 9374   2.478   0.927   5.049 -0.0256  0.0730  0.2531
 3123TIP3    H1 9375   2.465   1.014   5.013  0.9003  0.7551  1.4755
 3123TIP3    H2 9376   2.515   0.876   4.977 -1.8775  0.2630 -0.8805
 3124TIP3   OH2 9377   4.341   4.906   4.058  0.1425 -0.3164 -0.6311
 3124TIP3    H1 9378   4.419   4.958   4.041 -2.0040  3.5773  0.3055
 3124TIP3    H2 9379   4.297   4.900   3.973  0.1650 -0.2171 -0.6490
 3125TIP3   OH2 9380   4.315   5.067   5.164 -0.2673 -0.0637 -0.2417
 3125TIP3    H1 9381   4.224   5.083   5.190 -0.3386 -0.5716 -0.1541
 3125TIP3    H2 9382   4.328   5.121   5.086 -0.8606 -0.4982 -0.6533
 3126TIP3   OH2 9383   4.518   1.121   3.036  0.4995  0.5307 -0.3039
 3126TIP3    H1 9384   4.495   1.214   3.035  1.5226  0.8257  0.6839
 3126TIP3    H2 9385   4.539   1.103   3.128  0.3328 -0.6763 -0.4846
 3127TIP3   OH2 9386   0.120   5.372   3.087  0.2097 -0.1927 -0.3249
 3127TIP3    H1 9387   0.070   5.450   3.113  1.0234  0.1823  0.1634
 3127TIP3    H2 9388   0.082   5.301   3.138  0.9607  0.3130  1.0036
 3128TIP3   OH2 9389   3.359   4.156   4.542 -0.7061  0.0901 -0.5856
 3128TIP3    H1 9390   3.428   4.210   4.579  1.8964 -2.3978 -1.4729
 3128TIP3    H2 9391   3.314   4.214   4.479  1.3544  1.4600 -0.8858
 3129TIP3   OH2 9392   3.246   3.116   1.816 -0.3569  0.1604 -0.4254
 3129TIP3    H1 9393   3.150   3.108   1.818 -0.4074  0.8962  0.5264
 3129TIP3    H2 9394   3.277   3.031   1.846 -0.6724 -0.5026 -1.8770
 3130TIP3   OH2 9395   0.740   2.860   2.210  0.3332  0.1862 -0.0969
 3130TIP3    H1 9396   0.721   2.768   2.190  1.5025 -0.1153  0.1296
 3130TIP3    H2 9397   0.658   2.894   2.247 -0.5794 -0.3554 -1.5371
 3131TIP3   OH2 9398   1.295   3.666   0.156  0.2024 -0.3517 -0.3105
 3131TIP3    H1 9399   1.331   3.748   0.188  1.3705 -1.2007  0.6896
 3131TIP3    H2 9400   1.224   3.645   0.216 -0.2221  0.0212 -0.6825
 3132TIP3   OH2 9401   5.886   2.867   3.928  0.1683  0.0297 -0.4999
 3132TIP3    H1 9402   5.929   2.833   3.849  3.0419  2.5685 -0.2395
 3132TIP3    H2 9403   5.943   2.839   4.000  0.7266  2.2804  0.0199
 3133TIP3   OH2 9404   0.901   4.438   1.059  0.2654 -0.5911 -0.4407
 3133TIP3    H1 9405   0.890   4.343   1.068  0.5699 -0.8947 -2.8499
 3133TIP3    H2 9406   0.995   4.450   1.045  0.4115  0.2289  0.9839
 3134TIP3   OH2 9407   4.880   0.344   3.557 -0.0377 -0.4074 -0.4151
 3134TIP3    H1 9408   4.847   0.409   3.620 -1.1465 -2.4035  1.1823
 3134TIP3    H2 9409   4.802   0.309   3.515  0.6418  0.2340 -2.3096
 3135TIP3   OH2 9410   2.978   1.206   2.655  0.6203 -0.0617  0.1718
 3135TIP3    H1 9411   2.969   1.114   2.627  0.9273 -0.0848  0.1425
 3135TIP3    H2 9412   3.062   1.209   2.700  0.1023 -0.0396  1.1650
 3136TIP3   OH2 9413  -0.027   0.888   3.164  0.1776  0.1374 -0.2974
 3136TIP3    H1 9414   0.035   0.830   3.208 -0.4450  0.1462  0.6186
 3136TIP3    H2 9415   0.023   0.928   3.093  0.7657 -1.0896 -0.6001
 3137TIP3   OH2 9416   0.270   2.618   2.276 -0.1360  0.4489  0.4762
 3137TIP3    H1 9417   0.209   2.591   2.207  2.1024 -1.4758 -0.9567
 3137TIP3    H2 9418   0.264   2.549   2.342  0.9403 -0.1808 -0.0435
 3138TIP3   OH2 9419   1.862   3.071   2.819  0.2603  0.1391 -0.4100
 3138TIP3    H1 9420   1.878   2.978   2.835  2.1245  0.2185 -1.6264
 3138TIP3    H2 9421   1.856   3.079   2.724  1.3061  1.4285 -0.3965
 3139TIP3   OH2 9422   0.047   0.407   0.225  0.1865  0.0869  0.5106
 3139TIP3    H1 9423   0.111   0.376   0.161 -0.0904  0.6621 -0.0493
 3139TIP3    H2 9424   0.020   0.327   0.271  0.5667 -0.2990  0.0777
 3140TIP3   OH2 9425   3.302   3.172   2.590  0.1642 -0.2325 -0.2881
 3140TIP3    H1 9426   3.318   3.265   2.571  2.8148 -0.8471 -1.5943
 3140TIP3    H2 9427   3.214   3.156   2.558 -0.0864  1.6837 -0.6866
 3141TIP3   OH2 9428   2.527   5.563   2.608  0.2858  0.0626  0.2664
 3141TIP3    H1 9429   2.437   5.548   2.581  0.7983 -0.8108 -1.0498
 3141TIP3    H2 9430   2.536   5.659   2.607 -0.3712  0.1273 -0.4802
 3142TIP3   OH2 9431   3.822   3.599   3.614  0.6831 -0.0687 -0.0528
 3142TIP3    H1 9432   3.757   3.599   3.684  0.4461 -0.1098 -0.2687
 3142TIP3    H2 9433   3.801   3.676   3.562  0.3177 -0.5017 -0.5636
 3143TIP3   OH2 9434   4.256   2.779   2.340  0.1424 -0.1386  0.3012
 3143TIP3    H1 9435   4.333   2.740   2.298  0.5085 -0.1157  0.9361
 3143TIP3    H2 9436   4.290   2.817   2.421 -0.6291 -0.6459  0.8807
 3144TIP3   OH2 9437   2.550   1.654   1.328 -0.0867 -0.1293 -0.4908
 3144TIP3    H1 9438   2.628   1.698   1.362 -0.1037 -0.4070 -0.0763
 3144TIP3    H2 9439   2.575   1.626   1.240 -0.4218  1.5798 -1.1638
 3145TIP3   OH2 9440   0.182   5.070   4.480  0.3223 -0.2074  0.1359
 3145TIP3    H1 9441   0.096   5.028   4.481 -0.0877  0.5367 -1.2453
 3145TIP3    H2 9442   0.173   5.140   4.415  1.7522  0.3621  0.5274
 3146TIP3   OH2 9443   0.501   3.782   0.056  0.4641  0.0153  0.4046
 3146TIP3    H1 9444   0.496   3.730   0.136 -0.3399 -0.5966 -0.0253
 3146TIP3    H2 9445   0.435   3.850   0.067 -0.3705 -0.6802 -0.1440
 3147TIP3   OH2 9446   1.297   2.851   2.816 -0.8078 -0.4527 -0.1240
 3147TIP3    H1 9447   1.276   2.879   2.727 -0.3098  0.0305 -0.0977
 3147TIP3    H2 9448   1.330   2.930   2.859 -0.5472 -0.8021  0.3320
 3148TIP3   OH2 9449   4.074   1.812   2.856  0.4221 -0.2772 -0.3132
 3148TIP3    H1 9450   4.142   1.766   2.808  0.5434 -1.2141  0.7090
 3148TIP3    H2 9451   4.058   1.892   2.806  2.5007  0.1210 -0.4298
 3149TIP3   OH2 9452   5.670   2.685   4.106 -0.1867 -0.2722 -0.2352
 3149TIP3    H1 9453   5.672   2.727   4.019 -0.2405  0.1861 -0.0170
 3149TIP3    H2 9454   5.624   2.602   4.091 -2.8560  1.0701 -0.1166
 3150TIP3   OH2 9455   1.995   1.021   1.821  0.4710  0.0790  0.1296
 3150TIP3    H1 9456   2.052   0.949   1.792  0.2074 -0.5237  1.0843
 3150TIP3    H2 9457   1.916   0.978   1.853 -0.4931  0.9051 -1.0675
 3151TIP3   OH2 9458   1.877   3.358   3.753 -0.4301 -0.1213  0.0750
 3151TIP3    H1 9459   1.808   3.305   3.792 -0.6684  2.2509  3.3278
 3151TIP3    H2 9460   1.832   3.438   3.724  0.6665  0.7288  0.6405
 3152TIP3   OH2 9461   0.648   4.160   0.931  0.0389  0.2402 -0.1651
 3152TIP3    H1 9462   0.583   4.096   0.960 -1.2585  1.1297 -1.0180
 3152TIP3    H2 9463   0.710   4.165   1.003 -1.5104  0.2648  1.2261
 3153TIP3   OH2 9464   2.545   2.497   5.110  0.2467  0.7537  0.6185
 3153TIP3    H1 9465   2.509   2.584   5.127  0.1677  1.0746 -1.0371
 3153TIP3    H2 9466   2.472   2.449   5.072  0.3339 -0.0123  1.3894
 3154TIP3   OH2 9467   2.612   3.247   3.443 -0.0679  0.2701 -0.0135
 3154TIP3    H1 9468   2.545   3.202   3.392  1.2294  0.0668 -1.6153
 3154TIP3    H2 9469   2.582   3.338   3.448 -1.2824 -0.1572  0.7763
 3155TIP3   OH2 9470   0.033   2.126   1.116  0.3846 -0.3058  0.2757
 3155TIP3    H1 9471  -0.026   2.136   1.191  0.2333 -0.6768  0.2086
 3155TIP3    H2 9472   0.025   2.208   1.068 -2.6314 -1.5346 -1.5776
 3156TIP3   OH2 9473   0.753   2.602   5.005 -0.3110  0.0780 -0.0629
 3156TIP3    H1 9474   0.832   2.625   5.055  0.4087  0.7934 -1.4620
 3156TIP3    H2 9475   0.689   2.667   5.030  0.3771  1.0762 -0.8083
 3157TIP3   OH2 9476   1.405   1.145   0.907 -0.0339  0.4608 -0.1453
 3157TIP3    H1 9477   1.443   1.231   0.888 -0.0211  0.5187  0.1388
 3157TIP3    H2 9478   1.480   1.087   0.913 -0.0538  0.3882 -0.5307
 3158TIP3   OH2 9479   2.166   5.403   0.800 -0.3673  0.5806  0.0200
 3158TIP3    H1 9480   2.223   5.423   0.874 -2.3567  0.8476  1.5798
 3158TIP3    H2 9481   2.177   5.476   0.740 -0.1316  1.3472  0.9673
 3159TIP3   OH2 9482   3.611   4.518   2.964 -0.1388 -0.1930  0.2547
 3159TIP3    H1 9483   3.701   4.547   2.953  1.0261 -2.8384  1.7100
 3159TIP3    H2 9484   3.573   4.579   3.027  0.3142  1.4530 -1.0071
 3160TIP3   OH2 9485   5.627   1.088   4.916  0.7122 -0.2496 -0.3355
 3160TIP3    H1 9486   5.602   1.022   4.980  0.0098  1.7010  1.5316
 3160TIP3    H2 9487   5.720   1.104   4.934  0.4734  0.4264  0.4055
 3161TIP3   OH2 9488   2.846   2.814   2.941 -0.5236  0.4357 -0.3110
 3161TIP3    H1 9489   2.829   2.787   2.851 -1.9830  1.1522 -0.2754
 3161TIP3    H2 9490   2.760   2.821   2.982  0.0968  0.2264  1.1274
 3162TIP3   OH2 9491   4.047   1.357   2.697 -0.6105 -0.5615  0.1878
 3162TIP3    H1 9492   3.954   1.356   2.674 -0.8706  1.9021  0.8288
 3162TIP3    H2 9493   4.049   1.339   2.791 -0.4381 -0.6576  0.1661
 3163TIP3   OH2 9494   4.739   3.441   1.537  0.3756  0.1508 -0.0840
 3163TIP3    H1 9495   4.682   3.466   1.465  1.1676  1.6390 -0.2413
 3163TIP3    H2 9496   4.738   3.345   1.536  0.0296  0.1307 -1.8057
 3164TIP3   OH2 9497   2.212   0.957   2.625  0.3826  0.2119  0.6672
 3164TIP3    H1 9498   2.163   0.880   2.655 -0.2657  1.1454  2.1287
 3164TIP3    H2 9499   2.194   0.962   2.531  0.8527 -1.6892  0.4200
 3165TIP3   OH2 9500   3.647   3.634   2.158 -0.1836  0.3119  0.1389
 3165TIP3    H1 9501   3.688   3.668   2.079 -0.0987  1.9215  0.8272
 3165TIP3    H2 9502   3.707   3.567   2.191  0.4569  0.6217 -0.4024
 3166TIP3   OH2 9503   1.284   0.749   0.382  0.1489  0.2188 -0.2512
 3166TIP3    H1 9504   1.348   0.819   0.366  0.3035  0.0101 -0.5570
 3166TIP3    H2 9505   1.281   0.700   0.300 -1.9178  1.4415 -0.9805
 3167TIP3   OH2 9506   6.016   4.353   1.121  0.2047 -0.3102  0.1435
 3167TIP3    H1 9507   5.929   4.320   1.145  0.1632  1.0472  2.0861
 3167TIP3    H2 9508   6.070   4.335   1.199  1.8889 -1.7623 -1.2794
 3168TIP3   OH2 9509   5.094   1.165   3.080  0.0582 -0.3703 -0.5264
 3168TIP3    H1 9510   5.132   1.124   3.003 -0.3074 -2.1757  0.2035
 3168TIP3    H2 9511   5.000   1.153   3.070  0.0156 -0.7586  0.2596
 3169TIP3   OH2 9512   2.661   0.606   0.492  1.1320 -0.0611  0.1264
 3169TIP3    H1 9513   2.708   0.561   0.421  2.8729 -1.1444  1.8559
 3169TIP3    H2 9514   2.629   0.535   0.548  0.4858  0.7869  0.8608
 3170TIP3   OH2 9515   5.846   3.040   3.369  0.0504 -0.2206 -0.4604
 3170TIP3    H1 9516   5.877   3.030   3.459 -1.0069  0.6509  0.0322
 3170TIP3    H2 9517   5.891   2.972   3.320 -0.4729 -1.6929  1.0175
 3171TIP3   OH2 9518   5.799   5.808   1.245 -0.2664  0.3603 -0.3265
 3171TIP3    H1 9519   5.811   5.745   1.175 -0.3251  1.8823 -1.7868
 3171TIP3    H2 9520   5.871   5.791   1.306  0.2101 -0.5414 -1.1183
 3172TIP3   OH2 9521   0.448   0.217   3.486 -0.1130  0.2379 -0.1036
 3172TIP3    H1 9522   0.397   0.288   3.447  0.4591  0.2172 -0.9300
 3172TIP3    H2 9523   0.534   0.256   3.502 -0.0555 -0.0327  0.2453
 3173TIP3   OH2 9524   4.764   5.714   1.877  0.1299  0.1095 -0.0883
 3173TIP3    H1 9525   4.734   5.746   1.962 -1.1993  0.0578 -0.5227
 3173TIP3    H2 9526   4.796   5.625   1.894 -0.5856 -0.0824  0.2685
 3174TIP3   OH2 9527   0.413   5.419   3.214 -0.3297 -0.4662  0.8133
 3174TIP3    H1 9528   0.332   5.443   3.169 -0.8079 -0.2813  1.7496
 3174TIP3    H2 9529   0.391   5.424   3.307  1.3140  1.6296  1.1710
 3175TIP3   OH2 9530   2.236   1.786   0.125 -0.5202 -0.3766  0.2687
 3175TIP3    H1 9531   2.271   1.866   0.085 -1.5672 -0.3585 -0.6554
 3175TIP3    H2 9532   2.194   1.739   0.052 -3.1247  0.0009  1.4179
 3176TIP3   OH2 9533   6.004   4.152   3.508  0.3937  0.0871 -0.4390
 3176TIP3    H1 9534   5.933   4.184   3.452 -0.3045 -0.5861  0.0411
 3176TIP3    H2 9535   6.011   4.059   3.488 -0.5303 -0.3851  1.2456
 3177TIP3   OH2 9536   3.000   1.976   2.301 -0.1656 -0.1208 -0.2280
 3177TIP3    H1 9537   3.089   1.952   2.273 -0.4769 -1.5684 -0.0240
 3177TIP3    H2 9538   3.014   2.051   2.359  0.9523 -0.4935  0.0238
 3178TIP3   OH2 9539   3.263   1.290   2.259  0.0663 -0.3361  0.0473
 3178TIP3    H1 9540   3.194   1.319   2.200  0.1877  0.4339  0.2615
 3178TIP3    H2 9541   3.324   1.241   2.203 -1.5404 -2.6426  0.1859
 3179TIP3   OH2 9542   4.769   2.895   0.497 -0.1617  0.2251  0.2547
 3179TIP3    H1 9543   4.808   2.808   0.504  0.2559  0.4780  1.2528
 3179TIP3    H2 9544   4.839   2.951   0.464 -0.6774  0.0316 -1.2297
 3180TIP3   OH2 9545   1.518   4.730   4.848 -0.0429 -0.6498 -0.2671
 3180TIP3    H1 9546   1.614   4.730   4.849 -0.0426 -0.8489 -0.2903
 3180TIP3    H2 9547   1.495   4.795   4.781  0.0714 -0.2210  0.1053
 3181TIP3   OH2 9548   5.313   4.562   0.750  0.4052 -0.1204  1.0160
 3181TIP3    H1 9549   5.403   4.530   0.743 -0.1759 -1.4983 -1.7416
 3181TIP3    H2 9550   5.316   4.651   0.715  0.5062 -0.7390 -0.6631
 3182TIP3   OH2 9551   4.029   0.576   4.165  0.2084 -0.1740  0.5601
 3182TIP3    H1 9552   3.939   0.607   4.153  0.6664  1.1628  0.3492
 3182TIP3    H2 9553   4.038   0.564   4.260 -0.5656 -1.5788  0.4787
 3183TIP3   OH2 9554   5.261   3.635   0.310 -0.0074  0.2101  0.3418
 3183TIP3    H1 9555   5.315   3.586   0.248 -1.4425 -1.6274  0.4670
 3183TIP3    H2 9556   5.222   3.705   0.257  0.5762  0.0741 -0.2817
 3184TIP3   OH2 9557   3.799   0.244   1.108  0.4201 -0.5848 -0.0637
 3184TIP3    H1 9558   3.732   0.259   1.174 -0.3970 -1.7901 -0.5747
 3184TIP3    H2 9559   3.765   0.285   1.029  0.7432 -0.3627 -0.0902
 3185TIP3   OH2 9560   0.070   3.686   0.191 -0.2973 -0.3063  0.2729
 3185TIP3    H1 9561   0.091   3.769   0.148  0.2681 -0.3119  0.5282
 3185TIP3    H2 9562   0.152   3.660   0.233 -0.0787 -1.6792 -0.9330
 3186TIP3   OH2 9563   1.884   0.260   2.600  0.2903 -0.1160 -0.2775
 3186TIP3    H1 9564   1.800   0.272   2.645  0.1025  0.5975 -0.8093
 3186TIP3    H2 9565   1.864   0.204   2.525  0.0778  0.8951 -0.9926
 3187TIP3   OH2 9566   2.771   2.067   3.246 -0.1570  0.4567 -0.5607
 3187TIP3    H1 9567   2.684   2.043   3.212  0.1331 -1.9357  0.2495
 3187TIP3    H2 9568   2.772   2.163   3.242 -3.2317  0.6340  0.3190
 3188TIP3   OH2 9569   0.207   0.064   1.735  0.2430 -0.2448 -0.1051
 3188TIP3    H1 9570   0.169   0.085   1.650 -0.2986 -0.5855  0.0491
 3188TIP3    H2 9571   0.272   0.133   1.750  0.8522 -0.5860 -1.1180
 3189TIP3   OH2 9572   5.269   0.272   1.642  0.4299 -1.1271 -0.4892
 3189TIP3    H1 9573   5.325   0.330   1.694  1.9160 -2.4444 -0.5494
 3189TIP3    H2 9574   5.190   0.323   1.627  2.0483  1.3027 -1.4170
 3190TIP3   OH2 9575   5.638   4.964   4.464 -0.5048 -0.0976 -0.1475
 3190TIP3    H1 9576   5.647   5.052   4.501  0.5988 -0.6158  0.9128
 3190TIP3    H2 9577   5.546   4.957   4.438 -0.3114  1.8127 -1.4706
 3191TIP3   OH2 9578   0.016   1.290   0.007  0.0027  0.5887 -0.1822
 3191TIP3    H1 9579   0.082   1.222   0.020  0.1861  0.5615 -1.1758
 3191TIP3    H2 9580   0.048   1.365   0.056  1.2522  0.8764 -1.3717
 3192TIP3   OH2 9581   0.877   2.349   3.654  0.1309  0.2033 -0.2259
 3192TIP3    H1 9582   0.802   2.379   3.603  0.3680 -1.3939 -1.5880
 3192TIP3    H2 9583   0.840   2.286   3.716  0.1996  0.2885 -0.0969
 3193TIP3   OH2 9584   2.475   2.829   0.107 -0.2134 -0.3729 -0.2660
 3193TIP3    H1 9585   2.460   2.748   0.157 -0.2961 -0.9224 -1.1679
 3193TIP3    H2 9586   2.520   2.800   0.028 -2.1923  0.1438 -1.6536
 3194TIP3   OH2 9587   3.754   4.503   4.851  0.5408 -0.2404 -0.2723
 3194TIP3    H1 9588   3.749   4.422   4.903 -0.6123 -1.0582 -1.5860
 3194TIP3    H2 9589   3.728   4.572   4.912 -0.1845 -1.0993  0.4215
 3195TIP3   OH2 9590   4.383   3.941   3.044  0.1784 -0.3266 -0.2233
 3195TIP3    H1 9591   4.387   4.035   3.023  1.5869 -0.8089 -2.4815
 3195TIP3    H2 9592   4.292   3.917   3.027  0.0832  0.4122 -0.8286
 3196TIP3   OH2 9593   4.575   0.175   4.091 -0.0361 -0.4705 -0.0638
 3196TIP3    H1 9594   4.544   0.181   4.001  0.5764 -0.9967 -0.3210
 3196TIP3    H2 9595   4.499   0.197   4.144 -0.4630 -0.3673 -0.7015
 3197TIP3   OH2 9596   4.126   5.271   2.074  0.1470  0.3866 -0.6164
 3197TIP3    H1 9597   4.044   5.234   2.107  0.4636 -0.2828 -0.5728
 3197TIP3    H2 9598   4.137   5.231   1.988  1.3174 -0.8883  0.1002
 3198TIP3   OH2 9599   1.592   1.515   4.401 -0.9693 -0.6198 -0.7453
 3198TIP3    H1 9600   1.668   1.501   4.458 -2.7014  2.0215  2.5909
 3198TIP3    H2 9601   1.530   1.446   4.428 -0.3557 -1.9496 -2.5343
 3199TIP3   OH2 9602   4.655   3.557   2.529  0.2155 -0.5169 -0.2216
 3199TIP3    H1 9603   4.589   3.624   2.513  0.7661  0.1243  0.1102
 3199TIP3    H2 9604   4.679   3.568   2.621  1.0969 -0.4391 -0.4459
 3200TIP3   OH2 9605   5.610   5.355   0.134  0.2486 -0.1746 -0.1207
 3200TIP3    H1 9606   5.553   5.362   0.211 -0.4276 -1.7096 -0.4426
 3200TIP3    H2 9607   5.576   5.279   0.086  2.4456 -1.0271 -0.4307
 3201TIP3   OH2 9608   4.954   5.364   2.274  0.1691 -0.2552 -0.5170
 3201TIP3    H1 9609   4.996   5.345   2.191 -0.3873  0.9499 -1.0954
 3201TIP3    H2 9610   4.866   5.393   2.250 -0.7926 -1.9966  0.6170
 3202TIP3   OH2 9611   5.452   4.276   4.595  0.1367 -0.1299  0.0968
 3202TIP3    H1 9612   5.472   4.218   4.521 -0.3613  1.2301 -1.1405
 3202TIP3    H2 9613   5.371   4.240   4.632  0.7197 -1.1810  0.4016
 3203TIP3   OH2 9614   0.136   0.631   2.974  0.6716 -0.3319  0.4106
 3203TIP3    H1 9615   0.053   0.638   2.925  0.5900  3.1104  0.8346
 3203TIP3    H2 9616   0.145   0.537   2.992 -0.3048 -1.6186 -4.3896
 3204TIP3   OH2 9617   6.088   2.302   2.816  0.4613  0.5718 -0.2575
 3204TIP3    H1 9618   6.012   2.338   2.862  0.9134  0.7629  0.3553
 3204TIP3    H2 9619   6.060   2.295   2.724  0.8937  4.1768 -0.7988
 3205TIP3   OH2 9620   4.818   4.556   1.189 -0.1183  0.1606  0.2431
 3205TIP3    H1 9621   4.852   4.516   1.109  0.5606 -0.0123  0.6091
 3205TIP3    H2 9622   4.883   4.534   1.256 -1.4165 -0.9891  1.1728
 3206TIP3   OH2 9623   6.189   3.541   4.680 -0.0624 -0.4427  0.3324
 3206TIP3    H1 9624   6.169   3.506   4.593 -1.2744  1.0285 -0.0136
 3206TIP3    H2 9625   6.154   3.475   4.741 -0.0499 -1.0362 -0.2904
 3207TIP3   OH2 9626   0.931   5.935   0.799 -0.2438 -0.3711 -0.2398
 3207TIP3    H1 9627   0.839   5.957   0.784 -0.4520 -0.1680  1.2112
 3207TIP3    H2 9628   0.979   5.989   0.736 -1.1137 -0.6478 -1.1697
 3208TIP3   OH2 9629   1.528   3.711   0.701  0.6988  0.3831 -0.0662
 3208TIP3    H1 9630   1.605   3.712   0.758  0.5242 -0.6508  0.2080
 3208TIP3    H2 9631   1.460   3.757   0.751  0.0395 -1.9858  1.3418
 3209TIP3   OH2 9632   2.810   1.814   1.346  0.1187  0.1933 -0.3162
 3209TIP3    H1 9633   2.857   1.844   1.424  0.0742 -0.8374  0.1188
 3209TIP3    H2 9634   2.878   1.801   1.281  0.2150  0.5659 -0.2923
 3210TIP3   OH2 9635   5.121   0.740   4.807 -0.1537  0.0985  0.2782
 3210TIP3    H1 9636   5.177   0.669   4.838  1.4873  1.2790  0.0966
 3210TIP3    H2 9637   5.032   0.712   4.832  0.5168 -1.6558  0.8585
 3211TIP3   OH2 9638   0.190   4.341   1.955  0.1302 -0.5220  0.4415
 3211TIP3    H1 9639   0.226   4.405   1.894  1.9027 -0.3447  1.5947
 3211TIP3    H2 9640   0.195   4.258   1.909 -1.4878  0.0201 -0.7888
 3212TIP3   OH2 9641   4.338   5.267   3.757 -0.2870  0.4579  0.4078
 3212TIP3    H1 9642   4.252   5.233   3.731  0.1435  0.5354 -1.2538
 3212TIP3    H2 9643   4.320   5.355   3.792 -0.7814  1.0004 -1.1268
 3213TIP3   OH2 9644   6.288   1.287   1.367 -0.4795 -0.8763 -0.4754
 3213TIP3    H1 9645   6.209   1.341   1.364  0.6185  0.8133 -0.8355
 3213TIP3    H2 9646   6.280   1.227   1.293 -0.1104  1.3300 -2.4324
 3214TIP3   OH2 9647   4.026   3.839   0.561  0.1680 -0.2436 -0.4857
 3214TIP3    H1 9648   4.070   3.774   0.506 -0.8342 -2.1052  0.8012
 3214TIP3    H2 9649   4.060   3.822   0.649 -0.5416  0.6201 -0.0338
 3215TIP3   OH2 9650   1.370   3.040   4.218  0.6163  0.1524  0.0746
 3215TIP3    H1 9651   1.373   2.953   4.259  0.3788  0.5822  1.0495
 3215TIP3    H2 9652   1.422   3.031   4.139  1.6569 -0.5589  0.8056
 3216TIP3   OH2 9653   1.444   2.766   3.414 -0.2315 -0.0489 -0.4721
 3216TIP3    H1 9654   1.354   2.789   3.436 -0.2637  0.3733 -1.0180
 3216TIP3    H2 9655   1.478   2.843   3.369 -0.0768 -0.7604 -1.6132
 3217TIP3   OH2 9656   2.801   5.944   1.107 -0.0630  0.2866 -0.6201
 3217TIP3    H1 9657   2.869   5.884   1.076  1.3702  0.8511  1.2341
 3217TIP3    H2 9658   2.722   5.891   1.110  0.5980 -0.7960 -1.4291
 3218TIP3   OH2 9659   3.235   4.575   4.955 -0.4106 -0.0298  0.2730
 3218TIP3    H1 9660   3.169   4.549   4.891  1.0276 -1.6269 -0.6631
 3218TIP3    H2 9661   3.311   4.598   4.903  1.4214 -3.1068  1.2943
 3219TIP3   OH2 9662   2.711   0.746   2.499  0.4228  0.0791  0.5418
 3219TIP3    H1 9663   2.632   0.710   2.539  0.9714  0.2248  1.8219
 3219TIP3    H2 9664   2.754   0.671   2.459 -1.3739  0.3087 -2.0784
 3220TIP3   OH2 9665   3.924   4.544   0.366  0.0616 -0.0267  0.3857
 3220TIP3    H1 9666   3.864   4.611   0.334 -0.8830 -0.4223  1.2599
 3220TIP3    H2 9667   3.902   4.535   0.459  1.2547 -0.4262  0.6463
 3221TIP3   OH2 9668   5.948   0.902   2.175 -0.5411 -0.2569  0.3313
 3221TIP3    H1 9669   5.857   0.930   2.188 -0.8680 -0.6776 -0.9537
 3221TIP3    H2 9670   5.974   0.940   2.091  1.2387  1.7023  1.6466
 3222TIP3   OH2 9671   2.599   1.110   2.910 -0.0271  0.1914  0.0294
 3222TIP3    H1 9672   2.541   1.084   2.838 -0.8872  1.4954  0.2215
 3222TIP3    H2 9673   2.642   1.189   2.878  0.1569  0.3482  0.6640
 3223TIP3   OH2 9674   5.492   4.092   3.784  0.6755  0.1282 -0.2417
 3223TIP3    H1 9675   5.517   4.035   3.712 -0.9710 -0.3165 -0.5059
 3223TIP3    H2 9676   5.513   4.181   3.754  0.0295 -0.0560 -1.2601
 3224TIP3   OH2 9677   4.812   1.283   1.755 -0.1090  0.5005 -0.7237
 3224TIP3    H1 9678   4.735   1.332   1.785 -0.0825  0.5310 -0.7058
 3224TIP3    H2 9679   4.859   1.261   1.836 -0.8666 -0.7932 -0.6077
 3225TIP3   OH2 9680   1.586   0.272   2.734  0.2570 -0.1922  0.3672
 3225TIP3    H1 9681   1.599   0.363   2.708 -0.5509  0.4942  2.2615
 3225TIP3    H2 9682   1.538   0.233   2.661  0.7128  0.8402 -0.5096
 3226TIP3   OH2 9683   4.960   1.385   1.562 -0.1602 -0.0224  0.1926
 3226TIP3    H1 9684   4.914   1.467   1.546 -1.6207 -0.8148  0.1313
 3226TIP3    H2 9685   4.922   1.352   1.644 -0.5009 -1.2124 -0.4151
 3227TIP3   OH2 9686   4.313   4.370   2.483 -0.4603  0.1394 -0.0736
 3227TIP3    H1 9687   4.329   4.405   2.395  0.5118 -0.0658  0.0058
 3227TIP3    H2 9688   4.400   4.345   2.514 -0.8838 -0.4244  0.6798
 3228TIP3   OH2 9689   4.262   0.734   3.607 -0.0508  0.4324 -0.2402
 3228TIP3    H1 9690   4.331   0.671   3.586  0.4354  0.0877  2.1716
 3228TIP3    H2 9691   4.229   0.762   3.521  1.4056 -1.2166 -1.4151
 3229TIP3   OH2 9692   3.917   1.253   3.318  0.8494 -0.0683  0.0072
 3229TIP3    H1 9693   3.945   1.331   3.366 -2.1489  1.5475 -0.6283
 3229TIP3    H2 9694   3.867   1.287   3.244 -0.6532 -2.6076 -0.2465
 3230TIP3   OH2 9695   2.352   4.778   2.991 -0.0300  0.0615 -0.5772
 3230TIP3    H1 9696   2.397   4.861   2.981 -0.2200  0.0330 -1.8499
 3230TIP3    H2 9697   2.267   4.791   2.948 -0.3159 -0.5958 -0.2405
 3231TIP3   OH2 9698   4.958   1.642   0.651 -0.1600  0.7277 -0.0393
 3231TIP3    H1 9699   4.990   1.660   0.739  1.1157 -0.1904 -0.2803
 3231TIP3    H2 9700   5.037   1.625   0.600 -0.8894  1.0630 -1.3253
 3232TIP3   OH2 9701   5.067   2.172   3.085  0.3338 -0.1984 -0.1233
 3232TIP3    H1 9702   5.001   2.164   3.016  0.8051 -0.5482 -0.5442
 3232TIP3    H2 9703   5.053   2.260   3.121  1.0570  0.6161 -1.7072
 3233TIP3   OH2 9704   0.852   0.044   2.595  0.3041 -0.1247  0.0007
 3233TIP3    H1 9705   0.852  -0.027   2.532 -0.3074 -1.0026  0.9619
 3233TIP3    H2 9706   0.775   0.028   2.650 -1.3877  2.6817 -1.3081
 3234TIP3   OH2 9707   5.135   0.097   0.957  0.0257 -0.6905 -0.6703
 3234TIP3    H1 9708   5.106   0.119   1.045 -0.1608  1.2985 -1.1753
 3234TIP3    H2 9709   5.144   0.002   0.957 -0.0198 -0.7282  1.4579
 3235TIP3   OH2 9710   3.527   0.355   0.475 -0.4280 -0.5178 -0.0429
 3235TIP3    H1 9711   3.523   0.360   0.380  1.4810  0.9895 -0.0865
 3235TIP3    H2 9712   3.443   0.391   0.504 -0.9125 -0.7270 -1.1328
 3236TIP3   OH2 9713   3.317   1.477   2.029 -0.1181  0.1919 -0.4986
 3236TIP3    H1 9714   3.384   1.545   2.018  0.3056  0.0179  0.8248
 3236TIP3    H2 9715   3.356   1.399   1.989 -0.1391  0.4484 -1.0242
 3237TIP3   OH2 9716   3.730   1.173   1.133 -0.1382 -0.3349  0.6899
 3237TIP3    H1 9717   3.765   1.090   1.164 -1.7416 -0.8588  1.1572
 3237TIP3    H2 9718   3.770   1.185   1.046 -0.3399 -1.8906  0.3566
 3238TIP3   OH2 9719   5.745   1.291   3.241  0.0082 -0.9443  0.1206
 3238TIP3    H1 9720   5.810   1.227   3.213  1.4094 -0.3949  1.9280
 3238TIP3    H2 9721   5.768   1.371   3.193 -0.8975 -1.3850 -1.0973
 3239TIP3   OH2 9722   1.913   2.981   1.847  0.5529  0.4038 -0.4757
 3239TIP3    H1 9723   1.981   3.014   1.906  0.8968  0.1272 -0.7101
 3239TIP3    H2 9724   1.873   2.908   1.894  0.5170  0.4739 -0.3976
 3240TIP3   OH2 9725   3.315   1.230   3.581  0.1204  0.4226  0.0953
 3240TIP3    H1 9726   3.244   1.248   3.520 -0.0876  1.0341  0.5088
 3240TIP3    H2 9727   3.328   1.136   3.576  0.7087  0.5649 -1.5628
 3241TIP3   OH2 9728   0.721   3.823   4.254 -0.3243  0.3230 -0.2282
 3241TIP3    H1 9729   0.771   3.770   4.316 -0.3822 -0.0295 -0.4790
 3241TIP3    H2 9730   0.689   3.897   4.305 -0.7736 -0.2118  0.2729
 3242TIP3   OH2 9731   5.730   3.303   0.809  0.5910 -0.1162 -0.4301
 3242TIP3    H1 9732   5.800   3.299   0.874 -2.3618 -0.7986  2.9904
 3242TIP3    H2 9733   5.690   3.216   0.811 -0.9148  0.5063 -1.6482
 3243TIP3   OH2 9734   2.703   4.543   2.368  0.6111 -0.0419  0.2465
 3243TIP3    H1 9735   2.611   4.561   2.388  0.7198  0.1230  0.6182
 3243TIP3    H2 9736   2.701   4.471   2.305  0.2497 -0.7023  0.9924
 3244TIP3   OH2 9737   0.008   5.077   0.537 -0.1460 -0.0682  0.3323
 3244TIP3    H1 9738  -0.006   5.081   0.442  3.0648 -0.5412 -0.3072
 3244TIP3    H2 9739   0.031   5.166   0.562  2.3994 -0.5253 -0.1045
 3245TIP3   OH2 9740   1.837   1.101   4.128 -0.8652 -0.3487  0.0966
 3245TIP3    H1 9741   1.808   1.094   4.037 -0.8116 -0.3758  0.0815
 3245TIP3    H2 9742   1.836   1.012   4.161  0.8825 -0.6086 -0.4258
 3246TIP3   OH2 9743   6.062   2.193   2.557 -0.3332 -0.1392 -0.1308
 3246TIP3    H1 9744   6.146   2.212   2.515 -0.1778 -2.3628 -0.9705
 3246TIP3    H2 9745   6.079   2.115   2.611 -1.8658 -0.7588 -0.4780
 3247TIP3   OH2 9746   5.548   0.549   0.714  0.1952  0.3350 -0.5758
 3247TIP3    H1 9747   5.457   0.577   0.702  0.3270  0.7200 -0.6745
 3247TIP3    H2 9748   5.565   0.560   0.808  0.2914  0.7104 -0.6394
 3248TIP3   OH2 9749   5.323   3.395   0.752 -0.3078 -0.5742  0.2605
 3248TIP3    H1 9750   5.322   3.316   0.806 -0.2721 -1.3589 -0.8446
 3248TIP3    H2 9751   5.278   3.369   0.672 -1.2897  0.8692  0.3116
 3249TIP3   OH2 9752   6.087   1.240   3.406  0.5338 -0.2454 -0.1848
 3249TIP3    H1 9753   6.051   1.199   3.327 -0.6208 -0.1041  0.2471
 3249TIP3    H2 9754   6.169   1.194   3.421  0.1230 -1.1799 -0.7169
 3250TIP3   OH2 9755   4.519   3.881   1.476 -0.7053  0.4895 -0.0196
 3250TIP3    H1 9756   4.572   3.960   1.480  1.4238 -0.8164 -0.5950
 3250TIP3    H2 9757   4.521   3.845   1.564  1.3235 -0.7009 -0.4966
 3251TIP3   OH2 9758   5.858   1.907   3.576  0.1402 -0.3274 -0.0907
 3251TIP3    H1 9759   5.884   1.837   3.635  2.4015 -0.3865 -1.0457
 3251TIP3    H2 9760   5.783   1.872   3.527 -1.6155 -0.3751  2.4374
 3252TIP3   OH2 9761   1.727   5.717   1.368  0.7257 -0.1775 -0.5273
 3252TIP3    H1 9762   1.775   5.799   1.355 -0.9169  0.7588 -0.8924
 3252TIP3    H2 9763   1.777   5.652   1.318  1.9230  0.6349 -0.4206
 3253TIP3   OH2 9764   4.791   3.979   2.848  0.5244 -0.1346 -0.1251
 3253TIP3    H1 9765   4.744   4.041   2.903 -2.2098 -0.2629 -2.1223
 3253TIP3    H2 9766   4.757   3.893   2.875  0.6823 -0.3639 -0.6543
 3254TIP3   OH2 9767   5.431   1.811   4.537 -0.2160 -0.1392  0.2942
 3254TIP3    H1 9768   5.424   1.857   4.454 -0.5504 -1.3399 -0.3698
 3254TIP3    H2 9769   5.506   1.751   4.525 -0.9393 -1.1022  0.4380
 3255TIP3   OH2 9770   1.903   0.766   2.380 -0.3284  0.6124 -0.8680
 3255TIP3    H1 9771   1.923   0.673   2.392  0.4378  0.7242 -1.2537
 3255TIP3    H2 9772   1.890   0.799   2.468 -1.1028  0.0424 -0.7468
 3256TIP3   OH2 9773   0.631   0.821   2.804  0.1483 -0.8611 -0.4809
 3256TIP3    H1 9774   0.599   0.823   2.895  0.2402 -0.0367 -0.4589
 3256TIP3    H2 9775   0.556   0.845   2.751  0.3678 -0.2899 -0.5381
 3257TIP3   OH2 9776   2.657   2.793   2.347  0.4440 -0.4826 -0.1572
 3257TIP3    H1 9777   2.588   2.785   2.412  1.0993  0.5462  0.6960
 3257TIP3    H2 9778   2.623   2.855   2.283 -0.2809 -1.6477 -0.9271
 3258TIP3   OH2 9779   2.406   5.622   0.153 -0.6240  0.3625 -0.1315
 3258TIP3    H1 9780   2.436   5.560   0.087  0.6408  1.5365 -0.7053
 3258TIP3    H2 9781   2.332   5.667   0.113 -1.0324 -0.2011 -0.0212
 3259TIP3   OH2 9782   3.730   1.071   3.427 -0.0610 -0.3502 -0.0802
 3259TIP3    H1 9783   3.783   0.991   3.419 -0.2329 -0.4271 -0.4704
 3259TIP3    H2 9784   3.779   1.137   3.378 -0.5373 -0.5299 -0.8073
 3260TIP3   OH2 9785   1.543   4.016   1.227 -0.8352 -0.3391 -0.4782
 3260TIP3    H1 9786   1.455   3.985   1.206 -1.2596 -1.0599  2.0596
 3260TIP3    H2 9787   1.530   4.108   1.251 -0.9273 -0.4500 -0.0871
 3261TIP3   OH2 9788   5.165   5.961   1.058  0.0811 -0.5116  0.2496
 3261TIP3    H1 9789   5.165   6.050   1.024  0.5897 -0.3724  0.6121
 3261TIP3    H2 9790   5.106   5.913   0.999  1.4473 -0.4302 -1.2617
 3262TIP3   OH2 9791   5.425   1.947   0.383 -0.1023  0.1858  0.2028
 3262TIP3    H1 9792   5.340   1.947   0.339 -0.3254 -1.8202  0.5600
 3262TIP3    H2 9793   5.444   1.855   0.400  1.6029  0.6686  1.2004
 3263TIP3   OH2 9794   1.374   2.781   4.719  0.3125 -0.3775 -0.3619
 3263TIP3    H1 9795   1.323   2.768   4.798  0.8122  0.4034  0.0964
 3263TIP3    H2 9796   1.442   2.843   4.744  0.4685 -0.1101 -1.4088
 3264TIP3   OH2 9797   4.653   3.622   3.163  0.6416  0.6444 -0.6070
 3264TIP3    H1 9798   4.701   3.540   3.152  1.2262  1.0605 -1.2350
 3264TIP3    H2 9799   4.568   3.595   3.199  1.0353 -0.1740 -0.2526
 3265TIP3   OH2 9800   4.888   4.962   3.106 -0.1635  0.3085 -0.1534
 3265TIP3    H1 9801   4.958   4.960   3.040 -1.2775 -0.2272 -1.3716
 3265TIP3    H2 9802   4.837   5.040   3.083 -0.5033  0.1722  0.1403
 3266TIP3   OH2 9803   3.687   0.159   1.505  0.1065 -0.1436 -0.2288
 3266TIP3    H1 9804   3.754   0.112   1.554  0.5945 -1.0764 -1.6963
 3266TIP3    H2 9805   3.639   0.090   1.458  0.9437  0.7554 -2.5677
 3267TIP3   OH2 9806   6.082   5.923   4.347 -0.0627  0.2990 -0.0717
 3267TIP3    H1 9807   6.057   5.868   4.273 -0.1541 -0.5299  0.5562
 3267TIP3    H2 9808   6.129   5.997   4.308  1.0263 -0.7711 -0.8802
 3268TIP3   OH2 9809   2.780   1.475   4.227  0.0641 -0.8654 -0.1358
 3268TIP3    H1 9810   2.743   1.558   4.196 -0.8115 -1.3201 -0.3412
 3268TIP3    H2 9811   2.787   1.421   4.148  2.3457 -0.3818 -0.3258
 3269TIP3   OH2 9812   1.276   2.168   4.047 -0.0035 -0.0220 -0.2608
 3269TIP3    H1 9813   1.367   2.167   4.019  0.0166 -1.0835 -0.1920
 3269TIP3    H2 9814   1.274   2.116   4.127 -0.3794  1.4489  0.7282
 3270TIP3   OH2 9815   4.897   2.780   4.472  0.0573 -0.6316 -0.2620
 3270TIP3    H1 9816   4.872   2.779   4.564 -1.8645 -0.6672 -0.7587
 3270TIP3    H2 9817   4.827   2.735   4.427  0.5194  0.1665 -1.8612
 3271TIP3   OH2 9818   4.839   4.777   1.474 -0.1652 -0.2168  0.4726
 3271TIP3    H1 9819   4.919   4.824   1.494 -0.5478  0.6889 -0.0502
 3271TIP3    H2 9820   4.867   4.688   1.453  0.8137  0.3301 -0.6465
 3272TIP3   OH2 9821   1.823   0.211   0.025 -0.3902  0.0371 -0.1531
 3272TIP3    H1 9822   1.888   0.242  -0.037  0.9784  0.2745  1.3274
 3272TIP3    H2 9823   1.871   0.152   0.083 -1.0670  1.4393  1.9705
 3273TIP3   OH2 9824   0.459   2.930   1.073 -0.1869  0.1453 -0.2674
 3273TIP3    H1 9825   0.508   2.850   1.094 -1.7351 -0.5616  0.8521
 3273TIP3    H2 9826   0.373   2.916   1.112 -0.9145  1.8381 -1.1782
 3274TIP3   OH2 9827   5.429   1.420   4.728 -0.1658  0.3043  0.0519
 3274TIP3    H1 9828   5.500   1.482   4.709  0.0921  0.4763  1.4625
 3274TIP3    H2 9829   5.352   1.460   4.687  0.5630  0.0195 -1.6558
 3275TIP3   OH2 9830   0.802   3.929   1.766 -0.5397 -0.0729  0.5389
 3275TIP3    H1 9831   0.744   3.907   1.839 -1.6853  0.7305 -0.0860
 3275TIP3    H2 9832   0.779   3.866   1.698 -1.8459  1.1973 -0.2636
 3276TIP3   OH2 9833   4.549   1.484   2.496 -0.1092 -0.3668 -0.1566
 3276TIP3    H1 9834   4.484   1.418   2.470 -2.2200  1.9267 -1.1313
 3276TIP3    H2 9835   4.528   1.560   2.441  2.3943  1.0410  0.7061
 3277TIP3   OH2 9836   2.379   4.082   1.896 -0.3569 -0.6910  0.5691
 3277TIP3    H1 9837   2.366   3.988   1.885  2.1600 -1.0888  0.4880
 3277TIP3    H2 9838   2.384   4.116   1.807  1.0801 -0.8858  0.5568
 3278TIP3   OH2 9839   6.203   3.035   3.897 -0.2575 -0.1401  0.1129
 3278TIP3    H1 9840   6.189   3.079   3.813 -1.5496  1.1386  0.9507
 3278TIP3    H2 9841   6.232   2.947   3.873 -0.6247  0.1827 -1.6762
 3279TIP3   OH2 9842   5.859   3.272   2.434  0.1183  0.1273  0.0253
 3279TIP3    H1 9843   5.832   3.219   2.359 -0.6845  1.2636 -0.5182
 3279TIP3    H2 9844   5.796   3.248   2.503 -0.5264  0.6807 -0.3574
 3280TIP3   OH2 9845   3.110   4.894   4.900 -0.0993 -0.4063  0.4501
 3280TIP3    H1 9846   3.190   4.888   4.952  0.7403 -0.8614 -0.8451
 3280TIP3    H2 9847   3.040   4.900   4.965  1.0184  0.8079  1.6194
 3281TIP3   OH2 9848   5.391   4.472   5.014  0.3843 -0.1850  0.2261
 3281TIP3    H1 9849   5.367   4.560   4.986  2.3933  0.6690  0.9968
 3281TIP3    H2 9850   5.409   4.425   4.932  1.3302  0.7638 -0.1280
 3282TIP3   OH2 9851   0.278   3.868   0.227  0.6124 -0.5403  0.2458
 3282TIP3    H1 9852   0.258   3.825   0.311  0.1022  1.8425  1.4442
 3282TIP3    H2 9853   0.233   3.952   0.233  2.8810  0.8652 -1.2571
 3283TIP3   OH2 9854   0.378   4.082   1.868 -0.5039 -0.8470 -0.1012
 3283TIP3    H1 9855   0.321   4.076   1.791 -0.9871 -0.7120  0.2396
 3283TIP3    H2 9856   0.459   4.120   1.835 -0.3767 -1.6397 -0.7165
 3284TIP3   OH2 9857   1.747   0.531   3.140  0.0799 -0.4356  0.1463
 3284TIP3    H1 9858   1.752   0.463   3.072 -1.9860 -1.4622  0.9429
 3284TIP3    H2 9859   1.662   0.572   3.127  0.7765  1.2101  0.4732
 3285TIP3   OH2 9860   0.518   3.340   2.475 -0.4611  0.1608 -0.2760
 3285TIP3    H1 9861   0.432   3.367   2.507 -1.4304  0.3404 -2.7456
 3285TIP3    H2 9862   0.501   3.308   2.386  1.9654 -0.2053 -0.6782
 3286TIP3   OH2 9863   2.334   0.467   3.537 -0.3820 -0.3173 -0.1508
 3286TIP3    H1 9864   2.284   0.510   3.467  0.2569 -0.3714 -0.6478
 3286TIP3    H2 9865   2.276   0.470   3.613 -0.8958  0.1788 -0.5536
 3287TIP3   OH2 9866   0.933   4.409   1.553  0.7803 -0.7382  0.0401
 3287TIP3    H1 9867   1.008   4.468   1.564  0.2867  0.3520 -1.9543
 3287TIP3    H2 9868   0.891   4.407   1.640  1.7666  0.5157  0.5748
 3288TIP3   OH2 9869   6.197   0.061   3.719 -0.3273  0.3273 -0.5272
 3288TIP3    H1 9870   6.133   0.129   3.741  0.1166 -0.1367  2.6250
 3288TIP3    H2 9871   6.162  -0.019   3.757  0.7238 -0.5532 -1.3379
 3289TIP3   OH2 9872   1.562   2.280   1.604  0.1364 -0.2393 -0.3814
 3289TIP3    H1 9873   1.545   2.286   1.510 -0.6714 -1.3032 -0.3142
 3289TIP3    H2 9874   1.516   2.201   1.632 -1.3282  1.1247  1.2750
 3290TIP3   OH2 9875   2.586   2.432   0.237 -0.2690  0.2645  0.3841
 3290TIP3    H1 9876   2.506   2.438   0.289  0.7892  0.5219  2.0554
 3290TIP3    H2 9877   2.555   2.419   0.147 -2.1605 -0.8159  1.1300
 3291TIP3   OH2 9878   3.306   2.807   2.102  0.2948  0.4041  0.6321
 3291TIP3    H1 9879   3.227   2.853   2.128  0.9507  1.0190  1.5870
 3291TIP3    H2 9880   3.302   2.806   2.006 -1.9928 -1.6131  0.6644
 3292TIP3   OH2 9881   3.874   1.819   3.800 -0.2764  0.3379  0.9134
 3292TIP3    H1 9882   3.788   1.793   3.831 -0.5479  0.3643  0.1971
 3292TIP3    H2 9883   3.857   1.885   3.732  0.2283 -0.7273 -0.2900
 3293TIP3   OH2 9884   0.708   0.508   4.684 -0.4736 -0.6737  0.9337
 3293TIP3    H1 9885   0.779   0.540   4.629  0.2940 -0.7868  1.8478
 3293TIP3    H2 9886   0.712   0.562   4.763 -0.6771 -1.4321  1.4780
 3294TIP3   OH2 9887   4.817   5.625   4.302  0.1847 -0.3933 -0.4053
 3294TIP3    H1 9888   4.856   5.559   4.244 -1.1559 -0.9714 -0.6781
 3294TIP3    H2 9889   4.819   5.584   4.388 -0.8802 -0.9185 -0.6163
 3295TIP3   OH2 9890   4.874   0.105   2.146 -0.2020  0.1874  0.1076
 3295TIP3    H1 9891   4.867   0.183   2.202 -0.2708  0.3168 -0.0778
 3295TIP3    H2 9892   4.910   0.139   2.064 -0.7261  0.1122 -0.1574
 3296TIP3   OH2 9893   3.252   4.754   1.972  0.2154  0.0923 -0.1084
 3296TIP3    H1 9894   3.240   4.753   1.877 -1.2234  0.0498  0.0476
 3296TIP3    H2 9895   3.220   4.669   2.001  0.4997  0.1654  0.4306
 3297TIP3   OH2 9896   1.771   2.740   3.141  0.2101 -0.0593 -0.3553
 3297TIP3    H1 9897   1.702   2.803   3.163 -1.2321 -1.6759 -0.0411
 3297TIP3    H2 9898   1.728   2.675   3.085  1.7535 -0.5734 -1.0166
 3298TIP3   OH2 9899   4.164   1.445   1.110  0.2894  0.5426 -0.2190
 3298TIP3    H1 9900   4.106   1.507   1.065 -0.8318  0.2952  0.8091
 3298TIP3    H2 9901   4.230   1.499   1.153 -0.8856  1.0958  0.9631
 3299TIP3   OH2 9902   5.313   0.059   4.281 -0.3543 -0.0305  0.2542
 3299TIP3    H1 9903   5.383   0.022   4.335 -0.8762  0.5824  1.3877
 3299TIP3    H2 9904   5.263  -0.017   4.252 -0.0680 -0.3720  0.6343
 3300TIP3   OH2 9905   5.301   4.203   1.580  0.0905 -0.0556 -0.1870
 3300TIP3    H1 9906   5.308   4.109   1.596  1.0283  0.1168  0.4625
 3300TIP3    H2 9907   5.386   4.229   1.547  0.4551  0.8742  1.3634
 3301TIP3   OH2 9908   5.192   0.772   3.583  0.7844 -0.0739 -0.3459
 3301TIP3    H1 9909   5.166   0.772   3.491  0.9807 -1.0797 -0.4098
 3301TIP3    H2 9910   5.286   0.792   3.581  1.2356 -2.0807 -0.5213
 3302TIP3   OH2 9911   4.374   1.976   1.842 -0.5817 -0.6310  0.6423
 3302TIP3    H1 9912   4.319   2.048   1.875 -0.2933 -1.0379  2.0596
 3302TIP3    H2 9913   4.315   1.926   1.785 -1.4546 -0.5546  1.4427
 3303TIP3   OH2 9914   6.280   4.696   3.913 -0.1868 -0.5689 -0.0671
 3303TIP3    H1 9915   6.291   4.626   3.848 -0.3176 -1.5227  0.9145
 3303TIP3    H2 9916   6.360   4.749   3.903  0.1697 -1.1583 -0.4603
 3304TIP3   OH2 9917   1.660   3.546   4.672  0.0876 -0.6949  0.0993
 3304TIP3    H1 9918   1.651   3.462   4.626 -1.4070 -0.4025 -0.1923
 3304TIP3    H2 9919   1.570   3.572   4.692  0.5774  0.4441  0.9212
 3305TIP3   OH2 9920   0.953   1.845   3.450  0.4848 -0.5637 -0.6421
 3305TIP3    H1 9921   0.924   1.829   3.540 -0.8910  0.5179 -0.8495
 3305TIP3    H2 9922   0.999   1.928   3.454  1.1328 -0.9095 -0.8107
 3306TIP3   OH2 9923   3.551   5.487   4.003 -0.3623  0.0386 -0.3587
 3306TIP3    H1 9924   3.576   5.399   4.032  2.5649  1.2038  1.0638
 3306TIP3    H2 9925   3.455   5.487   4.007 -0.4989 -3.1898 -0.9013
 3307TIP3   OH2 9926   5.712   5.185   4.978 -0.5214 -0.4494 -0.1715
 3307TIP3    H1 9927   5.671   5.107   4.940  0.1339 -0.2950 -1.2196
 3307TIP3    H2 9928   5.800   5.157   5.001 -0.4818 -0.1776  0.0095
 3308TIP3   OH2 9929   0.096   4.928   1.392 -0.0625 -0.4059 -0.0908
 3308TIP3    H1 9930   0.121   4.896   1.479  0.0024  2.0523  0.8804
 3308TIP3    H2 9931   0.019   4.983   1.408 -1.8034 -2.1095 -2.0452
 3309TIP3   OH2 9932   4.760   2.446   4.361 -0.0972 -0.0659 -0.4397
 3309TIP3    H1 9933   4.734   2.537   4.345  1.5918  0.6320  0.5912
 3309TIP3    H2 9934   4.705   2.418   4.434 -0.3144  0.2789 -0.4683
 3310TIP3   OH2 9935   6.310   1.618   3.468 -0.0384  0.1361 -0.7018
 3310TIP3    H1 9936   6.275   1.584   3.386 -1.5383  1.1202 -0.5151
 3310TIP3    H2 9937   6.377   1.681   3.442  2.2174 -2.2388 -1.0608
 3311TIP3   OH2 9938   6.206   4.273   0.577  0.4658  0.0978  0.1840
 3311TIP3    H1 9939   6.176   4.263   0.486  1.8605  0.9625 -0.3934
 3311TIP3    H2 9940   6.275   4.207   0.586  1.8521  1.4620 -0.1012
 3312TIP3   OH2 9941   4.544   4.210   4.445 -0.4508 -0.7492  0.2286
 3312TIP3    H1 9942   4.481   4.153   4.403 -1.3324  1.3164 -1.4432
 3312TIP3    H2 9943   4.506   4.298   4.438  1.2118  0.1843  1.9005
 3313TIP3   OH2 9944   0.290   4.589   4.050  0.5799  0.3509  0.2140
 3313TIP3    H1 9945   0.349   4.535   4.103 -0.5351 -0.3648  0.7652
 3313TIP3    H2 9946   0.289   4.674   4.095 -1.1466 -0.5424  2.0286
 3314TIP3   OH2 9947   0.593   5.851   3.946 -0.4577 -0.3625 -0.5860
 3314TIP3    H1 9948   0.569   5.904   4.022  1.6793 -0.4934  0.2262
 3314TIP3    H2 9949   0.588   5.913   3.872 -2.5890 -0.2511 -0.4099
 3315TIP3   OH2 9950   1.650   5.682   3.191  0.3655  0.0590  0.2022
 3315TIP3    H1 9951   1.597   5.603   3.201  0.6599 -0.3104 -0.9718
 3315TIP3    H2 9952   1.736   5.651   3.165  0.4610  0.7570 -0.3733
 3316TIP3   OH2 9953   5.362   3.060   4.120 -0.2334 -0.1665 -0.2272
 3316TIP3    H1 9954   5.429   3.001   4.154  0.1093  0.4411  0.1702
 3316TIP3    H2 9955   5.294   3.060   4.187 -0.7547 -0.9729 -0.7421
 3317TIP3   OH2 9956   6.025   0.914   4.151  0.2377  0.6508 -0.5160
 3317TIP3    H1 9957   5.969   0.977   4.197 -1.1534 -0.5843 -0.4336
 3317TIP3    H2 9958   6.114   0.950   4.160  0.0635  0.5866  3.0580
 3318TIP3   OH2 9959   0.119   1.016   2.567  0.1039  0.1414  0.0621
 3318TIP3    H1 9960   0.108   1.108   2.592  3.0165  0.6354 -0.2054
 3318TIP3    H2 9961   0.160   1.019   2.481 -1.2118 -1.4874 -0.7019
 3319TIP3   OH2 9962   1.043   1.011   3.763  0.0721  0.7773  0.0738
 3319TIP3    H1 9963   0.972   1.069   3.733  0.2498  1.4484  0.9272
 3319TIP3    H2 9964   1.098   1.067   3.817  1.9552  0.5939 -1.5447
 3320TIP3   OH2 9965   5.065   1.886   0.416  0.4463  0.1086  0.1503
 3320TIP3    H1 9966   5.111   1.804   0.432 -2.1915 -1.7662 -1.1076
 3320TIP3    H2 9967   5.076   1.936   0.497  1.4997 -1.8039  1.2524
 3321TIP3   OH2 9968   1.907   3.936   2.590  0.0152 -0.4988 -0.2318
 3321TIP3    H1 9969   1.875   3.853   2.553  0.2760 -1.5131  1.6907
 3321TIP3    H2 9970   1.998   3.919   2.611  0.1624  0.4012 -0.1170
 3322TIP3   OH2 9971   4.020   4.376   0.032 -0.4643 -0.1473  0.5469
 3322TIP3    H1 9972   3.993   4.465   0.010 -0.8373 -0.2056  0.7419
 3322TIP3    H2 9973   3.939   4.324   0.024  0.2005 -0.9473 -1.9661
 3323TIP3   OH2 9974   1.115   0.609   4.195 -0.0733 -0.0123 -0.4525
 3323TIP3    H1 9975   1.162   0.580   4.117  0.1795 -1.8786  0.3560
 3323TIP3    H2 9976   1.182   0.651   4.249 -0.1384  0.7799 -0.9693
 3324TIP3   OH2 9977   1.837   3.478   3.428  0.3323  0.9139  0.0753
 3324TIP3    H1 9978   1.854   3.546   3.493 -1.2625 -0.1839  1.7504
 3324TIP3    H2 9979   1.747   3.450   3.445  0.9117 -1.6145 -0.4991
 3325TIP3   OH2 9980   6.295   4.440   2.047 -0.2226 -0.3043  0.2940
 3325TIP3    H1 9981   6.310   4.520   2.097 -1.0565 -0.2706  0.4892
 3325TIP3    H2 9982   6.384   4.407   2.028  0.1470 -0.9017  2.7304
 3326TIP3   OH2 9983   4.720   2.806   2.403  0.3205 -0.2032 -0.0544
 3326TIP3    H1 9984   4.694   2.875   2.464  0.9790  0.5895 -0.6485
 3326TIP3    H2 9985   4.795   2.843   2.356 -0.8749 -0.3281 -2.1609
 3327TIP3   OH2 9986   0.776   2.215   1.775  0.2393  0.2881  0.0452
 3327TIP3    H1 9987   0.847   2.275   1.798  0.4684 -0.4977  1.5381
 3327TIP3    H2 9988   0.816   2.128   1.774 -0.6059 -0.1310  0.5864
 3328TIP3   OH2 9989   5.444   4.235   0.752  0.4103 -0.0430 -0.0608
 3328TIP3    H1 9990   5.534   4.267   0.754 -0.3091  2.1094  0.9906
 3328TIP3    H2 9991   5.408   4.271   0.671  0.0223  0.5667  0.3760
 3329TIP3   OH2 9992   1.111   1.685   0.647 -0.0471 -0.3116 -0.0101
 3329TIP3    H1 9993   1.139   1.772   0.620 -1.3233 -0.3747 -1.7500
 3329TIP3    H2 9994   1.087   1.695   0.739 -1.3778  1.5231 -0.4993
 3330TIP3   OH2 9995   6.031   5.975   2.501  0.2558  0.2749  0.0683
 3330TIP3    H1 9996   6.081   5.934   2.571 -0.1976  0.5177  0.5445
 3330TIP3    H2 9997   5.947   5.998   2.541  0.1614  0.8393 -0.4264
 3331TIP3   OH2 9998   2.334   3.669   4.513  0.2928  0.0599 -0.4949
 3331TIP3    H1 9999   2.296   3.660   4.426 -2.3076 -0.2007  0.5813
 3331TIP3    H210000   2.259   3.674   4.572  1.9295  1.9484  1.6008
 3332TIP3   OH210001   4.271   4.734   3.511  0.0524  0.3080 -0.2501
 3332TIP3    H110002   4.294   4.777   3.429 -0.1727 -1.6920 -1.4340
 3332TIP3    H210003   4.330   4.772   3.576  0.3094  1.8586 -1.3416
 3333TIP3   OH210004   1.212   4.908   3.291 -0.0186 -0.4943 -0.4790
 3333TIP3    H110005   1.127   4.949   3.302 -0.2925 -0.7367 -1.6239
 3333TIP3    H210006   1.251   4.911   3.379 -1.3138 -0.6536  0.1264
 3334TIP3   OH210007   1.405   4.123   0.730  0.1776 -0.1273 -1.3407
 3334TIP3    H110008   1.439   4.089   0.813  0.1419  0.7144 -0.9699
 3334TIP3    H210009   1.311   4.133   0.745  0.0155 -0.8364 -1.8000
 3335TIP3   OH210010   5.920   0.445   2.651  0.1756  0.0565 -0.8071
 3335TIP3    H110011   5.981   0.371   2.646  0.6399  0.4596 -1.1014
 3335TIP3    H210012   5.957   0.511   2.593  0.5790  1.1106  0.6140
 3336TIP3   OH210013   4.982   3.263   4.345 -0.8140  0.1978 -0.2474
 3336TIP3    H110014   4.955   3.248   4.436 -0.2956 -1.1951 -0.2994
 3336TIP3    H210015   5.031   3.345   4.348 -0.2313 -0.1695  0.8535
 3337TIP3   OH210016   5.566   0.774   1.504 -0.1675 -0.2629 -0.0822
 3337TIP3    H110017   5.595   0.711   1.571 -1.5969  0.6256  1.4401
 3337TIP3    H210018   5.588   0.732   1.421 -1.6964 -3.1436  0.8212
 3338TIP3   OH210019   0.765   0.349   4.988  0.2181 -0.3347 -0.1209
 3338TIP3    H110020   0.766   0.442   4.966  0.4974 -0.1650  0.5749
 3338TIP3    H210021   0.840   0.312   4.940  0.4586 -0.0875  0.0621
 3339TIP3   OH210022   0.846   5.220   4.813  0.2309  0.1069 -0.1673
 3339TIP3    H110023   0.856   5.214   4.718  1.3761  0.4408 -0.0783
 3339TIP3    H210024   0.780   5.289   4.825 -0.9441 -0.8695 -0.7261
 3340TIP3   OH210025   1.857   4.901   3.879  0.2119  0.3697  0.2036
 3340TIP3    H110026   1.913   4.924   3.805  1.4932  1.6412  1.5007
 3340TIP3    H210027   1.770   4.891   3.841  1.3703 -2.6154 -2.0673
 3341TIP3   OH210028   2.986   2.168   2.503  0.3878  0.6277 -0.3008
 3341TIP3    H110029   2.958   2.220   2.578 -0.3667  1.1414 -0.9120
 3341TIP3    H210030   3.076   2.197   2.486 -0.0684  1.8745 -0.7187
 3342TIP3   OH210031   1.924   0.271   3.995  0.1776 -0.4661  0.1008
 3342TIP3    H110032   1.998   0.227   3.953  0.5649  0.5053 -0.2457
 3342TIP3    H210033   1.857   0.276   3.927 -0.2400 -1.3646  0.4204
 3343TIP3   OH210034   0.212   5.017   5.119 -0.2073 -0.3340 -0.2388
 3343TIP3    H110035   0.240   4.991   5.032  3.3755 -1.4747  1.0406
 3343TIP3    H210036   0.124   4.982   5.129  0.0616 -1.8692 -2.6953
 3344TIP3   OH210037   6.048   3.214   3.336  0.3186 -0.1832  0.5112
 3344TIP3    H110038   6.036   3.221   3.241 -0.8398  1.6926  0.7578
 3344TIP3    H210039   5.975   3.159   3.365  0.2898 -0.2056  0.3986
 3345TIP3   OH210040   4.458   3.252   3.850 -0.2826 -0.7383 -0.3501
 3345TIP3    H110041   4.447   3.320   3.915 -2.5417 -1.0620 -0.3315
 3345TIP3    H210042   4.543   3.212   3.871  0.0995  0.6672  0.9145
 3346TIP3   OH210043   5.332   0.371   0.604 -0.8029 -0.1681 -0.2933
 3346TIP3    H110044   5.291   0.287   0.584 -2.3080  0.3834  0.3577
 3346TIP3    H210045   5.323   0.381   0.699  0.0667  0.3840 -0.2538
 3347TIP3   OH210046   0.338  -0.017   3.380 -0.5032 -0.1700  0.0838
 3347TIP3    H110047   0.360   0.056   3.437 -1.7139 -0.4027  0.8771
 3347TIP3    H210048   0.302   0.024   3.301 -1.8105  0.1158  0.7935
 3348TIP3   OH210049   2.534   0.298   3.658  0.2058 -0.5253  0.5858
 3348TIP3    H110050   2.464   0.362   3.646  1.0831  0.1123 -1.5600
 3348TIP3    H210051   2.539   0.286   3.753 -0.0606  2.5282  1.0948
 3349TIP3   OH210052   5.977   2.050   0.682 -0.0910  0.0375  0.1339
 3349TIP3    H110053   5.948   2.125   0.733  1.1556  1.1998 -0.8054
 3349TIP3    H210054   6.071   2.043   0.701  0.8084  1.5209 -3.1340
 3350TIP3   OH210055   3.465   3.125   3.716  0.2742  0.0957  0.0039
 3350TIP3    H110056   3.379   3.119   3.674  0.2752  1.0497 -0.1726
 3350TIP3    H210057   3.527   3.109   3.645  0.2453 -1.2674  0.2691
 3351TIP3   OH210058   5.017   4.584   4.920  0.3769  0.1740 -0.0614
 3351TIP3    H110059   4.945   4.521   4.916  0.0972  0.5248 -0.7607
 3351TIP3    H210060   5.077   4.556   4.851  2.0094 -1.3876  1.8572
 3352TIP3   OH210061   0.163   0.855   0.163  0.2670  0.4197  0.0985
 3352TIP3    H110062   0.224   0.827   0.232 -0.7876  0.3376  1.0306
 3352TIP3    H210063   0.079   0.818   0.189  0.0945 -0.8394 -2.0143
 3353TIP3   OH210064   1.119   2.517   2.621  0.0593  0.7824  0.9134
 3353TIP3    H110065   1.204   2.561   2.628  1.2563 -1.2655  0.1544
 3353TIP3    H210066   1.069   2.571   2.559  1.1974  1.4512  0.5381
 3354TIP3   OH210067   1.563   4.818   4.282  0.5226 -0.3609 -0.3678
 3354TIP3    H110068   1.531   4.733   4.312  0.8014  0.2931  1.9865
 3354TIP3    H210069   1.486   4.860   4.243 -0.4630 -0.4623  1.3668
 3355TIP3   OH210070   6.190   2.935   0.054 -0.3382  0.3780  0.6301
 3355TIP3    H110071   6.192   2.896   0.141 -0.3615  1.9427  1.3794
 3355TIP3    H210072   6.171   2.863  -0.005 -1.1468 -0.5798  2.0086
 3356TIP3   OH210073   1.269   5.696   0.206 -0.2956 -0.1423 -0.1491
 3356TIP3    H110074   1.229   5.636   0.270  1.0892  0.2220  1.1231
 3356TIP3    H210075   1.336   5.742   0.256 -0.3402  1.4418 -1.4595
 3357TIP3   OH210076   2.684   4.707   4.643  0.3357  0.1326 -0.1219
 3357TIP3    H110077   2.743   4.780   4.622 -0.9648  0.8808 -1.3200
 3357TIP3    H210078   2.600   4.748   4.660  0.0871 -0.9310  1.5167
 3358TIP3   OH210079   4.898   4.106   0.186 -0.2914 -0.5062  0.4143
 3358TIP3    H110080   4.867   4.042   0.251  0.2386 -2.7752 -1.4037
 3358TIP3    H210081   4.987   4.078   0.167 -0.1638  0.5945 -0.7099
 3359TIP3   OH210082   4.170   1.962   3.460 -0.4578  0.5901  0.1454
 3359TIP3    H110083   4.083   1.995   3.435  0.3015  0.9990 -2.2998
 3359TIP3    H210084   4.197   1.909   3.385  1.3132  0.2789  0.9594
 3360TIP3   OH210085   5.987   0.867   0.612  0.2202  0.5452 -0.2112
 3360TIP3    H110086   6.046   0.829   0.677 -0.2253 -0.3611 -0.3322
 3360TIP3    H210087   5.903   0.826   0.628  0.0269  0.5455 -1.1643
 3361TIP3   OH210088   6.067   3.108   0.735  0.5376  0.0389 -0.4787
 3361TIP3    H110089   6.018   3.182   0.700 -0.2776 -0.7893 -1.1776
 3361TIP3    H210090   6.158   3.137   0.736  0.1899  1.1500 -0.4388
 3362TIP3   OH210091   2.202   5.540   2.534 -0.1607  0.1363 -0.0450
 3362TIP3    H110092   2.144   5.617   2.536  1.1700  1.1790  0.0118
 3362TIP3    H210093   2.144   5.466   2.547 -1.4725  1.1533  0.1120
 3363TIP3   OH210094   5.195   1.636   0.499 -0.2469 -0.0355 -0.0470
 3363TIP3    H110095   5.175   1.561   0.443 -2.3232  0.9455 -0.7288
 3363TIP3    H210096   5.285   1.658   0.479  0.0186 -1.6024 -0.7039
 3364TIP3   OH210097   5.507   5.803   4.041 -0.5249 -0.4798  0.5602
 3364TIP3    H110098   5.473   5.880   3.997  2.6868  1.2933  0.8530
 3364TIP3    H210099   5.550   5.753   3.971  1.1866  0.3245  0.9919
 3365TIP3   OH210100   0.918   5.440   1.752  0.1851 -0.2189  0.0691
 3365TIP3    H110101   0.875   5.447   1.667  0.7711 -1.2190 -0.3282
 3365TIP3    H210102   0.851   5.467   1.815  0.2221  2.0904 -0.7887
 3366TIP3   OH210103   0.281   2.586   0.459 -0.1555  0.0576 -0.0613
 3366TIP3    H110104   0.225   2.654   0.497 -0.7730 -0.4130 -0.1215
 3366TIP3    H210105   0.226   2.543   0.394  0.4148 -0.1334 -0.4218
 3367TIP3   OH210106   3.953   2.235   4.067  0.4778  0.3106 -0.2936
 3367TIP3    H110107   3.871   2.282   4.050 -0.7773 -1.5638  0.2814
 3367TIP3    H210108   3.967   2.182   3.988  0.2236 -0.6075  0.2642
 3368TIP3   OH210109   5.709   0.355   1.285 -0.0864 -0.3734  0.4094
 3368TIP3    H110110   5.730   0.378   1.375 -0.2650 -0.0487  0.3689
 3368TIP3    H210111   5.794   0.341   1.243  0.3300  3.5978 -0.4874
 3369TIP3   OH210112   1.582   2.337   0.989  0.0959  0.5497  0.2803
 3369TIP3    H110113   1.650   2.294   0.938 -0.8029 -0.4769 -0.0747
 3369TIP3    H210114   1.529   2.384   0.925  0.1823  0.9689  0.5087
 3370TIP3   OH210115   3.395   5.439   0.946 -0.0502 -0.0026 -0.0313
 3370TIP3    H110116   3.370   5.530   0.958  0.1213 -0.1382  1.4385
 3370TIP3    H210117   3.367   5.395   1.026  0.5591 -1.0917 -0.3959
 3371TIP3   OH210118   2.851   4.594   1.778 -0.2016 -0.0842 -0.0044
 3371TIP3    H110119   2.786   4.533   1.743 -0.9458  0.9952 -0.5465
 3371TIP3    H210120   2.910   4.610   1.705 -0.1376  0.0156  0.0700
 3372TIP3   OH210121   5.731   5.723   3.486 -0.2733 -1.0912  0.6449
 3372TIP3    H110122   5.637   5.704   3.493 -0.7929  1.2424  0.7662
 3372TIP3    H210123   5.741   5.812   3.521  1.7783 -0.7655 -0.5732
 3373TIP3   OH210124   4.207   5.854   3.327 -0.0115 -0.2114  0.1391
 3373TIP3    H110125   4.205   5.820   3.237  0.2016 -0.9629  0.4078
 3373TIP3    H210126   4.300   5.855   3.350 -0.0007  0.7831  0.0595
 3374TIP3   OH210127   0.661   5.702   2.663  0.5967  0.1710  0.2776
 3374TIP3    H110128   0.722   5.664   2.725  0.8485 -0.5080 -0.3635
 3374TIP3    H210129   0.577   5.659   2.683  0.6142  0.1607  0.3284
 3375TIP3   OH210130   5.762   4.899   1.697 -0.5129  0.3250  0.0465
 3375TIP3    H110131   5.760   4.993   1.712  2.3223  0.4658  0.1443
 3375TIP3    H210132   5.770   4.861   1.785  0.8379  0.1831 -0.1213
 3376TIP3   OH210133   0.756   3.241   0.430 -0.1382  0.1223 -0.1910
 3376TIP3    H110134   0.759   3.166   0.490 -0.7471 -1.0789 -1.5929
 3376TIP3    H210135   0.847   3.253   0.403  0.1110  0.5484  0.7999
 3377TIP3   OH210136   4.526   0.861   2.012 -0.0544 -0.5564 -0.3470
 3377TIP3    H110137   4.570   0.885   2.094  0.6568 -0.3448 -0.7808
 3377TIP3    H210138   4.533   0.766   2.008  0.4827 -0.5172 -0.4671
 3378TIP3   OH210139   5.527   3.388   3.847 -0.2243 -0.4217  0.3815
 3378TIP3    H110140   5.452   3.444   3.826  0.5567  0.5162 -0.0189
 3378TIP3    H210141   5.562   3.424   3.928  0.5543 -0.0201 -0.1175
 3379TIP3   OH210142   0.786   3.057   1.083 -0.6972  0.2503  0.9760
 3379TIP3    H110143   0.847   3.129   1.102 -0.0527 -0.0555  0.1438
 3379TIP3    H210144   0.761   3.023   1.168  0.1428  0.5214  1.3428
 3380TIP3   OH210145   4.153   5.008   1.611  0.6404 -0.4771 -0.5407
 3380TIP3    H110146   4.078   5.022   1.553  1.4268 -0.1752 -1.5069
 3380TIP3    H210147   4.158   4.913   1.619  0.0070 -0.4932 -0.2670
 3381TIP3   OH210148   3.100   5.932   4.890 -0.1388  0.1702  0.1605
 3381TIP3    H110149   3.141   5.878   4.957 -0.4664 -0.2329  0.0461
 3381TIP3    H210150   3.149   6.014   4.891  2.2985 -1.1283 -1.6670
 3382TIP3   OH210151   4.292   4.881   3.771  0.2583 -0.0857 -0.1524
 3382TIP3    H110152   4.357   4.913   3.708  0.5700  0.9045  0.6516
 3382TIP3    H210153   4.213   4.930   3.750  1.1011  2.4301  1.9808
 3383TIP3   OH210154   4.800   0.493   3.781  0.5237  0.7624 -0.4537
 3383TIP3    H110155   4.714   0.535   3.785  0.3342  0.2797  1.5818
 3383TIP3    H210156   4.801   0.433   3.855  0.8935 -2.6819 -3.0222
 3384TIP3   OH210157   2.546   3.392   2.037  0.9849 -0.0438 -0.5592
 3384TIP3    H110158   2.578   3.342   2.112  0.2764  2.4356  1.5662
 3384TIP3    H210159   2.575   3.482   2.054 -3.2665  1.5732 -0.6662
 3385TIP3   OH210160   5.253   4.110   4.459  0.2027 -0.1359  0.2592
 3385TIP3    H110161   5.313   4.162   4.406 -1.0727  1.5612  0.3646
 3385TIP3    H210162   5.183   4.085   4.399  0.7171 -1.6704  0.2509
 3386TIP3   OH210163   5.884   5.106   2.414  0.0351 -0.8905 -0.5447
 3386TIP3    H110164   5.895   5.011   2.409 -2.7957 -1.2461 -2.5229
 3386TIP3    H210165   5.793   5.121   2.388 -0.0884  2.2969  1.1700
 3387TIP3   OH210166   5.127   4.875   2.565  0.8333  0.4439 -0.0844
 3387TIP3    H110167   5.135   4.943   2.631  0.5876  0.2737  0.1251
 3387TIP3    H210168   5.037   4.843   2.575  0.4427  1.1367 -1.2119
 3388TIP3   OH210169   5.348   2.427   4.689 -0.1012  0.6131  0.7732
 3388TIP3    H110170   5.296   2.378   4.626 -1.3177  0.2291  2.0142
 3388TIP3    H210171   5.428   2.376   4.699 -0.8316 -0.5174  1.1372
 3389TIP3   OH210172   5.912   5.780   3.066  0.3216 -0.2589  0.0050
 3389TIP3    H110173   5.920   5.817   3.154  1.9181  1.1480 -0.6792
 3389TIP3    H210174   5.920   5.856   3.007  0.9291 -1.3554 -1.3876
 3390TIP3   OH210175   1.931   1.251   3.770  0.0327  0.3412  0.5372
 3390TIP3    H110176   1.981   1.177   3.805 -0.0531  1.1588  2.5115
 3390TIP3    H210177   1.861   1.265   3.833 -1.9315  0.1134 -1.4574
 3391TIP3   OH210178   5.469   5.218   0.754  0.2915  0.6040  0.2123
 3391TIP3    H110179   5.494   5.128   0.731  1.9257  1.4434 -1.6025
 3391TIP3    H210180   5.423   5.210   0.837  1.7725 -1.7630  0.8914
 3392TIP3   OH210181   3.280   0.071   2.398 -0.5893  0.2784  0.3427
 3392TIP3    H110182   3.286   0.063   2.493  0.2025  1.1205  0.3737
 3392TIP3    H210183   3.198   0.027   2.376 -0.3378 -0.7212  1.3090
 3393TIP3   OH210184   5.776   1.936   2.719 -0.2334  0.3249 -0.0501
 3393TIP3    H110185   5.697   1.885   2.703  0.1085 -0.0575 -0.5693
 3393TIP3    H210186   5.841   1.899   2.659  0.4995  0.2749  0.7567
 3394TIP3   OH210187   3.955   1.450   0.335  0.1991 -0.0166 -0.1531
 3394TIP3    H110188   4.015   1.444   0.261 -0.8849  1.7422 -1.2278
 3394TIP3    H210189   3.992   1.521   0.389 -0.2917  0.3091 -0.2418
 3395TIP3   OH210190   3.686   0.889   3.813 -0.0285 -0.3555  0.3371
 3395TIP3    H110191   3.710   0.799   3.835 -0.6227 -0.8316 -0.8684
 3395TIP3    H210192   3.590   0.890   3.816 -0.0444  0.1095 -0.1064
 3396TIP3   OH210193   4.709   2.323   2.788 -0.3915  0.1874 -0.5979
 3396TIP3    H110194   4.643   2.270   2.833  1.1863 -0.2479  1.3538
 3396TIP3    H210195   4.698   2.411   2.823  0.3732  0.0034  0.1310
 3397TIP3   OH210196   5.107   4.824   3.498  0.1629 -0.1357 -0.0305
 3397TIP3    H110197   5.198   4.855   3.499  0.2849 -0.4805  0.6799
 3397TIP3    H210198   5.085   4.814   3.591 -0.3316 -0.8177 -0.2126
 3398TIP3   OH210199   3.102   3.454   3.415  0.7088 -0.1782  0.5997
 3398TIP3    H110200   3.061   3.500   3.487 -1.9380  0.8148 -1.3793
 3398TIP3    H210201   3.048   3.376   3.401 -1.2645  1.5547 -2.5767
 3399TIP3   OH210202   4.253   5.359   3.386  0.6030 -0.3628 -0.6522
 3399TIP3    H110203   4.326   5.411   3.353  1.1430  0.0563  1.0838
 3399TIP3    H210204   4.186   5.424   3.409  1.8826 -0.1036  3.0529
 3400TIP3   OH210205   0.263   4.965   4.856  0.1418 -0.5286  0.2113
 3400TIP3    H110206   0.308   5.033   4.804  1.6856 -0.0511  2.0622
 3400TIP3    H210207   0.307   4.884   4.831 -0.1589 -0.5300 -0.3310
 3401TIP3   OH210208   6.202   4.678   3.404 -0.2220 -0.2146 -0.0054
 3401TIP3    H110209   6.247   4.710   3.482 -1.4931 -1.0138  1.1015
 3401TIP3    H210210   6.175   4.757   3.357  0.2951  0.2717  0.5109
 3402TIP3   OH210211   3.049   0.456   1.883  0.3229  0.1814  0.0168
 3402TIP3    H110212   2.966   0.412   1.904  0.1607 -0.4241 -1.7671
 3402TIP3    H210213   3.114   0.407   1.933 -0.1521 -0.5840 -0.0972
 3403TIP3   OH210214   0.721   1.757   2.073  0.4253  0.2535 -0.3429
 3403TIP3    H110215   0.654   1.708   2.025  1.7105 -0.5944 -1.3743
 3403TIP3    H210216   0.782   1.690   2.103  0.9440  1.0206  0.3473
 3404TIP3   OH210217   1.442   4.577   4.328  0.2064  1.1886  0.5743
 3404TIP3    H110218   1.351   4.563   4.302  0.3076  2.0070 -0.2905
 3404TIP3    H210219   1.468   4.496   4.372 -0.9280  0.9453  0.8109
 3405TIP3   OH210220   1.999   1.375   1.437  0.2188 -0.4212  0.2626
 3405TIP3    H110221   2.070   1.399   1.496 -0.7659  0.5048  1.1030
 3405TIP3    H210222   1.920   1.380   1.491 -0.6462 -0.0744 -0.9994
 3406TIP3   OH210223   6.338   2.080   0.286  0.3069 -0.0353  0.4121
 3406TIP3    H110224   6.361   1.995   0.323  1.7412  0.4788  0.7727
 3406TIP3    H210225   6.323   2.136   0.362  1.3175  0.5127  0.2377
 3407TIP3   OH210226   1.928   5.115   1.301  0.0575 -0.3890 -0.0065
 3407TIP3    H110227   1.950   5.142   1.390 -1.4717  0.0058  0.2773
 3407TIP3    H210228   1.845   5.068   1.309  0.2082 -0.9065 -1.1508
 3408TIP3   OH210229   1.505   1.352   3.868  0.6274 -0.5752  0.0853
 3408TIP3    H110230   1.518   1.396   3.784  0.1854 -1.0215 -0.2251
 3408TIP3    H210231   1.581   1.378   3.921  0.8728 -0.2345 -0.4264
 3409TIP3   OH210232   1.209   1.951   2.643  0.4070  0.2227  0.3484
 3409TIP3    H110233   1.285   1.912   2.687  0.9377 -0.4129 -1.0537
 3409TIP3    H210234   1.244   2.031   2.603  0.8107 -0.8899 -1.6745
 3410TIP3   OH210235   0.399   2.563   2.549  0.1924 -0.2705  0.4909
 3410TIP3    H110236   0.418   2.476   2.514  0.8551 -0.3965  1.1422
 3410TIP3    H210237   0.319   2.552   2.600 -1.3659  0.1169 -1.6986
 3411TIP3   OH210238   1.701   1.671   1.015 -0.0321 -0.4053 -0.1868
 3411TIP3    H110239   1.777   1.638   1.063 -0.4303 -1.3998 -0.2041
 3411TIP3    H210240   1.700   1.765   1.033 -0.0471 -0.7175  1.5929
 3412TIP3   OH210241   4.083   3.291   1.231  0.0475 -0.7195 -0.6555
 3412TIP3    H110242   4.031   3.211   1.226  1.0968 -1.3384 -2.6702
 3412TIP3    H210243   4.104   3.301   1.324 -0.1542 -2.7470 -0.3583
 3413TIP3   OH210244   4.628   4.925   4.916  0.2833  0.2934 -0.0022
 3413TIP3    H110245   4.543   4.967   4.932  1.2134  1.7269  1.3740
 3413TIP3    H210246   4.692   4.995   4.929  1.6894 -0.7304 -1.1802
 3414TIP3   OH210247   5.559   5.939   2.828  0.0763  0.4704  0.4632
 3414TIP3    H110248   5.556   5.954   2.733  0.2011 -0.1302  0.3601
 3414TIP3    H210249   5.467   5.930   2.853  0.1043 -1.0091  0.1188
 3415TIP3   OH210250   3.362   5.423   4.762 -0.0173 -0.5632 -0.1778
 3415TIP3    H110251   3.389   5.372   4.839 -1.6540 -1.9793 -0.4993
 3415TIP3    H210252   3.369   5.514   4.791  1.8121 -0.9602  0.7983
 3416TIP3   OH210253   0.660   1.155   0.437  0.0786  0.6412 -0.2771
 3416TIP3    H110254   0.686   1.143   0.346 -0.2024  0.1513 -0.2981
 3416TIP3    H210255   0.726   1.108   0.488  0.8088  1.7653 -0.1610
 3417TIP3   OH210256   3.179   3.846   2.642  0.5845 -0.0027 -0.4088
 3417TIP3    H110257   3.153   3.759   2.611 -0.4300 -0.1342  0.7513
 3417TIP3    H210258   3.097   3.890   2.662  1.1521  0.3974  1.1971
 3418TIP3   OH210259   5.763   0.099   0.591  0.7092 -0.2025  0.2007
 3418TIP3    H110260   5.711   0.179   0.585 -0.9396 -1.2783 -0.4945
 3418TIP3    H210261   5.796   0.084   0.503 -0.9649 -1.5106 -0.2542
 3419TIP3   OH210262   5.498   0.395   4.871  0.2551 -0.0553 -0.3860
 3419TIP3    H110263   5.573   0.364   4.821  0.3429 -1.0394  0.3328
 3419TIP3    H210264   5.529   0.474   4.916  0.3398  0.5103 -1.4106
 3420TIP3   OH210265   0.900   4.851   4.248 -0.1292  0.5635 -0.1428
 3420TIP3    H110266   0.900   4.755   4.239  0.3332  0.5004  0.4479
 3420TIP3    H210267   0.931   4.882   4.163  0.1469  0.1659 -0.1951
 3421TIP3   OH210268   0.065   0.378   3.693 -0.1969 -0.1102 -0.3318
 3421TIP3    H110269   0.039   0.300   3.644 -0.4591 -1.1483  1.3795
 3421TIP3    H210270  -0.014   0.405   3.740  0.4933 -0.2879  0.9761
 3422TIP3   OH210271   2.520   3.941   1.533  0.8357 -0.6928 -0.6507
 3422TIP3    H110272   2.574   3.937   1.612 -0.6737  0.5991  0.5006
 3422TIP3    H210273   2.581   3.969   1.464  2.0208 -1.1425  0.1779
 3423TIP3   OH210274  -0.009   3.176   0.731 -0.0687 -0.4169  0.8807
 3423TIP3    H110275   0.018   3.191   0.640  0.3203 -1.3382  0.8360
 3423TIP3    H210276   0.039   3.099   0.758  0.1199  0.0789  2.0137
 3424TIP3   OH210277   5.180   2.580   1.439 -0.3431  0.0030 -0.4498
 3424TIP3    H110278   5.239   2.509   1.415  2.2086  1.7507  0.1574
 3424TIP3    H210279   5.122   2.542   1.505  1.7099 -1.2732  0.7402
 3425TIP3   OH210280   1.636   0.330   4.858 -0.4630 -0.0879 -0.4464
 3425TIP3    H110281   1.698   0.260   4.877  0.2566  1.3096  3.2032
 3425TIP3    H210282   1.691   0.403   4.828 -0.3382  0.8357  1.8459
 3426TIP3   OH210283   4.661   3.025   0.715 -0.2962  0.0222  0.4670
 3426TIP3    H110284   4.598   3.069   0.658 -0.0893  0.4511  0.5651
 3426TIP3    H210285   4.695   2.953   0.662  1.5413  1.7173 -0.7925
 3427TIP3   OH210286   1.709   4.189   0.334  0.2073  0.5447 -0.4463
 3427TIP3    H110287   1.666   4.162   0.415  0.2091 -0.7859 -0.8742
 3427TIP3    H210288   1.638   4.204   0.273  0.2976 -1.4343 -1.0867
 3428TIP3   OH210289   1.189   0.368   2.810 -0.1548 -0.0126  0.3133
 3428TIP3    H110290   1.103   0.336   2.786 -0.3067  0.8995 -0.4047
 3428TIP3    H210291   1.209   0.325   2.894 -1.6719  0.4378  0.9289
 3429TIP3   OH210292   4.190   5.406   2.714 -0.6823 -0.4859  0.1459
 3429TIP3    H110293   4.097   5.404   2.737 -0.2817 -1.1388  1.8612
 3429TIP3    H210294   4.212   5.314   2.697 -0.1068 -0.4921  0.8696
 3430TIP3   OH210295   3.613   4.338   4.348  0.3255  0.3175 -0.1483
 3430TIP3    H110296   3.572   4.278   4.410  1.0757 -1.2447 -1.1173
 3430TIP3    H210297   3.569   4.422   4.363 -1.9962 -0.8689  0.0377
 3431TIP3   OH210298   0.127   4.363   4.030  0.0725  0.5630  0.0914
 3431TIP3    H110299   0.206   4.417   4.019  0.7892 -0.2039  1.3099
 3431TIP3    H210300   0.107   4.333   3.942  1.1694  0.7439 -0.2438
 3432TIP3   OH210301   2.496   2.243   1.000  0.5993 -0.0165  0.0575
 3432TIP3    H110302   2.505   2.256   1.094  0.5567  0.0675  0.0500
 3432TIP3    H210303   2.560   2.303   0.961  0.6628 -0.0981  0.0342
 3433TIP3   OH210304   5.323   1.659   3.005  0.0586 -0.1739 -0.1469
 3433TIP3    H110305   5.328   1.710   2.924  0.8398  0.7031  0.4385
 3433TIP3    H210306   5.243   1.690   3.048 -0.6427 -1.0053 -0.7912
 3434TIP3   OH210307   3.559   0.254   1.273  0.0769  0.2502 -0.4209
 3434TIP3    H110308   3.606   0.253   1.356 -0.1992  2.2570 -0.1897
 3434TIP3    H210309   3.493   0.185   1.282 -1.9574  2.3266  2.3259
 3435TIP3   OH210310   1.623   3.600   2.680 -0.1518  0.0130 -0.2076
 3435TIP3    H110311   1.589   3.566   2.763 -1.4654 -0.7818 -1.0284
 3435TIP3    H210312   1.552   3.653   2.645 -0.0820 -0.6274 -1.3752
 3436TIP3   OH210313   5.063   3.031   2.437 -0.6162  0.1397 -0.0488
 3436TIP3    H110314   4.983   3.083   2.434 -1.4070 -0.8513  1.7715
 3436TIP3    H210315   5.124   3.083   2.490 -0.3319  0.5239 -0.7416
 3437TIP3   OH210316   3.458   5.901   4.455 -0.2530 -0.1264  0.3513
 3437TIP3    H110317   3.541   5.885   4.500 -0.0121 -0.8644 -0.3309
 3437TIP3    H210318   3.396   5.841   4.496 -1.1737  2.2595  2.7149
 3438TIP3   OH210319   4.636   4.920   1.118  0.3212 -0.1605  0.7366
 3438TIP3    H110320   4.705   4.985   1.105 -0.0174  0.5045  2.1083
 3438TIP3    H210321   4.559   4.971   1.141 -1.1070 -0.7779 -2.1785
 3439TIP3   OH210322   2.057   3.246   0.607  0.1957  0.2276  0.6325
 3439TIP3    H110323   2.085   3.162   0.643  1.7390  0.2635 -0.3938
 3439TIP3    H210324   2.131   3.305   0.622  0.1900  0.7065 -0.9568
 3440TIP3   OH210325   3.049   2.597   1.346  0.2792  0.0091 -0.2836
 3440TIP3    H110326   3.052   2.512   1.389 -0.7638  0.6662  1.1564
 3440TIP3    H210327   2.976   2.591   1.285 -0.5229  0.2179  0.6357
 3441TIP3   OH210328   1.284   2.947   1.170  0.2410 -0.4905  0.0868
 3441TIP3    H110329   1.250   2.919   1.085 -1.9520  0.4108  0.6036
 3441TIP3    H210330   1.235   3.027   1.190  2.9200  1.0778  0.8095
 3442TIP3   OH210331   4.318   4.164   4.613 -0.2057  0.0632 -0.3698
 3442TIP3    H110332   4.239   4.197   4.569 -0.3386  0.1966 -0.0306
 3442TIP3    H210333   4.348   4.093   4.557 -0.8636 -0.3372 -0.2247
 3443TIP3   OH210334   3.378   4.438   3.908  0.2629  0.3108 -0.4472
 3443TIP3    H110335   3.442   4.453   3.978 -0.0799  1.5842 -0.3781
 3443TIP3    H210336   3.423   4.468   3.829  0.8484 -1.6123 -0.9060
 3444TIP3   OH210337   3.147   4.891   4.387 -0.6544 -0.1707  0.1746
 3444TIP3    H110338   3.233   4.921   4.360 -1.1415  0.5825 -0.5868
 3444TIP3    H210339   3.157   4.870   4.480  0.6472 -1.2720 -0.1803
 3445TIP3   OH210340   0.434   2.848   4.144 -0.1999  0.1443 -0.7331
 3445TIP3    H110341   0.382   2.791   4.201 -1.3966  2.1591  0.2692
 3445TIP3    H210342   0.525   2.827   4.166 -0.5992 -1.1429 -0.1883
 3446TIP3   OH210343   4.066   5.762   0.411 -0.1523  0.5454 -0.2646
 3446TIP3    H110344   3.987   5.748   0.359  0.2356 -1.4558 -0.4070
 3446TIP3    H210345   4.034   5.784   0.498 -0.8086  3.0282 -1.0539
 3447TIP3   OH210346   3.742   3.763   5.029  0.2820  0.1698 -0.3168
 3447TIP3    H110347   3.756   3.678   4.989  0.8336  0.3492 -0.5168
 3447TIP3    H210348   3.660   3.754   5.077 -0.7430  0.1497 -2.0005
 3448TIP3   OH210349   1.592   2.094   4.158 -0.0994 -0.4451 -0.0112
 3448TIP3    H110350   1.660   2.149   4.119  0.6836 -2.0187 -0.9678
 3448TIP3    H210351   1.637   2.012   4.180 -0.8402 -0.1602  2.9826
 3449TIP3   OH210352   1.894   4.090   5.003 -0.4409  0.2464  0.4707
 3449TIP3    H110353   1.875   4.048   5.086  1.1019 -0.6365  0.4117
 3449TIP3    H210354   1.984   4.121   5.011  0.4507 -1.5315 -1.4672
 3450TIP3   OH210355   3.647   4.661   5.054 -0.7064  0.4834 -0.3568
 3450TIP3    H110356   3.703   4.700   5.121 -0.6874  0.0899 -0.1431
 3450TIP3    H210357   3.564   4.645   5.098 -0.0462 -1.7330  0.1884
 3451TIP3   OH210358   1.156   4.133   1.887 -0.2867 -0.8739 -0.4274
 3451TIP3    H110359   1.224   4.201   1.882 -0.5331 -0.4581  1.2370
 3451TIP3    H210360   1.172   4.089   1.970 -2.7068 -0.0130  0.5986
 3452TIP3   OH210361   1.258   3.587   1.280  0.4670 -0.0471  0.2894
 3452TIP3    H110362   1.316   3.530   1.331  2.0664  1.2103 -0.0795
 3452TIP3    H210363   1.196   3.621   1.344  2.1300  1.1041  1.3721
 3453TIP3   OH210364   6.107   4.789   2.672 -0.8004  0.4885  0.3348
 3453TIP3    H110365   6.077   4.879   2.663  0.3817  1.3279  3.4857
 3453TIP3    H210366   6.026   4.738   2.682 -1.5745  0.8321 -3.1113
 3454TIP3   OH210367   2.665   3.837   4.452 -0.2673 -0.0878  0.4646
 3454TIP3    H110368   2.599   3.885   4.502  0.0537 -1.0062  1.8423
 3454TIP3    H210369   2.749   3.869   4.485 -0.0486 -0.7194  0.5347
 3455TIP3   OH210370   2.162   0.085   2.050 -0.2922  0.2813 -0.4645
 3455TIP3    H110371   2.244   0.108   2.006  0.9213 -2.8691 -0.0981
 3455TIP3    H210372   2.189   0.062   2.139 -1.7419  0.0665 -0.0560
 3456TIP3   OH210373   1.585   0.274   4.012  0.2001 -0.3917 -0.1673
 3456TIP3    H110374   1.555   0.241   3.927 -2.1495  0.5883  0.2148
 3456TIP3    H210375   1.612   0.364   3.995 -1.5817  0.2699  0.3192
 3457TIP3   OH210376   4.175   5.611   1.937 -0.3315 -0.0659 -0.1457
 3457TIP3    H110377   4.215   5.685   1.982  0.8441 -1.9457  2.0807
 3457TIP3    H210378   4.096   5.592   1.988 -0.3604 -0.6651 -0.4111
 3458TIP3   OH210379   2.987   1.846   2.041  0.1681 -0.0661  0.7578
 3458TIP3    H110380   2.907   1.796   2.029  0.2228 -0.2448  1.1233
 3458TIP3    H210381   2.991   1.861   2.136  1.2275 -1.1506  0.8994
 3459TIP3   OH210382   6.241   1.399   2.173  0.3783 -0.4153  0.1345
 3459TIP3    H110383   6.270   1.484   2.140 -2.0120 -0.6899 -3.1306
 3459TIP3    H210384   6.312   1.339   2.152  0.7228  0.2195 -0.5313
 3460TIP3   OH210385   4.851   1.831   0.224 -0.1988 -0.1821  0.6687
 3460TIP3    H110386   4.788   1.887   0.269 -0.4300  0.3666 -0.3100
 3460TIP3    H210387   4.925   1.825   0.284  0.1597  1.8065  0.5080
 3461TIP3   OH210388   3.015   1.902   4.631 -0.4512  0.6453  0.0889
 3461TIP3    H110389   2.976   1.913   4.544  0.7118  0.8837 -0.4187
 3461TIP3    H210390   3.106   1.930   4.620  0.6031 -2.1966  0.6072
 3462TIP3   OH210391   3.119   5.053   3.914 -0.4432  0.0965 -0.1282
 3462TIP3    H110392   3.042   5.109   3.915 -2.9127 -2.9817 -0.6250
 3462TIP3    H210393   3.116   5.009   3.829  3.4451  1.6727 -1.3132
 3463TIP3   OH210394   2.544   2.239   4.357 -0.1429  0.5800 -0.2522
 3463TIP3    H110395   2.477   2.179   4.323  0.3898  0.8704 -1.9536
 3463TIP3    H210396   2.497   2.297   4.416 -0.6943 -1.4433  1.4041
 3464TIP3   OH210397   4.431   1.093   0.317 -0.2160 -0.8182  0.0641
 3464TIP3    H110398   4.353   1.130   0.358  0.2181  1.1611 -0.8087
 3464TIP3    H210399   4.448   1.013   0.366 -1.3384  0.0047  1.8884
 3465TIP3   OH210400   0.426   4.205   2.596  0.2038  0.6575  0.0998
 3465TIP3    H110401   0.490   4.229   2.529  2.4707 -1.0387  1.4830
 3465TIP3    H210402   0.371   4.138   2.555  1.4195 -0.2002 -0.1879
 3466TIP3   OH210403   1.128   4.671   3.914 -0.1131  0.5452  0.4871
 3466TIP3    H110404   1.042   4.632   3.902 -0.1079  0.7409 -0.2190
 3466TIP3    H210405   1.144   4.666   4.008 -0.5501 -0.2174  0.5249
 3467TIP3   OH210406   6.000   5.671   1.373  0.5382 -0.7609 -0.0096
 3467TIP3    H110407   6.031   5.581   1.385  2.7517 -0.1714 -0.7275
 3467TIP3    H210408   6.075   5.725   1.400 -0.5722  0.8536 -0.0606
 3468TIP3   OH210409   3.267   4.499   3.518 -0.0450  0.1516  0.1305
 3468TIP3    H110410   3.225   4.522   3.601 -1.1805 -0.6709 -0.1922
 3468TIP3    H210411   3.256   4.576   3.463 -0.3513  0.2643  0.3502
 3469TIP3   OH210412   3.974   3.450   3.874 -0.4815 -0.9795 -0.0795
 3469TIP3    H110413   4.053   3.432   3.824 -0.0779 -3.1885  1.2111
 3469TIP3    H210414   3.977   3.544   3.890  2.2739 -1.0733  0.4976
 3470TIP3   OH210415   5.821   0.840   2.490  0.3479 -0.5247 -0.3017
 3470TIP3    H110416   5.847   0.763   2.441 -0.1100  0.1610 -1.6661
 3470TIP3    H210417   5.777   0.805   2.568 -0.9279 -1.6796 -1.4725
 3471TIP3   OH210418   1.134   0.108   0.770 -0.7659 -0.3497  0.6928
 3471TIP3    H110419   1.109   0.096   0.678  1.8669 -0.7558 -0.0608
 3471TIP3    H210420   1.229   0.114   0.768 -0.6488 -0.0983  3.4036
 3472TIP3   OH210421   3.114   3.599   2.582 -0.0076  0.3169  0.0720
 3472TIP3    H110422   3.031   3.574   2.540  0.7302 -2.5826  0.1584
 3472TIP3    H210423   3.112   3.553   2.666  1.2237  1.1053  0.5442
 3473TIP3   OH210424   3.346   3.112   5.077 -0.2504  0.0679  0.1915
 3473TIP3    H110425   3.391   3.167   5.141 -0.4247 -1.1943  1.4572
 3473TIP3    H210426   3.370   3.149   4.992  1.7356  0.5280  0.8945
 3474TIP3   OH210427   0.842   0.318   1.276  0.1409  0.2800 -0.1444
 3474TIP3    H110428   0.794   0.313   1.194  1.1815  0.4224 -0.7775
 3474TIP3    H210429   0.934   0.309   1.251  0.5353  1.1600  0.9138
 3475TIP3   OH210430   4.291   3.469   4.012 -0.2059  0.0302 -0.1175
 3475TIP3    H110431   4.274   3.450   3.919 -1.0152  0.5407 -0.0797
 3475TIP3    H210432   4.279   3.385   4.056 -0.5771 -0.0589 -0.3794
 3476TIP3   OH210433   3.842   3.346   1.496  0.1207 -0.0120 -0.0397
 3476TIP3    H110434   3.824   3.274   1.436  0.4021 -0.2122  0.1111
 3476TIP3    H210435   3.927   3.325   1.534  1.5004  1.7261 -1.9631
 3477TIP3   OH210436   2.224   5.488   3.331  0.0463  0.1785 -0.4154
 3477TIP3    H110437   2.214   5.581   3.311 -0.6229 -0.2581 -2.2815
 3477TIP3    H210438   2.275   5.452   3.258 -1.3285 -1.2556 -0.7342
 3478TIP3   OH210439   6.163   1.004   4.592 -0.4044  0.6675  0.5822
 3478TIP3    H110440   6.180   0.924   4.642  0.1160  0.7939  0.6090
 3478TIP3    H210441   6.142   0.973   4.504 -0.5993  0.4811  0.6931
 3479TIP3   OH210442   0.561   1.170   3.691  0.2387  0.8023  0.4425
 3479TIP3    H110443   0.566   1.081   3.726 -0.6006  1.0381  1.2155
 3479TIP3    H210444   0.530   1.223   3.765 -1.1693  1.3930 -0.5352
 3480TIP3   OH210445   3.194   3.862   2.007 -0.8752  0.4310  0.1140
 3480TIP3    H110446   3.288   3.878   1.992 -0.3740 -0.9090  1.5437
 3480TIP3    H210447   3.178   3.897   2.094 -1.8297  1.0022 -0.2775
 3481TIP3   OH210448   6.319   5.664   1.690  0.7226  0.4481 -0.2059
 3481TIP3    H110449   6.385   5.727   1.718  1.4169  0.4301 -1.6716
 3481TIP3    H210450   6.260   5.715   1.633  1.0151 -0.0933 -1.0158
 3482TIP3   OH210451   5.838   3.718   0.977  0.7068 -0.2862  0.2407
 3482TIP3    H110452   5.838   3.802   0.931  0.8458 -0.6755 -0.4785
 3482TIP3    H210453   5.916   3.721   1.032  1.2040 -0.3086 -0.4595
 3483TIP3   OH210454   1.874   5.125   4.031 -0.4355  0.7535  0.1558
 3483TIP3    H110455   1.809   5.118   4.101  0.0219 -0.4517  0.4762
 3483TIP3    H210456   1.869   5.041   3.985  0.9996  0.5736  0.2892
 3484TIP3   OH210457   6.159   4.169   4.669 -0.2923  0.2213  0.1759
 3484TIP3    H110458   6.242   4.138   4.703  0.6360  1.4321 -0.8858
 3484TIP3    H210459   6.162   4.148   4.575 -0.3866  1.8389 -0.2285
 3485TIP3   OH210460   5.884   3.343   1.028 -0.1933  0.5144 -0.5634
 3485TIP3    H110461   5.888   3.258   1.073 -0.2764  1.5278  1.4874
 3485TIP3    H210462   5.956   3.393   1.067 -0.4384  1.5427 -1.4105
 3486TIP3   OH210463   0.542   3.587   1.490  0.1036  0.0467 -0.3231
 3486TIP3    H110464   0.574   3.510   1.444 -0.1598 -0.0235 -0.3931
 3486TIP3    H210465   0.545   3.657   1.425  1.7815  0.4612  0.1602
 3487TIP3   OH210466   1.041   0.238   4.951  0.0264 -0.1473  0.7624
 3487TIP3    H110467   1.134   0.226   4.971  0.2409 -1.2879 -0.7273
 3487TIP3    H210468   1.019   0.323   4.989  1.7315  0.2278  0.9868
 3488TIP3   OH210469   2.973   2.077   3.599  0.0012 -0.5908 -0.2402
 3488TIP3    H110470   3.017   2.150   3.643  0.3012 -1.8091  1.6314
 3488TIP3    H210471   2.988   2.092   3.506 -0.3593  1.9726  0.0420
 3489TIP3   OH210472   0.830   4.495   3.630  0.5094  0.1673  0.0543
 3489TIP3    H110473   0.736   4.479   3.635  0.2469  0.7770 -2.0189
 3489TIP3    H210474   0.870   4.409   3.643 -0.3693 -0.2524  0.0432
 3490TIP3   OH210475   5.643   5.143   3.596 -0.5826 -0.0851 -0.3175
 3490TIP3    H110476   5.631   5.238   3.590 -1.0699 -0.1070  0.2461
 3490TIP3    H210477   5.555   5.108   3.610 -0.1499 -0.3798  2.1528
 3491TIP3   OH210478   0.750   0.099   3.295  1.2402 -0.1396 -0.2206
 3491TIP3    H110479   0.691   0.166   3.259  1.0427  0.3239  0.9128
 3491TIP3    H210480   0.695   0.020   3.302  0.3928  0.5420  1.7459
 3492TIP3   OH210481   0.117   0.031   2.544  0.3784 -0.1013  0.1607
 3492TIP3    H110482   0.114  -0.010   2.457  0.2410 -0.2792  0.2492
 3492TIP3    H210483   0.030   0.015   2.581  1.0209 -1.7001  1.1010
 3493TIP3   OH210484   3.597   4.058   0.493 -0.3479  0.1606  0.0139
 3493TIP3    H110485   3.690   4.056   0.515 -0.4940  1.0118  0.7938
 3493TIP3    H210486   3.583   4.145   0.454 -0.6133 -0.3669 -1.1263
 3494TIP3   OH210487   3.446   2.458   3.830 -0.1367  0.2151  0.2159
 3494TIP3    H110488   3.477   2.522   3.895  1.7701  0.4132 -0.8478
 3494TIP3    H210489   3.386   2.509   3.775  0.7569  0.9125 -0.1417
 3495TIP3   OH210490   6.113   1.205   0.137 -0.1613  0.4107 -0.8517
 3495TIP3    H110491   6.052   1.273   0.110 -1.3534 -1.0973 -2.1280
 3495TIP3    H210492   6.196   1.229   0.095 -0.9792  0.2538 -2.6345
 3496TIP3   OH210493   3.403   0.565   1.925  0.1641  0.0695  0.2526
 3496TIP3    H110494   3.371   0.528   1.842 -1.1972  0.5897  0.5122
 3496TIP3    H210495   3.432   0.489   1.975  1.4625 -0.2151 -0.8550
 3497TIP3   OH210496   4.239   5.824   1.194  0.6064 -0.1922  0.4714
 3497TIP3    H110497   4.204   5.832   1.283 -1.5812 -0.3678 -0.3144
 3497TIP3    H210498   4.334   5.832   1.205  0.2884  2.1943  2.5516
 3498TIP3   OH210499   1.652   4.062   2.674 -0.2067  0.3363 -0.5290
 3498TIP3    H110500   1.651   4.050   2.769  0.7251  0.2392 -0.5212
 3498TIP3    H210501   1.724   4.006   2.644  0.7977  1.8374 -1.0705
 3499TIP3   OH210502   4.416   1.534   2.997 -1.0778 -0.3753  0.3007
 3499TIP3    H110503   4.412   1.497   2.908  0.0136  0.0493  0.0657
 3499TIP3    H210504   4.329   1.572   3.010 -0.8532  0.7178 -1.0987
 3500TIP3   OH210505   0.829   4.271   2.252  0.2100 -0.0922  0.1489
 3500TIP3    H110506   0.866   4.253   2.166  0.7958  1.0024  0.1462
 3500TIP3    H210507   0.899   4.246   2.313  0.1119 -0.0868  0.2634
 3501TIP3   OH210508   1.045   3.564   1.107  0.0703  0.0790  0.5095
 3501TIP3    H110509   1.133   3.567   1.144  0.4922  1.6057 -0.4960
 3501TIP3    H210510   0.996   3.631   1.156 -0.1333  0.2078  0.1341
 3502TIP3   OH210511   2.449   2.032   0.051  0.1513 -0.1461  0.3650
 3502TIP3    H110512   2.355   2.034   0.033 -0.1029  1.6711  1.6907
 3502TIP3    H210513   2.486   2.100  -0.005  0.8482 -1.4860 -0.8544
 3503TIP3   OH210514   4.349   1.571   4.157  0.3858 -0.7315  0.3828
 3503TIP3    H110515   4.272   1.609   4.116  0.1549 -0.8135  0.7383
 3503TIP3    H210516   4.394   1.525   4.086 -0.5652 -1.7600  0.4298
 3504TIP3   OH210517   1.480   2.273   4.901  0.1907  0.1442  0.2690
 3504TIP3    H110518   1.441   2.231   4.824 -1.9302  0.0244  1.3383
 3504TIP3    H210519   1.493   2.364   4.875 -0.4383  0.0854 -0.2774
 3505TIP3   OH210520   5.281   2.335   1.383 -0.3660  0.1144  0.1299
 3505TIP3    H110521   5.373   2.309   1.375 -0.0839  1.4312 -1.5876
 3505TIP3    H210522   5.245   2.325   1.294 -1.8592 -0.2751  0.7449
 3506TIP3   OH210523   2.056   3.936   0.881 -0.2994 -0.1863  0.1534
 3506TIP3    H110524   2.133   3.910   0.831 -0.7489  1.1237 -1.2946
 3506TIP3    H210525   2.072   3.903   0.969  0.5546 -2.5302 -0.8021
 3507TIP3   OH210526   1.784   0.113   4.568 -0.0516  0.4924 -0.4738
 3507TIP3    H110527   1.800   0.033   4.617  1.1043  1.3353  0.5907
 3507TIP3    H210528   1.746   0.084   4.485  1.3250 -1.2112 -0.5451
 3508TIP3   OH210529   1.886   4.350   2.601 -0.3837  0.1955  0.3809
 3508TIP3    H110530   1.936   4.318   2.526 -0.3717 -1.1947  0.9571
 3508TIP3    H210531   1.795   4.327   2.580 -0.3965 -0.0717  0.7421
 3509TIP3   OH210532   1.209   4.766   4.454  0.4753  0.0106  0.5937
 3509TIP3    H110533   1.160   4.721   4.385  0.1907  3.7850 -1.9787
 3509TIP3    H210534   1.298   4.772   4.419  1.5404 -1.9237  2.7345
 3510TIP3   OH210535   5.140   5.457   4.462 -0.3226  0.4052 -0.0374
 3510TIP3    H110536   5.219   5.421   4.424 -0.4739  1.1744 -1.1279
 3510TIP3    H210537   5.140   5.549   4.435  0.4030  1.4984  3.1915
 3511TIP3   OH210538   3.577   0.569   2.304  0.5730  0.5746 -0.1185
 3511TIP3    H110539   3.529   0.598   2.227  2.4199  0.4575 -1.3534
 3511TIP3    H210540   3.578   0.644   2.362 -0.3244  0.8530 -0.4509
 3512TIP3   OH210541   5.170   3.653   4.911  0.1946  0.2188 -0.1840
 3512TIP3    H110542   5.216   3.573   4.938  1.0245  1.2998  1.9444
 3512TIP3    H210543   5.079   3.627   4.903  0.2868 -0.7899  1.4453
 3513TIP3   OH210544   3.105   4.745   3.051  0.1710  0.1438  0.3190
 3513TIP3    H110545   3.028   4.794   3.023 -0.7694  0.3598  2.9905
 3513TIP3    H210546   3.176   4.810   3.048 -0.1752  0.5086 -0.1697
 3514TIP3   OH210547   3.806   2.322   2.783 -0.2725  0.2728 -0.6420
 3514TIP3    H110548   3.817   2.411   2.818  1.9217 -0.4226  0.6319
 3514TIP3    H210549   3.848   2.326   2.697 -0.9734  0.6648 -0.9777
 3515TIP3   OH210550   4.644   0.777   3.958  0.0365 -0.3795 -0.3916
 3515TIP3    H110551   4.669   0.776   3.866  0.9317 -1.3049 -0.1552
 3515TIP3    H210552   4.591   0.697   3.970 -0.9129  0.2464 -0.3153
 3516TIP3   OH210553   3.869   4.035   0.560 -0.1412  0.2287 -0.3719
 3516TIP3    H110554   3.939   3.972   0.578 -1.5226 -1.2321  0.1537
 3516TIP3    H210555   3.907   4.095   0.497  1.7208 -0.2522  0.2156
 3517TIP3   OH210556   2.128   0.355   3.075 -0.9536  0.2531 -0.0413
 3517TIP3    H110557   2.063   0.341   3.144 -2.4062  2.0406 -0.9694
 3517TIP3    H210558   2.090   0.314   2.997 -0.7706  0.9472 -0.4986
 3518TIP3   OH210559   2.228   5.248   1.139  0.0568  0.0124  1.0001
 3518TIP3    H110560   2.248   5.266   1.231  0.2313  1.2831  0.7278
 3518TIP3    H210561   2.132   5.250   1.134  0.0650  2.5252  0.7034
 3519TIP3   OH210562   4.412   2.053   0.930  0.0187  0.0174 -0.3733
 3519TIP3    H110563   4.353   1.984   0.963  1.1295 -0.7357  0.1015
 3519TIP3    H210564   4.490   2.046   0.986  0.7886  0.6112 -1.3496
 3520TIP3   OH210565   5.655   0.942   3.332  0.1675 -0.5850 -0.3798
 3520TIP3    H110566   5.566   0.909   3.320 -0.2681 -0.0105  1.0612
 3520TIP3    H210567   5.654   0.985   3.418  2.0633 -1.3185  0.0711
 3521TIP3   OH210568   0.512   1.482   3.971 -0.4127 -0.5745 -0.5427
 3521TIP3    H110569   0.505   1.550   3.904 -0.8139  1.0973  1.1024
 3521TIP3    H210570   0.601   1.448   3.961 -0.1379  0.3275 -1.3068
 3522TIP3   OH210571   4.659   2.086   1.820  0.0339 -0.5592 -0.3030
 3522TIP3    H110572   4.652   2.169   1.771 -2.0064 -0.2677  0.3835
 3522TIP3    H210573   4.569   2.055   1.828  0.1004 -0.2756  3.7480
 3523TIP3   OH210574   1.924   3.665   4.167  0.3590  0.0439 -0.1712
 3523TIP3    H110575   1.890   3.658   4.077 -0.6186 -0.3160  0.2113
 3523TIP3    H210576   1.848   3.692   4.218  1.1282  1.1812  0.4069
 3524TIP3   OH210577   5.623   4.155   3.101  0.3268  0.4108  0.1019
 3524TIP3    H110578   5.546   4.140   3.156  1.7527  0.6828  2.3131
 3524TIP3    H210579   5.661   4.069   3.088  0.0752  0.3644 -0.3194
 3525TIP3   OH210580   5.333   3.219   4.513  0.0153  0.4595  0.4169
 3525TIP3    H110581   5.407   3.178   4.557  0.2619  1.3379  0.8419
 3525TIP3    H210582   5.329   3.307   4.550 -0.4037  0.8764 -0.5942
 3526TIP3   OH210583   5.921   2.842   3.552  0.4047  0.2519 -0.4613
 3526TIP3    H110584   5.992   2.823   3.613 -1.2951 -0.9728  1.2390
 3526TIP3    H210585   5.869   2.761   3.550 -2.1048  1.7540  0.0275
 3527TIP3   OH210586   2.811   3.043   5.206 -0.5609  0.0670  0.3062
 3527TIP3    H110587   2.765   3.068   5.125 -0.7461 -3.4127 -0.8043
 3527TIP3    H210588   2.902   3.033   5.179 -0.6370 -1.1737  0.4644
 3528TIP3   OH210589   2.927   2.696   3.229 -0.1197  0.0513  0.1622
 3528TIP3    H110590   2.977   2.775   3.208  3.0911 -1.4549  1.4345
 3528TIP3    H210591   2.910   2.655   3.144 -0.2747  1.2053 -0.3828
 3529TIP3   OH210592   0.111   0.526   0.982 -0.0331 -0.6080 -0.5843
 3529TIP3    H110593   0.092   0.607   0.934 -1.3284 -0.7672 -0.3728
 3529TIP3    H210594   0.094   0.456   0.919  1.9858 -0.7293 -1.0632
 3530TIP3   OH210595   5.736   5.133   3.095  0.4887 -0.1888 -0.0135
 3530TIP3    H110596   5.753   5.056   3.041 -2.0773 -1.8513  1.3440
 3530TIP3    H210597   5.732   5.206   3.033  1.6374 -1.3495 -1.5151
 3531TIP3   OH210598   3.575   1.543   0.135  0.0335 -0.2351 -0.0972
 3531TIP3    H110599   3.649   1.597   0.107 -0.8595  0.4286 -1.2807
 3531TIP3    H210600   3.499   1.602   0.129 -0.5295 -0.7173  1.6902
 3532TIP3   OH210601   5.551   4.958   2.121  0.0840  0.1912  0.2147
 3532TIP3    H110602   5.536   4.981   2.029 -1.0026 -0.1341  0.2960
 3532TIP3    H210603   5.484   4.892   2.140  0.5165  0.0141  1.1446
 3533TIP3   OH210604   1.900   4.765   4.423  0.7532 -0.5154  0.2198
 3533TIP3    H110605   1.954   4.695   4.388 -0.7548 -1.7414  0.2555
 3533TIP3    H210606   1.890   4.826   4.350 -1.2946 -2.4092 -1.1998
 3534TIP3   OH210607   5.434   5.184   2.911  0.3335  0.3512 -0.3140
 3534TIP3    H110608   5.365   5.208   2.849 -0.2724 -0.8921 -0.1396
 3534TIP3    H210609   5.460   5.268   2.950 -1.4434  0.8083 -0.0064
 3535TIP3   OH210610   3.781   3.356   0.726 -0.3958  0.0718 -0.7208
 3535TIP3    H110611   3.722   3.395   0.791  0.0959 -0.0015 -0.2169
 3535TIP3    H210612   3.817   3.431   0.679  0.7620  0.2685  0.4354
 3536TIP3   OH210613   5.204   4.302   1.212  0.0977  0.2506  0.1809
 3536TIP3    H110614   5.128   4.257   1.173 -0.6636  0.8063  0.9860
 3536TIP3    H210615   5.253   4.335   1.137 -1.1039  0.9171 -0.3447
 3537TIP3   OH210616   0.567   3.249   4.754  0.1143  0.1645  0.4249
 3537TIP3    H110617   0.501   3.299   4.802  1.0549  1.3824  0.4972
 3537TIP3    H210618   0.553   3.272   4.662  1.4547  1.7113  0.5838
 3538TIP3   OH210619   3.104   0.439   1.127 -0.2532 -0.8581 -0.2341
 3538TIP3    H110620   3.200   0.438   1.130 -0.1884  1.0875 -0.5073
 3538TIP3    H210621   3.081   0.531   1.123 -2.1778 -1.2790  0.1802
 3539TIP3   OH210622   1.594   4.420   1.844  0.0920 -0.4041 -0.6975
 3539TIP3    H110623   1.632   4.502   1.811  0.0573 -0.4189 -0.7722
 3539TIP3    H210624   1.559   4.444   1.930  1.3347 -0.6573 -0.0834
 3540TIP3   OH210625   3.174   4.864   2.659 -0.0813 -0.4757  0.2507
 3540TIP3    H110626   3.238   4.866   2.588  0.5638 -0.5344  0.8295
 3540TIP3    H210627   3.225   4.843   2.737 -1.2210 -4.1632  0.2019
 3541TIP3   OH210628   4.391   1.474   5.147  0.2305 -0.0405  0.5929
 3541TIP3    H110629   4.427   1.419   5.077 -1.1354  2.1443 -2.0406
 3541TIP3    H210630   4.306   1.436   5.166 -0.7383  1.0503 -1.2682
 3542TIP3   OH210631   5.845   4.355   4.467 -0.6842 -0.3374  0.2040
 3542TIP3    H110632   5.909   4.310   4.413  1.6010  1.6537  1.0636
 3542TIP3    H210633   5.819   4.290   4.533 -0.6603 -1.6072 -1.0031
 3543TIP3   OH210634   5.044   4.528   0.679  0.2044  0.1392  0.1059
 3543TIP3    H110635   4.977   4.576   0.728  0.8278 -0.3230  1.4761
 3543TIP3    H210636   5.124   4.543   0.729  1.3229  1.3338 -1.9170
 3544TIP3   OH210637   2.277   1.679   1.374  0.5454  0.1894  0.0190
 3544TIP3    H110638   2.339   1.740   1.334  0.7061  0.8955  1.2933
 3544TIP3    H210639   2.331   1.627   1.434  0.1711 -0.3087 -0.0683
 3545TIP3   OH210640   6.004   5.153   4.877 -0.5660  0.0081  0.3806
 3545TIP3    H110641   6.089   5.126   4.840 -0.7839 -2.0981  1.2878
 3545TIP3    H210642   6.021   5.239   4.916  0.5763  0.6194 -1.3421
 3546TIP3   OH210643   2.882   5.968   4.206  0.1948 -0.2715 -0.4020
 3546TIP3    H110644   2.860   5.877   4.224 -0.5244  0.1773  1.1914
 3546TIP3    H210645   2.853   5.982   4.116 -2.8050 -0.7566  0.3699
 3547TIP3   OH210646   1.136   4.604   4.204 -0.2984 -0.0836  0.3564
 3547TIP3    H110647   1.047   4.576   4.224 -0.1525  0.8413  2.6231
 3547TIP3    H210648   1.182   4.523   4.181 -1.3636 -0.7793  0.5828
 3548TIP3   OH210649   3.520   0.900   3.327  0.1175  0.1387 -0.2358
 3548TIP3    H110650   3.503   0.806   3.334 -2.8467  0.6997  2.4131
 3548TIP3    H210651   3.598   0.915   3.380 -0.2440 -0.6744  0.5385
 3549TIP3   OH210652   4.622   2.287   1.482  0.0559 -0.0701  0.4950
 3549TIP3    H110653   4.695   2.248   1.435  0.2073 -0.3616  0.9612
 3549TIP3    H210654   4.644   2.379   1.490 -0.4743  0.1999 -0.9381
 3550TIP3   OH210655   3.847   2.933   3.857  0.5840 -0.1679 -0.1907
 3550TIP3    H110656   3.915   2.937   3.790  0.2803 -0.2842 -0.5089
 3550TIP3    H210657   3.864   2.850   3.903  1.7280  0.6260  0.8954
 3551TIP3   OH210658   5.142   0.954   2.288 -0.5558  0.6364  0.0889
 3551TIP3    H110659   5.190   1.023   2.335 -0.6146 -0.1981  1.4319
 3551TIP3    H210660   5.202   0.926   2.219  0.3695  0.5421  0.9039
 3552TIP3   OH210661   2.466   3.333   3.848 -0.3937  0.0995  0.2217
 3552TIP3    H110662   2.417   3.298   3.922 -0.7039 -0.7920 -0.3926
 3552TIP3    H210663   2.491   3.255   3.797  0.1352  0.6732 -0.4107
 3553TIP3   OH210664   0.647   2.084   4.803 -0.0293  0.5718 -0.2866
 3553TIP3    H110665   0.649   2.087   4.899  0.4678  0.4461 -0.2906
 3553TIP3    H210666   0.656   2.175   4.776 -0.3047  0.6216 -0.2129
 3554TIP3   OH210667   4.392   4.938   4.353  0.2061  0.3262  0.2604
 3554TIP3    H110668   4.471   4.910   4.400  0.7225 -0.0312 -0.8079
 3554TIP3    H210669   4.387   4.879   4.278  0.0212  1.6293 -0.7669
 3555TIP3   OH210670   5.175   5.062   2.101 -0.5005 -0.3668  0.2127
 3555TIP3    H110671   5.229   5.032   2.174  2.0185 -0.6676 -1.6360
 3555TIP3    H210672   5.194   5.000   2.030 -2.9506 -0.1786 -0.7185
 3556TIP3   OH210673   3.224   4.699   2.294  0.0796  0.1971  0.2753
 3556TIP3    H110674   3.146   4.660   2.333  0.4479  1.5017  2.4664
 3556TIP3    H210675   3.294   4.636   2.313 -0.3631 -1.0261 -1.7845
 3557TIP3   OH210676   1.493   4.908   1.061  0.5595 -0.1836  0.8676
 3557TIP3    H110677   1.528   4.876   0.978 -0.7273 -1.1452  0.6749
 3557TIP3    H210678   1.486   4.831   1.117 -0.7327  0.0506  1.0719
 3558TIP3   OH210679   5.371   0.518   1.740  0.0070  0.5631 -0.2556
 3558TIP3    H110680   5.460   0.552   1.733 -0.3646  1.4221 -1.0692
 3558TIP3    H210681   5.332   0.568   1.812  0.0454  0.5146 -0.2015
 3559TIP3   OH210682   5.421   5.419   2.713 -0.0271  0.3730 -0.4634
 3559TIP3    H110683   5.409   5.397   2.620  0.5638  0.9849 -0.6932
 3559TIP3    H210684   5.436   5.514   2.713  3.5378 -0.0600 -0.1146
 3560TIP3   OH210685   1.864   1.222   3.458  0.0073  0.4089  0.0507
 3560TIP3    H110686   1.891   1.238   3.549 -3.9435  3.1926  1.0082
 3560TIP3    H210687   1.892   1.300   3.411  0.0296  0.0247 -0.5786
 3561TIP3   OH210688   6.229   2.943   0.526 -0.1886 -0.1174  0.1121
 3561TIP3    H110689   6.146   2.989   0.534 -1.0002 -1.3224 -0.9865
 3561TIP3    H210690   6.295   3.012   0.524 -1.3785  1.0460 -1.6641
 3562TIP3   OH210691   4.716   5.672   1.008 -0.3069 -0.0626  0.4586
 3562TIP3    H110692   4.698   5.674   0.914  1.4591  0.3722  0.1010
 3562TIP3    H210693   4.779   5.600   1.018 -3.2068 -2.6669  1.8924
 3563TIP3   OH210694   2.181   2.266   3.685  0.1501 -0.0546 -0.6493
 3563TIP3    H110695   2.121   2.282   3.612 -0.3256 -0.0487 -0.2591
 3563TIP3    H210696   2.162   2.337   3.747  0.0890 -0.4424 -0.2216
 3564TIP3   OH210697   0.560   2.373   1.909 -0.0057 -0.3812  0.0612
 3564TIP3    H110698   0.631   2.314   1.886  0.1970 -0.5093  0.9527
 3564TIP3    H210699   0.521   2.333   1.987 -0.0370  0.5128  0.5181
 3565TIP3   OH210700   4.570   6.001   4.525 -0.3290  0.4323 -0.5838
 3565TIP3    H110701   4.481   6.005   4.559  0.1426 -0.6543  0.8820
 3565TIP3    H210702   4.568   5.930   4.461 -0.6561  0.8317 -1.0209
 3566TIP3   OH210703   2.549   0.286   0.279  0.0000 -0.2625  0.0531
 3566TIP3    H110704   2.635   0.315   0.308 -0.2839  0.0020  0.6459
 3566TIP3    H210705   2.561   0.265   0.186  0.9016 -1.0309  0.3268
 3567TIP3   OH210706   6.105   4.645   1.909 -0.5082 -0.3352  0.2911
 3567TIP3    H110707   6.166   4.574   1.929 -1.3429 -0.8374  1.1051
 3567TIP3    H210708   6.029   4.602   1.869 -1.4369 -0.0456  1.6720
 3568TIP3   OH210709   4.209   3.381   3.744 -0.1117  0.0059  0.1981
 3568TIP3    H110710   4.164   3.297   3.734 -2.5638  1.0416  1.5206
 3568TIP3    H210711   4.254   3.394   3.660  1.8269 -3.3244  0.5235
 3569TIP3   OH210712   4.510   2.671   3.198  0.1304  0.3841  0.0909
 3569TIP3    H110713   4.566   2.641   3.270  0.0786 -2.1853 -0.8655
 3569TIP3    H210714   4.443   2.725   3.241  1.4377  0.8510  1.6417
 3570TIP3   OH210715   2.330   0.082   1.838  0.1435 -0.0013  0.0165
 3570TIP3    H110716   2.304   0.002   1.793 -1.3101 -0.1157  0.9796
 3570TIP3    H210717   2.425   0.085   1.831  0.1252 -1.2519 -0.9460
 3571TIP3   OH210718   2.742   0.868   0.441 -0.1146  0.2879 -0.3318
 3571TIP3    H110719   2.686   0.860   0.364 -0.3623 -1.0046 -0.0424
 3571TIP3    H210720   2.731   0.785   0.488  2.4915 -0.2816 -0.5679
 3572TIP3   OH210721   1.354   3.355   1.098 -1.2520  0.4400 -0.3136
 3572TIP3    H110722   1.307   3.357   1.181 -2.4384  2.1851 -0.9717
 3572TIP3    H210723   1.423   3.421   1.108 -2.3840  1.8024 -1.2255
 3573TIP3   OH210724   4.821   3.548   1.015  0.1273 -1.3548  0.3395
 3573TIP3    H110725   4.837   3.520   1.105 -0.4895  0.1562  0.9506
 3573TIP3    H210726   4.905   3.537   0.971  0.9065 -0.5282  1.5628
 3574TIP3   OH210727   4.035   1.969   3.101  0.1027  0.1658  0.0945
 3574TIP3    H110728   4.022   2.061   3.078 -0.3758  0.4235  1.3102
 3574TIP3    H210729   4.012   1.921   3.021  1.9231  1.1466 -1.0809
 3575TIP3   OH210730   5.200   3.947   0.429  0.0116 -0.2494  0.0635
 3575TIP3    H110731   5.215   3.859   0.463  0.5642  0.0159  0.5234
 3575TIP3    H210732   5.192   4.002   0.507  4.3349  0.8955 -0.0397
 3576TIP3   OH210733   2.680   1.562   0.752  0.6289  0.0466  0.0282
 3576TIP3    H110734   2.694   1.488   0.692  1.2652  1.6517 -1.8880
 3576TIP3    H210735   2.591   1.591   0.735  0.5574  0.0529  0.4042
 3577TIP3   OH210736   5.865   2.542   3.856  0.0401  0.0741  0.0331
 3577TIP3    H110737   5.867   2.614   3.794 -1.8449  0.7964  0.7592
 3577TIP3    H210738   5.944   2.554   3.909  0.3128  0.9510 -0.5497
 3578TIP3   OH210739   1.747   5.176   2.783  0.1839  0.0610 -0.0361
 3578TIP3    H110740   1.666   5.129   2.804 -0.0831  0.6856  0.3580
 3578TIP3    H210741   1.793   5.118   2.722 -0.0986 -0.7445  0.4975
 3579TIP3   OH210742   4.654   5.823   2.114 -0.0090  0.6262  0.4244
 3579TIP3    H110743   4.656   5.810   2.208  0.5876  0.2052  0.3594
 3579TIP3    H210744   4.585   5.765   2.082  1.3821 -1.0690  0.3472
 3580TIP3   OH210745   1.091   5.671   4.166  0.3432  0.0739  0.7459
 3580TIP3    H110746   1.123   5.757   4.139 -3.3812  1.1293 -0.9158
 3580TIP3    H210747   1.031   5.688   4.238  0.8497 -1.4023  1.5712
 3581TIP3   OH210748   1.577   0.079   1.751  0.2135 -0.0965 -0.0586
 3581TIP3    H110749   1.542   0.166   1.736 -0.3316 -0.1796  0.6976
 3581TIP3    H210750   1.501   0.027   1.778  0.1827 -1.2347 -2.1287
 3582TIP3   OH210751   6.049   4.769   2.373  0.4244 -0.6377  0.1000
 3582TIP3    H110752   5.958   4.773   2.344  0.2262  0.6424  0.8278
 3582TIP3    H210753   6.048   4.705   2.445  0.0430 -0.4470  0.2687
 3583TIP3   OH210754   5.766   1.399   4.122  0.0277  0.2182 -0.4431
 3583TIP3    H110755   5.723   1.483   4.103  0.2636  0.9655  1.9703
 3583TIP3    H210756   5.859   1.416   4.109 -0.0290 -0.0926 -1.2995
 3584TIP3   OH210757   1.893   5.962   3.963  0.4885 -0.2491  0.3356
 3584TIP3    H110758   1.858   5.980   4.051  0.1352 -1.4407  0.4542
 3584TIP3    H210759   1.939   5.879   3.972  0.5462 -0.3282 -0.5890
 3585TIP3   OH210760   1.645   5.255   3.120 -0.1183  0.2996  0.0264
 3585TIP3    H110761   1.579   5.323   3.128 -0.2800  0.5080 -2.4947
 3585TIP3    H210762   1.727   5.302   3.101  0.0861 -0.1262 -0.1654
 3586TIP3   OH210763   5.381   4.403   3.253  0.9763  0.3426  0.2085
 3586TIP3    H110764   5.450   4.413   3.187 -0.2566  1.3470 -0.9904
 3586TIP3    H210765   5.349   4.314   3.241  0.0330  0.8431 -1.3604
 3587TIP3   OH210766   2.507   2.987   0.522 -0.0667 -0.4586 -0.6695
 3587TIP3    H110767   2.541   2.898   0.536 -0.5839 -0.7603 -1.2734
 3587TIP3    H210768   2.417   2.973   0.492 -0.7129  0.3232  0.8391
 3588TIP3   OH210769   4.837   1.121   4.305 -0.4192 -0.6487 -0.0321
 3588TIP3    H110770   4.780   1.186   4.348 -1.0526 -0.1673 -1.5208
 3588TIP3    H210771   4.915   1.118   4.359 -1.0453  0.1783  0.9600
 3589TIP3   OH210772   1.675   1.784   0.083 -0.3576 -0.2192 -0.2188
 3589TIP3    H110773   1.629   1.738   0.154 -0.9185  0.3326 -0.2174
 3589TIP3    H210774   1.754   1.819   0.125  0.3112 -1.5500 -0.3248
 3590TIP3   OH210775   3.340   3.821   0.222  0.1218 -0.2203  0.5654
 3590TIP3    H110776   3.392   3.822   0.302 -0.8899 -1.8843  1.2822
 3590TIP3    H210777   3.249   3.825   0.252 -0.2490  1.3031 -0.6093
 3591TIP3   OH210778   3.777   1.321   2.658 -0.0881  0.4300  0.1172
 3591TIP3    H110779   3.697   1.353   2.616 -1.3234  1.0630  2.7827
 3591TIP3    H210780   3.748   1.283   2.740  2.2219 -0.7870  0.4619
 3592TIP3   OH210781   4.038   2.032   3.895  0.3658  0.1065 -0.4451
 3592TIP3    H110782   3.977   1.969   3.856  0.3260 -1.1073  1.4818
 3592TIP3    H210783   4.097   2.055   3.823 -0.7938 -0.6526 -1.6844
 3593TIP3   OH210784   4.936   5.935   5.001  0.1871 -0.0792  0.3302
 3593TIP3    H110785   4.995   6.005   4.972 -1.2228  0.8493 -0.4223
 3593TIP3    H210786   4.849   5.975   5.002 -0.3011 -1.0216  2.7541
 3594TIP3   OH210787   1.918   0.828   4.519 -0.5864 -1.0041 -0.1555
 3594TIP3    H110788   1.916   0.922   4.540 -1.9388 -1.3063  1.3267
 3594TIP3    H210789   1.867   0.820   4.439  1.1066 -0.2970 -1.3669
 3595TIP3   OH210790   3.799   1.076   4.036 -0.2859 -0.1718  0.0082
 3595TIP3    H110791   3.821   1.162   4.071 -1.4855  0.4968 -0.7729
 3595TIP3    H210792   3.792   1.020   4.112  1.0122  0.2859  0.4939
 3596TIP3   OH210793   0.439   2.131   0.664  0.1350  0.0405 -0.0130
 3596TIP3    H110794   0.385   2.210   0.657  1.7573  1.2460  0.6344
 3596TIP3    H210795   0.500   2.149   0.735  1.1359 -1.4517 -0.4446
 3597TIP3   OH210796   3.866   2.322   1.979 -0.1679 -0.2507  0.6611
 3597TIP3    H110797   3.921   2.349   1.905 -0.9602 -3.1818 -1.1865
 3597TIP3    H210798   3.923   2.265   2.031 -0.2120  0.1459  1.1406
 3598TIP3   OH210799   5.815   4.280   3.351 -0.4185 -0.5545 -0.3017
 3598TIP3    H110800   5.812   4.306   3.259  0.9004 -0.1716 -0.2707
 3598TIP3    H210801   5.765   4.348   3.397  0.7470  0.5071 -0.5224
 3599TIP3   OH210802   5.314   3.891   1.115  0.1604 -0.7832 -0.0330
 3599TIP3    H110803   5.361   3.957   1.063 -1.4386 -0.3123 -0.9313
 3599TIP3    H210804   5.357   3.894   1.200  0.2900  1.2891 -0.1085
 3600TIP3   OH210805   0.127   0.283   0.851  0.6010 -0.0495 -0.3396
 3600TIP3    H110806   0.124   0.280   0.755  0.8970  0.5924 -0.3720
 3600TIP3    H210807   0.043   0.248   0.879  0.4500 -0.0877 -0.8401
 3601TIP3   OH210808   4.175   4.433   0.294  1.1183 -0.3440 -0.3337
 3601TIP3    H110809   4.091   4.463   0.330  1.9142  2.0446 -0.2936
 3601TIP3    H210810   4.158   4.423   0.201  0.6366 -0.4979 -0.2366
 3602TIP3   OH210811   5.956   5.237   1.612  0.5916  0.7493  0.0541
 3602TIP3    H110812   5.869   5.269   1.637 -1.1539 -2.9849 -0.6532
 3602TIP3    H210813   5.980   5.176   1.681  1.6814  0.1318 -0.8346
 3603TIP3   OH210814   0.154   3.769   3.040 -0.0938  0.2780  0.4557
 3603TIP3    H110815   0.092   3.719   3.093 -0.4842  0.3894  0.1126
 3603TIP3    H210816   0.207   3.817   3.103 -0.6068  0.4700  0.7465
 3604TIP3   OH210817   3.048   0.661   0.021 -0.6003  0.2121 -0.1597
 3604TIP3    H110818   3.074   0.687  -0.068 -0.8256 -0.0476 -0.3057
 3604TIP3    H210819   3.063   0.739   0.074 -0.6304  0.4272 -0.4608
 3605TIP3   OH210820   5.197   2.215   3.879 -0.6163 -0.1036  0.7676
 3605TIP3    H110821   5.265   2.278   3.860 -0.1718 -0.3259  1.5709
 3605TIP3    H210822   5.190   2.214   3.975 -2.2325  0.4277  0.6997
 3606TIP3   OH210823   1.069   1.037   1.324  0.0110  0.2344  0.1496
 3606TIP3    H110824   1.148   1.049   1.272 -0.2340  0.4479 -0.1805
 3606TIP3    H210825   1.060   0.942   1.331  1.3407  0.1901  1.8280
 3607TIP3   OH210826   5.254   0.746   3.023 -0.0373  0.2723  0.1137
 3607TIP3    H110827   5.242   0.706   2.937  0.4311 -0.5694  0.4260
 3607TIP3    H210828   5.184   0.812   3.029  0.0494  0.4783 -0.9805
 3608TIP3   OH210829   5.902   2.065   2.957  0.2516 -0.3125  0.4568
 3608TIP3    H110830   5.846   2.067   2.879  0.0287  1.2414  0.6241
 3608TIP3    H210831   5.851   2.111   3.024 -0.1316 -2.7735  1.9727
 3609TIP3   OH210832   3.225  -0.028   4.116  0.1613  0.2062 -0.0873
 3609TIP3    H110833   3.136   0.002   4.135 -0.5391 -1.5566 -0.3738
 3609TIP3    H210834   3.255   0.028   4.045 -1.0415  0.2954 -0.5420
 3610TIP3   OH210835   5.996   0.653   3.686 -0.1233 -0.0169  0.3514
 3610TIP3    H110836   5.914   0.643   3.734 -0.4382 -1.2934 -0.4028
 3610TIP3    H210837   5.974   0.715   3.616 -0.5071 -0.4694  0.0583
 3611TIP3   OH210838   1.416   5.383   4.982 -0.0126 -0.7134  0.4601
 3611TIP3    H110839   1.375   5.432   4.910 -0.6758  0.2932  1.4817
 3611TIP3    H210840   1.510   5.388   4.965 -0.2166 -1.9869 -1.2527
 3612TIP3   OH210841   1.404   3.807   4.075 -0.1594 -0.3894  0.0688
 3612TIP3    H110842   1.428   3.727   4.122 -0.2930 -1.6081 -1.8295
 3612TIP3    H210843   1.309   3.809   4.079 -0.2662 -1.3045 -1.3335
 3613TIP3   OH210844   2.919   3.246   3.039  0.2258  0.0108 -0.1193
 3613TIP3    H110845   3.010   3.218   3.049  0.1527 -0.7559 -1.3815
 3613TIP3    H210846   2.869   3.184   3.093  0.4350  0.4059  0.5410
 3614TIP3   OH210847   4.360   4.555   4.834  0.0334 -0.1543 -0.0311
 3614TIP3    H110848   4.366   4.459   4.838  0.7721 -0.1033  0.3727
 3614TIP3    H210849   4.447   4.585   4.860 -0.7915  0.6704  1.9685
 3615TIP3   OH210850   4.413   4.743   1.842  0.1436  0.2014 -0.0982
 3615TIP3    H110851   4.469   4.699   1.907 -1.1831  0.6349  1.3981
 3615TIP3    H210852   4.327   4.748   1.884 -0.7316  0.6356 -1.8551
 3616TIP3   OH210853   1.078   3.905   1.738  0.0774 -0.0073  0.2642
 3616TIP3    H110854   1.088   3.994   1.774  0.3596 -0.7173  2.0320
 3616TIP3    H210855   0.991   3.877   1.768  0.7987 -1.0568  1.4764
 3617TIP3   OH210856   1.835   1.264   0.686  0.1619 -0.0921  0.0119
 3617TIP3    H110857   1.755   1.268   0.634  0.8159  0.8271 -0.9818
 3617TIP3    H210858   1.881   1.345   0.665  0.5158  0.2633  1.9770
 3618TIP3   OH210859   3.599   3.766   0.082 -0.3172  0.7605 -0.0816
 3618TIP3    H110860   3.632   3.718   0.158 -1.3765 -0.7115 -0.5137
 3618TIP3    H210861   3.515   3.801   0.109 -0.9130 -0.1577 -0.6982
 3619TIP3   OH210862   0.503   0.439   5.037  0.4242 -0.0034  0.5089
 3619TIP3    H110863   0.489   0.522   4.991  0.1491 -0.7354 -0.7705
 3619TIP3    H210864   0.592   0.413   5.015  0.4877 -0.0789  0.8512
 3620TIP3   OH210865   3.989   2.751   1.273  0.0066 -0.5891 -0.1427
 3620TIP3    H110866   3.901   2.747   1.310  0.8140 -3.2352  1.7560
 3620TIP3    H210867   4.046   2.773   1.346  1.3076 -2.8400 -0.3838
 3621TIP3   OH210868   3.071   2.295   1.964  0.4472 -0.3764 -0.1006
 3621TIP3    H110869   3.043   2.254   1.882 -0.3540 -0.6106  0.2844
 3621TIP3    H210870   2.991   2.305   2.015  0.6835  1.2145  0.0295
 3622TIP3   OH210871   4.502   5.423   4.029  0.0857  0.0075  0.2607
 3622TIP3    H110872   4.559   5.498   4.012  0.0195  0.5938  2.3999
 3622TIP3    H210873   4.418   5.448   3.993  0.1636  0.8178  0.6293
 3623TIP3   OH210874   1.475   1.370   0.086 -0.3579  0.9519  0.2657
 3623TIP3    H110875   1.443   1.432   0.020  1.7845  1.0604 -0.7768
 3623TIP3    H210876   1.397   1.341   0.133 -1.7148  2.4180 -0.9923
 3624TIP3   OH210877   2.614   5.075   1.220  0.1717  0.0192 -0.2218
 3624TIP3    H110878   2.586   5.085   1.129  1.1508  0.8173 -0.4486
 3624TIP3    H210879   2.585   4.987   1.244 -0.9632  0.1627 -0.9885
 3625TIP3   OH210880   2.518   5.409   0.719 -0.0410 -0.3728 -0.0306
 3625TIP3    H110881   2.600   5.370   0.690  0.2019  0.2602 -0.2174
 3625TIP3    H210882   2.452   5.341   0.706  0.1494 -0.2801 -1.5836
 3626TIP3   OH210883   4.836   4.642   0.823  0.2655  0.1516  0.0198
 3626TIP3    H110884   4.779   4.601   0.888  0.1062  1.1759  0.5418
 3626TIP3    H210885   4.790   4.722   0.799  1.1964  0.6858 -0.0148
 3627TIP3   OH210886   5.979   2.646   0.490  0.7602 -0.4207 -0.0840
 3627TIP3    H110887   5.891   2.678   0.467 -0.3720 -2.8342  0.5718
 3627TIP3    H210888   6.013   2.610   0.408  1.4788  1.1076 -0.4995
 3628TIP3   OH210889   0.687   2.704   1.463  0.0436 -0.5276  0.1731
 3628TIP3    H110890   0.729   2.639   1.408 -0.5556 -0.5155 -0.3086
 3628TIP3    H210891   0.602   2.665   1.486 -0.0422 -0.1974  0.4288
 3629TIP3   OH210892   0.573   4.007   4.406  0.3149 -0.4018 -0.1720
 3629TIP3    H110893   0.545   4.098   4.410 -0.6602 -0.7167  1.0184
 3629TIP3    H210894   0.491   3.957   4.416  0.7498 -1.4184 -1.4322
 3630TIP3   OH210895   4.610   0.910   0.166 -0.1047  0.4348  0.5428
 3630TIP3    H110896   4.617   0.816   0.148 -0.9873  0.2146  1.3306
 3630TIP3    H210897   4.524   0.934   0.133 -0.5528  0.6245  1.8123
 3631TIP3   OH210898   3.986   0.704   0.180  0.8941  0.2293  0.8792
 3631TIP3    H110899   4.031   0.785   0.205  2.2779 -0.0250 -0.5900
 3631TIP3    H210900   4.013   0.689   0.089 -1.6775 -0.3363  0.1299
 3632TIP3   OH210901   4.884   3.297   3.350  0.0786 -0.6077  0.0323
 3632TIP3    H110902   4.807   3.265   3.397  1.0556 -2.1112  0.6786
 3632TIP3    H210903   4.957   3.285   3.410  0.8788  0.5885 -0.6484
 3633TIP3   OH210904   2.310   3.125   0.970  0.6499  0.4510 -0.1043
 3633TIP3    H110905   2.247   3.135   1.041  0.5453  0.3780 -0.1867
 3633TIP3    H210906   2.383   3.182   0.994  0.6189  0.4190  0.0670
 3634TIP3   OH210907   4.649   1.027   4.891  0.8160 -0.1875  0.0799
 3634TIP3    H110908   4.699   0.962   4.842 -0.1809 -0.2310 -0.9071
 3634TIP3    H210909   4.708   1.103   4.897  1.2889 -0.5156 -0.3714
 3635TIP3   OH210910   1.028   3.966   0.931 -0.3494 -0.0949 -0.4637
 3635TIP3    H110911   1.047   3.873   0.918 -0.4370 -0.1983  0.1135
 3635TIP3    H210912   0.933   3.970   0.943 -0.3052  0.0214 -0.1282
 3636TIP3   OH210913   1.357   4.271   4.746  0.0247 -0.2709 -0.0178
 3636TIP3    H110914   1.404   4.317   4.816 -2.2635  2.8743 -0.3326
 3636TIP3    H210915   1.290   4.221   4.792 -0.3095  0.3221  0.1525
 3637TIP3   OH210916   1.489   2.391   3.132  0.1634  0.1721 -0.2856
 3637TIP3    H110917   1.408   2.400   3.182  0.2499  0.2889 -0.1646
 3637TIP3    H210918   1.463   2.346   3.052 -0.2456  1.3616 -0.8288
 3638TIP3   OH210919   0.686   2.566   2.993 -0.9450  0.0064  0.3122
 3638TIP3    H110920   0.697   2.513   3.071  1.3149  2.2715  1.6580
 3638TIP3    H210921   0.673   2.655   3.025  2.8683  1.5492 -1.7056
 3639TIP3   OH210922   0.857   2.187   2.156 -0.5564  0.5348 -0.2517
 3639TIP3    H110923   0.800   2.122   2.198 -0.3624  0.4875 -0.0581
 3639TIP3    H210924   0.888   2.143   2.077  0.3815 -0.0028  0.3889
 3640TIP3   OH210925   5.794   0.810   4.870  0.1264 -0.2388 -0.0029
 3640TIP3    H110926   5.779   0.770   4.784 -0.5650 -2.8531  1.2495
 3640TIP3    H210927   5.731   0.882   4.874  0.4688  0.2066 -1.8118
 3641TIP3   OH210928   3.674   2.194   3.050 -0.5479 -0.1736  0.0830
 3641TIP3    H110929   3.739   2.248   3.004 -1.0195 -0.1222 -0.5345
 3641TIP3    H210930   3.600   2.189   2.990 -0.3718 -1.8412 -0.0577
 3642TIP3   OH210931   1.797   3.210   2.458 -0.6053  0.0245 -0.5821
 3642TIP3    H110932   1.766   3.124   2.484  0.4363  0.3466  2.0392
 3642TIP3    H210933   1.749   3.271   2.514  0.4636  0.9304 -0.6064
 3643TIP3   OH210934   0.920   4.683   4.771 -0.5013  0.4422  0.1444
 3643TIP3    H110935   0.867   4.684   4.851 -0.1168 -0.3631  0.4179
 3643TIP3    H210936   0.860   4.713   4.703 -0.7504  1.4159  0.7721
 3644TIP3   OH210937   0.387   3.581   4.966  0.2242 -0.4034 -0.2678
 3644TIP3    H110938   0.428   3.580   5.052 -0.6933  0.7713  0.2091
 3644TIP3    H210939   0.381   3.673   4.943 -0.4077 -0.6568 -1.1642
 3645TIP3   OH210940   2.091   1.358   0.462  0.0758  0.5006 -0.4689
 3645TIP3    H110941   2.095   1.332   0.370 -0.6957  0.0872 -0.4013
 3645TIP3    H210942   1.999   1.383   0.475  0.0588  0.0687  0.3084
 3646TIP3   OH210943   1.196   5.513   0.407 -0.0084  0.3965  0.1035
 3646TIP3    H110944   1.176   5.548   0.494 -0.3646  1.8571 -0.5329
 3646TIP3    H210945   1.118   5.464   0.382  0.5599 -1.0459  1.0801
 3647TIP3   OH210946   6.229   0.753   0.470 -0.2063 -0.2333 -0.0112
 3647TIP3    H110947   6.268   0.818   0.529 -2.2970 -0.1811  1.4626
 3647TIP3    H210948   6.177   0.804   0.409 -0.1694 -0.4190 -0.1996
 3648TIP3   OH210949   0.569   3.748   3.236 -0.4016 -0.1264 -0.1062
 3648TIP3    H110950   0.616   3.770   3.316  0.3358 -1.9642  0.0041
 3648TIP3    H210951   0.483   3.789   3.247  0.3702  1.3708  0.6872
 3649TIP3   OH210952   2.359   1.848   4.003 -0.1002 -0.5032  0.1572
 3649TIP3    H110953   2.313   1.928   3.979  0.6292  0.8733  2.8921
 3649TIP3    H210954   2.290   1.789   4.034 -0.4246  0.0635  0.5346
 3650TIP3   OH210955   1.674   4.668   0.839 -0.4146 -0.1731 -0.0509
 3650TIP3    H110956   1.634   4.750   0.808 -1.6268 -0.9764 -0.6604
 3650TIP3    H210957   1.621   4.599   0.801  0.6126 -1.2698  0.4367
 3651TIP3   OH210958   4.026   4.089   4.767 -0.4176  0.1467  0.5330
 3651TIP3    H110959   4.022   4.100   4.672 -0.7698  1.2372  0.6585
 3651TIP3    H210960   4.024   4.179   4.801  0.4055 -0.2032  1.5492
 3652TIP3   OH210961   0.297   4.789   1.598  0.0714 -0.0040  0.0952
 3652TIP3    H110962   0.352   4.735   1.541  0.9372 -0.3094  1.2059
 3652TIP3    H210963   0.353   4.862   1.624  0.1163 -0.5625  1.6109
 3653TIP3   OH210964   1.964   2.298   2.043 -0.0804  0.1022  0.1391
 3653TIP3    H110965   1.889   2.286   2.101 -0.3032  0.9723  0.0302
 3653TIP3    H210966   2.013   2.216   2.051 -1.0400 -0.4808  0.2003
 3654TIP3   OH210967   3.294   0.368   3.702 -0.2436  0.6735 -0.3055
 3654TIP3    H110968   3.276   0.457   3.732  2.3543  0.3273  2.8322
 3654TIP3    H210969   3.374   0.376   3.650  0.0338  0.1962  0.0377
 3655TIP3   OH210970   4.172   2.727   0.242  0.2308 -0.7428 -0.0154
 3655TIP3    H110971   4.133   2.648   0.205 -0.1108 -0.8884  0.6358
 3655TIP3    H210972   4.118   2.798   0.210  1.2778 -0.6324 -1.6274
 3656TIP3   OH210973   3.410   5.053   1.784  0.2582  0.1530 -0.0375
 3656TIP3    H110974   3.324   5.096   1.786  0.9981  1.6918  0.3967
 3656TIP3    H210975   3.420   5.025   1.693 -1.2296 -1.2316  0.1759
 3657TIP3   OH210976   1.800   5.894   2.800  0.0844 -0.1288 -0.6463
 3657TIP3    H110977   1.810   5.810   2.845  0.9837  0.5437  0.4500
 3657TIP3    H210978   1.717   5.886   2.752 -0.7635 -0.9986  0.8972
 3658TIP3   OH210979   1.247   4.959   1.350 -0.6746 -0.5131 -0.4262
 3658TIP3    H110980   1.183   4.989   1.285  0.1985  1.7280 -0.3520
 3658TIP3    H210981   1.195   4.946   1.430 -1.3084 -0.4463 -0.8199
 3659TIP3   OH210982   0.870   5.816   1.807  0.4203 -0.4951 -0.2543
 3659TIP3    H110983   0.815   5.874   1.753  0.1669 -0.3589  0.1482
 3659TIP3    H210984   0.873   5.858   1.892  0.1984 -1.0934  0.0551
 3660TIP3   OH210985   3.118   2.936   3.349  0.0656  0.1436 -0.6867
 3660TIP3    H110986   3.095   3.029   3.351 -1.9843 -0.2948 -1.4198
 3660TIP3    H210987   3.079   2.903   3.268  1.1019 -1.2904 -0.6458
 3661TIP3   OH210988   4.848   1.335   3.231  0.9419  0.2791 -0.3322
 3661TIP3    H110989   4.839   1.261   3.172  1.0896  1.2756 -1.6657
 3661TIP3    H210990   4.777   1.394   3.207  0.9142  0.6384  0.5972
 3662TIP3   OH210991   1.886   2.703   3.667 -0.2689 -0.2705 -0.1244
 3662TIP3    H110992   1.875   2.763   3.593 -1.1737 -0.8724 -0.4916
 3662TIP3    H210993   1.833   2.627   3.644  0.6416 -1.1043  0.4621
 3663TIP3   OH210994   1.202   1.993   4.770  0.8634  0.3348 -0.0492
 3663TIP3    H110995   1.214   2.030   4.858  2.4176  0.3752 -0.2662
 3663TIP3    H210996   1.107   1.985   4.761  0.6689  0.5390  1.5476
 3664TIP3   OH210997   0.308   2.860   2.072 -0.3658 -0.0258 -0.0918
 3664TIP3    H110998   0.222   2.900   2.082 -0.2996 -0.0586  0.7055
 3664TIP3    H210999   0.342   2.855   2.162 -0.0939 -1.2484 -0.2500
 3665TIP3   OH211000   4.946   0.428   2.800 -0.4604  0.3069 -0.4602
 3665TIP3    H111001   4.956   0.489   2.873 -2.0892  1.4111 -1.1312
 3665TIP3    H211002   4.988   0.347   2.832  1.5431  1.6410  0.5233
 3666TIP3   OH211003   5.608   3.223   1.132  0.3663  0.2131  0.0785
 3666TIP3    H111004   5.663   3.155   1.093 -0.0089  0.3438 -0.6999
 3666TIP3    H211005   5.584   3.188   1.218  0.8598 -0.2697  0.0242
 3667TIP3   OH211006   2.830   4.874   2.203  0.4942 -0.1197 -0.3810
 3667TIP3    H111007   2.736   4.871   2.187  0.2619 -0.4605  0.9704
 3667TIP3    H211008   2.868   4.899   2.118 -0.8490  0.6931 -0.7660
 3668TIP3   OH211009   0.542   2.208   0.407 -0.0039 -0.4411  0.2974
 3668TIP3    H111010   0.510   2.166   0.486 -0.3171  0.8173  0.8765
 3668TIP3    H211011   0.595   2.281   0.439  1.6240 -1.1520 -0.6605
 3669TIP3   OH211012   3.014   0.321   2.535 -0.0424  0.3468  0.1706
 3669TIP3    H111013   2.934   0.316   2.588 -0.3050  3.5868  0.2858
 3669TIP3    H211014   3.083   0.290   2.593 -0.8886 -0.2414  0.8998
 3670TIP3   OH211015   5.740   4.449   0.261  0.5260  0.0586 -0.0023
 3670TIP3    H111016   5.686   4.377   0.229  0.2207 -1.0213  2.6416
 3670TIP3    H211017   5.818   4.448   0.206 -0.4500 -0.8615 -1.4048
 3671TIP3   OH211018   1.090   5.062   4.236 -0.2413  0.3838  0.3791
 3671TIP3    H111019   1.088   5.149   4.276 -2.6917  1.1200 -1.1745
 3671TIP3    H211020   1.038   5.007   4.295  1.0905 -0.0223  1.2230
 3672TIP3   OH211021   4.775   3.546   4.574 -0.4083 -0.1449 -0.1085
 3672TIP3    H111022   4.770   3.618   4.511  0.3849 -0.5390 -0.6313
 3672TIP3    H211023   4.686   3.510   4.576 -1.0226  1.3214  0.7421
 3673TIP3   OH211024   5.324   0.162   3.124  0.3916 -0.4775  0.2713
 3673TIP3    H111025   5.337   0.157   3.219 -0.2459 -0.4340  0.3624
 3673TIP3    H211026   5.303   0.254   3.108  0.7230 -0.4371  0.0543
 3674TIP3   OH211027   0.444   2.632   4.521  0.6516 -0.1827 -0.2930
 3674TIP3    H111028   0.493   2.702   4.479  0.7401  0.3016  0.5856
 3674TIP3    H211029   0.423   2.667   4.608  0.4216 -1.1244  0.0403
 3675TIP3   OH211030   0.059   5.568   4.562 -0.2709  0.2332 -0.8800
 3675TIP3    H111031   0.120   5.522   4.504 -0.8639  0.4097 -1.6499
 3675TIP3    H211032   0.049   5.655   4.523 -0.7550  0.3262 -0.5649
 3676TIP3   OH211033   4.523   2.860   5.178 -0.3460  0.5033 -0.2011
 3676TIP3    H111034   4.527   2.767   5.157 -0.3972 -0.1298  2.2491
 3676TIP3    H211035   4.601   2.898   5.138 -0.6132 -0.4631 -1.7072
 3677TIP3   OH211036   4.858   1.853   4.937  0.0423  0.1293 -0.0178
 3677TIP3    H111037   4.929   1.885   4.992 -0.0456  1.2175 -0.5102
 3677TIP3    H211038   4.789   1.919   4.945 -1.0396 -1.0414  0.6643
 3678TIP3   OH211039   1.246   3.931   1.496  0.0889 -0.6715  0.7547
 3678TIP3    H111040   1.337   3.949   1.522  0.2043 -0.6918  0.3735
 3678TIP3    H211041   1.205   3.898   1.576  0.3313 -0.3634  1.0150
 3679TIP3   OH211042   3.954   5.731   1.278  0.2129  1.0192  0.1281
 3679TIP3    H111043   3.948   5.671   1.352  1.1388  0.3880 -0.2815
 3679TIP3    H211044   3.919   5.814   1.311  2.2332  1.2718  1.8707
 3680TIP3   OH211045   3.676   2.750   0.311  0.1038 -0.0442  0.3884
 3680TIP3    H111046   3.670   2.656   0.291 -1.5631  0.0998  0.0452
 3680TIP3    H211047   3.680   2.793   0.226 -3.4013  0.3664  0.2713
 3681TIP3   OH211048   1.148   3.973   2.948 -0.1988 -0.4319  0.2666
 3681TIP3    H111049   1.141   4.058   2.903  0.2537 -0.2644  0.5076
 3681TIP3    H211050   1.086   3.980   3.021 -0.0081 -0.2247  0.4116
 3682TIP3   OH211051   3.460   1.705   2.064  0.0098  0.0956  0.1518
 3682TIP3    H111052   3.556   1.709   2.064  0.2046 -1.3824  2.9831
 3682TIP3    H211053   3.432   1.782   2.015  2.6172  0.0173 -1.6361
 3683TIP3   OH211054   5.242   0.315   4.286  0.4489  0.7873  0.3203
 3683TIP3    H111055   5.275   0.358   4.207  0.1121  2.3243  0.9848
 3683TIP3    H211056   5.297   0.237   4.295  2.5246  2.1508  0.2245
 3684TIP3   OH211057   4.017   5.119   1.840  0.4363  0.2842  0.2130
 3684TIP3    H111058   3.936   5.068   1.836  1.1413 -0.8102 -1.0614
 3684TIP3    H211059   4.080   5.067   1.790  1.2598  2.2851 -0.9582
 3685TIP3   OH211060   0.514   5.281   1.430 -0.1163 -0.1838 -0.2660
 3685TIP3    H111061   0.478   5.309   1.514 -0.3650  0.9909 -0.7485
 3685TIP3    H211062   0.446   5.224   1.393 -0.4876  0.1870 -0.1629
 3686TIP3   OH211063   0.220   1.454   4.693 -0.5261 -0.3535  0.3377
 3686TIP3    H111064   0.263   1.539   4.691  0.8983 -1.0545 -0.3206
 3686TIP3    H211065   0.216   1.428   4.601  0.4890 -1.6850  0.6485
 3687TIP3   OH211066   5.599   2.479   2.700 -0.3657  0.1638 -0.0485
 3687TIP3    H111067   5.627   2.519   2.617  0.9143 -0.8232 -0.1359
 3687TIP3    H211068   5.637   2.391   2.697 -0.5526  0.0135  1.4596
 3688TIP3   OH211069   4.359   2.561   1.182  0.4889  0.4037  0.1831
 3688TIP3    H111070   4.316   2.646   1.177 -0.9940 -0.3780 -1.5088
 3688TIP3    H211071   4.420   2.561   1.107 -0.9686 -0.7127 -1.0667
 3689TIP3   OH211072   3.995   0.329   3.529  0.3811 -0.7075  0.2461
 3689TIP3    H111073   3.979   0.276   3.450 -1.0030 -1.2700  0.8681
 3689TIP3    H211074   3.908   0.349   3.562  0.8009  2.8322 -0.4608
 3690TIP3   OH211075   4.228   3.308   2.173  0.6709  0.1045  0.0110
 3690TIP3    H111076   4.170   3.312   2.097 -0.7338  1.5450  1.1024
 3690TIP3    H211077   4.244   3.214   2.186  0.8494 -0.1866 -1.9516
 3691TIP3   OH211078   6.362   3.748   4.749  0.1994  0.6241  0.2106
 3691TIP3    H111079   6.302   3.675   4.732  0.1024  0.2135  2.1203
 3691TIP3    H211080   6.310   3.810   4.802  0.6634  1.5195 -0.3544
 3692TIP3   OH211081   0.035   4.149   2.644 -0.2636 -0.5881 -0.2035
 3692TIP3    H111082   0.034   4.217   2.577 -0.3233  1.1029  1.4267
 3692TIP3    H211083   0.122   4.110   2.638  0.2008  0.4527 -0.4120
 3693TIP3   OH211084   2.488   1.545   2.196  0.1425  0.6445  0.0287
 3693TIP3    H111085   2.393   1.536   2.193  0.2044  0.0998 -0.3727
 3693TIP3    H211086   2.519   1.465   2.239  0.5269  0.0289 -1.3401
 3694TIP3   OH211087   1.305   0.653   4.869  0.5244  0.7212  0.3150
 3694TIP3    H111088   1.353   0.571   4.856  0.4308  0.9932 -2.3263
 3694TIP3    H211089   1.215   0.626   4.886 -0.0489  0.1583 -2.9812
 3695TIP3   OH211090   1.519   0.954   0.540 -0.0813  0.0644 -0.6892
 3695TIP3    H111091   1.552   0.873   0.579  0.5920  0.4832 -0.3584
 3695TIP3    H211092   1.585   1.020   0.563 -1.3777  1.0487  0.4075
 3696TIP3   OH211093   3.874   5.858   1.940 -0.6276  0.2032 -0.1169
 3696TIP3    H111094   3.892   5.946   1.973  1.1385  0.2035 -0.9511
 3696TIP3    H211095   3.860   5.871   1.846  0.3680 -0.4632 -0.3703
 3697TIP3   OH211096   0.355   4.236   4.397 -0.5663 -0.2591  0.6663
 3697TIP3    H111097   0.370   4.307   4.460 -0.1727  0.3589 -0.1069
 3697TIP3    H211098   0.265   4.209   4.412 -0.1164 -0.9896  2.3514
 3698TIP3   OH211099   1.936   3.966   4.410 -0.5540 -0.0765 -0.2764
 3698TIP3    H111100   1.896   4.043   4.451  0.0742 -0.1665  0.5324
 3698TIP3    H211101   1.951   3.992   4.319 -1.2972  0.3892 -0.2733
 3699TIP3   OH211102   1.628   1.960   3.549  0.8867  0.5656  0.0519
 3699TIP3    H111103   1.602   2.020   3.619 -1.1935  0.2449 -0.4074
 3699TIP3    H211104   1.554   1.901   3.539  2.6183 -1.7649  0.0847
 3700TIP3   OH211105   6.039   1.104   3.738  0.1534 -0.4065 -0.6904
 3700TIP3    H111106   6.020   1.197   3.741  0.6287 -0.3159 -0.3583
 3700TIP3    H211107   5.957   1.063   3.710 -0.3692  0.0208  0.1913
 3701TIP3   OH211108   6.022   1.410   1.336  0.2475  0.1816  0.3167
 3701TIP3    H111109   5.978   1.431   1.253 -1.2103  0.7233  1.1796
 3701TIP3    H211110   5.952   1.375   1.392  0.6380  2.0998  2.1203
 3702TIP3   OH211111   3.478   1.767   4.312  0.5746  0.2853 -0.2590
 3702TIP3    H111112   3.542   1.702   4.282  0.9123  0.6269 -0.2996
 3702TIP3    H211113   3.432   1.794   4.233  0.1993 -0.1530 -0.1897
 3703TIP3   OH211114   4.496   4.786   0.334 -0.0980 -0.1049  0.0709
 3703TIP3    H111115   4.536   4.830   0.259 -1.8762  0.9503 -0.3098
 3703TIP3    H211116   4.512   4.845   0.408  0.7035 -0.6169  0.3139
 3704TIP3   OH211117   6.143   2.325   1.653 -0.4344  0.4434  1.0433
 3704TIP3    H111118   6.210   2.257   1.643  0.1913  1.1000  0.6748
 3704TIP3    H211119   6.064   2.277   1.677 -0.6224 -0.7002 -1.5322
 3705TIP3   OH211120   3.155   1.420   0.734  0.0492  0.3618  0.0302
 3705TIP3    H111121   3.077   1.366   0.745  0.9446 -0.9015  0.5450
 3705TIP3    H211122   3.205   1.376   0.665  0.3597  1.0881 -0.2171
 3706TIP3   OH211123   5.612   3.532   1.766 -0.5117  0.6106  0.1916
 3706TIP3    H111124   5.641   3.450   1.726 -1.6078  0.5846 -0.5911
 3706TIP3    H211125   5.633   3.523   1.859 -0.8694 -0.6707  0.1587
 3707TIP3   OH211126   2.684   4.284   1.822  0.0224  0.1142 -0.2378
 3707TIP3    H111127   2.685   4.356   1.759  2.0541 -0.8435 -1.4075
 3707TIP3    H211128   2.770   4.288   1.865 -1.0340  0.2878  2.0000
 3708TIP3   OH211129   4.584   0.470   1.717  0.6018 -0.6445 -0.1860
 3708TIP3    H111130   4.503   0.480   1.767  0.8837 -0.6326  0.2778
 3708TIP3    H211131   4.638   0.414   1.772  1.0506 -0.3454 -0.3204
 3709TIP3   OH211132   5.378   4.139   5.122  0.3158 -0.3710  0.1600
 3709TIP3    H111133   5.353   4.071   5.185 -1.5433 -0.0496 -0.1549
 3709TIP3    H211134   5.402   4.214   5.176  0.8060 -0.7719  0.5010
 3710TIP3   OH211135   3.520   2.803   1.215  0.0654  0.2342 -0.0102
 3710TIP3    H111136   3.503   2.864   1.143  0.5991  0.8227  0.3495
 3710TIP3    H211137   3.442   2.749   1.220 -0.2349  0.6036 -0.6237
 3711TIP3   OH211138   5.191   4.824   4.990 -0.5787  0.0935 -0.1165
 3711TIP3    H111139   5.178   4.808   5.083  1.0608 -3.0216 -0.3023
 3711TIP3    H211140   5.151   4.749   4.946  0.5669  0.4069 -1.7963
 3712TIP3   OH211141   1.839   5.453   4.330 -0.3074 -0.0061 -0.6927
 3712TIP3    H111142   1.837   5.530   4.274  0.1654  1.9134  1.7553
 3712TIP3    H211143   1.794   5.479   4.410  2.3322 -1.2416  1.3697
 3713TIP3   OH211144   1.572   2.091   3.170 -0.2303 -0.1887 -0.5272
 3713TIP3    H111145   1.621   2.070   3.249  1.7832 -0.1923 -1.7275
 3713TIP3    H211146   1.553   2.184   3.176 -2.3220 -0.6446  1.0981
 3714TIP3   OH211147   2.475   1.591   1.672 -0.0033  0.3449 -0.0455
 3714TIP3    H111148   2.399   1.638   1.706  0.4273  0.2763  1.0691
 3714TIP3    H211149   2.502   1.534   1.744  1.9919  1.4438  0.1485
 3715TIP3   OH211150   3.290   4.182   3.964 -0.2086 -0.2869  0.4672
 3715TIP3    H111151   3.285   4.268   3.923  0.3172  0.1321  1.2307
 3715TIP3    H211152   3.321   4.123   3.895 -0.3710  0.1753 -0.0045
 3716TIP3   OH211153   1.999   1.227   5.005 -0.3056 -0.1713 -0.2856
 3716TIP3    H111154   2.083   1.273   5.007 -0.5605  0.4106 -1.9525
 3716TIP3    H211155   1.947   1.271   5.074  0.0723  0.8354 -0.6220
 3717TIP3   OH211156   6.154   4.030   4.440  0.3965  0.0852 -0.0177
 3717TIP3    H111157   6.156   3.936   4.423  0.0289 -0.2981  1.8274
 3717TIP3    H211158   6.079   4.062   4.389 -0.1912 -0.8261  0.2487
 3718TIP3   OH211159   2.811   4.924   1.511 -0.4731 -0.1672  0.1597
 3718TIP3    H111160   2.818   4.829   1.504  0.8625 -0.0749  0.0849
 3718TIP3    H211161   2.788   4.940   1.603  1.3548 -0.4856  0.7082
 3719TIP3   OH211162   3.610   1.735   3.825 -0.1746  0.2979  0.5766
 3719TIP3    H111163   3.542   1.729   3.758 -0.3370  0.3403  0.7406
 3719TIP3    H211164   3.604   1.653   3.873  1.4776 -0.8080 -0.9439
 3720TIP3   OH211165   3.728   3.258   4.641  0.0952  0.1091  0.9236
 3720TIP3    H111166   3.746   3.229   4.731  0.4049 -1.6316  0.3383
 3720TIP3    H211167   3.725   3.177   4.590 -0.1851  1.0608 -0.6289
 3721TIP3   OH211168   0.876   4.168   1.106 -0.2846  0.3649  0.3598
 3721TIP3    H111169   0.936   4.094   1.110  0.7334  1.1828  0.6203
 3721TIP3    H211170   0.865   4.196   1.197 -0.4001  0.7373  0.2333
 3722TIP3   OH211171   2.733   4.501   2.658 -0.0591 -0.5673 -0.2195
 3722TIP3    H111172   2.795   4.573   2.651 -0.7493  0.1382  0.5555
 3722TIP3    H211173   2.679   4.508   2.580 -1.0251  0.6755  0.5069
 3723TIP3   OH211174   1.805   5.059   4.966  0.3358  0.3154 -0.1887
 3723TIP3    H111175   1.743   5.100   5.026 -1.0961 -1.0715 -0.6325
 3723TIP3    H211176   1.783   5.096   4.880 -1.4465 -1.7239 -0.7132
 3724TIP3   OH211177   6.078   2.050   3.224 -0.1315 -0.0339 -0.0540
 3724TIP3    H111178   6.045   1.977   3.172  2.0658 -1.0777 -0.0803
 3724TIP3    H211179   6.161   2.019   3.260 -0.1213  1.7329  1.6360
 3725TIP3   OH211180   0.174   0.346   3.004 -0.0912 -0.3998  0.6163
 3725TIP3    H111181   0.151   0.338   2.912 -1.9558 -1.3967  1.1333
 3725TIP3    H211182   0.134   0.270   3.046  3.5847 -1.8913  1.7915
 3726TIP3   OH211183   0.350   2.422   0.673  0.4211  0.4174 -0.4238
 3726TIP3    H111184   0.268   2.386   0.707  0.2193  1.8855  0.7459
 3726TIP3    H211185   0.323   2.480   0.602  0.3197  1.7234  0.6517
 3727TIP3   OH211186   5.958   3.380   4.739  0.2474  0.0587 -0.7983
 3727TIP3    H111187   5.906   3.431   4.678  0.6150 -0.4196 -1.5232
 3727TIP3    H211188   5.921   3.400   4.825  0.2210  1.3270 -1.0865
 3728TIP3   OH211189   1.065   4.066   3.197  0.5163  0.4449 -0.2572
 3728TIP3    H111190   1.055   4.160   3.209 -1.2318  0.1843  0.6666
 3728TIP3    H211191   1.135   4.041   3.257  1.0066  1.1425 -0.5323
 3729TIP3   OH211192   1.525   3.880   4.910  0.1108  1.0496  0.0730
 3729TIP3    H111193   1.565   3.963   4.882  1.9963  0.2931  0.3856
 3729TIP3    H211194   1.559   3.866   4.998  1.0579 -0.7875 -0.5425
 3730TIP3   OH211195   5.679   0.170   3.950 -0.2094  0.0498  0.0809
 3730TIP3    H111196   5.587   0.158   3.972  0.1465 -2.5334  0.5029
 3730TIP3    H211197   5.714   0.223   4.022 -1.2935  0.8958  0.0107
 3731TIP3   OH211198   1.341   2.880   3.770  0.0432  0.0397 -0.0459
 3731TIP3    H111199   1.365   2.953   3.713  0.7772  1.0451  1.4708
 3731TIP3    H211200   1.394   2.806   3.738 -0.2078  0.3368 -1.1800
 3732TIP3   OH211201   3.620   2.861   0.565 -0.0687 -0.1063  0.4943
 3732TIP3    H111202   3.655   2.841   0.478  0.1241  0.7312  0.3646
 3732TIP3    H211203   3.658   2.794   0.622  0.5266 -0.1336  0.0836
 3733TIP3   OH211204   4.320   3.732   2.064 -0.4051 -0.1063  0.2355
 3733TIP3    H111205   4.359   3.792   2.001  0.9179 -1.3811 -0.2249
 3733TIP3    H211206   4.227   3.734   2.045 -0.5515  2.4315  0.8159
 3734TIP3   OH211207   2.875   3.950   2.589  0.0689 -0.4855 -0.2641
 3734TIP3    H111208   2.859   4.038   2.624  1.7527 -0.6515  1.0503
 3734TIP3    H211209   2.874   3.962   2.494 -2.2696  0.4326 -0.1973
 3735TIP3   OH211210   6.045   1.780   3.346  0.2476 -0.1597 -0.3494
 3735TIP3    H111211   6.052   1.687   3.369  1.1269 -0.1813 -0.6974
 3735TIP3    H211212   6.123   1.820   3.384  0.0254  0.3871 -0.4632
 3736TIP3   OH211213   3.460   2.822   0.910 -0.1966  0.2167  0.9220
 3736TIP3    H111214   3.547   2.782   0.904 -0.4747 -0.4904  1.4406
 3736TIP3    H211215   3.400   2.755   0.878 -0.4610  1.1081 -0.5230
 3737TIP3   OH211216   0.094   5.967   0.145 -0.4916  0.2163  0.1933
 3737TIP3    H111217   0.040   5.956   0.067 -1.8667  0.0234  1.1483
 3737TIP3    H211218   0.167   5.907   0.132 -1.7443 -1.3209 -0.0501
 3738TIP3   OH211219   2.202   3.687   2.587 -0.1203  0.2799  0.2540
 3738TIP3    H111220   2.199   3.775   2.626 -0.5869  0.0510  0.7353
 3738TIP3    H211221   2.260   3.637   2.644 -0.5140  0.0472  0.4565
 3739TIP3   OH211222   0.411   0.350   2.737  0.3884  0.4049  0.3008
 3739TIP3    H111223   0.480   0.403   2.777  0.0409  1.6874 -0.7308
 3739TIP3    H211224   0.432   0.351   2.643 -0.1527 -0.5230  0.1579
 3740TIP3   OH211225   5.118   0.632   0.470 -0.0666 -0.2463 -0.6723
 3740TIP3    H111226   5.202   0.610   0.429  0.2111 -0.7334  0.1443
 3740TIP3    H211227   5.120   0.587   0.555 -1.1724 -0.3078 -0.6647
 3741TIP3   OH211228   6.055   3.249   3.694 -0.0571 -0.1077 -0.1949
 3741TIP3    H111229   6.071   3.186   3.624 -0.1011  0.1794 -0.4625
 3741TIP3    H211230   5.990   3.207   3.750  0.7163 -0.7721  0.2353
 3742TIP3   OH211231   5.669   1.669   2.570 -0.2934  0.1228  0.1344
 3742TIP3    H111232   5.595   1.730   2.579 -0.1413  0.2875  0.2699
 3742TIP3    H211233   5.659   1.609   2.643 -0.4026  0.0275  0.0419
 3743TIP3   OH211234   4.906   4.475   2.316 -0.2948  0.3787  0.1919
 3743TIP3    H111235   4.984   4.442   2.272  0.8889 -0.1734  2.5726
 3743TIP3    H211236   4.917   4.570   2.316 -0.3863  0.4048 -0.7578
 3744TIP3   OH211237   2.862   2.271   4.598  0.0776  0.6438  0.3357
 3744TIP3    H111238   2.920   2.340   4.629  0.0705 -0.1202  2.1644
 3744TIP3    H211239   2.850   2.214   4.674 -0.3992 -1.0366 -0.9510
 3745TIP3   OH211240   4.205   4.749   2.028  0.6249  0.0925  0.1969
 3745TIP3    H111241   4.256   4.801   2.090 -0.2257 -0.2710  1.2299
 3745TIP3    H211242   4.117   4.784   2.034  0.3398 -0.5472 -0.1303
 3746TIP3   OH211243   2.843   4.212   5.128  0.2716 -0.0999  0.1408
 3746TIP3    H111244   2.778   4.154   5.089 -0.7422  1.0047  0.1170
 3746TIP3    H211245   2.795   4.292   5.147  1.4695  0.4880  0.8141
 3747TIP3   OH211246   2.047   2.657   3.279  0.7183 -0.3579 -0.0040
 3747TIP3    H111247   2.105   2.711   3.332 -0.4387  0.1768  0.7656
 3747TIP3    H211248   2.041   2.703   3.195 -1.0017  1.3262  0.9484
 3748TIP3   OH211249   0.020   0.950   1.970  0.2207 -0.2279 -0.0736
 3748TIP3    H111250  -0.006   0.887   1.903 -1.8058  0.0689  0.3424
 3748TIP3    H211251   0.104   0.919   2.002 -0.2794 -2.1975 -0.5372
 3749TIP3   OH211252   2.194   5.728   3.195 -0.8853 -0.6239  0.6339
 3749TIP3    H111253   2.205   5.814   3.236 -1.2164 -1.3884  2.4293
 3749TIP3    H211254   2.167   5.748   3.106 -0.4776  1.1397  0.8569
 3750TIP3   OH211255   3.236   3.701   0.638  0.5517  0.0095 -0.3896
 3750TIP3    H111256   3.229   3.711   0.543 -0.4867 -0.4926 -0.3783
 3750TIP3    H211257   3.183   3.624   0.658  1.7693 -0.6545  0.4674
 3751TIP3   OH211258   2.526   1.107   3.855  0.1112  0.2208 -0.0738
 3751TIP3    H111259   2.503   1.200   3.860  0.6257  0.3935 -0.7616
 3751TIP3    H211260   2.590   1.095   3.925  1.6645  0.8957 -1.3183
 3752TIP3   OH211261   0.330   0.068   0.953 -0.2991 -0.2846  0.0981
 3752TIP3    H111262   0.288   0.153   0.960 -0.8503 -0.5252 -0.2330
 3752TIP3    H211263   0.316   0.041   0.862 -0.6290 -0.9795  0.3487
 3753TIP3   OH211264   5.534   3.784   4.653 -0.4036  0.0057  0.2755
 3753TIP3    H111265   5.615   3.822   4.616 -0.9657  2.4806  1.3925
 3753TIP3    H211266   5.548   3.785   4.747 -2.6025  2.8883  0.6965
 3754TIP3   OH211267   3.107   3.047   0.241  0.1562  0.0272  0.4926
 3754TIP3    H111268   3.030   3.057   0.297 -1.4709  0.4082 -1.7054
 3754TIP3    H211269   3.077   3.071   0.154  3.5609  3.5850 -0.0048
 3755TIP3   OH211270   2.403   3.283   3.072  0.3305  0.2924  0.3576
 3755TIP3    H111271   2.400   3.237   3.155  0.6393  0.1081  0.2684
 3755TIP3    H211272   2.314   3.316   3.059 -0.1496 -1.0763 -0.0366
 3756TIP3   OH211273   2.945   5.892   4.532 -0.1412 -0.0698  0.4623
 3756TIP3    H111274   3.019   5.919   4.477 -0.7921 -0.9612 -0.8852
 3756TIP3    H211275   2.925   5.970   4.584  1.2561  0.4180  0.3192
 3757TIP3   OH211276   3.282   5.414   4.018  0.2827  0.0180  0.4497
 3757TIP3    H111277   3.202   5.412   3.966  1.0990 -0.2261 -0.8471
 3757TIP3    H211278   3.271   5.344   4.082 -1.0272  0.7584  1.0747
 3758TIP3   OH211279   4.194   5.559   2.476 -0.2657  0.5178  0.3940
 3758TIP3    H111280   4.141   5.635   2.501  0.5043  1.2288 -0.0604
 3758TIP3    H211281   4.237   5.533   2.557 -2.1823 -0.8203  1.0393
 3759TIP3   OH211282   5.572   0.239   0.813 -0.5795  0.5122  0.4079
 3759TIP3    H111283   5.567   0.286   0.729  0.7408 -0.1350 -0.0712
 3759TIP3    H211284   5.486   0.251   0.852 -1.2587  0.7790 -1.0745
 3760TIP3   OH211285   5.134   1.000   0.200  0.3178  0.3362  0.2052
 3760TIP3    H111286   5.152   1.070   0.263  0.5968 -0.3268  0.8768
 3760TIP3    H211287   5.210   1.001   0.141  0.5770  0.2597  0.5330
 3761TIP3   OH211288   2.882   2.626   4.950 -0.9719  0.2637  0.4615
 3761TIP3    H111289   2.876   2.543   4.904  0.6824 -0.6717  1.8154
 3761TIP3    H211290   2.890   2.601   5.043 -0.0394  1.9032  0.8562
 3762TIP3   OH211291   2.348   1.494   3.142 -0.2407 -0.1599  0.4333
 3762TIP3    H111292   2.435   1.532   3.129 -0.5824  0.6104  0.3310
 3762TIP3    H211293   2.345   1.420   3.082 -0.7552  1.6511 -1.9095
 3763TIP3   OH211294   1.209   1.286   0.180  0.0911  0.0855  0.3529
 3763TIP3    H111295   1.133   1.330   0.217 -0.1213  0.0031  0.0263
 3763TIP3    H211296   1.178   1.197   0.160  0.8190 -0.5906  2.0279
 3764TIP3   OH211297   4.689   4.622   4.583  0.4756 -0.0389 -0.3304
 3764TIP3    H111298   4.733   4.660   4.660  1.6186 -1.4565 -0.2396
 3764TIP3    H211299   4.662   4.698   4.531 -1.2929  1.0247  1.9279
 3765TIP3   OH211300   4.966   2.376   1.190  0.1248  0.1023 -0.3270
 3765TIP3    H111301   5.036   2.433   1.158  0.6799  0.3237  1.1854
 3765TIP3    H211302   4.977   2.295   1.139  0.0424  0.9218 -1.6871
 3766TIP3   OH211303   3.508   3.655   1.721  0.2743  0.0975 -0.5891
 3766TIP3    H111304   3.594   3.673   1.683  0.4913  1.5219  0.4614
 3766TIP3    H211305   3.496   3.724   1.787 -0.4544 -1.6778  1.2796
 3767TIP3   OH211306   5.331   1.066   2.611 -0.1870  0.2641 -0.5242
 3767TIP3    H111307   5.331   1.078   2.516 -0.4994  0.0024 -0.5568
 3767TIP3    H211308   5.383   1.139   2.644  1.9261 -0.8910 -1.0558
 3768TIP3   OH211309   4.982   4.877   4.307 -0.0564 -0.0513  0.3356
 3768TIP3    H111310   4.985   4.847   4.397 -1.3993  1.3628  0.9028
 3768TIP3    H211311   5.039   4.953   4.305  0.0701 -0.1538 -0.0523
 3769TIP3   OH211312   5.889   3.589   4.411  0.5145  0.3310  0.5292
 3769TIP3    H111313   5.827   3.546   4.469 -0.1704  0.4200 -0.1172
 3769TIP3    H211314   5.902   3.676   4.450 -0.2146  0.5208  0.3653
 3770TIP3   OH211315   2.112   5.710   1.422  0.4022  0.1415 -0.0857
 3770TIP3    H111316   2.122   5.705   1.327  1.4075  0.3675 -0.0107
 3770TIP3    H211317   2.054   5.785   1.436 -0.7090 -0.6055 -0.5529
 3771TIP3   OH211318   4.240   5.724   3.639 -0.1615  0.3492  0.1171
 3771TIP3    H111319   4.272   5.808   3.673 -0.9975  0.4546  0.6775
 3771TIP3    H211320   4.223   5.740   3.547 -1.0893  1.0419  0.3950
 3772TIP3   OH211321   1.141   3.618   1.532 -0.1536  0.1821  0.4040
 3772TIP3    H111322   1.183   3.662   1.606 -2.5435  0.6318  1.5703
 3772TIP3    H211323   1.115   3.533   1.566  2.1766 -1.2809 -1.1323
 3773TIP3   OH211324   1.878   1.966   5.068 -0.5179  0.1583  0.5345
 3773TIP3    H111325   1.934   1.907   5.017  1.5297 -0.0452  2.7780
 3773TIP3    H211326   1.860   2.040   5.010  0.9594 -0.4549 -0.7598
 3774TIP3   OH211327   4.287   0.061   2.305  0.5111 -0.3500 -0.1100
 3774TIP3    H111328   4.349   0.116   2.353  0.8165 -0.1931 -0.6741
 3774TIP3    H211329   4.203   0.075   2.350  0.6496  0.3355 -0.0501
 3775TIP3   OH211330   0.654   3.945   2.373  0.0240  0.1459  0.2772
 3775TIP3    H111331   0.725   3.955   2.310 -0.1884  0.6781  0.1187
 3775TIP3    H211332   0.588   4.009   2.345 -0.9322 -0.9757 -0.1550
 3776TIP3   OH211333   1.947   0.748   1.466 -0.1802 -0.2428 -0.7361
 3776TIP3    H111334   1.941   0.653   1.481  2.1614 -0.1113  1.8267
 3776TIP3    H211335   2.022   0.776   1.519 -0.9762  3.1312 -1.1681
 3777TIP3   OH211336   5.399   1.528   0.167  0.7165 -1.2207  0.3951
 3777TIP3    H111337   5.417   1.621   0.153  0.0926 -1.2253 -0.4738
 3777TIP3    H211338   5.470   1.498   0.224  2.6993 -0.9276 -1.8033
 3778TIP3   OH211339   0.964   0.696   2.201 -0.3936  0.0939  0.5883
 3778TIP3    H111340   0.887   0.642   2.180  1.8056 -2.5009 -1.5506
 3778TIP3    H211341   1.014   0.643   2.263  1.9287 -0.5946 -1.7197
 3779TIP3   OH211342   0.232   2.422   1.572  0.1805  0.0744  0.2654
 3779TIP3    H111343   0.195   2.446   1.487 -0.9955  1.8370  1.2175
 3779TIP3    H211344   0.303   2.484   1.585  0.5909 -0.4270  0.4100
 3780TIP3   OH211345   1.117   1.667   1.707  0.0066 -0.1694  0.9474
 3780TIP3    H111346   1.041   1.696   1.757  0.1793 -1.7612  2.2270
 3780TIP3    H211347   1.109   1.572   1.706  0.2507 -0.2318 -1.7433
 3781TIP3   OH211348   1.191   2.878   3.473  0.2611  0.5389 -0.2216
 3781TIP3    H111349   1.133   2.834   3.535 -0.2756 -0.7777 -1.5830
 3781TIP3    H211350   1.153   2.965   3.463 -0.2581  0.4081  0.4929
 3782TIP3   OH211351   2.546   3.870   0.995 -0.1251 -0.1382  0.4406
 3782TIP3    H111352   2.483   3.913   1.053  0.4074 -0.7539  1.5204
 3782TIP3    H211353   2.597   3.813   1.053 -1.2776 -2.8171 -0.9926
 3783TIP3   OH211354   0.743   5.647   4.020 -0.2501 -0.4815  0.2309
 3783TIP3    H111355   0.719   5.570   3.968 -0.3550 -0.8836  0.8595
 3783TIP3    H211356   0.706   5.721   3.973 -0.3880 -0.8476 -0.2372
 3784TIP3   OH211357   3.797   5.224   4.401  0.0734 -0.2369 -0.3324
 3784TIP3    H111358   3.892   5.233   4.404 -0.0637  1.1594  0.7253
 3784TIP3    H211359   3.765   5.278   4.473 -1.5503 -0.4296 -0.8592
 3785TIP3   OH211360   2.276   0.249   5.166 -0.2703 -0.8825  0.4634
 3785TIP3    H111361   2.253   0.307   5.239 -0.5739 -1.8866  1.1794
 3785TIP3    H211362   2.233   0.288   5.090 -1.4097 -0.7744  1.1442
 3786TIP3   OH211363   2.759   3.513   0.888  0.2532 -0.3421 -0.4696
 3786TIP3    H111364   2.668   3.502   0.917  0.5718  1.7507  1.6537
 3786TIP3    H211365   2.807   3.445   0.936  0.1003 -0.0148  0.1588
 3787TIP3   OH211366   5.651   4.667   0.590 -0.1850 -0.3151  0.1746
 3787TIP3    H111367   5.630   4.629   0.504 -0.1835 -0.7887  0.3798
 3787TIP3    H211368   5.733   4.714   0.576  0.3669 -1.2539  0.1504
 3788TIP3   OH211369   3.684   5.199   1.140 -0.1815 -0.3306 -0.4728
 3788TIP3    H111370   3.616   5.212   1.073 -1.4518  0.6201  0.9264
 3788TIP3    H211371   3.747   5.269   1.124 -1.8063  1.5589  0.8075
 3789TIP3   OH211372   6.224   3.946   4.001 -0.1216  0.5225  0.2220
 3789TIP3    H111373   6.209   4.011   4.070  1.1864 -0.7037  1.7668
 3789TIP3    H211374   6.273   3.876   4.045  1.1467 -0.1268 -2.0692
 3790TIP3   OH211375   4.381   2.483   2.245  0.2351 -0.2397  0.4117
 3790TIP3    H111376   4.351   2.466   2.156  0.6824 -0.9670  0.3936
 3790TIP3    H211377   4.449   2.550   2.234  1.6021 -1.6389 -0.0170
 3791TIP3   OH211378   3.986   0.442   1.453  0.2142 -0.1084  0.2810
 3791TIP3    H111379   3.993   0.375   1.386 -0.3535 -0.7274  0.8242
 3791TIP3    H211380   3.895   0.470   1.449  0.1930 -0.1065  0.7430
 3792TIP3   OH211381   1.596   2.644   3.971  0.3714  0.2728 -0.0394
 3792TIP3    H111382   1.601   2.633   3.876 -1.1744  0.8481 -0.2074
 3792TIP3    H211383   1.687   2.653   3.998  0.8272  0.3229 -1.4862
 3793TIP3   OH211384   0.256   1.618   0.419 -0.2585 -0.4968 -0.3212
 3793TIP3    H111385   0.331   1.676   0.432 -0.6215  0.2261 -1.3312
 3793TIP3    H211386   0.214   1.613   0.505  0.5366 -0.3435  0.0818
 3794TIP3   OH211387   4.722   3.600   2.781 -0.0073  0.0440  0.5647
 3794TIP3    H111388   4.699   3.662   2.851  0.8714 -3.0975  3.9704
 3794TIP3    H211389   4.816   3.590   2.789 -0.1850 -2.0586  0.5537
 3795TIP3   OH211390   4.482   3.350   2.646  0.9980  0.1034 -0.1184
 3795TIP3    H111391   4.403   3.334   2.594  2.5134 -2.4994 -1.8774
 3795TIP3    H211392   4.513   3.436   2.617 -0.3498  0.4679 -0.5292
 3796TIP3   OH211393   5.029   5.071   1.794  0.0492  0.2963 -0.1625
 3796TIP3    H111394   5.080   5.151   1.802  0.2617  0.1005  0.4984
 3796TIP3    H211395   5.066   5.027   1.718  0.4503  0.4551 -0.0639
 3797TIP3   OH211396   2.783   0.321   1.926  0.6348  0.1199 -0.1140
 3797TIP3    H111397   2.789   0.259   1.853  0.4028  2.1085 -1.9600
 3797TIP3    H211398   2.689   0.324   1.946  0.6558 -0.1732  0.0341
 3798TIP3   OH211399   4.981   2.711   2.105 -0.3590  0.0166 -0.1265
 3798TIP3    H111400   4.912   2.777   2.101  0.5481  0.9604 -2.9604
 3798TIP3    H211401   5.046   2.746   2.165 -0.3460  1.3000 -0.8532
 3799TIP3   OH211402   0.838   3.025   2.450  0.6021  0.1386 -0.0261
 3799TIP3    H111403   0.767   3.024   2.386 -0.7977 -2.9042  1.3702
 3799TIP3    H211404   0.911   2.982   2.405  0.2969 -0.1316 -0.2755
 3800TIP3   OH211405   3.175   0.415   5.099  0.5254  0.0358 -0.3798
 3800TIP3    H111406   3.241   0.454   5.157  0.6054  0.0306 -0.4671
 3800TIP3    H211407   3.122   0.490   5.069 -1.0234 -0.2035  1.5674
 3801TIP3   OH211408   3.775   0.507   4.371  0.4337  0.2057 -0.0834
 3801TIP3    H111409   3.864   0.532   4.396  1.0387  1.3708 -2.9141
 3801TIP3    H211410   3.729   0.591   4.359 -0.6841 -0.3520  0.1247
 3802TIP3   OH211411   4.069   2.422   4.605 -0.6712 -0.0684 -0.0818
 3802TIP3    H111412   4.101   2.402   4.517  1.0211 -1.9628  0.8751
 3802TIP3    H211413   4.115   2.502   4.629  0.5925 -0.7516 -0.1287
 3803TIP3   OH211414   4.170   4.696   1.552 -0.3107 -0.4255  0.2920
 3803TIP3    H111415   4.095   4.637   1.543 -1.2660  0.6797  0.6380
 3803TIP3    H211416   4.216   4.691   1.468 -1.1289 -0.6720 -0.1510
 3804TIP3   OH211417   5.386   4.519   2.807 -0.7759 -0.1828 -0.2242
 3804TIP3    H111418   5.326   4.573   2.858 -1.0638 -1.9304  1.4106
 3804TIP3    H211419   5.338   4.501   2.726 -1.0904  1.1186 -0.3465
 3805TIP3   OH211420   4.075   4.056   3.516  0.9283 -0.2669 -0.1481
 3805TIP3    H111421   4.003   4.057   3.579  0.9435 -0.5560 -0.1273
 3805TIP3    H211422   4.078   4.146   3.483  0.6358 -0.2225 -0.0617
 3806TIP3   OH211423   1.028  -0.026   5.062 -0.3845  0.1434 -0.0452
 3806TIP3    H111424   0.979  -0.038   4.981  1.0443  0.3707 -0.9604
 3806TIP3    H211425   1.049   0.067   5.063  0.1454  0.0200  0.2762
 3807TIP3   OH211426   1.517   0.227   3.461 -0.0920  0.2643 -0.7674
 3807TIP3    H111427   1.488   0.261   3.377 -1.1477 -3.3939 -2.0924
 3807TIP3    H211428   1.436   0.197   3.504  0.6142  0.4690  0.7640
 3808TIP3   OH211429   0.613   4.862   5.117  0.7094 -0.1307  0.2054
 3808TIP3    H111430   0.622   4.834   5.208  0.1969  0.6873  0.5112
 3808TIP3    H211431   0.702   4.861   5.083  0.8903 -0.5716  0.6663
 3809TIP3   OH211432   0.255   5.459   2.867 -0.7640  0.5745 -0.4113
 3809TIP3    H111433   0.223   5.420   2.949 -0.8137 -1.3625 -1.2989
 3809TIP3    H211434   0.183   5.448   2.805 -0.8619  2.3519 -0.6549
 3810TIP3   OH211435   0.631   4.586   4.061 -0.4390 -0.0747  0.1054
 3810TIP3    H111436   0.589   4.671   4.057 -0.8020 -0.1550  1.6082
 3810TIP3    H211437   0.594   4.544   4.139  1.5123 -0.6442  0.7804
 3811TIP3   OH211438   1.810   2.349   3.036 -0.8715 -0.0589 -1.1555
 3811TIP3    H111439   1.742   2.308   2.982  0.3625 -1.1664 -1.9485
 3811TIP3    H211440   1.856   2.408   2.976  0.0284 -0.7310 -1.1609
 3812TIP3   OH211441   1.641   1.005   1.185 -0.2639 -0.0670 -0.3245
 3812TIP3    H111442   1.697   1.027   1.110 -1.1384 -0.5170 -1.1415
 3812TIP3    H211443   1.675   0.920   1.215  3.1044  2.0953  2.8278
 3813TIP3   OH211444   4.728   4.880   2.766  0.3692 -0.8147  1.4495
 3813TIP3    H111445   4.643   4.883   2.811 -0.0871  0.1145  0.5629
 3813TIP3    H211446   4.722   4.804   2.709 -0.1259 -0.3699  0.9039
 3814TIP3   OH211447   5.300   1.963   4.109  0.2839 -0.1893 -0.2211
 3814TIP3    H111448   5.212   1.971   4.147  0.3052  1.3214 -0.4109
 3814TIP3    H211449   5.303   1.874   4.075 -0.8355 -0.5785  0.6194
 3815TIP3   OH211450   4.843   3.640   1.304  0.0099 -0.2920 -0.4317
 3815TIP3    H111451   4.894   3.720   1.312 -1.2838  0.4705  0.5833
 3815TIP3    H211452   4.792   3.635   1.385 -1.1907 -1.2256 -1.2018
 3816TIP3   OH211453   4.411   3.502   1.725  0.4629  0.2846  0.1951
 3816TIP3    H111454   4.460   3.579   1.754 -1.9180  1.3988  1.5283
 3816TIP3    H211455   4.364   3.532   1.647  0.7733 -0.3514 -0.2474
 3817TIP3   OH211456   4.627   3.850   4.333  0.1293 -0.3809 -0.0399
 3817TIP3    H111457   4.582   3.907   4.270  0.6975 -0.8138 -0.8559
 3817TIP3    H211458   4.596   3.762   4.312  1.5879 -0.7391 -0.8627
 3818TIP3   OH211459   6.090   0.474   2.313  0.3793  0.3841 -0.6174
 3818TIP3    H111460   6.102   0.524   2.394  1.6503  0.2742 -0.7148
 3818TIP3    H211461   6.151   0.400   2.322 -0.4975 -0.4093 -1.0628
 3819TIP3   OH211462   5.985   5.616   3.405  0.1574 -0.9740  0.2928
 3819TIP3    H111463   5.976   5.521   3.404  1.6382 -1.1799  2.2301
 3819TIP3    H211464   5.898   5.647   3.430 -0.3110 -1.7902 -0.2527
 3820TIP3   OH211465   3.702   3.635   1.036 -0.7147  0.0200  0.3436
 3820TIP3    H111466   3.675   3.721   1.069 -0.1725 -0.1833  1.3571
 3820TIP3    H211467   3.725   3.585   1.115 -0.0641 -0.7226 -0.2967
 3821TIP3   OH211468   2.779   0.418   2.719  0.3261 -0.2719  0.1142
 3821TIP3    H111469   2.830   0.381   2.791  1.6657  1.7625  0.3061
 3821TIP3    H211470   2.748   0.503   2.752  0.8583  0.6528 -1.6210
 3822TIP3   OH211471   1.888   2.978   1.561  0.0139  0.0565 -0.6555
 3822TIP3    H111472   1.936   3.051   1.521  1.0336 -0.0842  0.2424
 3822TIP3    H211473   1.916   2.979   1.653 -0.2029 -1.2590 -0.5548
 3823TIP3   OH211474   5.676   4.386   1.977  0.3709  0.2426  0.0216
 3823TIP3    H111475   5.647   4.359   1.890  1.6377 -0.3811 -0.2305
 3823TIP3    H211476   5.711   4.306   2.017 -0.5511  0.4348  1.2647
 3824TIP3   OH211477   2.310   4.972   1.051 -0.6751  0.2412  0.0691
 3824TIP3    H111478   2.270   4.928   0.976 -0.5713  1.1851 -0.5608
 3824TIP3    H211479   2.276   5.061   1.047  0.7330  0.8019  0.0743
 3825TIP3   OH211480   1.785   5.800   0.143 -0.7493 -0.1115 -0.4132
 3825TIP3    H111481   1.724   5.727   0.136  0.1806 -0.8136 -1.7936
 3825TIP3    H211482   1.752   5.865   0.081 -0.4906 -0.2020 -0.6489
 3826TIP3   OH211483   2.406   4.326   5.014  0.2184 -0.2118 -0.1244
 3826TIP3    H111484   2.380   4.418   5.019  1.0888  0.0191  0.3567
 3826TIP3    H211485   2.431   4.303   5.104  0.4162 -0.7983 -0.3226
 3827TIP3   OH211486   4.675   2.226   4.174  0.1568  0.0439 -0.1599
 3827TIP3    H111487   4.694   2.154   4.234 -0.6558 -0.8604 -0.9635
 3827TIP3    H211488   4.697   2.305   4.224 -1.2455 -0.6324  1.6307
 3828TIP3   OH211489   2.113   4.623   1.472  0.1837  0.1864 -0.1914
 3828TIP3    H111490   2.190   4.643   1.419  1.0279  2.9919  1.8602
 3828TIP3    H211491   2.148   4.600   1.558 -1.2254 -0.3138  0.2776
 3829TIP3   OH211492   1.411   2.020   2.932  0.9368 -0.6917  0.0378
 3829TIP3    H111493   1.422   2.113   2.911  0.9578 -0.9358 -1.1364
 3829TIP3    H211494   1.452   2.009   3.018  1.2952  0.3068  0.0019
 3830TIP3   OH211495   4.582   1.318   4.315 -0.2823  0.0799  0.3117
 3830TIP3    H111496   4.625   1.404   4.324  0.2884 -0.0745 -0.7370
 3830TIP3    H211497   4.576   1.305   4.220  0.5205 -1.4708  0.4519
 3831TIP3   OH211498   1.791   0.213   0.527  0.1862  0.6371  0.5544
 3831TIP3    H111499   1.861   0.251   0.474 -0.6260  2.4169  0.6907
 3831TIP3    H211500   1.775   0.127   0.488  3.1807 -0.3413  1.2142
 3832TIP3   OH211501   3.050   1.062   0.172 -0.0581  0.5356  0.1951
 3832TIP3    H111502   3.108   0.989   0.149 -1.8077 -0.2517 -2.0501
 3832TIP3    H211503   2.962   1.030   0.151 -1.0217  2.8101  0.5203
 3833TIP3   OH211504   0.804   1.965   0.947 -0.4082 -0.0990 -0.4624
 3833TIP3    H111505   0.834   1.905   1.015  0.4251  0.1814 -0.5714
 3833TIP3    H211506   0.760   1.908   0.884 -0.3475 -0.4869 -0.1652
 3834TIP3   OH211507   2.391   4.290   3.685  0.2685 -0.0215 -0.4814
 3834TIP3    H111508   2.478   4.253   3.671  1.1303  1.3193  1.0438
 3834TIP3    H211509   2.388   4.367   3.628 -0.5066 -0.8583 -1.6236
 3835TIP3   OH211510   0.173   5.649   3.586  0.0367  0.2763  0.0005
 3835TIP3    H111511   0.112   5.591   3.540  0.4596  0.1823 -0.4517
 3835TIP3    H211512   0.146   5.737   3.560 -0.1946  0.2582  0.1711
 3836TIP3   OH211513   4.287   3.341   4.630  0.0564  0.5062 -0.0419
 3836TIP3    H111514   4.237   3.422   4.639 -0.7305  0.3627 -2.4699
 3836TIP3    H211515   4.248   3.296   4.555  0.9542 -1.7928  0.7543
 3837TIP3   OH211516   1.002   2.510   4.048 -0.3713 -0.4424 -0.0136
 3837TIP3    H111517   0.920   2.465   4.031 -0.6128 -1.3480  2.9378
 3837TIP3    H211518   0.976   2.591   4.092  0.2462  0.5877 -1.4778
 3838TIP3   OH211519   0.444   3.038   0.188  0.0459  0.3203  0.1642
 3838TIP3    H111520   0.483   3.003   0.268 -0.1765 -0.4869 -0.0682
 3838TIP3    H211521   0.449   2.965   0.126 -1.6473  0.2612  0.0655
 3839TIP3   OH211522   2.186   5.007   3.207 -0.3567  0.1433 -0.0729
 3839TIP3    H111523   2.105   4.998   3.157 -1.2712  1.4756  1.1103
 3839TIP3    H211524   2.164   5.066   3.278  1.2972 -0.5872  1.1061
 3840TIP3   OH211525   5.669   1.226   1.217  0.5872  0.4968 -0.3533
 3840TIP3    H111526   5.731   1.254   1.285 -0.5159 -0.4581  1.1288
 3840TIP3    H211527   5.656   1.133   1.234  0.4910  0.1589 -2.1042
 3841TIP3   OH211528   5.205   1.149   1.239  0.2066 -0.0131  0.7564
 3841TIP3    H111529   5.242   1.080   1.294 -0.9318 -0.7788  0.6040
 3841TIP3    H211530   5.113   1.153   1.264 -0.0948  0.3577 -0.3449
 3842TIP3   OH211531   4.534   1.395   4.029 -0.2042 -0.4455  0.5293
 3842TIP3    H111532   4.531   1.300   4.025 -0.5383 -0.3956 -0.7377
 3842TIP3    H211533   4.573   1.422   3.946  2.0759  0.4627  1.7957
 3843TIP3   OH211534   2.605   5.141   0.966  0.2518 -0.6252 -0.2307
 3843TIP3    H111535   2.682   5.161   0.912 -0.1837  3.1862  0.3008
 3843TIP3    H211536   2.532   5.183   0.922 -0.7856 -0.6058  1.4158
 3844TIP3   OH211537   0.688   4.782   3.681 -0.3606  0.9536  0.4904
 3844TIP3    H111538   0.698   4.693   3.714 -0.6562  0.9452  0.5624
 3844TIP3    H211539   0.600   4.783   3.642  0.0824  0.8767 -0.5511
 3845TIP3   OH211540   5.198   5.206   2.554  0.0941  0.3226 -0.9347
 3845TIP3    H111541   5.188   5.156   2.635  0.2017  1.6081 -0.1009
 3845TIP3    H211542   5.113   5.250   2.543 -0.5092 -1.0994 -2.4334
 3846TIP3   OH211543   1.999   0.464   1.512 -0.6492 -0.6653  0.0981
 3846TIP3    H111544   1.978   0.435   1.423 -1.5158 -0.3854  0.2022
 3846TIP3    H211545   2.035   0.385   1.554  0.0507 -0.7222 -0.5756
 3847TIP3   OH211546   1.485   2.192   2.579 -0.0465  0.0777 -0.0378
 3847TIP3    H111547   1.393   2.165   2.578  0.1579 -0.6916  0.8544
 3847TIP3    H211548   1.483   2.285   2.600 -0.5671 -0.2540  1.4601
 3848TIP3   OH211549   5.782   0.238   3.634 -0.2656 -0.4153 -0.3452
 3848TIP3    H111550   5.731   0.319   3.630  0.4021  0.0573  0.4365
 3848TIP3    H211551   5.845   0.245   3.563 -0.8911 -0.7384 -0.9456
 3849TIP3   OH211552   5.294   4.683   3.890 -0.9267 -1.0296  0.2541
 3849TIP3    H111553   5.291   4.697   3.795 -0.8287 -2.1750  0.0659
 3849TIP3    H211554   5.230   4.614   3.906 -2.3722  0.4864  1.3067
 3850TIP3   OH211555   2.463   2.836   0.906 -0.1335 -0.1121  0.1200
 3850TIP3    H111556   2.411   2.916   0.916  0.3229  0.0491  1.4883
 3850TIP3    H211557   2.545   2.855   0.953  0.6724 -0.7901 -0.9615
 3851TIP3   OH211558   3.153   3.373   1.649 -0.8587  0.0169  0.2136
 3851TIP3    H111559   3.135   3.465   1.633 -1.0957 -0.3981 -2.3334
 3851TIP3    H211560   3.104   3.327   1.582  0.8022 -1.8563  0.1900
 3852TIP3   OH211561   0.504   5.450   0.555 -0.0895 -0.3214 -0.4168
 3852TIP3    H111562   0.434   5.478   0.614  0.8362 -1.0889  1.0976
 3852TIP3    H211563   0.558   5.528   0.543 -1.7096  0.5897 -2.4645
 3853TIP3   OH211564   1.325   5.258   1.640  0.2585  0.1010 -0.4523
 3853TIP3    H111565   1.259   5.225   1.579 -0.3891  2.1519 -0.9738
 3853TIP3    H211566   1.286   5.338   1.676  1.4545  0.0051  1.1570
 3854TIP3   OH211567   2.082   3.312   1.792  0.6560  0.0989  0.2752
 3854TIP3    H111568   2.163   3.262   1.786 -0.2781 -1.2720 -1.9333
 3854TIP3    H211569   2.039   3.279   1.871  0.0961 -2.6520 -1.0738
 3855TIP3   OH211570   0.270   0.337   4.772 -0.3896 -0.0561 -0.0690
 3855TIP3    H111571   0.304   0.426   4.758  2.8431 -1.4619 -2.3473
 3855TIP3    H211572   0.304   0.312   4.858 -1.2254  0.8126  0.5375
 3856TIP3   OH211573   0.645   2.391   1.565 -0.0757  0.2469 -0.0545
 3856TIP3    H111574   0.736   2.421   1.557 -0.1842  0.8926  0.9558
 3856TIP3    H211575   0.640   2.353   1.652 -1.3940  2.5719  0.9798
 3857TIP3   OH211576   3.043   4.163   4.779  0.3309 -0.0076 -0.3123
 3857TIP3    H111577   2.971   4.106   4.754  1.7608 -2.2432  0.4072
 3857TIP3    H211578   3.116   4.104   4.799  2.3106  2.1241 -0.7366
 3858TIP3   OH211579   4.839   1.776   4.452  0.5743 -0.1752 -0.3540
 3858TIP3    H111580   4.928   1.763   4.482  0.2563 -1.8755 -0.0219
 3858TIP3    H211581   4.847   1.828   4.372  1.6496  1.8214  0.9863
 3859TIP3   OH211582   4.014   3.805   4.123  0.5358  0.5940 -0.2590
 3859TIP3    H111583   3.989   3.862   4.195  1.4352  0.3836  0.2325
 3859TIP3    H211584   4.025   3.864   4.048  0.6670  0.9538  0.0444
 3860TIP3   OH211585   2.148   3.592   4.719 -0.3822  0.8883 -0.3056
 3860TIP3    H111586   2.107   3.626   4.640 -0.3906  4.0218  0.9205
 3860TIP3    H211587   2.081   3.537   4.759 -0.4709 -0.5253 -2.2422
 3861TIP3   OH211588   4.586   3.822   3.576 -0.0327 -0.1524 -0.0706
 3861TIP3    H111589   4.522   3.852   3.512 -0.7506 -1.7619 -0.1470
 3861TIP3    H211590   4.558   3.733   3.598  1.9988 -0.7833  0.1273
 3862TIP3   OH211591   0.431   2.169   3.725 -0.4182  0.3539  0.2435
 3862TIP3    H111592   0.363   2.108   3.754 -0.9001  0.8994  0.2608
 3862TIP3    H211593   0.503   2.156   3.787 -0.3600 -0.4743  0.0229
 3863TIP3   OH211594   2.593   0.363   0.633  0.6459 -0.4029  0.4171
 3863TIP3    H111595   2.597   0.288   0.693  1.1346  0.2028  1.1676
 3863TIP3    H211596   2.515   0.347   0.580  0.7474 -1.4443  0.5593
 3864TIP3   OH211597   5.304   3.120   3.271  0.5458  0.4076  0.8225
 3864TIP3    H111598   5.212   3.098   3.260  0.9613 -1.4830  0.7685
 3864TIP3    H211599   5.349   3.036   3.277  2.6552  1.1504 -2.1597
 3865TIP3   OH211600   4.067   2.454   1.813  0.1770  0.1735  0.2073
 3865TIP3    H111601   4.052   2.537   1.858  2.0900  0.6549  0.0254
 3865TIP3    H211602   4.025   2.466   1.728 -0.3520  0.5953  0.5182
 3866TIP3   OH211603   0.835   2.273   2.591  0.1776  0.1706  0.0272
 3866TIP3    H111604   0.876   2.240   2.671 -0.1644  1.7752  0.9011
 3866TIP3    H211605   0.896   2.249   2.521  1.1079 -0.1176  0.9206
 3867TIP3   OH211606   1.162   0.855   3.984 -0.0778  0.2448  0.2391
 3867TIP3    H111607   1.173   0.825   4.074 -0.2005  1.5249  0.6979
 3867TIP3    H211608   1.070   0.880   3.978  0.4443  2.3812  0.4872
 3868TIP3   OH211609   5.161   2.489   2.634 -0.2094  0.1424 -0.7035
 3868TIP3    H111610   5.073   2.514   2.607 -0.1414  2.2180  0.6806
 3868TIP3    H211611   5.215   2.504   2.556 -0.7342  1.2544 -0.8793
 3869TIP3   OH211612   6.042   4.826   4.609 -0.0971 -0.3214 -0.1450
 3869TIP3    H111613   6.011   4.748   4.563  0.0978 -1.7045  1.9524
 3869TIP3    H211614   5.965   4.857   4.658 -0.0312  0.5284 -0.5527
 3870TIP3   OH211615   0.607   3.468   1.152 -0.5174 -0.8215  0.0843
 3870TIP3    H111616   0.527   3.518   1.166 -0.2476  0.3409 -2.0708
 3870TIP3    H211617   0.621   3.421   1.234 -3.5243 -1.2895  0.4099
 3871TIP3   OH211618   1.439   5.418   3.495 -0.2487  0.0875 -0.0962
 3871TIP3    H111619   1.438   5.371   3.578 -0.3995  0.6970  0.2506
 3871TIP3    H211620   1.519   5.470   3.497  0.8711 -1.5136 -1.2629
 3872TIP3   OH211621   4.738   2.707   2.779  0.0433  0.3356  0.9571
 3872TIP3    H111622   4.758   2.694   2.871  1.4713 -0.6919  0.5430
 3872TIP3    H211623   4.695   2.792   2.774 -1.9517 -0.4675  2.8173
 3873TIP3   OH211624   5.578   4.753   3.440 -0.4275 -0.1366  0.3646
 3873TIP3    H111625   5.592   4.668   3.398 -2.3671 -0.6854  0.6947
 3873TIP3    H211626   5.657   4.769   3.490  1.8349  0.3384 -3.0217
 3874TIP3   OH211627   0.641   5.143   4.521 -0.0630  0.0456 -0.1933
 3874TIP3    H111628   0.707   5.161   4.455  0.9970 -1.7582  0.3249
 3874TIP3    H211629   0.569   5.202   4.499  1.8612  2.4455 -0.4845
 3875TIP3   OH211630   6.231   0.112   4.872  0.3672 -0.0429  0.2201
 3875TIP3    H111631   6.243   0.207   4.875  0.6892 -0.1024  1.1362
 3875TIP3    H211632   6.195   0.090   4.958 -0.6601 -0.6301 -0.3525
 3876TIP3   OH211633   5.689   3.063   4.503  0.7609  0.1895 -0.4806
 3876TIP3    H111634   5.784   3.054   4.515  0.6115  0.0845  0.7337
 3876TIP3    H211635   5.667   2.999   4.435  1.3094 -0.9977  0.4269
 3877TIP3   OH211636   4.718   1.325   3.773 -0.0146 -0.1164  0.2817
 3877TIP3    H111637   4.745   1.370   3.693 -1.8209  0.7484  0.1109
 3877TIP3    H211638   4.792   1.337   3.833  0.9005  0.1948 -0.8646
 3878TIP3   OH211639   3.006   4.422   4.834 -0.6285 -0.5604 -0.0334
 3878TIP3    H111640   3.037   4.338   4.801  0.5168  0.4904 -1.8122
 3878TIP3    H211641   2.917   4.429   4.800 -0.3759 -0.6351 -0.7327
 3879TIP3   OH211642   5.431   3.068   0.462 -0.4154 -0.1983 -0.4819
 3879TIP3    H111643   5.371   2.997   0.442 -1.3052 -0.2129  1.8788
 3879TIP3    H211644   5.501   3.061   0.397 -1.1025 -2.4615 -1.0367
 3880TIP3   OH211645   0.152   3.534   4.422 -0.5778 -0.2206 -0.4076
 3880TIP3    H111646   0.103   3.492   4.352  0.1788  0.3565 -1.3003
 3880TIP3    H211647   0.141   3.628   4.406 -0.8574 -0.0727  0.5785
 3881TIP3   OH211648   0.869   0.002   4.794  0.5728 -0.2968  0.2215
 3881TIP3    H111649   0.869   0.085   4.747  1.5763  0.3690  1.3471
 3881TIP3    H211650   0.780  -0.031   4.784  0.0408  1.1115  0.1074
 3882TIP3   OH211651   5.875   5.320   3.328  0.0731  0.0334  0.1199
 3882TIP3    H111652   5.906   5.259   3.394 -1.2674 -1.4632 -0.5826
 3882TIP3    H211653   5.929   5.303   3.251 -0.8480 -0.9005 -0.3437
 3883TIP3   OH211654   6.328   0.605   3.543 -0.4915  0.0609  0.1146
 3883TIP3    H111655   6.273   0.658   3.601 -1.5887 -1.4800  0.5550
 3883TIP3    H211656   6.355   0.530   3.597  1.3444  0.3280 -0.3691
 3884TIP3   OH211657   2.984   3.996   0.131  0.2269  0.3295  0.3300
 3884TIP3    H111658   3.035   3.963   0.205  0.4110  0.1324  0.1128
 3884TIP3    H211659   2.908   3.938   0.127  0.4540  0.0493  0.0691
 3885TIP3   OH211660   2.415   1.280   0.147  0.0017 -0.7503 -0.1640
 3885TIP3    H111661   2.460   1.304   0.067 -2.0127 -0.1085 -1.1830
 3885TIP3    H211662   2.409   1.362   0.197  3.3745 -1.5599  1.9148
 3886TIP3   OH211663   3.578   3.401   4.093  0.3279  0.3573 -0.4067
 3886TIP3    H111664   3.522   3.450   4.153  0.7340 -0.3628  0.5864
 3886TIP3    H211665   3.517   3.358   4.033 -0.0517  1.6324 -0.9666
 3887TIP3   OH211666   2.789   0.923   2.959  0.0269 -0.6379  0.4208
 3887TIP3    H111667   2.727   0.992   2.935  1.9479  0.7402 -0.8989
 3887TIP3    H211668   2.779   0.915   3.054 -1.4895  0.1810  0.3694
 3888TIP3   OH211669   1.504   0.241   0.618 -0.0559  0.2510  0.0139
 3888TIP3    H111670   1.455   0.229   0.536 -0.9484 -0.3924  0.6309
 3888TIP3    H211671   1.589   0.276   0.589  0.3244 -1.6483 -1.3506
 3889TIP3   OH211672   2.439   4.107   0.606 -0.3860 -0.7643  0.5923
 3889TIP3    H111673   2.443   4.179   0.544 -0.0611 -1.3250 -0.0485
 3889TIP3    H211674   2.470   4.145   0.689 -1.4919  0.1608  0.5968
 3890TIP3   OH211675   2.041   0.195   4.542 -0.0283 -0.4366 -0.0602
 3890TIP3    H111676   1.958   0.171   4.583  0.3623 -0.0925  0.9510
 3890TIP3    H211677   2.097   0.118   4.554  0.1229 -0.2947  0.1496
 3891TIP3   OH211678   3.835   1.506   4.637  0.4205 -0.0036 -0.2266
 3891TIP3    H111679   3.848   1.600   4.634  0.5004  0.0065  0.3905
 3891TIP3    H211680   3.740   1.495   4.642  0.4336  0.0648  0.2448
 3892TIP3   OH211681   2.967   3.121   1.798 -0.6137 -0.4132  0.0622
 3892TIP3    H111682   2.910   3.060   1.844 -1.2627  1.6357  2.1992
 3892TIP3    H211683   2.908   3.173   1.743 -0.1672 -1.2012 -1.1932
 3893TIP3   OH211684   2.136   5.177   2.828  0.7891  0.1076 -0.2208
 3893TIP3    H111685   2.069   5.122   2.870 -0.0239  0.1128 -1.4625
 3893TIP3    H211686   2.200   5.194   2.897  1.8561 -3.5682 -0.0972
 3894TIP3   OH211687   3.846   0.949   4.259 -0.3997 -0.1079 -0.4035
 3894TIP3    H111688   3.938   0.973   4.250  0.3211 -1.8948  1.4468
 3894TIP3    H211689   3.815   1.002   4.333 -0.2323 -1.0206  0.3412
 3895TIP3   OH211690   2.849   1.641   3.653  0.0440 -0.2035 -0.0417
 3895TIP3    H111691   2.866   1.719   3.601  0.2697 -0.1028  0.1808
 3895TIP3    H211692   2.761   1.613   3.627 -0.0782  0.1841 -0.0461
 3896TIP3   OH211693   5.185   5.628   3.416 -0.0205  0.0692 -0.7117
 3896TIP3    H111694   5.206   5.537   3.439 -2.4309 -0.0369  1.4486
 3896TIP3    H211695   5.134   5.621   3.335 -1.4273 -0.6682  0.2104
 3897TIP3   OH211696   5.636   2.859   4.323  0.0371  0.0395  0.1328
 3897TIP3    H111697   5.667   2.816   4.243 -2.0885  0.1873 -0.8376
 3897TIP3    H211698   5.601   2.788   4.376 -0.2729  0.1584  0.0888
 3898TIP3   OH211699   2.299   3.901   0.735 -0.1019 -0.3940 -0.2943
 3898TIP3    H111700   2.365   3.832   0.730 -0.8133 -1.0180 -2.3666
 3898TIP3    H211701   2.344   3.981   0.707  0.0868 -0.5474 -0.4207
 3899TIP3   OH211702   0.274   4.831   2.603 -0.6800  0.0817  0.4766
 3899TIP3    H111703   0.275   4.827   2.699 -0.1239 -3.0354  0.4227
 3899TIP3    H211704   0.355   4.878   2.580  0.9083 -1.9945  1.5332
 3900TIP3   OH211705   0.085   5.002   2.153  0.6133  0.5273 -0.6052
 3900TIP3    H111706  -0.010   4.999   2.167  0.6289  0.0374 -0.5901
 3900TIP3    H211707   0.109   4.912   2.135  0.8562  0.8504 -2.0626
 3901TIP3   OH211708   2.822   0.289   1.602 -0.1215 -0.5302 -0.2734
 3901TIP3    H111709   2.897   0.314   1.547 -0.2712 -3.3576 -1.9465
 3901TIP3    H211710   2.747   0.329   1.558  0.1812  0.8021  0.3788
 3902TIP3   OH211711   2.409   3.735   2.944  0.0372 -0.1473  0.0583
 3902TIP3    H111712   2.470   3.664   2.965 -0.4213 -0.7452 -0.5723
 3902TIP3    H211713   2.400   3.783   3.026  0.4273 -0.7645  0.4776
 3903TIP3   OH211714   6.074   2.726   3.764 -0.6054 -0.0009 -0.1940
 3903TIP3    H111715   6.146   2.735   3.827  0.5581 -0.8950 -1.3365
 3903TIP3    H211716   6.104   2.658   3.703 -2.0236  0.2836 -1.2572
 3904TIP3   OH211717   3.955   4.324   3.242  0.6226  0.7940  0.5183
 3904TIP3    H111718   4.010   4.245   3.241 -0.8692 -0.3004  0.3892
 3904TIP3    H211719   3.873   4.295   3.203 -0.2130  2.2345  1.1597
 3905TIP3   OH211720   4.732   3.157   1.601 -0.1641 -0.2729  0.7075
 3905TIP3    H111721   4.650   3.177   1.645 -1.8031 -0.7346 -1.9534
 3905TIP3    H211722   4.731   3.062   1.590  0.1764 -0.1739 -0.3025
 3906TIP3   OH211723   6.067   5.275   4.606 -0.3156 -0.1803 -0.1662
 3906TIP3    H111724   6.025   5.224   4.537  0.0322  0.9990 -1.2708
 3906TIP3    H211725   6.092   5.357   4.564  0.2802  0.3963  1.2601
 3907TIP3   OH211726   4.445   0.815   1.034 -0.1568 -0.2816 -0.4946
 3907TIP3    H111727   4.412   0.862   1.111 -0.4539 -0.7237 -0.3495
 3907TIP3    H211728   4.535   0.846   1.024 -0.2117 -0.0013 -0.1448
 3908TIP3   OH211729   2.491   1.387   3.821 -0.0882 -0.1409  0.1125
 3908TIP3    H111730   2.432   1.462   3.812 -1.4675 -1.3014 -0.9683
 3908TIP3    H211731   2.579   1.424   3.808 -0.8610  0.9988 -2.7733
 3909TIP3   OH211732   3.227   4.075   0.776 -0.2841 -0.3198 -0.2792
 3909TIP3    H111733   3.175   4.004   0.738 -1.1591 -0.8340  1.7391
 3909TIP3    H211734   3.285   4.032   0.839 -0.3974  0.6548  0.5257
 3910TIP3   OH211735   4.621   4.697   3.513  0.0040  0.2117  0.3004
 3910TIP3    H111736   4.697   4.641   3.497  0.1950  0.2635  1.0183
 3910TIP3    H211737   4.581   4.708   3.426 -0.0002 -0.9725  0.1362
 3911TIP3   OH211738   5.034   3.066   3.280 -0.1910 -0.1134  0.2522
 3911TIP3    H111739   5.018   3.001   3.348 -1.2883  0.0597  0.1853
 3911TIP3    H211740   4.971   3.136   3.300  0.2594  0.4453 -0.2792
 3912TIP3   OH211741   0.603   0.021   0.973  0.0320 -0.6020  0.3119
 3912TIP3    H111742   0.512  -0.007   0.982  0.1367 -1.4741 -1.0552
 3912TIP3    H211743   0.601   0.095   0.913  0.0079  0.9747  2.1547
 3913TIP3   OH211744   4.902   2.541   3.367  0.0831  0.3082 -0.4198
 3913TIP3    H111745   4.946   2.624   3.384 -0.8391  1.3277 -2.5634
 3913TIP3    H211746   4.881   2.506   3.454  1.6255  1.6680  0.5528
 3914TIP3   OH211747   5.331   4.315   1.937  0.2052 -0.2877  0.1754
 3914TIP3    H111748   5.321   4.325   2.032  0.1653 -0.4736  0.1914
 3914TIP3    H211749   5.282   4.388   1.900 -0.7751 -0.8789  0.2660
 3915TIP3   OH211750   0.847   0.211   0.807 -0.0323 -0.1910 -0.4020
 3915TIP3    H111751   0.766   0.262   0.805  0.9767  1.5382 -0.1265
 3915TIP3    H211752   0.899   0.251   0.877  0.6566 -1.9305  0.1327
 3916TIP3   OH211753   2.593   3.525   0.611 -0.6346 -0.2874  0.7151
 3916TIP3    H111754   2.664   3.578   0.576 -1.5786  0.3041 -0.3623
 3916TIP3    H211755   2.566   3.571   0.691 -0.8419  0.3410  0.2808
 3917TIP3   OH211756   1.821   5.707   4.537 -0.0680  0.1758  0.4541
 3917TIP3    H111757   1.765   5.630   4.549  0.3105  0.0216  1.2656
 3917TIP3    H211758   1.763   5.781   4.552 -0.1495  0.0225  0.9131
 3918TIP3   OH211759   0.919   0.811   4.174  0.6170  0.7832  0.0667
 3918TIP3    H111760   0.988   0.744   4.177 -1.3123 -1.3555 -0.6856
 3918TIP3    H211761   0.932   0.861   4.255  0.8362 -1.9407  1.8790
 3919TIP3   OH211762   3.833   2.615   3.368  0.4594  0.4303  0.0186
 3919TIP3    H111763   3.750   2.659   3.352  0.4689  0.6142  0.4479
 3919TIP3    H211764   3.850   2.630   3.461 -0.4405 -1.9605  0.6533
 3920TIP3   OH211765   2.867   2.795   2.519  0.3402  0.6553 -0.0020
 3920TIP3    H111766   2.806   2.787   2.446 -1.0889 -1.1319  1.2707
 3920TIP3    H211767   2.812   2.824   2.592  1.0721 -0.5211  1.0615
 3921TIP3   OH211768   3.117   5.746   2.674 -0.3965  0.4109  0.5059
 3921TIP3    H111769   3.120   5.651   2.662  1.1206  0.6330 -1.2507
 3921TIP3    H211770   3.036   5.774   2.631  0.0901  0.0988 -0.6334
 3922TIP3   OH211771   1.574   2.720   1.251 -0.7982  0.5161  0.0396
 3922TIP3    H111772   1.668   2.702   1.256 -0.4836  1.8266 -0.5352
 3922TIP3    H211773   1.554   2.719   1.157 -1.3999  0.0841  0.1646
 3923TIP3   OH211774   4.703   1.535   4.401 -0.1231 -0.4989  0.7812
 3923TIP3    H111775   4.753   1.612   4.429  1.3784 -1.1261 -0.0567
 3923TIP3    H211776   4.742   1.462   4.449 -1.9545 -0.7159  2.0604
 3924TIP3   OH211777   6.040   2.528   0.225  0.1662  0.8237 -1.2123
 3924TIP3    H111778   6.031   2.448   0.173  0.7804 -1.1009  1.4160
 3924TIP3    H211779   6.133   2.550   0.218  0.5835 -0.3460  0.2137
 3925TIP3   OH211780   3.538   5.858   1.699  0.5629  0.0259  0.3901
 3925TIP3    H111781   3.555   5.795   1.769  0.7415  0.3316  0.6218
 3925TIP3    H211782   3.522   5.941   1.743 -0.8057 -0.0759  0.1461
 3926TIP3   OH211783   2.608   0.395   2.400 -0.3294 -0.0027 -0.1227
 3926TIP3    H111784   2.701   0.394   2.421  0.4161 -2.0016 -2.9063
 3926TIP3    H211785   2.594   0.479   2.356 -0.1407  0.8021  1.3160
 3927TIP3   OH211786   4.932   4.955   4.881 -0.0862 -0.2838 -0.3158
 3927TIP3    H111787   4.960   5.046   4.873 -1.4030  0.2097  0.4077
 3927TIP3    H211788   4.873   4.941   4.807  0.9761 -0.9214 -1.0806
 3928TIP3   OH211789   4.141   5.155   2.985  0.0015 -0.3156 -0.3834
 3928TIP3    H111790   4.058   5.174   2.941  0.0743 -1.2242 -0.9308
 3928TIP3    H211791   4.124   5.175   3.077 -0.6632 -0.0110 -0.5648
 3929TIP3   OH211792   5.670   0.169   3.272  0.3512  0.2361 -0.0968
 3929TIP3    H111793   5.642   0.133   3.356 -1.3728  0.6694 -0.4610
 3929TIP3    H211794   5.676   0.263   3.287 -0.2778  0.3495 -0.5483
 3930TIP3   OH211795   2.582   0.174   2.588  0.4092  0.3463 -0.4361
 3930TIP3    H111796   2.660   0.121   2.571  0.5904  0.6635 -0.6014
 3930TIP3    H211797   2.595   0.253   2.536  0.8565  1.2419  1.0030
 3931TIP3   OH211798   2.403   3.673   5.116  0.0017 -0.0256  0.3978
 3931TIP3    H111799   2.391   3.728   5.194 -0.9604 -1.2574  1.1563
 3931TIP3    H211800   2.335   3.701   5.056  0.9394  1.1425 -0.1616
 3932TIP3   OH211801   0.461   1.046   5.106  0.6888 -0.2264  0.3392
 3932TIP3    H111802   0.379   1.091   5.086  1.4282  0.5961 -1.0601
 3932TIP3    H211803   0.528   1.097   5.060  2.0142 -0.7856  1.5570
 3933TIP3   OH211804   1.223   2.267   1.490 -0.4994 -0.0076 -0.3077
 3933TIP3    H111805   1.247   2.177   1.510  0.6314  0.5183  0.8459
 3933TIP3    H211806   1.175   2.261   1.407 -0.7736 -1.6909 -0.0741
 3934TIP3   OH211807   0.061   1.186   1.578 -0.0867  0.4725 -0.1995
 3934TIP3    H111808   0.004   1.111   1.588 -1.0462  1.2517  0.3422
 3934TIP3    H211809   0.028   1.232   1.500  0.1716  0.6062 -0.2322
 3935TIP3   OH211810   1.672   3.156   1.928 -0.4310  0.1540 -0.0554
 3935TIP3    H111811   1.737   3.117   1.869 -1.0160  1.1480 -1.4272
 3935TIP3    H211812   1.639   3.232   1.880 -2.6805 -0.3820  0.5197
 3936TIP3   OH211813   5.099   2.708   0.198  0.0128  0.2922  0.2565
 3936TIP3    H111814   5.072   2.637   0.256 -1.0619 -0.5095 -1.1393
 3936TIP3    H211815   5.025   2.718   0.138  0.7937  1.5520 -0.5304
 3937TIP3   OH211816   2.577   0.010   4.174  0.0027  0.1145  0.1378
 3937TIP3    H111817   2.508  -0.042   4.133 -0.0598  0.3488 -0.0595
 3937TIP3    H211818   2.531   0.076   4.225  0.0693  0.6228 -0.4430
 3938TIP3   OH211819   4.243   5.938   1.907 -0.6418  0.2199 -0.1045
 3938TIP3    H111820   4.329   5.967   1.878 -0.6961  0.4579 -0.0328
 3938TIP3    H211821   4.204   5.898   1.829 -0.3888 -0.0718 -0.0795
 3939TIP3   OH211822   0.919   0.571   3.886 -0.0976 -0.1059 -0.3202
 3939TIP3    H111823   0.935   0.652   3.935  0.6852  1.2708 -2.6917
 3939TIP3    H211824   0.859   0.596   3.816 -0.2350 -1.7130 -0.8331
 3940TIP3   OH211825   0.528   3.789   0.555 -0.1825  0.1291 -0.0966
 3940TIP3    H111826   0.579   3.855   0.508 -0.3878  0.6319  0.3703
 3940TIP3    H211827   0.491   3.733   0.486 -0.5037  0.8708 -0.5397
 3941TIP3   OH211828   2.169   0.235   0.638 -0.1185  0.3025 -0.3918
 3941TIP3    H111829   2.160   0.325   0.669  0.3379  0.8801 -1.8491
 3941TIP3    H211830   2.098   0.187   0.681 -1.2317  1.6520 -0.6807
 3942TIP3   OH211831   6.226   5.836   1.498 -0.0709 -0.0156  0.7231
 3942TIP3    H111832   6.281   5.891   1.443 -1.3865 -0.0885 -0.7165
 3942TIP3    H211833   6.163   5.897   1.537 -0.4857 -0.2747  0.4553
 3943TIP3   OH211834   3.518   4.480   3.654  0.1018 -0.1176  0.1251
 3943TIP3    H111835   3.593   4.526   3.617  0.9976 -1.0873  0.6626
 3943TIP3    H211836   3.442   4.518   3.611  0.9019  0.9103 -0.4119
 3944TIP3   OH211837   2.281   2.864   3.194 -0.0760  0.1308 -0.2114
 3944TIP3    H111838   2.201   2.869   3.142 -0.8162  0.7139  0.9374
 3944TIP3    H211839   2.331   2.794   3.153 -0.7760  0.3447 -1.4880
 3945TIP3   OH211840   4.034   2.338   4.318 -0.2540  0.1467 -0.3998
 3945TIP3    H111841   4.014   2.255   4.361  0.3259  0.9325  1.5061
 3945TIP3    H211842   4.020   2.321   4.225 -1.8806 -1.5644  0.0955
 3946TIP3   OH211843   3.156   1.815   1.367 -0.6732 -0.4334  0.7427
 3946TIP3    H111844   3.221   1.874   1.405 -0.6907 -0.4157  0.7457
 3946TIP3    H211845   3.160   1.736   1.421 -0.5315 -0.5004  0.6326
 3947TIP3   OH211846   6.204   5.819   3.988 -0.5398 -0.7581 -0.5876
 3947TIP3    H111847   6.242   5.735   3.965  1.1628 -0.6231  1.5004
 3947TIP3    H211848   6.144   5.800   4.060  2.8291  0.1181  2.7796
 3948TIP3   OH211849   5.269   4.571   1.830  0.2450  0.1634  0.0037
 3948TIP3    H111850   5.214   4.519   1.771  0.0673  1.4962 -1.0648
 3948TIP3    H211851   5.296   4.646   1.777 -1.0355  2.1592  2.0097
 3949TIP3   OH211852   3.436   4.855   0.692  0.0527 -0.1669 -0.1053
 3949TIP3    H111853   3.453   4.761   0.700 -1.6862 -1.0497 -4.2186
 3949TIP3    H211854   3.522   4.894   0.682  0.7203 -1.7902 -1.1607
 3950TIP3   OH211855   2.233   4.948   3.622 -0.2427 -0.6776  0.0660
 3950TIP3    H111856   2.270   4.870   3.663  0.9994  0.0573  0.3987
 3950TIP3    H211857   2.246   4.933   3.528 -0.5427 -1.1155  0.0882
 3951TIP3   OH211858   5.538   3.488   0.910  0.2182  0.1164 -0.5652
 3951TIP3    H111859   5.493   3.464   0.829 -0.4980 -0.3864 -0.0345
 3951TIP3    H211860   5.603   3.418   0.923 -0.2845 -0.2909 -0.2337
 3952TIP3   OH211861   3.183   2.434   2.628  0.8039  0.3294  0.4641
 3952TIP3    H111862   3.123   2.460   2.558  2.5845  1.2011 -0.8362
 3952TIP3    H211863   3.208   2.344   2.605 -0.0504 -0.0658  1.0559
 3953TIP3   OH211864   0.754   2.464   4.749 -0.1561  0.2648  0.2503
 3953TIP3    H111865   0.835   2.464   4.698 -0.0672 -0.1683  0.3876
 3953TIP3    H211866   0.778   2.506   4.832 -0.8716  3.2700 -0.9190
 3954TIP3   OH211867   0.576   1.621   4.942 -0.0083 -0.0232 -0.3064
 3954TIP3    H111868   0.654   1.583   4.902  0.4574  0.0936  0.4826
 3954TIP3    H211869   0.589   1.610   5.036 -0.3118  1.2057 -0.1016
 3955TIP3   OH211870   4.877   0.496   2.514 -0.6408 -0.3266 -0.2815
 3955TIP3    H111871   4.901   0.518   2.604 -1.9293  0.1925 -0.0395
 3955TIP3    H211872   4.954   0.518   2.462 -0.9977  2.5681  0.2654
 3956TIP3   OH211873   0.362   0.941   2.672  0.2090  0.2800 -0.2867
 3956TIP3    H111874   0.381   1.035   2.668  0.5445  0.1609 -2.0543
 3956TIP3    H211875   0.271   0.934   2.642  0.0509  0.0687  0.2301
 3957TIP3   OH211876   0.745   1.590   3.057  0.3026  0.4612 -0.1132
 3957TIP3    H111877   0.708   1.610   2.971  0.1592  1.9769  0.2817
 3957TIP3    H211878   0.833   1.627   3.055  1.7087 -2.5876 -0.8215
 3958TIP3   OH211879   0.873   3.383   2.679  0.3619  0.0373  0.3572
 3958TIP3    H111880   0.850   3.313   2.619  0.8413 -0.1028  0.3272
 3958TIP3    H211881   0.907   3.453   2.623 -0.3288  0.3878  0.3678
 3959TIP3   OH211882   3.128   1.064   4.465 -0.8301 -0.0770 -0.5315
 3959TIP3    H111883   3.037   1.068   4.434 -1.0545  0.1510  0.1412
 3959TIP3    H211884   3.164   1.150   4.444 -0.4892 -0.4857 -1.6380
 3960TIP3   OH211885   0.477   4.266   2.068 -0.0052 -0.2541 -0.4746
 3960TIP3    H111886   0.425   4.189   2.044 -0.5296 -0.0723  0.0610
 3960TIP3    H211887   0.427   4.340   2.034  0.8694 -0.1677 -1.6566
 3961TIP3   OH211888   4.708   0.513   1.116  0.8796 -0.8698  0.2374
 3961TIP3    H111889   4.612   0.512   1.119  0.8627 -1.5616 -0.2421
 3961TIP3    H211890   4.734   0.429   1.155  1.2436 -1.1685 -0.6118
 3962TIP3   OH211891   3.322   4.215   1.742 -0.1003  0.1711 -0.2201
 3962TIP3    H111892   3.345   4.206   1.650  1.8587 -1.7834  0.3792
 3962TIP3    H211893   3.373   4.291   1.772  1.1378 -0.6434 -0.2236
 3963TIP3   OH211894   6.098   1.664   3.908 -0.0800 -0.2543  0.3422
 3963TIP3    H111895   6.141   1.687   3.990  0.6383 -0.2644 -0.0189
 3963TIP3    H211896   6.151   1.593   3.872  0.2545  0.4710 -0.6458
 3964TIP3   OH211897   2.823   2.959   3.407 -0.1882 -0.0592 -0.2747
 3964TIP3    H111898   2.894   2.900   3.432  0.6026  0.2618 -1.6721
 3964TIP3    H211899   2.744   2.917   3.442  0.5891 -0.8028  0.6567
 3965TIP3   OH211900   5.666   2.316   0.052  0.6099  0.3867  0.0976
 3965TIP3    H111901   5.645   2.355  -0.033  1.3186 -1.4737 -0.9893
 3965TIP3    H211902   5.761   2.308   0.052  0.5579 -0.3402  0.7304
 3966TIP3   OH211903   3.545   4.295   0.371 -0.2698 -0.1134  0.1874
 3966TIP3    H111904   3.453   4.269   0.364 -0.1269 -0.7168  0.4680
 3966TIP3    H211905   3.542   4.387   0.398 -0.7875  0.0915 -0.5182
 3967TIP3   OH211906   4.713   3.137   3.906  0.7079  0.1650  0.0792
 3967TIP3    H111907   4.732   3.084   3.828 -0.0829  0.8059 -0.5633
 3967TIP3    H211908   4.795   3.182   3.925  0.9437 -0.0958 -0.3035
 3968TIP3   OH211909   4.758   3.997   3.729  0.0456  0.7684  0.0788
 3968TIP3    H111910   4.749   3.908   3.693  3.2146  0.1784  0.4637
 3968TIP3    H211911   4.808   4.044   3.662 -1.2738  2.2059  0.0567
 3969TIP3   OH211912   0.487   4.136   1.195 -0.0788  0.4957 -0.4390
 3969TIP3    H111913   0.562   4.176   1.239  0.8746 -0.0649 -1.5072
 3969TIP3    H211914   0.427   4.209   1.179 -1.6516  0.4493  3.8627
 3970TIP3   OH211915   2.315   2.902   1.557 -0.3789  0.1035 -0.4425
 3970TIP3    H111916   2.220   2.912   1.554 -0.3606  0.2356 -0.6095
 3970TIP3    H211917   2.340   2.882   1.467 -0.1100  1.4078 -0.6750
 3971TIP3   OH211918   4.269   4.315   2.075  0.6322 -0.1152 -0.0796
 3971TIP3    H111919   4.241   4.384   2.136 -0.2930 -0.6034  0.0638
 3971TIP3    H211920   4.187   4.281   2.038  1.1484 -0.1753 -1.2246
 3972TIP3   OH211921   4.854   1.880   4.032  0.0543  0.0500 -0.3857
 3972TIP3    H111922   4.905   1.898   3.953  0.3969  3.9230  0.5046
 3972TIP3    H211923   4.899   1.930   4.100 -2.6181  0.2999  1.3168
 3973TIP3   OH211924   2.742   1.836   4.442 -0.2340 -0.1195  0.3032
 3973TIP3    H111925   2.820   1.890   4.429 -0.2078 -0.5219 -1.3840
 3973TIP3    H211926   2.681   1.866   4.376 -1.5562  0.1878  1.6075
 3974TIP3   OH211927   1.383   4.228   1.419 -0.1783 -0.0350  0.4285
 3974TIP3    H111928   1.410   4.287   1.489  0.4741  0.5798 -0.3270
 3974TIP3    H211929   1.352   4.150   1.465  0.2058  0.3677  1.4030
 3975TIP3   OH211930   3.277   5.362   3.688 -0.0255  0.2680 -0.3039
 3975TIP3    H111931   3.297   5.310   3.610 -1.2522  0.0830 -0.5127
 3975TIP3    H211932   3.214   5.428   3.658  0.8610  1.3456  0.1469
 3976TIP3   OH211933   5.695   3.860   2.965 -0.3295  0.8033  0.6252
 3976TIP3    H111934   5.775   3.893   3.006  0.2976 -0.6643  0.6149
 3976TIP3    H211935   5.663   3.793   3.026 -1.5977  1.4084  0.6584
 3977TIP3   OH211936   0.267   1.894   0.257  0.4190 -0.1319 -0.4758
 3977TIP3    H111937   0.188   1.843   0.276 -0.2299  0.8681 -0.4449
 3977TIP3    H211938   0.311   1.904   0.341  1.0013 -1.3344 -0.6080
 3978TIP3   OH211939   6.062   1.616   2.378 -0.2291 -0.6717 -0.3480
 3978TIP3    H111940   5.980   1.568   2.366 -2.7276  2.9981  0.3581
 3978TIP3    H211941   6.100   1.620   2.290 -0.6240 -2.5969 -0.6662
 3979TIP3   OH211942   1.377   0.024   4.800  0.1182 -0.2929 -0.2992
 3979TIP3    H111943   1.285   0.027   4.774  0.2472  1.1747 -0.6924
 3979TIP3    H211944   1.415   0.101   4.759  1.1544  0.0439  1.2309
 3980TIP3   OH211945   2.698   2.590   1.343 -0.0354  0.0278  0.0500
 3980TIP3    H111946   2.760   2.555   1.279  1.7629  2.1868  0.4650
 3980TIP3    H211947   2.643   2.516   1.366  0.7249 -1.3706 -2.2753
 3981TIP3   OH211948   0.172   1.477   1.387  0.7328 -0.1267 -0.2076
 3981TIP3    H111949   0.076   1.470   1.385  0.6306  0.3196  1.6160
 3981TIP3    H211950   0.202   1.388   1.369 -0.0141 -0.2648 -0.8380
 3982TIP3   OH211951   4.558   2.914   0.952 -0.2517  0.4873  0.2257
 3982TIP3    H111952   4.468   2.909   0.920  0.0255  1.3444 -0.7406
 3982TIP3    H211953   4.603   2.968   0.888  0.7728  0.7176  1.1131
 3983TIP3   OH211954   3.699   5.572   4.333  0.1069  0.0821  0.5234
 3983TIP3    H111955   3.616   5.525   4.345 -0.5872  1.3695  0.9770
 3983TIP3    H211956   3.680   5.637   4.266  1.3402 -0.9115 -0.8528
 3984TIP3   OH211957   1.686   1.551   0.768 -0.4081 -0.0686 -0.0892
 3984TIP3    H111958   1.614   1.490   0.785 -0.3122  0.1134  1.0871
 3984TIP3    H211959   1.705   1.590   0.854 -0.9831  2.2245 -0.9286
 3985TIP3   OH211960   4.680   0.655   1.536 -0.0597 -0.1678 -0.3263
 3985TIP3    H111961   4.691   0.725   1.601  1.9790  0.3829 -1.1863
 3985TIP3    H211962   4.639   0.583   1.584  2.1698 -0.0999  1.8171
 3986TIP3   OH211963   3.907   2.276   5.016  0.6289 -0.1217 -0.0401
 3986TIP3    H111964   3.836   2.328   4.976  0.6746  0.2314  0.3374
 3986TIP3    H211965   3.976   2.340   5.034  0.6734 -0.3093  0.4553
 3987TIP3   OH211966   5.872   1.533   5.051  0.0034  0.6957 -0.3492
 3987TIP3    H111967   5.913   1.530   5.137  0.4422 -0.3475 -0.5727
 3987TIP3    H211968   5.799   1.471   5.057  0.3648  0.2082 -0.8813
 3988TIP3   OH211969   3.710   3.077   4.450 -0.0415 -0.3409 -0.3552
 3988TIP3    H111970   3.760   3.096   4.371 -1.4439 -0.3548 -1.2782
 3988TIP3    H211971   3.628   3.041   4.419 -0.3417 -1.0614  1.1450
 3989TIP3   OH211972   2.028   0.301   0.415  0.1615  0.2123 -0.0088
 3989TIP3    H111973   2.065   0.276   0.330 -0.0145 -0.2711  0.0528
 3989TIP3    H211974   2.088   0.262   0.479  0.2942  0.5771  0.0890
 3990TIP3   OH211975   1.615   3.230   3.150 -0.4699  0.1599  0.3299
 3990TIP3    H111976   1.664   3.307   3.120 -0.1281 -0.7648 -1.5955
 3990TIP3    H211977   1.544   3.266   3.203  0.3884  1.7184  0.4842
 3991TIP3   OH211978   1.421   3.209   0.687  0.0986  0.1032  0.1447
 3991TIP3    H111979   1.507   3.250   0.697  0.9913 -1.4548 -0.7823
 3991TIP3    H211980   1.440   3.122   0.652 -1.8440 -0.4108  0.2776
 3992TIP3   OH211981   1.678   1.525   2.683  0.6541 -0.2737  0.5157
 3992TIP3    H111982   1.596   1.510   2.637  0.8419 -0.7553  0.3302
 3992TIP3    H211983   1.746   1.504   2.619  0.9535  1.7634  0.1189
 3993TIP3   OH211984   0.887   3.930   4.025  0.4570 -0.2368 -0.3234
 3993TIP3    H111985   0.838   3.889   4.097 -0.0732  2.7574  1.1763
 3993TIP3    H211986   0.833   3.915   3.948  0.3753 -2.3880  0.0829
 3994TIP3   OH211987   1.592   2.043   0.281 -0.1137 -0.4094  0.2910
 3994TIP3    H111988   1.558   1.970   0.331  0.9793 -0.6329  0.7476
 3994TIP3    H211989   1.683   2.019   0.262 -0.2382  0.0803 -1.0144
 3995TIP3   OH211990   5.231   3.024   3.811  0.1196  0.1780  0.2516
 3995TIP3    H111991   5.138   3.006   3.823  0.3218 -0.1491  1.5056
 3995TIP3    H211992   5.247   3.104   3.862  0.6931 -0.2552  0.7614
 3996TIP3   OH211993   2.998   5.600   2.992 -0.0328 -0.4822 -0.0607
 3996TIP3    H111994   2.975   5.577   2.902 -0.6924  0.2981 -0.1061
 3996TIP3    H211995   2.937   5.670   3.015  1.5797  0.8724  0.2422
 3997TIP3   OH211996   4.064   3.630   1.929 -0.6618  0.1658  0.0358
 3997TIP3    H111997   4.118   3.552   1.936  1.0752  1.4216  1.8389
 3997TIP3    H211998   4.052   3.643   1.834  1.1845 -0.8597 -0.3737
 3998TIP3   OH211999   6.114   1.527   3.237  0.3762 -0.2555 -0.3347
 3998TIP3    H112000   6.090   1.437   3.214 -0.6449 -0.3310  0.8577
 3998TIP3    H212001   6.096   1.578   3.158  0.3786 -1.0044 -0.8295
 3999TIP3   OH212002   2.105   2.973   0.746 -0.2036  0.0499  0.1205
 3999TIP3    H112003   2.157   3.009   0.818 -1.5448 -0.6566  1.5156
 3999TIP3    H212004   2.067   2.893   0.782 -0.9324 -0.3193 -1.3918
 4000TIP3   OH212005   1.701   3.068   4.523 -0.4787  0.6385 -0.1653
 4000TIP3    H112006   1.782   3.033   4.486 -0.2533  0.6952  0.2643
 4000TIP3    H212007   1.659   3.113   4.450  1.0478  2.6876  0.1286
 4001TIP3   OH212008   2.138   5.133   0.143  0.4894 -0.2581 -0.2656
 4001TIP3    H112009   2.144   5.115   0.049  1.1805 -1.7371  0.0300
 4001TIP3    H212010   2.171   5.222   0.153 -0.3101  0.1925 -1.5028
 4002TIP3   OH212011   5.088   4.863   0.586  0.0640 -0.2983  0.1833
 4002TIP3    H112012   5.125   4.935   0.536 -0.2942 -0.3903 -0.2142
 4002TIP3    H212013   4.993   4.874   0.578  0.0019 -0.3462  0.7927
 4003TIP3   OH212014   2.051   0.627   0.355  0.3687  0.1061  0.1753
 4003TIP3    H112015   2.006   0.625   0.270 -1.0383 -1.3399  0.8957
 4003TIP3    H212016   2.068   0.535   0.375  1.6900  0.4941  0.9729
 4004TIP3   OH212017   1.639   5.117   3.829 -0.2744 -0.1738  0.0618
 4004TIP3    H112018   1.593   5.032   3.831 -1.3111  0.3690  0.3987
 4004TIP3    H212019   1.671   5.128   3.918 -0.4483 -0.0479  0.1081
 4005TIP3   OH212020   2.712   3.261   0.601  0.9712 -0.0335  0.1783
 4005TIP3    H112021   2.677   3.205   0.670  0.6156 -0.1991 -0.1315
 4005TIP3    H212022   2.640   3.321   0.581  0.9366 -0.2373 -0.3175
 4006TIP3   OH212023   3.563   0.814   4.621 -0.3126 -0.2183  0.2304
 4006TIP3    H112024   3.470   0.809   4.595 -0.5083  0.3925  0.7997
 4006TIP3    H212025   3.608   0.759   4.556 -1.0359 -0.3078 -0.2161
 4007TIP3   OH212026   0.996   2.654   5.124 -0.3546 -0.1912 -0.5226
 4007TIP3    H112027   1.066   2.686   5.066 -0.5295  1.5728  0.1740
 4007TIP3    H212028   1.033   2.664   5.212 -0.8023 -1.0298 -0.2367
 4008TIP3   OH212029   1.307   2.324   2.932  0.2236  0.4199  0.3139
 4008TIP3    H112030   1.342   2.387   2.869  0.4183 -0.7842 -0.8063
 4008TIP3    H212031   1.217   2.352   2.947 -0.0010  0.4032 -0.9294
 4009TIP3   OH212032   4.151   1.193   4.601  0.5726  0.5868 -0.1768
 4009TIP3    H112033   4.212   1.228   4.536  1.3657  0.1757  0.3371
 4009TIP3    H212034   4.207   1.157   4.670 -0.2460 -0.0213  0.1849
 4010TIP3   OH212035   3.924   3.713   1.240  0.3656  0.3961  0.0915
 4010TIP3    H112036   3.950   3.631   1.198  1.9722  0.6964  0.4489
 4010TIP3    H212037   3.850   3.689   1.296 -0.5646 -0.3802 -1.3962
 4011TIP3   OH212038   4.932   5.452   4.141 -0.7306  0.2184  1.3083
 4011TIP3    H112039   4.924   5.415   4.053 -0.7909 -0.6824  1.6849
 4011TIP3    H212040   4.955   5.378   4.197  0.3095  0.9545  1.9041
 4012TIP3   OH212041   2.814   0.823   3.607  0.1648  0.4404 -0.7560
 4012TIP3    H112042   2.735   0.878   3.606 -1.8929 -2.0215  2.8658
 4012TIP3    H212043   2.781   0.734   3.601  2.7779 -0.6605 -0.0310
 4013TIP3   OH212044   1.203   2.449   1.705  0.0562 -0.1347 -0.4790
 4013TIP3    H112045   1.204   2.404   1.620 -1.9051 -0.2846 -0.4661
 4013TIP3    H212046   1.251   2.530   1.690 -1.4051  0.4955 -2.1607
 4014TIP3   OH212047   4.556   4.650   2.894 -0.2248 -0.4095 -0.1814
 4014TIP3    H112048   4.591   4.678   2.978  0.4159  1.8058 -1.1106
 4014TIP3    H212049   4.468   4.619   2.914 -0.9852  2.2579  1.0670
 4015TIP3   OH212050   3.982   0.141   1.923 -0.5847 -0.6761 -0.3576
 4015TIP3    H112051   4.070   0.180   1.928 -1.1836  1.0684 -2.0786
 4015TIP3    H212052   3.979   0.080   1.996  2.3234 -1.3537 -0.6767
 4016TIP3   OH212053   4.347   3.736   4.108  0.1707  0.0790  0.0956
 4016TIP3    H112054   4.282   3.792   4.065  0.3886 -0.0398 -0.3984
 4016TIP3    H212055   4.331   3.649   4.071 -2.0180 -0.8503  2.8668
 4017TIP3   OH212056   5.561   4.598   2.105  0.1397 -0.3807 -0.2754
 4017TIP3    H112057   5.601   4.522   2.063 -0.4731 -0.4930 -0.6624
 4017TIP3    H212058   5.547   4.571   2.195  0.4320 -0.5291 -0.2721
 4018TIP3   OH212059   2.773   3.592   3.430  0.3786 -0.5219 -0.2687
 4018TIP3    H112060   2.773   3.663   3.365  2.4741 -0.1813  0.0089
 4018TIP3    H212061   2.791   3.513   3.378 -0.3726 -0.6249 -0.3820
 4019TIP3   OH212062   1.795   1.019   3.868  0.2725 -0.3172 -0.5063
 4019TIP3    H112063   1.755   1.031   3.783  0.8374  1.1894 -0.5955
 4019TIP3    H212064   1.868   0.958   3.852 -0.8924 -1.7111 -0.6597
 4020TIP3   OH212065   3.220   4.694   0.552 -0.0109 -0.0285  0.0240
 4020TIP3    H112066   3.216   4.758   0.623 -1.5666  0.6790 -0.6502
 4020TIP3    H212067   3.267   4.739   0.482 -0.5632  0.1694 -0.2281
 4021TIP3   OH212068   0.377   0.738   4.493 -0.0932 -0.1855  0.3415
 4021TIP3    H112069   0.407   0.664   4.546  0.5258 -0.4122 -0.3066
 4021TIP3    H212070   0.307   0.777   4.545 -1.3116 -1.9730  0.1462
 4022TIP3   OH212071   5.097   1.090   4.426  0.2313 -0.0036 -0.3793
 4022TIP3    H112072   5.190   1.077   4.443  0.3440 -0.6019 -1.3813
 4022TIP3    H212073   5.065   1.003   4.401 -1.2015 -0.4402  2.4770
 4023TIP3   OH212074   0.580   0.514   3.782 -0.2902  0.2118 -0.3579
 4023TIP3    H112075   0.487   0.494   3.772 -0.3711 -0.6825  1.6989
 4023TIP3    H212076   0.596   0.506   3.876  1.8477  0.4632 -0.6585
 4024TIP3   OH212077   5.342   5.506   0.082 -0.0642  0.0738 -0.4835
 4024TIP3    H112078   5.360   5.487   0.174  0.1952  1.7457 -0.1561
 4024TIP3    H212079   5.428   5.501   0.039 -0.3312 -1.8323 -0.9050
 4025TIP3   OH212080   3.750   5.083   2.636 -0.1818 -0.1783  0.2233
 4025TIP3    H112081   3.662   5.064   2.604  0.1846  0.8200 -1.5370
 4025TIP3    H212082   3.755   5.040   2.721 -1.6391 -2.0757 -0.5736
 4026TIP3   OH212083   1.314   2.864   2.229  0.5162 -0.1661  0.2648
 4026TIP3    H112084   1.313   2.771   2.205  0.0550  0.0361 -0.5305
 4026TIP3    H212085   1.384   2.901   2.175  0.5408 -0.0034  0.4084
 4027TIP3   OH212086   0.661   5.700   5.010  0.5106  0.2465  0.1493
 4027TIP3    H112087   0.661   5.681   5.104  2.7383  0.4564  0.2368
 4027TIP3    H212088   0.752   5.717   4.989  0.3221 -1.3957 -2.3891
 4028TIP3   OH212089   0.839   5.626   1.501  0.1639  0.4398  0.6804
 4028TIP3    H112090   0.788   5.678   1.439 -2.2335 -2.0590  0.4104
 4028TIP3    H212091   0.822   5.666   1.586 -1.8756  0.0230  0.5175
 4029TIP3   OH212092   3.613   4.494   4.069 -0.2045  0.2804  0.2481
 4029TIP3    H112093   3.660   4.449   3.999 -1.4232 -1.3138  0.4017
 4029TIP3    H212094   3.681   4.540   4.118  0.9981 -0.6845 -0.4566
 4030TIP3   OH212095   3.169   3.912   4.848 -0.0104  0.2636 -0.7647
 4030TIP3    H112096   3.173   3.930   4.942 -1.2750 -0.1712 -0.6063
 4030TIP3    H212097   3.127   3.826   4.842 -0.5174  0.5719 -1.7575
 4031TIP3   OH212098   5.313   2.044   3.138 -0.1993  0.0536 -0.6653
 4031TIP3    H112099   5.235   2.090   3.106  0.8143  1.3696 -1.3307
 4031TIP3    H212100   5.291   2.021   3.228 -1.2883  0.5957 -0.7741
 4032TIP3   OH212101   0.956   5.080   2.976 -0.2700  0.4607 -0.3548
 4032TIP3    H112102   0.936   5.123   3.059 -0.5138 -0.4434  0.0737
 4032TIP3    H212103   1.051   5.079   2.972 -0.2142 -0.5914  0.5419
 4033TIP3   OH212104   2.085   3.786   2.344  0.1460 -0.0376 -0.0306
 4033TIP3    H112105   2.046   3.704   2.375 -2.7016  1.9067  2.0589
 4033TIP3    H212106   2.146   3.811   2.413 -1.0544  0.8721  0.7538
 4034TIP3   OH212107   4.105   0.112   2.724 -0.0685 -0.5300 -0.8200
 4034TIP3    H112108   4.039   0.049   2.752 -2.0952  0.3543 -3.2633
 4034TIP3    H212109   4.060   0.197   2.727  2.0632  0.6398  0.7142
 4035TIP3   OH212110   1.566   2.630   0.970 -0.4701 -0.1044 -0.2959
 4035TIP3    H112111   1.506   2.605   0.900 -1.7631 -3.0487  1.6542
 4035TIP3    H212112   1.647   2.584   0.949  0.1492  1.3634 -1.2909
 4036TIP3   OH212113   5.075   5.851   2.114  0.0652 -0.3070  0.5989
 4036TIP3    H112114   5.073   5.764   2.074  0.3967  0.6268 -1.6129
 4036TIP3    H212115   4.990   5.860   2.157 -0.4042 -1.3040 -0.0873
 4037TIP3   OH212116   0.175   2.027   4.126 -0.6175 -0.5540  0.3208
 4037TIP3    H112117   0.089   1.995   4.100 -1.1087  0.3525  0.7733
 4037TIP3    H212118   0.167   2.046   4.219  0.4687 -1.6935  0.6681
 4038TIP3   OH212119   5.362   5.668   2.671 -0.6117 -0.1073 -0.2886
 4038TIP3    H112120   5.397   5.757   2.662 -0.9950  0.2150  1.1762
 4038TIP3    H212121   5.296   5.674   2.739 -0.2613 -1.6314  0.2376
 4039TIP3   OH212122   5.210   1.717   3.930  0.3956  0.7442 -0.2282
 4039TIP3    H112123   5.195   1.641   3.986 -0.1716  0.8700 -0.1953
 4039TIP3    H212124   5.233   1.680   3.845  0.7445  0.5450 -0.0498
 4040TIP3   OH212125   2.917   0.774   4.636 -0.5764 -0.1921  0.0880
 4040TIP3    H112126   2.935   0.861   4.671 -0.6433 -0.7346  1.5214
 4040TIP3    H212127   2.997   0.751   4.588 -0.6762  0.7698 -0.5607
 4041TIP3   OH212128   6.287   0.210   3.214  0.4992  0.2247  0.3492
 4041TIP3    H112129   6.333   0.138   3.172  0.6236 -1.3480  2.9642
 4041TIP3    H212130   6.212   0.227   3.157  0.0846 -2.4609 -0.0470
 4042TIP3   OH212131   3.241   4.805   1.707  0.2629 -0.5404 -0.0653
 4042TIP3    H112132   3.257   4.882   1.652  0.4416  0.1423  0.9060
 4042TIP3    H212133   3.160   4.767   1.672 -1.3100  1.5973  1.0126
 4043TIP3   OH212134   5.168   5.720   1.638  0.4641 -0.4920  0.1520
 4043TIP3    H112135   5.165   5.624   1.643  0.6945 -0.4481  1.9683
 4043TIP3    H212136   5.258   5.742   1.661  0.1713  0.1765  0.7052
 4044TIP3   OH212137   6.245   1.963  -0.002 -0.0072 -0.0637  0.1581
 4044TIP3    H112138   6.158   1.955  -0.040  0.2094  0.1074 -0.3950
 4044TIP3    H212139   6.232   2.008   0.081 -0.3208  0.9868 -0.4463
 4045TIP3   OH212140   0.632   1.841   3.539 -0.3602 -0.2671  0.2610
 4045TIP3    H112141   0.650   1.932   3.517  1.2226 -1.1461 -2.7183
 4045TIP3    H212142   0.540   1.829   3.516 -0.4811  0.4869  0.3294
 4046TIP3   OH212143   2.771   1.318   0.063 -0.4934 -0.1630  0.0371
 4046TIP3    H112144   2.842   1.362   0.111  0.1106  0.4493 -1.3488
 4046TIP3    H212145   2.721   1.390   0.025  0.1764 -0.6155 -1.8039
 4047TIP3   OH212146   4.280   1.141   0.547 -0.4096  0.4938 -0.1044
 4047TIP3    H112147   4.353   1.148   0.608  0.2024  1.7848 -0.9208
 4047TIP3    H212148   4.268   1.230   0.514  0.2560 -0.3649 -2.9505
 4048TIP3   OH212149   6.140   4.321   1.375 -0.1012  0.0210  0.3675
 4048TIP3    H112150   6.155   4.391   1.438 -1.0171  1.0088 -0.4583
 4048TIP3    H212151   6.073   4.266   1.416  1.1735 -0.8471  1.3537
 4049TIP3   OH212152   3.681   4.153   4.137  0.6218  0.1036 -0.2206
 4049TIP3    H112153   3.597   4.110   4.120 -0.5731  2.4102 -0.5967
 4049TIP3    H212154   3.660   4.223   4.199  2.1837  0.9460 -0.5831
 4050TIP3   OH212155   6.293   1.920   3.350  0.0914 -0.3778 -0.5687
 4050TIP3    H112156   6.294   1.979   3.425 -1.8067 -1.5026  0.4401
 4050TIP3    H212157   6.383   1.920   3.318  0.8774  0.4581  1.4582
 4051TIP3   OH212158   3.203   4.840   0.091 -0.3173  0.1699  0.3502
 4051TIP3    H112159   3.266   4.911   0.075  1.5653 -1.9874 -3.2337
 4051TIP3    H212160   3.121   4.873   0.054  0.5846  0.4823 -1.5018
 4052TIP3   OH212161   3.005   1.223   2.117  0.4667  0.5742 -0.0333
 4052TIP3    H112162   2.951   1.188   2.188  1.3004  0.5775  0.6140
 4052TIP3    H212163   3.034   1.146   2.069 -0.0767  0.5703 -0.3675
 4053TIP3   OH212164   6.277   2.544   1.760  0.7261 -0.7214 -0.0503
 4053TIP3    H112165   6.353   2.504   1.801  2.2160 -0.2667 -2.1654
 4053TIP3    H212166   6.220   2.470   1.737  1.4138 -1.2469 -0.0970
 4054TIP3   OH212167   5.256   5.376   1.097 -0.1519 -0.5162  0.0830
 4054TIP3    H112168   5.245   5.452   1.041  0.0770 -0.9643 -0.5767
 4054TIP3    H212169   5.351   5.372   1.113 -0.2261 -0.3222  0.6063
 4055TIP3   OH212170   1.910   1.810   4.665 -0.5002  0.1622  0.5136
 4055TIP3    H112171   1.943   1.805   4.755 -0.8543 -3.9172  0.5924
 4055TIP3    H212172   1.952   1.737   4.620 -2.0639  0.7168 -2.0228
 4056TIP3   OH212173   3.811   5.879   0.045 -0.3060 -0.2694 -0.2756
 4056TIP3    H112174   3.844   5.805   0.095 -0.8556 -0.4291 -0.1350
 4056TIP3    H212175   3.717   5.881   0.065 -0.5506 -0.3773 -1.3276
 4057TIP3   OH212176   6.032   2.300   4.122 -0.2692  0.1362  0.4467
 4057TIP3    H112177   6.102   2.284   4.186  1.7201  0.4039 -1.5239
 4057TIP3    H212178   6.076   2.292   4.037 -2.5550  0.8925 -0.8826
 4058TIP3   OH212179   3.130   5.348   5.157  0.2988 -0.1499 -0.4659
 4058TIP3    H112180   3.144   5.273   5.098  0.5117 -1.2692  0.9497
 4058TIP3    H212181   3.182   5.327   5.234  0.1496  1.3603  0.0699
 4059TIP3   OH212182   0.604   3.832   1.430 -1.0088  0.1173  0.7102
 4059TIP3    H112183   0.673   3.880   1.385 -2.6007  1.3263 -0.5845
 4059TIP3    H212184   0.639   3.814   1.517  0.0107  2.9328  0.9743
 4060TIP3   OH212185   1.556   5.657   4.712  0.2181 -0.5588 -0.0821
 4060TIP3    H112186   1.476   5.607   4.729  0.3716 -0.5642  0.6229
 4060TIP3    H212187   1.621   5.619   4.771  0.5357 -0.0404 -0.1004
 4061TIP3   OH212188   5.393   0.976   0.093  0.3612 -0.4235 -0.2476
 4061TIP3    H112189   5.448   0.960   0.016 -0.0593  0.4450 -0.7378
 4061TIP3    H212190   5.420   0.908   0.155 -0.0025 -1.7964 -1.5275
 4062TIP3   OH212191   3.298   3.903   2.878  0.2608 -0.6842  0.1537
 4062TIP3    H112192   3.387   3.905   2.843  0.5107 -3.6275  0.3352
 4062TIP3    H212193   3.243   3.884   2.802  0.0239 -0.6537  0.3179
 4063TIP3   OH212194   0.405   0.439   1.190 -0.5861  0.1652  0.0164
 4063TIP3    H112195   0.491   0.481   1.197 -1.1651  1.1178  2.1964
 4063TIP3    H212196   0.392   0.428   1.096  1.2076  1.4878 -0.4501
 4064TIP3   OH212197   4.130   5.226   1.058  0.0838 -0.2860 -0.3683
 4064TIP3    H112198   4.222   5.201   1.062  0.2860  0.5935  1.3363
 4064TIP3    H212199   4.130   5.320   1.078 -1.1856 -0.2815 -0.2980
 4065TIP3   OH212200   1.991   3.519   2.697  0.0439 -0.4169 -0.3194
 4065TIP3    H112201   1.983   3.586   2.629  0.1567  0.7414  0.7712
 4065TIP3    H212202   2.065   3.548   2.750 -0.1729 -1.1865  0.4145
 4066TIP3   OH212203   4.271   2.433   4.944  0.2515  0.6218 -0.4963
 4066TIP3    H112204   4.193   2.481   4.973 -0.2397 -0.1401 -0.5434
 4066TIP3    H212205   4.265   2.349   4.989  1.6265  0.9606  0.3556
 4067TIP3   OH212206   3.565   1.095   4.535 -0.9437 -0.6551  0.5999
 4067TIP3    H112207   3.546   1.007   4.568  0.4228 -0.8138  1.0522
 4067TIP3    H212208   3.641   1.124   4.586 -0.0458 -0.0731 -0.9803
 4068TIP3   OH212209   4.143   0.327   4.642 -0.3058  0.4672  0.6317
 4068TIP3    H112210   4.233   0.299   4.626 -0.5172  0.0691  0.1143
 4068TIP3    H212211   4.152   0.407   4.694  0.3175 -0.6164  2.2985
 4069TIP3   OH212212   2.224   3.800   4.861  0.3558  1.0294 -0.6228
 4069TIP3    H112213   2.185   3.730   4.810 -0.7750  0.5987  0.7653
 4069TIP3    H212214   2.152   3.834   4.914  1.4925  1.3488  0.7750
 4070TIP3   OH212215   1.715   0.751   1.215 -0.0013 -0.6893 -0.3687
 4070TIP3    H112216   1.778   0.699   1.264 -1.4035  1.1392  3.8935
 4070TIP3    H212217   1.629   0.716   1.240 -0.8389  0.2118 -1.7927
 4071TIP3   OH212218   4.963   4.502   1.472 -0.1588  0.1557  0.1584
 4071TIP3    H112219   4.975   4.412   1.443 -1.4441  0.3951 -1.2687
 4071TIP3    H212220   4.970   4.499   1.567 -1.2319 -1.6315  0.2091
 4072TIP3   OH212221   1.187   1.899   1.536  0.5289 -0.0101 -0.3981
 4072TIP3    H112222   1.168   1.811   1.568  2.2666  0.0190  0.9140
 4072TIP3    H212223   1.102   1.941   1.527 -0.3002 -1.6616 -0.6023
 4073TIP3   OH212224   2.052   4.271   4.431 -0.2461  0.0671  0.2834
 4073TIP3    H112225   1.963   4.302   4.449 -0.8292 -2.2387  1.7627
 4073TIP3    H212226   2.047   4.229   4.346 -0.0372  1.6842 -0.5710
 4074TIP3   OH212227   1.797   2.690   0.205 -0.0191 -0.0703 -0.0055
 4074TIP3    H112228   1.858   2.702   0.278  0.1343 -0.6468 -0.0364
 4074TIP3    H212229   1.853   2.687   0.127 -0.2422  1.4809 -0.2736
 4075TIP3   OH212230   5.573   3.775   1.049 -0.3238 -0.2293 -0.5406
 4075TIP3    H112231   5.541   3.865   1.034 -1.9470 -0.8015 -0.7619
 4075TIP3    H212232   5.662   3.786   1.080 -1.2791  1.6218  1.9049
 4076TIP3   OH212233   0.238   1.889   1.223 -0.0228 -0.5941  0.3796
 4076TIP3    H112234   0.155   1.876   1.268  0.6002 -0.3982  1.6285
 4076TIP3    H212235   0.261   1.980   1.240 -0.1251 -0.2986 -0.9741
 4077TIP3   OH212236   5.837   3.904   4.315  0.0859 -0.2353  0.5989
 4077TIP3    H112237   5.802   3.876   4.400  0.9258 -2.4263  0.3033
 4077TIP3    H212238   5.778   3.864   4.251 -0.2866  1.0444  0.1212
 4078TIP3   OH212239   3.140   0.765   0.847  0.3201  0.0132 -0.6464
 4078TIP3    H112240   3.181   0.746   0.763  1.7136  0.0430  0.0089
 4078TIP3    H212241   3.113   0.856   0.841 -1.8237 -0.6350 -1.9375
 4079TIP3   OH212242   0.929   1.729   1.445 -0.2303  0.5477 -1.2108
 4079TIP3    H112243   0.863   1.660   1.439 -1.0555  1.1183  0.5699
 4079TIP3    H212244   1.013   1.683   1.440 -0.7609 -0.6358  0.1306
 4080TIP3   OH212245   2.622   1.424   3.037  0.0736  0.2392  0.1323
 4080TIP3    H112246   2.683   1.438   2.964 -0.2224  0.2017 -0.1271
 4080TIP3    H212247   2.646   1.339   3.073 -0.7141 -0.4207 -0.8571
 4081TIP3   OH212248   6.227   2.604   5.037 -0.9206 -0.2471 -0.1468
 4081TIP3    H112249   6.241   2.518   5.078  0.1869  0.5962  1.3752
 4081TIP3    H212250   6.134   2.607   5.018 -1.3634 -1.0343  1.6420
 4082TIP3   OH212251   1.763   4.180   3.920 -0.4695 -0.2107  0.3335
 4082TIP3    H112252   1.852   4.201   3.890 -0.7857 -0.7769 -1.0847
 4082TIP3    H212253   1.713   4.261   3.905 -0.6174 -0.4804 -0.6925
 4083TIP3   OH212254   0.260   3.341   4.895 -0.2365 -0.5992 -0.7013
 4083TIP3    H112255   0.309   3.420   4.918  1.0592 -1.2227 -1.2394
 4083TIP3    H212256   0.258   3.341   4.800 -0.6427 -0.9832 -0.6953
 4084TIP3   OH212257   1.849   2.414   1.687 -0.9232  0.5691 -0.0708
 4084TIP3    H112258   1.893   2.329   1.692 -1.7301  0.0712 -1.0613
 4084TIP3    H212259   1.916   2.474   1.652 -0.9753 -0.1580 -1.4915
 4085TIP3   OH212260   4.843   0.347   2.289 -0.1785  0.3547  0.1664
 4085TIP3    H112261   4.848   0.381   2.379 -1.0544  0.6456  0.1092
 4085TIP3    H212262   4.919   0.385   2.245  0.1553  0.3551  0.7351
 4086TIP3   OH212263   0.248   1.762   1.731  0.0732 -0.4127  0.0474
 4086TIP3    H112264   0.262   1.781   1.823  2.1183 -1.5978  0.0479
 4086TIP3    H212265   0.276   1.841   1.685  0.7574 -0.4529  0.3801
 4087TIP3   OH212266   4.667   1.924   4.246 -0.5104  0.5984 -0.0215
 4087TIP3    H112267   4.682   1.853   4.184 -1.9958  0.6372 -0.4581
 4087TIP3    H212268   4.582   1.906   4.284 -1.0717  2.2843 -0.3607
 4088TIP3   OH212269   5.414   5.613   3.116 -0.1319 -0.5386  0.2878
 4088TIP3    H112270   5.352   5.666   3.166  0.3596 -1.1780  1.6295
 4088TIP3    H212271   5.500   5.652   3.134 -0.1315  0.6036 -1.8964
 4089TIP3   OH212272   1.445   1.490   2.513 -0.0828 -0.1127  0.0729
 4089TIP3    H112273   1.358   1.451   2.509 -0.6366  1.1767 -1.7359
 4089TIP3    H212274   1.429   1.585   2.520  1.1655  0.1469 -0.2862
 4090TIP3   OH212275   0.141   4.752   1.898 -0.0578  0.5889  0.3849
 4090TIP3    H112276   0.170   4.698   1.971  0.3628  1.4058  0.8216
 4090TIP3    H212277   0.146   4.693   1.822 -0.6630 -0.3162  1.0188
 4091TIP3   OH212278   1.565   2.312   1.305  0.3053  0.3899 -0.3989
 4091TIP3    H112279   1.641   2.267   1.267 -0.5445 -0.6329 -0.9089
 4091TIP3    H212280   1.507   2.328   1.231  0.9922  3.2909 -0.4442
 4092TIP3   OH212281   4.396   0.209   4.667  0.0301 -0.4554 -0.8462
 4092TIP3    H112282   4.403   0.292   4.715 -1.4820 -2.0135  2.3726
 4092TIP3    H212283   4.460   0.152   4.709  0.2863 -1.2535 -2.2846
 4093TIP3   OH212284   6.266   0.192   2.078 -0.3815  0.6066  0.1640
 4093TIP3    H112285   6.275   0.125   2.010 -1.3363  0.9539 -0.3202
 4093TIP3    H212286   6.348   0.240   2.075  0.3672 -0.5910  0.5916
 4094TIP3   OH212287   3.464   4.673   4.835 -0.6158  0.4283  0.3628
 4094TIP3    H112288   3.538   4.659   4.895 -0.8664  0.2631  0.6351
 4094TIP3    H212289   3.494   4.638   4.752 -0.0750  1.0975  0.2575
 4095TIP3   OH212290   4.503   1.174   3.717  0.0215 -0.0869 -0.5419
 4095TIP3    H112291   4.467   1.184   3.628 -0.9137 -0.4241 -0.2164
 4095TIP3    H212292   4.576   1.236   3.720 -2.2412  2.7840 -0.3583
 4096TIP3   OH212293   3.423   3.489   1.470 -0.2046  0.4199 -0.1189
 4096TIP3    H112294   3.439   3.583   1.458 -1.0414  0.5015 -0.6715
 4096TIP3    H212295   3.329   3.483   1.489 -0.2085 -0.3291 -0.3535
 4097TIP3   OH212296   0.575   5.404   2.253 -0.0762 -0.0506  0.3779
 4097TIP3    H112297   0.511   5.460   2.208  1.4628  0.9220 -0.7182
 4097TIP3    H212298   0.637   5.466   2.291  0.7555 -0.9876  0.5752
 4098TIP3   OH212299   5.384   0.511   2.307 -0.0432 -0.5659  0.0364
 4098TIP3    H112300   5.457   0.489   2.366  0.9349  1.5819 -0.2664
 4098TIP3    H212301   5.344   0.588   2.347 -0.1869  0.1382 -1.4217
 4099TIP3   OH212302   0.207   3.124   1.565  0.1068  0.7790 -0.1213
 4099TIP3    H112303   0.150   3.061   1.607  1.2699  0.8291  1.6379
 4099TIP3    H212304   0.150   3.197   1.542 -0.5588  0.8333  1.5938
 4100TIP3   OH212305   4.329   5.830   2.857 -0.4512 -0.2808 -0.1043
 4100TIP3    H112306   4.317   5.740   2.886 -0.7632  0.2078  1.3505
 4100TIP3    H212307   4.418   5.832   2.821 -0.2932 -1.0744  0.2201
 4101TIP3   OH212308   0.345   2.889   3.054 -0.5983  0.2718 -0.2250
 4101TIP3    H112309   0.319   2.856   2.968 -0.3315 -0.2060 -0.1263
 4101TIP3    H212310   0.383   2.975   3.036  0.6784 -0.3672 -0.7642
 4102TIP3   OH212311   0.942   2.963   3.765 -0.8039 -0.3801 -0.1854
 4102TIP3    H112312   0.970   2.879   3.727 -1.1105 -0.3771 -0.4205
 4102TIP3    H212313   0.874   2.994   3.706  1.3839  1.5748 -1.9111
 4103TIP3   OH212314   4.490   0.013   1.469  0.1754  0.3007 -0.5278
 4103TIP3    H112315   4.474   0.004   1.375 -0.2968  1.1278 -0.5363
 4103TIP3    H212316   4.575   0.058   1.475 -0.2908  1.2187 -0.5907
 4104TIP3   OH212317   4.374   1.464   0.810 -0.4935 -0.2906 -0.5120
 4104TIP3    H112318   4.395   1.443   0.901 -2.0626 -0.2126 -0.1086
 4104TIP3    H212319   4.376   1.559   0.806  0.8251 -0.3228 -0.8870
 4105TIP3   OH212320   1.739   4.178   2.407 -0.0386 -0.0334  0.1124
 4105TIP3    H112321   1.819   4.146   2.365 -0.1996 -0.4255  0.1017
 4105TIP3    H212322   1.726   4.121   2.482  1.7713  2.3455  2.3817
 4106TIP3   OH212323   0.391   4.885   1.971 -0.4396  0.5310  0.2729
 4106TIP3    H112324   0.298   4.866   1.960 -0.5716  0.7072  1.0163
 4106TIP3    H212325   0.393   4.972   2.012  0.0622  0.6695 -0.0303
 4107TIP3   OH212326   4.452   4.954   1.657  0.0623 -0.1621  0.2852
 4107TIP3    H112327   4.438   4.879   1.714 -0.6451 -1.0835 -1.0515
 4107TIP3    H212328   4.544   4.946   1.629 -0.1775 -0.8932 -0.3270
 4108TIP3   OH212329   1.441   3.607   4.861  0.2801  0.2743 -0.4894
 4108TIP3    H112330   1.475   3.557   4.936 -1.7009 -0.1117  0.2113
 4108TIP3    H212331   1.467   3.697   4.879  3.9693 -0.3425 -1.8055
 4109TIP3   OH212332   4.498   2.235   2.432  0.4549  0.3821 -0.5724
 4109TIP3    H112333   4.536   2.171   2.493 -2.6863 -0.5006  0.6602
 4109TIP3    H212334   4.533   2.319   2.461 -0.0397 -0.1474  1.8364
 4110TIP3   OH212335   2.173   5.569   3.614  0.5221 -0.1296 -0.4926
 4110TIP3    H112336   2.198   5.641   3.555 -1.1691 -0.4245 -1.6153
 4110TIP3    H212337   2.085   5.591   3.642  0.9871 -0.4387  1.3172
 4111TIP3   OH212338   5.511   4.892   2.945  0.1690 -0.3521  0.8388
 4111TIP3    H112339   5.603   4.919   2.946 -0.0375  0.4417 -0.2227
 4111TIP3    H212340   5.462   4.972   2.960 -0.3887 -0.4684 -0.2633
 4112TIP3   OH212341   4.763   1.537   2.652 -0.1545  0.5891  0.0308
 4112TIP3    H112342   4.689   1.484   2.624 -0.0233 -0.8397  2.1643
 4112TIP3    H212343   4.820   1.541   2.576 -0.1376 -2.4379 -0.2408
 4113TIP3   OH212344   5.186   1.942   0.157  0.5983 -0.1077  0.0077
 4113TIP3    H112345   5.118   1.911   0.217  2.0382 -1.1665  1.1614
 4113TIP3    H212346   5.196   2.035   0.179 -0.4299  0.0640 -0.1709
 4114TIP3   OH212347   0.782   2.793   1.719 -0.1470  0.5530 -0.1672
 4114TIP3    H112348   0.737   2.877   1.729 -0.7974  0.1972 -0.0620
 4114TIP3    H212349   0.744   2.755   1.640 -0.0963  0.2025 -0.0216
 4115TIP3   OH212350   3.960   3.309   4.447 -0.0953 -0.2324  0.6942
 4115TIP3    H112351   4.051   3.338   4.438 -0.2379 -0.3157 -1.4651
 4115TIP3    H212352   3.910   3.390   4.458  0.0452 -0.0124 -0.1941
 4116TIP3   OH212353   2.917   1.436   3.477  0.3475 -0.4823 -0.2243
 4116TIP3    H112354   3.009   1.413   3.488  0.2775  0.1649  2.1763
 4116TIP3    H212355   2.903   1.511   3.534 -1.6915 -0.5612 -0.5118
 4117TIP3   OH212356   5.704   2.765   0.495  0.0570  0.2560  0.1394
 4117TIP3    H112357   5.655   2.800   0.420 -0.5223  0.6892  0.7072
 4117TIP3    H212358   5.640   2.712   0.542 -0.3304  1.9937  1.6983
 4118TIP3   OH212359   1.245   3.701   1.764  0.0584 -0.5372  0.0717
 4118TIP3    H112360   1.181   3.772   1.771 -3.6729 -3.6267  1.2565
 4118TIP3    H212361   1.257   3.671   1.854  0.4622 -2.2164 -0.5005
 4119TIP3   OH212362   4.225   0.095   5.063  0.0979 -0.4976 -0.1506
 4119TIP3    H112363   4.194   0.177   5.101 -0.7347 -0.5845 -0.5991
 4119TIP3    H212364   4.196   0.027   5.123 -1.9759 -0.7097 -1.2985
 4120TIP3   OH212365   2.691   2.619   3.701  0.6573 -0.3297  0.0303
 4120TIP3    H112366   2.688   2.586   3.791  0.7871 -0.1503  0.1020
 4120TIP3    H212367   2.712   2.543   3.647 -0.6346 -0.6994  0.0106
 4121TIP3   OH212368   2.183   1.746   5.130 -0.0942 -0.0356 -0.0400
 4121TIP3    H112369   2.207   1.827   5.084 -1.7584  0.3544 -0.3222
 4121TIP3    H212370   2.153   1.775   5.216  1.6061 -0.6203  0.7773
 4122TIP3   OH212371   2.768   2.396   4.354 -0.5746 -0.1759 -0.2502
 4122TIP3    H112372   2.771   2.372   4.446 -1.3101  2.2022  0.4619
 4122TIP3    H212373   2.700   2.340   4.316 -0.4004 -1.0357  0.6875
 4123TIP3   OH212374   3.231   5.952   2.062 -0.1111  0.2014 -0.2069
 4123TIP3    H112375   3.243   5.861   2.089 -0.6447  0.2121  0.0738
 4123TIP3    H212376   3.219   5.948   1.967  2.0937  0.1897 -0.5352
 4124TIP3   OH212377   5.090   1.745  -0.027  0.4655  0.1276  0.3105
 4124TIP3    H112378   5.107   1.670   0.031  1.2732  1.4576  1.8910
 4124TIP3    H212379   5.144   1.815   0.010  0.8436  1.1069 -1.9787
 4125TIP3   OH212380   1.323   1.432   2.999 -0.1006 -0.2648  0.1459
 4125TIP3    H112381   1.299   1.343   3.024 -0.7260  0.0914  0.8671
 4125TIP3    H212382   1.407   1.447   3.042 -0.6022 -0.0772  1.1027
 4126TIP3   OH212383   3.402   2.454   0.258 -0.3527  0.4458  0.1168
 4126TIP3    H112384   3.359   2.477   0.176  2.9831 -0.7050 -2.1855
 4126TIP3    H212385   3.384   2.527   0.317 -2.7396  1.3933 -1.6642
 4127TIP3   OH212386   2.597   5.664   2.970 -0.2763  0.2605 -0.6225
 4127TIP3    H112387   2.682   5.707   2.978  0.5416 -1.5167  1.3629
 4127TIP3    H212388   2.539   5.731   2.935  1.2287  2.4962  0.8999
 4128TIP3   OH212389   1.010   4.760   0.982 -0.2626 -0.0257 -0.0133
 4128TIP3    H112390   1.025   4.736   0.891  0.6574  0.0403  0.1119
 4128TIP3    H212391   1.030   4.680   1.031 -1.8673 -0.4104  0.0618
 4129TIP3   OH212392   0.167   2.071   3.814  0.4508 -0.1282  0.1971
 4129TIP3    H112393   0.173   2.111   3.901 -0.4925 -0.6250  0.4959
 4129TIP3    H212394   0.211   1.986   3.824 -1.2859 -1.0040  0.7064
 4130TIP3   OH212395   4.634   2.851   3.998  0.7773  0.1438  0.8904
 4130TIP3    H112396   4.664   2.936   3.967 -0.8411 -0.1238 -1.6855
 4130TIP3    H212397   4.547   2.868   4.035 -0.1764 -0.5299 -0.9314
 4131TIP3   OH212398   1.145   0.399   1.715 -0.9504  0.1191  0.2888
 4131TIP3    H112399   1.100   0.337   1.658 -0.7006  0.2793 -0.0821
 4131TIP3    H212400   1.202   0.449   1.657 -1.0268  0.5881  0.6048
 4132TIP3   OH212401   4.203   5.478   1.669 -0.0351  0.0894  0.0693
 4132TIP3    H112402   4.234   5.565   1.645 -0.0497  0.6208  1.8597
 4132TIP3    H212403   4.205   5.477   1.765  1.0557 -2.2713  0.1024
 4133TIP3   OH212404   1.579   2.484   2.008  0.3889  0.8822  0.1079
 4133TIP3    H112405   1.550   2.568   1.972 -0.5055  0.5419  0.0025
 4133TIP3    H212406   1.499   2.444   2.042  0.7128 -0.1478 -0.2962
 4134TIP3   OH212407   3.556   1.007   0.997  0.4783  0.4401  0.5275
 4134TIP3    H112408   3.583   0.924   1.036 -0.9699 -0.6913 -0.7462
 4134TIP3    H212409   3.601   1.073   1.049 -0.6635 -0.9878  3.5917
 4135TIP3   OH212410   2.303   1.082   4.362 -0.1964 -0.0042 -0.0750
 4135TIP3    H112411   2.279   1.131   4.283 -0.5037 -0.6376 -0.3799
 4135TIP3    H212412   2.258   0.998   4.353  0.3516 -0.3618  0.4264
 4136TIP3   OH212413   4.624   1.301   2.127  0.1827  0.0031  0.5448
 4136TIP3    H112414   4.652   1.275   2.215 -0.9916 -0.2542  0.8670
 4136TIP3    H212415   4.701   1.343   2.089 -0.1834  3.3199  2.9427
 4137TIP3   OH212416   0.679   5.940   3.264 -0.2762 -0.1408  0.8101
 4137TIP3    H112417   0.620   5.865   3.272  0.1688 -0.3663  2.2609
 4137TIP3    H212418   0.621   6.016   3.256 -0.7936 -0.3916  1.9308
 4138TIP3   OH212419   2.189   0.826   1.214  0.2129 -0.2105 -0.3369
 4138TIP3    H112420   2.220   0.900   1.265  2.3889 -1.3181  0.0572
 4138TIP3    H212421   2.215   0.749   1.265  1.6424 -1.3404 -2.6040
 4139TIP3   OH212422   0.623   5.770   0.363  0.1273 -0.1216  0.2027
 4139TIP3    H112423   0.561   5.843   0.357 -0.0247 -0.2849 -0.3444
 4139TIP3    H212424   0.643   5.762   0.456 -1.2953 -0.5711  0.4910
 4140TIP3   OH212425   1.858   3.496   1.811  0.2869 -0.6677  0.2902
 4140TIP3    H112426   1.946   3.492   1.848  0.3751 -0.8397  0.0644
 4140TIP3    H212427   1.870   3.530   1.722  0.3192 -2.2744 -0.3441
 4141TIP3   OH212428   3.411   3.408   1.827 -0.3165 -0.6846 -0.2467
 4141TIP3    H112429   3.424   3.502   1.815  1.4812 -0.5701  1.7644
 4141TIP3    H212430   3.499   3.371   1.819 -0.7979 -2.0153  0.2763
 4142TIP3   OH212431   6.195   0.119   4.040 -0.1549  0.0963  0.1017
 4142TIP3    H112432   6.106   0.116   4.004 -0.5164 -1.3107  1.0194
 4142TIP3    H212433   6.251   0.139   3.965 -1.1149 -0.4801 -0.7925
 4143TIP3   OH212434   0.488   1.326   1.672 -0.3368 -0.2293  0.0510
 4143TIP3    H112435   0.441   1.399   1.632 -0.5863 -0.7131 -0.5643
 4143TIP3    H212436   0.419   1.275   1.716 -0.2576 -0.4288 -0.0534
 4144TIP3   OH212437   1.366   4.197   4.448  0.1542 -0.1671  0.4363
 4144TIP3    H112438   1.414   4.118   4.423  0.6450  0.3467 -0.3113
 4144TIP3    H212439   1.435   4.261   4.466 -0.2510  0.5010 -0.3631
 4145TIP3   OH212440   4.756   4.143   2.173 -0.0995  0.0759 -0.2185
 4145TIP3    H112441   4.747   4.238   2.171  0.0430  0.1264  0.9757
 4145TIP3    H212442   4.811   4.123   2.097 -1.4364  0.7616 -1.4460
 4146TIP3   OH212443   3.539   4.992   3.192  0.2476  0.0330  0.2606
 4146TIP3    H112444   3.627   4.969   3.221  0.9619 -1.6091 -2.7701
 4146TIP3    H212445   3.549   5.076   3.147  0.6778 -0.9296 -1.5238
 4147TIP3   OH212446   3.134   5.372   3.374  0.7138  0.3374 -0.2264
 4147TIP3    H112447   3.085   5.314   3.433  0.7531  0.0225 -0.5047
 4147TIP3    H212448   3.121   5.459   3.411 -2.2360  0.6487 -1.7054
 4148TIP3   OH212449   2.906   0.340   2.185 -0.2108 -0.7830  0.3596
 4148TIP3    H112450   2.871   0.306   2.103 -1.0413  0.7329  0.0437
 4148TIP3    H212451   2.938   0.263   2.231  0.2218 -1.6758 -1.3472
 4149TIP3   OH212452   4.044   4.062   3.155  0.0935 -0.0796 -0.4729
 4149TIP3    H112453   3.956   4.029   3.173  0.4247 -1.1452 -0.7863
 4149TIP3    H212454   4.074   4.012   3.080  0.3361  1.4418 -1.4324
 4150TIP3   OH212455   2.283   4.973   2.521 -0.4096 -0.5328 -0.3187
 4150TIP3    H112456   2.375   4.997   2.505 -0.0815 -1.3392  0.3318
 4150TIP3    H212457   2.249   4.952   2.434  0.5204 -1.9433 -0.3630
 4151TIP3   OH212458   2.966   1.043   0.474  0.5974 -0.1435 -0.0999
 4151TIP3    H112459   2.970   1.050   0.379 -0.2100 -0.2761 -0.1484
 4151TIP3    H212460   2.890   0.987   0.491  0.0518  0.7980  0.6592
 4152TIP3   OH212461   5.825   4.990   3.946  0.2663  0.0820 -0.1245
 4152TIP3    H112462   5.912   4.949   3.941  0.1753  0.0422 -1.8643
 4152TIP3    H212463   5.796   4.973   4.036  2.6855  1.4099  1.0252
 4153TIP3   OH212464   3.636   5.696   1.894  0.0627  0.8602  0.3246
 4153TIP3    H112465   3.711   5.753   1.912  0.4178  0.0250  1.6051
 4153TIP3    H212466   3.675   5.610   1.878 -0.5452  0.7028 -0.3271
 4154TIP3   OH212467   0.241   3.925   3.900  0.5242  0.5290 -0.0168
 4154TIP3    H112468   0.233   3.835   3.932 -2.5857  0.5723 -0.3160
 4154TIP3    H212469   0.201   3.978   3.970  1.1324  1.5228 -0.4059
 4155TIP3   OH212470   4.348   4.224   3.008  0.4384  0.3819  0.0271
 4155TIP3    H112471   4.410   4.261   2.944  1.6273  0.9184  1.4258
 4155TIP3    H212472   4.374   4.264   3.091  1.2010 -2.8777  1.5032
 4156TIP3   OH212473   4.940   4.148   0.568 -0.3461  0.1047 -0.0447
 4156TIP3    H112474   4.950   4.071   0.513 -2.0826  0.1569 -0.4810
 4156TIP3    H212475   5.025   4.157   0.612  0.4839 -0.9738 -1.3417
 4157TIP3   OH212476   5.466   1.700   0.501  0.1220 -0.1863 -0.0409
 4157TIP3    H112477   5.523   1.626   0.480  0.3288 -0.1301  0.3088
 4157TIP3    H212478   5.517   1.752   0.563 -1.4653 -1.8016  2.8225
 4158TIP3   OH212479   2.961   1.480   0.942 -0.0567 -0.1526  0.0602
 4158TIP3    H112480   3.004   1.515   1.020  3.7425 -1.7045 -1.1406
 4158TIP3    H212481   2.928   1.394   0.970  0.0313 -0.1062  0.3155
 4159TIP3   OH212482   3.099   1.978   3.873 -0.9509  0.2512 -0.0924
 4159TIP3    H112483   3.171   1.999   3.813 -0.5830  0.0990  0.2920
 4159TIP3    H212484   3.021   1.977   3.817 -0.4933 -0.7928 -0.7412
 4160TIP3   OH212485   5.882   3.296   4.359 -0.7275 -0.3745 -0.2238
 4160TIP3    H112486   5.906   3.214   4.402 -0.6433 -0.1595  0.1480
 4160TIP3    H212487   5.791   3.311   4.385 -0.3994  0.2178  0.6333
 4161TIP3   OH212488   2.665   1.913   4.699  0.8448  0.0811  0.1887
 4161TIP3    H112489   2.712   1.876   4.624  2.6726  1.0618  0.7854
 4161TIP3    H212490   2.610   1.842   4.731  1.6699 -1.0184 -0.7734
 4162TIP3   OH212491   5.906   3.093   1.137  0.1148 -0.0719 -0.0639
 4162TIP3    H112492   5.990   3.058   1.109 -0.7841 -0.4522 -2.5575
 4162TIP3    H212493   5.852   3.016   1.154  0.4200  0.1640  2.1756
 4163TIP3   OH212494   2.691   0.151   1.289 -0.5949  0.0774  0.1530
 4163TIP3    H112495   2.644   0.081   1.243  0.9257 -0.6457 -0.3781
 4163TIP3    H212496   2.754   0.183   1.224  2.0360 -1.3702  1.8262
 4164TIP3   OH212497   6.048   3.007   2.580  0.0454  0.2819 -0.6318
 4164TIP3    H112498   6.093   3.091   2.588 -0.4940  0.5691 -0.6034
 4164TIP3    H212499   6.045   2.990   2.486 -0.6050  0.7170 -0.6980
 4165TIP3   OH212500   1.756   4.271   4.437 -0.2610  0.4957 -0.0152
 4165TIP3    H112501   1.736   4.301   4.348 -1.5502 -0.2488 -0.0048
 4165TIP3    H212502   1.717   4.338   4.494  0.8284  1.1298  0.0008
 4166TIP3   OH212503   3.462   5.451   4.411  0.4528  0.3812 -0.7415
 4166TIP3    H112504   3.404   5.517   4.449  0.9847  0.3832  0.0951
 4166TIP3    H212505   3.420   5.368   4.431  0.1268  0.4329 -1.2009
 4167TIP3   OH212506   5.766   3.688   3.813  0.2144  0.1817  0.5243
 4167TIP3    H112507   5.792   3.596   3.821 -2.6228 -0.6913  0.9193
 4167TIP3    H212508   5.812   3.732   3.884  2.7241 -0.5755 -0.5072
 4168TIP3   OH212509   2.164   2.060   4.465  0.3007 -0.0452 -0.2977
 4168TIP3    H112510   2.240   2.112   4.440  1.2057 -1.0283  0.3646
 4168TIP3    H212511   2.174   1.977   4.419  1.4092 -1.4598  2.2818
 4169TIP3   OH212512   4.586   2.988   3.230 -0.0977  0.5479  0.8223
 4169TIP3    H112513   4.495   2.989   3.259  0.2507 -1.3313  2.1346
 4169TIP3    H212514   4.623   3.069   3.265 -0.6598  0.1565  2.3964
 4170TIP3   OH212515   4.547   1.803   1.125 -0.2889 -0.3890  0.1050
 4170TIP3    H112516   4.515   1.749   1.197  2.0055  0.2564  1.6925
 4170TIP3    H212517   4.642   1.799   1.131 -0.0214  0.6277 -2.2117
 4171TIP3   OH212518   4.278   4.773   0.562  0.1730  0.6015  0.1792
 4171TIP3    H112519   4.352   4.742   0.510  0.1531 -2.5023  1.7706
 4171TIP3    H212520   4.202   4.756   0.506  0.4352  0.8245 -0.2452
 4172TIP3   OH212521   5.827   3.974   3.765 -0.0034  0.2044  0.4883
 4172TIP3    H112522   5.818   3.879   3.770 -1.3432  0.0893 -1.9916
 4172TIP3    H212523   5.807   3.994   3.673 -1.7084  3.0496  1.3564
 4173TIP3   OH212524   0.603   0.958   4.770  0.1077  0.5430 -0.1149
 4173TIP3    H112525   0.680   1.014   4.756  2.0466 -2.2915 -1.8172
 4173TIP3    H212526   0.630   0.898   4.839 -0.4991 -0.6200 -0.8722
 4174TIP3   OH212527   3.448   4.009   4.171  0.7041  0.3145  0.1775
 4174TIP3    H112528   3.409   3.965   4.246 -0.2891 -0.3672 -0.7053
 4174TIP3    H212529   3.376   4.018   4.109  1.5391  0.7272 -0.7613
 4175TIP3   OH212530   4.859   0.794   4.488  0.3954 -0.0799  0.1210
 4175TIP3    H112531   4.814   0.757   4.412  1.3832 -0.0764 -0.4858
 4175TIP3    H212532   4.935   0.840   4.450  1.6778 -1.2396  1.2081
 4176TIP3   OH212533   6.170   5.057   1.440 -0.1204 -0.2550 -0.4011
 4176TIP3    H112534   6.129   4.972   1.456 -1.0823  0.1425 -0.6921
 4176TIP3    H212535   6.115   5.120   1.487  1.5924  0.0350  1.3086
 4177TIP3   OH212536   0.143   3.698   2.053 -0.4083 -0.1741 -0.0688
 4177TIP3    H112537   0.095   3.625   2.094  0.8234  0.2494  2.2711
 4177TIP3    H212538   0.119   3.774   2.105  1.4225  0.3444  0.0769
 4178TIP3   OH212539   5.723   2.347   0.524 -0.3542 -0.0179  0.2591
 4178TIP3    H112540   5.736   2.367   0.617 -0.2031  0.1133  0.2091
 4178TIP3    H212541   5.650   2.403   0.497  1.1474  1.7591 -0.3098
 4179TIP3   OH212542   4.063   2.659   2.948 -0.5310  0.6818  0.0112
 4179TIP3    H112543   4.106   2.634   2.867  0.8708  0.7330  0.7186
 4179TIP3    H212544   3.969   2.655   2.928 -0.2055  1.2009 -1.7462
 4180TIP3   OH212545   2.829   3.494   4.121 -0.2326  0.2239 -0.6875
 4180TIP3    H112546   2.784   3.414   4.150 -0.9298  1.1500  0.8533
 4180TIP3    H212547   2.778   3.565   4.157 -0.4147  1.4628 -3.1728
 4181TIP3   OH212548   2.930   4.517   3.535 -0.5926 -1.3186 -0.2177
 4181TIP3    H112549   3.017   4.477   3.542  0.0921  0.0083 -0.6638
 4181TIP3    H212550   2.878   4.454   3.487  0.6199 -1.4129 -1.4641
 4182TIP3   OH212551   5.597   0.942   4.072 -0.1361  0.1461  0.6118
 4182TIP3    H112552   5.612   1.022   4.123 -1.1335  2.9784 -3.1247
 4182TIP3    H212553   5.662   0.946   4.002 -1.3630 -1.3798 -0.6693
 4183TIP3   OH212554   4.243   1.698   2.687  0.0470  0.0888  0.2268
 4183TIP3    H112555   4.196   1.668   2.610 -2.2880 -2.0013  2.2939
 4183TIP3    H212556   4.283   1.619   2.724 -1.3165  0.4298  2.6535
 4184TIP3   OH212557   2.014   5.707   2.455  0.1455  0.2329 -0.1381
 4184TIP3    H112558   2.027   5.658   2.373  0.8736  2.7030 -1.5893
 4184TIP3    H212559   1.921   5.695   2.475 -0.5078  1.0680 -2.3797
 4185TIP3   OH212560   4.806   2.753   4.738 -0.3553  0.3122 -0.4869
 4185TIP3    H112561   4.804   2.696   4.815  0.1096  0.9677  0.0124
 4185TIP3    H212562   4.739   2.819   4.754 -0.1954  0.5044 -0.6048
 4186TIP3   OH212563   5.706   3.690   0.730 -0.0352  0.3428  0.6564
 4186TIP3    H112564   5.796   3.722   0.727  0.2473 -0.4547 -0.1026
 4186TIP3    H212565   5.703   3.633   0.807 -0.6217  2.3451  2.1823
 4187TIP3   OH212566   3.136   5.690   3.325  0.1060 -0.0848  0.3529
 4187TIP3    H112567   3.231   5.679   3.321  0.3238  1.7122 -0.5603
 4187TIP3    H212568   3.120   5.773   3.279 -1.8716 -0.1816  0.7946
 4188TIP3   OH212569   3.414   3.547  -0.018 -0.4064 -0.1064  0.6283
 4188TIP3    H112570   3.495   3.598  -0.018 -0.8027  0.5643 -0.9526
 4188TIP3    H212571   3.402   3.523   0.074  2.0415 -0.9969  0.7859
 4189TIP3   OH212572   5.641   4.980   1.051  0.5717  0.2483  0.2465
 4189TIP3    H112573   5.669   4.910   0.993 -0.0817  0.0313  0.1810
 4189TIP3    H212574   5.712   4.989   1.114  0.3334 -1.0314  0.7433
 4190TIP3   OH212575   1.804   4.984   2.587 -0.2773 -0.5524 -0.2092
 4190TIP3    H112576   1.882   5.028   2.551 -0.9534  1.5769  0.7719
 4190TIP3    H212577   1.758   4.951   2.509  0.1825  0.6696 -1.0415
 4191TIP3   OH212578   1.493   0.768   0.933  0.0421  0.4178 -0.1179
 4191TIP3    H112579   1.480   0.799   1.022  1.2243  0.6665 -0.0140
 4191TIP3    H212580   1.447   0.684   0.930 -3.2352  2.0623 -0.4167
 4192TIP3   OH212581   2.799   5.577   1.792  0.8830 -0.1647 -0.0423
 4192TIP3    H112582   2.804   5.574   1.887  1.0992 -0.4602 -0.0607
 4192TIP3    H212583   2.715   5.619   1.773  0.9963  0.2023  0.2780
 4193TIP3   OH212584   0.944   3.463   3.311 -0.3089  0.3551  0.7817
 4193TIP3    H112585   0.902   3.453   3.397 -2.0548  1.3507  0.0984
 4193TIP3    H212586   1.023   3.409   3.317 -2.0332 -2.2839  1.8998
 4194TIP3   OH212587   2.044   5.323   3.640 -0.5423  0.3382 -0.0674
 4194TIP3    H112588   2.016   5.368   3.720  1.3018 -0.1284  0.9045
 4194TIP3    H212589   2.100   5.387   3.596  0.0639 -0.1152  0.0413
 4195TIP3   OH212590   5.377   2.779   2.624 -0.5354  0.1489  0.4460
 4195TIP3    H112591   5.321   2.746   2.695 -0.7554  0.0271  0.2160
 4195TIP3    H212592   5.366   2.716   2.553  0.2328 -0.1170  0.5502
 4196TIP3   OH212593   3.714   5.364   4.891  0.4895  0.3039 -0.4195
 4196TIP3    H112594   3.652   5.358   4.963  0.8952  1.4444  0.0601
 4196TIP3    H212595   3.800   5.358   4.933  0.7197 -0.7484 -1.0132
 4197TIP3   OH212596   0.150   2.838   3.410  0.2685 -0.3192  0.5646
 4197TIP3    H112597   0.185   2.883   3.486  0.4982  0.0230  0.2574
 4197TIP3    H212598   0.058   2.820   3.432 -0.6842  2.7342 -0.3618
 4198TIP3   OH212599   2.702   5.045   0.666  0.2857 -0.2396 -0.2030
 4198TIP3    H112600   2.724   4.993   0.588  1.4119 -1.9830  1.1994
 4198TIP3    H212601   2.627   4.998   0.704 -0.5366  0.8542 -0.4239
 4199TIP3   OH212602   1.705   4.437   4.232 -0.3304  0.4720  0.2966
 4199TIP3    H112603   1.696   4.528   4.260  1.0217  0.6289  0.2778
 4199TIP3    H212604   1.790   4.434   4.188  0.0893 -1.0130  1.1493
 4200TIP3   OH212605   5.417   5.752   0.262 -0.5077  0.8303 -0.0963
 4200TIP3    H112606   5.424   5.657   0.268 -0.4815  0.7582 -1.1740
 4200TIP3    H212607   5.442   5.773   0.172 -1.4436  1.7725 -0.1579
 4201TIP3   OH212608   4.393   0.579   1.137  0.1530 -0.1016  0.2264
 4201TIP3    H112609   4.345   0.619   1.210  1.2408 -1.1070  1.5470
 4201TIP3    H212610   4.420   0.653   1.083 -2.1727  0.5437 -0.1442
 4202TIP3   OH212611   3.348   2.473   2.866  0.2702  0.0937 -0.2698
 4202TIP3    H112612   3.286   2.522   2.920  1.1906  0.1764  0.7580
 4202TIP3    H212613   3.299   2.450   2.788 -0.8388  0.7620  0.2023
 4203TIP3   OH212614   0.756   5.549   2.000  0.5267  0.4270  0.3795
 4203TIP3    H112615   0.685   5.595   1.955 -0.6419 -0.2831  1.4129
 4203TIP3    H212616   0.751   5.580   2.090 -1.2391 -2.6150  1.4825
 4204TIP3   OH212617   1.741   4.759   4.642 -0.0905  0.0573  0.2186
 4204TIP3    H112618   1.666   4.807   4.605  0.2261 -0.1580 -0.7289
 4204TIP3    H212619   1.807   4.761   4.573  0.0744 -1.3942  0.3159
 4205TIP3   OH212620   1.064   5.013   4.552  0.2961 -0.3597  0.3032
 4205TIP3    H112621   1.110   4.933   4.526  0.1969 -0.2250 -0.2975
 4205TIP3    H212622   1.134   5.075   4.574  0.4229 -1.5451  3.8763
 4206TIP3   OH212623   4.827   4.484   2.029 -0.0290 -0.2439 -0.3266
 4206TIP3    H112624   4.823   4.446   2.117 -1.3054 -0.3051 -0.3964
 4206TIP3    H212625   4.745   4.458   1.988  1.0083 -1.1613 -1.9472
 4207TIP3   OH212626   0.541   3.728   2.214 -0.4335 -0.5251  0.4462
 4207TIP3    H112627   0.538   3.769   2.128  0.8604 -2.0007 -0.3719
 4207TIP3    H212628   0.543   3.801   2.276 -1.6098  0.5591 -0.7388
 4208TIP3   OH212629   0.905   1.586   2.655 -0.2124  0.3243 -0.5456
 4208TIP3    H112630   0.815   1.598   2.626 -1.0058 -0.3028  1.4896
 4208TIP3    H212631   0.933   1.504   2.613 -0.9311  0.0231 -0.4451
 4209TIP3   OH212632   3.045   2.272   2.985  0.1927 -0.5747  0.0519
 4209TIP3    H112633   3.080   2.233   3.065  1.0724  1.1115  0.5427
 4209TIP3    H212634   3.102   2.239   2.916  0.4484 -0.7670  0.3516
 4210TIP3   OH212635   3.456   3.846   3.950  0.2116 -0.3265  0.4499
 4210TIP3    H112636   3.484   3.899   4.024  3.2340 -0.5188 -0.4385
 4210TIP3    H212637   3.361   3.837   3.961 -0.0961  3.2631  1.8726
 4211TIP3   OH212638   0.800   4.928   4.597 -0.3232 -0.0350 -0.2224
 4211TIP3    H112639   0.743   4.992   4.555  0.8687  1.3200  0.1364
 4211TIP3    H212640   0.888   4.956   4.574  0.4074  0.7473  3.0004
 4212TIP3   OH212641   5.445   5.812   1.659  0.3011 -0.5154 -0.4622
 4212TIP3    H112642   5.495   5.814   1.577  1.0876 -0.5308  0.0042
 4212TIP3    H212643   5.438   5.904   1.685 -0.8431 -0.4209 -1.0668
 4213TIP3   OH212644   6.119   2.962   1.632  0.5204  0.5950  0.2242
 4213TIP3    H112645   6.075   3.015   1.566  1.2952 -0.1871 -0.9639
 4213TIP3    H212646   6.090   2.999   1.716  0.2757  2.2320 -0.5459
 4214TIP3   OH212647   1.771   1.385   1.584  0.1182  0.6946  0.0439
 4214TIP3    H112648   1.765   1.373   1.679 -0.3937  1.5580  0.1371
 4214TIP3    H212649   1.699   1.334   1.549  1.7886 -1.6953 -0.1161
 4215TIP3   OH212650   6.371   1.820   1.359 -0.1080 -0.2815 -0.2235
 4215TIP3    H112651   6.310   1.749   1.378 -0.7227  0.2247 -0.2516
 4215TIP3    H212652   6.315   1.897   1.348  0.6404  0.5316  1.3085
 4216TIP3   OH212653   4.983   4.855   2.852  0.1404 -0.2858  0.3937
 4216TIP3    H112654   4.888   4.862   2.845  0.1321 -1.4660 -1.6203
 4216TIP3    H212655   5.003   4.766   2.822  1.7975 -0.6096  2.2330
 4217TIP3   OH212656   0.197   1.484   4.127  0.1066 -0.1375  0.0958
 4217TIP3    H112657   0.262   1.554   4.129 -1.1766  1.1826 -1.4334
 4217TIP3    H212658   0.173   1.471   4.219  1.9808 -0.1712  0.6103
 4218TIP3   OH212659   3.908   0.631   2.350  0.1174  0.0777 -0.3319
 4218TIP3    H112660   3.868   0.572   2.413  0.3339  1.7977  1.5133
 4218TIP3    H212661   3.838   0.653   2.289 -0.0710 -1.6679 -0.8052
 4219TIP3   OH212662   3.635   5.465   1.394 -0.1406  0.1615  0.1292
 4219TIP3    H112663   3.607   5.510   1.315  1.0380  1.4152  0.3846
 4219TIP3    H212664   3.562   5.408   1.417 -1.5502  1.6593 -0.4383
 4220TIP3   OH212665   1.887   2.870   4.106  0.5984  0.3000 -0.0888
 4220TIP3    H112666   1.845   2.949   4.070  0.2670 -0.3144 -1.0703
 4220TIP3    H212667   1.962   2.904   4.154 -0.2878  1.3281  0.6479
 4221TIP3   OH212668   5.782   5.584   1.061 -0.1690  0.6919  0.5729
 4221TIP3    H112669   5.812   5.545   0.979 -3.3485 -2.0317  0.5059
 4221TIP3    H212670   5.824   5.531   1.129  0.1653  1.0673  0.6658
 4222TIP3   OH212671   0.110   2.395   2.993  0.0834 -0.6126 -0.4201
 4222TIP3    H112672   0.053   2.318   2.996  0.5885 -1.1978 -3.3134
 4222TIP3    H212673   0.196   2.362   3.021  0.4012 -1.2720 -2.0610
 4223TIP3   OH212674   0.889   5.773   4.606 -0.5355  0.0237 -0.3330
 4223TIP3    H112675   0.829   5.840   4.638 -1.2136 -0.8918  0.3870
 4223TIP3    H212676   0.925   5.733   4.686 -1.2588 -1.4314 -0.7081
 4224TIP3   OH212677   3.304   4.302   3.322  0.6834 -0.1278 -0.1393
 4224TIP3    H112678   3.304   4.382   3.375 -1.3515  0.3776 -0.8073
 4224TIP3    H212679   3.279   4.233   3.383 -2.1199  0.5243 -0.4299
 4225TIP3   OH212680   0.459   1.484   4.299  0.0129  0.1706  0.1758
 4225TIP3    H112681   0.513   1.459   4.375 -0.6129  1.0397  0.9199
 4225TIP3    H212682   0.500   1.438   4.225  3.0528  2.3458  0.3325
 4226TIP3   OH212683   5.653   4.556   1.690  0.2070 -0.6626  0.1412
 4226TIP3    H112684   5.609   4.472   1.679 -0.0252 -0.4993 -0.1697
 4226TIP3    H212685   5.612   4.614   1.626  0.4399 -0.3397  0.2799
 4227TIP3   OH212686   2.193   2.895   0.503  0.1142 -0.6328  0.2682
 4227TIP3    H112687   2.172   2.914   0.595 -0.1028  1.2005 -0.1200
 4227TIP3    H212688   2.134   2.951   0.453  1.2712 -0.4615 -0.9583
 4228TIP3   OH212689   2.613   2.557   2.952  0.6357 -0.3120  0.0125
 4228TIP3    H112690   2.658   2.581   2.871  0.1539 -0.1146 -0.2025
 4228TIP3    H212691   2.621   2.462   2.957 -0.0038 -0.4148 -0.6819
 4229TIP3   OH212692   3.417   5.162   2.444  0.1180 -0.2538  0.2815
 4229TIP3    H112693   3.378   5.168   2.531 -0.5433 -2.0781  0.1563
 4229TIP3    H212694   3.353   5.204   2.386  0.1728  0.2269  0.5645
 4230TIP3   OH212695   0.115   3.835   5.168  0.4355  0.8383  0.0902
 4230TIP3    H112696   0.041   3.776   5.157 -0.3828  1.6587  0.9405
 4230TIP3    H212697   0.192   3.779   5.163 -0.3097 -0.2977  0.8694
 4231TIP3   OH212698   4.548   1.573   4.830 -0.1200 -0.5139 -0.2585
 4231TIP3    H112699   4.643   1.567   4.821 -0.2074 -0.8243 -0.9894
 4231TIP3    H212700   4.522   1.635   4.762 -0.4844 -0.7323 -0.3168
 4232TIP3   OH212701   6.261   3.721   2.227 -0.4423  0.4479 -0.1240
 4232TIP3    H112702   6.297   3.805   2.199 -1.2645  1.3662  1.4529
 4232TIP3    H212703   6.231   3.736   2.317  0.7792 -1.9418  0.7772
 4233TIP3   OH212704   0.494   3.843   3.846 -0.0808 -0.5753 -0.1247
 4233TIP3    H112705   0.476   3.788   3.770 -0.1540  0.3891 -0.8290
 4233TIP3    H212706   0.411   3.885   3.865 -0.8585 -2.9206  2.3114
 4234TIP3   OH212707   1.632   1.127   4.728  0.1838  0.0781  0.3037
 4234TIP3    H112708   1.696   1.197   4.738  0.7496 -0.1600 -1.3112
 4234TIP3    H212709   1.677   1.061   4.675 -2.1361  1.0183 -3.2374
 4235TIP3   OH212710   5.022   3.660   1.526  0.3320 -0.8497 -0.4162
 4235TIP3    H112711   5.039   3.608   1.604  1.1029 -0.4633 -0.3201
 4235TIP3    H212712   5.008   3.595   1.456 -1.3858 -1.2223  0.2164
 4236TIP3   OH212713   0.062   2.624   3.124 -0.3301 -0.1555 -0.1617
 4236TIP3    H112714   0.082   2.546   3.072  1.7911  1.0122 -1.2085
 4236TIP3    H212715  -0.012   2.664   3.079  0.4356 -0.0338 -1.3520
 4237TIP3   OH212716   6.080   0.366   5.134  0.0524 -0.1367  0.3851
 4237TIP3    H112717   6.162   0.352   5.180  1.3316  1.6229 -1.2083
 4237TIP3    H212718   6.083   0.457   5.106 -2.5966  0.0599  0.5044
 4238TIP3   OH212719   5.576   4.547   0.802  0.0868  0.0512  0.1212
 4238TIP3    H112720   5.595   4.603   0.727 -1.1553 -1.2066 -1.2009
 4238TIP3    H212721   5.656   4.498   0.817 -0.2585 -1.2195 -1.8078
 4239TIP3   OH212722   4.121   3.083   4.966 -0.3143  0.1514 -0.4342
 4239TIP3    H112723   4.212   3.062   4.986 -1.0053 -2.5108  0.2911
 4239TIP3    H212724   4.119   3.179   4.963  1.6025  0.5864  4.1124
 4240TIP3   OH212725   3.503   0.655   0.283 -0.2742  0.1091  0.3382
 4240TIP3    H112726   3.552   0.618   0.357 -1.1230  2.1378  2.0048
 4240TIP3    H212727   3.423   0.603   0.278  0.5058 -1.0675 -0.2280
 4241TIP3   OH212728   4.035   0.200   0.536  0.4955 -0.1417  0.3514
 4241TIP3    H112729   4.019   0.151   0.617  1.8048  0.3465  0.9288
 4241TIP3    H212730   4.008   0.289   0.556 -0.9794 -0.3852 -0.3947
 4242TIP3   OH212731   4.351   1.211   3.488 -0.4964 -0.3147 -0.1514
 4242TIP3    H112732   4.272   1.165   3.459 -2.8253  2.6356  1.0371
 4242TIP3    H212733   4.364   1.280   3.423  1.7013 -1.2194 -0.7806
 4243TIP3   OH212734   1.091   2.816   0.376  0.9377  0.4340 -0.1245
 4243TIP3    H112735   1.132   2.856   0.299  0.5223 -0.1059 -0.6292
 4243TIP3    H212736   1.129   2.728   0.380 -0.3130 -0.1519 -0.7230
 4244TIP3   OH212737   1.317   1.415   1.565  0.1974  0.0101  0.4313
 4244TIP3    H112738   1.397   1.363   1.564  1.1408  1.3993  0.6258
 4244TIP3    H212739   1.264   1.375   1.634  0.3941 -1.3730 -0.1838
 4245TIP3   OH212740   2.640   2.747   2.692 -0.4457 -0.5895  0.2432
 4245TIP3    H112741   2.594   2.666   2.672  0.2281 -1.1304  0.8475
 4245TIP3    H212742   2.571   2.807   2.720 -0.8293 -1.3213  0.9221
 4246TIP3   OH212743   3.703   1.164   1.685  0.0598  0.2407 -0.3130
 4246TIP3    H112744   3.628   1.109   1.707 -0.2773 -0.1700 -2.2540
 4246TIP3    H212745   3.706   1.163   1.589  1.3729  1.8487 -0.3396
 4247TIP3   OH212746   4.893   3.289   4.603  0.1671 -0.0918  0.5157
 4247TIP3    H112747   4.853   3.376   4.599  1.3526  0.4165 -1.8204
 4247TIP3    H212748   4.983   3.306   4.631  0.0738 -0.7272  1.2327
 4248TIP3   OH212749   2.650   2.627   4.261 -1.0146 -0.2931 -0.1039
 4248TIP3    H112750   2.591   2.614   4.187 -0.9033  0.7983 -0.4065
 4248TIP3    H212751   2.693   2.542   4.273  1.1438  0.2023 -3.1947
 4249TIP3   OH212752   3.569   2.658   2.676 -0.2237 -0.3769  0.7222
 4249TIP3    H112753   3.490   2.639   2.726 -1.6508  1.3988 -0.7091
 4249TIP3    H212754   3.540   2.660   2.585  1.2195  1.4143  0.2400
 4250TIP3   OH212755   1.490   5.260   0.222 -0.4237  0.1291  0.0836
 4250TIP3    H112756   1.562   5.212   0.180  0.5168  0.4785  1.2216
 4250TIP3    H212757   1.473   5.333   0.163 -1.0901 -0.9193 -1.0925
 4251TIP3   OH212758   5.316   5.432   4.008 -0.1069 -0.0044  0.0602
 4251TIP3    H112759   5.283   5.519   4.031  0.7332  1.1986 -2.8580
 4251TIP3    H212760   5.289   5.418   3.918  0.1018 -2.6708  0.3149
 4252TIP3   OH212761   1.491   5.864   0.938  0.0346 -0.0699 -0.2158
 4252TIP3    H112762   1.463   5.772   0.944 -1.6408  0.4523  0.5462
 4252TIP3    H212763   1.465   5.892   0.851  2.6574 -0.9043 -1.3843
 4253TIP3   OH212764   1.608   4.579   2.843 -0.0958 -0.4557  0.7322
 4253TIP3    H112765   1.580   4.574   2.752 -0.0362 -1.4052  0.7596
 4253TIP3    H212766   1.691   4.531   2.846  1.2515  1.7186  0.7863
 4254TIP3   OH212767   0.505   2.065   1.823 -0.2379  0.4675  0.1807
 4254TIP3    H112768   0.593   2.103   1.815 -0.6204  1.6046  1.1298
 4254TIP3    H212769   0.452   2.113   1.760 -0.4969  0.7732  0.6340
 4255TIP3   OH212770   5.319   4.372   0.551  0.0331  0.2481 -0.4231
 4255TIP3    H112771   5.303   4.415   0.466 -2.5970  0.9348  0.3269
 4255TIP3    H212772   5.298   4.439   0.616  1.3766 -0.4728  0.7925
 4256TIP3   OH212773   3.819   3.827   2.426  0.1706  0.1229 -0.7079
 4256TIP3    H112774   3.856   3.738   2.428 -0.6244 -0.2873 -2.3192
 4256TIP3    H212775   3.895   3.884   2.416  0.7944 -0.2385  1.3461
 4257TIP3   OH212776   4.829   4.256   1.819 -0.0348  0.1993 -0.2362
 4257TIP3    H112777   4.787   4.334   1.781 -0.2389 -0.1276 -0.6877
 4257TIP3    H212778   4.878   4.290   1.894 -0.4418  0.7061 -0.1927
 4258TIP3   OH212779   3.848   5.909   4.847 -0.3051  0.2435  0.3660
 4258TIP3    H112780   3.852   5.815   4.860  1.6890 -0.1876 -2.4420
 4258TIP3    H212781   3.843   5.945   4.936 -0.7890 -2.4570  1.5369
 4259TIP3   OH212782   5.425   3.628   0.640 -0.0457 -0.0898  0.2697
 4259TIP3    H112783   5.343   3.675   0.623  0.2613  0.1968 -0.4245
 4259TIP3    H212784   5.397   3.547   0.683 -0.7073 -0.0456 -0.0615
 4260TIP3   OH212785   0.096   4.497   3.586  0.0421 -0.5380  0.9757
 4260TIP3    H112786   0.154   4.482   3.511 -0.1550 -2.5069  1.1687
 4260TIP3    H212787   0.041   4.570   3.559 -0.9894 -2.0685 -1.4276
 4261TIP3   OH212788   1.498   1.075   3.719  0.0185 -0.0473  0.1286
 4261TIP3    H112789   1.478   0.996   3.769 -0.4943 -0.3171 -0.4848
 4261TIP3    H212790   1.498   1.146   3.783 -0.3110 -0.4331  0.5523
 4262TIP3   OH212791   2.944   4.648   2.323 -0.1502  0.1465 -0.3396
 4262TIP3    H112792   2.895   4.717   2.280 -0.0021  0.4064 -0.0937
 4262TIP3    H212793   2.878   4.586   2.353 -0.3226  0.4456 -0.0989
 4263TIP3   OH212794   1.857   0.665   3.394 -0.5970 -0.0193  0.4667
 4263TIP3    H112795   1.888   0.754   3.378  2.4725 -1.1108 -0.4774
 4263TIP3    H212796   1.830   0.633   3.308 -1.1770 -0.1615  0.7012
 4264TIP3   OH212797   5.385   2.187   1.983  0.2503  0.1002 -0.0185
 4264TIP3    H112798   5.460   2.237   2.016 -1.1719  2.4161 -0.0514
 4264TIP3    H212799   5.342   2.154   2.062 -0.0758  0.9155  0.1509
 4265TIP3   OH212800   3.558   0.389   3.597  0.3707 -0.2436  0.2463
 4265TIP3    H112801   3.622   0.362   3.662  1.7387  1.5554 -0.2740
 4265TIP3    H212802   3.584   0.478   3.572 -2.0205  0.3673 -0.3961
 4266TIP3   OH212803   3.616   0.719   0.676 -0.1349 -0.4476 -0.6135
 4266TIP3    H112804   3.617   0.729   0.581  2.1609  0.6876 -0.5390
 4266TIP3    H212805   3.572   0.797   0.708  0.2454 -0.1962 -0.7029
 4267TIP3   OH212806   4.931   4.631   2.653 -0.2017 -0.1351  0.5268
 4267TIP3    H112807   4.990   4.593   2.588  1.1904  1.0064  1.0759
 4267TIP3    H212808   4.879   4.557   2.684  0.3832 -1.0279 -0.5408
 4268TIP3   OH212809   2.768   1.751   0.500  0.0396 -0.3465 -0.1769
 4268TIP3    H112810   2.704   1.689   0.465  0.0289 -0.7338  0.5189
 4268TIP3    H212811   2.844   1.697   0.523  0.2539 -0.0173 -0.1022
 4269TIP3   OH212812   6.016   4.149   0.088  0.2062 -0.2333 -0.0549
 4269TIP3    H112813   6.067   4.067   0.088 -1.2512 -1.1915 -1.4740
 4269TIP3    H212814   5.938   4.129   0.037 -1.1880  1.4666  1.2914
 4270TIP3   OH212815   5.516   1.497   3.816 -0.3474 -0.0490  0.0923
 4270TIP3    H112816   5.507   1.419   3.761 -1.8811 -0.0839  0.3363
 4270TIP3    H212817   5.570   1.469   3.890 -0.7116 -0.8215  0.0705
 4271TIP3   OH212818   0.555   3.776   2.966  0.2451 -1.0052  0.1178
 4271TIP3    H112819   0.644   3.754   2.938  0.0321 -0.4430 -1.0300
 4271TIP3    H212820   0.561   3.781   3.062  1.7991  0.5605 -0.0224
 4272TIP3   OH212821   6.216   2.788   3.419 -0.4556  0.3080 -0.3188
 4272TIP3    H112822   6.156   2.773   3.346 -1.0692 -0.2016  0.2726
 4272TIP3    H212823   6.221   2.704   3.463  1.0294  0.2420 -0.5903
 4273TIP3   OH212824   2.736   2.470   3.914 -0.0368 -0.1047 -0.4797
 4273TIP3    H112825   2.820   2.487   3.957  0.1557  1.6922 -1.4979
 4273TIP3    H212826   2.705   2.390   3.956  2.0277 -0.6623  0.1377
 4274TIP3   OH212827   5.491   4.559   4.579  0.0764  0.3599 -0.3999
 4274TIP3    H112828   5.547   4.556   4.657  1.1926  0.9682 -1.1546
 4274TIP3    H212829   5.491   4.470   4.546 -0.5251  0.0631  0.3646
 4275TIP3   OH212830   3.198   4.689   3.332  0.0840  0.2406 -0.1032
 4275TIP3    H112831   3.215   4.783   3.337 -2.8111  0.8336  0.5123
 4275TIP3    H212832   3.146   4.679   3.252  1.6180 -1.1223 -0.9833
 4276TIP3   OH212833   0.619   0.707   0.386 -0.1547 -0.2838  0.0912
 4276TIP3    H112834   0.668   0.778   0.346 -0.4096 -0.1960 -0.0644
 4276TIP3    H212835   0.653   0.701   0.475  1.3378 -1.3266 -0.5028
 4277TIP3   OH212836   6.038   3.136   1.424 -0.1840 -0.0482  0.5092
 4277TIP3    H112837   6.038   3.130   1.328  0.5851  2.3805  0.2703
 4277TIP3    H212838   5.945   3.141   1.447 -0.3655  0.4550 -0.2542
 4278TIP3   OH212839   4.334   3.098   2.022  0.1064 -0.0089  0.3266
 4278TIP3    H112840   4.377   3.082   1.938 -0.0006 -0.3254  0.3297
 4278TIP3    H212841   4.242   3.112   2.000 -0.2465 -1.7878  0.5287
 4279TIP3   OH212842   6.042   3.997   2.223 -0.0842  0.3874 -0.0431
 4279TIP3    H112843   6.078   4.084   2.237  2.7005 -0.5819 -0.4730
 4279TIP3    H212844   6.067   3.947   2.300  0.4598 -0.6041 -0.8250
 4280TIP3   OH212845   0.805   5.818   4.196 -0.4342 -0.7838  0.1538
 4280TIP3    H112846   0.811   5.753   4.126  3.0508 -0.5066  0.0481
 4280TIP3    H212847   0.777   5.898   4.152  0.0862 -1.0242 -0.6293
 4281TIP3   OH212848   3.783   0.316   1.772  0.0843  0.9141  0.3330
 4281TIP3    H112849   3.830   0.244   1.814  1.2302  2.3608  1.6482
 4281TIP3    H212850   3.830   0.331   1.690  1.7636  2.0571  1.4305
 4282TIP3   OH212851   3.094   0.704   4.249  1.0471  0.1716  0.3338
 4282TIP3    H112852   3.026   0.770   4.258  1.4319  0.6682 -0.2909
 4282TIP3    H212853   3.104   0.667   4.337 -0.6511 -0.5565  0.2546
 4283TIP3   OH212854   4.237   3.405   1.912 -0.2887 -0.3073  0.3972
 4283TIP3    H112855   4.295   3.389   1.987 -1.3480 -0.5031  1.2085
 4283TIP3    H212856   4.296   3.421   1.839  0.7934 -0.9896  1.0825
 4284TIP3   OH212857   4.533   0.168   5.044  0.0092  0.1283 -0.2494
 4284TIP3    H112858   4.454   0.124   5.077 -0.3888  0.0976 -1.2143
 4284TIP3    H212859   4.501   0.253   5.012  0.8623  1.5070  2.2365
 4285TIP3   OH212860   3.194   0.738   2.039  0.0721 -0.3916 -0.1872
 4285TIP3    H112861   3.182   0.678   2.113 -0.6291 -0.1810 -0.1213
 4285TIP3    H212862   3.235   0.685   1.971 -0.3189 -0.8851 -0.0421
 4286TIP3   OH212863   6.073   3.746   2.416 -0.4754  0.1562  0.4706
 4286TIP3    H112864   6.099   3.654   2.425  1.3047  0.3576 -1.7385
 4286TIP3    H212865   6.021   3.764   2.494 -2.0423 -3.0921  0.3457
 4287TIP3   OH212866   5.167   3.377   2.909 -0.3114 -0.3148 -0.4603
 4287TIP3    H112867   5.121   3.295   2.928 -1.5242 -0.0732 -2.0958
 4287TIP3    H212868   5.142   3.435   2.981  2.6960 -2.0261  2.2626
 4288TIP3   OH212869   4.138   5.293   0.384 -0.2749 -0.2377 -0.5646
 4288TIP3    H112870   4.113   5.366   0.441 -1.4094 -0.0499 -1.2830
 4288TIP3    H212871   4.200   5.242   0.437 -1.1969 -0.0003  0.8003
 4289TIP3   OH212872   3.952   1.479   1.562 -0.5371 -0.0181 -0.3617
 4289TIP3    H112873   3.915   1.454   1.647 -0.1192  1.0183  0.1540
 4289TIP3    H212874   3.948   1.400   1.509  0.0182 -0.9466  0.9216
 4290TIP3   OH212875   0.323   2.245   0.246  0.6473 -0.4304  0.3563
 4290TIP3    H112876   0.256   2.218   0.309 -0.4720  0.6349 -0.3267
 4290TIP3    H212877   0.406   2.229   0.291 -0.0294 -2.1711  1.0742
 4291TIP3   OH212878   5.146   4.191   3.881 -0.1656 -0.0181 -0.2706
 4291TIP3    H112879   5.146   4.096   3.869  0.6125  0.1111 -1.4516
 4291TIP3    H212880   5.213   4.206   3.948  1.4468 -0.1456 -1.7938
 4292TIP3   OH212881   5.941   1.758   4.708 -0.7760  0.3475  0.4516
 4292TIP3    H112882   5.894   1.817   4.649  1.0593 -1.1821 -2.8193
 4292TIP3    H212883   6.029   1.795   4.715 -0.1572 -0.9424 -0.1310
 4293TIP3   OH212884   2.394   4.291   2.893  0.0153 -0.1680 -0.1692
 4293TIP3    H112885   2.391   4.196   2.884  0.2926 -0.2849  0.8008
 4293TIP3    H212886   2.383   4.306   2.987  3.5084  0.5340  0.2742
 4294TIP3   OH212887   4.860   1.437   2.048  0.6858 -0.2328 -0.0300
 4294TIP3    H112888   4.825   1.493   2.117  1.2228 -0.3036  0.3050
 4294TIP3    H212889   4.853   1.490   1.968 -0.1798 -0.2474  0.0209
 4295TIP3   OH212890   0.076   1.749   0.011  0.4936  0.1580  0.3312
 4295TIP3    H112891   0.068   1.685   0.082  0.8879  1.1784  1.3330
 4295TIP3    H212892   0.013   1.817   0.032  1.0656  0.7889  0.0571
 4296TIP3   OH212893   5.655   2.686   0.987 -0.4946 -0.5200 -0.3275
 4296TIP3    H112894   5.687   2.596   0.986  1.0477  0.0128 -0.9243
 4296TIP3    H212895   5.563   2.678   1.011 -0.6200 -2.3327 -1.2412
 4297TIP3   OH212896   3.886   1.734   1.927  0.0403 -1.0454 -0.0148
 4297TIP3    H112897   3.865   1.728   1.834 -0.8666 -0.4870  0.1462
 4297TIP3    H212898   3.938   1.815   1.934  0.1227 -1.0962 -0.0374
 4298TIP3   OH212899   5.128   2.613   0.747 -0.4239 -0.3482 -0.0822
 4298TIP3    H112900   5.100   2.552   0.815 -0.0307 -0.4483 -0.0051
 4298TIP3    H212901   5.202   2.660   0.786 -0.4966 -0.0781 -0.2711
 4299TIP3   OH212902   1.478   4.851   1.445 -0.8256  0.0084 -0.1645
 4299TIP3    H112903   1.442   4.763   1.452  0.3121 -0.5988 -1.4461
 4299TIP3    H212904   1.410   4.901   1.399 -0.8218 -0.6348 -0.8834
 4300TIP3   OH212905   1.046   4.530   0.199 -0.5049 -0.2854  0.6491
 4300TIP3    H112906   0.996   4.549   0.278 -0.9909  2.1054 -0.1533
 4300TIP3    H212907   0.981   4.508   0.133 -0.2531 -0.4006  0.4343
 4301TIP3   OH212908   5.932   0.091   3.210  0.1120  0.1976  0.2247
 4301TIP3    H112909   5.989   0.089   3.287 -1.5976  0.3354  1.5511
 4301TIP3    H212910   5.848   0.123   3.243 -0.1979  1.9681 -2.0613
 4302TIP3   OH212911   4.798   1.079   3.526 -0.0728  0.6055  0.3382
 4302TIP3    H112912   4.753   1.054   3.607 -0.3949  1.7209  0.5226
 4302TIP3    H212913   4.828   1.168   3.541  0.3957  0.6159 -0.5552
 4303TIP3   OH212914   1.261   4.423   1.248  0.6443 -0.8277  0.2935
 4303TIP3    H112915   1.301   4.361   1.309 -1.5092 -3.0447 -0.4230
 4303TIP3    H212916   1.288   4.393   1.162 -0.5956 -0.9518 -0.0738
 4304TIP3   OH212917   1.796   4.261   0.002 -0.5606  1.0764  0.2240
 4304TIP3    H112918   1.716   4.252   0.052 -0.4002 -4.5424  0.0012
 4304TIP3    H212919   1.864   4.281   0.067 -1.3448  0.5867  1.1976
 4305TIP3   OH212920   2.912   2.054   4.413 -0.3363  0.2565 -1.0470
 4305TIP3    H112921   3.000   2.077   4.382  1.1380 -2.5269  0.6662
 4305TIP3    H212922   2.892   2.121   4.478  0.3256  1.1135 -1.6901
 4306TIP3   OH212923   2.759   3.066   2.649  0.2850  0.3466  0.7576
 4306TIP3    H112924   2.713   3.088   2.730 -0.6115  1.3085  0.0103
 4306TIP3    H212925   2.691   3.062   2.582  1.2230  1.5942 -0.3448
 4307TIP3   OH212926   5.693   3.579   2.323 -0.1479 -0.6143 -0.0081
 4307TIP3    H112927   5.720   3.543   2.407  0.3603  0.4151  0.2840
 4307TIP3    H212928   5.724   3.669   2.324  0.1011 -0.6546 -1.4084
 4308TIP3   OH212929   5.902   1.798   4.184 -0.1937 -0.3500  0.2538
 4308TIP3    H112930   5.957   1.739   4.234  1.4448 -0.2961 -1.3697
 4308TIP3    H212931   5.948   1.882   4.186  0.0335 -0.3933 -1.4378
 4309TIP3   OH212932   3.115   3.265   1.405 -0.0175 -0.8211  0.1878
 4309TIP3    H112933   3.183   3.219   1.454 -0.0468 -0.3707  0.6692
 4309TIP3    H212934   3.162   3.311   1.335  0.1214 -0.8721  0.2475
 4310TIP3   OH212935   1.144   4.343   3.500  0.1574 -0.1915  0.2951
 4310TIP3    H112936   1.159   4.413   3.563  0.0104 -0.7950  1.0233
 4310TIP3    H212937   1.071   4.293   3.537 -1.7366  0.9336 -1.6460
 4311TIP3   OH212938   2.680   3.866   2.939 -0.1415  0.2116  0.2528
 4311TIP3    H112939   2.677   3.797   2.872  0.3214 -1.3008  1.7115
 4311TIP3    H212940   2.769   3.900   2.934  0.4373 -1.0810  1.1797
 4312TIP3   OH212941   6.258   1.427   3.875 -0.1857  0.4916  0.1384
 4312TIP3    H112942   6.348   1.460   3.872 -0.5365  1.7809  2.0895
 4312TIP3    H212943   6.265   1.347   3.927 -0.4343  1.8386  2.3620
 4313TIP3   OH212944   4.940   5.366   3.539 -0.5884 -0.1408 -0.0748
 4313TIP3    H112945   4.846   5.386   3.533 -0.1145  1.9212 -2.6810
 4313TIP3    H212946   4.971   5.372   3.448  2.1901 -0.2418  0.7826
 4314TIP3   OH212947   5.104   4.893   1.554  0.0438 -0.0837 -0.5545
 4314TIP3    H112948   5.140   4.955   1.490  1.0930 -1.4595 -1.3433
 4314TIP3    H212949   5.181   4.856   1.598 -0.6068 -0.2536  0.4891
 4315TIP3   OH212950   6.283   5.180   2.568  0.3998 -0.0405 -0.0576
 4315TIP3    H112951   6.368   5.151   2.600  0.7647 -0.6058 -1.4871
 4315TIP3    H212952   6.303   5.246   2.502 -0.2623 -0.1810 -0.4100
 4316TIP3   OH212953   0.428   2.305   4.960 -0.0602 -0.4236 -0.8276
 4316TIP3    H112954   0.348   2.254   4.947 -0.3683 -0.8166  1.9665
 4316TIP3    H212955   0.495   2.239   4.979  0.3838  0.0321 -0.7820
 4317TIP3   OH212956   2.498   4.627   1.502  0.1283 -0.4188  0.1102
 4317TIP3    H112957   2.463   4.693   1.561  0.1441 -1.5306  1.4017
 4317TIP3    H212958   2.479   4.660   1.414 -1.3296  0.5054  0.7457
 4318TIP3   OH212959   0.543   2.565   0.051 -0.0573  0.0322  0.2962
 4318TIP3    H112960   0.615   2.624   0.071 -0.1241  0.1070  0.3206
 4318TIP3    H212961   0.583   2.491   0.006  0.1062 -0.1632  0.7529
 4319TIP3   OH212962   4.072   3.823   4.730 -0.4986  0.2439 -0.1241
 4319TIP3    H112963   4.118   3.866   4.803  0.2883 -0.2483 -0.3105
 4319TIP3    H212964   4.016   3.891   4.693 -0.2180  0.7537  0.3740
 4320TIP3   OH212965   1.679   1.991   2.642 -0.3177 -0.3423  0.3338
 4320TIP3    H112966   1.648   1.918   2.589 -2.1272 -0.9285  2.0926
 4320TIP3    H212967   1.628   2.066   2.612 -0.7196 -0.4881  0.6480
 4321TIP3   OH212968   2.361   5.559   2.864 -0.3613 -0.2279 -0.3178
 4321TIP3    H112969   2.357   5.550   2.768 -0.8346  1.2194 -0.4534
 4321TIP3    H212970   2.452   5.580   2.882 -0.5302  0.8224 -0.6048
 4322TIP3   OH212971   3.277   1.760   3.758 -0.0689 -0.4571 -0.3177
 4322TIP3    H112972   3.327   1.841   3.767  1.8837 -1.4830 -1.2579
 4322TIP3    H212973   3.221   1.775   3.682 -1.4228  0.7806  0.8645
 4323TIP3   OH212974   2.699   0.702   4.516  0.9050  0.5090  0.1419
 4323TIP3    H112975   2.712   0.746   4.432  1.8467  0.3813  0.2071
 4323TIP3    H212976   2.783   0.710   4.560  0.8218 -0.5562  0.5306
 4324TIP3   OH212977   3.750   1.714   2.164  0.1577  0.3650 -0.1509
 4324TIP3    H112978   3.786   1.633   2.199 -0.9351  0.2381  0.7329
 4324TIP3    H212979   3.795   1.726   2.080  1.7429 -0.1302  0.5760
 4325TIP3   OH212980   2.150   2.478   3.865 -0.2314 -0.1322 -0.4198
 4325TIP3    H112981   2.074   2.505   3.916  1.1110  1.7789  0.6988
 4325TIP3    H212982   2.200   2.559   3.850  1.1806 -1.1789 -1.8237
 4326TIP3   OH212983   1.793   2.499   1.380  0.1491  0.0324 -0.1078
 4326TIP3    H112984   1.791   2.429   1.315  2.5238 -1.8850  1.6682
 4326TIP3    H212985   1.710   2.490   1.428  0.4810 -1.7677  0.1996
 4327TIP3   OH212986   2.699   4.366   3.477  0.1372  0.1418 -0.1440
 4327TIP3    H112987   2.661   4.412   3.403 -0.0325 -1.1497 -0.8741
 4327TIP3    H212988   2.718   4.278   3.445  1.3662 -0.0336  0.9367
 4328TIP3   OH212989   5.114   0.214   1.220 -0.1143  0.3081  0.2235
 4328TIP3    H112990   5.209   0.207   1.217 -0.0575  1.0299  0.0895
 4328TIP3    H212991   5.086   0.140   1.274  0.4283 -0.6251 -0.7226
 4329TIP3   OH212992   4.307   2.332   1.501 -0.2399  0.3325 -0.1203
 4329TIP3    H112993   4.313   2.395   1.574  0.7356  0.0258  0.0819
 4329TIP3    H212994   4.397   2.326   1.468 -0.4329 -0.5436 -0.4905
 4330TIP3   OH212995   1.922   5.938   1.386 -0.7936  0.2582 -0.1372
 4330TIP3    H112996   1.877   6.009   1.431 -0.1220 -0.5880  1.9858
 4330TIP3    H212997   1.951   5.976   1.303  0.3097  2.7099  1.2887
 4331TIP3   OH212998   0.169   3.194   5.107  0.5810  0.5109 -0.1496
 4331TIP3    H112999   0.076   3.194   5.081  0.7795 -0.8426 -0.9263
 4331TIP3    H213000   0.212   3.244   5.038  0.3436  1.8817  0.6560
 4332TIP3   OH213001   3.047   3.005   1.300 -0.5854  0.2373  0.2012
 4332TIP3    H113002   2.993   2.979   1.374 -1.9774  1.4034 -0.3618
 4332TIP3    H213003   3.077   3.093   1.322 -2.3255  1.2655 -1.2490
 4333TIP3   OH213004   1.762   1.006   2.768 -0.2666  0.5130  0.7109
 4333TIP3    H113005   1.685   1.002   2.711  0.3806  2.2623 -0.3666
 4333TIP3    H213006   1.732   1.052   2.846 -0.8985 -0.9928  1.3971
 4334TIP3   OH213007   2.552   5.134   1.499  0.5135  0.0235 -0.1333
 4334TIP3    H113008   2.592   5.051   1.471  1.9750  0.1131  1.5241
 4334TIP3    H213009   2.476   5.144   1.442  2.1703 -0.7679 -2.6391
 4335TIP3   OH213010   5.278   5.425   2.959  0.5329  0.1797  0.0254
 4335TIP3    H113011   5.329   5.468   3.028 -0.2723  1.0103  0.1223
 4335TIP3    H213012   5.327   5.442   2.879  1.3797 -0.6336  0.3471
 4336TIP3   OH213013   2.159   3.406   3.012  0.3039  0.7533  0.4045
 4336TIP3    H113014   2.169   3.500   3.003  0.8593  0.8790  1.9935
 4336TIP3    H213015   2.082   3.384   2.961  0.5476  1.9688 -0.5078
 4337TIP3   OH213016   2.953   2.607   2.730  0.3774 -0.5461 -0.0731
 4337TIP3    H113017   2.978   2.521   2.697 -0.1291 -1.5385  2.0214
 4337TIP3    H213018   2.927   2.656   2.651 -0.1844 -2.5727 -1.2170
 4338TIP3   OH213019   0.806   2.068   3.768  0.3540  0.7537 -0.2912
 4338TIP3    H113020   0.882   2.097   3.820 -0.6090  1.2368  0.8881
 4338TIP3    H213021   0.763   2.003   3.823  0.5633 -0.4080 -1.4653
 4339TIP3   OH213022   3.634   5.011   4.209 -0.3517 -0.4791 -0.7292
 4339TIP3    H113023   3.674   4.962   4.281 -0.9458 -0.5554 -0.4406
 4339TIP3    H213024   3.541   4.988   4.213 -0.9159  1.6248  0.2566
 4340TIP3   OH213025   3.594   4.566   4.589 -0.7092  0.3372 -0.7440
 4340TIP3    H113026   3.663   4.629   4.611  0.0551 -0.4387 -0.8997
 4340TIP3    H213027   3.567   4.591   4.500 -0.5566  0.5636 -0.7280
 4341TIP3   OH213028   3.879   5.619   4.815  0.5496  0.0950 -0.2368
 4341TIP3    H113029   3.796   5.580   4.789  0.0610 -0.4438  1.9097
 4341TIP3    H213030   3.946   5.566   4.771 -0.2088 -0.7913 -0.3416
 4342TIP3   OH213031   6.268   5.491   3.479 -0.3731 -0.3996 -1.0132
 4342TIP3    H113032   6.242   5.541   3.402 -0.2751  0.3118 -0.5958
 4342TIP3    H213033   6.225   5.536   3.552  1.3471  0.3455 -0.4002
 4343TIP3   OH213034   4.233   2.245   2.318 -0.4223  0.2643 -0.3339
 4343TIP3    H113035   4.311   2.227   2.371 -0.8379 -0.9799 -0.1133
 4343TIP3    H213036   4.248   2.332   2.283  0.8612  0.2348  0.0810
 4344TIP3   OH213037   3.118   3.949   3.834 -0.0932  0.6484 -0.4697
 4344TIP3    H113038   3.195   3.973   3.783  1.6220 -0.4174  1.4630
 4344TIP3    H213039   3.094   4.029   3.881 -0.2192  0.9929 -1.1083
 4345TIP3   OH213040   4.038   0.269   1.241  0.2782  0.1868  0.1652
 4345TIP3    H113041   4.074   0.188   1.206  1.3812  0.8231 -0.2006
 4345TIP3    H213042   3.951   0.275   1.202  1.5427  1.0096 -2.7647
 4346TIP3   OH213043   1.809   5.927   2.092  0.5568 -0.2936  0.1101
 4346TIP3    H113044   1.754   5.875   2.034 -0.3954  1.7454 -0.8908
 4346TIP3    H213045   1.785   5.898   2.180 -0.6783 -0.8100 -0.3805
 4347TIP3   OH213046   2.111   0.805   0.541  0.3865  0.6783 -0.0754
 4347TIP3    H113047   2.083   0.762   0.622  0.6095 -0.2814 -0.4881
 4347TIP3    H213048   2.088   0.743   0.472 -0.6583  1.8958 -0.8544
 4348TIP3   OH213049   4.610   5.198   4.569  0.0545  0.2073  0.1232
 4348TIP3    H113050   4.623   5.179   4.662 -0.5515 -2.2325 -0.2309
 4348TIP3    H213051   4.574   5.286   4.567  0.0709  0.3034  2.1927
 4349TIP3   OH213052   3.027   5.395   1.964 -0.0963 -0.2677  0.0372
 4349TIP3    H113053   3.109   5.375   1.920  0.0191  0.0446  0.1073
 4349TIP3    H213054   2.961   5.393   1.895  0.3851  2.3490 -0.5746
 4350TIP3   OH213055   0.463   1.021   0.238 -0.4461  0.3121  0.5518
 4350TIP3    H113056   0.443   0.949   0.296 -0.0433  0.5538  0.9942
 4350TIP3    H213057   0.483   0.980   0.154 -0.1371 -0.0911  0.8223
 4351TIP3   OH213058   2.498   2.344   3.748 -0.3714  0.4526  0.1036
 4351TIP3    H113059   2.575   2.329   3.803 -0.5474 -1.0620 -0.0221
 4351TIP3    H213060   2.425   2.349   3.809 -0.2249  1.7382  0.2102
 4352TIP3   OH213061   0.468   0.082   4.950 -0.5869  0.0492  0.1745
 4352TIP3    H113062   0.476   0.115   4.861  1.3422  1.8167  0.9147
 4352TIP3    H213063   0.397   0.132   4.989 -0.2789  0.5182  0.1319
 4353TIP3   OH213064   4.189   0.407   0.955 -0.0451  0.6723 -0.1178
 4353TIP3    H113065   4.100   0.440   0.964  0.0311  1.3392 -1.6266
 4353TIP3    H213066   4.244   0.473   0.997 -0.3075 -0.5187  2.3456
 4354TIP3   OH213067   1.481   2.813   4.375  0.0559  0.8024 -0.1297
 4354TIP3    H113068   1.439   2.748   4.318 -0.0602  2.2479 -1.7547
 4354TIP3    H213069   1.575   2.794   4.367  0.0488  1.0779 -0.9222
 4355TIP3   OH213070   3.057   0.033   3.153 -0.1256 -0.5509  0.2045
 4355TIP3    H113071   2.970   0.012   3.189 -0.0171  0.0845  0.8662
 4355TIP3    H213072   3.083   0.112   3.200  0.7832 -0.6926 -0.0530
 4356TIP3   OH213073   4.183   5.158   0.718 -0.0243 -0.1704 -0.5381
 4356TIP3    H113074   4.165   5.080   0.772 -0.4452  0.1320 -0.2333
 4356TIP3    H213075   4.096   5.194   0.700  0.1806  0.3296 -0.5262
 4357TIP3   OH213076   1.766   3.246   4.969 -0.5501 -0.0472 -0.0846
 4357TIP3    H113077   1.786   3.196   4.890 -0.2908 -0.9554  0.5385
 4357TIP3    H213078   1.682   3.211   4.998 -0.4492  0.0044  0.2684
 4358TIP3   OH213079   5.059   1.933   1.127 -0.3344 -0.4779 -0.5959
 4358TIP3    H113080   5.093   2.019   1.101 -0.7215 -0.3496 -0.6918
 4358TIP3    H213081   5.136   1.882   1.149 -0.1121  0.0022 -0.2235
 4359TIP3   OH213082   3.650   5.472   0.789  0.2496  0.2855  0.2876
 4359TIP3    H113083   3.567   5.439   0.822  2.0852 -3.2767  1.9329
 4359TIP3    H213084   3.657   5.434   0.701  0.3588  0.1048  0.3732
 4360TIP3   OH213085   6.330   3.414   4.239 -0.6092 -0.1397 -0.7004
 4360TIP3    H113086   6.254   3.417   4.297 -0.1404 -0.2184 -0.0652
 4360TIP3    H213087   6.293   3.409   4.151 -1.3598 -1.4403 -0.3512
 4361TIP3   OH213088   5.942   3.664   3.314 -0.0533 -0.1711 -0.7247
 4361TIP3    H113089   5.989   3.705   3.241  0.0527 -0.5037 -0.8451
 4361TIP3    H213090   6.001   3.595   3.344 -0.0303  0.0677 -0.2236
 4362TIP3   OH213091   1.956   2.287   3.932  0.3749 -0.2320  0.3038
 4362TIP3    H113092   1.934   2.234   3.856  0.2487  1.7451 -1.0957
 4362TIP3    H213093   2.049   2.268   3.948  0.6687  0.0928 -0.9691
 4363TIP3   OH213094   3.940   5.701   2.667  0.0335 -0.1750  0.0135
 4363TIP3    H113095   3.845   5.701   2.655 -0.0748 -0.2178  0.8767
 4363TIP3    H213096   3.965   5.610   2.650  0.0641  0.0330 -1.2075
 4364TIP3   OH213097   3.350   0.864   0.321  1.0130  0.7095  0.5429
 4364TIP3    H113098   3.271   0.820   0.290  0.4677  1.5684  0.6838
 4364TIP3    H213099   3.419   0.798   0.313  0.9228  0.8555 -2.4992
 4365TIP3   OH213100   1.995   3.205   4.087 -0.0135 -0.0463  0.3132
 4365TIP3    H113101   1.953   3.162   4.012 -0.2777  0.0013  0.4318
 4365TIP3    H213102   1.926   3.259   4.125  0.0859 -0.1586  0.6605
 4366TIP3   OH213103   1.145   4.166   0.794 -0.1031 -0.2652  0.4583
 4366TIP3    H113104   1.066   4.201   0.753  0.1335  1.1151  1.1145
 4366TIP3    H213105   1.113   4.100   0.856 -0.5992 -0.9085 -0.4588
 4367TIP3   OH213106   3.439   2.240   2.963  0.0585 -0.3757 -0.2925
 4367TIP3    H113107   3.374   2.262   3.029 -0.8112 -0.6014 -1.0484
 4367TIP3    H213108   3.439   2.315   2.903  1.2452  0.0804  0.2492
 4368TIP3   OH213109   0.607   4.066   0.437  0.5925 -0.0392 -0.0207
 4368TIP3    H113110   0.681   4.072   0.497  0.2469 -0.8442  0.5037
 4368TIP3    H213111   0.540   4.123   0.476  0.4185 -0.4526  0.2936
 4369TIP3   OH213112   5.805   1.525   3.083  0.0086  0.0211  0.2679
 4369TIP3    H113113   5.825   1.448   3.029 -1.5005  0.7233 -1.3950
 4369TIP3    H213114   5.883   1.580   3.075  0.4180 -0.5756  0.0700
 4370TIP3   OH213115   1.513   2.650   3.035 -0.0175  0.1567 -0.6895
 4370TIP3    H113116   1.435   2.662   2.980 -0.0831  0.9917 -0.4244
 4370TIP3    H213117   1.508   2.558   3.063 -0.4704 -0.0246 -1.3323
 4371TIP3   OH213118   3.146   4.505   4.107 -0.0856  0.2676  0.0626
 4371TIP3    H113119   3.138   4.600   4.096 -0.1717  0.0726 -1.7961
 4371TIP3    H213120   3.228   4.483   4.064  1.8902 -0.0904  3.6336
 4372TIP3   OH213121   0.990   0.942   4.409 -0.0878  0.0918  0.0327
 4372TIP3    H113122   1.034   0.860   4.431  0.8376  0.9899  1.7620
 4372TIP3    H213123   0.903   0.933   4.447  0.2024  0.1210  0.7170
 4373TIP3   OH213124   3.598   5.042   4.565 -0.5114  0.3517  0.0395
 4373TIP3    H113125   3.657   4.975   4.600 -2.4070 -0.3872  2.0319
 4373TIP3    H213126   3.653   5.120   4.557  1.2484 -0.8712 -0.3227
 4374TIP3   OH213127   3.098   1.741   4.158  0.2379  0.9699  0.2636
 4374TIP3    H113128   3.042   1.720   4.084  0.3995 -1.4514  0.7652
 4374TIP3    H213129   3.186   1.749   4.121  0.4590 -1.0796  0.2521
 4375TIP3   OH213130   2.352   3.779   0.283  0.0221  0.3438 -0.3225
 4375TIP3    H113131   2.404   3.825   0.349 -2.1713  1.6294  0.6240
 4375TIP3    H213132   2.380   3.817   0.200  3.0276 -1.4993 -0.3073
 4376TIP3   OH213133   4.243   4.733   2.657  0.3049 -0.7352 -0.0146
 4376TIP3    H113134   4.293   4.767   2.583  0.0272 -0.4793 -0.0873
 4376TIP3    H213135   4.160   4.705   2.619 -1.0504  2.0882  0.5903
 4377TIP3   OH213136   3.775   3.685   1.658 -0.2229  0.6801  0.0650
 4377TIP3    H113137   3.753   3.670   1.566 -1.4022 -0.8033  0.5407
 4377TIP3    H213138   3.863   3.649   1.668 -0.4367  0.0431 -0.2996
 4378TIP3   OH213139   3.900   3.446   3.233 -0.1295 -0.2997 -0.3419
 4378TIP3    H113140   3.884   3.447   3.328 -0.2046 -0.5487 -0.3492
 4378TIP3    H213141   3.943   3.362   3.217 -0.0456 -0.2243 -0.5191
 4379TIP3   OH213142   4.034   2.522   5.071 -0.9377 -0.1838  0.1256
 4379TIP3    H113143   3.999   2.600   5.030  0.5957  0.1778 -0.5669
 4379TIP3    H213144   3.987   2.515   5.154 -1.5181  1.1233 -0.0725
 4380TIP3   OH213145   3.984   5.317   4.977  0.0818 -0.8529 -0.1180
 4380TIP3    H113146   4.005   5.393   5.031  0.9909 -1.2689  0.1461
 4380TIP3    H213147   4.055   5.313   4.913 -0.8368 -0.5328 -1.1806
 4381TIP3   OH213148   2.326   3.586   2.037  0.3286 -0.0996  0.4234
 4381TIP3    H113149   2.401   3.527   2.041 -0.2546 -0.9406 -0.4178
 4381TIP3    H213150   2.263   3.548   2.098  0.1261 -0.0907  0.2218
 4382TIP3   OH213151   4.485   3.584   4.292  0.1735 -0.3033 -0.2068
 4382TIP3    H113152   4.446   3.638   4.224 -0.7877  1.0034  1.3252
 4382TIP3    H213153   4.556   3.538   4.248  0.5043  1.5821 -1.7553
 4383TIP3   OH213154   4.346   4.087   2.183 -0.3311  0.4479  0.6336
 4383TIP3    H113155   4.322   4.178   2.198 -1.4774  0.0917  1.0758
 4383TIP3    H213156   4.358   4.080   2.089  0.0697  1.1185  0.6287
 4384TIP3   OH213157   3.948   5.682   3.653 -0.0276 -0.0711 -0.0608
 4384TIP3    H113158   3.993   5.755   3.697 -2.4166  1.2628  0.3389
 4384TIP3    H213159   3.989   5.604   3.689  0.3400  1.0372  2.1026
 4385TIP3   OH213160   3.458   3.461   3.191  0.0749 -0.1446  0.5070
 4385TIP3    H113161   3.549   3.466   3.162  1.0057 -1.4872  2.9092
 4385TIP3    H213162   3.463   3.463   3.287 -2.2552 -1.9158  0.7593
 4386TIP3   OH213163   0.677   1.211   1.434 -0.3818 -0.1730  0.0712
 4386TIP3    H113164   0.593   1.204   1.389  0.9420  0.1829 -2.6594
 4386TIP3    H213165   0.676   1.298   1.474 -1.2062 -0.0552 -0.1904
 4387TIP3   OH213166   1.615   3.383   1.792  0.6939 -0.1843 -0.8196
 4387TIP3    H113167   1.700   3.422   1.810  0.1357 -0.2500  2.7879
 4387TIP3    H213168   1.562   3.455   1.758  1.2434  0.8064  0.3362
 4388TIP3   OH213169   1.946   5.481   1.089  0.3635  0.0770 -0.0548
 4388TIP3    H113170   1.957   5.433   1.007  0.6409  0.8619 -0.4937
 4388TIP3    H213171   1.853   5.504   1.092  0.1946 -0.6297  0.2450
 4389TIP3   OH213172   5.672   0.344   0.547 -0.8419  0.4755  0.0714
 4389TIP3    H113173   5.626   0.419   0.584  0.4441  1.2335  0.2006
 4389TIP3    H213174   5.666   0.356   0.452  0.4527  1.4647  0.0923
 4390TIP3   OH213175   6.019   3.129   4.110  0.6569  0.5889  0.0180
 4390TIP3    H113176   6.037   3.079   4.190  2.5616  1.7740  0.4097
 4390TIP3    H213177   6.071   3.087   4.042  1.1705  1.1721  0.0368
 4391TIP3   OH213178   1.575   1.845   3.875 -0.2535  0.3194  0.2692
 4391TIP3    H113179   1.550   1.937   3.869  1.0941  0.8767  2.3427
 4391TIP3    H213180   1.518   1.809   3.943 -0.2878 -0.2108 -0.0333
 4392TIP3   OH213181   1.939   2.193   0.055 -0.6025  0.5151 -0.0650
 4392TIP3    H113182   1.885   2.160  -0.017  0.9363 -0.3623 -0.8897
 4392TIP3    H213183   1.890   2.266   0.091 -2.2476 -0.1566 -0.8521
 4393TIP3   OH213184   6.058   2.555   4.479 -0.1575 -0.2650 -0.1013
 4393TIP3    H113185   5.978   2.602   4.458  0.9464  1.0100 -1.7617
 4393TIP3    H213186   6.029   2.470   4.512 -2.1714 -0.1743 -1.4944
 4394TIP3   OH213187   0.872   0.730   3.304  0.3285 -0.0782 -0.5546
 4394TIP3    H113188   0.809   0.665   3.334  1.1183 -0.4168  0.4170
 4394TIP3    H213189   0.860   0.805   3.363  0.6212 -0.0309 -0.5514
 4395TIP3   OH213190   2.891   4.890   4.567 -0.6143  0.4478  0.1881
 4395TIP3    H113191   2.943   4.828   4.619  0.4968  0.7341 -0.5448
 4395TIP3    H213192   2.950   4.964   4.553 -0.7792  0.2662 -1.6951
 4396TIP3   OH213193   6.147   1.240   4.715 -0.2829  0.3219  0.1883
 4396TIP3    H113194   6.162   1.155   4.675 -0.3266  1.3538 -2.2098
 4396TIP3    H213195   6.052   1.247   4.725 -0.5841  1.1830 -2.4562
 4397TIP3   OH213196   2.139   4.141   2.034 -0.5021 -0.4176  0.3150
 4397TIP3    H113197   2.129   4.052   2.068  0.3832  0.3187  2.7167
 4397TIP3    H213198   2.220   4.139   1.984 -1.1188 -1.2317 -0.6727
 4398TIP3   OH213199   3.780   4.211   2.324  0.0712 -0.1645  0.4429
 4398TIP3    H113200   3.738   4.159   2.392 -1.6927  0.5848 -0.0184
 4398TIP3    H213201   3.851   4.155   2.291 -1.4235 -2.0781  0.3073
 4399TIP3   OH213202   4.170   5.498   1.125  0.3201 -0.2055 -0.1956
 4399TIP3    H113203   4.115   5.575   1.106  1.4022  0.5859 -0.2081
 4399TIP3    H213204   4.257   5.524   1.096  0.9444 -0.9815  0.9461
 4400TIP3   OH213205   5.589   1.391   1.875  0.1500  0.2152  0.6160
 4400TIP3    H113206   5.571   1.358   1.963  0.0463 -0.6699  0.2784
 4400TIP3    H213207   5.678   1.361   1.856 -0.2476 -0.5879 -0.0126
 4401TIP3   OH213208   5.392   5.109   0.991 -0.0697 -0.0009  0.5423
 4401TIP3    H113209   5.486   5.096   1.001 -0.0386  0.2603  0.5867
 4401TIP3    H213210   5.360   5.026   0.955  0.0575 -0.3705  1.2551
 4402TIP3   OH213211   1.819   0.840   4.255  0.4668 -0.0645 -0.1925
 4402TIP3    H113212   1.841   0.789   4.178  0.5590  0.5262 -0.5596
 4402TIP3    H213213   1.723   0.836   4.260  0.4322  0.2124 -0.5621
 4403TIP3   OH213214   1.832   1.943   3.026  0.0538 -0.2534 -0.0739
 4403TIP3    H113215   1.812   1.900   2.942  2.5398 -0.8247 -0.4515
 4403TIP3    H213216   1.816   1.875   3.091 -0.4658 -0.2767 -0.2197
 4404TIP3   OH213217   5.744   5.221   1.383 -0.0524 -0.4157  0.1700
 4404TIP3    H113218   5.814   5.279   1.353 -1.4097 -0.2969 -3.0619
 4404TIP3    H213219   5.760   5.138   1.339 -2.8155  0.1210 -2.0944
 4405TIP3   OH213220   5.752   2.208   3.141  0.3847  0.2494 -0.3674
 4405TIP3    H113221   5.660   2.231   3.138  0.4959  0.6056 -1.1111
 4405TIP3    H213222   5.760   2.153   3.219 -0.5148 -0.0685 -0.4901
 4406TIP3   OH213223   0.667   5.876   2.993  0.8804  0.1995  0.4233
 4406TIP3    H113224   0.676   5.940   2.923  1.4050  0.8030  1.0213
 4406TIP3    H213225   0.669   5.928   3.073 -2.2856 -0.1914  0.8793
 4407TIP3   OH213226   2.200   0.430   4.066  0.0760 -0.3146  0.3547
 4407TIP3    H113227   2.115   0.402   4.100  0.1381 -0.5682  0.3037
 4407TIP3    H213228   2.202   0.399   3.976 -0.1687  0.5278  0.0508
 4408TIP3   OH213229   4.056   1.068   5.023  0.0233  0.2721 -0.0456
 4408TIP3    H113230   3.966   1.047   4.999 -0.6301  0.9217  1.6576
 4408TIP3    H213231   4.110   1.020   4.960 -1.5070 -0.2375 -1.0100
 4409TIP3   OH213232   5.510   1.348   0.670 -0.4031  0.3172 -0.0050
 4409TIP3    H113233   5.437   1.288   0.685 -1.6354  1.3262 -1.5906
 4409TIP3    H213234   5.494   1.420   0.730 -1.4070  1.0698 -1.1209
 4410TIP3   OH213235   4.891   0.009   1.702 -0.4140  0.3924  0.3403
 4410TIP3    H113236   4.894   0.087   1.646 -0.5059 -0.0891 -0.3422
 4410TIP3    H213237   4.810   0.018   1.751  0.5707  1.7892  1.8422
 4411TIP3   OH213238   0.086   3.404   2.584  0.5395  0.6211  0.1374
 4411TIP3    H113239   0.122   3.349   2.514  0.5612 -1.4811  1.7058
 4411TIP3    H213240   0.150   3.398   2.655 -0.1477  1.5847  0.8712
 4412TIP3   OH213241   3.511   4.803   2.922 -0.0420 -0.2851 -0.0560
 4412TIP3    H113242   3.458   4.867   2.968 -0.1023  0.4464 -1.1051
 4412TIP3    H213243   3.457   4.725   2.917 -0.6329  0.1350 -0.2527
 4413TIP3   OH213244   0.887   3.078   3.079  0.0806 -1.0707  0.1799
 4413TIP3    H113245   0.832   3.156   3.078  1.2914 -0.1736  0.0421
 4413TIP3    H213246   0.939   3.087   3.159  0.0816 -1.8396  0.2638
 4414TIP3   OH213247   1.126   3.789   4.094  0.2169 -0.0790  0.2112
 4414TIP3    H113248   1.040   3.807   4.056  0.2475 -0.4175 -0.0284
 4414TIP3    H213249   1.117   3.811   4.187  0.6224  2.3970 -0.2669
 4415TIP3   OH213250   6.185   2.283   0.118 -0.7219 -0.2701 -0.6872
 4415TIP3    H113251   6.196   2.291   0.213  0.2172  1.6375 -0.8940
 4415TIP3    H213252   6.273   2.260   0.086 -1.3737 -2.5596 -1.0084
 4416TIP3   OH213253   2.156   2.548   0.143 -0.1542 -0.4459 -0.3557
 4416TIP3    H113254   2.120   2.580   0.060  0.8491 -0.2265 -0.7170
 4416TIP3    H213255   2.160   2.626   0.198 -0.3830 -0.5048 -0.2524
 4417TIP3   OH213256   3.268   4.433   4.689  0.7327 -0.1451 -0.0734
 4417TIP3    H113257   3.173   4.430   4.703  1.0550 -1.7302  2.3869
 4417TIP3    H213258   3.278   4.448   4.595 -1.9705 -1.0168 -0.5876
 4418TIP3   OH213259   5.410   0.206   0.321  0.0693  0.1469 -0.0155
 4418TIP3    H113260   5.493   0.254   0.329 -0.2573  0.7007  0.0708
 4418TIP3    H213261   5.392   0.175   0.410  0.5517 -0.6051 -0.1690
 4419TIP3   OH213262   3.189   5.265   1.765  0.4144 -0.0126  0.0958
 4419TIP3    H113263   3.101   5.245   1.734 -0.1028 -0.7346  1.8589
 4419TIP3    H213264   3.203   5.357   1.742 -0.3073 -0.2270 -1.2587
 4420TIP3   OH213265   1.272   3.357   2.597  0.2330  0.4887  0.0571
 4420TIP3    H113266   1.345   3.339   2.656 -0.1714  0.7067  0.6312
 4420TIP3    H213267   1.220   3.276   2.599  2.0144 -0.8892 -2.7217
 4421TIP3   OH213268   1.386   1.334   5.069 -0.3447 -0.1488 -0.2851
 4421TIP3    H113269   1.378   1.253   5.019 -1.2416  0.8253 -1.8067
 4421TIP3    H213270   1.400   1.306   5.159  0.6653 -1.9841 -0.9636
 4422TIP3   OH213271   0.357   2.554   0.925 -0.2778  0.9712  0.0254
 4422TIP3    H113272   0.273   2.595   0.907  0.5869  3.5909  1.4662
 4422TIP3    H213273   0.390   2.526   0.839 -1.4187  2.3543 -0.8937
 4423TIP3   OH213274   4.050   0.523   4.457  0.2323 -0.3945  0.8035
 4423TIP3    H113275   4.066   0.604   4.505  0.0516 -0.7010  1.3845
 4423TIP3    H213276   4.103   0.458   4.502  0.2124 -0.6448  0.4653
 4424TIP3   OH213277   0.943   2.730   4.809 -0.2268  0.6435  0.8187
 4424TIP3    H113278   0.987   2.805   4.850  0.2120 -0.3414  2.1928
 4424TIP3    H213279   0.868   2.713   4.866 -0.6370  0.3758  0.2029
 4425TIP3   OH213280   4.114   0.492   2.222 -0.0386  0.2592  0.2627
 4425TIP3    H113281   4.026   0.528   2.231  0.3702  1.4837 -0.2721
 4425TIP3    H213282   4.118   0.461   2.131 -0.1690 -0.5205  0.5217
 4426TIP3   OH213283   6.210   1.183   3.980 -0.4838 -0.0101 -0.0313
 4426TIP3    H113284   6.150   1.169   3.907 -0.0886  1.1372 -0.6061
 4426TIP3    H213285   6.233   1.095   4.010 -1.3315 -0.4764 -0.7278
 4427TIP3   OH213286   4.120   4.014   0.815  0.3542 -0.5290  0.1643
 4427TIP3    H113287   4.204   4.026   0.770 -0.7735 -0.8373 -2.1969
 4427TIP3    H213288   4.142   3.963   0.893  2.3446 -0.6584 -0.4137
 4428TIP3   OH213289   3.165   0.397   4.147  0.0528  0.0871 -0.4175
 4428TIP3    H113290   3.170   0.361   4.059  0.6467  0.3218 -0.4895
 4428TIP3    H213291   3.088   0.453   4.146  0.5616  0.7914 -1.0598
 4429TIP3   OH213292   4.795   5.269   1.192 -0.3175 -0.0778  0.1533
 4429TIP3    H113293   4.805   5.359   1.223  3.1983 -0.5478  0.8204
 4429TIP3    H213294   4.789   5.217   1.272  2.3982 -0.7385  0.0285
 4430TIP3   OH213295   5.598   4.295   1.686  0.1031  0.6185 -0.1375
 4430TIP3    H113296   5.549   4.229   1.735 -0.4300  1.6005  0.6879
 4430TIP3    H213297   5.685   4.256   1.673 -0.3124 -0.3863  0.0122
 4431TIP3   OH213298   3.490   5.183   3.799 -1.0240 -0.3184  0.9194
 4431TIP3    H113299   3.407   5.229   3.813 -1.6727 -1.4268  0.7989
 4431TIP3    H213300   3.483   5.149   3.710 -0.3290 -0.2199  0.8215
 4432TIP3   OH213301   0.805   3.308   2.400  0.1730  0.2139 -0.0371
 4432TIP3    H113302   0.834   3.219   2.376  0.1767  0.5408 -1.3645
 4432TIP3    H213303   0.710   3.302   2.408  0.0348  0.3190 -1.3383
 4433TIP3   OH213304   4.706   5.006   1.545 -0.6573 -0.0074  0.1402
 4433TIP3    H113305   4.759   4.933   1.514 -0.2878 -0.0852  0.9272
 4433TIP3    H213306   4.754   5.040   1.621 -1.6252  0.0438  0.7531
 4434TIP3   OH213307   5.968   5.358   2.491  0.7911 -0.1114 -0.6416
 4434TIP3    H113308   5.880   5.395   2.500  0.7842 -0.6763  4.0503
 4434TIP3    H213309   5.953   5.265   2.474  0.3637 -0.3937  1.1063
 4435TIP3   OH213310   2.818   1.811   3.979  0.5619 -0.8014  0.8785
 4435TIP3    H113311   2.885   1.766   3.928 -0.2062 -1.6502  0.5850
 4435TIP3    H213312   2.774   1.867   3.916  0.4466 -0.8846  0.8848
 4436TIP3   OH213313   0.672   0.843   5.053 -0.0439 -0.1025  0.1008
 4436TIP3    H113314   0.731   0.917   5.038 -0.4959 -0.0259 -1.3955
 4436TIP3    H213315   0.717   0.789   5.118  0.9674  0.7313  0.1150
 4437TIP3   OH213316   0.512   4.609   4.766 -0.0501  0.1197 -0.5563
 4437TIP3    H113317   0.425   4.594   4.801 -0.2247 -1.6354 -1.6576
 4437TIP3    H213318   0.565   4.631   4.843 -1.1232 -0.3304  0.3369
 4438TIP3   OH213319   5.406   4.144   0.357 -0.1633  0.4317  0.7862
 4438TIP3    H113320   5.354   4.066   0.377  0.7793  0.1067  2.0817
 4438TIP3    H213321   5.378   4.209   0.421 -1.0649  1.2426 -0.3941
 4439TIP3   OH213322   3.836   2.032   3.627 -0.1987  0.1561 -0.1610
 4439TIP3    H113323   3.788   2.113   3.643 -1.5358 -0.5965 -0.1250
 4439TIP3    H213324   3.861   2.036   3.535 -2.1615 -0.2905 -0.7756
 4440TIP3   OH213325   5.635   3.330   0.535  0.1695  0.2639  0.0332
 4440TIP3    H113326   5.680   3.348   0.617  1.3025 -0.0567 -0.4931
 4440TIP3    H213327   5.593   3.245   0.548  1.2052 -0.2721 -0.0544
 4441TIP3   OH213328   2.851   5.215   1.241 -0.5038 -0.4264 -0.2205
 4441TIP3    H113329   2.778   5.155   1.227 -0.3382 -0.4999 -0.7646
 4441TIP3    H213330   2.849   5.273   1.165 -0.7364  0.3394  0.3490
 4442TIP3   OH213331   3.900   3.754   0.868  0.2126 -0.3283  0.0491
 4442TIP3    H113332   3.858   3.715   0.944  0.1973 -0.3319  0.0386
 4442TIP3    H213333   3.991   3.725   0.873  0.1916 -0.3981  0.0187
 4443TIP3   OH213334   1.084   4.365   3.219  0.6270  0.7738  0.2633
 4443TIP3    H113335   1.133   4.352   3.300  0.0860 -3.0457  0.1871
 4443TIP3    H213336   1.147   4.403   3.158  1.1844  3.2629  2.2555
 4444TIP3   OH213337   2.005   5.916   3.350 -0.0077  0.6450  0.3790
 4444TIP3    H113338   2.032   5.884   3.436  1.0704 -0.8685 -0.4831
 4444TIP3    H213339   1.944   5.850   3.318  0.3537  0.6911 -0.4168
 4445TIP3   OH213340   6.008   2.174   3.483 -0.2975  0.3680  0.0454
 4445TIP3    H113341   6.049   2.261   3.485 -0.3211  0.4073 -0.8395
 4445TIP3    H213342   6.015   2.147   3.391 -0.8865 -0.2842  0.1907
 4446TIP3   OH213343   2.124   1.332   4.433  0.1038 -0.2620 -0.0051
 4446TIP3    H113344   2.091   1.325   4.343  0.2739  0.6705 -0.1528
 4446TIP3    H213345   2.191   1.265   4.439 -0.1502 -0.5609 -0.4677
 4447TIP3   OH213346   4.878   1.360   3.515  0.4082 -0.5509  0.1135
 4447TIP3    H113347   4.862   1.381   3.423 -2.2679  2.1149  1.0257
 4447TIP3    H213348   4.973   1.350   3.521  0.9652  1.8763 -2.4669
 4448TIP3   OH213349   3.106   5.918   2.907 -0.5373 -0.7231  0.2990
 4448TIP3    H113350   3.187   5.922   2.958 -1.4890 -2.6180  2.1175
 4448TIP3    H213351   3.124   5.854   2.839 -0.2631 -0.5629  0.2192
 4449TIP3   OH213352   4.683   0.782   3.670 -0.3686  0.3305 -0.5509
 4449TIP3    H113353   4.596   0.822   3.677 -1.1250 -1.2836 -0.2336
 4449TIP3    H213354   4.700   0.776   3.576 -1.4130 -0.9676 -0.6771
 4450TIP3   OH213355   0.223   4.197   3.327 -0.4814  0.0679 -0.3477
 4450TIP3    H113356   0.240   4.283   3.366 -0.0074 -0.0031 -0.3894
 4450TIP3    H213357   0.304   4.176   3.280 -0.5690 -0.4339 -0.2795
 4451TIP3   OH213358   6.285   3.145   4.929  0.4581 -0.1111 -0.0378
 4451TIP3    H113359   6.303   3.082   5.000  1.5998 -0.3538 -0.5199
 4451TIP3    H213360   6.319   3.103   4.851 -0.8714  0.1219 -0.7743
 4452TIP3   OH213361   0.535   1.892   1.297 -0.0247 -0.4606  0.2764
 4452TIP3    H113362   0.452   1.860   1.262 -0.0004 -1.2154  0.8661
 4452TIP3    H213363   0.568   1.818   1.349  0.6103  0.1316  0.7222
 4453TIP3   OH213364   0.820   4.775   3.154  0.2641  0.5209 -0.0678
 4453TIP3    H113365   0.775   4.851   3.191  0.4832  0.0493  1.2506
 4453TIP3    H213366   0.840   4.720   3.231 -1.0412 -1.4871 -1.0504
 4454TIP3   OH213367   2.431   0.728   1.979  0.3368 -0.8380  0.0102
 4454TIP3    H113368   2.505   0.770   1.935  1.0183 -0.6266  1.3224
 4454TIP3    H213369   2.354   0.779   1.953  1.1220  1.1978  1.4857
 4455TIP3   OH213370   3.397   4.711   4.104  0.5865  0.1657 -0.1590
 4455TIP3    H113371   3.452   4.743   4.032 -0.2421 -0.9097 -1.3292
 4455TIP3    H213372   3.310   4.745   4.083  0.4522  0.3370  0.6736
 4456TIP3   OH213373   2.029   1.804   4.902 -0.5437  0.1674  0.6635
 4456TIP3    H113374   2.116   1.844   4.906 -0.1789 -0.3866 -0.8957
 4456TIP3    H213375   2.034   1.730   4.963  0.3083 -0.2287  0.1434
 4457TIP3   OH213376   2.439   2.922   2.763  0.2089 -0.0688 -0.2577
 4457TIP3    H113377   2.348   2.921   2.793  0.1757 -0.9305 -0.3707
 4457TIP3    H213378   2.468   3.012   2.777 -0.7494  0.2857 -0.4813
 4458TIP3   OH213379   5.497   2.712   4.507  0.2058 -0.1981 -0.0423
 4458TIP3    H113380   5.486   2.636   4.565  0.7166  0.2625  0.6701
 4458TIP3    H213381   5.407   2.736   4.483  0.0696 -2.7131 -2.5686
 4459TIP3   OH213382   3.741   5.154   0.210  0.0408  0.2497 -0.6214
 4459TIP3    H113383   3.695   5.161   0.127 -0.9556  1.5880  0.0113
 4459TIP3    H213384   3.707   5.226   0.263  2.7958  1.2899 -0.0721
 4460TIP3   OH213385   0.634   3.428   4.018 -0.5881 -0.5449 -0.4069
 4460TIP3    H113386   0.715   3.385   3.989  0.9179 -0.0344  2.7263
 4460TIP3    H213387   0.655   3.521   4.017 -0.9054 -0.4459  0.9959
 4461TIP3   OH213388   5.577   4.963   5.008 -0.3168 -0.6787  0.2297
 4461TIP3    H113389   5.482   4.959   5.002 -0.4427  2.2238 -1.0565
 4461TIP3    H213390   5.595   4.977   5.101 -1.1293 -1.0794  0.4523
 4462TIP3   OH213391   1.738   0.038   1.140  0.1132  0.0114  0.0575
 4462TIP3    H113392   1.705  -0.034   1.193  1.4942 -0.1165  0.8060
 4462TIP3    H213393   1.760  -0.002   1.056  1.2077 -0.5561  0.5871
 4463TIP3   OH213394   4.638   1.949   1.486 -0.2786  0.0851  0.5768
 4463TIP3    H113395   4.639   1.947   1.582 -0.0193  1.7727  0.6404
 4463TIP3    H213396   4.729   1.933   1.461 -0.5383 -1.5190  0.5343
 4464TIP3   OH213397   0.910   3.096   1.496  0.3190  0.1888 -0.4018
 4464TIP3    H113398   0.917   3.087   1.401  0.5416  0.4851 -0.4160
 4464TIP3    H213399   0.999   3.078   1.528  0.5943  1.5225 -0.3723
 4465TIP3   OH213400   4.995   4.293   4.168 -0.5370 -0.2945  0.0986
 4465TIP3    H113401   5.059   4.247   4.222 -1.0389  1.1194  2.0072
 4465TIP3    H213402   4.947   4.223   4.122  1.3766 -1.4309 -0.2679
 4466TIP3   OH213403   2.468   1.186   1.870 -0.2227  0.4521 -0.7090
 4466TIP3    H113404   2.528   1.112   1.879 -1.1552 -0.0836  4.1887
 4466TIP3    H213405   2.414   1.164   1.794  1.9048 -1.9719 -1.6932
 4467TIP3   OH213406   3.209   2.496   0.962  0.0177 -0.4201 -0.0594
 4467TIP3    H113407   3.123   2.490   0.920  0.1911 -0.1394 -0.4575
 4467TIP3    H213408   3.262   2.431   0.917  0.2493 -0.0084 -0.3857
 4468TIP3   OH213409   2.654   2.650   0.652 -0.2508  0.2797  0.1162
 4468TIP3    H113410   2.572   2.633   0.605 -0.1491 -1.9355  0.6281
 4468TIP3    H213411   2.721   2.653   0.583 -0.5986  1.0528 -0.2054
 4469TIP3   OH213412   6.325   1.793   3.727  0.5513 -0.0462  0.2594
 4469TIP3    H113413   6.308   1.881   3.695  2.3113  0.4197  0.5156
 4469TIP3    H213414   6.301   1.736   3.654 -0.1101  0.6702 -0.0933
 4470TIP3   OH213415   1.180   5.201   0.255 -0.3383 -0.1151 -0.1625
 4470TIP3    H113416   1.250   5.247   0.208 -0.8152  0.9387  0.1308
 4470TIP3    H213417   1.115   5.268   0.273 -0.1098 -0.4255  2.1473
 4471TIP3   OH213418   5.521   3.276   4.165 -0.2571 -0.4375 -0.1997
 4471TIP3    H113419   5.447   3.217   4.154  0.2276 -1.5741  1.9888
 4471TIP3    H213420   5.598   3.224   4.142 -0.0370  0.5263 -1.8141
 4472TIP3   OH213421   1.074   2.461   3.785 -0.4441 -0.6401 -0.2466
 4472TIP3    H113422   1.066   2.495   3.873 -0.2428  1.8081 -1.1038
 4472TIP3    H213423   0.988   2.423   3.766 -1.1449  0.6012  0.3188
 4473TIP3   OH213424   4.437   3.975   3.769 -0.4832  0.5531 -0.1100
 4473TIP3    H113425   4.490   4.011   3.840 -1.1922  1.6167 -0.0859
 4473TIP3    H213426   4.497   3.921   3.719  1.0513  2.9222 -0.9710
 4474TIP3   OH213427   5.762   3.386   3.457 -0.6598  0.5571  0.0813
 4474TIP3    H113428   5.708   3.310   3.476  0.0590 -0.0130 -0.0994
 4474TIP3    H213429   5.789   3.374   3.365  1.2537 -0.1283  0.6876
 4475TIP3   OH213430   5.125   3.488   1.739  0.3016  0.3960 -0.3256
 4475TIP3    H113431   5.052   3.430   1.760 -0.8844  2.0553  0.3192
 4475TIP3    H213432   5.171   3.500   1.822  0.7754  0.0870 -0.5388
 4476TIP3   OH213433   3.224   2.576   3.727  0.2100  0.5058  0.3816
 4476TIP3    H113434   3.187   2.651   3.773  0.8685  1.4764 -0.6204
 4476TIP3    H213435   3.220   2.599   3.635 -0.1461 -0.9759 -0.0035
 4477TIP3   OH213436   1.487   0.838   4.959 -0.3839  0.4356 -0.6757
 4477TIP3    H113437   1.425   0.781   4.914  1.0971 -0.7778 -1.2437
 4477TIP3    H213438   1.507   0.793   5.041 -0.7112  1.1293 -0.2047
 4478TIP3   OH213439   5.267   1.731   1.134  0.1718 -0.6159  0.8653
 4478TIP3    H113440   5.359   1.703   1.135 -0.6084 -3.7822 -1.3408
 4478TIP3    H213441   5.219   1.658   1.172 -1.5388  0.6927  1.3085
 4479TIP3   OH213442   0.312   2.310   3.973 -0.7792  0.3697  0.2528
 4479TIP3    H113443   0.390   2.254   3.982 -1.0181  0.1996  1.5268
 4479TIP3    H213444   0.273   2.309   4.060 -0.2628  3.3251  0.6174
 4480TIP3   OH213445   1.032   4.367   5.137  0.1846  0.3327 -0.2321
 4480TIP3    H113446   0.956   4.327   5.180 -0.6839  0.7183 -1.3255
 4480TIP3    H213447   1.075   4.417   5.205 -0.5465  0.0905  0.4253
 4481TIP3   OH213448   5.986   0.060   1.516  0.2885 -0.8066 -0.3354
 4481TIP3    H113449   5.958   0.131   1.574  0.4253  0.5204 -1.8112
 4481TIP3    H213450   6.031  -0.002   1.574 -1.1779 -0.4632  1.2398
 4482TIP3   OH213451   5.495   4.198   4.334  0.3084 -0.3230 -0.0025
 4482TIP3    H113452   5.538   4.121   4.296 -0.1493 -1.4894  1.7494
 4482TIP3    H213453   5.549   4.272   4.304  1.7360 -1.4612 -0.3733
 4483TIP3   OH213454   5.615   0.975   2.718 -0.6092 -0.3152  0.0088
 4483TIP3    H113455   5.548   0.998   2.782  1.3072 -1.3030  2.5291
 4483TIP3    H213456   5.614   0.880   2.714 -0.0930 -0.2986 -0.7678
 4484TIP3   OH213457   2.540   5.011   2.453  0.8569  0.2450 -0.0930
 4484TIP3    H113458   2.571   5.099   2.435  3.1913 -0.7691 -1.5655
 4484TIP3    H213459   2.555   4.963   2.371  1.7429 -2.0007  1.2841
 4485TIP3   OH213460   1.750   2.236   3.423 -0.1977  0.3683  0.3814
 4485TIP3    H113461   1.814   2.172   3.392 -1.2107 -0.6806  0.3750
 4485TIP3    H213462   1.777   2.318   3.382  0.6575 -0.2187 -0.2747
 4486TIP3   OH213463   1.556   4.426   4.888 -0.3512  0.3247  0.1271
 4486TIP3    H113464   1.522   4.513   4.866 -1.5429  0.2354  1.4502
 4486TIP3    H213465   1.614   4.441   4.962 -0.7295 -0.0242  0.4974
 4487TIP3   OH213466   4.303   0.675   2.502  0.2816 -0.1870  0.1980
 4487TIP3    H113467   4.337   0.746   2.557  1.4285 -1.3175  0.9795
 4487TIP3    H213468   4.341   0.595   2.538 -1.7876 -1.3546 -0.0199
 4488TIP3   OH213469   2.464   0.780   4.639 -0.3466  0.2253  0.0395
 4488TIP3    H113470   2.528   0.764   4.569 -0.7230  2.2676 -0.8537
 4488TIP3    H213471   2.415   0.856   4.609  0.1083  1.8301  2.9538
 4489TIP3   OH213472   5.461   1.432   1.633 -0.4128 -0.4152 -0.3787
 4489TIP3    H113473   5.390   1.494   1.622  0.5905  0.6063 -1.4306
 4489TIP3    H213474   5.496   1.449   1.720 -0.0639  0.6057 -0.7082
 4490TIP3   OH213475   2.689   5.680   3.268  0.8459  0.2197 -0.5004
 4490TIP3    H113476   2.722   5.638   3.347  1.1964  0.5288 -0.4772
 4490TIP3    H213477   2.768   5.699   3.217  0.5123 -1.7347 -1.8314
 4491TIP3   OH213478   3.111   5.204   1.333  0.0422  0.6975  0.0421
 4491TIP3    H113479   3.135   5.260   1.259  0.6891  0.4555  0.0644
 4491TIP3    H213480   3.016   5.210   1.337 -0.1079 -0.1428 -1.5124
 4492TIP3   OH213481   2.382   1.228   2.728 -0.1028  0.3197 -0.0162
 4492TIP3    H113482   2.440   1.304   2.725 -1.4187  1.3362 -1.7297
 4492TIP3    H213483   2.400   1.182   2.647 -0.6472 -0.1761  0.1436
 4493TIP3   OH213484   3.074   2.851   1.089  0.1677  0.3723  0.4075
 4493TIP3    H113485   3.095   2.920   1.152  0.6883  1.1801 -0.6094
 4493TIP3    H213486   3.132   2.779   1.112  0.2026  0.5777  0.9749
 4494TIP3   OH213487   2.342   2.623   0.778 -0.0511 -0.3134  0.3321
 4494TIP3    H113488   2.368   2.704   0.822  1.6393 -0.4280 -0.4054
 4494TIP3    H213489   2.249   2.613   0.801  0.0659  1.0659  1.5947
 4495TIP3   OH213490   2.466   4.333   1.973 -0.2260  0.1011 -0.1251
 4495TIP3    H113491   2.408   4.264   1.941 -0.5107  0.8226 -1.2363
 4495TIP3    H213492   2.547   4.322   1.922  0.6949 -0.9545  1.4728
 4496TIP3   OH213493   3.216   1.807   2.323 -0.1805  0.0714 -0.3877
 4496TIP3    H113494   3.288   1.787   2.383 -3.0191 -0.7673  3.0889
 4496TIP3    H213495   3.186   1.722   2.291  0.8545  0.4712 -2.5999
 4497TIP3   OH213496   3.307   5.709   2.269 -0.4614 -0.2850  0.3269
 4497TIP3    H113497   3.233   5.650   2.254 -1.8103  1.0410  1.4598
 4497TIP3    H213498   3.381   5.666   2.225 -1.4630 -2.5895  0.7194
 4498TIP3   OH213499   5.832   4.581   2.895 -0.0487  0.1584 -0.2387
 4498TIP3    H113500   5.808   4.615   2.808  2.1337 -3.0222 -2.2638
 4498TIP3    H213501   5.884   4.651   2.934  2.9359  0.0736 -3.5430
 4499TIP3   OH213502   3.160   5.056   1.554 -0.1041  0.3078  0.6190
 4499TIP3    H113503   3.101   5.098   1.615 -1.5928 -1.8607  0.7815
 4499TIP3    H213504   3.134   5.090   1.468 -2.5487 -1.4888  0.5358
 4500TIP3   OH213505   3.770   0.608   3.254  0.2778  0.2714 -0.1513
 4500TIP3    H113506   3.848   0.616   3.200 -0.2074  1.1325 -0.7483
 4500TIP3    H213507   3.701   0.582   3.192 -0.4670  2.0697 -0.1193
 4501TIP3   OH213508   0.414   1.384   0.561 -0.0017 -0.0285 -0.2479
 4501TIP3    H113509   0.372   1.460   0.519 -2.4273 -1.4772 -0.5937
 4501TIP3    H213510   0.426   1.321   0.490 -1.3106 -1.3242  0.6301
 4502TIP3   OH213511   4.488   2.517   3.428  0.5158  0.2573  0.0263
 4502TIP3    H113512   4.481   2.539   3.521  0.1331  0.4022 -0.0339
 4502TIP3    H213513   4.417   2.567   3.387  1.7008  1.5129 -0.5814
 4503TIP3   OH213514   3.964   0.782   4.709 -0.1208  0.7380  0.5396
 4503TIP3    H113515   4.011   0.768   4.627 -0.7803  0.0965  0.2514
 4503TIP3    H213516   3.921   0.698   4.726 -2.1606  1.6417  0.1250
 4504TIP3   OH213517   2.207   0.876   2.022  0.3499  0.3086 -0.1521
 4504TIP3    H113518   2.123   0.918   2.042  2.5443  4.0571  2.4451
 4504TIP3    H213519   2.220   0.813   2.092 -0.3033 -0.4494 -0.6879
 4505TIP3   OH213520   6.274   5.539   3.967  0.0352 -0.2605 -0.5134
 4505TIP3    H113521   6.226   5.459   3.945  0.3781 -0.4368 -0.6325
 4505TIP3    H213522   6.290   5.532   4.061  1.1003 -0.9206 -0.7148
 4506TIP3   OH213523   4.752   0.156   4.550  0.0304 -0.1197 -0.1958
 4506TIP3    H113524   4.696   0.098   4.600 -0.9823  0.2573 -0.8614
 4506TIP3    H213525   4.838   0.149   4.592 -0.5516 -0.5540  0.9622
 4507TIP3   OH213526   5.225   1.553   2.569 -0.1920  0.4355 -0.2332
 4507TIP3    H113527   5.146   1.608   2.576 -1.6365 -1.5387 -0.1635
 4507TIP3    H213528   5.207   1.479   2.628  1.5117 -0.3197 -0.6201
 4508TIP3   OH213529   2.994   0.488   3.803  0.2225  0.3235 -0.3535
 4508TIP3    H113530   3.016   0.577   3.828 -1.3227  0.7274 -0.3102
 4508TIP3    H213531   2.969   0.445   3.885  0.2995  0.0614 -0.4671
 4509TIP3   OH213532   1.503   0.891   4.502  0.6778  0.0733  0.3544
 4509TIP3    H113533   1.552   0.871   4.582  1.0346 -0.7710 -0.0610
 4509TIP3    H213534   1.523   0.983   4.484  0.3882  0.3494  1.3675
 4510TIP3   OH213535   5.674   4.412   4.271 -0.5107 -0.1766  0.3206
 4510TIP3    H113536   5.722   4.424   4.353  1.7043 -0.0373 -0.9267
 4510TIP3    H213537   5.620   4.490   4.264  0.7148  0.7436  0.7447
 4511TIP3   OH213538   2.908   0.099   5.109  0.1744  0.0167 -0.1949
 4511TIP3    H113539   2.924   0.139   5.195  1.8604 -0.0306 -0.4502
 4511TIP3    H213540   2.890   0.173   5.052  1.7055  0.3219 -0.3299
 4512TIP3   OH213541   6.134   1.852   4.334  0.1333 -0.2298 -0.6942
 4512TIP3    H113542   6.229   1.851   4.324  0.4307 -2.3139  1.4617
 4512TIP3    H213543   6.113   1.944   4.352  2.0590 -0.0317  0.9186
 4513TIP3   OH213544   0.307   0.292   0.110 -0.1782  0.0752  0.4957
 4513TIP3    H113545   0.387   0.336   0.080  0.9272 -2.2170 -0.1987
 4513TIP3    H213546   0.327   0.263   0.199 -0.5264  0.1372  0.5960
 4514TIP3   OH213547   2.152   0.807   4.718 -0.3809  0.3812 -0.3298
 4514TIP3    H113548   2.244   0.780   4.724 -0.2677  0.9389  0.5755
 4514TIP3    H213549   2.138   0.823   4.625  0.2199 -0.4550 -0.5785
 4515TIP3   OH213550   3.586   1.415   3.698  0.2025  0.3355  0.1589
 4515TIP3    H113551   3.518   1.448   3.757  0.4829  1.1888  0.0212
 4515TIP3    H213552   3.581   1.472   3.621  0.2047 -0.4256 -0.4133
 4516TIP3   OH213553   4.267   1.030   2.166  0.5530 -0.0835 -0.1453
 4516TIP3    H113554   4.183   1.035   2.212  0.9241  1.4693  0.4492
 4516TIP3    H213555   4.303   0.945   2.192  0.3670  0.3816  1.8134
 4517TIP3   OH213556   2.849   0.536   2.357  0.1597  0.3156  0.5729
 4517TIP3    H113557   2.871   0.468   2.293  0.6367  0.0989  0.9534
 4517TIP3    H213558   2.929   0.545   2.410 -0.0248  0.9136  0.7587
 4518TIP3   OH213559   3.974   0.909   1.608 -0.0090  0.3923 -0.1739
 4518TIP3    H113560   4.057   0.930   1.652 -0.4187  0.9465  0.3479
 4518TIP3    H213561   3.992   0.923   1.515  0.6229  0.0327 -0.1142
 4519TIP3   OH213562   2.619   3.751   1.233 -0.4411 -0.0089  0.5359
 4519TIP3    H113563   2.705   3.713   1.254 -0.1271  1.1114  1.3784
 4519TIP3    H213564   2.558   3.677   1.239  0.5278 -0.9538 -0.6685
 4520TIP3   OH213565   3.680   5.986   1.108  0.0727 -0.1332  1.0307
 4520TIP3    H113566   3.590   5.969   1.079  0.3163 -1.6662  1.0595
 4520TIP3    H213567   3.678   5.969   1.202  0.3113  0.1780  1.0909
 4521TIP3   OH213568   1.476  -0.026   3.659 -0.1603 -0.1353  0.0091
 4521TIP3    H113569   1.545   0.035   3.682  1.1389 -1.1132 -1.1053
 4521TIP3    H213570   1.406   0.029   3.624  0.4941  0.7966  0.1353
 4522TIP3   OH213571   1.397   4.246   3.923  0.2388  0.1684 -0.2602
 4522TIP3    H113572   1.333   4.298   3.971  0.3691  0.4119 -0.3461
 4522TIP3    H213573   1.435   4.188   3.989  0.5557  0.6378 -0.0166
 4523TIP3   OH213574   3.729   4.758   3.241  0.6289 -0.0579 -0.0344
 4523TIP3    H113575   3.778   4.823   3.291  0.1310 -0.5352  1.1213
 4523TIP3    H213576   3.796   4.703   3.202  1.0669  1.4485 -1.4859
 4524TIP3   OH213577   4.856   3.616   2.311 -0.3141  0.4050  0.1884
 4524TIP3    H113578   4.816   3.691   2.267 -0.4471  0.0831 -0.2452
 4524TIP3    H213579   4.791   3.587   2.374 -1.0202 -0.4623 -0.8974
 4525TIP3   OH213580   2.419   3.827   3.538  0.3783  0.3414 -0.3072
 4525TIP3    H113581   2.390   3.761   3.476  0.4959  2.1237 -2.3575
 4525TIP3    H213582   2.408   3.910   3.492 -2.9068  2.2063  3.2574
 4526TIP3   OH213583   3.972   4.397   3.513 -0.6304 -0.9612  0.2111
 4526TIP3    H113584   3.971   4.492   3.519 -1.1217 -1.0153  1.2755
 4526TIP3    H213585   3.959   4.378   3.420  1.3288  0.0130 -0.3096
 4527TIP3   OH213586   1.879   2.694   1.180  0.2267  0.0631 -0.5477
 4527TIP3    H113587   1.898   2.675   1.271 -1.4344  0.4486 -0.0896
 4527TIP3    H213588   1.867   2.609   1.139  1.2528 -0.1203 -0.4817
 4528TIP3   OH213589   0.356   5.189   4.653  0.4767  0.6019 -0.5326
 4528TIP3    H113590   0.415   5.114   4.653  1.4062  1.3108 -0.7085
 4528TIP3    H213591   0.296   5.173   4.581 -0.4113 -0.7845  0.4778
 4529TIP3   OH213592   5.223   2.162   0.839  0.6001  0.0393 -0.0014
 4529TIP3    H113593   5.171   2.106   0.782  0.2380  0.7948 -0.4412
 4529TIP3    H213594   5.314   2.145   0.815  0.6051 -1.5860  1.0503
 4530TIP3   OH213595   2.984   0.248   2.833 -0.6376  0.3152  0.0717
 4530TIP3    H113596   3.056   0.200   2.873 -1.3485  0.0645  1.0776
 4530TIP3    H213597   2.952   0.306   2.902 -0.7875  1.1245 -0.6566
 4531TIP3   OH213598   5.262   4.013   2.019 -0.0586  0.1615 -0.0302
 4531TIP3    H113599   5.343   3.964   2.033  0.3406 -0.0079 -2.3805
 4531TIP3    H213600   5.247   4.006   1.924 -1.9193  1.6129  0.1043
 4532TIP3   OH213601   1.733   5.385   3.378 -0.1356 -0.5162 -0.0336
 4532TIP3    H113602   1.799   5.453   3.364 -0.6964 -0.0848 -0.6351
 4532TIP3    H213603   1.719   5.385   3.473 -0.4679  0.5434 -0.0755
 4533TIP3   OH213604   1.532   1.280   1.516  0.3993 -0.0985  0.5069
 4533TIP3    H113605   1.549   1.297   1.423  1.7703  0.4973  0.8520
 4533TIP3    H213606   1.519   1.185   1.520 -0.2135 -0.0637 -0.3710
 4534TIP3   OH213607   6.298   2.759   3.900  0.3611  0.2193 -0.3175
 4534TIP3    H113608   6.348   2.686   3.863 -0.3786 -0.0460 -0.8161
 4534TIP3    H213609   6.294   2.742   3.993 -1.1082 -1.2062 -0.6080
 4535TIP3   OH213610   5.088   1.981   0.661 -0.2643 -0.0163  0.3857
 4535TIP3    H113611   5.007   1.975   0.711 -0.5152  0.8138  0.0979
 4535TIP3    H213612   5.139   1.905   0.689 -0.6109  0.1406  1.5162
 4536TIP3   OH213613   2.272   1.818   2.187 -0.5061  0.3006 -0.2408
 4536TIP3    H113614   2.275   1.723   2.175  0.3246  0.1906  0.6730
 4536TIP3    H213615   2.320   1.853   2.112 -0.5513 -0.0196 -0.4205
 4537TIP3   OH213616   4.616   0.759   3.333 -0.0529 -0.1995 -0.4353
 4537TIP3    H113617   4.558   0.692   3.369  1.5487 -1.3032  0.1765
 4537TIP3    H213618   4.613   0.744   3.238 -1.2142  0.1509 -0.4646
 4538TIP3   OH213619   3.743   1.645   1.232 -0.4832 -0.6798 -0.4499
 4538TIP3    H113620   3.735   1.702   1.155  0.4354 -1.2125 -0.9527
 4538TIP3    H213621   3.796   1.572   1.202 -1.0861 -1.4748  0.3799
 4539TIP3   OH213622   2.257   5.228   1.438  0.5921  0.3385  0.0473
 4539TIP3    H113623   2.167   5.214   1.468  0.6276 -1.2163 -0.4847
 4539TIP3    H213624   2.289   5.300   1.492 -0.9061  0.8039  0.3695
 4540TIP3   OH213625   5.209   1.547   1.538  0.2354  0.2318 -0.3181
 4540TIP3    H113626   5.241   1.631   1.569 -0.3305 -0.4354  2.2735
 4540TIP3    H213627   5.124   1.536   1.581 -0.5454 -0.8766 -2.0351
 4541TIP3   OH213628   1.550   0.593   2.862  0.6811  0.0861  0.6678
 4541TIP3    H113629   1.495   0.648   2.806  0.5000 -0.9527 -0.2018
 4541TIP3    H213630   1.523   0.614   2.951  0.2744  1.0324  0.3287
 4542TIP3   OH213631   6.080   4.632   0.321 -1.1945 -0.5360 -0.2300
 4542TIP3    H113632   6.015   4.668   0.381 -2.0018 -2.3948  0.1055
 4542TIP3    H213633   6.137   4.578   0.376  0.0047  0.2339 -0.6836
 4543TIP3   OH213634   5.112   2.823   4.036  0.3476  0.1941  0.2916
 4543TIP3    H113635   5.075   2.739   4.065  0.1007  0.0647 -0.3994
 4543TIP3    H213636   5.038   2.872   4.001  0.5985  0.4663  0.1360
 4544TIP3   OH213637   2.409   5.199   4.475  0.1639  0.3126 -0.6705
 4544TIP3    H113638   2.431   5.289   4.498  2.3885  0.0508 -1.4377
 4544TIP3    H213639   2.464   5.146   4.533  1.6192 -0.4203 -2.5896
 4545TIP3   OH213640   2.927   2.993   1.553 -0.5314 -0.7353 -0.1487
 4545TIP3    H113641   2.889   2.905   1.558 -4.4032  0.6912 -0.3979
 4545TIP3    H213642   2.968   3.007   1.638 -0.9898 -2.3284  0.3743
 4546TIP3   OH213643   0.301   3.660   4.665  0.7205  0.1271  0.3299
 4546TIP3    H113644   0.217   3.620   4.642  1.1464 -0.2012 -0.7155
 4546TIP3    H213645   0.283   3.711   4.743  0.2235 -2.3810  1.9621
 4547TIP3   OH213646   0.339   1.543   1.619 -0.3076  0.0886  0.0607
 4547TIP3    H113647   0.297   1.618   1.660  0.0600  0.4633 -0.2325
 4547TIP3    H213648   0.291   1.530   1.537  1.8536  2.3250 -1.7098
 4548TIP3   OH213649   1.241   4.470   2.414 -0.1975 -0.3128 -0.2647
 4548TIP3    H113650   1.170   4.419   2.452  0.7051 -0.6958  0.9612
 4548TIP3    H213651   1.254   4.432   2.327  0.4369 -2.1787  0.6051
 4549TIP3   OH213652   3.757   3.980   0.850  0.0461 -0.2559 -0.0613
 4549TIP3    H113653   3.821   3.910   0.866  0.1472 -0.6320 -1.8676
 4549TIP3    H213654   3.782   4.016   0.765 -1.4823  0.3382 -0.2938
 4550TIP3   OH213655   4.478   1.214   2.754 -0.7401  0.2407  0.0307
 4550TIP3    H113656   4.504   1.161   2.830 -1.1698  0.9242  0.6734
 4550TIP3    H213657   4.433   1.152   2.696 -0.0027 -0.3902  0.1105
 4551TIP3   OH213658   2.240   1.588   0.924  0.1826 -0.7045 -0.3720
 4551TIP3    H113659   2.200   1.516   0.973 -0.3443 -1.2875 -1.6050
 4551TIP3    H213660   2.167   1.628   0.876  0.8028 -0.7680 -1.4149
 4552TIP3   OH213661   0.116   3.119   0.446 -0.0115 -0.4408 -0.1143
 4552TIP3    H113662   0.189   3.137   0.506 -0.3647 -1.3311  0.5967
 4552TIP3    H213663   0.144   3.158   0.363  0.3358  1.1334  0.6928
 4553TIP3   OH213664   5.246   3.453   2.385 -0.2673  0.0197 -0.3323
 4553TIP3    H113665   5.220   3.395   2.456  0.5099 -0.4592 -0.4330
 4553TIP3    H213666   5.258   3.395   2.310  1.0538  0.2143 -0.2942
 4554TIP3   OH213667   4.256   4.761   2.943  0.0596  0.3384  0.2813
 4554TIP3    H113668   4.254   4.768   2.847 -0.7628 -0.6959  0.2136
 4554TIP3    H213669   4.319   4.829   2.970  1.2865 -0.2055 -1.0636
 4555TIP3   OH213670   2.289   5.559   3.976  0.1668  0.4501 -0.2606
 4555TIP3    H113671   2.335   5.530   4.055  0.5854  3.0985  0.5553
 4555TIP3    H213672   2.333   5.512   3.905 -0.6873 -2.5423  1.0335
 4556TIP3   OH213673   0.554   2.062   0.159  0.0921 -0.2490  0.3534
 4556TIP3    H113674   0.465   2.069   0.127  0.9159  1.7013 -1.7667
 4556TIP3    H213675   0.557   2.118   0.236 -0.1294  1.1247 -0.6020
 4557TIP3   OH213676   3.321   2.117   0.360  0.1737 -0.4539 -1.0376
 4557TIP3    H113677   3.229   2.144   0.356  0.2067 -0.4083 -1.5109
 4557TIP3    H213678   3.317   2.023   0.377  0.0544  0.0473  2.5900
 4558TIP3   OH213679   2.099   1.641   0.653  0.1123  0.0419  0.7477
 4558TIP3    H113680   2.099   1.737   0.653 -3.2399  0.1708 -0.2809
 4558TIP3    H213681   2.143   1.617   0.571  1.5023  0.5929  1.2860
 4559TIP3   OH213682   3.241   1.850   0.388 -0.3070  0.3818 -0.7733
 4559TIP3    H113683   3.309   1.784   0.403  0.8960  1.7211 -0.1026
 4559TIP3    H213684   3.160   1.807   0.414  0.4440 -0.8507 -0.4051
 4560TIP3   OH213685   6.200   2.075   3.994  0.1211  0.3695  0.5512
 4560TIP3    H113686   6.213   2.157   3.948 -0.0906  1.5798  2.5106
 4560TIP3    H213687   6.209   2.098   4.087  0.2982 -1.8699  1.1488
 4561TIP3   OH213688   2.189   5.216   3.428 -0.3504 -0.5717 -0.6551
 4561TIP3    H113689   2.138   5.242   3.505  0.5457 -0.1038 -0.2020
 4561TIP3    H213690   2.224   5.298   3.394  0.3299 -0.9053 -0.7843
 4562TIP3   OH213691   6.099   0.233   0.459 -0.1438 -0.1443 -0.2546
 4562TIP3    H113692   6.116   0.324   0.435  0.3216  0.3881  1.8667
 4562TIP3    H213693   6.082   0.236   0.553 -0.3142 -2.2401 -0.1703
 4563TIP3   OH213694   5.722   4.202   4.651  0.3007 -0.5038 -1.1534
 4563TIP3    H113695   5.631   4.230   4.642  0.1087 -1.2655 -1.7221
 4563TIP3    H213696   5.744   4.221   4.742 -0.2208  0.2655 -1.1781
 4564TIP3   OH213697   3.589   0.652   3.002 -0.0941  0.1517 -0.2088
 4564TIP3    H113698   3.503   0.620   2.973  1.2523 -0.0661 -4.7083
 4564TIP3    H213699   3.649   0.580   2.982  1.5324  1.4115 -0.0028
 4565TIP3   OH213700   1.639   0.256   1.481 -0.4657 -0.4565  0.2340
 4565TIP3    H113701   1.719   0.267   1.429 -1.6614 -1.1226 -1.8453
 4565TIP3    H213702   1.634   0.161   1.497 -1.5082 -0.6133 -0.8513
 4566TIP3   OH213703   5.867   2.044   2.421 -0.4302 -0.3489 -0.3063
 4566TIP3    H113704   5.904   1.969   2.469 -1.4086  0.2099  1.3888
 4566TIP3    H213705   5.922   2.118   2.446 -2.3786  0.4378  2.0164
 4567TIP3   OH213706   5.780   1.506   2.133  0.0291 -0.1711 -0.0372
 4567TIP3    H113707   5.818   1.592   2.118 -0.5731  0.4650  1.7842
 4567TIP3    H213708   5.708   1.522   2.194  0.3521 -2.0533  0.9129
 4568TIP3   OH213709   0.420   0.445   1.985  0.0702 -0.1993  0.4125
 4568TIP3    H113710   0.428   0.540   1.990  0.4920 -0.2544  0.9171
 4568TIP3    H213711   0.510   0.414   1.979 -0.1187 -0.4776 -2.0412
 4569TIP3   OH213712   2.344   3.523   1.786 -0.1469 -0.0240 -0.1917
 4569TIP3    H113713   2.308   3.535   1.874  0.3354  0.2690 -0.0300
 4569TIP3    H213714   2.364   3.430   1.781  0.0822  0.0083  0.1085
 4570TIP3   OH213715   5.152   5.954   4.201  0.0840 -0.1888 -0.5982
 4570TIP3    H113716   5.063   5.958   4.167  0.2238  1.4164 -0.8290
 4570TIP3    H213717   5.200   6.021   4.153  0.9804  0.2252  0.8075
 4571TIP3   OH213718   3.944   2.777   4.924  0.1057 -0.1953  0.4063
 4571TIP3    H113719   3.911   2.716   4.858 -0.5522  1.3572 -0.7711
 4571TIP3    H213720   4.020   2.818   4.884  0.1757  0.2032  0.9255
 4572TIP3   OH213721   6.105   0.511   0.379 -0.4995  0.3026 -0.1461
 4572TIP3    H113722   6.139   0.571   0.445 -1.7450  0.8423  0.0361
 4572TIP3    H213723   6.151   0.534   0.299 -0.8598  1.4254 -0.0449
 4573TIP3   OH213724   6.114   3.496   1.070 -0.2275 -0.8876  0.0761
 4573TIP3    H113725   6.176   3.519   1.139 -0.0810 -0.1457 -0.2901
 4573TIP3    H213726   6.157   3.425   1.023  0.0893 -0.7736  0.1856
 4574TIP3   OH213727   3.394   4.541   5.159 -0.3958 -0.3918  0.4908
 4574TIP3    H113728   3.362   4.558   5.247  2.0074  2.0707  1.0324
 4574TIP3    H213729   3.322   4.566   5.102 -1.2663  0.0065  1.7234
 4575TIP3   OH213730   5.262   4.209   4.880 -0.0439 -0.2939 -0.6212
 4575TIP3    H113731   5.316   4.150   4.829  1.7976  0.5842  0.2189
 4575TIP3    H213732   5.290   4.196   4.971 -0.4034  1.0417 -0.2892
 4576TIP3   OH213733   2.393   3.486   0.430 -0.3999  0.7648 -0.0261
 4576TIP3    H113734   2.404   3.539   0.351 -1.3354  1.1297  0.0771
 4576TIP3    H213735   2.467   3.512   0.486  0.4781  0.2411 -0.8997
 4577TIP3   OH213736   5.114   5.117   1.360  0.1956 -0.3326  0.3096
 4577TIP3    H113737   5.055   5.077   1.296 -0.5470 -1.9730  1.9449
 4577TIP3    H213738   5.087   5.208   1.363 -0.5172 -0.4758 -0.8655
 4578TIP3   OH213739   4.151   4.645   4.377  0.3350 -0.2805 -0.3788
 4578TIP3    H113740   4.196   4.660   4.460 -0.4894  1.6141 -0.2222
 4578TIP3    H213741   4.221   4.625   4.315  0.9794 -1.5694  0.6908
 4579TIP3   OH213742   1.173   0.388   0.471 -0.5709 -0.4941  0.5946
 4579TIP3    H113743   1.080   0.371   0.484 -0.5482 -0.8418  0.3281
 4579TIP3    H213744   1.209   0.399   0.559 -0.3456 -3.1125  0.9173
 4580TIP3   OH213745   2.476   5.511   3.206  0.0798  0.0739 -0.7201
 4580TIP3    H113746   2.548   5.562   3.244 -0.2029  1.4169 -1.9060
 4580TIP3    H213747   2.463   5.549   3.119 -1.5338 -0.6639 -0.8356
 4581TIP3   OH213748   6.169   4.700   3.104  0.3071  0.3610  0.1790
 4581TIP3    H113749   6.174   4.623   3.047  0.4566  0.6071 -0.1421
 4581TIP3    H213750   6.257   4.738   3.101 -0.2564  1.6531 -1.2229
 4582TIP3   OH213751   0.611   2.705   1.158 -0.0724 -0.1301  0.3532
 4582TIP3    H113752   0.685   2.702   1.218 -0.5434 -1.7537  0.9044
 4582TIP3    H213753   0.651   2.692   1.071  0.1408 -4.6402  0.8874
 4583TIP3   OH213754   0.786   3.701   2.808 -0.5294 -0.8685  0.0673
 4583TIP3    H113755   0.778   3.763   2.736  0.0321 -1.3806 -0.4557
 4583TIP3    H213756   0.829   3.625   2.768 -1.3127 -1.6420  0.6578
 4584TIP3   OH213757   1.465   4.899   4.631  0.2820  0.0366 -0.5227
 4584TIP3    H113758   1.486   4.948   4.552 -0.2283  0.9614 -0.1024
 4584TIP3    H213759   1.421   4.963   4.688  0.8521 -0.5395  0.6012
 4585TIP3   OH213760   1.470   0.334   1.743  0.5974  0.5829  0.2099
 4585TIP3    H113761   1.394   0.325   1.801 -0.2946 -0.6656 -1.0700
 4585TIP3    H213762   1.529   0.394   1.788 -0.8532  1.0382  1.5605
 4586TIP3   OH213763   5.624   1.776   3.483  0.2299 -0.1592  0.8131
 4586TIP3    H113764   5.618   1.683   3.459  1.8731 -0.1878  0.4307
 4586TIP3    H213765   5.567   1.784   3.559  0.6852 -1.6567  1.3449
 4587TIP3   OH213766   5.375   1.241   5.136 -1.2388 -0.0887  0.4002
 4587TIP3    H113767   5.343   1.199   5.056  1.6667 -2.9727  0.5710
 4587TIP3    H213768   5.304   1.228   5.199 -2.8988  0.7825 -1.1776
 4588TIP3   OH213769   1.842   0.520   4.826  0.1751 -0.8124  0.7808
 4588TIP3    H113770   1.841   0.611   4.856  0.6138 -1.2349  2.1654
 4588TIP3    H213771   1.903   0.476   4.886 -0.7547 -2.2141  0.7289
 4589TIP3   OH213772   0.236   1.112   0.057 -0.3920 -0.0211 -0.2582
 4589TIP3    H113773   0.318   1.103   0.106 -0.6577 -0.8905  0.0444
 4589TIP3    H213774   0.186   1.034   0.079 -1.9586  1.2087  0.7865
 4590TIP3   OH213775   1.913   5.344   3.873 -0.9724  0.2474  0.2946
 4590TIP3    H113776   1.878   5.271   3.924 -1.1658 -0.5177 -0.8917
 4590TIP3    H213777   1.901   5.420   3.929 -3.3363 -0.1897  0.4897
 4591TIP3   OH213778   3.689   5.821   3.365  0.3685  0.6710  0.0628
 4591TIP3    H113779   3.717   5.761   3.296  0.8621  1.4370 -0.4203
 4591TIP3    H213780   3.761   5.884   3.372  0.0979  0.8905  0.9339
 4592TIP3   OH213781   0.322   5.830   0.509 -0.4054  0.2186 -0.0286
 4592TIP3    H113782   0.325   5.761   0.443  0.9153 -1.3008  1.5170
 4592TIP3    H213783   0.355   5.908   0.463 -1.1332 -0.3435 -1.5801
 4593TIP3   OH213784   0.552   3.257   2.777  0.1511 -0.2515  0.3990
 4593TIP3    H113785   0.621   3.191   2.769  1.7413  1.2485  1.1150
 4593TIP3    H213786   0.585   3.332   2.727 -2.0416 -0.2632 -1.2253
 4594TIP3   OH213787   5.736   1.242   0.574  0.5042 -0.2393  0.2926
 4594TIP3    H113788   5.647   1.249   0.610  1.2773 -2.9121  3.1733
 4594TIP3    H213789   5.761   1.332   0.555 -3.1091  0.5617 -1.6417
 4595TIP3   OH213790   2.111   4.174   3.078  0.2070  0.2166  0.7959
 4595TIP3    H113791   2.018   4.193   3.092  0.1732  0.6541  0.0689
 4595TIP3    H213792   2.111   4.088   3.036 -0.0542  1.2077 -1.3741
 4596TIP3   OH213793   0.592   5.637   3.579  0.9572  0.6457 -0.0599
 4596TIP3    H113794   0.573   5.721   3.621  0.9925  0.0233  1.2558
 4596TIP3    H213795   0.665   5.601   3.628  0.7515 -0.2914 -0.4089
 4597TIP3   OH213796   0.340   4.358   0.149  0.0998  0.0918 -0.3460
 4597TIP3    H113797   0.293   4.399   0.075 -0.4738 -0.8144 -0.5021
 4597TIP3    H213798   0.319   4.265   0.141 -2.3889  0.2633  2.6342
 4598TIP3   OH213799   1.049   0.336   4.321 -0.3435 -0.1224  0.8624
 4598TIP3    H113800   1.064   0.420   4.278 -1.1575  0.0704  0.9353
 4598TIP3    H213801   0.954   0.333   4.335 -0.4607 -1.4804 -0.0104
 4599TIP3   OH213802   0.255   1.531   5.074  0.5763  0.0079  0.4579
 4599TIP3    H113803   0.196   1.606   5.084  0.6571 -0.0752  1.7948
 4599TIP3    H213804   0.342   1.570   5.066  0.4618  0.0959 -0.4193
 4600TIP3   OH213805   1.802   4.142   1.270  0.0521  0.4370 -0.4563
 4600TIP3    H113806   1.723   4.126   1.218  0.4699  0.1206 -1.0121
 4600TIP3    H213807   1.830   4.055   1.298  0.3824  0.5186 -0.5346
 4601TIP3   OH213808   3.384   0.062   4.321 -0.0082 -0.8335 -0.0800
 4601TIP3    H113809   3.323   0.017   4.263 -1.0050  0.0612  0.2357
 4601TIP3    H213810   3.416   0.136   4.269 -1.5678  0.4776  0.7499
 4602TIP3   OH213811   3.406   1.244   1.151 -0.1419  0.2059 -0.2878
 4602TIP3    H113812   3.371   1.319   1.104 -0.8423  1.2333  1.7612
 4602TIP3    H213813   3.465   1.282   1.217  1.0637 -1.1945 -0.5002
 4603TIP3   OH213814   2.500   3.774   2.626  0.6491  0.2956 -0.7081
 4603TIP3    H113815   2.487   3.775   2.721  1.1437  0.7447 -0.6416
 4603TIP3    H213816   2.488   3.682   2.601  0.4488  0.1885 -0.2225
 4604TIP3   OH213817   0.578   3.110   3.833  0.0968 -0.8464 -0.1843
 4604TIP3    H113818   0.629   3.190   3.817 -1.1817 -0.2199 -1.2974
 4604TIP3    H213819   0.490   3.141   3.852 -0.5360 -2.0017 -1.1420
 4605TIP3   OH213820   6.330   3.869   1.497 -0.6333 -0.0630  0.0338
 4605TIP3    H113821   6.368   3.904   1.417 -1.0863  2.2610  0.7708
 4605TIP3    H213822   6.236   3.881   1.487 -0.7824 -0.7737  0.4747
 4606TIP3   OH213823   1.597   4.041   2.129  0.4445 -0.6831 -0.3527
 4606TIP3    H113824   1.689   4.019   2.140  0.3092 -1.4733 -0.6565
 4606TIP3    H213825   1.550   3.975   2.181  0.0095 -1.2896 -1.4504
 4607TIP3   OH213826   5.996   0.823   0.337  0.1275  0.2012 -0.6726
 4607TIP3    H113827   5.906   0.809   0.305  0.1384  0.3336 -0.7614
 4607TIP3    H213828   5.985   0.844   0.430  0.1667 -1.2460 -0.3172
 4608TIP3   OH213829   0.197   4.627   2.122  0.3675  0.6577  0.0985
 4608TIP3    H113830   0.271   4.613   2.181  0.9229  0.4736 -0.6429
 4608TIP3    H213831   0.121   4.633   2.181  0.8939  0.3347  0.8236
 4609TIP3   OH213832   2.909   3.234   3.441 -0.5997  0.0404  0.1083
 4609TIP3    H113833   2.822   3.272   3.458 -1.4996 -0.8192 -2.1266
 4609TIP3    H213834   2.892   3.140   3.434  0.7871 -0.2957  0.9885
 4610TIP3   OH213835   1.733   3.835   0.879  0.6435 -0.7641  0.4267
 4610TIP3    H113836   1.810   3.785   0.904 -0.3458 -2.3153  0.5058
 4610TIP3    H213837   1.707   3.883   0.958  1.8270  0.2355  0.2384
 4611TIP3   OH213838   3.730   1.368   1.958 -0.1929  0.1248 -0.7064
 4611TIP3    H113839   3.808   1.313   1.961  0.2969  0.8466  0.8303
 4611TIP3    H213840   3.732   1.409   1.872  0.6690 -0.4954 -0.9950
 4612TIP3   OH213841   0.477   4.393   3.002 -0.5025 -0.1811  0.3237
 4612TIP3    H113842   0.416   4.349   3.062  3.4269 -4.3711  1.8198
 4612TIP3    H213843   0.523   4.457   3.055  1.0867 -1.9923  1.2575
 4613TIP3   OH213844   0.516   2.637   0.311  0.3505 -0.1754 -0.0275
 4613TIP3    H113845   0.487   2.601   0.227  1.0141  0.8517 -0.7097
 4613TIP3    H213846   0.439   2.629   0.367  0.2267 -1.8666 -0.3943
 4614TIP3   OH213847   2.958   1.462   5.018 -0.8155 -0.4249  0.2819
 4614TIP3    H113848   2.998   1.546   5.043 -1.8053  0.2440 -0.2871
 4614TIP3    H213849   2.865   1.483   5.007 -0.9824 -1.4833 -0.4052
 4615TIP3   OH213850   5.284   1.629   3.644 -0.0606  0.3728  0.9025
 4615TIP3    H113851   5.265   1.679   3.564  2.3081  1.0622  0.6927
 4615TIP3    H213852   5.251   1.541   3.627  0.8126  0.3880 -1.0414
 4616TIP3   OH213853   3.197   0.831   2.628  0.4669  0.1438 -0.0331
 4616TIP3    H113854   3.202   0.754   2.571 -0.0182 -0.2051  0.3871
 4616TIP3    H213855   3.119   0.878   2.598 -0.1273 -0.3506  0.7195
 4617TIP3   OH213856   5.764   1.549   4.421  0.3567  0.3032  0.3275
 4617TIP3    H113857   5.857   1.570   4.412  0.1433  1.1010 -0.0984
 4617TIP3    H213858   5.757   1.459   4.387  1.3078 -0.6029  2.3774
 4618TIP3   OH213859   4.907   4.770   5.075 -0.0705  0.5930 -0.2508
 4618TIP3    H113860   4.921   4.845   5.018 -3.0943  1.2156 -0.3564
 4618TIP3    H213861   4.917   4.694   5.018 -1.7903  1.1540 -1.3750
 4619TIP3   OH213862   1.959   0.531   2.749  0.1073  0.1493 -0.1997
 4619TIP3    H113863   2.006   0.450   2.767 -0.9291 -0.2806  0.6513
 4619TIP3    H213864   1.872   0.504   2.722  0.0417  0.9611 -0.8457
 4620TIP3   OH213865   1.761   4.555   5.058  0.0666 -0.1444 -0.4606
 4620TIP3    H113866   1.846   4.516   5.038  0.6527  0.3112  1.0100
 4620TIP3    H213867   1.764   4.641   5.016  0.5769  0.1035  0.0674
 4621TIP3   OH213868   5.628   2.447   4.580  0.2803 -0.2134 -0.3956
 4621TIP3    H113869   5.600   2.374   4.525 -1.6213  1.0957 -1.2846
 4621TIP3    H213870   5.706   2.481   4.537 -0.2240 -0.2456 -1.3546
 4622TIP3   OH213871   4.899   1.858   3.634 -0.5625  0.7984 -0.0198
 4622TIP3    H113872   4.966   1.880   3.699  0.6538  0.4926 -1.1170
 4622TIP3    H213873   4.885   1.940   3.586  0.0105  0.5485 -0.6340
 4623TIP3   OH213874   2.975   3.605   3.625 -0.0935  0.3217  0.1954
 4623TIP3    H113875   2.896   3.606   3.571 -0.4116  1.8380  0.6366
 4623TIP3    H213876   2.944   3.580   3.712  0.1214 -0.2945  0.0991
 4624TIP3   OH213877   1.126   4.747   4.985  0.6501 -0.1272 -0.2728
 4624TIP3    H113878   1.081   4.832   4.989  0.9143  0.0421 -0.7838
 4624TIP3    H213879   1.172   4.740   5.069  0.0598 -0.0863  0.0581
 4625TIP3   OH213880   3.395   3.817   3.586  0.0412 -0.2098 -1.0541
 4625TIP3    H113881   3.366   3.752   3.651 -0.7112  0.8963 -0.2536
 4625TIP3    H213882   3.334   3.806   3.513 -0.7937  0.3329 -0.4567
 4626TIP3   OH213883   2.250   2.701   2.098 -0.2014  0.4905 -0.1159
 4626TIP3    H113884   2.337   2.710   2.057  0.4546  0.0953  1.1220
 4626TIP3    H213885   2.247   2.609   2.126 -1.3982  0.2630 -0.9191
 4627TIP3   OH213886   0.501   2.776   3.449  0.2308 -0.6611  0.0418
 4627TIP3    H113887   0.511   2.744   3.539  1.8349  0.3471  0.2628
 4627TIP3    H213888   0.484   2.870   3.459  1.4025 -0.3412 -0.6890
 4628TIP3   OH213889   5.790   1.794   5.147  0.0299 -0.2975 -0.2537
 4628TIP3    H113890   5.870   1.759   5.185  0.4412 -0.4744 -1.2527
 4628TIP3    H213891   5.730   1.719   5.145 -0.2955 -0.0879  0.7954
 4629TIP3   OH213892   2.701   4.692   4.309  0.2279  0.4174 -0.1752
 4629TIP3    H113893   2.795   4.692   4.290  0.6238  1.7595  1.5560
 4629TIP3    H213894   2.689   4.625   4.376 -0.2106 -0.3396 -0.9919
 4630TIP3   OH213895   2.942   0.339   3.106 -0.5478 -0.4169 -0.1788
 4630TIP3    H113896   3.034   0.310   3.110 -0.6171 -0.6041  0.1304
 4630TIP3    H213897   2.944   0.419   3.055 -0.2482 -0.5766 -0.4187
 4631TIP3   OH213898   5.504   3.064   3.024  0.4712  0.1112 -0.3839
 4631TIP3    H113899   5.573   3.056   2.958  1.5535  1.3074  0.5367
 4631TIP3    H213900   5.504   3.157   3.047  0.7012 -0.3797  1.8542
 4632TIP3   OH213901   6.201   1.162   2.691 -0.1374 -0.3034 -0.2754
 4632TIP3    H113902   6.270   1.217   2.726  0.6524 -0.0144 -2.1588
 4632TIP3    H213903   6.155   1.219   2.629 -0.4184 -1.2497 -0.9496
 4633TIP3   OH213904   4.900   3.864   3.920 -0.3866  0.3918  0.1073
 4633TIP3    H113905   4.881   3.912   3.839  1.4500  2.3764  0.7554
 4633TIP3    H213906   4.975   3.809   3.897  0.1525  0.9763  0.4411
 4634TIP3   OH213907   5.803   1.962   2.140  0.5570  0.0096  0.5865
 4634TIP3    H113908   5.833   1.880   2.100  3.0090  1.2335 -0.2510
 4634TIP3    H213909   5.821   1.950   2.234 -2.6922 -1.7910  1.1640
 4635TIP3   OH213910   4.294   0.498   0.101  0.5135  0.5301  0.2274
 4635TIP3    H113911   4.313   0.520   0.193  1.1908  0.4259  0.1201
 4635TIP3    H213912   4.305   0.403   0.096 -1.8563  0.2007  0.5587
 4636TIP3   OH213913   6.350   2.687   0.583  0.5346  0.2582  0.2968
 4636TIP3    H113914   6.260   2.690   0.614  0.7001  2.5371  0.7491
 4636TIP3    H213915   6.362   2.770   0.536  2.2573 -0.2155 -0.1907
 4637TIP3   OH213916   3.159   1.344   5.188 -0.7642 -0.3056 -0.0082
 4637TIP3    H113917   3.086   1.359   5.127  0.1747  0.6714 -0.9351
 4637TIP3    H213918   3.237   1.352   5.134  0.0588 -1.2509  0.9916
 4638TIP3   OH213919   1.025   2.825   1.236 -0.0235  0.1505 -0.4669
 4638TIP3    H113920   1.096   2.871   1.280  0.0182 -1.1822  0.9214
 4638TIP3    H213921   0.957   2.892   1.224  0.8481  1.0618 -0.4143
 4639TIP3   OH213922   4.912   2.329   0.045 -0.6103  0.0915 -0.9259
 4639TIP3    H113923   4.849   2.270   0.004  1.6623 -1.1499 -2.9359
 4639TIP3    H213924   4.918   2.299   0.136 -0.3699 -2.1135 -1.6078
 4640TIP3   OH213925   1.741   5.284   5.101  0.5754 -0.0421 -0.5647
 4640TIP3    H113926   1.823   5.288   5.151  0.9245 -1.7863 -0.9376
 4640TIP3    H213927   1.756   5.341   5.026  1.2469  0.0686 -0.3581
 4641TIP3   OH213928   1.889   3.600   0.416 -0.0264 -0.0268 -0.3740
 4641TIP3    H113929   1.874   3.634   0.328 -0.3596 -0.4586 -0.4869
 4641TIP3    H213930   1.982   3.612   0.431  0.2350 -0.9366 -1.2074
 4642TIP3   OH213931   6.029   5.054   2.636 -0.3657  0.2861  0.1384
 4642TIP3    H113932   5.972   5.075   2.562 -0.1233  1.2004  0.1994
 4642TIP3    H213933   6.104   5.113   2.626  0.0602 -0.1505  0.6619
 4643TIP3   OH213934   2.975   5.339   2.412  0.7149 -0.2892  0.6730
 4643TIP3    H113935   2.927   5.285   2.349  2.6908  1.0396 -2.2079
 4643TIP3    H213936   2.986   5.282   2.488  0.9062 -3.2233 -1.3611
 4644TIP3   OH213937   4.026   3.840   2.114 -0.1725 -0.4195 -0.0754
 4644TIP3    H113938   4.084   3.877   2.047  0.0378  0.1904  0.4419
 4644TIP3    H213939   3.971   3.778   2.065  0.0779 -0.0927 -0.7924
 4645TIP3   OH213940   1.393   2.872   1.398  0.6395  0.0019  0.0606
 4645TIP3    H113941   1.461   2.808   1.377 -1.0155 -1.6828 -0.4953
 4645TIP3    H213942   1.354   2.893   1.313  0.0095  0.3735  0.4367
 4646TIP3   OH213943   1.219   1.785   0.261 -0.1089  0.4336  0.1146
 4646TIP3    H113944   1.266   1.743   0.333 -0.5877  1.0850  0.8206
 4646TIP3    H213945   1.137   1.815   0.300 -0.6629  0.2132 -0.8649
 4647TIP3   OH213946   4.490   3.138   0.430  0.0294 -0.4398 -0.1938
 4647TIP3    H113947   4.419   3.081   0.399 -0.0262 -0.6997  0.3926
 4647TIP3    H213948   4.458   3.174   0.513  0.9389 -1.2964  0.5553
 4648TIP3   OH213949   2.638   3.603   2.800 -0.0958  0.3331 -0.1323
 4648TIP3    H113950   2.559   3.559   2.769 -1.0390  0.5736  1.7793
 4648TIP3    H213951   2.695   3.532   2.829 -0.3150  0.2254  0.0409
 4649TIP3   OH213952   2.053   0.065   3.828 -0.2235  0.2895 -0.0634
 4649TIP3    H113953   2.013  -0.014   3.865 -0.6717  1.0301  1.0664
 4649TIP3    H213954   2.039   0.056   3.734  0.5229 -1.4052 -0.0565
 4650TIP3   OH213955   4.843   4.378   4.895  0.8514 -0.5738 -0.3058
 4650TIP3    H113956   4.778   4.349   4.831  0.3702  0.1082 -0.1264
 4650TIP3    H213957   4.890   4.298   4.918  0.7833 -0.8935 -1.2256
 4651TIP3   OH213958   3.917   4.714   4.512  0.3893 -0.1775  0.5101
 4651TIP3    H113959   3.898   4.802   4.479 -0.0312 -0.0975  0.9381
 4651TIP3    H213960   3.989   4.682   4.458  2.9633  1.7789  2.5172
 4652TIP3   OH213961   1.981   3.123   5.139 -0.1292  0.2828  0.2324
 4652TIP3    H113962   1.924   3.180   5.087  0.7467  0.9248 -0.0447
 4652TIP3    H213963   1.933   3.110   5.221 -0.5469  1.0492  0.1196
 4653TIP3   OH213964   2.872   4.701   0.806 -0.0697  0.2500  0.1126
 4653TIP3    H113965   2.918   4.625   0.841  0.2702  0.2108 -0.4025
 4653TIP3    H213966   2.796   4.711   0.862  1.8556  1.8779  2.6542
 4654TIP3   OH213967   6.088   4.050   3.787  0.3688  0.3264  0.5632
 4654TIP3    H113968   6.020   3.983   3.788  1.0059 -0.4368 -1.3791
 4654TIP3    H213969   6.144   4.029   3.861 -0.3904 -0.2379  0.9951
 4655TIP3   OH213970   4.148   5.495   0.585  0.6920 -0.0358 -0.1187
 4655TIP3    H113971   4.066   5.494   0.634  1.0359 -2.7608  0.5732
 4655TIP3    H213972   4.216   5.501   0.652  1.1745  3.1305 -0.7185
 4656TIP3   OH213973   4.275   0.495   4.180 -0.1740  0.1146 -0.3531
 4656TIP3    H113974   4.184   0.520   4.164 -0.2765 -1.1748 -2.0379
 4656TIP3    H213975   4.308   0.467   4.094  1.5543 -0.2712  0.3862
 4657TIP3   OH213976   3.321   1.884   2.967 -0.2418 -0.0667  0.0090
 4657TIP3    H113977   3.297   1.865   2.876 -0.4301  0.0971  0.0245
 4657TIP3    H213978   3.417   1.890   2.965 -0.1347 -1.4040  0.0759
 4658TIP3   OH213979   5.060   5.226   3.881  0.2118 -0.0309  0.4209
 4658TIP3    H113980   4.981   5.279   3.871  0.4597  0.2935  0.1465
 4658TIP3    H213981   5.077   5.191   3.794  0.7836  0.5050  0.3105
 4659TIP3   OH213982   3.526   1.146   4.847  0.1528  0.0770 -0.3993
 4659TIP3    H113983   3.613   1.181   4.825  0.4136  1.0647  1.8695
 4659TIP3    H213984   3.465   1.209   4.809  0.5002  0.4810 -0.3051
 4660TIP3   OH213985   3.099   4.463   2.659  0.5389  0.6443  0.5208
 4660TIP3    H113986   3.035   4.534   2.672 -0.3125 -0.1456  0.7247
 4660TIP3    H213987   3.093   4.443   2.566  0.7794  0.8285  0.4633
 4661TIP3   OH213988   4.405   4.535   0.799 -0.2860 -0.3860  0.0091
 4661TIP3    H113989   4.330   4.488   0.763 -0.3956  0.0279 -0.3097
 4661TIP3    H213990   4.369   4.585   0.873 -0.5530  0.6124 -0.7583
 4662TIP3   OH213991   0.194   5.826   1.702 -0.0780 -0.3757 -0.7006
 4662TIP3    H113992   0.210   5.825   1.607  0.4122 -0.0371 -0.6186
 4662TIP3    H213993   0.268   5.777   1.739  0.1120  0.1156 -0.4311
 4663TIP3   OH213994   2.498   5.853   3.366 -0.2867  0.0643  0.0513
 4663TIP3    H113995   2.556   5.784   3.333 -0.5479 -0.7113  1.1664
 4663TIP3    H213996   2.524   5.865   3.457 -1.8860 -0.3210  0.5856
 4664TIP3   OH213997   2.539   5.940   1.894 -0.0907  0.4369  0.1190
 4664TIP3    H113998   2.457   5.985   1.875 -0.6400  0.0728  1.4716
 4664TIP3    H213999   2.547   5.945   1.990  0.6357 -0.9279  0.1548
 4665TIP3   OH214000   5.751   4.895   0.134  0.3136  0.9381  0.3781
 4665TIP3    H114001   5.797   4.975   0.159  0.3850  1.4782 -1.3911
 4665TIP3    H214002   5.821   4.832   0.116  0.2643  0.5859  1.3751
 4666TIP3   OH214003   4.555   1.786   1.807 -0.1605  0.5250 -0.4031
 4666TIP3    H114004   4.604   1.792   1.889 -1.8979  0.9536  0.6543
 4666TIP3    H214005   4.475   1.836   1.823 -1.6872 -1.4142 -1.4934
 4667TIP3   OH214006   4.518   2.785   0.459 -0.0741  0.2796 -0.0456
 4667TIP3    H114007   4.603   2.829   0.467  0.3103 -0.3310 -0.6481
 4667TIP3    H214008   4.454   2.856   0.465  0.4464  0.6928  0.9096
 4668TIP3   OH214009   4.208   5.897   1.461 -0.2597  0.2525 -0.0883
 4668TIP3    H114010   4.267   5.971   1.475  0.4744 -0.6693  2.2267
 4668TIP3    H214011   4.254   5.822   1.498 -1.7880 -1.0140 -0.6142
 4669TIP3   OH214012   3.903   0.056   1.659  0.1478  0.4943 -0.1129
 4669TIP3    H114013   3.950  -0.026   1.643  2.1355  1.2350  1.4346
 4669TIP3    H214014   3.927   0.079   1.749  1.3253  3.7808 -1.1277
 4670TIP3   OH214015   4.706   2.330   2.020 -0.0080  0.7904 -0.2287
 4670TIP3    H114016   4.742   2.364   2.102  2.6890  0.4583 -1.1556
 4670TIP3    H214017   4.664   2.247   2.045  1.6602  0.1797  0.7248
 4671TIP3   OH214018   3.239   5.340   2.289 -0.2131  0.5772 -0.1872
 4671TIP3    H114019   3.156   5.375   2.321 -2.2098 -1.9529 -2.0910
 4671TIP3    H214020   3.232   5.346   2.194  0.8940 -1.4314 -0.4461
 4672TIP3   OH214021   4.602   2.944   4.800  0.0141 -0.4520  0.0718
 4672TIP3    H114022   4.586   2.988   4.716 -1.9979 -1.7466 -0.2882
 4672TIP3    H214023   4.557   2.998   4.865  1.1895  0.3031  0.2873
 4673TIP3   OH214024   4.779   1.577   2.259 -0.1379  0.4644  0.1221
 4673TIP3    H114025   4.779   1.669   2.285 -0.5519  1.1451 -2.1332
 4673TIP3    H214026   4.689   1.548   2.275 -0.1896  0.6405  0.1525
 4674TIP3   OH214027   5.498   3.534   0.084  0.3523  0.1899 -0.1950
 4674TIP3    H114028   5.511   3.606   0.022  0.4490  1.9831  1.7976
 4674TIP3    H214029   5.585   3.515   0.119  0.0047  0.8740  1.1154
 4675TIP3   OH214030   5.199   3.374   1.087 -0.7405 -0.2104  0.2062
 4675TIP3    H114031   5.104   3.381   1.076 -0.6938  1.7050  0.5835
 4675TIP3    H214032   5.214   3.283   1.113 -2.5639 -0.3361  0.9463
 4676TIP3   OH214033   0.946   4.811   1.648  0.4892  0.3895  0.0065
 4676TIP3    H114034   0.903   4.888   1.610 -0.4628  0.5263  1.2781
 4676TIP3    H214035   0.934   4.821   1.743  1.1842 -0.8494  0.2497
 4677TIP3   OH214036   3.235   0.552   2.561  0.2963 -0.3225  0.3975
 4677TIP3    H114037   3.237   0.467   2.518  1.8694 -0.4046  0.5616
 4677TIP3    H214038   3.155   0.551   2.613 -0.5880 -1.0123 -0.9225
 4678TIP3   OH214039   0.477   1.419   4.796  0.5452 -0.2874  0.4199
 4678TIP3    H114040   0.381   1.422   4.795  0.5335 -0.3149  1.2978
 4678TIP3    H214041   0.503   1.504   4.830  0.7533 -1.1644  2.6269
 4679TIP3   OH214042   2.387   4.917   3.401 -0.2014 -0.0504  0.5889
 4679TIP3    H114043   2.336   4.896   3.323 -0.3003 -2.1486  1.1422
 4679TIP3    H214044   2.459   4.972   3.369 -0.4070 -0.6087 -0.9271
 4680TIP3   OH214045   0.164   5.618   4.238  0.6187 -0.0902 -0.0433
 4680TIP3    H114046   0.223   5.688   4.210  1.9552 -1.4716 -0.8786
 4680TIP3    H214047   0.214   5.570   4.305  0.2554 -0.9782 -0.3865
 4681TIP3   OH214048   5.521   0.570   2.063 -0.1604 -0.1088 -0.1095
 4681TIP3    H114049   5.436   0.537   2.036 -0.1733 -2.1481  2.1124
 4681TIP3    H214050   5.516   0.578   2.158  1.2218  2.5862 -0.1696
 4682TIP3   OH214051   1.587   5.351   2.482  0.1312 -0.1394  0.7982
 4682TIP3    H114052   1.570   5.376   2.573 -0.4108 -0.6482  0.8407
 4682TIP3    H214053   1.550   5.422   2.430 -0.5876 -0.4008  0.9450
 4683TIP3   OH214054   2.980   4.697   4.251  0.3874 -0.4097 -0.2930
 4683TIP3    H114055   3.034   4.765   4.291  0.0573  1.3955 -2.6574
 4683TIP3    H214056   3.039   4.623   4.239  0.8992 -0.3972  1.8837
 4684TIP3   OH214057   4.035   2.222   3.016  0.1221 -0.2549 -0.5131
 4684TIP3    H114058   4.054   2.282   3.088 -0.0990  1.1188 -1.5508
 4684TIP3    H214059   4.083   2.259   2.941 -1.9715  0.0150 -1.7792
 4685TIP3   OH214060   0.777   1.824   3.938 -0.5143 -0.4402  0.4207
 4685TIP3    H114061   0.829   1.801   4.015 -1.8083 -0.1567  1.4177
 4685TIP3    H214062   0.688   1.799   3.961 -0.7547 -1.6452 -1.5523
 4686TIP3   OH214063   6.157   5.499   4.465  0.2565  0.0381  0.5194
 4686TIP3    H114064   6.237   5.544   4.489  0.1850  0.9614 -0.8848
 4686TIP3    H214065   6.165   5.483   4.371 -1.5632  0.9503  0.1533
 4687TIP3   OH214066   4.235   4.639   5.092 -0.4096  0.2162 -0.3021
 4687TIP3    H114067   4.140   4.647   5.089 -0.8269 -1.9687  2.7339
 4687TIP3    H214068   4.262   4.630   5.000 -3.2343 -0.2969 -1.1557
 4688TIP3   OH214069   1.682   0.506   2.621  0.1324 -0.0758 -0.6613
 4688TIP3    H114070   1.645   0.571   2.560  1.8451  1.6366  0.0402
 4688TIP3    H214071   1.655   0.536   2.707  0.0593 -0.9285 -0.3782
 4689TIP3   OH214072   4.825   1.346   4.560 -0.7481 -0.0269 -0.4153
 4689TIP3    H114073   4.770   1.270   4.576 -1.2508  0.6610  1.3486
 4689TIP3    H214074   4.840   1.384   4.647  3.0071 -0.4851 -0.6985
 4690TIP3   OH214075   1.563   3.339   0.337  0.0538  0.4958  0.1685
 4690TIP3    H114076   1.571   3.409   0.401 -2.3704  1.0373 -0.0450
 4690TIP3    H214077   1.598   3.262   0.381  1.0383  1.4382  1.0750
 4691TIP3   OH214078   1.963   0.507   1.243  0.1509  0.6922 -0.1910
 4691TIP3    H114079   2.031   0.570   1.268  1.6687 -0.7933 -0.3627
 4691TIP3    H214080   1.988   0.479   1.155  0.5080 -1.3689  0.5073
 4692TIP3   OH214081   3.888   3.555   4.842 -0.1673  0.5661 -0.0483
 4692TIP3    H114082   3.975   3.592   4.856 -0.3462  0.3595  1.8185
 4692TIP3    H214083   3.886   3.533   4.748  1.8568  0.3617 -0.0832
 4693TIP3   OH214084   6.284   0.740   1.793  0.3367 -0.3649 -0.2829
 4693TIP3    H114085   6.286   0.660   1.845  0.6399 -0.8010 -0.9613
 4693TIP3    H214086   6.318   0.715   1.708 -0.4798  0.2680 -0.8084
 4694TIP3   OH214087   6.126   5.694   0.597  0.0515  0.3969 -0.0433
 4694TIP3    H114088   6.060   5.760   0.577 -0.5563 -0.3623 -0.5785
 4694TIP3    H214089   6.193   5.707   0.529 -1.1853 -1.0382 -1.6087
 4695TIP3   OH214090   1.289   2.091   0.878 -0.4837 -0.0562  0.1652
 4695TIP3    H114091   1.270   2.184   0.889  0.6835  0.4563 -1.7438
 4695TIP3    H214092   1.244   2.049   0.951 -0.4919  2.0581  1.4701
 4696TIP3   OH214093   3.135   1.571   2.222 -0.4616 -0.7642  0.2290
 4696TIP3    H114094   3.192   1.557   2.147 -0.2861  1.1180 -0.0405
 4696TIP3    H214095   3.047   1.557   2.188 -0.4674  1.1562 -0.6699
 4697TIP3   OH214096   2.608   0.156   2.894  0.3237 -0.2902 -0.5196
 4697TIP3    H114097   2.676   0.133   2.830  1.8742 -3.4904  1.9514
 4697TIP3    H214098   2.536   0.095   2.875 -1.4948  2.1902 -2.2671
 4698TIP3   OH214099   3.468   2.622   2.423  0.2282  0.2671 -0.1064
 4698TIP3    H114100   3.373   2.636   2.421  0.3048  0.8336  0.0962
 4698TIP3    H214101   3.488   2.582   2.339 -0.2594 -0.3207  0.0460
 4699TIP3   OH214102   0.951   1.946   3.069  0.1759 -0.3850 -0.1138
 4699TIP3    H114103   1.001   2.002   3.009  2.6694 -0.4753  1.7028
 4699TIP3    H214104   0.932   1.867   3.019  1.7114 -0.2354 -0.9783
 4700TIP3   OH214105   3.208   1.960   4.320  0.1099  1.1424  0.2249
 4700TIP3    H114106   3.151   1.897   4.275  0.4667  0.2457  1.0051
 4700TIP3    H214107   3.269   1.990   4.253  0.0596  0.5050 -0.1119
 4701TIP3   OH214108   0.108   3.325   1.980  0.6218 -0.2286  0.0425
 4701TIP3    H114109   0.076   3.378   2.053 -0.0732  0.6884 -0.8977
 4701TIP3    H214110   0.033   3.318   1.921  0.7438 -2.1452  0.0481
 4702TIP3   OH214111   5.160   5.093   0.443  0.9087 -0.0970  0.1100
 4702TIP3    H114112   5.248   5.056   0.445  1.5640  1.3937  0.0094
 4702TIP3    H214113   5.155   5.141   0.360  0.3116  0.5230  0.4858
 4703TIP3   OH214114   1.193   2.102   3.240 -0.0611 -0.0144 -0.2811
 4703TIP3    H114115   1.128   2.168   3.264  0.2153  0.5415 -1.0297
 4703TIP3    H214116   1.201   2.110   3.145  1.2920  0.1116 -0.1699
 4704TIP3   OH214117   2.564   2.969   4.464 -0.4831  0.1314 -0.1837
 4704TIP3    H114118   2.631   2.942   4.402  0.7338  0.4791  0.9277
 4704TIP3    H214119   2.483   2.968   4.414  0.0432 -2.0981 -1.1222
 4705TIP3   OH214120   4.790   4.372   3.118  0.4509  0.3486 -0.1992
 4705TIP3    H114121   4.825   4.446   3.069  1.4491 -0.4637 -0.7580
 4705TIP3    H214122   4.862   4.309   3.122 -0.3881 -0.6253  0.2020
 4706TIP3   OH214123   1.447   0.604   4.237  0.3199  0.2839  0.6642
 4706TIP3    H114124   1.420   0.679   4.289  3.0126  1.6457  0.2810
 4706TIP3    H214125   1.458   0.638   4.148  1.1965 -0.6369  0.3903
 4707TIP3   OH214126   4.748   0.373   1.883 -0.8159  0.3207 -0.0756
 4707TIP3    H114127   4.804   0.450   1.873 -3.4742  2.5746  1.1675
 4707TIP3    H214128   4.713   0.380   1.972 -3.2680 -0.7875 -0.8641
 4708TIP3   OH214129   6.001   2.766   4.167 -0.2923  0.6837 -0.0226
 4708TIP3    H114130   6.060   2.826   4.212 -0.4244  0.5872  0.2832
 4708TIP3    H214131   5.931   2.749   4.230  1.1667 -2.0026  1.0365
 4709TIP3   OH214132   5.312   5.660   2.377  0.1055  0.3906 -0.0346
 4709TIP3    H114133   5.348   5.634   2.463  0.0946 -1.7046 -0.6085
 4709TIP3    H214134   5.390   5.679   2.324  0.1296  1.2468  0.2979
 4710TIP3   OH214135   2.528   0.713   1.012  0.4353  0.2722  0.8803
 4710TIP3    H114136   2.589   0.787   1.018  0.3818  0.3877  0.0590
 4710TIP3    H214137   2.460   0.743   0.952  0.8762 -0.7697 -0.1648
 4711TIP3   OH214138   5.592   4.822   0.334 -0.6848 -0.1704  0.2915
 4711TIP3    H114139   5.631   4.847   0.250 -1.4094  2.1132  0.5624
 4711TIP3    H214140   5.538   4.746   0.313 -1.4819  0.8275 -1.5028
 4712TIP3   OH214141   6.286   3.506   3.001  0.1535 -0.0142  0.6674
 4712TIP3    H114142   6.301   3.547   3.086  0.1007 -1.1056  1.2134
 4712TIP3    H214143   6.222   3.436   3.019  0.6874 -0.7227 -0.1332
 4713TIP3   OH214144   4.248   0.534   0.648  0.4797  0.2362  0.2692
 4713TIP3    H114145   4.260   0.444   0.677  1.9978  0.1617 -0.4999
 4713TIP3    H214146   4.223   0.526   0.556 -0.7772  0.5842  0.5545
 4714TIP3   OH214147   1.596   0.285   1.089 -0.2257 -0.2646  0.2642
 4714TIP3    H114148   1.617   0.192   1.100 -1.3384 -0.6102 -0.3535
 4714TIP3    H214149   1.501   0.289   1.100 -0.5068  0.4191 -1.9442
 4715TIP3   OH214150   3.124   4.957   2.120  1.0622  0.0971 -0.0989
 4715TIP3    H114151   3.152   4.926   2.206  1.1867  1.9643  0.5862
 4715TIP3    H214152   3.177   4.908   2.057  1.4783 -0.7804  0.9170
 4716TIP3   OH214153   3.449   2.719   0.056  0.1217 -0.5659 -0.0468
 4716TIP3    H114154   3.468   2.677  -0.028 -0.0574 -0.1640 -0.2941
 4716TIP3    H214155   3.353   2.717   0.063  0.1942 -2.4306  1.1147
 4717TIP3   OH214156   1.144   5.574   0.687  0.8307  0.4715 -0.7041
 4717TIP3    H114157   1.201   5.498   0.679 -1.7985 -1.8587  0.9702
 4717TIP3    H214158   1.154   5.603   0.777  1.0079  1.4746 -1.0301
 4718TIP3   OH214159   4.243   2.782   3.609  0.0079 -0.2006  0.3741
 4718TIP3    H114160   4.297   2.843   3.659  0.6701 -0.1619 -0.3595
 4718TIP3    H214161   4.228   2.709   3.668  1.2928 -0.4364  0.4410
 4719TIP3   OH214162   3.622   3.698   4.709 -0.2942  0.0589 -0.0535
 4719TIP3    H114163   3.604   3.791   4.709 -0.7481 -0.0130  1.2580
 4719TIP3    H214164   3.536   3.656   4.707 -0.0915 -0.3453 -0.8581
 4720TIP3   OH214165   0.230   5.686   5.133  0.2250  0.2826 -0.4493
 4720TIP3    H114166   0.248   5.685   5.039  0.9293  1.9486 -0.3600
 4720TIP3    H214167   0.305   5.731   5.172 -0.8492  1.1331  0.7232
 4721TIP3   OH214168   1.870   1.324   0.954  0.4359 -0.2178 -0.5838
 4721TIP3    H114169   1.804   1.266   0.992  0.4338  0.1422 -0.0169
 4721TIP3    H214170   1.857   1.317   0.860 -1.4111  0.9780 -0.4680
 4722TIP3   OH214171   1.694   3.697   4.313 -0.0374  0.4789  0.3237
 4722TIP3    H114172   1.616   3.645   4.293  0.5838 -1.2889  2.1331
 4722TIP3    H214173   1.666   3.754   4.385  0.0508  0.6029  0.2589
 4723TIP3   OH214174   3.328   4.850   4.607  0.1155  0.3358 -0.1305
 4723TIP3    H114175   3.365   4.904   4.538  0.7652  0.1111  0.0379
 4723TIP3    H214176   3.389   4.858   4.681 -0.4312  0.3644  0.3279
 4724TIP3   OH214177   3.399   2.391   1.257 -0.2337 -0.2967 -0.2141
 4724TIP3    H114178   3.410   2.477   1.216 -3.4189  0.1507 -0.3980
 4724TIP3    H214179   3.412   2.328   1.185  1.1267  0.0383 -0.2921
 4725TIP3   OH214180   1.699   5.737   2.429 -0.0803  0.0949  0.7622
 4725TIP3    H114181   1.685   5.816   2.377  0.3086 -0.9526 -0.9982
 4725TIP3    H214182   1.646   5.670   2.386  1.5362 -1.1979  0.6774
 4726TIP3   OH214183   1.951   5.810   1.722 -0.2718  0.1144  0.1739
 4726TIP3    H114184   1.879   5.747   1.722 -1.3003  1.2331  0.8738
 4726TIP3    H214185   1.991   5.802   1.808 -1.2345  1.2825  0.7572
 4727TIP3   OH214186   4.372   5.578   2.261  0.2044  0.3513  0.7371
 4727TIP3    H114187   4.304   5.556   2.325 -1.1882 -1.1210 -1.1316
 4727TIP3    H214188   4.340   5.656   2.216 -1.2770 -1.3868 -1.4046
 4728TIP3   OH214189   0.914   4.577   0.626  0.3442 -0.2004 -0.5076
 4728TIP3    H114190   0.995   4.613   0.661  0.1432 -0.1783 -0.0557
 4728TIP3    H214191   0.933   4.558   0.534  1.0211 -0.6782 -0.2789
 4729TIP3   OH214192   2.581   4.286   0.407  0.4120 -0.3707  0.2062
 4729TIP3    H114193   2.670   4.275   0.373  0.3235  0.4796 -0.3298
 4729TIP3    H214194   2.573   4.380   0.423 -0.7332 -0.2704 -0.7690
 4730TIP3   OH214195   2.434   2.918   1.316  0.1610 -0.1430 -0.4513
 4730TIP3    H114196   2.383   2.908   1.235  0.7630 -0.8997 -0.7581
 4730TIP3    H214197   2.509   2.860   1.303 -0.2574 -1.0690  1.0765
 4731TIP3   OH214198   5.524   4.109   1.877 -0.0775 -0.1306  0.3938
 4731TIP3    H114199   5.567   4.100   1.962 -0.1694  1.9760  0.7003
 4731TIP3    H214200   5.454   4.173   1.892  0.2301  0.6785 -1.3702
 4732TIP3   OH214201   2.096   2.010   2.979  0.2751 -0.2485  0.7309
 4732TIP3    H114202   2.139   1.949   3.039  0.5823  0.9813  1.7940
 4732TIP3    H214203   2.003   2.002   3.000  0.4846  1.2272  2.4532
 4733TIP3   OH214204   5.228   2.325   2.238 -0.1998  0.3766 -0.0456
 4733TIP3    H114205   5.298   2.328   2.304  1.2699 -0.3208 -1.5223
 4733TIP3    H214206   5.229   2.235   2.207 -1.3582  0.5252 -0.5309
 4734TIP3   OH214207   1.272   0.214   5.126 -0.0682 -0.0652  0.4112
 4734TIP3    H114208   1.260   0.251   5.214  1.4516  0.5478  0.3909
 4734TIP3    H214209   1.358   0.245   5.099 -1.8886  2.8048 -2.7840
 4735TIP3   OH214210   4.715   1.894   2.307  0.1852 -0.1883  0.3678
 4735TIP3    H114211   4.772   1.969   2.322 -0.1579 -0.0125  0.8009
 4735TIP3    H214212   4.627   1.930   2.307  0.0773 -0.4254 -0.5496
 4736TIP3   OH214213   5.335   5.178   4.128  1.3097  0.0797  0.0652
 4736TIP3    H114214   5.319   5.254   4.072  1.9261 -0.7786 -1.3128
 4736TIP3    H214215   5.405   5.130   4.084  0.9926 -1.2465  0.9568
 4737TIP3   OH214216   3.635   3.819   3.452 -0.1772  0.2559 -0.2676
 4737TIP3    H114217   3.547   3.798   3.483 -0.0652  0.2105  0.0249
 4737TIP3    H214218   3.661   3.895   3.503  0.6827 -0.8485  1.0035
 4738TIP3   OH214219   3.697   4.178   1.466 -0.3507  0.1320  0.6782
 4738TIP3    H114220   3.749   4.111   1.421 -1.6243 -0.9497  0.7363
 4738TIP3    H214221   3.657   4.228   1.395 -1.4541 -0.8525  0.5671
 4739TIP3   OH214222   5.626   1.656   2.296  0.0874  0.4701 -0.4185
 4739TIP3    H114223   5.537   1.679   2.270 -0.2219  1.1260  1.1121
 4739TIP3    H214224   5.634   1.687   2.386  1.1246 -1.5790  0.2684
 4740TIP3   OH214225   1.773   0.250   3.453 -1.0051  0.6924 -0.0634
 4740TIP3    H114226   1.800   0.161   3.473 -0.5828  1.3587  2.7508
 4740TIP3    H214227   1.680   0.253   3.474 -0.9260  1.0038  0.2539
 4741TIP3   OH214228   4.384   5.411   1.932  0.2098 -0.1897 -0.1435
 4741TIP3    H114229   4.424   5.467   1.866  1.4525 -0.1363  0.6244
 4741TIP3    H214230   4.325   5.468   1.980  0.3536  0.1010 -0.3138
 4742TIP3   OH214231   5.899   4.077   2.009  0.5132 -0.8180  0.1602
 4742TIP3    H114232   5.820   4.031   2.036  0.6999 -1.0027  0.4082
 4742TIP3    H214233   5.955   4.075   2.087  0.5150 -0.1520  0.1782
 4743TIP3   OH214234   1.133   5.549   3.359  0.0198  0.2765 -0.3676
 4743TIP3    H114235   1.150   5.455   3.366 -0.3539  0.0659 -1.9420
 4743TIP3    H214236   1.184   5.588   3.430  0.6954 -1.0597 -0.0906
 4744TIP3   OH214237   6.054   3.865   3.144 -0.1135  0.7973  0.6513
 4744TIP3    H114238   6.057   3.868   3.048  0.2964  0.9196  0.6663
 4744TIP3    H214239   6.140   3.895   3.172  0.7265 -1.7562  1.0239
 4745TIP3   OH214240   1.556   1.030   2.594 -1.0819 -0.0229 -0.3758
 4745TIP3    H114241   1.593   1.042   2.507 -0.7764 -1.6663 -0.5030
 4745TIP3    H214242   1.509   0.947   2.589 -0.7177 -0.3528  1.1468
 4746TIP3   OH214243   3.902   4.265   0.382  0.4866 -0.4039  0.4800
 4746TIP3    H114244   3.886   4.357   0.362 -0.5081 -0.1972  2.1316
 4746TIP3    H214245   3.883   4.219   0.300 -1.8497  0.5660  0.4068
 4747TIP3   OH214246   2.681   4.134   4.364 -0.1799  0.3068 -0.0055
 4747TIP3    H114247   2.732   4.147   4.285  0.2639  0.4684  0.3068
 4747TIP3    H214248   2.737   4.080   4.420 -0.3757  0.4353  0.3154
 4748TIP3   OH214249   5.336   2.380   0.557 -0.2600  0.1853  0.1428
 4748TIP3    H114250   5.307   2.405   0.645 -0.0887 -0.4117  0.3745
 4748TIP3    H214251   5.356   2.463   0.514 -2.4448  0.6548 -0.0815
 4749TIP3   OH214252   1.188   1.983   3.621 -0.1956 -0.3175 -0.3490
 4749TIP3    H114253   1.150   2.068   3.598 -0.8838 -0.7171 -0.7138
 4749TIP3    H214254   1.160   1.968   3.711 -0.9944 -0.6500 -0.6448
 4750TIP3   OH214255   2.880   3.060   0.418  0.4320  0.4729  0.5578
 4750TIP3    H114256   2.832   2.977   0.405 -1.4201  1.7314 -1.3400
 4750TIP3    H214257   2.811   3.126   0.424  1.8943  2.0725  0.2965
 4751TIP3   OH214258   2.175   3.345   2.169  0.4391 -0.3127 -0.1319
 4751TIP3    H114259   2.089   3.388   2.169  0.2474 -0.6738  0.9705
 4751TIP3    H214260   2.222   3.385   2.242  0.6995 -1.0962  0.1386
 4752TIP3   OH214261   3.253   1.148   1.714  0.4400 -0.0604  0.5277
 4752TIP3    H114262   3.221   1.067   1.754  0.6408  0.1863  1.2118
 4752TIP3    H214263   3.177   1.206   1.711  0.4828  0.0099  0.7917
 4753TIP3   OH214264   2.930   5.177   0.807  0.1649  0.2467 -0.7184
 4753TIP3    H114265   2.895   5.093   0.774  0.5619 -0.7608  1.3014
 4753TIP3    H214266   3.004   5.196   0.750 -1.2929  0.4457 -2.6531
 4754TIP3   OH214267   2.249   1.449   2.702 -0.1271  0.1169  0.4611
 4754TIP3    H114268   2.288   1.382   2.758 -1.9188  0.6099  2.4060
 4754TIP3    H214269   2.321   1.478   2.646  0.7679 -3.2745 -0.3968
 4755TIP3   OH214270   2.191   4.975   1.293  0.2166 -0.3119  0.3562
 4755TIP3    H114271   2.244   4.986   1.214  0.4418  0.1160  0.5656
 4755TIP3    H214272   2.139   5.056   1.299 -0.4101 -0.6932  0.1939
 4756TIP3   OH214273   4.517   1.952   3.356  0.4239  0.1798 -0.3605
 4756TIP3    H114274   4.611   1.963   3.374  0.6150  1.4934 -2.0168
 4756TIP3    H214275   4.475   2.025   3.401  0.1617 -0.3820  0.3424
 4757TIP3   OH214276   1.539   3.432   3.499  0.1663 -0.0245  0.0971
 4757TIP3    H114277   1.477   3.505   3.496 -1.9177 -1.7311 -1.4439
 4757TIP3    H214278   1.553   3.417   3.593 -2.4252 -0.0575  0.5529
 4758TIP3   OH214279   5.282   3.505   3.836  0.3663 -0.4268  0.0370
 4758TIP3    H114280   5.265   3.592   3.799  0.7050  0.2067  1.3207
 4758TIP3    H214281   5.196   3.463   3.838  0.1240  0.0482 -0.1514
 4759TIP3   OH214282   2.402   0.903   1.660  0.2172 -0.1889  0.0356
 4759TIP3    H114283   2.354   0.985   1.678  1.8973  1.7281 -3.1685
 4759TIP3    H214284   2.485   0.913   1.707 -0.3475 -1.0721  1.2809
 4760TIP3   OH214285   3.792   3.975   4.871 -0.0305 -0.4667  0.3945
 4760TIP3    H114286   3.770   3.909   4.937  0.9563 -0.3239  0.8898
 4760TIP3    H214287   3.886   3.991   4.884  0.0119  0.1205 -0.5476
 4761TIP3   OH214288   5.670   2.074   0.452  0.4021  0.0306  0.1837
 4761TIP3    H114289   5.684   2.168   0.450 -0.9906  0.2811  0.5882
 4761TIP3    H214290   5.590   2.061   0.401 -0.6266 -0.6392  1.8645
 4762TIP3   OH214291   1.103   1.336   3.516  0.0243 -0.2366 -0.3364
 4762TIP3    H114292   1.090   1.428   3.491  0.0810 -0.2881 -0.5591
 4762TIP3    H214293   1.074   1.286   3.440 -2.1627 -0.5060  0.5789
 4763TIP3   OH214294   2.347   0.444   4.419 -0.2758  0.7478  0.0415
 4763TIP3    H114295   2.303   0.431   4.503 -2.1484 -1.1162 -1.1266
 4763TIP3    H214296   2.308   0.523   4.383 -0.7249  0.6113  0.2164
 4764TIP3   OH214297   0.954   1.192   5.009  0.4950 -0.0801  0.6094
 4764TIP3    H114298   1.018   1.125   5.034  0.5712 -0.3396 -0.2356
 4764TIP3    H214299   1.003   1.274   5.013  1.1491 -0.3613 -0.8409
 4765TIP3   OH214300   2.584   2.371   1.435 -0.3228  0.0207  0.1207
 4765TIP3    H114301   2.588   2.342   1.527 -0.4880 -0.5019 -0.0343
 4765TIP3    H214302   2.637   2.307   1.388 -0.4948  0.1085 -0.1913
 4766TIP3   OH214303   4.366   2.920   0.747  0.1015 -0.3941 -0.2413
 4766TIP3    H114304   4.410   2.852   0.696  2.4893  0.7313  0.1267
 4766TIP3    H214305   4.275   2.917   0.719  0.0660 -3.7565 -0.1505
 4767TIP3   OH214306   3.874   0.194   4.748 -0.1136  0.1142  0.2033
 4767TIP3    H114307   3.920   0.278   4.752  0.4698 -0.1815 -0.2268
 4767TIP3    H214308   3.782   0.217   4.762 -0.3981  1.2153 -2.6441
 4768TIP3   OH214309   2.622   2.590   0.941 -0.4710 -0.1097 -0.3162
 4768TIP3    H114310   2.555   2.654   0.920  1.4047  1.5628 -1.5627
 4768TIP3    H214311   2.651   2.557   0.856  0.6870 -0.3535  0.1564
 4769TIP3   OH214312   3.184   4.613   3.749 -1.1350 -0.1605  0.3612
 4769TIP3    H114313   3.096   4.630   3.783 -0.3273 -0.0306  2.5410
 4769TIP3    H214314   3.235   4.689   3.775  0.3969 -1.7167  2.2457
 4770TIP3   OH214315   5.536   2.950   3.570  0.3409  0.2767 -0.3559
 4770TIP3    H114316   5.577   3.037   3.569 -1.6454  1.3452  1.8299
 4770TIP3    H214317   5.535   2.926   3.663  0.1719 -1.7758 -0.8561
 4771TIP3   OH214318   4.627   5.417   0.711  0.0082  0.1017  0.4464
 4771TIP3    H114319   4.655   5.391   0.623 -1.1327  0.9750 -0.2083
 4771TIP3    H214320   4.664   5.505   0.722 -0.6449  0.3748  0.4561
 4772TIP3   OH214321   2.654   2.602   3.300 -0.5871  0.0380  0.2114
 4772TIP3    H114322   2.633   2.661   3.372  0.0774  1.0505 -0.4042
 4772TIP3    H214323   2.734   2.638   3.261 -1.6456  0.3258 -1.8720
 4773TIP3   OH214324   2.420   3.666   1.423 -0.7729 -0.4591 -0.2948
 4773TIP3    H114325   2.369   3.650   1.503 -1.3309 -0.6872 -0.6907
 4773TIP3    H214326   2.456   3.754   1.436  0.4241 -1.0816  0.8818
 4774TIP3   OH214327   5.814   4.017   0.294 -0.4411  0.1657  0.0441
 4774TIP3    H114328   5.904   4.006   0.262 -0.6900  2.0696 -1.5380
 4774TIP3    H214329   5.760   3.971   0.230 -0.6621  0.1220  0.2616
 4775TIP3   OH214330   3.138   5.587   3.575  0.2414  0.3802  0.4907
 4775TIP3    H114331   3.137   5.629   3.489  2.7793  1.3781  0.8601
 4775TIP3    H214332   3.113   5.656   3.636  1.1140  0.4432  0.7892
 4776TIP3   OH214333   2.679   4.440   1.587  0.8191 -0.8989  0.0233
 4776TIP3    H114334   2.618   4.513   1.580  1.5403 -0.1393  1.3402
 4776TIP3    H214335   2.661   4.386   1.510 -1.7298 -0.8867  0.5528
 4777TIP3   OH214336   4.488   5.108   2.684  0.1363 -0.1668 -0.1579
 4777TIP3    H114337   4.454   5.067   2.605  1.0202 -1.1688 -0.0347
 4777TIP3    H214338   4.435   5.073   2.756 -0.2945  0.3128 -0.2336
 4778TIP3   OH214339   2.552   3.501   0.111 -0.0325  0.2969 -0.2237
 4778TIP3    H114340   2.564   3.457   0.026  0.3891  3.6851 -2.1101
 4778TIP3    H214341   2.515   3.587   0.088 -1.2151  0.8512  3.1910
 4779TIP3   OH214342   3.923   2.203   4.675  0.1056 -0.0534 -0.3420
 4779TIP3    H114343   3.933   2.150   4.596 -1.4945 -1.9976  0.6634
 4779TIP3    H214344   3.955   2.289   4.650  2.8160 -1.3982 -2.1074
 4780TIP3   OH214345   5.128   0.474   0.976 -0.9501  0.1867 -0.1579
 4780TIP3    H114346   5.185   0.495   1.051 -0.4037  0.0484 -0.5278
 4780TIP3    H214347   5.039   0.477   1.012 -0.7439  0.8656  0.3267
 4781TIP3   OH214348   5.789   2.817   2.644  0.0400 -0.3860 -0.6429
 4781TIP3    H114349   5.766   2.746   2.584  1.8325 -0.7050 -0.9989
 4781TIP3    H214350   5.861   2.864   2.601 -1.0551  1.6468 -0.3921
 4782TIP3   OH214351   3.627   4.616   2.202  0.6221  0.1817 -0.1831
 4782TIP3    H114352   3.616   4.651   2.113  0.8798  0.5110 -0.0884
 4782TIP3    H214353   3.596   4.526   2.197  2.8461 -0.6047 -1.1949
 4783TIP3   OH214354   4.566   4.595   2.592  0.4398 -0.2220  0.4132
 4783TIP3    H114355   4.588   4.570   2.682  0.5147 -1.5236  0.0483
 4783TIP3    H214356   4.474   4.622   2.596  0.4468 -0.2552  0.8740
 4784TIP3   OH214357   5.033   3.414   1.394 -0.1122  0.4184  0.1206
 4784TIP3    H114358   5.011   3.327   1.428 -0.3295  0.6489  0.5805
 4784TIP3    H214359   4.989   3.418   1.309 -0.9138  0.4439  0.5283
 4785TIP3   OH214360   0.157   3.915   1.699  0.1073 -0.2813  0.7208
 4785TIP3    H114361   0.094   3.889   1.631  0.1736  1.2516  0.0255
 4785TIP3    H214362   0.228   3.851   1.691 -0.0956 -0.4023 -0.3628
 4786TIP3   OH214363   5.917   2.311   4.982  0.6132  0.1483 -0.3312
 4786TIP3    H114364   5.995   2.278   4.938  0.4010  0.3239 -0.8429
 4786TIP3    H214365   5.855   2.330   4.911 -0.2556 -0.9069  0.1176
 4787TIP3   OH214366   3.850   0.526   3.850 -0.2492  0.4142 -0.2494
 4787TIP3    H114367   3.844   0.576   3.931 -0.3338  0.6062 -0.3744
 4787TIP3    H214368   3.856   0.591   3.781 -0.0756  0.2498 -0.3926
 4788TIP3   OH214369   5.952   5.788   3.749  0.1453  0.2665 -0.1588
 4788TIP3    H114370   5.933   5.851   3.819 -0.3848  1.1992 -1.0933
 4788TIP3    H214371   6.004   5.838   3.686  0.2894 -0.4343 -0.6000
 4789TIP3   OH214372   3.748   5.444   1.866 -0.2590 -0.1723 -0.2988
 4789TIP3    H114373   3.678   5.397   1.821 -1.3475  0.8804  0.2318
 4789TIP3    H214374   3.790   5.378   1.920 -0.9591 -0.7894 -0.4861
 4790TIP3   OH214375   6.215   0.393   4.871 -0.2206 -0.1280 -0.0084
 4790TIP3    H114376   6.138   0.383   4.926 -1.2712  1.2630 -1.1516
 4790TIP3    H214377   6.280   0.433   4.928 -0.8307  0.0040  0.6034
 4791TIP3   OH214378   0.135   5.196   1.823  0.1338 -0.5181  0.4731
 4791TIP3    H114379   0.076   5.125   1.850  0.0616 -0.2835  0.9336
 4791TIP3    H214380   0.077   5.262   1.787  0.3291 -1.4162 -1.6325
 4792TIP3   OH214381   4.068   1.051   2.331  0.4252 -0.2577 -0.2402
 4792TIP3    H114382   4.066   1.032   2.425  0.3844 -0.2998 -0.2495
 4792TIP3    H214383   3.994   1.111   2.317 -1.1407 -2.1758 -0.6635
 4793TIP3   OH214384   3.236   1.032   5.025 -0.2660 -0.1743 -0.0358
 4793TIP3    H114385   3.152   0.994   5.050  0.8366 -2.3668  0.6283
 4793TIP3    H214386   3.220   1.070   4.938 -1.8586 -0.8039 -0.0543
 4794TIP3   OH214387   4.282   5.838   0.852  0.1925 -0.2285  0.0409
 4794TIP3    H114388   4.288   5.887   0.934 -0.7030 -1.8453  1.1325
 4794TIP3    H214389   4.297   5.747   0.878 -2.2067 -1.0545 -1.2077
 4795TIP3   OH214390   1.362   4.907   3.549 -0.2905 -0.5140  0.4550
 4795TIP3    H114391   1.344   4.947   3.634 -0.2265  0.5887 -0.0187
 4795TIP3    H214392   1.457   4.914   3.539 -0.3157 -0.4897  0.2269
 4796TIP3   OH214393   2.209   5.394   1.662 -0.6599 -0.4916  0.0111
 4796TIP3    H114394   2.250   5.450   1.728  1.2853 -0.1827 -1.3587
 4796TIP3    H214395   2.126   5.436   1.642 -0.5015  0.3391  1.0294
 4797TIP3   OH214396   6.341   0.114   0.345  0.0496  0.4522 -0.3316
 4797TIP3    H114397   6.365   0.024   0.321  1.0469  0.6208 -0.0353
 4797TIP3    H214398   6.249   0.108   0.372  0.0383 -0.4346 -0.5305
 4798TIP3   OH214399   1.368   1.335   4.728 -0.6492 -0.4538  0.2137
 4798TIP3    H114400   1.432   1.372   4.789 -0.0681 -1.1546  0.0402
 4798TIP3    H214401   1.299   1.401   4.723  0.0502  0.3047  0.4095
 4799TIP3   OH214402   3.474   2.197   3.957  0.1358  0.5080 -0.7566
 4799TIP3    H114403   3.451   2.274   3.904 -0.2903  1.4490  0.7234
 4799TIP3    H214404   3.451   2.122   3.902 -0.8477  1.4422 -1.6728
 4800TIP3   OH214405   3.972   3.570   0.428 -0.4103  0.5102  0.6694
 4800TIP3    H114406   3.944   3.478   0.432  0.8660  0.0535 -0.2826
 4800TIP3    H214407   3.956   3.604   0.516  1.0631 -1.2400  1.6781
 4801TIP3   OH214408   2.684   3.250   4.139 -0.6554 -0.1698  0.1214
 4801TIP3    H114409   2.612   3.309   4.160 -0.5524 -0.4659  1.3795
 4801TIP3    H214410   2.643   3.164   4.130 -0.4380 -0.4046  1.2052
 4802TIP3   OH214411   5.069   2.377   0.880  0.0384 -0.1574  0.0567
 4802TIP3    H114412   5.124   2.299   0.872 -0.4414 -0.4817 -0.0911
 4802TIP3    H214413   4.980   2.344   0.878 -0.1868  0.4530 -0.7347
 4803TIP3   OH214414   5.990   3.699   4.906  0.3569  0.3757 -0.1979
 4803TIP3    H114415   5.957   3.610   4.918  0.7519  0.1763 -0.5620
 4803TIP3    H214416   6.018   3.726   4.994 -0.1308  0.2930 -0.0126
 4804TIP3   OH214417   3.527   4.626   4.330  0.1772  0.0422 -0.5343
 4804TIP3    H114418   3.619   4.641   4.305  0.2097 -1.2413 -1.3388
 4804TIP3    H214419   3.477   4.648   4.252  0.0872 -1.9846 -1.1237
 4805TIP3   OH214420   2.453   4.215   1.176 -0.9200  0.0058  0.4877
 4805TIP3    H114421   2.385   4.280   1.193 -1.5215 -0.4875 -0.0487
 4805TIP3    H214422   2.407   4.139   1.143  0.0290  0.2603 -1.5766
 4806TIP3   OH214423   1.584   5.493   4.013 -0.0259  0.5397  0.1168
 4806TIP3    H114424   1.650   5.432   4.045  0.5259  1.7844  1.4432
 4806TIP3    H214425   1.501   5.455   4.042  0.2925  0.2917  0.7310
 4807TIP3   OH214426   4.779   1.038   2.736 -0.1752  0.2137 -0.2028
 4807TIP3    H114427   4.698   1.020   2.687  0.2687 -2.3786 -0.1487
 4807TIP3    H214428   4.792   0.959   2.789  0.2633  2.2358  2.8949
 4808TIP3   OH214429   1.297   2.969   4.527 -0.7660  0.2435 -0.8850
 4808TIP3    H114430   1.372   2.935   4.479  1.7220  2.0311  1.4328
 4808TIP3    H214431   1.291   2.913   4.604  0.2367  1.8871  0.4659
 4809TIP3   OH214432   4.579   3.474   3.517  0.7411  0.7602  0.0031
 4809TIP3    H114433   4.533   3.504   3.595  0.5996  1.9515 -0.5079
 4809TIP3    H214434   4.523   3.502   3.444  0.4300 -1.1010 -0.5243
 4810TIP3   OH214435   0.714   4.789   1.024 -0.2476 -0.4099 -0.3693
 4810TIP3    H114436   0.742   4.733   0.952 -0.3881 -0.2431 -0.5542
 4810TIP3    H214437   0.727   4.736   1.102  0.9546 -0.2014 -0.4138
 4811TIP3   OH214438   1.143   0.268   3.702  0.4798  0.1321 -0.0753
 4811TIP3    H114439   1.072   0.268   3.766  1.1736  0.5247  0.7160
 4811TIP3    H214440   1.100   0.286   3.619 -0.4957 -0.8183  0.2000
 4812TIP3   OH214441   4.569   5.760   4.315 -0.8191 -0.3342  0.2394
 4812TIP3    H114442   4.635   5.690   4.319 -1.5730 -0.9933  2.0014
 4812TIP3    H214443   4.559   5.776   4.221  0.8803 -1.1293 -0.1382
 4813TIP3   OH214444   4.979   3.459   3.834 -0.0115 -0.1584 -0.3789
 4813TIP3    H114445   4.921   3.495   3.902  0.4085  1.8714 -1.0165
 4813TIP3    H214446   4.962   3.514   3.757  1.4180 -0.7174 -1.1218
 4814TIP3   OH214447   5.834   5.881   4.909 -0.4247 -0.6415  0.3592
 4814TIP3    H114448   5.741   5.891   4.891 -0.5488 -0.9218  0.8315
 4814TIP3    H214449   5.838   5.825   4.986  0.1842 -2.4297 -0.9145
 4815TIP3   OH214450   5.720   3.495   4.610  0.5812 -0.3827 -0.0500
 4815TIP3    H114451   5.684   3.520   4.695  1.7892  0.2525  0.3046
 4815TIP3    H214452   5.667   3.421   4.582 -0.8216  0.3826  0.5286
 4816TIP3   OH214453   4.178   2.552   3.804  0.3055  0.0828 -0.4132
 4816TIP3    H114454   4.093   2.581   3.835  0.7124  0.7260  0.1290
 4816TIP3    H214455   4.160   2.473   3.752 -0.6090  0.2218 -0.3119
 4817TIP3   OH214456   2.579   3.236   0.971  0.1241 -0.6160 -0.1193
 4817TIP3    H114457   2.625   3.168   0.922  1.2773  0.0424 -0.0103
 4817TIP3    H214458   2.572   3.201   1.060  1.8608 -0.1235  0.2547
 4818TIP3   OH214459   4.180   1.602   4.384 -0.5580  0.3783 -0.2077
 4818TIP3    H114460   4.190   1.590   4.478 -2.8926  0.5587  0.1184
 4818TIP3    H214461   4.264   1.572   4.347  0.2486 -0.0982  1.8643
 4819TIP3   OH214462   3.101   3.434   4.150  0.3930 -0.0624 -0.0780
 4819TIP3    H114463   3.103   3.381   4.230  1.3114  0.0395 -0.0216
 4819TIP3    H214464   3.008   3.455   4.137  0.1454 -0.7453  0.5167
 4820TIP3   OH214465   0.014   0.374   1.175 -0.3448 -0.0878  0.1677
 4820TIP3    H114466   0.073   0.407   1.107 -0.8726  0.3485 -0.0857
 4820TIP3    H214467  -0.069   0.360   1.130  0.0616 -2.6313  0.0486
 4821TIP3   OH214468   5.941   2.678   2.869 -0.2187  0.6623 -0.3436
 4821TIP3    H114469   5.871   2.642   2.924  0.5933  2.2963  1.8883
 4821TIP3    H214470   5.894   2.732   2.804 -1.1678 -0.9685 -1.0839
 4822TIP3   OH214471   3.891   3.394   0.078  0.5993 -0.5889  0.4736
 4822TIP3    H114472   3.841   3.437   0.147 -2.0780  1.3012 -2.3698
 4822TIP3    H214473   3.963   3.455   0.058  0.2942 -0.2458  0.4103
 4823TIP3   OH214474   5.917   2.449   2.358  0.2955 -0.2175  0.6422
 4823TIP3    H114475   5.971   2.460   2.436  1.5714  0.9617 -0.3735
 4823TIP3    H214476   5.974   2.473   2.285 -1.5676  1.0108 -0.4819
 4824TIP3   OH214477   0.634   4.279   4.577  0.0886  0.7278 -0.4093
 4824TIP3    H114478   0.725   4.253   4.596 -0.3323 -0.4665  0.0658
 4824TIP3    H214479   0.635   4.374   4.582  0.7905  0.6536  2.1454
 4825TIP3   OH214480   3.392   3.262   3.935  0.4326 -0.4144 -0.5299
 4825TIP3    H114481   3.301   3.284   3.913  0.9059  0.9664 -1.2277
 4825TIP3    H214482   3.416   3.196   3.871 -0.4782 -1.7986  0.5022
 4826TIP3   OH214483   2.033   2.057   1.291  0.6327 -0.0152  0.1764
 4826TIP3    H114484   2.124   2.031   1.307  0.1231 -0.2464  3.1734
 4826TIP3    H214485   1.990   2.049   1.376 -1.4663  3.1631 -0.4287
 4827TIP3   OH214486   0.683   0.305   3.619  0.3883  0.2506  0.5419
 4827TIP3    H114487   0.663   0.391   3.657  0.3384  1.3775 -1.8703
 4827TIP3    H214488   0.760   0.320   3.565 -0.1360 -1.0118 -0.6096
 4828TIP3   OH214489   4.562   2.137   2.190  0.1289  0.5695 -0.1158
 4828TIP3    H114490   4.534   2.190   2.265 -0.0363 -1.6623  1.5130
 4828TIP3    H214491   4.481   2.103   2.153  0.3090 -0.2456  0.2126
 4829TIP3   OH214492   1.969   3.548   2.190  0.2095  0.2126  0.1656
 4829TIP3    H114493   2.007   3.604   2.123  0.9796  1.7896  1.8414
 4829TIP3    H214494   1.880   3.581   2.201 -0.3272 -0.8096 -0.8468
 4830TIP3   OH214495   3.374   1.993   2.156  0.5048  0.1560 -0.1300
 4830TIP3    H114496   3.336   1.927   2.214 -0.8512 -1.5685 -2.7779
 4830TIP3    H214497   3.468   1.978   2.162  0.4587  0.3007  1.8259
 4831TIP3   OH214498   6.092   1.315   0.392  0.5646  0.7089 -0.0640
 4831TIP3    H114499   6.094   1.260   0.314  0.5696 -0.5451  0.7750
 4831TIP3    H214500   6.092   1.252   0.465  1.2497  1.8404  0.9555
 4832TIP3   OH214501   6.075   3.444   2.431  0.5868  0.5463 -0.1971
 4832TIP3    H114502   5.999   3.387   2.444  0.8920 -0.2338 -1.6280
 4832TIP3    H214503   6.104   3.426   2.342  2.0839  1.2913  0.0995
 4833TIP3   OH214504   3.684   2.131   0.187 -0.0353  0.4488  0.4569
 4833TIP3    H114505   3.664   2.185   0.263  0.9661  2.2614 -0.5125
 4833TIP3    H214506   3.772   2.157   0.161  0.4576 -1.6200 -0.1140
 4834TIP3   OH214507   0.534   0.018   1.636  0.2784  0.4627  0.2537
 4834TIP3    H114508   0.607  -0.026   1.678  0.2595  1.1838  1.0681
 4834TIP3    H214509   0.481   0.052   1.708 -0.2642  0.9150 -0.3382
 4835TIP3   OH214510   6.335   2.512   2.332 -0.5646 -0.1996 -0.4132
 4835TIP3    H114511   6.345   2.483   2.241  2.0490  2.1906 -1.0074
 4835TIP3    H214512   6.317   2.431   2.381 -2.8030 -1.4804 -3.0470
 4836TIP3   OH214513   4.735   4.466   4.055  0.2323  0.0375  0.1669
 4836TIP3    H114514   4.678   4.539   4.031 -0.0788 -0.6350 -1.2481
 4836TIP3    H214515   4.689   4.388   4.024  1.1940 -0.6533  0.4147
 4837TIP3   OH214516   2.849   5.118   5.140  0.5218 -0.0611  0.1742
 4837TIP3    H114517   2.792   5.100   5.215 -0.4300  0.1078 -0.4883
 4837TIP3    H214518   2.821   5.204   5.110  1.8817  0.5225  0.4868
 4838TIP3   OH214519   4.523   5.624   1.799 -0.2481 -0.2170  1.0243
 4838TIP3    H114520   4.479   5.667   1.725 -1.0117 -1.6381  0.6139
 4838TIP3    H214521   4.599   5.679   1.817  0.5370 -0.3499 -1.4980
 4839TIP3   OH214522   0.312   2.146   1.330 -0.7866  1.0391 -0.6040
 4839TIP3    H114523   0.279   2.235   1.318  0.5220  1.3446 -2.4040
 4839TIP3    H214524   0.396   2.158   1.375  0.3008  0.9460 -2.4821
 4840TIP3   OH214525   1.665   2.982   3.274 -0.0115 -0.2995  0.0426
 4840TIP3    H114526   1.633   3.057   3.224 -0.7266 -0.4411  0.2775
 4840TIP3    H214527   1.680   3.017   3.362  0.3354 -0.2713 -0.0262
 4841TIP3   OH214528   2.802   1.444   4.516 -0.0161  0.3804 -0.1236
 4841TIP3    H114529   2.769   1.453   4.427  0.1696 -0.6386 -0.3096
 4841TIP3    H214530   2.897   1.444   4.507  0.0050 -0.8068 -0.0634
 4842TIP3   OH214531   3.001   5.169   2.649  0.9306 -0.1609 -0.4741
 4842TIP3    H114532   3.079   5.133   2.691 -0.0386  0.1565  1.7690
 4842TIP3    H214533   2.965   5.097   2.598  0.3677 -1.7491  1.9746
 4843TIP3   OH214534   6.335   4.787   5.151  0.1377  0.1867 -0.4217
 4843TIP3    H114535   6.262   4.726   5.142  0.6754 -0.7348  1.0621
 4843TIP3    H214536   6.336   4.835   5.069 -0.6214 -1.4675 -1.4577
 4844TIP3   OH214537   4.884   2.148   2.881  0.2611 -0.0966  0.6623
 4844TIP3    H114538   4.848   2.232   2.852 -0.8143 -0.7780 -0.0553
 4844TIP3    H214539   4.810   2.103   2.922  0.5739 -1.0717  0.1857
 4845TIP3   OH214540   5.679   2.932   0.246 -0.6011  0.2097  0.0141
 4845TIP3    H114541   5.609   2.903   0.188 -0.5587  1.1565 -0.5392
 4845TIP3    H214542   5.750   2.871   0.230 -0.0446  1.3075 -2.0963
 4846TIP3   OH214543   3.190   3.886   1.059 -0.0544 -0.4105 -0.2279
 4846TIP3    H114544   3.167   3.946   1.130  2.7910 -1.8874  2.1243
 4846TIP3    H214545   3.266   3.927   1.017  0.6162 -1.3544  0.0487
 4847TIP3   OH214546   1.837   0.807   0.039 -0.0433  0.6023  0.1330
 4847TIP3    H114547   1.763   0.812  -0.021 -1.3464 -0.1118  1.6128
 4847TIP3    H214548   1.813   0.863   0.112 -0.6938 -2.1184  2.1768
 4848TIP3   OH214549   3.438   5.531   3.486  0.1433 -0.1823  0.1280
 4848TIP3    H114550   3.488   5.520   3.567 -0.3703  2.4360  0.9082
 4848TIP3    H214551   3.420   5.625   3.482  0.7917 -0.0511 -3.4251
 4849TIP3   OH214552   3.415   4.722   2.574 -0.0916 -0.4330 -0.2157
 4849TIP3    H114553   3.406   4.659   2.503  2.6363 -1.4680  0.2061
 4849TIP3    H214554   3.388   4.675   2.653 -0.2148 -0.3071 -0.1822
 4850TIP3   OH214555   1.556   0.252   5.120  0.5444 -0.4309  0.0354
 4850TIP3    H114556   1.616   0.319   5.152 -0.5333  0.7893 -0.3417
 4850TIP3    H214557   1.559   0.262   5.024 -0.0605 -0.5055  0.0043
 4851TIP3   OH214558   2.624   4.541   0.460  0.0051 -0.0984  0.2705
 4851TIP3    H114559   2.622   4.578   0.548  0.7495  0.0128  0.2404
 4851TIP3    H214560   2.592   4.611   0.403  0.1015  0.0293  0.3753
 4852TIP3   OH214561   6.126   3.600   2.003  0.6235 -0.3910  0.1187
 4852TIP3    H114562   6.042   3.633   2.034  1.1274 -0.2397  1.3863
 4852TIP3    H214563   6.191   3.654   2.048  1.4585 -2.3547  1.3705
 4853TIP3   OH214564   0.395   3.147   2.978  0.1384 -0.3936  0.2771
 4853TIP3    H114565   0.447   3.189   2.909  0.1584 -0.5723  0.1813
 4853TIP3    H214566   0.338   3.216   3.011  1.3218  0.1585  1.2733
 4854TIP3   OH214567   0.527   5.197   0.966 -0.4069 -0.0494 -0.1084
 4854TIP3    H114568   0.607   5.192   1.018 -1.5633  0.2448  1.8203
 4854TIP3    H214569   0.471   5.129   1.003 -1.4888  0.5362 -0.6200
 4855TIP3   OH214570   4.808   3.681   3.549 -0.0337 -0.3266  0.5830
 4855TIP3    H114571   4.764   3.598   3.531 -1.0829  0.3519 -0.1070
 4855TIP3    H214572   4.738   3.746   3.544  1.3125  1.1021 -2.7905
 4856TIP3   OH214573   1.890   4.312   4.803 -0.2502 -0.1370 -0.0757
 4856TIP3    H114574   1.972   4.313   4.755 -1.0683  0.2594 -1.5460
 4856TIP3    H214575   1.906   4.366   4.881  0.3774  1.4773 -1.2688
 4857TIP3   OH214576   3.096   3.605   0.400  0.1070  0.1971  0.2475
 4857TIP3    H114577   3.140   3.527   0.366 -0.2220 -0.6523  1.6486
 4857TIP3    H214578   3.004   3.591   0.379  0.3453  1.6588 -2.0998
 4858TIP3   OH214579   5.490   4.576   0.304 -0.2164 -0.4691  0.2955
 4858TIP3    H114580   5.566   4.519   0.291  0.4728  0.6371 -0.7041
 4858TIP3    H214581   5.417   4.529   0.264 -0.2510 -1.8926  1.9365
 4859TIP3   OH214582   4.379   6.000   0.034 -0.0110 -0.0633 -0.0463
 4859TIP3    H114583   4.472   5.981   0.048  0.3553 -0.3742 -2.3881
 4859TIP3    H214584   4.333   5.949   0.101  1.4467 -1.0872  0.2210
 4860TIP3   OH214585   1.161   4.404   0.537 -0.1557  0.0144 -0.1992
 4860TIP3    H114586   1.102   4.389   0.611  0.5442  1.0005  0.5933
 4860TIP3    H214587   1.202   4.319   0.521  0.6273  0.0349  1.4131
 4861TIP3   OH214588   0.740   2.798   4.211  0.3635 -0.6625  0.3354
 4861TIP3    H114589   0.812   2.806   4.148 -0.8484  0.6746 -0.9433
 4861TIP3    H214590   0.710   2.708   4.201 -0.6297 -0.1488 -2.0235
 4862TIP3   OH214591   3.676   3.168   3.301 -0.0286 -0.6867  0.1611
 4862TIP3    H114592   3.652   3.171   3.208 -0.0172 -0.8496  0.1514
 4862TIP3    H214593   3.662   3.257   3.333 -2.3318 -1.1301  0.5601
 4863TIP3   OH214594   4.446   4.751   4.547 -0.0131  0.3933 -0.7133
 4863TIP3    H114595   4.448   4.662   4.513 -0.4013  0.8069 -1.8535
 4863TIP3    H214596   4.370   4.752   4.606 -0.1742  0.0502 -0.9123
 4864TIP3   OH214597   0.327   0.542   1.469  0.5245 -0.1682  0.4568
 4864TIP3    H114598   0.337   0.534   1.374  0.5581 -0.7899  0.5056
 4864TIP3    H214599   0.415   0.559   1.501  0.2257  2.0872  0.2087
 4865TIP3   OH214600   1.729   1.881   2.036 -0.3472  0.3833  0.1885
 4865TIP3    H114601   1.682   1.811   1.992  0.3307  0.2884 -0.4153
 4865TIP3    H214602   1.670   1.956   2.032  0.3796  0.9220 -2.5918
 4866TIP3   OH214603   5.177   0.988   2.849 -0.0905 -0.5017 -0.1708
 4866TIP3    H114604   5.222   1.007   2.767  0.7758 -0.3264  0.3347
 4866TIP3    H214605   5.139   0.901   2.836 -0.1757 -0.3673 -0.8450
 4867TIP3   OH214606   2.984   3.921   0.607 -0.2315 -0.6214  0.6811
 4867TIP3    H114607   2.918   3.975   0.650 -2.2095 -0.7244 -1.9950
 4867TIP3    H214608   2.979   3.836   0.652  0.9166  0.4508  3.0314
 4868TIP3   OH214609   0.903   3.197   3.989 -0.0759 -0.3951  0.2517
 4868TIP3    H114610   0.958   3.275   3.986 -1.3447  0.5384  0.4067
 4868TIP3    H214611   0.864   3.191   3.901 -1.5598  0.3593  0.8201
 4869TIP3   OH214612   1.188   0.094   1.740 -0.3383 -0.3335  0.1770
 4869TIP3    H114613   1.131   0.144   1.682 -0.7843 -2.7697 -1.6340
 4869TIP3    H214614   1.190   0.145   1.821 -1.5360  2.0496 -1.1739
 4870TIP3   OH214615   5.804   2.660   0.230 -0.5079  0.0721  0.3399
 4870TIP3    H114616   5.748   2.607   0.287 -0.1012 -0.8895 -0.1286
 4870TIP3    H214617   5.885   2.610   0.223  0.2789  1.2628  0.7022
 4871TIP3   OH214618   5.443   1.211   3.191  0.3927 -0.7586 -0.4260
 4871TIP3    H114619   5.441   1.188   3.098  0.6456  1.2535 -0.9892
 4871TIP3    H214620   5.536   1.224   3.210  0.1868  1.3896 -0.6397
 4872TIP3   OH214621   2.023   5.249   4.698  0.1653 -0.5621  0.4685
 4872TIP3    H114622   2.045   5.330   4.744  0.8987  0.2596 -1.2424
 4872TIP3    H214623   2.055   5.262   4.609 -2.0453 -1.6756 -0.5812
 4873TIP3   OH214624   5.009   5.747   0.131 -0.5225  0.6107  0.1796
 4873TIP3    H114625   4.946   5.815   0.155 -1.4620 -0.1556 -0.0516
 4873TIP3    H214626   5.093   5.793   0.125 -0.9575  1.5585  0.9959
 4874TIP3   OH214627   3.972   4.198   1.552  0.6995  0.5276 -0.4242
 4874TIP3    H114628   4.041   4.262   1.540  1.2408 -0.3049 -2.0448
 4874TIP3    H214629   3.900   4.230   1.498  0.7872  0.0602 -0.8299
 4875TIP3   OH214630   2.716   3.733   4.211 -0.0752 -0.3507 -0.1438
 4875TIP3    H114631   2.779   3.802   4.188 -0.3477 -0.5125 -1.4323
 4875TIP3    H214632   2.698   3.748   4.304 -0.6759  1.7837 -0.5487
 4876TIP3   OH214633   6.231   1.511   2.667 -0.4565 -0.7133 -0.1110
 4876TIP3    H114634   6.255   1.594   2.628 -1.0655 -0.6998 -0.4764
 4876TIP3    H214635   6.223   1.451   2.593  0.0529 -1.1178  0.1574
 4877TIP3   OH214636   1.461   3.990   3.311 -0.4891 -0.4075 -0.2347
 4877TIP3    H114637   1.393   4.014   3.373 -1.2993 -2.7930 -0.0893
 4877TIP3    H214638   1.420   3.924   3.254  0.8559  0.1676 -1.9884
 4878TIP3   OH214639   6.029   1.862   1.604  0.3323  0.2099 -0.0361
 4878TIP3    H114640   6.088   1.787   1.598  0.7587  0.5432  0.0220
 4878TIP3    H214641   6.013   1.888   1.513 -0.5059 -0.4839 -0.1050
 4879TIP3   OH214642   5.167   3.699   0.556 -0.0071  0.2968  0.6661
 4879TIP3    H114643   5.092   3.752   0.582 -0.8424  0.0218 -1.0505
 4879TIP3    H214644   5.142   3.661   0.472  1.6646 -0.6197  0.5340
 4880TIP3   OH214645   1.120   5.728   0.902  0.4743  0.2529  0.2566
 4880TIP3    H114646   1.100   5.743   0.995  0.6054  0.7294  0.2124
 4880TIP3    H214647   1.063   5.789   0.856 -0.8437 -1.1838 -0.0728
 4881TIP3   OH214648   3.840   4.610   3.915  0.3089 -0.0668  0.3273
 4881TIP3    H114649   3.860   4.527   3.871  1.2253  0.0607  0.4923
 4881TIP3    H214650   3.917   4.629   3.968  0.7183  1.6029 -0.7859
 4882TIP3   OH214651   4.733   1.849   2.920  0.1743 -0.2482  0.6084
 4882TIP3    H114652   4.691   1.840   3.006 -0.9114 -2.1332 -0.0619
 4882TIP3    H214653   4.731   1.761   2.883 -2.2056  0.9711 -2.6272
 4883TIP3   OH214654   3.746   0.598   1.452  0.6525 -1.0844  0.0288
 4883TIP3    H114655   3.671   0.612   1.395  1.0912 -1.2475 -0.5884
 4883TIP3    H214656   3.731   0.659   1.525 -0.0316 -1.0534 -0.1232
 4884TIP3   OH214657   6.266   4.721   1.218 -0.2995 -0.0394  0.0098
 4884TIP3    H114658   6.269   4.646   1.159 -0.8419  1.6641 -2.3269
 4884TIP3    H214659   6.301   4.793   1.167  0.5769  1.2729  2.3225
 4885TIP3   OH214660   5.007   3.533   0.079  0.4493  0.4482  0.3881
 4885TIP3    H114661   4.968   3.514  -0.006  2.0098  0.2992 -0.3258
 4885TIP3    H214662   5.060   3.611   0.064 -1.2337  1.9897  1.8676
 4886TIP3   OH214663   3.581   1.610   3.121 -0.1020  0.1711 -0.1060
 4886TIP3    H114664   3.642   1.542   3.149  0.6610  0.9559  0.1901
 4886TIP3    H214665   3.634   1.690   3.119 -1.2969  1.0116  0.8571
 4887TIP3   OH214666   2.196   2.445   2.210 -0.4233  0.1837  0.2457
 4887TIP3    H114667   2.113   2.411   2.243  0.0748 -1.1213  0.2198
 4887TIP3    H214668   2.249   2.367   2.193  0.1747  0.9002 -1.4461
 4888TIP3   OH214669   6.184   0.784   0.778  0.2121 -0.0456 -0.1316
 4888TIP3    H114670   6.231   0.863   0.803 -0.5967  0.0057  1.3415
 4888TIP3    H214671   6.252   0.724   0.748  0.9340  0.8645 -0.3487
 4889TIP3   OH214672   0.470   5.516   3.956  0.1907 -0.0052 -0.3711
 4889TIP3    H114673   0.438   5.593   3.910 -0.5808 -0.8797 -1.3346
 4889TIP3    H214674   0.550   5.492   3.909  0.9131  0.6881  0.4640
 4890TIP3   OH214675   3.306   4.578   2.793 -0.1510 -0.1553 -0.1943
 4890TIP3    H114676   3.233   4.534   2.751 -1.5173  1.9242 -0.1629
 4890TIP3    H214677   3.290   4.567   2.887 -0.1192 -0.1650 -0.1899
 4891TIP3   OH214678   0.459   4.394   1.109  0.0217  0.3432 -0.4409
 4891TIP3    H114679   0.378   4.411   1.061 -1.0631  1.4842  1.6420
 4891TIP3    H214680   0.527   4.397   1.042 -1.6115 -0.6713 -2.2750
 4892TIP3   OH214681   4.695   2.748   3.634  0.0711 -0.0356 -0.4030
 4892TIP3    H114682   4.609   2.731   3.673 -1.0339 -0.5954 -2.8878
 4892TIP3    H214683   4.731   2.661   3.619  0.4734  0.1682 -0.6183
 4893TIP3   OH214684   1.327   4.197   2.264 -0.3729  0.2481  0.4463
 4893TIP3    H114685   1.401   4.152   2.305 -1.1482 -1.6320 -0.1236
 4893TIP3    H214686   1.359   4.220   2.176 -0.6657 -1.2435 -0.0794
 4894TIP3   OH214687   4.031   2.561   2.671 -0.3152  0.5702 -0.1391
 4894TIP3    H114688   4.092   2.488   2.682  0.7193  1.5129  0.6222
 4894TIP3    H214689   3.985   2.542   2.589 -1.1306 -1.6719  0.7537
 4895TIP3   OH214690   1.641   5.857   3.731  1.1255  0.4196 -0.2241
 4895TIP3    H114691   1.667   5.947   3.751 -1.8015  1.1007  0.9726
 4895TIP3    H214692   1.547   5.854   3.750  0.8878 -2.5986 -1.3490
 4896TIP3   OH214693   4.134   3.348   5.083 -0.2386  0.4767 -0.3747
 4896TIP3    H114694   4.140   3.437   5.047 -1.7657  0.8788  0.2893
 4896TIP3    H214695   4.215   3.306   5.055  0.9876  2.3667  0.0895
 4897TIP3   OH214696   5.787   1.012   3.629 -0.1413 -0.4332 -0.3147
 4897TIP3    H114697   5.804   0.935   3.574 -2.2321 -0.6896 -0.6894
 4897TIP3    H214698   5.806   1.087   3.572 -0.9584 -0.6976 -0.9520
 4898TIP3   OH214699   3.087   5.834   5.157  0.1679 -0.1032  0.1532
 4898TIP3    H114700   3.175   5.839   5.194  0.8801 -2.1773 -1.0981
 4898TIP3    H214701   3.050   5.921   5.172  2.0225  0.4994  1.6495
 4899TIP3   OH214702   1.536   4.415   0.700  0.5770  0.1457 -0.0225
 4899TIP3    H114703   1.465   4.352   0.710 -0.1854  1.1933  1.5089
 4899TIP3    H214704   1.526   4.450   0.612  0.8850 -1.6668 -0.8240
 4900TIP3   OH214705   2.702   0.869   0.819 -0.1417  0.3350  0.4467
 4900TIP3    H114706   2.700   0.944   0.760  0.1288 -0.6419 -0.8545
 4900TIP3    H214707   2.735   0.904   0.902 -2.5346  2.2049  0.7442
 4901TIP3   OH214708   4.465   1.053   4.424 -0.3862  0.1449 -0.2771
 4901TIP3    H114709   4.433   1.136   4.459 -0.2787  0.5609 -1.1353
 4901TIP3    H214710   4.536   1.078   4.365  1.4127 -0.7398  1.4024
 4902TIP3   OH214711   3.952   1.900   0.443 -0.1604 -0.3959  0.4000
 4902TIP3    H114712   3.951   1.992   0.469  0.5857  0.3693 -2.0747
 4902TIP3    H214713   3.873   1.889   0.390  0.1551 -0.9810  0.0456
 4903TIP3   OH214714   4.521   3.264   1.717  0.0165 -0.2866  0.4256
 4903TIP3    H114715   4.549   3.256   1.808 -0.6662 -0.4213  0.6282
 4903TIP3    H214716   4.496   3.356   1.708 -1.2350 -0.5808  0.7685
 4904TIP3   OH214717   1.285   2.640   0.231 -0.3681  0.1165  0.2828
 4904TIP3    H114718   1.322   2.643   0.143 -0.6041  0.3497  0.1900
 4904TIP3    H214719   1.354   2.675   0.288  0.6611 -2.0711  0.5088
 4905TIP3   OH214720   2.106   4.766   0.953  0.0310  0.2110  0.2022
 4905TIP3    H114721   2.027   4.798   0.911 -0.5162  0.9866  1.7338
 4905TIP3    H214722   2.076   4.732   1.038  1.0265 -1.6519 -0.1403
 4906TIP3   OH214723   0.730   3.659   0.721  0.9796 -0.3134  0.5085
 4906TIP3    H114724   0.770   3.631   0.639  0.1650  0.3614 -0.1364
 4906TIP3    H214725   0.644   3.692   0.696  1.1376  0.9079  1.5007
 4907TIP3   OH214726   6.074   3.749   1.423 -0.5747 -0.3521  0.6375
 4907TIP3    H114727   6.059   3.833   1.465  0.2110 -0.7436  1.7589
 4907TIP3    H214728   6.033   3.685   1.481 -1.3212 -0.7495 -0.2870
 4908TIP3   OH214729   2.560   3.996   4.126  0.0027  0.0694  0.1420
 4908TIP3    H114730   2.645   3.971   4.162 -0.2803 -1.3308 -0.0897
 4908TIP3    H214731   2.505   3.919   4.140 -1.1971  0.9050  0.1627
 4909TIP3   OH214732   2.345   5.972   1.204  0.2882 -0.0796 -0.2396
 4909TIP3    H114733   2.312   6.046   1.153  1.3849  0.2138 -0.5601
 4909TIP3    H214734   2.322   5.895   1.152 -0.7393  0.0350  0.0264
 4910TIP3   OH214735   0.913   0.773   4.756  0.2206 -0.0978 -0.0636
 4910TIP3    H114736   0.888   0.861   4.785  0.4015 -0.3721  0.9479
 4910TIP3    H214737   0.969   0.788   4.680  0.7667  0.6964  0.4786
 4911TIP3   OH214738   5.987   3.225   3.065  0.1910  0.4362 -0.6844
 4911TIP3    H114739   6.047   3.286   3.023  2.8283 -0.8262  0.9683
 4911TIP3    H214740   5.995   3.144   3.016  0.6483 -0.0385  0.1503
 4912TIP3   OH214741   0.221   3.248   2.380 -0.4798 -0.1981 -0.0100
 4912TIP3    H114742   0.278   3.296   2.319 -2.0687  0.2076 -1.2506
 4912TIP3    H214743   0.223   3.158   2.348 -0.7885 -0.1171 -0.2628
 4913TIP3   OH214744   3.750   1.454   3.900 -0.5858 -0.3990  0.6249
 4913TIP3    H114745   3.837   1.472   3.864  0.6829  0.1664  3.6530
 4913TIP3    H214746   3.696   1.435   3.823  1.8895  0.4173 -1.4841
 4914TIP3   OH214747   5.447   5.649   3.511 -0.0662  0.0013 -0.0008
 4914TIP3    H114748   5.398   5.728   3.534 -0.2247  0.1172 -0.7151
 4914TIP3    H214749   5.387   5.599   3.455  0.7235  0.2851 -1.1396
 4915TIP3   OH214750   4.283   2.076   0.238  0.4183 -0.3529 -0.4970
 4915TIP3    H114751   4.320   2.128   0.166  1.3987  0.2263  0.4046
 4915TIP3    H214752   4.204   2.124   0.264 -0.1046 -0.7140 -1.3418
 4916TIP3   OH214753   2.775   3.684   2.531 -0.4479 -0.0894 -0.0747
 4916TIP3    H114754   2.759   3.631   2.609  0.1461 -0.0762  0.0555
 4916TIP3    H214755   2.782   3.774   2.565 -0.7254 -0.0150 -0.2090
 4917TIP3   OH214756   5.443   1.901   4.866  0.3596  0.1834 -0.3136
 4917TIP3    H114757   5.403   1.842   4.931 -0.4377  3.4432  2.4785
 4917TIP3    H214758   5.456   1.846   4.789 -3.3649 -2.7985  0.8416
 4918TIP3   OH214759   3.180   4.166   3.008  0.2568 -0.6176 -0.5764
 4918TIP3    H114760   3.161   4.087   2.957  0.1823  0.1062 -1.7119
 4918TIP3    H214761   3.272   4.185   2.988  0.3187 -0.5014 -0.1841
 4919TIP3   OH214762   1.453   1.289   4.475  0.2391  0.1526 -0.3136
 4919TIP3    H114763   1.411   1.276   4.560  0.9737 -0.2983 -0.0121
 4919TIP3    H214764   1.490   1.203   4.454 -1.7035 -0.3575 -2.0688
 4920TIP3   OH214765   1.879   1.004   0.494 -0.2456  0.2348  0.2159
 4920TIP3    H114766   1.844   0.976   0.579 -1.6305 -0.3675 -0.5361
 4920TIP3    H214767   1.973   0.986   0.500 -0.4013 -0.2644  1.4390
 4921TIP3   OH214768   5.561   2.434   0.867 -0.1601 -0.6031 -0.0824
 4921TIP3    H114769   5.648   2.427   0.829 -0.2828 -1.6221 -0.1843
 4921TIP3    H214770   5.541   2.347   0.900 -1.8968 -0.8805 -1.6995
 4922TIP3   OH214771   3.020   5.765   2.376  0.1543 -0.4724 -0.1378
 4922TIP3    H114772   3.032   5.698   2.310  0.5971 -1.6191  1.0647
 4922TIP3    H214773   2.957   5.728   2.438 -1.2344  1.0783 -0.5418
 4923TIP3   OH214774   2.545   0.296   1.474  0.1325  0.1542 -0.0840
 4923TIP3    H114775   2.553   0.383   1.434  0.0634  0.9301  1.5121
 4923TIP3    H214776   2.571   0.236   1.405  2.2165  1.5547 -0.6074
 4924TIP3   OH214777   1.066   0.713   4.526  0.1226  0.3566  0.5376
 4924TIP3    H114778   1.159   0.701   4.504 -0.6346 -0.4394 -2.7598
 4924TIP3    H214779   1.035   0.625   4.548 -0.2949  0.2046 -0.5839
 4925TIP3   OH214780   4.835   1.017   0.334 -0.4284  0.2880 -0.8886
 4925TIP3    H114781   4.774   1.000   0.261 -0.6588 -1.2887 -0.3724
 4925TIP3    H214782   4.870   0.931   0.355 -0.9376  0.5822  1.3688
 4926TIP3   OH214783   5.205   1.426   1.273 -0.4974  0.0300 -0.5451
 4926TIP3    H114784   5.206   1.330   1.280  2.1562  0.0392  0.3828
 4926TIP3    H214785   5.192   1.456   1.363 -2.3822  0.6019 -0.9701
 4927TIP3   OH214786   3.070   2.234   0.272 -0.5856  0.2735  0.1264
 4927TIP3    H114787   3.082   2.302   0.206 -0.9347  0.3811  0.1746
 4927TIP3    H214788   2.975   2.229   0.286 -0.4957  0.4917  0.8671
 4928TIP3   OH214789   1.927   5.290   0.848 -0.1293 -0.1475 -0.3317
 4928TIP3    H114790   2.013   5.327   0.827  0.1336 -0.5282  0.0625
 4928TIP3    H214791   1.934   5.198   0.822 -0.7192  0.0190 -1.1400
 4929TIP3   OH214792   2.150   2.851   3.742 -0.1780  0.0416  0.3981
 4929TIP3    H114793   2.144   2.890   3.655 -2.0074 -0.5139  0.2265
 4929TIP3    H214794   2.117   2.762   3.731  1.5316 -0.7390  1.2775
 4930TIP3   OH214795   2.816   3.965   4.748  0.3535  0.4146  0.1292
 4930TIP3    H114796   2.759   3.892   4.772 -0.0401  0.3805 -0.8540
 4930TIP3    H214797   2.763   4.043   4.766 -0.8469  0.3547 -2.6286
 4931TIP3   OH214798   3.304   3.841   3.151  0.0723  0.4827  0.0574
 4931TIP3    H114799   3.392   3.852   3.185 -0.0567  0.7959  0.3027
 4931TIP3    H214800   3.314   3.847   3.056  0.3300  0.4018  0.0797
 4932TIP3   OH214801   3.406   5.283   1.454 -0.1517 -0.9434  0.6667
 4932TIP3    H114802   3.318   5.292   1.489  0.1921  0.3554  1.2425
 4932TIP3    H214803   3.419   5.188   1.447 -2.4160 -1.1917 -1.5912
 4933TIP3   OH214804   1.518   0.673   3.120 -0.4396  0.6678 -0.0132
 4933TIP3    H114805   1.538   0.756   3.164 -1.2516  0.4661  0.7789
 4933TIP3    H214806   1.439   0.641   3.165  0.6618 -1.2509  0.6700
 4934TIP3   OH214807   4.263   2.367   1.989 -0.3474 -0.1842 -0.1839
 4934TIP3    H114808   4.326   2.400   1.924  0.1750 -0.6084  0.1069
 4934TIP3    H214809   4.178   2.385   1.949 -0.0466  0.2565 -0.6509
 4935TIP3   OH214810   5.253   3.928   3.904  0.4704 -0.5869 -0.1074
 4935TIP3    H114811   5.255   3.919   3.999 -0.6282  1.9563  0.2256
 4935TIP3    H214812   5.342   3.956   3.881  0.4207 -0.0530  0.3329
 4936TIP3   OH214813   5.241   1.752   3.408 -0.2718 -0.5698  0.2793
 4936TIP3    H114814   5.313   1.731   3.349 -0.4606  0.3232 -0.2919
 4936TIP3    H214815   5.165   1.763   3.350 -0.8982 -1.6032  0.8773
 4937TIP3   OH214816   4.543   3.792   1.761 -0.2392 -0.3646 -0.1679
 4937TIP3    H114817   4.631   3.760   1.745 -0.1547 -1.3341  1.9201
 4937TIP3    H214818   4.555   3.879   1.798 -0.2806  0.3383 -1.7421
 4938TIP3   OH214819   3.875   2.335   0.892  0.6899 -0.0230  0.1815
 4938TIP3    H114820   3.942   2.364   0.830 -0.2896  0.4202 -0.7039
 4938TIP3    H214821   3.874   2.401   0.961 -1.0445  1.7931 -1.4662
 4939TIP3   OH214822   4.954   2.415   2.200  0.2344  0.1335  0.0189
 4939TIP3    H114823   4.954   2.509   2.183 -0.0615 -0.0778 -1.3269
 4939TIP3    H214824   5.047   2.391   2.202  0.3347  0.5770  1.2244
 4940TIP3   OH214825   3.600   0.326   3.297  0.0192 -0.4365 -0.0465
 4940TIP3    H114826   3.520   0.274   3.307  0.6366 -1.5984 -0.8708
 4940TIP3    H214827   3.620   0.358   3.385 -1.4806  0.0818  0.1216
 4941TIP3   OH214828   4.478   0.257   3.858 -0.0122 -0.4660 -0.1768
 4941TIP3    H114829   4.387   0.250   3.885  0.1360 -2.3374 -0.0700
 4941TIP3    H214830   4.474   0.285   3.767 -0.7098 -1.1821 -0.3682
 4942TIP3   OH214831   1.413   4.211   1.999 -0.4773 -0.4799  0.0202
 4942TIP3    H114832   1.472   4.264   1.945  0.6613 -0.7666  0.9465
 4942TIP3    H214833   1.468   4.141   2.033 -1.9723 -2.3275 -1.2033
 4943TIP3   OH214834   2.305   3.222   4.053  0.5820  0.0666 -0.2038
 4943TIP3    H114835   2.242   3.189   3.988 -0.4064 -0.9838  1.2311
 4943TIP3    H214836   2.251   3.261   4.121  1.6306  1.7592 -0.2563
 4944TIP3   OH214837   2.310   1.902   1.669  0.1582 -0.0268  0.2625
 4944TIP3    H114838   2.230   1.905   1.617  0.4543 -1.1039 -0.2780
 4944TIP3    H214839   2.303   1.822   1.720  0.8309 -0.0627  0.3072
 4945TIP3   OH214840   4.325   2.682   1.601  0.7893  0.3095 -0.6256
 4945TIP3    H114841   4.276   2.750   1.554 -1.6830 -1.4870 -0.8231
 4945TIP3    H214842   4.390   2.652   1.537  1.0992  1.5956 -0.9557
 4946TIP3   OH214843   5.763   1.167   4.529  0.1872  0.4963  0.0590
 4946TIP3    H114844   5.811   1.178   4.447 -0.3437  0.5952 -0.2413
 4946TIP3    H214845   5.713   1.086   4.516 -0.1629  0.6971  0.1521
 4947TIP3   OH214846   1.007   4.798   2.954  0.1575 -0.0635  0.2724
 4947TIP3    H114847   0.951   4.844   2.891  0.5699 -0.1196 -0.1432
 4947TIP3    H214848   0.955   4.794   3.034  0.4687  1.9573  0.6309
 4948TIP3   OH214849   6.280   3.145   2.935  0.1004 -0.1950 -0.5567
 4948TIP3    H114850   6.303   3.127   2.844  1.3620 -1.5455 -0.0067
 4948TIP3    H214851   6.185   3.129   2.939  0.0985 -0.5097 -1.5366
 4949TIP3   OH214852   3.807   2.035   1.600  0.2846 -0.2717  0.2507
 4949TIP3    H114853   3.883   2.065   1.651 -1.5865  0.8512  2.6080
 4949TIP3    H214854   3.817   1.940   1.594  1.7860 -0.1556  0.6210
 4950TIP3   OH214855  -0.002   3.974   0.773  0.3115  0.5258  0.8978
 4950TIP3    H114856  -0.005   3.878   0.765  0.6691  0.6035 -0.2967
 4950TIP3    H214857   0.046   4.003   0.696 -0.3672  1.7224  0.9089
 4951TIP3   OH214858   3.725   0.200   3.108 -0.1153 -0.1443  0.2561
 4951TIP3    H114859   3.700   0.252   3.184 -0.1133 -1.0696  0.9027
 4951TIP3    H214860   3.735   0.111   3.141  2.1654 -0.1878 -0.3350
 4952TIP3   OH214861   5.067   5.259   3.317  0.4054 -0.5060  0.2320
 4952TIP3    H114862   5.035   5.175   3.349  2.2913 -0.7733  1.6078
 4952TIP3    H214863   5.151   5.239   3.277  0.3019  0.5558 -0.5620
 4953TIP3   OH214864   4.370   3.131   3.371  0.3104 -0.1898  0.2953
 4953TIP3    H114865   4.342   3.191   3.302  2.6854  0.3559 -0.2986
 4953TIP3    H214866   4.289   3.103   3.413 -1.0576  1.2482 -1.2260
 4954TIP3   OH214867   5.243   2.422   1.958  0.7745 -0.0941 -0.3609
 4954TIP3    H114868   5.297   2.343   1.955 -0.7460 -1.1688 -0.9669
 4954TIP3    H214869   5.288   2.480   2.019  2.7734 -0.7773 -1.1156
 4955TIP3   OH214870   1.094   2.899   2.376  0.3483  0.1205 -0.1904
 4955TIP3    H114871   1.175   2.877   2.330 -0.0454 -0.7291 -0.4943
 4955TIP3    H214872   1.057   2.815   2.403 -0.5916  0.4738 -0.3266
 4956TIP3   OH214873   4.855   1.901   1.728 -0.1054  0.4075  0.1221
 4956TIP3    H114874   4.883   1.982   1.687  0.4289 -0.2447 -0.8373
 4956TIP3    H214875   4.770   1.922   1.766 -0.0435  1.3729 -0.2410
 4957TIP3   OH214876   5.512   1.364   4.440 -0.2208 -0.4857  0.1067
 4957TIP3    H114877   5.497   1.424   4.514  1.8629 -0.5852  0.6603
 4957TIP3    H214878   5.552   1.287   4.480 -1.3018 -1.5822 -0.8365
 4958TIP3   OH214879   5.539   2.848   0.014 -0.0665 -0.3690 -0.2417
 4958TIP3    H114880   5.522   2.760   0.048  0.0744  0.1085  1.1448
 4958TIP3    H214881   5.621   2.839  -0.034  0.1438 -0.9268  0.2003
 4959TIP3   OH214882   2.243   1.639   1.810  0.0999 -0.0701 -0.0958
 4959TIP3    H114883   2.296   1.577   1.858 -0.8042 -0.5416  0.3163
 4959TIP3    H214884   2.173   1.665   1.871 -0.5168  0.0399 -0.8234
 4960TIP3   OH214885   1.966   4.266   1.853 -0.0382 -0.1090  0.1736
 4960TIP3    H114886   2.017   4.214   1.915  0.1889 -0.1508 -0.0451
 4960TIP3    H214887   1.928   4.336   1.906  1.8819  1.1324  0.0377
 4961TIP3   OH214888   6.105   1.615   4.917  0.1342  0.2714 -0.0906
 4961TIP3    H114889   6.014   1.618   4.948 -0.4336 -0.9799 -1.5167
 4961TIP3    H214890   6.154   1.578   4.991 -0.3510  1.6484  0.9683
 4962TIP3   OH214891   3.268   4.481   4.421  0.1318 -0.0339  0.0970
 4962TIP3    H114892   3.326   4.550   4.388  1.3393 -1.2274 -0.3738
 4962TIP3    H214893   3.271   4.413   4.353 -1.6663 -0.2354  0.1718
 4963TIP3   OH214894   2.330   2.473   1.368  0.3143 -0.1955  0.5022
 4963TIP3    H114895   2.419   2.452   1.396  0.5389  0.2587  0.1376
 4963TIP3    H214896   2.279   2.395   1.389  1.3010 -1.5223 -1.6838
 4964TIP3   OH214897   3.156   5.883   1.339  0.2520  0.4217 -0.1224
 4964TIP3    H114898   3.143   5.960   1.394 -0.6634  0.3646 -0.2344
 4964TIP3    H214899   3.084   5.824   1.364 -1.1611  1.0328 -2.4856
 4965TIP3   OH214900   3.979   4.652   4.792 -0.0212 -0.3962 -0.3725
 4965TIP3    H114901   3.901   4.609   4.758 -0.4023  0.9515 -1.2952
 4965TIP3    H214902   3.958   4.675   4.882 -0.2306 -1.0896 -0.2399
 4966TIP3   OH214903   4.986   5.552   4.711  0.2339  0.1970 -0.1332
 4966TIP3    H114904   4.986   5.474   4.766  1.8530  0.8697  0.9126
 4966TIP3    H214905   5.055   5.537   4.647 -0.3463  0.2326 -0.7836
 4967TIP3   OH214906   3.629   5.621   4.580  0.2661  0.7578  0.2856
 4967TIP3    H114907   3.686   5.693   4.551  1.0660 -0.3145 -0.9137
 4967TIP3    H214908   3.650   5.549   4.521  0.0792 -0.7487  1.9695
 4968TIP3   OH214909   6.259   2.737   4.463 -0.4853  0.2069  0.0362
 4968TIP3    H114910   6.177   2.693   4.485 -0.5660  0.4227  0.1647
 4968TIP3    H214911   6.321   2.709   4.531 -0.8171  1.1264  0.7342
 4969TIP3   OH214912   2.202   3.734   4.276  0.2620 -0.0149  0.4622
 4969TIP3    H114913   2.207   3.827   4.298 -1.4560  0.0366  0.7647
 4969TIP3    H214914   2.109   3.719   4.257  0.4597 -1.7363  0.7234
 4970TIP3   OH214915   3.813   2.925   2.884 -0.5749 -0.3591  0.3423
 4970TIP3    H114916   3.842   2.872   2.810 -0.3466 -0.8692  0.7989
 4970TIP3    H214917   3.893   2.966   2.917 -0.8242  0.7753 -0.3860
 4971TIP3   OH214918   5.716   1.809   0.167  0.1448  0.0736 -0.0796
 4971TIP3    H114919   5.733   1.879   0.229  0.1176  0.3071 -0.3319
 4971TIP3    H214920   5.713   1.729   0.220 -1.2440  0.4310  0.4263
 4972TIP3   OH214921   2.884   3.102   4.278 -0.3702 -0.1241  0.2408
 4972TIP3    H114922   2.815   3.157   4.242 -1.4597  0.0416  2.4758
 4972TIP3    H214923   2.848   3.013   4.274  0.5918 -0.4894 -1.4866
 4973TIP3   OH214924   0.089   3.568   1.032  0.1324 -0.8262 -0.2190
 4973TIP3    H114925   0.139   3.645   1.059  0.0482 -1.1707  0.9900
 4973TIP3    H214926   0.015   3.564   1.093  0.1899 -1.9098 -0.1863
 4974TIP3   OH214927   5.958   4.138   4.277 -0.4661  0.3513  0.6849
 4974TIP3    H114928   5.920   4.172   4.196  0.8943  0.9032  0.2514
 4974TIP3    H214929   5.913   4.055   4.291 -0.1957 -0.1313 -1.0622
 4975TIP3   OH214930   2.173   3.762   1.111  0.0429  0.3234  0.1560
 4975TIP3    H114931   2.205   3.677   1.079  2.2118  0.5553  1.4743
 4975TIP3    H214932   2.141   3.743   1.200  0.4669  0.8533  0.4293
 4976TIP3   OH214933   5.680   3.181   0.139 -0.6097 -0.5851  0.5900
 4976TIP3    H114934   5.616   3.148   0.076 -0.6184 -0.3240  0.4618
 4976TIP3    H214935   5.698   3.106   0.196 -3.1043  0.0375  2.3732
 4977TIP3   OH214936   4.630   0.379   0.205  0.6905 -0.3743 -0.5748
 4977TIP3    H114937   4.636   0.472   0.227  0.0879 -0.6494  0.8455
 4977TIP3    H214938   4.718   0.355   0.176  0.4896  0.9798 -2.5561
 4978TIP3   OH214939   4.603   0.072   4.771 -0.1194  0.5968  0.1344
 4978TIP3    H114940   4.616  -0.023   4.763  1.6071  0.7550  0.7609
 4978TIP3    H214941   4.646   0.095   4.853 -1.1405  1.8312  0.3409
 4979TIP3   OH214942   3.784   5.088   3.244  0.3126  0.0222  0.5171
 4979TIP3    H114943   3.813   5.175   3.271  0.3496  0.5329 -1.0997
 4979TIP3    H214944   3.855   5.030   3.271  0.7461  0.6225  0.6986
 4980TIP3   OH214945   2.948   2.528   3.000  0.1236  0.3192  0.7842
 4980TIP3    H114946   2.978   2.577   2.923 -1.2030 -0.0926 -0.0188
 4980TIP3    H214947   2.992   2.443   2.993  0.4337  0.4791  0.7833
 4981TIP3   OH214948   1.717   3.833   3.214 -0.2946 -0.1217  0.2537
 4981TIP3    H114949   1.741   3.884   3.137 -1.1017 -0.9957 -0.6125
 4981TIP3    H214950   1.624   3.852   3.227 -0.7922 -1.8162 -0.4939
 4982TIP3   OH214951   1.119   4.163   4.894 -0.5226  0.8837 -0.3423
 4982TIP3    H114952   1.148   4.077   4.926 -1.0282  0.1022 -1.8798
 4982TIP3    H214953   1.072   4.202   4.968  2.2578  1.1817  1.4499
 4983TIP3   OH214954   0.667   4.012   0.174  0.0863 -0.2344  0.2465
 4983TIP3    H114955   0.655   4.043   0.264  0.2987 -1.0620  0.5773
 4983TIP3    H214956   0.620   3.928   0.172  2.7989 -1.8875  0.5987
 4984TIP3   OH214957   4.037   2.922   4.187  0.2569 -0.2364  0.1053
 4984TIP3    H114958   4.002   2.852   4.242 -0.2189  0.5915  0.8680
 4984TIP3    H214959   3.985   2.999   4.209  0.9310  0.4208 -0.5439
 4985TIP3   OH214960   3.614   4.236   3.688  0.3192  0.4390 -0.1801
 4985TIP3    H114961   3.643   4.245   3.779 -1.3744  1.0299  0.3556
 4985TIP3    H214962   3.592   4.325   3.661 -1.3736  0.0140 -0.3562
 4986TIP3   OH214963   2.719   3.049   0.802 -0.1241 -0.4112  0.3018
 4986TIP3    H114964   2.682   3.018   0.719  0.6113 -0.0332 -0.1810
 4986TIP3    H214965   2.739   2.968   0.850 -2.0692 -0.6221  0.8235
 4987TIP3   OH214966   2.278   0.724   2.841  0.1232 -0.7240 -0.1523
 4987TIP3    H114967   2.307   0.670   2.915 -0.0908 -1.4702 -0.6112
 4987TIP3    H214968   2.184   0.708   2.834  0.4370 -2.1546 -1.7689
 4988TIP3   OH214969   3.999   2.144   2.155  0.4978  0.3687 -0.4003
 4988TIP3    H114970   4.070   2.190   2.200 -1.0262  1.6450  0.7941
 4988TIP3    H214971   3.974   2.073   2.215  0.2661  0.3827 -0.4799
 4989TIP3   OH214972   5.569   1.184   4.245 -0.5603 -0.1813 -0.0914
 4989TIP3    H114973   5.603   1.267   4.212  0.9197 -0.2716  1.1017
 4989TIP3    H214974   5.501   1.209   4.307  1.5999  0.3557  2.2379
 4990TIP3   OH214975   5.132   2.592   1.168 -0.1389  0.8202  0.6581
 4990TIP3    H114976   5.130   2.618   1.261  0.9842  2.7064  0.2230
 4990TIP3    H214977   5.078   2.658   1.124 -0.9274 -0.2486 -0.0071
 4991TIP3   OH214978   4.327   2.989   0.091 -0.5229  0.0531  0.1615
 4991TIP3    H114979   4.407   2.939   0.108 -0.7913 -0.5367 -0.2710
 4991TIP3    H214980   4.355   3.060   0.034 -0.6338 -1.3430 -1.7376
 4992TIP3   OH214981   0.492   5.760   1.773 -0.2171  0.1378  0.0996
 4992TIP3    H114982   0.502   5.805   1.857 -1.4958  1.7659 -0.5696
 4992TIP3    H214983   0.548   5.809   1.712 -0.7597  0.1371 -0.4039
 4993TIP3   OH214984   6.094   3.255   5.096  0.2321  0.5127 -0.4141
 4993TIP3    H114985   6.159   3.240   5.028  0.8893  0.1948  0.2710
 4993TIP3    H214986   6.109   3.185   5.160  0.1118  1.2144  0.4066
 4994TIP3   OH214987   0.529   2.369   4.601 -0.1595 -0.2712 -0.3566
 4994TIP3    H114988   0.607   2.376   4.657  0.0583  0.5791 -0.7467
 4994TIP3    H214989   0.514   2.458   4.571 -0.5695 -0.6405 -1.2615
 4995TIP3   OH214990   2.475   1.702   5.024 -0.2999  0.0746 -0.0885
 4995TIP3    H114991   2.451   1.735   4.938 -0.5107 -0.1567 -0.1183
 4995TIP3    H214992   2.392   1.695   5.071 -0.2167 -0.0889  0.0324
 4996TIP3   OH214993   1.043   0.200   1.548 -0.1025 -0.2670 -0.5779
 4996TIP3    H114994   1.058   0.164   1.461 -1.1414  0.7523 -1.2042
 4996TIP3    H214995   0.948   0.204   1.557 -0.0178  0.6922  0.1342
 4997TIP3   OH214996   1.214   0.269   3.063  0.3972  0.3203 -0.2396
 4997TIP3    H114997   1.255   0.183   3.052 -0.3143 -0.7575  3.9486
 4997TIP3    H214998   1.122   0.249   3.080 -0.3051  2.1729 -1.5105
 4998TIP3   OH214999   1.125   2.386   0.701  0.2045  0.7436 -0.6251
 4998TIP3    H115000   1.049   2.336   0.671  0.4888  0.0570 -0.2247
 4998TIP3    H215001   1.141   2.355   0.790  2.1320 -0.5553 -1.3660
 4999TIP3   OH215002   4.905   4.744   2.341 -0.6983 -0.2213  0.0795
 4999TIP3    H115003   4.841   4.776   2.405 -0.9143 -0.9900  0.2602
 4999TIP3    H215004   4.915   4.816   2.279  1.9901  1.9241  2.6969
 5000TIP3   OH215005   5.219   2.764   3.660  0.1670 -0.0791 -0.0091
 5000TIP3    H115006   5.204   2.727   3.747 -0.6923  0.4797  0.0990
 5000TIP3    H215007   5.265   2.846   3.677  0.8906 -0.4481 -0.1572
 5001TIP3   OH215008   3.150   0.644   4.832  0.4607 -0.9234 -0.0550
 5001TIP3    H115009   3.077   0.614   4.776 -0.6491  1.6239 -0.0967
 5001TIP3    H215010   3.227   0.603   4.793 -0.3752 -0.0291 -2.9641
 5002TIP3   OH215011   5.255   4.341   0.951  0.7301 -0.0541  0.1174
 5002TIP3    H115012   5.297   4.406   0.894  0.2406  0.6088  0.5011
 5002TIP3    H215013   5.286   4.256   0.917  4.5417  0.3766  2.0032
 5003TIP3   OH215014   0.554   4.470   0.268 -0.2231 -0.2196  0.4780
 5003TIP3    H115015   0.476   4.436   0.222 -0.9085  0.3999  1.1601
 5003TIP3    H215016   0.595   4.528   0.205 -1.1902  0.6686  0.6370
 5004TIP3   OH215017   0.484   0.608   2.549 -0.5642 -0.4907 -0.2227
 5004TIP3    H115018   0.406   0.662   2.559  0.8211  1.4004  0.9713
 5004TIP3    H215019   0.483   0.581   2.457 -1.4574  1.3992 -0.8185
 5005TIP3   OH215020   2.878   2.432   0.050  0.2941  0.4370  0.1840
 5005TIP3    H115021   2.863   2.396  -0.038  0.0901  2.6488 -0.7453
 5005TIP3    H215022   2.791   2.449   0.084  0.3796 -0.2825  0.7934
 5006TIP3   OH215023   2.104   4.010   3.709  0.0461 -0.2073 -0.3044
 5006TIP3    H115024   2.115   4.038   3.618 -0.2150  0.1228 -0.2370
 5006TIP3    H215025   2.113   3.915   3.706  1.6400 -0.0712 -0.4391
 5007TIP3   OH215026   3.419   4.993   1.507 -0.2301  0.1124  0.5721
 5007TIP3    H115027   3.452   4.950   1.428 -0.2822  1.0690  0.0206
 5007TIP3    H215028   3.328   5.013   1.487  0.1894  1.8123  0.2322
 5008TIP3   OH215029   0.488   4.951   4.668 -0.4998  0.1518  0.5737
 5008TIP3    H115030   0.578   4.975   4.689 -0.5466 -0.4841  1.5620
 5008TIP3    H215031   0.494   4.864   4.627 -0.6924 -0.0596  0.9899
 5009TIP3   OH215032   2.602   3.134   3.690  0.4134 -0.0432 -0.3321
 5009TIP3    H115033   2.588   3.178   3.606 -3.3721  1.1070  0.7245
 5009TIP3    H215034   2.557   3.050   3.682 -0.7906  0.4525  0.7402
 5010TIP3   OH215035   5.260   0.695   0.747  0.5158 -0.2418  0.0906
 5010TIP3    H115036   5.330   0.721   0.808  0.8235 -0.2120 -0.2711
 5010TIP3    H215037   5.211   0.628   0.794  1.1821 -0.7262  0.1031
 5011TIP3   OH215038   1.552   4.224   0.120 -0.3947 -0.2929 -0.2719
 5011TIP3    H115039   1.530   4.142   0.075  1.4570  0.4867 -2.8225
 5011TIP3    H215040   1.525   4.293   0.060  0.4106  0.9029  0.6899
 5012TIP3   OH215041   1.004   2.090   1.948  0.0601 -0.0067  0.3538
 5012TIP3    H115042   1.010   2.174   1.904 -2.7300 -0.2682 -0.7108
 5012TIP3    H215043   1.085   2.045   1.924  0.2882  1.2618 -1.5063
 5013TIP3   OH215044   4.919   1.351   0.785 -0.0560 -0.0801  0.2625
 5013TIP3    H115045   4.896   1.327   0.695 -0.4002  0.9301  0.0624
 5013TIP3    H215046   4.988   1.417   0.775  0.9643 -1.0427  0.7914
 5014TIP3   OH215047   2.033   4.731   0.486 -0.0949  0.2604 -0.2138
 5014TIP3    H115048   2.083   4.651   0.500 -1.7434 -0.5584  1.4554
 5014TIP3    H215049   2.062   4.764   0.401  2.4753 -0.7047  0.2068
 5015TIP3   OH215050   0.547   1.827   4.752 -0.5797 -0.2575  0.4012
 5015TIP3    H115051   0.555   1.766   4.826 -0.1683 -0.3575  0.2784
 5015TIP3    H215052   0.594   1.905   4.779  1.7347 -1.1698 -0.6643
 5016TIP3   OH215053   1.828   5.569   0.793  0.4382 -0.4936  0.2448
 5016TIP3    H115054   1.850   5.482   0.760 -0.0372 -1.2435  1.8218
 5016TIP3    H215055   1.733   5.573   0.790  0.4846  0.5500 -1.1323
 5017TIP3   OH215056   1.155   5.571   1.269 -0.0004  0.0614  0.5487
 5017TIP3    H115057   1.081   5.612   1.223 -0.3259  1.2088  2.0102
 5017TIP3    H215058   1.115   5.500   1.320  0.0273  0.1480  0.6916
 5018TIP3   OH215059   1.085   4.904   2.474  0.1468 -0.9611 -0.8460
 5018TIP3    H115060   1.061   4.839   2.540 -1.3066 -0.4905 -0.8744
 5018TIP3    H215061   1.174   4.931   2.498 -0.4666 -0.5508  1.1315
 5019TIP3   OH215062   2.229   4.315   3.271 -0.0920  0.0297 -0.2511
 5019TIP3    H115063   2.294   4.374   3.234  2.7179 -1.8541  1.2906
 5019TIP3    H215064   2.196   4.266   3.196 -1.3366  2.3945 -1.3356
 5020TIP3   OH215065   1.508   5.844   4.985 -0.2482 -0.1449 -0.5328
 5020TIP3    H115066   1.468   5.862   4.900 -0.6019 -0.9430 -0.5433
 5020TIP3    H215067   1.602   5.837   4.966 -0.4375 -1.4433 -1.0580
 5021TIP3   OH215068   4.365   3.962   4.423  0.6318  0.6048 -0.2337
 5021TIP3    H115069   4.356   3.923   4.336  1.1515  1.3113 -0.6040
 5021TIP3    H215070   4.407   3.894   4.476 -1.6680 -0.6783  0.0760
 5022TIP3   OH215071   0.397   0.391   4.323  0.0144  0.0661 -0.1874
 5022TIP3    H115072   0.465   0.329   4.349  0.3077  0.8686  1.0175
 5022TIP3    H215073   0.328   0.336   4.286  1.0623 -0.8094 -0.9310
 5023TIP3   OH215074   0.050   4.572   1.395 -0.3793 -0.4222  0.5825
 5023TIP3    H115075  -0.006   4.634   1.348  1.0174  0.6185  0.2112
 5023TIP3    H215076   0.053   4.605   1.485  0.3146  0.0451  0.3991
 5024TIP3   OH215077   2.716   1.101   0.684  0.5133  0.0384  0.2227
 5024TIP3    H115078   2.641   1.159   0.696  0.8950  0.7354 -0.7045
 5024TIP3    H215079   2.726   1.094   0.590  2.2954  0.8643  0.3154
 5025TIP3   OH215080   3.385   0.670   3.242  0.0674  0.0214 -0.6120
 5025TIP3    H115081   3.412   0.580   3.223 -1.4824 -0.6983  0.4152
 5025TIP3    H215082   3.314   0.661   3.305  1.2870  2.0463  1.1923
 5026TIP3   OH215083   2.769   4.371   3.733 -0.0764 -0.2289  0.1868
 5026TIP3    H115084   2.728   4.377   3.647 -0.1120  0.7184  0.2590
 5026TIP3    H215085   2.862   4.382   3.717 -0.2169  1.5856  0.4076
 5027TIP3   OH215086   5.099   1.997   4.473  0.5251  0.4721  0.4966
 5027TIP3    H115087   5.015   2.011   4.516  1.2291  0.0163  2.0809
 5027TIP3    H215088   5.121   1.906   4.492  1.2787  0.5255 -0.0845
 5028TIP3   OH215089   4.951   3.957   2.074 -0.3942  0.4229  0.0649
 5028TIP3    H115090   4.994   4.027   2.026 -4.2230  1.6291 -2.0020
 5028TIP3    H215091   4.938   3.993   2.162 -1.8545  2.2255 -0.8197
 5029TIP3   OH215092   1.907   3.715   1.977 -0.3818  0.4577 -0.6037
 5029TIP3    H115093   1.948   3.770   1.911 -1.2241  2.4449  0.4422
 5029TIP3    H215094   1.859   3.649   1.927 -1.9161  2.5597 -2.0489
 5030TIP3   OH215095   3.303   4.510   3.056 -0.3919 -0.2059 -0.1334
 5030TIP3    H115096   3.219   4.478   3.090 -1.5059  1.3928 -1.2682
 5030TIP3    H215097   3.342   4.557   3.130 -0.3983 -1.0937  0.4488
 5031TIP3   OH215098   5.840   5.337   4.741  0.6092 -0.0595  0.4665
 5031TIP3    H115099   5.921   5.328   4.691 -0.1887 -1.8694 -0.6088
 5031TIP3    H215100   5.838   5.260   4.798 -0.7288 -0.5166 -0.1556
 5032TIP3   OH215101   1.782   3.998   1.693  0.0694  0.2251 -0.5014
 5032TIP3    H115102   1.725   4.059   1.646 -0.1929  0.0475 -0.4179
 5032TIP3    H215103   1.861   4.047   1.710 -0.2530  0.6354 -0.1813
 5033TIP3   OH215104   2.246   0.451   1.040 -0.0408  0.2623  0.0170
 5033TIP3    H115105   2.315   0.455   0.974  0.4670  0.7422  0.5630
 5033TIP3    H215106   2.286   0.488   1.119  0.1239 -2.3709  1.2772
 5034TIP3   OH215107   3.133   0.529   2.225 -0.1900  0.2653 -0.4136
 5034TIP3    H115108   3.056   0.475   2.208 -1.2646  1.4202  0.5685
 5034TIP3    H215109   3.203   0.466   2.242 -0.9838 -0.8091 -0.9595
 5035TIP3   OH215110   2.908   2.265   1.685  0.7297 -0.4123  0.2027
 5035TIP3    H115111   2.924   2.319   1.607 -1.7520  1.0702  0.6140
 5035TIP3    H215112   2.894   2.177   1.651  3.2569 -0.5988 -0.6229
 5036TIP3   OH215113   5.630   0.648   1.273  0.5246 -0.0872  0.3521
 5036TIP3    H115114   5.626   0.668   1.180  0.8305 -0.4305  0.2631
 5036TIP3    H215115   5.665   0.559   1.278  0.6260 -0.0292  0.7967
 5037TIP3   OH215116   5.925   0.171   4.152  0.3943 -0.8605 -0.3722
 5037TIP3    H115117   5.857   0.212   4.206 -1.6225 -2.1003 -1.8544
 5037TIP3    H215118   5.911   0.077   4.163  1.9311 -1.1622 -0.7046
 5038TIP3   OH215119   2.193   4.327   1.201  0.2280 -0.0760 -0.8168
 5038TIP3    H115120   2.131   4.400   1.200  0.7001  0.3281 -0.8133
 5038TIP3    H215121   2.158   4.265   1.137  0.4708  0.7049 -1.7394
 5039TIP3   OH215122   4.502   0.469   4.819  0.2585  0.0533 -0.6363
 5039TIP3    H115123   4.543   0.467   4.905 -0.4039  0.3748 -0.3048
 5039TIP3    H215124   4.571   0.496   4.759  0.7108 -0.1292 -0.1997
 5040TIP3   OH215125   4.371   1.136   2.427  0.1511  0.1014 -0.4903
 5040TIP3    H115126   4.345   1.120   2.336 -0.0741  0.9168 -0.5807
 5040TIP3    H215127   4.335   1.223   2.446  0.7584  0.2081  0.1716
 5041TIP3   OH215128   6.357   1.162   3.660 -0.0542  0.2059 -0.0528
 5041TIP3    H115129   6.355   1.111   3.579 -1.0089  0.0282  0.0636
 5041TIP3    H215130   6.273   1.208   3.661  0.1790  0.6248  0.5688
 5042TIP3   OH215131   5.705   2.005   1.457 -0.5157  0.3530 -0.4110
 5042TIP3    H115132   5.678   1.915   1.438 -0.3055  0.3244 -0.5882
 5042TIP3    H215133   5.693   2.015   1.552 -0.3745  0.0784 -0.3626
 5043TIP3   OH215134   4.087   0.027   4.547 -0.4749 -0.1173  0.3674
 5043TIP3    H115135   4.088   0.089   4.620 -0.2406 -1.6863  1.7528
 5043TIP3    H215136   4.174  -0.013   4.549  0.2413  1.1554 -2.0228
 5044TIP3   OH215137   0.317   0.450   3.757  0.1964  0.1039  0.2681
 5044TIP3    H115138   0.290   0.536   3.726 -0.6945 -0.4959 -0.6487
 5044TIP3    H215139   0.235   0.403   3.773  0.6691 -0.4678  1.1048
 5045TIP3   OH215140   6.183   0.877   3.673 -0.0023 -0.2028  0.9259
 5045TIP3    H115141   6.171   0.824   3.751 -0.2968 -0.6015  0.6127
 5045TIP3    H215142   6.142   0.961   3.694 -0.8077 -0.5867  0.9072
 5046TIP3   OH215143   1.400   3.208   2.790  0.2111 -0.0346 -0.1912
 5046TIP3    H115144   1.480   3.173   2.829  0.1673 -1.2374 -1.1231
 5046TIP3    H215145   1.331   3.184   2.852  0.1815 -1.6817 -0.7952
 5047TIP3   OH215146   2.169   4.557   1.747  0.1989 -0.0222 -0.6241
 5047TIP3    H115147   2.122   4.606   1.815  0.6320 -0.3788 -0.0616
 5047TIP3    H215148   2.119   4.476   1.737 -0.9535  0.8136 -2.0892
 5048TIP3   OH215149   0.140   0.384   2.093  0.2583 -0.2550  0.1359
 5048TIP3    H115150   0.208   0.412   2.032 -1.1849  1.2174 -0.8670
 5048TIP3    H215151   0.110   0.465   2.134 -0.4782 -0.9515  1.0276
 5049TIP3   OH215152   5.254   4.540   1.354 -0.3543  0.1957 -0.3333
 5049TIP3    H115153   5.171   4.540   1.402 -0.6204 -3.4550 -0.5673
 5049TIP3    H215154   5.261   4.453   1.317  2.5232  1.1300 -2.3365
 5050TIP3   OH215155   6.291   5.230   0.868  0.3250  0.6268 -0.4564
 5050TIP3    H115156   6.237   5.249   0.945  0.9139  0.9872 -0.1285
 5050TIP3    H215157   6.241   5.269   0.795 -0.1477  0.4399 -0.2400
 5051TIP3   OH215158   5.471   5.137   0.008  0.0014 -0.4083  0.1248
 5051TIP3    H115159   5.514   5.055  -0.016 -0.4502 -0.5174 -0.3263
 5051TIP3    H215160   5.403   5.111   0.070 -0.5684 -0.4588 -0.5170
 5052TIP3   OH215161   1.836   5.435   1.357 -0.0348 -0.4862  0.0404
 5052TIP3    H115162   1.783   5.358   1.337 -0.0373 -0.9568  1.7247
 5052TIP3    H215163   1.889   5.449   1.278 -2.5718 -0.0091 -1.7036
 5053TIP3   OH215164   2.462   0.838   3.328  0.8330 -0.5478  0.2893
 5053TIP3    H115165   2.438   0.807   3.415 -0.7511  0.8714  0.4389
 5053TIP3    H215166   2.506   0.922   3.344  1.5891 -0.8414 -0.2301
 5054TIP3   OH215167   5.042   4.209   2.032  0.2239  0.1988  0.3099
 5054TIP3    H115168   5.124   4.171   2.000 -0.7293 -2.2057  0.4773
 5054TIP3    H215169   5.067   4.295   2.065  2.5832 -0.2548 -0.0751
 5055TIP3   OH215170   0.149   5.740   2.005  0.4573  0.5508 -0.1048
 5055TIP3    H115171   0.197   5.791   2.070 -0.7444  0.0862  1.2189
 5055TIP3    H215172   0.131   5.802   1.934  1.3930  1.2114  0.2179
 5056TIP3   OH215173   3.822   0.168   0.370  0.0150 -0.1445  0.3008
 5056TIP3    H115174   3.846   0.260   0.381 -0.8053  0.2481 -1.0136
 5056TIP3    H215175   3.898   0.120   0.404  0.5221  1.0045  0.8620
 5057TIP3   OH215176   6.115   1.995   4.980  0.2812 -0.2620 -0.3994
 5057TIP3    H115177   6.153   1.936   4.915 -2.0989 -1.0805 -1.1279
 5057TIP3    H215178   6.130   2.083   4.943  0.9459 -0.5882 -0.9294
 5058TIP3   OH215179   5.238   5.714   5.204 -0.5072 -0.3237  0.0114
 5058TIP3    H115180   5.260   5.807   5.194 -0.8381 -0.1954  0.4512
 5058TIP3    H215181   5.203   5.688   5.119 -1.0310  0.1258  0.0883
 5059TIP3   OH215182   3.781   0.019   2.350  0.3982  0.1939 -0.2922
 5059TIP3    H115183   3.798   0.109   2.322 -0.9492  0.8775  0.9874
 5059TIP3    H215184   3.852  -0.000   2.411  0.6879  0.3655 -0.5665
 5060TIP3   OH215185   2.572   4.039   2.110 -0.0176 -0.1566 -0.0610
 5060TIP3    H115186   2.523   4.036   2.028 -1.5658  1.4748  0.7482
 5060TIP3    H215187   2.521   3.984   2.170  0.7169 -0.7501  0.0435
 5061TIP3   OH215188   3.219   1.416   0.402 -0.7419  0.0081  0.2296
 5061TIP3    H115189   3.282   1.348   0.378 -1.4354 -0.4619 -0.2818
 5061TIP3    H215190   3.140   1.394   0.354 -1.5427  0.1758  1.4265
 5062TIP3   OH215191   5.209   2.743   3.264 -0.1434  0.4128 -0.4029
 5062TIP3    H115192   5.255   2.684   3.324 -0.5423 -0.2411 -0.7288
 5062TIP3    H215193   5.271   2.758   3.193 -0.0193  0.4323 -0.2911
 5063TIP3   OH215194   2.766   1.347   3.987  0.7357 -0.4203  0.0691
 5063TIP3    H115195   2.788   1.256   3.967  0.6826 -0.1709 -1.1976
 5063TIP3    H215196   2.790   1.395   3.908 -0.2679  0.5110  0.3144
 5064TIP3   OH215197   2.654   5.353   4.261  0.3287  0.1029  0.6916
 5064TIP3    H115198   2.695   5.267   4.256  1.0613  0.2857  2.7985
 5064TIP3    H215199   2.693   5.402   4.188  0.0500 -1.2588 -0.4011
 5065TIP3   OH215200   2.874   1.664   4.737  0.0795  0.6211 -0.2556
 5065TIP3    H115201   2.935   1.727   4.699  0.5349  0.5000  0.2480
 5065TIP3    H215202   2.863   1.597   4.670  2.4539 -0.6552  0.5021
 5066TIP3   OH215203   0.066   5.075   3.588  0.3723  0.2325 -0.4044
 5066TIP3    H115204   0.094   5.025   3.511  0.6800 -1.2545  0.6320
 5066TIP3    H215205   0.147   5.088   3.637 -0.2772 -2.0098  1.4348
 5067TIP3   OH215206   4.379   3.170   1.493 -0.6236 -0.3915  0.6683
 5067TIP3    H115207   4.324   3.096   1.515  0.5624 -1.4913  0.0815
 5067TIP3    H215208   4.413   3.201   1.577 -0.4593 -1.0683  0.8579
 5068TIP3   OH215209   1.874   1.953   3.449  0.2245 -0.7419 -0.7247
 5068TIP3    H115210   1.787   1.974   3.484  0.3496 -2.3945  0.7373
 5068TIP3    H215211   1.859   1.880   3.390  0.6417 -1.2546 -0.2084
 5069TIP3   OH215212   3.577   4.350   2.219  0.5388  0.4531  0.0251
 5069TIP3    H115213   3.660   4.318   2.255 -0.4834 -0.9151  1.2945
 5069TIP3    H215214   3.541   4.275   2.171 -0.4022  0.7373  0.2712
 5070TIP3   OH215215   5.610   4.523   2.342 -0.1796  0.2666  0.0922
 5070TIP3    H115216   5.547   4.457   2.371 -1.1285  0.5432 -1.2474
 5070TIP3    H215217   5.692   4.499   2.386 -0.9107 -0.8230  0.9073
 5071TIP3   OH215218   3.603   5.325   5.140 -0.4872  0.0492  0.3196
 5071TIP3    H115219   3.545   5.250   5.152 -1.1214  0.5300  0.3021
 5071TIP3    H215220   3.544   5.399   5.130 -0.1522 -0.0126 -4.4302
 5072TIP3   OH215221   5.531   2.629   0.667  0.4292  0.0629  0.2129
 5072TIP3    H115222   5.528   2.554   0.726  2.0459 -0.7230 -0.6427
 5072TIP3    H215223   5.476   2.695   0.710 -0.3361 -1.2835  1.4112
 5073TIP3   OH215224   2.961   4.689   2.692 -0.0795 -0.3024  0.1461
 5073TIP3    H115225   2.924   4.743   2.761  0.1974  0.3100 -0.1699
 5073TIP3    H215226   3.039   4.737   2.664 -0.3762 -0.3656 -0.8203
 5074TIP3   OH215227   1.146   2.752   1.806  0.4842 -0.2536  0.0846
 5074TIP3    H115228   1.158   2.794   1.891 -1.2045  1.9767 -0.6498
 5074TIP3    H215229   1.069   2.697   1.817  0.4940 -0.2607  0.1171
 5075TIP3   OH215230   4.571   5.502   3.030  0.3389  0.3264  0.3516
 5075TIP3    H115231   4.598   5.594   3.029  1.1194  0.1096 -0.3674
 5075TIP3    H215232   4.590   5.471   2.941 -2.8871  0.2801 -0.4498
 5076TIP3   OH215233   2.446   1.906   2.599 -0.0072 -0.4661  0.2523
 5076TIP3    H115234   2.411   1.824   2.563  0.0880 -0.0848 -0.7326
 5076TIP3    H215235   2.369   1.958   2.620 -0.1063  0.4555 -2.1061
 5077TIP3   OH215236   4.042   5.111   3.877 -0.2247  0.1213  0.3539
 5077TIP3    H115237   4.096   5.137   3.952 -2.2947  1.8988  1.3330
 5077TIP3    H215238   3.978   5.051   3.914 -0.9334  0.5965 -0.0745
 5078TIP3   OH215239   3.500   1.193   3.277  0.0534 -0.2147 -0.1618
 5078TIP3    H115240   3.531   1.103   3.289  0.2475  0.1067  2.1888
 5078TIP3    H215241   3.418   1.185   3.228 -0.8606 -1.8432  1.5383
 5079TIP3   OH215242   3.648   2.168   1.421 -0.2011 -0.8118  0.1769
 5079TIP3    H115243   3.706   2.114   1.475  0.5214  0.5856  0.8670
 5079TIP3    H215244   3.563   2.162   1.464  0.6970  1.6080  2.6385
 5080TIP3   OH215245   2.369   0.190   1.196 -0.0044  0.1697 -1.0150
 5080TIP3    H115246   2.345   0.146   1.114  0.0073  0.2899 -1.0839
 5080TIP3    H215247   2.347   0.282   1.181 -2.1173 -0.1224 -0.0834
 5081TIP3   OH215248   5.125   3.559   3.142 -0.7128  0.0914  0.5174
 5081TIP3    H115249   5.101   3.633   3.198 -2.7414 -1.2895  1.5717
 5081TIP3    H215250   5.166   3.496   3.201 -1.5350 -0.7679  0.1993
 5082TIP3   OH215251   3.727   5.848   4.182  0.4054  0.0590 -0.1093
 5082TIP3    H115252   3.747   5.790   4.109  0.2909 -0.2906  0.1302
 5082TIP3    H215253   3.802   5.839   4.241 -0.5641 -1.5099  0.9493
 5083TIP3   OH215254   3.019   2.484   2.418  0.2963 -0.3973 -0.2773
 5083TIP3    H115255   2.985   2.418   2.358  1.2653  0.6107 -1.9942
 5083TIP3    H215256   3.079   2.536   2.366  1.5197  0.2779  1.6830
 5084TIP3   OH215257   5.618   0.497   2.455 -0.1901  0.0521  0.0099
 5084TIP3    H115258   5.655   0.422   2.501  0.2429  0.4683  0.3554
 5084TIP3    H215259   5.694   0.540   2.414 -0.7064 -1.1267 -2.3530
 5085TIP3   OH215260   4.629   3.682   0.347  0.2706  0.0112 -0.4639
 5085TIP3    H115261   4.566   3.739   0.391 -0.0825 -0.8317  0.1579
 5085TIP3    H215262   4.663   3.734   0.275 -1.1504  0.4843 -0.8251
 5086TIP3   OH215263   5.124   0.442   2.273  0.0368  0.1426  0.1866
 5086TIP3    H115264   5.124   0.374   2.206  0.3970  0.4528 -0.1347
 5086TIP3    H215265   5.216   0.458   2.291 -0.0573  0.1947  0.6183
 5087TIP3   OH215266   2.447   1.525   0.434  0.6924  0.1981 -0.0163
 5087TIP3    H115267   2.430   1.432   0.449  1.3076  0.1123  0.1709
 5087TIP3    H215268   2.438   1.566   0.520 -0.8626  0.5270 -0.3165
 5088TIP3   OH215269   3.414   0.340   0.198 -0.6784  0.0682  0.0036
 5088TIP3    H115270   3.334   0.378   0.161 -0.4211  0.3688 -0.2526
 5088TIP3    H215271   3.400   0.245   0.193 -0.7564  0.1060 -0.6352
 5089TIP3   OH215272   3.520   4.596   0.404  0.2443 -0.2158  0.8455
 5089TIP3    H115273   3.595   4.632   0.358  0.1446 -0.6501  0.3305
 5089TIP3    H215274   3.449   4.657   0.386  0.3709 -0.0244  0.9897
 5090TIP3   OH215275   4.263   0.225   2.946  0.3239  0.7435  0.5117
 5090TIP3    H115276   4.196   0.208   2.879  1.5813 -0.6871 -0.4559
 5090TIP3    H215277   4.213   0.236   3.027 -1.1668  1.2129 -0.4243
 5091TIP3   OH215278   5.539   5.755   2.242 -0.2110  0.3707  0.0316
 5091TIP3    H115279   5.521   5.839   2.199  1.1885  1.1735  0.9671
 5091TIP3    H215280   5.633   5.742   2.232 -0.2687 -0.6789  0.6633
 5092TIP3   OH215281   0.131   2.383   1.006 -0.5519 -0.1048 -0.5849
 5092TIP3    H115282   0.115   2.406   0.914  0.3086 -0.8465 -0.9357
 5092TIP3    H215283   0.209   2.328   1.003 -0.2456  0.2473  0.6497
 5093TIP3   OH215284   5.451   3.351   2.970  0.0841 -0.4825  0.1637
 5093TIP3    H115285   5.490   3.432   2.936  1.4597 -1.6995 -1.2791
 5093TIP3    H215286   5.382   3.330   2.907 -1.1408  0.2183  1.2380
 5094TIP3   OH215287   5.774   3.851   2.313  0.0925  0.2855 -0.1983
 5094TIP3    H115288   5.776   3.880   2.404  0.6061  0.1975 -0.1753
 5094TIP3    H215289   5.841   3.905   2.269 -0.9302  1.1175 -0.7743
 5095TIP3   OH215290   4.828   3.711   5.078  0.1553 -0.1713 -0.4633
 5095TIP3    H115291   4.829   3.797   5.036  0.1743  0.5240  0.9247
 5095TIP3    H215292   4.747   3.670   5.046 -0.5871  0.9236 -0.0494
 5096TIP3   OH215293   6.274   3.827   3.416  0.3731 -0.0616 -0.1829
 5096TIP3    H115294   6.186   3.840   3.451  0.3937 -1.7416  0.5692
 5096TIP3    H215295   6.331   3.831   3.493  0.8463  0.0556 -0.5381
 5097TIP3   OH215296   2.240   4.002   4.349  0.4494  0.0586 -0.1961
 5097TIP3    H115297   2.191   4.018   4.429  1.5036  0.0293  0.4655
 5097TIP3    H215298   2.308   4.070   4.348 -0.2899  0.8482 -1.7012
 5098TIP3   OH215299   3.958   1.232   1.766 -0.2193  0.1182  0.9651
 5098TIP3    H115300   4.000   1.154   1.801 -0.1465  0.6571  2.1183
 5098TIP3    H215301   3.887   1.198   1.711  1.2714 -0.7776 -0.4837
 5099TIP3   OH215302   2.788   2.885   3.883  0.4130  0.1624 -0.1982
 5099TIP3    H115303   2.819   2.975   3.869  0.5186  0.3673  1.2149
 5099TIP3    H215304   2.867   2.831   3.873  0.4685  0.2799 -0.4156
 5100TIP3   OH215305   2.302   2.509   4.942 -0.8074 -0.0886 -0.2399
 5100TIP3    H115306   2.318   2.569   5.014 -1.8596 -0.6279  0.4816
 5100TIP3    H215307   2.380   2.514   4.888 -0.3842  1.0197  0.4444
 5101TIP3   OH215308   0.179   5.394   3.944 -0.1251 -0.1388 -1.0275
 5101TIP3    H115309   0.110   5.461   3.942 -0.6260 -0.6000 -0.0363
 5101TIP3    H215310   0.260   5.444   3.959 -0.5558  0.2362  0.2425
 5102TIP3   OH215311   1.893   0.087   2.936 -0.8700 -0.3113 -0.1260
 5102TIP3    H115312   1.949   0.014   2.961 -0.0304  0.3721  0.0412
 5102TIP3    H215313   1.811   0.046   2.907 -0.5261 -1.2918  0.2492
 5103TIP3   OH215314   2.793   1.270   1.443 -0.1318  0.4764  0.1148
 5103TIP3    H115315   2.713   1.310   1.477  0.1205  0.6737  0.4745
 5103TIP3    H215316   2.785   1.177   1.464 -0.2937  0.4858  0.0951
 5104TIP3   OH215317   2.126   2.999   2.552  0.0263 -0.1076  0.7378
 5104TIP3    H115318   2.141   2.942   2.477  2.2491 -0.6663  1.5117
 5104TIP3    H215319   2.117   3.087   2.514  0.3137 -0.4870 -0.2391
 5105TIP3   OH215320   5.261   3.089   1.104  0.1120  0.1126 -0.6552
 5105TIP3    H115321   5.254   3.099   1.010  0.8636 -0.4243 -0.7758
 5105TIP3    H215322   5.171   3.078   1.134 -0.2617  1.5632 -1.1432
 5106TIP3   OH215323   3.747   3.642   4.287  0.2420 -0.0715  0.0629
 5106TIP3    H115324   3.790   3.691   4.357  0.9296  0.6709 -0.8451
 5106TIP3    H215325   3.745   3.551   4.318  0.8680  0.1820  0.8766
 5107TIP3   OH215326   4.525   5.927   0.697 -0.1733  0.2096 -0.0575
 5107TIP3    H115327   4.522   5.948   0.604 -0.5569  0.3471 -0.0177
 5107TIP3    H215328   4.433   5.911   0.721  0.0924 -1.4815 -0.0709
 5108TIP3   OH215329   5.277   2.924   0.167 -0.4317 -0.7412  0.1120
 5108TIP3    H115330   5.332   2.874   0.107  2.1155 -0.6639  2.2301
 5108TIP3    H215331   5.209   2.862   0.195  0.7880 -2.0670  0.2557
 5109TIP3   OH215332   4.290   0.253   0.653 -0.7401 -0.0091  0.2467
 5109TIP3    H115333   4.229   0.225   0.586  0.4378  0.6146 -1.1305
 5109TIP3    H215334   4.374   0.262   0.608  0.0720  0.5288  1.7711
 5110TIP3   OH215335   6.131   4.312   3.261  0.2230  0.0527  0.2264
 5110TIP3    H115336   6.061   4.340   3.320 -0.0599 -1.2474  0.5437
 5110TIP3    H215337   6.198   4.276   3.319  1.5355  1.9655 -0.0144
 5111TIP3   OH215338   5.254   2.063   2.185  0.0843 -0.3696  0.1336
 5111TIP3    H115339   5.274   1.983   2.137  0.9167  0.0649 -0.2462
 5111TIP3    H215340   5.283   2.045   2.274  0.1125 -0.5460  0.0891
 5112TIP3   OH215341   2.779   0.423   0.311 -0.5057  0.2951  0.1219
 5112TIP3    H115342   2.779   0.467   0.226  0.5312  1.9441  0.9152
 5112TIP3    H215343   2.847   0.355   0.303  0.8700  1.6087  0.1389
 5113TIP3   OH215344   2.326   4.215   0.870  0.0676  0.4242 -0.6869
 5113TIP3    H115345   2.249   4.272   0.872  0.5951  1.2293 -2.0875
 5113TIP3    H215346   2.292   4.129   0.897 -1.2894  0.8088 -1.0900
 5114TIP3   OH215347   0.148   2.385   1.849  0.0517 -0.2509 -0.2609
 5114TIP3    H115348   0.199   2.312   1.886 -3.5838 -2.7594  0.2855
 5114TIP3    H215349   0.164   2.380   1.755 -0.2949 -1.9429 -0.2603
 5115TIP3   OH215350   4.914   2.109   2.302 -0.0377 -0.0614  0.1451
 5115TIP3    H115351   4.901   2.126   2.208 -2.2374  1.2711  0.6036
 5115TIP3    H215352   4.941   2.194   2.337 -1.2864 -0.0086  1.0156
 5116TIP3   OH215353   5.783   5.857   4.137 -0.0896 -0.0109 -0.1873
 5116TIP3    H115354   5.820   5.911   4.067 -0.9044  1.9846  0.8548
 5116TIP3    H215355   5.689   5.856   4.119 -0.1181 -0.8693 -0.0307
 5117TIP3   OH215356   4.710   2.132   3.466 -0.1760  0.3259  0.0412
 5117TIP3    H115357   4.751   2.140   3.551  0.4237 -2.6133  0.1266
 5117TIP3    H215358   4.782   2.137   3.403 -0.2916 -0.0397 -0.1233
 5118TIP3   OH215359   5.613   2.482   1.355  0.0109  0.1013 -0.2040
 5118TIP3    H115360   5.652   2.569   1.357  1.8203 -0.6621 -0.7884
 5118TIP3    H215361   5.558   2.483   1.277 -1.4548  1.2785  0.7808
 5119TIP3   OH215362   3.683   2.211   4.774  0.8250  0.4753 -0.6775
 5119TIP3    H115363   3.681   2.169   4.859  0.4691 -0.4146 -1.1156
 5119TIP3    H215364   3.775   2.207   4.747  1.4264  2.9335  0.6866
 5120TIP3   OH215365   5.182   2.228   1.598 -0.4015 -0.0208 -0.2699
 5120TIP3    H115366   5.215   2.254   1.513 -1.7369  0.3362 -0.7096
 5120TIP3    H215367   5.260   2.213   1.651  0.4486  1.4721 -1.0388
 5121TIP3   OH215368   4.447   3.681   4.859 -0.2074 -0.1621  0.2892
 5121TIP3    H115369   4.429   3.727   4.941 -0.5795 -2.3214  1.5149
 5121TIP3    H215370   4.518   3.620   4.881  1.2559  0.7353 -1.6293
 5122TIP3   OH215371   4.004   4.012   2.340 -0.8557  0.2883 -0.5673
 5122TIP3    H115372   4.040   3.962   2.267 -0.3412 -0.9529  0.5011
 5122TIP3    H215373   4.071   4.005   2.409 -0.7186  2.5304 -0.3952
 5123TIP3   OH215374   2.669   2.695   4.549 -0.3918  0.4433 -0.5857
 5123TIP3    H115375   2.744   2.645   4.517 -1.5841 -0.4285 -2.1582
 5123TIP3    H215376   2.702   2.784   4.559  0.9209  0.0245 -0.9873
 5124TIP3   OH215377   5.825   2.397   3.313  0.2210  0.1677  0.0752
 5124TIP3    H115378   5.737   2.405   3.351 -0.0785 -0.6008 -0.4234
 5124TIP3    H215379   5.817   2.327   3.249  1.3579 -0.3651  0.4806
 5125TIP3   OH215380   6.145   3.692   3.807 -0.0162  0.1419  0.0979
 5125TIP3    H115381   6.216   3.648   3.760 -0.2575  1.9799 -2.2041
 5125TIP3    H215382   6.101   3.622   3.855  0.1760 -2.0061 -2.5752
 5126TIP3   OH215383   0.995   5.948   2.059  0.2218  0.0048 -0.1557
 5126TIP3    H115384   1.073   5.958   2.005 -0.4465  0.1776 -1.1160
 5126TIP3    H215385   1.000   6.019   2.123  1.2068 -0.4195  0.2476
 5127TIP3   OH215386   5.545   3.029   3.905 -0.3696 -0.3350 -0.0772
 5127TIP3    H115387   5.598   3.057   3.979 -0.5324  0.6153 -0.3162
 5127TIP3    H215388   5.460   3.009   3.942 -0.5335  0.4075 -0.0463
 5128TIP3   OH215389   5.639   5.431   5.080 -0.1962  0.2959  0.4324
 5128TIP3    H115390   5.648   5.357   5.021  1.1472  0.1937  0.7331
 5128TIP3    H215391   5.554   5.418   5.123 -0.2650 -0.7110  0.0073
 5129TIP3   OH215392   0.822   5.196   1.481 -0.4451  0.1976  0.2570
 5129TIP3    H115393   0.750   5.224   1.426 -0.9282 -0.7906  0.3690
 5129TIP3    H215394   0.781   5.162   1.560  0.1881  0.4946  0.7279
 5130TIP3   OH215395   1.730   4.989   2.325 -0.3897 -0.4616 -0.3493
 5130TIP3    H115396   1.707   4.904   2.288  0.2213 -0.3284 -1.0731
 5130TIP3    H215397   1.702   5.052   2.259 -3.0792  0.1322  1.2095
 5131TIP3   OH215398   3.730   2.252   3.320  0.2111 -0.5221  0.3486
 5131TIP3    H115399   3.772   2.262   3.235  0.0503 -3.2541 -0.1157
 5131TIP3    H215400   3.638   2.273   3.304  0.3823  0.0911  0.1302
 5132TIP3   OH215401   0.945   2.482   2.161 -0.0280 -0.0907 -0.3595
 5132TIP3    H115402   0.862   2.525   2.138  0.2799 -0.2000 -1.8028
 5132TIP3    H215403   0.932   2.390   2.137  0.3140 -0.2232 -0.0476
 5133TIP3   OH215404   2.941   3.736   1.144 -0.2537 -0.5705 -0.1533
 5133TIP3    H115405   3.023   3.738   1.094 -0.0293 -1.7090  0.1286
 5133TIP3    H215406   2.917   3.828   1.154  1.6264 -0.1157  0.7615
 5134TIP3   OH215407   1.906   0.176   2.173  0.3058 -0.3790  0.2769
 5134TIP3    H115408   1.847   0.241   2.135  0.8930  1.8596  2.8757
 5134TIP3    H215409   1.974   0.164   2.107 -1.1279 -0.3074 -1.2858
 5135TIP3   OH215410   6.270   3.154   4.513 -0.4628  0.3371  0.0669
 5135TIP3    H115411   6.263   3.242   4.550 -0.9090  0.4843 -0.3588
 5135TIP3    H215412   6.333   3.163   4.442 -0.0399  0.1740  0.4111
 5136TIP3   OH215413   2.049   2.023   4.175  0.3488  0.0037  0.1340
 5136TIP3    H115414   2.124   2.069   4.136  1.3308 -1.6258  0.0177
 5136TIP3    H215415   2.000   1.989   4.100  1.0270 -1.2548  0.2344
 5137TIP3   OH215416   4.162   4.413   4.568 -0.1037 -0.1823 -0.8340
 5137TIP3    H115417   4.122   4.406   4.654 -0.4641  0.2645 -0.9605
 5137TIP3    H215418   4.135   4.499   4.536  2.1304  0.7789 -0.3288
 5138TIP3   OH215419   2.656   5.862   0.831  0.2242  0.3375 -0.6318
 5138TIP3    H115420   2.569   5.870   0.791  0.3543  0.3124 -0.9251
 5138TIP3    H215421   2.683   5.952   0.849 -0.2223  0.3001  0.2504
 5139TIP3   OH215422   4.211   0.058   1.611  0.0539 -0.1628  0.2530
 5139TIP3    H115423   4.286   0.044   1.553 -2.0029 -0.5758 -2.5055
 5139TIP3    H215424   4.185  -0.030   1.638  0.2909 -0.0476  0.8734
 5140TIP3   OH215425   1.178   5.452   2.274  0.5334 -0.4054  0.2922
 5140TIP3    H115426   1.110   5.418   2.331  0.6778 -2.0281 -0.4350
 5140TIP3    H215427   1.133   5.472   2.192  0.8665 -1.2459 -0.1079
 5141TIP3   OH215428   2.276   0.962   4.084  0.6521 -0.8562 -0.2975
 5141TIP3    H115429   2.308   1.009   4.006 -1.1626 -0.1127 -0.6517
 5141TIP3    H215430   2.210   0.902   4.050 -1.2570  0.5320  0.7690
 5142TIP3   OH215431   5.060   0.105   3.575 -0.2902  0.0889 -0.2263
 5142TIP3    H115432   5.097   0.136   3.658  0.0701  1.1557 -0.7713
 5142TIP3    H215433   5.025   0.184   3.534 -2.5445 -0.7647 -0.0661
 5143TIP3   OH215434   1.075   5.122   1.539  0.4875  0.1355 -0.2841
 5143TIP3    H115435   1.070   5.126   1.634  1.3739  2.5974 -0.2743
 5143TIP3    H215436   0.986   5.144   1.510  1.2252  4.2063  0.0453
 5144TIP3   OH215437   3.432   4.260   2.967 -0.4669 -0.0328  0.2471
 5144TIP3    H115438   3.464   4.286   2.880 -1.0447 -1.7646 -0.5418
 5144TIP3    H215439   3.398   4.340   3.005 -0.0963  0.7985 -1.0778
 5145TIP3   OH215440   4.244   1.420   1.817  0.6029 -0.3789 -1.0005
 5145TIP3    H115441   4.243   1.352   1.750  0.0235 -0.6221 -0.7519
 5145TIP3    H215442   4.258   1.373   1.899 -0.5690 -0.2901 -0.7351
 5146TIP3   OH215443   4.762   5.083   1.833 -0.3004  0.0518  0.4192
 5146TIP3    H115444   4.744   5.128   1.915  3.0773  2.5175  0.0321
 5146TIP3    H215445   4.858   5.079   1.828 -0.3895 -1.4971 -2.6347
 5147TIP3   OH215446   5.125   4.393   1.677  0.3529 -0.4726 -0.3082
 5147TIP3    H115447   5.193   4.342   1.633  0.4334  0.4842 -1.3329
 5147TIP3    H215448   5.087   4.333   1.741  3.2803 -0.5474  1.5191
 5148TIP3   OH215449   3.411   2.601   4.816  0.3129  0.2250 -0.6248
 5148TIP3    H115450   3.484   2.589   4.755 -0.2596 -1.0935 -1.0919
 5148TIP3    H215451   3.436   2.551   4.894 -0.0321 -0.1446 -0.7465
 5149TIP3   OH215452   4.337   5.196   4.436 -0.5584 -0.5383  0.1788
 5149TIP3    H115453   4.400   5.201   4.508 -0.0634 -0.7624 -0.2246
 5149TIP3    H215454   4.360   5.114   4.391 -0.5808 -0.1842 -0.4791
 5150TIP3   OH215455   0.823   5.511   0.091 -0.0878 -0.7047  0.2111
 5150TIP3    H115456   0.875   5.530   0.012 -0.3479 -0.8851 -0.0047
 5150TIP3    H215457   0.773   5.590   0.107 -0.3933 -0.8377 -0.0832
 5151TIP3   OH215458   3.756   5.939   0.359 -0.1978  0.6246 -0.9259
 5151TIP3    H115459   3.777   5.854   0.397  0.4745  1.6490  1.1113
 5151TIP3    H215460   3.686   5.920   0.296 -1.1169 -1.2142  0.5570
 5152TIP3   OH215461   3.680   4.046   2.501  0.0503 -0.3022  0.2230
 5152TIP3    H115462   3.593   4.011   2.521 -0.3368  0.1177 -0.6326
 5152TIP3    H215463   3.723   3.976   2.451 -0.0484 -0.2591  0.0756
 5153TIP3   OH215464   2.290   3.613   4.037 -0.3306 -0.8743 -0.1963
 5153TIP3    H115465   2.281   3.671   4.112  1.0674 -0.1997 -0.5164
 5153TIP3    H215466   2.207   3.566   4.033 -0.0038 -1.8760  2.5572
 5154TIP3   OH215467   5.595   1.134   0.379  0.1831  0.0047  0.6498
 5154TIP3    H115468   5.638   1.165   0.459 -0.5068  2.1611  0.2473
 5154TIP3    H215469   5.644   1.176   0.308 -0.4723 -0.2458  0.0359
 5155TIP3   OH215470   0.248   1.770   2.510 -0.3187 -0.3955 -0.0852
 5155TIP3    H115471   0.256   1.744   2.601  3.0165  1.6187  0.3465
 5155TIP3    H215472   0.231   1.865   2.513  1.8673  0.1077 -1.4627
 5156TIP3   OH215473   2.254   2.566   3.484  0.1508 -0.9847 -0.3271
 5156TIP3    H115474   2.300   2.489   3.451 -0.4616 -1.1764 -0.7537
 5156TIP3    H215475   2.163   2.553   3.458  0.1461  0.1996 -1.0009
 5157TIP3   OH215476   1.710   4.458   3.542 -0.0860  0.4417  0.8458
 5157TIP3    H115477   1.628   4.410   3.530  0.5892 -0.5184 -0.2008
 5157TIP3    H215478   1.778   4.390   3.538  0.9243  1.4643 -0.9961
 5158TIP3   OH215479   5.918   3.798   4.003  0.3711 -0.4216  0.4680
 5158TIP3    H115480   6.012   3.784   3.995  0.7023  2.1438 -1.5087
 5158TIP3    H215481   5.909   3.859   4.076  0.2968 -0.3948  0.4372
 5159TIP3   OH215482   3.393   4.075   3.741 -0.4628 -0.2592 -0.2199
 5159TIP3    H115483   3.426   3.991   3.772  1.1091  0.4226  0.0669
 5159TIP3    H215484   3.471   4.126   3.722 -1.3693  1.3035  0.0453
 5160TIP3   OH215485   1.248   5.653   3.589 -0.2212  0.1456 -0.1883
 5160TIP3    H115486   1.316   5.633   3.653  0.3911 -1.2730 -1.2121
 5160TIP3    H215487   1.283   5.728   3.540  0.2915 -0.1161 -0.2334
 5161TIP3   OH215488   1.251   4.614   2.031  0.4366 -0.2231 -0.1560
 5161TIP3    H115489   1.335   4.570   2.044  0.4656  0.0837  0.8284
 5161TIP3    H215490   1.262   4.699   2.074  0.0042  0.2915 -1.0325
 5162TIP3   OH215491   4.849   0.679   1.319  0.1632  0.4491 -0.2598
 5162TIP3    H115492   4.798   0.662   1.398  0.3621  2.5584  0.3672
 5162TIP3    H215493   4.817   0.614   1.256 -1.2486 -0.1264  0.9895
 5163TIP3   OH215494   1.467   4.070   4.152  0.4361 -0.3673 -0.8289
 5163TIP3    H115495   1.477   4.055   4.246 -1.0069 -0.2299 -0.6245
 5163TIP3    H215496   1.432   3.987   4.118  0.5977 -0.2941 -1.1820
 5164TIP3   OH215497   4.868   3.619   4.288  0.0156 -0.2532  0.1279
 5164TIP3    H115498   4.928   3.640   4.216 -0.8909 -1.4058 -1.0132
 5164TIP3    H215499   4.918   3.563   4.346  0.4145 -0.2308 -0.1871
 5165TIP3   OH215500   2.835   5.827   2.954 -0.2868  0.0360  0.4042
 5165TIP3    H115501   2.928   5.850   2.956 -0.1700 -0.5240  1.8601
 5165TIP3    H215502   2.807   5.851   2.865  1.3511 -0.2424 -0.2187
 5166TIP3   OH215503   2.100   4.751   4.893 -0.1105 -0.4818  0.4403
 5166TIP3    H115504   2.068   4.764   4.982 -0.0412  2.3515  0.1446
 5166TIP3    H215505   2.112   4.840   4.859  1.2638 -1.4839 -1.9001
 5167TIP3   OH215506   1.943   4.557   1.926 -0.0532  0.7562 -0.0129
 5167TIP3    H115507   1.854   4.588   1.911 -0.5140  0.4288  1.7411
 5167TIP3    H215508   1.945   4.535   2.020  1.7869  0.4889 -0.0737
 5168TIP3   OH215509   5.090   3.918   1.502  0.2060 -0.8147 -0.1849
 5168TIP3    H115510   5.072   3.826   1.521 -0.3008 -0.5761  0.5503
 5168TIP3    H215511   5.019   3.966   1.544  0.8894 -0.0405  0.1320
 5169TIP3   OH215512   1.330   2.278   2.233  0.1377 -0.7237 -0.0488
 5169TIP3    H115513   1.288   2.194   2.212  1.8766 -1.2262 -1.7941
 5169TIP3    H215514   1.301   2.337   2.164 -0.1550 -0.1902  0.5234
 5170TIP3   OH215515   6.078   0.119   0.191 -0.0149 -0.0340 -0.1301
 5170TIP3    H115516   6.026   0.039   0.196 -1.1074  0.5986 -0.7827
 5170TIP3    H215517   6.068   0.159   0.277 -1.4494  0.5515 -0.5339
 5171TIP3   OH215518   5.198   4.139   0.642 -0.2342  0.2512  0.6627
 5171TIP3    H115519   5.239   4.224   0.626 -1.7119  0.9766  0.6100
 5171TIP3    H215520   5.204   4.127   0.737 -1.7246  1.3475  0.9310
 5172TIP3   OH215521   3.399   1.358   0.050  0.2309 -0.3602  0.3715
 5172TIP3    H115522   3.469   1.400   0.100 -0.4511 -0.8113  1.7548
 5172TIP3    H215523   3.371   1.425  -0.013  0.5376  0.5488  1.1708
 5173TIP3   OH215524   2.273   1.938   4.950  0.0745  0.3195  0.0504
 5173TIP3    H115525   2.319   1.900   4.875 -1.0412 -0.8246 -0.0831
 5173TIP3    H215526   2.291   2.032   4.943  0.9097  0.1071 -1.0060
 5174TIP3   OH215527   2.369   1.280   2.110 -0.2395  0.2185  0.0794
 5174TIP3    H115528   2.273   1.269   2.114 -0.0482 -2.7444 -0.9026
 5174TIP3    H215529   2.396   1.224   2.037  2.5946 -2.3967  2.8131
 5175TIP3   OH215530   0.302   5.139   2.049 -0.3612  0.3120  0.1537
 5175TIP3    H115531   0.232   5.124   2.112  0.2864 -1.6443  0.4919
 5175TIP3    H215532   0.259   5.174   1.972 -1.2102  2.5689  1.5722
 5176TIP3   OH215533   2.867   2.288   2.738 -0.3291  0.1814  0.5951
 5176TIP3    H115534   2.784   2.308   2.781 -0.6678 -1.1449  0.6055
 5176TIP3    H215535   2.928   2.272   2.811 -0.4768 -0.3911  0.6023
 5177TIP3   OH215536   3.961   0.714   3.634  0.2815  0.0210  0.3878
 5177TIP3    H115537   3.995   0.770   3.703  1.2371 -0.8853  0.6820
 5177TIP3    H215538   4.038   0.693   3.581 -0.2153 -0.3182 -0.2049
 5178TIP3   OH215539   5.086   1.940   5.065 -0.0612  0.0489 -0.0335
 5178TIP3    H115540   5.133   1.984   4.994  0.4575  0.1955  0.3867
 5178TIP3    H215541   5.119   1.983   5.144 -0.6546 -0.0918  0.2927
 5179TIP3   OH215542   4.009   1.681   5.050 -0.1570  0.0137  0.5000
 5179TIP3    H115543   4.017   1.750   4.984 -0.1456  0.1342  0.6295
 5179TIP3    H215544   4.099   1.657   5.071 -0.1547  0.2962  0.8132
 5180TIP3   OH215545   2.415   0.163   4.305  0.3194 -0.1876  0.7253
 5180TIP3    H115546   2.343   0.105   4.329 -0.7051  0.2627 -1.1076
 5180TIP3    H215547   2.404   0.240   4.359 -1.2890  0.3522 -0.3136
 5181TIP3   OH215548   5.326   0.078   0.553 -0.4003  0.8597 -0.5686
 5181TIP3    H115549   5.393   0.040   0.610 -0.4449  1.4218 -0.1354
 5181TIP3    H215550   5.243   0.053   0.593 -0.4445  0.7224 -0.7424
 5182TIP3   OH215551   4.817   5.851   0.323  0.3585  0.2314  0.0502
 5182TIP3    H115552   4.793   5.846   0.415 -0.8040 -0.1340 -0.2520
 5182TIP3    H215553   4.810   5.760   0.292 -1.8228  0.6843 -0.9800
 5183TIP3   OH215554   5.825   5.712   0.781  0.7763 -0.1113  0.5564
 5183TIP3    H115555   5.738   5.738   0.812  1.0923 -0.2585  1.5932
 5183TIP3    H215556   5.809   5.672   0.695 -0.1600 -0.0304  0.6823
 5184TIP3   OH215557   0.686   5.430   0.962 -0.6876  0.1194  0.4921
 5184TIP3    H115558   0.623   5.369   0.923  1.7856 -0.5362 -3.0107
 5184TIP3    H215559   0.771   5.391   0.941  0.9536  1.9731  3.2012
 5185TIP3   OH215560   1.757   4.299   2.053  0.1401  0.0927  0.7402
 5185TIP3    H115561   1.726   4.342   1.974 -0.4097  0.2069  1.0128
 5185TIP3    H215562   1.697   4.226   2.067  0.1285  0.1728  1.1426
 5186TIP3   OH215563   3.221   4.455   2.048  1.0639  0.2412  0.0032
 5186TIP3    H115564   3.149   4.514   2.027 -0.1578 -1.3016 -0.2930
 5186TIP3    H215565   3.283   4.466   1.976  0.7228  0.9463 -0.1870
 5187TIP3   OH215566   1.845   1.304   2.108 -0.0255  0.1529  0.4369
 5187TIP3    H115567   1.779   1.237   2.091 -0.7538  0.8430  0.4684
 5187TIP3    H215568   1.856   1.349   2.024 -1.4353  1.6318  0.9876
 5188TIP3   OH215569   4.941   3.157   3.002 -0.1445 -0.2899  0.4532
 5188TIP3    H115570   5.016   3.124   2.953  1.1785  1.2361  1.3554
 5188TIP3    H215571   4.974   3.170   3.091 -0.9502  2.0487  0.4822
 5189TIP3   OH215572   2.888   4.751   0.544  0.1474  0.3071 -0.5002
 5189TIP3    H115573   2.902   4.662   0.515 -1.8151 -0.7529  1.4437
 5189TIP3    H215574   2.899   4.747   0.639  0.3685  2.2154 -0.4087
 5190TIP3   OH215575   0.903   5.710   0.332  0.2554 -0.0419  0.3963
 5190TIP3    H115576   0.914   5.615   0.323  1.1346  0.0949 -0.0770
 5190TIP3    H215577   0.808   5.722   0.340  0.1070 -0.9297  0.1532
 5191TIP3   OH215578   2.255   5.920   2.697 -0.3725  0.3241 -0.0313
 5191TIP3    H115579   2.184   5.978   2.722 -0.3563  0.4623 -0.3065
 5191TIP3    H215580   2.264   5.931   2.603 -0.5025 -0.2740 -0.1186
 5192TIP3   OH215581   0.924   0.087   0.583 -0.1342  0.0053  0.0831
 5192TIP3    H115582   0.934   0.159   0.521  0.1792 -0.0384  0.0788
 5192TIP3    H215583   0.885   0.126   0.660  1.1219  0.4280  0.5308
 5193TIP3   OH215584   3.436   1.027   2.058 -0.3847 -0.0051 -0.1039
 5193TIP3    H115585   3.392   0.981   2.129 -1.6243  0.5485 -0.4702
 5193TIP3    H215586   3.524   1.045   2.090 -0.1523 -1.8336  0.3743
 5194TIP3   OH215587   5.439   3.743   4.377  0.2183  0.3350  0.4245
 5194TIP3    H115588   5.508   3.779   4.322 -1.1490  2.1739 -0.1901
 5194TIP3    H215589   5.456   3.779   4.464  1.0943 -0.7575  0.7206
 5195TIP3   OH215590   4.605   4.508   2.322  0.5611 -0.6345  0.2801
 5195TIP3    H115591   4.698   4.487   2.329  0.9570  1.1437  0.7713
 5195TIP3    H215592   4.577   4.521   2.412  0.1909  0.2717  0.0395
 5196TIP3   OH215593   1.911   4.511   0.937 -0.1720 -0.3482  0.2654
 5196TIP3    H115594   1.884   4.584   0.881  2.5997  1.4385  1.0883
 5196TIP3    H215595   1.857   4.437   0.907 -2.6469  1.8206 -1.0420
 5197TIP3   OH215596   2.224   3.954   2.721  0.4882 -0.2591  0.6393
 5197TIP3    H115597   2.202   4.031   2.668 -0.8724  0.0947  1.6545
 5197TIP3    H215598   2.315   3.966   2.746  0.9433 -0.0830 -1.0002
 5198TIP3   OH215599   4.362   1.024   1.858  0.2206 -0.5945  0.0392
 5198TIP3    H115600   4.375   1.108   1.903  1.6051 -0.5798 -0.3611
 5198TIP3    H215601   4.430   0.967   1.894  0.3265 -1.0569 -0.8716
 5199TIP3   OH215602   0.455   2.778   4.756 -0.2524 -0.1836  0.2884
 5199TIP3    H115603   0.409   2.839   4.815 -0.9518  0.5422 -0.9591
 5199TIP3    H215604   0.539   2.820   4.739  0.0428 -0.5029  0.9273
 5200TIP3   OH215605   1.264   0.303   2.534 -0.2254 -0.2387 -0.6124
 5200TIP3    H115606   1.172   0.277   2.526  0.0742 -1.2220 -1.0510
 5200TIP3    H215607   1.271   0.340   2.622 -0.4116 -2.9603  0.6532
 5201TIP3   OH215608   6.155   2.973   1.147  0.6103  0.1242 -0.1179
 5201TIP3    H115609   6.156   2.907   1.077  0.3763 -0.7621  0.7006
 5201TIP3    H215610   6.243   3.011   1.143  0.4268  0.4743 -1.2487
 5202TIP3   OH215611   3.885   4.667   1.520  0.0777  0.5204  0.5340
 5202TIP3    H115612   3.876   4.584   1.472  0.3721  0.7222  0.1247
 5202TIP3    H215613   3.896   4.732   1.451 -0.2377  0.9110  0.8531
 5203TIP3   OH215614   3.393   5.215   4.958  0.0694 -0.2879  0.9270
 5203TIP3    H115615   3.451   5.148   4.921 -1.7691 -0.9874 -0.8630
 5203TIP3    H215616   3.377   5.186   5.047 -0.4410 -2.1224  0.2871
 5204TIP3   OH215617   1.122   1.971   3.900 -0.3040  0.9894 -0.0608
 5204TIP3    H115618   1.080   1.916   3.966  0.7895  0.4971  0.2467
 5204TIP3    H215619   1.199   2.008   3.945  0.8401  0.1080 -1.2378
 5205TIP3   OH215620   5.558   4.783   3.947 -0.3582 -0.0273 -0.4005
 5205TIP3    H115621   5.591   4.821   3.866 -1.6494  2.1492 -0.0018
 5205TIP3    H215622   5.479   4.735   3.921  0.4304 -1.2109 -0.6922
 5206TIP3   OH215623   3.332   4.879   5.107 -0.0372  0.6925 -0.3577
 5206TIP3    H115624   3.372   4.818   5.170 -1.4681 -1.4121 -1.3734
 5206TIP3    H215625   3.275   4.934   5.161 -0.1020 -0.0761  0.3847
 5207TIP3   OH215626   4.919   5.939   4.037  0.3760  0.0629 -0.5017
 5207TIP3    H115627   4.919   5.868   3.974 -0.8092 -0.2912 -0.1227
 5207TIP3    H215628   4.890   6.016   3.988 -0.3558 -0.1709 -0.4446
 5208TIP3   OH215629   1.651   5.124   2.091 -0.7173 -0.1138  0.2675
 5208TIP3    H115630   1.734   5.152   2.051  0.2537 -1.6816  1.0642
 5208TIP3    H215631   1.586   5.185   2.057  0.7445  1.1036 -0.4731
 5209TIP3   OH215632   4.422   4.937   0.800 -0.2987  0.4143 -0.2908
 5209TIP3    H115633   4.391   4.877   0.733 -0.0434  0.2789 -0.2905
 5209TIP3    H215634   4.514   4.952   0.778  0.1048 -0.5052  0.6493
 5210TIP3   OH215635   2.795   3.365   4.543 -0.1703  0.2383  0.1553
 5210TIP3    H115636   2.753   3.286   4.576  0.9081 -0.0072  1.0241
 5210TIP3    H215637   2.724   3.416   4.505 -0.9516 -0.9541 -0.0561
 5211TIP3   OH215638   1.549   4.629   1.106 -0.0847 -0.8981 -0.2634
 5211TIP3    H115639   1.607   4.619   1.030  1.6650 -0.3615  0.9414
 5211TIP3    H215640   1.602   4.604   1.181 -1.5875 -0.8648  0.8674
 5212TIP3   OH215641   1.343   1.500   3.367  0.1316  0.0433 -0.0782
 5212TIP3    H115642   1.249   1.514   3.377  0.0886  0.6656 -1.1540
 5212TIP3    H215643   1.354   1.405   3.367 -0.5286 -0.0354 -0.2042
 5213TIP3   OH215644   0.850   4.571   4.242  0.7430 -0.4039 -0.3204
 5213TIP3    H115645   0.819   4.559   4.152 -1.0075  0.3436  0.1303
 5213TIP3    H215646   0.849   4.482   4.279  0.7286 -0.6155 -0.8186
 5214TIP3   OH215647   4.245   5.685   4.788  1.0852  0.4860  0.4373
 5214TIP3    H115648   4.278   5.700   4.699 -1.3015 -0.7742 -0.7487
 5214TIP3    H215649   4.176   5.751   4.799  0.8971  0.1857  1.0883
 5215TIP3   OH215650   0.672   2.498   3.520  0.2566  0.5711 -0.5889
 5215TIP3    H115651   0.601   2.439   3.494  1.3391 -1.2325  0.3369
 5215TIP3    H215652   0.636   2.550   3.591  0.4234 -1.8959  1.4468
 5216TIP3   OH215653   5.289   0.614   0.019 -0.6220  0.4252  0.2017
 5216TIP3    H115654   5.225   0.618  -0.052 -1.4340 -0.6640  0.8413
 5216TIP3    H215655   5.276   0.528   0.059  2.6032 -0.7274 -0.8650
 5217TIP3   OH215656   1.175   1.315   2.756 -0.4850 -0.2741 -0.3027
 5217TIP3    H115657   1.086   1.324   2.790 -0.0263 -1.0890  1.2570
 5217TIP3    H215658   1.214   1.401   2.768 -0.2710 -0.5774  1.5993
 5218TIP3   OH215659   3.133   5.678   4.720  0.2482  0.1065  0.3374
 5218TIP3    H115660   3.091   5.763   4.737  2.0095  0.9920  0.5433
 5218TIP3    H215661   3.173   5.654   4.804  2.3045  0.6053 -0.4261
 5219TIP3   OH215662   3.429   5.395   3.240 -0.2536 -0.6680  0.9393
 5219TIP3    H115663   3.338   5.413   3.215  0.1146  1.1588  0.7399
 5219TIP3    H215664   3.443   5.450   3.317  1.1598  0.3571 -0.0191
 5220TIP3   OH215665   4.004   5.367   2.377 -0.7479  0.6112  0.0161
 5220TIP3    H115666   4.069   5.437   2.376 -0.9568  0.8508  1.4684
 5220TIP3    H215667   4.010   5.330   2.465 -2.0744  0.1588 -0.0687
 5221TIP3   OH215668   4.268   2.055   3.706 -0.2351  0.3390  0.2287
 5221TIP3    H115669   4.248   2.035   3.614  0.2646  0.6421  0.0489
 5221TIP3    H215670   4.356   2.019   3.720 -0.0974  0.7524  0.4365
 5222TIP3   OH215671   5.774   2.600   5.100  0.6056  0.5753 -0.3491
 5222TIP3    H115672   5.794   2.534   5.033  1.1703  1.0801 -0.6936
 5222TIP3    H215673   5.800   2.559   5.183 -0.4892 -0.2125 -0.3793
 5223TIP3   OH215674   5.196   5.105   4.416  0.1501 -0.4117 -0.8059
 5223TIP3    H115675   5.156   5.120   4.502 -1.0615  0.2581 -1.4495
 5223TIP3    H215676   5.244   5.185   4.397  0.8856 -0.7790 -0.5205
 5224TIP3   OH215677   2.707   1.989   0.361 -0.5452  0.1930  0.1590
 5224TIP3    H115678   2.726   1.914   0.418  0.0831  0.8210  0.7994
 5224TIP3    H215679   2.717   1.954   0.272 -0.9486 -0.6521  0.4365
 5225TIP3   OH215680   0.240   0.948   3.552  0.3373 -0.2061  0.1498
 5225TIP3    H115681   0.222   0.965   3.644 -0.2777  0.6613 -0.1114
 5225TIP3    H215682   0.284   1.028   3.521  0.9421 -0.6650 -0.2080
 5226TIP3   OH215683   4.582   4.221   2.819 -0.3804 -0.5587 -0.6519
 5226TIP3    H115684   4.628   4.301   2.845 -2.3552  0.8990 -1.4014
 5226TIP3    H215685   4.567   4.232   2.725 -1.4600 -1.3984 -0.5856
 5227TIP3   OH215686   3.311   1.880   4.077 -0.0183 -0.3439  0.4198
 5227TIP3    H115687   3.257   1.917   4.007  0.1175 -0.0315  0.4795
 5227TIP3    H215688   3.400   1.907   4.055 -0.1279  0.9829  1.4783
 5228TIP3   OH215689   1.217   3.566   2.885 -0.4254 -0.0514 -0.0362
 5228TIP3    H115690   1.247   3.630   2.950  0.1719  0.0016 -0.3572
 5228TIP3    H215691   1.194   3.489   2.936  0.1952 -0.0678  0.2309
 5229TIP3   OH215692   4.124   0.708   3.956  0.0958 -0.2854  0.5104
 5229TIP3    H115693   4.068   0.675   4.025  0.0844  0.4461  0.8604
 5229TIP3    H215694   4.184   0.636   3.936 -0.5397 -0.8413  0.5870
 5230TIP3   OH215695   0.468   4.898   0.647  0.0186  0.0640  0.1471
 5230TIP3    H115696   0.376   4.876   0.631  0.2964 -1.0280 -0.0615
 5230TIP3    H215697   0.515   4.855   0.575  0.5904  1.7479 -0.5328
 5231TIP3   OH215698   1.467   4.494   4.025 -0.0952 -0.1526 -0.1346
 5231TIP3    H115699   1.524   4.509   4.101 -0.9198 -0.7185  0.6223
 5231TIP3    H215700   1.465   4.399   4.015 -0.9440 -0.1420 -0.1178
 5232TIP3   OH215701   3.670   5.933   2.940 -0.0898 -0.0939 -1.0678
 5232TIP3    H115702   3.742   5.928   3.003  0.1023  0.1990 -1.2628
 5232TIP3    H215703   3.688   5.862   2.878 -0.1441 -0.2250 -0.9342
 5233TIP3   OH215704   2.300   2.298   2.789  0.0565  0.1591 -0.2577
 5233TIP3    H115705   2.365   2.241   2.830  1.5951  1.2216 -1.0687
 5233TIP3    H215706   2.255   2.339   2.862  3.1222  2.4546  0.5838
 5234TIP3   OH215707   0.092   1.206   4.200 -0.3189  0.0676 -0.5767
 5234TIP3    H115708   0.066   1.291   4.235 -0.3090  0.0625 -0.5572
 5234TIP3    H215709   0.124   1.226   4.112  1.8339  0.4105  0.2301
 5235TIP3   OH215710   4.235   0.143   3.248  0.6568 -0.1197 -0.1226
 5235TIP3    H115711   4.320   0.121   3.286  0.2477 -1.1102  0.2546
 5235TIP3    H215712   4.177   0.072   3.275 -0.5518  1.0416  0.4807
 5236TIP3   OH215713   4.681   5.717   4.051  0.5011 -0.1876  0.0441
 5236TIP3    H115714   4.711   5.715   3.960  3.5072  2.3085  0.8203
 5236TIP3    H215715   4.741   5.658   4.097 -1.4830 -2.0463  0.3937
 5237TIP3   OH215716   2.158   3.862   2.074  0.4373  0.0066 -0.5455
 5237TIP3    H115717   2.234   3.806   2.090 -1.7643 -2.3599  2.9498
 5237TIP3    H215718   2.099   3.845   2.147 -3.6166  1.5167 -3.0873
 5238TIP3   OH215719   2.106   0.504   4.626  0.6430  0.1174 -0.2838
 5238TIP3    H115720   2.102   0.409   4.614  1.0908  0.1993 -1.2007
 5238TIP3    H215721   2.040   0.539   4.567  0.2304  0.3702  0.3144
 5239TIP3   OH215722   3.227   5.876   1.800 -0.4761  0.0336  0.2108
 5239TIP3    H115723   3.320   5.890   1.781 -0.3885  3.6448  2.2648
 5239TIP3    H215724   3.226   5.802   1.861  1.2015  0.5506  0.9243
 5240TIP3   OH215725   4.627   0.960   2.230  0.2235  0.0712  0.3299
 5240TIP3    H115726   4.716   0.933   2.253  1.5697  1.2361 -2.9401
 5240TIP3    H215727   4.623   1.053   2.251  0.3145  0.3648 -0.9094
 5241TIP3   OH215728   3.206   5.171   3.211  0.7369 -0.6456  0.5473
 5241TIP3    H115729   3.122   5.129   3.224  0.2930  0.0667  0.0870
 5241TIP3    H215730   3.203   5.249   3.266 -0.3623  1.3035 -2.0214
 5242TIP3   OH215731   6.099   1.704   1.057  0.2156 -0.3342  0.6142
 5242TIP3    H115732   6.112   1.798   1.051  1.0060 -0.4705  0.1229
 5242TIP3    H215733   6.062   1.679   0.973 -1.1939 -0.2905  1.1920
 5243TIP3   OH215734   4.642   2.317   4.600 -0.0109  0.0580  0.1660
 5243TIP3    H115735   4.559   2.360   4.621 -1.7455 -2.8815 -0.1112
 5243TIP3    H215736   4.659   2.259   4.674  0.7939 -0.7844 -0.6506
 5244TIP3   OH215737   1.607   2.035   2.334  0.3631  0.1499  0.6864
 5244TIP3    H115738   1.551   2.071   2.403  0.6123 -0.9703  1.5117
 5244TIP3    H215739   1.564   1.954   2.308  0.8307  0.0298  0.2809
 5245TIP3   OH215740   2.283   0.070   0.933  0.0957  0.2951  0.2849
 5245TIP3    H115741   2.297  -0.024   0.938 -0.0041  0.2422 -0.3949
 5245TIP3    H215742   2.199   0.085   0.976  0.9813  0.3070  2.0894
 5246TIP3   OH215743   1.450   5.538   2.308 -0.0553  0.5634  0.3269
 5246TIP3    H115744   1.375   5.480   2.294 -0.4238  1.1942 -0.3992
 5246TIP3    H215745   1.489   5.547   2.221  1.8007 -0.9636  0.9126
 5247TIP3   OH215746   4.182   4.222   2.796 -0.1992  0.3519  0.1590
 5247TIP3    H115747   4.096   4.183   2.810 -0.5383  0.7792 -0.6704
 5247TIP3    H215748   4.218   4.232   2.884 -1.0593  0.3177  0.5267
 5248TIP3   OH215749   3.435   5.068   0.436  0.5278  0.2388 -0.1764
 5248TIP3    H115750   3.523   5.032   0.441  2.0751  3.5670 -0.6410
 5248TIP3    H215751   3.395   5.044   0.520  1.7211 -1.5479 -0.0592
 5249TIP3   OH215752   0.514   4.813   4.125  0.5982  0.1402 -0.4427
 5249TIP3    H115753   0.458   4.845   4.196  1.7443  0.7069  0.2308
 5249TIP3    H215754   0.546   4.892   4.082  1.5919 -0.1487 -0.2476
 5250TIP3   OH215755   5.728   1.287   0.910 -0.0800 -0.4959  0.2334
 5250TIP3    H115756   5.723   1.223   0.981 -0.9268 -0.2073  0.4388
 5250TIP3    H215757   5.658   1.262   0.850  1.7107 -1.8307 -1.4594
 5251TIP3   OH215758   4.686   2.507   1.802  0.3091 -0.0972  0.0754
 5251TIP3    H115759   4.713   2.596   1.827  0.2429 -0.1799  0.4516
 5251TIP3    H215760   4.680   2.460   1.885 -3.3021  0.5245  0.3112
 5252TIP3   OH215761   2.004   2.889   3.092  0.0264 -0.4319  0.2094
 5252TIP3    H115762   2.012   2.961   3.154  2.4551 -0.7662  0.3974
 5252TIP3    H215763   1.916   2.854   3.107 -0.9650  2.0475  0.5544
 5253TIP3   OH215764   4.231   0.570   4.689  0.2108  0.2971 -0.5895
 5253TIP3    H115765   4.205   0.646   4.741  1.9647 -0.0311  0.8566
 5253TIP3    H215766   4.302   0.603   4.633 -2.1642  0.8591 -3.5089
 5254TIP3   OH215767   5.202   3.006   2.909  0.0529  0.1905  0.4209
 5254TIP3    H115768   5.177   2.922   2.869  1.2323  0.9612 -2.2124
 5254TIP3    H215769   5.284   2.988   2.954 -0.2904 -0.2926  0.8652
 5255TIP3   OH215770   2.343   2.969   4.696  0.1566 -0.0847 -0.3627
 5255TIP3    H115771   2.359   3.022   4.618  0.7349  1.8110  0.9815
 5255TIP3    H215772   2.375   2.882   4.673 -1.6222 -0.1767 -2.9533
 5256TIP3   OH215773   2.987   3.683   5.210  0.1087  0.2252  0.3746
 5256TIP3    H115774   2.899   3.687   5.173  0.8623 -0.8117 -1.6901
 5256TIP3    H215775   3.042   3.728   5.146  1.6148 -2.4419 -0.3678
 5257TIP3   OH215776   5.103   4.959   0.091  0.6525  0.2632 -0.1065
 5257TIP3    H115777   5.133   5.007   0.013 -0.8344 -1.6507 -1.9744
 5257TIP3    H215778   5.030   5.010   0.124 -0.3283 -0.1581 -1.5252
 5258TIP3   OH215779   5.306   0.711   1.962  0.2469 -0.3391 -0.3091
 5258TIP3    H115780   5.316   0.792   1.912 -3.1812  0.6689  0.4347
 5258TIP3    H215781   5.340   0.732   2.049  0.9969 -0.3323 -0.5876
 5259TIP3   OH215782   4.732   1.104   4.575 -0.1685 -0.3767 -0.4894
 5259TIP3    H115783   4.808   1.073   4.625 -0.3701 -1.0582 -0.5909
 5259TIP3    H215784   4.667   1.035   4.586 -0.4171 -0.2688 -1.2380
 5260TIP3   OH215785   2.521   0.144   0.788 -0.1212 -0.1593 -0.0952
 5260TIP3    H115786   2.562   0.193   0.859  1.4064 -2.1968  0.5354
 5260TIP3    H215787   2.444   0.104   0.828 -1.1610  1.3284 -0.5167
 5261TIP3   OH215788   2.033   3.359   0.146  0.0693  0.5185  0.4284
 5261TIP3    H115789   2.076   3.295   0.203 -0.0736 -0.6410 -0.7187
 5261TIP3    H215790   1.966   3.399   0.201 -0.4226 -0.9547  0.9510
 5262TIP3   OH215791   5.006   4.207   2.780 -0.2676  0.0055  0.3744
 5262TIP3    H115792   4.978   4.116   2.790 -1.1318  0.3847  1.7813
 5262TIP3    H215793   5.095   4.209   2.814 -0.8732 -0.0216  2.1080
 5263TIP3   OH215794   1.773   0.337   2.948 -0.1361  0.1695 -0.4393
 5263TIP3    H115795   1.818   0.253   2.945  0.4186  0.4957 -1.6553
 5263TIP3    H215796   1.691   0.323   2.901 -1.2603 -0.3437  1.5232
 5264TIP3   OH215797   2.767   1.376   0.549  0.4392  0.4921 -0.8208
 5264TIP3    H115798   2.734   1.300   0.501  1.5868 -0.2871 -0.4153
 5264TIP3    H215799   2.845   1.344   0.594 -0.4887  1.2290  1.4376
 5265TIP3   OH215800   3.533   1.396   1.346 -0.1230  0.5057 -0.0649
 5265TIP3    H115801   3.466   1.375   1.412 -0.1598  1.1586  0.1143
 5265TIP3    H215802   3.549   1.490   1.358 -0.4716  0.7430 -1.2965
 5266TIP3   OH215803   3.948   0.094   0.119  0.0633 -0.4039  0.0382
 5266TIP3    H115804   3.883   0.117   0.185 -0.4550 -1.4723 -0.0794
 5266TIP3    H215805   3.980   0.008   0.146 -1.1245 -1.4860 -1.7909
 5267TIP3   OH215806   0.128   2.704   0.942  0.5281  0.5076  0.1148
 5267TIP3    H115807   0.146   2.754   1.021 -0.8749  1.1891  0.0346
 5267TIP3    H215808   0.040   2.669   0.956 -0.2316  1.6053 -1.6122
 5268TIP3   OH215809   1.084   5.835   0.543 -0.0451 -0.0914 -0.1090
 5268TIP3    H115810   1.012   5.814   0.484 -2.1640  0.3206  2.1902
 5268TIP3    H215811   1.118   5.750   0.571 -1.1131 -0.3263  0.4898
 5269TIP3   OH215812   3.687   2.941   4.692  0.2241 -0.0841 -0.8603
 5269TIP3    H115813   3.718   3.008   4.754  0.9007 -0.4479 -0.7944
 5269TIP3    H215814   3.714   2.974   4.606  0.9728 -0.4768 -0.7899
 5270TIP3   OH215815   4.344   3.266   4.898 -0.4644  0.0918  0.0868
 5270TIP3    H115816   4.436   3.258   4.922 -0.4243 -0.8704 -0.3464
 5270TIP3    H215817   4.346   3.301   4.809 -0.4647 -1.0437 -0.3808
 5271TIP3   OH215818   2.305   5.856   5.155 -0.2343  0.2681  0.0280
 5271TIP3    H115819   2.277   5.935   5.202 -0.8001  0.9034 -1.3147
 5271TIP3    H215820   2.398   5.868   5.141 -0.5238  1.2961 -1.2021
 5272TIP3   OH215821   6.112   0.237   0.992  0.0027 -0.1950  1.1008
 5272TIP3    H115822   6.152   0.180   1.057  2.2032  0.0078  0.0069
 5272TIP3    H215823   6.022   0.204   0.985  0.4254 -1.8070  2.4202
 5273TIP3   OH215824   5.974   1.393   3.809  0.8314  0.6544 -0.4344
 5273TIP3    H115825   5.943   1.466   3.755 -0.2564  1.1410  0.8027
 5273TIP3    H215826   6.067   1.411   3.822  0.5686  1.8506 -0.1089
 5274TIP3   OH215827   4.031   5.535   3.406  0.0806  0.3837  0.1186
 5274TIP3    H115828   3.982   5.540   3.488 -1.2074  2.6246 -0.6904
 5274TIP3    H215829   4.015   5.619   3.363  2.9638  0.3696 -1.2061
 5275TIP3   OH215830   1.085   4.441   4.875 -0.5629  0.7329 -0.6384
 5275TIP3    H115831   1.133   4.366   4.840 -0.8424  0.1442  0.2109
 5275TIP3    H215832   1.050   4.411   4.958 -0.9244  1.7219 -0.4133
 5276TIP3   OH215833   4.313   2.442   2.554 -0.4086 -0.4926 -0.2171
 5276TIP3    H115834   4.269   2.457   2.471  0.2093 -2.0300 -0.8625
 5276TIP3    H215835   4.404   2.468   2.538 -1.0001  3.0144  1.2094
 5277TIP3   OH215836   1.306   0.833   1.329  0.3105 -0.2443  0.1420
 5277TIP3    H115837   1.220   0.790   1.328  0.4155 -0.4693  0.5029
 5277TIP3    H215838   1.299   0.899   1.398  0.0917  0.4484 -0.5346
 5278TIP3   OH215839   1.986   4.783   1.217 -0.4176  0.0794  0.7202
 5278TIP3    H115840   2.047   4.847   1.255 -0.6678  0.9505 -0.2893
 5278TIP3    H215841   1.918   4.771   1.283  1.3924 -1.8290  2.4091
 5279TIP3   OH215842   6.199   0.493   4.251 -0.1809 -0.2298  0.2238
 5279TIP3    H115843   6.104   0.502   4.241 -0.1260 -0.5755 -0.7563
 5279TIP3    H215844   6.221   0.545   4.328 -1.2055 -0.3782  0.6300
 5280TIP3   OH215845   0.373   0.416   3.188 -0.0432  0.3047 -0.7005
 5280TIP3    H115846   0.316   0.378   3.255  0.8642 -1.8427 -1.0920
 5280TIP3    H215847   0.316   0.423   3.111 -0.4406  0.5340 -0.3944
 5281TIP3   OH215848   4.483   4.484   4.517 -0.1124 -0.0815  0.2809
 5281TIP3    H115849   4.454   4.433   4.593 -0.6501 -1.3259 -0.7190
 5281TIP3    H215850   4.565   4.525   4.545 -0.4002 -0.3555  1.5899
 5282TIP3   OH215851   3.588   2.968   1.849 -0.0500 -0.3881  0.1009
 5282TIP3    H115852   3.645   2.914   1.904 -0.5752 -1.0660 -0.0019
 5282TIP3    H215853   3.540   2.905   1.795 -0.1883  0.2249 -0.5025
 5283TIP3   OH215854   2.266   1.260   2.998 -0.2888 -0.3417  0.1440
 5283TIP3    H115855   2.353   1.221   3.002  0.1805  0.6460  0.0270
 5283TIP3    H215856   2.236   1.245   2.908 -0.1462 -0.5023  0.1237
 5284TIP3   OH215857   1.978   1.883   1.056  0.0114 -0.7537  0.0622
 5284TIP3    H115858   2.025   1.967   1.058 -0.0203 -0.7318 -0.0877
 5284TIP3    H215859   2.031   1.825   1.110  1.1477 -1.2086 -1.4373
 5285TIP3   OH215860   2.346   5.763   1.012  0.0683  0.1108 -0.1671
 5285TIP3    H115861   2.346   5.762   0.916  0.4170 -0.7555 -0.1723
 5285TIP3    H215862   2.336   5.671   1.037  0.2044  0.3018  0.6284
 5286TIP3   OH215863   3.193   2.780   2.726 -0.7183  0.6011  0.3517
 5286TIP3    H115864   3.218   2.793   2.635  0.5332  1.5130  0.7968
 5286TIP3    H215865   3.143   2.699   2.726  0.8307 -0.4169 -0.8719
 5287TIP3   OH215866   1.261   0.280   1.963 -0.2926 -0.5539  0.1183
 5287TIP3    H115867   1.198   0.326   1.907  1.1660  1.4273 -0.0033
 5287TIP3    H215868   1.283   0.343   2.031  0.6511 -1.6589  0.8818
 5288TIP3   OH215869   2.331   2.552   4.179  0.1302  0.1153  0.8468
 5288TIP3    H115870   2.252   2.554   4.234 -1.2702  0.8172 -1.0810
 5288TIP3    H215871   2.307   2.601   4.101  2.2518 -0.3268 -0.1501
 5289TIP3   OH215872   6.302   3.316   0.967  0.1504  0.4036 -0.4356
 5289TIP3    H115873   6.392   3.347   0.955  0.3614  1.0037  2.1956
 5289TIP3    H215874   6.282   3.270   0.885  1.9870  2.2287 -2.0407
 5290TIP3   OH215875   5.237   4.277   2.920 -0.0673  0.5061  0.2125
 5290TIP3    H115876   5.200   4.232   2.996  0.2996 -1.9756 -0.9737
 5290TIP3    H215877   5.292   4.346   2.956 -0.7774  0.1120  2.1401
 5291TIP3   OH215878   3.004   2.060   1.312 -0.0384 -0.5778  0.3829
 5291TIP3    H115879   3.059   1.986   1.340 -3.4203 -2.4457  2.9623
 5291TIP3    H215880   2.957   2.027   1.236 -0.0668 -0.3031  0.2808
 5292TIP3   OH215881   5.805   5.452   0.285 -0.0630  0.2237  0.2176
 5292TIP3    H115882   5.885   5.453   0.231 -0.9099 -0.1661 -1.0912
 5292TIP3    H215883   5.739   5.411   0.229 -1.6066  1.9327  0.6794
 5293TIP3   OH215884   1.176   1.014   4.983 -0.0081  0.4690 -0.4028
 5293TIP3    H115885   1.254   1.067   5.000  0.2076  0.2072 -0.5682
 5293TIP3    H215886   1.190   0.977   4.896 -0.1260  0.0864 -0.2633
 5294TIP3   OH215887   4.833   1.814   1.109  0.7459  0.2133 -0.2190
 5294TIP3    H115888   4.914   1.864   1.114  0.8614 -0.0882  1.9698
 5294TIP3    H215889   4.856   1.735   1.061  2.3446 -0.8090  2.0614
 5295TIP3   OH215890   1.395   1.671   4.574 -0.3875  0.4295 -0.3387
 5295TIP3    H115891   1.485   1.701   4.560  0.4523 -2.0437 -0.7917
 5295TIP3    H215892   1.343   1.726   4.516  0.5590  3.0218  1.1288
 5296TIP3   OH215893   5.354   5.162   3.599  0.0703  0.1283 -0.5595
 5296TIP3    H115894   5.266   5.129   3.619  0.5232 -1.0106 -0.3540
 5296TIP3    H215895   5.359   5.245   3.646 -0.0123 -1.0025  1.5764
 5297TIP3   OH215896   1.323   4.723   1.749 -0.7885 -0.0794 -0.4990
 5297TIP3    H115897   1.403   4.773   1.734 -1.4069  0.5760 -1.6916
 5297TIP3    H215898   1.325   4.703   1.843 -0.5061  2.1667  0.0170
 5298TIP3   OH215899   2.926   4.800   5.078 -0.2647 -0.3877  0.5719
 5298TIP3    H115900   2.835   4.774   5.093 -0.9079  1.8253  0.9093
 5298TIP3    H215901   2.970   4.720   5.050 -3.0254 -0.9574 -2.8915
 5299TIP3   OH215902   1.864   4.768   2.132  0.0627 -0.5103  0.3239
 5299TIP3    H115903   1.808   4.823   2.077 -0.2193 -0.9952  0.1184
 5299TIP3    H215904   1.803   4.729   2.195  0.5238  0.8341  1.6500
 5300TIP3   OH215905   5.297   1.706   2.341 -0.0381  0.4330 -0.9533
 5300TIP3    H115906   5.295   1.638   2.274  1.3124  0.2003 -0.7762
 5300TIP3    H215907   5.272   1.661   2.422 -0.5019  0.4583 -1.0786
 5301TIP3   OH215908   2.271   0.426   2.611 -0.4920 -0.7007  0.0273
 5301TIP3    H115909   2.270   0.338   2.572  0.4557 -0.6424 -0.1414
 5301TIP3    H215910   2.317   0.415   2.694  0.1102 -0.2644 -0.2441
 5302TIP3   OH215911   5.345   0.173   4.828 -0.2661 -0.2961  0.2136
 5302TIP3    H115912   5.396   0.251   4.851  0.4474 -0.5652 -0.4030
 5302TIP3    H215913   5.317   0.189   4.738  0.1134 -0.8662 -0.0091
 5303TIP3   OH215914   3.685   4.645   2.537  0.2545  0.0839  0.1228
 5303TIP3    H115915   3.742   4.644   2.614  1.0838  0.3177 -0.4781
 5303TIP3    H215916   3.598   4.667   2.572  0.2667 -1.4419  1.2086
 5304TIP3   OH215917   5.212   0.497   2.593  0.2216 -0.1808 -0.0365
 5304TIP3    H115918   5.243   0.440   2.663  0.0523 -0.5845 -0.2792
 5304TIP3    H215919   5.219   0.443   2.514 -0.1992  0.0426 -0.2320
 5305TIP3   OH215920   5.433   5.945   2.595 -0.3316 -0.0915 -0.8508
 5305TIP3    H115921   5.351   5.974   2.556 -0.0738  0.4178 -1.0320
 5305TIP3    H215922   5.494   5.939   2.522 -0.3971 -1.2085 -0.8281
 5306TIP3   OH215923   5.604   3.402   1.496  0.0623  0.1434 -0.0215
 5306TIP3    H115924   5.591   3.435   1.407 -0.3886  0.8971  0.3142
 5306TIP3    H215925   5.523   3.423   1.542  1.1183  1.8507  1.1847
 5307TIP3   OH215926   1.479   2.509   4.723  0.1019  0.2930 -0.2553
 5307TIP3    H115927   1.572   2.528   4.730  0.5878 -0.5100 -3.2450
 5307TIP3    H215928   1.439   2.594   4.702  0.1814  0.5536  0.5898
 5308TIP3   OH215929   5.471   2.553   1.694  0.3057  0.0525 -0.5998
 5308TIP3    H115930   5.450   2.643   1.670  0.1081  0.4439  0.9669
 5308TIP3    H215931   5.399   2.501   1.658  0.2438  0.5464 -1.2109
 5309TIP3   OH215932   3.561   2.070   1.738  0.2072  0.4999  0.4081
 5309TIP3    H115933   3.550   2.165   1.746  2.7566  0.9323 -0.3889
 5309TIP3    H215934   3.654   2.058   1.719 -0.0188 -2.1930  0.6320
 5310TIP3   OH215935   1.185   2.823   4.010  0.4564 -0.2108 -0.2023
 5310TIP3    H115936   1.263   2.781   4.046  0.5298 -0.0904 -0.2214
 5310TIP3    H215937   1.208   2.845   3.920  0.1618 -0.8022 -0.4248
 5311TIP3   OH215938   3.445   3.481   2.284 -0.0307 -0.2149  0.2022
 5311TIP3    H115939   3.469   3.390   2.267  2.3517  0.4966 -0.6140
 5311TIP3    H215940   3.514   3.532   2.243 -0.5033  1.9566  1.9223
 5312TIP3   OH215941   0.684   0.992   3.267 -0.1005  0.2752 -0.3231
 5312TIP3    H115942   0.739   1.029   3.198  1.9290 -1.1314  0.4558
 5312TIP3    H215943   0.633   0.924   3.222 -0.5757  0.9947 -0.8870
 5313TIP3   OH215944   3.394   1.543   3.895  0.0048 -0.0952 -0.9453
 5313TIP3    H115945   3.387   1.527   3.989 -0.5087 -0.7541 -1.0884
 5313TIP3    H215946   3.329   1.611   3.878  1.9207  1.9705 -0.4010
 5314TIP3   OH215947   3.198   2.621   3.061  0.1021  0.1299  0.2491
 5314TIP3    H115948   3.106   2.601   3.081  0.2639  0.2025  1.0675
 5314TIP3    H215949   3.201   2.717   3.056  0.2352  0.1484  0.7056
 5315TIP3   OH215950   3.577   3.847   1.180  0.6522 -0.2988  0.1186
 5315TIP3    H115951   3.594   3.869   1.271  0.2367 -0.3282  0.2088
 5315TIP3    H215952   3.514   3.913   1.150 -0.8078 -1.4728  0.4759
 5316TIP3   OH215953   3.621   2.746   5.080  0.9517 -0.2740 -0.2019
 5316TIP3    H115954   3.552   2.779   5.138  1.2674  0.4600 -0.2372
 5316TIP3    H215955   3.682   2.819   5.071  1.9544 -1.0363  0.1567
 5317TIP3   OH215956   1.292   3.692   4.421  1.2878 -0.0375 -0.2380
 5317TIP3    H115957   1.267   3.644   4.500  0.4532 -0.5787 -0.8150
 5317TIP3    H215958   1.351   3.632   4.375 -0.4441 -0.9041 -1.3882
 5318TIP3   OH215959   5.983   4.535   2.532  0.0916  0.1891 -0.4650
 5318TIP3    H115960   6.051   4.504   2.592 -0.4390  0.2286  0.1747
 5318TIP3    H215961   5.925   4.460   2.522 -1.5502  1.0772  1.5936
 5319TIP3   OH215962   1.701   4.995   3.579  0.2809  0.2196  0.3899
 5319TIP3    H115963   1.792   5.022   3.567 -0.0562  1.1906 -0.1144
 5319TIP3    H215964   1.667   5.053   3.647 -0.6603  1.6709 -1.2182
 5320TIP3   OH215965   5.410   2.333   2.882  0.7043  0.0713 -0.0256
 5320TIP3    H115966   5.465   2.405   2.848  1.5748 -0.3566  0.4302
 5320TIP3    H215967   5.368   2.297   2.804 -0.8638  1.9506 -0.1252
 5321TIP3   OH215968   4.618   4.922   0.097  0.2140  0.3039  0.3845
 5321TIP3    H115969   4.572   4.996   0.058 -1.5169 -0.9215 -0.0666
 5321TIP3    H215970   4.648   4.871   0.022  0.4379  0.0029  0.6779
 5322TIP3   OH215971   0.268   3.338   4.598 -0.4592 -0.0834  0.2959
 5322TIP3    H115972   0.288   3.276   4.528 -0.4512 -1.6569  1.6340
 5322TIP3    H215973   0.230   3.413   4.553  2.4723  0.3716 -1.7070
 5323TIP3   OH215974   0.721   5.601   1.182  0.0793 -0.3681  0.9580
 5323TIP3    H115975   0.689   5.543   1.112 -0.0038  0.5156  0.2411
 5323TIP3    H215976   0.646   5.614   1.239 -0.0952 -0.4252  0.7452
 5324TIP3   OH215977   2.430   2.094   2.942  0.2582  0.2183  0.3815
 5324TIP3    H115978   2.375   2.073   3.018 -0.1552  0.0865  0.0458
 5324TIP3    H215979   2.448   2.009   2.902  0.6677  0.2652  0.4588
 5325TIP3   OH215980   0.567   2.309   1.313  0.4454 -0.2762 -0.0113
 5325TIP3    H115981   0.508   2.375   1.275  0.3841 -0.1721  0.2590
 5325TIP3    H215982   0.587   2.343   1.401  0.3577 -0.6513  0.1548
 5326TIP3   OH215983   5.932   2.681   4.866  0.2557  0.8541 -0.4306
 5326TIP3    H115984   5.917   2.726   4.783  1.2029 -0.3024 -1.2633
 5326TIP3    H215985   5.877   2.603   4.862  1.2445  0.1439 -0.5312
 5327TIP3   OH215986   5.796   1.311   1.462 -0.1362 -0.7453  0.5579
 5327TIP3    H115987   5.841   1.260   1.529 -1.1574 -0.9208  1.1310
 5327TIP3    H215988   5.737   1.368   1.511  2.8501  3.1015  0.1709
 5328TIP3   OH215989   1.855   0.259   1.334 -0.4664 -0.3125 -0.4845
 5328TIP3    H115990   1.795   0.196   1.293  2.3629 -1.2761 -3.6255
 5328TIP3    H215991   1.880   0.318   1.263  1.7605  0.4156  0.7989
 5329TIP3   OH215992   0.605   3.490   3.715 -0.7839 -0.0863  0.1464
 5329TIP3    H115993   0.549   3.511   3.640 -0.8210 -0.1911  0.1442
 5329TIP3    H215994   0.553   3.515   3.792 -0.4598  0.6957  0.1173
 5330TIP3   OH215995   3.053   1.041   1.490  0.1782 -0.1182 -0.5444
 5330TIP3    H115996   3.037   1.098   1.564 -1.6416  0.0673 -1.0388
 5330TIP3    H215997   3.135   1.072   1.452 -1.1839  2.8053 -1.3341
 5331TIP3   OH215998   3.209   1.820   2.723 -0.2871  0.8629  0.0076
 5331TIP3    H115999   3.150   1.767   2.777 -0.3649 -1.7507 -2.4386
 5331TIP3    H216000   3.156   1.844   2.646  0.7742  1.6099 -0.5169
 5332TIP3   OH216001   1.818   1.371   4.810  0.7875  0.2211 -0.3628
 5332TIP3    H116002   1.854   1.346   4.895  0.4797  0.6197 -0.1057
 5332TIP3    H216003   1.752   1.437   4.831  0.0357 -0.3603 -0.8350
 5333TIP3   OH216004   0.311   4.439   3.420  0.3339 -0.1879 -0.0135
 5333TIP3    H116005   0.401   4.410   3.435  1.0163  2.0822  0.7378
 5333TIP3    H216006   0.315   4.488   3.338 -0.3201 -0.4244 -0.1898
 5334TIP3   OH216007   5.913   1.788   2.527  0.2833 -0.1886  0.3881
 5334TIP3    H116008   5.836   1.733   2.511 -0.3012  0.7400 -0.0731
 5334TIP3    H216009   5.982   1.749   2.472  0.1058 -0.9116  0.6576
 5335TIP3   OH216010   2.672   1.332   3.376  0.4541 -0.0939  0.2004
 5335TIP3    H116011   2.766   1.335   3.396  0.7155  0.8072 -1.0698
 5335TIP3    H216012   2.639   1.416   3.407  0.3995  0.2876 -0.8635
 5336TIP3   OH216013   3.726   1.186   0.728 -0.4149  0.4451  0.3368
 5336TIP3    H116014   3.661   1.233   0.780  0.2818  2.1720 -0.2759
 5336TIP3    H216015   3.684   1.171   0.643 -0.7758 -0.4317  0.6571
 5337TIP3   OH216016   4.989   2.056   2.040  0.6987 -0.4237  0.1211
 5337TIP3    H116017   5.083   2.073   2.047  0.8773 -1.3957  0.1503
 5337TIP3    H216018   4.967   2.081   1.950  0.9166  0.1043  0.2120
 5338TIP3   OH216019   1.015   0.229   3.370 -0.4340  0.7490 -0.3131
 5338TIP3    H116020   0.940   0.169   3.374  0.2010 -0.1308 -1.1907
 5338TIP3    H216021   1.012   0.265   3.281 -0.0699  1.0716 -0.1987
 5339TIP3   OH216022   4.595   4.664   4.910 -0.5266 -0.1571  0.5872
 5339TIP3    H116023   4.596   4.759   4.915  1.1957 -0.1604  0.9287
 5339TIP3    H216024   4.648   4.635   4.985  0.5307 -1.2942 -0.5420
 5340TIP3   OH216025   3.974   1.211   2.100 -0.0639 -0.2249 -0.2910
 5340TIP3    H116026   3.988   1.296   2.057 -1.8852  0.3854  0.2602
 5340TIP3    H216027   4.021   1.149   2.044  0.9694  1.0764 -0.9316
 5341TIP3   OH216028   5.471   0.533   3.955  0.0575  0.2215 -0.2798
 5341TIP3    H116029   5.565   0.542   3.965 -0.0089 -0.5478  1.4599
 5341TIP3    H216030   5.442   0.617   3.921  1.1615  1.1789  1.0244
 5342TIP3   OH216031   4.593   0.580   2.051  0.3491  0.1861  0.0789
 5342TIP3    H116032   4.597   0.594   2.145  0.3413  0.8168 -0.0117
 5342TIP3    H216033   4.517   0.524   2.038  1.5816 -1.7229  0.6444
 5343TIP3   OH216034   2.782   5.562   2.134 -0.0249  0.4359  0.1408
 5343TIP3    H116035   2.867   5.543   2.173 -0.7046  0.1835  1.5554
 5343TIP3    H216036   2.758   5.648   2.168 -0.2190  0.6223 -0.4571
 5344TIP3   OH216037   0.947   4.029   0.052 -0.3001 -0.4658 -0.0650
 5344TIP3    H116038   0.872   4.012   0.109  0.1946 -1.6806  0.2439
 5344TIP3    H216039   0.995   3.947   0.049  1.0626  0.2962 -0.2180
 5345TIP3   OH216040   0.270   1.219   1.771  0.8019 -0.3320  0.2778
 5345TIP3    H116041   0.210   1.197   1.700 -0.2989  1.6901  0.4901
 5345TIP3    H216042   0.213   1.236   1.846  1.5865  1.6011  0.5066
 5346TIP3   OH216043   6.163   2.754   2.996 -0.1829  0.2498 -0.2933
 5346TIP3    H116044   6.217   2.792   2.927 -1.1589  3.0308  0.3200
 5346TIP3    H216045   6.098   2.702   2.949  1.8465 -1.6665 -1.1281
 5347TIP3   OH216046   1.342   2.686   2.546  0.1569 -0.7966 -0.8009
 5347TIP3    H116047   1.385   2.771   2.537 -0.0196 -0.6180 -0.0386
 5347TIP3    H216048   1.374   2.635   2.472 -1.7182  0.7697 -2.8684
 5348TIP3   OH216049   5.740   1.918   0.669  0.7980 -0.2080  0.1601
 5348TIP3    H116050   5.830   1.946   0.687  0.8030  0.7508 -1.2079
 5348TIP3    H216051   5.718   1.960   0.586 -1.7825  1.5868  1.6175
 5349TIP3   OH216052   3.416   2.090   0.111 -0.0266  0.3305  0.1429
 5349TIP3    H116053   3.506   2.107   0.138  0.3308 -0.7634 -0.2906
 5349TIP3    H216054   3.363   2.115   0.187  0.9941 -3.3674  2.3110
 5350TIP3   OH216055   2.473   5.125   3.671  0.0547 -0.3382 -0.8197
 5350TIP3    H116056   2.441   5.143   3.759  0.6198  2.2099 -1.0497
 5350TIP3    H216057   2.400   5.083   3.627 -1.0132  0.3169  0.2610
 5351TIP3   OH216058   5.554   2.617   3.562 -0.0477  0.4697  0.2938
 5351TIP3    H116059   5.576   2.687   3.623 -0.2615  0.6930  0.1155
 5351TIP3    H216060   5.594   2.644   3.479  2.1982 -0.9136  0.8602
 5352TIP3   OH216061   5.138   4.072   3.365 -0.0478  0.3866  0.0110
 5352TIP3    H116062   5.183   4.110   3.440  1.1963  0.8014 -0.9132
 5352TIP3    H216063   5.159   3.978   3.369 -0.7343  0.2607  0.6823
 5353TIP3   OH216064   0.768   4.046   2.881  0.1142  0.7583 -0.1899
 5353TIP3    H116065   0.802   3.973   2.933  0.8343  1.6881  0.6825
 5353TIP3    H216066   0.675   4.026   2.870  0.2616 -0.1915  0.1980
 5354TIP3   OH216067   2.482   1.138   3.368  0.2320  0.2603  0.4644
 5354TIP3    H116068   2.387   1.142   3.379 -0.0538  1.6840 -1.9148
 5354TIP3    H216069   2.508   1.228   3.350  1.7284 -0.4391 -1.0817
 5355TIP3   OH216070   5.298   2.107   2.678  0.4214  0.8911  0.0467
 5355TIP3    H116071   5.303   2.030   2.734 -0.3904 -0.7617 -2.0006
 5355TIP3    H216072   5.204   2.122   2.666  0.5744  1.1819 -0.8730
 5356TIP3   OH216073   3.605   5.715   0.516 -0.8093 -0.4912 -0.0820
 5356TIP3    H116074   3.667   5.683   0.450  0.1889  0.4716  0.3402
 5356TIP3    H216075   3.519   5.698   0.479 -0.3042 -1.6974 -0.7818
 5357TIP3   OH216076   1.394   4.493   0.442 -0.4288  0.1082  0.0591
 5357TIP3    H116077   1.317   4.480   0.498 -0.3709  0.9116  0.3471
 5357TIP3    H216078   1.368   4.459   0.357 -1.2010  0.5938  0.0865
 5358TIP3   OH216079   1.601   4.318   1.121 -0.3375  0.2876 -0.2442
 5358TIP3    H116080   1.669   4.342   1.059 -2.3130  2.0074 -1.9324
 5358TIP3    H216081   1.635   4.345   1.206  1.5516 -0.0979 -0.8328
 5359TIP3   OH216082   5.039   0.463   3.334 -0.6662  0.1863 -0.2637
 5359TIP3    H116083   4.987   0.421   3.403  0.3301  0.7789  0.8827
 5359TIP3    H216084   5.042   0.397   3.264  0.0137 -1.3005  1.0807
 5360TIP3   OH216085   0.668   0.547   2.750 -0.0230 -0.3563 -0.1360
 5360TIP3    H116086   0.665   0.632   2.794  1.5383 -0.6124  0.5580
 5360TIP3    H216087   0.625   0.561   2.666  0.0334  1.0762  0.0529
 5361TIP3   OH216088   5.856   1.356   2.889 -0.0064 -0.4827 -0.5742
 5361TIP3    H116089   5.833   1.302   2.814  2.7503  0.1018 -1.9923
 5361TIP3    H216090   5.878   1.441   2.852 -1.4100  0.7443  1.2801
 5362TIP3   OH216091   3.007   0.133   2.350  0.3653  0.6081 -0.0123
 5362TIP3    H116092   2.957   0.066   2.397  0.8070  0.4032  0.1704
 5362TIP3    H216093   3.019   0.203   2.413  0.6955  0.4634  0.0884
 5363TIP3   OH216094   6.037   2.712   2.113 -0.0952  0.0615  0.2222
 5363TIP3    H116095   6.029   2.620   2.090  0.9912 -0.5051  1.9154
 5363TIP3    H216096   6.128   2.734   2.095 -0.7907  1.4348 -2.0880
 5364TIP3   OH216097   1.352   4.960   2.636  0.0237 -0.3004 -0.4451
 5364TIP3    H116098   1.402   5.000   2.707 -0.5132 -0.9019  0.2997
 5364TIP3    H216099   1.346   4.867   2.660  0.9366 -0.7823 -1.9460
 5365TIP3   OH216100   2.359   2.735   4.548  0.2831  0.5922 -0.0450
 5365TIP3    H116101   2.412   2.735   4.469 -0.2168  1.6428 -0.4079
 5365TIP3    H216102   2.270   2.754   4.518  0.2387  1.9724  0.8285
 5366TIP3   OH216103   2.648   4.727   5.063  0.0327 -0.1033 -0.7212
 5366TIP3    H116104   2.573   4.776   5.097  0.4530 -0.1498  0.3147
 5366TIP3    H216105   2.652   4.649   5.118 -0.0007 -0.7952 -1.6888
 5367TIP3   OH216106   5.832   3.505   2.720 -0.0826 -0.0541  0.2197
 5367TIP3    H116107   5.828   3.513   2.815 -0.0583 -0.8105  0.2973
 5367TIP3    H216108   5.789   3.421   2.701  1.1448 -0.6008 -0.2968
 5368TIP3   OH216109   3.608   1.428   2.456 -0.1868  0.2635 -0.1215
 5368TIP3    H116110   3.597   1.420   2.361  1.2616  1.4283 -0.4237
 5368TIP3    H216111   3.519   1.440   2.489 -0.6599  0.4211 -1.3881
 5369TIP3   OH216112   2.536   2.259   1.701  0.3048 -0.2393 -0.3195
 5369TIP3    H116113   2.587   2.185   1.733  0.0524 -0.7242 -1.0127
 5369TIP3    H216114   2.467   2.271   1.767  0.1917 -0.7927 -0.3346
 5370TIP3   OH216115   1.917   3.637   3.220 -0.0346 -0.3188  0.0861
 5370TIP3    H116116   1.870   3.568   3.268 -0.5635  0.3141  0.4999
 5370TIP3    H216117   1.851   3.704   3.203  0.8503  0.9394  1.3425
 5371TIP3   OH216118   2.828   0.176   0.510  0.3088 -0.3381 -0.1734
 5371TIP3    H116119   2.915   0.216   0.520  0.4615  0.1117 -2.5906
 5371TIP3    H216120   2.767   0.243   0.541  0.7438  0.2931 -0.6477
 5372TIP3   OH216121   0.503   0.980   0.889 -0.2059  0.1621 -0.3718
 5372TIP3    H116122   0.599   0.970   0.887 -0.1265  0.5925  0.6712
 5372TIP3    H216123   0.478   0.985   0.797  0.9197  1.2944 -0.6487
 5373TIP3   OH216124   2.080   0.879   3.498 -0.2417 -0.1694 -0.2366
 5373TIP3    H116125   2.127   0.873   3.415 -1.4520 -2.1334 -0.8661
 5373TIP3    H216126   2.013   0.946   3.483 -0.8067 -0.8962 -1.0793
 5374TIP3   OH216127   1.989   3.365   1.048  0.2065 -0.1269 -0.4535
 5374TIP3    H116128   1.949   3.311   0.980 -0.7389 -0.2271  0.1606
 5374TIP3    H216129   2.050   3.306   1.092 -0.7779 -0.6935  0.1772
 5375TIP3   OH216130   4.298   5.578   2.942 -0.0951 -0.5661  0.5099
 5375TIP3    H116131   4.377   5.533   2.970  0.1872  0.0633  0.7367
 5375TIP3    H216132   4.271   5.531   2.863  0.8202 -0.4382  0.1088
 5376TIP3   OH216133   6.246   4.154   1.171 -0.3168 -0.4001  0.1721
 5376TIP3    H116134   6.316   4.129   1.232  0.0717  2.1903  0.9245
 5376TIP3    H216135   6.178   4.190   1.227 -0.8501  0.1263 -0.7945
 5377TIP3   OH216136   1.112   0.115   1.294 -0.3104  0.3948  0.0629
 5377TIP3    H116137   1.207   0.115   1.281 -0.1420 -1.8079  0.9668
 5377TIP3    H216138   1.077   0.092   1.208 -0.0247  0.9018 -0.1970
 5378TIP3   OH216139   3.512   5.074   2.024 -0.1338 -0.8544 -0.5206
 5378TIP3    H116140   3.495   5.000   2.082 -1.0362  0.0178  0.3687
 5378TIP3    H216141   3.485   5.043   1.938 -1.0341 -1.3961 -0.0680
 5379TIP3   OH216142   3.312   1.453   0.977 -0.4141  0.2444 -0.0819
 5379TIP3    H116143   3.320   1.548   0.966 -1.3148  0.3061 -0.2959
 5379TIP3    H216144   3.246   1.427   0.913 -0.4498 -0.4733  0.2382
 5380TIP3   OH216145   1.441   3.399   1.395  0.4465 -0.2709 -0.2559
 5380TIP3    H116146   1.524   3.412   1.350 -0.5930  1.9701 -1.6901
 5380TIP3    H216147   1.450   3.447   1.477  1.3049 -1.9377  0.6851
 5381TIP3   OH216148   3.631   0.229   4.858  0.4732  0.0999  0.0518
 5381TIP3    H116149   3.554   0.201   4.906 -0.7055  0.3196 -1.6414
 5381TIP3    H216150   3.611   0.319   4.831  2.1590  0.8912  1.2507
 5382TIP3   OH216151   6.055   4.072   0.835 -0.6531 -0.2593 -0.2099
 5382TIP3    H116152   6.143   4.058   0.802 -1.0459 -2.5249 -0.4157
 5382TIP3    H216153   6.046   4.168   0.839  2.1994  0.0430  1.0084
 5383TIP3   OH216154   1.537   1.777   2.255  0.0079  0.1943 -0.0781
 5383TIP3    H116155   1.442   1.772   2.263  0.0679 -2.4115 -0.2334
 5383TIP3    H216156   1.557   1.732   2.173  1.4795 -1.1443  0.9632
 5384TIP3   OH216157   2.705   3.709   4.833  0.1267  0.1201  0.3148
 5384TIP3    H116158   2.612   3.687   4.822 -0.0798  0.8737  0.4968
 5384TIP3    H216159   2.744   3.688   4.748  0.0576 -1.4598  0.6522
 5385TIP3   OH216160   4.028   4.928   3.315 -0.2779  0.2388 -0.0211
 5385TIP3    H116161   4.065   5.016   3.320  1.9401 -0.7000  1.4121
 5385TIP3    H216162   4.076   4.885   3.244 -2.7717  0.6955 -2.1541
 5386TIP3   OH216163   3.185   2.648   1.640 -0.0319  0.3078  0.0509
 5386TIP3    H116164   3.098   2.630   1.676  0.7363 -2.2522  0.8438
 5386TIP3    H216165   3.169   2.667   1.548 -1.7116  3.5791  0.8651
 5387TIP3   OH216166   0.878   5.940   0.192  0.2569 -0.1553  0.0065
 5387TIP3    H116167   0.875   5.865   0.251 -0.0369 -0.3643 -0.2742
 5387TIP3    H216168   0.906   5.904   0.108 -1.4575 -0.2381 -0.5638
 5388TIP3   OH216169   4.539   0.534   3.919 -0.3956 -0.1668 -0.7451
 5388TIP3    H116170   4.453   0.555   3.883 -0.3342 -0.8589 -1.3248
 5388TIP3    H216171   4.531   0.443   3.949 -0.1030  0.0305 -0.0589
 5389TIP3   OH216172   1.312   2.557   1.089  0.5149  0.3848 -0.1342
 5389TIP3    H116173   1.326   2.559   1.183  0.1213  1.1093 -0.0838
 5389TIP3    H216174   1.399   2.573   1.052  1.2586 -2.7050  0.0176
 5390TIP3   OH216175   4.472   1.188   0.734 -0.0458  0.1861 -0.3168
 5390TIP3    H116176   4.448   1.272   0.772  0.7199  0.2488  0.0312
 5390TIP3    H216177   4.506   1.137   0.807 -0.5491 -0.4466 -0.5153
 5391TIP3   OH216178   2.248   2.358   0.940 -0.1684  0.5618  0.0904
 5391TIP3    H116179   2.234   2.429   1.002 -0.8324 -1.6198  2.6575
 5391TIP3    H216180   2.340   2.333   0.953 -0.6140 -0.6572  1.1925
 5392TIP3   OH216181   2.745   5.466   4.019  0.2856 -0.0213  0.0979
 5392TIP3    H116182   2.838   5.486   4.026  0.2677  0.6277 -1.1612
 5392TIP3    H216183   2.735   5.427   3.932 -0.7013  0.4785 -0.0310
 5393TIP3   OH216184   3.864   4.323   4.609  0.4629 -0.4516  0.5940
 5393TIP3    H116185   3.835   4.233   4.626  0.7973 -0.4207  1.3658
 5393TIP3    H216186   3.813   4.377   4.669 -0.2849 -0.0349 -0.3986
 5394TIP3   OH216187   0.647   1.387   0.718  0.3292  0.0973 -0.0416
 5394TIP3    H116188   0.678   1.448   0.651 -1.8812  1.9431  0.5155
 5394TIP3    H216189   0.570   1.346   0.680  0.4074 -0.5790  0.5084
 5395TIP3   OH216190  -0.018   2.124   1.609  0.1426 -0.1844  0.1409
 5395TIP3    H116191   0.068   2.083   1.613 -0.2066 -0.9519  0.2029
 5395TIP3    H216192  -0.043   2.121   1.516  0.7107  1.2086 -0.0739
 5396TIP3   OH216193   3.160   2.785   2.429  0.1431 -0.1738  0.3145
 5396TIP3    H116194   3.066   2.789   2.446  0.0084  3.9027 -0.4126
 5396TIP3    H216195   3.174   2.849   2.359  3.3850 -1.2328 -0.1679
 5397TIP3   OH216196   2.096   1.855   3.601 -0.1883  0.1155  0.4488
 5397TIP3    H116197   2.029   1.797   3.636 -0.9509  1.1381  0.7327
 5397TIP3    H216198   2.049   1.914   3.543  0.4537  0.8927  0.6952
 5398TIP3   OH216199   3.595   0.717   4.362  0.4086 -0.4809  0.4557
 5398TIP3    H116200   3.536   0.685   4.294  0.3780 -0.7392  0.6043
 5398TIP3    H216201   3.561   0.803   4.385  0.5285 -0.3100  0.0077
 5399TIP3   OH216202   2.737   4.504   0.032  0.2904 -0.1068  0.5701
 5399TIP3    H116203   2.691   4.423   0.051 -0.9346  0.5808  0.6581
 5399TIP3    H216204   2.810   4.505   0.094 -1.1600  0.0434  2.3892
 5400TIP3   OH216205   4.261   3.018   3.790 -0.7335  0.2925  0.0616
 5400TIP3    H116206   4.299   3.105   3.806 -0.2465  0.1359 -0.2170
 5400TIP3    H216207   4.243   2.983   3.877 -0.2202  0.3646  0.2010
 5401TIP3   OH216208   2.381   1.841   4.473 -0.2457 -0.3917  0.4061
 5401TIP3    H116209   2.313   1.809   4.413 -1.0160  0.2941  0.8967
 5401TIP3    H216210   2.441   1.767   4.482  0.5578 -0.1537 -2.1414
 5402TIP3   OH216211   1.893   4.736   2.829  0.0973  0.1245 -0.3411
 5402TIP3    H116212   1.934   4.759   2.913 -0.1889  0.4338 -0.2825
 5402TIP3    H216213   1.962   4.692   2.780  0.5606  0.8009 -0.3168
 5403TIP3   OH216214   3.360   1.743   0.924 -0.1541  0.2675 -1.0952
 5403TIP3    H116215   3.414   1.759   1.002 -1.2334 -0.9642 -0.0440
 5403TIP3    H216216   3.283   1.798   0.937 -0.4473 -0.1237 -1.1841
 5404TIP3   OH216217   3.071   3.005   0.608  0.1483 -0.1772  0.6959
 5404TIP3    H116218   3.107   3.092   0.590  0.6240 -0.6731 -0.9032
 5404TIP3    H216219   2.988   3.003   0.559  0.0997 -0.5979  0.7899
 5405TIP3   OH216220   3.974   2.057   2.801  0.3650 -0.0352  0.2677
 5405TIP3    H116221   4.005   2.108   2.726  0.3646 -0.4784 -0.0382
 5405TIP3    H216222   3.945   2.123   2.864  0.6596  0.3514  0.0075
 5406TIP3   OH216223   2.757   3.977   0.853 -0.0564 -0.6114  0.1896
 5406TIP3    H116224   2.827   3.917   0.882 -0.0595 -0.8260 -0.2485
 5406TIP3    H216225   2.684   3.959   0.912  0.4442  0.0127  1.0212
 5407TIP3   OH216226   4.119   2.992   2.240  0.1222 -0.3259 -0.0656
 5407TIP3    H116227   4.051   3.035   2.292  0.3721 -0.3136  0.2523
 5407TIP3    H216228   4.176   2.949   2.305  0.7046  0.0864 -0.2930
 5408TIP3   OH216229   3.907   1.188   4.460  0.3492 -0.0529 -0.0344
 5408TIP3    H116230   3.849   1.183   4.536  1.7012 -1.5743  0.9629
 5408TIP3    H216231   3.994   1.199   4.497  0.9221  0.4528 -1.4373
 5409TIP3   OH216232   0.767   3.078   4.538 -0.3636 -0.1285  0.0946
 5409TIP3    H116233   0.849   3.065   4.491 -0.0724  0.0195  0.5631
 5409TIP3    H216234   0.715   3.134   4.480 -0.2027 -0.3638 -0.2797
 5410TIP3   OH216235   4.007   4.231   1.999 -0.4392 -0.0154  0.0151
 5410TIP3    H116236   3.922   4.188   2.010 -1.0294  1.4310  1.6115
 5410TIP3    H216237   3.991   4.296   1.930 -1.3964  1.8864  1.9066
 5411TIP3   OH216238   3.840   5.461   1.081 -0.3187 -0.0399 -0.1959
 5411TIP3    H116239   3.827   5.537   1.138  2.1564 -0.0770  0.5299
 5411TIP3    H216240   3.861   5.499   0.995 -0.8747  0.0392 -0.3052
 5412TIP3   OH216241   2.373   4.812   0.510 -0.0444 -0.3098 -0.2476
 5412TIP3    H116242   2.325   4.883   0.552 -0.7124  0.2989 -1.9244
 5412TIP3    H216243   2.465   4.835   0.522 -0.2003 -0.2793  1.0239
 5413TIP3   OH216244   0.716   5.161   3.614 -0.2596 -0.2039  0.6068
 5413TIP3    H116245   0.727   5.254   3.636  0.6067 -0.5876  1.9251
 5413TIP3    H216246   0.793   5.119   3.652 -1.7856 -1.7765  2.1006
 5414TIP3   OH216247   5.052   5.196   4.979  0.8183 -0.3094  0.1149
 5414TIP3    H116248   5.116   5.194   5.050 -1.3342  0.3560  2.2238
 5414TIP3    H216249   5.101   5.229   4.904  2.9998 -0.1059  1.5165
 5415TIP3   OH216250   3.434   2.687   0.396 -0.1144  0.3059 -0.8080
 5415TIP3    H116251   3.367   2.753   0.379 -0.4241 -0.2259 -1.6751
 5415TIP3    H216252   3.510   2.716   0.346  0.5375  1.2331  0.6455
 5416TIP3   OH216253   0.263   3.791   2.368 -0.2168  0.6085 -0.4017
 5416TIP3    H116254   0.336   3.755   2.418  0.2912 -0.2513 -1.7097
 5416TIP3    H216255   0.189   3.735   2.390  0.1698 -0.2114 -1.1166
 5417TIP3   OH216256   2.778   2.245   0.334  0.4289 -0.4465 -0.4140
 5417TIP3    H116257   2.694   2.288   0.317  0.2503 -1.1670 -1.4419
 5417TIP3    H216258   2.755   2.153   0.346  1.2325 -0.9936 -2.6066
 5418TIP3   OH216259   6.303   5.419   4.225 -0.0605 -0.2786  0.3734
 5418TIP3    H116260   6.366   5.492   4.226 -0.1683 -0.0589 -1.9938
 5418TIP3    H216261   6.357   5.341   4.240  0.8764 -0.0903 -1.5833
 5419TIP3   OH216262   5.008   5.785   0.919 -0.1888  0.1337 -0.3127
 5419TIP3    H116263   4.944   5.855   0.928  2.4839  2.6727  0.6748
 5419TIP3    H216264   4.979   5.734   0.844 -2.0006  2.6441 -1.4198
 5420TIP3   OH216265   5.404   5.315   4.908 -0.2572 -0.4634 -0.3450
 5420TIP3    H116266   5.468   5.278   4.847  0.6569 -1.2025  1.0242
 5420TIP3    H216267   5.388   5.246   4.972 -0.3186  0.6675  0.9146
 5421TIP3   OH216268   3.157   5.177   0.676 -0.0034 -0.0757  0.5435
 5421TIP3    H116269   3.188   5.266   0.662 -2.5063  1.0856  1.7648
 5421TIP3    H216270   3.127   5.149   0.590  0.6883  0.2770  0.1765
 5422TIP3   OH216271   6.280   5.383   1.714  0.5580 -0.8616  0.6355
 5422TIP3    H116272   6.276   5.476   1.689  1.2182 -1.3406 -1.4239
 5422TIP3    H216273   6.199   5.368   1.762  0.5120  0.8126  1.1535
 5423TIP3   OH216274   5.450   1.685   3.255 -0.0727  0.1931 -0.4584
 5423TIP3    H116275   5.451   1.655   3.164  2.1530 -0.7554 -0.1985
 5423TIP3    H216276   5.512   1.757   3.258 -0.1703  0.2576  0.2942
 5424TIP3   OH216277   0.800   0.370   2.600  0.0441  0.0580 -0.0776
 5424TIP3    H116278   0.720   0.360   2.549 -0.6198  1.4851  0.6299
 5424TIP3    H216279   0.775   0.426   2.673  1.8437  1.0933 -0.1923
 5425TIP3   OH216280   1.686   4.973   1.290 -0.2497 -0.0758 -0.2648
 5425TIP3    H116281   1.647   4.907   1.348  0.3071 -0.9523 -0.8792
 5425TIP3    H216282   1.628   4.975   1.214 -1.0706  1.1907  0.3634
 5426TIP3   OH216283   2.792   1.952   3.750 -0.6068  0.7371  0.1548
 5426TIP3    H116284   2.835   1.980   3.669 -3.2500  1.0368 -1.2643
 5426TIP3    H216285   2.699   1.974   3.737 -1.6344 -1.9460  2.0308
 5427TIP3   OH216286   2.770   0.055   3.741 -0.5122  0.4284 -0.2881
 5427TIP3    H116287   2.785   0.112   3.665 -1.0942 -0.3602 -1.0169
 5427TIP3    H216288   2.757   0.115   3.814 -1.4983  1.2446 -1.1017
 5428TIP3   OH216289   0.724   3.700   4.808 -0.4684 -0.1813  0.0281
 5428TIP3    H116290   0.699   3.783   4.767  1.5545  0.7695  0.5864
 5428TIP3    H216291   0.805   3.675   4.764  0.4422 -0.4014  1.7537
 5429TIP3   OH216292   2.182   5.630   0.637 -0.0095 -0.3632 -0.2569
 5429TIP3    H116293   2.112   5.628   0.571  1.3791 -1.5593 -1.7766
 5429TIP3    H216294   2.233   5.709   0.615 -0.5167  0.1733  0.4685
 5430TIP3   OH216295   1.963   4.377   3.310 -0.5430 -0.8101  0.3620
 5430TIP3    H116296   1.967   4.450   3.372 -0.8933 -1.7825  1.5881
 5430TIP3    H216297   2.055   4.358   3.290 -0.4734  0.7293 -0.9552
 5431TIP3   OH216298   5.019   3.913   4.567  0.2908  0.3828  0.3341
 5431TIP3    H116299   4.928   3.884   4.569  0.6138 -0.8921 -1.1647
 5431TIP3    H216300   5.070   3.834   4.586  1.0965  1.0200  0.8819
 5432TIP3   OH216301   1.681   1.367   2.446  0.2797 -0.2763 -0.1377
 5432TIP3    H116302   1.589   1.385   2.468 -0.4756 -2.4054 -1.2000
 5432TIP3    H216303   1.687   1.384   2.352  0.8673 -0.4961 -0.1450
 5433TIP3   OH216304   2.523   1.413   1.459  0.0934 -0.4049  0.3930
 5433TIP3    H116305   2.507   1.453   1.545 -2.5348  0.7900 -0.5479
 5433TIP3    H216306   2.544   1.488   1.402  0.0076 -0.9587 -0.3798
 5434TIP3   OH216307   3.917   2.806   1.650 -0.0462 -0.2593 -0.4702
 5434TIP3    H116308   3.905   2.714   1.626 -0.3298 -0.4800  0.4857
 5434TIP3    H216309   4.001   2.830   1.610 -0.4020 -0.6550 -1.5008
 5435TIP3   OH216310   1.225   1.753   1.984 -0.4120 -0.4662 -0.1767
 5435TIP3    H116311   1.151   1.725   2.039 -0.0255 -1.9025 -0.3312
 5435TIP3    H216312   1.216   1.701   1.904  0.7235 -0.6104 -0.2252
 5436TIP3   OH216313   6.232   4.152   2.885  0.2253  0.1339  0.9329
 5436TIP3    H116314   6.309   4.144   2.829  0.3579  0.5879  1.0470
 5436TIP3    H216315   6.218   4.246   2.894  0.4556  0.0809  2.0001
 5437TIP3   OH216316   4.375   2.571   4.058  0.4552  0.2728 -0.3514
 5437TIP3    H116317   4.313   2.507   4.023  0.2618 -1.6127  2.9870
 5437TIP3    H216318   4.331   2.606   4.135  1.3493  3.1473 -1.0588
 5438TIP3   OH216319   3.767   2.624   2.897 -0.3306 -0.2826  0.3006
 5438TIP3    H116320   3.739   2.652   2.810  1.0793 -0.9664 -0.4055
 5438TIP3    H216321   3.685   2.609   2.945 -1.1277  0.4511 -0.7831
 5439TIP3   OH216322   3.721   2.457   4.935  0.1520  0.6807  0.2571
 5439TIP3    H116323   3.734   2.536   4.988 -1.2954  0.4123  1.0921
 5439TIP3    H216324   3.754   2.479   4.849  0.9057  1.7680  0.8047
 5440TIP3   OH216325   0.822   3.373   4.355 -0.3408 -0.0957 -0.1871
 5440TIP3    H116326   0.816   3.295   4.299 -1.0878  0.4509 -0.9029
 5440TIP3    H216327   0.739   3.374   4.404 -0.1395 -0.0023  0.1500
 5441TIP3   OH216328   0.923   4.172   0.331 -0.1857 -0.3175  0.4699
 5441TIP3    H116329   0.868   4.200   0.257 -0.6450 -0.7820  0.6270
 5441TIP3    H216330   0.967   4.093   0.298  0.4073  0.0561  0.3419
 5442TIP3   OH216331   2.994   4.176   0.889 -0.2134 -0.2006 -0.5390
 5442TIP3    H116332   3.086   4.200   0.881  0.4240 -1.3559  2.2752
 5442TIP3    H216333   2.956   4.202   0.805  1.9679  3.2000 -0.6768
 5443TIP3   OH216334   0.744   1.290   3.350  0.4358 -0.4307  0.3969
 5443TIP3    H116335   0.730   1.384   3.336  1.3852 -0.2107  0.8677
 5443TIP3    H216336   0.666   1.249   3.313 -0.1220  0.5597  0.4275
 5444TIP3   OH216337   5.231   3.838   4.175 -0.0051  0.0809  0.2212
 5444TIP3    H116338   5.289   3.812   4.247 -0.3538 -0.6958  0.2232
 5444TIP3    H216339   5.176   3.762   4.159 -1.5490  1.0414  0.7250
 5445TIP3   OH216340   1.006   2.408   3.390 -0.0478  1.0565 -0.3162
 5445TIP3    H116341   1.051   2.390   3.473 -1.1869 -0.2602  0.0493
 5445TIP3    H216342   0.970   2.496   3.402  0.0212  0.9878  0.4959
 5446TIP3   OH216343   3.978   3.900   3.832  0.5987 -0.0806 -0.0137
 5446TIP3    H116344   3.962   3.980   3.782  1.4340 -0.1827 -0.4712
 5446TIP3    H216345   3.893   3.858   3.840  0.5121 -0.2985 -1.7818
 5447TIP3   OH216346   3.965   3.595   2.502 -0.1157 -0.0607 -0.2178
 5447TIP3    H116347   4.017   3.515   2.518  0.6933  0.4469 -0.2333
 5447TIP3    H216348   4.019   3.665   2.538 -0.7500  0.4961 -0.3527
 5448TIP3   OH216349   0.296   2.863   2.363  0.7150  0.5320 -0.5056
 5448TIP3    H116350   0.283   2.769   2.357  0.7810  0.5127 -0.3750
 5448TIP3    H216351   0.231   2.892   2.427  1.0663  0.4884 -0.1222
 5449TIP3   OH216352   1.941   1.633   2.982 -0.0532 -0.5258  0.2199
 5449TIP3    H116353   1.938   1.540   2.961 -2.6743 -0.7638  1.2994
 5449TIP3    H216354   1.875   1.673   2.925 -0.2051  0.3691  0.9855
 5450TIP3   OH216355   2.311   2.975   2.058 -0.1319  0.1068 -0.2846
 5450TIP3    H116356   2.289   2.885   2.035  1.9190 -0.6092  0.3851
 5450TIP3    H216357   2.404   2.973   2.079 -0.2724  2.1822  0.8087
 5451TIP3   OH216358   1.199   1.080   0.707  0.1439  0.3043 -0.2884
 5451TIP3    H116359   1.265   1.098   0.775  0.9498  2.7608 -1.6201
 5451TIP3    H216360   1.215   0.989   0.683  0.1152 -0.5205  2.4695
 5452TIP3   OH216361   5.973   3.071   4.503 -0.4113 -0.1329  0.0547
 5452TIP3    H116362   5.967   3.075   4.598 -1.0291  2.0303 -0.0288
 5452TIP3    H216363   6.066   3.072   4.484 -0.2851 -0.6498  0.6272
 5453TIP3   OH216364   2.457   4.753   3.613 -0.5082  0.0977  0.4161
 5453TIP3    H116365   2.436   4.804   3.535 -0.8002 -0.2794  0.2479
 5453TIP3    H216366   2.549   4.727   3.601 -0.9648 -1.1602 -0.4801
 5454TIP3   OH216367   2.869   4.205   0.370  0.2274 -0.1247  0.1427
 5454TIP3    H116368   2.841   4.136   0.430  1.4490 -1.1487 -0.4217
 5454TIP3    H216369   2.886   4.160   0.287 -1.0907  1.2057 -0.9069
 5455TIP3   OH216370   2.352   3.813   1.845  0.4702  0.4382  0.4551
 5455TIP3    H116371   2.403   3.805   1.765 -1.5789 -1.5742 -0.7619
 5455TIP3    H216372   2.373   3.734   1.895 -2.1616 -1.0361 -0.5982
 5456TIP3   OH216373   1.677   4.157   1.515  0.2456 -0.9921  0.0098
 5456TIP3    H116374   1.725   4.172   1.434  1.3867  0.9054  0.9831
 5456TIP3    H216375   1.621   4.233   1.525 -1.0762 -1.9531  0.2455
 5457TIP3   OH216376   4.705   2.695   0.940 -0.1085  0.0204 -0.5502
 5457TIP3    H116377   4.655   2.776   0.945 -0.4089 -0.2245  0.8732
 5457TIP3    H216378   4.641   2.625   0.954  0.2624 -0.4279 -1.0348
 5458TIP3   OH216379   4.889   0.689   1.011 -0.1461 -0.7251  0.1704
 5458TIP3    H116380   4.826   0.621   1.036 -0.6034 -0.3476  0.0569
 5458TIP3    H216381   4.835   0.763   0.984  0.3332  0.0649  1.3150
 5459TIP3   OH216382   1.174   1.403   1.182 -0.2445  0.1263  0.0233
 5459TIP3    H116383   1.228   1.329   1.153  0.0915 -0.2769  1.5798
 5459TIP3    H216384   1.236   1.475   1.194 -0.1031 -0.1707  1.2420
 5460TIP3   OH216385   0.898   5.554   4.393  0.5380 -0.0135  0.0215
 5460TIP3    H116386   0.888   5.626   4.456 -2.3565 -1.9845  2.0718
 5460TIP3    H216387   0.868   5.591   4.310 -0.5944  1.2975  0.9587
 5461TIP3   OH216388   4.969   4.634   4.173  0.5670 -0.4888  0.2437
 5461TIP3    H116389   4.947   4.709   4.228  0.0454 -1.6824  1.7527
 5461TIP3    H216390   5.050   4.659   4.128 -0.1875  1.3642 -0.1352
 5462TIP3   OH216391   3.147   3.422   1.147  0.0961  0.0015 -0.1197
 5462TIP3    H116392   3.171   3.477   1.073 -0.9456  0.1853 -0.3411
 5462TIP3    H216393   3.072   3.371   1.117  0.6981 -1.1567  0.2672
 5463TIP3   OH216394   3.224   3.618   0.946  0.3257  0.4114 -0.2380
 5463TIP3    H116395   3.250   3.650   0.860  0.4119  0.7122 -0.0983
 5463TIP3    H216396   3.219   3.696   1.001  1.5705  0.0866  0.3746
 5464TIP3   OH216397   6.335   3.603   3.265  0.1879  0.7940  0.1704
 5464TIP3    H116398   6.305   3.681   3.313 -0.3048  1.3737 -1.0317
 5464TIP3    H216399   6.295   3.529   3.312 -1.1253  1.4061  0.0702
 5465TIP3   OH216400   4.516   5.358   1.198 -0.4039 -0.6689  0.0188
 5465TIP3    H116401   4.556   5.320   1.276 -0.7665 -3.9297 -1.2302
 5465TIP3    H216402   4.588   5.368   1.136 -0.5280 -0.5179 -0.1037
 5466TIP3   OH216403   5.311   4.146   3.158  0.6628 -1.2658 -0.2355
 5466TIP3    H116404   5.280   4.081   3.222  0.7800 -2.1124 -1.0076
 5466TIP3    H216405   5.340   4.093   3.084 -1.1970 -0.2695 -1.7686
 5467TIP3   OH216406   5.399   4.750   0.047 -0.2534 -0.2966 -0.0605
 5467TIP3    H116407   5.438   4.794  -0.029  0.7345 -1.4008 -0.2219
 5467TIP3    H216408   5.463   4.684   0.072 -0.9954 -0.5817  1.1623
 5468TIP3   OH216409   2.403   1.601   0.693  0.1866  0.2131  0.0280
 5468TIP3    H116410   2.377   1.692   0.683 -1.0843 -0.2967 -1.8526
 5468TIP3    H216411   2.355   1.570   0.770  1.2124  1.2887  1.1394
 5469TIP3   OH216412   5.754   1.945   3.892  0.3062 -0.0169  0.6753
 5469TIP3    H116413   5.720   1.857   3.907 -0.3814  0.2107  0.5214
 5469TIP3    H216414   5.714   1.971   3.809  0.8709  0.2648  0.4890
 5470TIP3   OH216415   1.981   0.377   5.023  0.1341  0.0592 -0.2479
 5470TIP3    H116416   1.905   0.339   5.065 -0.6393  1.4650 -0.3056
 5470TIP3    H216417   2.021   0.432   5.090  0.8052 -0.2517 -0.3774
 5471TIP3   OH216418   1.056   0.292   0.988  0.6176 -0.0164 -0.7946
 5471TIP3    H116419   1.083   0.384   0.982 -0.0809  0.2090 -0.5518
 5471TIP3    H216420   1.086   0.253   0.906 -1.6392  1.1089 -2.2436
 5472TIP3   OH216421   4.492   2.586   2.943  0.2685  0.5141 -0.2543
 5472TIP3    H116422   4.476   2.629   3.027  1.0731  1.4274 -0.5557
 5472TIP3    H216423   4.587   2.587   2.933  0.1246  1.6917 -1.8192
 5473TIP3   OH216424   4.893   3.538   4.812  0.3198 -0.4026 -0.2533
 5473TIP3    H116425   4.865   3.553   4.721  1.0655 -2.5083 -0.8867
 5473TIP3    H216426   4.812   3.525   4.860 -0.0365 -1.8101 -1.1598
 5474TIP3   OH216427   2.281   0.735   0.820  0.0075  0.5957 -0.2381
 5474TIP3    H116428   2.333   0.767   0.746  2.1406  1.1414  1.4107
 5474TIP3    H216429   2.317   0.649   0.840 -1.5212 -0.1892 -0.6821
 5475TIP3   OH216430   1.012   3.668   0.612  0.3698  0.5033 -0.1230
 5475TIP3    H116431   1.025   3.626   0.697  0.5562  0.9886  0.0939
 5475TIP3    H216432   1.058   3.752   0.619  0.2291  0.6303 -0.6382
 5476TIP3   OH216433   3.710   1.850   0.287 -0.1950  0.0770 -0.1005
 5476TIP3    H116434   3.703   1.941   0.257 -1.6127 -0.3672 -1.2680
 5476TIP3    H216435   3.710   1.799   0.206  0.1780 -0.9948  0.5573
 5477TIP3   OH216436   3.375   5.048   4.360 -0.3433 -0.2986  0.1134
 5477TIP3    H116437   3.416   5.094   4.434  0.2045 -0.7815  0.1120
 5477TIP3    H216438   3.337   5.118   4.308 -0.1929  0.0993  0.5243
 5478TIP3   OH216439   4.355   5.216   0.540 -0.5492  0.7061 -0.2105
 5478TIP3    H116440   4.299   5.210   0.618 -1.1596  1.4818 -0.5690
 5478TIP3    H216441   4.408   5.294   0.555  2.2117 -1.2683  1.2126
 5479TIP3   OH216442   4.405   0.190   2.497 -0.1460  0.4137 -0.1655
 5479TIP3    H116443   4.493   0.222   2.521 -0.0018  0.9826 -1.3648
 5479TIP3    H216444   4.345   0.247   2.546  0.1396 -0.4683  1.2534
 5480TIP3   OH216445   0.188   0.691   1.200  0.2531  0.8838  0.1472
 5480TIP3    H116446   0.269   0.728   1.167 -0.6799  0.8307 -2.4382
 5480TIP3    H216447   0.163   0.626   1.135 -1.5593  0.4483  1.1978
 5481TIP3   OH216448   2.789   3.526   1.262  0.2054 -0.4810 -0.1442
 5481TIP3    H116449   2.860   3.583   1.231  1.2363 -1.7384 -0.1864
 5481TIP3    H216450   2.734   3.513   1.184 -1.2143  2.0381  0.3411
 5482TIP3   OH216451   2.838   5.838   4.963  0.6928  0.1513 -0.1099
 5482TIP3    H116452   2.823   5.746   4.941 -1.1747  0.1180  1.0902
 5482TIP3    H216453   2.930   5.853   4.940  0.9498 -1.9002 -0.6584
 5483TIP3   OH216454   5.433   5.897   3.192  0.2508 -0.0145  0.0426
 5483TIP3    H116455   5.527   5.891   3.205  0.3149 -1.3224 -0.9008
 5483TIP3    H216456   5.396   5.890   3.280  1.0011 -0.0894  0.3587
 5484TIP3   OH216457   0.932   4.881   3.979  0.5098 -0.0181 -0.0089
 5484TIP3    H116458   0.839   4.875   3.957  0.4818  0.6527 -0.0796
 5484TIP3    H216459   0.973   4.814   3.925  0.2970  0.9047 -1.3611
 5485TIP3   OH216460   2.619   1.542   3.578 -0.2680 -0.0302  0.1483
 5485TIP3    H116461   2.547   1.546   3.642  1.0054  1.8264  1.5557
 5485TIP3    H216462   2.588   1.594   3.504 -0.5470  0.3930  0.5602
 5486TIP3   OH216463   5.625   3.645   3.421  0.2967  0.1945 -0.2174
 5486TIP3    H116464   5.713   3.611   3.439  1.4481  2.9003 -0.2687
 5486TIP3    H216465   5.567   3.577   3.454  2.3800 -1.6508 -0.0709
 5487TIP3   OH216466   3.374   5.744   2.931 -0.2323  0.1988  0.1268
 5487TIP3    H116467   3.400   5.789   2.850  2.3219 -2.2821 -0.6056
 5487TIP3    H216468   3.406   5.799   3.001  1.7325  0.1896 -0.7083
 5488TIP3   OH216469   1.506   4.644   3.630  0.7496  0.5088  0.0187
 5488TIP3    H116470   1.462   4.639   3.545  1.1384  2.1051 -0.3064
 5488TIP3    H216471   1.581   4.586   3.622 -1.1126 -2.2060  0.5477
 5489TIP3   OH216472   4.541   2.701   2.224  0.1277 -0.1735  0.3088
 5489TIP3    H116473   4.619   2.723   2.276 -0.1598  2.6017 -0.2831
 5489TIP3    H216474   4.551   2.751   2.143 -0.8611 -2.1179 -1.1039
 5490TIP3   OH216475   3.572   1.869   0.547  0.7504  0.1080 -0.5909
 5490TIP3    H116476   3.608   1.837   0.464  0.3082 -0.1281 -0.6947
 5490TIP3    H216477   3.513   1.800   0.576  1.1278  0.0606  0.0733
 5491TIP3   OH216478   5.104   3.722   3.818 -0.0690  0.0309  0.5867
 5491TIP3    H116479   5.149   3.806   3.826  1.2824 -0.1954 -2.7694
 5491TIP3    H216480   5.104   3.704   3.724 -1.7578 -2.9847  1.0272
 5492TIP3   OH216481   1.261   4.514   3.725  0.5599  0.1022  0.2749
 5492TIP3    H116482   1.233   4.488   3.813  1.0581  0.7800  0.6455
 5492TIP3    H216483   1.353   4.540   3.736  0.8889 -0.5950 -0.6084
 5493TIP3   OH216484   2.753   1.302   1.810 -0.0897 -0.5173 -0.7358
 5493TIP3    H116485   2.694   1.254   1.752 -2.0018  3.2115 -2.3043
 5493TIP3    H216486   2.708   1.304   1.894  0.4185 -2.0456 -0.4049
 5494TIP3   OH216487   1.351   1.834   3.476 -0.1385 -0.5922 -0.3741
 5494TIP3    H116488   1.286   1.897   3.507 -1.2054 -2.3681  1.1778
 5494TIP3    H216489   1.323   1.813   3.387  0.3908  1.2447 -1.0331
 5495TIP3   OH216490   2.404   1.205   1.337 -0.1321 -0.4963  0.1529
 5495TIP3    H116491   2.315   1.220   1.307  0.2348  1.0249 -0.2632
 5495TIP3    H216492   2.425   1.282   1.390  0.4584 -1.5005  1.4223
 5496TIP3   OH216493   2.184   5.855   3.596  0.1717  0.1586  0.1790
 5496TIP3    H116494   2.243   5.831   3.668 -1.1727  0.3970  1.4172
 5496TIP3    H216495   2.096   5.840   3.631 -0.5243 -0.4293 -1.6916
 5497TIP3   OH216496   0.272   2.010   2.195  0.3069 -0.5454 -0.1548
 5497TIP3    H116497   0.365   1.988   2.196  0.6681  0.8605  0.0908
 5497TIP3    H216498   0.253   2.038   2.285  0.7521  3.2216 -1.0751
 5498TIP3   OH216499   0.568   0.206   3.147 -0.5550  0.2119 -0.1162
 5498TIP3    H116500   0.558   0.198   3.053  0.9609 -0.3234 -0.2664
 5498TIP3    H216501   0.495   0.260   3.175 -1.0279  0.3731 -1.5959
 5499TIP3   OH216502   2.144   4.501   0.585 -0.2591  0.0190 -0.8997
 5499TIP3    H116503   2.132   4.446   0.663 -0.3936  1.8171  0.4147
 5499TIP3    H216504   2.191   4.445   0.523  0.6026 -1.2104  0.7781
 5500TIP3   OH216505   5.720   3.046   4.141 -0.5192  0.4019 -0.0379
 5500TIP3    H116506   5.811   3.039   4.112 -1.0114  0.6217 -1.7405
 5500TIP3    H216507   5.715   2.991   4.219  0.5862 -1.3496 -1.1319
 5501TIP3   OH216508   5.201   3.340   2.628  0.4865  0.5751 -0.2544
 5501TIP3    H116509   5.184   3.352   2.722 -1.1246  0.0859 -0.4495
 5501TIP3    H216510   5.234   3.250   2.621 -0.9854  0.0124 -0.3071
 5502TIP3   OH216511   5.885   5.150   0.153  0.4941 -0.1325  0.2243
 5502TIP3    H116512   5.940   5.200   0.093  1.5353 -2.0694 -0.5397
 5502TIP3    H216513   5.937   5.141   0.233 -0.1935  1.0045  0.8173
 5503TIP3   OH216514   0.737   0.625   4.910 -0.0015 -0.2138 -0.1032
 5503TIP3    H116515   0.818   0.662   4.875 -0.6045  2.2394  0.8787
 5503TIP3    H216516   0.718   0.678   4.987 -2.4048 -0.8873 -0.1589
 5504TIP3   OH216517   6.164   0.933   2.580 -0.0044 -0.8203  0.1451
 5504TIP3    H116518   6.162   0.964   2.489 -2.1931 -2.6776 -0.5263
 5504TIP3    H216519   6.165   1.013   2.632 -1.1635  0.3507 -1.5049
 5505TIP3   OH216520   0.818   0.845   0.252 -0.1234  0.4972 -0.0463
 5505TIP3    H116521   0.843   0.802   0.170 -1.4148  0.5287 -0.4722
 5505TIP3    H216522   0.877   0.807   0.317 -0.9833 -1.7102 -0.4638
 5506TIP3   OH216523   3.131   3.555   4.537  0.3926  0.0540  0.0412
 5506TIP3    H116524   3.152   3.598   4.454 -2.3194  0.9152 -0.3260
 5506TIP3    H216525   3.114   3.464   4.513  2.5547 -0.4396  0.2110
 5507TIP3   OH216526   1.004   0.148   0.253  0.3614  0.3714 -0.2598
 5507TIP3    H116527   0.915   0.179   0.268  0.2203 -0.1956  0.1316
 5507TIP3    H216528   1.053   0.226   0.229 -0.0421  0.8504  0.4110
 5508TIP3   OH216529   5.633   1.523   0.345  0.0766  0.1676 -0.3273
 5508TIP3    H116530   5.619   1.446   0.290  0.2880  0.0180 -0.1736
 5508TIP3    H216531   5.707   1.499   0.401 -1.7536 -0.6961  1.8825
 5509TIP3   OH216532   3.960   1.535   3.769 -0.3022  0.4427  0.2296
 5509TIP3    H116533   4.007   1.550   3.687 -1.5066 -1.8900 -1.0169
 5509TIP3    H216534   3.921   1.619   3.791  1.2110  1.4637 -0.7880
 5510TIP3   OH216535   4.375   4.184   3.526 -0.0767  0.1714 -0.6335
 5510TIP3    H116536   4.366   4.114   3.591 -4.8208  1.5882  0.6142
 5510TIP3    H216537   4.378   4.138   3.442 -1.8278 -1.6257  0.2105
 5511TIP3   OH216538   3.080   2.876   3.056  0.0497  0.1625  0.0654
 5511TIP3    H116539   2.997   2.865   3.008 -0.6878  1.8344  0.8435
 5511TIP3    H216540   3.117   2.957   3.020  2.1860 -1.3543 -1.3640
 5512TIP3   OH216541   4.806   4.861   0.519 -0.7311 -0.0879  0.1087
 5512TIP3    H116542   4.844   4.783   0.479  0.0887 -0.3167  1.2644
 5512TIP3    H216543   4.715   4.837   0.535 -1.0749  0.0050 -1.5317
 5513TIP3   OH216544   5.171   2.590   5.041  0.2328 -0.0891 -0.2194
 5513TIP3    H116545   5.254   2.542   5.052  0.1171  0.1716  2.1689
 5513TIP3    H216546   5.174   2.620   4.950  4.2660  2.5358  0.4858
 5514TIP3   OH216547   4.798   0.034   3.209  0.2627 -0.4596 -0.3393
 5514TIP3    H116548   4.813   0.044   3.115  0.6513  0.3503 -0.1995
 5514TIP3    H216549   4.734  -0.037   3.216 -0.6232  0.2051 -1.2844
 5515TIP3   OH216550   3.961   2.175   1.140 -0.0899  0.0432 -0.1453
 5515TIP3    H116551   4.005   2.233   1.202 -1.1179 -0.1001  0.7522
 5515TIP3    H216552   3.941   2.231   1.065  1.0112  0.2625 -0.2939
 5516TIP3   OH216553   0.166   0.860   4.626  0.1207 -0.7635 -0.3981
 5516TIP3    H116554   0.084   0.817   4.647 -0.2284  0.0971  0.0456
 5516TIP3    H216555   0.141   0.949   4.600  1.0789  0.6858  3.0425
 5517TIP3   OH216556   0.586   5.039   4.001  0.3394 -0.5190 -0.1570
 5517TIP3    H116557   0.680   5.053   3.992  0.4633 -2.1088 -2.0120
 5517TIP3    H216558   0.555   5.030   3.911 -1.7829  0.9360  0.3585
 5518TIP3   OH216559   5.497   5.356   1.342  0.1377  0.4678  0.0090
 5518TIP3    H116560   5.577   5.305   1.359  0.1739  0.8166  0.9246
 5518TIP3    H216561   5.514   5.401   1.260  0.8866  0.5253  0.1880
 5519TIP3   OH216562   4.307   1.072   4.118 -0.3181 -0.2090 -0.6393
 5519TIP3    H116563   4.398   1.080   4.090 -0.2223 -0.5909 -0.4395
 5519TIP3    H216564   4.282   1.162   4.142 -0.2993  0.0710 -1.6133
 5520TIP3   OH216565   0.009   5.335   1.301  0.2642  0.3321 -0.3027
 5520TIP3    H116566   0.070   5.318   1.229 -1.3462  0.2268 -1.7250
 5520TIP3    H216567   0.026   5.426   1.326  0.1885  0.7075 -1.5271
 5521TIP3   OH216568   0.212   0.363   3.434 -0.2179 -0.0164 -0.4019
 5521TIP3    H116569   0.147   0.315   3.486 -1.1256  1.5915  0.0403
 5521TIP3    H216570   0.232   0.440   3.487 -0.1127  0.9657 -1.8132
 5522TIP3   OH216571   6.253   0.700   0.128  0.4458 -0.0228  0.4309
 5522TIP3    H116572   6.207   0.737   0.053 -0.4745 -2.5445 -0.3717
 5522TIP3    H216573   6.307   0.630   0.090 -0.0913 -1.4023  2.1145
 5523TIP3   OH216574   0.395   2.033   3.416 -0.0992  0.5184  0.4058
 5523TIP3    H116575   0.349   1.970   3.472  1.3613 -0.1433  0.9109
 5523TIP3    H216576   0.420   1.983   3.338  0.1408  0.7533  0.3280
 5524TIP3   OH216577   4.424   0.793   3.126  0.7320 -0.4284  0.0925
 5524TIP3    H116578   4.345   0.819   3.078 -3.0069 -5.3782  2.6375
 5524TIP3    H216579   4.415   0.836   3.211  1.4230 -0.1355  0.0221
 5525TIP3   OH216580   2.827   0.859   5.052  0.6627 -0.0009 -0.0569
 5525TIP3    H116581   2.762   0.840   4.984 -0.6265  2.1828  0.4777
 5525TIP3    H216582   2.828   0.954   5.059  1.3549 -0.1191  2.4077
 5526TIP3   OH216583   0.511   4.781   3.098  0.1681  0.0825 -0.3869
 5526TIP3    H116584   0.503   4.845   3.027  0.3102 -0.8971 -1.2942
 5526TIP3    H216585   0.604   4.762   3.103  0.0541 -0.5164 -0.5342
 5527TIP3   OH216586   2.579   1.911   1.185 -0.4409 -0.1649  0.1174
 5527TIP3    H116587   2.624   1.921   1.101 -0.2118  1.1717  0.3709
 5527TIP3    H216588   2.631   1.846   1.233  1.0843  1.1241  0.2925
 5528TIP3   OH216589   1.852   0.357   1.027 -0.2800  0.0919 -0.1744
 5528TIP3    H116590   1.763   0.323   1.035 -0.4599  0.5869 -0.0338
 5528TIP3    H216591   1.841   0.448   1.000  0.2519 -0.5017 -2.6345
 5529TIP3   OH216592   0.874   5.475   0.650 -0.1318 -0.1769 -0.4970
 5529TIP3    H116593   0.949   5.526   0.680 -1.1697  1.5013 -0.5984
 5529TIP3    H216594   0.869   5.401   0.710  0.4211  0.7691  0.7703
 5530TIP3   OH216595   0.689   2.942   4.811  0.5504 -0.2314  0.3726
 5530TIP3    H116596   0.755   2.955   4.743 -2.1012 -0.1906 -2.3942
 5530TIP3    H216597   0.642   3.025   4.815  0.3293 -0.3963  1.9839
 5531TIP3   OH216598   1.705   1.789   0.628 -0.1202  0.1124 -0.2009
 5531TIP3    H116599   1.631   1.846   0.649 -1.7497 -0.8761 -2.7616
 5531TIP3    H216600   1.694   1.713   0.684 -1.8605 -0.5765 -1.3809
 5532TIP3   OH216601   4.196   3.379   3.426 -0.3104 -0.3352 -0.1563
 5532TIP3    H116602   4.175   3.352   3.337 -0.4096  0.8354 -0.5075
 5532TIP3    H216603   4.210   3.474   3.420 -1.8870  0.0499  1.3294
 5533TIP3   OH216604   2.690   3.051   1.898 -0.1960 -0.5148 -0.5482
 5533TIP3    H116605   2.735   2.966   1.903 -1.7249 -1.3220  0.4389
 5533TIP3    H216606   2.650   3.051   1.811  1.8214  0.3172 -1.5311
 5534TIP3   OH216607   4.116   2.046   4.798 -0.0548  0.0504 -0.2406
 5534TIP3    H116608   4.044   2.100   4.766  0.5518  1.6597  0.9794
 5534TIP3    H216609   4.177   2.041   4.724 -0.1939  0.9233 -0.4212
 5535TIP3   OH216610   2.921   0.900   4.237 -0.3514  0.1965 -0.4788
 5535TIP3    H116611   2.886   0.908   4.149  1.9245  2.0642 -1.2989
 5535TIP3    H216612   2.882   0.972   4.286 -0.6538 -0.0924 -0.2880
 5536TIP3   OH216613   3.130   5.724   4.283 -0.2735  0.3128 -0.8069
 5536TIP3    H116614   3.060   5.659   4.273  0.4524 -0.6019 -0.1441
 5536TIP3    H216615   3.186   5.711   4.206 -0.2334  0.2780 -0.7723
 5537TIP3   OH216616   0.179   2.398   1.289  0.4184  0.3624  0.1894
 5537TIP3    H116617   0.264   2.432   1.263  1.4735 -2.7466 -0.8012
 5537TIP3    H216618   0.132   2.387   1.206 -0.3727  0.5302  0.6035
 5538TIP3   OH216619   0.089   5.729   2.850  0.5672 -0.5426  0.1534
 5538TIP3    H116620   0.039   5.650   2.830  0.1525 -0.2717  0.1019
 5538TIP3    H216621   0.175   5.697   2.877  0.1265 -1.0510  0.9873
 5539TIP3   OH216622   1.975   4.657   3.866  0.5836 -0.6348  0.4501
 5539TIP3    H116623   2.064   4.678   3.838  0.0431  0.9785 -0.1300
 5539TIP3    H216624   1.937   4.741   3.891 -0.3445 -1.4748  2.0197
 5540TIP3   OH216625   2.945   5.115   3.009 -0.2231 -0.0944  0.0024
 5540TIP3    H116626   2.954   5.209   3.022 -0.3518 -0.1928  0.9441
 5540TIP3    H216627   2.945   5.079   3.098  0.2855 -1.0266 -0.3567
 5541TIP3   OH216628   2.028   2.710   0.395 -0.1455 -0.6983  0.2163
 5541TIP3    H116629   1.964   2.718   0.466  1.0203 -1.6335  1.4348
 5541TIP3    H216630   2.103   2.761   0.425 -0.0745 -0.1476 -0.8875
 5542TIP3   OH216631   2.486   0.336   4.927 -0.5150 -0.4411 -0.8631
 5542TIP3    H116632   2.414   0.392   4.899 -0.9905 -0.9951 -0.7534
 5542TIP3    H216633   2.498   0.355   5.020 -0.5326 -0.3610 -0.8776
 5543TIP3   OH216634   6.215   0.446   3.364  0.0634  0.2724 -0.6868
 5543TIP3    H116635   6.280   0.491   3.418 -0.7527  1.4491 -0.6517
 5543TIP3    H216636   6.267   0.399   3.299  1.1020 -1.7665  1.4892
 5544TIP3   OH216637   4.199   2.382   0.040  0.4055 -0.7231 -0.8513
 5544TIP3    H116638   4.208   2.449  -0.028  0.4143  2.2067  1.8074
 5544TIP3    H216639   4.268   2.402   0.103  0.8799 -3.7751 -0.2532
 5545TIP3   OH216640   5.206   0.185   2.571  0.2169 -0.1035  0.0672
 5545TIP3    H116641   5.224   0.170   2.479  0.3529 -0.7373  0.1967
 5545TIP3    H216642   5.110   0.180   2.578  0.1650  0.5565 -0.1433
 5546TIP3   OH216643   4.055   2.405   0.685  0.0095 -0.3159  0.4123
 5546TIP3    H116644   4.144   2.439   0.693  0.5887 -0.8336 -2.5859
 5546TIP3    H216645   4.011   2.466   0.626 -1.7233 -0.0035  1.9444
 5547TIP3   OH216646   4.789   3.924   3.204 -0.5883 -0.4777  0.3061
 5547TIP3    H116647   4.734   3.847   3.214 -1.9844  0.4760  0.2984
 5547TIP3    H216648   4.732   3.990   3.164  1.0717  0.0181 -1.4216
 5548TIP3   OH216649   5.737   0.782   0.265  0.0271  0.0316  0.5051
 5548TIP3    H116650   5.641   0.777   0.258  0.0499  0.2973 -0.0346
 5548TIP3    H216651   5.764   0.691   0.278 -0.1588 -0.3202 -1.3408
 5549TIP3   OH216652   6.299   2.177   2.977  0.4677  0.2555  0.0697
 5549TIP3    H116653   6.267   2.090   2.999  2.8674 -0.9793 -0.8802
 5549TIP3    H216654   6.249   2.202   2.900 -0.7544  0.0584  0.7812
 5550TIP3   OH216655   3.558   3.252   0.468 -0.2487 -0.0905 -0.8800
 5550TIP3    H116656   3.552   3.281   0.560  0.1072 -0.4654 -0.7395
 5550TIP3    H216657   3.507   3.171   0.466 -1.8588  0.8851 -1.4316
 5551TIP3   OH216658   5.402   2.193   3.584 -0.3430 -0.5465 -0.8146
 5551TIP3    H116659   5.403   2.142   3.665 -1.1067  0.5504 -0.0927
 5551TIP3    H216660   5.334   2.151   3.531  0.9763 -2.0236 -1.4372
 5552TIP3   OH216661   3.959   0.088   3.012 -0.3292  0.2809 -0.3028
 5552TIP3    H116662   3.938   0.013   2.956  1.1128  0.1459 -0.7087
 5552TIP3    H216663   3.874   0.120   3.042 -0.9820 -2.4439  1.1300
 5553TIP3   OH216664   5.591   5.946   1.094  0.1165 -0.2091  0.3360
 5553TIP3    H116665   5.669   5.899   1.124 -0.7352 -0.6865  1.9430
 5553TIP3    H216666   5.614   5.977   1.007  1.4871 -1.7998  0.0695
 5554TIP3   OH216667   3.855  -0.017   1.010  0.7744  0.0151  0.0525
 5554TIP3    H116668   3.773  -0.049   0.973  0.2494  0.9503  0.3617
 5554TIP3    H216669   3.835   0.071   1.041  2.4659  1.1645 -1.8647
 5555TIP3   OH216670   3.695   4.447   1.902 -0.4001 -0.2561  0.1971
 5555TIP3    H116671   3.703   4.495   1.820 -0.0880 -0.0841  0.3251
 5555TIP3    H216672   3.781   4.458   1.944 -1.1898  1.4195  1.5000
 5556TIP3   OH216673   4.818   0.500   0.021  0.5816  0.3076  0.2451
 5556TIP3    H116674   4.834   0.419  -0.027 -0.6438 -0.4460  1.0331
 5556TIP3    H216675   4.869   0.491   0.101  2.1580  1.3011 -0.6140
 5557TIP3   OH216676   5.452   2.970   0.740  0.1986 -0.0654  0.3778
 5557TIP3    H116677   5.456   2.980   0.645 -1.2657  0.7647  0.3788
 5557TIP3    H216678   5.538   3.000   0.770  1.1106 -1.4360 -0.7295
 5558TIP3   OH216679   4.197   3.600   4.626 -0.1805  0.8621  0.2264
 5558TIP3    H116680   4.167   3.624   4.538 -1.6523  1.8958  0.9682
 5558TIP3    H216681   4.163   3.670   4.682  0.9214  0.3297  1.5980
 5559TIP3   OH216682   5.071   1.932   3.866  0.4812  0.0924 -0.4245
 5559TIP3    H116683   5.116   1.867   3.920  0.2991  0.4638  0.1938
 5559TIP3    H216684   5.128   2.009   3.869 -0.2163  0.6023  0.4511
 5560TIP3   OH216685   4.000   5.791   2.358 -0.5178  0.0862 -0.1620
 5560TIP3    H116686   4.027   5.781   2.267  0.0505 -0.0630  0.0170
 5560TIP3    H216687   3.918   5.742   2.365  0.8547 -2.2847  0.0637
 5561TIP3   OH216688   1.569   2.968   4.756  0.0769 -0.5696 -0.1904
 5561TIP3    H116689   1.588   3.023   4.680 -0.8248 -0.1307 -0.1207
 5561TIP3    H216690   1.653   2.952   4.798  0.5527 -0.6257 -1.1524
 5562TIP3   OH216691   6.184   3.263   2.635  0.4879 -0.2516  0.4819
 5562TIP3    H116692   6.271   3.303   2.635  0.2035  0.5028  2.8322
 5562TIP3    H216693   6.134   3.315   2.572  0.8224  1.5459  1.6257
 5563TIP3   OH216694   1.924   2.955   2.207  0.7544 -0.3714 -0.0371
 5563TIP3    H116695   1.990   3.004   2.157 -0.3030 -0.0868 -1.1954
 5563TIP3    H216696   1.938   2.982   2.298  2.6310 -0.7938 -0.1663
 5564TIP3   OH216697   0.174   1.623   1.147  0.0108  0.1563  0.7054
 5564TIP3    H116698   0.185   1.564   1.220 -0.7847  0.7716  1.3428
 5564TIP3    H216699   0.177   1.711   1.186  0.9490  0.5425 -0.1834
 5565TIP3   OH216700   2.292   3.206   3.503  0.1699  0.0712  0.4789
 5565TIP3    H116701   2.329   3.273   3.561  1.5213 -1.6782  1.7506
 5565TIP3    H216702   2.200   3.202   3.528  0.2473  0.9229  0.9370
 5566TIP3   OH216703   0.910   1.062   0.643  0.3882  0.0286  0.0501
 5566TIP3    H116704   0.984   1.089   0.698  0.6707 -0.8473  0.1191
 5566TIP3    H216705   0.947   1.057   0.555  1.5644 -4.2243  0.5597
 5567TIP3   OH216706   3.868   3.143   4.240 -0.2367 -0.3679  0.4383
 5567TIP3    H116707   3.839   3.220   4.191  0.2043  0.0118  0.7660
 5567TIP3    H216708   3.910   3.179   4.318  1.8870 -0.8493 -0.4224
 5568TIP3   OH216709   6.293   3.250   1.524 -0.1783  0.1403  0.2827
 5568TIP3    H116710   6.234   3.177   1.504  1.7004 -1.4336  0.1781
 5568TIP3    H216711   6.304   3.295   1.441 -1.4052  0.6114  0.3593
 5569TIP3   OH216712   2.720   1.078   3.232  0.2570  0.2650  0.2095
 5569TIP3    H116713   2.722   1.147   3.298  1.8117  0.1118  0.3473
 5569TIP3    H216714   2.629   1.047   3.233 -0.8146  3.0797 -0.6975
 5570TIP3   OH216715   0.563   2.642   2.334 -0.1866 -0.0879 -0.0576
 5570TIP3    H116716   0.468   2.648   2.331 -0.1736  2.5911  1.6694
 5570TIP3    H216717   0.583   2.615   2.423  0.6853 -1.8033 -0.7382
 5571TIP3   OH216718   1.880   1.502   0.576 -0.1220 -0.2776 -0.2701
 5571TIP3    H116719   1.830   1.555   0.638  0.3277  0.4436 -0.5024
 5571TIP3    H216720   1.971   1.513   0.604  0.3634  1.9450 -2.3664
 5572TIP3   OH216721   1.923   5.234   2.022  0.1049  0.1505  0.8313
 5572TIP3    H116722   1.947   5.313   1.973 -0.2102  0.9856  1.9717
 5572TIP3    H216723   1.907   5.266   2.111 -0.2549 -1.1776  1.2564
 5573TIP3   OH216724   4.406   3.045   2.966 -0.1410 -0.1867 -0.3136
 5573TIP3    H116725   4.464   3.005   3.031 -0.5561 -1.4683 -0.7024
 5573TIP3    H216726   4.323   3.000   2.977 -0.9847  1.3576 -0.0305
 5574TIP3   OH216727   2.242   2.173   2.338  0.8048 -0.2827 -0.5679
 5574TIP3    H116728   2.330   2.138   2.328  0.6322 -0.6891 -0.7278
 5574TIP3    H216729   2.190   2.097   2.367  0.7275  0.2025  0.6323
 5575TIP3   OH216730   1.495   4.135   5.128  0.9597 -0.0341  0.2143
 5575TIP3    H116731   1.508   4.041   5.130 -0.3997 -0.2530 -0.2767
 5575TIP3    H216732   1.571   4.169   5.080  1.5969 -0.8341  0.6342
 5576TIP3   OH216733   4.723   1.057   1.972  0.0014 -0.4802 -0.0268
 5576TIP3    H116734   4.697   0.991   2.036 -0.5641  1.7586  2.2112
 5576TIP3    H216735   4.668   1.133   1.992  0.3396  0.5836 -2.7426
 5577TIP3   OH216736   3.771   2.028   4.146 -0.4462  0.5619 -0.1096
 5577TIP3    H116737   3.838   2.096   4.140  0.1981 -0.1678 -1.6522
 5577TIP3    H216738   3.813   1.957   4.194 -0.4383  0.4706 -0.2517
 5578TIP3   OH216739   3.012   1.947   4.935 -0.0657 -0.2643  0.6716
 5578TIP3    H116740   3.091   1.992   4.902 -1.9338  3.5228  0.7629
 5578TIP3    H216741   2.977   1.901   4.859 -1.2325  3.6429 -1.4313
 5579TIP3   OH216742   1.465   1.688   3.107  0.0293  0.3058 -0.5126
 5579TIP3    H116743   1.525   1.704   3.180 -0.8035 -0.1862  0.3008
 5579TIP3    H216744   1.384   1.732   3.133 -0.9327 -1.5642 -0.1746
 5580TIP3   OH216745   4.926   3.814   0.672  0.2231 -0.5844  0.2207
 5580TIP3    H116746   4.839   3.852   0.681  1.1903  1.6179  1.0438
 5580TIP3    H216747   4.946   3.778   0.759  1.5013  2.2315  1.2017
 5581TIP3   OH216748   1.063   2.727   2.973  0.0820 -0.2727  0.1380
 5581TIP3    H116749   1.086   2.719   3.066 -2.8893 -1.4131  0.9015
 5581TIP3    H216750   1.143   2.757   2.931  1.3487  1.0133  3.1649
 5582TIP3   OH216751   2.007   2.563   2.045  0.5734 -0.3973 -0.1648
 5582TIP3    H116752   2.091   2.577   2.087  0.0887 -1.9247  1.4267
 5582TIP3    H216753   2.010   2.472   2.014 -0.3231 -0.3239 -0.5041
 5583TIP3   OH216754   3.983   5.042   4.589 -0.2760 -0.3412 -0.3555
 5583TIP3    H116755   3.952   5.082   4.670  1.9853 -0.9137  0.8642
 5583TIP3    H216756   4.039   5.108   4.549 -0.4452 -0.4989 -0.8691
 5584TIP3   OH216757   5.397   0.813   2.192 -0.1984  0.8069  0.0184
 5584TIP3    H116758   5.373   0.804   2.285  0.9962  0.4388  0.3005
 5584TIP3    H216759   5.475   0.869   2.193  2.0965 -2.1529 -0.4195
 5585TIP3   OH216760   5.360   5.418   3.376  0.7000  0.0759  0.2688
 5585TIP3    H116761   5.318   5.332   3.382 -0.1139  0.4732  0.3461
 5585TIP3    H216762   5.445   5.400   3.336  0.5545 -0.7692  0.3155
 5586TIP3   OH216763   4.877   4.245   0.813  0.1379 -0.0290  0.4170
 5586TIP3    H116764   4.898   4.210   0.726  1.1090  1.8437 -0.1434
 5586TIP3    H216765   4.788   4.279   0.803  0.5263  0.8723 -0.0942
 5587TIP3   OH216766   3.370   1.226   3.897 -0.4010 -0.2528  0.1609
 5587TIP3    H116767   3.286   1.272   3.906  0.3575  1.5996 -1.5454
 5587TIP3    H216768   3.394   1.239   3.805  2.4906  0.6184  0.9563
 5588TIP3   OH216769   1.647   3.846   0.368  0.3769 -0.4036 -0.1913
 5588TIP3    H116770   1.603   3.922   0.408 -0.7468 -0.5735 -1.0574
 5588TIP3    H216771   1.693   3.804   0.441  1.3741  1.3389  0.2302
 5589TIP3   OH216772   6.324   0.427   4.002  0.5258  0.4174  0.6210
 5589TIP3    H116773   6.264   0.423   4.076  0.4180 -0.4962  0.5069
 5589TIP3    H216774   6.301   0.508   3.956  0.2515  0.7268  1.2955
 5590TIP3   OH216775   6.023   3.882   0.204 -0.3609 -0.3186 -0.1022
 5590TIP3    H116776   5.999   3.789   0.199  1.9903 -1.1204  1.4818
 5590TIP3    H216777   6.114   3.884   0.175  0.3706  1.0737  2.0193
 5591TIP3   OH216778   0.343   2.180   1.640 -0.0521  0.0096  0.4473
 5591TIP3    H116779   0.292   2.112   1.597  0.4545  0.6273 -1.2053
 5591TIP3    H216780   0.304   2.262   1.609  2.1053  0.5096 -1.1562
 5592TIP3   OH216781   4.990   5.599   0.419 -0.5268 -0.1576 -0.1672
 5592TIP3    H116782   4.999   5.519   0.367  2.1567 -2.0669  2.7761
 5592TIP3    H216783   5.042   5.664   0.373 -1.6729 -0.4339 -1.9528
 5593TIP3   OH216784   5.209   0.474   3.046 -0.2899  0.0557  0.0629
 5593TIP3    H116785   5.299   0.467   3.076  0.3901 -0.2971 -1.9417
 5593TIP3    H216786   5.181   0.561   3.075  1.4696  1.1085 -1.1871
 5594TIP3   OH216787   0.703   2.449   0.757 -0.6071 -0.4811 -0.5041
 5594TIP3    H116788   0.669   2.360   0.751 -0.9094 -0.2942 -1.6888
 5594TIP3    H216789   0.671   2.493   0.679  0.6580  0.2856 -0.6282
 5595TIP3   OH216790   5.637   0.255   4.653  0.1714 -0.3979 -0.2120
 5595TIP3    H116791   5.713   0.283   4.601 -0.1490 -0.7967 -0.9024
 5595TIP3    H216792   5.566   0.246   4.590 -0.3970 -0.2825  0.3934
 5596TIP3   OH216793   1.699   4.859   1.646  0.3096  0.6080  0.1878
 5596TIP3    H116794   1.618   4.850   1.596  1.3039  0.0488 -1.3857
 5596TIP3    H216795   1.706   4.952   1.666  0.8066  1.1840 -2.3918
 5597TIP3   OH216796   4.107   2.694   1.956 -0.0058  0.0106  0.0962
 5597TIP3    H116797   4.060   2.775   1.972 -0.4641  0.4437 -2.9697
 5597TIP3    H216798   4.196   2.722   1.933 -0.3034 -0.2868 -1.4835
 5598TIP3   OH216799   0.874   3.810   3.021 -0.1334 -0.0746 -0.2815
 5598TIP3    H116800   0.937   3.751   3.064 -0.9310  0.2553  1.4301
 5598TIP3    H216801   0.865   3.775   2.933  1.4702 -0.8901 -0.1686
 5599TIP3   OH216802   2.237   3.272   1.427  0.1000 -0.0734 -0.0781
 5599TIP3    H116803   2.158   3.243   1.471  0.1362 -0.8889 -0.5241
 5599TIP3    H216804   2.308   3.254   1.489 -0.1807  2.0901  0.9615
 5600TIP3   OH216805   0.455   5.399   1.177 -0.5466  0.2753 -0.0205
 5600TIP3    H116806   0.484   5.334   1.113 -0.6061 -0.0941  0.3206
 5600TIP3    H216807   0.461   5.354   1.261 -1.1069  0.5330  0.1641
 5601TIP3   OH216808   0.091   4.008   1.016 -0.0893 -0.4961 -0.2958
 5601TIP3    H116809   0.040   4.068   1.069  0.1064 -0.2524 -0.3773
 5601TIP3    H216810   0.052   4.014   0.929 -1.6072 -2.2941  0.2046
 5602TIP3   OH216811   5.038   3.807   3.250  0.0265  0.1890 -0.6295
 5602TIP3    H116812   5.082   3.869   3.191 -0.2799  1.1529  0.1343
 5602TIP3    H216813   4.952   3.845   3.265  0.3385  0.3544  0.9939
 5603TIP3   OH216814   2.131   4.789   1.944 -0.0784  0.3282 -0.1283
 5603TIP3    H116815   2.039   4.783   1.969 -0.5496  1.0420 -1.5584
 5603TIP3    H216816   2.179   4.751   2.018 -1.6693 -2.8909 -0.5748
 5604TIP3   OH216817   4.390   5.938   3.732  0.2196  0.1857  0.1935
 5604TIP3    H116818   4.335   6.017   3.735  0.3788  0.4356 -1.9641
 5604TIP3    H216819   4.477   5.970   3.711  0.2900 -0.5368 -0.6961
 5605TIP3   OH216820   2.435   0.762   4.235  0.2777  0.5885  0.0915
 5605TIP3    H116821   2.494   0.824   4.279  3.5437 -1.5126 -0.9591
 5605TIP3    H216822   2.404   0.809   4.158  1.8612  1.3388 -0.1372
 5606TIP3   OH216823   5.562   4.705   2.710  0.5163 -0.3460 -0.1799
 5606TIP3    H116824   5.534   4.768   2.776  2.1415 -0.2541  0.4654
 5606TIP3    H216825   5.504   4.630   2.723  0.9961 -0.4483  1.5648
 5607TIP3   OH216826   0.188   3.098   2.715  0.0204  0.5767  0.0292
 5607TIP3    H116827   0.211   3.191   2.722  1.0765  0.2449  1.3234
 5607TIP3    H216828   0.269   3.055   2.688 -1.0542  0.2761 -3.1966
 5608TIP3   OH216829   3.302   4.265   4.254  0.0436  0.3576 -0.3997
 5608TIP3    H116830   3.235   4.200   4.234 -0.2983  0.4611  0.3627
 5608TIP3    H216831   3.353   4.273   4.173  0.4204 -1.2372 -0.3712
 5609TIP3   OH216832   2.134   3.130   1.172  0.0023  0.0741 -0.2389
 5609TIP3    H116833   2.127   3.035   1.182 -3.4943  0.0721 -1.3127
 5609TIP3    H216834   2.172   3.160   1.254  1.0969 -2.2133  0.1747
 5610TIP3   OH216835   4.437   1.885   2.362  0.2952 -0.3232 -0.2963
 5610TIP3    H116836   4.368   1.945   2.389 -0.7843 -1.1754 -1.0821
 5610TIP3    H216837   4.484   1.865   2.443 -0.4691  0.1351  0.2770
 5611TIP3   OH216838   6.030   1.546   3.551 -0.3008  0.3628  0.1564
 5611TIP3    H116839   6.105   1.603   3.532 -0.0694  0.4291  1.1947
 5611TIP3    H216840   6.040   1.472   3.490  0.0682  0.8364 -0.3701
 5612TIP3   OH216841   3.906   2.276   0.118  0.4867 -1.0661 -0.3292
 5612TIP3    H116842   3.999   2.291   0.133  0.4003 -1.0050  0.1559
 5612TIP3    H216843   3.886   2.326   0.040  0.3331  0.8541  0.8932
 5613TIP3   OH216844   3.514   0.860   0.027  0.2217 -0.0704  0.0739
 5613TIP3    H116845   3.555   0.773   0.028 -0.1368 -0.2523  2.1881
 5613TIP3    H216846   3.563   0.910   0.092  0.0687  1.1726 -0.7396
 5614TIP3   OH216847   6.025   3.896   1.821 -0.2079  0.3027  0.2952
 5614TIP3    H116848   6.003   3.803   1.814 -0.1082  0.1824  1.3941
 5614TIP3    H216849   5.950   3.935   1.866 -1.3312  1.2209 -2.2027
 5615TIP3   OH216850   0.111   3.062   2.129  0.5419 -0.1710 -0.1647
 5615TIP3    H116851   0.070   3.049   2.214  2.1265  0.0562  0.6788
 5615TIP3    H216852   0.098   3.155   2.110  1.9858  0.2747  0.8620
 5616TIP3   OH216853   3.259   3.370   0.484 -0.2418 -0.2940 -0.7789
 5616TIP3    H116854   3.303   3.378   0.569 -1.2697 -1.8522 -0.0573
 5616TIP3    H216855   3.169   3.347   0.505 -0.6468 -0.2149 -2.2975
 5617TIP3   OH216856   3.703   0.157   4.037 -0.0884 -0.4661  0.0092
 5617TIP3    H116857   3.779   0.129   4.089 -0.4804  0.5509  1.1926
 5617TIP3    H216858   3.664   0.075   4.006  0.5554 -1.0800  0.7616
 5618TIP3   OH216859   1.283   0.811   4.327  0.2104  0.2778 -0.0754
 5618TIP3    H116860   1.346   0.798   4.398  0.3807  0.8393 -0.1225
 5618TIP3    H216861   1.283   0.905   4.311 -1.4637  0.4414  0.6859
 5619TIP3   OH216862   3.416   5.794   3.327  0.1614  0.0953 -0.0862
 5619TIP3    H116863   3.410   5.865   3.263  0.0246 -0.4510 -0.6886
 5619TIP3    H216864   3.508   5.792   3.353  0.1432  0.5682  0.0207
 5620TIP3   OH216865   6.120   5.064   3.085 -0.3004  0.0387  0.1889
 5620TIP3    H116866   6.206   5.065   3.043  0.2687 -0.7028  1.2682
 5620TIP3    H216867   6.093   5.155   3.087 -0.3736  0.1025 -1.7735
 5621TIP3   OH216868   3.476   5.885   1.429  0.2886  0.0800  0.3720
 5621TIP3    H116869   3.432   5.970   1.440  0.2031  0.0944 -0.0547
 5621TIP3    H216870   3.496   5.857   1.518  0.4378  0.6139  0.5120
 5622TIP3   OH216871   3.943   5.104   0.409 -0.4724 -0.1497 -0.0114
 5622TIP3    H116872   4.015   5.167   0.400  0.1744 -0.7307  0.8121
 5622TIP3    H216873   3.905   5.097   0.322 -0.8361  1.6815 -0.0457
 5623TIP3   OH216874   4.222   4.749   0.215  0.1857  0.3162  0.3193
 5623TIP3    H116875   4.311   4.736   0.249  0.8894  2.6766 -0.4302
 5623TIP3    H216876   4.168   4.756   0.294  0.9719  0.6842  0.8403
 5624TIP3   OH216877   3.272   3.177   4.460  0.3848 -0.3716 -0.1681
 5624TIP3    H116878   3.289   3.157   4.368  1.1688  0.6802 -0.2763
 5624TIP3    H216879   3.190   3.227   4.459  0.5160 -0.1609 -0.3172
 5625TIP3   OH216880   2.107   2.090   3.410 -0.8481  0.2072  0.2958
 5625TIP3    H116881   2.028   2.039   3.390 -1.7129  1.5403  0.2289
 5625TIP3    H216882   2.153   2.097   3.326  0.4088 -2.2461  0.6945
 5626TIP3   OH216883   1.474   2.156   5.185  0.3509  0.1076 -0.0442
 5626TIP3    H116884   1.484   2.071   5.141  0.6864 -0.9340  1.9108
 5626TIP3    H216885   1.489   2.221   5.116  1.7342 -1.4135 -1.2667
 5627TIP3   OH216886   4.127   2.356   1.271 -0.6750  0.4295  0.5788
 5627TIP3    H116887   4.209   2.388   1.234 -0.6811  0.9566  1.0166
 5627TIP3    H216888   4.153   2.316   1.355 -0.6744 -0.6666  0.0774
 5628TIP3   OH216889   1.366   0.202   1.472  0.0049 -0.4832  0.2382
 5628TIP3    H116890   1.337   0.229   1.559 -1.0072  1.0228 -0.5194
 5628TIP3    H216891   1.457   0.232   1.466  0.4495 -1.5601  1.1298
 5629TIP3   OH216892   1.728   5.454   2.773  0.3052  0.0928 -0.3754
 5629TIP3    H116893   1.749   5.361   2.762  0.8173 -0.0156  1.2172
 5629TIP3    H216894   1.636   5.462   2.748 -0.0680 -1.0866  0.5303
 5630TIP3   OH216895   2.147   1.403   1.675 -0.5968  0.3162  0.1431
 5630TIP3    H116896   2.111   1.365   1.754 -1.1892  1.4936  0.4673
 5630TIP3    H216897   2.184   1.487   1.703  0.7935 -0.0379 -0.5178
 5631TIP3   OH216898   1.349   5.169   2.459 -0.0680  0.1208  0.7050
 5631TIP3    H116899   1.435   5.210   2.467 -0.2480  0.3512  1.5167
 5631TIP3    H216900   1.352   5.094   2.518 -0.0588 -0.5146 -0.0796
 5632TIP3   OH216901   5.097   5.071   4.119  0.4998 -0.1488 -0.2293
 5632TIP3    H116902   5.185   5.097   4.147  0.3742 -0.3984  0.4303
 5632TIP3    H216903   5.074   5.132   4.049  1.3716 -0.3652 -0.7024
 5633TIP3   OH216904   2.733   1.313   4.763 -0.6003  0.9650 -0.2235
 5633TIP3    H116905   2.729   1.357   4.678 -4.0868 -0.4377 -0.9629
 5633TIP3    H216906   2.741   1.384   4.826  1.0786  2.1128 -1.6346
 5634TIP3   OH216907   5.037   4.816   4.572  0.0261  0.5258 -0.3312
 5634TIP3    H116908   5.114   4.778   4.614  0.2442  0.5154 -0.7293
 5634TIP3    H216909   4.978   4.840   4.644 -0.2436 -0.8340 -0.0787
 5635TIP3   OH216910   3.591   1.329   4.311  0.1710 -0.6200 -0.1858
 5635TIP3    H116911   3.604   1.255   4.252 -0.9932 -2.2127  1.4341
 5635TIP3    H216912   3.594   1.291   4.398 -3.0328  0.7096  0.6777
 5636TIP3   OH216913   3.589   0.096   2.817  0.2801 -0.8445 -0.1893
 5636TIP3    H116914   3.627   0.008   2.824 -3.3028 -2.4766  0.9876
 5636TIP3    H216915   3.576   0.124   2.908  1.6649  1.1535 -0.5292
 5637TIP3   OH216916   4.499   5.526   2.520  0.4026  0.2327  0.0984
 5637TIP3    H116917   4.471   5.555   2.434  0.4071  0.9305  0.3224
 5637TIP3    H216918   4.542   5.442   2.505 -1.6541 -0.7921 -0.2750
 5638TIP3   OH216919   1.474   2.982   2.040 -0.3532  0.2560 -0.2035
 5638TIP3    H116920   1.391   3.023   2.016  0.6048  1.0410 -2.4516
 5638TIP3    H216921   1.539   3.052   2.033  0.5335 -0.3274  1.5486
 5639TIP3   OH216922   5.064   3.771   0.946 -0.0269  0.5733 -0.2257
 5639TIP3    H116923   5.066   3.677   0.924 -1.5601  0.3981  0.2695
 5639TIP3    H216924   5.145   3.785   0.996 -0.7569 -1.0026  1.5486
 5640TIP3   OH216925   1.562   4.783   0.407 -0.2539 -0.3748 -0.0443
 5640TIP3    H116926   1.468   4.767   0.410 -0.0898 -1.4443 -0.0581
 5640TIP3    H216927   1.599   4.699   0.380  0.8132 -0.3909  1.3723
 5641TIP3   OH216928   4.497   0.883   0.506 -0.0680  0.3091 -0.4356
 5641TIP3    H116929   4.539   0.828   0.440 -0.2332  0.1441 -0.4039
 5641TIP3    H216930   4.542   0.862   0.588 -1.1492 -0.9203 -0.1292
 5642TIP3   OH216931   6.085   0.223   2.632 -0.1062 -0.1179 -0.2745
 5642TIP3    H116932   6.064   0.185   2.547 -1.1869  0.9628 -0.5153
 5642TIP3    H216933   6.152   0.166   2.668 -1.1759 -1.8404 -0.9155
 5643TIP3   OH216934   5.212   4.905   3.180 -0.1214 -0.0256 -0.1539
 5643TIP3    H116935   5.234   4.998   3.179  0.2825 -0.0923  1.2065
 5643TIP3    H216936   5.165   4.892   3.262 -2.4717 -0.5322 -1.4757
 5644TIP3   OH216937   3.375   3.490   3.494 -0.0517 -0.3553  0.0188
 5644TIP3    H116938   3.290   3.509   3.455 -0.6330 -0.9076  0.9503
 5644TIP3    H216939   3.374   3.538   3.577  0.9868  0.4791 -0.4316
 5645TIP3   OH216940   1.558   1.509   4.918 -0.0836 -0.2870 -0.4360
 5645TIP3    H116941   1.519   1.596   4.913  2.0087  0.6705 -1.2109
 5645TIP3    H216942   1.492   1.456   4.961 -1.5381  1.6151 -0.1872
 5646TIP3   OH216943   0.418   0.718   2.023  0.3261  0.5109 -0.7552
 5646TIP3    H116944   0.353   0.769   2.070 -0.1733 -0.7202 -0.0822
 5646TIP3    H216945   0.448   0.776   1.953 -0.0194  1.8134  0.1492
 5647TIP3   OH216946   5.741   3.255   3.184  0.0640  0.3735 -0.2217
 5647TIP3    H116947   5.823   3.258   3.135  0.5241  2.1806  0.5886
 5647TIP3    H216948   5.759   3.195   3.257  0.5534  0.5102 -0.2283
 5648TIP3   OH216949   4.000   3.101   3.032 -0.4040 -0.4614  0.3343
 5648TIP3    H116950   4.070   3.157   2.998 -1.0336 -0.0630 -0.3384
 5648TIP3    H216951   3.987   3.132   3.122  0.1568 -0.4124  0.3990
 5649TIP3   OH216952   2.377   4.183   4.525  0.2010  0.0075  0.3259
 5649TIP3    H116953   2.415   4.098   4.547  2.1341  0.8628  0.5793
 5649TIP3    H216954   2.423   4.245   4.582 -0.0175  1.4021 -0.9344
 5650TIP3   OH216955   0.662   3.206   5.099 -0.0432  0.4067  0.2880
 5650TIP3    H116956   0.649   3.137   5.164  0.4364  0.7099  0.7095
 5650TIP3    H216957   0.576   3.217   5.058 -0.7327  1.2256  1.8801
 5651TIP3   OH216958   3.142   2.647   4.699 -0.5974 -0.2254 -0.2168
 5651TIP3    H116959   3.085   2.584   4.743  1.3993 -1.6671  0.4573
 5651TIP3    H216960   3.224   2.644   4.748  0.0169  1.9428 -0.9909
 5652TIP3   OH216961   0.419   4.089   0.027  0.0433  0.2023  0.5193
 5652TIP3    H116962   0.508   4.073   0.060  0.0407 -0.0447  0.4024
 5652TIP3    H216963   0.421   4.059  -0.063 -0.1822  0.1244  0.5407
 5653TIP3   OH216964   3.829   4.987   1.559  0.2855  0.4255  0.3295
 5653TIP3    H116965   3.765   4.957   1.623  1.0510 -1.2674  0.3355
 5653TIP3    H216966   3.785   5.060   1.514 -0.8005  0.7046  1.7827
 5654TIP3   OH216967   3.078   3.905   1.602 -0.5247  0.0898 -0.4583
 5654TIP3    H116968   3.168   3.937   1.603 -0.6250  0.3706 -0.5090
 5654TIP3    H216969   3.043   3.928   1.688 -0.6652  0.3100 -0.5742
 5655TIP3   OH216970   0.909   2.773   3.981  0.9893 -0.1095 -0.1848
 5655TIP3    H116971   0.992   2.799   4.019  0.1306 -0.5036  2.1218
 5655TIP3    H216972   0.911   2.808   3.891  3.6233 -0.1934 -0.2239
 5656TIP3   OH216973   0.425   3.217   1.692  0.0180  0.1936  0.2319
 5656TIP3    H116974   0.345   3.200   1.641  0.0939  1.8060 -0.4852
 5656TIP3    H216975   0.403   3.189   1.781 -0.8956 -0.5752 -0.2098
 5657TIP3   OH216976   0.321   1.117   4.460  0.5577 -0.0582  0.0108
 5657TIP3    H116977   0.255   1.087   4.522  0.8662  0.0911  0.4225
 5657TIP3    H216978   0.309   1.062   4.383 -1.0142  0.9362 -0.5053
 5658TIP3   OH216979   3.891   2.910   0.899 -0.2638  0.4403 -0.0353
 5658TIP3    H116980   3.971   2.866   0.869 -0.1007  0.6437  0.1038
 5658TIP3    H216981   3.853   2.948   0.820 -1.8496 -2.2241 -0.6833
 5659TIP3   OH216982   0.724   0.366   1.039 -0.2822 -0.3801  0.3029
 5659TIP3    H116983   0.694   0.454   1.014  1.3916  0.8915  2.4323
 5659TIP3    H216984   0.663   0.307   0.995 -1.8343  1.8418 -0.7488
 5660TIP3   OH216985   0.786   1.843   0.176  0.4468 -0.2302  0.0963
 5660TIP3    H116986   0.802   1.854   0.082 -0.3036  1.5665  0.1290
 5660TIP3    H216987   0.696   1.811   0.181  0.7058 -0.9591  0.1986
 5661TIP3   OH216988   6.105   0.093   3.003  0.1282  0.7606  0.0715
 5661TIP3    H116989   6.046   0.091   3.079  0.1132  0.6202  0.0552
 5661TIP3    H216990   6.093   0.181   2.966 -0.8876  0.3598 -0.5783
 5662TIP3   OH216991   2.882   4.949   1.958 -0.2630 -0.1365  0.2840
 5662TIP3    H116992   2.974   4.949   1.983  0.4227 -1.0508 -1.9908
 5662TIP3    H216993   2.860   5.042   1.948 -0.1062  0.1707  2.4411
 5663TIP3   OH216994   1.580   0.525   1.501  0.3504  0.2861  0.1228
 5663TIP3    H116995   1.621   0.443   1.527  1.8522  0.3893 -1.7504
 5663TIP3    H216996   1.624   0.592   1.554 -0.1579  0.0064  0.9099
 5664TIP3   OH216997   0.187   1.874   0.921 -0.1123 -0.0155  0.0340
 5664TIP3    H116998   0.274   1.849   0.951 -0.3888  0.1210  0.9815
 5664TIP3    H216999   0.169   1.957   0.965 -0.3971  0.3694 -0.7932
 5665TIP3   OH217000   0.854   3.624   3.561  0.0960 -0.4486 -0.0877
 5665TIP3    H117001   0.806   3.581   3.632 -1.9184 -1.7368 -2.1007
 5665TIP3    H217002   0.814   3.711   3.555  0.7674 -0.0623  0.7667
 5666TIP3   OH217003   4.600   4.044   0.897 -0.0269  0.7040 -0.5629
 5666TIP3    H117004   4.677   4.101   0.896 -0.4955  1.3826  0.2205
 5666TIP3    H217005   4.588   4.022   0.990 -1.7468  2.0066 -0.4246
 5667TIP3   OH217006   0.752   5.058   1.095  0.2561 -0.1699  0.1597
 5667TIP3    H117007   0.719   4.973   1.067  1.1047 -0.1390 -1.0050
 5667TIP3    H217008   0.845   5.043   1.113  0.5158  0.5834 -0.4794
 5668TIP3   OH217009   4.951   0.218   2.604  0.3227  0.0949  0.2295
 5668TIP3    H117010   4.953   0.187   2.695 -1.7719  0.1817  0.3357
 5668TIP3    H217011   4.907   0.302   2.609  0.0709  0.0365 -0.9030
 5669TIP3   OH217012   0.225   3.499   1.455  0.0827  0.0377  0.3557
 5669TIP3    H117013   0.307   3.529   1.494  0.5362 -1.3287  0.5121
 5669TIP3    H217014   0.251   3.428   1.397 -0.6363  1.6650 -2.0856
 5670TIP3   OH217015   0.548   0.169   4.365 -0.6913  0.1135 -0.5046
 5670TIP3    H117016   0.578   0.102   4.304  1.1210 -0.3660  0.8464
 5670TIP3    H217017   0.501   0.120   4.432 -0.4378  0.3415 -0.1622
 5671TIP3   OH217018   2.490   2.765   1.957 -0.0392  0.2267  0.0982
 5671TIP3    H117019   2.557   2.704   1.987 -0.4511  0.0509  0.6727
 5671TIP3    H217020   2.466   2.733   1.870 -0.0519 -0.2639  0.2794
 5672TIP3   OH217021   4.786   4.109   4.366 -0.0333 -0.2502  0.9295
 5672TIP3    H117022   4.768   4.033   4.421 -0.6571 -0.3796  0.5678
 5672TIP3    H217023   4.707   4.163   4.374 -0.6819 -0.8653 -0.7670
 5673TIP3   OH217024   3.559   2.482   1.001  0.2682  0.7309  0.4204
 5673TIP3    H117025   3.472   2.502   0.965 -0.0435 -1.7832 -0.4034
 5673TIP3    H217026   3.618   2.540   0.955 -0.5087 -0.3284 -2.0563
 5674TIP3   OH217027   3.013   4.852   0.318 -0.0834  0.2252 -0.3053
 5674TIP3    H117028   3.056   4.771   0.291  1.4726  1.0992 -0.6208
 5674TIP3    H217029   2.982   4.834   0.407 -0.2116 -0.8599 -0.5558
 5675TIP3   OH217030   5.106   5.168   0.969  0.0359  0.0752  0.4446
 5675TIP3    H117031   5.184   5.120   0.942  0.5374  1.2960 -0.3400
 5675TIP3    H217032   5.139   5.235   1.030 -0.2214  1.2631 -0.6847
 5676TIP3   OH217033   2.513   2.357   4.753 -0.3824  0.0636  0.5216
 5676TIP3    H117034   2.558   2.440   4.771 -0.6679  0.7447 -1.5751
 5676TIP3    H217035   2.477   2.369   4.665 -2.2049 -1.5367  0.9963
 5677TIP3   OH217036   0.182   0.061   2.286  0.1981  0.3128 -0.3938
 5677TIP3    H117037   0.268   0.074   2.245 -0.8654  1.0078 -2.5218
 5677TIP3    H217038   0.138   0.146   2.278 -0.6455  0.0213  0.8461
 5678TIP3   OH217039   3.850   1.323   4.110  0.1178 -0.0457 -0.1035
 5678TIP3    H117040   3.789   1.368   4.051 -1.2662 -0.7509  0.7433
 5678TIP3    H217041   3.843   1.371   4.193 -2.0362 -2.1796  1.0935
 5679TIP3   OH217042   3.776  -0.031   4.570  0.1476  0.1712  0.0741
 5679TIP3    H117043   3.784  -0.022   4.665 -0.5375  2.3075 -0.0228
 5679TIP3    H217044   3.782   0.059   4.536 -2.0582 -0.2503 -1.6874
 5680TIP3   OH217045   3.886   4.536   2.723  0.4045  0.5261  0.2555
 5680TIP3    H117046   3.842   4.451   2.721  2.4030 -0.6474  1.9454
 5680TIP3    H217047   3.979   4.515   2.711  1.4224  2.0153  4.0756
 5681TIP3   OH217048   0.706   5.310   0.410 -0.3968 -0.2260 -0.5418
 5681TIP3    H117049   0.649   5.353   0.473 -0.7470 -0.3917 -0.7417
 5681TIP3    H217050   0.657   5.312   0.328 -0.0336 -0.1943 -0.7637
 5682TIP3   OH217051   2.132   0.454   2.261  0.5747 -0.2148 -0.0775
 5682TIP3    H117052   2.174   0.375   2.297  1.7531  0.6109  0.4110
 5682TIP3    H217053   2.060   0.472   2.323 -0.7040 -1.7502 -1.0302
 5683TIP3   OH217054   0.668   1.588   3.335  0.0973  0.2907 -0.0787
 5683TIP3    H117055   0.710   1.589   3.249  0.9796 -0.3769  0.3278
 5683TIP3    H217056   0.657   1.681   3.357  0.0801  0.4665 -0.7993
 5684TIP3   OH217057   4.753   4.773   1.816 -0.0615  0.0323 -0.6215
 5684TIP3    H117058   4.746   4.869   1.811 -0.6048 -0.0470 -1.6518
 5684TIP3    H217059   4.846   4.756   1.830 -0.2382  0.7704  2.0483
 5685TIP3   OH217060   4.193   2.892   3.015  0.4415  0.0025  0.4002
 5685TIP3    H117061   4.184   2.797   3.010  0.1358  0.0465  0.0089
 5685TIP3    H217062   4.110   2.922   3.051 -1.0031  0.3857 -2.9085
 5686TIP3   OH217063   2.863   4.489   0.991  0.0632 -0.3425 -0.1664
 5686TIP3    H117064   2.937   4.464   1.047 -0.3431 -1.8572 -0.2778
 5686TIP3    H217065   2.816   4.408   0.976 -2.6446  0.8478  1.2851
 5687TIP3   OH217066   5.542   0.413   3.630 -0.0424  0.1358  0.1968
 5687TIP3    H117067   5.465   0.388   3.681 -1.3206 -0.6548 -2.0049
 5687TIP3    H217068   5.508   0.432   3.543  2.3390 -0.9025 -1.0379
 5688TIP3   OH217069   4.528   5.682   3.761 -0.8796 -0.4457  0.1040
 5688TIP3    H117070   4.477   5.613   3.805 -0.7233  0.0066  1.0259
 5688TIP3    H217071   4.482   5.763   3.781  0.7947  0.1324  1.9989
 5689TIP3   OH217072   4.533   4.360   5.049 -0.7109 -0.0840 -0.1450
 5689TIP3    H117073   4.535   4.342   4.955  0.2878 -2.5713  0.2705
 5689TIP3    H217074   4.606   4.421   5.063 -0.9188  0.3653 -0.9756
 5690TIP3   OH217075   4.666   5.658   4.805  0.2036  0.2241 -0.6836
 5690TIP3    H117076   4.722   5.728   4.771 -1.4823  0.9991 -2.0324
 5690TIP3    H217077   4.642   5.607   4.728 -1.9468  0.6970 -0.3947
 5691TIP3   OH217078   5.100   0.288   2.043 -0.0905  0.0227 -0.0554
 5691TIP3    H117079   5.133   0.210   1.999 -3.3252 -0.4192 -2.0560
 5691TIP3    H217080   5.108   0.358   1.977 -0.9695  0.3860  0.2039
 5692TIP3   OH217081   4.004   5.159   2.563 -0.0964 -0.1041 -0.0483
 5692TIP3    H117082   3.912   5.139   2.585 -0.3092  0.9365  0.0531
 5692TIP3    H217083   4.054   5.123   2.636 -0.3582 -1.2911 -0.4393
 5693TIP3   OH217084   0.907   0.466   3.533  0.1789 -0.2514  0.5719
 5693TIP3    H117085   0.952   0.389   3.500  0.3439 -0.1442  0.5404
 5693TIP3    H217086   0.977   0.531   3.544 -0.4069  1.1987 -3.0651
 5694TIP3   OH217087   5.470   0.488   3.115  0.4124 -0.2563  0.1386
 5694TIP3    H117088   5.551   0.458   3.156  0.5639 -0.1649 -0.0922
 5694TIP3    H217089   5.461   0.579   3.142  0.7749 -0.0439 -0.4281
 5695TIP3   OH217090   1.500   4.061   2.902 -0.1305 -0.5610  0.2057
 5695TIP3    H117091   1.457   4.095   2.824 -1.2973 -0.7145  0.7617
 5695TIP3    H217092   1.439   3.995   2.936  1.9466 -3.1223 -0.7456
 5696TIP3   OH217093   5.952   3.533   3.600 -0.2076  0.8263  0.2963
 5696TIP3    H117094   5.860   3.510   3.586 -0.0230 -1.5749  2.3624
 5696TIP3    H217095   5.986   3.463   3.655  3.1591  1.1079 -1.2041
 5697TIP3   OH217096   4.681   2.092   3.956 -0.1507 -0.1373  0.1480
 5697TIP3    H117097   4.661   2.158   4.022  1.2799  1.5003 -0.9491
 5697TIP3    H217098   4.747   2.036   3.998  0.4458  0.6386  0.2643
 5698TIP3   OH217099   4.133   3.294   0.345  0.2848 -0.2886  0.7839
 5698TIP3    H117100   4.088   3.227   0.293 -0.6644  0.4777  0.5799
 5698TIP3    H217101   4.107   3.276   0.435  0.3110 -0.4061  0.7679
 5699TIP3   OH217102   5.393   5.075   1.278 -1.0853 -0.1190 -0.5176
 5699TIP3    H117103   5.380   5.078   1.183 -2.1462  1.2622 -0.3605
 5699TIP3    H217104   5.307   5.097   1.314 -0.2613  1.1659  0.7506
 5700TIP3   OH217105   3.564   0.523   0.009 -1.0723  0.6014  0.2119
 5700TIP3    H117106   3.578   0.562   0.095  1.0997 -0.9350  0.6437
 5700TIP3    H217107   3.524   0.438   0.027  2.7694 -1.4105  0.1558
 5701TIP3   OH217108   4.392   0.061   4.422 -0.5186 -0.0932 -0.6168
 5701TIP3    H117109   4.405  -0.032   4.442 -0.4475 -0.0583 -0.5008
 5701TIP3    H217110   4.398   0.105   4.507 -2.7751 -0.2255 -0.3501
 5702TIP3   OH217111   0.129   0.767   3.371 -0.2800  0.0131  0.0561
 5702TIP3    H117112   0.061   0.731   3.427 -0.3269  0.2708  0.1659
 5702TIP3    H217113   0.175   0.830   3.426  0.7011 -0.8797  0.3029
 5703TIP3   OH217114   1.837   1.680   4.054 -0.4701 -0.1069 -0.0241
 5703TIP3    H117115   1.802   1.698   4.141  2.5486  1.8232  0.9171
 5703TIP3    H217116   1.855   1.766   4.016 -0.8080 -0.9276 -2.2295
 5704TIP3   OH217117   0.641   3.328   3.351  0.0410  0.3593 -0.0138
 5704TIP3    H117118   0.663   3.392   3.285  1.1602  0.4223  0.4019
 5704TIP3    H217119   0.551   3.349   3.377 -0.6473 -0.0390 -1.9062
 5705TIP3   OH217120   1.621   3.449   5.088  0.3756 -0.5202  0.6073
 5705TIP3    H117121   1.668   3.411   5.014 -1.0460 -1.7660  0.2984
 5705TIP3    H217122   1.675   3.428   5.164  1.4957  0.1591  0.0314
 5706TIP3   OH217123   3.578   4.006   3.072 -0.1190 -0.1501 -0.2824
 5706TIP3    H117124   3.505   4.054   3.033  0.7124  0.4342 -1.1873
 5706TIP3    H217125   3.576   3.920   3.029 -0.5618 -0.3081  0.0525
 5707TIP3   OH217126   2.705   5.578   0.900  0.4692  0.5764 -0.5010
 5707TIP3    H117127   2.632   5.542   0.851 -0.1598  0.9078  0.1633
 5707TIP3    H217128   2.680   5.670   0.916 -0.7574 -0.1911  2.9077
 5708TIP3   OH217129   5.300   2.588   3.476  0.4351 -0.0545 -0.8134
 5708TIP3    H117130   5.388   2.570   3.509  0.5149 -0.6362 -1.3145
 5708TIP3    H217131   5.269   2.662   3.528  1.4166  0.4884 -0.9765
 5709TIP3   OH217132   2.696   0.558   3.584  0.6568  0.1177 -0.1432
 5709TIP3    H117133   2.677   0.511   3.503  0.4502  0.7544 -0.4743
 5709TIP3    H217134   2.708   0.490   3.650 -0.0916 -0.3769 -0.5127
 5710TIP3   OH217135   0.075   5.889   3.500 -0.2084  0.0427  0.3832
 5710TIP3    H117136   0.005   5.934   3.548  0.7979  0.5598  1.4193
 5710TIP3    H217137   0.135   5.959   3.473  0.1121 -0.4292 -0.1636
 5711TIP3   OH217138   4.764   3.655   1.667 -0.6475 -0.6225  0.2442
 5711TIP3    H117139   4.740   3.573   1.625 -1.1780  0.0931 -0.9157
 5711TIP3    H217140   4.856   3.668   1.643 -1.1818  0.2023 -1.4758
 5712TIP3   OH217141   3.647   1.194   2.891  0.2224 -0.2409  0.3995
 5712TIP3    H117142   3.572   1.231   2.844  1.1867  0.8694 -0.3253
 5712TIP3    H217143   3.622   1.104   2.909 -0.4300 -0.5464 -1.7710
 5713TIP3   OH217144   2.873   5.836   3.486 -0.1859 -0.6502 -0.0384
 5713TIP3    H117145   2.945   5.778   3.510  0.3928  0.3830  0.7365
 5713TIP3    H217146   2.902   5.923   3.510 -0.1755  0.3250 -3.0785
 5714TIP3   OH217147   1.000   1.577   3.144 -0.2986 -0.2611 -0.0312
 5714TIP3    H117148   1.076   1.613   3.099 -0.2528  0.5424  0.6660
 5714TIP3    H217149   0.987   1.491   3.104  0.0406  0.2178 -1.2263
 5715TIP3   OH217150   3.033   4.190   2.195  0.5154 -0.1947  0.1754
 5715TIP3    H117151   3.008   4.208   2.285  0.0626  0.0034  0.0145
 5715TIP3    H217152   2.992   4.105   2.176 -1.0182  0.6426 -0.4443
 5716TIP3   OH217153   2.371   0.194   3.972 -0.2874 -0.4011  0.2771
 5716TIP3    H117154   2.293   0.139   3.977 -0.7560  0.1976 -0.2675
 5716TIP3    H217155   2.357   0.260   4.040 -0.9138  0.5127 -0.7050
 5717TIP3   OH217156   4.835   1.585   2.997  0.2895 -1.1135  0.6133
 5717TIP3    H117157   4.834   1.624   3.084 -0.4203 -0.5019  0.3363
 5717TIP3    H217158   4.781   1.506   3.006 -2.4577  0.5730  0.0223
 5718TIP3   OH217159   5.339   2.733   0.852 -0.0950  0.2477 -0.0800
 5718TIP3    H117160   5.371   2.818   0.824  0.8980  0.0962  0.5502
 5718TIP3    H217161   5.374   2.722   0.941  0.5343 -1.1976 -0.4819
 5719TIP3   OH217162   4.592   0.105   3.682 -0.1240  0.1252  0.5515
 5719TIP3    H117163   4.643   0.024   3.674  1.7721  1.3330 -0.3162
 5719TIP3    H217164   4.587   0.122   3.776 -0.6459 -1.0428  0.7493
 5720TIP3   OH217165   2.975   2.544   1.790  0.8905 -0.3149 -0.0649
 5720TIP3    H117166   2.996   2.451   1.786 -0.4881 -0.7497  1.6467
 5720TIP3    H217167   2.881   2.547   1.806  0.5294  1.4438 -2.0691
 5721TIP3   OH217168   0.916   0.386   2.158 -0.1785 -0.4242  0.0714
 5721TIP3    H117169   0.990   0.325   2.153 -0.1682 -0.3365 -1.2044
 5721TIP3    H217170   0.926   0.442   2.081 -0.3294  1.0468  1.0940
 5722TIP3   OH217171   0.658   1.291   2.651 -0.5553 -0.2868  0.2740
 5722TIP3    H117172   0.582   1.238   2.626 -1.2534  1.3267 -1.2920
 5722TIP3    H217173   0.633   1.380   2.627  0.8591  0.6695  2.1298
 5723TIP3   OH217174   0.704   5.925   2.480 -0.2647 -0.0430 -0.1674
 5723TIP3    H117175   0.625   5.887   2.442 -1.4336  0.6152  1.5146
 5723TIP3    H217176   0.730   5.865   2.549 -0.0796  0.4331  0.1842
 5724TIP3   OH217177   0.930   4.231   3.647  0.0512  0.4103 -0.2826
 5724TIP3    H117178   0.966   4.182   3.721  0.3017 -0.5308 -1.0006
 5724TIP3    H217179   0.859   4.176   3.614 -1.6229  1.8965  0.6539
 5725TIP3   OH217180   3.643   4.650   0.919 -0.4566  0.3541  0.3470
 5725TIP3    H117181   3.627   4.744   0.924  0.1541  0.5169 -0.4388
 5725TIP3    H217182   3.646   4.632   0.825  0.3879 -0.2738  0.4796
 5726TIP3   OH217183   0.299   5.655   4.868  0.2634 -0.0246  0.1240
 5726TIP3    H117184   0.365   5.718   4.836 -1.3523  0.6061 -2.2633
 5726TIP3    H217185   0.329   5.571   4.835 -0.0485  0.2456 -0.8768
 5727TIP3   OH217186   1.941   3.495   4.848 -0.1086  0.4125 -0.0553
 5727TIP3    H117187   1.875   3.552   4.887 -0.5615 -0.2916  0.2206
 5727TIP3    H217188   1.900   3.409   4.845  0.2978  0.2351 -1.1437
 5728TIP3   OH217189   2.318   5.243   2.491 -0.2169 -0.3754  0.2430
 5728TIP3    H117190   2.311   5.292   2.573  3.2725  0.2760  0.3124
 5728TIP3    H217191   2.309   5.152   2.516  0.7984 -0.1824  1.3923
 5729TIP3   OH217192   2.909   1.508   3.127  0.3970  0.1268 -0.2552
 5729TIP3    H117193   2.859   1.585   3.153 -1.6506 -1.3197  0.3564
 5729TIP3    H217194   2.904   1.449   3.203 -0.4609 -1.6972 -1.6377
 5730TIP3   OH217195   1.194   1.624   2.572 -0.7553 -0.0715  0.3972
 5730TIP3    H117196   1.105   1.593   2.558 -0.8954  0.5482 -0.1361
 5730TIP3    H217197   1.192   1.664   2.659 -1.0939  0.2725  0.2333
 5731TIP3   OH217198   0.547   5.347   4.330 -0.0032  0.3146  0.4317
 5731TIP3    H117199   0.528   5.283   4.262  1.1680 -1.4511  1.6566
 5731TIP3    H217200   0.621   5.398   4.296  0.7805 -0.7627  0.4720
 5732TIP3   OH217201   4.571   5.369   2.782  0.6255 -0.8520 -0.2938
 5732TIP3    H117202   4.521   5.401   2.707  0.0319 -0.5263  0.2373
 5732TIP3    H217203   4.573   5.274   2.770  1.0248 -0.7625 -1.0225
 5733TIP3   OH217204   1.471   0.636   1.280  0.1864  0.8798  0.3100
 5733TIP3    H117205   1.411   0.708   1.301  0.2835  1.2082 -0.4821
 5733TIP3    H217206   1.487   0.592   1.363 -0.3672  1.3996  0.6969
 5734TIP3   OH217207   4.099   2.884   5.146  0.5207  0.3794 -0.0565
 5734TIP3    H117208   4.026   2.839   5.104  0.7261 -0.3576  0.3518
 5734TIP3    H217209   4.115   2.962   5.092  0.6555 -0.4448 -1.2354
 5735TIP3   OH217210   5.728   5.707   2.592 -0.3667  0.6659  0.6030
 5735TIP3    H117211   5.705   5.629   2.541  0.2551  0.2390  0.9569
 5735TIP3    H217212   5.727   5.676   2.683  0.3944  0.9442  0.7045
 5736TIP3   OH217213   1.413   3.254   3.355  0.4297 -0.5648  0.2303
 5736TIP3    H117214   1.425   3.174   3.407  1.2431 -1.5753 -1.4062
 5736TIP3    H217215   1.466   3.320   3.400 -0.2522 -0.9127  1.6158
 5737TIP3   OH217216   3.882   0.116   3.755  0.2094  0.0039 -0.0702
 5737TIP3    H117217   3.818   0.181   3.783 -0.0942 -0.2873 -0.0948
 5737TIP3    H217218   3.932   0.096   3.834  0.7001  0.7133 -0.1925
 5738TIP3   OH217219   1.239   5.322   0.738 -0.0182  0.0393  0.0623
 5738TIP3    H117220   1.217   5.251   0.677  1.1238 -1.4988  1.3569
 5738TIP3    H217221   1.269   5.277   0.817  2.7023  1.9481  0.2439
 5739TIP3   OH217222   2.817   0.584   4.986 -0.6266  0.1422  0.1583
 5739TIP3    H117223   2.847   0.564   4.897 -3.1337  0.6784 -0.8742
 5739TIP3    H217224   2.791   0.676   4.982 -0.7989  0.1696  1.4556
 5740TIP3   OH217225   1.193   2.981   1.523  0.0260 -0.5180 -0.7708
 5740TIP3    H117226   1.247   3.043   1.572 -0.0285  0.0465 -1.4086
 5740TIP3    H217227   1.256   2.930   1.472 -0.0112 -0.1373 -1.2010
 5741TIP3   OH217228   4.624   5.285   3.756  0.5636  0.5134 -0.8070
 5741TIP3    H117229   4.536   5.249   3.747  0.8888 -0.3867 -0.4791
 5741TIP3    H217230   4.625   5.360   3.696 -0.4402  0.5773 -0.7708
 5742TIP3   OH217231  -0.027   3.607   1.579  0.0359 -0.5048 -0.1482
 5742TIP3    H117232  -0.032   3.699   1.555 -2.0082  0.0872  2.1375
 5742TIP3    H217233   0.063   3.582   1.560  1.0599  2.3515  0.4506
 5743TIP3   OH217234   3.349   2.674   0.692 -0.5412 -0.5542 -0.0438
 5743TIP3    H117235   3.361   2.765   0.664  1.7341 -0.7311  0.1462
 5743TIP3    H217236   3.355   2.623   0.611  1.6664 -0.7353  0.1647
 5744TIP3   OH217237   1.706   0.520   3.928  0.1073 -0.0436  0.2070
 5744TIP3    H117238   1.726   0.537   3.836  0.4659 -0.5404  0.1843
 5744TIP3    H217239   1.726   0.602   3.973  0.1935  0.1169 -0.1201
 5745TIP3   OH217240   4.292   4.470   3.498 -0.5415 -0.2326  0.5328
 5745TIP3    H117241   4.282   4.565   3.491  0.0427 -0.2952 -1.6628
 5745TIP3    H217242   4.214   4.435   3.455 -1.0369 -0.7919  1.8273
 5746TIP3   OH217243   2.295  -0.008   4.585  0.0816 -0.1515  0.5184
 5746TIP3    H117244   2.380  -0.042   4.558  0.5219  1.7809 -0.6741
 5746TIP3    H217245   2.314   0.077   4.626 -1.2171 -0.0102  0.8925
 5747TIP3   OH217246   1.363   5.013   1.792  0.4294  0.2568 -0.2411
 5747TIP3    H117247   1.303   5.082   1.764 -0.3386 -0.7513 -1.1323
 5747TIP3    H217248   1.447   5.035   1.751 -0.6186 -1.1236 -3.4357
 5748TIP3   OH217249   4.909   5.635   2.958 -0.4603  0.2869 -0.0088
 5748TIP3    H117250   4.895   5.577   2.883 -0.3485 -1.3937  1.1968
 5748TIP3    H217251   4.821   5.649   2.994 -0.3466 -0.3344  0.5312
 5749TIP3   OH217252   1.865   0.904   0.766  0.0977  0.0919 -0.6206
 5749TIP3    H117253   1.959   0.912   0.756 -0.0231  0.0126 -1.9278
 5749TIP3    H217254   1.852   0.820   0.809  0.7197  1.1980  1.9223
 5750TIP3   OH217255   3.916   5.559   0.829 -0.2726 -0.0274  0.5309
 5750TIP3    H117256   3.934   5.650   0.854  0.7529  0.4175 -1.6108
 5750TIP3    H217257   3.831   5.563   0.785 -0.1336 -0.0440  0.2546
 5751TIP3   OH217258   2.910   5.401   2.808 -0.1711  0.0363  0.1700
 5751TIP3    H117259   2.818   5.381   2.788 -1.3519  0.7940  4.0274
 5751TIP3    H217260   2.960   5.333   2.763 -2.7988 -1.8007 -0.1650
 5752TIP3   OH217261   0.081   4.113   4.718 -0.4482  0.0213 -0.9909
 5752TIP3    H117262   0.063   4.027   4.756  0.6954 -0.4987 -1.5465
 5752TIP3    H217263   0.146   4.151   4.777 -1.7821  1.0067 -0.1164
 5753TIP3   OH217264   4.400   1.673   3.478 -0.8127  1.0599  0.9468
 5753TIP3    H117265   4.393   1.739   3.410 -0.2738  1.0531  0.8766
 5753TIP3    H217266   4.470   1.706   3.535  0.6361 -0.2595 -0.0130
 5754TIP3   OH217267   3.657   3.427   4.948 -0.6265  0.2815  0.0247
 5754TIP3    H117268   3.732   3.468   4.906  0.0757 -1.2018 -0.2470
 5754TIP3    H217269   3.593   3.497   4.958  0.1433  1.2078 -1.2911
 5755TIP3   OH217270   6.365   3.424   0.576  0.4086  0.7430 -0.6597
 5755TIP3    H117271   6.332   3.354   0.520  1.3884  0.3095 -0.7064
 5755TIP3    H217272   6.320   3.503   0.544 -0.3728  0.2161 -0.8847
 5756TIP3   OH217273   2.964   1.966   1.706  0.5568  0.4092  0.0475
 5756TIP3    H117274   2.963   1.871   1.700  1.9672  0.3732  0.2398
 5756TIP3    H217275   3.016   1.985   1.784 -0.2018  1.3395  0.3559
 5757TIP3   OH217276   1.666   5.418   4.874 -0.0656 -0.3409 -0.1564
 5757TIP3    H117277   1.746   5.462   4.843  0.0167  0.2443  0.8680
 5757TIP3    H217278   1.666   5.334   4.827  0.8053 -0.0794 -0.6570
 5758TIP3   OH217279   0.746   3.484   1.879 -0.0439  0.0344  0.2179
 5758TIP3    H117280   0.682   3.475   1.950  0.7217 -0.6136  0.8400
 5758TIP3    H217281   0.786   3.398   1.872  1.3745  0.6518  0.4272
 5759TIP3   OH217282   6.000   3.158   0.213 -0.3875 -0.0562 -0.0325
 5759TIP3    H117283   5.920   3.189   0.171 -0.1184  0.0124 -0.5032
 5759TIP3    H217284   6.026   3.082   0.161  0.4290  0.5541 -0.5229
 5760TIP3   OH217285   2.434   2.657   1.718  0.5539 -0.1180 -0.4046
 5760TIP3    H117286   2.384   2.733   1.687 -0.5187  0.0352  1.5720
 5760TIP3    H217287   2.374   2.583   1.706  0.6078 -0.2461  0.1038
 5761TIP3   OH217288   6.128   0.391   3.732  0.4599  0.4165  0.1287
 5761TIP3    H117289   6.066   0.435   3.674 -0.3716  0.6148  1.1225
 5761TIP3    H217290   6.073   0.336   3.788  1.2810 -0.1719  0.3764
 5762TIP3   OH217291   2.522   1.241   4.952  0.1994 -0.5884  0.1007
 5762TIP3    H117292   2.606   1.226   4.907  0.8635  0.9279  0.7711
 5762TIP3    H217293   2.547   1.270   5.039 -0.9465  1.9073 -0.3265
 5763TIP3   OH217294   5.779   0.294   5.118  0.1779  0.2333  0.4883
 5763TIP3    H117295   5.768   0.365   5.056 -0.7135 -1.0313 -0.8794
 5763TIP3    H217296   5.873   0.289   5.133  0.3735  0.7798 -0.4989
 5764TIP3   OH217297   2.304   3.086   4.451 -0.2287 -0.3570  0.0390
 5764TIP3    H117298   2.214   3.118   4.446  0.3575  1.2653 -1.0011
 5764TIP3    H217299   2.358   3.162   4.427  1.2509 -2.2788 -3.4207
 5765TIP3   OH217300   2.398   5.161   0.767  0.3440 -0.0021  0.3502
 5765TIP3    H117301   2.324   5.131   0.715  1.1770 -1.8165  0.1161
 5765TIP3    H217302   2.438   5.080   0.800  2.8774  0.8105 -0.4629
 5766TIP3   OH217303   1.280   2.436   0.478  0.1865 -0.4350 -0.3659
 5766TIP3    H117304   1.223   2.433   0.554  0.0890 -2.2956 -0.4525
 5766TIP3    H217305   1.322   2.522   0.482 -2.2163  0.7915 -0.0383
 5767TIP3   OH217306   0.893   0.992   2.826 -0.4333  0.0731  0.6550
 5767TIP3    H117307   0.860   1.052   2.893 -0.6584  1.2933 -0.5123
 5767TIP3    H217308   0.826   0.923   2.820 -1.1379  0.7460  0.6560
 5768TIP3   OH217309   4.047   3.615   0.166 -0.7695  0.4312  0.2049
 5768TIP3    H117310   3.985   3.680   0.132 -0.8633  0.8240  1.0673
 5768TIP3    H217311   4.017   3.600   0.256  0.4559  0.7367  0.6872
 5769TIP3   OH217312   0.407   5.490   0.197 -0.1439 -0.2486  0.0302
 5769TIP3    H117313   0.486   5.437   0.189 -0.1661 -0.4341  0.9297
 5769TIP3    H217314   0.336   5.427   0.210 -0.1514 -0.0158  1.2397
 5770TIP3   OH217315   5.938   5.922   0.560  0.6268 -0.1386  0.2891
 5770TIP3    H117316   5.843   5.922   0.547  0.8147  1.2657 -1.6405
 5770TIP3    H217317   5.951   5.970   0.642 -0.3191 -0.3367  0.5721
 5771TIP3   OH217318   3.921   1.561   2.958 -0.0152 -1.2158  0.2846
 5771TIP3    H117319   3.831   1.579   2.929  0.4665 -1.1961 -1.2515
 5771TIP3    H217320   3.971   1.639   2.933  0.4190 -1.1698  1.2549
 5772TIP3   OH217321   4.716   2.091   3.121 -0.7271 -0.2946 -0.1473
 5772TIP3    H117322   4.629   2.051   3.118 -1.3377  0.7790  1.5539
 5772TIP3    H217323   4.701   2.178   3.158  1.1914 -0.5734  1.4918
 5773TIP3   OH217324   2.539   5.257   4.922  0.3944  0.5302 -0.5692
 5773TIP3    H117325   2.473   5.258   4.853 -0.1909  0.3027 -0.0301
 5773TIP3    H217326   2.528   5.172   4.964  0.4773  0.8160  0.0484
 5774TIP3   OH217327   4.046   3.313   2.553 -0.4728 -0.2763 -0.2955
 5774TIP3    H117328   4.073   3.268   2.634 -2.0092 -1.9785 -0.6719
 5774TIP3    H217329   3.971   3.263   2.522 -0.5629  0.9837 -2.2395
 5775TIP3   OH217330   2.474   1.473   1.914 -0.5996 -0.4064 -0.3102
 5775TIP3    H117331   2.494   1.381   1.899  1.6238  0.0162 -0.3260
 5775TIP3    H217332   2.506   1.490   2.003  1.4796  0.9117 -1.2350
 5776TIP3   OH217333   5.346   3.332   1.952 -0.0429 -0.4220 -0.5760
 5776TIP3    H117334   5.318   3.422   1.968 -2.5521 -0.6900 -2.7182
 5776TIP3    H217335   5.331   3.287   2.035 -3.5291  0.1448 -0.7732
 5777TIP3   OH217336   2.425   0.537   1.236  0.1504  0.0514  0.1103
 5777TIP3    H117337   2.497   0.599   1.228 -1.3473  1.7455 -1.1774
 5777TIP3    H217338   2.393   0.550   1.326  1.2738 -0.5552  0.6136
 5778TIP3   OH217339   0.418   3.430   3.445  0.1030  0.2581  0.2999
 5778TIP3    H117340   0.355   3.498   3.420  0.5814 -0.6110 -4.0948
 5778TIP3    H217341   0.365   3.365   3.491 -2.2101  0.0497 -2.3104
 5779TIP3   OH217342   1.666   5.438   1.093  0.1200 -0.0039  0.4903
 5779TIP3    H117343   1.583   5.445   1.140  0.8494 -0.4957  1.9116
 5779TIP3    H217344   1.658   5.359   1.040 -1.2063  1.2625 -1.2905
 5780TIP3   OH217345   4.855   2.190   1.379 -0.0044 -0.4807 -0.0499
 5780TIP3    H117346   4.873   2.172   1.472 -0.4468  2.2706  0.6683
 5780TIP3    H217347   4.897   2.274   1.363 -1.7433  0.1273 -1.7574
 5781TIP3   OH217348   5.154   4.420   5.136  0.2895 -0.1842  0.3550
 5781TIP3    H117349   5.238   4.428   5.091  0.2091 -0.6234  0.1196
 5781TIP3    H217350   5.092   4.464   5.078  0.1201 -1.0810 -0.1612
 5782TIP3   OH217351   4.446   3.264   1.236  0.2858  0.3240 -0.3285
 5782TIP3    H117352   4.421   3.239   1.325  0.1827 -0.3077 -0.5318
 5782TIP3    H217353   4.375   3.232   1.181  0.1116  1.1362 -0.5953
 5783TIP3   OH217354   1.445   1.750   4.911  0.8294 -0.5825 -0.1741
 5783TIP3    H117355   1.486   1.825   4.955 -0.6195 -0.1666  0.5203
 5783TIP3    H217356   1.352   1.772   4.908  0.5501 -1.7993 -1.1144
 5784TIP3   OH217357   0.040   4.671   2.761  0.2309  0.4341  0.3383
 5784TIP3    H117358   0.090   4.738   2.808  1.3795  0.0554 -0.2844
 5784TIP3    H217359  -0.040   4.715   2.734  0.1784  1.0398  1.4577
 5785TIP3   OH217360   1.477   1.932   0.746  0.4388 -0.2870 -0.5461
 5785TIP3    H117361   1.486   2.007   0.804 -1.2292 -1.2536  1.1048
 5785TIP3    H217362   1.401   1.953   0.691 -0.2722 -0.8924  0.1843
 5786TIP3   OH217363   2.887   0.026   4.725 -0.3019  0.0166 -0.2313
 5786TIP3    H117364   2.912   0.106   4.772  0.3131 -0.7309  0.7499
 5786TIP3    H217365   2.885   0.052   4.633 -1.4720  1.5121  0.1581
 5787TIP3   OH217366   0.472   5.069   3.752  0.3802  0.5860 -0.3004
 5787TIP3    H117367   0.444   4.996   3.696 -1.1953  0.9583 -0.0653
 5787TIP3    H217368   0.530   5.121   3.697  3.0501 -1.7646  0.0968
 5788TIP3   OH217369   2.322   2.141   0.531 -0.1121  0.2320  0.3375
 5788TIP3    H117370   2.340   2.065   0.475 -0.5786 -0.3569  0.9566
 5788TIP3    H217371   2.395   2.201   0.516 -0.2438  0.1020 -0.9155
 5789TIP3   OH217372   4.508   3.953   2.727 -0.4019  0.1473 -0.9688
 5789TIP3    H117373   4.504   4.035   2.776  0.4170 -0.9049  1.0162
 5789TIP3    H217374   4.601   3.938   2.713 -0.5527 -0.3517 -1.4515
 5790TIP3   OH217375   0.142   0.321   2.702 -0.1151 -0.2589 -0.2976
 5790TIP3    H117376   0.158   0.259   2.630 -0.3092 -1.6962  0.8461
 5790TIP3    H217377   0.228   0.360   2.718  0.4838 -1.7103  0.2482
 5791TIP3   OH217378   3.659   2.501   1.946  0.5038  0.1233 -0.1396
 5791TIP3    H117379   3.699   2.582   1.914  0.0048  0.4205 -0.0217
 5791TIP3    H217380   3.731   2.453   1.986  1.5957 -1.1248 -3.2966
 5792TIP3   OH217381   6.093   3.662   4.151  0.2932  0.0790  0.1987
 5792TIP3    H117382   6.099   3.699   4.240 -0.0775  0.9425 -0.1222
 5792TIP3    H217383   6.016   3.604   4.155  0.4760 -0.1447  0.5271
 5793TIP3   OH217384   2.748   1.296   2.796 -0.0691  0.0224  0.0458
 5793TIP3    H117385   2.737   1.381   2.753 -1.4325  0.0896  0.4889
 5793TIP3    H217386   2.838   1.270   2.775  0.3933  1.6017 -0.0427
 5794TIP3   OH217387   4.323   1.329   4.429  0.0502  0.5842 -0.3527
 5794TIP3    H117388   4.259   1.304   4.362 -0.2328 -0.5729  0.3248
 5794TIP3    H217389   4.402   1.350   4.379 -0.8535  2.1516 -1.2058
 5795TIP3   OH217390   0.179   2.324   4.273  0.8924 -0.3008 -0.5191
 5795TIP3    H117391   0.236   2.264   4.322  0.6490  1.1754  1.7420
 5795TIP3    H217392   0.092   2.287   4.282  0.8265  0.0363  0.3650
 5796TIP3   OH217393   4.211   3.739   0.363  0.4239  0.0864 -0.0370
 5796TIP3    H117394   4.289   3.786   0.334  1.5619 -0.7860  1.4396
 5796TIP3    H217395   4.183   3.689   0.286  0.2104  1.8071 -1.1097
 5797TIP3   OH217396   1.359   3.806   2.444 -0.1364 -0.1443  0.2783
 5797TIP3    H117397   1.308   3.876   2.484  0.2520  0.8765 -0.9523
 5797TIP3    H217398   1.357   3.735   2.508 -0.8343  0.8554  1.3978
 5798TIP3   OH217399   1.566   0.800   4.068 -0.7579  0.5704  0.1642
 5798TIP3    H117400   1.557   0.779   3.975 -0.8908  0.1693  0.2630
 5798TIP3    H217401   1.529   0.888   4.077  0.7554  1.3101 -0.4433
 5799TIP3   OH217402   5.452   4.763   0.958 -0.1766 -0.0716  0.2299
 5799TIP3    H117403   5.473   4.679   0.917 -0.0739 -0.0546  0.2471
 5799TIP3    H217404   5.358   4.760   0.972 -0.0071 -0.7390  1.4378
 5800TIP3   OH217405   5.634   1.185   2.965 -0.3260  0.0642 -0.0587
 5800TIP3    H117406   5.705   1.247   2.977 -0.5419  0.2233  0.3891
 5800TIP3    H217407   5.676   1.099   2.974 -0.1879  0.1570  0.2001
 5801TIP3   OH217408   0.505   4.644   1.471  0.1163  0.1480  0.2562
 5801TIP3    H117409   0.570   4.654   1.540 -0.2508  2.5339  0.3585
 5801TIP3    H217410   0.547   4.681   1.393  1.3497 -4.3701 -1.5450
 5802TIP3   OH217411   4.499   5.159   0.041 -0.4418  0.3577  0.5002
 5802TIP3    H117412   4.521   5.208   0.120  0.9487  2.0715 -0.8383
 5802TIP3    H217413   4.473   5.226  -0.022  1.5955 -0.5401 -1.4444
 5803TIP3   OH217414   3.474   2.458   3.377 -0.1734 -0.3192 -0.3623
 5803TIP3    H117415   3.542   2.517   3.343 -0.2316  0.2568  0.4772
 5803TIP3    H217416   3.446   2.499   3.459 -1.9317 -0.2609 -0.9512
 5804TIP3   OH217417   4.806   5.992   1.302 -0.1339 -0.1751  1.0420
 5804TIP3    H117418   4.879   5.955   1.352  0.0500  1.8311  2.3259
 5804TIP3    H217419   4.819   5.957   1.214  2.0044 -0.3988  1.3766
 5805TIP3   OH217420   3.971   0.657   1.188  0.3283  0.0773  0.1295
 5805TIP3    H117421   4.066   0.657   1.195  0.2483 -0.3138  1.6330
 5805TIP3    H217422   3.940   0.638   1.277 -1.1267 -2.3402 -0.7914
 5806TIP3   OH217423   5.088   5.507   3.722 -0.3229  0.2432  0.6341
 5806TIP3    H117424   5.017   5.460   3.678 -0.8326  2.2814 -0.8421
 5806TIP3    H217425   5.153   5.439   3.741 -2.6056 -1.7340  2.1192
 5807TIP3   OH217426   5.352   4.817   1.678  0.5288  0.1965 -0.1113
 5807TIP3    H117427   5.373   4.883   1.744  1.0527  0.2949 -0.3698
 5807TIP3    H217428   5.424   4.823   1.615  0.9736 -1.1027  0.2349
 5808TIP3   OH217429  -0.002   0.492   1.894  0.6062 -0.9082  0.0738
 5808TIP3    H117430   0.011   0.438   1.972  1.6552 -0.1528  0.4395
 5808TIP3    H217431   0.075   0.477   1.840  0.7769 -0.0230  0.0470
 5809TIP3   OH217432   6.061   5.783   0.239 -0.2864 -0.1391 -0.4594
 5809TIP3    H117433   6.148   5.787   0.276 -0.1135 -0.4261 -0.8247
 5809TIP3    H217434   6.002   5.785   0.314  0.0056  0.7773 -0.2394
 5810TIP3   OH217435   2.689   2.029   1.741  0.0937 -0.0237  0.2162
 5810TIP3    H117436   2.782   2.044   1.724  0.6235  0.1931  2.9101
 5810TIP3    H217437   2.673   1.939   1.710  1.2068 -0.0966 -0.1872
 5811TIP3   OH217438   3.379   1.168   0.663 -0.1202  0.7127 -0.1993
 5811TIP3    H117439   3.412   1.158   0.573  1.1393  1.6211  0.1284
 5811TIP3    H217440   3.439   1.230   0.703 -0.3636 -0.0562  1.4311
 5812TIP3   OH217441   0.874   2.240   2.876 -0.2855  0.2655 -0.7721
 5812TIP3    H117442   0.920   2.177   2.932  1.5767  1.2161 -1.1614
 5812TIP3    H217443   0.921   2.322   2.890 -1.0252  0.9685 -2.2449
 5813TIP3   OH217444   5.895   2.144   1.952 -0.1020  0.6432 -0.5800
 5813TIP3    H117445   5.986   2.124   1.974 -0.3188  0.8084  0.5069
 5813TIP3    H217446   5.844   2.100   2.020 -0.8259  0.7266 -1.0636
 5814TIP3   OH217447   6.300   5.829   4.508 -0.4428  0.2884  0.4271
 5814TIP3    H117448   6.368   5.885   4.546  0.1311  0.1508 -0.3676
 5814TIP3    H217449   6.237   5.890   4.468 -0.7996  0.4164  1.1714
 5815TIP3   OH217450   1.042   5.108   3.349  0.0801  0.0733  0.3375
 5815TIP3    H117451   0.959   5.135   3.310  0.1436  0.6268  0.5719
 5815TIP3    H217452   1.101   5.180   3.330  0.1341  0.3124  1.3839
 5816TIP3   OH217453   3.461   5.954   2.251 -0.6218  0.2391 -0.0554
 5816TIP3    H117454   3.424   5.872   2.283  0.7461 -1.2264 -1.9781
 5816TIP3    H217455   3.394   5.990   2.194 -0.2970 -0.9062 -1.2153
 5817TIP3   OH217456   2.813   3.290   1.650 -0.0432  0.4281 -0.7073
 5817TIP3    H117457   2.770   3.232   1.588 -1.1243  0.4137  0.0260
 5817TIP3    H217458   2.831   3.370   1.601 -0.8722  0.4099 -1.0526
 5818TIP3   OH217459   5.929   2.771   1.232 -0.1797  0.4371 -0.2778
 5818TIP3    H117460   5.988   2.846   1.240  0.7192 -0.1709 -0.9526
 5818TIP3    H217461   5.962   2.707   1.294  0.1574 -0.0847 -0.9864
 5819TIP3   OH217462   0.224   1.379   4.418 -0.1017  0.0281  0.6233
 5819TIP3    H117463   0.225   1.286   4.442  0.1292 -0.4764 -1.2353
 5819TIP3    H217464   0.311   1.395   4.381 -0.8412  0.4461 -0.9846
 5820TIP3   OH217465   2.358   4.356   3.949 -0.0025  0.0827  0.3937
 5820TIP3    H117466   2.318   4.444   3.948  1.8421  0.9593  0.2405
 5820TIP3    H217467   2.365   4.332   3.857 -1.3665 -0.6699  0.4616
 5821TIP3   OH217468   2.810   1.618   1.901 -0.0703  0.0626 -0.2464
 5821TIP3    H117469   2.780   1.664   1.821  0.5442  0.8447 -0.0373
 5821TIP3    H217470   2.894   1.579   1.876 -0.3870 -0.6087 -0.2917
 5822TIP3   OH217471   2.595   5.758   0.347 -0.0012  0.7322 -0.1074
 5822TIP3    H117472   2.650   5.705   0.405  0.5354  0.5125 -0.8022
 5822TIP3    H217473   2.552   5.695   0.290 -0.8048  0.9235  0.2768
 5823TIP3   OH217474   5.238   1.808   0.856 -0.5778 -0.0059  0.3442
 5823TIP3    H117475   5.324   1.841   0.831 -1.6301  2.4531 -0.3546
 5823TIP3    H217476   5.239   1.808   0.951 -0.3662  1.7941  0.3853
 5824TIP3   OH217477   1.711   0.001   3.964  0.6944  0.3005  0.4344
 5824TIP3    H117478   1.800  -0.023   3.991  1.2814  0.5768 -1.1747
 5824TIP3    H217479   1.721   0.087   3.922 -0.0813 -0.3108 -1.0643
 5825TIP3   OH217480   3.269   3.598   4.030 -0.0487 -0.0323  0.0906
 5825TIP3    H117481   3.192   3.553   4.066 -1.4630  2.0085 -0.2074
 5825TIP3    H217482   3.339   3.579   4.093 -1.1391 -0.8103  1.1325
 5826TIP3   OH217483   4.418   2.083   1.347 -0.2029  0.2113 -0.1157
 5826TIP3    H117484   4.474   2.105   1.421  0.3311  2.1909 -1.0364
 5826TIP3    H217485   4.477   2.082   1.272 -0.7638 -1.5984 -0.5905
 5827TIP3   OH217486   4.205   1.186   1.038 -0.1361  0.1615  0.4818
 5827TIP3    H117487   4.165   1.176   0.952  0.9306 -2.4118  0.1999
 5827TIP3    H217488   4.186   1.276   1.063 -3.5749 -0.0607 -0.8369
 5828TIP3   OH217489   3.395   4.489   2.391 -0.3720  0.2824 -0.2271
 5828TIP3    H117490   3.473   4.437   2.373 -0.2117  0.2534  0.5304
 5828TIP3    H217491   3.322   4.426   2.384 -0.0356 -0.5967  2.6946
 5829TIP3   OH217492   1.285   3.578   2.028 -0.1507  0.3881 -0.5200
 5829TIP3    H117493   1.375   3.609   2.038 -1.2662  3.7503  0.4257
 5829TIP3    H217494   1.262   3.544   2.114 -0.1754  0.7564 -0.3786
 5830TIP3   OH217495   0.371   4.675   0.059  0.1065  0.2655 -0.2343
 5830TIP3    H117496   0.294   4.629   0.024 -0.4901  0.4682  0.7812
 5830TIP3    H217497   0.348   4.695   0.150  1.0141  1.1019 -0.1715
 5831TIP3   OH217498   5.225   5.593   0.935 -0.4634  0.2578  0.1919
 5831TIP3    H117499   5.153   5.651   0.909 -0.1824 -0.2778 -2.0134
 5831TIP3    H217500   5.287   5.650   0.980 -0.8288  1.4080 -0.7125
 5832TIP3   OH217501   3.928   5.786   1.661  0.0407  0.0353  0.3254
 5832TIP3    H117502   3.970   5.723   1.720 -0.7350 -1.0274 -0.2387
 5832TIP3    H217503   3.932   5.746   1.575 -0.1597  0.9216 -0.1109
 5833TIP3   OH217504   3.705   0.844   1.589  0.2848  0.6693  0.7818
 5833TIP3    H117505   3.786   0.894   1.581  1.3323 -0.9728  0.7172
 5833TIP3    H217506   3.637   0.904   1.558  1.2806  2.5014  1.9141
 5834TIP3   OH217507   0.782   2.677   0.106  0.3262  0.1137 -0.0178
 5834TIP3    H117508   0.758   2.727   0.184 -0.5080 -1.3179  0.6887
 5834TIP3    H217509   0.852   2.727   0.066  2.1296 -0.0225  2.6953
 5835TIP3   OH217510   5.895   5.965   2.879  0.3356 -0.1968 -0.6514
 5835TIP3    H117511   5.869   5.974   2.788  0.3968  0.9989 -0.5705
 5835TIP3    H217512   5.819   5.996   2.929  0.3403 -0.7410 -0.3038
 5836TIP3   OH217513   2.062   3.133   2.056 -0.5439 -0.0722  0.4775
 5836TIP3    H117514   2.151   3.099   2.054 -0.8928 -0.9927 -0.5696
 5836TIP3    H217515   2.072   3.226   2.079  0.5081 -0.5977  2.2652
 5837TIP3   OH217516   4.574   4.369   0.226 -0.4485 -0.2465  0.1110
 5837TIP3    H117517   4.589   4.332   0.313  1.3225 -1.1823 -0.5489
 5837TIP3    H217518   4.657   4.412   0.203 -0.1803 -1.7137 -1.8903
 5838TIP3   OH217519   5.525   3.823   2.566  0.2541  0.2332  0.5027
 5838TIP3    H117520   5.483   3.852   2.647 -1.1993  0.0958 -0.1641
 5838TIP3    H217521   5.487   3.737   2.549 -0.2751  0.7108 -0.8686
 5839TIP3   OH217522   5.932   5.377   1.193  0.2009  0.4958  0.1536
 5839TIP3    H117523   5.989   5.383   1.270 -1.8452 -2.6721  2.1367
 5839TIP3    H217524   5.978   5.317   1.134  0.0566 -0.0808  0.6251
 5840TIP3   OH217525   6.097   4.924   3.326 -0.0239 -0.0539  0.1735
 5840TIP3    H117526   6.009   4.938   3.360 -0.1072  0.4086 -0.2230
 5840TIP3    H217527   6.096   4.967   3.240 -0.3102 -2.4924 -1.1447
 5841TIP3   OH217528   0.585   3.312   4.473 -0.1460 -0.2495  0.2853
 5841TIP3    H117529   0.586   3.405   4.495  0.7960 -0.2341  0.2172
 5841TIP3    H217530   0.492   3.292   4.459 -0.2991  0.8720 -0.4995
 5842TIP3   OH217531   5.002   0.185   4.664 -0.0657  0.5389  0.7457
 5842TIP3    H117532   5.060   0.149   4.732 -0.8584 -0.5341  0.8804
 5842TIP3    H217533   5.008   0.280   4.676  0.8944  0.4166  1.3996
 5843TIP3   OH217534   2.631   4.239   3.955  0.4863 -0.0031  0.1222
 5843TIP3    H117535   2.709   4.186   3.971  1.3915  0.9567 -0.9647
 5843TIP3    H217536   2.639   4.267   3.864 -1.2987 -0.1375 -0.1167
 5844TIP3   OH217537   1.135   4.606   1.595 -0.4428  0.0791  0.3571
 5844TIP3    H117538   1.185   4.617   1.676  0.4767  0.4210 -0.2394
 5844TIP3    H217539   1.072   4.679   1.596  0.0260  0.4876  0.4380
 5845TIP3   OH217540   6.020   0.603   3.260  0.6377  0.1525  0.5720
 5845TIP3    H117541   6.070   0.668   3.209  0.8436  0.5498  1.2750
 5845TIP3    H217542   6.087   0.542   3.291  0.3945 -0.6839 -0.4703
 5846TIP3   OH217543   3.322   3.579   4.722  0.3811  0.1436 -0.2160
 5846TIP3    H117544   3.266   3.598   4.646  0.3022  0.1657 -0.1522
 5846TIP3    H217545   3.360   3.493   4.703 -3.2384 -2.1456  1.8281
 5847TIP3   OH217546   1.504   5.871   3.023  0.1334 -0.2271 -0.4239
 5847TIP3    H117547   1.448   5.811   2.973 -0.0158 -0.5165  0.0793
 5847TIP3    H217548   1.562   5.813   3.072 -0.0546  0.0362  0.1158
 5848TIP3   OH217549   2.340   1.275   0.516 -0.1321 -0.1963  0.3405
 5848TIP3    H117550   2.250   1.303   0.497 -0.1614 -0.0994  0.6290
 5848TIP3    H217551   2.331   1.184   0.545 -0.2683  0.2065  1.5901
 5849TIP3   OH217552   3.940   4.036   4.266  0.2622 -0.3272 -0.0515
 5849TIP3    H117553   3.905   4.112   4.219 -0.5600  1.2164  2.8746
 5849TIP3    H217554   3.864   3.998   4.310  1.3145 -0.4716  1.6946
 5850TIP3   OH217555   0.461   1.523   3.124  1.1382 -0.4625  0.5719
 5850TIP3    H117556   0.501   1.562   3.046 -0.0706 -0.9280 -0.3188
 5850TIP3    H217557   0.526   1.533   3.192  1.7863  0.9883 -0.2206
 5851TIP3   OH217558   3.042   3.052   3.847  0.2075  0.1078 -0.4215
 5851TIP3    H117559   3.116   3.071   3.790  0.2480  0.6198 -0.2036
 5851TIP3    H217560   2.983   3.127   3.836  0.1471  0.1403  0.0915
 5852TIP3   OH217561   0.218   5.353   1.625  0.1815 -0.3100  0.2971
 5852TIP3    H117562   0.136   5.308   1.606 -1.0193  1.9023 -0.1527
 5852TIP3    H217563   0.201   5.399   1.707  1.5338 -1.0197  1.0032
 5853TIP3   OH217564   5.013   5.307   0.288  0.0203 -0.4025  0.3495
 5853TIP3    H117565   5.070   5.278   0.217  1.0176  0.4500  0.7809
 5853TIP3    H217566   4.968   5.228   0.318  0.8916 -1.0618 -0.0717
 5854TIP3   OH217567   0.861   5.589   2.806  0.0066 -0.2096  0.2545
 5854TIP3    H117568   0.875   5.498   2.831  1.3280  0.1216  0.7736
 5854TIP3    H217569   0.862   5.638   2.888  2.1205  0.5991 -0.1870
 5855TIP3   OH217570   0.668   2.078   4.170 -0.6275 -0.3481  0.3812
 5855TIP3    H117571   0.639   2.108   4.256  2.1816  1.3241  0.8628
 5855TIP3    H217572   0.731   2.008   4.188  0.7204  0.6770 -0.2414
 5856TIP3   OH217573   3.250   0.802   0.590 -0.7546 -0.0216  0.3415
 5856TIP3    H117574   3.296   0.866   0.645 -1.5749  0.4797  0.4680
 5856TIP3    H217575   3.281   0.820   0.502 -1.0985  0.6586  0.3568
 5857TIP3   OH217576   5.555   3.275   5.048 -0.5427  0.0091  0.2527
 5857TIP3    H117577   5.564   3.197   5.103  1.8104 -0.9643 -1.3291
 5857TIP3    H217578   5.629   3.270   4.987 -1.3024  2.5986 -1.0396
 5858TIP3   OH217579   4.933   5.277   2.539 -0.7784 -0.1445 -0.3002
 5858TIP3    H117580   4.934   5.294   2.445  1.4359 -0.7749 -0.4294
 5858TIP3    H217581   4.885   5.195   2.548 -0.0603 -0.6539 -0.9970
 5859TIP3   OH217582   2.082   3.719   3.788 -0.8417 -0.1030 -0.1153
 5859TIP3    H117583   2.094   3.635   3.833 -1.2359  0.6130  1.3958
 5859TIP3    H217584   2.053   3.695   3.700 -1.7220 -1.5469  0.5280
 5860TIP3   OH217585   4.425   2.945   4.142 -0.0607  0.0056  0.1392
 5860TIP3    H117586   4.368   2.912   4.073  0.4101 -0.4601 -0.0309
 5860TIP3    H217587   4.388   2.910   4.223 -0.9405  1.0078  0.1917
 5861TIP3   OH217588   0.488   2.287   2.169  0.0702  0.0720 -0.2811
 5861TIP3    H117589   0.396   2.304   2.190  0.0250 -0.1804 -0.2625
 5861TIP3    H217590   0.530   2.272   2.254  0.2799  0.9008 -0.2382
 5862TIP3   OH217591   5.745   1.777   3.227 -0.2326 -0.6453  0.4868
 5862TIP3    H117592   5.837   1.781   3.255 -1.0926  0.8067  3.5634
 5862TIP3    H217593   5.713   1.694   3.262 -0.8424  0.3304  2.3742
 5863TIP3   OH217594   5.911   1.036   3.205  0.5709 -0.5543  0.2786
 5863TIP3    H117595   5.960   0.966   3.162  0.7453 -1.4232  1.8554
 5863TIP3    H217596   5.857   0.992   3.270  0.6298  0.7571  1.2505
 5864TIP3   OH217597   4.925   2.235   0.310  0.2721  0.8325  0.0658
 5864TIP3    H117598   4.986   2.225   0.383  0.1366  2.5083  0.4687
 5864TIP3    H217599   4.861   2.166   0.322  1.3545 -0.1548  0.3752
 5865TIP3   OH217600   6.226   5.283   3.652 -0.3432  0.1834  0.2756
 5865TIP3    H117601   6.255   5.361   3.605 -1.1994 -0.7396 -1.9095
 5865TIP3    H217602   6.294   5.218   3.634 -0.7646 -0.2333  0.1964
 5866TIP3   OH217603   4.247   2.231   3.256 -0.0569  0.2208 -1.0606
 5866TIP3    H117604   4.275   2.317   3.226 -1.5358  0.7459 -0.9835
 5866TIP3    H217605   4.310   2.207   3.324 -0.6637  2.0184  0.1735
 5867TIP3   OH217606   2.585   0.960   4.364  0.0190 -0.9346 -0.2804
 5867TIP3    H117607   2.645   1.009   4.308  0.1906 -0.3577  0.4053
 5867TIP3    H217608   2.507   1.015   4.370 -0.3775 -1.4355 -0.7247
 5868TIP3   OH217609   1.948   2.920   4.502 -0.6801  0.3161 -0.5656
 5868TIP3    H117610   2.004   2.895   4.428  0.8564  1.6222  0.0972
 5868TIP3    H217611   1.937   2.840   4.553 -0.3626 -0.2133 -1.3162
 5869TIP3   OH217612   0.175   1.985   3.235 -0.0250  0.0328 -0.3270
 5869TIP3    H117613   0.204   1.894   3.225 -0.4159  0.0481 -1.7469
 5869TIP3    H217614   0.222   2.032   3.166  0.4976  1.0090  0.6569
 5870TIP3   OH217615   5.515   2.631   1.948  0.1090  0.4996  0.1896
 5870TIP3    H117616   5.554   2.552   1.986  3.7023  2.1350  0.3315
 5870TIP3    H217617   5.506   2.611   1.855  1.2003 -0.0255  0.1785
 5871TIP3   OH217618   2.820   2.372   2.053 -0.3666  0.1080  0.2316
 5871TIP3    H117619   2.766   2.301   2.019  0.7227 -1.1500  1.0241
 5871TIP3    H217620   2.798   2.377   2.146  1.4696 -1.0667  0.7887
 5872TIP3   OH217621   3.552   4.587   0.677 -0.2291  1.0080  0.1064
 5872TIP3    H117622   3.601   4.574   0.596 -0.6661  0.7535 -0.1218
 5872TIP3    H217623   3.477   4.527   0.670 -0.4819  1.2664  0.5228
 5873TIP3   OH217624   1.782   1.475   1.895  0.0196 -0.4773 -0.3283
 5873TIP3    H117625   1.691   1.477   1.923  0.2637  1.2337  0.4896
 5873TIP3    H217626   1.794   1.556   1.846  0.7297 -1.3979 -1.7399
 5874TIP3   OH217627   6.024   2.560   1.375  0.3696  0.3267  0.1747
 5874TIP3    H117628   6.056   2.604   1.454  1.7883 -3.0275  1.6491
 5874TIP3    H217629   6.006   2.470   1.402  3.5462 -1.8611 -3.7360
 5875TIP3   OH217630   1.757   1.436   3.963  0.3741 -0.0214 -0.1179
 5875TIP3    H117631   1.788   1.524   3.984  0.2242 -0.1820  0.8059
 5875TIP3    H217632   1.708   1.408   4.040 -1.2627 -0.1518 -1.1440
 5876TIP3   OH217633   3.696   0.303   3.808  0.1135  0.1670 -0.2709
 5876TIP3    H117634   3.717   0.394   3.832  0.7138  0.0618 -0.3823
 5876TIP3    H217635   3.679   0.260   3.892 -0.2892  0.4109 -0.2271
 5877TIP3   OH217636   2.421   4.748   1.227 -0.0390 -0.0880  0.3052
 5877TIP3    H117637   2.406   4.773   1.136 -0.0824  0.9867  0.5870
 5877TIP3    H217638   2.366   4.808   1.277  0.4256 -0.2847  1.0665
 5878TIP3   OH217639   3.952   1.784   1.425 -0.4571  0.4411 -0.2059
 5878TIP3    H117640   3.892   1.751   1.359 -0.5997  1.1677 -0.4493
 5878TIP3    H217641   3.996   1.858   1.383 -0.9429  1.2545  0.6773
 5879TIP3   OH217642   1.627   3.809   4.557 -0.4598  0.3765  0.4365
 5879TIP3    H117643   1.661   3.878   4.615 -0.6216 -0.2938  1.3604
 5879TIP3    H217644   1.659   3.727   4.596  0.0211 -0.0625 -0.8382
 5880TIP3   OH217645   2.109   0.572   4.318 -0.2377 -0.0763 -0.6962
 5880TIP3    H117646   2.156   0.491   4.300 -1.7516 -0.8049 -1.5986
 5880TIP3    H217647   2.018   0.554   4.292 -1.3058  0.8755  1.9724
 5881TIP3   OH217648   5.354   0.040   0.095 -0.8749  0.3406 -0.2668
 5881TIP3    H117649   5.358   0.102   0.168 -0.2945 -1.8260  1.7103
 5881TIP3    H217650   5.314  -0.039   0.133  1.1351 -1.5283 -1.7302
 5882TIP3   OH217651   6.283   5.619   5.073 -0.0013 -0.4338  0.2166
 5882TIP3    H117652   6.305   5.646   4.984 -0.8016  0.3815  0.2452
 5882TIP3    H217653   6.364   5.629   5.123  0.3644 -0.5750 -0.3457
 5883TIP3   OH217654   0.707   5.035   4.272 -0.3357 -0.2911  0.3061
 5883TIP3    H117655   0.776   4.974   4.249 -0.1171  0.3657 -0.8495
 5883TIP3    H217656   0.639   5.021   4.206 -0.0208  1.1103 -0.3566
 5884TIP3   OH217657   0.454   0.748   1.071 -0.6988 -0.1014  0.4407
 5884TIP3    H117658   0.512   0.674   1.089 -1.1583 -0.3176  1.0420
 5884TIP3    H217659   0.471   0.770   0.979  0.6586  0.1186  0.7189
 5885TIP3   OH217660   0.856   3.981   2.194 -0.3013 -0.2662  0.2775
 5885TIP3    H117661   0.880   3.897   2.154 -1.7961 -1.4164  1.6465
 5885TIP3    H217662   0.878   4.046   2.128  1.6099 -1.6435 -0.5459
 5886TIP3   OH217663   4.677   4.134   3.079 -0.4435  0.2651 -0.1566
 5886TIP3    H117664   4.605   4.152   3.019  1.7323  1.1154 -2.7339
 5886TIP3    H217665   4.705   4.221   3.109 -2.6520 -0.1708  3.8256
 5887TIP3   OH217666   5.668   3.490   1.170 -0.6455  0.0225  0.5939
 5887TIP3    H117667   5.656   3.396   1.153 -1.1281  0.0757  0.6469
 5887TIP3    H217668   5.760   3.497   1.196 -0.3410 -0.2970 -0.3533
 5888TIP3   OH217669   3.503   3.069   1.095 -0.3626  0.1629 -0.1888
 5888TIP3    H117670   3.447   3.074   1.018 -1.9979 -3.4857  0.5467
 5888TIP3    H217671   3.490   3.152   1.140 -3.5532  0.3434 -1.2111
 5889TIP3   OH217672   2.870   1.381   2.488 -0.6190  0.6552  0.6298
 5889TIP3    H117673   2.925   1.458   2.476  0.5120 -0.3961 -1.6462
 5889TIP3    H217674   2.912   1.331   2.557 -1.0239  1.7352  1.7003
 5890TIP3   OH217675   1.431   2.534   2.315  0.1849 -0.1038 -0.7649
 5890TIP3    H117676   1.385   2.450   2.315  0.5946 -0.4846  2.7472
 5890TIP3    H217677   1.522   2.513   2.297  0.3177 -0.4956  0.2892
 5891TIP3   OH217678   6.288   5.116   4.170 -0.7233 -0.1121  0.3501
 5891TIP3    H117679   6.235   5.039   4.190 -1.3591  0.4499  0.9025
 5891TIP3    H217680   6.300   5.114   4.075 -2.2723  0.0711  0.1237
 5892TIP3   OH217681   0.767   3.945   3.779 -0.0544  0.3669  0.3839
 5892TIP3    H117682   0.783   3.921   3.688  1.7507 -2.1952  1.2663
 5892TIP3    H217683   0.671   3.946   3.787 -0.2561  1.0272 -1.5830
 5893TIP3   OH217684   4.388   5.005   1.283 -0.3852  0.0598 -0.2432
 5893TIP3    H117685   4.329   5.051   1.342  1.1993  0.7606  0.8322
 5893TIP3    H217686   4.367   5.040   1.196 -1.0498  0.8135  0.2141
 5894TIP3   OH217687   3.644   1.966   2.234  0.1683 -0.3201  0.1710
 5894TIP3    H117688   3.670   1.880   2.204 -1.7646 -0.9359  0.0950
 5894TIP3    H217689   3.663   1.966   2.328  0.3615 -0.7646  0.1306
 5895TIP3   OH217690   1.728   3.919   4.014 -0.8442 -0.1469 -0.1426
 5895TIP3    H117691   1.703   3.922   4.107 -2.5806  1.7908 -0.5961
 5895TIP3    H217692   1.720   4.010   3.985  1.9733 -0.2910 -1.6711
 5896TIP3   OH217693   0.765   2.652   2.741 -0.3812 -0.6484  0.1776
 5896TIP3    H117694   0.775   2.737   2.783 -0.3740 -0.3750 -0.3608
 5896TIP3    H217695   0.749   2.591   2.813 -1.2691 -0.0532  0.5085
 5897TIP3   OH217696   2.914   1.038   3.741  0.1472  0.0323  0.8821
 5897TIP3    H117697   2.877   1.027   3.829  0.0713  0.1045  0.8599
 5897TIP3    H217698   2.869   0.972   3.688 -0.8132  0.8781  0.5964
 5898TIP3   OH217699   1.202   1.096   4.407  0.3150  0.3249 -0.7240
 5898TIP3    H117700   1.229   1.073   4.496  0.1572  0.6426 -0.5936
 5898TIP3    H217701   1.110   1.069   4.402  0.5352 -0.3810 -1.0350
 5899TIP3   OH217702   6.037   2.570   3.273  0.3429 -0.2620 -0.0673
 5899TIP3    H117703   6.056   2.511   3.200  1.0411 -1.4277  1.0345
 5899TIP3    H217704   5.954   2.538   3.308  0.4531 -0.2438  0.2060
 5900TIP3   OH217705   5.208   1.174   3.837 -0.9165  0.9074  0.1830
 5900TIP3    H117706   5.204   1.237   3.910  1.4068  1.3048  0.0412
 5900TIP3    H217707   5.170   1.094   3.873 -0.4239  1.2908  1.6322
 5901TIP3   OH217708   5.068   2.452   3.176 -0.0083 -0.5307 -0.4887
 5901TIP3    H117709   5.081   2.513   3.104 -0.7000 -0.8147 -0.8698
 5901TIP3    H217710   5.029   2.505   3.246  0.9288 -0.1953 -0.2123
 5902TIP3   OH217711   0.956   5.408   1.378 -0.7986  0.6663 -0.2258
 5902TIP3    H117712   0.913   5.486   1.413 -2.3357 -0.1060 -0.2862
 5902TIP3    H217713   0.908   5.335   1.417  0.7341 -0.2714 -0.0168
 5903TIP3   OH217714   1.126   2.239   3.561  0.3318 -0.1344 -0.2999
 5903TIP3    H117715   1.044   2.264   3.604  0.2942 -2.4551  1.1962
 5903TIP3    H217716   1.195   2.275   3.618  0.3204 -0.0807 -0.3202
 5904TIP3   OH217717   5.927   1.742   2.037  0.2190  0.4918 -0.1603
 5904TIP3    H117718   6.011   1.789   2.035 -0.8954  2.5497 -1.4686
 5904TIP3    H217719   5.922   1.700   1.951 -0.5313  1.2368 -0.4889
 5905TIP3   OH217720   2.070   2.636   0.766 -1.1111 -0.0627 -0.1568
 5905TIP3    H117721   2.012   2.577   0.718 -0.8382 -0.6347  0.2104
 5905TIP3    H217722   2.012   2.689   0.820 -1.3561 -0.0023 -0.4739
 5906TIP3   OH217723   2.734   0.516   1.082 -0.3758  0.2752 -0.8540
 5906TIP3    H117724   2.695   0.480   1.161 -0.7018  1.1191 -0.6278
 5906TIP3    H217725   2.668   0.576   1.047  0.5322  1.4207 -0.6783
 5907TIP3   OH217726   0.104   0.743   2.685  0.1113  0.2287  0.2085
 5907TIP3    H117727   0.081   0.836   2.683 -1.0232  0.0701  2.5850
 5907TIP3    H217728   0.161   0.734   2.760  0.3806 -0.9779 -0.1188
 5908TIP3   OH217729   3.290   5.738   0.875  0.2855 -0.2716  0.5790
 5908TIP3    H117730   3.217   5.763   0.931  0.7478  1.1924  0.5685
 5908TIP3    H217731   3.253   5.737   0.786  0.2991  0.5830  0.5605
 5909TIP3   OH217732   1.556   3.219   4.337  0.4822  0.2757 -0.0597
 5909TIP3    H117733   1.488   3.160   4.305  1.8700 -1.3241 -0.2047
 5909TIP3    H217734   1.514   3.305   4.340 -1.8780 -0.8238  0.9646
 5910TIP3   OH217735   0.428   5.611   0.982  0.2723 -0.4969 -0.3276
 5910TIP3    H117736   0.494   5.677   0.962  0.8318 -1.0111 -0.2031
 5910TIP3    H217737   0.468   5.557   1.050 -0.1524 -1.0074 -0.4743
 5911TIP3   OH217738   2.050   5.337   4.423 -0.0607  0.3138 -0.7255
 5911TIP3    H117739   2.058   5.255   4.375 -1.6493 -0.7087  0.6463
 5911TIP3    H217740   1.974   5.380   4.384  0.7669  1.1829 -1.4400
 5912TIP3   OH217741   0.992   2.879   2.096  0.1545  0.0921 -0.1681
 5912TIP3    H117742   1.026   2.967   2.077 -1.9930  0.7127 -1.4220
 5912TIP3    H217743   0.900   2.893   2.120 -0.8868 -1.9455 -2.5110
 5913TIP3   OH217744   5.817   0.827   0.897 -0.3872  0.3242 -0.2989
 5913TIP3    H117745   5.785   0.913   0.923 -1.2225  0.1787 -0.7923
 5913TIP3    H217746   5.795   0.820   0.804  0.5155 -0.0504 -0.4893
 5914TIP3   OH217747   5.275   1.922   2.874 -0.2550 -0.2823 -0.3310
 5914TIP3    H117748   5.181   1.928   2.892  0.0468  0.5265  1.1901
 5914TIP3    H217749   5.316   1.975   2.942  1.3364 -0.8536 -0.7825
 5915TIP3   OH217750   4.661   3.087   4.243 -0.6235 -0.2141  0.0514
 5915TIP3    H117751   4.741   3.054   4.203 -1.0508 -0.0135 -1.0077
 5915TIP3    H217752   4.591   3.043   4.196 -1.1777  1.2878 -0.5968
 5916TIP3   OH217753   4.191   1.795   3.242  0.1640  0.1410 -0.1664
 5916TIP3    H117754   4.152   1.852   3.176  0.6571  1.2746  0.4975
 5916TIP3    H217755   4.197   1.710   3.199  2.3468  1.2800 -2.3387
 5917TIP3   OH217756   4.373   0.769   2.763  0.0151  0.1956  0.3774
 5917TIP3    H117757   4.459   0.743   2.796  1.0952  2.0560 -0.7664
 5917TIP3    H217758   4.323   0.793   2.841  0.0944 -1.9749  1.1536
 5918TIP3   OH217759   5.811   5.254   3.847  0.4464  0.1309  0.5921
 5918TIP3    H117760   5.769   5.229   3.765  0.9521  1.4832 -0.1138
 5918TIP3    H217761   5.825   5.172   3.893 -2.9973 -0.4380  0.9165
 5919TIP3   OH217762   1.471   3.508   3.786 -0.5536 -0.1377  0.0232
 5919TIP3    H117763   1.424   3.490   3.868 -0.1243  0.8791  0.5044
 5919TIP3    H217764   1.475   3.603   3.781  0.1931 -0.2002 -0.7440
 5920TIP3   OH217765   5.069   3.177   2.072  0.2028  0.3019 -0.3614
 5920TIP3    H117766   5.019   3.233   2.131 -3.0426 -1.9749 -0.6685
 5920TIP3    H217767   5.078   3.229   1.992  0.5543  1.7130  0.5705
 5921TIP3   OH217768   3.324   2.453   1.915  0.4730  0.1925 -0.8317
 5921TIP3    H117769   3.379   2.401   1.856 -0.8239 -1.1707 -0.8951
 5921TIP3    H217770   3.239   2.409   1.913 -0.5487  2.0684 -0.5159
 5922TIP3   OH217771   0.461   4.263   3.928 -0.0290  0.3891 -0.1041
 5922TIP3    H117772   0.498   4.279   4.015  1.7148  0.3848 -0.8081
 5922TIP3    H217773   0.510   4.320   3.870  0.4461 -1.2536 -1.4062
 5923TIP3   OH217774   5.193   3.084   4.330  0.2243  0.1738 -0.4836
 5923TIP3    H117775   5.104   3.119   4.331  0.1779  0.0435 -0.1045
 5923TIP3    H217776   5.245   3.149   4.378  0.3747  0.3559 -0.8885
 5924TIP3   OH217777   3.665   5.711   0.945  0.4048 -0.9933  0.4749
 5924TIP3    H117778   3.690   5.757   0.865 -0.4303 -0.3817  0.5546
 5924TIP3    H217779   3.644   5.622   0.915 -1.5240 -0.3297 -0.2823
 5925TIP3   OH217780   4.957   1.439   3.874 -0.4680 -0.0107  0.1744
 5925TIP3    H117781   5.050   1.446   3.850 -0.4628  1.0872  0.4367
 5925TIP3    H217782   4.929   1.530   3.885 -1.9354 -0.2503 -1.2359
 5926TIP3   OH217783   4.711   2.712   4.290  0.5555  0.1654 -0.2646
 5926TIP3    H117784   4.690   2.731   4.199  0.6548  1.3142 -0.0637
 5926TIP3    H217785   4.627   2.718   4.335  0.5815  0.0562 -0.1997
 5927TIP3   OH217786   2.888   2.962   4.697  0.0054  0.5669  0.0181
 5927TIP3    H117787   2.979   2.968   4.726  0.0948 -0.1909 -0.0840
 5927TIP3    H217788   2.893   2.927   4.608 -0.4269 -0.6083  0.4341
 5928TIP3   OH217789   2.257   4.632   3.795 -0.0610 -0.1399  0.3347
 5928TIP3    H117790   2.319   4.664   3.729  2.2495 -2.1465  1.3686
 5928TIP3    H217791   2.282   4.677   3.875 -1.1930  0.3864  0.4140
 5929TIP3   OH217792   3.584   5.434   3.738 -0.1154 -0.3699 -0.0857
 5929TIP3    H117793   3.521   5.480   3.793 -0.9519  0.6183 -1.7562
 5929TIP3    H217794   3.553   5.343   3.736 -0.8203 -0.1437  0.0700
 5930TIP3   OH217795   4.737   1.639   3.892 -0.3229 -0.1758  0.1893
 5930TIP3    H117796   4.711   1.642   3.984 -1.0321 -2.7180  0.1383
 5930TIP3    H217797   4.778   1.725   3.876  0.1135  0.2146  2.9300
 5931TIP3   OH217798   4.039   0.711   2.579 -0.1884  0.1826  0.0514
 5931TIP3    H117799   4.130   0.707   2.547  0.0303  4.2065 -0.2819
 5931TIP3    H217800   3.987   0.679   2.505  0.8172  0.1592 -0.6773
 5932TIP3   OH217801   2.320   2.847   4.274  0.4101  0.2112  0.3240
 5932TIP3    H117802   2.246   2.907   4.282  0.6533  0.6243 -0.3919
 5932TIP3    H217803   2.328   2.831   4.180 -0.1948 -1.6484  0.5463
 5933TIP3   OH217804   2.256   5.791   1.631  0.0498  0.5441 -0.0717
 5933TIP3    H117805   2.201   5.776   1.554  0.5311  0.4244 -0.3917
 5933TIP3    H217806   2.304   5.871   1.611 -0.3322  0.8964  0.3972
 5934TIP3   OH217807   4.057   1.791   4.752 -0.4438 -0.1988 -0.2252
 5934TIP3    H117808   4.074   1.875   4.795  0.1228 -0.3993 -0.0518
 5934TIP3    H217809   3.964   1.793   4.732 -0.5850  0.1747  0.4277
 5935TIP3   OH217810   0.580   1.785   2.475  0.2737  0.4016 -0.1190
 5935TIP3    H117811   0.492   1.822   2.482  0.4722  0.9616 -0.4733
 5935TIP3    H217812   0.630   1.829   2.544 -0.2086 -1.4373  1.4726
 5936TIP3   OH217813   0.236   1.674   2.245 -0.2352 -0.0355  0.1435
 5936TIP3    H117814   0.283   1.591   2.240 -0.9959 -0.4794  0.1758
 5936TIP3    H217815   0.274   1.719   2.320  0.3319 -0.2631 -0.0090
 5937TIP3   OH217816   0.408   5.888   3.670  0.5483 -0.5636 -0.3098
 5937TIP3    H117817   0.348   5.952   3.632 -1.2816 -0.8298  1.8746
 5937TIP3    H217818   0.485   5.939   3.696 -0.3459  0.5557  0.2395
 5938TIP3   OH217819   4.441   2.228   3.451  0.3624  0.3757  0.1803
 5938TIP3    H117820   4.433   2.323   3.452  0.0543  0.3663 -0.6506
 5938TIP3    H217821   4.531   2.211   3.479  0.6496  0.9461 -0.3678
 5939TIP3   OH217822   3.648   0.679   0.970  0.5232  0.6747  0.3419
 5939TIP3    H117823   3.557   0.701   0.991  0.2144 -2.0463  2.3168
 5939TIP3    H217824   3.648   0.669   0.874 -2.0307 -1.9955  0.4828
 5940TIP3   OH217825   3.163   3.129   3.593 -0.2859  0.8464  0.1029
 5940TIP3    H117826   3.095   3.196   3.598 -0.5170  0.5998  0.2643
 5940TIP3    H217827   3.211   3.149   3.513 -0.1458  1.4035  0.3195
 5941TIP3   OH217828   1.379   5.873   3.809  0.1498 -0.4434 -0.5274
 5941TIP3    H117829   1.363   5.785   3.843  0.2070  0.3378  1.7336
 5941TIP3    H217830   1.294   5.902   3.775 -0.4111 -0.6037  0.6878
 5942TIP3   OH217831   5.111   3.493   4.412 -0.5262  0.8672  0.2227
 5942TIP3    H117832   5.128   3.470   4.503 -0.3349 -0.0434 -0.0250
 5942TIP3    H217833   5.189   3.541   4.384  0.2958 -0.5383 -0.0029
 5943TIP3   OH217834   6.257   2.084   0.725 -0.0517  0.1731 -0.4547
 5943TIP3    H117835   6.329   2.031   0.692 -1.1285  0.0854 -2.9408
 5943TIP3    H217836   6.250   2.156   0.662 -0.6612  1.4674  1.0383
 5944TIP3   OH217837   2.740   3.714   1.688  0.6861 -0.0585 -0.7262
 5944TIP3    H117838   2.675   3.644   1.678 -1.0385  1.3832 -0.1902
 5944TIP3    H217839   2.745   3.754   1.601 -1.7881  1.9507 -0.0710
 5945TIP3   OH217840   0.634   4.379   4.990 -0.3205  0.5736 -0.6070
 5945TIP3    H117841   0.573   4.334   4.931 -0.2022  0.7305 -0.8505
 5945TIP3    H217842   0.717   4.332   4.978 -0.7968 -0.7643  1.0149
 5946TIP3   OH217843   6.007   4.694   0.668  0.1533 -0.1349 -0.4933
 5946TIP3    H117844   6.061   4.773   0.672 -0.4846  0.3560 -1.2195
 5946TIP3    H217845   5.957   4.703   0.586  0.4278 -1.5280 -0.8502
 5947TIP3   OH217846   0.090   2.466   0.727  0.0963  0.5771  0.2568
 5947TIP3    H117847   0.074   2.559   0.707  1.5383  0.7967  0.0066
 5947TIP3    H217848   0.056   2.419   0.651  0.0660  0.9584  0.0303
 5948TIP3   OH217849   4.984   4.424   0.979 -0.0879  0.4528 -0.2045
 5948TIP3    H117850   5.077   4.408   0.966 -0.0891 -0.1376  0.4810
 5948TIP3    H217851   4.941   4.375   0.908 -0.0428 -2.0173  1.3696
 5949TIP3   OH217852   4.207   2.335   2.824  0.6021 -0.1244 -0.4541
 5949TIP3    H117853   4.297   2.310   2.846  0.7762  1.1750  0.4249
 5949TIP3    H217854   4.201   2.322   2.729  1.4652 -0.9764 -0.4026
 5950TIP3   OH217855   6.168   4.402   2.685 -0.0913  0.2659 -0.3251
 5950TIP3    H117856   6.227   4.365   2.620 -0.9803  0.2064 -1.1183
 5950TIP3    H217857   6.226   4.447   2.746  0.8064 -0.1701 -0.8214
 5951TIP3   OH217858   4.835   4.519   0.510 -0.3430 -0.1696 -0.2259
 5951TIP3    H117859   4.928   4.517   0.532 -0.8633 -2.9481  2.3392
 5951TIP3    H217860   4.794   4.564   0.585 -1.2249 -0.4338 -0.5348
 5952TIP3   OH217861   5.874   4.464   1.509  0.2977 -0.2366 -0.3482
 5952TIP3    H117862   5.792   4.457   1.461  0.8541 -1.3399 -1.1933
 5952TIP3    H217863   5.893   4.374   1.537 -0.0981  0.3841  2.1307
 5953TIP3   OH217864   2.627   3.302   2.291  0.1982  0.3030  0.4277
 5953TIP3    H117865   2.658   3.356   2.364 -0.0484 -0.6872  1.2951
 5953TIP3    H217866   2.612   3.216   2.330  0.9983 -0.5281 -1.0104
 5954TIP3   OH217867   0.096   1.270   0.423  0.0678 -0.2209 -0.5901
 5954TIP3    H117868   0.064   1.360   0.419 -2.0870 -0.9830 -1.7431
 5954TIP3    H217869   0.176   1.271   0.370  0.7129  1.2206  0.3562
 5955TIP3   OH217870   5.904   4.148   0.544  0.7869  0.2143  0.3903
 5955TIP3    H117871   5.983   4.101   0.571 -0.6840 -1.2440  2.5153
 5955TIP3    H217872   5.875   4.104   0.465  1.9897  0.6877 -0.3436
 5956TIP3   OH217873   3.114   3.303   4.918 -0.3940  0.2249  0.0644
 5956TIP3    H117874   3.029   3.326   4.955 -1.7790 -2.3429 -1.1983
 5956TIP3    H217875   3.109   3.208   4.905  2.8725 -0.1061  0.3423
 5957TIP3   OH217876   3.906   2.947   2.610  0.0463  0.6342 -0.0343
 5957TIP3    H117877   3.987   2.896   2.609 -1.0510 -1.2021 -1.1043
 5957TIP3    H217878   3.904   2.991   2.525 -0.1807  0.4829 -0.1089
 5958TIP3   OH217879   0.189   4.659   4.347  0.4825 -0.0581 -0.0828
 5958TIP3    H117880   0.200   4.724   4.278 -0.3805 -0.8993 -1.0436
 5958TIP3    H217881   0.276   4.652   4.387  0.8759  0.7922 -0.7551
 5959TIP3   OH217882   2.050   1.772   0.312  0.0535  0.0239 -0.1014
 5959TIP3    H117883   2.129   1.768   0.259  0.2616  0.5122  0.1689
 5959TIP3    H217884   2.017   1.682   0.312 -0.1505  0.0936 -1.3459
 5960TIP3   OH217885   5.969   0.407   3.484 -0.7073 -0.1149  0.2184
 5960TIP3    H117886   5.915   0.421   3.407 -1.3135  0.6226  0.7768
 5960TIP3    H217887   6.059   0.408   3.450 -1.0151 -2.8512 -0.9654
 5961TIP3   OH217888   0.375   3.464   4.117  0.0407 -0.0348  0.0382
 5961TIP3    H117889   0.404   3.502   4.200 -0.0949 -0.4831  0.2942
 5961TIP3    H217890   0.455   3.434   4.075  0.0965  0.0773  0.0648
 5962TIP3   OH217891   3.340   2.119   1.379 -0.3203  0.0092  0.2264
 5962TIP3    H117892   3.268   2.176   1.406  1.0888  1.5020  1.0490
 5962TIP3    H217893   3.379   2.164   1.304  0.4163 -0.1768  0.4858
 5963TIP3   OH217894   5.397   5.772   1.933  0.0222 -0.0638 -0.1699
 5963TIP3    H117895   5.406   5.732   1.847 -1.9549 -2.1545  0.4717
 5963TIP3    H217896   5.402   5.698   1.994  0.4411  1.2453  1.4562
 5964TIP3   OH217897   5.214   3.277   4.938 -0.6919 -0.2160 -0.0071
 5964TIP3    H117898   5.149   3.260   5.006  1.7109 -1.5633  2.1709
 5964TIP3    H217899   5.274   3.341   4.977  1.2302 -1.6577 -0.3911
 5965TIP3   OH217900   2.742   5.369   5.058 -0.2364  0.0854  0.1440
 5965TIP3    H117901   2.675   5.327   5.004  0.6762 -1.0633 -0.1503
 5965TIP3    H217902   2.769   5.445   5.008  0.5057 -0.8917 -1.0021
 5966TIP3   OH217903   3.060   5.157   4.575  0.4512 -0.1420  0.3266
 5966TIP3    H117904   3.090   5.145   4.665 -0.4009  0.9288  0.7820
 5966TIP3    H217905   3.077   5.249   4.555  1.8117 -0.6511 -1.0954
 5967TIP3   OH217906   0.109   5.002   0.832  0.3057  0.3100  0.2328
 5967TIP3    H117907   0.164   5.060   0.780 -0.4299 -0.5960 -1.6466
 5967TIP3    H217908   0.021   5.039   0.826  0.2785  0.4478  1.2530
 5968TIP3   OH217909   4.805   4.487   4.365  0.5323 -0.3790 -0.4427
 5968TIP3    H117910   4.859   4.423   4.411  0.0881 -0.0008  0.6437
 5968TIP3    H217911   4.764   4.538   4.435  0.8928  1.1058 -1.2714
 5969TIP3   OH217912   1.743   4.471   3.832 -0.4155 -0.7233  0.0046
 5969TIP3    H117913   1.725   4.468   3.738  1.2818  2.1397 -0.5459
 5969TIP3    H217914   1.807   4.542   3.841 -1.1984 -0.3160  3.4472
 5970TIP3   OH217915   5.344   3.462   1.560 -0.8900 -1.1534 -0.3181
 5970TIP3    H117916   5.303   3.527   1.504 -0.3479  0.7626  1.3781
 5970TIP3    H217917   5.278   3.442   1.626 -0.1011 -0.1113  0.8293
 5971TIP3   OH217918   1.562   2.547   1.702 -0.3754 -0.1172  0.4350
 5971TIP3    H117919   1.504   2.564   1.628  0.0056  0.6047  0.2937
 5971TIP3    H217920   1.564   2.630   1.750  2.2474  0.6273 -0.7645
 5972TIP3   OH217921   2.770   0.305   4.970  0.0472  0.0986 -0.1548
 5972TIP3    H117922   2.675   0.295   4.960 -0.0175  1.5116 -1.2193
 5972TIP3    H217923   2.782   0.399   4.987  1.4306  0.5460 -3.0315
 5973TIP3   OH217924   5.836   4.433   4.053  0.0738  0.3105 -0.2353
 5973TIP3    H117925   5.794   4.446   4.139  1.6573  0.8610  0.5062
 5973TIP3    H217926   5.815   4.343   4.029 -3.5716  1.2469 -1.1223
 5974TIP3   OH217927   5.230   2.801   4.518 -0.6431 -0.2186  0.6377
 5974TIP3    H117928   5.189   2.886   4.536  2.2977  1.4733 -0.0454
 5974TIP3    H217929   5.190   2.771   4.437 -0.2441  1.5936 -0.2672
 5975TIP3   OH217930   2.530   5.824   2.660 -0.0183 -0.3694  0.4907
 5975TIP3    H117931   2.518   5.854   2.570  1.5006  2.1063  1.0108
 5975TIP3    H217932   2.447   5.845   2.703  0.2555  1.1987  0.3075
 5976TIP3   OH217933   4.193   3.953   1.879  0.0701  0.0607 -0.1909
 5976TIP3    H117934   4.256   3.953   1.806 -1.5652  1.6076 -1.7252
 5976TIP3    H217935   4.108   3.965   1.836 -0.9977  0.5734  1.9593
 5977TIP3   OH217936   0.476   5.163   3.411 -0.4671 -0.4969 -0.1354
 5977TIP3    H117937   0.394   5.210   3.424 -0.5539 -0.7488  0.2279
 5977TIP3    H217938   0.529   5.185   3.488 -0.2783 -0.5107 -0.2608
 5978TIP3   OH217939   4.991   4.178   5.022 -0.6213  0.3693 -0.1558
 5978TIP3    H117940   4.980   4.226   5.104 -1.2666 -0.3124  0.1712
 5978TIP3    H217941   5.086   4.166   5.014 -0.5494  0.4879  0.4659
 5979TIP3   OH217942   2.902   3.917   5.040  0.6142  0.3188 -0.2478
 5979TIP3    H117943   2.920   3.883   4.952  1.7452 -0.5943  0.3021
 5979TIP3    H217944   2.957   3.994   5.047  1.7909 -0.5424  0.2239
 5980TIP3   OH217945   4.813   2.331   4.993 -0.2551  0.2346 -0.0194
 5980TIP3    H117946   4.838   2.424   4.996 -0.6156  0.4138 -1.7056
 5980TIP3    H217947   4.897   2.284   4.993 -0.0380  0.6152 -0.3645
 5981TIP3   OH217948   4.835   0.284   1.211  0.3034  0.1739 -0.0388
 5981TIP3    H117949   4.929   0.290   1.227 -0.2676  2.8140  3.5347
 5981TIP3    H217950   4.806   0.212   1.268  0.0300 -0.0416 -0.4466
 5982TIP3   OH217951   4.650   3.010   2.563  0.6111 -0.1482  0.7493
 5982TIP3    H117952   4.668   3.009   2.657 -2.6978 -0.0656  1.5058
 5982TIP3    H217953   4.615   3.098   2.546 -0.7053 -0.7979 -0.1039
 5983TIP3   OH217954   4.263   0.501   4.968  0.1593  0.3940  0.1163
 5983TIP3    H117955   4.202   0.575   4.965 -2.4434 -1.6429 -1.4231
 5983TIP3    H217956   4.290   0.489   4.878  1.2837 -0.0276  0.4923
 5984TIP3   OH217957   4.160   1.039   0.058  0.1914  0.4131 -0.5024
 5984TIP3    H117958   4.118   1.013   0.140 -0.8809  1.0120 -0.8383
 5984TIP3    H217959   4.233   0.978   0.048  0.2616  0.2391  0.8202
 5985TIP3   OH217960   5.389   5.778   1.049 -0.1226  0.1819 -0.2706
 5985TIP3    H117961   5.310   5.832   1.052  0.7765  1.5145  2.1139
 5985TIP3    H217962   5.459   5.836   1.079  1.4094 -1.5469 -0.3444
 5986TIP3   OH217963   2.265   3.542   2.350  0.0522 -0.8302 -0.0158
 5986TIP3    H117964   2.228   3.603   2.413  0.1166 -0.5654 -0.2313
 5986TIP3    H217965   2.357   3.568   2.342  0.4479 -1.8524  0.9544
 5987TIP3   OH217966   1.767   4.898   3.105  0.0621 -0.0844 -0.3184
 5987TIP3    H117967   1.697   4.834   3.092 -0.9171  1.0729 -1.0374
 5987TIP3    H217968   1.745   4.942   3.187  0.8258 -0.7522  0.2627
 5988TIP3   OH217969   0.021   4.941   1.099 -0.2216 -0.0939  0.1644
 5988TIP3    H117970   0.070   4.964   1.020 -1.3576 -0.6686 -0.7458
 5988TIP3    H217971   0.049   5.005   1.164  1.3835 -0.1351 -0.4413
 5989TIP3   OH217972   5.593   0.496   2.833 -0.0612  0.2904 -0.5015
 5989TIP3    H117973   5.547   0.424   2.791 -2.0757  1.0527  0.3057
 5989TIP3    H217974   5.578   0.483   2.927  1.7094  0.3779 -0.1581
 5990TIP3   OH217975   1.783   2.463   3.286 -0.0694  0.4397 -0.5861
 5990TIP3    H117976   1.776   2.436   3.195  1.2866  1.0052 -0.8845
 5990TIP3    H217977   1.833   2.545   3.283  1.6972 -0.5062  0.7729
 5991TIP3   OH217978   0.627   1.739   4.127  0.9654  0.1015 -0.4652
 5991TIP3    H117979   0.673   1.656   4.138  1.5985  0.6326  1.1761
 5991TIP3    H217980   0.666   1.797   4.193  0.1571  1.5362 -1.2088
 5992TIP3   OH217981   2.996   0.447   3.547 -0.4120  0.1130 -0.9361
 5992TIP3    H117982   3.004   0.469   3.639  2.6020 -0.3214 -0.9779
 5992TIP3    H217983   2.944   0.367   3.545  0.1631 -0.3183  0.4920
 5993TIP3   OH217984   5.016   0.472   1.659 -0.3011 -0.2654 -0.2567
 5993TIP3    H117985   5.040   0.541   1.598 -0.1725  0.4761  0.5991
 5993TIP3    H217986   5.072   0.487   1.735 -1.7116 -0.0085  0.7842
 5994TIP3   OH217987   2.783   0.682   3.990  0.2696 -0.2630 -0.0453
 5994TIP3    H117988   2.780   0.768   4.032  4.0536 -0.1170  0.3001
 5994TIP3    H217989   2.794   0.701   3.897 -0.9462 -0.4588 -0.2432
 5995TIP3   OH217990   2.382   5.427   4.785 -0.3191 -0.0496  0.0480
 5995TIP3    H117991   2.451   5.452   4.847 -0.8783  1.4518  0.1232
 5995TIP3    H217992   2.422   5.439   4.699 -0.5805  1.2874  0.0787
 5996TIP3   OH217993   6.136   3.381   4.008  0.3024  0.4634 -0.1375
 5996TIP3    H117994   6.078   3.313   4.042  0.5501  0.1723 -0.3002
 5996TIP3    H217995   6.095   3.463   4.037 -0.4204  0.2802 -0.5994
 5997TIP3   OH217996   2.954   3.713   2.156 -0.3525  0.2379  0.0672
 5997TIP3    H117997   2.924   3.721   2.065  1.3383 -0.0561 -0.5474
 5997TIP3    H217998   3.042   3.675   2.150  0.5743  1.9469  1.7189
 5998TIP3   OH217999   4.944   3.144   1.417 -0.0438 -0.0373  0.3714
 5998TIP3    H118000   4.951   3.051   1.393 -0.2339  0.0144  0.1232
 5998TIP3    H218001   4.900   3.143   1.502  1.3366 -0.2666  1.1246
 5999TIP3   OH218002   4.935   5.780   0.622  0.2128  0.0425 -0.2401
 5999TIP3    H118003   5.013   5.834   0.622  1.3006 -1.4671  0.0575
 5999TIP3    H218004   4.952   5.713   0.556 -0.6117 -0.5958  0.1705
 6000TIP3   OH218005   2.222   5.046   0.536 -0.7093  0.9270 -0.3174
 6000TIP3    H118006   2.160   5.118   0.537 -1.0706  0.6447 -1.3439
 6000TIP3    H218007   2.282   5.066   0.464  0.0670  0.9254  0.3153
 6001TIP3   OH218008   2.366   0.297   3.250 -0.9963 -0.9306  0.2582
 6001TIP3    H118009   2.386   0.386   3.279 -0.0532 -0.2940 -2.1127
 6001TIP3    H218010   2.277   0.301   3.216 -0.2317 -0.3115 -1.7847
 6002TIP3   OH218011   4.539   5.041   3.186  0.8053  0.9549 -0.0634
 6002TIP3    H118012   4.554   4.946   3.185 -1.4029  0.4937  1.4432
 6002TIP3    H218013   4.478   5.054   3.259  2.0481  3.7264  0.6016
 6003TIP3   OH218014   2.537   1.635   4.513 -0.3409  0.1320  0.1526
 6003TIP3    H118015   2.521   1.556   4.462 -2.1229  1.5780 -1.7518
 6003TIP3    H218016   2.626   1.661   4.491 -1.3992  1.3337 -3.3857
 6004TIP3   OH218017   1.392   1.765   4.049 -0.0064  0.2378  0.0021
 6004TIP3    H118018   1.340   1.685   4.039 -0.5359  0.4699  0.7903
 6004TIP3    H218019   1.345   1.817   4.114 -0.6584  2.0174 -1.7737
 6005TIP3   OH218020   4.434   2.471   0.138 -0.2794 -0.4863 -0.2538
 6005TIP3    H118021   4.448   2.527   0.061  1.2665 -2.1572 -1.2793
 6005TIP3    H218022   4.467   2.523   0.211 -0.0424  0.4428 -0.9921
 6006TIP3   OH218023   1.687   5.177   0.952  0.5753 -0.3361 -0.6606
 6006TIP3    H118024   1.758   5.202   0.892  0.8498  0.6632  0.0532
 6006TIP3    H218025   1.724   5.106   1.004  0.8339 -0.2451 -0.7181
 6007TIP3   OH218026   4.968   2.731   3.049  0.2647 -0.3381  0.5376
 6007TIP3    H118027   5.044   2.761   3.101  0.1012  1.2617 -0.0929
 6007TIP3    H218028   4.904   2.801   3.058 -0.8052 -1.2527  0.2923
 6008TIP3   OH218029   4.480   3.290   3.085 -0.0876  0.2301 -0.5418
 6008TIP3    H118030   4.575   3.293   3.070  0.3253  0.0195  1.7204
 6008TIP3    H218031   4.450   3.217   3.031  1.1173 -0.0628 -0.8599
 6009TIP3   OH218032   3.902   2.441   3.174  0.4124  0.1605 -0.0160
 6009TIP3    H118033   3.920   2.501   3.101  2.7877 -0.2171  0.2092
 6009TIP3    H218034   3.884   2.498   3.248  2.2853  0.6285  0.1098
 6010TIP3   OH218035   4.347   0.899   3.375  0.0664 -0.1553 -0.3369
 6010TIP3    H118036   4.391   0.895   3.460  0.3203 -1.6696 -0.5098
 6010TIP3    H218037   4.261   0.937   3.393 -0.4277 -1.7686  0.8543
 6011TIP3   OH218038   5.815   2.682   1.760 -0.1547 -0.1586 -0.1219
 6011TIP3    H118039   5.890   2.700   1.703  0.8286  0.6461  1.3721
 6011TIP3    H218040   5.738   2.698   1.704  0.7634  0.5834 -1.2219
 6012TIP3   OH218041   3.726   3.658   2.918 -0.0765  0.0590 -0.9175
 6012TIP3    H118042   3.657   3.719   2.892  0.1769 -1.4990 -6.6721
 6012TIP3    H218043   3.679   3.579   2.946 -0.7473 -0.3452 -2.9957
 6013TIP3   OH218044   5.525   3.066   1.339  0.4686  0.7541 -0.0371
 6013TIP3    H118045   5.485   2.989   1.298  0.5385  1.3650 -1.3114
 6013TIP3    H218046   5.453   3.108   1.387  0.3686  0.0611  0.4395
 6014TIP3   OH218047   0.990   5.113   3.687  0.2908 -0.1099 -0.0578
 6014TIP3    H118048   1.067   5.142   3.736 -0.4155  0.9508  0.4720
 6014TIP3    H218049   1.024   5.085   3.602  1.2428  0.5474  0.0955
 6015TIP3   OH218050   0.204   2.871   1.188 -0.4782 -0.0472  0.1109
 6015TIP3    H118051   0.207   2.841   1.279 -0.1489 -2.2399 -0.5491
 6015TIP3    H218052   0.149   2.949   1.189  1.4546  1.4075  2.5288
 6016TIP3   OH218053   1.318   0.274   1.141  0.7367  0.3077  0.2313
 6016TIP3    H118054   1.282   0.335   1.205  0.3198 -1.1811  1.4647
 6016TIP3    H218055   1.248   0.262   1.077  0.2938  0.0523  0.7583
 6017TIP3   OH218056   3.165   5.154   4.809 -0.6760  1.2918 -0.1136
 6017TIP3    H118057   3.244   5.185   4.853  0.6020  0.8227 -1.9587
 6017TIP3    H218058   3.139   5.076   4.858  1.4402  0.0380 -0.8587
 6018TIP3   OH218059   5.356   0.760   2.474 -0.2259  0.0414  0.1280
 6018TIP3    H118060   5.387   0.846   2.501  0.3511 -0.1771  0.1672
 6018TIP3    H218061   5.352   0.710   2.556 -0.1824 -0.0897  0.0494
 6019TIP3   OH218062   2.758   0.591   2.060 -0.5593 -0.5551 -0.2168
 6019TIP3    H118063   2.825   0.523   2.055 -1.2784 -1.6736  3.0714
 6019TIP3    H218064   2.677   0.545   2.038 -0.9267 -0.6184  1.1770
 6020TIP3   OH218065   1.862   1.956   0.228  0.2194 -0.1959 -0.3610
 6020TIP3    H118066   1.911   1.985   0.151  1.0978 -1.8043 -0.4596
 6020TIP3    H218067   1.927   1.909   0.281 -0.2719  1.1689  1.5626
 6021TIP3   OH218068   5.331   1.453   4.223 -0.0962  0.3256  0.0562
 6021TIP3    H118069   5.254   1.480   4.274  0.8130 -0.8644  2.1833
 6021TIP3    H218070   5.405   1.467   4.282  1.2414  0.5928 -1.6235
 6022TIP3   OH218071   2.045   1.094   3.072 -0.4978 -0.9709  0.5117
 6022TIP3    H118072   2.120   1.153   3.077 -0.4812 -1.0761  1.7965
 6022TIP3    H218073   2.037   1.073   2.979  0.4244 -0.1468  0.2316
 6023TIP3   OH218074   0.038   0.723   4.223 -0.0076 -0.4428  0.0021
 6023TIP3    H118075  -0.038   0.754   4.274 -0.6642 -1.3876 -0.3643
 6023TIP3    H218076   0.013   0.635   4.195  0.3280  0.0433 -1.9665
 6024TIP3   OH218077   0.887   4.740   1.390 -0.3316 -0.1274  0.5072
 6024TIP3    H118078   0.978   4.741   1.359 -0.7463  1.0459 -0.7750
 6024TIP3    H218079   0.895   4.741   1.486  0.9927 -0.7645  0.4285
 6025TIP3   OH218080   3.299   2.176   1.799  0.9057  0.1145  0.3757
 6025TIP3    H118081   3.227   2.129   1.840  1.3930 -0.3511  0.7069
 6025TIP3    H218082   3.372   2.114   1.799  0.5310 -0.4744 -2.5770
 6026TIP3   OH218083   4.638   4.842   2.459 -0.1207 -0.2590  0.1353
 6026TIP3    H118084   4.612   4.765   2.509  0.3992 -1.3334 -1.2002
 6026TIP3    H218085   4.558   4.872   2.417 -0.5336  0.5724  1.4523
 6027TIP3   OH218086   3.705   3.375   5.208  0.0988 -0.5410  0.4565
 6027TIP3    H118087   3.689   3.404   5.118 -0.6226  0.4254  0.8649
 6027TIP3    H218088   3.785   3.324   5.204  0.6805  0.4098 -0.5593
 6028TIP3   OH218089   1.906   3.313   2.903  0.4175  0.2658 -0.4417
 6028TIP3    H118090   1.913   3.367   2.825 -0.8708  0.8530 -0.1859
 6028TIP3    H218091   1.867   3.231   2.873 -0.0568  0.4831 -0.4353
 6029TIP3   OH218092   5.597   1.043   0.842  0.0271  0.1826  0.0074
 6029TIP3    H118093   5.512   1.077   0.870 -0.0786 -1.1466  1.4406
 6029TIP3    H218094   5.585   1.025   0.748 -1.2209  0.1694  0.1432
 6030TIP3   OH218095   5.647   1.500   3.421  0.3712  0.4741 -0.0260
 6030TIP3    H118096   5.581   1.436   3.446  0.8555  0.3402  0.9773
 6030TIP3    H218097   5.687   1.465   3.341 -1.0709  0.8007 -0.9160
 6031TIP3   OH218098   5.866   0.384   4.486  0.3405  0.5416  0.1874
 6031TIP3    H118099   5.803   0.451   4.463 -0.0959  0.6804  1.6496
 6031TIP3    H218100   5.928   0.428   4.545  1.3341  0.2037 -0.5718
 6032TIP3   OH218101   2.746   2.131   4.820 -0.0177  0.0648  0.1098
 6032TIP3    H118102   2.673   2.192   4.809  1.1629  1.2793 -1.4879
 6032TIP3    H218103   2.715   2.049   4.781 -0.8002  0.3264  0.1633
 6033TIP3   OH218104   3.005   5.560   1.173 -0.0070  0.4444  0.3422
 6033TIP3    H118105   2.960   5.485   1.133 -0.3678 -0.2145  1.9300
 6033TIP3    H218106   3.089   5.525   1.202  0.3881  0.9994 -0.1054
 6034TIP3   OH218107   0.759   4.049   0.673  0.1455  0.0657 -0.0199
 6034TIP3    H118108   0.721   4.082   0.754  0.8138 -0.4097  0.5034
 6034TIP3    H218109   0.786   3.959   0.694  1.3169  0.2951 -0.4345
 6035TIP3   OH218110   1.483   2.297   4.406  0.8054 -0.1329  0.5217
 6035TIP3    H118111   1.410   2.340   4.362  0.5233 -0.8542  0.2644
 6035TIP3    H218112   1.504   2.222   4.349  1.9841  0.2667  0.4021
 6036TIP3   OH218113   2.864   4.884   2.886 -0.3053  0.1260 -0.2923
 6036TIP3    H118114   2.869   4.966   2.934 -0.5267 -0.2368  0.3691
 6036TIP3    H218115   2.793   4.896   2.823 -1.1104  0.0526  0.5829
 6037TIP3   OH218116   6.128   4.003   2.644  0.0093 -0.2330 -0.4305
 6037TIP3    H118117   6.199   4.065   2.662 -0.7849  0.4971  0.2553
 6037TIP3    H218118   6.128   3.944   2.719  0.7663 -1.0973 -1.0837
 6038TIP3   OH218119   3.699   2.113   5.055 -0.1160 -0.0271 -0.3015
 6038TIP3    H118120   3.682   2.128   5.148 -0.7783 -1.9358 -0.0808
 6038TIP3    H218121   3.788   2.144   5.042  0.5844 -1.2163  1.3483
 6039TIP3   OH218122   1.693   3.141   0.132  0.2126  0.6367  0.3016
 6039TIP3    H118123   1.763   3.095   0.178  1.1939  1.6301 -0.1522
 6039TIP3    H218124   1.669   3.213   0.191 -0.2558  0.4558  0.3375
 6040TIP3   OH218125   4.218   5.111   0.020 -0.5050  0.1947 -0.1006
 6040TIP3    H118126   4.306   5.083  -0.008 -0.1587 -1.3637  2.2099
 6040TIP3    H218127   4.163   5.035   0.002 -0.8709  0.2718  0.6877
 6041TIP3   OH218128   6.104   5.574   3.016 -0.2366 -0.2308  0.0605
 6041TIP3    H118129   6.177   5.592   3.076  0.2420  1.3289 -0.8946
 6041TIP3    H218130   6.038   5.640   3.039 -0.1107  0.2798 -0.9639
 6042TIP3   OH218131   5.688   0.163   4.351  0.0646 -0.0564  0.2394
 6042TIP3    H118132   5.773   0.130   4.379 -0.6506 -0.9178  1.4889
 6042TIP3    H218133   5.628   0.089   4.364 -0.8369  0.4366 -0.8904
 6043TIP3   OH218134   1.160   2.425   4.997  0.6515  0.1510 -0.0755
 6043TIP3    H118135   1.088   2.465   5.045 -0.2642 -0.7377 -0.6600
 6043TIP3    H218136   1.236   2.437   5.053 -0.4005 -1.0179  1.7320
 6044TIP3   OH218137   0.432   4.444   4.227  0.2381  0.2655 -0.6112
 6044TIP3    H118138   0.412   4.500   4.302  0.9258 -0.2833 -0.0074
 6044TIP3    H218139   0.422   4.355   4.260  0.1256  0.0191 -1.2935
 6045TIP3   OH218140   1.647   0.741   2.034 -0.1506 -0.6395  0.4533
 6045TIP3    H118141   1.591   0.780   2.101  0.0217  1.6925 -0.6758
 6045TIP3    H218142   1.687   0.815   1.989  2.4746 -2.1743  0.0279
 6046TIP3   OH218143   2.186   0.032   4.096  0.2311 -0.0534  0.0637
 6046TIP3    H118144   2.118   0.019   4.030  0.2288  1.7354 -0.3253
 6046TIP3    H218145   2.139   0.056   4.175  0.3288 -0.4043  0.2295
 6047TIP3   OH218146   0.905   2.650   1.914 -0.0139 -0.0231  0.1562
 6047TIP3    H118147   0.864   2.707   1.848  0.1955 -0.3171 -0.2355
 6047TIP3    H218148   0.832   2.612   1.963 -0.1843 -0.0309 -0.1031
 6048TIP3   OH218149   5.982   0.133   4.455 -0.0513 -0.3754  0.1092
 6048TIP3    H118150   6.009   0.113   4.365  0.8628 -0.6651  0.4326
 6048TIP3    H218151   5.943   0.220   4.449  0.3062 -0.2513 -0.5170
 6049TIP3   OH218152   0.194   0.722   3.759 -0.2905  0.3789 -0.2130
 6049TIP3    H118153   0.202   0.810   3.723 -0.3027  0.5379  0.1743
 6049TIP3    H218154   0.103   0.714   3.786 -0.2417  0.3156 -0.0667
 6050TIP3   OH218155   1.149   4.708   0.731  0.0235  0.2473 -0.6711
 6050TIP3    H118156   1.152   4.762   0.652 -1.3301  1.1683 -0.1262
 6050TIP3    H218157   1.241   4.685   0.748  0.4193  0.7820 -1.9953
 6051TIP3   OH218158   2.928   4.925   2.473  0.4982  0.5528 -0.0247
 6051TIP3    H118159   2.915   4.888   2.385 -2.4915 -0.7248  0.8321
 6051TIP3    H218160   2.978   4.858   2.520  1.9485  1.1614 -0.6318
 6052TIP3   OH218161   3.326   5.244   4.549  0.1106 -0.1274  0.3950
 6052TIP3    H118162   3.272   5.175   4.587  1.6023 -0.1083  2.8118
 6052TIP3    H218163   3.325   5.313   4.615  2.3050  0.2143  0.1450
 6053TIP3   OH218164   2.394   0.966   3.007  0.1293 -0.2301 -0.1072
 6053TIP3    H118165   2.351   0.929   2.931 -1.2669  0.6576  0.2072
 6053TIP3    H218166   2.465   1.019   2.972 -0.6578  0.3732 -0.8251
 6054TIP3   OH218167   2.057   0.392   0.847  0.1931 -0.0057 -0.8774
 6054TIP3    H118168   1.979   0.359   0.891  0.2182  3.1773  1.9064
 6054TIP3    H218169   2.126   0.388   0.913  1.0555  1.9884 -1.5801
 6055TIP3   OH218170   0.934   0.261   3.884 -0.2001 -0.0784  0.1463
 6055TIP3    H118171   0.987   0.230   3.958  0.1786 -1.5737 -0.7095
 6055TIP3    H218172   0.917   0.353   3.904 -1.3210 -0.7794  2.7994
 6056TIP3   OH218173   1.276   4.955   0.308  0.5407  0.0646  0.0562
 6056TIP3    H118174   1.251   5.034   0.260 -2.0931  0.0463  1.2333
 6056TIP3    H218175   1.270   4.885   0.243  0.9323  0.5669 -0.5279
 6057TIP3   OH218176   3.575   1.946   3.634 -0.0915  0.7802 -0.7776
 6057TIP3    H118177   3.668   1.959   3.613  0.4737 -2.3783 -0.6399
 6057TIP3    H218178   3.548   1.873   3.578 -2.0610  0.5567  0.3883
 6058TIP3   OH218179   5.124   1.403   3.226 -0.3026 -0.3567  0.5734
 6058TIP3    H118180   5.034   1.432   3.234 -0.0732  1.2609 -1.8305
 6058TIP3    H218181   5.118   1.319   3.180 -0.6249 -1.2792  2.2072
 6059TIP3   OH218182   2.601   5.773   1.174  0.2682  0.2477  0.3609
 6059TIP3    H118183   2.523   5.794   1.122 -0.4422 -1.4679  0.6702
 6059TIP3    H218184   2.568   5.757   1.262  0.8253 -1.3561  0.3095
 6060TIP3   OH218185   0.856   5.624   3.323 -0.5498  0.7061  0.6360
 6060TIP3    H118186   0.785   5.573   3.363 -0.1480  0.3664  0.9275
 6060TIP3    H218187   0.928   5.618   3.386 -0.0516  0.5309  0.0535
 6061TIP3   OH218188   0.451   3.707   2.569 -0.0227 -1.2799 -0.0725
 6061TIP3    H118189   0.447   3.649   2.645  0.9254 -1.8114 -0.4140
 6061TIP3    H218190   0.491   3.788   2.601 -0.3715 -1.2017  0.1682
 6062TIP3   OH218191   3.024   1.003   4.707  0.1359 -0.0482 -0.4553
 6062TIP3    H118192   2.997   1.089   4.740 -0.5203 -0.3778 -0.1115
 6062TIP3    H218193   3.081   1.023   4.633  1.1555  0.7058  0.4861
 6063TIP3   OH218194   5.935   0.612   4.203 -0.5251  0.0226 -0.1605
 6063TIP3    H118195   5.853   0.606   4.252 -1.0825  0.6179 -0.9941
 6063TIP3    H218196   5.924   0.690   4.148  0.8778  0.5290  0.2306
 6064TIP3   OH218197   0.371   0.791   3.986  0.1539  0.3393 -0.1542
 6064TIP3    H118198   0.399   0.723   4.047 -1.8983 -1.4920 -1.1116
 6064TIP3    H218199   0.307   0.748   3.929 -0.6614  2.8799 -1.3428
 6065TIP3   OH218200   4.928   1.104   5.086 -0.1636  0.1755 -0.6476
 6065TIP3    H118201   5.014   1.141   5.070 -0.5094  0.9198 -0.8189
 6065TIP3    H218202   4.932   1.070   5.175  0.3447  0.0880 -0.7045
 6066TIP3   OH218203   6.054   2.843   2.340 -0.5489  0.2136  0.7780
 6066TIP3    H118204   6.106   2.787   2.398  0.2887  1.2641  1.1001
 6066TIP3    H218205   6.043   2.792   2.260  0.2233 -0.3970  1.0473
 6067TIP3   OH218206   5.363   5.959   4.698 -0.1948  0.4059 -0.4902
 6067TIP3    H118207   5.274   5.964   4.734 -0.6456 -1.6435 -1.1356
 6067TIP3    H218208   5.356   5.999   4.611 -0.1831  1.3313 -0.0711
 6068TIP3   OH218209   3.447   5.838   4.092 -0.0972  0.0354 -0.3390
 6068TIP3    H118210   3.475   5.786   4.016  0.4209  2.2930 -1.7670
 6068TIP3    H218211   3.528   5.857   4.139  0.0882  1.6990 -1.2759
 6069TIP3   OH218212   0.552   3.547   4.639 -0.1834  0.2301 -0.2577
 6069TIP3    H118213   0.465   3.588   4.640  1.0728  3.2188 -0.9353
 6069TIP3    H218214   0.597   3.586   4.713  0.4822 -1.6402  0.3644
 6070TIP3   OH218215   5.542   3.926   4.954  0.1179 -0.0207 -0.2690
 6070TIP3    H118216   5.562   3.876   5.034 -2.4732  0.3007  0.6849
 6070TIP3    H218217   5.537   4.017   4.984 -0.8315  0.1066 -0.7859
 6071TIP3   OH218218   2.706   5.325   3.228  0.7047  0.5740 -0.1060
 6071TIP3    H118219   2.657   5.355   3.151  0.7250 -1.9538 -1.2359
 6071TIP3    H218220   2.798   5.331   3.201  0.8080  1.3979  0.4239
 6072TIP3   OH218221   0.787   3.670   4.464 -0.4266 -0.0990 -0.6243
 6072TIP3    H118222   0.838   3.609   4.517  0.5334  0.8513 -0.4244
 6072TIP3    H218223   0.735   3.719   4.528  0.4515  0.7904 -0.5780
 6073TIP3   OH218224   0.904   1.261   2.759  0.0149  0.4915 -0.1885
 6073TIP3    H118225   0.923   1.167   2.763  1.0888  0.7419  2.4929
 6073TIP3    H218226   0.813   1.266   2.731 -0.6967 -1.4797  1.5467
 6074TIP3   OH218227   6.268   4.027   3.131 -0.6007  0.2404 -0.3223
 6074TIP3    H118228   6.249   4.035   3.037 -0.8655 -0.1690 -0.3086
 6074TIP3    H218229   6.275   4.117   3.162  2.3604  0.4375 -1.2766
 6075TIP3   OH218230   1.191   5.773   2.911  0.3109  0.3264  0.7606
 6075TIP3    H118231   1.172   5.767   3.004  1.0700  1.1306  0.9761
 6075TIP3    H218232   1.176   5.684   2.878 -1.6526  0.4046  1.3055
 6076TIP3   OH218233   4.675   5.764   3.018  0.3915 -0.3537 -0.1862
 6076TIP3    H118234   4.646   5.753   2.927 -0.4483 -0.3068  0.0716
 6076TIP3    H218235   4.643   5.850   3.043 -0.1239 -0.7161  0.4298
 6077TIP3   OH218236   2.593   0.477   3.950 -0.5714 -0.2701 -0.0780
 6077TIP3    H118237   2.571   0.443   4.037 -0.6201 -0.6886 -0.2494
 6077TIP3    H218238   2.628   0.564   3.966 -1.2691 -0.0521  0.2977
 6078TIP3   OH218239   2.091   1.270   1.922 -0.1772  0.0418 -0.1655
 6078TIP3    H118240   2.056   1.185   1.895 -1.4399 -0.1337  1.8166
 6078TIP3    H218241   2.098   1.264   2.017  0.2909  1.9674 -0.0328
 6079TIP3   OH218242   4.214   0.856   0.475 -0.2058  0.0368  0.3981
 6079TIP3    H118243   4.284   0.914   0.505 -0.0532 -0.1797  0.4610
 6079TIP3    H218244   4.146   0.862   0.543  0.5738 -1.2576  1.3485
 6080TIP3   OH218245   1.612   2.587   0.405 -0.0267 -0.0792 -0.8039
 6080TIP3    H118246   1.635   2.608   0.315  0.6010 -0.8281 -0.8267
 6080TIP3    H218247   1.600   2.492   0.406 -0.0403 -0.0766 -0.1019
 6081TIP3   OH218248   0.238   5.375   0.803 -0.4877  0.0188  0.3604
 6081TIP3    H118249   0.273   5.452   0.759 -0.1230  0.2342  1.0091
 6081TIP3    H218250   0.165   5.346   0.748 -0.0404  0.2790 -0.3708
 6082TIP3   OH218251   2.871   0.594   0.795  0.5911 -0.3566 -0.3206
 6082TIP3    H118252   2.899   0.599   0.703 -1.0415  0.7219 -0.7943
 6082TIP3    H218253   2.828   0.678   0.811 -0.2668 -1.0370  1.0684
 6083TIP3   OH218254   2.018   4.234   1.427  0.2312  0.4837 -0.3631
 6083TIP3    H118255   2.084   4.274   1.371 -0.1058 -0.5130 -1.5175
 6083TIP3    H218256   1.948   4.208   1.367  0.0134 -0.9584  0.4524
 6084TIP3   OH218257   2.392   0.024   4.944  0.4278  0.2060 -0.2358
 6084TIP3    H118258   2.308   0.067   4.925  0.7314 -0.2740 -3.1372
 6084TIP3    H218259   2.454   0.096   4.953 -0.0206  0.5224  0.3960
 6085TIP3   OH218260   5.920   2.802   4.434  0.1700  0.3636 -0.0435
 6085TIP3    H118261   5.857   2.816   4.505  0.1334 -0.7551  0.1499
 6085TIP3    H218262   5.964   2.887   4.425 -0.3280  0.7312  0.8262
 6086TIP3   OH218263   3.389   0.452   0.843 -0.1581 -0.0298  0.0316
 6086TIP3    H118264   3.308   0.402   0.852  0.1365 -0.4511  0.3619
 6086TIP3    H218265   3.381   0.523   0.906 -0.0422 -0.3816  0.4490
 6087TIP3   OH218266   1.090   3.954   2.439 -0.5639 -0.2418  0.4840
 6087TIP3    H118267   1.094   3.887   2.371  0.2138  0.1559  0.1188
 6087TIP3    H218268   1.097   3.906   2.521  1.0247 -0.5498  0.1934
 6088TIP3   OH218269   6.147   1.496   4.653 -0.1296 -0.8067  0.8064
 6088TIP3    H118270   6.185   1.422   4.700 -0.4667 -0.8569  1.0015
 6088TIP3    H218271   6.111   1.553   4.721 -0.2636 -0.6810  0.6337
 6089TIP3   OH218272   3.671   4.960   0.489  0.5848 -1.3748  0.0671
 6089TIP3    H118273   3.734   4.902   0.531  1.8361  0.1113  0.3100
 6089TIP3    H218274   3.687   5.046   0.528 -1.5734 -0.9202  0.1214
 6090TIP3   OH218275   0.463   3.865   1.987 -0.3152  0.3055 -0.4078
 6090TIP3    H118276   0.446   3.793   1.927 -2.0999  0.3515 -0.0124
 6090TIP3    H218277   0.456   3.944   1.934 -1.8571  0.3444 -0.2002
 6091TIP3   OH218278   3.714   1.367   3.152  0.0021 -0.7744 -0.2829
 6091TIP3    H118279   3.673   1.306   3.214 -0.5568 -0.1568 -0.0269
 6091TIP3    H218280   3.701   1.327   3.066 -1.5086 -0.3978 -0.2462
 6092TIP3   OH218281   3.770   0.126   5.086  0.3033  0.0059  0.3244
 6092TIP3    H118282   3.749   0.141   4.994  0.9005  0.3765  0.2417
 6092TIP3    H218283   3.771   0.031   5.095 -2.1077 -0.0671  0.5150
 6093TIP3   OH218284   0.421   5.630   2.152 -0.0531 -0.8543  0.0537
 6093TIP3    H118285   0.332   5.599   2.172  0.2569 -1.7626  0.0353
 6093TIP3    H218286   0.430   5.617   2.058 -0.8273  1.6768 -0.4532
 6094TIP3   OH218287   5.705   2.091   1.742 -0.9085 -0.2053 -0.1204
 6094TIP3    H118288   5.790   2.135   1.737 -0.3483 -1.3697 -2.7096
 6094TIP3    H218289   5.708   2.042   1.824  0.7521  0.1345  0.0564
 6095TIP3   OH218290   0.162   2.486   2.729 -0.4061 -0.3444 -0.0459
 6095TIP3    H118291   0.099   2.552   2.702  1.4980  1.8242  0.4558
 6095TIP3    H218292   0.128   2.453   2.812 -1.2090  0.2703 -0.1193
 6096TIP3   OH218293   5.714   4.227   0.715  0.2404 -0.3956 -0.6841
 6096TIP3    H118294   5.763   4.247   0.635 -1.5496  0.3635 -1.6413
 6096TIP3    H218295   5.702   4.132   0.713  0.5722 -0.4310 -1.0945
 6097TIP3   OH218296   5.607   5.408   3.578  0.0899  0.0701 -0.7340
 6097TIP3    H118297   5.675   5.444   3.635 -1.5342  2.5416 -0.2267
 6097TIP3    H218298   5.578   5.482   3.525 -2.2555 -0.8665 -0.8682
 6098TIP3   OH218299   2.405   0.529   0.078 -0.1068  0.4852 -0.0189
 6098TIP3    H118300   2.435   0.438   0.082  3.2704  1.4565  0.1111
 6098TIP3    H218301   2.420   0.554  -0.014 -2.7407  0.4607 -0.5108
 6099TIP3   OH218302   3.343   1.172   0.320 -0.5725  0.9486 -0.2883
 6099TIP3    H118303   3.347   1.076   0.320  0.2931  0.9740  0.1627
 6099TIP3    H218304   3.264   1.193   0.270 -2.0068 -0.0543  1.4299
 6100TIP3   OH218305   3.936   4.631  -0.010 -0.4308  0.7278 -0.5534
 6100TIP3    H118306   3.952   4.698   0.056 -0.4895 -0.1640  0.3997
 6100TIP3    H218307   3.847   4.649  -0.042 -0.4983  1.0149 -0.2005
 6101TIP3   OH218308   0.656   5.731   4.404  0.2180 -0.2814  0.5545
 6101TIP3    H118309   0.592   5.694   4.343  0.2768 -2.6621  1.7984
 6101TIP3    H218310   0.720   5.776   4.349 -0.8702 -0.5215 -0.9473
 6102TIP3   OH218311   0.248   1.287   0.761  0.0102 -0.0552 -0.2617
 6102TIP3    H118312   0.297   1.339   0.697  0.0463 -1.0827 -1.0852
 6102TIP3    H218313   0.163   1.272   0.720 -0.4826  0.4471  0.5334
 6103TIP3   OH218314   1.251   1.505   4.367 -0.2517 -0.0683 -0.0028
 6103TIP3    H118315   1.283   1.415   4.368 -0.3711 -0.1059  0.5047
 6103TIP3    H218316   1.330   1.559   4.366 -0.1822 -0.1714  0.0201
 6104TIP3   OH218317   6.046   3.850   2.862  0.3052 -0.0992  0.7164
 6104TIP3    H118318   5.968   3.817   2.816  1.0850  1.7493 -2.1889
 6104TIP3    H218319   6.112   3.782   2.851  0.8859  0.8313 -2.2731
 6105TIP3   OH218320   2.533   4.830   2.195  0.0924 -0.0060 -0.0379
 6105TIP3    H118321   2.506   4.887   2.123 -0.2212  0.0900  0.1511
 6105TIP3    H218322   2.489   4.747   2.178 -0.8566  0.3399  0.6054
 6106TIP3   OH218323   1.603   0.956   3.165 -0.2317  0.3216 -0.2284
 6106TIP3    H118324   1.607   0.974   3.071  0.1886  0.0691 -0.2621
 6106TIP3    H218325   1.617   1.041   3.207 -0.7648  0.4935 -0.3925
 6107TIP3   OH218326   4.779   5.519   1.279  0.3149 -0.0181 -0.1633
 6107TIP3    H118327   4.811   5.602   1.244  0.0188  0.3406  0.4213
 6107TIP3    H218328   4.733   5.542   1.359  0.7623 -0.8154  0.3345
 6108TIP3   OH218329   3.823   2.598   4.159 -0.0930  0.1653 -0.0511
 6108TIP3    H118330   3.787   2.517   4.123 -1.9865  1.5508 -1.4953
 6108TIP3    H218331   3.749   2.638   4.205  0.8258  1.0438  0.7066
 6109TIP3   OH218332   0.274   2.096   4.429  0.0033 -0.3240  0.0226
 6109TIP3    H118333   0.341   2.035   4.396 -0.6964 -0.3782 -1.3906
 6109TIP3    H218334   0.229   2.048   4.498  0.6504 -0.7153  0.1839
 6110TIP3   OH218335   3.602   1.411   2.189  0.0750 -0.1735  0.5855
 6110TIP3    H118336   3.520   1.398   2.142 -0.1364 -1.6359  1.2993
 6110TIP3    H218337   3.670   1.403   2.122 -0.2867 -0.7594  0.2800
 6111TIP3   OH218338   4.635   5.815   1.462 -0.3636 -0.0634 -0.4112
 6111TIP3    H118339   4.677   5.862   1.534 -0.8759  1.5756 -1.1334
 6111TIP3    H218340   4.661   5.863   1.384 -1.2336 -0.7723 -1.1519
 6112TIP3   OH218341   5.647   0.348   0.278  0.4855 -0.1698 -0.3440
 6112TIP3    H118342   5.714   0.416   0.273  0.9417 -0.5785 -0.0002
 6112TIP3    H218343   5.628   0.327   0.187  2.4004 -1.5213 -0.5153
 6113TIP3   OH218344   0.658   2.475   0.486  0.2845 -0.3983 -0.1776
 6113TIP3    H118345   0.575   2.506   0.450 -0.2384  0.0704  1.3458
 6113TIP3    H218346   0.715   2.466   0.410 -1.2721 -1.1435 -1.3230
 6114TIP3   OH218347   6.309   0.971   4.124  0.0851 -0.0564  0.4071
 6114TIP3    H118348   6.356   1.036   4.177 -1.9562 -0.3989  2.8305
 6114TIP3    H218349   6.355   0.889   4.141  1.8975  0.4529 -1.6615
 6115TIP3   OH218350   0.322   4.004   2.176 -0.2496 -0.0063  0.5162
 6115TIP3    H118351   0.375   3.955   2.113 -1.6290  2.2837 -2.7259
 6115TIP3    H218352   0.307   3.943   2.248  1.3370 -2.8983 -1.4140
 6116TIP3   OH218353   2.324   4.598   4.972 -0.0055 -0.0795  0.1820
 6116TIP3    H118354   2.286   4.618   4.886  2.0837  1.6569 -0.4190
 6116TIP3    H218355   2.267   4.642   5.035 -1.9481 -1.9162 -0.1714
 6117TIP3   OH218356   3.655   5.752   2.658 -0.4316 -0.0733  0.0945
 6117TIP3    H118357   3.577   5.700   2.643  0.9437 -2.1463 -0.2355
 6117TIP3    H218358   3.665   5.804   2.578 -0.6022 -0.9582 -0.5069
 6118TIP3   OH218359   2.740   5.243   1.965 -0.7512  1.1713 -0.1330
 6118TIP3    H118360   2.665   5.204   1.920 -0.5341  0.2546  0.2881
 6118TIP3    H218361   2.705   5.324   2.003 -1.7215  0.4242  0.6395
 6119TIP3   OH218362   5.857   1.103   2.416  0.4381  0.2037  0.5003
 6119TIP3    H118363   5.775   1.145   2.392  0.9781  1.0430  0.0631
 6119TIP3    H218364   5.835   1.011   2.426 -0.5422  0.4098  0.3388
 6120TIP3   OH218365   4.444   5.284   0.288 -0.5761 -0.0420 -0.3801
 6120TIP3    H118366   4.422   5.198   0.323 -0.1210 -0.2160 -0.5053
 6120TIP3    H218367   4.411   5.346   0.353 -1.1733 -0.2972 -0.4353
 6121TIP3   OH218368   2.777   5.287   1.491  0.4387 -0.1578  0.5439
 6121TIP3    H118369   2.783   5.265   1.398  0.3810  0.9592  0.2619
 6121TIP3    H218370   2.709   5.229   1.525  0.6848 -0.8029 -0.0338
 6122TIP3   OH218371   5.767   5.933   4.433 -0.5040 -0.9164  0.1315
 6122TIP3    H118372   5.733   6.014   4.470  2.3264  0.7812 -0.6848
 6122TIP3    H218373   5.789   5.955   4.343  1.6111 -2.1294  0.2725
 6123TIP3   OH218374   5.839   2.419   1.879  0.9316 -0.0643 -0.1626
 6123TIP3    H118375   5.834   2.327   1.853 -1.7896  0.3761 -1.5040
 6123TIP3    H218376   5.829   2.468   1.797 -3.3812  1.3544  0.9519
 6124TIP3   OH218377   4.537   0.377   3.246  0.2285 -0.1144  0.0704
 6124TIP3    H118378   4.610   0.366   3.185  1.5419  0.5702  1.4303
 6124TIP3    H218379   4.564   0.326   3.323  0.2525  1.7731  1.3682
 6125TIP3   OH218380   2.684   1.196   4.252  0.0005  0.1477 -0.2986
 6125TIP3    H118381   2.706   1.288   4.234  1.3138 -0.1799 -0.5178
 6125TIP3    H218382   2.686   1.154   4.166  0.5200 -0.2960 -0.0765
 6126TIP3   OH218383   3.077   0.314   0.605  0.5573 -0.1447  0.2888
 6126TIP3    H118384   3.096   0.384   0.668 -1.0806  0.5308  0.0955
 6126TIP3    H218385   3.154   0.257   0.608  1.7104  1.3643  0.8626
 6127TIP3   OH218386   0.070   1.727   5.144  0.4783 -0.4319 -0.2036
 6127TIP3    H118387   0.082   1.765   5.231  1.7847 -1.1902 -0.0254
 6127TIP3    H218388  -0.016   1.685   5.147  0.9307 -1.2975  1.0556
 6128TIP3   OH218389   1.717   1.952   0.995  0.2665 -0.9634 -0.2284
 6128TIP3    H118390   1.804   1.930   1.028  0.6342 -0.5773 -0.9229
 6128TIP3    H218391   1.731   2.030   0.942 -0.7678  0.1276  1.0157
 6129TIP3   OH218392   1.074   3.639   3.136 -0.2283 -0.3158  0.2923
 6129TIP3    H118393   1.150   3.637   3.193  0.1556  0.8504 -0.1430
 6129TIP3    H218394   1.023   3.562   3.161  1.5572 -1.6742 -0.0900
 6130TIP3   OH218395   0.272   0.075   3.142  0.2296 -0.3343 -0.1049
 6130TIP3    H118396   0.326   0.089   3.064  0.3652  1.2124  0.2450
 6130TIP3    H218397   0.188   0.042   3.107  0.7459 -0.9843 -0.7792
 6131TIP3   OH218398   6.056   2.860   0.888 -0.1652  0.0470 -0.0138
 6131TIP3    H118399   5.966   2.830   0.873 -0.3958  0.7199  0.0050
 6131TIP3    H218400   6.064   2.939   0.834  0.6605 -0.4424 -0.6212
 6132TIP3   OH218401   1.177   2.074   1.156  0.0581  0.1741 -0.3487
 6132TIP3    H118402   1.082   2.065   1.149  0.0896 -0.1634 -0.3396
 6132TIP3    H218403   1.191   2.168   1.163 -0.2273  0.2720 -1.0423
 6133TIP3   OH218404   2.912   3.743   0.797  0.2844 -0.2264  0.4368
 6133TIP3    H118405   2.840   3.689   0.831 -0.0060 -0.7145 -0.9256
 6133TIP3    H218406   2.977   3.681   0.766 -0.3012  0.1460 -1.6855
 6134TIP3   OH218407   4.248   3.945   3.961 -0.1959 -0.2618 -0.0814
 6134TIP3    H118408   4.163   3.923   3.923  0.1135  0.1503 -1.0300
 6134TIP3    H218409   4.307   3.950   3.886  0.6770 -0.5903  0.5751
 6135TIP3   OH218410   3.154   1.987   1.910 -0.0572 -0.1467  0.0749
 6135TIP3    H118411   3.098   1.928   1.960  0.2187 -2.2907 -1.9960
 6135TIP3    H218412   3.235   1.991   1.962  0.5531 -2.9967 -0.4625
 6136TIP3   OH218413   1.054   5.431   3.979  0.0802  0.1105  0.5753
 6136TIP3    H118414   1.093   5.513   4.010  1.3156  0.4678 -1.6932
 6136TIP3    H218415   1.004   5.456   3.901 -1.2399 -1.0058  1.0425
 6137TIP3   OH218416   2.223   5.935   4.098 -0.9648 -0.3479  0.0689
 6137TIP3    H118417   2.293   5.870   4.091  0.3042  1.0139 -0.4438
 6137TIP3    H218418   2.248   5.989   4.173  0.1226  1.8561 -1.7374
 6138TIP3   OH218419   0.465   4.591   0.825  0.2251 -0.2068 -0.5243
 6138TIP3    H118420   0.455   4.527   0.755  1.8113 -0.7133 -0.3202
 6138TIP3    H218421   0.557   4.615   0.823 -0.6918  4.1054 -2.3254
 6139TIP3   OH218422   3.343   3.133   1.437  0.0141  0.5120 -0.0026
 6139TIP3    H118423   3.354   3.061   1.375 -0.4223 -1.7972  2.3825
 6139TIP3    H218424   3.423   3.131   1.490 -0.0083  1.7944  0.0918
 6140TIP3   OH218425   2.879   0.810   2.167 -0.0411 -0.0913 -0.4694
 6140TIP3    H118426   2.844   0.722   2.153  1.2851 -0.6509 -0.4190
 6140TIP3    H218427   2.801   0.865   2.179 -0.8723 -1.4056  0.4346
 6141TIP3   OH218428   6.182   3.532   0.215  0.0314 -0.0846  0.2030
 6141TIP3    H118429   6.174   3.540   0.310  4.1633  0.0165  0.7175
 6141TIP3    H218430   6.246   3.600   0.191 -1.4075  0.3781 -2.8256
 6142TIP3   OH218431   5.358   4.770   2.032  0.3488  0.2854 -0.1022
 6142TIP3    H118432   5.435   4.712   2.034 -0.8233 -1.3539 -0.4064
 6142TIP3    H218433   5.302   4.733   1.963 -0.5486  1.6877 -0.1665
 6143TIP3   OH218434   2.449   4.110   0.186 -0.7203 -0.4411  0.0673
 6143TIP3    H118435   2.448   4.205   0.178 -0.1809 -0.4745 -0.4685
 6143TIP3    H218436   2.502   4.080   0.112 -0.9654 -1.1630  0.1759
 6144TIP3   OH218437   1.104   5.938   3.747 -0.1089 -0.8731 -0.0459
 6144TIP3    H118438   1.100   5.964   3.655  1.9070  0.0236  0.0671
 6144TIP3    H218439   1.035   5.873   3.756 -0.3572 -0.9948 -2.1965
 6145TIP3   OH218440   4.270   3.218   4.136 -0.1934  0.0863 -0.1609
 6145TIP3    H118441   4.326   3.141   4.147  0.8710  1.0014  1.2020
 6145TIP3    H218442   4.189   3.184   4.099  1.0220 -1.3859 -1.6744
 6146TIP3   OH218443   0.393   1.038   4.094 -0.3177  0.3683  0.3951
 6146TIP3    H118444   0.335   1.012   4.165  0.2340 -0.7774  0.4467
 6146TIP3    H218445   0.410   0.958   4.045 -0.4742  1.0934 -0.8884
 6147TIP3   OH218446   5.843   4.184   1.764 -0.0512  0.3051 -0.2010
 6147TIP3    H118447   5.852   4.137   1.846  1.7465 -1.5518 -1.3629
 6147TIP3    H218448   5.878   4.271   1.782  2.4558 -0.7716  0.5023
 6148TIP3   OH218449   5.209   2.016   3.470 -0.2443 -0.6995 -0.4114
 6148TIP3    H118450   5.245   1.930   3.492  1.2333 -0.0709 -0.2645
 6148TIP3    H218451   5.126   1.997   3.427  0.2639 -2.2235 -0.7841
 6149TIP3   OH218452   0.397   3.558   0.923 -0.1802 -0.2742  0.4355
 6149TIP3    H118453   0.305   3.573   0.905  0.1308 -0.6072 -1.7303
 6149TIP3    H218454   0.408   3.463   0.920  0.5923 -0.1640 -1.6055
 6150TIP3   OH218455   2.455   2.366   2.028 -0.6319  0.1096 -0.1859
 6150TIP3    H118456   2.520   2.435   2.037 -0.4027  0.1555 -1.9449
 6150TIP3    H218457   2.506   2.285   2.028 -0.7855  0.0050  0.5802
 6151TIP3   OH218458   0.672   2.150   3.542  0.3556  0.3973  0.5306
 6151TIP3    H118459   0.730   2.186   3.475  0.1343 -0.4070 -0.1147
 6151TIP3    H218460   0.730   2.113   3.608  0.6180  2.7921  1.7444
 6152TIP3   OH218461   2.598   4.720   0.153  0.5310  0.0039  0.5557
 6152TIP3    H118462   2.570   4.668   0.228  2.3628  0.2969  1.5065
 6152TIP3    H218463   2.615   4.656   0.084 -2.8751 -0.1448 -0.3007
 6153TIP3   OH218464   4.963   2.996   3.854 -0.5046  0.0671  0.1071
 6153TIP3    H118465   4.948   3.079   3.898 -1.2197  0.7064 -1.2895
 6153TIP3    H218466   4.909   2.999   3.775  0.3965 -1.2008 -0.6186
 6154TIP3   OH218467   6.175   0.368   0.743 -0.1229 -0.0270  0.7465
 6154TIP3    H118468   6.086   0.388   0.716  1.0722  2.0675 -2.1458
 6154TIP3    H218469   6.167   0.340   0.835 -3.7145 -0.2418  0.4905
 6155TIP3   OH218470   5.605   3.794   4.170  0.0194  0.6626 -0.5903
 6155TIP3    H118471   5.640   3.705   4.163 -0.4407  0.5144 -1.0167
 6155TIP3    H218472   5.571   3.814   4.083 -0.6092  0.9477 -0.2877
 6156TIP3   OH218473   2.495   3.194   1.230  0.5305 -0.1563 -0.1944
 6156TIP3    H118474   2.541   3.260   1.281 -0.0931 -0.3532  0.6457
 6156TIP3    H218475   2.459   3.134   1.295 -2.2370  0.8360 -0.6841
 6157TIP3   OH218476   4.707   0.940   1.019  0.4245  0.5420  0.0968
 6157TIP3    H118477   4.711   0.932   1.114 -2.2809  0.9675  0.3368
 6157TIP3    H218478   4.772   1.007   0.997  1.4898  0.0170  1.5595
 6158TIP3   OH218479   5.873   1.108   4.279  0.3189 -0.2375  0.5493
 6158TIP3    H118480   5.900   1.181   4.223 -0.8512  0.4619  0.8673
 6158TIP3    H218481   5.786   1.083   4.246 -0.6408  0.5431  2.3616
 6159TIP3   OH218482   2.378   1.925   1.949 -0.0432  0.0477 -0.3005
 6159TIP3    H118483   2.364   1.937   1.855  0.6549  2.2866 -0.1976
 6159TIP3    H218484   2.471   1.908   1.958  0.1731  1.2891  0.0428
 6160TIP3   OH218485   5.625   3.014   2.779  0.1180  0.5535  0.4245
 6160TIP3    H118486   5.679   2.935   2.783  1.1767  1.2368 -0.0140
 6160TIP3    H218487   5.550   2.988   2.725 -0.4000 -0.6174  1.6336
 6161TIP3   OH218488   5.159   5.744   4.426  0.5898 -0.0171  0.3109
 6161TIP3    H118489   5.143   5.834   4.455  0.8627 -0.6253  2.5695
 6161TIP3    H218490   5.242   5.749   4.379  0.5300  0.9254  0.2702
 6162TIP3   OH218491   1.234   3.278   3.635  0.0959  0.0229 -0.3301
 6162TIP3    H118492   1.295   3.211   3.604 -0.1779 -0.2036 -0.3893
 6162TIP3    H218493   1.207   3.248   3.722 -0.1073 -0.0016 -0.3996
 6163TIP3   OH218494   2.824   5.571   4.881  0.1314  0.5737 -0.2725
 6163TIP3    H118495   2.805   5.570   4.787 -0.4705 -1.0996 -0.1728
 6163TIP3    H218496   2.909   5.527   4.889 -1.4471 -2.6488  0.1912
 6164TIP3   OH218497   2.269   2.343   1.833 -0.2477 -0.1040 -0.5583
 6164TIP3    H118498   2.218   2.262   1.844 -0.5970 -0.0638 -1.7194
 6164TIP3    H218499   2.315   2.354   1.916  2.4347 -3.2989 -1.4304
 6165TIP3   OH218500   4.536   4.319   1.029 -0.3401 -0.1108  0.3759
 6165TIP3    H118501   4.574   4.407   1.029  2.7852 -1.3291  1.1123
 6165TIP3    H218502   4.561   4.282   0.944 -1.1927 -0.4767  0.2735
 6166TIP3   OH218503   0.326   4.387   4.671 -0.5724  0.1845 -0.6557
 6166TIP3    H118504   0.357   4.321   4.733  0.7594  1.1903 -0.1887
 6166TIP3    H218505   0.295   4.459   4.726  0.3133  0.9467 -1.1166
 6167TIP3   OH218506   6.294   5.840   0.402  0.0618  0.2403  0.0442
 6167TIP3    H118507   6.322   5.886   0.481 -2.8419 -0.0578  1.3790
 6167TIP3    H218508   6.332   5.891   0.330  1.0122  1.8118  1.5825
 6168TIP3   OH218509   1.381   0.751   1.746 -0.2859 -0.3720  0.5160
 6168TIP3    H118510   1.469   0.716   1.736  0.4135  0.9913  1.5985
 6168TIP3    H218511   1.355   0.723   1.834  1.7523  4.5864  3.0795
 6169TIP3   OH218512   4.165   0.362   2.495  0.1010  0.4234  0.2029
 6169TIP3    H118513   4.087   0.310   2.512 -0.2998  0.5185 -1.1914
 6169TIP3    H218514   4.137   0.428   2.431  1.0666  1.1341  0.4853
 6170TIP3   OH218515   3.895   3.112   2.361  0.3287  0.3059  0.2921
 6170TIP3    H118516   3.869   3.150   2.278  0.4928  0.3343  0.2541
 6170TIP3    H218517   3.813   3.103   2.410 -0.2194 -2.3753 -0.9581
 6171TIP3   OH218518   3.921   2.477   0.425  0.0281  0.2093 -0.8960
 6171TIP3    H118519   3.857   2.406   0.414  0.6058 -0.3226 -0.8603
 6171TIP3    H218520   3.892   2.545   0.363 -1.3490  0.5501  0.0744
 6172TIP3   OH218521   0.691   1.404   0.310 -0.4131  0.3146 -0.0408
 6172TIP3    H118522   0.674   1.315   0.278 -0.4977  0.7642 -1.2928
 6172TIP3    H218523   0.640   1.460   0.252  1.2843  1.3270 -0.6216
 6173TIP3   OH218524   6.001   1.875   0.023  0.5494 -0.3173  0.5360
 6173TIP3    H118525   5.920   1.860  -0.026  1.2428  0.8986 -1.1065
 6173TIP3    H218526   5.984   1.955   0.073  1.3582  1.1689 -1.4425
 6174TIP3   OH218527   0.705   3.304   3.003  0.0194 -0.1439 -0.2254
 6174TIP3    H118528   0.654   3.316   2.923 -2.0506  0.2887  1.0778
 6174TIP3    H218529   0.687   3.383   3.055 -0.2498 -1.2792  1.4779
 6175TIP3   OH218530   4.974   3.601   2.891  0.3973 -0.9238  0.2531
 6175TIP3    H118531   5.027   3.670   2.851 -1.6813  0.3284 -0.4853
 6175TIP3    H218532   5.005   3.596   2.981  2.6825 -1.2381 -0.4861
 6176TIP3   OH218533   2.757   5.892   3.952 -0.6455 -0.4097 -0.1037
 6176TIP3    H118534   2.675   5.864   3.992 -0.9981 -1.3187 -1.4057
 6176TIP3    H218535   2.814   5.815   3.957  1.1296  0.8909  3.0638
 6177TIP3   OH218536   0.041   0.539   4.522 -0.3089  0.6082 -0.0809
 6177TIP3    H118537   0.116   0.549   4.464  0.4164  0.8539  0.8650
 6177TIP3    H218538   0.026   0.445   4.526 -0.2578  0.5802 -0.5303
 6178TIP3   OH218539   5.215   2.980   1.380  0.3872 -0.3257  0.2854
 6178TIP3    H118540   5.299   2.939   1.362  0.0397 -0.6278 -0.7074
 6178TIP3    H218541   5.237   3.062   1.426  1.1213 -1.1690  1.4912
 6179TIP3   OH218542   2.085   4.183   2.774 -0.5258 -0.1135 -0.2987
 6179TIP3    H118543   2.047   4.228   2.699  3.4848  1.3207 -1.7539
 6179TIP3    H218544   2.082   4.248   2.845 -1.8744 -0.5154  0.0488
 6180TIP3   OH218545   3.618   3.888   1.428 -0.3566  0.4403 -0.4549
 6180TIP3    H118546   3.526   3.867   1.446 -1.2969  3.2830 -1.2590
 6180TIP3    H218547   3.641   3.952   1.496  0.9739 -0.0945 -0.3834
 6181TIP3   OH218548   3.331   1.436   2.496 -0.9563  0.0974  0.3225
 6181TIP3    H118549   3.251   1.483   2.521 -0.8627  0.2095  0.4122
 6181TIP3    H218550   3.312   1.399   2.410 -0.9235  0.5519  0.1153
 6182TIP3   OH218551   3.894   2.571   4.755 -0.2889  0.5965  0.4793
 6182TIP3    H118552   3.946   2.497   4.724  0.3225  0.5214  1.6549
 6182TIP3    H218553   3.841   2.596   4.679  0.2008 -0.4224 -0.2190
 6183TIP3   OH218554   1.595   1.133   0.180  0.2211 -0.0181  0.0138
 6183TIP3    H118555   1.548   1.212   0.153 -0.4182 -0.4420 -0.1285
 6183TIP3    H218556   1.683   1.146   0.146 -0.5792 -0.6160 -2.5445
 6184TIP3   OH218557   1.166   2.686   3.233 -0.3844  0.0426  0.6029
 6184TIP3    H118558   1.172   2.740   3.311  0.0936 -0.0977  0.6708
 6184TIP3    H218559   1.195   2.599   3.262  1.2532  0.3336 -0.0566
 6185TIP3   OH218560   3.676   2.499   0.223  0.0958  0.2420 -0.2593
 6185TIP3    H118561   3.711   2.465   0.140 -0.8964  0.6347 -0.8631
 6185TIP3    H218562   3.585   2.471   0.224 -1.4323  4.3226 -1.7669
 6186TIP3   OH218563   0.577   0.246   0.812 -0.4320  0.0792  0.1646
 6186TIP3    H118564   0.494   0.293   0.815 -1.3223 -1.4310  0.2646
 6186TIP3    H218565   0.579   0.208   0.724 -0.0424 -0.2227  0.3040
 6187TIP3   OH218566   1.814   3.284   4.659 -0.0030 -0.3739 -0.5281
 6187TIP3    H118567   1.774   3.207   4.620 -1.0186  0.2297 -0.6970
 6187TIP3    H218568   1.813   3.350   4.589  1.9188 -0.5331 -0.7727
 6188TIP3   OH218569   1.314   1.065   4.664 -0.1435 -0.1313 -0.2618
 6188TIP3    H118570   1.403   1.029   4.667 -0.8664 -2.2125  3.8455
 6188TIP3    H218571   1.321   1.152   4.703  0.3276  0.5337 -1.7911
 6189TIP3   OH218572   0.148   4.625   0.591 -0.3955 -0.3758  0.0635
 6189TIP3    H118573   0.052   4.616   0.593 -0.4947 -0.3874 -2.0593
 6189TIP3    H218574   0.179   4.539   0.561  0.4708 -1.0130  2.5773
 6190TIP3   OH218575   0.389   4.543   2.765 -0.3860 -0.2858  0.1263
 6190TIP3    H118576   0.391   4.484   2.841  1.6674  0.9757  1.1305
 6190TIP3    H218577   0.466   4.519   2.714 -0.2596  0.6825 -0.1444
 6191TIP3   OH218578   4.768   2.547   3.009  0.0529 -0.0042  0.2486
 6191TIP3    H118579   4.721   2.502   3.079  1.0810 -1.3863  0.0823
 6191TIP3    H218580   4.824   2.610   3.054 -1.2661  1.0321  0.4916
 6192TIP3   OH218581   6.263   5.129   4.752 -0.5235 -0.0567 -0.1881
 6192TIP3    H118582   6.209   5.193   4.706  0.4990  0.6339 -0.4470
 6192TIP3    H218583   6.350   5.168   4.754 -0.1782 -0.8438  0.8319
 6193TIP3   OH218584   0.357   5.022   1.136  0.2806 -0.3185  0.7071
 6193TIP3    H118585   0.390   5.015   1.226 -1.1592 -1.1385  1.2062
 6193TIP3    H218586   0.289   5.089   1.141  1.8920  1.4757 -0.3419
 6194TIP3   OH218587   4.755   5.561   1.561 -0.0667 -0.2594 -0.2137
 6194TIP3    H118588   4.716   5.528   1.641  1.2489  0.8335  0.9170
 6194TIP3    H218589   4.735   5.655   1.560  0.5504 -0.1229 -0.7870
 6195TIP3   OH218590   0.323   5.286   0.408  0.0963  0.0870 -0.2513
 6195TIP3    H118591   0.308   5.237   0.489  1.1465 -0.8325 -0.5933
 6195TIP3    H218592   0.379   5.359   0.435  0.3984 -0.1851 -0.1321
 6196TIP3   OH218593   5.711   4.882   4.170  0.7962 -0.3724  0.1876
 6196TIP3    H118594   5.652   4.838   4.109  0.4247 -0.6677  0.7513
 6196TIP3    H218595   5.658   4.899   4.247  1.5032 -0.8883  0.8087
 6197TIP3   OH218596   5.203   2.709   2.249  0.1134 -0.2174  0.0615
 6197TIP3    H118597   5.275   2.666   2.295  0.1739  0.7184  0.8705
 6197TIP3    H218598   5.233   2.799   2.237 -1.9272  0.9653  2.7989
 6198TIP3   OH218599   1.889   0.524   0.137 -0.3765 -0.4386 -0.2167
 6198TIP3    H118600   1.865   0.601   0.086  2.0497  0.6495  0.0872
 6198TIP3    H218601   1.905   0.455   0.073 -1.8890 -0.5107 -0.5414
 6199TIP3   OH218602   3.137   1.365   3.959 -0.1489  0.3369 -0.3727
 6199TIP3    H118603   3.184   1.377   4.041 -0.8349 -2.1724  0.4641
 6199TIP3    H218604   3.082   1.443   3.952  1.3378  1.5418  0.4919
 6200TIP3   OH218605   4.126   3.328   1.549 -0.1208  0.1228  0.4303
 6200TIP3    H118606   4.138   3.235   1.567 -0.9369 -0.1042 -0.1658
 6200TIP3    H218607   4.215   3.363   1.542  0.1952 -0.4617  1.3616
 6201TIP3   OH218608   5.289   5.153   1.677 -0.5255 -0.5554 -0.0229
 6201TIP3    H118609   5.264   5.220   1.613  0.1596 -1.0516 -0.8338
 6201TIP3    H218610   5.356   5.101   1.632 -0.5575 -1.3666  0.8403
 6202TIP3   OH218611   5.891   3.437   5.015  0.2448  0.4471  0.0477
 6202TIP3    H118612   5.963   3.389   5.056 -0.4008 -0.4904  0.1036
 6202TIP3    H218613   5.844   3.476   5.089 -0.2016 -0.2240  0.1229
 6203TIP3   OH218614   3.638   1.552   2.864  0.7364  0.4546 -0.1537
 6203TIP3    H118615   3.608   1.575   2.952 -1.1823 -0.3220 -0.5623
 6203TIP3    H218616   3.583   1.604   2.805  0.6673 -0.4692 -0.9238
 6204TIP3   OH218617   1.647   1.831   4.641  0.0077 -0.1615  0.0162
 6204TIP3    H118618   1.743   1.837   4.633  0.0788  1.4485  1.3802
 6204TIP3    H218619   1.632   1.815   4.734 -1.0504 -2.2074 -0.4456
 6205TIP3   OH218620   2.392   4.607   2.191 -0.0545  0.7488  0.1842
 6205TIP3    H118621   2.301   4.612   2.219 -0.7392  1.3784 -1.9412
 6205TIP3    H218622   2.393   4.537   2.125  1.0919  0.4628  0.4833
 6206TIP3   OH218623   1.187   3.938   1.221  0.2326  0.5729 -0.6035
 6206TIP3    H118624   1.218   3.972   1.305  0.7085 -0.1049 -0.4924
 6206TIP3    H218625   1.102   3.899   1.240  1.1149 -1.2026 -0.0144
 6207TIP3   OH218626   2.417   5.413   0.445 -0.4795 -0.1179 -0.5281
 6207TIP3    H118627   2.486   5.438   0.384 -1.5011  2.0874 -0.8986
 6207TIP3    H218628   2.460   5.410   0.531  0.7305 -2.1329 -1.1678
 6208TIP3   OH218629   0.358   3.933   1.318  0.2675  0.2139  0.0445
 6208TIP3    H118630   0.422   3.884   1.369  0.9813  1.4746  0.4058
 6208TIP3    H218631   0.410   3.984   1.256 -0.4751  0.2041 -0.6020
 6209TIP3   OH218632   3.044   3.024   2.636 -0.0658  0.2632 -0.3216
 6209TIP3    H118633   2.949   3.023   2.633 -0.0647 -0.7663 -0.3494
 6209TIP3    H218634   3.069   2.936   2.664  0.8345  1.1501  1.9157
 6210TIP3   OH218635   1.358   3.277   0.145  0.1391 -0.1604 -0.0493
 6210TIP3    H118636   1.406   3.300   0.065 -0.3604  3.2367  0.4735
 6210TIP3    H218637   1.413   3.310   0.216 -0.7865 -0.4338  0.8188
 6211TIP3   OH218638   3.636   2.217   0.894 -0.7847  0.9039  0.1521
 6211TIP3    H118639   3.592   2.299   0.917  0.3953  1.5550  0.1631
 6211TIP3    H218640   3.729   2.236   0.903 -0.4877 -0.5614  0.5317
 6212TIP3   OH218641   3.081   0.744   3.837  0.0743 -0.1333  0.7999
 6212TIP3    H118642   3.086   0.839   3.839 -0.0175 -0.0842 -0.7798
 6212TIP3    H218643   3.139   0.716   3.908 -1.5192  1.1055  2.7247
 6213TIP3   OH218644   0.183   4.758   0.835 -0.6666  0.7308  0.2147
 6213TIP3    H118645   0.156   4.729   0.747 -2.2338  0.1429  0.8460
 6213TIP3    H218646   0.158   4.850   0.838 -3.2201  0.1119  0.9215
 6214TIP3   OH218647   4.100   0.495   1.952 -0.3926  0.0260 -0.4130
 6214TIP3    H118648   4.083   0.409   1.913  0.8909 -0.3807 -0.1298
 6214TIP3    H218649   4.077   0.558   1.883  1.4003 -0.6570 -1.7340
 6215TIP3   OH218650   5.981   3.348   0.616  0.2708  0.4303 -0.0618
 6215TIP3    H118651   6.026   3.393   0.688  1.4860 -1.8240  0.6700
 6215TIP3    H218652   5.888   3.364   0.633  0.5206 -0.0290  2.0697
 6216TIP3   OH218653   4.255   3.418   0.135  0.0109 -0.5855  1.0529
 6216TIP3    H118654   4.218   3.403   0.222 -0.5472  0.7121  1.0556
 6216TIP3    H218655   4.223   3.505   0.110  0.7709 -0.6331 -0.1379
 6217TIP3   OH218656   3.514   2.476   1.486 -0.0515 -0.4079  0.1848
 6217TIP3    H118657   3.532   2.569   1.473  0.8264 -0.1902  2.4048
 6217TIP3    H218658   3.477   2.447   1.403  1.9454  1.3393 -1.4563
 6218TIP3   OH218659   3.788   1.367   4.909 -0.4388  0.0438 -0.4169
 6218TIP3    H118660   3.861   1.428   4.897  0.5078 -1.0123 -0.1752
 6218TIP3    H218661   3.723   1.417   4.958  0.9803  0.3773  1.1924
 6219TIP3   OH218662   1.552   1.814   0.397 -0.2506  0.6229 -0.1296
 6219TIP3    H118663   1.626   1.785   0.451 -1.4685  2.0155  2.4753
 6219TIP3    H218664   1.480   1.756   0.421 -0.8284  1.2750 -0.2736
 6220TIP3   OH218665   0.509   3.559   2.786  0.3125  0.0607  0.0182
 6220TIP3    H118666   0.504   3.597   2.874 -1.0867  1.5506 -0.6355
 6220TIP3    H218667   0.594   3.587   2.752 -0.1649  1.6306  0.0310
 6221TIP3   OH218668   5.061   5.888   1.371  0.1887  0.1422 -0.1636
 6221TIP3    H118669   5.141   5.926   1.334 -0.0370  1.1232  0.3000
 6221TIP3    H218670   5.088   5.852   1.455 -0.0647  1.6615  0.6207
 6222TIP3   OH218671   5.447   5.027   1.876 -0.0345  0.0895  0.5821
 6222TIP3    H118672   5.378   5.075   1.831 -0.4659 -0.5030  0.6073
 6222TIP3    H218673   5.528   5.059   1.836 -0.3880 -0.1713 -0.3696
 6223TIP3   OH218674   2.274   4.957   2.788  0.5022 -0.2676 -0.0866
 6223TIP3    H118675   2.220   5.034   2.810  1.7848  0.7227 -0.3038
 6223TIP3    H218676   2.257   4.942   2.695  0.3415 -0.1809 -0.0727
 6224TIP3   OH218677   3.986   0.372   2.757  0.4125 -0.3112  0.2722
 6224TIP3    H118678   3.928   0.403   2.687  0.9945 -1.3539 -0.7022
 6224TIP3    H218679   4.045   0.446   2.773  0.5175 -0.1852 -0.6241
 6225TIP3   OH218680   0.202   5.276   0.175 -0.0204  0.1752  0.0547
 6225TIP3    H118681   0.229   5.260   0.266 -3.5089 -2.0995  0.9201
 6225TIP3    H218682   0.247   5.208   0.125 -0.4068 -0.5149  0.6226
 6226TIP3   OH218683   6.174   3.337   2.144 -0.1915  0.0834 -0.2690
 6226TIP3    H118684   6.117   3.280   2.092  0.1611 -0.7307  0.2060
 6226TIP3    H218685   6.154   3.425   2.114 -0.8752 -0.2772 -0.9134
 6227TIP3   OH218686   2.822   0.056   2.732 -0.6733  0.3760 -0.8132
 6227TIP3    H118687   2.835   0.037   2.639 -2.3627  0.2105 -1.0396
 6227TIP3    H218688   2.894   0.116   2.754  0.0939 -0.0352 -2.0580
 6228TIP3   OH218689   4.788   5.059   2.560  0.2321  0.2908  0.2226
 6228TIP3    H118690   4.777   5.046   2.655  0.7055  0.7035  0.3383
 6228TIP3    H218691   4.751   4.980   2.521  0.4105 -0.0746  0.7736
 6229TIP3   OH218692   2.155   3.656   2.888  0.1682 -0.4484  0.5346
 6229TIP3    H118693   2.105   3.730   2.921 -0.3468 -1.9254  3.4624
 6229TIP3    H218694   2.246   3.685   2.889 -0.1131  0.4572  0.6225
 6230TIP3   OH218695   5.796   4.152   4.036 -0.0122 -0.2871 -0.7274
 6230TIP3    H118696   5.808   4.119   3.947 -1.2535 -2.0734 -0.2811
 6230TIP3    H218697   5.724   4.100   4.071  1.1870 -0.4464  1.7034
 6231TIP3   OH218698   2.614   2.789   3.507  0.2230  0.0985  0.4350
 6231TIP3    H118699   2.546   2.852   3.533 -0.2040  1.1172 -2.7003
 6231TIP3    H218700   2.630   2.737   3.586 -3.2845  0.6183  1.6852
 6232TIP3   OH218701   5.604   5.372   0.554  1.0536  0.2337 -0.2318
 6232TIP3    H118702   5.658   5.298   0.528  0.1180 -0.9281  0.9407
 6232TIP3    H218703   5.529   5.332   0.599  0.1195  1.8616 -0.2526
 6233TIP3   OH218704   4.244   5.218   4.089 -0.4293  0.2010  0.0219
 6233TIP3    H118705   4.329   5.214   4.045 -1.5018  0.9665 -2.2727
 6233TIP3    H218706   4.247   5.299   4.139  0.3607 -0.0335  0.3660
 6234TIP3   OH218707   5.402   5.329   2.431  0.0716  0.0899 -0.4862
 6234TIP3    H118708   5.408   5.300   2.340 -1.6565 -3.1777  0.3037
 6234TIP3    H218709   5.319   5.295   2.463  0.3459  1.6039  2.2134
 6235TIP3   OH218710   6.297   5.151   5.029 -0.2934 -0.1096  0.0205
 6235TIP3    H118711   6.288   5.204   5.109 -2.8247  0.3450 -0.4925
 6235TIP3    H218712   6.329   5.213   4.963  0.0578 -0.0528  0.2396
 6236TIP3   OH218713   5.693   5.599   1.937  0.1201 -0.5516  0.1775
 6236TIP3    H118714   5.675   5.510   1.965  0.7010 -1.5105 -2.1942
 6236TIP3    H218715   5.789   5.606   1.941  0.0774 -0.0440  0.3409
 6237TIP3   OH218716   5.532   0.052   3.738  0.0293 -0.7530  0.3377
 6237TIP3    H118717   5.500   0.099   3.660  0.6106 -0.6851  0.1371
 6237TIP3    H218718   5.605   0.105   3.769 -0.6970 -0.3321  1.4149
 6238TIP3   OH218719   2.754   0.006   0.742 -0.5308  0.0752  0.2619
 6238TIP3    H118720   2.768   0.025   0.649 -1.6497 -2.9027 -0.6495
 6238TIP3    H218721   2.661   0.025   0.757 -0.4347  0.2307  0.6772
 6239TIP3   OH218722   6.130   4.789   1.452  0.2949  0.5700 -0.3212
 6239TIP3    H118723   6.159   4.716   1.506 -2.9945 -1.8944 -1.5205
 6239TIP3    H218724   6.163   4.768   1.364 -0.9185  0.2741 -0.7323
 6240TIP3   OH218725   0.110   0.957   5.185  0.3056 -0.1948 -0.3588
 6240TIP3    H118726   0.043   0.984   5.122  0.2148  0.3139 -0.0549
 6240TIP3    H218727   0.192   0.992   5.150  0.2077  0.3776 -0.0357
 6241TIP3   OH218728   0.910   1.954   4.758 -0.2799  0.0863  0.0006
 6241TIP3    H118729   0.874   1.939   4.671 -0.1388  2.3553 -0.5111
 6241TIP3    H218730   0.839   1.997   4.806 -0.5665 -1.6543  1.2586
 6242TIP3   OH218731   2.379   0.135   3.470 -0.4943 -0.0259  0.0690
 6242TIP3    H118732   2.394   0.187   3.391  1.1093 -0.1376  0.2582
 6242TIP3    H218733   2.430   0.180   3.538 -0.2392 -1.0270  0.5611
 6243TIP3   OH218734   0.230   4.587   4.830  0.0317 -0.1439  0.9548
 6243TIP3    H118735   0.244   4.620   4.918 -2.9278 -0.7853  1.7767
 6243TIP3    H218736   0.145   4.623   4.804  0.1290 -1.1950 -1.0147
 6244TIP3   OH218737   4.198   0.839   2.956 -0.0848  0.3463  0.0875
 6244TIP3    H118738   4.144   0.902   3.004  0.2106  1.2886 -0.7902
 6244TIP3    H218739   4.140   0.763   2.944 -0.4970  0.4936  1.0086
 6245TIP3   OH218740   3.687   0.692   5.042 -0.0940  0.1161 -0.1733
 6245TIP3    H118741   3.634   0.749   4.987  0.1307  1.3668  0.8620
 6245TIP3    H218742   3.775   0.699   5.005 -0.1119  0.2465 -0.1922
 6246TIP3   OH218743   5.853   2.489   1.105 -0.1649  0.0134 -0.3061
 6246TIP3    H118744   5.863   2.534   1.188 -1.8620 -1.8360  0.9884
 6246TIP3    H218745   5.940   2.493   1.065  0.6506  1.0897  1.4669
 6247TIP3   OH218746   2.626   5.374   2.951  0.0186 -0.0789 -0.1471
 6247TIP3    H118747   2.616   5.469   2.954  0.4691  0.0933 -2.2981
 6247TIP3    H218748   2.642   5.355   2.859  0.9822 -2.1439  0.3868
 6248TIP3   OH218749   4.890   4.892   4.028  0.4128  0.1325  0.1581
 6248TIP3    H118750   4.922   4.970   4.074  1.9076 -0.8314  0.8697
 6248TIP3    H218751   4.818   4.860   4.082  0.7892  0.1831  0.7000
 6249TIP3   OH218752   3.260   0.107   0.617  0.4912 -0.0148 -0.1608
 6249TIP3    H118753   3.241   0.018   0.586  1.1251 -1.1600  2.4777
 6249TIP3    H218754   3.328   0.095   0.684 -0.7030  2.2245  1.5885
 6250TIP3   OH218755   1.275   3.697   3.336 -0.0687 -0.2073  0.1620
 6250TIP3    H118756   1.315   3.639   3.402 -1.8295 -3.9566 -1.7339
 6250TIP3    H218757   1.189   3.718   3.373 -0.4679 -1.0737 -0.2414
 6251TIP3   OH218758   0.225   4.537   1.745 -0.1471  0.3878  0.2709
 6251TIP3    H118759   0.241   4.579   1.661  1.5217 -1.7490 -0.5790
 6251TIP3    H218760   0.303   4.556   1.796 -0.2744  0.0080  0.6102
 6252TIP3   OH218761   1.140   4.803   0.478 -0.5213  0.4240  0.1515
 6252TIP3    H118762   1.203   4.865   0.441 -0.5137 -0.0342 -0.6289
 6252TIP3    H218763   1.056   4.829   0.442 -0.3904 -0.5571 -0.9242
 6253TIP3   OH218764   2.877   0.874   0.088  0.1100 -0.1781 -0.5479
 6253TIP3    H118765   2.841   0.812   0.150 -0.4758 -0.2556 -0.9594
 6253TIP3    H218766   2.868   0.831   0.003  0.5874  0.0684 -0.7282
 6254TIP3   OH218767   6.161   0.765   4.388 -0.2152 -0.1723  0.1172
 6254TIP3    H118768   6.178   0.753   4.481 -1.5706 -0.4186  0.3465
 6254TIP3    H218769   6.068   0.788   4.383 -0.4472 -1.2711 -1.2556
 6255TIP3   OH218770   0.719   0.751   1.526  0.0897  0.2342 -0.7787
 6255TIP3    H118771   0.708   0.843   1.501 -0.8096  0.2741 -0.2804
 6255TIP3    H218772   0.785   0.754   1.596 -1.7231  0.8318  1.0144
 6256TIP3   OH218773   4.191   2.911   2.749 -0.4622  0.6084 -0.8128
 6256TIP3    H118774   4.202   2.817   2.733 -1.3544  0.7393 -2.3694
 6256TIP3    H218775   4.175   2.917   2.843  1.7487 -0.5596 -0.2951
 6257TIP3   OH218776   3.942   4.012   1.743 -0.2440 -0.0414  0.4276
 6257TIP3    H118777   3.953   4.060   1.661  1.1427 -0.5849  0.2808
 6257TIP3    H218778   3.851   3.983   1.741 -0.2195 -0.0844 -0.9377
 6258TIP3   OH218779   0.872   5.017   2.612 -0.1618 -0.1677 -0.2673
 6258TIP3    H118780   0.841   5.061   2.533 -0.6470 -3.0995 -1.8373
 6258TIP3    H218781   0.950   4.969   2.585  0.1478 -0.5711  1.2346
 6259TIP3   OH218782   1.953   1.054   1.057  0.3660 -0.3679  0.5292
 6259TIP3    H118783   1.987   0.979   1.007 -0.7336 -1.2430  1.0424
 6259TIP3    H218784   1.957   1.127   0.996 -1.8203 -1.5914 -1.2525
 6260TIP3   OH218785   3.627   3.400   3.426  0.1049  0.3966  0.1095
 6260TIP3    H118786   3.701   3.378   3.482 -0.4866  0.8028  1.0762
 6260TIP3    H218787   3.560   3.433   3.486 -0.7766  0.2586 -0.7682
 6261TIP3   OH218788   0.083   3.502   2.251 -0.0522 -0.5240 -0.6025
 6261TIP3    H118789   0.015   3.569   2.259 -0.4512 -0.9507 -0.4321
 6261TIP3    H218790   0.082   3.456   2.334  0.0501 -0.9055 -0.8114
 6262TIP3   OH218791   3.298   1.588   3.128  0.2517 -1.0107  0.0990
 6262TIP3    H118792   3.389   1.607   3.103 -0.1010  0.0737 -0.4187
 6262TIP3    H218793   3.260   1.674   3.145 -0.7536 -1.4371  0.0455
 6263TIP3   OH218794   5.280   0.404   3.759 -0.3081  1.1378  0.1839
 6263TIP3    H118795   5.195   0.448   3.770  0.4242  2.5205  0.5774
 6263TIP3    H218796   5.330   0.431   3.835  0.9816  1.5172 -0.7752
 6264TIP3   OH218797   5.852   3.927   4.841 -0.2565 -0.1326 -0.7285
 6264TIP3    H118798   5.843   3.988   4.914 -1.5853 -0.1021 -0.8977
 6264TIP3    H218799   5.901   3.853   4.877 -1.8951 -0.6527  0.5610
 6265TIP3   OH218800   4.192   2.808   1.073  0.0601 -0.0186 -0.7809
 6265TIP3    H118801   4.195   2.739   1.007  0.1920 -1.1780  0.3720
 6265TIP3    H218802   4.122   2.780   1.133 -1.3863  1.9960 -1.4496
 6266TIP3   OH218803   2.164   4.815   0.235 -0.6660 -0.2770  0.1854
 6266TIP3    H118804   2.242   4.866   0.257 -1.9187  2.1961 -0.6689
 6266TIP3    H218805   2.094   4.880   0.229 -2.2372 -1.9915 -1.8529
 6267TIP3   OH218806   5.761   4.753   4.965  0.4987 -0.8013  0.3530
 6267TIP3    H118807   5.684   4.803   4.992 -1.2229 -2.0290 -1.9183
 6267TIP3    H218808   5.804   4.809   4.900  0.3717 -0.9370  0.1504
 6268TIP3   OH218809   4.897   4.092   3.500  0.7175 -0.3702 -0.4948
 6268TIP3    H118810   4.857   4.097   3.414  2.0566  3.3054 -1.0875
 6268TIP3    H218811   4.991   4.100   3.483  1.0413 -0.0130  1.2663
 6269TIP3   OH218812   0.919   4.910   0.383  0.3894  0.2562 -0.0442
 6269TIP3    H118813   0.892   4.998   0.409 -1.4786 -0.4661  0.6741
 6269TIP3    H218814   0.855   4.852   0.424 -0.4093 -1.2379 -3.0490
 6270TIP3   OH218815   1.853   5.585   4.773 -0.1306 -0.2439 -0.0420
 6270TIP3    H118816   1.880   5.636   4.697  0.3141  0.5842  0.6572
 6270TIP3    H218817   1.934   5.570   4.823 -0.9129  3.0972  2.5847
 6271TIP3   OH218818   5.712   2.409   1.627  0.1396  0.1861  0.0191
 6271TIP3    H118819   5.712   2.413   1.531 -1.5280 -1.3169 -0.0975
 6271TIP3    H218820   5.628   2.447   1.653 -0.9922 -2.4609  0.6112
 6272TIP3   OH218821   3.146   5.339   0.192 -0.1486  0.3524 -0.2448
 6272TIP3    H118822   3.105   5.319   0.108 -1.3129  0.7330  0.2195
 6272TIP3    H218823   3.113   5.426   0.215 -0.6153 -0.1484  1.0638
 6273TIP3   OH218824   0.078   0.361   0.519 -0.0963 -0.0927 -0.3074
 6273TIP3    H118825   0.141   0.319   0.460 -0.4409 -0.1297 -0.6514
 6273TIP3    H218826   0.006   0.299   0.526  0.0225 -0.1688  0.3075
 6274TIP3   OH218827   5.571   2.215   5.103 -0.0380  0.1864 -0.0088
 6274TIP3    H118828   5.612   2.183   5.183 -0.3397 -1.0378 -0.3299
 6274TIP3    H218829   5.629   2.188   5.033  0.3640  1.4980 -0.1984
 6275TIP3   OH218830   2.165   0.854   4.398  0.2177 -0.1200  0.1425
 6275TIP3    H118831   2.077   0.841   4.434 -0.4896  1.5875 -0.8660
 6275TIP3    H218832   2.177   0.782   4.337  0.3256 -1.4636  1.6821
 6276TIP3   OH218833   2.966   5.362   3.129  0.5722 -0.0906  0.3316
 6276TIP3    H118834   2.960   5.442   3.077 -0.3951 -0.7674 -0.6414
 6276TIP3    H218835   3.043   5.375   3.184  0.3778  1.5421  0.2660
 6277TIP3   OH218836   0.491   0.903   1.838  0.4553  0.1373 -0.2392
 6277TIP3    H118837   0.564   0.889   1.778  0.4746  2.5856 -0.9160
 6277TIP3    H218838   0.515   0.982   1.886 -1.7179  1.0039 -0.4788
 6278TIP3   OH218839   1.919   2.138   3.175  0.0563  0.4985  0.6385
 6278TIP3    H118840   1.888   2.063   3.125  1.2345  0.2976  0.1768
 6278TIP3    H218841   1.881   2.214   3.131 -1.4243  0.1864  1.3108
 6279TIP3   OH218842   4.525   1.102   1.290 -0.2084  0.4083 -0.2597
 6279TIP3    H118843   4.613   1.079   1.258  0.0739  2.6372 -1.2829
 6279TIP3    H218844   4.540   1.179   1.346 -1.4639  0.5309 -0.0773
 6280TIP3   OH218845   3.682   0.375   0.854  0.5914 -0.1760  0.0833
 6280TIP3    H118846   3.673   0.320   0.776  1.3212  0.9921 -0.8501
 6280TIP3    H218847   3.602   0.427   0.857 -0.0751 -1.1965  0.9371
 6281TIP3   OH218848   5.442   2.049   3.816 -0.2873  0.5585 -0.3310
 6281TIP3    H118849   5.472   1.963   3.786  1.2355  0.8491  0.3065
 6281TIP3    H218850   5.398   2.031   3.899 -1.0444  0.2680 -0.7754
 6282TIP3   OH218851   3.095   4.722   4.695 -0.4312 -0.2222 -0.4174
 6282TIP3    H118852   3.175   4.722   4.642 -0.1929 -4.3296 -0.3745
 6282TIP3    H218853   3.120   4.768   4.775  1.7145 -0.8056 -0.6893
 6283TIP3   OH218854   5.103   1.659   4.376 -0.1257  0.0598  0.0017
 6283TIP3    H118855   5.056   1.603   4.314  0.5594 -0.1468 -0.3417
 6283TIP3    H218856   5.134   1.600   4.444 -1.1776  0.3367  0.7465
 6284TIP3   OH218857   1.407   5.061   4.437 -0.5047  0.1390 -0.2778
 6284TIP3    H118858   1.365   5.019   4.362 -1.0333  1.5429 -0.7966
 6284TIP3    H218859   1.343   5.127   4.466 -0.7510 -1.0553  2.0568
 6285TIP3   OH218860   2.418   5.403   2.274  0.6004  0.3211 -0.7999
 6285TIP3    H118861   2.355   5.356   2.328  0.1313  1.0298 -0.7185
 6285TIP3    H218862   2.496   5.348   2.275  0.2141 -0.2287 -0.3389
 6286TIP3   OH218863   2.959   3.996   1.880  0.6078  0.3938 -0.1377
 6286TIP3    H118864   2.975   4.088   1.860  0.2065  0.4324 -0.2874
 6286TIP3    H218865   3.033   3.971   1.935  1.2607  0.5272 -0.9233
 6287TIP3   OH218866   5.126   2.217   0.504  0.2660  0.0641  0.0888
 6287TIP3    H118867   5.201   2.270   0.529  0.3889 -1.2776  2.8840
 6287TIP3    H218868   5.136   2.135   0.552 -0.2600 -2.3611 -3.5525
 6288TIP3   OH218869   0.412   2.987   0.818  0.1029  0.1735 -0.2102
 6288TIP3    H118870   0.461   2.915   0.778 -1.3173 -0.4176 -0.9493
 6288TIP3    H218871   0.436   2.984   0.911  1.3461 -0.1773 -0.5290
 6289TIP3   OH218872   1.097   0.158   4.079 -0.1617 -0.0739 -0.4203
 6289TIP3    H118873   1.146   0.216   4.138 -0.6372 -0.9667  0.8961
 6289TIP3    H218874   1.165   0.115   4.027  0.5581 -1.5048  1.5684
 6290TIP3   OH218875   1.738   3.292   2.168  0.1311 -0.0201  0.0504
 6290TIP3    H118876   1.728   3.239   2.089 -3.1562 -0.6715  0.7525
 6290TIP3    H218877   1.785   3.235   2.229  1.4987 -0.0009 -0.9292
 6291TIP3   OH218878   1.123   3.042   0.947 -0.4971  0.3217  0.1322
 6291TIP3    H118879   1.028   3.044   0.950 -0.6519 -1.2898 -1.3182
 6291TIP3    H218880   1.149   3.129   0.916 -1.4754  0.8215  0.6992
 6292TIP3   OH218881   1.940   0.753   4.011 -0.0704 -0.3560  0.0558
 6292TIP3    H118882   2.005   0.685   4.030  0.0290 -0.1731  0.3724
 6292TIP3    H218883   1.983   0.810   3.948 -0.7643 -1.5307 -1.5365
 6293TIP3   OH218884   2.162   1.113   4.777 -0.2527 -0.3367  0.1928
 6293TIP3    H118885   2.170   1.176   4.849 -0.6050  0.1735 -0.2061
 6293TIP3    H218886   2.146   1.029   4.820  0.1893 -0.1486  0.7311
 6294TIP3   OH218887   0.242   0.707   2.449 -0.4809  0.3942  0.6416
 6294TIP3    H118888   0.254   0.796   2.415 -0.0070  0.7573  1.7066
 6294TIP3    H218889   0.218   0.720   2.540  0.1373 -0.5821  0.9564
 6295TIP3   OH218890   4.332   4.637   4.181  0.0731  0.9067 -0.9403
 6295TIP3    H118891   4.301   4.709   4.126 -1.3709  0.5348 -0.6707
 6295TIP3    H218892   4.323   4.559   4.125  0.2037  0.7462 -0.7392
 6296TIP3   OH218893   3.286   0.979   2.362  0.4243  0.1993 -0.5782
 6296TIP3    H118894   3.238   1.036   2.422  1.5526  0.9996 -0.4126
 6296TIP3    H218895   3.250   0.892   2.379  0.5843  0.4343  1.1421
 6297TIP3   OH218896   0.814   1.504   4.856 -0.3773  0.2053 -0.1902
 6297TIP3    H118897   0.851   1.424   4.819  0.2584  0.2233  0.3869
 6297TIP3    H218898   0.887   1.565   4.859 -0.0181 -0.2263  2.3135
 6298TIP3   OH218899   0.053   3.678   2.534 -0.0991  0.5513  0.6998
 6298TIP3    H118900   0.076   3.590   2.565  0.9197  0.3029 -0.6815
 6298TIP3    H218901   0.018   3.722   2.612  0.7151 -0.6040  1.7666
 6299TIP3   OH218902   5.835   3.420   3.842 -0.1139 -0.4066 -0.3664
 6299TIP3    H118903   5.873   3.337   3.871 -1.5554 -1.2763 -0.8699
 6299TIP3    H218904   5.740   3.405   3.846 -0.3898  1.1290 -0.7372
 6300TIP3   OH218905   2.976   3.668   0.007 -0.1882 -0.1862  0.2888
 6300TIP3    H118906   3.048   3.731   0.005 -0.3089 -0.0465 -1.7323
 6300TIP3    H218907   3.018   3.584   0.028  0.2707  0.2071  0.9823
 6301TIP3   OH218908   5.600   0.711   2.648 -0.1353  0.6061  0.0331
 6301TIP3    H118909   5.622   0.658   2.724  2.5984  0.5715 -0.6828
 6301TIP3    H218910   5.582   0.648   2.578 -2.6043  0.6381  0.5596
 6302TIP3   OH218911   4.860   1.194   3.996 -0.3116  0.0600 -0.1909
 6302TIP3    H118912   4.918   1.166   4.067  0.1779 -1.8321 -1.2804
 6302TIP3    H218913   4.895   1.279   3.969  0.0852  0.3594  1.1585
 6303TIP3   OH218914   1.503   3.399   2.202 -0.1725  0.0493 -0.1505
 6303TIP3    H118915   1.430   3.339   2.220 -0.6715  0.6888  0.0134
 6303TIP3    H218916   1.581   3.345   2.210 -0.5165 -0.2375  1.5587
 6304TIP3   OH218917   4.412   2.193   4.274  0.1669  0.1546  0.0271
 6304TIP3    H118918   4.501   2.194   4.238  0.9076  0.1930  1.7656
 6304TIP3    H218919   4.399   2.103   4.303  0.7282  0.7238  2.2404
 6305TIP3   OH218920   4.421   3.522   3.277  0.3035  0.6077  0.7640
 6305TIP3    H118921   4.416   3.438   3.230 -1.6911 -0.0569  2.0135
 6305TIP3    H218922   4.340   3.567   3.252  0.3552  1.2508  1.7112
 6306TIP3   OH218923   2.106   0.214   1.590 -0.0255 -0.2073 -0.2502
 6306TIP3    H118924   2.080   0.148   1.655  1.3509 -1.7430 -1.1910
 6306TIP3    H218925   2.167   0.169   1.532  1.3567  2.0345 -0.6832
 6307TIP3   OH218926   1.343   1.037   0.334 -0.5026 -0.3071  0.0089
 6307TIP3    H118927   1.402   1.041   0.409 -1.1179  1.7484  0.4418
 6307TIP3    H218928   1.401   1.033   0.258  0.1444 -0.5153  0.5026
 6308TIP3   OH218929   1.964   4.436   4.119  0.0436  0.3313 -0.6609
 6308TIP3    H118930   1.925   4.477   4.042 -0.8975 -1.3710 -1.1238
 6308TIP3    H218931   1.962   4.342   4.101  2.9060  0.0510  0.0155
 6309TIP3   OH218932   6.025   5.799   0.963  0.5625 -0.5049 -0.0817
 6309TIP3    H118933   6.097   5.737   0.953  0.1972 -0.7392 -1.5669
 6309TIP3    H218934   5.964   5.777   0.892  0.4574  1.5699 -0.7244
 6310TIP3   OH218935   3.094   4.621  -0.026  0.0081  0.1861 -0.0014
 6310TIP3    H118936   3.132   4.685   0.034 -0.5321  1.1234 -0.6241
 6310TIP3    H218937   3.033   4.570   0.028  0.9327 -0.2629  0.6465
 6311TIP3   OH218938   4.942   0.616   0.711  0.0486 -0.6086  0.4915
 6311TIP3    H118939   4.919   0.617   0.803  0.1773  0.8396  0.5327
 6311TIP3    H218940   4.985   0.701   0.696  1.7359 -1.5819 -0.4691
 6312TIP3   OH218941   1.056   5.534   2.034 -0.1283  0.1838 -0.0208
 6312TIP3    H118942   1.046   5.624   2.064  2.6631  0.3808  0.6010
 6312TIP3    H218943   0.991   5.523   1.965  1.1212  3.5281 -1.9475
 6313TIP3   OH218944   4.889   5.724   2.617 -0.1817 -0.4966 -0.1914
 6313TIP3    H118945   4.918   5.692   2.532 -2.8951 -1.3023 -0.9200
 6313TIP3    H218946   4.872   5.646   2.669 -0.3492 -0.0626  0.4266
 6314TIP3   OH218947   4.489   3.633   0.750 -0.4249 -0.4264  0.3635
 6314TIP3    H118948   4.434   3.613   0.675  0.1318 -0.3033 -0.0920
 6314TIP3    H218949   4.543   3.555   0.762  0.8149  0.2325 -0.5796
 6315TIP3   OH218950   4.194   3.678   3.235 -0.3526  0.1917 -0.3051
 6315TIP3    H118951   4.129   3.686   3.166 -0.9129 -0.0857  0.1884
 6315TIP3    H218952   4.147   3.698   3.315  0.5900  1.8511 -0.1190
 6316TIP3   OH218953   3.721   4.739   0.314  0.2574  0.1503 -0.8069
 6316TIP3    H118954   3.683   4.814   0.359  0.3538  0.0173 -0.4992
 6316TIP3    H218955   3.772   4.777   0.242  1.0683  0.4360 -0.0897
 6317TIP3   OH218956   4.721   3.909   4.589  0.2031  0.3402 -0.3772
 6317TIP3    H118957   4.659   3.866   4.649  0.7365  2.2893  1.7307
 6317TIP3    H218958   4.680   3.900   4.503 -1.9380 -0.3473  0.6189
 6318TIP3   OH218959   1.479   5.835   0.306 -0.2263 -0.4230  0.0454
 6318TIP3    H118960   1.503   5.822   0.398  0.8605  0.0765 -0.1558
 6318TIP3    H218961   1.561   5.858   0.263 -1.2416  2.9328 -0.4041
 6319TIP3   OH218962   0.453   5.248   2.835 -0.3545 -0.2273  0.1921
 6319TIP3    H118963   0.379   5.302   2.809 -0.0285 -0.6857 -1.8683
 6319TIP3    H218964   0.502   5.302   2.897 -0.4566  1.5332 -1.1965
 6320TIP3   OH218965   5.173   1.013   3.321 -0.0484  0.4260 -0.3693
 6320TIP3    H118966   5.114   1.082   3.291 -0.0339  1.4278  1.6948
 6320TIP3    H218967   5.137   0.932   3.285 -0.8827  1.3451 -1.6818
 6321TIP3   OH218968   0.452   1.962   0.949 -0.9792  0.4670 -0.2882
 6321TIP3    H118969   0.503   1.933   1.025 -1.4968  0.7272  0.1700
 6321TIP3    H218970   0.514   1.961   0.876 -0.4702  0.2236  0.1400
 6322TIP3   OH218971   5.318   2.615   0.435  0.1807  0.4053 -0.9766
 6322TIP3    H118972   5.295   2.702   0.469 -1.6372 -0.1696 -0.6168
 6322TIP3    H218973   5.239   2.585   0.391  0.5329 -1.3529 -0.4794
 6323TIP3   OH218974   0.358   3.184   4.385  0.3865  0.3828 -0.4468
 6323TIP3    H118975   0.329   3.097   4.358  0.3868 -0.0057  0.7551
 6323TIP3    H218976   0.376   3.230   4.303 -0.0768 -0.5869 -1.1071
 6324TIP3   OH218977   0.549   2.799   2.631  0.4076  0.2270 -0.1259
 6324TIP3    H118978   0.489   2.744   2.581  0.9689  0.7271 -1.4039
 6324TIP3    H218979   0.628   2.746   2.642  0.9811  0.7439 -1.4317
 6325TIP3   OH218980   3.019   2.709   3.873 -0.1236 -1.3082 -0.4219
 6325TIP3    H118981   3.081   2.753   3.932  0.2949 -1.2561 -0.8967
 6325TIP3    H218982   3.017   2.618   3.903 -0.1711 -1.2098 -0.1179
 6326TIP3   OH218983   4.617   0.356   4.412 -0.0767  0.2371  0.7259
 6326TIP3    H118984   4.555   0.327   4.346 -1.2535  0.7084  1.5843
 6326TIP3    H218985   4.636   0.278   4.464 -0.8715  0.3199  1.1643
 6327TIP3   OH218986   6.274   4.032   1.924 -0.0094 -0.4590  1.2841
 6327TIP3    H118987   6.321   4.013   1.843  0.0638  1.0764  0.9368
 6327TIP3    H218988   6.206   3.965   1.929 -1.1309  0.4093 -0.9824
 6328TIP3   OH218989   1.326   0.317   0.079 -0.1611  0.3980 -0.0457
 6328TIP3    H118990   1.413   0.338   0.045 -0.2027  0.0235 -0.3844
 6328TIP3    H218991   1.266   0.360   0.019 -0.2282 -0.0034 -0.2655
 6329TIP3   OH218992   1.406   2.901   5.005  0.3142 -0.0222  0.6164
 6329TIP3    H118993   1.464   2.975   5.024  0.7789 -0.7259  2.1303
 6329TIP3    H218994   1.458   2.824   5.026  0.0007 -0.8420 -1.3807
 6330TIP3   OH218995   3.771   2.757   1.885 -0.6616  0.0303 -0.5032
 6330TIP3    H118996   3.805   2.777   1.972 -0.8587 -0.9725 -0.1851
 6330TIP3    H218997   3.836   2.794   1.825  0.2856 -0.6431  0.0849
 6331TIP3   OH218998   5.224   1.220   2.369  0.0460  0.5034  0.1765
 6331TIP3    H118999   5.153   1.270   2.328  0.0356  1.1009  0.9032
 6331TIP3    H219000   5.285   1.287   2.400  0.5303  0.0192  0.2818
 6332TIP3   OH219001   2.698   4.150   3.132 -0.4727 -0.5387 -0.2204
 6332TIP3    H119002   2.724   4.077   3.076  1.5745 -2.0071  2.3716
 6332TIP3    H219003   2.689   4.224   3.073  0.5193 -2.1898 -2.5925
 6333TIP3   OH219004   0.780   0.298   4.358 -0.1020 -0.4003 -0.1547
 6333TIP3    H119005   0.779   0.266   4.448  2.5855  0.8502  0.4260
 6333TIP3    H219006   0.698   0.267   4.320 -0.8287 -1.8533  2.3958
 6334TIP3   OH219007   2.871   5.372   1.017  0.0821  0.1347 -0.7830
 6334TIP3    H119008   2.886   5.317   0.940 -0.0835  2.8380 -2.9080
 6334TIP3    H219009   2.819   5.445   0.985 -0.1321  1.3323  1.9691
 6335TIP3   OH219010   0.775   3.278   1.624 -0.5295  0.1345  0.6379
 6335TIP3    H119011   0.815   3.264   1.709  0.3712 -0.1659  0.1778
 6335TIP3    H219012   0.823   3.221   1.564  1.3306  2.8912 -0.7428
 6336TIP3   OH219013   2.408   2.642   3.737 -0.2975  0.5586 -0.1076
 6336TIP3    H119014   2.481   2.580   3.731  0.5934  1.4496  1.1799
 6336TIP3    H219015   2.352   2.619   3.662  1.8154  0.5616 -1.7875
 6337TIP3   OH219016   4.614   0.004   2.167  1.1259  0.5990  0.2574
 6337TIP3    H119017   4.695   0.046   2.197 -0.3546  2.2779  2.2403
 6337TIP3    H219018   4.563   0.075   2.129  0.2264 -0.2714 -0.2039
 6338TIP3   OH219019   1.688   3.263   1.101 -0.5001 -0.8263  0.3168
 6338TIP3    H119020   1.609   3.232   1.059 -0.4550 -1.0712  0.4101
 6338TIP3    H219021   1.759   3.234   1.044 -0.5656  1.0528 -0.7981
 6339TIP3   OH219022  -0.002   4.775   3.628  0.0673 -0.8456  0.1656
 6339TIP3    H119023   0.077   4.784   3.681 -0.2250 -0.5945  0.5670
 6339TIP3    H219024  -0.029   4.866   3.612 -0.5164 -0.9387  0.6053
 6340TIP3   OH219025   4.420   3.974   0.443 -0.6199  0.0154  0.1535
 6340TIP3    H119026   4.358   4.032   0.399 -0.9726 -0.4178  0.0865
 6340TIP3    H219027   4.388   3.968   0.533  0.3439  1.2594  0.6236
 6341TIP3   OH219028   3.577   3.876   2.830  0.1506 -0.0696 -0.1787
 6341TIP3    H119029   3.539   3.803   2.782 -0.3914 -0.0769  0.2577
 6341TIP3    H219030   3.657   3.897   2.782  1.4936 -2.3499  0.9064
 6342TIP3   OH219031   1.683   1.113   4.381  0.1606  0.2262 -0.4127
 6342TIP3    H119032   1.732   1.119   4.299  0.6799  0.5402 -0.0827
 6342TIP3    H219033   1.747   1.131   4.449  0.3630 -2.5863  0.2833
 6343TIP3   OH219034   2.040   2.401   3.479  0.1771 -0.7085 -0.0845
 6343TIP3    H119035   1.964   2.417   3.535  0.7386  1.0692  0.2115
 6343TIP3    H219036   2.005   2.402   3.390 -0.4514 -1.9038  0.1324
 6344TIP3   OH219037   5.162   2.052   4.835  0.6768  0.2860  0.3169
 6344TIP3    H119038   5.128   2.136   4.804  0.3583  0.4699  1.1171
 6344TIP3    H219039   5.253   2.050   4.806 -0.1460 -0.5017 -2.4582
 6345TIP3   OH219040   0.369   3.696   1.706  0.9073 -0.4010 -0.1176
 6345TIP3    H119041   0.440   3.672   1.647  1.0335 -0.0514 -0.1094
 6345TIP3    H219042   0.376   3.634   1.779  0.3799 -1.2211 -0.7479
 6346TIP3   OH219043   2.594   5.763   4.445 -0.6705  0.4389  0.2001
 6346TIP3    H119044   2.660   5.784   4.379 -0.8896 -2.1267 -0.9234
 6346TIP3    H219045   2.513   5.752   4.396 -1.3224  0.6654  1.1926
 6347TIP3   OH219046   5.187   4.414   2.177  0.1659  0.2489 -0.6924
 6347TIP3    H119047   5.211   4.506   2.175  0.6635  0.1119 -1.5417
 6347TIP3    H219048   5.214   4.384   2.264  2.5351  0.2687 -1.3498
 6348TIP3   OH219049   4.727   2.525   1.281 -0.3644  0.0237  0.0994
 6348TIP3    H119050   4.758   2.532   1.371 -0.3525 -3.2288  0.4756
 6348TIP3    H219051   4.804   2.498   1.231 -0.4210  1.5717 -0.8877
 6349TIP3   OH219052   3.961   5.264   0.818 -0.4230 -0.4382  0.4139
 6349TIP3    H119053   3.930   5.354   0.815 -1.7963 -0.7869  2.2659
 6349TIP3    H219054   3.996   5.254   0.906  0.3378 -1.5427  0.0106
 6350TIP3   OH219055   1.010   2.740   3.643  0.3172 -0.0948  0.2123
 6350TIP3    H119056   0.942   2.715   3.581  0.3670  0.5887 -0.1277
 6350TIP3    H219057   1.053   2.658   3.666  0.6720 -0.2966 -1.0992
 6351TIP3   OH219058   4.855   5.958   2.759  0.0442  0.6040  0.5743
 6351TIP3    H119059   4.915   5.955   2.833 -0.2787  1.7558  0.9140
 6351TIP3    H219060   4.878   5.882   2.706  2.7499  1.6999 -0.0244
 6352TIP3   OH219061   0.406   0.695   3.480  0.0561 -0.3806 -0.0107
 6352TIP3    H119062   0.343   0.677   3.410  1.0658 -2.9473 -0.3640
 6352TIP3    H219063   0.370   0.771   3.525 -2.3412 -0.6424 -1.3035
 6353TIP3   OH219064   0.641   2.191   2.759  0.3099 -0.0452  0.1151
 6353TIP3    H119065   0.704   2.221   2.824  0.9810  2.5873 -1.5880
 6353TIP3    H219066   0.680   2.217   2.675 -1.7213 -0.9476 -1.1753
 6354TIP3   OH219067   4.719   3.729   0.034 -0.3245  0.0799  0.1809
 6354TIP3    H119068   4.648   3.790   0.016 -0.9597 -0.9526 -0.9521
 6354TIP3    H219069   4.795   3.766  -0.008 -1.2385 -1.0511 -2.7128
 6355TIP3   OH219070   5.706   5.140   1.868  0.3096  0.1802 -0.1075
 6355TIP3    H119071   5.699   5.207   1.935  3.6460  3.4145 -2.6014
 6355TIP3    H219072   5.724   5.188   1.787 -0.3791 -3.6254 -2.8003
 6356TIP3   OH219073   1.388   3.682   1.066 -0.3956 -0.2128 -0.4228
 6356TIP3    H119074   1.339   3.655   1.145  2.0362 -2.0732  0.5775
 6356TIP3    H219075   1.469   3.720   1.100  0.5276 -0.6861 -2.0270
 6357TIP3   OH219076   6.235   3.609   5.119  0.5885  0.7815 -1.0877
 6357TIP3    H119077   6.296   3.560   5.175 -2.5985 -0.0679  1.9714
 6357TIP3    H219078   6.250   3.573   5.032  4.6859  0.9924 -0.6897
 6358TIP3   OH219079   1.524   2.114   3.838 -0.1041 -0.1731 -0.1934
 6358TIP3    H119080   1.550   2.192   3.888 -1.9403 -0.0417  0.6355
 6358TIP3    H219081   1.483   2.148   3.759 -1.0926 -0.2607  0.2640
 6359TIP3   OH219082   1.288   1.542   3.946 -0.1542  0.1291 -0.2768
 6359TIP3    H119083   1.274   1.605   3.875  0.0139  2.1369  1.3668
 6359TIP3    H219084   1.371   1.499   3.924  0.2445  1.2133 -0.9888
 6360TIP3   OH219085   1.995   5.759   0.315  0.5343  0.0098  0.1660
 6360TIP3    H119086   1.961   5.779   0.403 -0.7431 -1.9998  0.1935
 6360TIP3    H219087   1.919   5.770   0.257  0.3383 -2.2521 -0.1105
 6361TIP3   OH219088   1.575   3.011   1.577  0.1114  0.3376  0.0214
 6361TIP3    H119089   1.521   2.966   1.512  1.3736  0.1145 -0.9219
 6361TIP3    H219090   1.664   2.984   1.557  0.4176 -2.1396  3.6886
 6362TIP3   OH219091   4.897   4.058   1.610 -0.2460  0.7478 -0.2622
 6362TIP3    H119092   4.917   4.119   1.540  3.3028  1.1029  0.8789
 6362TIP3    H219093   4.902   4.111   1.690  3.0821 -0.8356  0.7671
 6363TIP3   OH219094   3.350   2.745   1.827 -0.1583  0.8578  0.4001
 6363TIP3    H119095   3.360   2.670   1.886  3.0867  0.0581 -0.9406
 6363TIP3    H219096   3.296   2.712   1.756  3.2004 -1.3062 -1.4521
 6364TIP3   OH219097   3.193   0.053   2.892  0.1267  0.5282 -0.5731
 6364TIP3    H119098   3.142   0.022   2.967 -0.6056  0.6834 -0.9987
 6364TIP3    H219099   3.269  -0.006   2.889 -0.9684 -0.9248 -1.0538
 6365TIP3   OH219100   0.355   1.957   5.047 -0.1204  0.0819 -0.2217
 6365TIP3    H119101   0.319   1.962   5.136  1.1039 -0.4873  0.3406
 6365TIP3    H219102   0.446   1.987   5.057 -0.5449  1.9974 -1.6785
 6366TIP3   OH219103   1.965   5.138   2.447 -0.7780  0.3390 -0.0471
 6366TIP3    H119104   1.903   5.174   2.383 -1.2946 -0.6019 -0.0961
 6366TIP3    H219105   2.000   5.214   2.492 -0.3674  1.0380 -1.4760
 6367TIP3   OH219106   5.175   5.689   2.881  0.3741  0.0223  0.0451
 6367TIP3    H119107   5.215   5.621   2.936  0.9229  0.8973  0.7692
 6367TIP3    H219108   5.081   5.673   2.887  0.5025 -0.6753  0.2059
 6368TIP3   OH219109   5.493   4.790   2.422 -0.0774 -0.5780 -0.5234
 6368TIP3    H119110   5.497   4.788   2.517  0.1700 -1.7263 -0.5507
 6368TIP3    H219111   5.518   4.702   2.394  1.3355  0.1500 -1.7160
 6369TIP3   OH219112   2.699   0.237   4.497  0.0117 -0.5606 -0.1986
 6369TIP3    H119113   2.659   0.316   4.534  0.7083 -0.2159 -0.1625
 6369TIP3    H219114   2.638   0.167   4.518  0.0482 -0.2560  0.9619
 6370TIP3   OH219115   3.596   5.673   1.217  0.1159 -0.0254 -0.1636
 6370TIP3    H119116   3.597   5.702   1.126  0.3880  1.1226  0.1922
 6370TIP3    H219117   3.671   5.717   1.257  0.1220 -0.6794  0.5713
 6371TIP3   OH219118   3.123   2.013   3.100 -0.0464 -0.0467 -0.1325
 6371TIP3    H119119   3.202   1.967   3.072 -0.5525 -1.4587  0.6378
 6371TIP3    H219120   3.066   2.011   3.024 -0.3983 -1.5201  0.1365
 6372TIP3   OH219121   5.109   0.955   3.947  0.4856 -0.3605  0.5890
 6372TIP3    H119122   5.029   0.964   3.998  0.4484  2.2883  0.1848
 6372TIP3    H219123   5.081   0.915   3.865 -0.3197 -0.0322  0.7007
 6373TIP3   OH219124   2.921   0.469   4.060 -0.4616 -0.1953  0.2380
 6373TIP3    H119125   2.856   0.423   4.113 -1.1310 -0.3369 -0.6796
 6373TIP3    H219126   2.873   0.542   4.021 -0.2810 -0.7269 -1.0325
 6374TIP3   OH219127   4.716   2.862   3.048 -0.0839  0.1877  0.5677
 6374TIP3    H119128   4.690   2.929   3.111 -1.6413  0.4146 -0.2558
 6374TIP3    H219129   4.658   2.788   3.066 -0.4194  0.1800 -0.4311
 6375TIP3   OH219130   2.082   3.707   0.658  0.0501  0.1075 -0.3823
 6375TIP3    H119131   2.116   3.645   0.594  0.7736 -2.7621  2.5312
 6375TIP3    H219132   2.154   3.768   0.674  0.1694  0.3020 -1.5336
 6376TIP3   OH219133   0.008   3.698   0.783 -0.4405  0.4893  0.1176
 6376TIP3    H119134   0.102   3.706   0.766 -0.5922  1.2932 -0.3743
 6376TIP3    H219135   0.002   3.661   0.871  0.3288  1.5267  0.6130
 6377TIP3   OH219136   1.962   0.466   3.567 -0.0496 -0.0135 -0.3922
 6377TIP3    H119137   1.957   0.540   3.507  4.7255 -0.3721 -1.6303
 6377TIP3    H219138   1.936   0.391   3.514 -1.1895  0.2692 -0.2643
 6378TIP3   OH219139   5.147   5.636   4.109 -0.6338 -0.6471 -0.1151
 6378TIP3    H119140   5.121   5.728   4.110  1.8258  0.1615 -1.1914
 6378TIP3    H219141   5.067   5.587   4.128 -2.2776  1.6548 -0.7821
 6379TIP3   OH219142   2.413   5.004   2.023 -0.2330  0.0291 -0.0335
 6379TIP3    H119143   2.334   5.056   2.032  0.8560  1.3755  2.7550
 6379TIP3    H219144   2.469   5.055   1.964 -0.6877 -0.0340 -0.5340
 6380TIP3   OH219145   1.666   0.449   4.333  0.1892 -0.3384  0.1970
 6380TIP3    H119146   1.587   0.499   4.313  0.6216  0.0522 -0.6241
 6380TIP3    H219147   1.720   0.509   4.385  0.3945 -0.2144 -0.1564
 6381TIP3   OH219148   0.144   0.929   1.320 -0.1450  0.1381  0.3407
 6381TIP3    H119149   0.232   0.942   1.355  0.7636  0.4806 -1.9184
 6381TIP3    H219150   0.141   0.837   1.295  1.5837  1.0423 -4.2843
 6382TIP3   OH219151   1.491   5.884   1.476  0.0305 -0.6264 -0.5969
 6382TIP3    H119152   1.562   5.822   1.465  0.4202  0.0195 -1.9215
 6382TIP3    H219153   1.444   5.882   1.392 -0.6061  0.0567 -0.2674
 6383TIP3   OH219154   1.364   3.260   3.978  0.0230  0.2770 -0.0353
 6383TIP3    H119155   1.455   3.231   3.987  0.5606  1.6673 -0.7062
 6383TIP3    H219156   1.318   3.182   3.946  1.0005 -0.3969  0.1295
 6384TIP3   OH219157   4.729   1.189   0.614  0.3836 -0.5562  0.4317
 6384TIP3    H119158   4.718   1.094   0.608 -1.2574 -0.4766  1.5165
 6384TIP3    H219159   4.640   1.223   0.623  0.9081  1.1371 -0.3331
 6385TIP3   OH219160   1.321   0.444   0.686 -0.4540 -0.0892 -0.0418
 6385TIP3    H119161   1.395   0.387   0.704 -0.4276  0.0291  0.2339
 6385TIP3    H219162   1.356   0.533   0.694 -0.8062 -0.0245  0.8906
 6386TIP3   OH219163   1.756   4.550   0.129  0.3323 -0.8186  0.2945
 6386TIP3    H119164   1.820   4.611   0.093  0.5696 -0.6771  0.9361
 6386TIP3    H219165   1.800   4.511   0.205 -0.3270 -0.7288  0.7353
 6387TIP3   OH219166   3.790   0.878   3.226 -0.1141 -0.3000  0.2172
 6387TIP3    H119167   3.734   0.874   3.148  1.6382 -0.9339 -1.0834
 6387TIP3    H219168   3.809   0.786   3.246 -1.1932 -0.2019  1.9600
 6388TIP3   OH219169   0.691   2.595   2.094 -0.2286 -0.2831  0.6185
 6388TIP3    H119170   0.641   2.522   2.055 -2.4980  2.3128 -1.7745
 6388TIP3    H219171   0.653   2.606   2.181  0.3809 -2.0897  1.1562
 6389TIP3   OH219172   3.685   0.647   3.503  0.1472  0.1059 -0.1679
 6389TIP3    H119173   3.710   0.631   3.412 -3.5052 -0.3180 -1.2338
 6389TIP3    H219174   3.763   0.686   3.543  2.1248 -0.4046 -3.2326
 6390TIP3   OH219175   1.401   4.588   0.855 -0.2014 -0.5008 -0.3807
 6390TIP3    H119176   1.433   4.514   0.804 -0.9387 -1.6661  0.7802
 6390TIP3    H219177   1.431   4.571   0.944  0.3524  1.0677 -0.2247
 6391TIP3   OH219178   1.843   4.231   3.091  0.1120 -0.0203  0.3189
 6391TIP3    H119179   1.834   4.288   3.015 -0.5863  1.1875  1.2614
 6391TIP3    H219180   1.851   4.292   3.165  0.6410 -1.1565  1.2182
 6392TIP3   OH219181   5.787   4.665   1.213 -0.4945  0.2304  0.3920
 6392TIP3    H119182   5.822   4.696   1.297  0.3148 -0.6544  0.3918
 6392TIP3    H219183   5.704   4.712   1.203 -0.5366  0.4461  1.6237
 6393TIP3   OH219184   2.036   2.179   1.677  0.4682 -0.2712 -0.0811
 6393TIP3    H119185   2.037   2.170   1.773  1.4469 -0.1525 -0.0685
 6393TIP3    H219186   1.989   2.102   1.646  0.3880 -0.4527  0.4861
 6394TIP3   OH219187   5.259   0.398   3.466 -0.0396  0.3392 -0.4663
 6394TIP3    H119188   5.267   0.444   3.550  0.0301 -1.2313  0.4198
 6394TIP3    H219189   5.184   0.440   3.424  0.9223  2.2654 -0.3834
 6395TIP3   OH219190   3.518   0.840   4.069  0.2607 -0.1193  0.3913
 6395TIP3    H119191   3.537   0.931   4.092  1.7876 -0.6563  1.3722
 6395TIP3    H219192   3.476   0.846   3.983  1.2601  1.4622 -0.0380
 6396TIP3   OH219193   3.326   5.250   2.967 -0.0976 -0.5710 -0.4948
 6396TIP3    H119194   3.281   5.247   3.052  1.4244 -0.7955  0.3462
 6396TIP3    H219195   3.351   5.342   2.957 -0.1449 -0.5739 -0.6461
 6397TIP3   OH219196   5.336   2.018   2.432 -0.9559 -0.0174 -0.3194
 6397TIP3    H119197   5.336   2.077   2.508 -1.3922 -0.1366 -0.2250
 6397TIP3    H219198   5.358   1.933   2.469  0.0056  0.1382 -0.5042
 6398TIP3   OH219199   4.496   4.654   2.085  0.3189  0.4390  0.6943
 6398TIP3    H119200   4.435   4.687   2.151 -1.2165 -0.5209 -0.1716
 6398TIP3    H219201   4.566   4.612   2.135 -0.0978  0.9251  1.7061
 6399TIP3   OH219202   1.081   0.409   0.212 -0.1469 -0.3103  0.5835
 6399TIP3    H119203   1.143   0.436   0.279 -0.5835 -0.3876  1.0235
 6399TIP3    H219204   0.996   0.432   0.247 -0.2645  1.8810 -0.9942
 6400TIP3   OH219205   4.352   4.990   2.093 -0.1656  0.6872 -0.7302
 6400TIP3    H119206   4.447   4.990   2.079  0.2069  1.2822  1.4653
 6400TIP3    H219207   4.339   4.938   2.172 -1.7140  0.3658 -1.1672
 6401TIP3   OH219208   0.902   0.869   2.016  0.1336 -0.3653 -0.1366
 6401TIP3    H119209   0.918   0.820   2.096  0.6287  1.7781  1.1566
 6401TIP3    H219210   0.869   0.954   2.045 -0.5098  0.1939 -2.2515
 6402TIP3   OH219211   5.939   5.592   0.057 -0.0992  0.0468 -0.2815
 6402TIP3    H119212   5.985   5.658   0.108 -0.8322  0.3342  0.0167
 6402TIP3    H219213   5.877   5.642   0.003 -0.6633 -0.3937 -0.0496
 6403TIP3   OH219214   5.041   3.290   5.142 -0.1180  0.6988 -0.5157
 6403TIP3    H119215   4.996   3.372   5.166  0.1766  0.9677 -0.8616
 6403TIP3    H219216   5.023   3.231   5.215 -1.3206  0.6831 -0.8040
 6404TIP3   OH219217   5.994   1.128   0.578 -0.2713  0.1304 -0.0952
 6404TIP3    H119218   5.998   1.033   0.590 -0.5468 -0.0971 -1.6754
 6404TIP3    H219219   5.901   1.149   0.591 -0.2239  0.1828  0.1713
 6405TIP3   OH219220   5.968   0.571   4.655  0.0382 -0.1623 -0.2779
 6405TIP3    H119221   5.974   0.653   4.606 -0.6780 -0.1272 -0.3182
 6405TIP3    H219222   6.011   0.590   4.739  1.7801 -0.3933 -1.0824
 6406TIP3   OH219223   4.812   1.693   3.262  0.2253  0.5904 -0.1891
 6406TIP3    H119224   4.744   1.626   3.256 -0.2068  0.7343  2.1758
 6406TIP3    H219225   4.803   1.729   3.351  3.0834  0.9396  0.0653
 6407TIP3   OH219226   2.215   0.002   2.315  0.2319 -0.1009  0.4389
 6407TIP3    H119227   2.219   0.063   2.389 -0.6778 -0.4943  0.8338
 6407TIP3    H219228   2.128  -0.036   2.321  0.5678 -0.9921 -0.1629
 6408TIP3   OH219229   4.938   5.322   1.541  0.0531 -0.2601  0.1284
 6408TIP3    H119230   4.981   5.309   1.456 -2.1378 -2.8986 -0.7016
 6408TIP3    H219231   4.861   5.374   1.521  0.2113  0.2244  0.7543
 6409TIP3   OH219232   3.421   5.972   0.981 -0.3421  0.6484  0.1975
 6409TIP3    H119233   3.393   5.890   0.941 -1.0160  0.6602  0.6188
 6409TIP3    H219234   3.441   6.029   0.907 -1.5879  0.6771 -0.1417
 6410TIP3   OH219235   0.016   2.338   3.666 -0.0226 -0.1154  0.2758
 6410TIP3    H119236   0.046   2.426   3.688 -0.1536  0.3955 -1.4683
 6410TIP3    H219237   0.086   2.303   3.610 -0.1325 -1.0067  0.6778
 6411TIP3   OH219238   5.750   4.863   3.636  0.2895 -0.1857 -0.1731
 6411TIP3    H119239   5.843   4.880   3.656 -0.0745 -0.7991  2.4069
 6411TIP3    H219240   5.719   4.946   3.600  1.6413  0.3188 -0.2663
 6412TIP3   OH219241   1.838   3.918   2.190 -0.3292 -0.0420 -0.0851
 6412TIP3    H119242   1.871   3.856   2.124  0.7535 -0.0781  0.4700
 6412TIP3    H219243   1.915   3.942   2.241 -0.9733  0.7807  0.5242
 6413TIP3   OH219244   1.797   2.003   1.467 -0.5846  0.4126  0.9569
 6413TIP3    H119245   1.734   1.931   1.473  0.5292 -0.7377 -0.2938
 6413TIP3    H219246   1.775   2.047   1.384  0.4775 -0.2714  0.2859
 6414TIP3   OH219247   2.153   0.600   3.334  0.2208 -0.4367 -0.7185
 6414TIP3    H119248   2.171   0.685   3.293 -0.7372 -0.6942 -1.7443
 6414TIP3    H219249   2.120   0.546   3.262 -2.3015 -0.6794  0.5233
 6415TIP3   OH219250   4.899   2.961   2.122  0.4101  0.0853  0.9157
 6415TIP3    H119251   4.860   3.015   2.190 -0.7264  0.0488  0.3225
 6415TIP3    H219252   4.954   3.020   2.072 -2.0454  1.1691 -0.7178
 6416TIP3   OH219253   0.739   0.236   4.635 -0.2221 -0.1049 -0.0258
 6416TIP3    H119254   0.761   0.328   4.653  0.8457 -0.4028  0.2604
 6416TIP3    H219255   0.651   0.225   4.673 -0.5537  0.9082 -0.4549
 6417TIP3   OH219256   4.506   2.510   0.949  0.3580 -0.4623 -0.2370
 6417TIP3    H119257   4.544   2.435   0.995 -0.8980 -0.6637  0.5124
 6417TIP3    H219258   4.438   2.471   0.894 -1.0168  0.2003  0.9289
 6418TIP3   OH219259   4.657   2.370   0.479 -1.1400  0.1721 -0.3783
 6418TIP3    H119260   4.696   2.326   0.554 -1.8938  0.3747  0.1479
 6418TIP3    H219261   4.682   2.317   0.404 -3.3205 -2.1109  0.3773
 6419TIP3   OH219262   1.295   1.277   4.185  0.2886  0.5489  0.4895
 6419TIP3    H119263   1.269   1.214   4.252  1.9045 -0.7155  0.0062
 6419TIP3    H219264   1.257   1.243   4.104  2.1101 -0.5584  0.0199
 6420TIP3   OH219265   1.805   5.657   4.140 -0.3029 -0.1810  0.2780
 6420TIP3    H119266   1.861   5.635   4.066 -0.6168  0.2425 -0.0885
 6420TIP3    H219267   1.846   5.733   4.180 -0.3791 -0.1388  0.2760
 6421TIP3   OH219268   5.775   4.841   2.342  0.0947  0.0469 -0.1973
 6421TIP3    H119269   5.685   4.871   2.335  0.4385  1.1092 -0.1695
 6421TIP3    H219270   5.797   4.812   2.253 -0.0815  0.3285 -0.3322
 6422TIP3   OH219271   4.606   3.786   2.946 -0.5965  0.2858 -0.1726
 6422TIP3    H119272   4.636   3.738   3.023 -2.2829 -0.5044  0.0417
 6422TIP3    H219273   4.521   3.821   2.971 -1.3203 -0.2460 -1.7731
 6423TIP3   OH219274   5.905   3.523   1.300 -0.1012  0.0991  0.4566
 6423TIP3    H119275   5.912   3.499   1.392 -2.0234  0.7414  0.8325
 6423TIP3    H219276   5.995   3.541   1.272  0.3668  1.6188  2.7062
 6424TIP3   OH219277   6.140   0.353   3.000  0.3468 -0.0911  0.0376
 6424TIP3    H119278   6.065   0.412   3.012  0.2843 -0.0769 -0.4055
 6424TIP3    H219279   6.192   0.394   2.931  0.6578 -0.2061  0.2035
 6425TIP3   OH219280   5.785   5.965   2.612 -0.4556 -0.2999  0.1602
 6425TIP3    H119281   5.736   6.007   2.541 -1.2634 -0.8227  0.3864
 6425TIP3    H219282   5.773   5.871   2.596  1.4101 -0.4701 -0.4041
 6426TIP3   OH219283   3.791   3.628   0.635  0.7986 -0.1429  0.7766
 6426TIP3    H119284   3.701   3.623   0.667  0.6558  0.4209  0.4755
 6426TIP3    H219285   3.833   3.691   0.693  1.0648 -0.5689  1.0548
 6427TIP3   OH219286   1.021   4.740   2.686  0.6980 -0.0746 -0.3427
 6427TIP3    H119287   0.928   4.727   2.705 -0.2781  2.2007 -2.9842
 6427TIP3    H219288   1.064   4.725   2.770 -2.2903  1.1014  1.5799
 6428TIP3   OH219289   2.810   2.770   0.445 -0.1353  0.5618 -0.2979
 6428TIP3    H119290   2.886   2.753   0.500  2.6301  2.4000 -3.2220
 6428TIP3    H219291   2.831   2.728   0.361 -1.9806  1.7952 -1.4666
 6429TIP3   OH219292   0.328   1.697   4.685  0.5093 -0.1575 -0.0877
 6429TIP3    H119293   0.417   1.733   4.689  0.0149  1.1401 -0.0581
 6429TIP3    H219294   0.285   1.733   4.763  0.3632 -1.9657  0.6966
 6430TIP3   OH219295   1.552   5.809   2.733 -0.1293  0.0568  0.3563
 6430TIP3    H119296   1.575   5.726   2.690 -0.7740  0.7754 -1.4459
 6430TIP3    H219297   1.471   5.836   2.691 -0.8345  0.7933  2.1065
 6431TIP3   OH219298   2.132   1.209   0.215  0.1956 -0.7412  0.2030
 6431TIP3    H119299   2.097   1.143   0.274  1.0215 -0.2868  1.2361
 6431TIP3    H219300   2.227   1.203   0.225  0.5475 -2.1803 -2.7765
 6432TIP3   OH219301   3.328   0.341   2.298 -0.1535  0.5075 -0.2748
 6432TIP3    H119302   3.305   0.259   2.342 -1.8068  0.5166 -1.0643
 6432TIP3    H219303   3.382   0.314   2.223  0.3952  0.2727  0.1923
 6433TIP3   OH219304   4.884   2.954   4.178 -0.3030  0.2716  0.5982
 6433TIP3    H119305   4.863   2.893   4.249 -0.8540  0.9659  1.0505
 6433TIP3    H219306   4.979   2.959   4.179 -0.3153  0.5062  1.5045
 6434TIP3   OH219307   4.331   3.051   4.589  0.4220  0.2718  0.3212
 6434TIP3    H119308   4.324   3.130   4.643  1.1675  0.4562  0.1749
 6434TIP3    H219309   4.419   3.057   4.551 -0.2646  0.4489 -1.3565
 6435TIP3   OH219310   6.041   0.557   1.416 -0.3628  0.6556 -0.0962
 6435TIP3    H119311   6.135   0.536   1.422 -0.5581 -0.3195 -0.2608
 6435TIP3    H219312   6.027   0.573   1.323 -0.4843  0.1692 -0.1631
 6436TIP3   OH219313   2.117   3.040   4.889  0.3194  0.1796  0.2055
 6436TIP3    H119314   2.180   3.024   4.818  0.0434  0.9374 -0.2170
 6436TIP3    H219315   2.036   3.063   4.844  0.4191  1.7318  0.7479
 6437TIP3   OH219316   3.110   0.989   3.959 -0.7222 -0.6861  0.2026
 6437TIP3    H119317   3.125   1.069   3.910 -0.0908 -0.5475  0.6023
 6437TIP3    H219318   3.020   0.996   3.991 -1.3634 -1.0548 -1.4142
 6438TIP3   OH219319   0.981   3.724   1.324 -0.0910  0.5604  0.1042
 6438TIP3    H119320   0.925   3.789   1.365 -0.8514  0.3514 -0.5887
 6438TIP3    H219321   1.016   3.673   1.397 -2.2448 -0.4863  0.4803
 6439TIP3   OH219322   3.459   2.530   5.100 -0.1831  0.0085 -0.2302
 6439TIP3    H119323   3.522   2.598   5.076 -0.7752  0.5620 -0.2474
 6439TIP3    H219324   3.496   2.491   5.179 -0.3553  1.0794  0.4053
 6440TIP3   OH219325   4.260   3.031   1.204 -0.1001 -0.0883 -0.1028
 6440TIP3    H119326   4.220   2.971   1.140 -0.1930  0.1453 -0.2642
 6440TIP3    H219327   4.223   3.003   1.288 -0.2976 -0.1316 -0.2018
 6441TIP3   OH219328   2.856   1.112   4.461  0.4266  0.2774 -0.1199
 6441TIP3    H119329   2.779   1.136   4.410 -1.0953 -0.9084  1.4657
 6441TIP3    H219330   2.822   1.095   4.549  2.7099  0.9452  0.9811
 6442TIP3   OH219331   0.970   5.988   2.635 -0.2600 -0.1619 -0.1051
 6442TIP3    H119332   1.005   5.903   2.610 -1.7252 -0.7636 -0.2075
 6442TIP3    H219333   1.007   6.005   2.721  2.4632  0.5503 -1.3157
 6443TIP3   OH219334   2.183   2.911   3.457 -0.6652 -0.2611  0.2272
 6443TIP3    H119335   2.242   2.872   3.393 -1.1747  1.0644 -1.1045
 6443TIP3    H219336   2.132   2.975   3.408 -2.4089 -0.5153  1.5845
 6444TIP3   OH219337   0.391   1.907   0.503  0.3674 -0.4362  0.1554
 6444TIP3    H119338   0.395   1.983   0.562  0.2737 -0.4835  0.2227
 6444TIP3    H219339   0.483   1.885   0.486  0.4602 -1.9190  2.2043
 6445TIP3   OH219340   1.113   0.689   3.396  0.3256  0.1727  0.0986
 6445TIP3    H119341   1.037   0.702   3.339 -0.0257 -0.9313  0.2761
 6445TIP3    H219342   1.079   0.702   3.485  0.2229 -0.7563  0.2060
 6446TIP3   OH219343   2.910   4.543   3.083  0.2979  0.2990  0.2736
 6446TIP3    H119344   2.978   4.477   3.100  0.5834  0.3887 -0.4833
 6446TIP3    H219345   2.956   4.627   3.088 -0.2551  0.5344  2.2117
 6447TIP3   OH219346   1.637   5.906   3.346  0.0106  0.5073 -0.0268
 6447TIP3    H119347   1.571   5.900   3.415 -0.0292  0.6493 -0.0533
 6447TIP3    H219348   1.631   5.821   3.301  0.0385  0.4127  0.1447
 6448TIP3   OH219349   4.446   5.588   4.964 -0.1046  0.1165 -0.1338
 6448TIP3    H119350   4.528   5.625   4.930  0.2222 -0.1322  0.3572
 6448TIP3    H219351   4.378   5.625   4.909  0.4498 -0.8140 -1.5016
 6449TIP3   OH219352   3.518   2.369   1.742  0.0164  0.1611  0.2776
 6449TIP3    H119353   3.570   2.420   1.804  1.9935 -1.0698 -0.2491
 6449TIP3    H219354   3.522   2.420   1.661 -0.0406  0.3254  0.3779
 6450TIP3   OH219355   2.932   4.760   3.676  0.1905 -0.3938  0.3322
 6450TIP3    H119356   2.948   4.686   3.617 -0.4270  0.0528 -0.4009
 6450TIP3    H219357   2.874   4.724   3.743  0.1724 -0.6643  0.1754
 6451TIP3   OH219358   0.494   4.181   4.801  0.3920  0.1480  0.5309
 6451TIP3    H119359   0.507   4.089   4.824  0.0594 -0.3433 -1.1506
 6451TIP3    H219360   0.542   4.194   4.720 -2.3560  0.4982 -1.1916
 6452TIP3   OH219361   1.961   1.001   1.342 -0.5046 -0.0967 -0.1194
 6452TIP3    H119362   1.954   0.907   1.359  0.8264 -0.2926 -0.5409
 6452TIP3    H219363   1.960   1.008   1.247 -1.1133  0.3693 -0.0813
 6453TIP3   OH219364   5.845   4.825   0.915  0.1621 -0.0434  0.4077
 6453TIP3    H119365   5.796   4.783   0.845  2.4229  1.8322 -2.5549
 6453TIP3    H219366   5.919   4.767   0.932  0.9690  0.6365 -0.6391
 6454TIP3   OH219367   5.750   3.889   1.527 -0.0786  0.2645  0.4475
 6454TIP3    H119368   5.696   3.938   1.589  1.6962  0.9242  1.5664
 6454TIP3    H219369   5.773   3.809   1.575  0.4232  0.2832  0.2450
 6455TIP3   OH219370   3.469   4.071   3.321 -0.2610  0.4864  0.3407
 6455TIP3    H119371   3.518   4.057   3.241  0.6332  2.0877  0.5739
 6455TIP3    H219372   3.446   4.164   3.320 -1.9219  0.1273  1.0123
 6456TIP3   OH219373   2.652   1.063   0.161 -0.0782  0.5368 -0.1985
 6456TIP3    H119374   2.676   0.977   0.125 -1.1776  0.9856 -2.1732
 6456TIP3    H219375   2.703   1.125   0.109 -1.4265  1.2017 -0.7614
 6457TIP3   OH219376   5.710   5.279   2.715 -0.4015 -0.1138 -0.0670
 6457TIP3    H119377   5.675   5.311   2.797 -2.7000  1.0795 -1.4120
 6457TIP3    H219378   5.693   5.185   2.716  0.1699 -0.2163  1.0541
 6458TIP3   OH219379   6.148   2.542   3.566 -1.0025  0.8759 -0.4020
 6458TIP3    H119380   6.055   2.537   3.543 -1.5037  1.1215  1.3891
 6458TIP3    H219381   6.194   2.503   3.491 -2.6135 -0.1423 -0.9076
 6459TIP3   OH219382   0.184   4.817   3.831  0.5136 -0.0766  0.5993
 6459TIP3    H119383   0.250   4.759   3.793 -0.6523 -0.1577 -1.4512
 6459TIP3    H219384   0.233   4.876   3.887  1.9818 -1.7770  1.1995
 6460TIP3   OH219385   1.558   1.679   1.947 -0.7029 -0.2404  0.1378
 6460TIP3    H119386   1.504   1.727   1.883  1.9478  0.0430 -2.0930
 6460TIP3    H219387   1.530   1.588   1.938  0.6096 -0.4660 -2.6878
 6461TIP3   OH219388   1.066   1.043   0.137  0.2350  0.5776  0.3805
 6461TIP3    H119389   1.113   0.970   0.096  0.8543  0.4079  1.3756
 6461TIP3    H219390   1.023   1.087   0.064 -0.3262 -0.9020 -0.2280
 6462TIP3   OH219391   4.828   0.262   1.652 -0.0776 -0.3013 -0.1665
 6462TIP3    H119392   4.879   0.340   1.632  0.6607 -0.7494 -0.0521
 6462TIP3    H219393   4.814   0.266   1.746  0.6650 -0.7297 -0.0368
 6463TIP3   OH219394   3.183   2.627   3.441 -0.8118 -0.1084 -0.6014
 6463TIP3    H119395   3.094   2.655   3.462 -1.1073 -0.5096 -1.2819
 6463TIP3    H219396   3.228   2.707   3.414 -0.7993  0.1880  0.2602
 6464TIP3   OH219397   2.162   2.216   4.716  0.0271 -0.2175 -0.3615
 6464TIP3    H119398   2.246   2.174   4.731  1.4328  2.3565 -0.3399
 6464TIP3    H219399   2.122   2.168   4.643  0.9068 -2.2700  0.4660
 6465TIP3   OH219400   4.139   2.622   0.906  0.1268 -0.1465  0.2053
 6465TIP3    H119401   4.091   2.562   0.963 -0.9539 -0.6779 -1.1936
 6465TIP3    H219402   4.200   2.566   0.858 -1.9043 -0.4868 -2.1876
 6466TIP3   OH219403   5.167   2.630   4.749 -0.5236  0.2083  0.5724
 6466TIP3    H119404   5.168   2.701   4.685  0.4248  0.2655  0.6377
 6466TIP3    H219405   5.232   2.567   4.716 -1.7182 -0.8925  0.2351
 6467TIP3   OH219406   1.002   3.305   4.549  0.2427  0.5161  0.3737
 6467TIP3    H119407   0.943   3.316   4.474  2.2639  2.1583 -1.1116
 6467TIP3    H219408   1.070   3.246   4.517 -0.0963 -0.6688  1.7596
 6468TIP3   OH219409   5.042   1.219   0.058 -0.1486  0.2871 -0.8712
 6468TIP3    H119410   5.017   1.286   0.122 -0.0117  1.4075 -1.9383
 6468TIP3    H219411   5.059   1.141   0.110 -1.2709  0.7951  0.3400
 6469TIP3   OH219412   4.151   5.003   3.555 -0.3999 -0.1484 -0.6140
 6469TIP3    H119413   4.094   4.951   3.498  0.5430 -1.6594 -0.2506
 6469TIP3    H219414   4.105   5.086   3.567 -0.8899  0.0185 -3.1036
 6470TIP3   OH219415   2.366   4.132   1.623  0.0677  0.1161  0.1207
 6470TIP3    H119416   2.410   4.057   1.584  0.0664 -0.7765  1.7381
 6470TIP3    H219417   2.276   4.125   1.593  0.6697  1.1775 -2.1022
 6471TIP3   OH219418   4.002   2.080   4.412  0.4069  0.0610 -0.0558
 6471TIP3    H119419   4.052   2.034   4.345  0.0304 -2.4090  1.2484
 6471TIP3    H219420   3.915   2.040   4.409 -0.2705  1.4410  0.4460
 6472TIP3   OH219421   2.750   5.614   0.528 -0.1467 -0.3348 -0.1546
 6472TIP3    H119422   2.786   5.659   0.604 -0.2314  1.0228 -0.8876
 6472TIP3    H219423   2.786   5.526   0.533  0.3421 -0.0845  1.1081
 6473TIP3   OH219424   1.023   0.762   1.316 -0.1531  0.1539  0.2396
 6473TIP3    H119425   1.007   0.697   1.384 -0.1204 -0.6964 -0.5391
 6473TIP3    H219426   0.982   0.724   1.238  1.9965 -0.0983 -0.8219
 6474TIP3   OH219427   3.728   3.006   5.138 -0.4130 -0.7553  0.5460
 6474TIP3    H119428   3.665   3.000   5.210  1.4166  2.0144  2.6197
 6474TIP3    H219429   3.810   3.033   5.180  1.7285 -2.3582 -2.2233
 6475TIP3   OH219430   3.672   1.158   5.140  0.2471 -0.1095  0.3418
 6475TIP3    H119431   3.644   1.211   5.065  1.1394 -2.5368 -1.8731
 6475TIP3    H219432   3.601   1.095   5.153  1.3252 -1.5483 -0.4390
 6476TIP3   OH219433   5.672   0.974   1.328 -0.4606  0.2858 -0.4239
 6476TIP3    H119434   5.640   0.921   1.401  2.6114 -0.7523  0.2975
 6476TIP3    H219435   5.765   0.954   1.322  0.0964  2.8898 -2.5180
 6477TIP3   OH219436   0.077   1.144   4.585 -0.4810  0.3710 -0.0881
 6477TIP3    H119437   0.024   1.141   4.665 -0.9852  0.5175 -0.4114
 6477TIP3    H219438   0.014   1.162   4.515 -0.8304 -4.1301 -1.2367
 6478TIP3   OH219439   4.085   5.185   3.256 -0.1496  0.3807 -0.3782
 6478TIP3    H119440   4.039   5.259   3.216 -0.4818 -0.3222 -1.3616
 6478TIP3    H219441   4.130   5.222   3.331 -2.1813  1.1497  0.5282
 6479TIP3   OH219442   1.322   5.958   3.220 -0.1257 -0.1005  0.1431
 6479TIP3    H119443   1.249   5.897   3.208  0.5531 -0.9576  0.2348
 6479TIP3    H219444   1.378   5.944   3.143 -0.5529  1.2958 -0.4610
 6480TIP3   OH219445   5.334   4.305   4.066  0.0387 -0.4059 -0.3500
 6480TIP3    H119446   5.330   4.341   4.154 -0.5982  1.4994 -1.1218
 6480TIP3    H219447   5.417   4.338   4.030 -0.2342 -0.2420 -0.8424
 6481TIP3   OH219448   4.190   3.368   3.129  0.1072  0.4157  0.0695
 6481TIP3    H119449   4.273   3.363   3.081 -0.3007 -0.0524 -0.6151
 6481TIP3    H219450   4.152   3.451   3.102  0.5071  0.8017  0.6624
 6482TIP3   OH219451   4.463   2.545   3.706  0.1945  0.3366 -0.2467
 6482TIP3    H119452   4.380   2.566   3.749 -0.7786 -1.3004 -1.2467
 6482TIP3    H219453   4.516   2.503   3.774 -0.9744 -1.3817 -0.3527
 6483TIP3   OH219454   2.184   2.853   1.205 -0.4133 -0.7229 -0.4630
 6483TIP3    H119455   2.199   2.786   1.139 -1.6573 -0.2119 -1.2920
 6483TIP3    H219456   2.154   2.805   1.282  0.9885 -1.3173 -0.2486
 6484TIP3   OH219457   4.948   5.725   3.534 -0.3306  0.1759  0.0656
 6484TIP3    H119458   5.022   5.677   3.498 -2.4106 -2.4240 -1.1281
 6484TIP3    H219459   4.929   5.793   3.470 -1.3130 -1.6656 -1.7211
 6485TIP3   OH219460   4.763   3.018   3.678  0.2217  0.0650  0.1560
 6485TIP3    H119461   4.740   3.057   3.594  1.7167  0.8523  0.0707
 6485TIP3    H219462   4.748   2.924   3.667  1.3702  0.0282 -1.3460
 6486TIP3   OH219463   4.612   0.645   2.773  0.3406 -0.1476  0.2600
 6486TIP3    H119464   4.692   0.698   2.769 -0.3638  1.1810  2.1270
 6486TIP3    H219465   4.617   0.600   2.857 -0.8937  0.0213  0.4444
 6487TIP3   OH219466   3.789   1.786   4.758 -0.2164  0.4933 -0.4214
 6487TIP3    H119467   3.741   1.802   4.838 -0.0400  1.5452 -0.5180
 6487TIP3    H219468   3.730   1.815   4.688 -0.5406 -0.8061 -0.7130
 6488TIP3   OH219469   5.672   1.003   2.143 -0.1327  0.2588  0.0295
 6488TIP3    H119470   5.687   1.089   2.105 -1.5459  0.4537 -0.1171
 6488TIP3    H219471   5.632   0.952   2.073  1.6749 -0.8842 -0.2410
 6489TIP3   OH219472   3.379   5.049   0.153  0.7383  0.5580  0.1716
 6489TIP3    H119473   3.409   5.054   0.244  2.8261  1.8348 -0.5121
 6489TIP3    H219474   3.440   5.105   0.105 -2.0657  2.3336 -1.6104
 6490TIP3   OH219475   4.561   1.723   4.605 -0.5175 -0.2322  0.0914
 6490TIP3    H119476   4.651   1.731   4.573 -0.5699 -1.4575 -0.4097
 6490TIP3    H219477   4.528   1.643   4.564 -2.2017  0.7732 -0.5747
 6491TIP3   OH219478   2.289   5.412   2.024 -0.1595 -0.5661  0.4748
 6491TIP3    H119479   2.334   5.430   2.107  0.3621 -0.1806  0.1200
 6491TIP3    H219480   2.295   5.494   1.976 -3.2230  0.2479  1.2769
 6492TIP3   OH219481   1.194   3.281   1.395 -0.0990 -0.3538  0.3492
 6492TIP3    H119482   1.156   3.314   1.477  0.1436 -0.0788  0.3542
 6492TIP3    H219483   1.289   3.287   1.408 -0.0593  0.1524 -0.1280
 6493TIP3   OH219484   5.989   4.653   4.410 -0.1353  0.1330  0.6965
 6493TIP3    H119485   6.016   4.569   4.375 -0.1869  0.2858  0.2831
 6493TIP3    H219486   5.894   4.645   4.423 -0.2437  0.3306  0.0707
 6494TIP3   OH219487   0.547   2.996   2.370  0.7050  0.0115  0.2048
 6494TIP3    H119488   0.504   3.035   2.446  2.3635 -0.6829  1.5455
 6494TIP3    H219489   0.483   2.932   2.337  0.1771 -0.0807  1.3467
 6495TIP3   OH219490   3.987   2.987   0.480  0.1280  0.1750 -0.0245
 6495TIP3    H119491   3.928   3.009   0.408  1.7551  1.9978 -0.8983
 6495TIP3    H219492   3.934   2.999   0.559 -2.0157 -2.8795 -0.8017
 6496TIP3   OH219493   0.916   1.907   2.638 -0.3701  0.6050 -0.8749
 6496TIP3    H119494   0.905   1.859   2.556  0.2534  1.3260 -1.3920
 6496TIP3    H219495   1.007   1.934   2.639 -0.6004  1.4126 -0.3884
 6497TIP3   OH219496   4.048   4.724   4.112 -0.1839  0.3029 -0.4893
 6497TIP3    H119497   4.041   4.818   4.128  1.3872  0.5794 -1.2312
 6497TIP3    H219498   4.061   4.686   4.200 -0.9159  0.7553 -0.1797
 6498TIP3   OH219499   1.893   2.062   4.546 -0.3435 -0.0662 -0.1802
 6498TIP3    H119500   1.980   2.061   4.507 -0.1786  1.1051  0.1368
 6498TIP3    H219501   1.887   1.980   4.594  0.3650 -0.4115 -0.6663
 6499TIP3   OH219502   2.950   5.042   3.305 -0.6029  0.2205 -0.3367
 6499TIP3    H119503   2.892   4.970   3.332  0.0437  0.4591  1.8782
 6499TIP3    H219504   2.929   5.113   3.365 -0.0988  1.3470 -1.4588
 6500TIP3   OH219505   3.482   5.586   2.106 -1.4693  0.4024 -0.5201
 6500TIP3    H119506   3.475   5.491   2.091 -1.7798  0.4462 -0.6679
 6500TIP3    H219507   3.533   5.618   2.032 -1.9889  0.4513 -0.8637
 6501TIP3   OH219508   2.559   5.095   3.057 -0.1382  0.4884 -0.0752
 6501TIP3    H119509   2.590   5.163   2.998  0.1316  0.0607 -0.4366
 6501TIP3    H219510   2.611   5.106   3.136  0.7497 -0.0302 -0.5627
 6502TIP3   OH219511   1.878   5.805   0.593 -0.0784 -0.0782  0.3779
 6502TIP3    H119512   1.904   5.880   0.647 -1.7017  0.0510  1.0483
 6502TIP3    H219513   1.864   5.734   0.656  0.1586 -0.5701 -0.1178
 6503TIP3   OH219514   4.357   2.826   1.943 -0.5269  0.9315 -0.8810
 6503TIP3    H119515   4.453   2.825   1.942 -0.4959 -1.2981 -0.6511
 6503TIP3    H219516   4.334   2.888   2.012  0.7995 -0.0043  0.4593
 6504TIP3   OH219517   5.943   2.902   1.927  0.3029 -0.0553 -0.0937
 6504TIP3    H119518   5.856   2.900   1.885 -0.1782 -2.9525  0.8327
 6504TIP3    H219519   5.937   2.838   1.997  2.6721  1.0374  1.2062
 6505TIP3   OH219520   0.349   2.308   2.430  0.1540 -0.5540  0.5936
 6505TIP3    H119521   0.287   2.236   2.437 -1.0079  0.3922  0.2807
 6505TIP3    H219522   0.435   2.267   2.440 -0.4505 -2.0523 -0.1082
 6506TIP3   OH219523   2.090   5.530   2.239 -0.2313 -0.0652 -0.4506
 6506TIP3    H119524   2.116   5.443   2.269 -1.8960 -0.9760 -1.4365
 6506TIP3    H219525   2.171   5.579   2.233  0.7641 -1.5630  0.1250
 6507TIP3   OH219526   0.147   4.306   3.767 -0.4662  0.5731 -0.0119
 6507TIP3    H119527   0.148   4.383   3.710  2.5564  0.5313 -0.1322
 6507TIP3    H219528   0.238   4.278   3.773 -1.1941 -1.7865  1.7175
 6508TIP3   OH219529   2.419   5.489   4.211 -0.2233 -0.0268  0.0316
 6508TIP3    H119530   2.355   5.418   4.205 -0.2262  0.0481 -0.9453
 6508TIP3    H219531   2.501   5.445   4.231 -0.7041 -0.0503  2.2576
 6509TIP3   OH219532   3.417   3.047   3.150  0.3235  0.2173  0.3825
 6509TIP3    H119533   3.488   3.035   3.087  0.3508  0.2718  0.4024
 6509TIP3    H219534   3.345   2.995   3.115  0.0460  0.9471 -0.1666
 6510TIP3   OH219535   1.936   4.840   0.751 -0.2357 -0.1324  0.1517
 6510TIP3    H119536   1.993   4.813   0.678  0.5172 -0.1253  0.7222
 6510TIP3    H219537   1.907   4.928   0.728 -0.5931 -0.4085 -0.4808
 6511TIP3   OH219538   3.194   2.134   2.803 -0.3671  0.1862  0.0558
 6511TIP3    H119539   3.164   2.116   2.713 -0.7126  1.2095 -0.0502
 6511TIP3    H219540   3.280   2.092   2.808 -1.9226 -3.2717  0.5288
 6512TIP3   OH219541   4.518   3.440   4.543  0.0851  0.4913  0.2329
 6512TIP3    H119542   4.504   3.499   4.468 -1.4875  0.3956  0.4205
 6512TIP3    H219543   4.430   3.411   4.567  0.6409 -0.0852  1.6468
 6513TIP3   OH219544   5.366   0.537   4.447 -0.0034  0.3037 -0.4847
 6513TIP3    H119545   5.319   0.549   4.364 -0.5145  0.6457 -0.1472
 6513TIP3    H219546   5.459   0.544   4.423 -0.1558  0.6090 -0.9962
 6514TIP3   OH219547   4.694   5.494   2.237  0.2282  0.1395 -0.7894
 6514TIP3    H119548   4.631   5.566   2.249 -2.3730 -1.7693 -1.9117
 6514TIP3    H219549   4.676   5.434   2.309  0.6323 -0.5290 -1.2400
 6515TIP3   OH219550   5.271   0.807   5.119  0.3437 -0.5238 -0.0434
 6515TIP3    H119551   5.181   0.800   5.088  0.5040  1.3898 -1.0755
 6515TIP3    H219552   5.283   0.729   5.175 -1.6675 -1.2263 -0.4971
 6516TIP3   OH219553   1.271   0.811   0.659 -0.9256  0.5420  0.2738
 6516TIP3    H119554   1.365   0.813   0.678 -0.6210  2.5531 -1.1487
 6516TIP3    H219555   1.266   0.782   0.568 -1.5439  2.0947 -0.2146
 6517TIP3   OH219556   1.677   3.338   0.724  0.2186 -0.3784 -0.1704
 6517TIP3    H119557   1.714   3.352   0.637 -0.3836 -0.0250 -0.3779
 6517TIP3    H219558   1.658   3.426   0.757 -1.4386 -0.5731 -0.5292
 6518TIP3   OH219559   1.545   3.926   3.575  0.4857 -0.3157 -0.6682
 6518TIP3    H119560   1.628   3.945   3.618  0.1083  0.8506 -0.4255
 6518TIP3    H219561   1.570   3.903   3.485  1.0572  0.2897 -0.6713
 6519TIP3   OH219562   0.680   3.525   3.160 -0.2420 -0.1262 -0.4951
 6519TIP3    H119563   0.764   3.519   3.207  0.0457  1.2427 -0.7907
 6519TIP3    H219564   0.646   3.611   3.182 -1.7609 -0.7841 -0.1306
 6520TIP3   OH219565   2.455   4.579   2.482  0.2273  0.1614  0.2552
 6520TIP3    H119566   2.455   4.597   2.388  0.4480 -0.4481  0.1320
 6520TIP3    H219567   2.426   4.488   2.489 -1.1842  0.6356  0.8785
 6521TIP3   OH219568   5.944   1.454   1.070  0.3268  0.0765  0.2335
 6521TIP3    H119569   5.903   1.372   1.042 -0.2163  0.2437  0.5122
 6521TIP3    H219570   5.938   1.511   0.994  0.1739  0.0478  0.2233
 6522TIP3   OH219571   1.630   3.765   1.147  0.0318 -0.4117 -0.4881
 6522TIP3    H119572   1.609   3.847   1.191  1.8034  0.6144 -1.4575
 6522TIP3    H219573   1.637   3.700   1.217 -0.6912  0.4095  0.3526
 6523TIP3   OH219574   3.169   2.703   4.989  0.1536  0.0026  0.2300
 6523TIP3    H119575   3.091   2.678   4.938  0.3511 -0.7563  0.2941
 6523TIP3    H219576   3.183   2.630   5.049 -0.1607  0.9601  1.4917
 6524TIP3   OH219577   3.281   2.737   3.982  0.0100 -0.1549 -0.1733
 6524TIP3    H119578   3.351   2.794   3.949 -0.5093  1.1207  0.8244
 6524TIP3    H219579   3.292   2.738   4.077 -0.4447 -1.1848 -0.0927
 6525TIP3   OH219580   4.931   2.141   1.630  0.3826  0.3948 -0.2425
 6525TIP3    H119581   5.024   2.166   1.629  0.2280  1.1562  1.0625
 6525TIP3    H219582   4.892   2.198   1.696 -0.4322 -1.8832  1.4024
 6526TIP3   OH219583   1.295   3.282   2.299 -0.4374 -0.4523 -0.3293
 6526TIP3    H119584   1.224   3.346   2.286 -0.6003 -0.5375  0.1335
 6526TIP3    H219585   1.296   3.266   2.393  0.0063 -0.6762 -0.3711
 6527TIP3   OH219586   1.933   1.378   2.890  0.5152  0.1443  0.0486
 6527TIP3    H119587   1.891   1.377   2.804 -1.4337 -0.8096  0.9243
 6527TIP3    H219588   1.987   1.299   2.891  0.3168  0.0009 -0.2150
 6528TIP3   OH219589   2.483   2.010   3.306 -0.4217 -0.1493 -0.5896
 6528TIP3    H119590   2.459   2.096   3.342  1.0377  0.3061 -0.6465
 6528TIP3    H219591   2.501   1.956   3.383 -1.2082 -0.3912 -0.5585
 6529TIP3   OH219592   1.158   4.680   3.512  0.2646  0.8307 -0.1237
 6529TIP3    H119593   1.091   4.739   3.547  1.3689  1.3409  1.2496
 6529TIP3    H219594   1.209   4.654   3.589  1.1171 -0.2355 -1.0069
 6530TIP3   OH219595   5.233   1.448   3.967 -0.7048 -0.4594  0.7514
 6530TIP3    H119596   5.263   1.429   4.056 -0.0779 -1.3488  0.3627
 6530TIP3    H219597   5.313   1.447   3.914 -1.1006 -0.1778  0.1438
 6531TIP3   OH219598   2.605   0.148   3.169 -0.3170  0.5751 -0.0883
 6531TIP3    H119599   2.551   0.217   3.208 -0.5610  0.8158 -0.8485
 6531TIP3    H219600   2.600   0.163   3.075  0.0101 -0.2023 -0.2378
 6532TIP3   OH219601   1.654   3.775   1.754 -0.1413 -0.1959 -0.1258
 6532TIP3    H119602   1.708   3.854   1.746  0.4125 -0.5281  0.2527
 6532TIP3    H219603   1.648   3.760   1.849 -0.8139 -0.2239 -0.1684
 6533TIP3   OH219604   0.025   5.672   4.821  0.0139 -0.2851 -0.4265
 6533TIP3    H119605   0.016   5.643   4.730 -1.1908  1.9449 -1.0904
 6533TIP3    H219606   0.118   5.657   4.842  0.7010  0.5843 -2.5790
 6534TIP3   OH219607   2.130   3.435   4.260  0.1683  0.4887  0.8364
 6534TIP3    H119608   2.040   3.404   4.269  0.0179  0.2332 -1.0885
 6534TIP3    H219609   2.122   3.527   4.234  0.4956  0.7602  1.6717
 6535TIP3   OH219610   2.820   3.445   3.190 -0.2723 -0.5777  0.6030
 6535TIP3    H119611   2.882   3.511   3.158 -1.4236  0.3380  0.1604
 6535TIP3    H219612   2.834   3.369   3.133 -0.2087 -0.0398 -0.1219
 6536TIP3   OH219613   1.276   0.561   3.744  0.1560  0.2206 -0.6157
 6536TIP3    H119614   1.346   0.546   3.680 -0.4104 -1.6765 -0.8450
 6536TIP3    H219615   1.198   0.575   3.691 -0.4021 -1.8097 -0.3858
 6537TIP3   OH219616   2.414   3.102   3.277  0.2651 -0.7527  0.7269
 6537TIP3    H119617   2.383   3.023   3.234 -0.7338  0.6531 -1.2957
 6537TIP3    H219618   2.350   3.119   3.346 -0.8413 -0.4806 -0.3353
 6538TIP3   OH219619   5.630   0.820   1.957 -0.0844  0.2532 -0.1482
 6538TIP3    H119620   5.614   0.726   1.964  0.5367  0.1432 -0.1173
 6538TIP3    H219621   5.714   0.827   1.911 -0.7161  0.8244 -1.2625
 6539TIP3   OH219622   2.864   3.965   3.583  0.0471 -0.4191  0.2979
 6539TIP3    H119623   2.803   3.893   3.596  0.3015 -0.6446  0.2368
 6539TIP3    H219624   2.847   3.994   3.492 -1.7783  1.2042  1.0582
 6540TIP3   OH219625   4.544   5.099   4.035  0.0816  0.0417  0.1746
 6540TIP3    H119626   4.575   5.129   3.949  1.5873 -0.3685  0.5294
 6540TIP3    H219627   4.594   5.151   4.098 -0.8208  0.1632  0.8088
 6541TIP3   OH219628   3.388   2.969   0.538  0.1132  0.2440 -0.6934
 6541TIP3    H119629   3.327   2.935   0.473 -1.4652  0.0899  0.7800
 6541TIP3    H219630   3.472   2.928   0.517  0.0888  1.4397 -3.5620
 6542TIP3   OH219631   4.446   0.309   3.546  0.4013  0.1343 -0.6703
 6542TIP3    H119632   4.387   0.270   3.481  0.2565  0.1794 -0.5672
 6542TIP3    H219633   4.510   0.241   3.565  0.7197  0.2744 -1.1989
 6543TIP3   OH219634   2.288   4.289   0.448 -0.1059 -0.4372  0.5978
 6543TIP3    H119635   2.368   4.325   0.409 -0.8465 -0.3950 -0.9386
 6543TIP3    H219636   2.259   4.222   0.386 -0.7351 -1.1534  1.6304
 6544TIP3   OH219637   1.734   2.784   3.461  0.3642  0.2293 -0.3493
 6544TIP3    H119638   1.754   2.797   3.368 -0.2585 -0.8657 -0.6576
 6544TIP3    H219639   1.640   2.766   3.463 -0.1188  2.4783  0.7564
 6545TIP3   OH219640   3.870   3.797   0.076 -0.1513  0.4278  0.1191
 6545TIP3    H119641   3.914   3.841   0.003  1.1845  2.0062  1.7809
 6545TIP3    H219642   3.778   3.823   0.067 -0.0498  0.4323 -1.0816
 6546TIP3   OH219643   6.170   2.813   0.302 -0.1959 -0.2460 -0.5930
 6546TIP3    H119644   6.190   2.866   0.379  0.0324 -0.1851 -0.6929
 6546TIP3    H219645   6.214   2.729   0.319 -1.0188 -0.6075 -0.1810
 6547TIP3   OH219646   5.844   0.414   1.547 -0.0573  0.4326 -0.5461
 6547TIP3    H119647   5.882   0.363   1.619 -2.2498  0.0381  0.3920
 6547TIP3    H219648   5.920   0.446   1.499  1.4432 -1.3232  0.5094
 6548TIP3   OH219649   0.476   3.624   0.301  0.3678 -0.6737  0.2026
 6548TIP3    H119650   0.402   3.565   0.287 -0.1527  0.0079  0.0569
 6548TIP3    H219651   0.542   3.570   0.344  0.2822 -1.6328 -0.8363
 6549TIP3   OH219652   2.163   4.122   0.243 -0.0792  0.2467 -0.0402
 6549TIP3    H119653   2.235   4.105   0.183 -1.6078  0.3029 -2.0165
 6549TIP3    H219654   2.132   4.035   0.268 -0.4452  0.1897 -0.6598
 6550TIP3   OH219655   1.324   1.950   4.246  0.3613 -0.0562 -0.2972
 6550TIP3    H119656   1.399   1.970   4.303 -0.1291 -1.8623  1.0701
 6550TIP3    H219657   1.248   1.955   4.303 -0.2803 -0.8190 -1.0607
 6551TIP3   OH219658   6.090   2.546   4.006 -0.4323 -0.3925  0.3996
 6551TIP3    H119659   6.073   2.625   4.057 -0.2027 -0.5535  0.7295
 6551TIP3    H219660   6.114   2.480   4.071  3.5921  0.3317 -0.0850
 6552TIP3   OH219661   3.244   2.199   2.454 -0.0281 -0.0580 -0.8095
 6552TIP3    H119662   3.240   2.210   2.359  0.1330  1.6216 -0.6666
 6552TIP3    H219663   3.332   2.165   2.470 -0.5695 -1.8223 -1.3335
 6553TIP3   OH219664  -0.012   1.665   1.789  0.5819 -0.1929  0.0087
 6553TIP3    H119665   0.054   1.702   1.731  2.0371 -0.3391  1.4969
 6553TIP3    H219666   0.003   1.571   1.785  0.0038 -0.2847 -0.1494
 6554TIP3   OH219667   2.609   0.156   1.715 -0.1193  0.0796  0.4144
 6554TIP3    H119668   2.542   0.201   1.664  0.4015 -1.8975 -2.2773
 6554TIP3    H219669   2.692   0.185   1.677  0.3649 -0.1961  1.2428
 6555TIP3   OH219670   6.247   3.098   2.296 -0.9384 -0.4486  0.1823
 6555TIP3    H119671   6.228   3.179   2.248 -0.5791 -0.7629 -0.5179
 6555TIP3    H219672   6.161   3.064   2.320 -1.1702 -0.6088 -0.8137
 6556TIP3   OH219673   4.234   5.477   4.218 -0.6873 -0.4999  0.2524
 6556TIP3    H119674   4.286   5.554   4.193 -1.4156  0.3215  1.1952
 6556TIP3    H219675   4.144   5.509   4.221 -0.7377 -0.6761  3.1958
 6557TIP3   OH219676   4.436   0.139   1.799  0.3252  0.4770 -0.5427
 6557TIP3    H119677   4.434   0.233   1.780 -2.4949  0.5768 -0.1662
 6557TIP3    H219678   4.395   0.099   1.722  1.8227 -0.5286 -0.8610
 6558TIP3   OH219679   1.820   0.574   4.539 -0.0606 -0.0773 -0.4876
 6558TIP3    H119680   1.832   0.518   4.615 -0.3837 -1.5723 -1.5072
 6558TIP3    H219681   1.829   0.663   4.574 -0.8317 -0.6867  1.3973
 6559TIP3   OH219682   6.155   2.940   4.291  0.1334 -0.5686  0.3850
 6559TIP3    H119683   6.191   2.878   4.354  0.3922  0.4302  1.2506
 6559TIP3    H219684   6.224   3.004   4.278  0.2590 -0.9892 -1.2951
 6560TIP3   OH219685   0.638   1.856   0.474  0.6227 -0.2126  0.5024
 6560TIP3    H119686   0.650   1.820   0.386 -1.1810 -1.4854  0.7132
 6560TIP3    H219687   0.709   1.918   0.484  0.9579 -0.1184 -1.8137
 6561TIP3   OH219688   3.989   5.840   3.884 -0.4061  0.2546  0.8061
 6561TIP3    H119689   3.917   5.787   3.919 -0.8931  0.6723  0.4504
 6561TIP3    H219690   4.042   5.862   3.961  0.8658 -2.2873  0.7568
 6562TIP3   OH219691   6.033   4.861   3.674  0.0429 -0.3805  0.2997
 6562TIP3    H119692   6.029   4.879   3.768 -0.4069  0.1967  0.1799
 6562TIP3    H219693   6.097   4.792   3.665  0.8648  0.2804  0.9360
 6563TIP3   OH219694   2.258   4.583   4.645 -0.0501  0.3593  0.4324
 6563TIP3    H119695   2.284   4.610   4.557  0.7191 -0.1746  0.4780
 6563TIP3    H219696   2.200   4.652   4.676 -0.5987  0.3852 -0.6208
 6564TIP3   OH219697   3.871   4.913   4.354 -0.3056  0.0657  0.0813
 6564TIP3    H119698   3.851   4.986   4.412  1.5333  0.2447  0.5450
 6564TIP3    H219699   3.953   4.938   4.310 -0.8642 -0.7170 -1.4899
 6565TIP3   OH219700   4.452   0.826   4.593 -0.2147 -0.3932 -0.2329
 6565TIP3    H119701   4.445   0.755   4.529 -0.2208 -1.2142  0.6677
 6565TIP3    H219702   4.453   0.906   4.539 -0.4346 -1.0496 -1.2428
 6566TIP3   OH219703   4.060   2.950   0.143  0.1316  0.2383  0.5309
 6566TIP3    H119704   4.014   2.920   0.064  0.3642  0.9352  0.1180
 6566TIP3    H219705   4.151   2.959   0.116  0.2614  0.2177  0.9569
 6567TIP3   OH219706   2.715   4.908   2.663 -0.1298 -0.0364  0.2903
 6567TIP3    H119707   2.632   4.922   2.619  0.4227  1.2362 -0.4043
 6567TIP3    H219708   2.781   4.944   2.603  0.6119  2.4817  2.4064
 6568TIP3   OH219709   2.981   3.197   0.822  0.2197  0.5562 -0.4552
 6568TIP3    H119710   2.897   3.165   0.790 -0.4160  0.0375  1.5774
 6568TIP3    H219711   3.030   3.118   0.843  0.1316  0.8498  0.9421
 6569TIP3   OH219712   3.309   0.870   4.519 -0.5547 -0.2541 -0.3587
 6569TIP3    H119713   3.240   0.814   4.555  0.0617 -1.5852 -1.1776
 6569TIP3    H219714   3.264   0.952   4.498 -1.2525  0.0047  1.8646
 6570TIP3   OH219715   3.051   5.573   2.173  0.0983 -0.5976  0.1977
 6570TIP3    H119716   3.043   5.652   2.120  0.7064 -1.0283 -0.5572
 6570TIP3    H219717   3.048   5.501   2.110 -1.1442 -1.2203  0.9405
 6571TIP3   OH219718   4.606   1.427   1.857  0.2861  0.5618 -0.2436
 6571TIP3    H119719   4.552   1.421   1.936  1.7446  2.1742  0.9483
 6571TIP3    H219720   4.601   1.520   1.833 -0.2011  0.0817 -2.1345
 6572TIP3   OH219721   5.196   4.517   4.466 -0.0701 -0.0249 -0.2699
 6572TIP3    H119722   5.145   4.443   4.435 -0.7043 -1.3260  3.4281
 6572TIP3    H219723   5.134   4.589   4.470 -0.6455 -0.5445  0.4192
 6573TIP3   OH219724   5.635   5.973   2.384  0.4476  0.0209  0.9957
 6573TIP3    H119725   5.672   5.886   2.366  1.1223  0.4264  0.3847
 6573TIP3    H219726   5.577   5.990   2.310 -0.5312 -0.3631  1.6618
 6574TIP3   OH219727   0.130   1.934   0.663  0.4969 -0.2279 -0.1644
 6574TIP3    H119728   0.212   1.901   0.625  0.1080 -1.2392 -0.1661
 6574TIP3    H219729   0.130   1.901   0.753 -0.5630 -1.4880 -0.5901
 6575TIP3   OH219730   4.702   4.895   4.353  0.0329  0.0290 -0.5305
 6575TIP3    H119731   4.691   4.989   4.339 -0.3588  0.4886  2.2601
 6575TIP3    H219732   4.795   4.879   4.338  0.1588  0.9103 -0.7659
 6576TIP3   OH219733   2.025   5.345   2.630 -0.1548 -0.9723  0.7206
 6576TIP3    H119734   2.086   5.300   2.689  0.7541  0.7164  1.1304
 6576TIP3    H219735   1.969   5.396   2.688  0.2995  0.1659  0.1830
 6577TIP3   OH219736   4.092   0.607   3.403 -0.0972 -0.0187  0.6180
 6577TIP3    H119737   4.047   0.534   3.445 -0.3735 -0.2160 -0.0091
 6577TIP3    H219738   4.076   0.594   3.309  2.5964 -0.9954  0.2229
 6578TIP3   OH219739   4.641   2.920   1.516  0.7830  0.2453 -0.0256
 6578TIP3    H119740   4.606   2.939   1.429 -1.0055  1.2930  0.8584
 6578TIP3    H219741   4.563   2.903   1.569  1.7886  0.2976  1.5158
 6579TIP3   OH219742   3.353   0.488   4.339 -0.4246 -0.6294  0.0534
 6579TIP3    H119743   3.421   0.423   4.324  0.0378 -0.4858  1.3485
 6579TIP3    H219744   3.298   0.485   4.261 -0.4458 -2.5967  0.1062
 6580TIP3   OH219745   2.828   1.516   1.207  0.3238 -0.8113 -0.0128
 6580TIP3    H119746   2.822   1.426   1.176  1.4590 -0.6877 -0.6518
 6580TIP3    H219747   2.763   1.564   1.155  0.2966 -1.1158 -0.2636
 6581TIP3   OH219748   1.354   5.461   0.113 -0.3468 -0.2801  0.2937
 6581TIP3    H119749   1.316   5.537   0.155 -0.8592 -0.8730  0.9326
 6581TIP3    H219750   1.387   5.493   0.029 -1.5481  0.4153  0.0675
 6582TIP3   OH219751   3.671   4.619   1.296  0.6081  0.4492 -0.1050
 6582TIP3    H119752   3.698   4.704   1.263  0.5820  0.3355 -0.4246
 6582TIP3    H219753   3.753   4.575   1.320  0.5799  0.8146  0.6908
 6583TIP3   OH219754   5.134   0.801   1.092 -0.9375  0.4104  0.1879
 6583TIP3    H119755   5.050   0.757   1.079 -1.1949  1.3518 -1.6570
 6583TIP3    H219756   5.184   0.741   1.147 -2.2878 -0.8585  0.0943
 6584TIP3   OH219757   0.501   1.872   3.196 -0.3803  0.3982  0.1326
 6584TIP3    H119758   0.595   1.860   3.182 -0.2492  0.5146  0.8672
 6584TIP3    H219759   0.463   1.872   3.108  0.2847  0.1702 -0.1591
 6585TIP3   OH219760   4.909   1.179   2.531 -0.0606 -0.3172 -0.2664
 6585TIP3    H119761   4.992   1.222   2.552 -0.9031  1.6989 -0.8219
 6585TIP3    H219762   4.878   1.145   2.615 -0.1066  1.6223  0.5635
 6586TIP3   OH219763   6.221   3.290   0.078 -0.1706  0.3785 -0.2212
 6586TIP3    H119764   6.232   3.369   0.130 -1.6458  0.7563 -0.4433
 6586TIP3    H219765   6.149   3.243   0.120  0.4828 -0.7163 -0.2657
 6587TIP3   OH219766   3.351   4.182   2.134 -0.3260 -0.6630  0.8208
 6587TIP3    H119767   3.286   4.132   2.183 -1.4832 -0.2505 -0.2204
 6587TIP3    H219768   3.300   4.252   2.093  0.8762 -0.0185  0.3945
 6588TIP3   OH219769   1.094   5.907   4.850 -0.2921  0.6389  0.2778
 6588TIP3    H119770   1.067   5.920   4.759 -0.6279 -1.7816 -0.0147
 6588TIP3    H219771   1.189   5.916   4.849 -0.3476  1.2425 -0.1726
 6589TIP3   OH219772   1.694   1.250   5.105 -0.7389  0.0032  0.1431
 6589TIP3    H119773   1.601   1.269   5.095 -1.0335 -0.3386  1.8964
 6589TIP3    H219774   1.699   1.194   5.182  1.0403  1.1573  0.9520
 6590TIP3   OH219775   6.173   4.293   1.856  0.3051 -0.4852 -0.1322
 6590TIP3    H119776   6.206   4.206   1.881 -0.0549 -0.3983  0.6569
 6590TIP3    H219777   6.176   4.344   1.936 -2.0141 -0.5624  0.0670
 6591TIP3   OH219778   5.789   2.589   3.084  0.2997  0.1821 -0.0099
 6591TIP3    H119779   5.753   2.635   3.160  1.6681 -2.6670  2.5789
 6591TIP3    H219780   5.747   2.503   3.086  0.4778 -0.0285 -2.4723
 6592TIP3   OH219781   5.957   5.704   1.948  0.1411  0.1756 -0.3675
 6592TIP3    H119782   6.036   5.700   1.895  1.4020  1.7000  1.2810
 6592TIP3    H219783   5.937   5.797   1.956 -0.3230 -0.0323  1.3197
 6593TIP3   OH219784   3.818   4.456   1.067  0.0696 -0.0260  0.4551
 6593TIP3    H119785   3.740   4.487   1.019  0.3688 -1.0398 -0.7247
 6593TIP3    H219786   3.843   4.376   1.022  2.2475  0.6637  0.3418
 6594TIP3   OH219787   1.962   5.855   4.275 -0.1801 -0.2420  0.1788
 6594TIP3    H119788   1.951   5.903   4.357  0.5515 -2.7728  1.8578
 6594TIP3    H219789   2.050   5.817   4.280  0.3341  0.4017 -2.3198
 6595TIP3   OH219790   0.462   5.033   0.384  0.0361  0.4610 -0.4345
 6595TIP3    H119791   0.380   5.004   0.424  0.2902  0.7653  0.3195
 6595TIP3    H219792   0.449   5.126   0.368  0.7787  0.8577  1.1108
 6596TIP3   OH219793   2.196   5.162   2.012  0.1269  0.1442  0.1842
 6596TIP3    H119794   2.115   5.174   2.061  0.2599 -1.1357  0.7729
 6596TIP3    H219795   2.233   5.249   2.004 -0.6046  0.5582  1.1424
 6597TIP3   OH219796   1.451   5.851   1.209  0.3404  0.1563  0.4293
 6597TIP3    H119797   1.460   5.759   1.234  1.4020  0.0463 -0.2805
 6597TIP3    H219798   1.503   5.859   1.128 -0.2927  1.2255  0.1088
 6598TIP3   OH219799   5.804   0.252   0.969  0.0774  0.0550  0.1251
 6598TIP3    H119800   5.795   0.177   1.028 -2.5028  0.5747  0.5134
 6598TIP3    H219801   5.730   0.244   0.909  0.3491  1.7422 -0.4767
 6599TIP3   OH219802   0.207   4.474   0.965 -0.2167  0.3346  0.0319
 6599TIP3    H119803   0.198   4.399   0.907 -2.3021 -0.2908  1.0902
 6599TIP3    H219804   0.125   4.478   1.013  0.9267  1.6086  2.0329
 6600TIP3   OH219805   4.888   0.754   2.761  0.0219  0.0339 -0.1233
 6600TIP3    H119806   4.956   0.727   2.823 -0.7395 -0.0678  0.6762
 6600TIP3    H219807   4.936   0.768   2.678  0.9404 -0.4711  0.3057
 6601TIP3   OH219808   1.016   1.716   4.888 -0.1503  0.3829  0.1692
 6601TIP3    H119809   0.994   1.707   4.981  2.1023  0.6278  0.7876
 6601TIP3    H219810   0.969   1.795   4.860 -1.9427 -0.4353  0.6870
 6602TIP3   OH219811   0.531   1.441   3.572 -0.3464  0.3126 -0.2821
 6602TIP3    H119812   0.573   1.454   3.487  1.5358  1.0352  0.7088
 6602TIP3    H219813   0.518   1.347   3.578  1.4191  0.0194 -0.5252
 6603TIP3   OH219814   5.112   3.403   4.725 -0.7998 -0.2704  0.1682
 6603TIP3    H119815   5.049   3.452   4.778  0.4706  1.7112 -0.0331
 6603TIP3    H219816   5.154   3.343   4.786 -0.6427  0.6844  1.0233
 6604TIP3   OH219817   4.343   0.415   1.824  0.6117  0.2969 -0.3695
 6604TIP3    H119818   4.276   0.393   1.759  1.3883 -2.4302 -0.3933
 6604TIP3    H219819   4.302   0.396   1.909  0.8478  0.0601 -0.3044
 6605TIP3   OH219820   0.592   4.488   3.790 -0.3485 -0.4617  0.0410
 6605TIP3    H119821   0.602   4.521   3.879 -0.1005 -1.2346  0.3084
 6605TIP3    H219822   0.506   4.521   3.762  0.4671  1.5619 -0.2355
 6606TIP3   OH219823   3.120   4.085   2.460 -0.8221  0.2872  0.1349
 6606TIP3    H119824   3.146   4.148   2.527 -0.5803 -0.1145  0.4244
 6606TIP3    H219825   3.105   4.138   2.381 -0.6651  0.7070  0.3866
 6607TIP3   OH219826   2.013   4.013   3.401 -0.6875  0.2322 -0.0117
 6607TIP3    H119827   2.053   3.961   3.331 -1.5284  0.4874 -0.7054
 6607TIP3    H219828   2.082   4.073   3.429  0.3046 -1.2108  0.8048
 6608TIP3   OH219829   5.440   1.405   2.459 -0.1379  0.2605 -0.0242
 6608TIP3    H119830   5.399   1.442   2.537 -0.3154 -0.3094  0.1611
 6608TIP3    H219831   5.457   1.480   2.403 -1.5178  0.5092 -0.1367
 6609TIP3   OH219832   2.642   4.429   4.436  0.2771  0.0852  0.0913
 6609TIP3    H119833   2.638   4.430   4.532  0.4706  0.6514  0.1014
 6609TIP3    H219834   2.649   4.337   4.413 -0.9047 -0.1456  0.5666
 6610TIP3   OH219835   4.389   5.036   2.946 -0.1100 -0.2643 -0.1823
 6610TIP3    H119836   4.456   5.056   3.011 -0.0650  0.2149 -0.3784
 6610TIP3    H219837   4.314   5.091   2.969 -0.7394 -1.3753  0.5174
 6611TIP3   OH219838   1.345   3.631   2.643  0.5255 -0.5779 -0.0919
 6611TIP3    H119839   1.301   3.613   2.726  1.7341  0.0873  0.7128
 6611TIP3    H219840   1.347   3.546   2.598 -0.9942 -0.7492  0.1093
 6612TIP3   OH219841   6.161   4.240   2.269 -0.6506  0.0038  0.2362
 6612TIP3    H119842   6.202   4.280   2.346 -1.2763  0.0761  0.5351
 6612TIP3    H219843   6.224   4.255   2.198 -1.6441  3.2173 -0.1377
 6613TIP3   OH219844   4.780   0.064   0.255  0.2365  0.1138 -0.3261
 6613TIP3    H119845   4.696   0.080   0.211 -0.2604 -0.6912  0.3113
 6613TIP3    H219846   4.777  -0.028   0.280  0.9318  0.3117  0.5099
 6614TIP3   OH219847   3.045   3.412   0.146  0.2145  0.0560 -0.1696
 6614TIP3    H119848   3.001   3.327   0.153 -0.2125  0.3892  4.3139
 6614TIP3    H219849   3.137   3.392   0.164  0.1560  0.4804  0.6245
 6615TIP3   OH219850   5.732   2.157   3.631  1.0889  0.3669 -0.0188
 6615TIP3    H119851   5.717   2.231   3.690 -0.8319  0.7697 -0.9226
 6615TIP3    H219852   5.672   2.173   3.558  2.5660 -0.7085 -1.5353
 6616TIP3   OH219853   3.476   3.832   2.320  0.3633  0.0598  0.3604
 6616TIP3    H119854   3.527   3.752   2.317  1.2854  0.5502  1.9289
 6616TIP3    H219855   3.485   3.869   2.232  0.8516 -0.9758 -0.0395
 6617TIP3   OH219856   0.373   5.446   3.497 -0.5726  0.1005 -0.4586
 6617TIP3    H119857   0.457   5.483   3.522 -0.6547 -0.2915  0.4525
 6617TIP3    H219858   0.309   5.513   3.519 -0.6217 -0.1502  0.1933
 6618TIP3   OH219859   1.481   3.097   1.024  0.0004 -0.2190 -0.0804
 6618TIP3    H119860   1.424   3.172   1.034  1.1209  0.7178 -0.5257
 6618TIP3    H219861   1.435   3.026   1.069 -1.1734  0.6651  0.1603
 6619TIP3   OH219862   1.431   0.340   3.218  0.1765 -0.4371 -0.3507
 6619TIP3    H119863   1.341   0.341   3.185 -0.8820  0.8425  2.3558
 6619TIP3    H219864   1.480   0.392   3.154 -0.4806 -2.7326 -2.9212
 6620TIP3   OH219865   5.275   1.976   1.816  0.3855  0.5578  0.2113
 6620TIP3    H119866   5.269   2.035   1.892 -0.7337 -0.1355  0.6883
 6620TIP3    H219867   5.346   2.012   1.763  2.0409  0.3842  2.1713
 6621TIP3   OH219868   0.917   1.986   1.560 -0.0081  0.0089  0.3386
 6621TIP3    H119869   0.919   1.905   1.509  2.1641  0.9213 -1.2214
 6621TIP3    H219870   0.844   2.036   1.523 -1.6387 -1.3406  1.6040
 6622TIP3   OH219871   4.432   0.059   3.403 -0.5395 -0.2774 -0.1393
 6622TIP3    H119872   4.388   0.024   3.480  1.5695  0.4751  1.4805
 6622TIP3    H219873   4.484  -0.014   3.370  1.5284  0.3964  1.4714
 6623TIP3   OH219874   1.627   0.666   2.388  0.6707  0.0694  0.1649
 6623TIP3    H119875   1.630   0.588   2.333  1.8848 -0.2129  0.5763
 6623TIP3    H219876   1.700   0.719   2.357  0.0361  0.9113  0.0877
 6624TIP3   OH219877   1.072   1.582   3.436 -0.8301 -0.3569 -0.0996
 6624TIP3    H119878   1.017   1.658   3.456  0.4400  1.0611 -1.7119
 6624TIP3    H219879   1.062   1.569   3.342  0.6845 -0.8047 -0.2154
 6625TIP3   OH219880   0.357   2.241   0.983  0.5742 -0.0132 -0.3185
 6625TIP3    H119881   0.419   2.300   1.026 -0.3182  0.4898  0.3084
 6625TIP3    H219882   0.396   2.154   0.994  0.7129  0.1844  0.9068
 6626TIP3   OH219883   0.603   1.221   4.118  0.0367 -0.0685 -0.4568
 6626TIP3    H119884   0.639   1.189   4.201 -1.1768 -0.5975 -0.1036
 6626TIP3    H219885   0.524   1.168   4.105 -0.6838  1.1373 -1.1141
 6627TIP3   OH219886   5.911   0.820   4.540  0.0847 -0.0764  0.4313
 6627TIP3    H119887   5.870   0.905   4.555  0.3624  0.0780  0.3104
 6627TIP3    H219888   5.845   0.771   4.491 -0.1577 -0.0052  0.6834
 6628TIP3   OH219889   0.054   5.485   0.357 -0.0184 -0.4356 -0.4328
 6628TIP3    H119890   0.120   5.551   0.376 -1.5371  0.7542  0.9657
 6628TIP3    H219891   0.004   5.521   0.284 -0.8104 -0.0158  0.2924
 6629TIP3   OH219892   1.920   3.832   4.771  0.4824 -0.0038 -0.7806
 6629TIP3    H119893   1.838   3.852   4.816  0.9797 -1.8955  1.1080
 6629TIP3    H219894   1.951   3.917   4.739  0.3369  1.6635  2.9743
 6630TIP3   OH219895   1.813   4.636   3.331 -0.4881  0.5581  0.5444
 6630TIP3    H119896   1.762   4.577   3.275 -1.5508  0.4218  1.6325
 6630TIP3    H219897   1.789   4.611   3.420 -1.4455  3.0506  1.0394
 6631TIP3   OH219898   0.436   0.257   2.480  0.1690 -0.1118  0.1918
 6631TIP3    H119899   0.395   0.312   2.413 -2.0298 -0.5624  1.0918
 6631TIP3    H219900   0.468   0.181   2.431  1.3833  0.9414 -0.7486
 6632TIP3   OH219901   6.281   1.399   4.379 -0.3050 -0.1716  0.0354
 6632TIP3    H119902   6.372   1.388   4.407 -0.6649  0.9370  1.7449
 6632TIP3    H219903   6.235   1.430   4.456 -2.2773 -1.2066 -0.6590
 6633TIP3   OH219904   0.298   3.146   3.866 -0.7137 -0.0301  0.4810
 6633TIP3    H119905   0.216   3.169   3.824 -0.8325 -2.4685 -0.8273
 6633TIP3    H219906   0.273   3.109   3.950 -0.9884 -0.6386  0.1428
 6634TIP3   OH219907   2.995   2.426   4.797 -0.1832  0.3204 -0.4439
 6634TIP3    H119908   3.087   2.411   4.777 -0.0351  0.9900 -0.2846
 6634TIP3    H219909   2.973   2.360   4.863  0.1317  0.0409 -0.6211
 6635TIP3   OH219910   2.039   0.419   1.994 -0.8684 -0.1849 -0.2272
 6635TIP3    H119911   2.123   0.405   1.951 -0.7791 -1.7236  0.3974
 6635TIP3    H219912   2.058   0.413   2.088 -1.3571  1.4088  0.0054
 6636TIP3   OH219913   5.058   4.468   3.940  0.1457  0.1037 -0.1918
 6636TIP3    H119914   5.105   4.385   3.926  0.8384  0.5298 -0.4477
 6636TIP3    H219915   5.020   4.489   3.855 -0.7763 -0.3883  0.0849
 6637TIP3   OH219916   2.004   4.166   2.282  0.1518  0.0603  0.4382
 6637TIP3    H119917   1.953   4.246   2.267 -1.4906 -1.1203 -0.6298
 6637TIP3    H219918   2.047   4.150   2.198 -0.4488 -0.7801  0.2831
 6638TIP3   OH219919   0.058   2.689   2.542 -0.5433 -0.2086  0.3935
 6638TIP3    H119920   0.063   2.641   2.459 -2.5238  0.5377 -0.2292
 6638TIP3    H219921   0.001   2.763   2.523  0.7099  1.2296  1.8856
 6639TIP3   OH219922   3.106   1.789   3.264  0.0251 -0.5581 -0.2535
 6639TIP3    H119923   3.020   1.782   3.222  0.7495 -1.1330 -1.7095
 6639TIP3    H219924   3.124   1.883   3.266 -0.3417 -0.4800 -0.5673
 6640TIP3   OH219925   5.978   2.089   4.397  0.1374 -0.0102 -0.3605
 6640TIP3    H119926   6.056   2.124   4.354  0.3200 -2.0775 -1.8610
 6640TIP3    H219927   5.906   2.107   4.337 -0.2438  0.2532  0.1630
 6641TIP3   OH219928   1.784  -0.006   1.928  0.3064 -0.2563 -0.0969
 6641TIP3    H119929   1.721   0.026   1.864 -0.2487  0.5560  0.8338
 6641TIP3    H219930   1.762   0.040   2.009  1.7785 -0.3207  0.3724
 6642TIP3   OH219931   5.818   2.806   0.759  0.1238  0.2718 -0.3095
 6642TIP3    H119932   5.806   2.781   0.667  0.6113 -0.5655 -0.1576
 6642TIP3    H219933   5.761   2.746   0.808 -1.5750  1.9251 -0.1601
 6643TIP3   OH219934   1.608   3.744   2.011  0.5000 -0.1258  0.3259
 6643TIP3    H119935   1.675   3.765   2.076  1.0323  2.5311 -0.9561
 6643TIP3    H219936   1.534   3.800   2.035  0.3626  0.1865 -0.7873
 6644TIP3   OH219937   2.739   0.832   1.512  0.0289 -0.4355  0.2070
 6644TIP3    H119938   2.821   0.789   1.489  0.2342  0.4562 -0.8092
 6644TIP3    H219939   2.677   0.761   1.524  0.7810 -1.0897  0.3132
 6645TIP3   OH219940   3.275   4.209   1.189 -0.4258  0.7125 -0.1838
 6645TIP3    H119941   3.223   4.284   1.161 -0.5507  0.1627 -1.5192
 6645TIP3    H219942   3.217   4.160   1.248 -1.6456 -0.1029 -1.9525
   6.34419   5.98136   5.18002   0.00000   0.00000  -2.11474   0.00000  -2.11474  -2.99068
