Title t= 499.00000 step= 249500
44434
    1GLY      N    1   4.380   3.495   5.908
    1GLY    HT1    2   4.336   3.409   5.946
    1GLY    HT2    3   4.303   3.564   5.895
    1GLY    HT3    4   4.444   3.536   5.978
    1GLY     CA    5   4.461   3.473   5.791
    1GLY    HA1    6   4.402   3.426   5.714
    1GLY    HA2    7   4.537   3.403   5.821
    1GLY      C    8   4.523   3.589   5.722
    1GLY      O    9   4.492   3.697   5.757
    2PRO      N   10   4.620   3.573   5.627
    2PRO     CD   11   4.672   3.443   5.589
    2PRO    HD1   12   4.603   3.374   5.534
    2PRO    HD2   13   4.700   3.398   5.687
    2PRO     CA   14   4.667   3.680   5.545
    2PRO     HA   15   4.730   3.735   5.614
    2PRO     CB   16   4.748   3.608   5.439
    2PRO    HB1   17   4.830   3.675   5.404
    2PRO    HB2   18   4.687   3.570   5.355
    2PRO     CG   19   4.800   3.477   5.509
    2PRO    HG1   20   4.842   3.403   5.437
    2PRO    HG2   21   4.883   3.502   5.578
    2PRO      C   22   4.565   3.777   5.488
    2PRO      O   23   4.456   3.729   5.454
    3GLY      N   24   4.605   3.904   5.463
    3GLY     HN   25   4.698   3.928   5.490
    3GLY     CA   26   4.538   3.996   5.371
    3GLY    HA1   27   4.588   4.092   5.380
    3GLY    HA2   28   4.436   4.005   5.406
    3GLY      C   29   4.542   3.949   5.226
    3GLY      O   30   4.590   3.844   5.185
    4ASP      N   31   4.479   4.032   5.139
    4ASP     HN   32   4.455   4.125   5.166
    4ASP     CA   33   4.467   4.000   4.996
    4ASP     HA   34   4.443   3.895   4.999
    4ASP     CB   35   4.349   4.081   4.929
    4ASP    HB1   36   4.360   4.091   4.818
    4ASP    HB2   37   4.334   4.179   4.979
    4ASP     CG   38   4.203   4.028   4.952
    4ASP    OD1   39   4.182   3.926   5.027
    4ASP    OD2   40   4.110   4.084   4.886
    4ASP      C   41   4.590   4.019   4.915
    4ASP      O   42   4.675   4.100   4.946
    5PRO      N   43   4.615   3.932   4.815
    5PRO     CD   44   4.550   3.803   4.790
    5PRO    HD1   45   4.442   3.807   4.815
    5PRO    HD2   46   4.612   3.730   4.848
    5PRO     CA   47   4.716   3.959   4.721
    5PRO     HA   48   4.807   3.980   4.776
    5PRO     CB   49   4.726   3.828   4.632
    5PRO    HB1   50   4.795   3.753   4.677
    5PRO    HB2   51   4.755   3.837   4.525
    5PRO     CG   52   4.582   3.778   4.644
    5PRO    HG1   53   4.517   3.850   4.590
    5PRO    HG2   54   4.555   3.678   4.605
    5PRO      C   55   4.688   4.091   4.644
    5PRO      O   56   4.569   4.119   4.611
    6GLY      N   57   4.787   4.180   4.621
    6GLY     HN   58   4.878   4.154   4.652
    6GLY     CA   59   4.768   4.306   4.547
    6GLY    HA1   60   4.866   4.348   4.528
    6GLY    HA2   61   4.697   4.357   4.609
    6GLY      C   62   4.718   4.304   4.407
    6GLY      O   63   4.714   4.204   4.341
    7SER      N   64   4.699   4.422   4.350
    7SER     HN   65   4.715   4.508   4.398
    7SER     CA   66   4.643   4.430   4.216
    7SER     HA   67   4.553   4.370   4.206
    7SER     CB   68   4.586   4.571   4.178
    7SER    HB1   69   4.518   4.569   4.090
    7SER    HB2   70   4.666   4.644   4.157
    7SER     OG   71   4.508   4.629   4.286
    7SER    HG1   72   4.460   4.705   4.253
    7SER      C   73   4.739   4.411   4.100
    7SER      O   74   4.843   4.477   4.095
    8GLY      N   75   4.708   4.320   4.006
    8GLY     HN   76   4.615   4.286   4.016
    8GLY     CA   77   4.791   4.278   3.887
    8GLY    HA1   78   4.725   4.238   3.811
    8GLY    HA2   79   4.859   4.198   3.912
    8GLY      C   80   4.873   4.381   3.814
    8GLY      O   81   4.840   4.498   3.802
    9ASN      N   82   4.990   4.339   3.750
    9ASN     HN   83   5.027   4.247   3.755
    9ASN     CA   84   5.098   4.428   3.692
    9ASN     HA   85   5.074   4.528   3.727
    9ASN     CB   86   5.238   4.399   3.757
    9ASN    HB1   87   5.280   4.316   3.697
    9ASN    HB2   88   5.233   4.374   3.866
    9ASN     CG   89   5.339   4.516   3.745
    9ASN    OD1   90   5.324   4.609   3.670
    9ASN    ND2   91   5.448   4.507   3.827
    9ASN   HD21   92   5.514   4.581   3.830
    9ASN   HD22   93   5.459   4.429   3.889
    9ASN      C   94   5.093   4.419   3.530
    9ASN      O   95   5.152   4.322   3.473
   10PRO      N   96   5.030   4.515   3.453
   10PRO     CD   97   4.960   4.634   3.506
   10PRO    HD1   98   5.032   4.710   3.542
   10PRO    HD2   99   4.890   4.608   3.588
   10PRO     CA  100   5.048   4.537   3.304
   10PRO     HA  101   5.000   4.458   3.248
   10PRO     CB  102   4.974   4.663   3.268
   10PRO    HB1  103   4.917   4.650   3.174
   10PRO    HB2  104   5.039   4.752   3.257
   10PRO     CG  105   4.880   4.689   3.387
   10PRO    HG1  106   4.860   4.797   3.407
   10PRO    HG2  107   4.789   4.625   3.382
   10PRO      C  108   5.195   4.537   3.258
   10PRO      O  109   5.283   4.605   3.320
   11GLY      N  110   5.228   4.463   3.152
   11GLY     HN  111   5.155   4.414   3.105
   11GLY     CA  112   5.361   4.463   3.088
   11GLY    HA1  113   5.354   4.388   3.010
   11GLY    HA2  114   5.433   4.443   3.165
   11GLY      C  115   5.410   4.593   3.027
   11GLY      O  116   5.339   4.691   3.007
   12SER      N  117   5.545   4.599   2.997
   12SER     HN  118   5.607   4.521   3.006
   12SER     CA  119   5.609   4.716   2.928
   12SER     HA  120   5.535   4.752   2.859
   12SER     CB  121   5.661   4.833   3.029
   12SER    HB1  122   5.759   4.806   3.072
   12SER    HB2  123   5.593   4.831   3.117
   12SER     OG  124   5.664   4.959   2.973
   12SER    HG1  125   5.754   4.969   2.942
   12SER      C  126   5.726   4.659   2.854
   12SER      O  127   5.836   4.621   2.903
   13GLY      N  128   5.707   4.649   2.722
   13GLY     HN  129   5.619   4.679   2.685
   13GLY     CA  130   5.800   4.612   2.617
   13GLY    HA1  131   5.749   4.617   2.522
   13GLY    HA2  132   5.834   4.513   2.644
   13GLY      C  133   5.933   4.684   2.612
   13GLY      O  134   5.948   4.796   2.667
   14ASP      N  135   6.038   4.623   2.552
   14ASP     HN  136   6.024   4.535   2.506
   14ASP     CA  137   6.173   4.680   2.558
   14ASP     HA  138   6.177   4.705   2.663
   14ASP     CB  139   6.272   4.562   2.519
   14ASP    HB1  140   6.379   4.590   2.515
   14ASP    HB2  141   6.239   4.531   2.417
   14ASP     CG  142   6.265   4.449   2.616
   14ASP    OD1  143   6.309   4.337   2.581
   14ASP    OD2  144   6.206   4.467   2.731
   14ASP      C  145   6.175   4.812   2.485
   14ASP      O  146   6.079   4.829   2.407
   15PRO      N  147   6.279   4.905   2.495
   15PRO     CD  148   6.389   4.904   2.595
   15PRO    HD1  149   6.477   4.865   2.538
   15PRO    HD2  150   6.356   4.848   2.685
   15PRO     CA  151   6.272   5.028   2.418
   15PRO     HA  152   6.174   5.072   2.427
   15PRO     CB  153   6.396   5.110   2.470
   15PRO    HB1  154   6.368   5.216   2.488
   15PRO    HB2  155   6.489   5.109   2.410
   15PRO     CG  156   6.421   5.051   2.611
   15PRO    HG1  157   6.529   5.070   2.631
   15PRO    HG2  158   6.367   5.106   2.691
   15PRO      C  159   6.299   4.997   2.274
   15PRO    OT1  160   6.381   4.911   2.245
   15PRO    OT2  161   6.233   5.056   2.188
   16LIT    LIT  162   4.111   3.936   5.202
   17LIT    LIT  163   4.928   3.964   2.908
   18LIT    LIT  164   6.668   2.695   0.829
   19LIT    LIT  165   2.862   4.549   5.813
   20LIT    LIT  166   6.495   4.328   3.672
   21LIT    LIT  167   4.482   0.430   1.951
   22LIT    LIT  168   3.911   6.456   0.424
   23LIT    LIT  169   6.539   1.114   2.854
   24LIT    LIT  170   7.236   5.264   4.795
   25LIT    LIT  171   5.029   7.795   4.181
   26LIT    LIT  172   1.824   4.005   3.066
   27LIT    LIT  173   0.107   6.464   3.859
   28LIT    LIT  174   7.477   2.715   1.952
   29LIT    LIT  175   7.498   1.136   2.728
   30LIT    LIT  176   4.621   7.424   4.916
   31LIT    LIT  177   7.117   7.057   0.650
   32LIT    LIT  178   3.162   3.715   5.011
   33LIT    LIT  179   5.030   0.129   1.894
   34LIT    LIT  180   7.908   5.387   2.144
   35LIT    LIT  181   4.094   5.248   0.374
   36LIT    LIT  182   5.762   5.638   0.693
   37LIT    LIT  183   0.149   5.212   4.581
   38LIT    LIT  184   8.275   7.639   0.993
   39LIT    LIT  185   2.406   0.946   5.771
   40LIT    LIT  186   6.500   5.833   4.349
   41LIT    LIT  187   6.284   4.911   2.065
   42LIT    LIT  188   2.866   2.327   6.560
   43LIT    LIT  189   0.818   1.244   1.306
   44LIT    LIT  190   5.668   7.509   2.338
   45LIT    LIT  191   0.022   1.811   1.925
   46LIT    LIT  192   6.887   6.765   5.887
   47LIT    LIT  193   3.110   1.426   0.476
   48LIT    LIT  194   7.694   5.946   5.835
   49LIT    LIT  195   6.255   4.534   2.901
   50LIT    LIT  196   4.990   2.326   3.323
   51LIT    LIT  197   4.774   0.631   0.452
   52LIT    LIT  198   0.054   2.891   5.954
   53LIT    LIT  199   2.715   4.522   4.287
   54LIT    LIT  200   0.555   6.733   3.714
   55LIT    LIT  201   0.824   1.736   5.148
   56LIT    LIT  202   8.152   6.934   2.651
   57LIT    LIT  203   6.099   1.705   1.761
   58LIT    LIT  204   4.499   0.702   6.654
   59LIT    LIT  205   5.210   5.056   1.708
   60CLA    CLA  206   1.888   1.322   4.474
   61CLA    CLA  207   6.733   4.337   6.036
   62CLA    CLA  208   5.994   4.603   1.825
   63CLA    CLA  209   1.797   3.241   1.894
   64CLA    CLA  210   8.061   0.565   6.471
   65CLA    CLA  211   5.648   0.285   1.800
   66CLA    CLA  212   4.707   1.733   5.700
   67CLA    CLA  213   2.079   7.095   2.262
   68CLA    CLA  214   8.233   1.014   2.878
   69CLA    CLA  215   7.818   2.202   4.046
   70CLA    CLA  216   5.358   5.949   0.476
   71CLA    CLA  217   1.557   2.003   6.496
   72CLA    CLA  218   5.424   3.350   3.761
   73CLA    CLA  219   4.067   4.314   5.483
   74CLA    CLA  220   4.043   5.358   1.695
   75CLA    CLA  221   5.632   0.553   5.130
   76CLA    CLA  222   0.660   4.867   4.866
   77CLA    CLA  223   3.524   2.325   5.416
   78CLA    CLA  224   2.368   6.595   5.808
   79CLA    CLA  225   7.453   6.754   1.970
   80CLA    CLA  226   0.615   6.499   6.695
   81CLA    CLA  227   6.294   1.591   1.713
   82CLA    CLA  228   0.774   1.525   5.984
   83CLA    CLA  229   1.590   4.266   4.135
   84CLA    CLA  230   7.021   1.637   4.339
   85CLA    CLA  231   5.598   0.550   0.194
   86CLA    CLA  232   6.628   3.256   1.910
   87CLA    CLA  233   7.217   5.720   2.891
   88CLA    CLA  234   8.180   4.413   2.940
   89CLA    CLA  235   2.932   0.928   0.062
   90CLA    CLA  236   6.721   6.336   2.421
   91CLA    CLA  237   1.878   5.601   6.452
   92CLA    CLA  238   6.422   7.458   0.433
   93CLA    CLA  239   2.746   0.640   2.419
   94CLA    CLA  240   5.352   6.246   6.502
   95CLA    CLA  241   4.295   0.612   6.662
   96CLA    CLA  242   5.028   7.792   4.417
   97CLA    CLA  243   6.757   5.422   4.498
   98CLA    CLA  244   2.623   3.097   4.757
   99CLA    CLA  245   6.057   7.107   5.114
  100CLA    CLA  246   3.540   3.859   1.990
  101CLA    CLA  247   0.923   0.819   1.012
  102TIP3   OH2  248   3.942   1.453   4.048
  102TIP3    H1  249   4.002   1.467   4.121
  102TIP3    H2  250   3.918   1.361   4.054
  103TIP3   OH2  251   2.060   2.791   0.367
  103TIP3    H1  252   2.067   2.729   0.440
  103TIP3    H2  253   1.973   2.829   0.375
  104TIP3   OH2  254   5.012   5.112   1.151
  104TIP3    H1  255   5.008   5.047   1.080
  104TIP3    H2  256   5.059   5.067   1.221
  105TIP3   OH2  257   5.223   6.270   2.346
  105TIP3    H1  258   5.218   6.217   2.266
  105TIP3    H2  259   5.314   6.296   2.352
  106TIP3   OH2  260   5.020   5.499   0.348
  106TIP3    H1  261   5.077   5.423   0.358
  106TIP3    H2  262   5.006   5.530   0.437
  107TIP3   OH2  263   2.581   2.199   5.502
  107TIP3    H1  264   2.556   2.119   5.549
  107TIP3    H2  265   2.658   2.174   5.450
  108TIP3   OH2  266   3.234   6.066   6.577
  108TIP3    H1  267   3.282   6.138   6.617
  108TIP3    H2  268   3.224   6.092   6.485
  109TIP3   OH2  269   4.607   1.272   1.590
  109TIP3    H1  270   4.571   1.333   1.526
  109TIP3    H2  271   4.698   1.260   1.564
  110TIP3   OH2  272   6.614   1.997   1.442
  110TIP3    H1  273   6.608   1.921   1.384
  110TIP3    H2  274   6.640   1.961   1.527
  111TIP3   OH2  275   4.268   6.088   0.902
  111TIP3    H1  276   4.239   6.129   0.983
  111TIP3    H2  277   4.302   6.003   0.929
  112TIP3   OH2  278   3.976   3.038   6.399
  112TIP3    H1  279   3.942   3.024   6.488
  112TIP3    H2  280   3.899   3.060   6.347
  113TIP3   OH2  281   6.093   6.192  -0.009
  113TIP3    H1  282   6.111   6.281   0.021
  113TIP3    H2  283   6.109   6.195  -0.103
  114TIP3   OH2  284   1.084   2.823   2.625
  114TIP3    H1  285   1.122   2.909   2.643
  114TIP3    H2  286   1.105   2.806   2.533
  115TIP3   OH2  287   7.623   4.745   1.766
  115TIP3    H1  288   7.703   4.743   1.713
  115TIP3    H2  289   7.650   4.780   1.850
  116TIP3   OH2  290   1.912   1.566   2.286
  116TIP3    H1  291   1.971   1.629   2.327
  116TIP3    H2  292   1.950   1.481   2.305
  117TIP3   OH2  293   1.802   5.498   5.707
  117TIP3    H1  294   1.846   5.543   5.635
  117TIP3    H2  295   1.776   5.568   5.767
  118TIP3   OH2  296   2.066   0.867   6.499
  118TIP3    H1  297   2.058   0.772   6.491
  118TIP3    H2  298   2.008   0.890   6.572
  119TIP3   OH2  299   2.167   6.061   0.903
  119TIP3    H1  300   2.209   6.103   0.828
  119TIP3    H2  301   2.144   6.133   0.961
  120TIP3   OH2  302   0.969   4.843   3.448
  120TIP3    H1  303   0.917   4.782   3.395
  120TIP3    H2  304   0.958   4.927   3.404
  121TIP3   OH2  305   4.733   7.735   0.883
  121TIP3    H1  306   4.701   7.795   0.816
  121TIP3    H2  307   4.762   7.792   0.954
  122TIP3   OH2  308   4.353   0.078   6.198
  122TIP3    H1  309   4.441   0.079   6.162
  122TIP3    H2  310   4.366   0.067   6.292
  123TIP3   OH2  311   4.973   7.042   2.353
  123TIP3    H1  312   4.999   6.957   2.318
  123TIP3    H2  313   4.890   7.025   2.397
  124TIP3   OH2  314   5.072   6.895   0.441
  124TIP3    H1  315   5.008   6.949   0.488
  124TIP3    H2  316   5.069   6.927   0.351
  125TIP3   OH2  317   5.394   7.212   3.102
  125TIP3    H1  318   5.366   7.250   3.185
  125TIP3    H2  319   5.487   7.194   3.114
  126TIP3   OH2  320   1.661   4.595   6.630
  126TIP3    H1  321   1.617   4.679   6.616
  126TIP3    H2  322   1.623   4.561   6.711
  127TIP3   OH2  323   7.003   0.278   3.932
  127TIP3    H1  324   7.082   0.278   3.986
  127TIP3    H2  325   6.955   0.356   3.960
  128TIP3   OH2  326   1.789   0.384   4.136
  128TIP3    H1  327   1.716   0.376   4.198
  128TIP3    H2  328   1.851   0.317   4.163
  129TIP3   OH2  329   4.967   1.842   5.845
  129TIP3    H1  330   4.895   1.816   5.788
  129TIP3    H2  331   5.022   1.764   5.852
  130TIP3   OH2  332   1.915   7.208   4.402
  130TIP3    H1  333   1.915   7.171   4.313
  130TIP3    H2  334   1.840   7.267   4.403
  131TIP3   OH2  335   7.624   0.365   4.081
  131TIP3    H1  336   7.539   0.330   4.108
  131TIP3    H2  337   7.609   0.459   4.071
  132TIP3   OH2  338   2.537   1.643   1.883
  132TIP3    H1  339   2.534   1.695   1.963
  132TIP3    H2  340   2.520   1.553   1.912
  133TIP3   OH2  341   7.309   1.493   4.956
  133TIP3    H1  342   7.241   1.543   5.001
  133TIP3    H2  343   7.328   1.544   4.877
  134TIP3   OH2  344   2.952   1.665   6.028
  134TIP3    H1  345   2.985   1.626   6.109
  134TIP3    H2  346   2.908   1.594   5.983
  135TIP3   OH2  347   2.768   6.633   1.135
  135TIP3    H1  348   2.753   6.557   1.079
  135TIP3    H2  349   2.761   6.708   1.077
  136TIP3   OH2  350   1.212   5.153   4.856
  136TIP3    H1  351   1.277   5.083   4.864
  136TIP3    H2  352   1.264   5.231   4.835
  137TIP3   OH2  353   7.848   3.141   4.183
  137TIP3    H1  354   7.853   3.049   4.208
  137TIP3    H2  355   7.859   3.189   4.264
  138TIP3   OH2  356   0.419   6.347   5.068
  138TIP3    H1  357   0.471   6.281   5.023
  138TIP3    H2  358   0.333   6.343   5.025
  139TIP3   OH2  359   6.637   2.593   4.817
  139TIP3    H1  360   6.631   2.689   4.821
  139TIP3    H2  361   6.546   2.564   4.812
  140TIP3   OH2  362   0.328   5.606   5.159
  140TIP3    H1  363   0.264   5.539   5.184
  140TIP3    H2  364   0.410   5.577   5.199
  141TIP3   OH2  365   2.958   6.703   1.826
  141TIP3    H1  366   2.959   6.790   1.866
  141TIP3    H2  367   2.887   6.707   1.761
  142TIP3   OH2  368   3.953   2.331   2.145
  142TIP3    H1  369   4.001   2.383   2.080
  142TIP3    H2  370   3.867   2.316   2.105
  143TIP3   OH2  371   1.472   6.517   2.680
  143TIP3    H1  372   1.561   6.551   2.686
  143TIP3    H2  373   1.482   6.422   2.694
  144TIP3   OH2  374   5.907   4.316   5.906
  144TIP3    H1  375   5.981   4.377   5.908
  144TIP3    H2  376   5.890   4.297   5.998
  145TIP3   OH2  377   2.991   6.969   1.899
  145TIP3    H1  378   2.967   7.048   1.948
  145TIP3    H2  379   3.086   6.970   1.896
  146TIP3   OH2  380   1.451   5.706   2.608
  146TIP3    H1  381   1.417   5.657   2.533
  146TIP3    H2  382   1.531   5.748   2.575
  147TIP3   OH2  383   3.809   0.535   2.480
  147TIP3    H1  384   3.841   0.623   2.496
  147TIP3    H2  385   3.875   0.478   2.519
  148TIP3   OH2  386   6.852   7.201   5.418
  148TIP3    H1  387   6.898   7.275   5.458
  148TIP3    H2  388   6.791   7.241   5.356
  149TIP3   OH2  389   5.458   4.755   4.056
  149TIP3    H1  390   5.480   4.821   3.991
  149TIP3    H2  391   5.484   4.795   4.139
  150TIP3   OH2  392   2.351   2.569   3.390
  150TIP3    H1  393   2.290   2.510   3.434
  150TIP3    H2  394   2.338   2.551   3.296
  151TIP3   OH2  395   2.621   4.124   6.772
  151TIP3    H1  396   2.619   4.185   6.698
  151TIP3    H2  397   2.629   4.180   6.849
  152TIP3   OH2  398   1.523   7.699   0.423
  152TIP3    H1  399   1.568   7.763   0.477
  152TIP3    H2  400   1.575   7.619   0.431
  153TIP3   OH2  401   5.246   1.834   1.708
  153TIP3    H1  402   5.271   1.876   1.626
  153TIP3    H2  403   5.171   1.779   1.685
  154TIP3   OH2  404   7.202   4.955   1.875
  154TIP3    H1  405   7.112   4.961   1.908
  154TIP3    H2  406   7.224   4.862   1.880
  155TIP3   OH2  407   2.782   6.637   3.977
  155TIP3    H1  408   2.696   6.671   4.002
  155TIP3    H2  409   2.841   6.713   3.985
  156TIP3   OH2  410   5.673  -0.030   6.391
  156TIP3    H1  411   5.710  -0.100   6.444
  156TIP3    H2  412   5.722   0.048   6.417
  157TIP3   OH2  413   0.216   1.243   3.704
  157TIP3    H1  414   0.301   1.208   3.734
  157TIP3    H2  415   0.162   1.165   3.692
  158TIP3   OH2  416   3.223   7.663   3.967
  158TIP3    H1  417   3.282   7.601   3.925
  158TIP3    H2  418   3.136   7.626   3.955
  159TIP3   OH2  419   0.395   0.695   2.232
  159TIP3    H1  420   0.366   0.775   2.189
  159TIP3    H2  421   0.382   0.626   2.167
  160TIP3   OH2  422   5.975   1.579   2.145
  160TIP3    H1  423   5.890   1.581   2.189
  160TIP3    H2  424   5.957   1.612   2.057
  161TIP3   OH2  425   3.932   2.135   5.824
  161TIP3    H1  426   3.919   2.210   5.882
  161TIP3    H2  427   3.914   2.059   5.879
  162TIP3   OH2  428   7.175   7.697   2.012
  162TIP3    H1  429   7.092   7.739   1.988
  162TIP3    H2  430   7.208   7.661   1.930
  163TIP3   OH2  431   3.518   4.278   4.132
  163TIP3    H1  432   3.496   4.185   4.124
  163TIP3    H2  433   3.503   4.313   4.044
  164TIP3   OH2  434   4.477   2.127   0.723
  164TIP3    H1  435   4.406   2.063   0.723
  164TIP3    H2  436   4.453   2.191   0.656
  165TIP3   OH2  437   2.965   7.114   6.390
  165TIP3    H1  438   2.920   7.042   6.433
  165TIP3    H2  439   2.988   7.080   6.303
  166TIP3   OH2  440   7.568   5.267   6.045
  166TIP3    H1  441   7.531   5.339   5.994
  166TIP3    H2  442   7.496   5.203   6.051
  167TIP3   OH2  443   0.910   0.292   1.586
  167TIP3    H1  444   0.840   0.329   1.640
  167TIP3    H2  445   0.907   0.342   1.505
  168TIP3   OH2  446   5.346   5.580   0.839
  168TIP3    H1  447   5.361   5.672   0.858
  168TIP3    H2  448   5.357   5.572   0.744
  169TIP3   OH2  449   6.041   1.254   6.283
  169TIP3    H1  450   5.986   1.308   6.339
  169TIP3    H2  451   5.980   1.209   6.224
  170TIP3   OH2  452   5.628   3.262   1.517
  170TIP3    H1  453   5.601   3.349   1.548
  170TIP3    H2  454   5.703   3.280   1.460
  171TIP3   OH2  455   3.757   1.577   5.100
  171TIP3    H1  456   3.681   1.609   5.052
  171TIP3    H2  457   3.752   1.618   5.186
  172TIP3   OH2  458   7.166   7.605   3.797
  172TIP3    H1  459   7.200   7.622   3.709
  172TIP3    H2  460   7.233   7.551   3.839
  173TIP3   OH2  461   6.242   1.505   2.620
  173TIP3    H1  462   6.273   1.415   2.611
  173TIP3    H2  463   6.161   1.507   2.568
  174TIP3   OH2  464   5.483   0.523   4.000
  174TIP3    H1  465   5.545   0.462   4.041
  174TIP3    H2  466   5.458   0.479   3.918
  175TIP3   OH2  467   4.512   4.764   3.121
  175TIP3    H1  468   4.466   4.829   3.069
  175TIP3    H2  469   4.599   4.802   3.137
  176TIP3   OH2  470   1.370   7.196   3.954
  176TIP3    H1  471   1.403   7.200   4.044
  176TIP3    H2  472   1.375   7.104   3.930
  177TIP3   OH2  473   7.445   3.521   0.554
  177TIP3    H1  474   7.426   3.444   0.607
  177TIP3    H2  475   7.360   3.566   0.546
  178TIP3   OH2  476   5.181   2.837   0.012
  178TIP3    H1  477   5.164   2.929  -0.010
  178TIP3    H2  478   5.131   2.822   0.092
  179TIP3   OH2  479   2.761   7.648   1.601
  179TIP3    H1  480   2.742   7.554   1.603
  179TIP3    H2  481   2.728   7.677   1.516
  180TIP3   OH2  482   0.145   1.469   6.098
  180TIP3    H1  483   0.206   1.458   6.025
  180TIP3    H2  484   0.198   1.452   6.176
  181TIP3   OH2  485   3.166   6.166   2.957
  181TIP3    H1  486   3.223   6.122   3.019
  181TIP3    H2  487   3.190   6.259   2.964
  182TIP3   OH2  488   5.339   3.162   3.245
  182TIP3    H1  489   5.253   3.203   3.232
  182TIP3    H2  490   5.337   3.083   3.191
  183TIP3   OH2  491   4.161   0.210   0.726
  183TIP3    H1  492   4.104   0.264   0.781
  183TIP3    H2  493   4.134   0.120   0.744
  184TIP3   OH2  494   2.761   5.346   3.383
  184TIP3    H1  495   2.832   5.287   3.409
  184TIP3    H2  496   2.681   5.295   3.397
  185TIP3   OH2  497   1.370   6.184   4.856
  185TIP3    H1  498   1.409   6.269   4.836
  185TIP3    H2  499   1.424   6.149   4.927
  186TIP3   OH2  500   4.258   3.194   2.202
  186TIP3    H1  501   4.177   3.165   2.161
  186TIP3    H2  502   4.304   3.242   2.133
  187TIP3   OH2  503   2.805   7.709   3.407
  187TIP3    H1  504   2.847   7.729   3.323
  187TIP3    H2  505   2.767   7.622   3.395
  188TIP3   OH2  506   3.061   1.982   2.799
  188TIP3    H1  507   3.111   1.932   2.863
  188TIP3    H2  508   3.047   2.067   2.840
  189TIP3   OH2  509   0.630   6.131   0.705
  189TIP3    H1  510   0.602   6.055   0.755
  189TIP3    H2  511   0.549   6.172   0.674
  190TIP3   OH2  512   0.826   6.343   0.058
  190TIP3    H1  513   0.833   6.283  -0.016
  190TIP3    H2  514   0.903   6.324   0.112
  191TIP3   OH2  515   0.386   4.719   0.163
  191TIP3    H1  516   0.347   4.652   0.107
  191TIP3    H2  517   0.448   4.765   0.106
  192TIP3   OH2  518   6.863   3.696   0.563
  192TIP3    H1  519   6.855   3.702   0.468
  192TIP3    H2  520   6.775   3.713   0.596
  193TIP3   OH2  521   0.292   6.578   2.838
  193TIP3    H1  522   0.237   6.518   2.888
  193TIP3    H2  523   0.233   6.611   2.770
  194TIP3   OH2  524   5.683   3.367   4.537
  194TIP3    H1  525   5.716   3.288   4.581
  194TIP3    H2  526   5.743   3.380   4.464
  195TIP3   OH2  527   0.878   3.668   6.246
  195TIP3    H1  528   0.887   3.608   6.321
  195TIP3    H2  529   0.967   3.699   6.230
  196TIP3   OH2  530   0.112   2.777   5.292
  196TIP3    H1  531   0.170   2.835   5.243
  196TIP3    H2  532   0.095   2.823   5.374
  197TIP3   OH2  533   3.540   0.179   5.445
  197TIP3    H1  534   3.599   0.106   5.465
  197TIP3    H2  535   3.504   0.157   5.359
  198TIP3   OH2  536   5.287   6.091   5.877
  198TIP3    H1  537   5.282   6.021   5.813
  198TIP3    H2  538   5.231   6.063   5.949
  199TIP3   OH2  539   0.421   6.896   4.079
  199TIP3    H1  540   0.488   6.922   4.142
  199TIP3    H2  541   0.380   6.819   4.118
  200TIP3   OH2  542   2.203   3.543   5.819
  200TIP3    H1  543   2.210   3.471   5.880
  200TIP3    H2  544   2.140   3.603   5.860
  201TIP3   OH2  545   3.029   6.393   4.499
  201TIP3    H1  546   2.981   6.310   4.489
  201TIP3    H2  547   3.108   6.370   4.547
  202TIP3   OH2  548   7.179   1.640   5.336
  202TIP3    H1  549   7.086   1.652   5.352
  202TIP3    H2  550   7.186   1.551   5.300
  203TIP3   OH2  551   5.707   4.732   1.991
  203TIP3    H1  552   5.710   4.736   2.087
  203TIP3    H2  553   5.796   4.711   1.965
  204TIP3   OH2  554   2.405   6.204   5.806
  204TIP3    H1  555   2.349   6.135   5.843
  204TIP3    H2  556   2.419   6.265   5.879
  205TIP3   OH2  557   1.871   7.651   3.616
  205TIP3    H1  558   1.864   7.739   3.580
  205TIP3    H2  559   1.795   7.604   3.581
  206TIP3   OH2  560   5.743   2.563   5.174
  206TIP3    H1  561   5.720   2.472   5.193
  206TIP3    H2  562   5.753   2.566   5.079
  207TIP3   OH2  563   5.988   1.702   4.906
  207TIP3    H1  564   6.080   1.699   4.882
  207TIP3    H2  565   5.988   1.725   4.999
  208TIP3   OH2  566   4.044   7.478   3.263
  208TIP3    H1  567   4.025   7.401   3.316
  208TIP3    H2  568   4.032   7.551   3.324
  209TIP3   OH2  569   3.678   2.591   4.193
  209TIP3    H1  570   3.732   2.523   4.233
  209TIP3    H2  571   3.738   2.640   4.137
  210TIP3   OH2  572   1.911   3.996   6.683
  210TIP3    H1  573   1.939   4.085   6.663
  210TIP3    H2  574   1.897   3.955   6.598
  211TIP3   OH2  575   3.032   1.121   5.167
  211TIP3    H1  576   3.028   1.211   5.200
  211TIP3    H2  577   3.057   1.069   5.244
  212TIP3   OH2  578   7.412   0.254   4.261
  212TIP3    H1  579   7.454   0.172   4.285
  212TIP3    H2  580   7.449   0.318   4.321
  213TIP3   OH2  581   7.650   4.983   2.794
  213TIP3    H1  582   7.600   5.064   2.796
  213TIP3    H2  583   7.740   5.010   2.810
  214TIP3   OH2  584   4.064   2.682   3.180
  214TIP3    H1  585   3.990   2.622   3.175
  214TIP3    H2  586   4.089   2.681   3.273
  215TIP3   OH2  587   8.165   3.256   1.788
  215TIP3    H1  588   8.143   3.163   1.797
  215TIP3    H2  589   8.105   3.288   1.719
  216TIP3   OH2  590   2.820   2.014   3.546
  216TIP3    H1  591   2.775   2.088   3.506
  216TIP3    H2  592   2.765   1.989   3.620
  217TIP3   OH2  593   1.781   3.561   1.101
  217TIP3    H1  594   1.844   3.532   1.168
  217TIP3    H2  595   1.836   3.579   1.024
  218TIP3   OH2  596   3.993   0.053   2.772
  218TIP3    H1  597   3.979   0.131   2.827
  218TIP3    H2  598   4.084   0.061   2.743
  219TIP3   OH2  599   1.151   7.678   0.202
  219TIP3    H1  600   1.061   7.698   0.178
  219TIP3    H2  601   1.198   7.761   0.191
  220TIP3   OH2  602   8.049   0.811   0.303
  220TIP3    H1  603   8.014   0.890   0.344
  220TIP3    H2  604   7.974   0.752   0.296
  221TIP3   OH2  605   4.091   1.506   4.549
  221TIP3    H1  606   4.184   1.528   4.557
  221TIP3    H2  607   4.073   1.453   4.627
  222TIP3   OH2  608   4.450   1.781   2.738
  222TIP3    H1  609   4.481   1.697   2.702
  222TIP3    H2  610   4.393   1.816   2.670
  223TIP3   OH2  611   4.826   5.812   4.656
  223TIP3    H1  612   4.900   5.799   4.597
  223TIP3    H2  613   4.801   5.724   4.685
  224TIP3   OH2  614   0.952   0.541   2.724
  224TIP3    H1  615   0.964   0.591   2.644
  224TIP3    H2  616   1.041   0.515   2.750
  225TIP3   OH2  617   2.611   3.597   1.677
  225TIP3    H1  618   2.686   3.630   1.628
  225TIP3    H2  619   2.613   3.646   1.760
  226TIP3   OH2  620   6.916   1.822   4.933
  226TIP3    H1  621   6.992   1.782   4.891
  226TIP3    H2  622   6.840   1.780   4.892
  227TIP3   OH2  623   3.453   4.660   0.119
  227TIP3    H1  624   3.528   4.645   0.177
  227TIP3    H2  625   3.447   4.755   0.112
  228TIP3   OH2  626   1.260   3.005   6.667
  228TIP3    H1  627   1.218   3.079   6.712
  228TIP3    H2  628   1.352   3.029   6.661
  229TIP3   OH2  629   3.593   0.814   2.926
  229TIP3    H1  630   3.654   0.780   2.991
  229TIP3    H2  631   3.649   0.851   2.858
  230TIP3   OH2  632   1.221   6.085   5.653
  230TIP3    H1  633   1.169   6.107   5.731
  230TIP3    H2  634   1.178   6.132   5.582
  231TIP3   OH2  635   6.692   1.892   0.226
  231TIP3    H1  636   6.622   1.949   0.258
  231TIP3    H2  637   6.725   1.936   0.148
  232TIP3   OH2  638   4.723   7.129   1.752
  232TIP3    H1  639   4.728   7.106   1.659
  232TIP3    H2  640   4.812   7.119   1.785
  233TIP3   OH2  641   2.382   7.257   0.157
  233TIP3    H1  642   2.327   7.329   0.125
  233TIP3    H2  643   2.332   7.219   0.230
  234TIP3   OH2  644   4.517   0.859   6.526
  234TIP3    H1  645   4.450   0.880   6.460
  234TIP3    H2  646   4.583   0.927   6.516
  235TIP3   OH2  647   5.522   5.710   3.349
  235TIP3    H1  648   5.478   5.764   3.415
  235TIP3    H2  649   5.510   5.620   3.381
  236TIP3   OH2  650   8.014   4.213   5.236
  236TIP3    H1  651   8.037   4.221   5.144
  236TIP3    H2  652   7.952   4.139   5.239
  237TIP3   OH2  653   4.057   3.445   6.033
  237TIP3    H1  654   4.070   3.424   6.125
  237TIP3    H2  655   3.981   3.504   6.032
  238TIP3   OH2  656   1.748   5.980   4.813
  238TIP3    H1  657   1.829   5.934   4.789
  238TIP3    H2  658   1.775   6.071   4.826
  239TIP3   OH2  659   8.109   1.559   2.394
  239TIP3    H1  660   8.042   1.492   2.383
  239TIP3    H2  661   8.073   1.618   2.461
  240TIP3   OH2  662   2.221   5.118   1.711
  240TIP3    H1  663   2.205   5.026   1.729
  240TIP3    H2  664   2.258   5.119   1.623
  241TIP3   OH2  665   3.525   5.013   2.588
  241TIP3    H1  666   3.511   4.957   2.664
  241TIP3    H2  667   3.440   5.054   2.572
  242TIP3   OH2  668   7.475   1.994   0.862
  242TIP3    H1  669   7.441   1.907   0.880
  242TIP3    H2  670   7.530   1.984   0.784
  243TIP3   OH2  671   1.207   7.405   0.543
  243TIP3    H1  672   1.230   7.497   0.529
  243TIP3    H2  673   1.161   7.404   0.627
  244TIP3   OH2  674   2.714   0.270   2.965
  244TIP3    H1  675   2.686   0.198   3.021
  244TIP3    H2  676   2.810   0.264   2.965
  245TIP3   OH2  677   4.545   6.275   5.280
  245TIP3    H1  678   4.532   6.348   5.219
  245TIP3    H2  679   4.622   6.300   5.330
  246TIP3   OH2  680   1.985   2.934   2.174
  246TIP3    H1  681   2.064   2.978   2.142
  246TIP3    H2  682   2.010   2.898   2.258
  247TIP3   OH2  683   0.006   6.883   5.186
  247TIP3    H1  684   0.042   6.972   5.182
  247TIP3    H2  685   0.073   6.829   5.143
  248TIP3   OH2  686   2.240   3.323   1.913
  248TIP3    H1  687   2.187   3.259   1.865
  248TIP3    H2  688   2.269   3.385   1.846
  249TIP3   OH2  689   0.851   5.201   1.640
  249TIP3    H1  690   0.781   5.259   1.668
  249TIP3    H2  691   0.825   5.172   1.553
  250TIP3   OH2  692   0.590   6.049   4.302
  250TIP3    H1  693   0.508   6.025   4.345
  250TIP3    H2  694   0.622   6.124   4.353
  251TIP3   OH2  695   7.571   3.952   2.079
  251TIP3    H1  696   7.585   3.863   2.045
  251TIP3    H2  697   7.646   4.002   2.048
  252TIP3   OH2  698   2.242   5.961   3.969
  252TIP3    H1  699   2.210   5.915   3.891
  252TIP3    H2  700   2.263   6.049   3.937
  253TIP3   OH2  701   4.576   2.023   5.681
  253TIP3    H1  702   4.620   2.097   5.640
  253TIP3    H2  703   4.620   1.946   5.645
  254TIP3   OH2  704   7.195   4.557   1.070
  254TIP3    H1  705   7.274   4.606   1.093
  254TIP3    H2  706   7.191   4.487   1.135
  255TIP3   OH2  707   3.357   5.259   5.125
  255TIP3    H1  708   3.272   5.290   5.159
  255TIP3    H2  709   3.348   5.164   5.120
  256TIP3   OH2  710   5.621   6.905   1.653
  256TIP3    H1  711   5.593   6.817   1.679
  256TIP3    H2  712   5.715   6.896   1.637
  257TIP3   OH2  713   3.388   0.697   5.868
  257TIP3    H1  714   3.402   0.780   5.915
  257TIP3    H2  715   3.295   0.679   5.879
  258TIP3   OH2  716   2.281   5.789   5.930
  258TIP3    H1  717   2.347   5.723   5.910
  258TIP3    H2  718   2.243   5.811   5.845
  259TIP3   OH2  719   7.943   4.837   1.213
  259TIP3    H1  720   7.968   4.838   1.121
  259TIP3    H2  721   8.003   4.775   1.254
  260TIP3   OH2  722   1.797   2.261   3.991
  260TIP3    H1  723   1.744   2.329   3.950
  260TIP3    H2  724   1.833   2.303   4.069
  261TIP3   OH2  725   4.150   2.827   0.426
  261TIP3    H1  726   4.181   2.779   0.502
  261TIP3    H2  727   4.136   2.761   0.358
  262TIP3   OH2  728   3.648   7.467   0.034
  262TIP3    H1  729   3.730   7.429   0.065
  262TIP3    H2  730   3.612   7.511   0.111
  263TIP3   OH2  731   4.492   2.889   4.409
  263TIP3    H1  732   4.434   2.890   4.485
  263TIP3    H2  733   4.490   2.980   4.377
  264TIP3   OH2  734   7.220   7.749   0.288
  264TIP3    H1  735   7.145   7.714   0.337
  264TIP3    H2  736   7.182   7.783   0.207
  265TIP3   OH2  737   4.805   3.859   3.761
  265TIP3    H1  738   4.788   3.807   3.839
  265TIP3    H2  739   4.723   3.904   3.743
  266TIP3   OH2  740   7.531   1.696   4.312
  266TIP3    H1  741   7.548   1.764   4.248
  266TIP3    H2  742   7.617   1.676   4.350
  267TIP3   OH2  743   7.407   4.184   4.235
  267TIP3    H1  744   7.429   4.222   4.150
  267TIP3    H2  745   7.340   4.243   4.270
  268TIP3   OH2  746   0.179   5.096   3.166
  268TIP3    H1  747   0.171   5.116   3.259
  268TIP3    H2  748   0.120   5.157   3.122
  269TIP3   OH2  749   3.612   1.958   6.639
  269TIP3    H1  750   3.539   1.896   6.635
  269TIP3    H2  751   3.581   2.035   6.591
  270TIP3   OH2  752   1.035   6.804   5.633
  270TIP3    H1  753   1.032   6.877   5.696
  270TIP3    H2  754   1.089   6.837   5.562
  271TIP3   OH2  755   5.984   0.983   0.951
  271TIP3    H1  756   6.035   1.061   0.931
  271TIP3    H2  757   6.008   0.920   0.882
  272TIP3   OH2  758   2.484   7.435   3.522
  272TIP3    H1  759   2.511   7.474   3.605
  272TIP3    H2  760   2.397   7.398   3.540
  273TIP3   OH2  761   7.967   2.510   1.749
  273TIP3    H1  762   7.913   2.555   1.683
  273TIP3    H2  763   7.961   2.417   1.725
  274TIP3   OH2  764   4.929   5.056   3.534
  274TIP3    H1  765   4.966   5.037   3.621
  274TIP3    H2  766   4.983   5.005   3.474
  275TIP3   OH2  767   6.430   1.600   5.868
  275TIP3    H1  768   6.461   1.685   5.836
  275TIP3    H2  769   6.338   1.615   5.890
  276TIP3   OH2  770   1.916   2.593   5.044
  276TIP3    H1  771   1.891   2.638   5.124
  276TIP3    H2  772   1.833   2.573   5.000
  277TIP3   OH2  773   5.353   7.220   3.990
  277TIP3    H1  774   5.411   7.295   4.000
  277TIP3    H2  775   5.333   7.217   3.896
  278TIP3   OH2  776   6.613   1.332   5.171
  278TIP3    H1  777   6.630   1.405   5.112
  278TIP3    H2  778   6.687   1.332   5.232
  279TIP3   OH2  779   4.717   2.199   2.218
  279TIP3    H1  780   4.771   2.250   2.278
  279TIP3    H2  781   4.670   2.138   2.275
  280TIP3   OH2  782   1.005   7.208   4.118
  280TIP3    H1  783   1.017   7.164   4.034
  280TIP3    H2  784   1.010   7.301   4.098
  281TIP3   OH2  785   1.247   5.140   5.815
  281TIP3    H1  786   1.280   5.230   5.810
  281TIP3    H2  787   1.167   5.142   5.762
  282TIP3   OH2  788   1.287   4.773   5.030
  282TIP3    H1  789   1.202   4.774   4.985
  282TIP3    H2  790   1.332   4.850   4.998
  283TIP3   OH2  791   1.086   1.005   1.656
  283TIP3    H1  792   1.026   0.935   1.681
  283TIP3    H2  793   1.117   0.980   1.569
  284TIP3   OH2  794   8.178   0.741   4.292
  284TIP3    H1  795   8.117   0.738   4.218
  284TIP3    H2  796   8.247   0.679   4.268
  285TIP3   OH2  797   2.425   3.909   0.491
  285TIP3    H1  798   2.434   4.004   0.498
  285TIP3    H2  799   2.456   3.888   0.403
  286TIP3   OH2  800   5.514   5.923   6.065
  286TIP3    H1  801   5.436   5.869   6.055
  286TIP3    H2  802   5.486   6.011   6.043
  287TIP3   OH2  803   1.932   6.566   6.238
  287TIP3    H1  804   2.000   6.629   6.261
  287TIP3    H2  805   1.897   6.597   6.155
  288TIP3   OH2  806   6.273   3.616   6.422
  288TIP3    H1  807   6.234   3.548   6.367
  288TIP3    H2  808   6.319   3.674   6.361
  289TIP3   OH2  809   6.713   7.034   0.811
  289TIP3    H1  810   6.707   7.129   0.800
  289TIP3    H2  811   6.744   7.022   0.901
  290TIP3   OH2  812   6.872   3.804   3.933
  290TIP3    H1  813   6.878   3.710   3.946
  290TIP3    H2  814   6.851   3.814   3.840
  291TIP3   OH2  815   6.895   4.493   0.536
  291TIP3    H1  816   6.965   4.502   0.472
  291TIP3    H2  817   6.922   4.420   0.592
  292TIP3   OH2  818   1.412   0.970   5.672
  292TIP3    H1  819   1.345   0.971   5.603
  292TIP3    H2  820   1.381   0.903   5.733
  293TIP3   OH2  821   0.783   5.070   2.445
  293TIP3    H1  822   0.755   5.154   2.409
  293TIP3    H2  823   0.740   5.004   2.390
  294TIP3   OH2  824   7.366   2.871   5.036
  294TIP3    H1  825   7.322   2.826   4.965
  294TIP3    H2  826   7.404   2.801   5.089
  295TIP3   OH2  827   3.862   0.413   4.143
  295TIP3    H1  828   3.813   0.447   4.068
  295TIP3    H2  829   3.805   0.428   4.218
  296TIP3   OH2  830   5.554   1.700   1.864
  296TIP3    H1  831   5.490   1.749   1.914
  296TIP3    H2  832   5.564   1.618   1.912
  297TIP3   OH2  833   1.301   6.759   0.270
  297TIP3    H1  834   1.245   6.831   0.241
  297TIP3    H2  835   1.241   6.691   0.297
  298TIP3   OH2  836   2.283   5.461   5.223
  298TIP3    H1  837   2.252   5.502   5.303
  298TIP3    H2  838   2.282   5.531   5.158
  299TIP3   OH2  839   3.506   3.485   4.878
  299TIP3    H1  840   3.577   3.464   4.939
  299TIP3    H2  841   3.451   3.547   4.925
  300TIP3   OH2  842   4.135   1.565   4.254
  300TIP3    H1  843   4.105   1.506   4.323
  300TIP3    H2  844   4.194   1.626   4.298
  301TIP3   OH2  845   4.049   1.354   0.809
  301TIP3    H1  846   4.047   1.373   0.715
  301TIP3    H2  847   3.964   1.383   0.841
  302TIP3   OH2  848   3.059   5.457   1.260
  302TIP3    H1  849   3.041   5.363   1.262
  302TIP3    H2  850   3.146   5.466   1.300
  303TIP3   OH2  851   5.061   4.950   5.270
  303TIP3    H1  852   5.130   5.009   5.239
  303TIP3    H2  853   5.051   4.972   5.363
  304TIP3   OH2  854   5.400   6.513   5.022
  304TIP3    H1  855   5.387   6.606   5.005
  304TIP3    H2  856   5.312   6.478   5.034
  305TIP3   OH2  857   4.292   0.984   0.658
  305TIP3    H1  858   4.306   1.074   0.627
  305TIP3    H2  859   4.201   0.965   0.635
  306TIP3   OH2  860   0.118   2.177   0.856
  306TIP3    H1  861   0.024   2.192   0.860
  306TIP3    H2  862   0.139   2.133   0.938
  307TIP3   OH2  863   1.075   2.972   5.982
  307TIP3    H1  864   1.071   2.973   6.078
  307TIP3    H2  865   1.152   2.919   5.962
  308TIP3   OH2  866   7.457   5.121   5.272
  308TIP3    H1  867   7.451   5.215   5.255
  308TIP3    H2  868   7.403   5.081   5.204
  309TIP3   OH2  869   5.033   0.360   1.404
  309TIP3    H1  870   4.998   0.449   1.407
  309TIP3    H2  871   5.120   0.366   1.443
  310TIP3   OH2  872   7.760   5.757   2.818
  310TIP3    H1  873   7.785   5.841   2.780
  310TIP3    H2  874   7.694   5.722   2.759
  311TIP3   OH2  875   3.177   5.479   2.725
  311TIP3    H1  876   3.141   5.542   2.662
  311TIP3    H2  877   3.225   5.417   2.671
  312TIP3   OH2  878   2.451   2.821   3.381
  312TIP3    H1  879   2.380   2.883   3.399
  312TIP3    H2  880   2.411   2.735   3.393
  313TIP3   OH2  881   2.849   5.431   3.132
  313TIP3    H1  882   2.850   5.343   3.094
  313TIP3    H2  883   2.817   5.418   3.221
  314TIP3   OH2  884   6.057   0.465   6.265
  314TIP3    H1  885   6.127   0.403   6.241
  314TIP3    H2  886   6.023   0.432   6.348
  315TIP3   OH2  887   5.542   7.822   5.672
  315TIP3    H1  888   5.467   7.772   5.706
  315TIP3    H2  889   5.505   7.906   5.644
  316TIP3   OH2  890   6.614   3.889   5.499
  316TIP3    H1  891   6.637   3.909   5.408
  316TIP3    H2  892   6.630   3.795   5.508
  317TIP3   OH2  893   1.966   5.637   5.970
  317TIP3    H1  894   1.967   5.708   6.033
  317TIP3    H2  895   2.038   5.657   5.909
  318TIP3   OH2  896   7.651   5.231   6.671
  318TIP3    H1  897   7.713   5.158   6.665
  318TIP3    H2  898   7.699   5.305   6.636
  319TIP3   OH2  899   6.896   5.582   5.571
  319TIP3    H1  900   6.868   5.666   5.535
  319TIP3    H2  901   6.835   5.565   5.642
  320TIP3   OH2  902   7.247   5.895   5.661
  320TIP3    H1  903   7.313   5.950   5.619
  320TIP3    H2  904   7.177   5.887   5.596
  321TIP3   OH2  905   4.210   7.316   2.345
  321TIP3    H1  906   4.297   7.357   2.341
  321TIP3    H2  907   4.217   7.239   2.289
  322TIP3   OH2  908   3.695   6.181   4.934
  322TIP3    H1  909   3.644   6.198   4.855
  322TIP3    H2  910   3.653   6.234   5.002
  323TIP3   OH2  911   2.891   5.250   4.216
  323TIP3    H1  912   2.844   5.277   4.137
  323TIP3    H2  913   2.945   5.177   4.188
  324TIP3   OH2  914   5.865   3.936   1.912
  324TIP3    H1  915   5.847   3.845   1.934
  324TIP3    H2  916   5.939   3.932   1.852
  325TIP3   OH2  917   0.209   1.108   6.595
  325TIP3    H1  918   0.276   1.174   6.576
  325TIP3    H2  919   0.230   1.036   6.535
  326TIP3   OH2  920   5.823   0.740   0.114
  326TIP3    H1  921   5.808   0.758   0.021
  326TIP3    H2  922   5.762   0.670   0.135
  327TIP3   OH2  923   2.520   1.086   1.803
  327TIP3    H1  924   2.609   1.073   1.771
  327TIP3    H2  925   2.513   1.029   1.880
  328TIP3   OH2  926   2.381   0.425   2.063
  328TIP3    H1  927   2.455   0.413   2.122
  328TIP3    H2  928   2.346   0.337   2.050
  329TIP3   OH2  929   6.501   5.366   6.184
  329TIP3    H1  930   6.522   5.281   6.146
  329TIP3    H2  931   6.405   5.369   6.186
  330TIP3   OH2  932   6.925   1.179   3.743
  330TIP3    H1  933   6.887   1.114   3.802
  330TIP3    H2  934   6.954   1.250   3.801
  331TIP3   OH2  935   0.741   6.791   5.730
  331TIP3    H1  936   0.797   6.719   5.759
  331TIP3    H2  937   0.769   6.808   5.640
  332TIP3   OH2  938   1.973   5.419   0.761
  332TIP3    H1  939   1.926   5.502   0.767
  332TIP3    H2  940   1.903   5.353   0.757
  333TIP3   OH2  941   5.336   5.019   0.980
  333TIP3    H1  942   5.378   5.025   0.894
  333TIP3    H2  943   5.360   4.932   1.012
  334TIP3   OH2  944   6.314   1.655   1.420
  334TIP3    H1  945   6.262   1.591   1.371
  334TIP3    H2  946   6.311   1.624   1.511
  335TIP3   OH2  947   2.941   5.691   6.047
  335TIP3    H1  948   2.951   5.725   5.959
  335TIP3    H2  949   2.870   5.743   6.086
  336TIP3   OH2  950   7.221   2.448   6.114
  336TIP3    H1  951   7.135   2.468   6.152
  336TIP3    H2  952   7.261   2.533   6.099
  337TIP3   OH2  953   0.260   4.484   1.762
  337TIP3    H1  954   0.193   4.488   1.694
  337TIP3    H2  955   0.301   4.570   1.761
  338TIP3   OH2  956   6.369   0.434   3.690
  338TIP3    H1  957   6.336   0.348   3.716
  338TIP3    H2  958   6.330   0.449   3.603
  339TIP3   OH2  959   2.229   0.617   1.777
  339TIP3    H1  960   2.305   0.559   1.782
  339TIP3    H2  961   2.237   0.675   1.852
  340TIP3   OH2  962   5.925   6.100   2.354
  340TIP3    H1  963   5.943   6.168   2.289
  340TIP3    H2  964   6.011   6.073   2.384
  341TIP3   OH2  965   0.576   5.270   6.391
  341TIP3    H1  966   0.583   5.307   6.479
  341TIP3    H2  967   0.666   5.253   6.364
  342TIP3   OH2  968   7.275   3.909   5.877
  342TIP3    H1  969   7.198   3.870   5.919
  342TIP3    H2  970   7.271   3.878   5.786
  343TIP3   OH2  971   7.154   1.336   4.289
  343TIP3    H1  972   7.197   1.387   4.358
  343TIP3    H2  973   7.061   1.338   4.312
  344TIP3   OH2  974   1.453   0.996   6.318
  344TIP3    H1  975   1.428   1.005   6.410
  344TIP3    H2  976   1.370   0.979   6.272
  345TIP3   OH2  977   6.582   3.604   0.867
  345TIP3    H1  978   6.525   3.527   0.867
  345TIP3    H2  979   6.525   3.676   0.837
  346TIP3   OH2  980   0.804   2.027   6.245
  346TIP3    H1  981   0.857   2.107   6.245
  346TIP3    H2  982   0.858   1.962   6.290
  347TIP3   OH2  983   6.276   3.906   1.947
  347TIP3    H1  984   6.238   3.928   1.863
  347TIP3    H2  985   6.286   3.990   1.992
  348TIP3   OH2  986   1.816   7.794   5.012
  348TIP3    H1  987   1.724   7.807   5.034
  348TIP3    H2  988   1.815   7.724   4.947
  349TIP3   OH2  989   7.760   3.513   3.311
  349TIP3    H1  990   7.825   3.562   3.361
  349TIP3    H2  991   7.798   3.425   3.303
  350TIP3   OH2  992   1.900   3.327   5.285
  350TIP3    H1  993   1.860   3.245   5.255
  350TIP3    H2  994   1.855   3.347   5.367
  351TIP3   OH2  995   7.360   6.485   3.538
  351TIP3    H1  996   7.450   6.502   3.567
  351TIP3    H2  997   7.310   6.561   3.566
  352TIP3   OH2  998   6.727   6.177   6.533
  352TIP3    H1  999   6.801   6.121   6.506
  352TIP3    H2 1000   6.650   6.131   6.501
  353TIP3   OH2 1001   5.919   1.343   0.045
  353TIP3    H1 1002   5.857   1.302  -0.015
  353TIP3    H2 1003   5.878   1.425   0.069
  354TIP3   OH2 1004   0.328   5.081   1.839
  354TIP3    H1 1005   0.413   5.081   1.795
  354TIP3    H2 1006   0.340   5.022   1.914
  355TIP3   OH2 1007   8.007   2.078   3.662
  355TIP3    H1 1008   8.003   2.075   3.567
  355TIP3    H2 1009   8.060   2.001   3.686
  356TIP3   OH2 1010   7.318   1.339   2.312
  356TIP3    H1 1011   7.337   1.428   2.341
  356TIP3    H2 1012   7.259   1.350   2.238
  357TIP3   OH2 1013   0.740   2.499   4.756
  357TIP3    H1 1014   0.801   2.446   4.705
  357TIP3    H2 1015   0.693   2.435   4.810
  358TIP3   OH2 1016   3.338   2.539   3.994
  358TIP3    H1 1017   3.331   2.549   3.899
  358TIP3    H2 1018   3.254   2.568   4.028
  359TIP3   OH2 1019   0.781   2.384   0.665
  359TIP3    H1 1020   0.837   2.455   0.696
  359TIP3    H2 1021   0.784   2.318   0.735
  360TIP3   OH2 1022   3.710   2.101   3.628
  360TIP3    H1 1023   3.683   2.187   3.659
  360TIP3    H2 1024   3.718   2.047   3.707
  361TIP3   OH2 1025   5.656   2.931   0.607
  361TIP3    H1 1026   5.682   3.022   0.615
  361TIP3    H2 1027   5.641   2.902   0.698
  362TIP3   OH2 1028   5.627   5.701   5.718
  362TIP3    H1 1029   5.641   5.731   5.628
  362TIP3    H2 1030   5.641   5.607   5.714
  363TIP3   OH2 1031   3.639   3.017   3.819
  363TIP3    H1 1032   3.564   3.021   3.759
  363TIP3    H2 1033   3.604   2.976   3.898
  364TIP3   OH2 1034   3.865   5.024   2.115
  364TIP3    H1 1035   3.894   4.940   2.079
  364TIP3    H2 1036   3.818   5.001   2.195
  365TIP3   OH2 1037   3.298   6.640   2.157
  365TIP3    H1 1038   3.273   6.565   2.102
  365TIP3    H2 1039   3.232   6.641   2.226
  366TIP3   OH2 1040   1.876   0.399   0.322
  366TIP3    H1 1041   1.914   0.356   0.245
  366TIP3    H2 1042   1.786   0.365   0.325
  367TIP3   OH2 1043   1.009   6.546   1.992
  367TIP3    H1 1044   1.043   6.458   2.008
  367TIP3    H2 1045   1.045   6.571   1.907
  368TIP3   OH2 1046   1.039   1.737   4.339
  368TIP3    H1 1047   1.011   1.828   4.324
  368TIP3    H2 1048   1.063   1.705   4.253
  369TIP3   OH2 1049   2.458   5.347   1.191
  369TIP3    H1 1050   2.396   5.410   1.154
  369TIP3    H2 1051   2.487   5.388   1.273
  370TIP3   OH2 1052   4.924   3.058   6.769
  370TIP3    H1 1053   5.019   3.054   6.758
  370TIP3    H2 1054   4.889   3.020   6.689
  371TIP3   OH2 1055   2.561   2.415   3.170
  371TIP3    H1 1056   2.590   2.460   3.249
  371TIP3    H2 1057   2.508   2.479   3.123
  372TIP3   OH2 1058   6.392   7.384   5.330
  372TIP3    H1 1059   6.387   7.341   5.245
  372TIP3    H2 1060   6.321   7.346   5.381
  373TIP3   OH2 1061   2.629   1.571   4.666
  373TIP3    H1 1062   2.655   1.601   4.753
  373TIP3    H2 1063   2.619   1.652   4.615
  374TIP3   OH2 1064   1.755   1.435   6.173
  374TIP3    H1 1065   1.678   1.489   6.158
  374TIP3    H2 1066   1.762   1.429   6.269
  375TIP3   OH2 1067   1.506   4.780   2.085
  375TIP3    H1 1068   1.584   4.789   2.030
  375TIP3    H2 1069   1.530   4.819   2.169
  376TIP3   OH2 1070   7.823   6.780   3.835
  376TIP3    H1 1071   7.763   6.822   3.897
  376TIP3    H2 1072   7.864   6.854   3.789
  377TIP3   OH2 1073   0.032   2.204   2.141
  377TIP3    H1 1074   0.091   2.230   2.212
  377TIP3    H2 1075   0.091   2.178   2.070
  378TIP3   OH2 1076   7.997   6.583   0.074
  378TIP3    H1 1077   8.000   6.511   0.011
  378TIP3    H2 1078   8.082   6.582   0.117
  379TIP3   OH2 1079   5.693   1.258   5.861
  379TIP3    H1 1080   5.761   1.324   5.877
  379TIP3    H2 1081   5.738   1.189   5.812
  380TIP3   OH2 1082   7.354   3.557   2.555
  380TIP3    H1 1083   7.341   3.597   2.641
  380TIP3    H2 1084   7.385   3.630   2.500
  381TIP3   OH2 1085   5.123   4.126   5.862
  381TIP3    H1 1086   5.054   4.191   5.876
  381TIP3    H2 1087   5.203   4.168   5.895
  382TIP3   OH2 1088   1.967   5.430   2.584
  382TIP3    H1 1089   2.007   5.346   2.608
  382TIP3    H2 1090   1.907   5.450   2.655
  383TIP3   OH2 1091   7.297   1.747   2.040
  383TIP3    H1 1092   7.346   1.813   2.088
  383TIP3    H2 1093   7.207   1.755   2.073
  384TIP3   OH2 1094   5.298   7.351   0.576
  384TIP3    H1 1095   5.363   7.418   0.554
  384TIP3    H2 1096   5.216   7.398   0.585
  385TIP3   OH2 1097   1.048   6.513   5.163
  385TIP3    H1 1098   1.097   6.593   5.143
  385TIP3    H2 1099   0.957   6.536   5.146
  386TIP3   OH2 1100   2.913   5.222   5.619
  386TIP3    H1 1101   2.949   5.292   5.673
  386TIP3    H2 1102   2.976   5.151   5.626
  387TIP3   OH2 1103   6.703   7.418   6.654
  387TIP3    H1 1104   6.754   7.490   6.617
  387TIP3    H2 1105   6.638   7.397   6.586
  388TIP3   OH2 1106   3.835   6.198   2.758
  388TIP3    H1 1107   3.891   6.205   2.681
  388TIP3    H2 1108   3.755   6.246   2.734
  389TIP3   OH2 1109   5.205   4.608   0.316
  389TIP3    H1 1110   5.267   4.582   0.248
  389TIP3    H2 1111   5.209   4.704   0.316
  390TIP3   OH2 1112   1.062   1.390   1.973
  390TIP3    H1 1113   1.114   1.322   1.930
  390TIP3    H2 1114   0.971   1.369   1.950
  391TIP3   OH2 1115   0.144   4.307   4.983
  391TIP3    H1 1116   0.219   4.252   5.006
  391TIP3    H2 1117   0.183   4.381   4.937
  392TIP3   OH2 1118   6.582   2.368   3.542
  392TIP3    H1 1119   6.536   2.421   3.477
  392TIP3    H2 1120   6.515   2.346   3.607
  393TIP3   OH2 1121   2.114   0.243   5.200
  393TIP3    H1 1122   2.068   0.310   5.149
  393TIP3    H2 1123   2.133   0.286   5.283
  394TIP3   OH2 1124   3.188   4.772   4.357
  394TIP3    H1 1125   3.208   4.685   4.323
  394TIP3    H2 1126   3.257   4.828   4.320
  395TIP3   OH2 1127   5.596   4.601   4.888
  395TIP3    H1 1128   5.503   4.614   4.903
  395TIP3    H2 1129   5.633   4.689   4.883
  396TIP3   OH2 1130   6.083   6.282   0.931
  396TIP3    H1 1131   6.119   6.315   0.849
  396TIP3    H2 1132   6.155   6.288   0.994
  397TIP3   OH2 1133   0.173   0.506   4.129
  397TIP3    H1 1134   0.252   0.463   4.162
  397TIP3    H2 1135   0.118   0.518   4.206
  398TIP3   OH2 1136   5.200   0.444   2.134
  398TIP3    H1 1137   5.201   0.439   2.230
  398TIP3    H2 1138   5.275   0.500   2.113
  399TIP3   OH2 1139   0.550   1.092   4.465
  399TIP3    H1 1140   0.542   1.017   4.407
  399TIP3    H2 1141   0.478   1.081   4.528
  400TIP3   OH2 1142   6.433   3.103   5.604
  400TIP3    H1 1143   6.423   3.066   5.692
  400TIP3    H2 1144   6.525   3.127   5.598
  401TIP3   OH2 1145   6.015   5.300   4.586
  401TIP3    H1 1146   6.079   5.273   4.652
  401TIP3    H2 1147   5.963   5.367   4.629
  402TIP3   OH2 1148   5.939   6.794   5.124
  402TIP3    H1 1149   5.868   6.778   5.062
  402TIP3    H2 1150   5.974   6.879   5.097
  403TIP3   OH2 1151   6.492   2.839   3.175
  403TIP3    H1 1152   6.528   2.927   3.159
  403TIP3    H2 1153   6.401   2.854   3.199
  404TIP3   OH2 1154   5.701   1.376   1.204
  404TIP3    H1 1155   5.663   1.455   1.244
  404TIP3    H2 1156   5.661   1.373   1.117
  405TIP3   OH2 1157   3.466   0.453   5.726
  405TIP3    H1 1158   3.415   0.532   5.742
  405TIP3    H2 1159   3.537   0.456   5.790
  406TIP3   OH2 1160   2.117   7.513   4.522
  406TIP3    H1 1161   2.058   7.443   4.549
  406TIP3    H2 1162   2.194   7.502   4.577
  407TIP3   OH2 1163   1.102   2.628   3.299
  407TIP3    H1 1164   1.176   2.656   3.245
  407TIP3    H2 1165   1.117   2.670   3.384
  408TIP3   OH2 1166   1.892   2.295   1.737
  408TIP3    H1 1167   1.983   2.293   1.766
  408TIP3    H2 1168   1.895   2.339   1.652
  409TIP3   OH2 1169   7.836   5.491   0.535
  409TIP3    H1 1170   7.779   5.414   0.535
  409TIP3    H2 1171   7.813   5.537   0.455
  410TIP3   OH2 1172   5.799   5.502   1.670
  410TIP3    H1 1173   5.769   5.448   1.597
  410TIP3    H2 1174   5.735   5.573   1.675
  411TIP3   OH2 1175   6.348   2.856   5.351
  411TIP3    H1 1176   6.320   2.812   5.432
  411TIP3    H2 1177   6.326   2.948   5.366
  412TIP3   OH2 1178   5.439   6.231   0.100
  412TIP3    H1 1179   5.378   6.226   0.174
  412TIP3    H2 1180   5.512   6.283   0.134
  413TIP3   OH2 1181   4.963   3.276   0.124
  413TIP3    H1 1182   5.018   3.202   0.100
  413TIP3    H2 1183   4.874   3.241   0.122
  414TIP3   OH2 1184   5.025   4.675   5.733
  414TIP3    H1 1185   5.118   4.673   5.752
  414TIP3    H2 1186   5.020   4.703   5.641
  415TIP3   OH2 1187   4.423   3.520   0.848
  415TIP3    H1 1188   4.444   3.452   0.912
  415TIP3    H2 1189   4.354   3.572   0.889
  416TIP3   OH2 1190   6.396   3.170   6.531
  416TIP3    H1 1191   6.374   3.232   6.601
  416TIP3    H2 1192   6.417   3.089   6.577
  417TIP3   OH2 1193   7.923   0.657   3.044
  417TIP3    H1 1194   7.969   0.738   3.021
  417TIP3    H2 1195   7.989   0.588   3.032
  418TIP3   OH2 1196   3.377   1.534   4.717
  418TIP3    H1 1197   3.433   1.485   4.657
  418TIP3    H2 1198   3.303   1.562   4.664
  419TIP3   OH2 1199   3.327   7.510   1.216
  419TIP3    H1 1200   3.258   7.472   1.162
  419TIP3    H2 1201   3.281   7.559   1.284
  420TIP3   OH2 1202   2.894   1.997   2.159
  420TIP3    H1 1203   2.968   1.971   2.214
  420TIP3    H2 1204   2.831   2.035   2.220
  421TIP3   OH2 1205   3.607   3.036   0.697
  421TIP3    H1 1206   3.629   2.943   0.695
  421TIP3    H2 1207   3.653   3.070   0.774
  422TIP3   OH2 1208   2.236   0.844   5.778
  422TIP3    H1 1209   2.169   0.886   5.832
  422TIP3    H2 1210   2.186   0.787   5.719
  423TIP3   OH2 1211   1.338   6.390   3.203
  423TIP3    H1 1212   1.281   6.453   3.160
  423TIP3    H2 1213   1.373   6.336   3.132
  424TIP3   OH2 1214   6.666   2.985   0.406
  424TIP3    H1 1215   6.735   3.047   0.430
  424TIP3    H2 1216   6.694   2.948   0.323
  425TIP3   OH2 1217   4.093   3.805   0.159
  425TIP3    H1 1218   4.045   3.887   0.155
  425TIP3    H2 1219   4.025   3.737   0.159
  426TIP3   OH2 1220   6.907   7.283   0.923
  426TIP3    H1 1221   6.817   7.293   0.891
  426TIP3    H2 1222   6.924   7.362   0.973
  427TIP3   OH2 1223   0.408   7.029   5.404
  427TIP3    H1 1224   0.391   7.034   5.310
  427TIP3    H2 1225   0.492   7.075   5.415
  428TIP3   OH2 1226   7.717   5.615   3.576
  428TIP3    H1 1227   7.624   5.609   3.552
  428TIP3    H2 1228   7.755   5.532   3.546
  429TIP3   OH2 1229   1.803   0.190   4.543
  429TIP3    H1 1230   1.874   0.148   4.592
  429TIP3    H2 1231   1.773   0.123   4.482
  430TIP3   OH2 1232   7.427   7.401   6.353
  430TIP3    H1 1233   7.396   7.311   6.367
  430TIP3    H2 1234   7.423   7.413   6.258
  431TIP3   OH2 1235   8.081   4.016   4.427
  431TIP3    H1 1236   8.109   3.932   4.391
  431TIP3    H2 1237   8.049   4.065   4.352
  432TIP3   OH2 1238   8.102   0.597   5.142
  432TIP3    H1 1239   8.059   0.678   5.169
  432TIP3    H2 1240   8.155   0.622   5.067
  433TIP3   OH2 1241   8.120   5.705   5.087
  433TIP3    H1 1242   8.160   5.620   5.104
  433TIP3    H2 1243   8.061   5.719   5.160
  434TIP3   OH2 1244   5.563   1.652   2.954
  434TIP3    H1 1245   5.474   1.619   2.947
  434TIP3    H2 1246   5.553   1.745   2.975
  435TIP3   OH2 1247   6.029   5.933   6.141
  435TIP3    H1 1248   5.947   5.982   6.141
  435TIP3    H2 1249   6.078   5.967   6.066
  436TIP3   OH2 1250   6.089   2.262   6.775
  436TIP3    H1 1251   6.182   2.268   6.751
  436TIP3    H2 1252   6.080   2.176   6.816
  437TIP3   OH2 1253   5.786   0.932   0.314
  437TIP3    H1 1254   5.781   0.867   0.244
  437TIP3    H2 1255   5.719   0.997   0.291
  438TIP3   OH2 1256   5.075   1.005   4.783
  438TIP3    H1 1257   5.018   0.987   4.858
  438TIP3    H2 1258   5.076   0.923   4.734
  439TIP3   OH2 1259   2.401   4.209   1.419
  439TIP3    H1 1260   2.492   4.228   1.398
  439TIP3    H2 1261   2.357   4.294   1.410
  440TIP3   OH2 1262   1.432   3.895   6.471
  440TIP3    H1 1263   1.447   3.983   6.438
  440TIP3    H2 1264   1.495   3.885   6.543
  441TIP3   OH2 1265   2.350   0.107   3.815
  441TIP3    H1 1266   2.361   0.201   3.825
  441TIP3    H2 1267   2.439   0.074   3.799
  442TIP3   OH2 1268   7.154   2.990   2.514
  442TIP3    H1 1269   7.059   3.001   2.511
  442TIP3    H2 1270   7.177   2.957   2.428
  443TIP3   OH2 1271   3.760   0.978   2.766
  443TIP3    H1 1272   3.709   1.060   2.759
  443TIP3    H2 1273   3.799   0.981   2.853
  444TIP3   OH2 1274   7.030   7.337   3.201
  444TIP3    H1 1275   7.026   7.345   3.296
  444TIP3    H2 1276   7.020   7.243   3.184
  445TIP3   OH2 1277   2.742   6.744   2.107
  445TIP3    H1 1278   2.774   6.771   2.193
  445TIP3    H2 1279   2.816   6.757   2.048
  446TIP3   OH2 1280   3.053   1.722   6.505
  446TIP3    H1 1281   3.072   1.682   6.590
  446TIP3    H2 1282   3.119   1.791   6.495
  447TIP3   OH2 1283   6.160   7.223   0.768
  447TIP3    H1 1284   6.166   7.130   0.747
  447TIP3    H2 1285   6.148   7.267   0.684
  448TIP3   OH2 1286   4.195   2.508   2.283
  448TIP3    H1 1287   4.255   2.537   2.351
  448TIP3    H2 1288   4.155   2.428   2.318
  449TIP3   OH2 1289   3.968   7.011   6.307
  449TIP3    H1 1290   3.908   6.938   6.293
  449TIP3    H2 1291   4.013   6.990   6.389
  450TIP3   OH2 1292   3.820   1.471   0.937
  450TIP3    H1 1293   3.730   1.484   0.905
  450TIP3    H2 1294   3.822   1.516   1.021
  451TIP3   OH2 1295   4.369   7.053   4.978
  451TIP3    H1 1296   4.399   7.107   4.905
  451TIP3    H2 1297   4.294   7.005   4.943
  452TIP3   OH2 1298   6.509   4.415   2.310
  452TIP3    H1 1299   6.435   4.405   2.371
  452TIP3    H2 1300   6.504   4.506   2.281
  453TIP3   OH2 1301   3.438   1.291   1.619
  453TIP3    H1 1302   3.429   1.343   1.699
  453TIP3    H2 1303   3.438   1.200   1.648
  454TIP3   OH2 1304   4.749   5.590   1.589
  454TIP3    H1 1305   4.743   5.666   1.648
  454TIP3    H2 1306   4.672   5.537   1.612
  455TIP3   OH2 1307   2.361   5.714   3.563
  455TIP3    H1 1308   2.269   5.690   3.579
  455TIP3    H2 1309   2.383   5.772   3.636
  456TIP3   OH2 1310   5.912   0.660   2.127
  456TIP3    H1 1311   5.911   0.652   2.222
  456TIP3    H2 1312   5.991   0.710   2.108
  457TIP3   OH2 1313   7.625   7.603   3.886
  457TIP3    H1 1314   7.710   7.632   3.919
  457TIP3    H2 1315   7.643   7.574   3.797
  458TIP3   OH2 1316   3.093   4.001   2.330
  458TIP3    H1 1317   3.010   4.033   2.364
  458TIP3    H2 1318   3.102   4.044   2.244
  459TIP3   OH2 1319   0.213   6.724   1.708
  459TIP3    H1 1320   0.130   6.765   1.687
  459TIP3    H2 1321   0.263   6.792   1.754
  460TIP3   OH2 1322   0.755   0.145   0.737
  460TIP3    H1 1323   0.699   0.093   0.679
  460TIP3    H2 1324   0.712   0.230   0.741
  461TIP3   OH2 1325   2.738   2.983   1.377
  461TIP3    H1 1326   2.745   3.022   1.463
  461TIP3    H2 1327   2.646   2.956   1.370
  462TIP3   OH2 1328   4.130   2.135   4.681
  462TIP3    H1 1329   4.142   2.156   4.588
  462TIP3    H2 1330   4.174   2.051   4.693
  463TIP3   OH2 1331   6.954   5.615   0.402
  463TIP3    H1 1332   6.919   5.556   0.469
  463TIP3    H2 1333   7.039   5.577   0.378
  464TIP3   OH2 1334   6.113   4.813   2.026
  464TIP3    H1 1335   6.084   4.754   1.956
  464TIP3    H2 1336   6.082   4.771   2.107
  465TIP3   OH2 1337   3.151   1.403   3.933
  465TIP3    H1 1338   3.147   1.422   3.839
  465TIP3    H2 1339   3.232   1.352   3.943
  466TIP3   OH2 1340   5.965   1.431   0.578
  466TIP3    H1 1341   5.998   1.483   0.505
  466TIP3    H2 1342   6.043   1.403   0.626
  467TIP3   OH2 1343   7.488   4.693   0.244
  467TIP3    H1 1344   7.529   4.626   0.299
  467TIP3    H2 1345   7.559   4.752   0.221
  468TIP3   OH2 1346   0.725   4.400   5.780
  468TIP3    H1 1347   0.662   4.424   5.712
  468TIP3    H2 1348   0.675   4.346   5.841
  469TIP3   OH2 1349   3.236   2.320   5.686
  469TIP3    H1 1350   3.144   2.294   5.683
  469TIP3    H2 1351   3.251   2.368   5.605
  470TIP3   OH2 1352   2.037   3.529   2.940
  470TIP3    H1 1353   2.110   3.589   2.923
  470TIP3    H2 1354   2.039   3.467   2.867
  471TIP3   OH2 1355   3.337   4.417   5.989
  471TIP3    H1 1356   3.409   4.450   6.043
  471TIP3    H2 1357   3.347   4.322   5.992
  472TIP3   OH2 1358   8.293   7.834   0.334
  472TIP3    H1 1359   8.365   7.788   0.290
  472TIP3    H2 1360   8.332   7.917   0.363
  473TIP3   OH2 1361   3.481   2.023   1.713
  473TIP3    H1 1362   3.498   2.028   1.807
  473TIP3    H2 1363   3.388   2.004   1.707
  474TIP3   OH2 1364   0.095   1.225   1.206
  474TIP3    H1 1365   0.136   1.282   1.272
  474TIP3    H2 1366   0.168   1.176   1.168
  475TIP3   OH2 1367   3.559   3.650   4.660
  475TIP3    H1 1368   3.606   3.716   4.711
  475TIP3    H2 1369   3.522   3.591   4.727
  476TIP3   OH2 1370   5.310   6.274   1.238
  476TIP3    H1 1371   5.403   6.261   1.254
  476TIP3    H2 1372   5.278   6.190   1.207
  477TIP3   OH2 1373   5.190   3.776   5.048
  477TIP3    H1 1374   5.172   3.838   4.978
  477TIP3    H2 1375   5.200   3.691   5.003
  478TIP3   OH2 1376   7.266   3.190   1.942
  478TIP3    H1 1377   7.341   3.218   1.890
  478TIP3    H2 1378   7.197   3.253   1.920
  479TIP3   OH2 1379   7.432   1.204   4.654
  479TIP3    H1 1380   7.376   1.227   4.727
  479TIP3    H2 1381   7.431   1.108   4.652
  480TIP3   OH2 1382   0.066   7.269   2.975
  480TIP3    H1 1383  -0.018   7.231   2.998
  480TIP3    H2 1384   0.051   7.309   2.889
  481TIP3   OH2 1385   1.903   4.014   3.639
  481TIP3    H1 1386   1.945   3.942   3.685
  481TIP3    H2 1387   1.810   3.990   3.636
  482TIP3   OH2 1388   5.466   2.700   3.822
  482TIP3    H1 1389   5.398   2.693   3.755
  482TIP3    H2 1390   5.538   2.745   3.777
  483TIP3   OH2 1391   4.784   6.448   0.931
  483TIP3    H1 1392   4.879   6.459   0.929
  483TIP3    H2 1393   4.753   6.494   0.853
  484TIP3   OH2 1394   5.519   0.953   3.330
  484TIP3    H1 1395   5.526   0.868   3.287
  484TIP3    H2 1396   5.609   0.983   3.341
  485TIP3   OH2 1397   5.023   4.744   4.947
  485TIP3    H1 1398   4.981   4.683   4.887
  485TIP3    H2 1399   5.006   4.707   5.034
  486TIP3   OH2 1400   2.867   2.201   6.715
  486TIP3    H1 1401   2.826   2.217   6.800
  486TIP3    H2 1402   2.906   2.114   6.723
  487TIP3   OH2 1403   5.538   6.638   1.724
  487TIP3    H1 1404   5.557   6.552   1.761
  487TIP3    H2 1405   5.446   6.653   1.744
  488TIP3   OH2 1406   6.637   3.528   1.377
  488TIP3    H1 1407   6.613   3.620   1.382
  488TIP3    H2 1408   6.710   3.519   1.439
  489TIP3   OH2 1409   1.248   5.110   3.191
  489TIP3    H1 1410   1.340   5.120   3.214
  489TIP3    H2 1411   1.220   5.031   3.237
  490TIP3   OH2 1412   1.239   2.832   4.556
  490TIP3    H1 1413   1.186   2.854   4.479
  490TIP3    H2 1414   1.245   2.914   4.605
  491TIP3   OH2 1415   3.021   3.778   1.011
  491TIP3    H1 1416   3.073   3.785   1.091
  491TIP3    H2 1417   3.003   3.684   1.002
  492TIP3   OH2 1418   4.567   2.382   2.020
  492TIP3    H1 1419   4.603   2.349   2.102
  492TIP3    H2 1420   4.640   2.430   1.980
  493TIP3   OH2 1421   5.960   6.721   2.802
  493TIP3    H1 1422   5.879   6.670   2.808
  493TIP3    H2 1423   6.013   6.688   2.875
  494TIP3   OH2 1424   2.305   6.775   3.524
  494TIP3    H1 1425   2.220   6.742   3.552
  494TIP3    H2 1426   2.310   6.863   3.562
  495TIP3   OH2 1427   0.936   0.269   0.589
  495TIP3    H1 1428   0.896   0.353   0.569
  495TIP3    H2 1429   0.887   0.235   0.664
  496TIP3   OH2 1430   1.427   7.718   3.912
  496TIP3    H1 1431   1.412   7.798   3.863
  496TIP3    H2 1432   1.468   7.658   3.850
  497TIP3   OH2 1433   4.814   2.213   1.074
  497TIP3    H1 1434   4.840   2.172   1.156
  497TIP3    H2 1435   4.747   2.154   1.038
  498TIP3   OH2 1436   6.533   1.560   6.283
  498TIP3    H1 1437   6.579   1.625   6.228
  498TIP3    H2 1438   6.443   1.593   6.288
  499TIP3   OH2 1439   4.383   4.709   1.275
  499TIP3    H1 1440   4.356   4.701   1.366
  499TIP3    H2 1441   4.305   4.687   1.225
  500TIP3   OH2 1442   1.124   4.055   1.623
  500TIP3    H1 1443   1.047   4.002   1.603
  500TIP3    H2 1444   1.154   4.088   1.538
  501TIP3   OH2 1445   2.661   5.105   3.129
  501TIP3    H1 1446   2.590   5.044   3.108
  501TIP3    H2 1447   2.644   5.130   3.220
  502TIP3   OH2 1448   0.770   5.617   5.248
  502TIP3    H1 1449   0.823   5.640   5.324
  502TIP3    H2 1450   0.809   5.537   5.215
  503TIP3   OH2 1451   5.306   6.794   1.269
  503TIP3    H1 1452   5.341   6.742   1.341
  503TIP3    H2 1453   5.332   6.884   1.290
  504TIP3   OH2 1454   1.483   1.446   1.680
  504TIP3    H1 1455   1.556   1.459   1.619
  504TIP3    H2 1456   1.501   1.360   1.720
  505TIP3   OH2 1457   7.182   1.110   0.144
  505TIP3    H1 1458   7.260   1.055   0.151
  505TIP3    H2 1459   7.199   1.167   0.069
  506TIP3   OH2 1460   4.280   6.921   3.690
  506TIP3    H1 1461   4.270   6.993   3.753
  506TIP3    H2 1462   4.267   6.962   3.605
  507TIP3   OH2 1463   8.259   5.473   0.108
  507TIP3    H1 1464   8.263   5.384   0.143
  507TIP3    H2 1465   8.193   5.468   0.039
  508TIP3   OH2 1466   1.232   7.432   1.579
  508TIP3    H1 1467   1.312   7.431   1.633
  508TIP3    H2 1468   1.170   7.377   1.627
  509TIP3   OH2 1469   4.531   7.560   4.296
  509TIP3    H1 1470   4.456   7.595   4.343
  509TIP3    H2 1471   4.494   7.518   4.218
  510TIP3   OH2 1472   2.207   0.979   6.141
  510TIP3    H1 1473   2.216   1.022   6.056
  510TIP3    H2 1474   2.272   0.908   6.139
  511TIP3   OH2 1475   6.012   3.356   4.570
  511TIP3    H1 1476   6.084   3.365   4.633
  511TIP3    H2 1477   6.019   3.434   4.515
  512TIP3   OH2 1478   4.706   6.832   6.695
  512TIP3    H1 1479   4.701   6.925   6.716
  512TIP3    H2 1480   4.648   6.821   6.620
  513TIP3   OH2 1481   7.243   5.188   1.188
  513TIP3    H1 1482   7.214   5.278   1.205
  513TIP3    H2 1483   7.221   5.173   1.097
  514TIP3   OH2 1484   0.544   5.032   1.045
  514TIP3    H1 1485   0.612   5.053   0.981
  514TIP3    H2 1486   0.469   5.005   0.992
  515TIP3   OH2 1487   5.096   5.647   6.331
  515TIP3    H1 1488   5.145   5.569   6.302
  515TIP3    H2 1489   5.044   5.672   6.255
  516TIP3   OH2 1490   2.815   6.105   5.461
  516TIP3    H1 1491   2.841   6.178   5.517
  516TIP3    H2 1492   2.792   6.035   5.522
  517TIP3   OH2 1493   4.659   3.607   5.072
  517TIP3    H1 1494   4.641   3.693   5.109
  517TIP3    H2 1495   4.753   3.608   5.052
  518TIP3   OH2 1496   6.986   5.309   5.194
  518TIP3    H1 1497   6.954   5.395   5.167
  518TIP3    H2 1498   6.931   5.247   5.147
  519TIP3   OH2 1499   0.483   3.216   6.110
  519TIP3    H1 1500   0.573   3.183   6.110
  519TIP3    H2 1501   0.477   3.270   6.031
  520TIP3   OH2 1502   1.136   6.497   2.497
  520TIP3    H1 1503   1.092   6.465   2.418
  520TIP3    H2 1504   1.214   6.542   2.465
  521TIP3   OH2 1505   3.408   1.817   2.786
  521TIP3    H1 1506   3.386   1.801   2.694
  521TIP3    H2 1507   3.483   1.876   2.783
  522TIP3   OH2 1508   3.101   0.897   2.171
  522TIP3    H1 1509   3.167   0.828   2.181
  522TIP3    H2 1510   3.052   0.895   2.253
  523TIP3   OH2 1511   1.561   0.431   0.708
  523TIP3    H1 1512   1.551   0.372   0.782
  523TIP3    H2 1513   1.477   0.475   0.700
  524TIP3   OH2 1514   5.030   4.231   3.210
  524TIP3    H1 1515   5.076   4.230   3.294
  524TIP3    H2 1516   4.942   4.262   3.231
  525TIP3   OH2 1517   5.926   2.632   2.608
  525TIP3    H1 1518   5.949   2.540   2.622
  525TIP3    H2 1519   5.933   2.672   2.694
  526TIP3   OH2 1520   0.857   6.036   5.451
  526TIP3    H1 1521   0.925   6.064   5.390
  526TIP3    H2 1522   0.790   6.104   5.445
  527TIP3   OH2 1523   2.657   6.462   0.930
  527TIP3    H1 1524   2.615   6.518   0.865
  527TIP3    H2 1525   2.727   6.418   0.881
  528TIP3   OH2 1526   8.243   7.741   4.058
  528TIP3    H1 1527   8.284   7.732   3.972
  528TIP3    H2 1528   8.208   7.830   4.059
  529TIP3   OH2 1529   5.411   3.864   3.079
  529TIP3    H1 1530   5.495   3.828   3.109
  529TIP3    H2 1531   5.393   3.937   3.139
  530TIP3   OH2 1532   6.979   6.855   4.922
  530TIP3    H1 1533   7.041   6.886   4.989
  530TIP3    H2 1534   6.908   6.918   4.925
  531TIP3   OH2 1535   6.524   6.726   5.743
  531TIP3    H1 1536   6.597   6.666   5.726
  531TIP3    H2 1537   6.561   6.794   5.799
  532TIP3   OH2 1538   5.009   6.277   4.833
  532TIP3    H1 1539   4.973   6.265   4.921
  532TIP3    H2 1540   4.999   6.191   4.791
  533TIP3   OH2 1541   3.098   6.042   3.600
  533TIP3    H1 1542   3.115   6.133   3.573
  533TIP3    H2 1543   3.167   5.991   3.557
  534TIP3   OH2 1544   0.985   4.241   5.231
  534TIP3    H1 1545   1.009   4.302   5.161
  534TIP3    H2 1546   1.069   4.210   5.266
  535TIP3   OH2 1547   0.609   0.760   3.603
  535TIP3    H1 1548   0.534   0.780   3.547
  535TIP3    H2 1549   0.676   0.823   3.578
  536TIP3   OH2 1550   6.560   0.714   6.455
  536TIP3    H1 1551   6.500   0.641   6.439
  536TIP3    H2 1552   6.639   0.691   6.406
  537TIP3   OH2 1553   4.785   2.699   0.928
  537TIP3    H1 1554   4.690   2.695   0.922
  537TIP3    H2 1555   4.804   2.786   0.963
  538TIP3   OH2 1556   8.064   3.281   0.346
  538TIP3    H1 1557   8.067   3.336   0.268
  538TIP3    H2 1558   8.124   3.209   0.328
  539TIP3   OH2 1559   7.191   2.541   0.386
  539TIP3    H1 1560   7.131   2.601   0.430
  539TIP3    H2 1561   7.189   2.462   0.440
  540TIP3   OH2 1562   3.577   6.747   4.481
  540TIP3    H1 1563   3.515   6.818   4.499
  540TIP3    H2 1564   3.642   6.786   4.423
  541TIP3   OH2 1565   8.122   7.856   2.209
  541TIP3    H1 1566   8.147   7.836   2.119
  541TIP3    H2 1567   8.089   7.774   2.245
  542TIP3   OH2 1568   2.457   4.396   6.126
  542TIP3    H1 1569   2.419   4.410   6.039
  542TIP3    H2 1570   2.472   4.302   6.131
  543TIP3   OH2 1571   4.480   6.144   0.525
  543TIP3    H1 1572   4.518   6.112   0.607
  543TIP3    H2 1573   4.555   6.176   0.475
  544TIP3   OH2 1574   3.256   0.094   2.264
  544TIP3    H1 1575   3.280   0.165   2.324
  544TIP3    H2 1576   3.317   0.103   2.191
  545TIP3   OH2 1577   0.321   7.533   3.785
  545TIP3    H1 1578   0.258   7.504   3.719
  545TIP3    H2 1579   0.307   7.628   3.793
  546TIP3   OH2 1580   4.553   5.729   2.888
  546TIP3    H1 1581   4.498   5.736   2.810
  546TIP3    H2 1582   4.493   5.742   2.961
  547TIP3   OH2 1583   6.628   4.303   5.405
  547TIP3    H1 1584   6.590   4.272   5.487
  547TIP3    H2 1585   6.705   4.354   5.432
  548TIP3   OH2 1586   6.970   5.067   0.380
  548TIP3    H1 1587   6.926   5.052   0.464
  548TIP3    H2 1588   6.938   4.996   0.324
  549TIP3   OH2 1589   3.748   3.003   4.188
  549TIP3    H1 1590   3.732   2.937   4.121
  549TIP3    H2 1591   3.764   3.084   4.139
  550TIP3   OH2 1592   6.307   4.908   6.626
  550TIP3    H1 1593   6.375   4.857   6.582
  550TIP3    H2 1594   6.324   4.999   6.600
  551TIP3   OH2 1595   0.945   5.458   3.381
  551TIP3    H1 1596   0.867   5.476   3.434
  551TIP3    H2 1597   0.918   5.388   3.322
  552TIP3   OH2 1598   7.646   0.504   6.379
  552TIP3    H1 1599   7.679   0.421   6.412
  552TIP3    H2 1600   7.651   0.564   6.453
  553TIP3   OH2 1601   7.582   7.394   1.277
  553TIP3    H1 1602   7.569   7.367   1.186
  553TIP3    H2 1603   7.517   7.343   1.326
  554TIP3   OH2 1604   4.496   0.903   0.857
  554TIP3    H1 1605   4.581   0.918   0.816
  554TIP3    H2 1606   4.433   0.938   0.794
  555TIP3   OH2 1607   6.336   5.713   5.137
  555TIP3    H1 1608   6.286   5.753   5.066
  555TIP3    H2 1609   6.291   5.631   5.155
  556TIP3   OH2 1610   8.295   3.264   6.640
  556TIP3    H1 1611   8.330   3.353   6.631
  556TIP3    H2 1612   8.279   3.235   6.551
  557TIP3   OH2 1613   0.626   4.215   0.419
  557TIP3    H1 1614   0.542   4.187   0.457
  557TIP3    H2 1615   0.666   4.134   0.388
  558TIP3   OH2 1616   7.550   7.394   4.093
  558TIP3    H1 1617   7.617   7.335   4.057
  558TIP3    H2 1618   7.579   7.481   4.066
  559TIP3   OH2 1619   2.796   2.769   1.147
  559TIP3    H1 1620   2.797   2.697   1.211
  559TIP3    H2 1621   2.865   2.829   1.177
  560TIP3   OH2 1622   2.821   6.091   3.599
  560TIP3    H1 1623   2.776   6.018   3.556
  560TIP3    H2 1624   2.911   6.059   3.610
  561TIP3   OH2 1625   7.463   1.248   4.387
  561TIP3    H1 1626   7.445   1.173   4.331
  561TIP3    H2 1627   7.472   1.211   4.475
  562TIP3   OH2 1628   3.050   6.285   1.181
  562TIP3    H1 1629   3.116   6.302   1.114
  562TIP3    H2 1630   2.993   6.219   1.141
  563TIP3   OH2 1631   6.118   1.843   5.974
  563TIP3    H1 1632   6.065   1.785   6.029
  563TIP3    H2 1633   6.132   1.794   5.893
  564TIP3   OH2 1634   3.227   7.019   4.143
  564TIP3    H1 1635   3.239   7.044   4.052
  564TIP3    H2 1636   3.305   7.052   4.188
  565TIP3   OH2 1637   0.207   3.467   5.868
  565TIP3    H1 1638   0.230   3.485   5.959
  565TIP3    H2 1639   0.291   3.471   5.821
  566TIP3   OH2 1640   1.666   4.321   3.168
  566TIP3    H1 1641   1.755   4.334   3.137
  566TIP3    H2 1642   1.634   4.409   3.187
  567TIP3   OH2 1643   1.635   2.607   0.578
  567TIP3    H1 1644   1.684   2.637   0.655
  567TIP3    H2 1645   1.577   2.539   0.611
  568TIP3   OH2 1646   1.462   1.517   4.059
  568TIP3    H1 1647   1.497   1.501   3.971
  568TIP3    H2 1648   1.509   1.595   4.090
  569TIP3   OH2 1649   7.821   0.294   0.119
  569TIP3    H1 1650   7.856   0.212   0.155
  569TIP3    H2 1651   7.811   0.276   0.026
  570TIP3   OH2 1652   2.400   2.140   3.756
  570TIP3    H1 1653   2.476   2.156   3.811
  570TIP3    H2 1654   2.331   2.112   3.816
  571TIP3   OH2 1655   7.481   2.872   0.272
  571TIP3    H1 1656   7.455   2.858   0.182
  571TIP3    H2 1657   7.398   2.879   0.321
  572TIP3   OH2 1658   3.735   1.073   5.355
  572TIP3    H1 1659   3.711   1.032   5.272
  572TIP3    H2 1660   3.784   1.152   5.330
  573TIP3   OH2 1661   3.245   3.098   5.969
  573TIP3    H1 1662   3.269   3.076   5.879
  573TIP3    H2 1663   3.152   3.079   5.975
  574TIP3   OH2 1664   4.241   2.190   1.564
  574TIP3    H1 1665   4.221   2.194   1.471
  574TIP3    H2 1666   4.171   2.135   1.601
  575TIP3   OH2 1667   5.645   6.427   0.131
  575TIP3    H1 1668   5.663   6.416   0.037
  575TIP3    H2 1669   5.679   6.514   0.151
  576TIP3   OH2 1670   2.226   3.366   5.017
  576TIP3    H1 1671   2.275   3.310   4.957
  576TIP3    H2 1672   2.277   3.447   5.021
  577TIP3   OH2 1673   4.803   0.952   3.120
  577TIP3    H1 1674   4.793   0.857   3.122
  577TIP3    H2 1675   4.724   0.983   3.076
  578TIP3   OH2 1676   3.609   1.712   3.551
  578TIP3    H1 1677   3.602   1.762   3.469
  578TIP3    H2 1678   3.577   1.772   3.618
  579TIP3   OH2 1679   0.304   2.266   5.783
  579TIP3    H1 1680   0.361   2.238   5.712
  579TIP3    H2 1681   0.360   2.263   5.861
  580TIP3   OH2 1682   2.901   5.070   4.856
  580TIP3    H1 1683   2.827   5.128   4.876
  580TIP3    H2 1684   2.924   5.092   4.765
  581TIP3   OH2 1685   7.032   2.823   1.631
  581TIP3    H1 1686   7.091   2.754   1.662
  581TIP3    H2 1687   7.048   2.896   1.691
  582TIP3   OH2 1688   0.140   3.865   2.371
  582TIP3    H1 1689   0.095   3.799   2.318
  582TIP3    H2 1690   0.101   3.948   2.344
  583TIP3   OH2 1691   2.581   7.277   5.720
  583TIP3    H1 1692   2.580   7.236   5.807
  583TIP3    H2 1693   2.555   7.368   5.737
  584TIP3   OH2 1694   3.847   5.818   4.816
  584TIP3    H1 1695   3.802   5.782   4.892
  584TIP3    H2 1696   3.850   5.746   4.753
  585TIP3   OH2 1697   5.082   6.251   0.610
  585TIP3    H1 1698   4.992   6.255   0.643
  585TIP3    H2 1699   5.075   6.275   0.517
  586TIP3   OH2 1700   2.321   1.574   6.641
  586TIP3    H1 1701   2.329   1.520   6.720
  586TIP3    H2 1702   2.317   1.664   6.675
  587TIP3   OH2 1703   0.637   6.599   1.807
  587TIP3    H1 1704   0.615   6.534   1.740
  587TIP3    H2 1705   0.552   6.628   1.841
  588TIP3   OH2 1706   3.561   5.715   1.651
  588TIP3    H1 1707   3.494   5.727   1.718
  588TIP3    H2 1708   3.512   5.711   1.569
  589TIP3   OH2 1709   3.492   3.886   2.465
  589TIP3    H1 1710   3.471   3.959   2.407
  589TIP3    H2 1711   3.570   3.914   2.512
  590TIP3   OH2 1712   7.907   6.192   4.988
  590TIP3    H1 1713   7.870   6.189   4.899
  590TIP3    H2 1714   7.884   6.279   5.021
  591TIP3   OH2 1715   4.061   6.787   1.957
  591TIP3    H1 1716   4.051   6.820   1.867
  591TIP3    H2 1717   3.984   6.820   2.003
  592TIP3   OH2 1718   7.136   3.028   4.206
  592TIP3    H1 1719   7.146   3.120   4.182
  592TIP3    H2 1720   7.054   3.025   4.256
  593TIP3   OH2 1721   5.913   5.793   4.412
  593TIP3    H1 1722   5.861   5.814   4.489
  593TIP3    H2 1723   5.914   5.873   4.361
  594TIP3   OH2 1724   2.752   5.866   3.083
  594TIP3    H1 1725   2.786   5.946   3.044
  594TIP3    H2 1726   2.816   5.842   3.150
  595TIP3   OH2 1727   4.200   1.996   6.004
  595TIP3    H1 1728   4.220   2.024   5.914
  595TIP3    H2 1729   4.285   1.975   6.042
  596TIP3   OH2 1730   0.613   4.361   0.679
  596TIP3    H1 1731   0.637   4.361   0.772
  596TIP3    H2 1732   0.663   4.289   0.641
  597TIP3   OH2 1733   6.261   7.105   3.778
  597TIP3    H1 1734   6.283   7.194   3.806
  597TIP3    H2 1735   6.340   7.074   3.732
  598TIP3   OH2 1736   2.142   2.276   1.814
  598TIP3    H1 1737   2.160   2.194   1.859
  598TIP3    H2 1738   2.228   2.315   1.798
  599TIP3   OH2 1739   4.487   2.077   3.220
  599TIP3    H1 1740   4.398   2.112   3.233
  599TIP3    H2 1741   4.520   2.123   3.143
  600TIP3   OH2 1742   4.612   4.467   3.581
  600TIP3    H1 1743   4.700   4.428   3.590
  600TIP3    H2 1744   4.621   4.527   3.507
  601TIP3   OH2 1745   6.884   6.309   4.240
  601TIP3    H1 1746   6.921   6.287   4.325
  601TIP3    H2 1747   6.957   6.297   4.178
  602TIP3   OH2 1748   1.758   6.029   2.717
  602TIP3    H1 1749   1.752   6.048   2.811
  602TIP3    H2 1750   1.784   5.937   2.713
  603TIP3   OH2 1751   1.757   7.255   5.404
  603TIP3    H1 1752   1.673   7.293   5.380
  603TIP3    H2 1753   1.821   7.306   5.354
  604TIP3   OH2 1754   2.557   4.182   3.994
  604TIP3    H1 1755   2.562   4.090   4.020
  604TIP3    H2 1756   2.501   4.223   4.060
  605TIP3   OH2 1757   3.991   5.162   3.220
  605TIP3    H1 1758   3.996   5.249   3.179
  605TIP3    H2 1759   3.943   5.109   3.156
  606TIP3   OH2 1760   0.387   3.800   4.903
  606TIP3    H1 1761   0.326   3.743   4.949
  606TIP3    H2 1762   0.466   3.747   4.893
  607TIP3   OH2 1763   2.401   6.982   4.177
  607TIP3    H1 1764   2.430   7.071   4.154
  607TIP3    H2 1765   2.470   6.925   4.144
  608TIP3   OH2 1766   0.634   1.392   6.431
  608TIP3    H1 1767   0.630   1.301   6.461
  608TIP3    H2 1768   0.550   1.430   6.457
  609TIP3   OH2 1769   5.121   3.122   4.547
  609TIP3    H1 1770   5.132   3.063   4.622
  609TIP3    H2 1771   5.181   3.088   4.481
  610TIP3   OH2 1772   7.319   5.666   5.380
  610TIP3    H1 1773   7.396   5.709   5.417
  610TIP3    H2 1774   7.300   5.594   5.440
  611TIP3   OH2 1775   5.525   6.822   5.997
  611TIP3    H1 1776   5.614   6.855   6.008
  611TIP3    H2 1777   5.519   6.801   5.904
  612TIP3   OH2 1778   8.100   0.075   6.492
  612TIP3    H1 1779   8.110   0.148   6.431
  612TIP3    H2 1780   8.009   0.082   6.522
  613TIP3   OH2 1781   6.306   2.541   0.684
  613TIP3    H1 1782   6.325   2.456   0.644
  613TIP3    H2 1783   6.306   2.603   0.611
  614TIP3   OH2 1784   7.158   0.753   0.193
  614TIP3    H1 1785   7.076   0.740   0.147
  614TIP3    H2 1786   7.210   0.676   0.172
  615TIP3   OH2 1787   2.543   4.059   2.581
  615TIP3    H1 1788   2.594   3.998   2.528
  615TIP3    H2 1789   2.596   4.072   2.660
  616TIP3   OH2 1790   7.062   4.876   4.786
  616TIP3    H1 1791   6.986   4.829   4.821
  616TIP3    H2 1792   7.088   4.825   4.709
  617TIP3   OH2 1793   1.029   0.120   1.792
  617TIP3    H1 1794   0.975   0.193   1.762
  617TIP3    H2 1795   1.064   0.081   1.712
  618TIP3   OH2 1796   2.549   1.055   0.169
  618TIP3    H1 1797   2.584   1.130   0.121
  618TIP3    H2 1798   2.528   1.090   0.256
  619TIP3   OH2 1799   1.218   4.251   2.979
  619TIP3    H1 1800   1.148   4.191   2.953
  619TIP3    H2 1801   1.177   4.338   2.977
  620TIP3   OH2 1802   0.879   0.397   4.443
  620TIP3    H1 1803   0.946   0.352   4.494
  620TIP3    H2 1804   0.796   0.367   4.480
  621TIP3   OH2 1805   7.657   1.835   5.929
  621TIP3    H1 1806   7.732   1.795   5.886
  621TIP3    H2 1807   7.597   1.856   5.857
  622TIP3   OH2 1808   2.438   4.722   3.498
  622TIP3    H1 1809   2.477   4.810   3.497
  622TIP3    H2 1810   2.348   4.737   3.527
  623TIP3   OH2 1811   1.659   1.671   3.180
  623TIP3    H1 1812   1.565   1.673   3.163
  623TIP3    H2 1813   1.667   1.634   3.268
  624TIP3   OH2 1814   0.936   6.489   5.457
  624TIP3    H1 1815   0.848   6.505   5.493
  624TIP3    H2 1816   0.933   6.526   5.369
  625TIP3   OH2 1817   5.969   1.497   4.732
  625TIP3    H1 1818   5.966   1.552   4.811
  625TIP3    H2 1819   5.992   1.410   4.765
  626TIP3   OH2 1820   6.614   5.894   2.113
  626TIP3    H1 1821   6.686   5.884   2.050
  626TIP3    H2 1822   6.639   5.970   2.166
  627TIP3   OH2 1823   6.211   0.937   6.763
  627TIP3    H1 1824   6.209   0.844   6.740
  627TIP3    H2 1825   6.156   0.979   6.697
  628TIP3   OH2 1826   2.515   7.095   1.735
  628TIP3    H1 1827   2.499   7.099   1.829
  628TIP3    H2 1828   2.469   7.017   1.706
  629TIP3   OH2 1829   1.495   3.196   1.947
  629TIP3    H1 1830   1.513   3.219   2.038
  629TIP3    H2 1831   1.581   3.185   1.907
  630TIP3   OH2 1832   2.596   3.851   6.733
  630TIP3    H1 1833   2.515   3.824   6.690
  630TIP3    H2 1834   2.590   3.946   6.739
  631TIP3   OH2 1835   5.172   0.426   1.077
  631TIP3    H1 1836   5.122   0.350   1.107
  631TIP3    H2 1837   5.253   0.389   1.041
  632TIP3   OH2 1838   4.526   7.804   6.749
  632TIP3    H1 1839   4.521   7.806   6.653
  632TIP3    H2 1840   4.553   7.893   6.773
  633TIP3   OH2 1841   1.370   3.110   5.536
  633TIP3    H1 1842   1.334   3.025   5.561
  633TIP3    H2 1843   1.370   3.109   5.441
  634TIP3   OH2 1844   3.483   5.753   3.674
  634TIP3    H1 1845   3.505   5.660   3.681
  634TIP3    H2 1846   3.406   5.763   3.729
  635TIP3   OH2 1847   0.413   4.171   2.767
  635TIP3    H1 1848   0.476   4.189   2.836
  635TIP3    H2 1849   0.371   4.255   2.750
  636TIP3   OH2 1850   4.923   1.682   5.223
  636TIP3    H1 1851   4.944   1.664   5.132
  636TIP3    H2 1852   4.831   1.657   5.231
  637TIP3   OH2 1853   7.011   5.770   3.257
  637TIP3    H1 1854   6.929   5.767   3.207
  637TIP3    H2 1855   7.079   5.781   3.191
  638TIP3   OH2 1856   7.658   2.251   6.727
  638TIP3    H1 1857   7.624   2.246   6.638
  638TIP3    H2 1858   7.733   2.192   6.728
  639TIP3   OH2 1859   2.463   0.003   0.717
  639TIP3    H1 1860   2.500  -0.039   0.640
  639TIP3    H2 1861   2.518   0.080   0.730
  640TIP3   OH2 1862   5.882   2.752   0.801
  640TIP3    H1 1863   5.877   2.670   0.850
  640TIP3    H2 1864   5.970   2.752   0.763
  641TIP3   OH2 1865   1.893   6.260   5.993
  641TIP3    H1 1866   1.875   6.349   5.963
  641TIP3    H2 1867   1.987   6.248   5.976
  642TIP3   OH2 1868   5.114   7.726   6.267
  642TIP3    H1 1869   5.154   7.783   6.201
  642TIP3    H2 1870   5.081   7.786   6.334
  643TIP3   OH2 1871   1.763   0.240   1.778
  643TIP3    H1 1872   1.749   0.300   1.706
  643TIP3    H2 1873   1.763   0.295   1.856
  644TIP3   OH2 1874   2.721   5.971   5.856
  644TIP3    H1 1875   2.729   6.052   5.905
  644TIP3    H2 1876   2.672   5.996   5.777
  645TIP3   OH2 1877   8.111   1.894   1.076
  645TIP3    H1 1878   8.199   1.884   1.111
  645TIP3    H2 1879   8.054   1.897   1.153
  646TIP3   OH2 1880   0.758   2.711   1.416
  646TIP3    H1 1881   0.793   2.797   1.440
  646TIP3    H2 1882   0.769   2.657   1.495
  647TIP3   OH2 1883   6.885   5.433   3.321
  647TIP3    H1 1884   6.792   5.425   3.340
  647TIP3    H2 1885   6.889   5.492   3.246
  648TIP3   OH2 1886   5.164   2.087   5.210
  648TIP3    H1 1887   5.158   2.029   5.286
  648TIP3    H2 1888   5.088   2.145   5.218
  649TIP3   OH2 1889   6.680   3.761   0.356
  649TIP3    H1 1890   6.627   3.806   0.290
  649TIP3    H2 1891   6.631   3.770   0.437
  650TIP3   OH2 1892   3.149   1.976   1.378
  650TIP3    H1 1893   3.198   1.922   1.316
  650TIP3    H2 1894   3.095   1.914   1.427
  651TIP3   OH2 1895   4.529   5.232   5.759
  651TIP3    H1 1896   4.542   5.326   5.745
  651TIP3    H2 1897   4.609   5.203   5.801
  652TIP3   OH2 1898   7.414   0.976   0.511
  652TIP3    H1 1899   7.477   1.004   0.444
  652TIP3    H2 1900   7.337   0.950   0.461
  653TIP3   OH2 1901   1.561   2.041   3.098
  653TIP3    H1 1902   1.617   1.984   3.152
  653TIP3    H2 1903   1.536   2.112   3.156
  654TIP3   OH2 1904   2.822   2.414   1.032
  654TIP3    H1 1905   2.855   2.484   0.975
  654TIP3    H2 1906   2.799   2.343   0.973
  655TIP3   OH2 1907   0.203   0.737   2.734
  655TIP3    H1 1908   0.272   0.720   2.669
  655TIP3    H2 1909   0.241   0.802   2.793
  656TIP3   OH2 1910   6.884   2.225   0.349
  656TIP3    H1 1911   6.958   2.174   0.317
  656TIP3    H2 1912   6.848   2.173   0.420
  657TIP3   OH2 1913   1.327   3.248   5.038
  657TIP3    H1 1914   1.411   3.272   5.077
  657TIP3    H2 1915   1.295   3.329   4.998
  658TIP3   OH2 1916   5.538   6.900   5.096
  658TIP3    H1 1917   5.547   6.857   5.181
  658TIP3    H2 1918   5.460   6.859   5.057
  659TIP3   OH2 1919   6.309   2.752   6.055
  659TIP3    H1 1920   6.266   2.749   6.140
  659TIP3    H2 1921   6.242   2.788   5.996
  660TIP3   OH2 1922   0.365   1.506   0.390
  660TIP3    H1 1923   0.374   1.411   0.380
  660TIP3    H2 1924   0.299   1.530   0.326
  661TIP3   OH2 1925   7.001   4.617   2.604
  661TIP3    H1 1926   7.090   4.652   2.616
  661TIP3    H2 1927   6.948   4.663   2.669
  662TIP3   OH2 1928   3.795   6.150   5.590
  662TIP3    H1 1929   3.733   6.081   5.565
  662TIP3    H2 1930   3.801   6.142   5.685
  663TIP3   OH2 1931   5.406   6.366   6.224
  663TIP3    H1 1932   5.390   6.347   6.316
  663TIP3    H2 1933   5.344   6.436   6.203
  664TIP3   OH2 1934   3.300   2.240   3.475
  664TIP3    H1 1935   3.272   2.242   3.566
  664TIP3    H2 1936   3.219   2.238   3.424
  665TIP3   OH2 1937   8.130   5.723   6.629
  665TIP3    H1 1938   8.171   5.671   6.699
  665TIP3    H2 1939   8.180   5.701   6.551
  666TIP3   OH2 1940   7.958   3.489   3.027
  666TIP3    H1 1941   7.894   3.436   3.074
  666TIP3    H2 1942   8.027   3.505   3.090
  667TIP3   OH2 1943   2.660   6.466   6.769
  667TIP3    H1 1944   2.689   6.375   6.781
  667TIP3    H2 1945   2.628   6.468   6.679
  668TIP3   OH2 1946   3.455   1.632   6.392
  668TIP3    H1 1947   3.452   1.546   6.350
  668TIP3    H2 1948   3.541   1.668   6.368
  669TIP3   OH2 1949   6.020   5.244   0.035
  669TIP3    H1 1950   5.976   5.161   0.051
  669TIP3    H2 1951   6.102   5.238   0.082
  670TIP3   OH2 1952   3.794   0.619   3.829
  670TIP3    H1 1953   3.709   0.589   3.859
  670TIP3    H2 1954   3.845   0.539   3.819
  671TIP3   OH2 1955   5.059   7.477   0.594
  671TIP3    H1 1956   5.039   7.523   0.676
  671TIP3    H2 1957   4.997   7.513   0.531
  672TIP3   OH2 1958   0.320   5.920   2.827
  672TIP3    H1 1959   0.406   5.920   2.784
  672TIP3    H2 1960   0.273   5.992   2.785
  673TIP3   OH2 1961   3.327   0.780   1.281
  673TIP3    H1 1962   3.239   0.816   1.293
  673TIP3    H2 1963   3.314   0.687   1.267
  674TIP3   OH2 1964   0.207   7.689   5.197
  674TIP3    H1 1965   0.239   7.734   5.276
  674TIP3    H2 1966   0.136   7.633   5.228
  675TIP3   OH2 1967   6.647   3.849   2.049
  675TIP3    H1 1968   6.709   3.800   2.104
  675TIP3    H2 1969   6.612   3.917   2.107
  676TIP3   OH2 1970   2.022   5.596   3.216
  676TIP3    H1 1971   2.115   5.613   3.202
  676TIP3    H2 1972   1.979   5.680   3.196
  677TIP3   OH2 1973   3.690   4.625   3.695
  677TIP3    H1 1974   3.751   4.692   3.664
  677TIP3    H2 1975   3.646   4.595   3.615
  678TIP3   OH2 1976   1.871   3.194   6.729
  678TIP3    H1 1977   1.799   3.131   6.728
  678TIP3    H2 1978   1.902   3.194   6.820
  679TIP3   OH2 1979   0.675   2.158   2.788
  679TIP3    H1 1980   0.736   2.150   2.861
  679TIP3    H2 1981   0.636   2.244   2.798
  680TIP3   OH2 1982   0.863   4.049   4.425
  680TIP3    H1 1983   0.867   4.036   4.331
  680TIP3    H2 1984   0.940   4.003   4.459
  681TIP3   OH2 1985   1.789   6.214   4.250
  681TIP3    H1 1986   1.827   6.270   4.182
  681TIP3    H2 1987   1.819   6.126   4.229
  682TIP3   OH2 1988   0.197   1.079   3.018
  682TIP3    H1 1989   0.113   1.056   2.979
  682TIP3    H2 1990   0.176   1.145   3.085
  683TIP3   OH2 1991   1.649   3.521   0.348
  683TIP3    H1 1992   1.709   3.487   0.282
  683TIP3    H2 1993   1.658   3.616   0.342
  684TIP3   OH2 1994   4.234   6.445   6.640
  684TIP3    H1 1995   4.179   6.380   6.684
  684TIP3    H2 1996   4.184   6.527   6.646
  685TIP3   OH2 1997   3.179   6.277   3.503
  685TIP3    H1 1998   3.125   6.325   3.440
  685TIP3    H2 1999   3.268   6.288   3.470
  686TIP3   OH2 2000   7.404   0.640   1.850
  686TIP3    H1 2001   7.471   0.677   1.792
  686TIP3    H2 2002   7.377   0.560   1.806
  687TIP3   OH2 2003   0.438   0.346   5.793
  687TIP3    H1 2004   0.345   0.344   5.771
  687TIP3    H2 2005   0.483   0.340   5.709
  688TIP3   OH2 2006   3.568   3.563   3.231
  688TIP3    H1 2007   3.482   3.605   3.230
  688TIP3    H2 2008   3.622   3.620   3.175
  689TIP3   OH2 2009   5.131   0.557   5.279
  689TIP3    H1 2010   5.212   0.607   5.282
  689TIP3    H2 2011   5.155   0.473   5.241
  690TIP3   OH2 2012   7.215   0.123   1.907
  690TIP3    H1 2013   7.232   0.031   1.927
  690TIP3    H2 2014   7.122   0.135   1.924
  691TIP3   OH2 2015   1.742   2.830   2.256
  691TIP3    H1 2016   1.826   2.872   2.235
  691TIP3    H2 2017   1.766   2.758   2.314
  692TIP3   OH2 2018   8.029   2.504   6.216
  692TIP3    H1 2019   8.115   2.494   6.256
  692TIP3    H2 2020   7.984   2.422   6.236
  693TIP3   OH2 2021   1.792   4.541   2.804
  693TIP3    H1 2022   1.726   4.604   2.833
  693TIP3    H2 2023   1.743   4.478   2.752
  694TIP3   OH2 2024   1.647   6.543   2.444
  694TIP3    H1 2025   1.593   6.594   2.384
  694TIP3    H2 2026   1.670   6.604   2.514
  695TIP3   OH2 2027   1.442   2.670   5.348
  695TIP3    H1 2028   1.507   2.600   5.343
  695TIP3    H2 2029   1.368   2.630   5.394
  696TIP3   OH2 2030   6.644   4.821   4.114
  696TIP3    H1 2031   6.661   4.902   4.162
  696TIP3    H2 2032   6.678   4.752   4.172
  697TIP3   OH2 2033   6.017   3.292   6.149
  697TIP3    H1 2034   6.038   3.215   6.095
  697TIP3    H2 2035   6.090   3.298   6.211
  698TIP3   OH2 2036   1.761   3.186   0.241
  698TIP3    H1 2037   1.753   3.127   0.165
  698TIP3    H2 2038   1.783   3.271   0.203
  699TIP3   OH2 2039   6.640   0.504   2.020
  699TIP3    H1 2040   6.726   0.545   2.022
  699TIP3    H2 2041   6.633   0.468   1.931
  700TIP3   OH2 2042   7.446   3.020   1.690
  700TIP3    H1 2043   7.496   3.082   1.636
  700TIP3    H2 2044   7.358   3.022   1.653
  701TIP3   OH2 2045   1.740   5.757   2.257
  701TIP3    H1 2046   1.684   5.834   2.264
  701TIP3    H2 2047   1.735   5.716   2.343
  702TIP3   OH2 2048   1.833   4.991   4.907
  702TIP3    H1 2049   1.815   4.901   4.934
  702TIP3    H2 2050   1.778   5.005   4.830
  703TIP3   OH2 2051   2.925   1.885   1.174
  703TIP3    H1 2052   2.844   1.842   1.202
  703TIP3    H2 2053   2.896   1.954   1.115
  704TIP3   OH2 2054   0.793   1.091   0.955
  704TIP3    H1 2055   0.710   1.069   0.912
  704TIP3    H2 2056   0.834   1.007   0.972
  705TIP3   OH2 2057   1.411   0.721   0.434
  705TIP3    H1 2058   1.387   0.774   0.510
  705TIP3    H2 2059   1.502   0.695   0.451
  706TIP3   OH2 2060   0.122   6.476   6.372
  706TIP3    H1 2061   0.037   6.474   6.329
  706TIP3    H2 2062   0.103   6.459   6.464
  707TIP3   OH2 2063   6.186   1.158   3.912
  707TIP3    H1 2064   6.178   1.224   3.981
  707TIP3    H2 2065   6.270   1.177   3.871
  708TIP3   OH2 2066   2.861   4.408   1.514
  708TIP3    H1 2067   2.852   4.324   1.559
  708TIP3    H2 2068   2.955   4.421   1.507
  709TIP3   OH2 2069   3.972   1.326   2.178
  709TIP3    H1 2070   4.034   1.256   2.198
  709TIP3    H2 2071   3.983   1.343   2.085
  710TIP3   OH2 2072   2.044   1.894   2.148
  710TIP3    H1 2073   2.126   1.848   2.126
  710TIP3    H2 2074   2.047   1.974   2.097
  711TIP3   OH2 2075   3.360   3.129   0.765
  711TIP3    H1 2076   3.452   3.103   0.756
  711TIP3    H2 2077   3.364   3.222   0.790
  712TIP3   OH2 2078   4.726   6.922   0.964
  712TIP3    H1 2079   4.748   6.980   1.038
  712TIP3    H2 2080   4.805   6.868   0.953
  713TIP3   OH2 2081   2.827   2.060   5.733
  713TIP3    H1 2082   2.875   2.035   5.811
  713TIP3    H2 2083   2.819   1.979   5.682
  714TIP3   OH2 2084   4.232   2.339   6.093
  714TIP3    H1 2085   4.228   2.244   6.084
  714TIP3    H2 2086   4.325   2.357   6.108
  715TIP3   OH2 2087   2.735   5.433   5.005
  715TIP3    H1 2088   2.697   5.373   5.068
  715TIP3    H2 2089   2.696   5.518   5.025
  716TIP3   OH2 2090   2.914   1.340   1.580
  716TIP3    H1 2091   2.820   1.329   1.596
  716TIP3    H2 2092   2.952   1.254   1.599
  717TIP3   OH2 2093   6.626   1.924   0.571
  717TIP3    H1 2094   6.627   1.829   0.559
  717TIP3    H2 2095   6.544   1.952   0.529
  718TIP3   OH2 2096   4.325   1.336   6.023
  718TIP3    H1 2097   4.339   1.349   5.930
  718TIP3    H2 2098   4.271   1.257   6.029
  719TIP3   OH2 2099   3.183   5.534   5.906
  719TIP3    H1 2100   3.229   5.578   5.977
  719TIP3    H2 2101   3.126   5.470   5.950
  720TIP3   OH2 2102   4.674   5.791   5.684
  720TIP3    H1 2103   4.643   5.743   5.760
  720TIP3    H2 2104   4.757   5.748   5.661
  721TIP3   OH2 2105   5.088   5.329   4.333
  721TIP3    H1 2106   5.050   5.413   4.360
  721TIP3    H2 2107   5.015   5.282   4.292
  722TIP3   OH2 2108   4.091   0.359   3.382
  722TIP3    H1 2109   4.154   0.323   3.443
  722TIP3    H2 2110   4.144   0.406   3.317
  723TIP3   OH2 2111   6.151   3.071   0.065
  723TIP3    H1 2112   6.241   3.037   0.063
  723TIP3    H2 2113   6.119   3.051   0.153
  724TIP3   OH2 2114   7.682   4.583   4.063
  724TIP3    H1 2115   7.752   4.520   4.080
  724TIP3    H2 2116   7.727   4.659   4.025
  725TIP3   OH2 2117   4.112   1.991   0.509
  725TIP3    H1 2118   4.116   1.896   0.511
  725TIP3    H2 2119   4.019   2.012   0.513
  726TIP3   OH2 2120   7.156   6.875   1.597
  726TIP3    H1 2121   7.241   6.840   1.625
  726TIP3    H2 2122   7.131   6.820   1.522
  727TIP3   OH2 2123   6.425   0.979   1.907
  727TIP3    H1 2124   6.422   1.004   1.815
  727TIP3    H2 2125   6.441   0.884   1.905
  728TIP3   OH2 2126   4.472   3.318   6.739
  728TIP3    H1 2127   4.523   3.303   6.818
  728TIP3    H2 2128   4.444   3.410   6.745
  729TIP3   OH2 2129   5.718   1.194   3.205
  729TIP3    H1 2130   5.647   1.238   3.159
  729TIP3    H2 2131   5.773   1.265   3.238
  730TIP3   OH2 2132   8.216   5.228   0.798
  730TIP3    H1 2133   8.144   5.278   0.761
  730TIP3    H2 2134   8.233   5.268   0.883
  731TIP3   OH2 2135   6.827   2.897   5.709
  731TIP3    H1 2136   6.869   2.815   5.735
  731TIP3    H2 2137   6.735   2.886   5.732
  732TIP3   OH2 2138   0.758   4.565   4.231
  732TIP3    H1 2139   0.802   4.633   4.281
  732TIP3    H2 2140   0.814   4.488   4.241
  733TIP3   OH2 2141   3.706   6.237   3.395
  733TIP3    H1 2142   3.736   6.210   3.308
  733TIP3    H2 2143   3.677   6.327   3.384
  734TIP3   OH2 2144   7.921   3.651   6.240
  734TIP3    H1 2145   7.877   3.567   6.256
  734TIP3    H2 2146   7.912   3.665   6.146
  735TIP3   OH2 2147   3.273   0.909   3.799
  735TIP3    H1 2148   3.257   0.878   3.710
  735TIP3    H2 2149   3.368   0.898   3.811
  736TIP3   OH2 2150   0.166   3.451   1.033
  736TIP3    H1 2151   0.153   3.408   1.118
  736TIP3    H2 2152   0.221   3.390   0.984
  737TIP3   OH2 2153   6.116   2.855   1.019
  737TIP3    H1 2154   6.125   2.869   1.113
  737TIP3    H2 2155   6.081   2.938   0.986
  738TIP3   OH2 2156   3.637   1.583   2.361
  738TIP3    H1 2157   3.550   1.555   2.333
  738TIP3    H2 2158   3.645   1.672   2.328
  739TIP3   OH2 2159   7.069   5.974   3.040
  739TIP3    H1 2160   7.078   5.906   2.974
  739TIP3    H2 2161   7.156   5.981   3.080
  740TIP3   OH2 2162   4.060   4.640   4.841
  740TIP3    H1 2163   4.064   4.545   4.833
  740TIP3    H2 2164   4.003   4.668   4.769
  741TIP3   OH2 2165   2.929   4.836   1.580
  741TIP3    H1 2166   2.882   4.783   1.643
  741TIP3    H2 2167   2.881   4.823   1.498
  742TIP3   OH2 2168   3.786   0.804   6.017
  742TIP3    H1 2169   3.702   0.844   5.993
  742TIP3    H2 2170   3.821   0.862   6.085
  743TIP3   OH2 2171   3.255   1.276   2.334
  743TIP3    H1 2172   3.247   1.183   2.359
  743TIP3    H2 2173   3.166   1.302   2.312
  744TIP3   OH2 2174   6.147   3.014   2.693
  744TIP3    H1 2175   6.148   3.102   2.731
  744TIP3    H2 2176   6.096   3.023   2.613
  745TIP3   OH2 2177   6.810   4.174   4.326
  745TIP3    H1 2178   6.809   4.114   4.251
  745TIP3    H2 2179   6.865   4.130   4.390
  746TIP3   OH2 2180  -0.016   5.295   1.902
  746TIP3    H1 2181   0.074   5.262   1.904
  746TIP3    H2 2182  -0.015   5.363   1.835
  747TIP3   OH2 2183   6.437   1.585   0.541
  747TIP3    H1 2184   6.484   1.600   0.623
  747TIP3    H2 2185   6.506   1.584   0.474
  748TIP3   OH2 2186   0.841   4.341   1.290
  748TIP3    H1 2187   0.899   4.268   1.316
  748TIP3    H2 2188   0.756   4.300   1.279
  749TIP3   OH2 2189   2.967   5.175   3.432
  749TIP3    H1 2190   2.963   5.171   3.336
  749TIP3    H2 2191   3.006   5.091   3.457
  750TIP3   OH2 2192   1.526   2.056   2.406
  750TIP3    H1 2193   1.533   1.975   2.356
  750TIP3    H2 2194   1.435   2.059   2.435
  751TIP3   OH2 2195   7.136   2.089   4.279
  751TIP3    H1 2196   7.164   2.015   4.334
  751TIP3    H2 2197   7.045   2.070   4.258
  752TIP3   OH2 2198   6.063   1.497   4.464
  752TIP3    H1 2199   6.014   1.579   4.456
  752TIP3    H2 2200   6.036   1.461   4.549
  753TIP3   OH2 2201   7.312   3.166   5.796
  753TIP3    H1 2202   7.327   3.258   5.776
  753TIP3    H2 2203   7.219   3.160   5.818
  754TIP3   OH2 2204   7.840   6.883   0.333
  754TIP3    H1 2205   7.819   6.970   0.298
  754TIP3    H2 2206   7.777   6.824   0.290
  755TIP3   OH2 2207   4.156   6.470   6.207
  755TIP3    H1 2208   4.168   6.485   6.113
  755TIP3    H2 2209   4.089   6.402   6.211
  756TIP3   OH2 2210   3.434   6.875   0.189
  756TIP3    H1 2211   3.384   6.900   0.267
  756TIP3    H2 2212   3.482   6.955   0.165
  757TIP3   OH2 2213   4.919   6.611   0.563
  757TIP3    H1 2214   4.904   6.694   0.518
  757TIP3    H2 2215   4.992   6.629   0.623
  758TIP3   OH2 2216   3.731   7.566   3.015
  758TIP3    H1 2217   3.761   7.623   3.085
  758TIP3    H2 2218   3.811   7.527   2.979
  759TIP3   OH2 2219   3.554   4.824   4.374
  759TIP3    H1 2220   3.614   4.768   4.423
  759TIP3    H2 2221   3.607   4.859   4.302
  760TIP3   OH2 2222   0.865   6.916   0.126
  760TIP3    H1 2223   0.810   6.907   0.204
  760TIP3    H2 2224   0.806   6.955   0.061
  761TIP3   OH2 2225   5.464   6.663   4.199
  761TIP3    H1 2226   5.375   6.627   4.194
  761TIP3    H2 2227   5.456   6.752   4.163
  762TIP3   OH2 2228   0.586   5.126   5.994
  762TIP3    H1 2229   0.612   5.128   5.902
  762TIP3    H2 2230   0.567   5.034   6.011
  763TIP3   OH2 2231   0.345   0.453   1.301
  763TIP3    H1 2232   0.326   0.366   1.336
  763TIP3    H2 2233   0.289   0.511   1.352
  764TIP3   OH2 2234   7.112   0.106   5.931
  764TIP3    H1 2235   7.200   0.144   5.935
  764TIP3    H2 2236   7.121   0.022   5.977
  765TIP3   OH2 2237   1.596   3.175   1.236
  765TIP3    H1 2238   1.597   3.087   1.274
  765TIP3    H2 2239   1.665   3.174   1.170
  766TIP3   OH2 2240   0.435   7.455   1.962
  766TIP3    H1 2241   0.396   7.541   1.947
  766TIP3    H2 2242   0.494   7.442   1.888
  767TIP3   OH2 2243   6.813   1.864   4.500
  767TIP3    H1 2244   6.857   1.826   4.424
  767TIP3    H2 2245   6.814   1.794   4.565
  768TIP3   OH2 2246   7.727   4.790   6.390
  768TIP3    H1 2247   7.821   4.809   6.393
  768TIP3    H2 2248   7.710   4.771   6.298
  769TIP3   OH2 2249   0.665   3.741   0.629
  769TIP3    H1 2250   0.606   3.668   0.647
  769TIP3    H2 2251   0.731   3.737   0.698
  770TIP3   OH2 2252   4.390   2.652   3.492
  770TIP3    H1 2253   4.374   2.737   3.452
  770TIP3    H2 2254   4.412   2.672   3.583
  771TIP3   OH2 2255   5.830   6.115   4.729
  771TIP3    H1 2256   5.899   6.070   4.679
  771TIP3    H2 2257   5.795   6.180   4.668
  772TIP3   OH2 2258   2.217   2.804   6.380
  772TIP3    H1 2259   2.215   2.709   6.398
  772TIP3    H2 2260   2.310   2.826   6.379
  773TIP3   OH2 2261   3.909   4.455   2.784
  773TIP3    H1 2262   3.828   4.485   2.743
  773TIP3    H2 2263   3.969   4.438   2.711
  774TIP3   OH2 2264   0.018   4.718   3.940
  774TIP3    H1 2265   0.083   4.752   4.002
  774TIP3    H2 2266   0.013   4.625   3.960
  775TIP3   OH2 2267   4.622   5.073   4.183
  775TIP3    H1 2268   4.591   5.151   4.228
  775TIP3    H2 2269   4.548   5.011   4.189
  776TIP3   OH2 2270   0.550   4.504   5.217
  776TIP3    H1 2271   0.587   4.591   5.236
  776TIP3    H2 2272   0.587   4.447   5.284
  777TIP3   OH2 2273   2.873   5.846   0.925
  777TIP3    H1 2274   2.931   5.783   0.969
  777TIP3    H2 2275   2.874   5.819   0.833
  778TIP3   OH2 2276   8.152   3.772   5.959
  778TIP3    H1 2277   8.230   3.719   5.974
  778TIP3    H2 2278   8.148   3.783   5.864
  779TIP3   OH2 2279   5.244   0.364   5.854
  779TIP3    H1 2280   5.265   0.280   5.813
  779TIP3    H2 2281   5.148   0.363   5.860
  780TIP3   OH2 2282   6.891   5.354   6.142
  780TIP3    H1 2283   6.840   5.276   6.118
  780TIP3    H2 2284   6.857   5.423   6.085
  781TIP3   OH2 2285   6.255   0.462   0.139
  781TIP3    H1 2286   6.182   0.522   0.124
  781TIP3    H2 2287   6.329   0.520   0.158
  782TIP3   OH2 2288   7.803   6.647   6.359
  782TIP3    H1 2289   7.816   6.638   6.264
  782TIP3    H2 2290   7.874   6.704   6.388
  783TIP3   OH2 2291   7.874   1.014   1.656
  783TIP3    H1 2292   7.861   0.956   1.581
  783TIP3    H2 2293   7.902   0.956   1.726
  784TIP3   OH2 2294   1.092   5.509   6.677
  784TIP3    H1 2295   1.162   5.522   6.741
  784TIP3    H2 2296   1.126   5.546   6.596
  785TIP3   OH2 2297   1.739   7.437   3.165
  785TIP3    H1 2298   1.679   7.363   3.173
  785TIP3    H2 2299   1.758   7.443   3.072
  786TIP3   OH2 2300   6.886   3.046   2.542
  786TIP3    H1 2301   6.863   3.060   2.633
  786TIP3    H2 2302   6.818   2.988   2.508
  787TIP3   OH2 2303   7.239   1.943   4.927
  787TIP3    H1 2304   7.160   1.973   4.883
  787TIP3    H2 2305   7.214   1.860   4.967
  788TIP3   OH2 2306   2.140   1.600   1.222
  788TIP3    H1 2307   2.223   1.577   1.180
  788TIP3    H2 2308   2.134   1.695   1.213
  789TIP3   OH2 2309   0.019   5.582   1.478
  789TIP3    H1 2310   0.033   5.674   1.502
  789TIP3    H2 2311  -0.068   5.580   1.439
  790TIP3   OH2 2312   7.200   2.690   2.563
  790TIP3    H1 2313   7.170   2.726   2.646
  790TIP3    H2 2314   7.215   2.597   2.580
  791TIP3   OH2 2315   0.058   4.877   1.280
  791TIP3    H1 2316   0.050   4.972   1.287
  791TIP3    H2 2317   0.089   4.863   1.190
  792TIP3   OH2 2318   0.583   3.725   3.289
  792TIP3    H1 2319   0.654   3.681   3.243
  792TIP3    H2 2320   0.503   3.693   3.246
  793TIP3   OH2 2321   0.233   7.455   3.081
  793TIP3    H1 2322   0.181   7.385   3.041
  793TIP3    H2 2323   0.302   7.410   3.129
  794TIP3   OH2 2324   1.095   7.244   0.341
  794TIP3    H1 2325   1.122   7.302   0.411
  794TIP3    H2 2326   1.112   7.293   0.261
  795TIP3   OH2 2327   0.171   6.647   3.879
  795TIP3    H1 2328   0.187   6.662   3.972
  795TIP3    H2 2329   0.220   6.716   3.834
  796TIP3   OH2 2330   3.211   6.004   2.751
  796TIP3    H1 2331   3.155   5.929   2.730
  796TIP3    H2 2332   3.160   6.054   2.816
  797TIP3   OH2 2333   1.885   1.894   5.287
  797TIP3    H1 2334   1.853   1.961   5.227
  797TIP3    H2 2335   1.941   1.838   5.232
  798TIP3   OH2 2336   5.872   2.114   2.561
  798TIP3    H1 2337   5.854   2.029   2.600
  798TIP3    H2 2338   5.860   2.102   2.467
  799TIP3   OH2 2339   7.785   0.306   0.982
  799TIP3    H1 2340   7.824   0.265   0.905
  799TIP3    H2 2341   7.845   0.286   1.053
  800TIP3   OH2 2342   0.504   5.407   0.755
  800TIP3    H1 2343   0.585   5.400   0.704
  800TIP3    H2 2344   0.533   5.401   0.846
  801TIP3   OH2 2345   7.475   2.616   2.125
  801TIP3    H1 2346   7.566   2.591   2.141
  801TIP3    H2 2347   7.428   2.589   2.205
  802TIP3   OH2 2348   7.989   6.208   6.337
  802TIP3    H1 2349   8.008   6.247   6.422
  802TIP3    H2 2350   8.053   6.247   6.278
  803TIP3   OH2 2351   3.852   1.060   3.401
  803TIP3    H1 2352   3.808   1.145   3.406
  803TIP3    H2 2353   3.945   1.082   3.389
  804TIP3   OH2 2354   2.703   5.726   2.236
  804TIP3    H1 2355   2.692   5.648   2.291
  804TIP3    H2 2356   2.797   5.744   2.237
  805TIP3   OH2 2357   4.912   6.945   6.069
  805TIP3    H1 2358   4.975   7.000   6.115
  805TIP3    H2 2359   4.909   6.980   5.980
  806TIP3   OH2 2360   0.931   3.754   2.654
  806TIP3    H1 2361   1.022   3.732   2.634
  806TIP3    H2 2362   0.902   3.806   2.579
  807TIP3   OH2 2363   1.253   1.314   2.814
  807TIP3    H1 2364   1.299   1.375   2.755
  807TIP3    H2 2365   1.162   1.315   2.784
  808TIP3   OH2 2366   0.129   0.502   2.877
  808TIP3    H1 2367   0.140   0.578   2.819
  808TIP3    H2 2368   0.073   0.442   2.828
  809TIP3   OH2 2369   3.396   1.734   6.103
  809TIP3    H1 2370   3.418   1.785   6.181
  809TIP3    H2 2371   3.447   1.654   6.112
  810TIP3   OH2 2372   5.838   1.630   5.786
  810TIP3    H1 2373   5.856   1.540   5.757
  810TIP3    H2 2374   5.747   1.628   5.814
  811TIP3   OH2 2375   6.728   4.144   3.478
  811TIP3    H1 2376   6.756   4.200   3.406
  811TIP3    H2 2377   6.763   4.187   3.556
  812TIP3   OH2 2378   7.121   2.773   4.072
  812TIP3    H1 2379   7.130   2.824   4.152
  812TIP3    H2 2380   7.144   2.834   4.002
  813TIP3   OH2 2381   3.336   1.677   4.266
  813TIP3    H1 2382   3.260   1.696   4.211
  813TIP3    H2 2383   3.373   1.596   4.229
  814TIP3   OH2 2384   6.737   2.738   2.938
  814TIP3    H1 2385   6.772   2.790   3.010
  814TIP3    H2 2386   6.786   2.656   2.942
  815TIP3   OH2 2387   4.467   6.228   3.667
  815TIP3    H1 2388   4.488   6.259   3.579
  815TIP3    H2 2389   4.551   6.218   3.710
  816TIP3   OH2 2390   6.454   3.186   2.781
  816TIP3    H1 2391   6.465   3.090   2.782
  816TIP3    H2 2392   6.522   3.218   2.841
  817TIP3   OH2 2393   1.083   7.790   1.324
  817TIP3    H1 2394   1.134   7.718   1.287
  817TIP3    H2 2395   0.992   7.769   1.303
  818TIP3   OH2 2396   6.436   4.941   1.499
  818TIP3    H1 2397   6.363   5.003   1.499
  818TIP3    H2 2398   6.452   4.922   1.407
  819TIP3   OH2 2399   1.447   4.708   4.320
  819TIP3    H1 2400   1.541   4.715   4.307
  819TIP3    H2 2401   1.437   4.684   4.412
  820TIP3   OH2 2402   5.737   5.065   1.062
  820TIP3    H1 2403   5.816   5.114   1.085
  820TIP3    H2 2404   5.703   5.110   0.984
  821TIP3   OH2 2405   6.085   1.640   3.736
  821TIP3    H1 2406   6.112   1.729   3.716
  821TIP3    H2 2407   6.036   1.612   3.658
  822TIP3   OH2 2408   6.887   0.831   1.891
  822TIP3    H1 2409   6.836   0.907   1.918
  822TIP3    H2 2410   6.974   0.867   1.871
  823TIP3   OH2 2411   5.562   7.527   1.030
  823TIP3    H1 2412   5.486   7.476   1.002
  823TIP3    H2 2413   5.552   7.611   0.986
  824TIP3   OH2 2414   2.750   7.350   3.713
  824TIP3    H1 2415   2.702   7.432   3.702
  824TIP3    H2 2416   2.748   7.335   3.808
  825TIP3   OH2 2417   0.465   4.739   0.646
  825TIP3    H1 2418   0.433   4.828   0.633
  825TIP3    H2 2419   0.392   4.694   0.689
  826TIP3   OH2 2420   4.655   1.933   2.273
  826TIP3    H1 2421   4.704   1.873   2.329
  826TIP3    H2 2422   4.635   1.882   2.195
  827TIP3   OH2 2423   1.853   3.338   1.481
  827TIP3    H1 2424   1.758   3.344   1.490
  827TIP3    H2 2425   1.885   3.424   1.507
  828TIP3   OH2 2426   7.478   0.489   2.243
  828TIP3    H1 2427   7.466   0.433   2.166
  828TIP3    H2 2428   7.443   0.574   2.216
  829TIP3   OH2 2429   4.060   0.544   1.144
  829TIP3    H1 2430   3.997   0.567   1.075
  829TIP3    H2 2431   4.140   0.522   1.097
  830TIP3   OH2 2432   5.507   0.357   2.552
  830TIP3    H1 2433   5.532   0.336   2.462
  830TIP3    H2 2434   5.567   0.427   2.578
  831TIP3   OH2 2435   2.970   4.546   0.480
  831TIP3    H1 2436   2.968   4.457   0.444
  831TIP3    H2 2437   2.998   4.601   0.407
  832TIP3   OH2 2438   4.061   5.661   3.753
  832TIP3    H1 2439   4.150   5.625   3.750
  832TIP3    H2 2440   4.051   5.690   3.844
  833TIP3   OH2 2441   4.941   2.136   0.210
  833TIP3    H1 2442   4.941   2.207   0.274
  833TIP3    H2 2443   5.006   2.162   0.145
  834TIP3   OH2 2444   1.412   1.344   1.967
  834TIP3    H1 2445   1.455   1.270   2.008
  834TIP3    H2 2446   1.330   1.308   1.933
  835TIP3   OH2 2447   1.407   0.342   6.246
  835TIP3    H1 2448   1.353   0.419   6.229
  835TIP3    H2 2449   1.478   0.374   6.302
  836TIP3   OH2 2450   7.272   0.655   2.519
  836TIP3    H1 2451   7.253   0.646   2.612
  836TIP3    H2 2452   7.252   0.569   2.482
  837TIP3   OH2 2453   0.119   6.309   5.703
  837TIP3    H1 2454   0.147   6.400   5.695
  837TIP3    H2 2455   0.200   6.261   5.722
  838TIP3   OH2 2456   5.986   0.592   0.341
  838TIP3    H1 2457   5.912   0.617   0.395
  838TIP3    H2 2458   5.982   0.650   0.265
  839TIP3   OH2 2459   0.223   7.413   4.020
  839TIP3    H1 2460   0.238   7.420   3.926
  839TIP3    H2 2461   0.131   7.440   4.031
  840TIP3   OH2 2462   0.957   5.777   4.938
  840TIP3    H1 2463   1.030   5.835   4.915
  840TIP3    H2 2464   0.973   5.696   4.890
  841TIP3   OH2 2465   5.696   4.482   4.105
  841TIP3    H1 2466   5.618   4.532   4.082
  841TIP3    H2 2467   5.726   4.521   4.187
  842TIP3   OH2 2468   4.446   0.597   5.613
  842TIP3    H1 2469   4.423   0.575   5.703
  842TIP3    H2 2470   4.533   0.636   5.619
  843TIP3   OH2 2471   6.164   4.232   6.110
  843TIP3    H1 2472   6.071   4.239   6.130
  843TIP3    H2 2473   6.168   4.186   6.026
  844TIP3   OH2 2474   5.974   3.976   3.117
  844TIP3    H1 2475   6.016   4.037   3.056
  844TIP3    H2 2476   5.941   4.032   3.187
  845TIP3   OH2 2477   0.256   3.170   3.210
  845TIP3    H1 2478   0.174   3.132   3.179
  845TIP3    H2 2479   0.272   3.128   3.295
  846TIP3   OH2 2480   5.158   5.028   3.365
  846TIP3    H1 2481   5.225   5.000   3.427
  846TIP3    H2 2482   5.196   5.011   3.279
  847TIP3   OH2 2483   2.566   3.336   0.036
  847TIP3    H1 2484   2.571   3.359  -0.057
  847TIP3    H2 2485   2.485   3.377   0.067
  848TIP3   OH2 2486   7.470   7.609   4.380
  848TIP3    H1 2487   7.493   7.555   4.455
  848TIP3    H2 2488   7.376   7.598   4.370
  849TIP3   OH2 2489   3.246   6.872   6.158
  849TIP3    H1 2490   3.296   6.947   6.191
  849TIP3    H2 2491   3.155   6.899   6.163
  850TIP3   OH2 2492   3.129   2.263   2.147
  850TIP3    H1 2493   3.177   2.300   2.073
  850TIP3    H2 2494   3.105   2.174   2.119
  851TIP3   OH2 2495   6.014   3.863   4.155
  851TIP3    H1 2496   6.038   3.921   4.083
  851TIP3    H2 2497   5.938   3.815   4.123
  852TIP3   OH2 2498   0.282   3.449   4.781
  852TIP3    H1 2499   0.190   3.470   4.764
  852TIP3    H2 2500   0.315   3.526   4.828
  853TIP3   OH2 2501   3.663   5.697   3.343
  853TIP3    H1 2502   3.685   5.628   3.280
  853TIP3    H2 2503   3.711   5.673   3.422
  854TIP3   OH2 2504   1.848   6.705   1.530
  854TIP3    H1 2505   1.887   6.704   1.617
  854TIP3    H2 2506   1.910   6.658   1.475
  855TIP3   OH2 2507   7.974   3.851   5.006
  855TIP3    H1 2508   8.065   3.852   5.036
  855TIP3    H2 2509   7.979   3.881   4.915
  856TIP3   OH2 2510   7.063   3.092   0.801
  856TIP3    H1 2511   7.102   3.054   0.880
  856TIP3    H2 2512   7.085   3.185   0.805
  857TIP3   OH2 2513   6.769   0.434   2.647
  857TIP3    H1 2514   6.715   0.417   2.724
  857TIP3    H2 2515   6.830   0.361   2.643
  858TIP3   OH2 2516   0.771   3.925   1.081
  858TIP3    H1 2517   0.770   3.869   1.159
  858TIP3    H2 2518   0.717   3.878   1.018
  859TIP3   OH2 2519   6.322   7.223   3.393
  859TIP3    H1 2520   6.281   7.258   3.472
  859TIP3    H2 2521   6.263   7.246   3.323
  860TIP3   OH2 2522   2.380   0.621   5.035
  860TIP3    H1 2523   2.326   0.594   4.961
  860TIP3    H2 2524   2.428   0.698   5.003
  861TIP3   OH2 2525   0.002   6.449   6.655
  861TIP3    H1 2526  -0.023   6.517   6.718
  861TIP3    H2 2527   0.063   6.393   6.704
  862TIP3   OH2 2528   6.447   6.361   1.749
  862TIP3    H1 2529   6.517   6.425   1.761
  862TIP3    H2 2530   6.374   6.411   1.712
  863TIP3   OH2 2531   8.214   1.137   1.488
  863TIP3    H1 2532   8.221   1.221   1.444
  863TIP3    H2 2533   8.130   1.102   1.460
  864TIP3   OH2 2534   7.630   5.580   1.058
  864TIP3    H1 2535   7.586   5.601   0.975
  864TIP3    H2 2536   7.616   5.486   1.070
  865TIP3   OH2 2537   7.776   5.032   5.683
  865TIP3    H1 2538   7.716   5.071   5.619
  865TIP3    H2 2539   7.846   5.096   5.692
  866TIP3   OH2 2540   5.359   4.390   1.217
  866TIP3    H1 2541   5.364   4.417   1.125
  866TIP3    H2 2542   5.385   4.469   1.266
  867TIP3   OH2 2543   3.927   4.378   1.178
  867TIP3    H1 2544   3.842   4.344   1.151
  867TIP3    H2 2545   3.989   4.310   1.152
  868TIP3   OH2 2546   4.192   7.654   2.554
  868TIP3    H1 2547   4.235   7.594   2.494
  868TIP3    H2 2548   4.225   7.631   2.640
  869TIP3   OH2 2549   3.404   5.014   4.843
  869TIP3    H1 2550   3.465   5.079   4.879
  869TIP3    H2 2551   3.352   4.986   4.918
  870TIP3   OH2 2552   5.156   3.807   0.559
  870TIP3    H1 2553   5.123   3.735   0.505
  870TIP3    H2 2554   5.242   3.776   0.589
  871TIP3   OH2 2555   1.289   6.413   5.086
  871TIP3    H1 2556   1.358   6.391   5.148
  871TIP3    H2 2557   1.211   6.426   5.141
  872TIP3   OH2 2558   6.855   2.213   2.111
  872TIP3    H1 2559   6.842   2.303   2.083
  872TIP3    H2 2560   6.856   2.217   2.206
  873TIP3   OH2 2561   6.260   5.738   0.200
  873TIP3    H1 2562   6.258   5.826   0.237
  873TIP3    H2 2563   6.344   5.701   0.227
  874TIP3   OH2 2564   5.168   6.202   3.718
  874TIP3    H1 2565   5.137   6.291   3.701
  874TIP3    H2 2566   5.170   6.196   3.814
  875TIP3   OH2 2567   6.558   7.373   4.222
  875TIP3    H1 2568   6.549   7.451   4.168
  875TIP3    H2 2569   6.479   7.372   4.277
  876TIP3   OH2 2570   6.190   1.989   5.721
  876TIP3    H1 2571   6.172   1.955   5.633
  876TIP3    H2 2572   6.115   2.046   5.741
  877TIP3   OH2 2573   6.765   2.478   3.077
  877TIP3    H1 2574   6.824   2.437   3.140
  877TIP3    H2 2575   6.759   2.415   3.005
  878TIP3   OH2 2576   2.297   7.515   3.785
  878TIP3    H1 2577   2.218   7.473   3.821
  878TIP3    H2 2578   2.277   7.609   3.788
  879TIP3   OH2 2579   7.309   0.483   3.388
  879TIP3    H1 2580   7.395   0.523   3.403
  879TIP3    H2 2581   7.257   0.555   3.351
  880TIP3   OH2 2582   6.194   3.241   2.804
  880TIP3    H1 2583   6.285   3.215   2.793
  880TIP3    H2 2584   6.174   3.221   2.896
  881TIP3   OH2 2585   3.631   5.370   5.277
  881TIP3    H1 2586   3.548   5.368   5.229
  881TIP3    H2 2587   3.687   5.309   5.231
  882TIP3   OH2 2588   1.403   2.430   4.208
  882TIP3    H1 2589   1.417   2.525   4.218
  882TIP3    H2 2590   1.448   2.408   4.126
  883TIP3   OH2 2591   2.918   3.765   6.280
  883TIP3    H1 2592   2.988   3.699   6.282
  883TIP3    H2 2593   2.851   3.726   6.224
  884TIP3   OH2 2594   8.175   3.711   5.637
  884TIP3    H1 2595   8.149   3.619   5.629
  884TIP3    H2 2596   8.093   3.759   5.645
  885TIP3   OH2 2597   8.207   5.670   0.940
  885TIP3    H1 2598   8.232   5.751   0.985
  885TIP3    H2 2599   8.228   5.687   0.848
  886TIP3   OH2 2600   8.083   5.269   6.465
  886TIP3    H1 2601   8.128   5.277   6.550
  886TIP3    H2 2602   8.097   5.354   6.423
  887TIP3   OH2 2603   0.825   1.751   4.521
  887TIP3    H1 2604   0.917   1.738   4.499
  887TIP3    H2 2605   0.827   1.803   4.601
  888TIP3   OH2 2606   2.682   2.365   6.509
  888TIP3    H1 2607   2.612   2.420   6.545
  888TIP3    H2 2608   2.636   2.305   6.450
  889TIP3   OH2 2609   0.400   7.584   2.905
  889TIP3    H1 2610   0.343   7.526   2.956
  889TIP3    H2 2611   0.353   7.667   2.903
  890TIP3   OH2 2612   7.555   0.365   3.122
  890TIP3    H1 2613   7.566   0.299   3.054
  890TIP3    H2 2614   7.473   0.341   3.166
  891TIP3   OH2 2615   0.975   0.614   5.128
  891TIP3    H1 2616   0.982   0.687   5.066
  891TIP3    H2 2617   1.040   0.551   5.098
  892TIP3   OH2 2618   3.259   2.138   6.147
  892TIP3    H1 2619   3.353   2.147   6.165
  892TIP3    H2 2620   3.226   2.084   6.219
  893TIP3   OH2 2621   8.089   5.103   5.139
  893TIP3    H1 2622   8.117   5.169   5.076
  893TIP3    H2 2623   8.168   5.081   5.188
  894TIP3   OH2 2624   1.061   5.654   4.170
  894TIP3    H1 2625   1.102   5.607   4.098
  894TIP3    H2 2626   1.086   5.746   4.156
  895TIP3   OH2 2627   3.221   4.774   5.813
  895TIP3    H1 2628   3.220   4.865   5.783
  895TIP3    H2 2629   3.313   4.753   5.826
  896TIP3   OH2 2630   8.189   4.664   2.043
  896TIP3    H1 2631   8.186   4.587   2.099
  896TIP3    H2 2632   8.097   4.680   2.019
  897TIP3   OH2 2633   3.944   3.911   2.947
  897TIP3    H1 2634   3.918   3.852   2.877
  897TIP3    H2 2635   3.960   3.995   2.904
  898TIP3   OH2 2636   0.900   6.212   1.668
  898TIP3    H1 2637   0.888   6.184   1.578
  898TIP3    H2 2638   0.993   6.199   1.686
  899TIP3   OH2 2639   1.193   6.594   1.786
  899TIP3    H1 2640   1.239   6.575   1.867
  899TIP3    H2 2641   1.215   6.685   1.765
  900TIP3   OH2 2642   6.971   1.414   2.384
  900TIP3    H1 2643   7.001   1.339   2.434
  900TIP3    H2 2644   6.876   1.413   2.392
  901TIP3   OH2 2645   1.022   6.470   6.561
  901TIP3    H1 2646   0.976   6.437   6.483
  901TIP3    H2 2647   1.023   6.565   6.549
  902TIP3   OH2 2648   4.141   0.337   0.314
  902TIP3    H1 2649   4.194   0.335   0.394
  902TIP3    H2 2650   4.177   0.409   0.263
  903TIP3   OH2 2651   7.544   5.249   2.479
  903TIP3    H1 2652   7.588   5.192   2.415
  903TIP3    H2 2653   7.615   5.302   2.517
  904TIP3   OH2 2654   4.157   0.798   2.765
  904TIP3    H1 2655   4.075   0.788   2.812
  904TIP3    H2 2656   4.178   0.711   2.733
  905TIP3   OH2 2657   5.491   0.499   5.940
  905TIP3    H1 2658   5.443   0.416   5.940
  905TIP3    H2 2659   5.552   0.491   5.866
  906TIP3   OH2 2660   7.538   1.393   2.138
  906TIP3    H1 2661   7.466   1.362   2.193
  906TIP3    H2 2662   7.603   1.324   2.143
  907TIP3   OH2 2663   2.433   5.499   4.900
  907TIP3    H1 2664   2.426   5.404   4.891
  907TIP3    H2 2665   2.520   5.521   4.866
  908TIP3   OH2 2666   0.057   2.085   2.443
  908TIP3    H1 2667   0.054   1.990   2.426
  908TIP3    H2 2668  -0.006   2.098   2.514
  909TIP3   OH2 2669   0.164   7.291   0.155
  909TIP3    H1 2670   0.227   7.357   0.185
  909TIP3    H2 2671   0.146   7.315   0.064
  910TIP3   OH2 2672   5.531   2.034   6.198
  910TIP3    H1 2673   5.569   2.047   6.111
  910TIP3    H2 2674   5.467   2.104   6.207
  911TIP3   OH2 2675   0.159   1.734   5.671
  911TIP3    H1 2676   0.211   1.809   5.698
  911TIP3    H2 2677   0.100   1.769   5.603
  912TIP3   OH2 2678   0.554   4.943   4.528
  912TIP3    H1 2679   0.626   4.931   4.590
  912TIP3    H2 2680   0.589   5.003   4.462
  913TIP3   OH2 2681   7.441   4.005   2.736
  913TIP3    H1 2682   7.501   3.955   2.791
  913TIP3    H2 2683   7.481   4.005   2.649
  914TIP3   OH2 2684   4.707   5.088   0.967
  914TIP3    H1 2685   4.723   5.002   0.928
  914TIP3    H2 2686   4.642   5.071   1.035
  915TIP3   OH2 2687   5.212   0.319   6.677
  915TIP3    H1 2688   5.262   0.397   6.651
  915TIP3    H2 2689   5.274   0.247   6.667
  916TIP3   OH2 2690   0.951   0.765   2.316
  916TIP3    H1 2691   0.885   0.704   2.284
  916TIP3    H2 2692   0.901   0.842   2.344
  917TIP3   OH2 2693   0.868   6.229   6.282
  917TIP3    H1 2694   0.896   6.307   6.235
  917TIP3    H2 2695   0.780   6.211   6.248
  918TIP3   OH2 2696   0.868   5.087   2.953
  918TIP3    H1 2697   0.773   5.077   2.955
  918TIP3    H2 2698   0.890   5.082   2.860
  919TIP3   OH2 2699   0.797   0.701   1.278
  919TIP3    H1 2700   0.713   0.743   1.263
  919TIP3    H2 2701   0.850   0.727   1.202
  920TIP3   OH2 2702   5.080   3.925   2.222
  920TIP3    H1 2703   5.056   4.015   2.248
  920TIP3    H2 2704   5.175   3.925   2.223
  921TIP3   OH2 2705   1.695   3.576   3.302
  921TIP3    H1 2706   1.771   3.609   3.253
  921TIP3    H2 2707   1.732   3.515   3.366
  922TIP3   OH2 2708   6.831   0.646   1.089
  922TIP3    H1 2709   6.784   0.651   1.006
  922TIP3    H2 2710   6.909   0.595   1.070
  923TIP3   OH2 2711   7.955   7.102   1.460
  923TIP3    H1 2712   7.981   7.109   1.368
  923TIP3    H2 2713   8.037   7.105   1.509
  924TIP3   OH2 2714   4.432   6.020   4.845
  924TIP3    H1 2715   4.403   5.971   4.923
  924TIP3    H2 2716   4.367   5.999   4.778
  925TIP3   OH2 2717   1.244   1.287   3.531
  925TIP3    H1 2718   1.281   1.209   3.489
  925TIP3    H2 2719   1.286   1.360   3.485
  926TIP3   OH2 2720   6.613   5.741   6.688
  926TIP3    H1 2721   6.702   5.709   6.673
  926TIP3    H2 2722   6.623   5.834   6.706
  927TIP3   OH2 2723   0.300   2.704   4.838
  927TIP3    H1 2724   0.378   2.675   4.790
  927TIP3    H2 2725   0.315   2.797   4.854
  928TIP3   OH2 2726   3.698   5.672  -0.010
  928TIP3    H1 2727   3.604   5.659   0.001
  928TIP3    H2 2728   3.733   5.662   0.079
  929TIP3   OH2 2729   1.920   6.655   0.938
  929TIP3    H1 2730   1.903   6.741   0.978
  929TIP3    H2 2731   2.015   6.644   0.944
  930TIP3   OH2 2732   4.180   5.195   1.190
  930TIP3    H1 2733   4.129   5.186   1.269
  930TIP3    H2 2734   4.178   5.289   1.171
  931TIP3   OH2 2735   2.630   7.397   0.173
  931TIP3    H1 2736   2.596   7.484   0.154
  931TIP3    H2 2737   2.554   7.339   0.163
  932TIP3   OH2 2738   6.463   4.714   4.455
  932TIP3    H1 2739   6.433   4.763   4.378
  932TIP3    H2 2740   6.412   4.633   4.452
  933TIP3   OH2 2741   8.104   5.143   5.985
  933TIP3    H1 2742   8.194   5.172   5.968
  933TIP3    H2 2743   8.087   5.169   6.075
  934TIP3   OH2 2744   2.330   1.542   5.943
  934TIP3    H1 2745   2.304   1.487   6.017
  934TIP3    H2 2746   2.265   1.524   5.876
  935TIP3   OH2 2747   2.240   2.971   0.607
  935TIP3    H1 2748   2.273   2.894   0.561
  935TIP3    H2 2749   2.195   2.936   0.684
  936TIP3   OH2 2750   2.397   2.056   5.263
  936TIP3    H1 2751   2.358   2.030   5.346
  936TIP3    H2 2752   2.462   1.987   5.244
  937TIP3   OH2 2753   5.093   2.789   1.029
  937TIP3    H1 2754   5.175   2.832   1.051
  937TIP3    H2 2755   5.119   2.703   0.996
  938TIP3   OH2 2756   5.763   0.842   2.724
  938TIP3    H1 2757   5.843   0.789   2.721
  938TIP3    H2 2758   5.737   0.841   2.816
  939TIP3   OH2 2759   1.174   0.771   4.577
  939TIP3    H1 2760   1.248   0.825   4.605
  939TIP3    H2 2761   1.195   0.683   4.608
  940TIP3   OH2 2762   7.843   4.817   5.427
  940TIP3    H1 2763   7.880   4.744   5.476
  940TIP3    H2 2764   7.902   4.890   5.445
  941TIP3   OH2 2765   2.591   4.116   4.942
  941TIP3    H1 2766   2.636   4.200   4.932
  941TIP3    H2 2767   2.559   4.096   4.854
  942TIP3   OH2 2768   2.794   1.668   2.092
  942TIP3    H1 2769   2.784   1.648   1.999
  942TIP3    H2 2770   2.862   1.735   2.095
  943TIP3   OH2 2771   4.644   0.406   2.846
  943TIP3    H1 2772   4.572   0.465   2.868
  943TIP3    H2 2773   4.655   0.351   2.923
  944TIP3   OH2 2774   0.235   2.938   5.917
  944TIP3    H1 2775   0.297   2.945   5.845
  944TIP3    H2 2776   0.217   3.028   5.943
  945TIP3   OH2 2777   2.845   0.431   2.167
  945TIP3    H1 2778   2.836   0.501   2.232
  945TIP3    H2 2779   2.937   0.434   2.142
  946TIP3   OH2 2780   2.888   0.371   3.645
  946TIP3    H1 2781   2.839   0.424   3.583
  946TIP3    H2 2782   2.964   0.424   3.669
  947TIP3   OH2 2783   0.789   7.193   2.171
  947TIP3    H1 2784   0.791   7.213   2.264
  947TIP3    H2 2785   0.765   7.276   2.129
  948TIP3   OH2 2786   0.324   5.985   1.478
  948TIP3    H1 2787   0.313   5.952   1.567
  948TIP3    H2 2788   0.284   6.072   1.480
  949TIP3   OH2 2789   7.991   5.050   6.270
  949TIP3    H1 2790   7.978   5.071   6.362
  949TIP3    H2 2791   7.910   5.077   6.227
  950TIP3   OH2 2792   0.902   5.772   1.118
  950TIP3    H1 2793   0.907   5.844   1.054
  950TIP3    H2 2794   0.827   5.793   1.173
  951TIP3   OH2 2795   3.502   6.645   1.661
  951TIP3    H1 2796   3.470   6.657   1.751
  951TIP3    H2 2797   3.445   6.579   1.624
  952TIP3   OH2 2798   3.407   1.945   2.295
  952TIP3    H1 2799   3.495   1.975   2.274
  952TIP3    H2 2800   3.373   1.910   2.212
  953TIP3   OH2 2801   4.374   3.364   2.861
  953TIP3    H1 2802   4.359   3.324   2.947
  953TIP3    H2 2803   4.444   3.311   2.822
  954TIP3   OH2 2804   2.077   0.719   2.383
  954TIP3    H1 2805   2.077   0.814   2.365
  954TIP3    H2 2806   2.170   0.695   2.385
  955TIP3   OH2 2807   5.813   4.927   6.278
  955TIP3    H1 2808   5.739   4.987   6.274
  955TIP3    H2 2809   5.818   4.901   6.370
  956TIP3   OH2 2810   7.116   5.507   3.621
  956TIP3    H1 2811   7.104   5.418   3.589
  956TIP3    H2 2812   7.146   5.557   3.545
  957TIP3   OH2 2813   7.290   6.129   0.670
  957TIP3    H1 2814   7.213   6.072   0.674
  957TIP3    H2 2815   7.362   6.070   0.648
  958TIP3   OH2 2816   8.045   3.230   0.718
  958TIP3    H1 2817   8.028   3.320   0.691
  958TIP3    H2 2818   8.140   3.221   0.713
  959TIP3   OH2 2819   4.640   5.432   5.348
  959TIP3    H1 2820   4.615   5.359   5.404
  959TIP3    H2 2821   4.714   5.399   5.297
  960TIP3   OH2 2822   1.143   3.961   0.749
  960TIP3    H1 2823   1.171   3.998   0.665
  960TIP3    H2 2824   1.068   3.906   0.728
  961TIP3   OH2 2825   1.249   3.492   1.543
  961TIP3    H1 2826   1.287   3.405   1.552
  961TIP3    H2 2827   1.235   3.502   1.448
  962TIP3   OH2 2828   0.314   0.572   6.620
  962TIP3    H1 2829   0.261   0.577   6.540
  962TIP3    H2 2830   0.390   0.519   6.596
  963TIP3   OH2 2831   4.792   4.798   5.790
  963TIP3    H1 2832   4.796   4.859   5.864
  963TIP3    H2 2833   4.876   4.752   5.792
  964TIP3   OH2 2834   5.031   4.265   6.362
  964TIP3    H1 2835   4.951   4.259   6.311
  964TIP3    H2 2836   5.049   4.359   6.367
  965TIP3   OH2 2837   4.074   3.087   6.767
  965TIP3    H1 2838   4.009   3.153   6.790
  965TIP3    H2 2839   4.024   3.006   6.756
  966TIP3   OH2 2840   7.494   1.338   6.191
  966TIP3    H1 2841   7.428   1.298   6.134
  966TIP3    H2 2842   7.457   1.424   6.211
  967TIP3   OH2 2843   3.173   0.147   2.691
  967TIP3    H1 2844   3.257   0.120   2.654
  967TIP3    H2 2845   3.182   0.133   2.785
  968TIP3   OH2 2846   0.263   7.102   1.181
  968TIP3    H1 2847   0.260   7.148   1.097
  968TIP3    H2 2848   0.325   7.151   1.234
  969TIP3   OH2 2849   7.985   5.911   5.438
  969TIP3    H1 2850   7.929   5.858   5.380
  969TIP3    H2 2851   8.032   5.969   5.378
  970TIP3   OH2 2852   6.703   4.236   0.998
  970TIP3    H1 2853   6.742   4.280   0.923
  970TIP3    H2 2854   6.713   4.298   1.070
  971TIP3   OH2 2855   2.341   0.798   6.396
  971TIP3    H1 2856   2.275   0.822   6.461
  971TIP3    H2 2857   2.290   0.769   6.320
  972TIP3   OH2 2858   5.531   0.451   3.145
  972TIP3    H1 2859   5.566   0.362   3.143
  972TIP3    H2 2860   5.603   0.505   3.178
  973TIP3   OH2 2861   7.834   3.924   1.642
  973TIP3    H1 2862   7.904   3.940   1.706
  973TIP3    H2 2863   7.879   3.919   1.558
  974TIP3   OH2 2864   0.681   2.955   1.156
  974TIP3    H1 2865   0.734   3.031   1.129
  974TIP3    H2 2866   0.640   2.982   1.238
  975TIP3   OH2 2867   4.545   6.597   3.102
  975TIP3    H1 2868   4.451   6.590   3.114
  975TIP3    H2 2869   4.566   6.534   3.033
  976TIP3   OH2 2870   5.263   6.530   1.156
  976TIP3    H1 2871   5.293   6.460   1.214
  976TIP3    H2 2872   5.270   6.610   1.209
  977TIP3   OH2 2873   7.395   4.534   2.233
  977TIP3    H1 2874   7.305   4.507   2.214
  977TIP3    H2 2875   7.385   4.603   2.299
  978TIP3   OH2 2876   4.864   0.122   5.932
  978TIP3    H1 2877   4.860   0.154   6.022
  978TIP3    H2 2878   4.822   0.036   5.935
  979TIP3   OH2 2879   1.122   7.768   6.625
  979TIP3    H1 2880   1.074   7.696   6.586
  979TIP3    H2 2881   1.104   7.843   6.568
  980TIP3   OH2 2882   6.131   4.588   0.515
  980TIP3    H1 2883   6.095   4.621   0.432
  980TIP3    H2 2884   6.101   4.650   0.581
  981TIP3   OH2 2885   3.645   5.449   5.883
  981TIP3    H1 2886   3.627   5.463   5.791
  981TIP3    H2 2887   3.702   5.372   5.885
  982TIP3   OH2 2888   5.865   2.008   3.050
  982TIP3    H1 2889   5.861   1.954   3.129
  982TIP3    H2 2890   5.955   2.042   3.049
  983TIP3   OH2 2891   5.401   6.406   1.888
  983TIP3    H1 2892   5.331   6.342   1.903
  983TIP3    H2 2893   5.400   6.461   1.966
  984TIP3   OH2 2894   4.706   6.787   2.996
  984TIP3    H1 2895   4.742   6.751   2.915
  984TIP3    H2 2896   4.632   6.731   3.018
  985TIP3   OH2 2897   2.220   6.415   1.862
  985TIP3    H1 2898   2.217   6.511   1.855
  985TIP3    H2 2899   2.302   6.397   1.908
  986TIP3   OH2 2900   4.455   3.184   0.160
  986TIP3    H1 2901   4.363   3.172   0.136
  986TIP3    H2 2902   4.480   3.100   0.201
  987TIP3   OH2 2903   4.300   6.647   5.051
  987TIP3    H1 2904   4.213   6.685   5.035
  987TIP3    H2 2905   4.286   6.586   5.123
  988TIP3   OH2 2906   6.676   1.476   3.130
  988TIP3    H1 2907   6.752   1.534   3.128
  988TIP3    H2 2908   6.621   1.506   3.057
  989TIP3   OH2 2909   2.608   1.523   2.986
  989TIP3    H1 2910   2.626   1.434   2.957
  989TIP3    H2 2911   2.528   1.517   3.038
  990TIP3   OH2 2912   6.237   7.477   2.105
  990TIP3    H1 2913   6.294   7.553   2.117
  990TIP3    H2 2914   6.222   7.444   2.194
  991TIP3   OH2 2915   0.057   0.628   4.725
  991TIP3    H1 2916   0.096   0.546   4.693
  991TIP3    H2 2917  -0.010   0.599   4.787
  992TIP3   OH2 2918   6.280   1.557   3.926
  992TIP3    H1 2919   6.332   1.627   3.966
  992TIP3    H2 2920   6.243   1.597   3.848
  993TIP3   OH2 2921   3.818   1.334   3.351
  993TIP3    H1 2922   3.775   1.365   3.430
  993TIP3    H2 2923   3.890   1.396   3.336
  994TIP3   OH2 2924   3.893   7.647   2.213
  994TIP3    H1 2925   3.890   7.697   2.132
  994TIP3    H2 2926   3.945   7.569   2.192
  995TIP3   OH2 2927   4.232   1.173   5.799
  995TIP3    H1 2928   4.269   1.142   5.717
  995TIP3    H2 2929   4.151   1.123   5.810
  996TIP3   OH2 2930   1.930   0.158   4.230
  996TIP3    H1 2931   1.946   0.142   4.323
  996TIP3    H2 2932   2.013   0.136   4.187
  997TIP3   OH2 2933   7.662   1.034   4.167
  997TIP3    H1 2934   7.674   1.036   4.072
  997TIP3    H2 2935   7.576   0.995   4.180
  998TIP3   OH2 2936   7.425   5.403   5.284
  998TIP3    H1 2937   7.369   5.390   5.360
  998TIP3    H2 2938   7.380   5.469   5.231
  999TIP3   OH2 2939   2.618   3.916   0.690
  999TIP3    H1 2940   2.560   3.896   0.616
  999TIP3    H2 2941   2.629   3.832   0.735
 1000TIP3   OH2 2942   7.708   7.009   1.554
 1000TIP3    H1 2943   7.729   6.916   1.558
 1000TIP3    H2 2944   7.788   7.051   1.522
 1001TIP3   OH2 2945   2.735   1.038   5.801
 1001TIP3    H1 2946   2.795   1.083   5.742
 1001TIP3    H2 2947   2.759   1.069   5.889
 1002TIP3   OH2 2948   5.040   4.302   5.076
 1002TIP3    H1 2949   5.105   4.321   5.144
 1002TIP3    H2 2950   5.071   4.221   5.036
 1003TIP3   OH2 2951   4.683   5.760   0.228
 1003TIP3    H1 2952   4.636   5.819   0.286
 1003TIP3    H2 2953   4.751   5.815   0.188
 1004TIP3   OH2 2954   5.086   7.516   5.969
 1004TIP3    H1 2955   5.159   7.559   6.013
 1004TIP3    H2 2956   5.039   7.470   6.038
 1005TIP3   OH2 2957   3.442   3.846   6.119
 1005TIP3    H1 2958   3.517   3.847   6.179
 1005TIP3    H2 2959   3.469   3.902   6.046
 1006TIP3   OH2 2960   7.145   5.832   4.442
 1006TIP3    H1 2961   7.057   5.839   4.479
 1006TIP3    H2 2962   7.132   5.790   4.357
 1007TIP3   OH2 2963   2.077   1.910   0.885
 1007TIP3    H1 2964   1.982   1.911   0.876
 1007TIP3    H2 2965   2.107   1.976   0.822
 1008TIP3   OH2 2966   0.120   2.382   0.383
 1008TIP3    H1 2967   0.194   2.345   0.432
 1008TIP3    H2 2968   0.044   2.367   0.441
 1009TIP3   OH2 2969   5.753   1.858   5.982
 1009TIP3    H1 2970   5.828   1.821   6.028
 1009TIP3    H2 2971   5.679   1.841   6.040
 1010TIP3   OH2 2972   5.976   4.333   2.729
 1010TIP3    H1 2973   5.981   4.313   2.636
 1010TIP3    H2 2974   6.032   4.411   2.739
 1011TIP3   OH2 2975   1.396   5.569   5.574
 1011TIP3    H1 2976   1.429   5.658   5.579
 1011TIP3    H2 2977   1.319   5.575   5.517
 1012TIP3   OH2 2978   5.690   3.264   4.201
 1012TIP3    H1 2979   5.705   3.219   4.117
 1012TIP3    H2 2980   5.778   3.279   4.235
 1013TIP3   OH2 2981   4.817   5.549   2.554
 1013TIP3    H1 2982   4.912   5.539   2.544
 1013TIP3    H2 2983   4.801   5.535   2.647
 1014TIP3   OH2 2984   7.443   4.766   2.373
 1014TIP3    H1 2985   7.515   4.815   2.412
 1014TIP3    H2 2986   7.365   4.815   2.398
 1015TIP3   OH2 2987   8.068   2.365   6.772
 1015TIP3    H1 2988   8.029   2.444   6.811
 1015TIP3    H2 2989   8.160   2.368   6.799
 1016TIP3   OH2 2990   4.194   5.833   0.431
 1016TIP3    H1 2991   4.126   5.889   0.467
 1016TIP3    H2 2992   4.164   5.812   0.343
 1017TIP3   OH2 2993   0.878   5.115   1.329
 1017TIP3    H1 2994   0.954   5.166   1.300
 1017TIP3    H2 2995   0.899   5.025   1.306
 1018TIP3   OH2 2996   0.339   4.307   3.287
 1018TIP3    H1 2997   0.284   4.386   3.285
 1018TIP3    H2 2998   0.316   4.265   3.370
 1019TIP3   OH2 2999   0.915   2.786   1.024
 1019TIP3    H1 3000   0.861   2.840   1.082
 1019TIP3    H2 3001   0.956   2.722   1.081
 1020TIP3   OH2 3002   0.025   6.250   0.069
 1020TIP3    H1 3003   0.094   6.187   0.089
 1020TIP3    H2 3004   0.056   6.296  -0.010
 1021TIP3   OH2 3005   1.568   7.756   4.601
 1021TIP3    H1 3006   1.516   7.682   4.569
 1021TIP3    H2 3007   1.506   7.809   4.652
 1022TIP3   OH2 3008   3.871   1.874   1.267
 1022TIP3    H1 3009   3.776   1.885   1.259
 1022TIP3    H2 3010   3.905   1.895   1.180
 1023TIP3   OH2 3011   1.630   7.772   1.903
 1023TIP3    H1 3012   1.587   7.754   1.819
 1023TIP3    H2 3013   1.705   7.713   1.905
 1024TIP3   OH2 3014   7.087   0.860   4.265
 1024TIP3    H1 3015   7.008   0.837   4.315
 1024TIP3    H2 3016   7.084   0.955   4.259
 1025TIP3   OH2 3017   1.431   2.363   3.445
 1025TIP3    H1 3018   1.343   2.363   3.482
 1025TIP3    H2 3019   1.439   2.448   3.402
 1026TIP3   OH2 3020   2.709   4.533   4.477
 1026TIP3    H1 3021   2.767   4.604   4.505
 1026TIP3    H2 3022   2.655   4.514   4.554
 1027TIP3   OH2 3023   7.756   3.312   5.821
 1027TIP3    H1 3024   7.678   3.304   5.876
 1027TIP3    H2 3025   7.795   3.396   5.846
 1028TIP3   OH2 3026   2.455   3.803   5.661
 1028TIP3    H1 3027   2.411   3.790   5.576
 1028TIP3    H2 3028   2.544   3.770   5.646
 1029TIP3   OH2 3029   4.462   5.288   0.900
 1029TIP3    H1 3030   4.443   5.224   0.968
 1029TIP3    H2 3031   4.555   5.273   0.879
 1030TIP3   OH2 3032   0.224   3.904   6.228
 1030TIP3    H1 3033   0.239   3.896   6.322
 1030TIP3    H2 3034   0.162   3.976   6.219
 1031TIP3   OH2 3035   7.784   0.676   6.542
 1031TIP3    H1 3036   7.815   0.756   6.585
 1031TIP3    H2 3037   7.863   0.626   6.524
 1032TIP3   OH2 3038   0.606   3.825   4.195
 1032TIP3    H1 3039   0.557   3.879   4.257
 1032TIP3    H2 3040   0.685   3.876   4.177
 1033TIP3   OH2 3041   4.345   2.298   0.531
 1033TIP3    H1 3042   4.405   2.372   0.540
 1033TIP3    H2 3043   4.287   2.322   0.460
 1034TIP3   OH2 3044   6.774   4.307   2.325
 1034TIP3    H1 3045   6.846   4.321   2.387
 1034TIP3    H2 3046   6.695   4.311   2.379
 1035TIP3   OH2 3047   7.495   3.711   5.620
 1035TIP3    H1 3048   7.447   3.711   5.537
 1035TIP3    H2 3049   7.569   3.652   5.605
 1036TIP3   OH2 3050   4.649   2.803   3.552
 1036TIP3    H1 3051   4.589   2.878   3.544
 1036TIP3    H2 3052   4.730   2.833   3.511
 1037TIP3   OH2 3053   6.207   1.874   3.597
 1037TIP3    H1 3054   6.126   1.924   3.605
 1037TIP3    H2 3055   6.254   1.915   3.524
 1038TIP3   OH2 3056   5.086   4.324   5.551
 1038TIP3    H1 3057   5.153   4.284   5.606
 1038TIP3    H2 3058   5.130   4.340   5.467
 1039TIP3   OH2 3059   5.446   5.363   2.919
 1039TIP3    H1 3060   5.512   5.402   2.976
 1039TIP3    H2 3061   5.362   5.392   2.956
 1040TIP3   OH2 3062   4.356   7.563   5.527
 1040TIP3    H1 3063   4.432   7.505   5.535
 1040TIP3    H2 3064   4.392   7.651   5.536
 1041TIP3   OH2 3065   2.895   3.719   2.271
 1041TIP3    H1 3066   2.924   3.776   2.341
 1041TIP3    H2 3067   2.816   3.676   2.305
 1042TIP3   OH2 3068   5.213   0.946   5.922
 1042TIP3    H1 3069   5.186   0.890   5.849
 1042TIP3    H2 3070   5.282   0.897   5.966
 1043TIP3   OH2 3071   5.526   5.749   5.445
 1043TIP3    H1 3072   5.482   5.803   5.380
 1043TIP3    H2 3073   5.520   5.660   5.411
 1044TIP3   OH2 3074   6.281   3.460   5.909
 1044TIP3    H1 3075   6.312   3.510   5.834
 1044TIP3    H2 3076   6.268   3.525   5.978
 1045TIP3   OH2 3077   3.989   5.121   0.485
 1045TIP3    H1 3078   3.914   5.072   0.451
 1045TIP3    H2 3079   4.015   5.072   0.564
 1046TIP3   OH2 3080   2.512   0.102   0.393
 1046TIP3    H1 3081   2.505   0.196   0.374
 1046TIP3    H2 3082   2.597   0.077   0.357
 1047TIP3   OH2 3083   2.189   6.918   6.521
 1047TIP3    H1 3084   2.259   6.934   6.584
 1047TIP3    H2 3085   2.112   6.900   6.575
 1048TIP3   OH2 3086   3.035   3.056   6.441
 1048TIP3    H1 3087   2.970   3.023   6.378
 1048TIP3    H2 3088   3.116   3.064   6.389
 1049TIP3   OH2 3089   4.911   2.801   5.955
 1049TIP3    H1 3090   4.938   2.872   6.013
 1049TIP3    H2 3091   4.973   2.804   5.882
 1050TIP3   OH2 3092   0.094   4.733   0.489
 1050TIP3    H1 3093   0.127   4.665   0.547
 1050TIP3    H2 3094   0.000   4.737   0.508
 1051TIP3   OH2 3095   6.147   0.915   3.774
 1051TIP3    H1 3096   6.114   0.950   3.857
 1051TIP3    H2 3097   6.219   0.974   3.750
 1052TIP3   OH2 3098   4.085   1.347   0.539
 1052TIP3    H1 3099   4.090   1.406   0.464
 1052TIP3    H2 3100   4.176   1.323   0.557
 1053TIP3   OH2 3101   6.097   0.086   3.097
 1053TIP3    H1 3102   6.133   0.052   3.180
 1053TIP3    H2 3103   6.029   0.147   3.124
 1054TIP3   OH2 3104   6.404   5.843   4.184
 1054TIP3    H1 3105   6.337   5.800   4.132
 1054TIP3    H2 3106   6.440   5.910   4.125
 1055TIP3   OH2 3107   0.064   3.743   1.314
 1055TIP3    H1 3108  -0.006   3.805   1.292
 1055TIP3    H2 3109   0.116   3.789   1.380
 1056TIP3   OH2 3110   1.635   0.455   6.056
 1056TIP3    H1 3111   1.638   0.451   6.152
 1056TIP3    H2 3112   1.668   0.542   6.034
 1057TIP3   OH2 3113   1.826   3.312   4.157
 1057TIP3    H1 3114   1.743   3.320   4.110
 1057TIP3    H2 3115   1.804   3.332   4.248
 1058TIP3   OH2 3116   2.389   6.320   6.512
 1058TIP3    H1 3117   2.350   6.256   6.452
 1058TIP3    H2 3118   2.322   6.335   6.578
 1059TIP3   OH2 3119   2.833   3.470   4.919
 1059TIP3    H1 3120   2.847   3.441   4.829
 1059TIP3    H2 3121   2.849   3.391   4.971
 1060TIP3   OH2 3122   5.983   1.500   1.415
 1060TIP3    H1 3123   5.916   1.528   1.476
 1060TIP3    H2 3124   5.969   1.555   1.337
 1061TIP3   OH2 3125   8.211   6.664   1.149
 1061TIP3    H1 3126   8.148   6.733   1.169
 1061TIP3    H2 3127   8.228   6.623   1.234
 1062TIP3   OH2 3128   2.281   5.356   0.728
 1062TIP3    H1 3129   2.247   5.266   0.737
 1062TIP3    H2 3130   2.204   5.412   0.738
 1063TIP3   OH2 3131   6.955   4.378   0.126
 1063TIP3    H1 3132   6.964   4.424   0.042
 1063TIP3    H2 3133   7.031   4.405   0.177
 1064TIP3   OH2 3134   5.083   0.926   2.102
 1064TIP3    H1 3135   5.168   0.954   2.135
 1064TIP3    H2 3136   5.049   0.865   2.168
 1065TIP3   OH2 3137   4.436   6.281   4.969
 1065TIP3    H1 3138   4.469   6.196   4.942
 1065TIP3    H2 3139   4.341   6.272   4.966
 1066TIP3   OH2 3140   2.635   6.945   0.326
 1066TIP3    H1 3141   2.656   6.991   0.245
 1066TIP3    H2 3142   2.712   6.957   0.381
 1067TIP3   OH2 3143   5.393   4.045   6.650
 1067TIP3    H1 3144   5.319   4.041   6.710
 1067TIP3    H2 3145   5.361   4.094   6.574
 1068TIP3   OH2 3146   7.156   0.087   3.206
 1068TIP3    H1 3147   7.131   0.161   3.152
 1068TIP3    H2 3148   7.089   0.020   3.189
 1069TIP3   OH2 3149   5.721   5.957   0.902
 1069TIP3    H1 3150   5.643   5.993   0.860
 1069TIP3    H2 3151   5.691   5.932   0.990
 1070TIP3   OH2 3152   6.853   1.875   5.521
 1070TIP3    H1 3153   6.783   1.931   5.556
 1070TIP3    H2 3154   6.853   1.799   5.579
 1071TIP3   OH2 3155   2.187   7.572   1.166
 1071TIP3    H1 3156   2.236   7.571   1.084
 1071TIP3    H2 3157   2.138   7.490   1.166
 1072TIP3   OH2 3158   4.038   4.864   1.281
 1072TIP3    H1 3159   4.119   4.883   1.328
 1072TIP3    H2 3160   3.975   4.927   1.317
 1073TIP3   OH2 3161   5.173   7.461   5.495
 1073TIP3    H1 3162   5.113   7.396   5.457
 1073TIP3    H2 3163   5.240   7.473   5.427
 1074TIP3   OH2 3164   7.266   3.482   6.142
 1074TIP3    H1 3165   7.288   3.572   6.165
 1074TIP3    H2 3166   7.204   3.491   6.070
 1075TIP3   OH2 3167   4.470   2.101   4.961
 1075TIP3    H1 3168   4.516   2.119   4.879
 1075TIP3    H2 3169   4.533   2.050   5.013
 1076TIP3   OH2 3170   7.846   6.145   2.061
 1076TIP3    H1 3171   7.851   6.206   1.988
 1076TIP3    H2 3172   7.753   6.125   2.070
 1077TIP3   OH2 3173   2.338   1.827   6.444
 1077TIP3    H1 3174   2.386   1.771   6.382
 1077TIP3    H2 3175   2.247   1.799   6.436
 1078TIP3   OH2 3176   6.144   4.446   5.925
 1078TIP3    H1 3177   6.119   4.532   5.958
 1078TIP3    H2 3178   6.192   4.406   5.998
 1079TIP3   OH2 3179   7.609   6.046   2.934
 1079TIP3    H1 3180   7.551   5.975   2.908
 1079TIP3    H2 3181   7.682   6.041   2.872
 1080TIP3   OH2 3182   6.181   5.668   3.302
 1080TIP3    H1 3183   6.180   5.746   3.246
 1080TIP3    H2 3184   6.273   5.653   3.322
 1081TIP3   OH2 3185   7.722   4.840   1.478
 1081TIP3    H1 3186   7.655   4.888   1.430
 1081TIP3    H2 3187   7.734   4.759   1.428
 1082TIP3   OH2 3188   2.553   6.041   3.225
 1082TIP3    H1 3189   2.532   6.099   3.152
 1082TIP3    H2 3190   2.627   5.989   3.194
 1083TIP3   OH2 3191   3.821   1.912   5.990
 1083TIP3    H1 3192   3.731   1.913   5.958
 1083TIP3    H2 3193   3.869   1.861   5.926
 1084TIP3   OH2 3194   5.266   1.828   3.411
 1084TIP3    H1 3195   5.342   1.884   3.431
 1084TIP3    H2 3196   5.198   1.890   3.385
 1085TIP3   OH2 3197   6.890   3.663   4.242
 1085TIP3    H1 3198   6.881   3.574   4.208
 1085TIP3    H2 3199   6.801   3.688   4.267
 1086TIP3   OH2 3200   8.047   4.408   5.858
 1086TIP3    H1 3201   8.112   4.338   5.852
 1086TIP3    H2 3202   8.093   4.480   5.901
 1087TIP3   OH2 3203   3.516   2.841   3.993
 1087TIP3    H1 3204   3.548   2.761   3.951
 1087TIP3    H2 3205   3.465   2.809   4.068
 1088TIP3   OH2 3206   7.387   7.296   1.448
 1088TIP3    H1 3207   7.295   7.270   1.445
 1088TIP3    H2 3208   7.400   7.324   1.539
 1089TIP3   OH2 3209   2.676   3.611   4.742
 1089TIP3    H1 3210   2.737   3.563   4.799
 1089TIP3    H2 3211   2.609   3.546   4.720
 1090TIP3   OH2 3212   3.448   0.513   1.373
 1090TIP3    H1 3213   3.373   0.502   1.315
 1090TIP3    H2 3214   3.410   0.544   1.455
 1091TIP3   OH2 3215   2.109   6.545   5.517
 1091TIP3    H1 3216   2.152   6.623   5.481
 1091TIP3    H2 3217   2.027   6.579   5.553
 1092TIP3   OH2 3218   6.200   6.061   2.566
 1092TIP3    H1 3219   6.187   6.137   2.623
 1092TIP3    H2 3220   6.159   5.988   2.614
 1093TIP3   OH2 3221   4.561   6.092   0.875
 1093TIP3    H1 3222   4.515   6.176   0.869
 1093TIP3    H2 3223   4.505   6.038   0.931
 1094TIP3   OH2 3224   1.537   7.097   5.289
 1094TIP3    H1 3225   1.510   7.087   5.380
 1094TIP3    H2 3226   1.457   7.079   5.239
 1095TIP3   OH2 3227   0.871   4.426   3.230
 1095TIP3    H1 3228   0.864   4.337   3.196
 1095TIP3    H2 3229   0.781   4.455   3.242
 1096TIP3   OH2 3230   1.769   5.717   0.220
 1096TIP3    H1 3231   1.766   5.791   0.281
 1096TIP3    H2 3232   1.677   5.700   0.199
 1097TIP3   OH2 3233   5.054   7.796   5.290
 1097TIP3    H1 3234   5.147   7.783   5.305
 1097TIP3    H2 3235   5.045   7.890   5.277
 1098TIP3   OH2 3236   1.617   3.212   3.358
 1098TIP3    H1 3237   1.587   3.266   3.285
 1098TIP3    H2 3238   1.608   3.269   3.435
 1099TIP3   OH2 3239   7.757   4.452   2.871
 1099TIP3    H1 3240   7.758   4.432   2.778
 1099TIP3    H2 3241   7.758   4.548   2.876
 1100TIP3   OH2 3242   1.040   0.578   1.604
 1100TIP3    H1 3243   0.952   0.593   1.638
 1100TIP3    H2 3244   1.064   0.662   1.565
 1101TIP3   OH2 3245   2.004   5.454   3.463
 1101TIP3    H1 3246   1.916   5.474   3.432
 1101TIP3    H2 3247   2.061   5.469   3.387
 1102TIP3   OH2 3248   8.254   1.105   0.109
 1102TIP3    H1 3249   8.168   1.097   0.068
 1102TIP3    H2 3250   8.286   1.191   0.083
 1103TIP3   OH2 3251   5.896   4.398   5.578
 1103TIP3    H1 3252   5.860   4.317   5.614
 1103TIP3    H2 3253   5.980   4.409   5.624
 1104TIP3   OH2 3254   3.939   2.776   4.738
 1104TIP3    H1 3255   3.854   2.815   4.717
 1104TIP3    H2 3256   4.002   2.847   4.725
 1105TIP3   OH2 3257   7.341   6.724   0.875
 1105TIP3    H1 3258   7.288   6.649   0.849
 1105TIP3    H2 3259   7.429   6.688   0.886
 1106TIP3   OH2 3260   3.671   1.035   6.611
 1106TIP3    H1 3261   3.745   0.993   6.568
 1106TIP3    H2 3262   3.700   1.048   6.702
 1107TIP3   OH2 3263   7.651   6.665   3.082
 1107TIP3    H1 3264   7.601   6.707   3.152
 1107TIP3    H2 3265   7.585   6.621   3.028
 1108TIP3   OH2 3266   2.373   1.877   5.921
 1108TIP3    H1 3267   2.437   1.882   5.991
 1108TIP3    H2 3268   2.356   1.783   5.910
 1109TIP3   OH2 3269   4.590   1.435   1.360
 1109TIP3    H1 3270   4.511   1.489   1.353
 1109TIP3    H2 3271   4.636   1.448   1.277
 1110TIP3   OH2 3272   5.539   4.021   6.396
 1110TIP3    H1 3273   5.536   4.015   6.491
 1110TIP3    H2 3274   5.489   3.946   6.365
 1111TIP3   OH2 3275   2.597   4.393   2.054
 1111TIP3    H1 3276   2.535   4.338   2.101
 1111TIP3    H2 3277   2.628   4.456   2.119
 1112TIP3   OH2 3278   5.098   6.655   2.933
 1112TIP3    H1 3279   5.154   6.729   2.909
 1112TIP3    H2 3280   5.010   6.691   2.934
 1113TIP3   OH2 3281   3.013   3.492   1.927
 1113TIP3    H1 3282   3.051   3.505   2.014
 1113TIP3    H2 3283   2.963   3.572   1.911
 1114TIP3   OH2 3284   3.097   0.531   0.305
 1114TIP3    H1 3285   3.021   0.490   0.262
 1114TIP3    H2 3286   3.071   0.623   0.316
 1115TIP3   OH2 3287   4.677   1.904   4.267
 1115TIP3    H1 3288   4.598   1.948   4.238
 1115TIP3    H2 3289   4.735   1.975   4.295
 1116TIP3   OH2 3290   1.344   2.235   0.480
 1116TIP3    H1 3291   1.366   2.277   0.397
 1116TIP3    H2 3292   1.253   2.259   0.495
 1117TIP3   OH2 3293   2.493   4.172   0.521
 1117TIP3    H1 3294   2.535   4.204   0.601
 1117TIP3    H2 3295   2.408   4.215   0.520
 1118TIP3   OH2 3296   6.079   5.832   2.320
 1118TIP3    H1 3297   6.050   5.830   2.229
 1118TIP3    H2 3298   6.174   5.846   2.315
 1119TIP3   OH2 3299   4.674   3.922   0.451
 1119TIP3    H1 3300   4.637   3.898   0.366
 1119TIP3    H2 3301   4.748   3.862   0.463
 1120TIP3   OH2 3302   7.393   1.960   6.213
 1120TIP3    H1 3303   7.445   1.881   6.201
 1120TIP3    H2 3304   7.375   1.963   6.307
 1121TIP3   OH2 3305   4.043   5.239   6.422
 1121TIP3    H1 3306   4.136   5.230   6.403
 1121TIP3    H2 3307   4.038   5.242   6.518
 1122TIP3   OH2 3308   0.573   3.933   2.650
 1122TIP3    H1 3309   0.603   3.994   2.582
 1122TIP3    H2 3310   0.484   3.912   2.625
 1123TIP3   OH2 3311   1.787   2.087   0.332
 1123TIP3    H1 3312   1.859   2.145   0.358
 1123TIP3    H2 3313   1.738   2.073   0.413
 1124TIP3   OH2 3314   6.992   6.310   2.849
 1124TIP3    H1 3315   6.911   6.295   2.801
 1124TIP3    H2 3316   6.969   6.292   2.940
 1125TIP3   OH2 3317   4.912   4.980   0.365
 1125TIP3    H1 3318   4.912   4.933   0.281
 1125TIP3    H2 3319   4.819   4.996   0.383
 1126TIP3   OH2 3320   2.493   0.499   0.972
 1126TIP3    H1 3321   2.451   0.481   0.888
 1126TIP3    H2 3322   2.427   0.475   1.037
 1127TIP3   OH2 3323   4.870   4.776   4.016
 1127TIP3    H1 3324   4.951   4.825   4.030
 1127TIP3    H2 3325   4.899   4.685   4.007
 1128TIP3   OH2 3326   0.912   3.946   4.174
 1128TIP3    H1 3327   0.910   4.003   4.098
 1128TIP3    H2 3328   0.948   3.863   4.142
 1129TIP3   OH2 3329   7.056   1.374   3.931
 1129TIP3    H1 3330   7.088   1.435   3.864
 1129TIP3    H2 3331   7.097   1.404   4.012
 1130TIP3   OH2 3332   5.403   5.822   0.918
 1130TIP3    H1 3333   5.380   5.850   1.007
 1130TIP3    H2 3334   5.449   5.898   0.881
 1131TIP3   OH2 3335   3.184   6.343   6.498
 1131TIP3    H1 3336   3.128   6.305   6.430
 1131TIP3    H2 3337   3.244   6.400   6.451
 1132TIP3   OH2 3338   3.510   2.257   2.682
 1132TIP3    H1 3339   3.517   2.168   2.649
 1132TIP3    H2 3340   3.565   2.258   2.760
 1133TIP3   OH2 3341   2.503   4.908   3.037
 1133TIP3    H1 3342   2.421   4.955   3.048
 1133TIP3    H2 3343   2.499   4.872   2.948
 1134TIP3   OH2 3344   3.861   2.658   6.464
 1134TIP3    H1 3345   3.780   2.701   6.434
 1134TIP3    H2 3346   3.925   2.677   6.396
 1135TIP3   OH2 3347   2.008   0.801   4.933
 1135TIP3    H1 3348   1.952   0.737   4.890
 1135TIP3    H2 3349   1.981   0.885   4.897
 1136TIP3   OH2 3350   4.451   5.095   0.072
 1136TIP3    H1 3351   4.445   5.119  -0.020
 1136TIP3    H2 3352   4.510   5.160   0.110
 1137TIP3   OH2 3353   4.640   1.297   3.913
 1137TIP3    H1 3354   4.637   1.392   3.918
 1137TIP3    H2 3355   4.670   1.278   3.824
 1138TIP3   OH2 3356   7.641   0.694   1.691
 1138TIP3    H1 3357   7.654   0.605   1.723
 1138TIP3    H2 3358   7.663   0.750   1.765
 1139TIP3   OH2 3359   3.600   6.448   5.271
 1139TIP3    H1 3360   3.635   6.538   5.273
 1139TIP3    H2 3361   3.590   6.429   5.178
 1140TIP3   OH2 3362   5.254   1.201   0.200
 1140TIP3    H1 3363   5.260   1.295   0.185
 1140TIP3    H2 3364   5.304   1.185   0.280
 1141TIP3   OH2 3365   1.518   1.244   5.945
 1141TIP3    H1 3366   1.483   1.246   6.034
 1141TIP3    H2 3367   1.446   1.275   5.890
 1142TIP3   OH2 3368   4.634   1.320   2.280
 1142TIP3    H1 3369   4.616   1.333   2.187
 1142TIP3    H2 3370   4.688   1.395   2.304
 1143TIP3   OH2 3371   1.114   0.481   1.227
 1143TIP3    H1 3372   1.021   0.478   1.248
 1143TIP3    H2 3373   1.152   0.535   1.296
 1144TIP3   OH2 3374   2.418   6.660   2.351
 1144TIP3    H1 3375   2.439   6.753   2.346
 1144TIP3    H2 3376   2.428   6.638   2.444
 1145TIP3   OH2 3377   1.882   5.438   3.841
 1145TIP3    H1 3378   1.945   5.421   3.770
 1145TIP3    H2 3379   1.921   5.511   3.889
 1146TIP3   OH2 3380   5.199   1.043   4.314
 1146TIP3    H1 3381   5.193   1.079   4.402
 1146TIP3    H2 3382   5.223   1.118   4.259
 1147TIP3   OH2 3383   1.801   6.566   4.994
 1147TIP3    H1 3384   1.790   6.646   5.044
 1147TIP3    H2 3385   1.825   6.595   4.906
 1148TIP3   OH2 3386   0.744   3.552   4.231
 1148TIP3    H1 3387   0.700   3.634   4.254
 1148TIP3    H2 3388   0.683   3.509   4.170
 1149TIP3   OH2 3389   7.457   4.290   1.487
 1149TIP3    H1 3390   7.516   4.227   1.528
 1149TIP3    H2 3391   7.379   4.290   1.542
 1150TIP3   OH2 3392   4.595   6.932   3.336
 1150TIP3    H1 3393   4.629   7.014   3.299
 1150TIP3    H2 3394   4.536   6.898   3.269
 1151TIP3   OH2 3395   5.438   1.695   1.005
 1151TIP3    H1 3396   5.426   1.733   1.092
 1151TIP3    H2 3397   5.470   1.768   0.951
 1152TIP3   OH2 3398   5.641   1.827   4.415
 1152TIP3    H1 3399   5.587   1.866   4.484
 1152TIP3    H2 3400   5.583   1.823   4.339
 1153TIP3   OH2 3401   7.358   6.131   5.248
 1153TIP3    H1 3402   7.447   6.131   5.211
 1153TIP3    H2 3403   7.361   6.199   5.316
 1154TIP3   OH2 3404   8.101   7.255   4.681
 1154TIP3    H1 3405   8.153   7.238   4.602
 1154TIP3    H2 3406   8.023   7.201   4.672
 1155TIP3   OH2 3407   3.382   0.430   6.186
 1155TIP3    H1 3408   3.364   0.439   6.279
 1155TIP3    H2 3409   3.439   0.354   6.180
 1156TIP3   OH2 3410   7.612   6.405   6.382
 1156TIP3    H1 3411   7.677   6.475   6.383
 1156TIP3    H2 3412   7.617   6.369   6.294
 1157TIP3   OH2 3413   6.630   4.596   2.653
 1157TIP3    H1 3414   6.716   4.623   2.686
 1157TIP3    H2 3415   6.650   4.528   2.588
 1158TIP3   OH2 3416   4.075   1.341   1.082
 1158TIP3    H1 3417   4.034   1.412   1.131
 1158TIP3    H2 3418   4.032   1.342   0.997
 1159TIP3   OH2 3419   4.156   7.177   2.925
 1159TIP3    H1 3420   4.063   7.161   2.912
 1159TIP3    H2 3421   4.199   7.136   2.850
 1160TIP3   OH2 3422   6.494   7.330   4.740
 1160TIP3    H1 3423   6.587   7.329   4.714
 1160TIP3    H2 3424   6.490   7.272   4.816
 1161TIP3   OH2 3425   7.670   1.337   4.005
 1161TIP3    H1 3426   7.751   1.351   3.955
 1161TIP3    H2 3427   7.676   1.247   4.035
 1162TIP3   OH2 3428   7.734   0.965   6.791
 1162TIP3    H1 3429   7.698   1.000   6.872
 1162TIP3    H2 3430   7.736   1.040   6.731
 1163TIP3   OH2 3431   2.231   5.341   3.767
 1163TIP3    H1 3432   2.270   5.418   3.807
 1163TIP3    H2 3433   2.261   5.343   3.676
 1164TIP3   OH2 3434   6.538   0.197   0.663
 1164TIP3    H1 3435   6.553   0.247   0.583
 1164TIP3    H2 3436   6.564   0.108   0.641
 1165TIP3   OH2 3437   5.843   2.153   6.149
 1165TIP3    H1 3438   5.747   2.156   6.156
 1165TIP3    H2 3439   5.874   2.172   6.237
 1166TIP3   OH2 3440   5.658   4.313   1.335
 1166TIP3    H1 3441   5.600   4.245   1.368
 1166TIP3    H2 3442   5.656   4.381   1.402
 1167TIP3   OH2 3443   5.439   0.854   4.933
 1167TIP3    H1 3444   5.519   0.863   4.986
 1167TIP3    H2 3445   5.447   0.923   4.867
 1168TIP3   OH2 3446   6.258   7.729   0.550
 1168TIP3    H1 3447   6.174   7.684   0.566
 1168TIP3    H2 3448   6.323   7.659   0.550
 1169TIP3   OH2 3449   0.715   0.251   2.247
 1169TIP3    H1 3450   0.624   0.249   2.275
 1169TIP3    H2 3451   0.715   0.206   2.162
 1170TIP3   OH2 3452   7.195   2.251   6.771
 1170TIP3    H1 3453   7.232   2.205   6.695
 1170TIP3    H2 3454   7.194   2.343   6.744
 1171TIP3   OH2 3455   2.312   4.492   1.430
 1171TIP3    H1 3456   2.367   4.540   1.368
 1171TIP3    H2 3457   2.228   4.484   1.385
 1172TIP3   OH2 3458   7.518   7.782   6.038
 1172TIP3    H1 3459   7.474   7.759   6.120
 1172TIP3    H2 3460   7.585   7.714   6.027
 1173TIP3   OH2 3461   2.644   6.200   4.469
 1173TIP3    H1 3462   2.651   6.260   4.395
 1173TIP3    H2 3463   2.715   6.226   4.528
 1174TIP3   OH2 3464   5.576   7.692   1.345
 1174TIP3    H1 3465   5.555   7.598   1.344
 1174TIP3    H2 3466   5.612   7.707   1.432
 1175TIP3   OH2 3467   2.800   0.615   3.110
 1175TIP3    H1 3468   2.714   0.637   3.075
 1175TIP3    H2 3469   2.860   0.626   3.036
 1176TIP3   OH2 3470   3.058   3.718   5.962
 1176TIP3    H1 3471   3.153   3.729   5.970
 1176TIP3    H2 3472   3.038   3.645   6.020
 1177TIP3   OH2 3473   5.770   6.063   5.707
 1177TIP3    H1 3474   5.849   6.114   5.723
 1177TIP3    H2 3475   5.764   6.003   5.782
 1178TIP3   OH2 3476   3.905   0.997   3.019
 1178TIP3    H1 3477   3.930   0.921   2.967
 1178TIP3    H2 3478   3.950   0.985   3.102
 1179TIP3   OH2 3479   5.577   4.090   0.941
 1179TIP3    H1 3480   5.484   4.090   0.964
 1179TIP3    H2 3481   5.586   4.016   0.881
 1180TIP3   OH2 3482   3.036   0.447   1.802
 1180TIP3    H1 3483   3.109   0.508   1.795
 1180TIP3    H2 3484   2.961   0.496   1.768
 1181TIP3   OH2 3485   2.246   1.506   1.949
 1181TIP3    H1 3486   2.162   1.519   1.904
 1181TIP3    H2 3487   2.285   1.431   1.905
 1182TIP3   OH2 3488   7.953   6.041   3.829
 1182TIP3    H1 3489   7.903   6.114   3.793
 1182TIP3    H2 3490   7.901   5.963   3.809
 1183TIP3   OH2 3491   6.455   5.314   1.472
 1183TIP3    H1 3492   6.504   5.362   1.539
 1183TIP3    H2 3493   6.388   5.376   1.442
 1184TIP3   OH2 3494   1.256   0.059   5.475
 1184TIP3    H1 3495   1.171   0.027   5.444
 1184TIP3    H2 3496   1.235   0.103   5.558
 1185TIP3   OH2 3497   1.719   2.428   2.692
 1185TIP3    H1 3498   1.700   2.389   2.606
 1185TIP3    H2 3499   1.699   2.359   2.755
 1186TIP3   OH2 3500   5.294   5.926   5.663
 1186TIP3    H1 3501   5.338   5.988   5.606
 1186TIP3    H2 3502   5.335   5.841   5.644
 1187TIP3   OH2 3503   7.839   6.576   4.549
 1187TIP3    H1 3504   7.816   6.586   4.641
 1187TIP3    H2 3505   7.864   6.484   4.540
 1188TIP3   OH2 3506   0.656   1.399   4.309
 1188TIP3    H1 3507   0.747   1.374   4.293
 1188TIP3    H2 3508   0.607   1.354   4.240
 1189TIP3   OH2 3509   2.031   0.480   5.077
 1189TIP3    H1 3510   2.110   0.519   5.039
 1189TIP3    H2 3511   1.964   0.493   5.010
 1190TIP3   OH2 3512   0.960   4.080   1.335
 1190TIP3    H1 3513   0.942   4.021   1.409
 1190TIP3    H2 3514   1.047   4.054   1.304
 1191TIP3   OH2 3515   2.213   0.098   5.435
 1191TIP3    H1 3516   2.216   0.010   5.398
 1191TIP3    H2 3517   2.253   0.154   5.368
 1192TIP3   OH2 3518   3.371   2.394   4.862
 1192TIP3    H1 3519   3.378   2.378   4.956
 1192TIP3    H2 3520   3.462   2.393   4.831
 1193TIP3   OH2 3521   4.280   1.556   1.439
 1193TIP3    H1 3522   4.229   1.477   1.420
 1193TIP3    H2 3523   4.280   1.562   1.534
 1194TIP3   OH2 3524   3.550   0.987   5.098
 1194TIP3    H1 3525   3.514   1.021   5.016
 1194TIP3    H2 3526   3.500   0.907   5.115
 1195TIP3   OH2 3527   2.344   4.563   5.216
 1195TIP3    H1 3528   2.411   4.629   5.234
 1195TIP3    H2 3529   2.285   4.567   5.291
 1196TIP3   OH2 3530   3.028   0.328   1.349
 1196TIP3    H1 3531   3.016   0.281   1.432
 1196TIP3    H2 3532   2.940   0.334   1.312
 1197TIP3   OH2 3533   4.812   3.646   0.716
 1197TIP3    H1 3534   4.806   3.602   0.630
 1197TIP3    H2 3535   4.837   3.576   0.776
 1198TIP3   OH2 3536   3.550   3.033   0.226
 1198TIP3    H1 3537   3.464   3.032   0.184
 1198TIP3    H2 3538   3.548   2.958   0.285
 1199TIP3   OH2 3539   2.694   0.464   3.410
 1199TIP3    H1 3540   2.693   0.559   3.407
 1199TIP3    H2 3541   2.631   0.437   3.342
 1200TIP3   OH2 3542   7.379   0.476   3.899
 1200TIP3    H1 3543   7.290   0.502   3.874
 1200TIP3    H2 3544   7.432   0.553   3.881
 1201TIP3   OH2 3545   7.239   1.783   3.929
 1201TIP3    H1 3546   7.151   1.813   3.906
 1201TIP3    H2 3547   7.225   1.700   3.975
 1202TIP3   OH2 3548   0.892   5.062   6.707
 1202TIP3    H1 3549   0.928   5.134   6.655
 1202TIP3    H2 3550   0.800   5.086   6.720
 1203TIP3   OH2 3551   0.166   3.056   0.967
 1203TIP3    H1 3552   0.227   2.985   0.950
 1203TIP3    H2 3553   0.220   3.127   1.002
 1204TIP3   OH2 3554   0.061   7.065   1.362
 1204TIP3    H1 3555   0.019   7.151   1.360
 1204TIP3    H2 3556   0.131   7.071   1.296
 1205TIP3   OH2 3557   3.509   6.601   5.844
 1205TIP3    H1 3558   3.427   6.555   5.828
 1205TIP3    H2 3559   3.485   6.693   5.851
 1206TIP3   OH2 3560   5.391   3.248   4.989
 1206TIP3    H1 3561   5.317   3.190   4.969
 1206TIP3    H2 3562   5.397   3.247   5.084
 1207TIP3   OH2 3563   7.910   2.793   2.924
 1207TIP3    H1 3564   7.971   2.810   2.853
 1207TIP3    H2 3565   7.953   2.828   3.002
 1208TIP3   OH2 3566   4.880   4.858   2.222
 1208TIP3    H1 3567   4.800   4.866   2.273
 1208TIP3    H2 3568   4.947   4.899   2.276
 1209TIP3   OH2 3569   0.974   5.524   1.174
 1209TIP3    H1 3570   0.937   5.612   1.161
 1209TIP3    H2 3571   1.034   5.535   1.247
 1210TIP3   OH2 3572   4.777   6.791   3.521
 1210TIP3    H1 3573   4.717   6.843   3.467
 1210TIP3    H2 3574   4.856   6.845   3.526
 1211TIP3   OH2 3575   3.278   3.280   5.267
 1211TIP3    H1 3576   3.191   3.293   5.304
 1211TIP3    H2 3577   3.282   3.341   5.193
 1212TIP3   OH2 3578   1.016   1.350   5.930
 1212TIP3    H1 3579   0.927   1.385   5.933
 1212TIP3    H2 3580   1.061   1.392   6.004
 1213TIP3   OH2 3581   0.341   6.329   6.457
 1213TIP3    H1 3582   0.426   6.355   6.421
 1213TIP3    H2 3583   0.279   6.392   6.421
 1214TIP3   OH2 3584   1.325   1.851   1.509
 1214TIP3    H1 3585   1.360   1.780   1.561
 1214TIP3    H2 3586   1.387   1.923   1.522
 1215TIP3   OH2 3587   2.189   2.174   4.197
 1215TIP3    H1 3588   2.111   2.120   4.209
 1215TIP3    H2 3589   2.257   2.112   4.170
 1216TIP3   OH2 3590   4.044   3.090   5.028
 1216TIP3    H1 3591   4.089   3.059   5.107
 1216TIP3    H2 3592   4.088   3.171   5.006
 1217TIP3   OH2 3593   1.763   6.062   2.053
 1217TIP3    H1 3594   1.797   6.089   1.967
 1217TIP3    H2 3595   1.837   6.072   2.113
 1218TIP3   OH2 3596   6.946   0.698   2.736
 1218TIP3    H1 3597   6.944   0.693   2.641
 1218TIP3    H2 3598   6.972   0.611   2.764
 1219TIP3   OH2 3599   8.073   7.204   1.216
 1219TIP3    H1 3600   8.109   7.257   1.287
 1219TIP3    H2 3601   8.062   7.266   1.143
 1220TIP3   OH2 3602   6.465   4.883   3.640
 1220TIP3    H1 3603   6.398   4.937   3.683
 1220TIP3    H2 3604   6.522   4.855   3.712
 1221TIP3   OH2 3605   4.372   1.915   1.037
 1221TIP3    H1 3606   4.289   1.951   1.005
 1221TIP3    H2 3607   4.410   1.986   1.089
 1222TIP3   OH2 3608   5.276   1.548   4.448
 1222TIP3    H1 3609   5.359   1.539   4.494
 1222TIP3    H2 3610   5.259   1.643   4.446
 1223TIP3   OH2 3611   4.177   6.395   2.152
 1223TIP3    H1 3612   4.157   6.386   2.246
 1223TIP3    H2 3613   4.140   6.316   2.113
 1224TIP3   OH2 3614   7.138   7.492   5.187
 1224TIP3    H1 3615   7.054   7.522   5.153
 1224TIP3    H2 3616   7.116   7.420   5.246
 1225TIP3   OH2 3617   5.948   2.250   3.341
 1225TIP3    H1 3618   5.962   2.242   3.247
 1225TIP3    H2 3619   5.854   2.243   3.352
 1226TIP3   OH2 3620   7.807   1.858   3.454
 1226TIP3    H1 3621   7.762   1.883   3.535
 1226TIP3    H2 3622   7.851   1.776   3.475
 1227TIP3   OH2 3623   6.775   1.431   6.209
 1227TIP3    H1 3624   6.688   1.470   6.219
 1227TIP3    H2 3625   6.781   1.367   6.280
 1228TIP3   OH2 3626   4.674   2.294   6.684
 1228TIP3    H1 3627   4.757   2.276   6.728
 1228TIP3    H2 3628   4.678   2.245   6.602
 1229TIP3   OH2 3629   6.434   0.474   2.527
 1229TIP3    H1 3630   6.392   0.389   2.533
 1229TIP3    H2 3631   6.507   0.470   2.589
 1230TIP3   OH2 3632   1.317   6.784   1.192
 1230TIP3    H1 3633   1.304   6.862   1.246
 1230TIP3    H2 3634   1.231   6.742   1.190
 1231TIP3   OH2 3635   6.334   2.838   1.505
 1231TIP3    H1 3636   6.300   2.774   1.442
 1231TIP3    H2 3637   6.279   2.915   1.493
 1232TIP3   OH2 3638   3.005   7.399   5.570
 1232TIP3    H1 3639   2.949   7.324   5.592
 1232TIP3    H2 3640   3.084   7.360   5.533
 1233TIP3   OH2 3641   6.097   2.423   5.607
 1233TIP3    H1 3642   6.092   2.519   5.602
 1233TIP3    H2 3643   6.041   2.400   5.682
 1234TIP3   OH2 3644   4.460   4.074   3.189
 1234TIP3    H1 3645   4.367   4.066   3.207
 1234TIP3    H2 3646   4.503   4.063   3.274
 1235TIP3   OH2 3647   7.363   6.366   0.592
 1235TIP3    H1 3648   7.371   6.423   0.668
 1235TIP3    H2 3649   7.341   6.280   0.629
 1236TIP3   OH2 3650   0.685   7.522   1.268
 1236TIP3    H1 3651   0.742   7.599   1.271
 1236TIP3    H2 3652   0.665   7.504   1.360
 1237TIP3   OH2 3653   5.848  -0.011   0.498
 1237TIP3    H1 3654   5.858   0.084   0.501
 1237TIP3    H2 3655   5.935  -0.045   0.520
 1238TIP3   OH2 3656   2.145   6.817   2.394
 1238TIP3    H1 3657   2.200   6.779   2.325
 1238TIP3    H2 3658   2.127   6.906   2.364
 1239TIP3   OH2 3659   4.218   5.841   1.164
 1239TIP3    H1 3660   4.171   5.778   1.110
 1239TIP3    H2 3661   4.165   5.848   1.243
 1240TIP3   OH2 3662   1.127   4.993   3.736
 1240TIP3    H1 3663   1.042   4.964   3.704
 1240TIP3    H2 3664   1.180   5.004   3.657
 1241TIP3   OH2 3665   4.340   0.974   4.818
 1241TIP3    H1 3666   4.351   0.960   4.912
 1241TIP3    H2 3667   4.410   0.922   4.778
 1242TIP3   OH2 3668   3.542   0.566   5.021
 1242TIP3    H1 3669   3.634   0.539   5.021
 1242TIP3    H2 3670   3.518   0.567   4.928
 1243TIP3   OH2 3671   4.834   7.687   6.003
 1243TIP3    H1 3672   4.788   7.759   6.047
 1243TIP3    H2 3673   4.919   7.683   6.047
 1244TIP3   OH2 3674   0.413   2.630   2.233
 1244TIP3    H1 3675   0.449   2.693   2.295
 1244TIP3    H2 3676   0.378   2.683   2.161
 1245TIP3   OH2 3677   3.523   3.110   3.107
 1245TIP3    H1 3678   3.545   3.202   3.092
 1245TIP3    H2 3679   3.582   3.083   3.177
 1246TIP3   OH2 3680   7.635   1.577   0.323
 1246TIP3    H1 3681   7.678   1.530   0.251
 1246TIP3    H2 3682   7.699   1.576   0.394
 1247TIP3   OH2 3683   1.508   4.236   2.293
 1247TIP3    H1 3684   1.497   4.187   2.375
 1247TIP3    H2 3685   1.447   4.310   2.301
 1248TIP3   OH2 3686   1.245   1.904   4.185
 1248TIP3    H1 3687   1.152   1.920   4.175
 1248TIP3    H2 3688   1.286   1.953   4.114
 1249TIP3   OH2 3689   2.036   4.827   2.970
 1249TIP3    H1 3690   2.122   4.853   2.938
 1249TIP3    H2 3691   2.033   4.732   2.958
 1250TIP3   OH2 3692   6.914   1.998   4.142
 1250TIP3    H1 3693   6.832   1.984   4.095
 1250TIP3    H2 3694   6.982   1.979   4.078
 1251TIP3   OH2 3695   0.768   4.540   0.550
 1251TIP3    H1 3696   0.784   4.616   0.606
 1251TIP3    H2 3697   0.686   4.503   0.583
 1252TIP3   OH2 3698   5.085   7.547   6.592
 1252TIP3    H1 3699   5.037   7.625   6.564
 1252TIP3    H2 3700   5.107   7.503   6.510
 1253TIP3   OH2 3701   6.638   3.303   0.200
 1253TIP3    H1 3702   6.552   3.264   0.215
 1253TIP3    H2 3703   6.631   3.342   0.113
 1254TIP3   OH2 3704   7.142   4.300   0.908
 1254TIP3    H1 3705   7.063   4.303   0.854
 1254TIP3    H2 3706   7.134   4.375   0.966
 1255TIP3   OH2 3707   3.070   1.858   2.346
 1255TIP3    H1 3708   3.145   1.852   2.404
 1255TIP3    H2 3709   2.997   1.824   2.397
 1256TIP3   OH2 3710   5.508   3.927   0.017
 1256TIP3    H1 3711   5.574   3.868   0.053
 1256TIP3    H2 3712   5.427   3.902   0.061
 1257TIP3   OH2 3713   0.396   0.620   0.517
 1257TIP3    H1 3714   0.375   0.676   0.443
 1257TIP3    H2 3715   0.328   0.552   0.517
 1258TIP3   OH2 3716   6.745   5.117   0.076
 1258TIP3    H1 3717   6.665   5.081   0.037
 1258TIP3    H2 3718   6.743   5.210   0.054
 1259TIP3   OH2 3719   4.675   6.562   0.677
 1259TIP3    H1 3720   4.627   6.525   0.603
 1259TIP3    H2 3721   4.762   6.581   0.642
 1260TIP3   OH2 3722   2.095   5.098   2.929
 1260TIP3    H1 3723   2.089   5.137   2.842
 1260TIP3    H2 3724   2.023   5.034   2.932
 1261TIP3   OH2 3725   4.332   2.328   0.976
 1261TIP3    H1 3726   4.307   2.236   0.989
 1261TIP3    H2 3727   4.427   2.326   0.967
 1262TIP3   OH2 3728   4.311   7.710   3.528
 1262TIP3    H1 3729   4.238   7.656   3.496
 1262TIP3    H2 3730   4.274   7.762   3.598
 1263TIP3   OH2 3731   0.506   6.842   3.548
 1263TIP3    H1 3732   0.565   6.906   3.506
 1263TIP3    H2 3733   0.418   6.869   3.521
 1264TIP3   OH2 3734   2.952   6.918   1.332
 1264TIP3    H1 3735   2.923   6.996   1.381
 1264TIP3    H2 3736   2.879   6.856   1.342
 1265TIP3   OH2 3737   5.155   3.990   1.534
 1265TIP3    H1 3738   5.189   3.934   1.604
 1265TIP3    H2 3739   5.157   4.078   1.571
 1266TIP3   OH2 3740   7.811   1.647   0.526
 1266TIP3    H1 3741   7.820   1.725   0.471
 1266TIP3    H2 3742   7.897   1.605   0.524
 1267TIP3   OH2 3743   2.371   7.384   6.682
 1267TIP3    H1 3744   2.317   7.308   6.660
 1267TIP3    H2 3745   2.357   7.398   6.775
 1268TIP3   OH2 3746   6.447   3.800   1.121
 1268TIP3    H1 3747   6.452   3.893   1.146
 1268TIP3    H2 3748   6.539   3.773   1.115
 1269TIP3   OH2 3749   6.847   3.458   5.841
 1269TIP3    H1 3750   6.879   3.447   5.751
 1269TIP3    H2 3751   6.757   3.487   5.831
 1270TIP3   OH2 3752   0.805   3.754   5.474
 1270TIP3    H1 3753   0.753   3.791   5.402
 1270TIP3    H2 3754   0.808   3.824   5.539
 1271TIP3   OH2 3755   0.120   4.601   4.594
 1271TIP3    H1 3756   0.084   4.613   4.506
 1271TIP3    H2 3757   0.195   4.660   4.597
 1272TIP3   OH2 3758   6.141   0.657   1.887
 1272TIP3    H1 3759   6.129   0.751   1.874
 1272TIP3    H2 3760   6.055   0.619   1.867
 1273TIP3   OH2 3761   6.772   3.505   2.933
 1273TIP3    H1 3762   6.861   3.539   2.934
 1273TIP3    H2 3763   6.723   3.569   2.881
 1274TIP3   OH2 3764   7.377   1.751   3.502
 1274TIP3    H1 3765   7.282   1.748   3.512
 1274TIP3    H2 3766   7.410   1.765   3.591
 1275TIP3   OH2 3767   4.000   0.977   5.781
 1275TIP3    H1 3768   3.904   0.967   5.775
 1275TIP3    H2 3769   4.032   0.940   5.699
 1276TIP3   OH2 3770   2.160   0.402   0.858
 1276TIP3    H1 3771   2.074   0.363   0.844
 1276TIP3    H2 3772   2.198   0.409   0.771
 1277TIP3   OH2 3773   8.164   2.406   3.220
 1277TIP3    H1 3774   8.082   2.372   3.185
 1277TIP3    H2 3775   8.217   2.426   3.143
 1278TIP3   OH2 3776   0.323   3.527   5.620
 1278TIP3    H1 3777   0.264   3.520   5.545
 1278TIP3    H2 3778   0.291   3.603   5.669
 1279TIP3   OH2 3779   1.826   1.951   2.559
 1279TIP3    H1 3780   1.841   2.016   2.490
 1279TIP3    H2 3781   1.785   2.000   2.630
 1280TIP3   OH2 3782   6.905   6.664   0.543
 1280TIP3    H1 3783   6.949   6.748   0.549
 1280TIP3    H2 3784   6.850   6.660   0.621
 1281TIP3   OH2 3785   7.247   1.589   1.078
 1281TIP3    H1 3786   7.216   1.642   1.152
 1281TIP3    H2 3787   7.274   1.506   1.118
 1282TIP3   OH2 3788   3.749   0.292   4.824
 1282TIP3    H1 3789   3.760   0.370   4.877
 1282TIP3    H2 3790   3.760   0.322   4.734
 1283TIP3   OH2 3791   1.813   5.188   3.793
 1283TIP3    H1 3792   1.877   5.148   3.852
 1283TIP3    H2 3793   1.813   5.280   3.817
 1284TIP3   OH2 3794   5.068   1.735   2.219
 1284TIP3    H1 3795   4.981   1.735   2.260
 1284TIP3    H2 3796   5.056   1.784   2.137
 1285TIP3   OH2 3797   4.918   2.603   5.317
 1285TIP3    H1 3798   4.848   2.640   5.371
 1285TIP3    H2 3799   4.873   2.552   5.250
 1286TIP3   OH2 3800   4.107   4.650   5.870
 1286TIP3    H1 3801   4.171   4.583   5.843
 1286TIP3    H2 3802   4.062   4.674   5.790
 1287TIP3   OH2 3803   1.697   2.484   4.575
 1287TIP3    H1 3804   1.777   2.470   4.627
 1287TIP3    H2 3805   1.712   2.568   4.532
 1288TIP3   OH2 3806   2.591   5.629   0.539
 1288TIP3    H1 3807   2.665   5.639   0.479
 1288TIP3    H2 3808   2.582   5.715   0.580
 1289TIP3   OH2 3809   6.649   5.660   2.813
 1289TIP3    H1 3810   6.719   5.607   2.775
 1289TIP3    H2 3811   6.612   5.709   2.739
 1290TIP3   OH2 3812   3.827   6.946   2.855
 1290TIP3    H1 3813   3.832   7.039   2.876
 1290TIP3    H2 3814   3.915   6.912   2.872
 1291TIP3   OH2 3815   4.777   2.594   0.547
 1291TIP3    H1 3816   4.749   2.685   0.551
 1291TIP3    H2 3817   4.862   2.597   0.502
 1292TIP3   OH2 3818   7.587   5.557   5.679
 1292TIP3    H1 3819   7.512   5.610   5.708
 1292TIP3    H2 3820   7.570   5.470   5.715
 1293TIP3   OH2 3821   1.357   1.524   0.359
 1293TIP3    H1 3822   1.407   1.505   0.438
 1293TIP3    H2 3823   1.296   1.451   0.351
 1294TIP3   OH2 3824   6.403   2.057   3.430
 1294TIP3    H1 3825   6.483   2.009   3.409
 1294TIP3    H2 3826   6.389   2.114   3.354
 1295TIP3   OH2 3827   1.833   7.523   2.122
 1295TIP3    H1 3828   1.904   7.502   2.183
 1295TIP3    H2 3829   1.866   7.497   2.037
 1296TIP3   OH2 3830   5.624   1.214   2.306
 1296TIP3    H1 3831   5.650   1.150   2.373
 1296TIP3    H2 3832   5.544   1.253   2.341
 1297TIP3   OH2 3833   0.734   6.823   3.056
 1297TIP3    H1 3834   0.648   6.841   3.017
 1297TIP3    H2 3835   0.797   6.859   2.993
 1298TIP3   OH2 3836   3.536   4.831   3.109
 1298TIP3    H1 3837   3.529   4.923   3.085
 1298TIP3    H2 3838   3.561   4.832   3.201
 1299TIP3   OH2 3839   4.925   3.074   6.083
 1299TIP3    H1 3840   5.013   3.079   6.121
 1299TIP3    H2 3841   4.866   3.076   6.158
 1300TIP3   OH2 3842   5.211   6.064   2.141
 1300TIP3    H1 3843   5.278   5.996   2.138
 1300TIP3    H2 3844   5.133   6.019   2.173
 1301TIP3   OH2 3845   6.559   1.391   2.520
 1301TIP3    H1 3846   6.598   1.400   2.434
 1301TIP3    H2 3847   6.553   1.480   2.553
 1302TIP3   OH2 3848   1.388   5.192   5.478
 1302TIP3    H1 3849   1.474   5.234   5.482
 1302TIP3    H2 3850   1.365   5.176   5.569
 1303TIP3   OH2 3851   8.086   1.491   6.103
 1303TIP3    H1 3852   8.022   1.476   6.033
 1303TIP3    H2 3853   8.167   1.456   6.068
 1304TIP3   OH2 3854   3.936   2.126   5.312
 1304TIP3    H1 3855   3.899   2.210   5.284
 1304TIP3    H2 3856   3.883   2.060   5.267
 1305TIP3   OH2 3857   2.763   4.071   5.239
 1305TIP3    H1 3858   2.837   4.131   5.227
 1305TIP3    H2 3859   2.686   4.125   5.225
 1306TIP3   OH2 3860   2.378   6.434   4.440
 1306TIP3    H1 3861   2.432   6.486   4.500
 1306TIP3    H2 3862   2.300   6.487   4.426
 1307TIP3   OH2 3863   0.932   0.841   5.432
 1307TIP3    H1 3864   0.871   0.899   5.477
 1307TIP3    H2 3865   0.877   0.777   5.388
 1308TIP3   OH2 3866   4.334   7.380   5.258
 1308TIP3    H1 3867   4.339   7.461   5.310
 1308TIP3    H2 3868   4.396   7.394   5.186
 1309TIP3   OH2 3869   6.420   7.715   6.352
 1309TIP3    H1 3870   6.409   7.676   6.265
 1309TIP3    H2 3871   6.507   7.754   6.351
 1310TIP3   OH2 3872   6.312   1.031   6.352
 1310TIP3    H1 3873   6.328   1.116   6.310
 1310TIP3    H2 3874   6.388   1.018   6.409
 1311TIP3   OH2 3875   2.726   2.400   2.917
 1311TIP3    H1 3876   2.653   2.392   2.979
 1311TIP3    H2 3877   2.744   2.310   2.889
 1312TIP3   OH2 3878   4.291   4.050   6.601
 1312TIP3    H1 3879   4.211   4.013   6.565
 1312TIP3    H2 3880   4.278   4.145   6.595
 1313TIP3   OH2 3881   6.669   7.231   2.897
 1313TIP3    H1 3882   6.599   7.263   2.840
 1313TIP3    H2 3883   6.663   7.135   2.890
 1314TIP3   OH2 3884   6.396   2.704   4.673
 1314TIP3    H1 3885   6.305   2.672   4.672
 1314TIP3    H2 3886   6.393   2.783   4.727
 1315TIP3   OH2 3887   5.940   5.934   0.581
 1315TIP3    H1 3888   5.967   6.021   0.554
 1315TIP3    H2 3889   5.855   5.947   0.622
 1316TIP3   OH2 3890   5.669   5.019   4.630
 1316TIP3    H1 3891   5.702   4.947   4.684
 1316TIP3    H2 3892   5.578   4.996   4.611
 1317TIP3   OH2 3893   4.636   0.105   6.415
 1317TIP3    H1 3894   4.679   0.040   6.360
 1317TIP3    H2 3895   4.560   0.058   6.451
 1318TIP3   OH2 3896   7.217   5.121   3.833
 1318TIP3    H1 3897   7.243   5.199   3.783
 1318TIP3    H2 3898   7.254   5.135   3.921
 1319TIP3   OH2 3899   3.201   4.467   4.264
 1319TIP3    H1 3900   3.153   4.392   4.230
 1319TIP3    H2 3901   3.293   4.441   4.259
 1320TIP3   OH2 3902   6.584   7.722   5.104
 1320TIP3    H1 3903   6.505   7.711   5.053
 1320TIP3    H2 3904   6.576   7.808   5.144
 1321TIP3   OH2 3905   2.127   2.861   5.650
 1321TIP3    H1 3906   2.111   2.940   5.702
 1321TIP3    H2 3907   2.117   2.789   5.713
 1322TIP3   OH2 3908   5.918   0.573   6.771
 1322TIP3    H1 3909   5.844   0.513   6.765
 1322TIP3    H2 3910   5.921   0.616   6.686
 1323TIP3   OH2 3911   0.293   3.083   0.387
 1323TIP3    H1 3912   0.367   3.111   0.441
 1323TIP3    H2 3913   0.221   3.074   0.450
 1324TIP3   OH2 3914   3.706   2.752   2.509
 1324TIP3    H1 3915   3.624   2.770   2.556
 1324TIP3    H2 3916   3.690   2.783   2.420
 1325TIP3   OH2 3917   1.441   5.796   2.288
 1325TIP3    H1 3918   1.472   5.879   2.252
 1325TIP3    H2 3919   1.354   5.816   2.323
 1326TIP3   OH2 3920   0.397   1.530   3.036
 1326TIP3    H1 3921   0.448   1.590   2.982
 1326TIP3    H2 3922   0.336   1.490   2.975
 1327TIP3   OH2 3923   5.626   5.087   1.575
 1327TIP3    H1 3924   5.705   5.033   1.569
 1327TIP3    H2 3925   5.573   5.061   1.499
 1328TIP3   OH2 3926   0.057   5.258   5.942
 1328TIP3    H1 3927   0.120   5.209   5.995
 1328TIP3    H2 3928   0.106   5.285   5.865
 1329TIP3   OH2 3929   6.359   4.457   4.386
 1329TIP3    H1 3930   6.375   4.379   4.440
 1329TIP3    H2 3931   6.264   4.469   4.389
 1330TIP3   OH2 3932   4.684   2.749   1.762
 1330TIP3    H1 3933   4.776   2.776   1.754
 1330TIP3    H2 3934   4.641   2.789   1.686
 1331TIP3   OH2 3935   1.902   5.179   0.005
 1331TIP3    H1 3936   1.881   5.117   0.075
 1331TIP3    H2 3937   1.837   5.248   0.014
 1332TIP3   OH2 3938   2.685   6.973   6.181
 1332TIP3    H1 3939   2.609   6.956   6.236
 1332TIP3    H2 3940   2.701   6.890   6.137
 1333TIP3   OH2 3941   0.777   1.238   6.166
 1333TIP3    H1 3942   0.747   1.320   6.127
 1333TIP3    H2 3943   0.759   1.172   6.099
 1334TIP3   OH2 3944   4.607   7.217   4.195
 1334TIP3    H1 3945   4.603   7.263   4.111
 1334TIP3    H2 3946   4.700   7.216   4.218
 1335TIP3   OH2 3947   7.795   3.120   0.365
 1335TIP3    H1 3948   7.830   3.147   0.280
 1335TIP3    H2 3949   7.761   3.201   0.404
 1336TIP3   OH2 3950   5.303   3.110   3.950
 1336TIP3    H1 3951   5.295   3.166   3.873
 1336TIP3    H2 3952   5.221   3.121   3.998
 1337TIP3   OH2 3953   3.786   6.675   5.704
 1337TIP3    H1 3954   3.870   6.640   5.674
 1337TIP3    H2 3955   3.808   6.731   5.778
 1338TIP3   OH2 3956   1.214   0.132   2.735
 1338TIP3    H1 3957   1.158   0.061   2.766
 1338TIP3    H2 3958   1.269   0.153   2.811
 1339TIP3   OH2 3959   5.642   1.026   0.008
 1339TIP3    H1 3960   5.649   1.096   0.072
 1339TIP3    H2 3961   5.583   0.962   0.047
 1340TIP3   OH2 3962   2.202   4.012   1.451
 1340TIP3    H1 3963   2.278   4.069   1.460
 1340TIP3    H2 3964   2.177   3.990   1.541
 1341TIP3   OH2 3965   4.727   5.831   2.525
 1341TIP3    H1 3966   4.749   5.832   2.618
 1341TIP3    H2 3967   4.755   5.745   2.494
 1342TIP3   OH2 3968   4.813   4.264   3.520
 1342TIP3    H1 3969   4.818   4.290   3.428
 1342TIP3    H2 3970   4.845   4.174   3.522
 1343TIP3   OH2 3971   6.239   4.094   0.571
 1343TIP3    H1 3972   6.265   4.187   0.570
 1343TIP3    H2 3973   6.288   4.057   0.645
 1344TIP3   OH2 3974   3.199   6.688   3.056
 1344TIP3    H1 3975   3.258   6.615   3.075
 1344TIP3    H2 3976   3.258   6.762   3.042
 1345TIP3   OH2 3977   0.923   7.236   5.636
 1345TIP3    H1 3978   0.943   7.214   5.545
 1345TIP3    H2 3979   0.874   7.318   5.630
 1346TIP3   OH2 3980   6.903   0.516   5.475
 1346TIP3    H1 3981   6.836   0.584   5.471
 1346TIP3    H2 3982   6.984   0.562   5.452
 1347TIP3   OH2 3983   3.177   2.977   0.950
 1347TIP3    H1 3984   3.146   3.024   1.027
 1347TIP3    H2 3985   3.245   3.033   0.913
 1348TIP3   OH2 3986   6.133   0.177   4.656
 1348TIP3    H1 3987   6.058   0.129   4.621
 1348TIP3    H2 3988   6.107   0.203   4.744
 1349TIP3   OH2 3989   6.971   1.122   0.307
 1349TIP3    H1 3990   7.061   1.120   0.275
 1349TIP3    H2 3991   6.922   1.167   0.238
 1350TIP3   OH2 3992   4.566   3.602   4.328
 1350TIP3    H1 3993   4.581   3.514   4.362
 1350TIP3    H2 3994   4.652   3.633   4.301
 1351TIP3   OH2 3995   2.591   5.187   4.477
 1351TIP3    H1 3996   2.570   5.164   4.387
 1351TIP3    H2 3997   2.515   5.238   4.507
 1352TIP3   OH2 3998   4.583   0.988   2.076
 1352TIP3    H1 3999   4.676   0.992   2.099
 1352TIP3    H2 4000   4.574   1.047   2.000
 1353TIP3   OH2 4001   1.615   1.331   4.934
 1353TIP3    H1 4002   1.640   1.276   5.008
 1353TIP3    H2 4003   1.535   1.291   4.900
 1354TIP3   OH2 4004   0.426   2.198   2.520
 1354TIP3    H1 4005   0.447   2.243   2.601
 1354TIP3    H2 4006   0.360   2.254   2.478
 1355TIP3   OH2 4007   1.266   0.663   0.213
 1355TIP3    H1 4008   1.329   0.686   0.281
 1355TIP3    H2 4009   1.309   0.595   0.162
 1356TIP3   OH2 4010   2.586   7.573   6.700
 1356TIP3    H1 4011   2.511   7.515   6.684
 1356TIP3    H2 4012   2.638   7.567   6.621
 1357TIP3   OH2 4013   1.976   6.154   1.483
 1357TIP3    H1 4014   1.942   6.090   1.420
 1357TIP3    H2 4015   1.984   6.235   1.432
 1358TIP3   OH2 4016   4.805   5.897   6.589
 1358TIP3    H1 4017   4.806   5.802   6.582
 1358TIP3    H2 4018   4.807   5.928   6.498
 1359TIP3   OH2 4019   3.190   0.235   3.181
 1359TIP3    H1 4020   3.280   0.220   3.209
 1359TIP3    H2 4021   3.176   0.328   3.197
 1360TIP3   OH2 4022   3.453   7.511   6.513
 1360TIP3    H1 4023   3.540   7.472   6.526
 1360TIP3    H2 4024   3.463   7.566   6.435
 1361TIP3   OH2 4025   2.899   7.165   1.426
 1361TIP3    H1 4026   2.912   7.233   1.359
 1361TIP3    H2 4027   2.921   7.207   1.508
 1362TIP3   OH2 4028   3.244   3.451   1.739
 1362TIP3    H1 4029   3.311   3.388   1.766
 1362TIP3    H2 4030   3.218   3.495   1.820
 1363TIP3   OH2 4031   1.622   2.130   5.692
 1363TIP3    H1 4032   1.671   2.102   5.770
 1363TIP3    H2 4033   1.627   2.225   5.693
 1364TIP3   OH2 4034   6.453   6.952   4.622
 1364TIP3    H1 4035   6.479   6.978   4.710
 1364TIP3    H2 4036   6.399   7.024   4.590
 1365TIP3   OH2 4037   7.629   2.714   2.599
 1365TIP3    H1 4038   7.614   2.807   2.583
 1365TIP3    H2 4039   7.543   2.674   2.591
 1366TIP3   OH2 4040   6.573   7.218   5.019
 1366TIP3    H1 4041   6.641   7.249   5.078
 1366TIP3    H2 4042   6.492   7.219   5.071
 1367TIP3   OH2 4043   0.750   0.351   2.614
 1367TIP3    H1 4044   0.773   0.366   2.706
 1367TIP3    H2 4045   0.817   0.290   2.582
 1368TIP3   OH2 4046   1.227   3.439   1.009
 1368TIP3    H1 4047   1.272   3.374   0.956
 1368TIP3    H2 4048   1.223   3.517   0.954
 1369TIP3   OH2 4049   7.295   3.098   5.489
 1369TIP3    H1 4050   7.361   3.167   5.490
 1369TIP3    H2 4051   7.279   3.081   5.396
 1370TIP3   OH2 4052   2.497   3.410   4.730
 1370TIP3    H1 4053   2.441   3.396   4.654
 1370TIP3    H2 4054   2.533   3.324   4.750
 1371TIP3   OH2 4055   3.525   4.377   0.292
 1371TIP3    H1 4056   3.536   4.358   0.386
 1371TIP3    H2 4057   3.452   4.438   0.288
 1372TIP3   OH2 4058   2.990   1.990   0.625
 1372TIP3    H1 4059   2.994   1.926   0.696
 1372TIP3    H2 4060   3.015   2.073   0.666
 1373TIP3   OH2 4061   8.116   2.712   4.952
 1373TIP3    H1 4062   8.120   2.715   4.856
 1373TIP3    H2 4063   8.167   2.788   4.980
 1374TIP3   OH2 4064   0.487   0.140   0.375
 1374TIP3    H1 4065   0.492   0.148   0.470
 1374TIP3    H2 4066   0.554   0.074   0.354
 1375TIP3   OH2 4067   2.663   4.243   1.335
 1375TIP3    H1 4068   2.739   4.301   1.342
 1375TIP3    H2 4069   2.692   4.174   1.276
 1376TIP3   OH2 4070   4.016   0.807   0.839
 1376TIP3    H1 4071   4.003   0.854   0.922
 1376TIP3    H2 4072   4.097   0.758   0.852
 1377TIP3   OH2 4073   4.664   2.124   5.935
 1377TIP3    H1 4074   4.758   2.137   5.923
 1377TIP3    H2 4075   4.638   2.068   5.863
 1378TIP3   OH2 4076   7.685   2.171   3.758
 1378TIP3    H1 4077   7.723   2.197   3.842
 1378TIP3    H2 4078   7.724   2.086   3.739
 1379TIP3   OH2 4079   8.216   0.960   0.634
 1379TIP3    H1 4080   8.192   0.950   0.542
 1379TIP3    H2 4081   8.311   0.962   0.634
 1380TIP3   OH2 4082   5.547   5.969   1.667
 1380TIP3    H1 4083   5.456   5.954   1.695
 1380TIP3    H2 4084   5.562   6.062   1.683
 1381TIP3   OH2 4085   0.806   1.182   4.398
 1381TIP3    H1 4086   0.869   1.192   4.469
 1381TIP3    H2 4087   0.736   1.127   4.436
 1382TIP3   OH2 4088   2.829   5.378   0.120
 1382TIP3    H1 4089   2.755   5.410   0.170
 1382TIP3    H2 4090   2.800   5.294   0.084
 1383TIP3   OH2 4091   2.975   4.711   6.167
 1383TIP3    H1 4092   2.974   4.620   6.197
 1383TIP3    H2 4093   2.883   4.738   6.170
 1384TIP3   OH2 4094   5.473  -0.045   3.824
 1384TIP3    H1 4095   5.549  -0.099   3.802
 1384TIP3    H2 4096   5.499   0.044   3.802
 1385TIP3   OH2 4097   3.400   2.472   6.247
 1385TIP3    H1 4098   3.438   2.508   6.326
 1385TIP3    H2 4099   3.457   2.399   6.224
 1386TIP3   OH2 4100   3.601   7.682   2.613
 1386TIP3    H1 4101   3.570   7.725   2.693
 1386TIP3    H2 4102   3.533   7.700   2.548
 1387TIP3   OH2 4103   3.826   5.913   6.324
 1387TIP3    H1 4104   3.772   5.838   6.301
 1387TIP3    H2 4105   3.906   5.875   6.361
 1388TIP3   OH2 4106   1.217   2.541   1.108
 1388TIP3    H1 4107   1.149   2.591   1.153
 1388TIP3    H2 4108   1.200   2.450   1.132
 1389TIP3   OH2 4109   4.055   7.671   4.474
 1389TIP3    H1 4110   4.065   7.592   4.420
 1389TIP3    H2 4111   3.965   7.700   4.457
 1390TIP3   OH2 4112   1.378   5.519   0.742
 1390TIP3    H1 4113   1.321   5.465   0.797
 1390TIP3    H2 4114   1.373   5.606   0.780
 1391TIP3   OH2 4115   6.319   0.014   1.600
 1391TIP3    H1 4116   6.364  -0.059   1.558
 1391TIP3    H2 4117   6.382   0.087   1.595
 1392TIP3   OH2 4118   7.063   6.423   3.482
 1392TIP3    H1 4119   7.110   6.348   3.445
 1392TIP3    H2 4120   6.990   6.384   3.530
 1393TIP3   OH2 4121   5.745   3.015   3.734
 1393TIP3    H1 4122   5.666   2.967   3.707
 1393TIP3    H2 4123   5.803   2.947   3.767
 1394TIP3   OH2 4124   4.615   1.513   1.103
 1394TIP3    H1 4125   4.527   1.503   1.067
 1394TIP3    H2 4126   4.671   1.526   1.027
 1395TIP3   OH2 4127   4.893   0.278   6.143
 1395TIP3    H1 4128   4.815   0.328   6.166
 1395TIP3    H2 4129   4.966   0.338   6.160
 1396TIP3   OH2 4130   4.642   4.507   5.816
 1396TIP3    H1 4131   4.655   4.585   5.761
 1396TIP3    H2 4132   4.678   4.435   5.765
 1397TIP3   OH2 4133   5.683   3.720   5.117
 1397TIP3    H1 4134   5.594   3.731   5.149
 1397TIP3    H2 4135   5.701   3.800   5.068
 1398TIP3   OH2 4136   2.692   6.050   6.564
 1398TIP3    H1 4137   2.656   6.093   6.487
 1398TIP3    H2 4138   2.622   5.993   6.595
 1399TIP3   OH2 4139   1.988   3.298   2.758
 1399TIP3    H1 4140   2.050   3.328   2.691
 1399TIP3    H2 4141   1.992   3.202   2.752
 1400TIP3   OH2 4142   0.158   3.143   4.042
 1400TIP3    H1 4143   0.208   3.148   4.123
 1400TIP3    H2 4144   0.083   3.200   4.057
 1401TIP3   OH2 4145   3.387   5.220   0.585
 1401TIP3    H1 4146   3.359   5.129   0.590
 1401TIP3    H2 4147   3.306   5.270   0.575
 1402TIP3   OH2 4148   5.202   6.444   6.720
 1402TIP3    H1 4149   5.277   6.502   6.730
 1402TIP3    H2 4150   5.238   6.363   6.684
 1403TIP3   OH2 4151   7.826   4.874   4.056
 1403TIP3    H1 4152   7.887   4.819   4.105
 1403TIP3    H2 4153   7.792   4.935   4.121
 1404TIP3   OH2 4154   5.004   1.423   0.451
 1404TIP3    H1 4155   4.935   1.358   0.464
 1404TIP3    H2 4156   4.960   1.507   0.462
 1405TIP3   OH2 4157   1.179   4.780   4.251
 1405TIP3    H1 4158   1.268   4.799   4.281
 1405TIP3    H2 4159   1.191   4.744   4.164
 1406TIP3   OH2 4160   6.292   6.687   4.175
 1406TIP3    H1 4161   6.302   6.620   4.243
 1406TIP3    H2 4162   6.357   6.754   4.198
 1407TIP3   OH2 4163   1.223   3.445   6.509
 1407TIP3    H1 4164   1.153   3.386   6.537
 1407TIP3    H2 4165   1.193   3.480   6.425
 1408TIP3   OH2 4166   1.661   7.275   0.700
 1408TIP3    H1 4167   1.687   7.270   0.792
 1408TIP3    H2 4168   1.566   7.283   0.701
 1409TIP3   OH2 4169   5.070   4.978   4.336
 1409TIP3    H1 4170   5.035   5.026   4.261
 1409TIP3    H2 4171   5.012   4.902   4.344
 1410TIP3   OH2 4172   0.692   4.121   6.309
 1410TIP3    H1 4173   0.788   4.119   6.306
 1410TIP3    H2 4174   0.668   4.049   6.367
 1411TIP3   OH2 4175   4.483   2.902   1.596
 1411TIP3    H1 4176   4.488   2.904   1.501
 1411TIP3    H2 4177   4.415   2.837   1.615
 1412TIP3   OH2 4178   2.194   6.763   5.377
 1412TIP3    H1 4179   2.223   6.717   5.298
 1412TIP3    H2 4180   2.265   6.824   5.397
 1413TIP3   OH2 4181   6.459   5.897   5.964
 1413TIP3    H1 4182   6.555   5.906   5.965
 1413TIP3    H2 4183   6.442   5.818   6.016
 1414TIP3   OH2 4184   2.997   2.475   6.190
 1414TIP3    H1 4185   2.907   2.488   6.160
 1414TIP3    H2 4186   3.041   2.432   6.116
 1415TIP3   OH2 4187   8.200   0.034   1.152
 1415TIP3    H1 4188   8.261   0.105   1.134
 1415TIP3    H2 4189   8.243  -0.019   1.219
 1416TIP3   OH2 4190   2.596   3.762   1.866
 1416TIP3    H1 4191   2.651   3.827   1.823
 1416TIP3    H2 4192   2.552   3.811   1.935
 1417TIP3   OH2 4193   2.730   6.473   1.981
 1417TIP3    H1 4194   2.713   6.566   1.963
 1417TIP3    H2 4195   2.672   6.453   2.054
 1418TIP3   OH2 4196   7.655   7.239   4.307
 1418TIP3    H1 4197   7.594   7.306   4.276
 1418TIP3    H2 4198   7.675   7.264   4.397
 1419TIP3   OH2 4199   3.362   5.470   1.298
 1419TIP3    H1 4200   3.384   5.377   1.286
 1419TIP3    H2 4201   3.346   5.503   1.210
 1420TIP3   OH2 4202   2.647   4.746   1.071
 1420TIP3    H1 4203   2.578   4.679   1.067
 1420TIP3    H2 4204   2.600   4.829   1.057
 1421TIP3   OH2 4205   7.395   7.471   1.714
 1421TIP3    H1 4206   7.307   7.463   1.676
 1421TIP3    H2 4207   7.392   7.418   1.794
 1422TIP3   OH2 4208   0.390   2.296   1.757
 1422TIP3    H1 4209   0.486   2.297   1.757
 1422TIP3    H2 4210   0.365   2.366   1.817
 1423TIP3   OH2 4211   7.117   1.464   4.562
 1423TIP3    H1 4212   7.060   1.513   4.502
 1423TIP3    H2 4213   7.202   1.506   4.555
 1424TIP3   OH2 4214   5.993   5.979   5.868
 1424TIP3    H1 4215   5.920   5.917   5.875
 1424TIP3    H2 4216   6.069   5.924   5.847
 1425TIP3   OH2 4217   0.358   0.138   0.979
 1425TIP3    H1 4218   0.347   0.050   1.016
 1425TIP3    H2 4219   0.439   0.170   1.019
 1426TIP3   OH2 4220   2.568   5.266   2.138
 1426TIP3    H1 4221   2.491   5.323   2.139
 1426TIP3    H2 4222   2.590   5.256   2.046
 1427TIP3   OH2 4223   5.450   2.364   1.806
 1427TIP3    H1 4224   5.481   2.454   1.809
 1427TIP3    H2 4225   5.367   2.369   1.757
 1428TIP3   OH2 4226   2.815   0.779   4.125
 1428TIP3    H1 4227   2.749   0.802   4.190
 1428TIP3    H2 4228   2.843   0.863   4.089
 1429TIP3   OH2 4229   4.915   6.423   5.820
 1429TIP3    H1 4230   4.995   6.402   5.771
 1429TIP3    H2 4231   4.873   6.339   5.834
 1430TIP3   OH2 4232   2.818   4.734   1.869
 1430TIP3    H1 4233   2.871   4.655   1.857
 1430TIP3    H2 4234   2.730   4.706   1.843
 1431TIP3   OH2 4235   7.991   7.442   2.607
 1431TIP3    H1 4236   8.048   7.389   2.552
 1431TIP3    H2 4237   8.046   7.515   2.636
 1432TIP3   OH2 4238   7.159   3.709   2.071
 1432TIP3    H1 4239   7.087   3.665   2.116
 1432TIP3    H2 4240   7.163   3.668   1.985
 1433TIP3   OH2 4241   2.206   6.669   4.415
 1433TIP3    H1 4242   2.243   6.757   4.423
 1433TIP3    H2 4243   2.149   6.660   4.491
 1434TIP3   OH2 4244   2.996   6.161   4.217
 1434TIP3    H1 4245   2.917   6.199   4.179
 1434TIP3    H2 4246   3.057   6.235   4.226
 1435TIP3   OH2 4247   8.073   5.250   2.715
 1435TIP3    H1 4248   8.141   5.311   2.744
 1435TIP3    H2 4249   8.097   5.230   2.624
 1436TIP3   OH2 4250   7.842   2.171   4.770
 1436TIP3    H1 4251   7.904   2.244   4.772
 1436TIP3    H2 4252   7.849   2.137   4.681
 1437TIP3   OH2 4253   5.760   0.198   2.392
 1437TIP3    H1 4254   5.784   0.226   2.480
 1437TIP3    H2 4255   5.840   0.211   2.341
 1438TIP3   OH2 4256   2.902   1.791   2.658
 1438TIP3    H1 4257   2.882   1.737   2.734
 1438TIP3    H2 4258   2.970   1.851   2.688
 1439TIP3   OH2 4259   2.905   0.426   0.137
 1439TIP3    H1 4260   2.895   0.347   0.083
 1439TIP3    H2 4261   2.903   0.498   0.074
 1440TIP3   OH2 4262   8.080   6.625   3.357
 1440TIP3    H1 4263   8.149   6.560   3.342
 1440TIP3    H2 4264   7.998   6.576   3.346
 1441TIP3   OH2 4265   5.792   1.533   0.804
 1441TIP3    H1 4266   5.850   1.505   0.733
 1441TIP3    H2 4267   5.826   1.619   0.831
 1442TIP3   OH2 4268   5.404   4.115   3.195
 1442TIP3    H1 4269   5.360   4.192   3.230
 1442TIP3    H2 4270   5.387   4.117   3.101
 1443TIP3   OH2 4271   1.008   7.021   5.825
 1443TIP3    H1 4272   0.995   7.094   5.764
 1443TIP3    H2 4273   0.942   7.034   5.892
 1444TIP3   OH2 4274   2.926   4.219   4.482
 1444TIP3    H1 4275   2.947   4.128   4.506
 1444TIP3    H2 4276   2.830   4.220   4.476
 1445TIP3   OH2 4277   0.893   2.126   2.208
 1445TIP3    H1 4278   0.934   2.040   2.214
 1445TIP3    H2 4279   0.884   2.142   2.114
 1446TIP3   OH2 4280   3.447   5.856   2.671
 1446TIP3    H1 4281   3.525   5.892   2.713
 1446TIP3    H2 4282   3.374   5.904   2.711
 1447TIP3   OH2 4283   7.274   6.952   0.265
 1447TIP3    H1 4284   7.285   6.889   0.336
 1447TIP3    H2 4285   7.231   6.901   0.195
 1448TIP3   OH2 4286   3.526   0.827   3.840
 1448TIP3    H1 4287   3.522   0.772   3.918
 1448TIP3    H2 4288   3.590   0.895   3.861
 1449TIP3   OH2 4289   1.878   0.741   2.836
 1449TIP3    H1 4290   1.827   0.814   2.871
 1449TIP3    H2 4291   1.819   0.699   2.774
 1450TIP3   OH2 4292   7.615   4.851   0.635
 1450TIP3    H1 4293   7.649   4.908   0.565
 1450TIP3    H2 4294   7.654   4.766   0.616
 1451TIP3   OH2 4295   4.098   7.091   2.674
 1451TIP3    H1 4296   4.108   7.087   2.579
 1451TIP3    H2 4297   4.091   7.000   2.701
 1452TIP3   OH2 4298   2.349   4.475   6.675
 1452TIP3    H1 4299   2.369   4.565   6.698
 1452TIP3    H2 4300   2.429   4.426   6.692
 1453TIP3   OH2 4301   7.858   4.755   5.156
 1453TIP3    H1 4302   7.886   4.774   5.246
 1453TIP3    H2 4303   7.906   4.676   5.132
 1454TIP3   OH2 4304   1.624   6.595   0.153
 1454TIP3    H1 4305   1.710   6.622   0.185
 1454TIP3    H2 4306   1.577   6.677   0.140
 1455TIP3   OH2 4307   7.850   0.766   4.619
 1455TIP3    H1 4308   7.847   0.803   4.707
 1455TIP3    H2 4309   7.918   0.817   4.574
 1456TIP3   OH2 4310   8.033  -0.060   3.353
 1456TIP3    H1 4311   8.021  -0.006   3.275
 1456TIP3    H2 4312   7.990  -0.011   3.423
 1457TIP3   OH2 4313   7.165   4.502   1.536
 1457TIP3    H1 4314   7.248   4.500   1.584
 1457TIP3    H2 4315   7.142   4.594   1.531
 1458TIP3   OH2 4316   2.380   1.652   6.256
 1458TIP3    H1 4317   2.470   1.645   6.223
 1458TIP3    H2 4318   2.366   1.572   6.307
 1459TIP3   OH2 4319   0.651   0.787   2.171
 1459TIP3    H1 4320   0.564   0.775   2.209
 1459TIP3    H2 4321   0.693   0.701   2.182
 1460TIP3   OH2 4322   0.584   3.281   3.217
 1460TIP3    H1 4323   0.638   3.359   3.226
 1460TIP3    H2 4324   0.549   3.264   3.304
 1461TIP3   OH2 4325   4.937   7.006   3.555
 1461TIP3    H1 4326   4.942   7.091   3.597
 1461TIP3    H2 4327   5.012   7.004   3.495
 1462TIP3   OH2 4328   3.338   5.012   6.052
 1462TIP3    H1 4329   3.273   5.039   6.117
 1462TIP3    H2 4330   3.422   5.028   6.094
 1463TIP3   OH2 4331   4.617   4.907   4.484
 1463TIP3    H1 4332   4.586   4.994   4.509
 1463TIP3    H2 4333   4.539   4.863   4.451
 1464TIP3   OH2 4334   6.905   7.762   1.598
 1464TIP3    H1 4335   6.935   7.841   1.553
 1464TIP3    H2 4336   6.902   7.695   1.531
 1465TIP3   OH2 4337   0.330   5.421   4.831
 1465TIP3    H1 4338   0.364   5.504   4.798
 1465TIP3    H2 4339   0.400   5.358   4.813
 1466TIP3   OH2 4340   1.745   4.865   1.954
 1466TIP3    H1 4341   1.837   4.842   1.969
 1466TIP3    H2 4342   1.729   4.843   1.863
 1467TIP3   OH2 4343   0.592   6.186   4.924
 1467TIP3    H1 4344   0.683   6.199   4.948
 1467TIP3    H2 4345   0.596   6.142   4.839
 1468TIP3   OH2 4346   0.798   1.623   0.549
 1468TIP3    H1 4347   0.851   1.666   0.617
 1468TIP3    H2 4348   0.788   1.690   0.481
 1469TIP3   OH2 4349   6.140   2.104   5.296
 1469TIP3    H1 4350   6.233   2.119   5.313
 1469TIP3    H2 4351   6.104   2.192   5.282
 1470TIP3   OH2 4352   5.487   6.665   2.864
 1470TIP3    H1 4353   5.412   6.714   2.832
 1470TIP3    H2 4354   5.522   6.718   2.936
 1471TIP3   OH2 4355   4.420   1.262   4.865
 1471TIP3    H1 4356   4.358   1.190   4.855
 1471TIP3    H2 4357   4.448   1.283   4.776
 1472TIP3   OH2 4358   5.848   5.760   6.776
 1472TIP3    H1 4359   5.756   5.736   6.790
 1472TIP3    H2 4360   5.884   5.687   6.725
 1473TIP3   OH2 4361   6.712   2.628   0.007
 1473TIP3    H1 4362   6.653   2.604  -0.064
 1473TIP3    H2 4363   6.726   2.546   0.055
 1474TIP3   OH2 4364   7.414   5.701   0.206
 1474TIP3    H1 4365   7.405   5.675   0.114
 1474TIP3    H2 4366   7.372   5.631   0.255
 1475TIP3   OH2 4367   1.904   0.058   1.978
 1475TIP3    H1 4368   1.925   0.045   1.886
 1475TIP3    H2 4369   1.810   0.045   1.983
 1476TIP3   OH2 4370   2.315   2.554   3.120
 1476TIP3    H1 4371   2.270   2.638   3.127
 1476TIP3    H2 4372   2.277   2.511   3.044
 1477TIP3   OH2 4373   7.366   2.973   6.002
 1477TIP3    H1 4374   7.364   3.049   5.944
 1477TIP3    H2 4375   7.359   3.010   6.090
 1478TIP3   OH2 4376   7.840   1.181   3.093
 1478TIP3    H1 4377   7.778   1.108   3.098
 1478TIP3    H2 4378   7.792   1.251   3.048
 1479TIP3   OH2 4379   2.445   6.975   6.604
 1479TIP3    H1 4380   2.400   6.933   6.677
 1479TIP3    H2 4381   2.483   7.054   6.642
 1480TIP3   OH2 4382   2.742   6.726   6.076
 1480TIP3    H1 4383   2.812   6.691   6.131
 1480TIP3    H2 4384   2.785   6.743   5.991
 1481TIP3   OH2 4385   6.705   6.687   2.344
 1481TIP3    H1 4386   6.768   6.751   2.377
 1481TIP3    H2 4387   6.733   6.604   2.382
 1482TIP3   OH2 4388   3.879   2.438   1.394
 1482TIP3    H1 4389   3.871   2.345   1.371
 1482TIP3    H2 4390   3.826   2.483   1.328
 1483TIP3   OH2 4391   2.327   2.207   3.189
 1483TIP3    H1 4392   2.267   2.249   3.250
 1483TIP3    H2 4393   2.407   2.260   3.194
 1484TIP3   OH2 4394   1.694   3.838   1.047
 1484TIP3    H1 4395   1.700   3.752   1.088
 1484TIP3    H2 4396   1.785   3.869   1.044
 1485TIP3   OH2 4397   2.592   0.171   4.079
 1485TIP3    H1 4398   2.646   0.214   4.013
 1485TIP3    H2 4399   2.521   0.233   4.096
 1486TIP3   OH2 4400   1.083   5.218   0.620
 1486TIP3    H1 4401   1.058   5.298   0.665
 1486TIP3    H2 4402   1.130   5.166   0.685
 1487TIP3   OH2 4403   2.924   0.141   2.550
 1487TIP3    H1 4404   2.887   0.229   2.546
 1487TIP3    H2 4405   3.012   0.153   2.585
 1488TIP3   OH2 4406   7.991   3.819   0.506
 1488TIP3    H1 4407   7.987   3.807   0.600
 1488TIP3    H2 4408   8.035   3.741   0.473
 1489TIP3   OH2 4409   5.523   4.863   4.302
 1489TIP3    H1 4410   5.444   4.914   4.320
 1489TIP3    H2 4411   5.525   4.795   4.369
 1490TIP3   OH2 4412   0.552   3.596   4.844
 1490TIP3    H1 4413   0.561   3.501   4.833
 1490TIP3    H2 4414   0.641   3.626   4.864
 1491TIP3   OH2 4415   7.877   7.035   6.755
 1491TIP3    H1 4416   7.961   7.081   6.752
 1491TIP3    H2 4417   7.842   7.043   6.667
 1492TIP3   OH2 4418   1.782   7.509   2.903
 1492TIP3    H1 4419   1.692   7.538   2.887
 1492TIP3    H2 4420   1.830   7.537   2.825
 1493TIP3   OH2 4421   2.032   0.214   3.859
 1493TIP3    H1 4422   1.983   0.295   3.846
 1493TIP3    H2 4423   1.967   0.144   3.852
 1494TIP3   OH2 4424   6.754   6.998   4.857
 1494TIP3    H1 4425   6.674   7.008   4.908
 1494TIP3    H2 4426   6.733   7.037   4.772
 1495TIP3   OH2 4427   3.380   0.373   3.744
 1495TIP3    H1 4428   3.290   0.403   3.728
 1495TIP3    H2 4429   3.376   0.278   3.731
 1496TIP3   OH2 4430   2.105   1.748   4.121
 1496TIP3    H1 4431   2.190   1.731   4.162
 1496TIP3    H2 4432   2.097   1.680   4.054
 1497TIP3   OH2 4433   2.953   5.814   5.786
 1497TIP3    H1 4434   2.966   5.805   5.692
 1497TIP3    H2 4435   2.863   5.845   5.795
 1498TIP3   OH2 4436   5.691   2.878   2.803
 1498TIP3    H1 4437   5.785   2.871   2.819
 1498TIP3    H2 4438   5.681   2.958   2.752
 1499TIP3   OH2 4439   3.184   1.945   5.972
 1499TIP3    H1 4440   3.237   1.986   5.904
 1499TIP3    H2 4441   3.246   1.920   6.040
 1500TIP3   OH2 4442   4.094   0.154   5.414
 1500TIP3    H1 4443   4.108   0.235   5.463
 1500TIP3    H2 4444   4.000   0.149   5.402
 1501TIP3   OH2 4445   3.785   1.170   0.944
 1501TIP3    H1 4446   3.770   1.167   1.039
 1501TIP3    H2 4447   3.737   1.247   0.915
 1502TIP3   OH2 4448   1.337   3.682   6.614
 1502TIP3    H1 4449   1.353   3.738   6.539
 1502TIP3    H2 4450   1.274   3.617   6.582
 1503TIP3   OH2 4451   2.059   5.195   2.653
 1503TIP3    H1 4452   2.146   5.167   2.625
 1503TIP3    H2 4453   1.999   5.130   2.616
 1504TIP3   OH2 4454   1.731   7.473   1.139
 1504TIP3    H1 4455   1.643   7.510   1.147
 1504TIP3    H2 4456   1.718   7.379   1.146
 1505TIP3   OH2 4457   2.689   5.939   2.648
 1505TIP3    H1 4458   2.759   5.924   2.585
 1505TIP3    H2 4459   2.720   6.012   2.702
 1506TIP3   OH2 4460   0.949   3.248   4.900
 1506TIP3    H1 4461   0.893   3.316   4.938
 1506TIP3    H2 4462   0.942   3.174   4.960
 1507TIP3   OH2 4463   4.715   2.173   6.459
 1507TIP3    H1 4464   4.732   2.245   6.398
 1507TIP3    H2 4465   4.802   2.147   6.490
 1508TIP3   OH2 4466   3.552   4.719   0.621
 1508TIP3    H1 4467   3.560   4.635   0.667
 1508TIP3    H2 4468   3.586   4.784   0.683
 1509TIP3   OH2 4469   2.592   0.196   4.725
 1509TIP3    H1 4470   2.644   0.215   4.647
 1509TIP3    H2 4471   2.639   0.124   4.768
 1510TIP3   OH2 4472   2.801   5.108   1.749
 1510TIP3    H1 4473   2.794   5.018   1.780
 1510TIP3    H2 4474   2.882   5.141   1.788
 1511TIP3   OH2 4475   5.089   6.078   6.139
 1511TIP3    H1 4476   5.166   6.037   6.177
 1511TIP3    H2 4477   5.064   6.145   6.203
 1512TIP3   OH2 4478   0.354   3.261   0.962
 1512TIP3    H1 4479   0.445   3.285   0.948
 1512TIP3    H2 4480   0.355   3.211   1.044
 1513TIP3   OH2 4481   3.612   7.288   1.732
 1513TIP3    H1 4482   3.567   7.372   1.722
 1513TIP3    H2 4483   3.633   7.283   1.826
 1514TIP3   OH2 4484   4.245   5.785   2.441
 1514TIP3    H1 4485   4.176   5.720   2.432
 1514TIP3    H2 4486   4.205   5.855   2.492
 1515TIP3   OH2 4487   5.206   2.412   5.086
 1515TIP3    H1 4488   5.240   2.372   5.006
 1515TIP3    H2 4489   5.146   2.347   5.122
 1516TIP3   OH2 4490   8.198   5.390   2.960
 1516TIP3    H1 4491   8.197   5.301   2.998
 1516TIP3    H2 4492   8.163   5.446   3.029
 1517TIP3   OH2 4493   3.537   5.914   5.032
 1517TIP3    H1 4494   3.561   5.996   4.989
 1517TIP3    H2 4495   3.586   5.846   4.984
 1518TIP3   OH2 4496   2.630   5.723   1.107
 1518TIP3    H1 4497   2.659   5.813   1.124
 1518TIP3    H2 4498   2.683   5.669   1.165
 1519TIP3   OH2 4499   3.791   6.287   1.154
 1519TIP3    H1 4500   3.706   6.256   1.123
 1519TIP3    H2 4501   3.769   6.348   1.225
 1520TIP3   OH2 4502   2.565   3.712   2.925
 1520TIP3    H1 4503   2.634   3.746   2.867
 1520TIP3    H2 4504   2.554   3.621   2.897
 1521TIP3   OH2 4505   3.847   1.451   0.209
 1521TIP3    H1 4506   3.820   1.400   0.132
 1521TIP3    H2 4507   3.918   1.506   0.177
 1522TIP3   OH2 4508   3.080   4.022   1.369
 1522TIP3    H1 4509   3.142   3.994   1.301
 1522TIP3    H2 4510   3.028   3.944   1.387
 1523TIP3   OH2 4511   7.074   6.697   5.314
 1523TIP3    H1 4512   7.170   6.692   5.318
 1523TIP3    H2 4513   7.055   6.790   5.304
 1524TIP3   OH2 4514   7.329   5.011   2.204
 1524TIP3    H1 4515   7.263   5.037   2.269
 1524TIP3    H2 4516   7.280   5.007   2.122
 1525TIP3   OH2 4517   7.353   2.922   4.728
 1525TIP3    H1 4518   7.328   2.829   4.737
 1525TIP3    H2 4519   7.356   2.937   4.634
 1526TIP3   OH2 4520   6.236   1.366   0.642
 1526TIP3    H1 4521   6.325   1.389   0.671
 1526TIP3    H2 4522   6.249   1.319   0.560
 1527TIP3   OH2 4523   3.229   3.146   6.269
 1527TIP3    H1 4524   3.298   3.212   6.261
 1527TIP3    H2 4525   3.202   3.129   6.179
 1528TIP3   OH2 4526   7.359   7.190   2.448
 1528TIP3    H1 4527   7.395   7.240   2.521
 1528TIP3    H2 4528   7.358   7.252   2.375
 1529TIP3   OH2 4529   0.855   4.292   1.687
 1529TIP3    H1 4530   0.802   4.218   1.656
 1529TIP3    H2 4531   0.831   4.365   1.630
 1530TIP3   OH2 4532   0.459   2.461   1.434
 1530TIP3    H1 4533   0.440   2.540   1.484
 1530TIP3    H2 4534   0.544   2.432   1.466
 1531TIP3   OH2 4535   6.958   6.017   6.482
 1531TIP3    H1 4536   6.989   5.997   6.570
 1531TIP3    H2 4537   7.034   6.002   6.426
 1532TIP3   OH2 4538   2.658   1.575   5.435
 1532TIP3    H1 4539   2.670   1.645   5.498
 1532TIP3    H2 4540   2.615   1.505   5.484
 1533TIP3   OH2 4541   1.951   1.420   1.174
 1533TIP3    H1 4542   1.920   1.407   1.264
 1533TIP3    H2 4543   2.020   1.486   1.181
 1534TIP3   OH2 4544   0.882   5.499   2.579
 1534TIP3    H1 4545   0.914   5.499   2.669
 1534TIP3    H2 4546   0.904   5.412   2.545
 1535TIP3   OH2 4547   0.771   0.205   5.368
 1535TIP3    H1 4548   0.711   0.151   5.317
 1535TIP3    H2 4549   0.823   0.252   5.302
 1536TIP3   OH2 4550   0.254   5.805   6.602
 1536TIP3    H1 4551   0.243   5.896   6.575
 1536TIP3    H2 4552   0.334   5.804   6.654
 1537TIP3   OH2 4553   3.165   3.514   2.788
 1537TIP3    H1 4554   3.096   3.504   2.853
 1537TIP3    H2 4555   3.135   3.463   2.712
 1538TIP3   OH2 4556   0.701   4.603   2.205
 1538TIP3    H1 4557   0.611   4.616   2.174
 1538TIP3    H2 4558   0.691   4.563   2.292
 1539TIP3   OH2 4559   1.882   0.272   5.863
 1539TIP3    H1 4560   1.881   0.297   5.771
 1539TIP3    H2 4561   1.919   0.347   5.909
 1540TIP3   OH2 4562   5.034   3.168   0.985
 1540TIP3    H1 4563   5.013   3.108   0.913
 1540TIP3    H2 4564   5.130   3.175   0.982
 1541TIP3   OH2 4565   8.032   4.139   0.853
 1541TIP3    H1 4566   7.950   4.152   0.901
 1541TIP3    H2 4567   8.026   4.050   0.818
 1542TIP3   OH2 4568   3.335   1.702   3.018
 1542TIP3    H1 4569   3.344   1.754   2.938
 1542TIP3    H2 4570   3.269   1.748   3.069
 1543TIP3   OH2 4571   5.903   2.312   4.950
 1543TIP3    H1 4572   5.876   2.251   4.881
 1543TIP3    H2 4573   5.837   2.301   5.019
 1544TIP3   OH2 4574   1.809   4.491   4.216
 1544TIP3    H1 4575   1.872   4.444   4.162
 1544TIP3    H2 4576   1.724   4.455   4.192
 1545TIP3   OH2 4577   1.767   1.361   3.061
 1545TIP3    H1 4578   1.677   1.393   3.064
 1545TIP3    H2 4579   1.777   1.323   2.974
 1546TIP3   OH2 4580   3.822   3.100   2.222
 1546TIP3    H1 4581   3.835   3.024   2.166
 1546TIP3    H2 4582   3.878   3.084   2.298
 1547TIP3   OH2 4583   4.749   3.100   5.516
 1547TIP3    H1 4584   4.687   3.103   5.444
 1547TIP3    H2 4585   4.697   3.125   5.593
 1548TIP3   OH2 4586   1.240   3.507   5.241
 1548TIP3    H1 4587   1.302   3.554   5.297
 1548TIP3    H2 4588   1.274   3.517   5.152
 1549TIP3   OH2 4589   2.836   2.028   0.293
 1549TIP3    H1 4590   2.822   2.099   0.232
 1549TIP3    H2 4591   2.931   2.021   0.301
 1550TIP3   OH2 4592   6.525   2.463   1.427
 1550TIP3    H1 4593   6.468   2.401   1.382
 1550TIP3    H2 4594   6.505   2.548   1.388
 1551TIP3   OH2 4595   4.296   1.370   2.125
 1551TIP3    H1 4596   4.295   1.309   2.051
 1551TIP3    H2 4597   4.240   1.442   2.097
 1552TIP3   OH2 4598   5.719   2.414   0.052
 1552TIP3    H1 4599   5.801   2.383   0.014
 1552TIP3    H2 4600   5.677   2.335   0.087
 1553TIP3   OH2 4601   1.085   3.821   6.433
 1553TIP3    H1 4602   0.992   3.806   6.449
 1553TIP3    H2 4603   1.094   3.819   6.338
 1554TIP3   OH2 4604   3.183   4.618   3.252
 1554TIP3    H1 4605   3.231   4.687   3.297
 1554TIP3    H2 4606   3.231   4.604   3.171
 1555TIP3   OH2 4607   0.669   1.451   2.842
 1555TIP3    H1 4608   0.642   1.433   2.932
 1555TIP3    H2 4609   0.590   1.435   2.790
 1556TIP3   OH2 4610   7.263   5.519   0.388
 1556TIP3    H1 4611   7.244   5.601   0.434
 1556TIP3    H2 4612   7.290   5.458   0.457
 1557TIP3   OH2 4613   2.860   1.162   6.017
 1557TIP3    H1 4614   2.887   1.098   6.082
 1557TIP3    H2 4615   2.942   1.198   5.983
 1558TIP3   OH2 4616   2.747   6.523   2.393
 1558TIP3    H1 4617   2.698   6.443   2.414
 1558TIP3    H2 4618   2.689   6.571   2.334
 1559TIP3   OH2 4619   0.681   4.857   4.092
 1559TIP3    H1 4620   0.666   4.774   4.137
 1559TIP3    H2 4621   0.761   4.844   4.042
 1560TIP3   OH2 4622   3.344   4.685   3.027
 1560TIP3    H1 4623   3.397   4.639   2.962
 1560TIP3    H2 4624   3.403   4.750   3.065
 1561TIP3   OH2 4625   3.294   6.080   4.969
 1561TIP3    H1 4626   3.337   5.999   4.997
 1561TIP3    H2 4627   3.212   6.050   4.928
 1562TIP3   OH2 4628   7.038   1.504   2.112
 1562TIP3    H1 4629   7.103   1.434   2.102
 1562TIP3    H2 4630   6.995   1.486   2.195
 1563TIP3   OH2 4631   8.116   1.222   0.700
 1563TIP3    H1 4632   8.165   1.153   0.656
 1563TIP3    H2 4633   8.182   1.272   0.748
 1564TIP3   OH2 4634   7.748   2.629   2.105
 1564TIP3    H1 4635   7.754   2.619   2.200
 1564TIP3    H2 4636   7.795   2.553   2.070
 1565TIP3   OH2 4637   2.828   0.766   2.672
 1565TIP3    H1 4638   2.769   0.713   2.618
 1565TIP3    H2 4639   2.802   0.856   2.654
 1566TIP3   OH2 4640   4.512   3.675   3.831
 1566TIP3    H1 4641   4.543   3.624   3.755
 1566TIP3    H2 4642   4.558   3.636   3.906
 1567TIP3   OH2 4643   3.894   4.258   5.718
 1567TIP3    H1 4644   3.853   4.191   5.662
 1567TIP3    H2 4645   3.949   4.309   5.659
 1568TIP3   OH2 4646   5.212   2.018   5.460
 1568TIP3    H1 4647   5.145   2.041   5.524
 1568TIP3    H2 4648   5.290   2.066   5.488
 1569TIP3   OH2 4649   6.220   5.128   1.472
 1569TIP3    H1 4650   6.246   5.159   1.559
 1569TIP3    H2 4651   6.141   5.177   1.451
 1570TIP3   OH2 4652   5.847   4.263   4.200
 1570TIP3    H1 4653   5.797   4.336   4.162
 1570TIP3    H2 4654   5.838   4.274   4.294
 1571TIP3   OH2 4655   6.188   5.779   4.631
 1571TIP3    H1 4656   6.233   5.706   4.589
 1571TIP3    H2 4657   6.101   5.779   4.592
 1572TIP3   OH2 4658   3.748   4.218   1.042
 1572TIP3    H1 4659   3.779   4.163   1.114
 1572TIP3    H2 4660   3.654   4.205   1.041
 1573TIP3   OH2 4661   0.061   2.092   5.256
 1573TIP3    H1 4662   0.134   2.129   5.207
 1573TIP3    H2 4663  -0.010   2.154   5.243
 1574TIP3   OH2 4664   2.385   6.367   3.294
 1574TIP3    H1 4665   2.407   6.455   3.326
 1574TIP3    H2 4666   2.386   6.376   3.199
 1575TIP3   OH2 4667   1.133   4.208   4.099
 1575TIP3    H1 4668   1.176   4.122   4.103
 1575TIP3    H2 4669   1.204   4.269   4.081
 1576TIP3   OH2 4670   1.509   5.343   2.739
 1576TIP3    H1 4671   1.458   5.320   2.816
 1576TIP3    H2 4672   1.537   5.433   2.755
 1577TIP3   OH2 4673   1.881   5.763   2.720
 1577TIP3    H1 4674   1.972   5.792   2.724
 1577TIP3    H2 4675   1.867   5.714   2.801
 1578TIP3   OH2 4676   2.429   1.343   4.092
 1578TIP3    H1 4677   2.445   1.390   4.174
 1578TIP3    H2 4678   2.383   1.263   4.118
 1579TIP3   OH2 4679   0.053   5.066   2.180
 1579TIP3    H1 4680   0.089   5.010   2.248
 1579TIP3    H2 4681  -0.040   5.043   2.175
 1580TIP3   OH2 4682   4.850   2.689   6.280
 1580TIP3    H1 4683   4.790   2.690   6.206
 1580TIP3    H2 4684   4.798   2.721   6.354
 1581TIP3   OH2 4685   2.228   6.603   0.821
 1581TIP3    H1 4686   2.316   6.573   0.800
 1581TIP3    H2 4687   2.170   6.545   0.771
 1582TIP3   OH2 4688   3.729   4.910   5.049
 1582TIP3    H1 4689   3.815   4.911   5.009
 1582TIP3    H2 4690   3.679   4.846   4.998
 1583TIP3   OH2 4691   6.781   5.668   2.445
 1583TIP3    H1 4692   6.869   5.706   2.442
 1583TIP3    H2 4693   6.733   5.725   2.505
 1584TIP3   OH2 4694   0.646   4.427   0.257
 1584TIP3    H1 4695   0.652   4.361   0.326
 1584TIP3    H2 4696   0.583   4.491   0.290
 1585TIP3   OH2 4697   1.912   7.844   3.189
 1585TIP3    H1 4698   1.821   7.814   3.176
 1585TIP3    H2 4699   1.964   7.765   3.175
 1586TIP3   OH2 4700   3.172   0.408   2.599
 1586TIP3    H1 4701   3.118   0.332   2.619
 1586TIP3    H2 4702   3.189   0.449   2.684
 1587TIP3   OH2 4703   3.071   6.672   4.060
 1587TIP3    H1 4704   3.065   6.661   4.155
 1587TIP3    H2 4705   3.024   6.754   4.042
 1588TIP3   OH2 4706   4.310   7.450   0.543
 1588TIP3    H1 4707   4.321   7.445   0.448
 1588TIP3    H2 4708   4.282   7.361   0.568
 1589TIP3   OH2 4709   2.328   0.312   4.034
 1589TIP3    H1 4710   2.298   0.355   3.954
 1589TIP3    H2 4711   2.347   0.384   4.094
 1590TIP3   OH2 4712   1.509   0.242   1.218
 1590TIP3    H1 4713   1.428   0.272   1.176
 1590TIP3    H2 4714   1.540   0.318   1.267
 1591TIP3   OH2 4715   7.500   0.637   1.289
 1591TIP3    H1 4716   7.418   0.639   1.240
 1591TIP3    H2 4717   7.557   0.699   1.243
 1592TIP3   OH2 4718  -0.008   3.897   5.050
 1592TIP3    H1 4719   0.057   3.966   5.036
 1592TIP3    H2 4720  -0.016   3.891   5.145
 1593TIP3   OH2 4721   1.808   5.177   1.803
 1593TIP3    H1 4722   1.774   5.264   1.822
 1593TIP3    H2 4723   1.731   5.125   1.784
 1594TIP3   OH2 4724   5.832   0.048   4.067
 1594TIP3    H1 4725   5.915   0.009   4.039
 1594TIP3    H2 4726   5.828   0.033   4.161
 1595TIP3   OH2 4727   0.574   2.397   2.743
 1595TIP3    H1 4728   0.549   2.459   2.811
 1595TIP3    H2 4729   0.524   2.424   2.666
 1596TIP3   OH2 4730   5.037   1.077   6.283
 1596TIP3    H1 4731   5.116   1.028   6.303
 1596TIP3    H2 4732   4.965   1.016   6.302
 1597TIP3   OH2 4733   5.574   2.700   0.972
 1597TIP3    H1 4734   5.526   2.697   0.889
 1597TIP3    H2 4735   5.570   2.792   0.999
 1598TIP3   OH2 4736   8.044   4.949   1.562
 1598TIP3    H1 4737   7.977   5.004   1.603
 1598TIP3    H2 4738   8.127   4.993   1.581
 1599TIP3   OH2 4739   6.345   0.416   1.828
 1599TIP3    H1 4740   6.377   0.466   1.753
 1599TIP3    H2 4741   6.343   0.479   1.900
 1600TIP3   OH2 4742   6.942   0.986   4.954
 1600TIP3    H1 4743   6.881   1.052   4.919
 1600TIP3    H2 4744   6.911   0.970   5.043
 1601TIP3   OH2 4745   5.087   4.802   4.636
 1601TIP3    H1 4746   5.042   4.744   4.574
 1601TIP3    H2 4747   5.045   4.887   4.624
 1602TIP3   OH2 4748   6.810   0.769   5.456
 1602TIP3    H1 4749   6.871   0.838   5.430
 1602TIP3    H2 4750   6.764   0.805   5.531
 1603TIP3   OH2 4751   7.943   6.685   0.491
 1603TIP3    H1 4752   7.922   6.761   0.437
 1603TIP3    H2 4753   7.960   6.721   0.578
 1604TIP3   OH2 4754   3.197   2.792   2.111
 1604TIP3    H1 4755   3.124   2.820   2.056
 1604TIP3    H2 4756   3.177   2.701   2.132
 1605TIP3   OH2 4757   2.233   7.853   0.126
 1605TIP3    H1 4758   2.224   7.867   0.221
 1605TIP3    H2 4759   2.161   7.794   0.104
 1606TIP3   OH2 4760   2.129   6.058   3.223
 1606TIP3    H1 4761   2.170   6.098   3.146
 1606TIP3    H2 4762   2.201   6.012   3.267
 1607TIP3   OH2 4763   7.987   1.869   4.343
 1607TIP3    H1 4764   7.935   1.849   4.265
 1607TIP3    H2 4765   8.060   1.921   4.310
 1608TIP3   OH2 4766   2.012   2.664   0.023
 1608TIP3    H1 4767   1.982   2.754   0.007
 1608TIP3    H2 4768   1.933   2.611   0.018
 1609TIP3   OH2 4769   6.019   5.315   3.435
 1609TIP3    H1 4770   5.936   5.270   3.437
 1609TIP3    H2 4771   6.014   5.379   3.506
 1610TIP3   OH2 4772   1.409   0.287   3.632
 1610TIP3    H1 4773   1.405   0.357   3.697
 1610TIP3    H2 4774   1.349   0.315   3.563
 1611TIP3   OH2 4775   8.026   0.799  -0.034
 1611TIP3    H1 4776   8.088   0.858  -0.077
 1611TIP3    H2 4777   8.064   0.783   0.052
 1612TIP3   OH2 4778   3.316   3.647   3.178
 1612TIP3    H1 4779   3.326   3.689   3.093
 1612TIP3    H2 4780   3.282   3.560   3.158
 1613TIP3   OH2 4781   2.320   6.710   1.375
 1613TIP3    H1 4782   2.312   6.714   1.280
 1613TIP3    H2 4783   2.392   6.649   1.390
 1614TIP3   OH2 4784   0.239   2.953   4.950
 1614TIP3    H1 4785   0.183   3.009   4.896
 1614TIP3    H2 4786   0.214   2.974   5.040
 1615TIP3   OH2 4787   3.724   7.212   5.647
 1615TIP3    H1 4788   3.817   7.193   5.637
 1615TIP3    H2 4789   3.707   7.203   5.741
 1616TIP3   OH2 4790   5.900   4.259   5.104
 1616TIP3    H1 4791   5.848   4.291   5.030
 1616TIP3    H2 4792   5.930   4.338   5.148
 1617TIP3   OH2 4793   6.404   5.668   0.814
 1617TIP3    H1 4794   6.423   5.713   0.896
 1617TIP3    H2 4795   6.419   5.576   0.833
 1618TIP3   OH2 4796   6.692   3.437   1.118
 1618TIP3    H1 4797   6.613   3.469   1.076
 1618TIP3    H2 4798   6.673   3.441   1.212
 1619TIP3   OH2 4799   4.202   5.859   4.365
 1619TIP3    H1 4800   4.219   5.939   4.315
 1619TIP3    H2 4801   4.148   5.805   4.307
 1620TIP3   OH2 4802   4.281   1.633   0.817
 1620TIP3    H1 4803   4.267   1.615   0.910
 1620TIP3    H2 4804   4.206   1.687   0.792
 1621TIP3   OH2 4805   4.961   1.324   1.384
 1621TIP3    H1 4806   4.949   1.338   1.478
 1621TIP3    H2 4807   4.892   1.263   1.360
 1622TIP3   OH2 4808   7.664   6.105   2.425
 1622TIP3    H1 4809   7.669   6.178   2.487
 1622TIP3    H2 4810   7.681   6.027   2.478
 1623TIP3   OH2 4811   5.459   2.277   4.606
 1623TIP3    H1 4812   5.421   2.269   4.694
 1623TIP3    H2 4813   5.509   2.358   4.608
 1624TIP3   OH2 4814   8.127   0.323   5.046
 1624TIP3    H1 4815   8.170   0.271   5.114
 1624TIP3    H2 4816   8.080   0.391   5.094
 1625TIP3   OH2 4817   7.686   7.049   0.609
 1625TIP3    H1 4818   7.750   6.987   0.644
 1625TIP3    H2 4819   7.601   7.011   0.629
 1626TIP3   OH2 4820   2.133   7.672   5.433
 1626TIP3    H1 4821   2.067   7.730   5.470
 1626TIP3    H2 4822   2.204   7.730   5.404
 1627TIP3   OH2 4823   0.223   2.173   1.949
 1627TIP3    H1 4824   0.245   2.231   1.877
 1627TIP3    H2 4825   0.299   2.176   2.007
 1628TIP3   OH2 4826   0.318   7.861   5.020
 1628TIP3    H1 4827   0.287   7.796   5.082
 1628TIP3    H2 4828   0.243   7.878   4.963
 1629TIP3   OH2 4829   2.135   6.888   0.682
 1629TIP3    H1 4830   2.163   6.841   0.761
 1629TIP3    H2 4831   2.116   6.818   0.619
 1630TIP3   OH2 4832   5.300   2.242   3.745
 1630TIP3    H1 4833   5.235   2.311   3.758
 1630TIP3    H2 4834   5.295   2.189   3.825
 1631TIP3   OH2 4835   7.001   4.945   2.045
 1631TIP3    H1 4836   6.941   5.020   2.043
 1631TIP3    H2 4837   6.945   4.871   2.068
 1632TIP3   OH2 4838   4.837   2.833   4.189
 1632TIP3    H1 4839   4.893   2.847   4.113
 1632TIP3    H2 4840   4.748   2.848   4.157
 1633TIP3   OH2 4841   1.408   5.635   3.242
 1633TIP3    H1 4842   1.316   5.654   3.258
 1633TIP3    H2 4843   1.426   5.556   3.294
 1634TIP3   OH2 4844   1.078   1.453   0.126
 1634TIP3    H1 4845   1.138   1.397   0.175
 1634TIP3    H2 4846   1.049   1.399   0.053
 1635TIP3   OH2 4847   3.387   0.487   2.034
 1635TIP3    H1 4848   3.419   0.490   2.124
 1635TIP3    H2 4849   3.454   0.438   1.986
 1636TIP3   OH2 4850   4.995   5.002   2.725
 1636TIP3    H1 4851   5.089   4.998   2.707
 1636TIP3    H2 4852   4.966   4.911   2.721
 1637TIP3   OH2 4853   6.851   4.756   0.715
 1637TIP3    H1 4854   6.894   4.685   0.667
 1637TIP3    H2 4855   6.774   4.715   0.754
 1638TIP3   OH2 4856   2.138   7.217   5.384
 1638TIP3    H1 4857   2.190   7.295   5.365
 1638TIP3    H2 4858   2.193   7.164   5.442
 1639TIP3   OH2 4859   6.800   2.858   6.077
 1639TIP3    H1 4860   6.745   2.849   5.999
 1639TIP3    H2 4861   6.880   2.900   6.045
 1640TIP3   OH2 4862   4.950   2.216   1.803
 1640TIP3    H1 4863   4.884   2.194   1.869
 1640TIP3    H2 4864   4.987   2.299   1.834
 1641TIP3   OH2 4865   1.096   1.151   3.299
 1641TIP3    H1 4866   1.088   1.200   3.381
 1641TIP3    H2 4867   1.130   1.214   3.236
 1642TIP3   OH2 4868   5.967   0.774   5.327
 1642TIP3    H1 4869   5.936   0.811   5.244
 1642TIP3    H2 4870   5.887   0.759   5.377
 1643TIP3   OH2 4871   1.259   7.579   1.183
 1643TIP3    H1 4872   1.323   7.562   1.114
 1643TIP3    H2 4873   1.174   7.578   1.137
 1644TIP3   OH2 4874   2.648   3.891   6.070
 1644TIP3    H1 4875   2.590   3.966   6.062
 1644TIP3    H2 4876   2.734   3.923   6.041
 1645TIP3   OH2 4877   1.007   7.481   4.033
 1645TIP3    H1 4878   0.964   7.563   4.011
 1645TIP3    H2 4879   1.093   7.487   3.991
 1646TIP3   OH2 4880   1.595   0.142   4.032
 1646TIP3    H1 4881   1.588   0.237   4.036
 1646TIP3    H2 4882   1.577   0.113   4.122
 1647TIP3   OH2 4883   5.225   6.491   1.484
 1647TIP3    H1 4884   5.253   6.546   1.557
 1647TIP3    H2 4885   5.291   6.422   1.479
 1648TIP3   OH2 4886   7.570   3.058   5.670
 1648TIP3    H1 4887   7.489   3.104   5.652
 1648TIP3    H2 4888   7.545   2.988   5.731
 1649TIP3   OH2 4889   7.369   0.138   0.373
 1649TIP3    H1 4890   7.417   0.117   0.293
 1649TIP3    H2 4891   7.361   0.233   0.372
 1650TIP3   OH2 4892   7.401   6.227   6.193
 1650TIP3    H1 4893   7.322   6.228   6.139
 1650TIP3    H2 4894   7.444   6.310   6.174
 1651TIP3   OH2 4895   4.290   5.957   3.228
 1651TIP3    H1 4896   4.202   5.925   3.208
 1651TIP3    H2 4897   4.284   5.991   3.317
 1652TIP3   OH2 4898   1.642   0.901   4.822
 1652TIP3    H1 4899   1.618   0.898   4.915
 1652TIP3    H2 4900   1.673   0.990   4.809
 1653TIP3   OH2 4901   0.606   0.772   4.811
 1653TIP3    H1 4902   0.674   0.713   4.779
 1653TIP3    H2 4903   0.578   0.735   4.895
 1654TIP3   OH2 4904   4.675   4.279   5.966
 1654TIP3    H1 4905   4.606   4.215   5.952
 1654TIP3    H2 4906   4.636   4.363   5.941
 1655TIP3   OH2 4907   6.328   7.675   4.484
 1655TIP3    H1 4908   6.413   7.701   4.450
 1655TIP3    H2 4909   6.308   7.740   4.552
 1656TIP3   OH2 4910   7.284   0.693   1.115
 1656TIP3    H1 4911   7.200   0.680   1.160
 1656TIP3    H2 4912   7.268   0.767   1.056
 1657TIP3   OH2 4913   7.712   5.824   1.575
 1657TIP3    H1 4914   7.788   5.860   1.529
 1657TIP3    H2 4915   7.737   5.733   1.593
 1658TIP3   OH2 4916   2.683   5.065   0.808
 1658TIP3    H1 4917   2.604   5.015   0.788
 1658TIP3    H2 4918   2.668   5.100   0.896
 1659TIP3   OH2 4919   6.891   1.002   5.650
 1659TIP3    H1 4920   6.930   0.927   5.695
 1659TIP3    H2 4921   6.859   1.058   5.720
 1660TIP3   OH2 4922   5.337   2.271   1.317
 1660TIP3    H1 4923   5.249   2.291   1.351
 1660TIP3    H2 4924   5.396   2.326   1.370
 1661TIP3   OH2 4925   6.258   7.198   6.790
 1661TIP3    H1 4926   6.175   7.170   6.828
 1661TIP3    H2 4927   6.323   7.138   6.827
 1662TIP3   OH2 4928   4.462   4.119   6.345
 1662TIP3    H1 4929   4.468   4.105   6.439
 1662TIP3    H2 4930   4.402   4.192   6.335
 1663TIP3   OH2 4931   3.946   2.488   1.661
 1663TIP3    H1 4932   3.904   2.570   1.685
 1663TIP3    H2 4933   3.921   2.474   1.569
 1664TIP3   OH2 4934   3.018   2.180   3.442
 1664TIP3    H1 4935   2.977   2.098   3.470
 1664TIP3    H2 4936   2.958   2.248   3.474
 1665TIP3   OH2 4937   2.203   3.017   2.038
 1665TIP3    H1 4938   2.229   2.991   1.950
 1665TIP3    H2 4939   2.276   3.069   2.070
 1666TIP3   OH2 4940   7.190   4.253   1.796
 1666TIP3    H1 4941   7.153   4.341   1.793
 1666TIP3    H2 4942   7.127   4.201   1.846
 1667TIP3   OH2 4943   2.414   6.908   5.703
 1667TIP3    H1 4944   2.382   6.828   5.746
 1667TIP3    H2 4945   2.492   6.880   5.655
 1668TIP3   OH2 4946   2.690   7.639   5.968
 1668TIP3    H1 4947   2.766   7.592   6.003
 1668TIP3    H2 4948   2.686   7.613   5.876
 1669TIP3   OH2 4949   1.668   4.768   1.712
 1669TIP3    H1 4950   1.606   4.727   1.773
 1669TIP3    H2 4951   1.628   4.853   1.691
 1670TIP3   OH2 4952   5.257   2.510   1.143
 1670TIP3    H1 4953   5.285   2.419   1.148
 1670TIP3    H2 4954   5.235   2.524   1.050
 1671TIP3   OH2 4955   5.402   6.023   5.182
 1671TIP3    H1 4956   5.336   5.970   5.225
 1671TIP3    H2 4957   5.392   6.110   5.220
 1672TIP3   OH2 4958   3.311   1.841   0.716
 1672TIP3    H1 4959   3.349   1.924   0.742
 1672TIP3    H2 4960   3.220   1.846   0.745
 1673TIP3   OH2 4961   1.369   2.945   2.222
 1673TIP3    H1 4962   1.458   2.982   2.224
 1673TIP3    H2 4963   1.365   2.897   2.139
 1674TIP3   OH2 4964   0.788   1.811   0.340
 1674TIP3    H1 4965   0.699   1.823   0.307
 1674TIP3    H2 4966   0.836   1.771   0.267
 1675TIP3   OH2 4967   6.483   4.865   1.224
 1675TIP3    H1 4968   6.448   4.776   1.234
 1675TIP3    H2 4969   6.502   4.873   1.131
 1676TIP3   OH2 4970   2.064   0.783   4.071
 1676TIP3    H1 4971   1.979   0.805   4.033
 1676TIP3    H2 4972   2.109   0.733   4.003
 1677TIP3   OH2 4973   5.598   6.696   0.525
 1677TIP3    H1 4974   5.562   6.627   0.470
 1677TIP3    H2 4975   5.547   6.692   0.606
 1678TIP3   OH2 4976   2.504   1.322   5.880
 1678TIP3    H1 4977   2.520   1.311   5.974
 1678TIP3    H2 4978   2.465   1.410   5.873
 1679TIP3   OH2 4979   5.999   3.538   2.221
 1679TIP3    H1 4980   5.977   3.506   2.134
 1679TIP3    H2 4981   6.038   3.624   2.206
 1680TIP3   OH2 4982   2.710   3.310   5.936
 1680TIP3    H1 4983   2.653   3.284   6.008
 1680TIP3    H2 4984   2.772   3.238   5.927
 1681TIP3   OH2 4985   1.914   2.138   2.376
 1681TIP3    H1 4986   1.845   2.192   2.338
 1681TIP3    H2 4987   1.987   2.199   2.391
 1682TIP3   OH2 4988   7.997   3.564   3.825
 1682TIP3    H1 4989   8.004   3.608   3.909
 1682TIP3    H2 4990   8.065   3.496   3.828
 1683TIP3   OH2 4991   0.457   5.728   6.057
 1683TIP3    H1 4992   0.361   5.735   6.052
 1683TIP3    H2 4993   0.474   5.698   6.146
 1684TIP3   OH2 4994   5.821   4.053   0.136
 1684TIP3    H1 4995   5.779   4.122   0.084
 1684TIP3    H2 4996   5.775   4.054   0.220
 1685TIP3   OH2 4997   2.964   3.161   3.334
 1685TIP3    H1 4998   2.976   3.172   3.240
 1685TIP3    H2 4999   3.032   3.215   3.374
 1686TIP3   OH2 5000   6.498   5.385   4.647
 1686TIP3    H1 5001   6.521   5.347   4.732
 1686TIP3    H2 5002   6.581   5.387   4.599
 1687TIP3   OH2 5003   4.927   6.822   3.226
 1687TIP3    H1 5004   4.882   6.836   3.142
 1687TIP3    H2 5005   4.909   6.731   3.248
 1688TIP3   OH2 5006   2.901   1.174   1.106
 1688TIP3    H1 5007   2.825   1.205   1.058
 1688TIP3    H2 5008   2.868   1.153   1.193
 1689TIP3   OH2 5009   3.761   1.774   0.946
 1689TIP3    H1 5010   3.854   1.793   0.949
 1689TIP3    H2 5011   3.736   1.792   0.855
 1690TIP3   OH2 5012   3.800   5.463   3.218
 1690TIP3    H1 5013   3.866   5.461   3.288
 1690TIP3    H2 5014   3.852   5.464   3.138
 1691TIP3   OH2 5015   4.387   2.276   5.383
 1691TIP3    H1 5016   4.335   2.201   5.355
 1691TIP3    H2 5017   4.322   2.343   5.405
 1692TIP3   OH2 5018   7.866   3.433   0.182
 1692TIP3    H1 5019   7.804   3.408   0.250
 1692TIP3    H2 5020   7.848   3.525   0.165
 1693TIP3   OH2 5021   6.353   2.018   1.523
 1693TIP3    H1 5022   6.325   1.928   1.505
 1693TIP3    H2 5023   6.411   2.040   1.449
 1694TIP3   OH2 5024   3.349   0.436   0.347
 1694TIP3    H1 5025   3.257   0.461   0.354
 1694TIP3    H2 5026   3.396   0.518   0.335
 1695TIP3   OH2 5027   1.669   7.477   6.335
 1695TIP3    H1 5028   1.581   7.496   6.301
 1695TIP3    H2 5029   1.693   7.394   6.294
 1696TIP3   OH2 5030   3.781   1.197   1.831
 1696TIP3    H1 5031   3.757   1.117   1.784
 1696TIP3    H2 5032   3.731   1.192   1.913
 1697TIP3   OH2 5033   2.728   1.081   0.887
 1697TIP3    H1 5034   2.633   1.083   0.885
 1697TIP3    H2 5035   2.751   0.990   0.868
 1698TIP3   OH2 5036   2.019   4.074   4.442
 1698TIP3    H1 5037   2.106   4.033   4.447
 1698TIP3    H2 5038   2.013   4.107   4.352
 1699TIP3   OH2 5039   4.649   4.884   2.366
 1699TIP3    H1 5040   4.556   4.880   2.388
 1699TIP3    H2 5041   4.691   4.924   2.442
 1700TIP3   OH2 5042   0.202   0.889   6.454
 1700TIP3    H1 5043   0.137   0.831   6.415
 1700TIP3    H2 5044   0.283   0.869   6.407
 1701TIP3   OH2 5045   3.056   7.265   3.440
 1701TIP3    H1 5046   3.011   7.230   3.517
 1701TIP3    H2 5047   3.070   7.358   3.461
 1702TIP3   OH2 5048   6.978   1.298   0.543
 1702TIP3    H1 5049   6.924   1.226   0.576
 1702TIP3    H2 5050   7.015   1.264   0.461
 1703TIP3   OH2 5051   2.591   2.903   0.560
 1703TIP3    H1 5052   2.660   2.840   0.541
 1703TIP3    H2 5053   2.519   2.878   0.502
 1704TIP3   OH2 5054   1.110   4.584   4.677
 1704TIP3    H1 5055   1.058   4.663   4.690
 1704TIP3    H2 5056   1.183   4.592   4.738
 1705TIP3   OH2 5057   1.066   6.638   0.400
 1705TIP3    H1 5058   0.984   6.653   0.354
 1705TIP3    H2 5059   1.082   6.544   0.391
 1706TIP3   OH2 5060   0.426   2.447   3.270
 1706TIP3    H1 5061   0.416   2.535   3.234
 1706TIP3    H2 5062   0.468   2.397   3.200
 1707TIP3   OH2 5063   5.655   1.378   5.060
 1707TIP3    H1 5064   5.570   1.399   5.097
 1707TIP3    H2 5065   5.647   1.287   5.030
 1708TIP3   OH2 5066   4.434   6.967   2.077
 1708TIP3    H1 5067   4.507   6.921   2.035
 1708TIP3    H2 5068   4.365   6.968   2.010
 1709TIP3   OH2 5069   3.608   1.653   0.145
 1709TIP3    H1 5070   3.577   1.736   0.184
 1709TIP3    H2 5071   3.687   1.632   0.193
 1710TIP3   OH2 5072   7.646   2.160  -0.002
 1710TIP3    H1 5073   7.591   2.195   0.069
 1710TIP3    H2 5074   7.584   2.132  -0.069
 1711TIP3   OH2 5075   1.308   1.615   3.473
 1711TIP3    H1 5076   1.243   1.683   3.453
 1711TIP3    H2 5077   1.392   1.660   3.469
 1712TIP3   OH2 5078   1.610   7.036   3.882
 1712TIP3    H1 5079   1.604   6.964   3.819
 1712TIP3    H2 5080   1.617   6.993   3.967
 1713TIP3   OH2 5081   7.281   2.718   1.923
 1713TIP3    H1 5082   7.237   2.640   1.957
 1713TIP3    H2 5083   7.213   2.785   1.919
 1714TIP3   OH2 5084   7.216   2.055   3.670
 1714TIP3    H1 5085   7.188   2.058   3.579
 1714TIP3    H2 5086   7.271   2.132   3.681
 1715TIP3   OH2 5087   2.619   4.264   3.204
 1715TIP3    H1 5088   2.525   4.266   3.222
 1715TIP3    H2 5089   2.649   4.353   3.219
 1716TIP3   OH2 5090   2.162   5.049   2.440
 1716TIP3    H1 5091   2.233   5.088   2.388
 1716TIP3    H2 5092   2.087   5.047   2.381
 1717TIP3   OH2 5093   2.710   1.452   2.249
 1717TIP3    H1 5094   2.707   1.544   2.223
 1717TIP3    H2 5095   2.661   1.406   2.180
 1718TIP3   OH2 5096   3.057   0.628   3.234
 1718TIP3    H1 5097   2.979   0.609   3.181
 1718TIP3    H2 5098   3.130   0.621   3.173
 1719TIP3   OH2 5099   5.963   3.741  -0.020
 1719TIP3    H1 5100   5.995   3.776   0.064
 1719TIP3    H2 5101   6.001   3.653  -0.025
 1720TIP3   OH2 5102   1.499   6.220   4.561
 1720TIP3    H1 5103   1.430   6.282   4.538
 1720TIP3    H2 5104   1.541   6.257   4.639
 1721TIP3   OH2 5105   3.118   5.460   4.670
 1721TIP3    H1 5106   3.149   5.388   4.615
 1721TIP3    H2 5107   3.196   5.513   4.688
 1722TIP3   OH2 5108   6.693   2.178   0.684
 1722TIP3    H1 5109   6.687   2.090   0.646
 1722TIP3    H2 5110   6.661   2.167   0.773
 1723TIP3   OH2 5111   1.168   2.521   1.725
 1723TIP3    H1 5112   1.095   2.475   1.684
 1723TIP3    H2 5113   1.243   2.502   1.669
 1724TIP3   OH2 5114   7.470   0.305   2.470
 1724TIP3    H1 5115   7.509   0.222   2.442
 1724TIP3    H2 5116   7.509   0.371   2.413
 1725TIP3   OH2 5117   5.044   3.829   2.819
 1725TIP3    H1 5118   5.130   3.800   2.850
 1725TIP3    H2 5119   5.028   3.777   2.740
 1726TIP3   OH2 5120   0.264   5.507   0.178
 1726TIP3    H1 5121   0.177   5.512   0.138
 1726TIP3    H2 5122   0.316   5.456   0.115
 1727TIP3   OH2 5123   0.705   3.248   2.966
 1727TIP3    H1 5124   0.674   3.208   3.047
 1727TIP3    H2 5125   0.724   3.173   2.909
 1728TIP3   OH2 5126   6.760   3.380   4.592
 1728TIP3    H1 5127   6.758   3.347   4.682
 1728TIP3    H2 5128   6.818   3.456   4.595
 1729TIP3   OH2 5129   3.845   0.719   0.440
 1729TIP3    H1 5130   3.830   0.663   0.363
 1729TIP3    H2 5131   3.940   0.729   0.444
 1730TIP3   OH2 5132   5.249   0.100   2.283
 1730TIP3    H1 5133   5.199   0.102   2.201
 1730TIP3    H2 5134   5.336   0.070   2.257
 1731TIP3   OH2 5135   4.165   6.631   0.097
 1731TIP3    H1 5136   4.155   6.583   0.015
 1731TIP3    H2 5137   4.080   6.675   0.108
 1732TIP3   OH2 5138   8.078   5.588   5.356
 1732TIP3    H1 5139   7.992   5.630   5.358
 1732TIP3    H2 5140   8.133   5.643   5.411
 1733TIP3   OH2 5141   7.860   2.593   6.024
 1733TIP3    H1 5142   7.854   2.580   5.929
 1733TIP3    H2 5143   7.941   2.548   6.049
 1734TIP3   OH2 5144   4.173   0.139   4.677
 1734TIP3    H1 5145   4.147   0.211   4.619
 1734TIP3    H2 5146   4.146   0.167   4.764
 1735TIP3   OH2 5147   5.123   4.841   0.495
 1735TIP3    H1 5148   5.046   4.876   0.451
 1735TIP3    H2 5149   5.097   4.752   0.521
 1736TIP3   OH2 5150   4.180   5.594   2.762
 1736TIP3    H1 5151   4.254   5.537   2.780
 1736TIP3    H2 5152   4.175   5.652   2.837
 1737TIP3   OH2 5153   1.447   1.436   6.801
 1737TIP3    H1 5154   1.376   1.433   6.737
 1737TIP3    H2 5155   1.523   1.468   6.753
 1738TIP3   OH2 5156   1.896   5.577   1.660
 1738TIP3    H1 5157   1.966   5.513   1.647
 1738TIP3    H2 5158   1.882   5.614   1.573
 1739TIP3   OH2 5159   0.889   6.653   1.501
 1739TIP3    H1 5160   0.975   6.611   1.497
 1739TIP3    H2 5161   0.827   6.583   1.480
 1740TIP3   OH2 5162   6.594  -0.010   4.374
 1740TIP3    H1 5163   6.557   0.034   4.451
 1740TIP3    H2 5164   6.618   0.061   4.314
 1741TIP3   OH2 5165   4.167   5.515   5.715
 1741TIP3    H1 5166   4.216   5.581   5.665
 1741TIP3    H2 5167   4.086   5.503   5.666
 1742TIP3   OH2 5168   0.900   7.220   6.576
 1742TIP3    H1 5169   0.928   7.256   6.660
 1742TIP3    H2 5170   0.910   7.125   6.584
 1743TIP3   OH2 5171   1.405   6.552   3.745
 1743TIP3    H1 5172   1.327   6.536   3.693
 1743TIP3    H2 5173   1.450   6.467   3.748
 1744TIP3   OH2 5174   1.342   3.750   0.205
 1744TIP3    H1 5175   1.295   3.800   0.137
 1744TIP3    H2 5176   1.317   3.659   0.189
 1745TIP3   OH2 5177   3.279   1.358   1.379
 1745TIP3    H1 5178   3.327   1.325   1.456
 1745TIP3    H2 5179   3.250   1.279   1.334
 1746TIP3   OH2 5180   1.488   0.006   4.784
 1746TIP3    H1 5181   1.530   0.092   4.785
 1746TIP3    H2 5182   1.501  -0.029   4.872
 1747TIP3   OH2 5183   7.504   7.474   5.932
 1747TIP3    H1 5184   7.458   7.396   5.903
 1747TIP3    H2 5185   7.452   7.547   5.898
 1748TIP3   OH2 5186   3.789   4.288   5.367
 1748TIP3    H1 5187   3.879   4.285   5.399
 1748TIP3    H2 5188   3.761   4.378   5.382
 1749TIP3   OH2 5189   1.733   6.330   5.090
 1749TIP3    H1 5190   1.653   6.360   5.133
 1749TIP3    H2 5191   1.767   6.408   5.047
 1750TIP3   OH2 5192   2.493   5.602   2.854
 1750TIP3    H1 5193   2.450   5.568   2.932
 1750TIP3    H2 5194   2.562   5.538   2.835
 1751TIP3   OH2 5195   2.113   6.345   4.282
 1751TIP3    H1 5196   2.094   6.365   4.373
 1751TIP3    H2 5197   2.193   6.293   4.285
 1752TIP3   OH2 5198   2.977   7.525   6.659
 1752TIP3    H1 5199   3.048   7.467   6.630
 1752TIP3    H2 5200   2.902   7.499   6.606
 1753TIP3   OH2 5201   6.526   4.683   2.285
 1753TIP3    H1 5202   6.482   4.766   2.268
 1753TIP3    H2 5203   6.597   4.705   2.345
 1754TIP3   OH2 5204   6.125   6.632   1.444
 1754TIP3    H1 5205   6.128   6.662   1.353
 1754TIP3    H2 5206   6.039   6.591   1.452
 1755TIP3   OH2 5207   4.172   2.949   3.516
 1755TIP3    H1 5208   4.234   2.967   3.445
 1755TIP3    H2 5209   4.134   3.034   3.538
 1756TIP3   OH2 5210   3.518   7.828   3.975
 1756TIP3    H1 5211   3.509   7.768   4.049
 1756TIP3    H2 5212   3.430   7.863   3.961
 1757TIP3   OH2 5213   3.049   7.602   1.152
 1757TIP3    H1 5214   2.990   7.642   1.089
 1757TIP3    H2 5215   3.085   7.676   1.201
 1758TIP3   OH2 5216   2.442   4.935   5.013
 1758TIP3    H1 5217   2.503   4.999   4.976
 1758TIP3    H2 5218   2.426   4.872   4.942
 1759TIP3   OH2 5219   5.622   0.024   0.147
 1759TIP3    H1 5220   5.619   0.097   0.210
 1759TIP3    H2 5221   5.715   0.010   0.130
 1760TIP3   OH2 5222   1.427   2.848   0.210
 1760TIP3    H1 5223   1.491   2.879   0.273
 1760TIP3    H2 5224   1.475   2.783   0.158
 1761TIP3   OH2 5225   6.188   6.951   5.870
 1761TIP3    H1 5226   6.264   6.982   5.919
 1761TIP3    H2 5227   6.153   7.029   5.828
 1762TIP3   OH2 5228   1.632   4.945   2.846
 1762TIP3    H1 5229   1.699   5.013   2.832
 1762TIP3    H2 5230   1.648   4.913   2.934
 1763TIP3   OH2 5231   5.268   7.034   1.818
 1763TIP3    H1 5232   5.180   7.070   1.814
 1763TIP3    H2 5233   5.261   6.959   1.877
 1764TIP3   OH2 5234   3.185   7.346   5.831
 1764TIP3    H1 5235   3.235   7.405   5.774
 1764TIP3    H2 5236   3.229   7.352   5.916
 1765TIP3   OH2 5237   5.464   3.998   3.882
 1765TIP3    H1 5238   5.499   3.939   3.949
 1765TIP3    H2 5239   5.373   3.973   3.872
 1766TIP3   OH2 5240   1.235   0.913   2.035
 1766TIP3    H1 5241   1.327   0.897   2.013
 1766TIP3    H2 5242   1.239   0.977   2.106
 1767TIP3   OH2 5243   5.689   3.564   3.905
 1767TIP3    H1 5244   5.627   3.495   3.880
 1767TIP3    H2 5245   5.765   3.518   3.939
 1768TIP3   OH2 5246   0.148   5.896   2.469
 1768TIP3    H1 5247   0.055   5.911   2.455
 1768TIP3    H2 5248   0.191   5.973   2.432
 1769TIP3   OH2 5249   4.061   1.890   1.464
 1769TIP3    H1 5250   4.034   1.949   1.534
 1769TIP3    H2 5251   3.986   1.887   1.404
 1770TIP3   OH2 5252   6.649   4.388   1.620
 1770TIP3    H1 5253   6.706   4.338   1.562
 1770TIP3    H2 5254   6.700   4.465   1.644
 1771TIP3   OH2 5255   3.793   0.220   3.011
 1771TIP3    H1 5256   3.823   0.139   3.051
 1771TIP3    H2 5257   3.748   0.267   3.082
 1772TIP3   OH2 5258   5.434   0.914   4.508
 1772TIP3    H1 5259   5.470   0.851   4.446
 1772TIP3    H2 5260   5.374   0.968   4.456
 1773TIP3   OH2 5261   2.649   3.457   3.626
 1773TIP3    H1 5262   2.613   3.492   3.545
 1773TIP3    H2 5263   2.740   3.438   3.606
 1774TIP3   OH2 5264   5.529   4.640   6.047
 1774TIP3    H1 5265   5.445   4.624   6.005
 1774TIP3    H2 5266   5.512   4.711   6.109
 1775TIP3   OH2 5267   2.951   7.431   0.884
 1775TIP3    H1 5268   3.019   7.464   0.826
 1775TIP3    H2 5269   2.887   7.502   0.888
 1776TIP3   OH2 5270   1.410   4.351   6.185
 1776TIP3    H1 5271   1.318   4.337   6.204
 1776TIP3    H2 5272   1.456   4.283   6.235
 1777TIP3   OH2 5273   5.489   6.830   5.738
 1777TIP3    H1 5274   5.482   6.897   5.670
 1777TIP3    H2 5275   5.517   6.751   5.691
 1778TIP3   OH2 5276   1.794   2.922   5.454
 1778TIP3    H1 5277   1.818   3.007   5.489
 1778TIP3    H2 5278   1.752   2.877   5.526
 1779TIP3   OH2 5279   2.654   3.335   1.789
 1779TIP3    H1 5280   2.701   3.328   1.706
 1779TIP3    H2 5281   2.615   3.423   1.787
 1780TIP3   OH2 5282   4.567   3.175   4.271
 1780TIP3    H1 5283   4.605   3.129   4.196
 1780TIP3    H2 5284   4.514   3.245   4.233
 1781TIP3   OH2 5285   0.750   5.366   5.668
 1781TIP3    H1 5286   0.658   5.388   5.649
 1781TIP3    H2 5287   0.788   5.447   5.699
 1782TIP3   OH2 5288   4.718   0.805   5.955
 1782TIP3    H1 5289   4.625   0.789   5.941
 1782TIP3    H2 5290   4.752   0.721   5.988
 1783TIP3   OH2 5291   6.170   2.593   0.228
 1783TIP3    H1 5292   6.153   2.579   0.135
 1783TIP3    H2 5293   6.084   2.604   0.267
 1784TIP3   OH2 5294   2.928   6.412   4.960
 1784TIP3    H1 5295   2.946   6.378   4.873
 1784TIP3    H2 5296   3.013   6.445   4.990
 1785TIP3   OH2 5297   0.489   7.284   1.141
 1785TIP3    H1 5298   0.577   7.263   1.173
 1785TIP3    H2 5299   0.500   7.291   1.046
 1786TIP3   OH2 5300   5.577   3.024   5.619
 1786TIP3    H1 5301   5.554   2.935   5.592
 1786TIP3    H2 5302   5.639   3.054   5.553
 1787TIP3   OH2 5303   6.271   2.333   6.392
 1787TIP3    H1 5304   6.321   2.413   6.407
 1787TIP3    H2 5305   6.264   2.327   6.297
 1788TIP3   OH2 5306   0.999   3.024   3.827
 1788TIP3    H1 5307   0.982   2.955   3.891
 1788TIP3    H2 5308   1.095   3.034   3.829
 1789TIP3   OH2 5309   3.399   5.843   5.279
 1789TIP3    H1 5310   3.310   5.862   5.250
 1789TIP3    H2 5311   3.455   5.889   5.216
 1790TIP3   OH2 5312   2.859   3.369   0.753
 1790TIP3    H1 5313   2.822   3.394   0.668
 1790TIP3    H2 5314   2.920   3.440   0.773
 1791TIP3   OH2 5315   2.194   3.518   3.417
 1791TIP3    H1 5316   2.106   3.490   3.438
 1791TIP3    H2 5317   2.233   3.542   3.501
 1792TIP3   OH2 5318   0.349   3.109   1.174
 1792TIP3    H1 5319   0.355   3.034   1.234
 1792TIP3    H2 5320   0.407   3.174   1.211
 1793TIP3   OH2 5321   1.553   3.466   0.983
 1793TIP3    H1 5322   1.636   3.487   1.025
 1793TIP3    H2 5323   1.536   3.539   0.924
 1794TIP3   OH2 5324   0.151   3.181   5.835
 1794TIP3    H1 5325   0.153   3.273   5.860
 1794TIP3    H2 5326   0.213   3.175   5.762
 1795TIP3   OH2 5327   0.250   3.287   2.894
 1795TIP3    H1 5328   0.189   3.331   2.834
 1795TIP3    H2 5329   0.212   3.199   2.906
 1796TIP3   OH2 5330   3.541   0.465   2.277
 1796TIP3    H1 5331   3.483   0.406   2.325
 1796TIP3    H2 5332   3.620   0.414   2.262
 1797TIP3   OH2 5333   1.560   1.453   3.803
 1797TIP3    H1 5334   1.494   1.430   3.737
 1797TIP3    H2 5335   1.643   1.429   3.761
 1798TIP3   OH2 5336   5.810   3.864   0.926
 1798TIP3    H1 5337   5.798   3.959   0.921
 1798TIP3    H2 5338   5.851   3.841   0.842
 1799TIP3   OH2 5339   3.333   2.044   3.140
 1799TIP3    H1 5340   3.361   2.036   3.231
 1799TIP3    H2 5341   3.399   2.101   3.100
 1800TIP3   OH2 5342   3.670   1.329   0.386
 1800TIP3    H1 5343   3.616   1.317   0.308
 1800TIP3    H2 5344   3.751   1.368   0.354
 1801TIP3   OH2 5345   5.046   2.846   2.486
 1801TIP3    H1 5346   5.025   2.871   2.396
 1801TIP3    H2 5347   5.131   2.801   2.480
 1802TIP3   OH2 5348   5.191   0.627   2.371
 1802TIP3    H1 5349   5.208   0.535   2.389
 1802TIP3    H2 5350   5.268   0.656   2.322
 1803TIP3   OH2 5351   1.129   6.721   6.585
 1803TIP3    H1 5352   1.202   6.695   6.528
 1803TIP3    H2 5353   1.161   6.708   6.674
 1804TIP3   OH2 5354   1.826   3.405   3.496
 1804TIP3    H1 5355   1.880   3.327   3.502
 1804TIP3    H2 5356   1.864   3.465   3.560
 1805TIP3   OH2 5357   3.490   1.667   1.721
 1805TIP3    H1 5358   3.555   1.633   1.783
 1805TIP3    H2 5359   3.541   1.716   1.657
 1806TIP3   OH2 5360   0.944   6.794   0.682
 1806TIP3    H1 5361   0.990   6.769   0.763
 1806TIP3    H2 5362   1.008   6.780   0.613
 1807TIP3   OH2 5363   3.546   0.094   4.921
 1807TIP3    H1 5364   3.633   0.102   4.881
 1807TIP3    H2 5365   3.534   0.175   4.969
 1808TIP3   OH2 5366   3.648   4.017   0.252
 1808TIP3    H1 5367   3.629   4.087   0.190
 1808TIP3    H2 5368   3.742   4.001   0.242
 1809TIP3   OH2 5369   7.640   6.604   2.770
 1809TIP3    H1 5370   7.666   6.569   2.684
 1809TIP3    H2 5371   7.548   6.629   2.759
 1810TIP3   OH2 5372   6.393   0.699   3.786
 1810TIP3    H1 5373   6.306   0.700   3.825
 1810TIP3    H2 5374   6.406   0.609   3.758
 1811TIP3   OH2 5375   0.742   7.791   2.068
 1811TIP3    H1 5376   0.784   7.763   1.986
 1811TIP3    H2 5377   0.813   7.829   2.120
 1812TIP3   OH2 5378   2.915   4.659   1.091
 1812TIP3    H1 5379   2.843   4.721   1.087
 1812TIP3    H2 5380   2.905   4.605   1.012
 1813TIP3   OH2 5381   8.035   4.190   2.177
 1813TIP3    H1 5382   8.020   4.221   2.087
 1813TIP3    H2 5383   8.015   4.096   2.174
 1814TIP3   OH2 5384   4.238   5.152   3.015
 1814TIP3    H1 5385   4.268   5.243   3.021
 1814TIP3    H2 5386   4.175   5.143   3.086
 1815TIP3   OH2 5387   5.114   6.986   3.319
 1815TIP3    H1 5388   5.055   6.913   3.301
 1815TIP3    H2 5389   5.196   6.944   3.345
 1816TIP3   OH2 5390   0.546   2.913   3.318
 1816TIP3    H1 5391   0.551   2.831   3.367
 1816TIP3    H2 5392   0.546   2.981   3.385
 1817TIP3   OH2 5393   2.379   1.242   2.639
 1817TIP3    H1 5394   2.464   1.286   2.644
 1817TIP3    H2 5395   2.321   1.296   2.693
 1818TIP3   OH2 5396   0.457   5.423   2.170
 1818TIP3    H1 5397   0.434   5.511   2.142
 1818TIP3    H2 5398   0.512   5.388   2.100
 1819TIP3   OH2 5399   1.243   5.863   5.156
 1819TIP3    H1 5400   1.323   5.812   5.149
 1819TIP3    H2 5401   1.272   5.949   5.186
 1820TIP3   OH2 5402   6.258   0.149   3.711
 1820TIP3    H1 5403   6.334   0.172   3.658
 1820TIP3    H2 5404   6.248   0.055   3.700
 1821TIP3   OH2 5405   2.362   1.952   4.151
 1821TIP3    H1 5406   2.453   1.974   4.174
 1821TIP3    H2 5407   2.361   1.856   4.146
 1822TIP3   OH2 5408   3.898   2.652   5.820
 1822TIP3    H1 5409   3.949   2.571   5.822
 1822TIP3    H2 5410   3.955   2.718   5.858
 1823TIP3   OH2 5411   7.275   7.349   2.941
 1823TIP3    H1 5412   7.290   7.375   2.850
 1823TIP3    H2 5413   7.219   7.272   2.935
 1824TIP3   OH2 5414   3.000   5.505   0.875
 1824TIP3    H1 5415   3.028   5.476   0.788
 1824TIP3    H2 5416   2.906   5.485   0.878
 1825TIP3   OH2 5417   1.406   7.195   4.873
 1825TIP3    H1 5418   1.496   7.214   4.901
 1825TIP3    H2 5419   1.353   7.263   4.913
 1826TIP3   OH2 5420   0.906   6.515   3.133
 1826TIP3    H1 5421   0.876   6.426   3.117
 1826TIP3    H2 5422   0.833   6.571   3.107
 1827TIP3   OH2 5423   6.718   0.045   4.651
 1827TIP3    H1 5424   6.737   0.120   4.594
 1827TIP3    H2 5425   6.793  -0.013   4.639
 1828TIP3   OH2 5426   6.007   6.890   2.606
 1828TIP3    H1 5427   5.971   6.831   2.672
 1828TIP3    H2 5428   5.982   6.851   2.522
 1829TIP3   OH2 5429   0.494   0.407   6.476
 1829TIP3    H1 5430   0.548   0.473   6.434
 1829TIP3    H2 5431   0.452   0.360   6.404
 1830TIP3   OH2 5432   1.574   4.238   0.479
 1830TIP3    H1 5433   1.643   4.282   0.430
 1830TIP3    H2 5434   1.570   4.150   0.442
 1831TIP3   OH2 5435   4.887   6.939   4.228
 1831TIP3    H1 5436   4.976   6.917   4.200
 1831TIP3    H2 5437   4.841   6.960   4.146
 1832TIP3   OH2 5438   7.567   0.146   0.987
 1832TIP3    H1 5439   7.628   0.215   0.960
 1832TIP3    H2 5440   7.602   0.114   1.070
 1833TIP3   OH2 5441   5.943   2.511   0.961
 1833TIP3    H1 5442   5.946   2.415   0.952
 1833TIP3    H2 5443   6.035   2.537   0.968
 1834TIP3   OH2 5444   2.234   5.503   1.178
 1834TIP3    H1 5445   2.192   5.435   1.231
 1834TIP3    H2 5446   2.272   5.563   1.241
 1835TIP3   OH2 5447   3.163   2.842   1.406
 1835TIP3    H1 5448   3.101   2.885   1.348
 1835TIP3    H2 5449   3.124   2.847   1.493
 1836TIP3   OH2 5450   2.583   7.613   3.162
 1836TIP3    H1 5451   2.637   7.609   3.083
 1836TIP3    H2 5452   2.631   7.559   3.226
 1837TIP3   OH2 5453   2.995   2.216   0.141
 1837TIP3    H1 5454   2.954   2.270   0.073
 1837TIP3    H2 5455   3.070   2.177   0.097
 1838TIP3   OH2 5456   6.677   1.243   2.250
 1838TIP3    H1 5457   6.665   1.208   2.162
 1838TIP3    H2 5458   6.653   1.335   2.243
 1839TIP3   OH2 5459   1.403   1.440   6.464
 1839TIP3    H1 5460   1.438   1.528   6.456
 1839TIP3    H2 5461   1.308   1.452   6.467
 1840TIP3   OH2 5462   4.972   1.196   3.216
 1840TIP3    H1 5463   4.910   1.125   3.201
 1840TIP3    H2 5464   4.923   1.275   3.192
 1841TIP3   OH2 5465   6.682   2.364   5.869
 1841TIP3    H1 5466   6.759   2.334   5.819
 1841TIP3    H2 5467   6.718   2.393   5.953
 1842TIP3   OH2 5468   4.674   3.308   0.639
 1842TIP3    H1 5469   4.757   3.266   0.659
 1842TIP3    H2 5470   4.647   3.349   0.722
 1843TIP3   OH2 5471   6.688   1.529   5.017
 1843TIP3    H1 5472   6.690   1.624   5.019
 1843TIP3    H2 5473   6.621   1.507   4.952
 1844TIP3   OH2 5474   1.222   5.737   1.597
 1844TIP3    H1 5475   1.278   5.731   1.674
 1844TIP3    H2 5476   1.133   5.743   1.632
 1845TIP3   OH2 5477   5.432   6.590   0.291
 1845TIP3    H1 5478   5.432   6.503   0.250
 1845TIP3    H2 5479   5.347   6.595   0.336
 1846TIP3   OH2 5480   6.938   2.719   4.463
 1846TIP3    H1 5481   6.967   2.763   4.543
 1846TIP3    H2 5482   6.852   2.685   4.484
 1847TIP3   OH2 5483   0.776   1.280   1.485
 1847TIP3    H1 5484   0.754   1.371   1.506
 1847TIP3    H2 5485   0.815   1.246   1.566
 1848TIP3   OH2 5486   2.107   5.337   2.102
 1848TIP3    H1 5487   2.053   5.378   2.169
 1848TIP3    H2 5488   2.054   5.265   2.068
 1849TIP3   OH2 5489   2.782   2.860   4.524
 1849TIP3    H1 5490   2.835   2.903   4.590
 1849TIP3    H2 5491   2.704   2.915   4.516
 1850TIP3   OH2 5492   4.139   5.805   2.107
 1850TIP3    H1 5493   4.165   5.851   2.027
 1850TIP3    H2 5494   4.205   5.738   2.119
 1851TIP3   OH2 5495   2.419   0.079   2.970
 1851TIP3    H1 5496   2.451   0.062   3.059
 1851TIP3    H2 5497   2.383   0.168   2.975
 1852TIP3   OH2 5498   1.619   4.163   2.746
 1852TIP3    H1 5499   1.568   4.201   2.818
 1852TIP3    H2 5500   1.602   4.221   2.672
 1853TIP3   OH2 5501   6.493   1.032   4.267
 1853TIP3    H1 5502   6.587   1.017   4.259
 1853TIP3    H2 5503   6.479   1.119   4.232
 1854TIP3   OH2 5504   1.411   0.264   2.569
 1854TIP3    H1 5505   1.340   0.217   2.613
 1854TIP3    H2 5506   1.489   0.212   2.587
 1855TIP3   OH2 5507   0.566   7.535   1.520
 1855TIP3    H1 5508   0.624   7.552   1.594
 1855TIP3    H2 5509   0.478   7.555   1.553
 1856TIP3   OH2 5510   3.678   1.438   3.570
 1856TIP3    H1 5511   3.663   1.532   3.556
 1856TIP3    H2 5512   3.721   1.433   3.655
 1857TIP3   OH2 5513   0.053   0.356   6.078
 1857TIP3    H1 5514   0.079   0.279   6.129
 1857TIP3    H2 5515   0.136   0.395   6.050
 1858TIP3   OH2 5516   6.994   0.546   5.946
 1858TIP3    H1 5517   7.015   0.489   6.020
 1858TIP3    H2 5518   7.072   0.601   5.936
 1859TIP3   OH2 5519   0.334   2.625   1.014
 1859TIP3    H1 5520   0.350   2.578   0.932
 1859TIP3    H2 5521   0.420   2.628   1.056
 1860TIP3   OH2 5522   6.157   7.725   1.818
 1860TIP3    H1 5523   6.242   7.692   1.789
 1860TIP3    H2 5524   6.104   7.647   1.832
 1861TIP3   OH2 5525   6.695   3.068   3.571
 1861TIP3    H1 5526   6.726   2.988   3.528
 1861TIP3    H2 5527   6.774   3.114   3.596
 1862TIP3   OH2 5528   5.794   3.286   1.280
 1862TIP3    H1 5529   5.779   3.302   1.187
 1862TIP3    H2 5530   5.878   3.328   1.298
 1863TIP3   OH2 5531   0.570   3.912   3.876
 1863TIP3    H1 5532   0.536   3.992   3.914
 1863TIP3    H2 5533   0.641   3.941   3.819
 1864TIP3   OH2 5534   3.936   4.537   2.349
 1864TIP3    H1 5535   4.007   4.580   2.303
 1864TIP3    H2 5536   3.978   4.487   2.419
 1865TIP3   OH2 5537   6.753   4.700   1.238
 1865TIP3    H1 5538   6.820   4.635   1.219
 1865TIP3    H2 5539   6.676   4.670   1.188
 1866TIP3   OH2 5540   2.192   1.443   5.451
 1866TIP3    H1 5541   2.238   1.514   5.407
 1866TIP3    H2 5542   2.246   1.365   5.432
 1867TIP3   OH2 5543   1.881   3.275   2.378
 1867TIP3    H1 5544   1.905   3.296   2.288
 1867TIP3    H2 5545   1.951   3.217   2.408
 1868TIP3   OH2 5546   6.827   0.644   0.246
 1868TIP3    H1 5547   6.823   0.740   0.254
 1868TIP3    H2 5548   6.749   0.613   0.293
 1869TIP3   OH2 5549   0.008   3.230   0.776
 1869TIP3    H1 5550   0.031   3.166   0.844
 1869TIP3    H2 5551   0.079   3.294   0.779
 1870TIP3   OH2 5552   5.716   1.189   0.893
 1870TIP3    H1 5553   5.669   1.264   0.931
 1870TIP3    H2 5554   5.793   1.179   0.949
 1871TIP3   OH2 5555   0.362   3.432   2.244
 1871TIP3    H1 5556   0.358   3.442   2.149
 1871TIP3    H2 5557   0.401   3.514   2.276
 1872TIP3   OH2 5558   3.613   5.500   2.078
 1872TIP3    H1 5559   3.667   5.422   2.091
 1872TIP3    H2 5560   3.591   5.498   1.984
 1873TIP3   OH2 5561   2.018   2.175   4.791
 1873TIP3    H1 5562   2.108   2.146   4.807
 1873TIP3    H2 5563   1.964   2.119   4.847
 1874TIP3   OH2 5564   4.946   3.753   5.881
 1874TIP3    H1 5565   4.958   3.664   5.848
 1874TIP3    H2 5566   5.022   3.801   5.848
 1875TIP3   OH2 5567   6.605   4.256   6.320
 1875TIP3    H1 5568   6.633   4.275   6.230
 1875TIP3    H2 5569   6.513   4.279   6.321
 1876TIP3   OH2 5570   5.139   4.662   1.812
 1876TIP3    H1 5571   5.115   4.743   1.857
 1876TIP3    H2 5572   5.229   4.677   1.783
 1877TIP3   OH2 5573   5.848   5.733   0.848
 1877TIP3    H1 5574   5.873   5.692   0.930
 1877TIP3    H2 5575   5.813   5.818   0.873
 1878TIP3   OH2 5576   0.383   6.498   4.370
 1878TIP3    H1 5577   0.453   6.531   4.314
 1878TIP3    H2 5578   0.359   6.413   4.333
 1879TIP3   OH2 5579   3.573   6.772   1.269
 1879TIP3    H1 5580   3.508   6.704   1.250
 1879TIP3    H2 5581   3.523   6.840   1.314
 1880TIP3   OH2 5582   3.351   5.894   6.772
 1880TIP3    H1 5583   3.374   5.974   6.819
 1880TIP3    H2 5584   3.302   5.924   6.696
 1881TIP3   OH2 5585   7.696   0.807   1.220
 1881TIP3    H1 5586   7.693   0.807   1.125
 1881TIP3    H2 5587   7.712   0.898   1.244
 1882TIP3   OH2 5588   0.341   3.996   3.682
 1882TIP3    H1 5589   0.360   3.972   3.592
 1882TIP3    H2 5590   0.310   3.915   3.723
 1883TIP3   OH2 5591   7.105   4.406   2.764
 1883TIP3    H1 5592   7.126   4.485   2.713
 1883TIP3    H2 5593   7.087   4.339   2.699
 1884TIP3   OH2 5594   6.918   4.508   1.413
 1884TIP3    H1 5595   6.854   4.439   1.434
 1884TIP3    H2 5596   6.999   4.479   1.456
 1885TIP3   OH2 5597   2.474   2.888   6.337
 1885TIP3    H1 5598   2.550   2.924   6.383
 1885TIP3    H2 5599   2.412   2.960   6.333
 1886TIP3   OH2 5600   3.436   2.147   1.999
 1886TIP3    H1 5601   3.440   2.229   1.950
 1886TIP3    H2 5602   3.448   2.174   2.090
 1887TIP3   OH2 5603   0.583   4.275   5.009
 1887TIP3    H1 5604   0.556   4.365   5.027
 1887TIP3    H2 5605   0.600   4.274   4.915
 1888TIP3   OH2 5606   5.308   2.203   5.857
 1888TIP3    H1 5607   5.214   2.200   5.839
 1888TIP3    H2 5608   5.324   2.128   5.914
 1889TIP3   OH2 5609   7.156   3.798   4.206
 1889TIP3    H1 5610   7.063   3.775   4.219
 1889TIP3    H2 5611   7.193   3.721   4.164
 1890TIP3   OH2 5612   4.237   4.714   6.112
 1890TIP3    H1 5613   4.152   4.680   6.141
 1890TIP3    H2 5614   4.239   4.696   6.018
 1891TIP3   OH2 5615   8.271   7.069   2.219
 1891TIP3    H1 5616   8.319   7.118   2.286
 1891TIP3    H2 5617   8.328   7.071   2.143
 1892TIP3   OH2 5618   5.011   7.232   0.955
 1892TIP3    H1 5619   4.930   7.208   1.000
 1892TIP3    H2 5620   4.990   7.316   0.913
 1893TIP3   OH2 5621   3.206   6.318   5.350
 1893TIP3    H1 5622   3.167   6.405   5.362
 1893TIP3    H2 5623   3.277   6.315   5.414
 1894TIP3   OH2 5624   3.271   1.029   2.441
 1894TIP3    H1 5625   3.274   0.949   2.389
 1894TIP3    H2 5626   3.184   1.029   2.482
 1895TIP3   OH2 5627   1.204   1.508   5.312
 1895TIP3    H1 5628   1.275   1.532   5.253
 1895TIP3    H2 5629   1.245   1.456   5.381
 1896TIP3   OH2 5630   6.583   7.275   2.221
 1896TIP3    H1 5631   6.657   7.317   2.178
 1896TIP3    H2 5632   6.523   7.253   2.150
 1897TIP3   OH2 5633   3.831   4.154   3.992
 1897TIP3    H1 5634   3.919   4.119   3.974
 1897TIP3    H2 5635   3.844   4.248   3.998
 1898TIP3   OH2 5636   1.066   4.967   6.403
 1898TIP3    H1 5637   1.095   4.952   6.314
 1898TIP3    H2 5638   1.028   4.884   6.431
 1899TIP3   OH2 5639   4.299   4.977   1.944
 1899TIP3    H1 5640   4.256   5.006   1.864
 1899TIP3    H2 5641   4.238   4.916   1.984
 1900TIP3   OH2 5642   7.389   0.156   5.911
 1900TIP3    H1 5643   7.479   0.154   5.944
 1900TIP3    H2 5644   7.378   0.244   5.877
 1901TIP3   OH2 5645   8.222   0.072   4.550
 1901TIP3    H1 5646   8.254   0.035   4.632
 1901TIP3    H2 5647   8.298   0.067   4.491
 1902TIP3   OH2 5648   2.956   6.149   2.676
 1902TIP3    H1 5649   2.954   6.130   2.583
 1902TIP3    H2 5650   2.915   6.235   2.684
 1903TIP3   OH2 5651   1.095   4.607   0.634
 1903TIP3    H1 5652   1.089   4.550   0.711
 1903TIP3    H2 5653   1.132   4.551   0.566
 1904TIP3   OH2 5654   6.390   4.253   5.776
 1904TIP3    H1 5655   6.407   4.161   5.759
 1904TIP3    H2 5656   6.476   4.295   5.770
 1905TIP3   OH2 5657   1.919   5.510   4.289
 1905TIP3    H1 5658   1.919   5.425   4.246
 1905TIP3    H2 5659   1.827   5.525   4.312
 1906TIP3   OH2 5660   7.063   6.901   0.532
 1906TIP3    H1 5661   7.029   6.922   0.446
 1906TIP3    H2 5662   7.145   6.855   0.515
 1907TIP3   OH2 5663   6.447   5.065   3.007
 1907TIP3    H1 5664   6.455   5.093   3.098
 1907TIP3    H2 5665   6.401   5.136   2.963
 1908TIP3   OH2 5666   6.941   7.052   3.890
 1908TIP3    H1 5667   6.884   7.067   3.966
 1908TIP3    H2 5668   6.935   7.132   3.839
 1909TIP3   OH2 5669   0.040   1.067   2.215
 1909TIP3    H1 5670   0.000   1.061   2.302
 1909TIP3    H2 5671   0.067   1.158   2.207
 1910TIP3   OH2 5672   8.044   5.421   0.693
 1910TIP3    H1 5673   7.991   5.438   0.615
 1910TIP3    H2 5674   7.989   5.451   0.766
 1911TIP3   OH2 5675   5.840   1.886   5.692
 1911TIP3    H1 5676   5.871   1.931   5.770
 1911TIP3    H2 5677   5.827   1.795   5.720
 1912TIP3   OH2 5678   0.392   3.581   4.237
 1912TIP3    H1 5679   0.445   3.528   4.178
 1912TIP3    H2 5680   0.426   3.670   4.227
 1913TIP3   OH2 5681   1.837   4.765   4.742
 1913TIP3    H1 5682   1.860   4.673   4.753
 1913TIP3    H2 5683   1.875   4.789   4.658
 1914TIP3   OH2 5684   7.532   7.640   0.864
 1914TIP3    H1 5685   7.627   7.651   0.865
 1914TIP3    H2 5686   7.499   7.712   0.919
 1915TIP3   OH2 5687   0.060   4.143   4.745
 1915TIP3    H1 5688  -0.008   4.170   4.684
 1915TIP3    H2 5689   0.070   4.216   4.805
 1916TIP3   OH2 5690   5.636   1.189   0.247
 1916TIP3    H1 5691   5.567   1.255   0.239
 1916TIP3    H2 5692   5.687   1.217   0.323
 1917TIP3   OH2 5693   3.249   0.259   5.926
 1917TIP3    H1 5694   3.284   0.173   5.903
 1917TIP3    H2 5695   3.319   0.300   5.977
 1918TIP3   OH2 5696   3.902   1.799   4.326
 1918TIP3    H1 5697   3.974   1.765   4.380
 1918TIP3    H2 5698   3.849   1.850   4.387
 1919TIP3   OH2 5699   5.892   1.696   6.178
 1919TIP3    H1 5700   5.857   1.697   6.267
 1919TIP3    H2 5701   5.861   1.613   6.141
 1920TIP3   OH2 5702   2.423   2.536   3.755
 1920TIP3    H1 5703   2.401   2.546   3.848
 1920TIP3    H2 5704   2.514   2.565   3.748
 1921TIP3   OH2 5705   5.720   1.486   6.116
 1921TIP3    H1 5706   5.658   1.506   6.187
 1921TIP3    H2 5707   5.665   1.472   6.039
 1922TIP3   OH2 5708   7.292   7.062   0.591
 1922TIP3    H1 5709   7.360   7.043   0.656
 1922TIP3    H2 5710   7.334   7.122   0.530
 1923TIP3   OH2 5711   6.786   4.917   5.559
 1923TIP3    H1 5712   6.743   4.956   5.484
 1923TIP3    H2 5713   6.873   4.893   5.527
 1924TIP3   OH2 5714   5.534   1.535   6.346
 1924TIP3    H1 5715   5.459   1.578   6.306
 1924TIP3    H2 5716   5.594   1.606   6.370
 1925TIP3   OH2 5717   1.468   3.515   5.454
 1925TIP3    H1 5718   1.410   3.573   5.503
 1925TIP3    H2 5719   1.522   3.574   5.402
 1926TIP3   OH2 5720   0.883   2.294   6.205
 1926TIP3    H1 5721   0.958   2.343   6.237
 1926TIP3    H2 5722   0.809   2.330   6.254
 1927TIP3   OH2 5723   2.712   5.510   5.706
 1927TIP3    H1 5724   2.684   5.587   5.756
 1927TIP3    H2 5725   2.797   5.536   5.669
 1928TIP3   OH2 5726   5.673   1.677   4.800
 1928TIP3    H1 5727   5.630   1.743   4.855
 1928TIP3    H2 5728   5.726   1.626   4.862
 1929TIP3   OH2 5729   1.992   4.922   1.243
 1929TIP3    H1 5730   1.976   4.876   1.161
 1929TIP3    H2 5731   1.908   4.960   1.267
 1930TIP3   OH2 5732   0.374   4.858   6.656
 1930TIP3    H1 5733   0.373   4.890   6.566
 1930TIP3    H2 5734   0.286   4.875   6.689
 1931TIP3   OH2 5735   4.243   0.310   1.196
 1931TIP3    H1 5736   4.159   0.263   1.199
 1931TIP3    H2 5737   4.302   0.257   1.250
 1932TIP3   OH2 5738   1.890   3.634   2.097
 1932TIP3    H1 5739   1.823   3.592   2.151
 1932TIP3    H2 5740   1.970   3.584   2.115
 1933TIP3   OH2 5741   5.561   1.912   2.250
 1933TIP3    H1 5742   5.617   1.940   2.323
 1933TIP3    H2 5743   5.485   1.874   2.293
 1934TIP3   OH2 5744   7.140   6.144   1.750
 1934TIP3    H1 5745   7.162   6.150   1.843
 1934TIP3    H2 5746   7.053   6.182   1.743
 1935TIP3   OH2 5747   1.869   5.312   4.094
 1935TIP3    H1 5748   1.852   5.384   4.033
 1935TIP3    H2 5749   1.807   5.244   4.070
 1936TIP3   OH2 5750   5.566   7.769   6.109
 1936TIP3    H1 5751   5.607   7.851   6.081
 1936TIP3    H2 5752   5.563   7.775   6.204
 1937TIP3   OH2 5753   6.885   6.677   2.046
 1937TIP3    H1 5754   6.978   6.682   2.028
 1937TIP3    H2 5755   6.880   6.671   2.142
 1938TIP3   OH2 5756   5.697   4.422   0.770
 1938TIP3    H1 5757   5.792   4.424   0.782
 1938TIP3    H2 5758   5.662   4.435   0.858
 1939TIP3   OH2 5759   4.146   1.264   4.392
 1939TIP3    H1 5760   4.167   1.233   4.479
 1939TIP3    H2 5761   4.230   1.269   4.347
 1940TIP3   OH2 5762   8.268   3.595   4.185
 1940TIP3    H1 5763   8.339   3.649   4.149
 1940TIP3    H2 5764   8.234   3.646   4.258
 1941TIP3   OH2 5765   5.220   2.662   2.760
 1941TIP3    H1 5766   5.270   2.600   2.707
 1941TIP3    H2 5767   5.222   2.625   2.848
 1942TIP3   OH2 5768   2.273   6.439   2.814
 1942TIP3    H1 5769   2.321   6.388   2.749
 1942TIP3    H2 5770   2.281   6.530   2.785
 1943TIP3   OH2 5771   7.181   0.906   0.409
 1943TIP3    H1 5772   7.170   0.855   0.328
 1943TIP3    H2 5773   7.105   0.963   0.412
 1944TIP3   OH2 5774   1.013   0.916   4.414
 1944TIP3    H1 5775   0.939   0.862   4.387
 1944TIP3    H2 5776   1.071   0.855   4.460
 1945TIP3   OH2 5777   5.285   7.395   5.727
 1945TIP3    H1 5778   5.244   7.415   5.643
 1945TIP3    H2 5779   5.223   7.426   5.792
 1946TIP3   OH2 5780   6.533   4.189   0.105
 1946TIP3    H1 5781   6.596   4.146   0.162
 1946TIP3    H2 5782   6.581   4.263   0.067
 1947TIP3   OH2 5783   3.214   2.664   6.147
 1947TIP3    H1 5784   3.137   2.623   6.187
 1947TIP3    H2 5785   3.284   2.600   6.159
 1948TIP3   OH2 5786   0.426   0.075   3.389
 1948TIP3    H1 5787   0.439   0.117   3.304
 1948TIP3    H2 5788   0.464   0.136   3.452
 1949TIP3   OH2 5789   4.748   1.907   0.403
 1949TIP3    H1 5790   4.803   1.946   0.471
 1949TIP3    H2 5791   4.712   1.981   0.355
 1950TIP3   OH2 5792   1.045   6.920   2.010
 1950TIP3    H1 5793   1.124   6.871   2.031
 1950TIP3    H2 5794   1.002   6.868   1.942
 1951TIP3   OH2 5795   7.864   5.677   0.124
 1951TIP3    H1 5796   7.917   5.743   0.170
 1951TIP3    H2 5797   7.906   5.594   0.145
 1952TIP3   OH2 5798   5.347   4.299   5.942
 1952TIP3    H1 5799   5.301   4.350   6.009
 1952TIP3    H2 5800   5.425   4.266   5.987
 1953TIP3   OH2 5801   2.467   2.942   1.942
 1953TIP3    H1 5802   2.447   2.856   1.907
 1953TIP3    H2 5803   2.506   2.989   1.869
 1954TIP3   OH2 5804   0.578   4.174   3.313
 1954TIP3    H1 5805   0.501   4.230   3.310
 1954TIP3    H2 5806   0.649   4.233   3.339
 1955TIP3   OH2 5807   1.894   3.562   4.395
 1955TIP3    H1 5808   1.844   3.621   4.338
 1955TIP3    H2 5809   1.921   3.617   4.469
 1956TIP3   OH2 5810   6.729   1.456   3.810
 1956TIP3    H1 5811   6.726   1.412   3.724
 1956TIP3    H2 5812   6.801   1.519   3.801
 1957TIP3   OH2 5813   6.957   4.079   5.837
 1957TIP3    H1 5814   6.937   4.157   5.784
 1957TIP3    H2 5815   6.873   4.034   5.845
 1958TIP3   OH2 5816   4.047   0.870   3.658
 1958TIP3    H1 5817   3.963   0.846   3.620
 1958TIP3    H2 5818   4.033   0.956   3.698
 1959TIP3   OH2 5819   6.070   6.278   2.184
 1959TIP3    H1 5820   6.157   6.292   2.146
 1959TIP3    H2 5821   6.056   6.352   2.242
 1960TIP3   OH2 5822   5.207   6.464   3.989
 1960TIP3    H1 5823   5.223   6.370   3.992
 1960TIP3    H2 5824   5.132   6.474   3.930
 1961TIP3   OH2 5825   4.764   4.130   0.190
 1961TIP3    H1 5826   4.806   4.138   0.276
 1961TIP3    H2 5827   4.723   4.044   0.191
 1962TIP3   OH2 5828   0.369   2.185   1.501
 1962TIP3    H1 5829   0.373   2.248   1.429
 1962TIP3    H2 5830   0.369   2.238   1.580
 1963TIP3   OH2 5831   0.378   6.060   2.104
 1963TIP3    H1 5832   0.391   6.148   2.069
 1963TIP3    H2 5833   0.400   6.066   2.197
 1964TIP3   OH2 5834   2.776   1.049   4.025
 1964TIP3    H1 5835   2.763   1.051   4.120
 1964TIP3    H2 5836   2.688   1.056   3.989
 1965TIP3   OH2 5837   6.799   3.329   4.858
 1965TIP3    H1 5838   6.827   3.393   4.924
 1965TIP3    H2 5839   6.859   3.255   4.869
 1966TIP3   OH2 5840   5.642   7.212   5.830
 1966TIP3    H1 5841   5.717   7.270   5.821
 1966TIP3    H2 5842   5.645   7.157   5.752
 1967TIP3   OH2 5843   4.411   0.136   0.915
 1967TIP3    H1 5844   4.500   0.151   0.945
 1967TIP3    H2 5845   4.378   0.224   0.893
 1968TIP3   OH2 5846   0.250   1.618   2.175
 1968TIP3    H1 5847   0.299   1.547   2.134
 1968TIP3    H2 5848   0.295   1.633   2.258
 1969TIP3   OH2 5849   2.611   7.203   6.429
 1969TIP3    H1 5850   2.517   7.211   6.445
 1969TIP3    H2 5851   2.628   7.109   6.435
 1970TIP3   OH2 5852   7.697   2.762   4.678
 1970TIP3    H1 5853   7.659   2.826   4.738
 1970TIP3    H2 5854   7.713   2.685   4.733
 1971TIP3   OH2 5855   1.230   2.286   1.441
 1971TIP3    H1 5856   1.236   2.381   1.444
 1971TIP3    H2 5857   1.284   2.256   1.515
 1972TIP3   OH2 5858   0.591   7.294   5.602
 1972TIP3    H1 5859   0.500   7.273   5.619
 1972TIP3    H2 5860   0.616   7.354   5.672
 1973TIP3   OH2 5861   1.586   4.894   4.097
 1973TIP3    H1 5862   1.640   4.867   4.023
 1973TIP3    H2 5863   1.594   4.822   4.160
 1974TIP3   OH2 5864   2.594   4.233   3.724
 1974TIP3    H1 5865   2.564   4.226   3.814
 1974TIP3    H2 5866   2.571   4.322   3.697
 1975TIP3   OH2 5867   1.035   3.247   6.548
 1975TIP3    H1 5868   0.955   3.197   6.563
 1975TIP3    H2 5869   1.055   3.234   6.455
 1976TIP3   OH2 5870   5.009   0.983   3.530
 1976TIP3    H1 5871   5.096   0.957   3.498
 1976TIP3    H2 5872   5.021   0.993   3.624
 1977TIP3   OH2 5873   6.097   5.414   6.253
 1977TIP3    H1 5874   6.045   5.493   6.245
 1977TIP3    H2 5875   6.167   5.438   6.315
 1978TIP3   OH2 5876   3.287   6.824   6.646
 1978TIP3    H1 5877   3.293   6.920   6.639
 1978TIP3    H2 5878   3.201   6.808   6.685
 1979TIP3   OH2 5879   3.298   1.307   0.881
 1979TIP3    H1 5880   3.316   1.218   0.852
 1979TIP3    H2 5881   3.235   1.298   0.953
 1980TIP3   OH2 5882   4.955   0.579   3.147
 1980TIP3    H1 5883   4.934   0.527   3.225
 1980TIP3    H2 5884   4.990   0.516   3.085
 1981TIP3   OH2 5885   7.325   1.520   5.994
 1981TIP3    H1 5886   7.236   1.522   6.030
 1981TIP3    H2 5887   7.349   1.427   5.993
 1982TIP3   OH2 5888   8.029   0.246   3.701
 1982TIP3    H1 5889   7.962   0.183   3.677
 1982TIP3    H2 5890   8.054   0.286   3.618
 1983TIP3   OH2 5891   1.515   6.463   3.401
 1983TIP3    H1 5892   1.469   6.448   3.318
 1983TIP3    H2 5893   1.489   6.552   3.426
 1984TIP3   OH2 5894   4.585   6.292   3.438
 1984TIP3    H1 5895   4.643   6.229   3.394
 1984TIP3    H2 5896   4.632   6.375   3.432
 1985TIP3   OH2 5897   5.834   6.842   4.692
 1985TIP3    H1 5898   5.798   6.907   4.752
 1985TIP3    H2 5899   5.783   6.852   4.612
 1986TIP3   OH2 5900   7.897   5.761   3.248
 1986TIP3    H1 5901   7.848   5.680   3.259
 1986TIP3    H2 5902   7.942   5.774   3.331
 1987TIP3   OH2 5903   0.851   7.231   2.808
 1987TIP3    H1 5904   0.925   7.260   2.754
 1987TIP3    H2 5905   0.773   7.264   2.763
 1988TIP3   OH2 5906   3.876   5.577   1.615
 1988TIP3    H1 5907   3.932   5.514   1.660
 1988TIP3    H2 5908   3.861   5.538   1.529
 1989TIP3   OH2 5909   1.657   4.623   1.376
 1989TIP3    H1 5910   1.641   4.715   1.398
 1989TIP3    H2 5911   1.691   4.625   1.287
 1990TIP3   OH2 5912   0.725   6.152   2.807
 1990TIP3    H1 5913   0.747   6.241   2.779
 1990TIP3    H2 5914   0.630   6.151   2.814
 1991TIP3   OH2 5915   5.378   4.587   6.638
 1991TIP3    H1 5916   5.369   4.616   6.728
 1991TIP3    H2 5917   5.470   4.562   6.630
 1992TIP3   OH2 5918   4.167   4.205   2.358
 1992TIP3    H1 5919   4.162   4.270   2.288
 1992TIP3    H2 5920   4.142   4.122   2.316
 1993TIP3   OH2 5921   6.386   2.384   5.629
 1993TIP3    H1 5922   6.291   2.393   5.625
 1993TIP3    H2 5923   6.402   2.327   5.704
 1994TIP3   OH2 5924   1.892   3.419   0.137
 1994TIP3    H1 5925   1.864   3.478   0.067
 1994TIP3    H2 5926   1.962   3.468   0.181
 1995TIP3   OH2 5927   6.896   3.663   1.763
 1995TIP3    H1 5928   6.918   3.633   1.851
 1995TIP3    H2 5929   6.815   3.618   1.742
 1996TIP3   OH2 5930   7.602   2.844   3.203
 1996TIP3    H1 5931   7.600   2.751   3.180
 1996TIP3    H2 5932   7.510   2.869   3.211
 1997TIP3   OH2 5933   0.909   4.402   4.573
 1997TIP3    H1 5934   0.943   4.472   4.628
 1997TIP3    H2 5935   0.936   4.425   4.484
 1998TIP3   OH2 5936   1.911   5.476   4.687
 1998TIP3    H1 5937   1.834   5.519   4.725
 1998TIP3    H2 5938   1.956   5.546   4.639
 1999TIP3   OH2 5939   4.527   6.504   3.780
 1999TIP3    H1 5940   4.490   6.421   3.748
 1999TIP3    H2 5941   4.525   6.496   3.875
 2000TIP3   OH2 5942   3.068   4.440   4.526
 2000TIP3    H1 5943   3.106   4.446   4.439
 2000TIP3    H2 5944   2.996   4.378   4.517
 2001TIP3   OH2 5945   3.496   1.415   0.577
 2001TIP3    H1 5946   3.558   1.381   0.512
 2001TIP3    H2 5947   3.534   1.390   0.661
 2002TIP3   OH2 5948   5.245   1.486   0.979
 2002TIP3    H1 5949   5.306   1.555   0.955
 2002TIP3    H2 5950   5.229   1.499   1.073
 2003TIP3   OH2 5951   4.199   6.625   3.614
 2003TIP3    H1 5952   4.192   6.719   3.600
 2003TIP3    H2 5953   4.291   6.605   3.600
 2004TIP3   OH2 5954   1.407   3.959   3.026
 2004TIP3    H1 5955   1.448   3.884   3.071
 2004TIP3    H2 5956   1.337   3.920   2.974
 2005TIP3   OH2 5957   4.403   1.773   5.745
 2005TIP3    H1 5958   4.492   1.738   5.741
 2005TIP3    H2 5959   4.415   1.868   5.749
 2006TIP3   OH2 5960   6.635   1.947   6.367
 2006TIP3    H1 5961   6.648   1.909   6.280
 2006TIP3    H2 5962   6.546   1.982   6.365
 2007TIP3   OH2 5963   5.759   0.901   1.129
 2007TIP3    H1 5964   5.823   0.905   1.058
 2007TIP3    H2 5965   5.674   0.911   1.085
 2008TIP3   OH2 5966   5.883   5.859   4.919
 2008TIP3    H1 5967   5.840   5.869   5.004
 2008TIP3    H2 5968   5.877   5.946   4.880
 2009TIP3   OH2 5969   1.692   7.026   0.125
 2009TIP3    H1 5970   1.607   6.981   0.128
 2009TIP3    H2 5971   1.748   6.969   0.073
 2010TIP3   OH2 5972   2.750   0.339   3.906
 2010TIP3    H1 5973   2.763   0.434   3.906
 2010TIP3    H2 5974   2.763   0.314   3.814
 2011TIP3   OH2 5975   2.969   0.153   0.755
 2011TIP3    H1 5976   2.987   0.141   0.662
 2011TIP3    H2 5977   2.927   0.239   0.760
 2012TIP3   OH2 5978   5.219   0.507   4.836
 2012TIP3    H1 5979   5.314   0.514   4.844
 2012TIP3    H2 5980   5.192   0.587   4.791
 2013TIP3   OH2 5981   0.338   5.999   4.375
 2013TIP3    H1 5982   0.304   5.991   4.286
 2013TIP3    H2 5983   0.307   6.084   4.405
 2014TIP3   OH2 5984   3.773   6.982   2.298
 2014TIP3    H1 5985   3.679   6.983   2.318
 2014TIP3    H2 5986   3.801   7.073   2.309
 2015TIP3   OH2 5987   5.870   3.005   1.256
 2015TIP3    H1 5988   5.816   3.081   1.278
 2015TIP3    H2 5989   5.830   2.932   1.303
 2016TIP3   OH2 5990   0.316   2.190   4.526
 2016TIP3    H1 5991   0.312   2.143   4.609
 2016TIP3    H2 5992   0.229   2.180   4.488
 2017TIP3   OH2 5993   8.170   5.260   6.734
 2017TIP3    H1 5994   8.252   5.305   6.754
 2017TIP3    H2 5995   8.153   5.205   6.811
 2018TIP3   OH2 5996   5.165   0.725   1.668
 2018TIP3    H1 5997   5.229   0.714   1.598
 2018TIP3    H2 5998   5.181   0.813   1.702
 2019TIP3   OH2 5999   4.367   7.645   3.868
 2019TIP3    H1 6000   4.303   7.715   3.883
 2019TIP3    H2 6001   4.451   7.691   3.862
 2020TIP3   OH2 6002   4.322   7.449   1.832
 2020TIP3    H1 6003   4.323   7.541   1.805
 2020TIP3    H2 6004   4.377   7.446   1.910
 2021TIP3   OH2 6005   8.002   7.497   3.737
 2021TIP3    H1 6006   8.032   7.413   3.773
 2021TIP3    H2 6007   7.969   7.545   3.813
 2022TIP3   OH2 6008   2.777   0.965   1.916
 2022TIP3    H1 6009   2.760   0.961   2.010
 2022TIP3    H2 6010   2.863   1.006   1.908
 2023TIP3   OH2 6011   0.522   3.868   6.141
 2023TIP3    H1 6012   0.533   3.920   6.221
 2023TIP3    H2 6013   0.427   3.863   6.130
 2024TIP3   OH2 6014   4.771   4.987   0.129
 2024TIP3    H1 6015   4.704   4.977   0.198
 2024TIP3    H2 6016   4.766   5.079   0.104
 2025TIP3   OH2 6017   7.960   1.632   3.496
 2025TIP3    H1 6018   7.964   1.609   3.403
 2025TIP3    H2 6019   8.040   1.682   3.513
 2026TIP3   OH2 6020   1.968   3.008   2.682
 2026TIP3    H1 6021   1.962   3.001   2.586
 2026TIP3    H2 6022   1.889   2.963   2.713
 2027TIP3   OH2 6023   7.011   6.755   2.353
 2027TIP3    H1 6024   7.085   6.734   2.296
 2027TIP3    H2 6025   7.016   6.850   2.364
 2028TIP3   OH2 6026   2.191   3.039   4.496
 2028TIP3    H1 6027   2.106   3.082   4.496
 2028TIP3    H2 6028   2.203   3.008   4.407
 2029TIP3   OH2 6029   1.009   7.728   3.322
 2029TIP3    H1 6030   0.938   7.674   3.288
 2029TIP3    H2 6031   1.058   7.755   3.244
 2030TIP3   OH2 6032   4.331   4.434   0.594
 2030TIP3    H1 6033   4.341   4.462   0.503
 2030TIP3    H2 6034   4.312   4.515   0.642
 2031TIP3   OH2 6035   1.246   1.067   2.245
 2031TIP3    H1 6036   1.189   1.133   2.284
 2031TIP3    H2 6037   1.297   1.032   2.319
 2032TIP3   OH2 6038   5.905   0.806   3.694
 2032TIP3    H1 6039   5.886   0.742   3.762
 2032TIP3    H2 6040   5.987   0.847   3.722
 2033TIP3   OH2 6041   2.846   4.229   1.929
 2033TIP3    H1 6042   2.786   4.262   1.996
 2033TIP3    H2 6043   2.915   4.186   1.978
 2034TIP3   OH2 6044   1.461   1.631   1.995
 2034TIP3    H1 6045   1.549   1.636   2.031
 2034TIP3    H2 6046   1.446   1.537   1.981
 2035TIP3   OH2 6047   2.274   5.245   4.470
 2035TIP3    H1 6048   2.238   5.266   4.557
 2035TIP3    H2 6049   2.276   5.149   4.468
 2036TIP3   OH2 6050   7.132   2.751   3.146
 2036TIP3    H1 6051   7.210   2.742   3.201
 2036TIP3    H2 6052   7.059   2.759   3.208
 2037TIP3   OH2 6053   5.951   4.766   5.259
 2037TIP3    H1 6054   5.877   4.811   5.300
 2037TIP3    H2 6055   6.025   4.782   5.318
 2038TIP3   OH2 6056   4.301   1.013   1.357
 2038TIP3    H1 6057   4.312   1.001   1.263
 2038TIP3    H2 6058   4.269   0.929   1.389
 2039TIP3   OH2 6059   3.429   1.480   6.648
 2039TIP3    H1 6060   3.364   1.429   6.698
 2039TIP3    H2 6061   3.467   1.416   6.588
 2040TIP3   OH2 6062   2.555   0.353   6.413
 2040TIP3    H1 6063   2.512   0.301   6.346
 2040TIP3    H2 6064   2.603   0.290   6.466
 2041TIP3   OH2 6065   1.629   3.225   2.469
 2041TIP3    H1 6066   1.716   3.250   2.439
 2041TIP3    H2 6067   1.627   3.252   2.561
 2042TIP3   OH2 6068   4.055   6.355   0.497
 2042TIP3    H1 6069   4.142   6.371   0.461
 2042TIP3    H2 6070   4.068   6.285   0.561
 2043TIP3   OH2 6071   4.568   7.418   0.630
 2043TIP3    H1 6072   4.474   7.401   0.631
 2043TIP3    H2 6073   4.575   7.513   0.621
 2044TIP3   OH2 6074   0.637   2.170   6.585
 2044TIP3    H1 6075   0.608   2.088   6.544
 2044TIP3    H2 6076   0.574   2.185   6.656
 2045TIP3   OH2 6077   0.124   3.428   2.371
 2045TIP3    H1 6078   0.077   3.444   2.289
 2045TIP3    H2 6079   0.209   3.394   2.344
 2046TIP3   OH2 6080   0.190   6.514   4.791
 2046TIP3    H1 6081   0.143   6.482   4.714
 2046TIP3    H2 6082   0.207   6.436   4.843
 2047TIP3   OH2 6083   4.734   3.560   6.431
 2047TIP3    H1 6084   4.756   3.588   6.520
 2047TIP3    H2 6085   4.818   3.555   6.386
 2048TIP3   OH2 6086   3.435   4.852   2.798
 2048TIP3    H1 6087   3.388   4.915   2.853
 2048TIP3    H2 6088   3.526   4.858   2.829
 2049TIP3   OH2 6089   8.159   5.554   3.178
 2049TIP3    H1 6090   8.242   5.576   3.222
 2049TIP3    H2 6091   8.098   5.622   3.207
 2050TIP3   OH2 6092   0.247   4.535   6.293
 2050TIP3    H1 6093   0.333   4.550   6.334
 2050TIP3    H2 6094   0.268   4.518   6.201
 2051TIP3   OH2 6095   5.381   7.552   4.223
 2051TIP3    H1 6096   5.426   7.474   4.254
 2051TIP3    H2 6097   5.288   7.530   4.228
 2052TIP3   OH2 6098   0.904   5.503   6.284
 2052TIP3    H1 6099   0.904   5.588   6.327
 2052TIP3    H2 6100   0.959   5.515   6.207
 2053TIP3   OH2 6101   4.155   4.622   0.739
 2053TIP3    H1 6102   4.208   4.701   0.755
 2053TIP3    H2 6103   4.097   4.617   0.815
 2054TIP3   OH2 6104   3.649   5.021   1.115
 2054TIP3    H1 6105   3.724   5.015   1.056
 2054TIP3    H2 6106   3.577   5.050   1.060
 2055TIP3   OH2 6107   3.646   0.368   1.527
 2055TIP3    H1 6108   3.578   0.410   1.475
 2055TIP3    H2 6109   3.724   0.370   1.471
 2056TIP3   OH2 6110   2.168   4.984   6.086
 2056TIP3    H1 6111   2.201   4.909   6.037
 2056TIP3    H2 6112   2.085   4.954   6.124
 2057TIP3   OH2 6113   7.112   2.746   2.866
 2057TIP3    H1 6114   7.089   2.770   2.956
 2057TIP3    H2 6115   7.208   2.740   2.867
 2058TIP3   OH2 6116   3.423   5.327   3.556
 2058TIP3    H1 6117   3.411   5.321   3.461
 2058TIP3    H2 6118   3.388   5.244   3.590
 2059TIP3   OH2 6119   0.553   6.580   4.893
 2059TIP3    H1 6120   0.487   6.648   4.902
 2059TIP3    H2 6121   0.586   6.567   4.982
 2060TIP3   OH2 6122   5.213   2.485   2.988
 2060TIP3    H1 6123   5.275   2.420   3.020
 2060TIP3    H2 6124   5.232   2.564   3.038
 2061TIP3   OH2 6125   1.490   3.522   3.460
 2061TIP3    H1 6126   1.574   3.538   3.416
 2061TIP3    H2 6127   1.436   3.597   3.435
 2062TIP3   OH2 6128   7.107   3.848   0.195
 2062TIP3    H1 6129   7.117   3.916   0.128
 2062TIP3    H2 6130   7.061   3.777   0.150
 2063TIP3   OH2 6131   0.222   0.628   5.519
 2063TIP3    H1 6132   0.308   0.670   5.524
 2063TIP3    H2 6133   0.180   0.668   5.442
 2064TIP3   OH2 6134   6.507   1.614   4.215
 2064TIP3    H1 6135   6.543   1.683   4.272
 2064TIP3    H2 6136   6.425   1.588   4.258
 2065TIP3   OH2 6137   6.761   4.794   5.151
 2065TIP3    H1 6138   6.698   4.765   5.217
 2065TIP3    H2 6139   6.771   4.719   5.093
 2066TIP3   OH2 6140   0.707   0.588   2.827
 2066TIP3    H1 6141   0.788   0.548   2.797
 2066TIP3    H2 6142   0.663   0.520   2.877
 2067TIP3   OH2 6143   8.209   2.948   5.837
 2067TIP3    H1 6144   8.151   2.913   5.769
 2067TIP3    H2 6145   8.172   3.033   5.859
 2068TIP3   OH2 6146   4.371   3.075   0.436
 2068TIP3    H1 6147   4.386   3.165   0.465
 2068TIP3    H2 6148   4.278   3.072   0.415
 2069TIP3   OH2 6149   2.869   7.044   0.485
 2069TIP3    H1 6150   2.911   6.958   0.484
 2069TIP3    H2 6151   2.902   7.087   0.564
 2070TIP3   OH2 6152   1.526   5.184   3.238
 2070TIP3    H1 6153   1.563   5.258   3.190
 2070TIP3    H2 6154   1.559   5.194   3.327
 2071TIP3   OH2 6155   4.645   2.294   0.470
 2071TIP3    H1 6156   4.706   2.289   0.544
 2071TIP3    H2 6157   4.698   2.324   0.397
 2072TIP3   OH2 6158   7.653   6.296   4.824
 2072TIP3    H1 6159   7.563   6.272   4.846
 2072TIP3    H2 6160   7.678   6.358   4.893
 2073TIP3   OH2 6161   2.142   2.882   1.775
 2073TIP3    H1 6162   2.111   2.969   1.750
 2073TIP3    H2 6163   2.063   2.837   1.806
 2074TIP3   OH2 6164   0.677   5.969   5.980
 2074TIP3    H1 6165   0.721   5.918   6.048
 2074TIP3    H2 6166   0.745   5.987   5.915
 2075TIP3   OH2 6167   5.248   2.380   1.639
 2075TIP3    H1 6168   5.280   2.463   1.604
 2075TIP3    H2 6169   5.170   2.361   1.587
 2076TIP3   OH2 6170   1.083   3.527   0.417
 2076TIP3    H1 6171   1.166   3.532   0.466
 2076TIP3    H2 6172   1.075   3.613   0.376
 2077TIP3   OH2 6173   1.127   3.693   4.620
 2077TIP3    H1 6174   1.037   3.675   4.647
 2077TIP3    H2 6175   1.169   3.729   4.698
 2078TIP3   OH2 6176   3.214   1.599   1.738
 2078TIP3    H1 6177   3.283   1.662   1.718
 2078TIP3    H2 6178   3.223   1.532   1.671
 2079TIP3   OH2 6179   7.405   2.223   3.936
 2079TIP3    H1 6180   7.493   2.209   3.900
 2079TIP3    H2 6181   7.386   2.143   3.985
 2080TIP3   OH2 6182   5.850   1.117   5.623
 2080TIP3    H1 6183   5.821   1.026   5.620
 2080TIP3    H2 6184   5.938   1.113   5.661
 2081TIP3   OH2 6185   3.418   4.371   3.843
 2081TIP3    H1 6186   3.361   4.304   3.881
 2081TIP3    H2 6187   3.444   4.335   3.758
 2082TIP3   OH2 6188   7.862   0.093   6.653
 2082TIP3    H1 6189   7.850   0.002   6.682
 2082TIP3    H2 6190   7.907   0.135   6.726
 2083TIP3   OH2 6191   4.361   6.386   1.750
 2083TIP3    H1 6192   4.348   6.311   1.808
 2083TIP3    H2 6193   4.298   6.451   1.782
 2084TIP3   OH2 6194   6.371   4.825   3.253
 2084TIP3    H1 6195   6.444   4.797   3.309
 2084TIP3    H2 6196   6.386   4.782   3.169
 2085TIP3   OH2 6197   7.461   3.431   6.457
 2085TIP3    H1 6198   7.487   3.514   6.498
 2085TIP3    H2 6199   7.375   3.412   6.494
 2086TIP3   OH2 6200   3.202   4.074   5.558
 2086TIP3    H1 6201   3.293   4.047   5.547
 2086TIP3    H2 6202   3.151   4.005   5.515
 2087TIP3   OH2 6203   1.426   3.218   0.149
 2087TIP3    H1 6204   1.486   3.194   0.079
 2087TIP3    H2 6205   1.435   3.148   0.214
 2088TIP3   OH2 6206   8.154   3.439   4.437
 2088TIP3    H1 6207   8.109   3.436   4.352
 2088TIP3    H2 6208   8.115   3.514   4.482
 2089TIP3   OH2 6209   4.301   4.901   5.520
 2089TIP3    H1 6210   4.301   4.879   5.427
 2089TIP3    H2 6211   4.330   4.821   5.563
 2090TIP3   OH2 6212   2.538   1.663   2.724
 2090TIP3    H1 6213   2.554   1.693   2.814
 2090TIP3    H2 6214   2.513   1.743   2.677
 2091TIP3   OH2 6215   2.226   7.103   0.346
 2091TIP3    H1 6216   2.149   7.088   0.401
 2091TIP3    H2 6217   2.279   7.025   0.356
 2092TIP3   OH2 6218   3.473   4.305   1.475
 2092TIP3    H1 6219   3.382   4.310   1.446
 2092TIP3    H2 6220   3.482   4.218   1.514
 2093TIP3   OH2 6221   7.170   4.469   3.950
 2093TIP3    H1 6222   7.210   4.394   3.907
 2093TIP3    H2 6223   7.116   4.431   4.019
 2094TIP3   OH2 6224   0.365   6.211   5.324
 2094TIP3    H1 6225   0.351   6.265   5.246
 2094TIP3    H2 6226   0.349   6.270   5.397
 2095TIP3   OH2 6227   0.121   6.270   1.039
 2095TIP3    H1 6228   0.048   6.208   1.044
 2095TIP3    H2 6229   0.100   6.326   0.964
 2096TIP3   OH2 6230   6.016   0.702   2.705
 2096TIP3    H1 6231   6.058   0.687   2.790
 2096TIP3    H2 6232   6.089   0.705   2.643
 2097TIP3   OH2 6233   4.150   2.088   0.972
 2097TIP3    H1 6234   4.104   2.148   1.030
 2097TIP3    H2 6235   4.160   2.136   0.890
 2098TIP3   OH2 6236   0.687   6.245   5.419
 2098TIP3    H1 6237   0.645   6.215   5.339
 2098TIP3    H2 6238   0.676   6.340   5.419
 2099TIP3   OH2 6239   3.225   0.491   1.239
 2099TIP3    H1 6240   3.148   0.467   1.291
 2099TIP3    H2 6241   3.211   0.449   1.155
 2100TIP3   OH2 6242   4.869   0.872   5.712
 2100TIP3    H1 6243   4.809   0.862   5.786
 2100TIP3    H2 6244   4.896   0.782   5.691
 2101TIP3   OH2 6245   1.951   3.335   4.965
 2101TIP3    H1 6246   1.929   3.261   5.021
 2101TIP3    H2 6247   2.029   3.374   5.004
 2102TIP3   OH2 6248   4.111   2.824   4.397
 2102TIP3    H1 6249   4.083   2.736   4.372
 2102TIP3    H2 6250   4.173   2.850   4.329
 2103TIP3   OH2 6251   3.952   1.115   3.757
 2103TIP3    H1 6252   3.912   1.202   3.755
 2103TIP3    H2 6253   3.996   1.110   3.842
 2104TIP3   OH2 6254   0.910   2.624   5.333
 2104TIP3    H1 6255   0.852   2.552   5.359
 2104TIP3    H2 6256   0.878   2.650   5.247
 2105TIP3   OH2 6257  -0.063   4.002   1.068
 2105TIP3    H1 6258  -0.033   4.090   1.044
 2105TIP3    H2 6259  -0.097   3.965   0.986
 2106TIP3   OH2 6260   7.176   7.430   0.208
 2106TIP3    H1 6261   7.246   7.372   0.237
 2106TIP3    H2 6262   7.188   7.510   0.259
 2107TIP3   OH2 6263   0.153   4.061   4.190
 2107TIP3    H1 6264   0.135   4.129   4.254
 2107TIP3    H2 6265   0.218   4.100   4.131
 2108TIP3   OH2 6266   4.823   1.560   1.517
 2108TIP3    H1 6267   4.823   1.502   1.440
 2108TIP3    H2 6268   4.764   1.517   1.579
 2109TIP3   OH2 6269   4.730   0.930   0.733
 2109TIP3    H1 6270   4.767   0.971   0.655
 2109TIP3    H2 6271   4.802   0.929   0.796
 2110TIP3   OH2 6272   6.221   4.590   3.911
 2110TIP3    H1 6273   6.143   4.643   3.931
 2110TIP3    H2 6274   6.294   4.640   3.948
 2111TIP3   OH2 6275   2.583   6.017   5.610
 2111TIP3    H1 6276   2.600   6.111   5.601
 2111TIP3    H2 6277   2.488   6.009   5.597
 2112TIP3   OH2 6278   1.899   1.757   5.938
 2112TIP3    H1 6279   1.957   1.750   5.862
 2112TIP3    H2 6280   1.958   1.748   6.013
 2113TIP3   OH2 6281   5.393   7.050   1.341
 2113TIP3    H1 6282   5.339   7.123   1.311
 2113TIP3    H2 6283   5.410   7.070   1.433
 2114TIP3   OH2 6284   5.320   6.685   3.761
 2114TIP3    H1 6285   5.359   6.617   3.815
 2114TIP3    H2 6286   5.254   6.639   3.709
 2115TIP3   OH2 6287   6.505   1.494   2.909
 2115TIP3    H1 6288   6.438   1.433   2.877
 2115TIP3    H2 6289   6.459   1.577   2.917
 2116TIP3   OH2 6290   6.006   6.433   1.811
 2116TIP3    H1 6291   5.932   6.414   1.869
 2116TIP3    H2 6292   6.057   6.498   1.858
 2117TIP3   OH2 6293   0.585   0.077   5.239
 2117TIP3    H1 6294   0.536  -0.006   5.242
 2117TIP3    H2 6295   0.559   0.118   5.157
 2118TIP3   OH2 6296   4.000   2.328   1.063
 2118TIP3    H1 6297   4.032   2.397   1.121
 2118TIP3    H2 6298   3.948   2.375   0.997
 2119TIP3   OH2 6299   2.121   1.747   5.762
 2119TIP3    H1 6300   2.101   1.655   5.743
 2119TIP3    H2 6301   2.112   1.792   5.678
 2120TIP3   OH2 6302   2.568   4.087   6.359
 2120TIP3    H1 6303   2.553   4.120   6.448
 2120TIP3    H2 6304   2.483   4.056   6.329
 2121TIP3   OH2 6305   7.967   6.735   4.342
 2121TIP3    H1 6306   7.921   6.689   4.412
 2121TIP3    H2 6307   7.919   6.817   4.332
 2122TIP3   OH2 6308   1.732   7.084   3.122
 2122TIP3    H1 6309   1.755   7.101   3.030
 2122TIP3    H2 6310   1.764   6.996   3.139
 2123TIP3   OH2 6311   4.099   3.102   0.471
 2123TIP3    H1 6312   4.104   3.120   0.565
 2123TIP3    H2 6313   4.090   3.007   0.465
 2124TIP3   OH2 6314   6.192   5.202   4.798
 2124TIP3    H1 6315   6.188   5.107   4.810
 2124TIP3    H2 6316   6.162   5.238   4.882
 2125TIP3   OH2 6317   5.255   3.117   2.114
 2125TIP3    H1 6318   5.295   3.103   2.199
 2125TIP3    H2 6319   5.203   3.038   2.098
 2126TIP3   OH2 6320   7.348   2.261   4.747
 2126TIP3    H1 6321   7.256   2.254   4.770
 2126TIP3    H2 6322   7.353   2.337   4.689
 2127TIP3   OH2 6323   6.434   5.180   0.921
 2127TIP3    H1 6324   6.366   5.116   0.899
 2127TIP3    H2 6325   6.425   5.193   1.015
 2128TIP3   OH2 6326   5.650   2.231   2.732
 2128TIP3    H1 6327   5.737   2.235   2.692
 2128TIP3    H2 6328   5.590   2.229   2.657
 2129TIP3   OH2 6329   6.461   3.346   4.213
 2129TIP3    H1 6330   6.532   3.283   4.226
 2129TIP3    H2 6331   6.494   3.404   4.144
 2130TIP3   OH2 6332   5.368   1.947   2.654
 2130TIP3    H1 6333   5.309   1.872   2.648
 2130TIP3    H2 6334   5.334   2.010   2.590
 2131TIP3   OH2 6335   6.805   5.966   2.808
 2131TIP3    H1 6336   6.784   6.058   2.792
 2131TIP3    H2 6337   6.838   5.934   2.724
 2132TIP3   OH2 6338   3.640   0.213   0.655
 2132TIP3    H1 6339   3.593   0.170   0.584
 2132TIP3    H2 6340   3.627   0.307   0.639
 2133TIP3   OH2 6341   7.426   0.889   6.292
 2133TIP3    H1 6342   7.451   0.892   6.384
 2133TIP3    H2 6343   7.354   0.952   6.284
 2134TIP3   OH2 6344   4.437   5.118   1.151
 2134TIP3    H1 6345   4.345   5.127   1.176
 2134TIP3    H2 6346   4.484   5.179   1.208
 2135TIP3   OH2 6347   2.566   2.174   5.850
 2135TIP3    H1 6348   2.500   2.234   5.816
 2135TIP3    H2 6349   2.573   2.105   5.784
 2136TIP3   OH2 6350   3.115   4.785   2.902
 2136TIP3    H1 6351   3.120   4.831   2.818
 2136TIP3    H2 6352   3.206   4.770   2.927
 2137TIP3   OH2 6353   6.588   2.244   0.251
 2137TIP3    H1 6354   6.607   2.255   0.158
 2137TIP3    H2 6355   6.668   2.275   0.296
 2138TIP3   OH2 6356   4.200   0.759   1.457
 2138TIP3    H1 6357   4.164   0.676   1.425
 2138TIP3    H2 6358   4.284   0.736   1.497
 2139TIP3   OH2 6359   7.220   0.748   5.864
 2139TIP3    H1 6360   7.285   0.695   5.818
 2139TIP3    H2 6361   7.259   0.766   5.949
 2140TIP3   OH2 6362   6.248   3.627   0.563
 2140TIP3    H1 6363   6.241   3.547   0.616
 2140TIP3    H2 6364   6.190   3.611   0.489
 2141TIP3   OH2 6365   1.238   6.972   3.092
 2141TIP3    H1 6366   1.148   6.976   3.060
 2141TIP3    H2 6367   1.273   6.891   3.055
 2142TIP3   OH2 6368   5.673   6.286   0.364
 2142TIP3    H1 6369   5.683   6.339   0.284
 2142TIP3    H2 6370   5.680   6.196   0.334
 2143TIP3   OH2 6371   3.530   2.885   6.558
 2143TIP3    H1 6372   3.542   2.832   6.479
 2143TIP3    H2 6373   3.511   2.822   6.627
 2144TIP3   OH2 6374   4.807   0.211   1.525
 2144TIP3    H1 6375   4.852   0.273   1.468
 2144TIP3    H2 6376   4.858   0.130   1.516
 2145TIP3   OH2 6377   6.788   2.262   4.630
 2145TIP3    H1 6378   6.825   2.211   4.702
 2145TIP3    H2 6379   6.838   2.344   4.630
 2146TIP3   OH2 6380   2.683   6.858   1.683
 2146TIP3    H1 6381   2.656   6.817   1.601
 2146TIP3    H2 6382   2.655   6.949   1.675
 2147TIP3   OH2 6383   5.620   0.172   3.453
 2147TIP3    H1 6384   5.612   0.076   3.452
 2147TIP3    H2 6385   5.573   0.200   3.531
 2148TIP3   OH2 6386   2.799   6.216   6.005
 2148TIP3    H1 6387   2.749   6.265   6.070
 2148TIP3    H2 6388   2.859   6.280   5.967
 2149TIP3   OH2 6389   2.708   0.489   4.189
 2149TIP3    H1 6390   2.715   0.582   4.170
 2149TIP3    H2 6391   2.618   0.476   4.216
 2150TIP3   OH2 6392   3.934   1.796   5.763
 2150TIP3    H1 6393   3.949   1.702   5.775
 2150TIP3    H2 6394   4.006   1.825   5.708
 2151TIP3   OH2 6395   6.570   0.572   5.280
 2151TIP3    H1 6396   6.548   0.654   5.236
 2151TIP3    H2 6397   6.661   0.555   5.254
 2152TIP3   OH2 6398   0.078   6.470   1.451
 2152TIP3    H1 6399   0.105   6.561   1.455
 2152TIP3    H2 6400  -0.017   6.473   1.438
 2153TIP3   OH2 6401   4.554   3.747   2.506
 2153TIP3    H1 6402   4.502   3.820   2.541
 2153TIP3    H2 6403   4.489   3.685   2.476
 2154TIP3   OH2 6404   6.366   0.210   2.005
 2154TIP3    H1 6405   6.333   0.279   1.946
 2154TIP3    H2 6406   6.459   0.204   1.985
 2155TIP3   OH2 6407   7.935   2.966   3.634
 2155TIP3    H1 6408   7.863   2.915   3.595
 2155TIP3    H2 6409   7.958   3.030   3.566
 2156TIP3   OH2 6410   2.661   5.392   2.754
 2156TIP3    H1 6411   2.729   5.330   2.728
 2156TIP3    H2 6412   2.618   5.416   2.672
 2157TIP3   OH2 6413   0.803   2.486   2.128
 2157TIP3    H1 6414   0.829   2.574   2.152
 2157TIP3    H2 6415   0.740   2.460   2.196
 2158TIP3   OH2 6416   7.066   1.521   3.708
 2158TIP3    H1 6417   7.104   1.562   3.631
 2158TIP3    H2 6418   7.015   1.591   3.750
 2159TIP3   OH2 6419   5.998   5.780   0.294
 2159TIP3    H1 6420   6.000   5.872   0.269
 2159TIP3    H2 6421   6.078   5.743   0.258
 2160TIP3   OH2 6422   4.296   2.803   4.177
 2160TIP3    H1 6423   4.321   2.712   4.194
 2160TIP3    H2 6424   4.365   2.836   4.118
 2161TIP3   OH2 6425   5.310   5.765   6.028
 2161TIP3    H1 6426   5.219   5.790   6.016
 2161TIP3    H2 6427   5.305   5.675   6.061
 2162TIP3   OH2 6428   3.094   3.321   1.549
 2162TIP3    H1 6429   3.162   3.260   1.520
 2162TIP3    H2 6430   3.133   3.369   1.621
 2163TIP3   OH2 6431   1.390   0.961   2.801
 2163TIP3    H1 6432   1.321   0.991   2.861
 2163TIP3    H2 6433   1.458   0.927   2.859
 2164TIP3   OH2 6434   8.033   1.446   4.837
 2164TIP3    H1 6435   7.954   1.494   4.861
 2164TIP3    H2 6436   8.063   1.486   4.755
 2165TIP3   OH2 6437   3.473   2.063   5.027
 2165TIP3    H1 6438   3.427   2.014   4.958
 2165TIP3    H2 6439   3.409   2.128   5.057
 2166TIP3   OH2 6440   5.048   5.759   2.409
 2166TIP3    H1 6441   5.119   5.791   2.465
 2166TIP3    H2 6442   5.061   5.665   2.403
 2167TIP3   OH2 6443   6.041   3.213   5.315
 2167TIP3    H1 6444   6.062   3.139   5.372
 2167TIP3    H2 6445   6.046   3.177   5.226
 2168TIP3   OH2 6446   4.814   0.679   4.879
 2168TIP3    H1 6447   4.821   0.746   4.946
 2168TIP3    H2 6448   4.887   0.697   4.819
 2169TIP3   OH2 6449   0.445   6.673   3.159
 2169TIP3    H1 6450   0.399   6.720   3.090
 2169TIP3    H2 6451   0.390   6.597   3.177
 2170TIP3   OH2 6452   6.980   0.954   3.450
 2170TIP3    H1 6453   6.999   0.969   3.543
 2170TIP3    H2 6454   7.035   1.017   3.404
 2171TIP3   OH2 6455   5.628   1.140   1.844
 2171TIP3    H1 6456   5.714   1.105   1.865
 2171TIP3    H2 6457   5.595   1.084   1.774
 2172TIP3   OH2 6458   1.170   4.462   0.402
 2172TIP3    H1 6459   1.102   4.395   0.404
 2172TIP3    H2 6460   1.168   4.495   0.312
 2173TIP3   OH2 6461   5.546   4.844   2.618
 2173TIP3    H1 6462   5.453   4.828   2.598
 2173TIP3    H2 6463   5.551   4.937   2.636
 2174TIP3   OH2 6464   2.610   0.610   2.936
 2174TIP3    H1 6465   2.626   0.553   2.861
 2174TIP3    H2 6466   2.514   0.614   2.943
 2175TIP3   OH2 6467   3.611   5.235   4.910
 2175TIP3    H1 6468   3.705   5.244   4.923
 2175TIP3    H2 6469   3.573   5.300   4.970
 2176TIP3   OH2 6470   6.304   1.210   0.429
 2176TIP3    H1 6471   6.221   1.174   0.397
 2176TIP3    H2 6472   6.367   1.191   0.360
 2177TIP3   OH2 6473   2.802   3.552   5.869
 2177TIP3    H1 6474   2.757   3.598   5.941
 2177TIP3    H2 6475   2.789   3.459   5.889
 2178TIP3   OH2 6476   5.784   4.618   0.150
 2178TIP3    H1 6477   5.756   4.529   0.170
 2178TIP3    H2 6478   5.727   4.646   0.079
 2179TIP3   OH2 6479   5.959   5.005   2.141
 2179TIP3    H1 6480   6.002   4.996   2.056
 2179TIP3    H2 6481   6.030   5.022   2.202
 2180TIP3   OH2 6482   1.123   6.930   6.112
 2180TIP3    H1 6483   1.139   7.024   6.107
 2180TIP3    H2 6484   1.090   6.917   6.201
 2181TIP3   OH2 6485   4.637   0.206   3.884
 2181TIP3    H1 6486   4.604   0.294   3.871
 2181TIP3    H2 6487   4.722   0.204   3.839
 2182TIP3   OH2 6488   0.326   7.548   0.884
 2182TIP3    H1 6489   0.286   7.607   0.819
 2182TIP3    H2 6490   0.416   7.579   0.893
 2183TIP3   OH2 6491   3.117   4.923   1.902
 2183TIP3    H1 6492   3.104   4.965   1.817
 2183TIP3    H2 6493   3.137   4.832   1.881
 2184TIP3   OH2 6494   1.559   3.354   5.152
 2184TIP3    H1 6495   1.587   3.438   5.117
 2184TIP3    H2 6496   1.562   3.366   5.247
 2185TIP3   OH2 6497   1.500   5.618   5.139
 2185TIP3    H1 6498   1.545   5.534   5.150
 2185TIP3    H2 6499   1.417   5.595   5.097
 2186TIP3   OH2 6500   6.873   5.986   3.868
 2186TIP3    H1 6501   6.950   5.951   3.823
 2186TIP3    H2 6502   6.802   5.982   3.804
 2187TIP3   OH2 6503   0.546   5.891   3.412
 2187TIP3    H1 6504   0.552   5.963   3.475
 2187TIP3    H2 6505   0.635   5.879   3.380
 2188TIP3   OH2 6506   4.913   4.050   6.133
 2188TIP3    H1 6507   5.007   4.034   6.135
 2188TIP3    H2 6508   4.887   4.026   6.044
 2189TIP3   OH2 6509   1.274   7.188   3.281
 2189TIP3    H1 6510   1.193   7.213   3.236
 2189TIP3    H2 6511   1.305   7.111   3.234
 2190TIP3   OH2 6512   2.064   7.410   3.921
 2190TIP3    H1 6513   1.981   7.450   3.897
 2190TIP3    H2 6514   2.042   7.319   3.940
 2191TIP3   OH2 6515   8.113   0.092   0.652
 2191TIP3    H1 6516   8.138   0.148   0.579
 2191TIP3    H2 6517   8.154   0.008   0.634
 2192TIP3   OH2 6518   0.634   0.056   4.762
 2192TIP3    H1 6519   0.545   0.049   4.726
 2192TIP3    H2 6520   0.621   0.057   4.856
 2193TIP3   OH2 6521   0.719   0.964   1.482
 2193TIP3    H1 6522   0.799   0.930   1.523
 2193TIP3    H2 6523   0.748   0.999   1.398
 2194TIP3   OH2 6524   3.270   6.302   4.561
 2194TIP3    H1 6525   3.327   6.228   4.542
 2194TIP3    H2 6526   3.304   6.374   4.507
 2195TIP3   OH2 6527   2.719   7.459   3.393
 2195TIP3    H1 6528   2.766   7.376   3.389
 2195TIP3    H2 6529   2.646   7.443   3.452
 2196TIP3   OH2 6530   7.543   6.746   0.458
 2196TIP3    H1 6531   7.581   6.790   0.382
 2196TIP3    H2 6532   7.604   6.763   0.529
 2197TIP3   OH2 6533   1.423   7.466   5.308
 2197TIP3    H1 6534   1.376   7.548   5.298
 2197TIP3    H2 6535   1.371   7.416   5.371
 2198TIP3   OH2 6536   6.289   5.968   6.660
 2198TIP3    H1 6537   6.382   5.981   6.640
 2198TIP3    H2 6538   6.254   5.921   6.584
 2199TIP3   OH2 6539   1.427   1.129   0.749
 2199TIP3    H1 6540   1.490   1.091   0.688
 2199TIP3    H2 6541   1.351   1.149   0.696
 2200TIP3   OH2 6542   4.920   2.280   3.485
 2200TIP3    H1 6543   4.849   2.216   3.490
 2200TIP3    H2 6544   4.948   2.290   3.576
 2201TIP3   OH2 6545   6.617   6.055   2.477
 2201TIP3    H1 6546   6.531   6.082   2.444
 2201TIP3    H2 6547   6.677   6.122   2.446
 2202TIP3   OH2 6548   6.269   3.874   0.396
 2202TIP3    H1 6549   6.301   3.799   0.445
 2202TIP3    H2 6550   6.262   3.945   0.460
 2203TIP3   OH2 6551   4.572   2.993   4.991
 2203TIP3    H1 6552   4.543   3.066   4.937
 2203TIP3    H2 6553   4.491   2.952   5.021
 2204TIP3   OH2 6554   4.560   6.872   4.396
 2204TIP3    H1 6555   4.500   6.946   4.394
 2204TIP3    H2 6556   4.631   6.899   4.455
 2205TIP3   OH2 6557   2.634   1.750   5.648
 2205TIP3    H1 6558   2.633   1.714   5.737
 2205TIP3    H2 6559   2.623   1.844   5.660
 2206TIP3   OH2 6560   5.461   3.278   2.667
 2206TIP3    H1 6561   5.371   3.247   2.676
 2206TIP3    H2 6562   5.497   3.269   2.755
 2207TIP3   OH2 6563   4.931   6.484   6.433
 2207TIP3    H1 6564   4.917   6.538   6.355
 2207TIP3    H2 6565   4.901   6.538   6.506
 2208TIP3   OH2 6566   0.336   4.329   1.982
 2208TIP3    H1 6567   0.262   4.356   2.037
 2208TIP3    H2 6568   0.322   4.376   1.900
 2209TIP3   OH2 6569   3.612   5.906   4.121
 2209TIP3    H1 6570   3.548   5.839   4.095
 2209TIP3    H2 6571   3.644   5.876   4.206
 2210TIP3   OH2 6572   1.122   6.355   1.360
 2210TIP3    H1 6573   1.126   6.355   1.456
 2210TIP3    H2 6574   1.093   6.267   1.337
 2211TIP3   OH2 6575   3.819   3.657   4.238
 2211TIP3    H1 6576   3.902   3.624   4.273
 2211TIP3    H2 6577   3.763   3.580   4.233
 2212TIP3   OH2 6578   5.538   1.936   6.482
 2212TIP3    H1 6579   5.558   1.994   6.555
 2212TIP3    H2 6580   5.478   1.986   6.426
 2213TIP3   OH2 6581   0.604   7.276   0.891
 2213TIP3    H1 6582   0.661   7.201   0.907
 2213TIP3    H2 6583   0.556   7.254   0.811
 2214TIP3   OH2 6584   0.167   5.734   6.045
 2214TIP3    H1 6585   0.111   5.797   6.092
 2214TIP3    H2 6586   0.113   5.655   6.039
 2215TIP3   OH2 6587   7.739   6.344   5.273
 2215TIP3    H1 6588   7.678   6.412   5.303
 2215TIP3    H2 6589   7.823   6.389   5.268
 2216TIP3   OH2 6590   1.980   4.271   6.672
 2216TIP3    H1 6591   1.921   4.323   6.617
 2216TIP3    H2 6592   2.020   4.335   6.731
 2217TIP3   OH2 6593   7.251   6.339   1.572
 2217TIP3    H1 6594   7.183   6.325   1.507
 2217TIP3    H2 6595   7.244   6.265   1.632
 2218TIP3   OH2 6596   3.491   1.024   5.528
 2218TIP3    H1 6597   3.570   1.046   5.477
 2218TIP3    H2 6598   3.457   1.109   5.556
 2219TIP3   OH2 6599   0.569   4.787   5.192
 2219TIP3    H1 6600   0.525   4.872   5.197
 2219TIP3    H2 6601   0.597   4.780   5.100
 2220TIP3   OH2 6602   8.298   6.066   6.760
 2220TIP3    H1 6603   8.264   6.134   6.818
 2220TIP3    H2 6604   8.235   6.064   6.687
 2221TIP3   OH2 6605   4.327   1.546   1.080
 2221TIP3    H1 6606   4.264   1.569   1.148
 2221TIP3    H2 6607   4.307   1.454   1.060
 2222TIP3   OH2 6608   6.976   0.162   6.527
 2222TIP3    H1 6609   7.061   0.159   6.483
 2222TIP3    H2 6610   6.925   0.092   6.487
 2223TIP3   OH2 6611   3.729   5.932   2.226
 2223TIP3    H1 6612   3.657   5.879   2.259
 2223TIP3    H2 6613   3.746   5.897   2.138
 2224TIP3   OH2 6614   4.525   4.056   6.024
 2224TIP3    H1 6615   4.436   4.032   6.000
 2224TIP3    H2 6616   4.518   4.088   6.114
 2225TIP3   OH2 6617   5.895   5.408   0.389
 2225TIP3    H1 6618   5.830   5.468   0.350
 2225TIP3    H2 6619   5.842   5.343   0.436
 2226TIP3   OH2 6620   3.131   2.340   6.003
 2226TIP3    H1 6621   3.154   2.352   5.911
 2226TIP3    H2 6622   3.192   2.273   6.034
 2227TIP3   OH2 6623   5.906   2.080   4.814
 2227TIP3    H1 6624   5.989   2.075   4.861
 2227TIP3    H2 6625   5.893   1.992   4.779
 2228TIP3   OH2 6626   5.739   3.279   3.050
 2228TIP3    H1 6627   5.657   3.291   3.003
 2228TIP3    H2 6628   5.712   3.262   3.141
 2229TIP3   OH2 6629   8.081   2.278   1.178
 2229TIP3    H1 6630   8.137   2.355   1.175
 2229TIP3    H2 6631   8.108   2.225   1.103
 2230TIP3   OH2 6632   4.817   1.018   2.365
 2230TIP3    H1 6633   4.879   0.945   2.360
 2230TIP3    H2 6634   4.829   1.064   2.281
 2231TIP3   OH2 6635   2.674   7.708   1.137
 2231TIP3    H1 6636   2.627   7.771   1.083
 2231TIP3    H2 6637   2.664   7.625   1.090
 2232TIP3   OH2 6638   4.133   1.188   3.957
 2232TIP3    H1 6639   4.095   1.174   4.044
 2232TIP3    H2 6640   4.227   1.179   3.970
 2233TIP3   OH2 6641   6.832   3.229   1.017
 2233TIP3    H1 6642   6.916   3.211   1.059
 2233TIP3    H2 6643   6.795   3.301   1.068
 2234TIP3   OH2 6644   4.689   2.011   2.830
 2234TIP3    H1 6645   4.594   2.004   2.827
 2234TIP3    H2 6646   4.716   2.012   2.738
 2235TIP3   OH2 6647   6.657   0.410   1.373
 2235TIP3    H1 6648   6.725   0.381   1.312
 2235TIP3    H2 6649   6.705   0.454   1.443
 2236TIP3   OH2 6650   5.707   6.949   0.466
 2236TIP3    H1 6651   5.647   6.874   0.464
 2236TIP3    H2 6652   5.773   6.929   0.400
 2237TIP3   OH2 6653   6.347   5.653   1.398
 2237TIP3    H1 6654   6.436   5.680   1.375
 2237TIP3    H2 6655   6.353   5.622   1.488
 2238TIP3   OH2 6656   7.335   6.833   5.359
 2238TIP3    H1 6657   7.376   6.905   5.309
 2238TIP3    H2 6658   7.265   6.875   5.408
 2239TIP3   OH2 6659   2.315   6.513   3.866
 2239TIP3    H1 6660   2.312   6.589   3.924
 2239TIP3    H2 6661   2.409   6.501   3.847
 2240TIP3   OH2 6662   1.130   3.056   1.256
 2240TIP3    H1 6663   1.179   3.005   1.191
 2240TIP3    H2 6664   1.170   3.143   1.254
 2241TIP3   OH2 6665   1.808   7.747   3.891
 2241TIP3    H1 6666   1.805   7.745   3.795
 2241TIP3    H2 6667   1.806   7.841   3.912
 2242TIP3   OH2 6668   2.342   5.981   3.696
 2242TIP3    H1 6669   2.328   6.050   3.630
 2242TIP3    H2 6670   2.410   6.016   3.753
 2243TIP3   OH2 6671   6.567   7.437   1.844
 2243TIP3    H1 6672   6.537   7.473   1.760
 2243TIP3    H2 6673   6.488   7.400   1.883
 2244TIP3   OH2 6674   4.706   7.215   5.944
 2244TIP3    H1 6675   4.617   7.247   5.957
 2244TIP3    H2 6676   4.710   7.192   5.851
 2245TIP3   OH2 6677   1.511   5.885   4.223
 2245TIP3    H1 6678   1.559   5.870   4.305
 2245TIP3    H2 6679   1.531   5.809   4.169
 2246TIP3   OH2 6680   2.915   7.151   3.010
 2246TIP3    H1 6681   2.880   7.110   3.089
 2246TIP3    H2 6682   3.009   7.133   3.012
 2247TIP3   OH2 6683   3.729   1.669   4.719
 2247TIP3    H1 6684   3.722   1.611   4.643
 2247TIP3    H2 6685   3.670   1.631   4.784
 2248TIP3   OH2 6686   6.326   6.400   3.755
 2248TIP3    H1 6687   6.324   6.423   3.848
 2248TIP3    H2 6688   6.405   6.442   3.721
 2249TIP3   OH2 6689   5.737   0.405   6.199
 2249TIP3    H1 6690   5.721   0.318   6.164
 2249TIP3    H2 6691   5.805   0.392   6.266
 2250TIP3   OH2 6692   7.980   3.363   4.120
 2250TIP3    H1 6693   7.940   3.437   4.165
 2250TIP3    H2 6694   7.913   3.294   4.124
 2251TIP3   OH2 6695   0.270   6.477   1.807
 2251TIP3    H1 6696   0.244   6.428   1.729
 2251TIP3    H2 6697   0.254   6.569   1.783
 2252TIP3   OH2 6698   4.706   0.689   3.128
 2252TIP3    H1 6699   4.790   0.643   3.130
 2252TIP3    H2 6700   4.690   0.706   3.035
 2253TIP3   OH2 6701   7.219   4.318   2.139
 2253TIP3    H1 6702   7.186   4.244   2.087
 2253TIP3    H2 6703   7.310   4.295   2.157
 2254TIP3   OH2 6704   1.763   2.016   5.885
 2254TIP3    H1 6705   1.808   2.042   5.965
 2254TIP3    H2 6706   1.815   1.943   5.851
 2255TIP3   OH2 6707   0.197   5.505   0.787
 2255TIP3    H1 6708   0.272   5.564   0.791
 2255TIP3    H2 6709   0.224   5.436   0.726
 2256TIP3   OH2 6710   0.212   5.119   4.977
 2256TIP3    H1 6711   0.306   5.116   4.965
 2256TIP3    H2 6712   0.201   5.153   5.066
 2257TIP3   OH2 6713   7.280   2.372   0.587
 2257TIP3    H1 6714   7.267   2.285   0.625
 2257TIP3    H2 6715   7.363   2.402   0.623
 2258TIP3   OH2 6716   6.025   2.511   1.364
 2258TIP3    H1 6717   6.071   2.498   1.447
 2258TIP3    H2 6718   5.992   2.423   1.341
 2259TIP3   OH2 6719   1.332   1.451   4.290
 2259TIP3    H1 6720   1.402   1.420   4.348
 2259TIP3    H2 6721   1.377   1.471   4.208
 2260TIP3   OH2 6722   0.427   4.915   4.163
 2260TIP3    H1 6723   0.386   4.947   4.082
 2260TIP3    H2 6724   0.518   4.901   4.139
 2261TIP3   OH2 6725   7.344   7.304   5.151
 2261TIP3    H1 6726   7.421   7.332   5.102
 2261TIP3    H2 6727   7.291   7.384   5.161
 2262TIP3   OH2 6728   2.990   3.462   3.966
 2262TIP3    H1 6729   3.003   3.454   3.872
 2262TIP3    H2 6730   2.899   3.489   3.976
 2263TIP3   OH2 6731   6.248   0.649   4.916
 2263TIP3    H1 6732   6.317   0.710   4.945
 2263TIP3    H2 6733   6.173   0.706   4.897
 2264TIP3   OH2 6734   0.713   6.879   1.457
 2264TIP3    H1 6735   0.630   6.885   1.505
 2264TIP3    H2 6736   0.743   6.790   1.473
 2265TIP3   OH2 6737   1.667   3.848   3.450
 2265TIP3    H1 6738   1.746   3.808   3.485
 2265TIP3    H2 6739   1.614   3.868   3.527
 2266TIP3   OH2 6740   8.067   6.971   5.503
 2266TIP3    H1 6741   8.074   7.039   5.436
 2266TIP3    H2 6742   8.095   6.891   5.459
 2267TIP3   OH2 6743   5.310   1.816   4.636
 2267TIP3    H1 6744   5.381   1.878   4.652
 2267TIP3    H2 6745   5.306   1.807   4.541
 2268TIP3   OH2 6746   0.782   6.161   4.493
 2268TIP3    H1 6747   0.837   6.089   4.525
 2268TIP3    H2 6748   0.795   6.231   4.556
 2269TIP3   OH2 6749   5.337   1.694   5.764
 2269TIP3    H1 6750   5.249   1.684   5.729
 2269TIP3    H2 6751   5.383   1.747   5.699
 2270TIP3   OH2 6752   5.815   1.578   3.002
 2270TIP3    H1 6753   5.723   1.603   2.989
 2270TIP3    H2 6754   5.837   1.612   3.089
 2271TIP3   OH2 6755   5.234   2.861   3.945
 2271TIP3    H1 6756   5.318   2.825   3.917
 2271TIP3    H2 6757   5.246   2.956   3.943
 2272TIP3   OH2 6758   0.281   3.606   0.407
 2272TIP3    H1 6759   0.299   3.694   0.442
 2272TIP3    H2 6760   0.286   3.617   0.312
 2273TIP3   OH2 6761   2.229   1.171   6.425
 2273TIP3    H1 6762   2.222   1.091   6.477
 2273TIP3    H2 6763   2.167   1.159   6.353
 2274TIP3   OH2 6764   0.674   7.432   5.813
 2274TIP3    H1 6765   0.712   7.453   5.898
 2274TIP3    H2 6766   0.714   7.494   5.752
 2275TIP3   OH2 6767   0.391   0.388   0.183
 2275TIP3    H1 6768   0.318   0.373   0.124
 2275TIP3    H2 6769   0.445   0.309   0.175
 2276TIP3   OH2 6770   8.072   5.835   6.223
 2276TIP3    H1 6771   7.991   5.883   6.240
 2276TIP3    H2 6772   8.094   5.856   6.132
 2277TIP3   OH2 6773   0.093   2.623   5.619
 2277TIP3    H1 6774   0.024   2.562   5.646
 2277TIP3    H2 6775   0.046   2.698   5.583
 2278TIP3   OH2 6776   4.576   7.726   1.927
 2278TIP3    H1 6777   4.654   7.757   1.881
 2278TIP3    H2 6778   4.587   7.631   1.932
 2279TIP3   OH2 6779   6.277   4.009   4.327
 2279TIP3    H1 6780   6.312   4.067   4.394
 2279TIP3    H2 6781   6.267   3.924   4.370
 2280TIP3   OH2 6782   0.384   1.764   1.999
 2280TIP3    H1 6783   0.310   1.717   2.037
 2280TIP3    H2 6784   0.415   1.821   2.070
 2281TIP3   OH2 6785   1.547   5.273   0.498
 2281TIP3    H1 6786   1.591   5.236   0.421
 2281TIP3    H2 6787   1.454   5.262   0.480
 2282TIP3   OH2 6788   6.802   4.405   1.891
 2282TIP3    H1 6789   6.752   4.324   1.902
 2282TIP3    H2 6790   6.768   4.463   1.960
 2283TIP3   OH2 6791   0.097   2.195   4.355
 2283TIP3    H1 6792   0.162   2.193   4.284
 2283TIP3    H2 6793   0.067   2.286   4.358
 2284TIP3   OH2 6794   1.385   2.170   5.206
 2284TIP3    H1 6795   1.344   2.131   5.283
 2284TIP3    H2 6796   1.434   2.098   5.165
 2285TIP3   OH2 6797   1.990   1.109   4.968
 2285TIP3    H1 6798   2.067   1.108   5.024
 2285TIP3    H2 6799   2.022   1.141   4.884
 2286TIP3   OH2 6800   1.691   0.559   5.678
 2286TIP3    H1 6801   1.616   0.504   5.701
 2286TIP3    H2 6802   1.704   0.614   5.754
 2287TIP3   OH2 6803   6.820   1.366   5.339
 2287TIP3    H1 6804   6.828   1.460   5.352
 2287TIP3    H2 6805   6.853   1.327   5.420
 2288TIP3   OH2 6806   6.687   5.384   4.969
 2288TIP3    H1 6807   6.627   5.319   4.932
 2288TIP3    H2 6808   6.771   5.366   4.926
 2289TIP3   OH2 6809   3.183   1.300   5.405
 2289TIP3    H1 6810   3.242   1.274   5.475
 2289TIP3    H2 6811   3.233   1.282   5.325
 2290TIP3   OH2 6812   1.552   0.436   3.946
 2290TIP3    H1 6813   1.623   0.464   4.004
 2290TIP3    H2 6814   1.552   0.500   3.875
 2291TIP3   OH2 6815   4.752   2.397   2.874
 2291TIP3    H1 6816   4.762   2.487   2.841
 2291TIP3    H2 6817   4.841   2.362   2.874
 2292TIP3   OH2 6818   5.105   4.311   0.714
 2292TIP3    H1 6819   5.103   4.392   0.766
 2292TIP3    H2 6820   5.019   4.308   0.672
 2293TIP3   OH2 6821   7.320   2.491   2.334
 2293TIP3    H1 6822   7.278   2.540   2.404
 2293TIP3    H2 6823   7.248   2.451   2.285
 2294TIP3   OH2 6824   8.223   1.064   2.542
 2294TIP3    H1 6825   8.294   1.109   2.588
 2294TIP3    H2 6826   8.172   1.022   2.612
 2295TIP3   OH2 6827   2.675   2.956   0.281
 2295TIP3    H1 6828   2.705   3.021   0.344
 2295TIP3    H2 6829   2.593   2.992   0.246
 2296TIP3   OH2 6830   0.968   4.875   0.658
 2296TIP3    H1 6831   0.949   4.783   0.674
 2296TIP3    H2 6832   0.911   4.900   0.585
 2297TIP3   OH2 6833   4.020   4.582   1.359
 2297TIP3    H1 6834   3.994   4.674   1.356
 2297TIP3    H2 6835   3.953   4.536   1.308
 2298TIP3   OH2 6836   2.299   2.526   2.439
 2298TIP3    H1 6837   2.318   2.440   2.477
 2298TIP3    H2 6838   2.359   2.586   2.482
 2299TIP3   OH2 6839   6.638   6.951   2.895
 2299TIP3    H1 6840   6.599   6.888   2.957
 2299TIP3    H2 6841   6.577   6.951   2.821
 2300TIP3   OH2 6842   2.248   7.276   3.547
 2300TIP3    H1 6843   2.194   7.353   3.566
 2300TIP3    H2 6844   2.191   7.201   3.562
 2301TIP3   OH2 6845   4.525   0.139   4.611
 2301TIP3    H1 6846   4.460   0.206   4.593
 2301TIP3    H2 6847   4.480   0.056   4.596
 2302TIP3   OH2 6848   7.110   6.450   1.780
 2302TIP3    H1 6849   7.027   6.405   1.790
 2302TIP3    H2 6850   7.145   6.419   1.697
 2303TIP3   OH2 6851   3.463   6.414   5.505
 2303TIP3    H1 6852   3.510   6.432   5.423
 2303TIP3    H2 6853   3.532   6.409   5.571
 2304TIP3   OH2 6854   5.313   1.802   2.356
 2304TIP3    H1 6855   5.227   1.782   2.318
 2304TIP3    H2 6856   5.310   1.766   2.444
 2305TIP3   OH2 6857   4.257   3.414   3.697
 2305TIP3    H1 6858   4.230   3.341   3.752
 2305TIP3    H2 6859   4.195   3.484   3.718
 2306TIP3   OH2 6860   7.316   5.516   5.052
 2306TIP3    H1 6861   7.236   5.559   5.024
 2306TIP3    H2 6862   7.387   5.568   5.013
 2307TIP3   OH2 6863   1.208   0.937   3.585
 2307TIP3    H1 6864   1.285   0.990   3.562
 2307TIP3    H2 6865   1.155   0.995   3.641
 2308TIP3   OH2 6866   0.374   3.728   5.894
 2308TIP3    H1 6867   0.355   3.677   5.973
 2308TIP3    H2 6868   0.288   3.746   5.856
 2309TIP3   OH2 6869   2.864   4.999   5.287
 2309TIP3    H1 6870   2.802   5.063   5.253
 2309TIP3    H2 6871   2.828   4.914   5.262
 2310TIP3   OH2 6872   2.255   0.429   4.520
 2310TIP3    H1 6873   2.242   0.334   4.524
 2310TIP3    H2 6874   2.319   0.448   4.589
 2311TIP3   OH2 6875   7.994   5.767   4.845
 2311TIP3    H1 6876   8.058   5.743   4.779
 2311TIP3    H2 6877   8.038   5.748   4.929
 2312TIP3   OH2 6878   5.575   4.952   0.600
 2312TIP3    H1 6879   5.657   4.929   0.645
 2312TIP3    H2 6880   5.570   4.891   0.527
 2313TIP3   OH2 6881   2.675   6.571   0.569
 2313TIP3    H1 6882   2.758   6.524   0.569
 2313TIP3    H2 6883   2.669   6.609   0.481
 2314TIP3   OH2 6884   8.379   1.989   0.140
 2314TIP3    H1 6885   8.304   1.971   0.083
 2314TIP3    H2 6886   8.362   2.076   0.175
 2315TIP3   OH2 6887   3.327   6.514   2.594
 2315TIP3    H1 6888   3.291   6.435   2.634
 2315TIP3    H2 6889   3.338   6.575   2.666
 2316TIP3   OH2 6890   1.019   0.233   4.607
 2316TIP3    H1 6891   1.094   0.209   4.553
 2316TIP3    H2 6892   0.988   0.150   4.644
 2317TIP3   OH2 6893   4.710   6.074   5.662
 2317TIP3    H1 6894   4.709   5.980   5.678
 2317TIP3    H2 6895   4.802   6.099   5.667
 2318TIP3   OH2 6896   0.371   3.984   1.400
 2318TIP3    H1 6897   0.381   3.935   1.318
 2318TIP3    H2 6898   0.449   4.039   1.404
 2319TIP3   OH2 6899   2.338   2.481   4.706
 2319TIP3    H1 6900   2.308   2.464   4.616
 2319TIP3    H2 6901   2.260   2.513   4.751
 2320TIP3   OH2 6902   5.995   6.679   0.063
 2320TIP3    H1 6903   5.960   6.766   0.047
 2320TIP3    H2 6904   6.090   6.692   0.070
 2321TIP3   OH2 6905   1.251   0.527   0.680
 2321TIP3    H1 6906   1.265   0.612   0.640
 2321TIP3    H2 6907   1.201   0.546   0.760
 2322TIP3   OH2 6908   0.509   7.445   4.779
 2322TIP3    H1 6909   0.597   7.483   4.785
 2322TIP3    H2 6910   0.501   7.420   4.687
 2323TIP3   OH2 6911   3.820   0.541   4.936
 2323TIP3    H1 6912   3.881   0.527   5.008
 2323TIP3    H2 6913   3.792   0.632   4.945
 2324TIP3   OH2 6914   4.964   7.028   5.339
 2324TIP3    H1 6915   5.037   7.037   5.278
 2324TIP3    H2 6916   4.956   7.113   5.382
 2325TIP3   OH2 6917   1.402   1.848   5.418
 2325TIP3    H1 6918   1.480   1.826   5.366
 2325TIP3    H2 6919   1.389   1.771   5.473
 2326TIP3   OH2 6920   0.805   0.704   4.397
 2326TIP3    H1 6921   0.846   0.619   4.381
 2326TIP3    H2 6922   0.737   0.687   4.462
 2327TIP3   OH2 6923   0.623   6.203   6.143
 2327TIP3    H1 6924   0.550   6.228   6.200
 2327TIP3    H2 6925   0.596   6.118   6.107
 2328TIP3   OH2 6926   1.716   5.631   5.343
 2328TIP3    H1 6927   1.631   5.676   5.342
 2328TIP3    H2 6928   1.694   5.538   5.345
 2329TIP3   OH2 6929   3.360   3.732   5.086
 2329TIP3    H1 6930   3.376   3.727   5.180
 2329TIP3    H2 6931   3.437   3.775   5.050
 2330TIP3   OH2 6932   7.756   6.524   0.624
 2330TIP3    H1 6933   7.826   6.561   0.569
 2330TIP3    H2 6934   7.762   6.429   0.608
 2331TIP3   OH2 6935   7.379   6.724   3.846
 2331TIP3    H1 6936   7.434   6.745   3.771
 2331TIP3    H2 6937   7.327   6.804   3.861
 2332TIP3   OH2 6938   1.572   5.372   5.178
 2332TIP3    H1 6939   1.573   5.299   5.240
 2332TIP3    H2 6940   1.561   5.330   5.093
 2333TIP3   OH2 6941   4.646   2.923   2.269
 2333TIP3    H1 6942   4.689   2.979   2.204
 2333TIP3    H2 6943   4.675   2.835   2.248
 2334TIP3   OH2 6944   7.303   2.444   3.283
 2334TIP3    H1 6945   7.397   2.426   3.280
 2334TIP3    H2 6946   7.296   2.524   3.335
 2335TIP3   OH2 6947   2.226   6.868   2.883
 2335TIP3    H1 6948   2.298   6.923   2.851
 2335TIP3    H2 6949   2.208   6.809   2.810
 2336TIP3   OH2 6950   5.411   0.109   6.646
 2336TIP3    H1 6951   5.409   0.081   6.554
 2336TIP3    H2 6952   5.417   0.028   6.696
 2337TIP3   OH2 6953   6.209   5.818   5.835
 2337TIP3    H1 6954   6.294   5.847   5.870
 2337TIP3    H2 6955   6.229   5.739   5.786
 2338TIP3   OH2 6956   1.520   5.430   1.252
 2338TIP3    H1 6957   1.514   5.496   1.322
 2338TIP3    H2 6958   1.577   5.470   1.186
 2339TIP3   OH2 6959   6.146   4.709   2.928
 2339TIP3    H1 6960   6.166   4.801   2.943
 2339TIP3    H2 6961   6.053   4.708   2.903
 2340TIP3   OH2 6962   7.990   4.306   3.484
 2340TIP3    H1 6963   8.044   4.279   3.558
 2340TIP3    H2 6964   7.926   4.236   3.474
 2341TIP3   OH2 6965   4.072   1.001   5.389
 2341TIP3    H1 6966   4.071   0.958   5.474
 2341TIP3    H2 6967   4.002   1.066   5.394
 2342TIP3   OH2 6968   0.242   3.432   3.319
 2342TIP3    H1 6969   0.263   3.339   3.318
 2342TIP3    H2 6970   0.262   3.460   3.408
 2343TIP3   OH2 6971   1.772   3.413   3.820
 2343TIP3    H1 6972   1.841   3.350   3.840
 2343TIP3    H2 6973   1.691   3.367   3.843
 2344TIP3   OH2 6974   6.205   3.617   1.790
 2344TIP3    H1 6975   6.268   3.612   1.719
 2344TIP3    H2 6976   6.250   3.580   1.865
 2345TIP3   OH2 6977   8.190   5.538   2.428
 2345TIP3    H1 6978   8.183   5.536   2.523
 2345TIP3    H2 6979   8.155   5.623   2.403
 2346TIP3   OH2 6980   8.253   2.572   3.906
 2346TIP3    H1 6981   8.215   2.659   3.896
 2346TIP3    H2 6982   8.285   2.550   3.818
 2347TIP3   OH2 6983   2.143   5.051   0.989
 2347TIP3    H1 6984   2.136   5.145   1.006
 2347TIP3    H2 6985   2.111   5.010   1.069
 2348TIP3   OH2 6986   6.971   3.169   5.517
 2348TIP3    H1 6987   7.038   3.107   5.547
 2348TIP3    H2 6988   6.997   3.191   5.428
 2349TIP3   OH2 6989   2.230   3.173   6.580
 2349TIP3    H1 6990   2.211   3.210   6.667
 2349TIP3    H2 6991   2.169   3.100   6.570
 2350TIP3   OH2 6992   0.814   4.148   0.940
 2350TIP3    H1 6993   0.788   4.074   0.995
 2350TIP3    H2 6994   0.734   4.198   0.927
 2351TIP3   OH2 6995   1.783   1.915   0.911
 2351TIP3    H1 6996   1.723   1.841   0.920
 2351TIP3    H2 6997   1.728   1.993   0.921
 2352TIP3   OH2 6998   2.477   4.338   2.484
 2352TIP3    H1 6999   2.480   4.245   2.508
 2352TIP3    H2 7000   2.388   4.351   2.452
 2353TIP3   OH2 7001   7.347   1.071   3.103
 2353TIP3    H1 7002   7.348   1.129   3.179
 2353TIP3    H2 7003   7.439   1.048   3.089
 2354TIP3   OH2 7004   2.316   5.802   4.201
 2354TIP3    H1 7005   2.292   5.865   4.270
 2354TIP3    H2 7006   2.297   5.848   4.119
 2355TIP3   OH2 7007   4.568   0.101   3.543
 2355TIP3    H1 7008   4.637   0.130   3.483
 2355TIP3    H2 7009   4.510   0.177   3.551
 2356TIP3   OH2 7010   5.040   2.714   0.447
 2356TIP3    H1 7011   5.083   2.636   0.411
 2356TIP3    H2 7012   5.007   2.760   0.369
 2357TIP3   OH2 7013   5.158   7.037   0.176
 2357TIP3    H1 7014   5.101   7.072   0.108
 2357TIP3    H2 7015   5.221   7.107   0.193
 2358TIP3   OH2 7016   0.539   2.412   5.166
 2358TIP3    H1 7017   0.454   2.455   5.172
 2358TIP3    H2 7018   0.565   2.397   5.256
 2359TIP3   OH2 7019   7.683   3.451   2.830
 2359TIP3    H1 7020   7.706   3.365   2.795
 2359TIP3    H2 7021   7.593   3.441   2.861
 2360TIP3   OH2 7022   0.675   1.208   0.227
 2360TIP3    H1 7023   0.700   1.164   0.308
 2360TIP3    H2 7024   0.669   1.301   0.250
 2361TIP3   OH2 7025   1.556   6.585   0.951
 2361TIP3    H1 7026   1.464   6.562   0.937
 2361TIP3    H2 7027   1.576   6.648   0.881
 2362TIP3   OH2 7028   7.058   4.757   5.235
 2362TIP3    H1 7029   7.035   4.720   5.150
 2362TIP3    H2 7030   7.021   4.696   5.299
 2363TIP3   OH2 7031   3.636   4.881   3.402
 2363TIP3    H1 7032   3.691   4.959   3.393
 2363TIP3    H2 7033   3.698   4.808   3.404
 2364TIP3   OH2 7034   7.168   5.343   4.339
 2364TIP3    H1 7035   7.174   5.439   4.344
 2364TIP3    H2 7036   7.097   5.320   4.398
 2365TIP3   OH2 7037   3.899   4.773   2.635
 2365TIP3    H1 7038   3.848   4.770   2.716
 2365TIP3    H2 7039   3.986   4.740   2.660
 2366TIP3   OH2 7040   1.181   1.991   0.111
 2366TIP3    H1 7041   1.154   2.042   0.187
 2366TIP3    H2 7042   1.220   1.912   0.148
 2367TIP3   OH2 7043   5.421   7.595   4.924
 2367TIP3    H1 7044   5.329   7.591   4.900
 2367TIP3    H2 7045   5.469   7.591   4.841
 2368TIP3   OH2 7046   7.375   1.414   1.288
 2368TIP3    H1 7047   7.327   1.392   1.368
 2368TIP3    H2 7048   7.369   1.335   1.234
 2369TIP3   OH2 7049   4.478   3.662   3.160
 2369TIP3    H1 7050   4.488   3.571   3.131
 2369TIP3    H2 7051   4.387   3.684   3.142
 2370TIP3   OH2 7052   7.270   4.950   3.523
 2370TIP3    H1 7053   7.236   4.967   3.435
 2370TIP3    H2 7054   7.193   4.954   3.579
 2371TIP3   OH2 7055   3.136   5.400   6.667
 2371TIP3    H1 7056   3.218   5.394   6.716
 2371TIP3    H2 7057   3.112   5.493   6.671
 2372TIP3   OH2 7058   7.281   0.801   5.148
 2372TIP3    H1 7059   7.358   0.745   5.149
 2372TIP3    H2 7060   7.304   0.872   5.088
 2373TIP3   OH2 7061   5.370   1.927   1.943
 2373TIP3    H1 7062   5.295   1.944   2.000
 2373TIP3    H2 7063   5.332   1.895   1.862
 2374TIP3   OH2 7064  -0.014   0.611   5.365
 2374TIP3    H1 7065  -0.106   0.621   5.343
 2374TIP3    H2 7066  -0.009   0.626   5.459
 2375TIP3   OH2 7067   4.208   4.046   0.513
 2375TIP3    H1 7068   4.202   3.951   0.505
 2375TIP3    H2 7069   4.297   4.063   0.543
 2376TIP3   OH2 7070   8.136   1.555   3.895
 2376TIP3    H1 7071   8.205   1.579   3.833
 2376TIP3    H2 7072   8.129   1.630   3.953
 2377TIP3   OH2 7073   6.430   6.458   5.151
 2377TIP3    H1 7074   6.416   6.537   5.203
 2377TIP3    H2 7075   6.365   6.396   5.185
 2378TIP3   OH2 7076   3.707   2.342   2.887
 2378TIP3    H1 7077   3.753   2.352   2.804
 2378TIP3    H2 7078   3.719   2.426   2.931
 2379TIP3   OH2 7079   1.975   0.082   1.691
 2379TIP3    H1 7080   1.903   0.121   1.641
 2379TIP3    H2 7081   1.999   0.150   1.753
 2380TIP3   OH2 7082   6.404   6.503   4.365
 2380TIP3    H1 7083   6.492   6.539   4.361
 2380TIP3    H2 7084   6.376   6.520   4.455
 2381TIP3   OH2 7085   3.605   4.164   4.719
 2381TIP3    H1 7086   3.557   4.085   4.744
 2381TIP3    H2 7087   3.584   4.227   4.787
 2382TIP3   OH2 7088   5.546   4.775   0.078
 2382TIP3    H1 7089   5.491   4.849   0.104
 2382TIP3    H2 7090   5.607   4.812   0.015
 2383TIP3   OH2 7091   2.282   7.703   4.068
 2383TIP3    H1 7092   2.317   7.643   4.134
 2383TIP3    H2 7093   2.187   7.691   4.073
 2384TIP3   OH2 7094   6.624   0.699   5.704
 2384TIP3    H1 7095   6.579   0.783   5.693
 2384TIP3    H2 7096   6.684   0.714   5.778
 2385TIP3   OH2 7097   1.543   7.580   3.715
 2385TIP3    H1 7098   1.571   7.560   3.626
 2385TIP3    H2 7099   1.570   7.503   3.766
 2386TIP3   OH2 7100   3.943   2.368   2.756
 2386TIP3    H1 7101   3.927   2.278   2.728
 2386TIP3    H2 7102   4.036   2.372   2.775
 2387TIP3   OH2 7103   7.983   4.896   5.869
 2387TIP3    H1 7104   7.942   4.949   5.801
 2387TIP3    H2 7105   8.056   4.950   5.901
 2388TIP3   OH2 7106   8.027   3.926   3.652
 2388TIP3    H1 7107   8.114   3.924   3.691
 2388TIP3    H2 7108   7.969   3.891   3.720
 2389TIP3   OH2 7109   1.792   3.305   4.445
 2389TIP3    H1 7110   1.702   3.338   4.453
 2389TIP3    H2 7111   1.846   3.384   4.442
 2390TIP3   OH2 7112   6.486   2.489   2.362
 2390TIP3    H1 7113   6.449   2.511   2.447
 2390TIP3    H2 7114   6.532   2.407   2.377
 2391TIP3   OH2 7115   4.050   3.452   2.899
 2391TIP3    H1 7116   4.059   3.389   2.971
 2391TIP3    H2 7117   4.109   3.418   2.831
 2392TIP3   OH2 7118   8.180   3.307   3.208
 2392TIP3    H1 7119   8.192   3.293   3.302
 2392TIP3    H2 7120   8.212   3.226   3.168
 2393TIP3   OH2 7121   3.967   0.811   1.954
 2393TIP3    H1 7122   4.022   0.738   1.980
 2393TIP3    H2 7123   3.924   0.838   2.035
 2394TIP3   OH2 7124   3.707   7.558   4.358
 2394TIP3    H1 7125   3.713   7.520   4.270
 2394TIP3    H2 7126   3.777   7.623   4.361
 2395TIP3   OH2 7127   4.711   7.089   6.236
 2395TIP3    H1 7128   4.671   7.094   6.149
 2395TIP3    H2 7129   4.786   7.031   6.224
 2396TIP3   OH2 7130   3.664   3.102   3.323
 2396TIP3    H1 7131   3.721   3.025   3.329
 2396TIP3    H2 7132   3.722   3.176   3.343
 2397TIP3   OH2 7133   2.538   7.683   4.679
 2397TIP3    H1 7134   2.582   7.751   4.730
 2397TIP3    H2 7135   2.591   7.605   4.692
 2398TIP3   OH2 7136   4.509   6.134   1.262
 2398TIP3    H1 7137   4.513   6.111   1.354
 2398TIP3    H2 7138   4.600   6.140   1.234
 2399TIP3   OH2 7139   0.781   3.463   3.264
 2399TIP3    H1 7140   0.825   3.545   3.285
 2399TIP3    H2 7141   0.827   3.431   3.186
 2400TIP3   OH2 7142   2.742   3.075   5.530
 2400TIP3    H1 7143   2.837   3.082   5.520
 2400TIP3    H2 7144   2.714   3.164   5.552
 2401TIP3   OH2 7145   8.068   7.578   2.284
 2401TIP3    H1 7146   8.022   7.501   2.318
 2401TIP3    H2 7147   8.147   7.543   2.242
 2402TIP3   OH2 7148   8.100   1.479   4.330
 2402TIP3    H1 7149   8.054   1.561   4.314
 2402TIP3    H2 7150   8.036   1.411   4.307
 2403TIP3   OH2 7151   3.162   3.022   5.023
 2403TIP3    H1 7152   3.075   3.019   5.063
 2403TIP3    H2 7153   3.159   3.099   4.966
 2404TIP3   OH2 7154   6.981   6.169   0.132
 2404TIP3    H1 7155   6.949   6.082   0.107
 2404TIP3    H2 7156   7.057   6.152   0.187
 2405TIP3   OH2 7157   0.652   4.899   1.530
 2405TIP3    H1 7158   0.746   4.881   1.523
 2405TIP3    H2 7159   0.644   4.952   1.609
 2406TIP3   OH2 7160   5.023   3.332   1.718
 2406TIP3    H1 7161   4.950   3.333   1.655
 2406TIP3    H2 7162   5.067   3.416   1.705
 2407TIP3   OH2 7163   3.227   6.494   0.668
 2407TIP3    H1 7164   3.273   6.548   0.733
 2407TIP3    H2 7165   3.151   6.459   0.716
 2408TIP3   OH2 7166   7.403   0.944   1.890
 2408TIP3    H1 7167   7.435   0.936   1.800
 2408TIP3    H2 7168   7.471   0.902   1.943
 2409TIP3   OH2 7169   6.414   0.759   4.603
 2409TIP3    H1 7170   6.385   0.675   4.639
 2409TIP3    H2 7171   6.507   0.762   4.624
 2410TIP3   OH2 7172   0.100   5.161   0.053
 2410TIP3    H1 7173   0.146   5.101   0.111
 2410TIP3    H2 7174   0.012   5.167   0.091
 2411TIP3   OH2 7175   6.064   1.857   2.453
 2411TIP3    H1 7176   6.007   1.784   2.477
 2411TIP3    H2 7177   6.004   1.931   2.440
 2412TIP3   OH2 7178   2.198   3.781   5.045
 2412TIP3    H1 7179   2.227   3.812   5.131
 2412TIP3    H2 7180   2.255   3.706   5.027
 2413TIP3   OH2 7181   7.423   3.991   1.828
 2413TIP3    H1 7182   7.446   4.083   1.844
 2413TIP3    H2 7183   7.433   3.949   1.914
 2414TIP3   OH2 7184   0.670   2.225   5.758
 2414TIP3    H1 7185   0.723   2.225   5.837
 2414TIP3    H2 7186   0.663   2.317   5.733
 2415TIP3   OH2 7187   7.968   3.627   4.569
 2415TIP3    H1 7188   7.914   3.705   4.583
 2415TIP3    H2 7189   7.986   3.594   4.657
 2416TIP3   OH2 7190   2.839   5.530   1.850
 2416TIP3    H1 7191   2.833   5.440   1.820
 2416TIP3    H2 7192   2.748   5.556   1.866
 2417TIP3   OH2 7193   5.332   0.792   0.521
 2417TIP3    H1 7194   5.265   0.760   0.462
 2417TIP3    H2 7195   5.286   0.852   0.579
 2418TIP3   OH2 7196   6.357   5.962   0.333
 2418TIP3    H1 7197   6.449   5.940   0.348
 2418TIP3    H2 7198   6.352   6.056   0.349
 2419TIP3   OH2 7199   5.025   7.506   3.483
 2419TIP3    H1 7200   5.067   7.485   3.399
 2419TIP3    H2 7201   4.958   7.571   3.461
 2420TIP3   OH2 7202   2.153   7.100   0.843
 2420TIP3    H1 7203   2.178   7.185   0.807
 2420TIP3    H2 7204   2.160   7.040   0.768
 2421TIP3   OH2 7205   0.979   1.443   5.488
 2421TIP3    H1 7206   0.970   1.497   5.567
 2421TIP3    H2 7207   1.044   1.488   5.435
 2422TIP3   OH2 7208   1.696   2.836   6.425
 2422TIP3    H1 7209   1.786   2.846   6.458
 2422TIP3    H2 7210   1.642   2.831   6.504
 2423TIP3   OH2 7211   1.782   1.526   1.811
 2423TIP3    H1 7212   1.716   1.584   1.774
 2423TIP3    H2 7213   1.746   1.499   1.896
 2424TIP3   OH2 7214   5.919   1.655   2.489
 2424TIP3    H1 7215   5.838   1.665   2.439
 2424TIP3    H2 7216   5.945   1.564   2.477
 2425TIP3   OH2 7217   3.438   7.690   3.719
 2425TIP3    H1 7218   3.456   7.617   3.659
 2425TIP3    H2 7219   3.463   7.657   3.805
 2426TIP3   OH2 7220   7.081   1.558   6.092
 2426TIP3    H1 7221   7.092   1.647   6.125
 2426TIP3    H2 7222   7.004   1.563   6.035
 2427TIP3   OH2 7223   5.206   7.733   1.006
 2427TIP3    H1 7224   5.271   7.799   1.033
 2427TIP3    H2 7225   5.155   7.777   0.938
 2428TIP3   OH2 7226   1.183   0.426   2.821
 2428TIP3    H1 7227   1.275   0.451   2.811
 2428TIP3    H2 7228   1.183   0.330   2.812
 2429TIP3   OH2 7229   7.216   0.968   6.649
 2429TIP3    H1 7230   7.213   0.945   6.742
 2429TIP3    H2 7231   7.149   1.035   6.639
 2430TIP3   OH2 7232   7.044   4.073   3.375
 2430TIP3    H1 7233   6.974   4.050   3.313
 2430TIP3    H2 7234   7.010   4.043   3.460
 2431TIP3   OH2 7235   3.928   7.211   4.909
 2431TIP3    H1 7236   3.960   7.279   4.850
 2431TIP3    H2 7237   3.943   7.246   4.997
 2432TIP3   OH2 7238   2.550   1.792   2.999
 2432TIP3    H1 7239   2.602   1.713   3.014
 2432TIP3    H2 7240   2.570   1.849   3.073
 2433TIP3   OH2 7241   0.106   7.474   3.425
 2433TIP3    H1 7242   0.184   7.420   3.412
 2433TIP3    H2 7243   0.099   7.527   3.346
 2434TIP3   OH2 7244   8.181   1.510   1.769
 2434TIP3    H1 7245   8.147   1.588   1.724
 2434TIP3    H2 7246   8.222   1.545   1.849
 2435TIP3   OH2 7247   6.931   2.341   6.587
 2435TIP3    H1 7248   6.938   2.355   6.681
 2435TIP3    H2 7249   6.975   2.257   6.572
 2436TIP3   OH2 7250   2.524   6.198   0.926
 2436TIP3    H1 7251   2.611   6.239   0.928
 2436TIP3    H2 7252   2.542   6.105   0.918
 2437TIP3   OH2 7253   0.085   3.563   6.614
 2437TIP3    H1 7254   0.074   3.591   6.523
 2437TIP3    H2 7255   0.038   3.629   6.665
 2438TIP3   OH2 7256   3.993   4.014   2.292
 2438TIP3    H1 7257   3.901   4.041   2.296
 2438TIP3    H2 7258   4.000   3.963   2.212
 2439TIP3   OH2 7259   0.861   7.734   2.508
 2439TIP3    H1 7260   0.912   7.814   2.495
 2439TIP3    H2 7261   0.886   7.702   2.594
 2440TIP3   OH2 7262   0.809   6.149   2.140
 2440TIP3    H1 7263   0.720   6.178   2.158
 2440TIP3    H2 7264   0.805   6.112   2.052
 2441TIP3   OH2 7265   5.709   1.765   4.064
 2441TIP3    H1 7266   5.694   1.697   4.130
 2441TIP3    H2 7267   5.804   1.774   4.061
 2442TIP3   OH2 7268   2.715   6.861   3.584
 2442TIP3    H1 7269   2.721   6.916   3.662
 2442TIP3    H2 7270   2.799   6.874   3.540
 2443TIP3   OH2 7271   3.913   5.088   3.530
 2443TIP3    H1 7272   3.935   5.155   3.465
 2443TIP3    H2 7273   3.992   5.078   3.582
 2444TIP3   OH2 7274   7.511   3.198   4.318
 2444TIP3    H1 7275   7.488   3.196   4.225
 2444TIP3    H2 7276   7.574   3.126   4.328
 2445TIP3   OH2 7277   5.083   6.150   2.559
 2445TIP3    H1 7278   5.120   6.195   2.483
 2445TIP3    H2 7279   5.140   6.074   2.573
 2446TIP3   OH2 7280   2.989   6.095   0.846
 2446TIP3    H1 7281   2.942   6.021   0.885
 2446TIP3    H2 7282   2.928   6.130   0.781
 2447TIP3   OH2 7283   0.977   7.355   1.189
 2447TIP3    H1 7284   0.984   7.330   1.281
 2447TIP3    H2 7285   0.884   7.345   1.168
 2448TIP3   OH2 7286   5.828   7.246   1.763
 2448TIP3    H1 7287   5.789   7.328   1.733
 2448TIP3    H2 7288   5.859   7.204   1.684
 2449TIP3   OH2 7289   1.793   3.690   1.711
 2449TIP3    H1 7290   1.758   3.760   1.655
 2449TIP3    H2 7291   1.721   3.668   1.770
 2450TIP3   OH2 7292   8.147   6.168   1.793
 2450TIP3    H1 7293   8.225   6.219   1.771
 2450TIP3    H2 7294   8.180   6.080   1.810
 2451TIP3   OH2 7295   2.208   1.286   6.754
 2451TIP3    H1 7296   2.164   1.334   6.684
 2451TIP3    H2 7297   2.245   1.209   6.710
 2452TIP3   OH2 7298   4.157   5.134   2.210
 2452TIP3    H1 7299   4.147   5.210   2.152
 2452TIP3    H2 7300   4.070   5.094   2.212
 2453TIP3   OH2 7301   3.385   0.231   1.768
 2453TIP3    H1 7302   3.469   0.269   1.794
 2453TIP3    H2 7303   3.351   0.292   1.702
 2454TIP3   OH2 7304   4.142   2.920   1.810
 2454TIP3    H1 7305   4.074   2.947   1.748
 2454TIP3    H2 7306   4.182   2.843   1.769
 2455TIP3   OH2 7307   0.247   0.250   1.561
 2455TIP3    H1 7308   0.193   0.211   1.630
 2455TIP3    H2 7309   0.291   0.176   1.520
 2456TIP3   OH2 7310   5.211   2.320   2.162
 2456TIP3    H1 7311   5.299   2.291   2.189
 2456TIP3    H2 7312   5.224   2.357   2.075
 2457TIP3   OH2 7313   6.295   6.671   5.351
 2457TIP3    H1 7314   6.206   6.679   5.319
 2457TIP3    H2 7315   6.316   6.757   5.387
 2458TIP3   OH2 7316   6.209   5.997   1.909
 2458TIP3    H1 7317   6.293   6.044   1.907
 2458TIP3    H2 7318   6.233   5.905   1.899
 2459TIP3   OH2 7319   6.517   7.019   3.672
 2459TIP3    H1 7320   6.510   7.070   3.591
 2459TIP3    H2 7321   6.594   6.964   3.659
 2460TIP3   OH2 7322   2.375   7.133   3.141
 2460TIP3    H1 7323   2.467   7.110   3.129
 2460TIP3    H2 7324   2.353   7.184   3.062
 2461TIP3   OH2 7325   2.708   6.798   2.828
 2461TIP3    H1 7326   2.702   6.893   2.822
 2461TIP3    H2 7327   2.659   6.776   2.908
 2462TIP3   OH2 7328   4.752   1.354   0.161
 2462TIP3    H1 7329   4.693   1.366   0.086
 2462TIP3    H2 7330   4.818   1.292   0.129
 2463TIP3   OH2 7331   7.452   5.417   2.246
 2463TIP3    H1 7332   7.436   5.381   2.333
 2463TIP3    H2 7333   7.376   5.389   2.194
 2464TIP3   OH2 7334   4.784   5.366   0.743
 2464TIP3    H1 7335   4.854   5.411   0.698
 2464TIP3    H2 7336   4.828   5.305   0.802
 2465TIP3   OH2 7337   2.354   7.207   6.364
 2465TIP3    H1 7338   2.378   7.264   6.291
 2465TIP3    H2 7339   2.380   7.119   6.335
 2466TIP3   OH2 7340   0.065   7.643   4.290
 2466TIP3    H1 7341   0.030   7.665   4.203
 2466TIP3    H2 7342   0.001   7.681   4.351
 2467TIP3   OH2 7343   5.882   0.262   1.611
 2467TIP3    H1 7344   5.800   0.244   1.656
 2467TIP3    H2 7345   5.948   0.264   1.680
 2468TIP3   OH2 7346   8.018   1.584   5.645
 2468TIP3    H1 7347   8.104   1.591   5.687
 2468TIP3    H2 7348   8.037   1.585   5.552
 2469TIP3   OH2 7349   4.803   3.046   3.255
 2469TIP3    H1 7350   4.867   3.052   3.185
 2469TIP3    H2 7351   4.813   3.128   3.304
 2470TIP3   OH2 7352   0.316   3.144   3.508
 2470TIP3    H1 7353   0.290   3.229   3.542
 2470TIP3    H2 7354   0.403   3.128   3.544
 2471TIP3   OH2 7355   6.369   3.442   1.995
 2471TIP3    H1 7356   6.342   3.481   2.078
 2471TIP3    H2 7357   6.463   3.429   2.005
 2472TIP3   OH2 7358   7.932   4.550   2.114
 2472TIP3    H1 7359   7.906   4.538   2.023
 2472TIP3    H2 7360   7.907   4.469   2.157
 2473TIP3   OH2 7361   5.838   4.961   0.786
 2473TIP3    H1 7362   5.898   5.036   0.784
 2473TIP3    H2 7363   5.781   4.977   0.861
 2474TIP3   OH2 7364   7.183   5.703   1.686
 2474TIP3    H1 7365   7.206   5.786   1.643
 2474TIP3    H2 7366   7.103   5.722   1.734
 2475TIP3   OH2 7367   1.505   1.400   0.565
 2475TIP3    H1 7368   1.451   1.421   0.641
 2475TIP3    H2 7369   1.550   1.319   0.589
 2476TIP3   OH2 7370   4.036   0.622   6.034
 2476TIP3    H1 7371   3.940   0.623   6.028
 2476TIP3    H2 7372   4.054   0.586   6.121
 2477TIP3   OH2 7373   5.327   7.242   6.208
 2477TIP3    H1 7374   5.342   7.241   6.113
 2477TIP3    H2 7375   5.415   7.235   6.245
 2478TIP3   OH2 7376   6.918   3.471   1.366
 2478TIP3    H1 7377   6.988   3.530   1.396
 2478TIP3    H2 7378   6.885   3.512   1.286
 2479TIP3   OH2 7379   5.841   3.432   0.971
 2479TIP3    H1 7380   5.901   3.462   0.902
 2479TIP3    H2 7381   5.813   3.513   1.014
 2480TIP3   OH2 7382   3.512   3.383   0.852
 2480TIP3    H1 7383   3.596   3.337   0.854
 2480TIP3    H2 7384   3.518   3.440   0.776
 2481TIP3   OH2 7385   3.283   7.538   5.136
 2481TIP3    H1 7386   3.261   7.448   5.116
 2481TIP3    H2 7387   3.373   7.549   5.105
 2482TIP3   OH2 7388   6.031   4.673   6.057
 2482TIP3    H1 7389   6.035   4.768   6.052
 2482TIP3    H2 7390   6.061   4.651   6.145
 2483TIP3   OH2 7391   5.605   3.289   0.866
 2483TIP3    H1 7392   5.616   3.282   0.771
 2483TIP3    H2 7393   5.682   3.336   0.896
 2484TIP3   OH2 7394   7.605   6.132   0.195
 2484TIP3    H1 7395   7.671   6.200   0.207
 2484TIP3    H2 7396   7.640   6.076   0.126
 2485TIP3   OH2 7397   7.025   4.345   4.132
 2485TIP3    H1 7398   6.931   4.349   4.149
 2485TIP3    H2 7399   7.049   4.253   4.144
 2486TIP3   OH2 7400   4.275   1.201   3.150
 2486TIP3    H1 7401   4.333   1.134   3.186
 2486TIP3    H2 7402   4.222   1.155   3.085
 2487TIP3   OH2 7403   7.135   5.461   1.215
 2487TIP3    H1 7404   7.110   5.520   1.286
 2487TIP3    H2 7405   7.100   5.502   1.136
 2488TIP3   OH2 7406   1.083   2.308   0.512
 2488TIP3    H1 7407   1.049   2.397   0.507
 2488TIP3    H2 7408   1.055   2.266   0.431
 2489TIP3   OH2 7409   3.872   1.667   3.095
 2489TIP3    H1 7410   3.899   1.697   3.182
 2489TIP3    H2 7411   3.798   1.609   3.112
 2490TIP3   OH2 7412   5.702   6.484   5.797
 2490TIP3    H1 7413   5.727   6.546   5.866
 2490TIP3    H2 7414   5.640   6.425   5.840
 2491TIP3   OH2 7415   7.709   0.241   5.987
 2491TIP3    H1 7416   7.735   0.306   5.921
 2491TIP3    H2 7417   7.775   0.249   6.056
 2492TIP3   OH2 7418   6.538   4.309   2.781
 2492TIP3    H1 7419   6.618   4.350   2.749
 2492TIP3    H2 7420   6.471   4.338   2.719
 2493TIP3   OH2 7421   3.392   4.492   2.799
 2493TIP3    H1 7422   3.390   4.571   2.745
 2493TIP3    H2 7423   3.344   4.427   2.748
 2494TIP3   OH2 7424   4.203   5.606   5.284
 2494TIP3    H1 7425   4.291   5.608   5.245
 2494TIP3    H2 7426   4.149   5.657   5.224
 2495TIP3   OH2 7427   2.067   6.540   5.115
 2495TIP3    H1 7428   2.051   6.631   5.142
 2495TIP3    H2 7429   1.984   6.512   5.077
 2496TIP3   OH2 7430   3.444   0.754   5.197
 2496TIP3    H1 7431   3.484   0.695   5.133
 2496TIP3    H2 7432   3.350   0.752   5.176
 2497TIP3   OH2 7433   7.579   0.907   4.539
 2497TIP3    H1 7434   7.549   0.859   4.616
 2497TIP3    H2 7435   7.670   0.881   4.529
 2498TIP3   OH2 7436   6.685   5.912   0.811
 2498TIP3    H1 7437   6.611   5.888   0.754
 2498TIP3    H2 7438   6.684   6.007   0.813
 2499TIP3   OH2 7439   4.503   5.489   0.725
 2499TIP3    H1 7440   4.466   5.432   0.793
 2499TIP3    H2 7441   4.587   5.449   0.704
 2500TIP3   OH2 7442   0.180   2.198   6.588
 2500TIP3    H1 7443   0.137   2.113   6.588
 2500TIP3    H2 7444   0.237   2.196   6.511
 2501TIP3   OH2 7445   5.973   1.014   2.636
 2501TIP3    H1 7446   5.931   1.079   2.691
 2501TIP3    H2 7447   5.908   0.943   2.629
 2502TIP3   OH2 7448   2.203   3.419   0.987
 2502TIP3    H1 7449   2.299   3.419   0.988
 2502TIP3    H2 7450   2.178   3.340   1.034
 2503TIP3   OH2 7451   4.909   1.944   5.306
 2503TIP3    H1 7452   4.824   1.986   5.321
 2503TIP3    H2 7453   4.890   1.869   5.250
 2504TIP3   OH2 7454   5.490   4.800   1.838
 2504TIP3    H1 7455   5.560   4.743   1.869
 2504TIP3    H2 7456   5.493   4.876   1.897
 2505TIP3   OH2 7457   2.476   0.144   5.317
 2505TIP3    H1 7458   2.557   0.165   5.269
 2505TIP3    H2 7459   2.494   0.172   5.407
 2506TIP3   OH2 7460   6.133   0.451   4.568
 2506TIP3    H1 7461   6.145   0.473   4.475
 2506TIP3    H2 7462   6.154   0.358   4.573
 2507TIP3   OH2 7463   0.478   1.696   2.843
 2507TIP3    H1 7464   0.429   1.764   2.888
 2507TIP3    H2 7465   0.494   1.731   2.756
 2508TIP3   OH2 7466   5.266   1.934   4.994
 2508TIP3    H1 7467   5.195   1.869   4.999
 2508TIP3    H2 7468   5.244   1.999   5.061
 2509TIP3   OH2 7469   7.488   3.220   3.299
 2509TIP3    H1 7470   7.468   3.308   3.266
 2509TIP3    H2 7471   7.472   3.227   3.393
 2510TIP3   OH2 7472   7.169   6.337   0.908
 2510TIP3    H1 7473   7.197   6.254   0.869
 2510TIP3    H2 7474   7.147   6.393   0.834
 2511TIP3   OH2 7475   8.306   0.327   4.837
 2511TIP3    H1 7476   8.235   0.368   4.886
 2511TIP3    H2 7477   8.280   0.235   4.830
 2512TIP3   OH2 7478   4.034   5.054   4.735
 2512TIP3    H1 7479   3.989   5.018   4.811
 2512TIP3    H2 7480   3.967   5.060   4.667
 2513TIP3   OH2 7481   0.663   3.971   4.575
 2513TIP3    H1 7482   0.595   3.966   4.508
 2513TIP3    H2 7483   0.739   4.007   4.530
 2514TIP3   OH2 7484   6.296   5.580   4.050
 2514TIP3    H1 7485   6.222   5.526   4.078
 2514TIP3    H2 7486   6.372   5.540   4.093
 2515TIP3   OH2 7487   6.827   2.051   4.840
 2515TIP3    H1 7488   6.885   1.980   4.867
 2515TIP3    H2 7489   6.763   2.058   4.911
 2516TIP3   OH2 7490   0.374   3.862   0.561
 2516TIP3    H1 7491   0.387   3.803   0.635
 2516TIP3    H2 7492   0.279   3.867   0.551
 2517TIP3   OH2 7493   7.372   2.207   2.575
 2517TIP3    H1 7494   7.401   2.149   2.646
 2517TIP3    H2 7495   7.382   2.155   2.495
 2518TIP3   OH2 7496   2.080   0.831   5.189
 2518TIP3    H1 7497   2.054   0.840   5.097
 2518TIP3    H2 7498   2.019   0.767   5.225
 2519TIP3   OH2 7499   6.640   4.558   6.413
 2519TIP3    H1 7500   6.710   4.606   6.370
 2519TIP3    H2 7501   6.674   4.469   6.422
 2520TIP3   OH2 7502   0.937   1.395   1.269
 2520TIP3    H1 7503   1.020   1.417   1.227
 2520TIP3    H2 7504   0.891   1.478   1.277
 2521TIP3   OH2 7505   4.679   4.617   5.142
 2521TIP3    H1 7506   4.754   4.575   5.099
 2521TIP3    H2 7507   4.714   4.649   5.225
 2522TIP3   OH2 7508   3.577   5.045   3.876
 2522TIP3    H1 7509   3.648   4.983   3.858
 2522TIP3    H2 7510   3.511   4.992   3.920
 2523TIP3   OH2 7511   3.942   3.702   6.525
 2523TIP3    H1 7512   3.973   3.654   6.602
 2523TIP3    H2 7513   3.979   3.654   6.451
 2524TIP3   OH2 7514   1.773   2.607   4.193
 2524TIP3    H1 7515   1.776   2.520   4.232
 2524TIP3    H2 7516   1.786   2.667   4.267
 2525TIP3   OH2 7517   0.838   2.709   2.656
 2525TIP3    H1 7518   0.906   2.766   2.621
 2525TIP3    H2 7519   0.856   2.623   2.618
 2526TIP3   OH2 7520   4.254   5.207   0.755
 2526TIP3    H1 7521   4.186   5.226   0.820
 2526TIP3    H2 7522   4.336   5.230   0.798
 2527TIP3   OH2 7523   3.267   4.099   0.925
 2527TIP3    H1 7524   3.307   4.027   0.877
 2527TIP3    H2 7525   3.231   4.156   0.857
 2528TIP3   OH2 7526   7.450   5.283   5.733
 2528TIP3    H1 7527   7.381   5.216   5.732
 2528TIP3    H2 7528   7.438   5.328   5.817
 2529TIP3   OH2 7529   4.021   3.388   1.017
 2529TIP3    H1 7530   4.054   3.384   1.107
 2529TIP3    H2 7531   4.099   3.408   0.964
 2530TIP3   OH2 7532   1.956   6.931   6.081
 2530TIP3    H1 7533   2.036   6.912   6.032
 2530TIP3    H2 7534   1.987   6.961   6.167
 2531TIP3   OH2 7535   0.286   1.206   2.386
 2531TIP3    H1 7536   0.245   1.173   2.466
 2531TIP3    H2 7537   0.379   1.214   2.408
 2532TIP3   OH2 7538   1.547   1.925   0.754
 2532TIP3    H1 7539   1.626   1.884   0.721
 2532TIP3    H2 7540   1.516   1.980   0.682
 2533TIP3   OH2 7541   3.887   6.682   2.350
 2533TIP3    H1 7542   3.841   6.630   2.285
 2533TIP3    H2 7543   3.823   6.748   2.378
 2534TIP3   OH2 7544   6.761   2.976   2.808
 2534TIP3    H1 7545   6.696   3.026   2.857
 2534TIP3    H2 7546   6.741   2.884   2.828
 2535TIP3   OH2 7547   4.575   3.554   2.854
 2535TIP3    H1 7548   4.540   3.638   2.886
 2535TIP3    H2 7549   4.503   3.492   2.866
 2536TIP3   OH2 7550   3.446   1.509   1.213
 2536TIP3    H1 7551   3.468   1.421   1.183
 2536TIP3    H2 7552   3.389   1.495   1.289
 2537TIP3   OH2 7553   0.729   7.197   1.215
 2537TIP3    H1 7554   0.684   7.157   1.290
 2537TIP3    H2 7555   0.804   7.139   1.199
 2538TIP3   OH2 7556   2.301   4.708   6.097
 2538TIP3    H1 7557   2.219   4.682   6.139
 2538TIP3    H2 7558   2.361   4.635   6.113
 2539TIP3   OH2 7559   4.250   4.619   3.970
 2539TIP3    H1 7560   4.316   4.555   3.943
 2539TIP3    H2 7561   4.227   4.593   4.059
 2540TIP3   OH2 7562   1.432   0.826   5.311
 2540TIP3    H1 7563   1.500   0.795   5.370
 2540TIP3    H2 7564   1.399   0.906   5.351
 2541TIP3   OH2 7565   1.970   6.348   1.313
 2541TIP3    H1 7566   1.885   6.381   1.343
 2541TIP3    H2 7567   1.952   6.309   1.227
 2542TIP3   OH2 7568   7.771   6.678   5.327
 2542TIP3    H1 7569   7.692   6.710   5.283
 2542TIP3    H2 7570   7.834   6.664   5.256
 2543TIP3   OH2 7571   4.750   6.289   3.160
 2543TIP3    H1 7572   4.759   6.201   3.197
 2543TIP3    H2 7573   4.690   6.277   3.086
 2544TIP3   OH2 7574   5.156   2.464   0.380
 2544TIP3    H1 7575   5.236   2.486   0.427
 2544TIP3    H2 7576   5.168   2.373   0.353
 2545TIP3   OH2 7577   4.586   6.552   6.382
 2545TIP3    H1 7578   4.651   6.483   6.396
 2545TIP3    H2 7579   4.502   6.506   6.381
 2546TIP3   OH2 7580   7.583   6.474   4.381
 2546TIP3    H1 7581   7.565   6.497   4.472
 2546TIP3    H2 7582   7.536   6.392   4.367
 2547TIP3   OH2 7583   6.620   1.240   2.742
 2547TIP3    H1 7584   6.599   1.275   2.655
 2547TIP3    H2 7585   6.707   1.274   2.761
 2548TIP3   OH2 7586   7.555   4.525   1.958
 2548TIP3    H1 7587   7.572   4.464   2.030
 2548TIP3    H2 7588   7.491   4.586   1.994
 2549TIP3   OH2 7589   4.723   4.872   4.910
 2549TIP3    H1 7590   4.651   4.930   4.935
 2549TIP3    H2 7591   4.777   4.864   4.989
 2550TIP3   OH2 7592   2.972   2.976   1.248
 2550TIP3    H1 7593   2.900   3.011   1.300
 2550TIP3    H2 7594   3.011   3.053   1.207
 2551TIP3   OH2 7595   7.359   4.673   1.239
 2551TIP3    H1 7596   7.439   4.647   1.284
 2551TIP3    H2 7597   7.294   4.685   1.308
 2552TIP3   OH2 7598   6.797   5.823   3.061
 2552TIP3    H1 7599   6.702   5.837   3.065
 2552TIP3    H2 7600   6.824   5.867   2.980
 2553TIP3   OH2 7601   2.447   2.845   4.287
 2553TIP3    H1 7602   2.354   2.866   4.294
 2553TIP3    H2 7603   2.491   2.908   4.344
 2554TIP3   OH2 7604   4.541   5.457   1.673
 2554TIP3    H1 7605   4.455   5.430   1.638
 2554TIP3    H2 7606   4.522   5.488   1.761
 2555TIP3   OH2 7607   6.909   6.200   1.181
 2555TIP3    H1 7608   6.931   6.288   1.150
 2555TIP3    H2 7609   6.967   6.187   1.256
 2556TIP3   OH2 7610   7.058   5.390   5.454
 2556TIP3    H1 7611   7.014   5.370   5.372
 2556TIP3    H2 7612   6.998   5.449   5.500
 2557TIP3   OH2 7613   6.725   7.203   4.648
 2557TIP3    H1 7614   6.758   7.169   4.564
 2557TIP3    H2 7615   6.803   7.220   4.700
 2558TIP3   OH2 7616   5.542   4.771   0.391
 2558TIP3    H1 7617   5.500   4.766   0.305
 2558TIP3    H2 7618   5.517   4.690   0.435
 2559TIP3   OH2 7619   7.996   6.583   4.004
 2559TIP3    H1 7620   8.005   6.488   4.016
 2559TIP3    H2 7621   8.069   6.621   4.053
 2560TIP3   OH2 7622   3.210   6.846   2.729
 2560TIP3    H1 7623   3.267   6.923   2.730
 2560TIP3    H2 7624   3.270   6.773   2.747
 2561TIP3   OH2 7625   1.842   6.788   5.151
 2561TIP3    H1 7626   1.787   6.776   5.228
 2561TIP3    H2 7627   1.877   6.876   5.161
 2562TIP3   OH2 7628   6.621   5.024   2.169
 2562TIP3    H1 7629   6.640   4.935   2.137
 2562TIP3    H2 7630   6.529   5.020   2.195
 2563TIP3   OH2 7631   0.951   2.092   5.206
 2563TIP3    H1 7632   1.027   2.057   5.252
 2563TIP3    H2 7633   0.950   2.185   5.229
 2564TIP3   OH2 7634   3.989   1.759   2.838
 2564TIP3    H1 7635   3.944   1.695   2.782
 2564TIP3    H2 7636   3.997   1.715   2.923
 2565TIP3   OH2 7637   4.563   4.046   2.162
 2565TIP3    H1 7638   4.527   4.108   2.225
 2565TIP3    H2 7639   4.488   4.021   2.108
 2566TIP3   OH2 7640   0.974   5.466   1.819
 2566TIP3    H1 7641   1.061   5.431   1.800
 2566TIP3    H2 7642   0.990   5.540   1.878
 2567TIP3   OH2 7643   3.889   3.047   4.549
 2567TIP3    H1 7644   3.951   2.989   4.505
 2567TIP3    H2 7645   3.938   3.087   4.620
 2568TIP3   OH2 7646   2.981   6.947   2.657
 2568TIP3    H1 7647   3.054   6.901   2.698
 2568TIP3    H2 7648   2.943   6.883   2.597
 2569TIP3   OH2 7649   0.555   2.138   6.246
 2569TIP3    H1 7650   0.593   2.223   6.223
 2569TIP3    H2 7651   0.629   2.078   6.243
 2570TIP3   OH2 7652   4.222   5.243   5.703
 2570TIP3    H1 7653   4.223   5.338   5.712
 2570TIP3    H2 7654   4.309   5.216   5.732
 2571TIP3   OH2 7655   4.012   6.578   1.129
 2571TIP3    H1 7656   3.982   6.628   1.205
 2571TIP3    H2 7657   4.102   6.552   1.152
 2572TIP3   OH2 7658   4.414   4.369   1.194
 2572TIP3    H1 7659   4.409   4.275   1.181
 2572TIP3    H2 7660   4.494   4.383   1.245
 2573TIP3   OH2 7661   4.748   3.912   6.393
 2573TIP3    H1 7662   4.766   3.928   6.300
 2573TIP3    H2 7663   4.739   3.817   6.400
 2574TIP3   OH2 7664   6.872   0.842   2.969
 2574TIP3    H1 7665   6.914   0.875   3.048
 2574TIP3    H2 7666   6.941   0.795   2.922
 2575TIP3   OH2 7667   3.299   0.929   4.271
 2575TIP3    H1 7668   3.393   0.909   4.266
 2575TIP3    H2 7669   3.293   1.021   4.246
 2576TIP3   OH2 7670   2.869   5.346   5.362
 2576TIP3    H1 7671   2.864   5.315   5.453
 2576TIP3    H2 7672   2.778   5.343   5.332
 2577TIP3   OH2 7673   6.848   1.649   4.066
 2577TIP3    H1 7674   6.910   1.692   4.126
 2577TIP3    H2 7675   6.847   1.558   4.095
 2578TIP3   OH2 7676   1.843   7.664   4.603
 2578TIP3    H1 7677   1.893   7.712   4.537
 2578TIP3    H2 7678   1.753   7.667   4.572
 2579TIP3   OH2 7679   6.845   5.303   1.337
 2579TIP3    H1 7680   6.869   5.317   1.246
 2579TIP3    H2 7681   6.791   5.224   1.337
 2580TIP3   OH2 7682   1.382   1.905   0.974
 2580TIP3    H1 7683   1.436   1.854   1.033
 2580TIP3    H2 7684   1.425   1.897   0.888
 2581TIP3   OH2 7685   3.103   7.169   2.509
 2581TIP3    H1 7686   3.017   7.194   2.473
 2581TIP3    H2 7687   3.085   7.090   2.559
 2582TIP3   OH2 7688   6.972   2.416   4.231
 2582TIP3    H1 7689   7.023   2.363   4.292
 2582TIP3    H2 7690   6.928   2.480   4.286
 2583TIP3   OH2 7691   5.005   0.410   4.351
 2583TIP3    H1 7692   4.931   0.349   4.348
 2583TIP3    H2 7693   5.070   0.366   4.406
 2584TIP3   OH2 7694   2.449   5.176   6.127
 2584TIP3    H1 7695   2.508   5.242   6.091
 2584TIP3    H2 7696   2.408   5.136   6.050
 2585TIP3   OH2 7697   4.331   4.666   3.650
 2585TIP3    H1 7698   4.260   4.728   3.670
 2585TIP3    H2 7699   4.329   4.603   3.723
 2586TIP3   OH2 7700   1.193   3.111   3.470
 2586TIP3    H1 7701   1.195   3.037   3.531
 2586TIP3    H2 7702   1.178   3.187   3.526
 2587TIP3   OH2 7703   3.993   5.945   2.302
 2587TIP3    H1 7704   4.043   5.895   2.237
 2587TIP3    H2 7705   3.902   5.935   2.276
 2588TIP3   OH2 7706   0.956   3.822   2.353
 2588TIP3    H1 7707   1.003   3.830   2.270
 2588TIP3    H2 7708   0.962   3.909   2.393
 2589TIP3   OH2 7709   3.562   3.123   1.582
 2589TIP3    H1 7710   3.587   3.182   1.511
 2589TIP3    H2 7711   3.628   3.139   1.650
 2590TIP3   OH2 7712   0.692   0.685   5.054
 2590TIP3    H1 7713   0.706   0.779   5.060
 2590TIP3    H2 7714   0.778   0.647   5.072
 2591TIP3   OH2 7715   6.069   3.038   4.953
 2591TIP3    H1 7716   6.124   2.982   5.007
 2591TIP3    H2 7717   6.088   3.010   4.863
 2592TIP3   OH2 7718   6.209   2.562   2.231
 2592TIP3    H1 7719   6.280   2.606   2.183
 2592TIP3    H2 7720   6.138   2.554   2.167
 2593TIP3   OH2 7721   7.991   0.591   1.805
 2593TIP3    H1 7722   8.061   0.526   1.817
 2593TIP3    H2 7723   7.915   0.538   1.781
 2594TIP3   OH2 7724   2.201   5.879   1.105
 2594TIP3    H1 7725   2.239   5.954   1.150
 2594TIP3    H2 7726   2.164   5.916   1.025
 2595TIP3   OH2 7727   5.238   1.310   2.950
 2595TIP3    H1 7728   5.298   1.255   3.001
 2595TIP3    H2 7729   5.166   1.329   3.011
 2596TIP3   OH2 7730   5.320   0.338   5.369
 2596TIP3    H1 7731   5.400   0.289   5.389
 2596TIP3    H2 7732   5.335   0.424   5.409
 2597TIP3   OH2 7733   3.360   2.590   3.353
 2597TIP3    H1 7734   3.341   2.560   3.442
 2597TIP3    H2 7735   3.346   2.513   3.298
 2598TIP3   OH2 7736   5.075   2.349   5.764
 2598TIP3    H1 7737   5.008   2.281   5.773
 2598TIP3    H2 7738   5.033   2.417   5.711
 2599TIP3   OH2 7739   4.711   6.633   5.384
 2599TIP3    H1 7740   4.758   6.631   5.467
 2599TIP3    H2 7741   4.619   6.642   5.409
 2600TIP3   OH2 7742   0.597   3.082   5.696
 2600TIP3    H1 7743   0.562   3.004   5.740
 2600TIP3    H2 7744   0.678   3.102   5.744
 2601TIP3   OH2 7745   0.776   7.106   3.802
 2601TIP3    H1 7746   0.858   7.081   3.844
 2601TIP3    H2 7747   0.778   7.202   3.798
 2602TIP3   OH2 7748   2.387   4.938   0.311
 2602TIP3    H1 7749   2.370   4.867   0.249
 2602TIP3    H2 7750   2.303   4.952   0.354
 2603TIP3   OH2 7751   5.451   5.584   3.687
 2603TIP3    H1 7752   5.494   5.666   3.663
 2603TIP3    H2 7753   5.445   5.535   3.605
 2604TIP3   OH2 7754   6.946   3.551   3.406
 2604TIP3    H1 7755   6.921   3.565   3.315
 2604TIP3    H2 7756   7.035   3.585   3.412
 2605TIP3   OH2 7757   1.131   5.795   0.099
 2605TIP3    H1 7758   1.174   5.737   0.036
 2605TIP3    H2 7759   1.109   5.738   0.173
 2606TIP3   OH2 7760   5.533   2.655   1.805
 2606TIP3    H1 7761   5.547   2.738   1.850
 2606TIP3    H2 7762   5.619   2.632   1.769
 2607TIP3   OH2 7763   6.938   7.537   1.018
 2607TIP3    H1 7764   6.861   7.571   0.972
 2607TIP3    H2 7765   7.003   7.608   1.011
 2608TIP3   OH2 7766   4.896   4.002   1.386
 2608TIP3    H1 7767   4.884   4.001   1.481
 2608TIP3    H2 7768   4.987   3.976   1.373
 2609TIP3   OH2 7769   2.295   5.444   0.369
 2609TIP3    H1 7770   2.217   5.406   0.408
 2609TIP3    H2 7771   2.301   5.532   0.406
 2610TIP3   OH2 7772   7.140   5.354   5.961
 2610TIP3    H1 7773   7.138   5.314   5.874
 2610TIP3    H2 7774   7.048   5.353   5.990
 2611TIP3   OH2 7775   3.999   5.428   5.374
 2611TIP3    H1 7776   4.078   5.466   5.336
 2611TIP3    H2 7777   3.979   5.483   5.450
 2612TIP3   OH2 7778   2.485   7.816   6.082
 2612TIP3    H1 7779   2.417   7.767   6.128
 2612TIP3    H2 7780   2.565   7.768   6.100
 2613TIP3   OH2 7781   4.229   3.036   5.520
 2613TIP3    H1 7782   4.173   3.020   5.596
 2613TIP3    H2 7783   4.217   3.129   5.501
 2614TIP3   OH2 7784   0.492   4.424   1.427
 2614TIP3    H1 7785   0.462   4.512   1.447
 2614TIP3    H2 7786   0.433   4.366   1.474
 2615TIP3   OH2 7787   1.904   0.520   2.157
 2615TIP3    H1 7788   1.846   0.597   2.160
 2615TIP3    H2 7789   1.984   0.549   2.202
 2616TIP3   OH2 7790   6.843   4.110   5.283
 2616TIP3    H1 7791   6.807   4.156   5.359
 2616TIP3    H2 7792   6.778   4.123   5.214
 2617TIP3   OH2 7793   2.251   7.452   5.304
 2617TIP3    H1 7794   2.228   7.491   5.220
 2617TIP3    H2 7795   2.205   7.506   5.369
 2618TIP3   OH2 7796   5.881   3.828   1.516
 2618TIP3    H1 7797   5.839   3.901   1.471
 2618TIP3    H2 7798   5.826   3.753   1.497
 2619TIP3   OH2 7799   2.145   0.103   0.398
 2619TIP3    H1 7800   2.050   0.096   0.409
 2619TIP3    H2 7801   2.157   0.109   0.303
 2620TIP3   OH2 7802   5.520   1.053   4.733
 2620TIP3    H1 7803   5.490   1.001   4.659
 2620TIP3    H2 7804   5.518   1.143   4.701
 2621TIP3   OH2 7805   2.637   6.312   1.771
 2621TIP3    H1 7806   2.671   6.222   1.771
 2621TIP3    H2 7807   2.673   6.350   1.851
 2622TIP3   OH2 7808   1.917   6.782   6.596
 2622TIP3    H1 7809   1.889   6.775   6.687
 2622TIP3    H2 7810   1.908   6.694   6.560
 2623TIP3   OH2 7811   4.524   3.824   2.941
 2623TIP3    H1 7812   4.529   3.793   3.032
 2623TIP3    H2 7813   4.430   3.831   2.924
 2624TIP3   OH2 7814   3.213   7.740   0.889
 2624TIP3    H1 7815   3.226   7.835   0.899
 2624TIP3    H2 7816   3.130   7.723   0.933
 2625TIP3   OH2 7817   1.810   3.474   6.712
 2625TIP3    H1 7818   1.810   3.379   6.712
 2625TIP3    H2 7819   1.728   3.498   6.756
 2626TIP3   OH2 7820   1.660   1.110   1.888
 2626TIP3    H1 7821   1.594   1.122   1.956
 2626TIP3    H2 7822   1.698   1.197   1.876
 2627TIP3   OH2 7823   3.576   4.028   1.509
 2627TIP3    H1 7824   3.646   4.067   1.561
 2627TIP3    H2 7825   3.499   4.031   1.566
 2628TIP3   OH2 7826   4.683   2.097   3.428
 2628TIP3    H1 7827   4.678   2.032   3.498
 2628TIP3    H2 7828   4.619   2.067   3.363
 2629TIP3   OH2 7829   0.170   3.890   1.555
 2629TIP3    H1 7830   0.241   3.891   1.491
 2629TIP3    H2 7831   0.214   3.883   1.640
 2630TIP3   OH2 7832   5.201   6.481   0.693
 2630TIP3    H1 7833   5.286   6.454   0.658
 2630TIP3    H2 7834   5.140   6.413   0.664
 2631TIP3   OH2 7835   3.428   4.516   2.155
 2631TIP3    H1 7836   3.409   4.604   2.123
 2631TIP3    H2 7837   3.520   4.519   2.181
 2632TIP3   OH2 7838   5.332   3.840   0.250
 2632TIP3    H1 7839   5.357   3.900   0.320
 2632TIP3    H2 7840   5.341   3.753   0.289
 2633TIP3   OH2 7841   1.019   5.278   3.140
 2633TIP3    H1 7842   1.102   5.233   3.129
 2633TIP3    H2 7843   0.970   5.261   3.060
 2634TIP3   OH2 7844   5.496   1.121   6.210
 2634TIP3    H1 7845   5.445   1.046   6.179
 2634TIP3    H2 7846   5.474   1.192   6.149
 2635TIP3   OH2 7847   1.306   4.528   1.151
 2635TIP3    H1 7848   1.324   4.542   1.058
 2635TIP3    H2 7849   1.263   4.442   1.154
 2636TIP3   OH2 7850   7.585   1.893   4.119
 2636TIP3    H1 7851   7.505   1.921   4.075
 2636TIP3    H2 7852   7.654   1.910   4.054
 2637TIP3   OH2 7853   4.841   5.299   3.521
 2637TIP3    H1 7854   4.927   5.340   3.528
 2637TIP3    H2 7855   4.859   5.205   3.526
 2638TIP3   OH2 7856   7.099   3.462   2.781
 2638TIP3    H1 7857   7.101   3.417   2.697
 2638TIP3    H2 7858   7.131   3.397   2.844
 2639TIP3   OH2 7859   4.036   0.622   6.499
 2639TIP3    H1 7860   4.113   0.596   6.549
 2639TIP3    H2 7861   4.055   0.594   6.410
 2640TIP3   OH2 7862   4.129   2.176   1.324
 2640TIP3    H1 7863   4.152   2.266   1.302
 2640TIP3    H2 7864   4.037   2.168   1.297
 2641TIP3   OH2 7865   1.872   2.349   3.629
 2641TIP3    H1 7866   1.911   2.431   3.598
 2641TIP3    H2 7867   1.931   2.319   3.698
 2642TIP3   OH2 7868   0.236   7.790   2.921
 2642TIP3    H1 7869   0.143   7.776   2.943
 2642TIP3    H2 7870   0.247   7.885   2.925
 2643TIP3   OH2 7871   7.810   6.959   6.289
 2643TIP3    H1 7872   7.789   7.031   6.348
 2643TIP3    H2 7873   7.820   6.883   6.347
 2644TIP3   OH2 7874   0.772   4.960   0.496
 2644TIP3    H1 7875   0.804   5.044   0.462
 2644TIP3    H2 7876   0.724   4.921   0.423
 2645TIP3   OH2 7877   6.867   6.518   0.301
 2645TIP3    H1 7878   6.915   6.436   0.310
 2645TIP3    H2 7879   6.902   6.573   0.372
 2646TIP3   OH2 7880   1.638   4.524   4.924
 2646TIP3    H1 7881   1.596   4.440   4.944
 2646TIP3    H2 7882   1.651   4.522   4.829
 2647TIP3   OH2 7883   3.631   3.142   6.693
 2647TIP3    H1 7884   3.621   3.062   6.641
 2647TIP3    H2 7885   3.549   3.147   6.743
 2648TIP3   OH2 7886   5.099   0.538   2.611
 2648TIP3    H1 7887   5.108   0.479   2.687
 2648TIP3    H2 7888   5.108   0.480   2.535
 2649TIP3   OH2 7889   5.464   0.310   2.231
 2649TIP3    H1 7890   5.486   0.225   2.269
 2649TIP3    H2 7891   5.387   0.294   2.177
 2650TIP3   OH2 7892   7.771   2.520   4.806
 2650TIP3    H1 7893   7.739   2.444   4.856
 2650TIP3    H2 7894   7.799   2.483   4.722
 2651TIP3   OH2 7895   0.018   0.828   6.092
 2651TIP3    H1 7896   0.054   0.913   6.119
 2651TIP3    H2 7897   0.034   0.770   6.166
 2652TIP3   OH2 7898   5.116   7.450   0.150
 2652TIP3    H1 7899   5.126   7.397   0.071
 2652TIP3    H2 7900   5.021   7.457   0.163
 2653TIP3   OH2 7901   1.428   3.928   5.664
 2653TIP3    H1 7902   1.429   3.982   5.743
 2653TIP3    H2 7903   1.477   3.849   5.688
 2654TIP3   OH2 7904   3.062   2.656   0.680
 2654TIP3    H1 7905   3.045   2.562   0.672
 2654TIP3    H2 7906   3.113   2.677   0.601
 2655TIP3   OH2 7907   2.320   5.713   1.333
 2655TIP3    H1 7908   2.321   5.797   1.287
 2655TIP3    H2 7909   2.411   5.700   1.360
 2656TIP3   OH2 7910   7.059   6.270   3.767
 2656TIP3    H1 7911   6.991   6.296   3.829
 2656TIP3    H2 7912   7.130   6.333   3.781
 2657TIP3   OH2 7913   1.545   7.143   6.375
 2657TIP3    H1 7914   1.592   7.098   6.445
 2657TIP3    H2 7915   1.593   7.225   6.363
 2658TIP3   OH2 7916   7.366   7.458   2.060
 2658TIP3    H1 7917   7.317   7.536   2.084
 2658TIP3    H2 7918   7.434   7.451   2.127
 2659TIP3   OH2 7919   3.543   6.974   4.916
 2659TIP3    H1 7920   3.450   6.984   4.936
 2659TIP3    H2 7921   3.565   7.051   4.863
 2660TIP3   OH2 7922   3.922   4.178   6.755
 2660TIP3    H1 7923   3.848   4.129   6.720
 2660TIP3    H2 7924   3.903   4.269   6.734
 2661TIP3   OH2 7925   5.773   7.663   3.103
 2661TIP3    H1 7926   5.705   7.712   3.056
 2661TIP3    H2 7927   5.749   7.670   3.195
 2662TIP3   OH2 7928   5.778   0.296   5.275
 2662TIP3    H1 7929   5.868   0.313   5.301
 2662TIP3    H2 7930   5.751   0.375   5.228
 2663TIP3   OH2 7931   2.361   1.634   5.344
 2663TIP3    H1 7932   2.455   1.632   5.360
 2663TIP3    H2 7933   2.352   1.665   5.254
 2664TIP3   OH2 7934   7.859   0.774   4.185
 2664TIP3    H1 7935   7.823   0.861   4.170
 2664TIP3    H2 7936   7.799   0.733   4.248
 2665TIP3   OH2 7937   7.843   0.924   5.510
 2665TIP3    H1 7938   7.911   0.956   5.570
 2665TIP3    H2 7939   7.794   1.002   5.487
 2666TIP3   OH2 7940   2.299   6.635   0.371
 2666TIP3    H1 7941   2.306   6.582   0.292
 2666TIP3    H2 7942   2.343   6.584   0.438
 2667TIP3   OH2 7943   7.143   5.149   2.377
 2667TIP3    H1 7944   7.141   5.234   2.422
 2667TIP3    H2 7945   7.114   5.168   2.288
 2668TIP3   OH2 7946   4.814   1.000   4.262
 2668TIP3    H1 7947   4.848   1.077   4.218
 2668TIP3    H2 7948   4.743   0.969   4.205
 2669TIP3   OH2 7949   6.100   4.443   2.075
 2669TIP3    H1 7950   6.046   4.470   2.000
 2669TIP3    H2 7951   6.086   4.511   2.140
 2670TIP3   OH2 7952   0.625   6.378   6.394
 2670TIP3    H1 7953   0.677   6.442   6.346
 2670TIP3    H2 7954   0.620   6.413   6.483
 2671TIP3   OH2 7955   0.588   2.216   0.185
 2671TIP3    H1 7956   0.595   2.273   0.108
 2671TIP3    H2 7957   0.630   2.266   0.255
 2672TIP3   OH2 7958   1.692   1.483   2.663
 2672TIP3    H1 7959   1.716   1.501   2.754
 2672TIP3    H2 7960   1.740   1.548   2.612
 2673TIP3   OH2 7961   4.968   2.659   2.664
 2673TIP3    H1 7962   4.987   2.732   2.605
 2673TIP3    H2 7963   5.051   2.642   2.708
 2674TIP3   OH2 7964   4.542   0.447   3.817
 2674TIP3    H1 7965   4.587   0.519   3.861
 2674TIP3    H2 7966   4.455   0.445   3.857
 2675TIP3   OH2 7967   7.485   0.528   4.820
 2675TIP3    H1 7968   7.399   0.510   4.856
 2675TIP3    H2 7969   7.468   0.568   4.734
 2676TIP3   OH2 7970   1.254   5.258   6.646
 2676TIP3    H1 7971   1.181   5.301   6.602
 2676TIP3    H2 7972   1.331   5.310   6.621
 2677TIP3   OH2 7973   7.067   3.418   1.950
 2677TIP3    H1 7974   6.998   3.364   1.913
 2677TIP3    H2 7975   7.037   3.438   2.039
 2678TIP3   OH2 7976   7.329   6.417   2.022
 2678TIP3    H1 7977   7.240   6.390   2.000
 2678TIP3    H2 7978   7.352   6.481   1.954
 2679TIP3   OH2 7979   7.525   5.709   5.034
 2679TIP3    H1 7980   7.454   5.772   5.025
 2679TIP3    H2 7981   7.605   5.761   5.026
 2680TIP3   OH2 7982   4.109   3.233   0.179
 2680TIP3    H1 7983   4.045   3.167   0.151
 2680TIP3    H2 7984   4.108   3.229   0.274
 2681TIP3   OH2 7985   0.290   7.348   5.154
 2681TIP3    H1 7986   0.340   7.400   5.091
 2681TIP3    H2 7987   0.346   7.345   5.232
 2682TIP3   OH2 7988   2.358   0.551   5.566
 2682TIP3    H1 7989   2.453   0.562   5.574
 2682TIP3    H2 7990   2.341   0.564   5.473
 2683TIP3   OH2 7991   5.270   1.464   1.621
 2683TIP3    H1 7992   5.257   1.540   1.565
 2683TIP3    H2 7993   5.364   1.448   1.619
 2684TIP3   OH2 7994   2.295   1.673   3.104
 2684TIP3    H1 7995   2.297   1.750   3.159
 2684TIP3    H2 7996   2.320   1.705   3.017
 2685TIP3   OH2 7997   8.111   5.193   3.749
 2685TIP3    H1 7998   8.028   5.156   3.780
 2685TIP3    H2 7999   8.162   5.207   3.829
 2686TIP3   OH2 8000   6.319   0.418   0.681
 2686TIP3    H1 8001   6.279   0.426   0.594
 2686TIP3    H2 8002   6.383   0.348   0.672
 2687TIP3   OH2 8003   8.122   1.235   3.079
 2687TIP3    H1 8004   8.153   1.192   2.999
 2687TIP3    H2 8005   8.031   1.208   3.087
 2688TIP3   OH2 8006   6.219   5.322   2.231
 2688TIP3    H1 8007   6.248   5.233   2.214
 2688TIP3    H2 8008   6.192   5.322   2.323
 2689TIP3   OH2 8009   6.560   1.049   5.161
 2689TIP3    H1 8010   6.516   1.082   5.240
 2689TIP3    H2 8011   6.582   1.127   5.112
 2690TIP3   OH2 8012   3.299   3.134   1.514
 2690TIP3    H1 8013   3.323   3.116   1.423
 2690TIP3    H2 8014   3.382   3.135   1.560
 2691TIP3   OH2 8015   4.047   0.809   5.569
 2691TIP3    H1 8016   3.958   0.781   5.546
 2691TIP3    H2 8017   4.096   0.727   5.575
 2692TIP3   OH2 8018   1.955   3.838   0.512
 2692TIP3    H1 8019   1.935   3.744   0.504
 2692TIP3    H2 8020   2.047   3.841   0.537
 2693TIP3   OH2 8021   3.171   0.885   1.694
 2693TIP3    H1 8022   3.135   0.823   1.631
 2693TIP3    H2 8023   3.189   0.833   1.772
 2694TIP3   OH2 8024   4.119   1.638   3.956
 2694TIP3    H1 8025   4.069   1.593   4.025
 2694TIP3    H2 8026   4.156   1.715   3.999
 2695TIP3   OH2 8027   5.932   1.141   1.657
 2695TIP3    H1 8028   5.965   1.056   1.628
 2695TIP3    H2 8029   5.842   1.144   1.623
 2696TIP3   OH2 8030   1.966   7.178   3.623
 2696TIP3    H1 8031   2.015   7.260   3.633
 2696TIP3    H2 8032   1.929   7.183   3.534
 2697TIP3   OH2 8033   6.057   2.781   0.596
 2697TIP3    H1 8034   6.109   2.856   0.567
 2697TIP3    H2 8035   6.108   2.705   0.568
 2698TIP3   OH2 8036   8.095   5.822   2.680
 2698TIP3    H1 8037   8.074   5.737   2.718
 2698TIP3    H2 8038   8.177   5.848   2.723
 2699TIP3   OH2 8039   1.964   7.413   1.891
 2699TIP3    H1 8040   2.003   7.418   1.804
 2699TIP3    H2 8041   1.970   7.320   1.914
 2700TIP3   OH2 8042   1.780   3.820   2.628
 2700TIP3    H1 8043   1.735   3.878   2.567
 2700TIP3    H2 8044   1.854   3.872   2.660
 2701TIP3   OH2 8045   4.515   6.780   3.767
 2701TIP3    H1 8046   4.498   6.688   3.746
 2701TIP3    H2 8047   4.430   6.823   3.755
 2702TIP3   OH2 8048   0.174   5.670   4.601
 2702TIP3    H1 8049   0.149   5.693   4.690
 2702TIP3    H2 8050   0.243   5.733   4.578
 2703TIP3   OH2 8051   4.078   7.742   6.575
 2703TIP3    H1 8052   4.132   7.664   6.592
 2703TIP3    H2 8053   4.053   7.774   6.661
 2704TIP3   OH2 8054   7.745   3.788   6.040
 2704TIP3    H1 8055   7.772   3.872   6.076
 2704TIP3    H2 8056   7.650   3.791   6.038
 2705TIP3   OH2 8057   0.379   4.187   0.965
 2705TIP3    H1 8058   0.458   4.150   1.005
 2705TIP3    H2 8059   0.395   4.282   0.965
 2706TIP3   OH2 8060   3.875   6.407   6.136
 2706TIP3    H1 8061   3.785   6.407   6.102
 2706TIP3    H2 8062   3.863   6.405   6.231
 2707TIP3   OH2 8063   6.360   4.227   3.591
 2707TIP3    H1 8064   6.298   4.200   3.658
 2707TIP3    H2 8065   6.327   4.189   3.510
 2708TIP3   OH2 8066   2.775   5.379   4.434
 2708TIP3    H1 8067   2.828   5.347   4.361
 2708TIP3    H2 8068   2.707   5.313   4.446
 2709TIP3   OH2 8069   4.203   4.273   0.803
 2709TIP3    H1 8070   4.256   4.342   0.764
 2709TIP3    H2 8071   4.134   4.257   0.739
 2710TIP3   OH2 8072   8.035   0.551   2.666
 2710TIP3    H1 8073   8.106   0.611   2.641
 2710TIP3    H2 8074   7.977   0.549   2.590
 2711TIP3   OH2 8075   7.482   6.446   1.474
 2711TIP3    H1 8076   7.486   6.532   1.515
 2711TIP3    H2 8077   7.392   6.417   1.488
 2712TIP3   OH2 8078   0.528   1.988   4.687
 2712TIP3    H1 8079   0.448   2.013   4.734
 2712TIP3    H2 8080   0.496   1.935   4.614
 2713TIP3   OH2 8081   3.193   5.050   2.510
 2713TIP3    H1 8082   3.122   4.992   2.533
 2713TIP3    H2 8083   3.182   5.066   2.416
 2714TIP3   OH2 8084   2.400   7.339   5.033
 2714TIP3    H1 8085   2.477   7.384   5.068
 2714TIP3    H2 8086   2.430   7.304   4.949
 2715TIP3   OH2 8087   2.765   6.089   0.655
 2715TIP3    H1 8088   2.705   6.058   0.723
 2715TIP3    H2 8089   2.725   6.062   0.573
 2716TIP3   OH2 8090   0.514   3.222   6.511
 2716TIP3    H1 8091   0.437   3.198   6.563
 2716TIP3    H2 8092   0.485   3.297   6.460
 2717TIP3   OH2 8093   2.238   7.526   4.278
 2717TIP3    H1 8094   2.212   7.540   4.369
 2717TIP3    H2 8095   2.174   7.462   4.245
 2718TIP3   OH2 8096   0.627   0.753   0.876
 2718TIP3    H1 8097   0.721   0.770   0.885
 2718TIP3    H2 8098   0.613   0.746   0.782
 2719TIP3   OH2 8099   7.910   5.521   2.857
 2719TIP3    H1 8100   7.859   5.602   2.859
 2719TIP3    H2 8101   7.983   5.539   2.798
 2720TIP3   OH2 8102   1.720   7.280   0.202
 2720TIP3    H1 8103   1.628   7.296   0.221
 2720TIP3    H2 8104   1.725   7.186   0.186
 2721TIP3   OH2 8105   1.827   3.965   3.256
 2721TIP3    H1 8106   1.764   3.919   3.312
 2721TIP3    H2 8107   1.895   3.994   3.317
 2722TIP3   OH2 8108   5.238   0.676   0.936
 2722TIP3    H1 8109   5.207   0.591   0.968
 2722TIP3    H2 8110   5.320   0.656   0.890
 2723TIP3   OH2 8111   0.624   2.898   1.735
 2723TIP3    H1 8112   0.659   2.987   1.726
 2723TIP3    H2 8113   0.544   2.909   1.787
 2724TIP3   OH2 8114   5.589   2.630   5.416
 2724TIP3    H1 8115   5.624   2.641   5.327
 2724TIP3    H2 8116   5.504   2.588   5.403
 2725TIP3   OH2 8117   0.387   6.181   0.992
 2725TIP3    H1 8118   0.370   6.099   0.946
 2725TIP3    H2 8119   0.300   6.215   1.014
 2726TIP3   OH2 8120   1.388   0.250   2.277
 2726TIP3    H1 8121   1.392   0.253   2.373
 2726TIP3    H2 8122   1.457   0.310   2.248
 2727TIP3   OH2 8123   3.400   7.312   3.049
 2727TIP3    H1 8124   3.414   7.334   3.141
 2727TIP3    H2 8125   3.435   7.388   3.002
 2728TIP3   OH2 8126   6.810   1.078   0.701
 2728TIP3    H1 8127   6.775   1.015   0.764
 2728TIP3    H2 8128   6.735   1.098   0.644
 2729TIP3   OH2 8129   2.735   3.778   2.707
 2729TIP3    H1 8130   2.678   3.785   2.631
 2729TIP3    H2 8131   2.814   3.735   2.674
 2730TIP3   OH2 8132   0.627   0.452   3.633
 2730TIP3    H1 8133   0.714   0.461   3.673
 2730TIP3    H2 8134   0.601   0.541   3.612
 2731TIP3   OH2 8135   4.929   5.658   3.248
 2731TIP3    H1 8136   4.875   5.728   3.211
 2731TIP3    H2 8137   4.966   5.694   3.328
 2732TIP3   OH2 8138   6.817   1.733   6.701
 2732TIP3    H1 8139   6.895   1.681   6.720
 2732TIP3    H2 8140   6.823   1.751   6.607
 2733TIP3   OH2 8141   6.959   5.500   4.102
 2733TIP3    H1 8142   7.020   5.499   4.028
 2733TIP3    H2 8143   6.891   5.562   4.076
 2734TIP3   OH2 8144   4.636   3.969   1.066
 2734TIP3    H1 8145   4.688   3.903   1.022
 2734TIP3    H2 8146   4.570   3.995   1.002
 2735TIP3   OH2 8147   4.980   7.584   5.636
 2735TIP3    H1 8148   4.941   7.514   5.689
 2735TIP3    H2 8149   5.050   7.541   5.587
 2736TIP3   OH2 8150   1.483   6.110   6.521
 2736TIP3    H1 8151   1.499   6.047   6.592
 2736TIP3    H2 8152   1.388   6.120   6.518
 2737TIP3   OH2 8153   4.480   5.749   2.266
 2737TIP3    H1 8154   4.448   5.759   2.176
 2737TIP3    H2 8155   4.402   5.729   2.317
 2738TIP3   OH2 8156   7.938   2.807   4.225
 2738TIP3    H1 8157   7.932   2.711   4.223
 2738TIP3    H2 8158   7.911   2.830   4.314
 2739TIP3   OH2 8159   6.158   6.592   2.259
 2739TIP3    H1 8160   6.200   6.666   2.304
 2739TIP3    H2 8161   6.088   6.565   2.318
 2740TIP3   OH2 8162   5.018   1.382   4.997
 2740TIP3    H1 8163   4.986   1.466   4.965
 2740TIP3    H2 8164   5.082   1.405   5.065
 2741TIP3   OH2 8165   0.171   6.272   0.522
 2741TIP3    H1 8166   0.133   6.260   0.435
 2741TIP3    H2 8167   0.095   6.269   0.581
 2742TIP3   OH2 8168   0.718   4.748   0.788
 2742TIP3    H1 8169   0.730   4.843   0.777
 2742TIP3    H2 8170   0.630   4.731   0.754
 2743TIP3   OH2 8171   0.820   3.592   4.639
 2743TIP3    H1 8172   0.741   3.603   4.586
 2743TIP3    H2 8173   0.806   3.509   4.685
 2744TIP3   OH2 8174   4.992   1.072   2.678
 2744TIP3    H1 8175   5.083   1.100   2.665
 2744TIP3    H2 8176   4.988   0.984   2.642
 2745TIP3   OH2 8177   3.845   7.720   4.917
 2745TIP3    H1 8178   3.884   7.644   4.873
 2745TIP3    H2 8179   3.876   7.796   4.868
 2746TIP3   OH2 8180   6.984   3.920   1.765
 2746TIP3    H1 8181   6.911   3.972   1.800
 2746TIP3    H2 8182   6.948   3.832   1.757
 2747TIP3   OH2 8183   6.414   5.541   0.465
 2747TIP3    H1 8184   6.360   5.614   0.494
 2747TIP3    H2 8185   6.423   5.485   0.542
 2748TIP3   OH2 8186   6.162   1.296   2.987
 2748TIP3    H1 8187   6.183   1.333   3.073
 2748TIP3    H2 8188   6.086   1.240   3.003
 2749TIP3   OH2 8189   2.752   0.474   5.915
 2749TIP3    H1 8190   2.785   0.401   5.968
 2749TIP3    H2 8191   2.657   0.460   5.913
 2750TIP3   OH2 8192   4.080   7.518   4.072
 2750TIP3    H1 8193   4.045   7.605   4.053
 2750TIP3    H2 8194   4.036   7.491   4.153
 2751TIP3   OH2 8195   4.030   4.479   3.735
 2751TIP3    H1 8196   3.941   4.450   3.714
 2751TIP3    H2 8197   4.037   4.565   3.694
 2752TIP3   OH2 8198   0.514   6.512   5.760
 2752TIP3    H1 8199   0.495   6.562   5.840
 2752TIP3    H2 8200   0.479   6.425   5.778
 2753TIP3   OH2 8201   7.341   0.644   3.046
 2753TIP3    H1 8202   7.429   0.615   3.070
 2753TIP3    H2 8203   7.303   0.676   3.127
 2754TIP3   OH2 8204   2.125   4.838   2.632
 2754TIP3    H1 8205   2.215   4.821   2.661
 2754TIP3    H2 8206   2.131   4.918   2.580
 2755TIP3   OH2 8207   5.843   6.070   3.298
 2755TIP3    H1 8208   5.760   6.048   3.255
 2755TIP3    H2 8209   5.819   6.136   3.363
 2756TIP3   OH2 8210   3.819   6.525   0.859
 2756TIP3    H1 8211   3.907   6.499   0.883
 2756TIP3    H2 8212   3.781   6.559   0.940
 2757TIP3   OH2 8213   3.054   6.762   0.486
 2757TIP3    H1 8214   3.120   6.724   0.428
 2757TIP3    H2 8215   3.104   6.805   0.555
 2758TIP3   OH2 8216   0.129   0.917   0.933
 2758TIP3    H1 8217   0.137   0.875   0.847
 2758TIP3    H2 8218   0.041   0.893   0.963
 2759TIP3   OH2 8219   5.913   1.422   4.114
 2759TIP3    H1 8220   5.871   1.338   4.097
 2759TIP3    H2 8221   5.852   1.467   4.173
 2760TIP3   OH2 8222   1.607   6.813   1.198
 2760TIP3    H1 8223   1.514   6.824   1.181
 2760TIP3    H2 8224   1.646   6.802   1.111
 2761TIP3   OH2 8225   4.623   1.136   1.820
 2761TIP3    H1 8226   4.627   1.044   1.795
 2761TIP3    H2 8227   4.622   1.184   1.737
 2762TIP3   OH2 8228   7.904   2.441   2.002
 2762TIP3    H1 8229   7.922   2.483   1.918
 2762TIP3    H2 8230   7.985   2.393   2.022
 2763TIP3   OH2 8231   6.413   2.231   4.481
 2763TIP3    H1 8232   6.505   2.214   4.498
 2763TIP3    H2 8233   6.368   2.203   4.561
 2764TIP3   OH2 8234   0.568   1.782   0.170
 2764TIP3    H1 8235   0.480   1.798   0.204
 2764TIP3    H2 8236   0.584   1.855   0.110
 2765TIP3   OH2 8237   0.866   5.515   1.547
 2765TIP3    H1 8238   0.877   5.604   1.581
 2765TIP3    H2 8239   0.915   5.460   1.608
 2766TIP3   OH2 8240   2.548   5.260   0.440
 2766TIP3    H1 8241   2.470   5.314   0.429
 2766TIP3    H2 8242   2.570   5.229   0.352
 2767TIP3   OH2 8243   2.939   6.652   2.550
 2767TIP3    H1 8244   2.964   6.588   2.617
 2767TIP3    H2 8245   2.868   6.610   2.502
 2768TIP3   OH2 8246   1.903   3.470   6.436
 2768TIP3    H1 8247   1.897   3.506   6.524
 2768TIP3    H2 8248   1.835   3.515   6.387
 2769TIP3   OH2 8249   6.488   5.519   6.633
 2769TIP3    H1 8250   6.436   5.514   6.713
 2769TIP3    H2 8251   6.538   5.600   6.642
 2770TIP3   OH2 8252   2.529   1.252   6.354
 2770TIP3    H1 8253   2.478   1.332   6.349
 2770TIP3    H2 8254   2.543   1.237   6.447
 2771TIP3   OH2 8255   7.035   4.626   2.977
 2771TIP3    H1 8256   7.050   4.538   2.944
 2771TIP3    H2 8257   7.051   4.620   3.071
 2772TIP3   OH2 8258   0.024   6.441   1.987
 2772TIP3    H1 8259   0.058   6.404   1.905
 2772TIP3    H2 8260  -0.001   6.530   1.965
 2773TIP3   OH2 8261   7.945   3.232   4.432
 2773TIP3    H1 8262   7.925   3.198   4.519
 2773TIP3    H2 8263   7.998   3.310   4.449
 2774TIP3   OH2 8264   7.642   2.852   2.929
 2774TIP3    H1 8265   7.649   2.901   3.011
 2774TIP3    H2 8266   7.732   2.846   2.897
 2775TIP3   OH2 8267   2.028   0.324   2.017
 2775TIP3    H1 8268   1.965   0.252   2.011
 2775TIP3    H2 8269   1.988   0.386   2.078
 2776TIP3   OH2 8270   7.287   5.931   0.987
 2776TIP3    H1 8271   7.335   5.915   0.906
 2776TIP3    H2 8272   7.197   5.904   0.968
 2777TIP3   OH2 8273   7.229   7.598   6.409
 2777TIP3    H1 8274   7.301   7.540   6.388
 2777TIP3    H2 8275   7.152   7.556   6.369
 2778TIP3   OH2 8276   0.741   1.435   4.857
 2778TIP3    H1 8277   0.651   1.414   4.880
 2778TIP3    H2 8278   0.746   1.423   4.763
 2779TIP3   OH2 8279   5.648   7.579   2.518
 2779TIP3    H1 8280   5.639   7.534   2.602
 2779TIP3    H2 8281   5.590   7.655   2.525
 2780TIP3   OH2 8282   0.352   1.255   1.755
 2780TIP3    H1 8283   0.294   1.182   1.774
 2780TIP3    H2 8284   0.428   1.215   1.712
 2781TIP3   OH2 8285   3.661   5.082   5.769
 2781TIP3    H1 8286   3.727   5.040   5.714
 2781TIP3    H2 8287   3.708   5.111   5.846
 2782TIP3   OH2 8288   6.363   3.873   3.419
 2782TIP3    H1 8289   6.424   3.917   3.359
 2782TIP3    H2 8290   6.341   3.791   3.376
 2783TIP3   OH2 8291   7.249   3.438   5.145
 2783TIP3    H1 8292   7.285   3.436   5.057
 2783TIP3    H2 8293   7.209   3.525   5.152
 2784TIP3   OH2 8294   3.932   7.741   2.487
 2784TIP3    H1 8295   4.007   7.684   2.504
 2784TIP3    H2 8296   3.889   7.701   2.411
 2785TIP3   OH2 8297   4.041   0.481   1.790
 2785TIP3    H1 8298   3.952   0.507   1.815
 2785TIP3    H2 8299   4.043   0.386   1.807
 2786TIP3   OH2 8300   7.926   1.564   0.114
 2786TIP3    H1 8301   7.990   1.501   0.081
 2786TIP3    H2 8302   7.841   1.528   0.090
 2787TIP3   OH2 8303   3.532   5.016   4.592
 2787TIP3    H1 8304   3.464   5.003   4.659
 2787TIP3    H2 8305   3.503   4.964   4.517
 2788TIP3   OH2 8306   1.479   2.230   6.677
 2788TIP3    H1 8307   1.384   2.245   6.675
 2788TIP3    H2 8308   1.494   2.165   6.610
 2789TIP3   OH2 8309   5.800   3.753   3.720
 2789TIP3    H1 8310   5.803   3.843   3.754
 2789TIP3    H2 8311   5.736   3.710   3.777
 2790TIP3   OH2 8312   7.654   7.166   2.561
 2790TIP3    H1 8313   7.709   7.243   2.550
 2790TIP3    H2 8314   7.619   7.175   2.650
 2791TIP3   OH2 8315   0.353   1.690   3.724
 2791TIP3    H1 8316   0.310   1.644   3.796
 2791TIP3    H2 8317   0.364   1.623   3.657
 2792TIP3   OH2 8318   6.038   0.896   1.586
 2792TIP3    H1 8319   6.131   0.886   1.564
 2792TIP3    H2 8320   5.992   0.849   1.517
 2793TIP3   OH2 8321   3.302   5.192   2.064
 2793TIP3    H1 8322   3.388   5.150   2.072
 2793TIP3    H2 8323   3.322   5.280   2.032
 2794TIP3   OH2 8324   4.287   6.339   2.832
 2794TIP3    H1 8325   4.311   6.317   2.921
 2794TIP3    H2 8326   4.369   6.336   2.783
 2795TIP3   OH2 8327   3.571   5.579   6.452
 2795TIP3    H1 8328   3.584   5.657   6.397
 2795TIP3    H2 8329   3.494   5.537   6.416
 2796TIP3   OH2 8330   6.689   5.410   6.477
 2796TIP3    H1 8331   6.727   5.331   6.515
 2796TIP3    H2 8332   6.602   5.416   6.516
 2797TIP3   OH2 8333   2.569   0.844   5.793
 2797TIP3    H1 8334   2.638   0.899   5.756
 2797TIP3    H2 8335   2.613   0.790   5.858
 2798TIP3   OH2 8336   1.150   6.179   1.079
 2798TIP3    H1 8337   1.113   6.267   1.082
 2798TIP3    H2 8338   1.087   6.127   1.029
 2799TIP3   OH2 8339   5.899   0.018   2.076
 2799TIP3    H1 8340   5.980   0.025   2.126
 2799TIP3    H2 8341   5.912   0.076   2.001
 2800TIP3   OH2 8342   6.646   2.652   2.028
 2800TIP3    H1 8343   6.693   2.573   2.001
 2800TIP3    H2 8344   6.687   2.723   1.977
 2801TIP3   OH2 8345   6.413   5.461   2.444
 2801TIP3    H1 8346   6.488   5.441   2.390
 2801TIP3    H2 8347   6.444   5.449   2.534
 2802TIP3   OH2 8348   4.758   5.881  -0.032
 2802TIP3    H1 8349   4.720   5.968  -0.033
 2802TIP3    H2 8350   4.852   5.895  -0.041
 2803TIP3   OH2 8351   0.265   2.131   1.087
 2803TIP3    H1 8352   0.314   2.198   1.135
 2803TIP3    H2 8353   0.331   2.070   1.056
 2804TIP3   OH2 8354   1.500   5.082   6.134
 2804TIP3    H1 8355   1.437   5.148   6.162
 2804TIP3    H2 8356   1.461   5.044   6.055
 2805TIP3   OH2 8357   7.607   2.009   2.516
 2805TIP3    H1 8358   7.655   2.092   2.516
 2805TIP3    H2 8359   7.663   1.949   2.565
 2806TIP3   OH2 8360   6.417   1.132   3.774
 2806TIP3    H1 8361   6.488   1.097   3.720
 2806TIP3    H2 8362   6.449   1.217   3.803
 2807TIP3   OH2 8363   0.922   2.290   5.623
 2807TIP3    H1 8364   0.982   2.221   5.651
 2807TIP3    H2 8365   0.837   2.264   5.658
 2808TIP3   OH2 8366   4.981   1.450   6.258
 2808TIP3    H1 8367   5.076   1.442   6.250
 2808TIP3    H2 8368   4.945   1.387   6.197
 2809TIP3   OH2 8369   4.196   4.564   4.231
 2809TIP3    H1 8370   4.125   4.600   4.284
 2809TIP3    H2 8371   4.252   4.519   4.294
 2810TIP3   OH2 8372   5.883   5.213   4.068
 2810TIP3    H1 8373   5.906   5.204   4.160
 2810TIP3    H2 8374   5.814   5.148   4.053
 2811TIP3   OH2 8375   7.335   3.994   3.475
 2811TIP3    H1 8376   7.279   4.064   3.441
 2811TIP3    H2 8377   7.376   4.031   3.553
 2812TIP3   OH2 8378   6.620   0.193   1.951
 2812TIP3    H1 8379   6.671   0.231   2.022
 2812TIP3    H2 8380   6.656   0.233   1.871
 2813TIP3   OH2 8381   4.530   6.922   0.209
 2813TIP3    H1 8382   4.475   6.855   0.250
 2813TIP3    H2 8383   4.471   6.966   0.147
 2814TIP3   OH2 8384   2.793   6.846   4.410
 2814TIP3    H1 8385   2.833   6.775   4.460
 2814TIP3    H2 8386   2.864   6.909   4.397
 2815TIP3   OH2 8387   4.624   3.522   0.064
 2815TIP3    H1 8388   4.565   3.577   0.012
 2815TIP3    H2 8389   4.695   3.581   0.090
 2816TIP3   OH2 8390   3.880   0.759   4.274
 2816TIP3    H1 8391   3.950   0.694   4.280
 2816TIP3    H2 8392   3.840   0.760   4.360
 2817TIP3   OH2 8393   6.464   0.846   2.455
 2817TIP3    H1 8394   6.559   0.853   2.446
 2817TIP3    H2 8395   6.432   0.935   2.445
 2818TIP3   OH2 8396   3.718   0.462   0.350
 2818TIP3    H1 8397   3.659   0.476   0.424
 2818TIP3    H2 8398   3.780   0.396   0.381
 2819TIP3   OH2 8399   3.025   5.682   1.097
 2819TIP3    H1 8400   3.040   5.626   1.173
 2819TIP3    H2 8401   3.039   5.625   1.022
 2820TIP3   OH2 8402   3.283   6.684   0.854
 2820TIP3    H1 8403   3.376   6.692   0.874
 2820TIP3    H2 8404   3.242   6.663   0.938
 2821TIP3   OH2 8405   4.469   1.608   2.151
 2821TIP3    H1 8406   4.518   1.579   2.228
 2821TIP3    H2 8407   4.440   1.527   2.108
 2822TIP3   OH2 8408   5.376   4.479   0.148
 2822TIP3    H1 8409   5.451   4.536   0.165
 2822TIP3    H2 8410   5.414   4.391   0.142
 2823TIP3   OH2 8411   5.160   3.108   4.987
 2823TIP3    H1 8412   5.125   3.032   5.034
 2823TIP3    H2 8413   5.110   3.183   5.022
 2824TIP3   OH2 8414   1.392   2.312   2.790
 2824TIP3    H1 8415   1.340   2.380   2.746
 2824TIP3    H2 8416   1.416   2.352   2.874
 2825TIP3   OH2 8417   0.754   3.207   5.475
 2825TIP3    H1 8418   0.847   3.207   5.498
 2825TIP3    H2 8419   0.709   3.191   5.557
 2826TIP3   OH2 8420   2.204   0.702   4.536
 2826TIP3    H1 8421   2.244   0.615   4.524
 2826TIP3    H2 8422   2.128   0.702   4.479
 2827TIP3   OH2 8423   6.688   5.048   1.321
 2827TIP3    H1 8424   6.639   5.016   1.396
 2827TIP3    H2 8425   6.732   4.970   1.287
 2828TIP3   OH2 8426   1.642   0.652   0.561
 2828TIP3    H1 8427   1.656   0.563   0.593
 2828TIP3    H2 8428   1.636   0.705   0.640
 2829TIP3   OH2 8429   2.271   2.088   4.766
 2829TIP3    H1 8430   2.352   2.075   4.816
 2829TIP3    H2 8431   2.300   2.098   4.676
 2830TIP3   OH2 8432   4.157   6.902   4.457
 2830TIP3    H1 8433   4.220   6.858   4.514
 2830TIP3    H2 8434   4.194   6.990   4.444
 2831TIP3   OH2 8435   5.606   3.211   3.308
 2831TIP3    H1 8436   5.583   3.273   3.377
 2831TIP3    H2 8437   5.534   3.148   3.307
 2832TIP3   OH2 8438   3.882   3.730   2.490
 2832TIP3    H1 8439   3.869   3.636   2.506
 2832TIP3    H2 8440   3.828   3.749   2.413
 2833TIP3   OH2 8441   2.365   4.823   4.767
 2833TIP3    H1 8442   2.273   4.838   4.787
 2833TIP3    H2 8443   2.373   4.727   4.764
 2834TIP3   OH2 8444   7.527   1.509   6.578
 2834TIP3    H1 8445   7.582   1.500   6.656
 2834TIP3    H2 8446   7.524   1.420   6.541
 2835TIP3   OH2 8447   1.726   2.086   1.804
 2835TIP3    H1 8448   1.785   2.161   1.809
 2835TIP3    H2 8449   1.751   2.032   1.879
 2836TIP3   OH2 8450   8.309   4.117   2.950
 2836TIP3    H1 8451   8.345   4.115   2.862
 2836TIP3    H2 8452   8.275   4.207   2.960
 2837TIP3   OH2 8453   0.919   0.019   4.743
 2837TIP3    H1 8454   0.932  -0.073   4.766
 2837TIP3    H2 8455   0.824   0.030   4.743
 2838TIP3   OH2 8456   4.938   2.518   0.767
 2838TIP3    H1 8457   4.890   2.537   0.686
 2838TIP3    H2 8458   4.900   2.577   0.832
 2839TIP3   OH2 8459   1.864   6.082   1.785
 2839TIP3    H1 8460   1.941   6.042   1.745
 2839TIP3    H2 8461   1.889   6.173   1.801
 2840TIP3   OH2 8462   7.486   4.742   0.860
 2840TIP3    H1 8463   7.546   4.795   0.807
 2840TIP3    H2 8464   7.421   4.804   0.891
 2841TIP3   OH2 8465   5.222   4.758   0.768
 2841TIP3    H1 8466   5.225   4.832   0.708
 2841TIP3    H2 8467   5.311   4.722   0.764
 2842TIP3   OH2 8468   3.799   2.864   0.397
 2842TIP3    H1 8469   3.706   2.862   0.420
 2842TIP3    H2 8470   3.813   2.783   0.347
 2843TIP3   OH2 8471   0.391   3.210   2.383
 2843TIP3    H1 8472   0.420   3.237   2.470
 2843TIP3    H2 8473   0.389   3.291   2.332
 2844TIP3   OH2 8474   4.463   7.544   4.868
 2844TIP3    H1 8475   4.450   7.639   4.863
 2844TIP3    H2 8476   4.437   7.512   4.782
 2845TIP3   OH2 8477   6.306   1.315   1.277
 2845TIP3    H1 8478   6.387   1.263   1.275
 2845TIP3    H2 8479   6.292   1.334   1.370
 2846TIP3   OH2 8480   6.039   7.136   3.413
 2846TIP3    H1 8481   6.072   7.170   3.330
 2846TIP3    H2 8482   6.078   7.049   3.420
 2847TIP3   OH2 8483   1.949   4.400   5.090
 2847TIP3    H1 8484   1.918   4.309   5.097
 2847TIP3    H2 8485   1.885   4.451   5.140
 2848TIP3   OH2 8486   2.573   7.546   6.294
 2848TIP3    H1 8487   2.534   7.596   6.222
 2848TIP3    H2 8488   2.542   7.457   6.281
 2849TIP3   OH2 8489   6.439   0.681   0.664
 2849TIP3    H1 8490   6.390   0.599   0.668
 2849TIP3    H2 8491   6.385   0.743   0.715
 2850TIP3   OH2 8492   7.860   6.843   0.702
 2850TIP3    H1 8493   7.825   6.779   0.764
 2850TIP3    H2 8494   7.948   6.862   0.734
 2851TIP3   OH2 8495   6.873   6.714   5.560
 2851TIP3    H1 8496   6.781   6.690   5.546
 2851TIP3    H2 8497   6.914   6.699   5.475
 2852TIP3   OH2 8498   6.217   6.156   3.746
 2852TIP3    H1 8499   6.250   6.245   3.733
 2852TIP3    H2 8500   6.182   6.156   3.835
 2853TIP3   OH2 8501   8.033   1.408   0.912
 2853TIP3    H1 8502   7.964   1.345   0.891
 2853TIP3    H2 8503   8.107   1.355   0.939
 2854TIP3   OH2 8504   1.195   2.631   5.682
 2854TIP3    H1 8505   1.230   2.594   5.763
 2854TIP3    H2 8506   1.103   2.647   5.701
 2855TIP3   OH2 8507   6.576   5.535   3.061
 2855TIP3    H1 8508   6.648   5.505   3.116
 2855TIP3    H2 8509   6.614   5.538   2.973
 2856TIP3   OH2 8510   0.777   5.817   3.988
 2856TIP3    H1 8511   0.849   5.862   3.943
 2856TIP3    H2 8512   0.785   5.726   3.961
 2857TIP3   OH2 8513   4.940   2.922   5.626
 2857TIP3    H1 8514   5.018   2.966   5.661
 2857TIP3    H2 8515   4.886   2.993   5.592
 2858TIP3   OH2 8516   5.156   4.617   5.507
 2858TIP3    H1 8517   5.145   4.547   5.571
 2858TIP3    H2 8518   5.250   4.631   5.501
 2859TIP3   OH2 8519   6.906   4.065   3.134
 2859TIP3    H1 8520   6.937   3.983   3.094
 2859TIP3    H2 8521   6.872   4.116   3.060
 2860TIP3   OH2 8522   5.817   1.256   2.569
 2860TIP3    H1 8523   5.747   1.216   2.517
 2860TIP3    H2 8524   5.777   1.272   2.654
 2861TIP3   OH2 8525   3.416   4.786   1.005
 2861TIP3    H1 8526   3.495   4.840   1.005
 2861TIP3    H2 8527   3.442   4.707   1.052
 2862TIP3   OH2 8528   1.265   6.326   4.102
 2862TIP3    H1 8529   1.335   6.267   4.127
 2862TIP3    H2 8530   1.304   6.413   4.103
 2863TIP3   OH2 8531   4.016   5.669   6.236
 2863TIP3    H1 8532   4.097   5.699   6.277
 2863TIP3    H2 8533   3.967   5.627   6.307
 2864TIP3   OH2 8534   5.888   7.575   6.460
 2864TIP3    H1 8535   5.910   7.657   6.415
 2864TIP3    H2 8536   5.958   7.564   6.524
 2865TIP3   OH2 8537   1.922   0.017   3.455
 2865TIP3    H1 8538   2.006   0.035   3.496
 2865TIP3    H2 8539   1.907   0.092   3.398
 2866TIP3   OH2 8540   3.540   5.142   6.187
 2866TIP3    H1 8541   3.602   5.215   6.181
 2866TIP3    H2 8542   3.523   5.132   6.281
 2867TIP3   OH2 8543   5.914   1.780   0.516
 2867TIP3    H1 8544   6.003   1.772   0.482
 2867TIP3    H2 8545   5.925   1.795   0.610
 2868TIP3   OH2 8546   0.783   6.400   2.692
 2868TIP3    H1 8547   0.709   6.459   2.708
 2868TIP3    H2 8548   0.818   6.428   2.607
 2869TIP3   OH2 8549   4.054   4.033   1.571
 2869TIP3    H1 8550   4.138   4.014   1.529
 2869TIP3    H2 8551   4.027   4.117   1.533
 2870TIP3   OH2 8552   2.656   0.059   6.540
 2870TIP3    H1 8553   2.695   0.028   6.622
 2870TIP3    H2 8554   2.729   0.060   6.479
 2871TIP3   OH2 8555   4.107   5.849   5.647
 2871TIP3    H1 8556   4.052   5.772   5.653
 2871TIP3    H2 8557   4.099   5.878   5.556
 2872TIP3   OH2 8558   4.616   3.590   1.127
 2872TIP3    H1 8559   4.710   3.579   1.140
 2872TIP3    H2 8560   4.584   3.501   1.113
 2873TIP3   OH2 8561   3.333   7.542   5.654
 2873TIP3    H1 8562   3.404   7.519   5.713
 2873TIP3    H2 8563   3.310   7.632   5.677
 2874TIP3   OH2 8564   5.747   7.223   3.845
 2874TIP3    H1 8565   5.804   7.174   3.786
 2874TIP3    H2 8566   5.658   7.196   3.819
 2875TIP3   OH2 8567   1.323   4.335   3.436
 2875TIP3    H1 8568   1.264   4.399   3.397
 2875TIP3    H2 8569   1.334   4.269   3.367
 2876TIP3   OH2 8570   7.968   6.026   6.811
 2876TIP3    H1 8571   8.022   5.953   6.780
 2876TIP3    H2 8572   7.917   6.052   6.735
 2877TIP3   OH2 8573   0.085   0.277   2.712
 2877TIP3    H1 8574   0.155   0.237   2.763
 2877TIP3    H2 8575   0.130   0.319   2.639
 2878TIP3   OH2 8576   7.447   1.884   3.750
 2878TIP3    H1 8577   7.429   1.817   3.815
 2878TIP3    H2 8578   7.363   1.927   3.735
 2879TIP3   OH2 8579   7.817   0.543   1.180
 2879TIP3    H1 8580   7.799   0.634   1.206
 2879TIP3    H2 8581   7.832   0.548   1.086
 2880TIP3   OH2 8582   2.042   3.329   0.679
 2880TIP3    H1 8583   1.973   3.330   0.613
 2880TIP3    H2 8584   2.116   3.373   0.637
 2881TIP3   OH2 8585   1.612   2.533   0.854
 2881TIP3    H1 8586   1.603   2.514   0.948
 2881TIP3    H2 8587   1.542   2.482   0.813
 2882TIP3   OH2 8588   7.928   2.164   2.360
 2882TIP3    H1 8589   7.870   2.178   2.435
 2882TIP3    H2 8590   7.897   2.227   2.294
 2883TIP3   OH2 8591   6.890   0.259   6.017
 2883TIP3    H1 8592   6.981   0.230   6.003
 2883TIP3    H2 8593   6.847   0.247   5.933
 2884TIP3   OH2 8594   1.935   3.176   6.460
 2884TIP3    H1 8595   1.932   3.267   6.431
 2884TIP3    H2 8596   1.908   3.180   6.552
 2885TIP3   OH2 8597   7.000   1.301   4.983
 2885TIP3    H1 8598   7.022   1.368   5.048
 2885TIP3    H2 8599   6.923   1.335   4.938
 2886TIP3   OH2 8600   4.396   3.533   2.426
 2886TIP3    H1 8601   4.400   3.438   2.440
 2886TIP3    H2 8602   4.308   3.558   2.454
 2887TIP3   OH2 8603   1.979   0.039   5.759
 2887TIP3    H1 8604   1.958  -0.018   5.833
 2887TIP3    H2 8605   1.960   0.128   5.792
 2888TIP3   OH2 8606   4.494   3.178   1.988
 2888TIP3    H1 8607   4.492   3.273   1.985
 2888TIP3    H2 8608   4.552   3.153   1.916
 2889TIP3   OH2 8609   0.057   0.672   1.307
 2889TIP3    H1 8610  -0.025   0.709   1.338
 2889TIP3    H2 8611   0.125   0.724   1.350
 2890TIP3   OH2 8612   7.401   6.972   1.376
 2890TIP3    H1 8613   7.359   7.049   1.338
 2890TIP3    H2 8614   7.393   6.985   1.470
 2891TIP3   OH2 8615   6.882   3.711   5.262
 2891TIP3    H1 8616   6.861   3.775   5.195
 2891TIP3    H2 8617   6.797   3.672   5.286
 2892TIP3   OH2 8618   7.623   2.435   5.679
 2892TIP3    H1 8619   7.536   2.470   5.698
 2892TIP3    H2 8620   7.629   2.434   5.584
 2893TIP3   OH2 8621   0.224   5.069   2.795
 2893TIP3    H1 8622   0.225   5.163   2.808
 2893TIP3    H2 8623   0.133   5.048   2.775
 2894TIP3   OH2 8624   7.064   7.650   2.259
 2894TIP3    H1 8625   7.090   7.669   2.169
 2894TIP3    H2 8626   7.147   7.644   2.306
 2895TIP3   OH2 8627   3.324   7.307   2.592
 2895TIP3    H1 8628   3.324   7.403   2.585
 2895TIP3    H2 8629   3.243   7.280   2.550
 2896TIP3   OH2 8630   2.224   0.870   4.269
 2896TIP3    H1 8631   2.162   0.862   4.196
 2896TIP3    H2 8632   2.169   0.868   4.347
 2897TIP3   OH2 8633   2.892   0.352   6.436
 2897TIP3    H1 8634   2.870   0.260   6.425
 2897TIP3    H2 8635   2.883   0.389   6.348
 2898TIP3   OH2 8636   1.107   1.916   2.867
 2898TIP3    H1 8637   1.044   1.931   2.937
 2898TIP3    H2 8638   1.187   1.959   2.897
 2899TIP3   OH2 8639   4.882   6.800   6.406
 2899TIP3    H1 8640   4.802   6.825   6.453
 2899TIP3    H2 8641   4.952   6.847   6.452
 2900TIP3   OH2 8642   2.293   0.207   0.623
 2900TIP3    H1 8643   2.342   0.131   0.656
 2900TIP3    H2 8644   2.259   0.178   0.538
 2901TIP3   OH2 8645   7.950   5.996   0.520
 2901TIP3    H1 8646   7.993   5.933   0.577
 2901TIP3    H2 8647   7.856   5.978   0.529
 2902TIP3   OH2 8648   1.978  -0.061   5.483
 2902TIP3    H1 8649   1.989  -0.039   5.575
 2902TIP3    H2 8650   1.990   0.021   5.436
 2903TIP3   OH2 8651   1.502   7.851   3.528
 2903TIP3    H1 8652   1.461   7.902   3.597
 2903TIP3    H2 8653   1.593   7.839   3.557
 2904TIP3   OH2 8654   0.318   0.838   3.890
 2904TIP3    H1 8655   0.339   0.930   3.871
 2904TIP3    H2 8656   0.357   0.823   3.977
 2905TIP3   OH2 8657   2.598   0.346   0.273
 2905TIP3    H1 8658   2.540   0.367   0.200
 2905TIP3    H2 8659   2.684   0.335   0.232
 2906TIP3   OH2 8660   1.432   1.123   6.566
 2906TIP3    H1 8661   1.375   1.199   6.577
 2906TIP3    H2 8662   1.520   1.158   6.580
 2907TIP3   OH2 8663   7.550   3.075   0.998
 2907TIP3    H1 8664   7.500   3.123   1.063
 2907TIP3    H2 8665   7.493   3.003   0.972
 2908TIP3   OH2 8666   7.182   0.227   4.400
 2908TIP3    H1 8667   7.213   0.214   4.490
 2908TIP3    H2 8668   7.261   0.229   4.347
 2909TIP3   OH2 8669   7.477   5.082   1.119
 2909TIP3    H1 8670   7.433   5.021   1.059
 2909TIP3    H2 8671   7.406   5.124   1.167
 2910TIP3   OH2 8672   1.412   1.519   2.649
 2910TIP3    H1 8673   1.413   1.604   2.693
 2910TIP3    H2 8674   1.503   1.490   2.651
 2911TIP3   OH2 8675   0.514   4.968   2.591
 2911TIP3    H1 8676   0.423   4.985   2.566
 2911TIP3    H2 8677   0.566   4.999   2.517
 2912TIP3   OH2 8678   2.584   6.474   3.859
 2912TIP3    H1 8679   2.623   6.390   3.835
 2912TIP3    H2 8680   2.658   6.525   3.894
 2913TIP3   OH2 8681   2.911   7.392   1.244
 2913TIP3    H1 8682   2.958   7.475   1.234
 2913TIP3    H2 8683   2.925   7.346   1.162
 2914TIP3   OH2 8684   1.545   2.966   3.989
 2914TIP3    H1 8685   1.499   3.020   4.053
 2914TIP3    H2 8686   1.552   3.021   3.911
 2915TIP3   OH2 8687   3.483   7.272   6.244
 2915TIP3    H1 8688   3.469   7.195   6.299
 2915TIP3    H2 8689   3.577   7.273   6.228
 2916TIP3   OH2 8690   4.547   6.432   6.773
 2916TIP3    H1 8691   4.538   6.369   6.845
 2916TIP3    H2 8692   4.462   6.474   6.767
 2917TIP3   OH2 8693   5.769   0.762   1.593
 2917TIP3    H1 8694   5.841   0.727   1.646
 2917TIP3    H2 8695   5.716   0.685   1.573
 2918TIP3   OH2 8696   1.290   7.382   5.066
 2918TIP3    H1 8697   1.367   7.379   5.123
 2918TIP3    H2 8698   1.221   7.418   5.121
 2919TIP3   OH2 8699   3.677   6.421   5.691
 2919TIP3    H1 8700   3.620   6.469   5.752
 2919TIP3    H2 8701   3.747   6.482   5.670
 2920TIP3   OH2 8702   0.051   4.449   3.930
 2920TIP3    H1 8703   0.045   4.410   3.842
 2920TIP3    H2 8704   0.094   4.382   3.983
 2921TIP3   OH2 8705   1.379   6.492   1.998
 2921TIP3    H1 8706   1.465   6.450   1.991
 2921TIP3    H2 8707   1.352   6.474   2.089
 2922TIP3   OH2 8708   0.602   4.471   3.255
 2922TIP3    H1 8709   0.555   4.490   3.174
 2922TIP3    H2 8710   0.534   4.471   3.323
 2923TIP3   OH2 8711   6.023   7.596   5.563
 2923TIP3    H1 8712   5.950   7.643   5.602
 2923TIP3    H2 8713   6.101   7.646   5.588
 2924TIP3   OH2 8714   2.629   3.006   6.069
 2924TIP3    H1 8715   2.661   2.948   6.000
 2924TIP3    H2 8716   2.555   2.959   6.108
 2925TIP3   OH2 8717   6.143   2.055   4.957
 2925TIP3    H1 8718   6.157   1.985   5.020
 2925TIP3    H2 8719   6.132   2.134   5.010
 2926TIP3   OH2 8720   2.424   1.722   1.472
 2926TIP3    H1 8721   2.459   1.633   1.467
 2926TIP3    H2 8722   2.330   1.710   1.485
 2927TIP3   OH2 8723   2.068   3.539   6.837
 2927TIP3    H1 8724   1.980   3.506   6.816
 2927TIP3    H2 8725   2.112   3.543   6.752
 2928TIP3   OH2 8726   4.992   2.125   4.065
 2928TIP3    H1 8727   4.979   2.031   4.080
 2928TIP3    H2 8728   5.062   2.129   4.000
 2929TIP3   OH2 8729   6.125   4.830   5.713
 2929TIP3    H1 8730   6.104   4.756   5.771
 2929TIP3    H2 8731   6.217   4.850   5.733
 2930TIP3   OH2 8732   5.602   7.730   1.616
 2930TIP3    H1 8733   5.532   7.676   1.651
 2930TIP3    H2 8734   5.584   7.818   1.651
 2931TIP3   OH2 8735   0.665   2.412   3.778
 2931TIP3    H1 8736   0.630   2.384   3.693
 2931TIP3    H2 8737   0.736   2.350   3.795
 2932TIP3   OH2 8738   1.524   6.800   3.730
 2932TIP3    H1 8739   1.510   6.707   3.750
 2932TIP3    H2 8740   1.498   6.809   3.638
 2933TIP3   OH2 8741   4.833   6.196   4.239
 2933TIP3    H1 8742   4.860   6.283   4.267
 2933TIP3    H2 8743   4.787   6.158   4.314
 2934TIP3   OH2 8744   0.296   1.173   4.246
 2934TIP3    H1 8745   0.263   1.088   4.274
 2934TIP3    H2 8746   0.245   1.237   4.297
 2935TIP3   OH2 8747   3.366   3.096   4.696
 2935TIP3    H1 8748   3.377   3.030   4.627
 2935TIP3    H2 8749   3.284   3.140   4.674
 2936TIP3   OH2 8750   0.432   6.723   1.941
 2936TIP3    H1 8751   0.415   6.812   1.909
 2936TIP3    H2 8752   0.345   6.688   1.962
 2937TIP3   OH2 8753   2.327   7.616   6.168
 2937TIP3    H1 8754   2.272   7.563   6.226
 2937TIP3    H2 8755   2.285   7.609   6.082
 2938TIP3   OH2 8756   8.124   3.607   0.384
 2938TIP3    H1 8757   8.106   3.584   0.293
 2938TIP3    H2 8758   8.177   3.534   0.417
 2939TIP3   OH2 8759   2.535   4.695   1.400
 2939TIP3    H1 8760   2.553   4.615   1.351
 2939TIP3    H2 8761   2.576   4.681   1.485
 2940TIP3   OH2 8762   4.149   1.298   3.526
 2940TIP3    H1 8763   4.235   1.338   3.513
 2940TIP3    H2 8764   4.116   1.337   3.608
 2941TIP3   OH2 8765   6.512   0.469   4.193
 2941TIP3    H1 8766   6.517   0.450   4.100
 2941TIP3    H2 8767   6.534   0.561   4.200
 2942TIP3   OH2 8768   7.812   0.802   3.748
 2942TIP3    H1 8769   7.882   0.837   3.692
 2942TIP3    H2 8770   7.855   0.783   3.831
 2943TIP3   OH2 8771   4.447   5.947   1.080
 2943TIP3    H1 8772   4.361   5.927   1.116
 2943TIP3    H2 8773   4.486   6.007   1.144
 2944TIP3   OH2 8774   0.848   6.842   4.055
 2944TIP3    H1 8775   0.924   6.790   4.027
 2944TIP3    H2 8776   0.795   6.782   4.106
 2945TIP3   OH2 8777   5.581   5.178   4.340
 2945TIP3    H1 8778   5.492   5.143   4.350
 2945TIP3    H2 8779   5.626   5.112   4.287
 2946TIP3   OH2 8780   3.655   7.214   3.084
 2946TIP3    H1 8781   3.684   7.255   3.165
 2946TIP3    H2 8782   3.563   7.240   3.076
 2947TIP3   OH2 8783   5.694   4.310   2.870
 2947TIP3    H1 8784   5.782   4.323   2.836
 2947TIP3    H2 8785   5.707   4.284   2.962
 2948TIP3   OH2 8786   6.935   5.219   0.840
 2948TIP3    H1 8787   7.017   5.181   0.810
 2948TIP3    H2 8788   6.873   5.146   0.839
 2949TIP3   OH2 8789   3.034   4.558   2.333
 2949TIP3    H1 8790   3.063   4.643   2.300
 2949TIP3    H2 8791   3.036   4.567   2.428
 2950TIP3   OH2 8792   7.011   7.179   4.688
 2950TIP3    H1 8793   7.086   7.238   4.681
 2950TIP3    H2 8794   7.020   7.119   4.615
 2951TIP3   OH2 8795   5.175   2.006   1.209
 2951TIP3    H1 8796   5.247   1.979   1.152
 2951TIP3    H2 8797   5.137   2.082   1.166
 2952TIP3   OH2 8798   1.661   0.894   3.426
 2952TIP3    H1 8799   1.655   0.817   3.370
 2952TIP3    H2 8800   1.749   0.928   3.410
 2953TIP3   OH2 8801   2.226   6.816   4.795
 2953TIP3    H1 8802   2.248   6.909   4.790
 2953TIP3    H2 8803   2.298   6.777   4.845
 2954TIP3   OH2 8804   4.502   0.175   4.135
 2954TIP3    H1 8805   4.530   0.168   4.044
 2954TIP3    H2 8806   4.496   0.269   4.151
 2955TIP3   OH2 8807   5.461   5.709   3.080
 2955TIP3    H1 8808   5.461   5.697   3.175
 2955TIP3    H2 8809   5.533   5.654   3.049
 2956TIP3   OH2 8810   1.061   3.254   0.444
 2956TIP3    H1 8811   1.130   3.250   0.511
 2956TIP3    H2 8812   1.050   3.347   0.427
 2957TIP3   OH2 8813   7.932   5.315   1.011
 2957TIP3    H1 8814   7.922   5.229   1.053
 2957TIP3    H2 8815   8.022   5.341   1.031
 2958TIP3   OH2 8816   5.576   4.827   1.477
 2958TIP3    H1 8817   5.654   4.831   1.532
 2958TIP3    H2 8818   5.608   4.835   1.387
 2959TIP3   OH2 8819   1.672   0.057   6.308
 2959TIP3    H1 8820   1.707  -0.032   6.311
 2959TIP3    H2 8821   1.705   0.093   6.225
 2960TIP3   OH2 8822   2.936   6.735   3.069
 2960TIP3    H1 8823   2.973   6.812   3.025
 2960TIP3    H2 8824   3.011   6.695   3.113
 2961TIP3   OH2 8825   6.229   6.376   6.527
 2961TIP3    H1 8826   6.183   6.294   6.507
 2961TIP3    H2 8827   6.188   6.441   6.470
 2962TIP3   OH2 8828   2.212   6.772   4.154
 2962TIP3    H1 8829   2.249   6.859   4.168
 2962TIP3    H2 8830   2.221   6.728   4.239
 2963TIP3   OH2 8831   6.237   5.669   6.149
 2963TIP3    H1 8832   6.247   5.657   6.055
 2963TIP3    H2 8833   6.142   5.664   6.164
 2964TIP3   OH2 8834   7.433   6.483   2.961
 2964TIP3    H1 8835   7.356   6.488   2.904
 2964TIP3    H2 8836   7.418   6.405   3.014
 2965TIP3   OH2 8837   3.732   0.676   0.690
 2965TIP3    H1 8838   3.768   0.686   0.602
 2965TIP3    H2 8839   3.713   0.765   0.719
 2966TIP3   OH2 8840   1.955   2.515   0.247
 2966TIP3    H1 8841   2.000   2.578   0.190
 2966TIP3    H2 8842   1.863   2.542   0.245
 2967TIP3   OH2 8843   0.336   2.998   5.373
 2967TIP3    H1 8844   0.390   3.076   5.376
 2967TIP3    H2 8845   0.398   2.925   5.367
 2968TIP3   OH2 8846   5.991   4.866   4.086
 2968TIP3    H1 8847   6.058   4.934   4.081
 2968TIP3    H2 8848   5.918   4.907   4.133
 2969TIP3   OH2 8849   3.119   2.848   2.773
 2969TIP3    H1 8850   3.071   2.794   2.710
 2969TIP3    H2 8851   3.051   2.887   2.828
 2970TIP3   OH2 8852   5.626   3.826   3.480
 2970TIP3    H1 8853   5.671   3.834   3.564
 2970TIP3    H2 8854   5.535   3.809   3.503
 2971TIP3   OH2 8855   4.630   7.337   3.950
 2971TIP3    H1 8856   4.538   7.318   3.930
 2971TIP3    H2 8857   4.661   7.386   3.874
 2972TIP3   OH2 8858   8.199   4.707   1.723
 2972TIP3    H1 8859   8.211   4.716   1.818
 2972TIP3    H2 8860   8.272   4.755   1.685
 2973TIP3   OH2 8861   7.736   2.245   2.151
 2973TIP3    H1 8862   7.642   2.259   2.145
 2973TIP3    H2 8863   7.772   2.286   2.072
 2974TIP3   OH2 8864   0.125   4.203   0.587
 2974TIP3    H1 8865   0.150   4.172   0.499
 2974TIP3    H2 8866   0.035   4.235   0.576
 2975TIP3   OH2 8867   7.369   1.489   3.250
 2975TIP3    H1 8868   7.328   1.425   3.308
 2975TIP3    H2 8869   7.389   1.563   3.306
 2976TIP3   OH2 8870   2.516   3.412   4.189
 2976TIP3    H1 8871   2.523   3.333   4.135
 2976TIP3    H2 8872   2.428   3.408   4.226
 2977TIP3   OH2 8873   7.763   7.413   5.816
 2977TIP3    H1 8874   7.676   7.434   5.849
 2977TIP3    H2 8875   7.820   7.479   5.853
 2978TIP3   OH2 8876   1.623   0.620   3.605
 2978TIP3    H1 8877   1.596   0.695   3.551
 2978TIP3    H2 8878   1.587   0.639   3.692
 2979TIP3   OH2 8879   3.205   6.418   2.019
 2979TIP3    H1 8880   3.188   6.450   1.930
 2979TIP3    H2 8881   3.125   6.371   2.044
 2980TIP3   OH2 8882   2.245   6.240   2.290
 2980TIP3    H1 8883   2.338   6.244   2.315
 2980TIP3    H2 8884   2.242   6.278   2.203
 2981TIP3   OH2 8885   3.462   6.871   5.811
 2981TIP3    H1 8886   3.427   6.850   5.724
 2981TIP3    H2 8887   3.466   6.966   5.813
 2982TIP3   OH2 8888   0.225   6.837   6.356
 2982TIP3    H1 8889   0.164   6.822   6.283
 2982TIP3    H2 8890   0.256   6.750   6.379
 2983TIP3   OH2 8891   1.641   2.294   2.461
 2983TIP3    H1 8892   1.638   2.333   2.373
 2983TIP3    H2 8893   1.621   2.202   2.447
 2984TIP3   OH2 8894   3.610   3.815   3.073
 2984TIP3    H1 8895   3.555   3.837   2.998
 2984TIP3    H2 8896   3.696   3.799   3.036
 2985TIP3   OH2 8897   3.149   6.597   5.397
 2985TIP3    H1 8898   3.202   6.634   5.326
 2985TIP3    H2 8899   3.202   6.611   5.476
 2986TIP3   OH2 8900   7.735   0.649   4.403
 2986TIP3    H1 8901   7.755   0.693   4.485
 2986TIP3    H2 8902   7.818   0.607   4.378
 2987TIP3   OH2 8903   3.945   4.347   1.808
 2987TIP3    H1 8904   3.951   4.279   1.875
 2987TIP3    H2 8905   4.026   4.397   1.818
 2988TIP3   OH2 8906   5.129   5.616   1.622
 2988TIP3    H1 8907   5.092   5.529   1.605
 2988TIP3    H2 8908   5.115   5.630   1.715
 2989TIP3   OH2 8909   5.631   0.858   3.000
 2989TIP3    H1 8910   5.585   0.819   3.074
 2989TIP3    H2 8911   5.567   0.915   2.958
 2990TIP3   OH2 8912   4.019   1.992   4.182
 2990TIP3    H1 8913   3.954   2.056   4.155
 2990TIP3    H2 8914   3.968   1.920   4.218
 2991TIP3   OH2 8915   1.020   3.023   6.252
 2991TIP3    H1 8916   1.007   3.118   6.263
 2991TIP3    H2 8917   1.109   3.007   6.283
 2992TIP3   OH2 8918   7.076   4.340   4.593
 2992TIP3    H1 8919   6.983   4.358   4.610
 2992TIP3    H2 8920   7.121   4.380   4.668
 2993TIP3   OH2 8921   4.039   3.337   2.016
 2993TIP3    H1 8922   4.039   3.242   2.003
 2993TIP3    H2 8923   3.965   3.369   1.964
 2994TIP3   OH2 8924   5.308   7.794   5.163
 2994TIP3    H1 8925   5.372   7.729   5.134
 2994TIP3    H2 8926   5.264   7.822   5.083
 2995TIP3   OH2 8927   0.316   2.586   5.289
 2995TIP3    H1 8928   0.381   2.657   5.294
 2995TIP3    H2 8929   0.234   2.630   5.267
 2996TIP3   OH2 8930   5.991   1.640   5.360
 2996TIP3    H1 8931   6.011   1.552   5.328
 2996TIP3    H2 8932   5.906   1.631   5.403
 2997TIP3   OH2 8933   6.981   1.531   0.858
 2997TIP3    H1 8934   6.975   1.435   0.860
 2997TIP3    H2 8935   6.920   1.560   0.926
 2998TIP3   OH2 8936   2.655   6.807   5.037
 2998TIP3    H1 8937   2.686   6.818   5.127
 2998TIP3    H2 8938   2.574   6.857   5.033
 2999TIP3   OH2 8939   4.537   5.931   1.470
 2999TIP3    H1 8940   4.454   5.896   1.501
 2999TIP3    H2 8941   4.593   5.854   1.461
 3000TIP3   OH2 8942   1.938   0.372   5.607
 3000TIP3    H1 8943   1.852   0.390   5.570
 3000TIP3    H2 8944   2.000   0.407   5.543
 3001TIP3   OH2 8945   8.136   5.344   4.370
 3001TIP3    H1 8946   8.075   5.419   4.375
 3001TIP3    H2 8947   8.207   5.367   4.430
 3002TIP3   OH2 8948   3.605   3.310   1.404
 3002TIP3    H1 8949   3.621   3.323   1.311
 3002TIP3    H2 8950   3.526   3.362   1.422
 3003TIP3   OH2 8951   0.257   7.310   2.099
 3003TIP3    H1 8952   0.178   7.303   2.046
 3003TIP3    H2 8953   0.318   7.361   2.045
 3004TIP3   OH2 8954   1.443   7.647   6.743
 3004TIP3    H1 8955   1.356   7.641   6.782
 3004TIP3    H2 8956   1.437   7.719   6.681
 3005TIP3   OH2 8957   2.239   2.986   3.433
 3005TIP3    H1 8958   2.164   2.944   3.475
 3005TIP3    H2 8959   2.208   3.072   3.407
 3006TIP3   OH2 8960   7.748   7.461   2.518
 3006TIP3    H1 8961   7.700   7.499   2.592
 3006TIP3    H2 8962   7.837   7.449   2.551
 3007TIP3   OH2 8963   2.186   1.201   2.275
 3007TIP3    H1 8964   2.125   1.225   2.345
 3007TIP3    H2 8965   2.238   1.130   2.313
 3008TIP3   OH2 8966   3.013   0.487   4.058
 3008TIP3    H1 8967   3.054   0.570   4.032
 3008TIP3    H2 8968   2.936   0.514   4.109
 3009TIP3   OH2 8969   1.197   3.058   2.653
 3009TIP3    H1 8970   1.229   3.096   2.735
 3009TIP3    H2 8971   1.269   3.071   2.591
 3010TIP3   OH2 8972   3.732   7.097   0.861
 3010TIP3    H1 8973   3.814   7.066   0.821
 3010TIP3    H2 8974   3.722   7.042   0.939
 3011TIP3   OH2 8975   7.153   7.633   1.291
 3011TIP3    H1 8976   7.183   7.673   1.372
 3011TIP3    H2 8977   7.162   7.702   1.225
 3012TIP3   OH2 8978   7.119   3.441   5.913
 3012TIP3    H1 8979   7.024   3.427   5.902
 3012TIP3    H2 8980   7.147   3.482   5.832
 3013TIP3   OH2 8981   7.102   6.525   5.553
 3013TIP3    H1 8982   7.166   6.596   5.560
 3013TIP3    H2 8983   7.019   6.565   5.578
 3014TIP3   OH2 8984   2.551   5.475   0.176
 3014TIP3    H1 8985   2.492   5.467   0.252
 3014TIP3    H2 8986   2.507   5.425   0.107
 3015TIP3   OH2 8987   4.647   1.801   2.049
 3015TIP3    H1 8988   4.679   1.781   1.961
 3015TIP3    H2 8989   4.580   1.734   2.066
 3016TIP3   OH2 8990   0.665   1.604   4.039
 3016TIP3    H1 8991   0.616   1.524   4.060
 3016TIP3    H2 8992   0.701   1.633   4.123
 3017TIP3   OH2 8993   4.543   0.741   3.513
 3017TIP3    H1 8994   4.498   0.798   3.575
 3017TIP3    H2 8995   4.629   0.783   3.501
 3018TIP3   OH2 8996   1.822   2.035   4.889
 3018TIP3    H1 8997   1.730   2.044   4.863
 3018TIP3    H2 8998   1.852   1.955   4.845
 3019TIP3   OH2 8999   6.972   1.763   2.127
 3019TIP3    H1 9000   6.987   1.669   2.112
 3019TIP3    H2 9001   6.878   1.770   2.143
 3020TIP3   OH2 9002   1.335   5.842   3.931
 3020TIP3    H1 9003   1.350   5.895   3.853
 3020TIP3    H2 9004   1.251   5.798   3.915
 3021TIP3   OH2 9005   4.656   1.527   0.616
 3021TIP3    H1 9006   4.616   1.613   0.611
 3021TIP3    H2 9007   4.614   1.484   0.690
 3022TIP3   OH2 9008   2.263   4.057   6.612
 3022TIP3    H1 9009   2.183   4.027   6.657
 3022TIP3    H2 9010   2.311   3.976   6.593
 3023TIP3   OH2 9011   1.817   1.136   5.366
 3023TIP3    H1 9012   1.770   1.218   5.380
 3023TIP3    H2 9013   1.767   1.071   5.415
 3024TIP3   OH2 9014   2.788   5.294   3.966
 3024TIP3    H1 9015   2.748   5.207   3.961
 3024TIP3    H2 9016   2.828   5.307   3.880
 3025TIP3   OH2 9017   3.830   6.532   2.844
 3025TIP3    H1 9018   3.924   6.517   2.856
 3025TIP3    H2 9019   3.796   6.543   2.933
 3026TIP3   OH2 9020   5.749   5.288   5.052
 3026TIP3    H1 9021   5.686   5.296   4.981
 3026TIP3    H2 9022   5.769   5.379   5.076
 3027TIP3   OH2 9023   7.803   4.035   6.105
 3027TIP3    H1 9024   7.764   4.113   6.143
 3027TIP3    H2 9025   7.841   4.065   6.022
 3028TIP3   OH2 9026   2.475   6.487   0.155
 3028TIP3    H1 9027   2.442   6.549   0.089
 3028TIP3    H2 9028   2.549   6.533   0.196
 3029TIP3   OH2 9029   6.434   2.273   0.826
 3029TIP3    H1 9030   6.471   2.185   0.833
 3029TIP3    H2 9031   6.408   2.280   0.734
 3030TIP3   OH2 9032   8.268   1.162   1.757
 3030TIP3    H1 9033   8.175   1.152   1.776
 3030TIP3    H2 9034   8.273   1.159   1.661
 3031TIP3   OH2 9035   3.172   0.981   4.625
 3031TIP3    H1 9036   3.171   0.899   4.576
 3031TIP3    H2 9037   3.096   1.030   4.592
 3032TIP3   OH2 9038   3.752   2.844   0.941
 3032TIP3    H1 9039   3.700   2.815   1.016
 3032TIP3    H2 9040   3.830   2.883   0.979
 3033TIP3   OH2 9041   0.121   2.584   2.028
 3033TIP3    H1 9042   0.048   2.530   1.998
 3033TIP3    H2 9043   0.199   2.540   1.994
 3034TIP3   OH2 9044   8.269   1.528   5.372
 3034TIP3    H1 9045   8.178   1.558   5.373
 3034TIP3    H2 9046   8.321   1.608   5.371
 3035TIP3   OH2 9047   4.350   1.475   6.711
 3035TIP3    H1 9048   4.310   1.502   6.629
 3035TIP3    H2 9049   4.289   1.505   6.779
 3036TIP3   OH2 9050   4.606   5.420   2.384
 3036TIP3    H1 9051   4.534   5.442   2.443
 3036TIP3    H2 9052   4.682   5.412   2.441
 3037TIP3   OH2 9053   3.257   7.113   3.597
 3037TIP3    H1 9054   3.176   7.154   3.566
 3037TIP3    H2 9055   3.250   7.022   3.571
 3038TIP3   OH2 9056   3.970   2.373   4.967
 3038TIP3    H1 9057   3.925   2.449   5.005
 3038TIP3    H2 9058   4.061   2.384   4.994
 3039TIP3   OH2 9059   1.903   3.022   5.173
 3039TIP3    H1 9060   1.924   3.002   5.264
 3039TIP3    H2 9061   1.823   2.972   5.155
 3040TIP3   OH2 9062   2.060   7.562   6.635
 3040TIP3    H1 9063   2.103   7.552   6.551
 3040TIP3    H2 9064   1.980   7.511   6.628
 3041TIP3   OH2 9065   1.536   0.809   1.786
 3041TIP3    H1 9066   1.608   0.834   1.844
 3041TIP3    H2 9067   1.577   0.797   1.700
 3042TIP3   OH2 9068   2.495   3.558   5.882
 3042TIP3    H1 9069   2.534   3.634   5.840
 3042TIP3    H2 9070   2.430   3.526   5.820
 3043TIP3   OH2 9071   2.712   5.718   5.076
 3043TIP3    H1 9072   2.754   5.780   5.135
 3043TIP3    H2 9073   2.626   5.702   5.114
 3044TIP3   OH2 9074   2.063   3.499   4.180
 3044TIP3    H1 9075   2.037   3.542   4.261
 3044TIP3    H2 9076   1.991   3.438   4.161
 3045TIP3   OH2 9077   6.388   2.494   5.062
 3045TIP3    H1 9078   6.408   2.503   5.155
 3045TIP3    H2 9079   6.352   2.580   5.036
 3046TIP3   OH2 9080   0.096   2.409   1.306
 3046TIP3    H1 9081   0.122   2.480   1.364
 3046TIP3    H2 9082   0.175   2.388   1.257
 3047TIP3   OH2 9083   4.468   4.284   5.228
 3047TIP3    H1 9084   4.425   4.361   5.190
 3047TIP3    H2 9085   4.511   4.317   5.307
 3048TIP3   OH2 9086   6.858   5.292   4.795
 3048TIP3    H1 9087   6.819   5.205   4.796
 3048TIP3    H2 9088   6.837   5.327   4.709
 3049TIP3   OH2 9089   4.613   0.360   4.381
 3049TIP3    H1 9090   4.561   0.369   4.461
 3049TIP3    H2 9091   4.552   0.381   4.310
 3050TIP3   OH2 9092   1.985   7.387   6.384
 3050TIP3    H1 9093   1.897   7.383   6.422
 3050TIP3    H2 9094   1.971   7.368   6.291
 3051TIP3   OH2 9095   0.245   2.759   1.767
 3051TIP3    H1 9096   0.272   2.834   1.820
 3051TIP3    H2 9097   0.155   2.781   1.739
 3052TIP3   OH2 9098   7.193   1.912   2.934
 3052TIP3    H1 9099   7.249   1.948   2.865
 3052TIP3    H2 9100   7.203   1.817   2.927
 3053TIP3   OH2 9101   6.188   7.795   2.737
 3053TIP3    H1 9102   6.160   7.858   2.803
 3053TIP3    H2 9103   6.199   7.846   2.657
 3054TIP3   OH2 9104   4.106   4.196   1.106
 3054TIP3    H1 9105   4.149   4.233   1.029
 3054TIP3    H2 9106   4.177   4.159   1.158
 3055TIP3   OH2 9107   8.015   7.429   1.438
 3055TIP3    H1 9108   7.927   7.454   1.409
 3055TIP3    H2 9109   8.002   7.397   1.527
 3056TIP3   OH2 9110   7.705   4.769  -0.007
 3056TIP3    H1 9111   7.726   4.679  -0.033
 3056TIP3    H2 9112   7.789   4.815  -0.012
 3057TIP3   OH2 9113   2.623   5.625   3.154
 3057TIP3    H1 9114   2.683   5.696   3.131
 3057TIP3    H2 9115   2.668   5.546   3.123
 3058TIP3   OH2 9116   8.172   7.724   4.453
 3058TIP3    H1 9117   8.124   7.667   4.513
 3058TIP3    H2 9118   8.156   7.813   4.485
 3059TIP3   OH2 9119   6.343   1.081   5.856
 3059TIP3    H1 9120   6.402   1.140   5.809
 3059TIP3    H2 9121   6.401   1.026   5.909
 3060TIP3   OH2 9122   4.766   7.497   1.046
 3060TIP3    H1 9123   4.748   7.583   1.007
 3060TIP3    H2 9124   4.696   7.485   1.110
 3061TIP3   OH2 9125   6.472   4.652   6.652
 3061TIP3    H1 9126   6.444   4.579   6.707
 3061TIP3    H2 9127   6.545   4.617   6.601
 3062TIP3   OH2 9128   3.270   3.115   0.126
 3062TIP3    H1 9129   3.199   3.166   0.167
 3062TIP3    H2 9130   3.239   3.099   0.037
 3063TIP3   OH2 9131   8.125   5.182   1.360
 3063TIP3    H1 9132   8.206   5.179   1.310
 3063TIP3    H2 9133   8.060   5.141   1.304
 3064TIP3   OH2 9134   1.241   1.000   6.134
 3064TIP3    H1 9135   1.249   1.022   6.041
 3064TIP3    H2 9136   1.170   1.056   6.166
 3065TIP3   OH2 9137   6.590   6.608   0.344
 3065TIP3    H1 9138   6.580   6.696   0.309
 3065TIP3    H2 9139   6.678   6.581   0.316
 3066TIP3   OH2 9140   0.935   1.471   4.284
 3066TIP3    H1 9141   0.937   1.522   4.203
 3066TIP3    H2 9142   0.964   1.532   4.352
 3067TIP3   OH2 9143   5.264   0.842   6.640
 3067TIP3    H1 9144   5.326   0.915   6.629
 3067TIP3    H2 9145   5.316   0.764   6.620
 3068TIP3   OH2 9146   7.587   4.207   5.751
 3068TIP3    H1 9147   7.637   4.277   5.793
 3068TIP3    H2 9148   7.515   4.189   5.812
 3069TIP3   OH2 9149   4.713   3.271   0.368
 3069TIP3    H1 9150   4.648   3.334   0.335
 3069TIP3    H2 9151   4.692   3.261   0.461
 3070TIP3   OH2 9152   6.750   6.318   1.992
 3070TIP3    H1 9153   6.711   6.389   2.043
 3070TIP3    H2 9154   6.734   6.239   2.045
 3071TIP3   OH2 9155   4.424   2.536   3.981
 3071TIP3    H1 9156   4.356   2.501   4.039
 3071TIP3    H2 9157   4.414   2.485   3.900
 3072TIP3   OH2 9158   2.125   5.649   3.637
 3072TIP3    H1 9159   2.058   5.709   3.669
 3072TIP3    H2 9160   2.080   5.596   3.571
 3073TIP3   OH2 9161  -0.004   0.437   1.155
 3073TIP3    H1 9162   0.020   0.519   1.198
 3073TIP3    H2 9163   0.050   0.435   1.076
 3074TIP3   OH2 9164   6.004   0.050   6.347
 3074TIP3    H1 9165   6.070  -0.013   6.377
 3074TIP3    H2 9166   6.017   0.055   6.252
 3075TIP3   OH2 9167   3.988   5.994  -0.004
 3075TIP3    H1 9168   3.964   6.004  -0.096
 3075TIP3    H2 9169   4.029   5.908   0.001
 3076TIP3   OH2 9170   1.525   1.547   2.367
 3076TIP3    H1 9171   1.597   1.589   2.414
 3076TIP3    H2 9172   1.447   1.568   2.419
 3077TIP3   OH2 9173   5.159   1.110   2.377
 3077TIP3    H1 9174   5.247   1.079   2.355
 3077TIP3    H2 9175   5.130   1.052   2.447
 3078TIP3   OH2 9176   3.323   6.402   0.441
 3078TIP3    H1 9177   3.289   6.440   0.522
 3078TIP3    H2 9178   3.355   6.315   0.466
 3079TIP3   OH2 9179   1.032   6.048   3.201
 3079TIP3    H1 9180   1.011   6.100   3.124
 3079TIP3    H2 9181   1.050   6.113   3.269
 3080TIP3   OH2 9182   0.239   7.076   2.608
 3080TIP3    H1 9183   0.332   7.085   2.587
 3080TIP3    H2 9184   0.207   7.009   2.547
 3081TIP3   OH2 9185   5.357   5.807   4.300
 3081TIP3    H1 9186   5.366   5.758   4.381
 3081TIP3    H2 9187   5.434   5.782   4.248
 3082TIP3   OH2 9188   8.311   0.357   6.540
 3082TIP3    H1 9189   8.255   0.433   6.526
 3082TIP3    H2 9190   8.335   0.361   6.632
 3083TIP3   OH2 9191   6.305   5.057   1.923
 3083TIP3    H1 9192   6.281   5.092   1.837
 3083TIP3    H2 9193   6.340   5.133   1.970
 3084TIP3   OH2 9194   3.791   5.749   1.223
 3084TIP3    H1 9195   3.838   5.825   1.258
 3084TIP3    H2 9196   3.757   5.779   1.139
 3085TIP3   OH2 9197   0.533   2.047   1.082
 3085TIP3    H1 9198   0.605   2.064   1.144
 3085TIP3    H2 9199   0.528   1.951   1.077
 3086TIP3   OH2 9200   4.328   7.667   4.467
 3086TIP3    H1 9201   4.236   7.692   4.463
 3086TIP3    H2 9202   4.370   7.738   4.514
 3087TIP3   OH2 9203   7.550   6.788   5.920
 3087TIP3    H1 9204   7.566   6.853   5.988
 3087TIP3    H2 9205   7.633   6.742   5.910
 3088TIP3   OH2 9206   2.603   6.139   2.114
 3088TIP3    H1 9207   2.617   6.086   2.193
 3088TIP3    H2 9208   2.630   6.082   2.042
 3089TIP3   OH2 9209   6.926   7.311   1.763
 3089TIP3    H1 9210   6.992   7.302   1.831
 3089TIP3    H2 9211   6.904   7.404   1.764
 3090TIP3   OH2 9212   1.345   2.226   1.672
 3090TIP3    H1 9213   1.417   2.169   1.643
 3090TIP3    H2 9214   1.331   2.201   1.764
 3091TIP3   OH2 9215   2.968   4.597   0.761
 3091TIP3    H1 9216   2.945   4.686   0.789
 3091TIP3    H2 9217   2.940   4.593   0.670
 3092TIP3   OH2 9218   1.985   7.811   6.735
 3092TIP3    H1 9219   2.056   7.874   6.732
 3092TIP3    H2 9220   2.020   7.733   6.692
 3093TIP3   OH2 9221   2.640   3.304   5.626
 3093TIP3    H1 9222   2.678   3.344   5.704
 3093TIP3    H2 9223   2.611   3.379   5.574
 3094TIP3   OH2 9224   6.579   7.194   3.900
 3094TIP3    H1 9225   6.644   7.198   3.970
 3094TIP3    H2 9226   6.630   7.195   3.819
 3095TIP3   OH2 9227   2.142   2.490   4.509
 3095TIP3    H1 9228   2.090   2.410   4.513
 3095TIP3    H2 9229   2.086   2.558   4.546
 3096TIP3   OH2 9230   7.831   7.542   6.128
 3096TIP3    H1 9231   7.830   7.457   6.085
 3096TIP3    H2 9232   7.924   7.563   6.137
 3097TIP3   OH2 9233   7.541   3.231   1.461
 3097TIP3    H1 9234   7.456   3.263   1.490
 3097TIP3    H2 9235   7.583   3.307   1.420
 3098TIP3   OH2 9236   2.648   6.985   2.031
 3098TIP3    H1 9237   2.685   6.900   2.054
 3098TIP3    H2 9238   2.716   7.048   2.054
 3099TIP3   OH2 9239   4.716   3.413   4.585
 3099TIP3    H1 9240   4.809   3.389   4.580
 3099TIP3    H2 9241   4.703   3.440   4.676
 3100TIP3   OH2 9242   1.713   1.727   0.230
 3100TIP3    H1 9243   1.690   1.655   0.290
 3100TIP3    H2 9244   1.645   1.792   0.246
 3101TIP3   OH2 9245   2.854   2.458   3.328
 3101TIP3    H1 9246   2.915   2.458   3.254
 3101TIP3    H2 9247   2.795   2.532   3.310
 3102TIP3   OH2 9248   4.917   1.620   0.120
 3102TIP3    H1 9249   4.899   1.528   0.137
 3102TIP3    H2 9250   5.009   1.622   0.094
 3103TIP3   OH2 9251   0.750   5.347   4.132
 3103TIP3    H1 9252   0.796   5.263   4.134
 3103TIP3    H2 9253   0.658   5.325   4.149
 3104TIP3   OH2 9254   6.407   3.963   5.156
 3104TIP3    H1 9255   6.342   3.930   5.217
 3104TIP3    H2 9256   6.373   3.940   5.069
 3105TIP3   OH2 9257   0.627   1.521   0.053
 3105TIP3    H1 9258   0.610   1.615   0.060
 3105TIP3    H2 9259   0.653   1.495   0.141
 3106TIP3   OH2 9260   1.109   1.757   6.548
 3106TIP3    H1 9261   1.184   1.748   6.606
 3106TIP3    H2 9262   1.033   1.749   6.605
 3107TIP3   OH2 9263   7.846   2.169   1.251
 3107TIP3    H1 9264   7.795   2.246   1.277
 3107TIP3    H2 9265   7.930   2.205   1.222
 3108TIP3   OH2 9266   5.691   7.083   2.510
 3108TIP3    H1 9267   5.597   7.064   2.512
 3108TIP3    H2 9268   5.723   7.037   2.432
 3109TIP3   OH2 9269   4.878   1.572   5.505
 3109TIP3    H1 9270   4.825   1.617   5.571
 3109TIP3    H2 9271   4.870   1.626   5.427
 3110TIP3   OH2 9272   1.005   4.571   1.379
 3110TIP3    H1 9273   1.076   4.509   1.395
 3110TIP3    H2 9274   0.942   4.523   1.325
 3111TIP3   OH2 9275   1.944   4.902   3.626
 3111TIP3    H1 9276   2.027   4.948   3.620
 3111TIP3    H2 9277   1.936   4.881   3.719
 3112TIP3   OH2 9278   2.141   2.067   0.533
 3112TIP3    H1 9279   2.104   2.106   0.453
 3112TIP3    H2 9280   2.065   2.048   0.588
 3113TIP3   OH2 9281   4.253   4.946   2.375
 3113TIP3    H1 9282   4.214   5.004   2.441
 3113TIP3    H2 9283   4.247   4.995   2.293
 3114TIP3   OH2 9284   2.926   3.047   0.052
 3114TIP3    H1 9285   2.958   3.082  -0.031
 3114TIP3    H2 9286   2.886   3.122   0.096
 3115TIP3   OH2 9287   3.372   6.635   4.054
 3115TIP3    H1 9288   3.284   6.670   4.046
 3115TIP3    H2 9289   3.374   6.560   3.994
 3116TIP3   OH2 9290   2.122   0.031   1.207
 3116TIP3    H1 9291   2.068  -0.012   1.274
 3116TIP3    H2 9292   2.122   0.123   1.232
 3117TIP3   OH2 9293   4.186   0.809   4.538
 3117TIP3    H1 9294   4.179   0.802   4.634
 3117TIP3    H2 9295   4.160   0.723   4.506
 3118TIP3   OH2 9296   1.634   1.837   5.622
 3118TIP3    H1 9297   1.639   1.929   5.594
 3118TIP3    H2 9298   1.625   1.788   5.540
 3119TIP3   OH2 9299   2.153   5.684   2.267
 3119TIP3    H1 9300   2.059   5.698   2.274
 3119TIP3    H2 9301   2.176   5.636   2.347
 3120TIP3   OH2 9302   3.802   4.882   3.671
 3120TIP3    H1 9303   3.779   4.955   3.614
 3120TIP3    H2 9304   3.850   4.922   3.743
 3121TIP3   OH2 9305   0.327   0.140   2.760
 3121TIP3    H1 9306   0.389   0.143   2.687
 3121TIP3    H2 9307   0.382   0.118   2.836
 3122TIP3   OH2 9308   6.997   5.587   4.387
 3122TIP3    H1 9309   6.988   5.595   4.292
 3122TIP3    H2 9310   6.909   5.564   4.417
 3123TIP3   OH2 9311   8.228   5.093   1.701
 3123TIP3    H1 9312   8.232   5.151   1.777
 3123TIP3    H2 9313   8.318   5.061   1.691
 3124TIP3   OH2 9314   0.830   4.900   5.425
 3124TIP3    H1 9315   0.850   4.838   5.354
 3124TIP3    H2 9316   0.736   4.916   5.416
 3125TIP3   OH2 9317   3.666   3.268   2.071
 3125TIP3    H1 9318   3.696   3.359   2.067
 3125TIP3    H2 9319   3.729   3.224   2.127
 3126TIP3   OH2 9320   2.496   0.489   1.800
 3126TIP3    H1 9321   2.469   0.486   1.892
 3126TIP3    H2 9322   2.573   0.546   1.800
 3127TIP3   OH2 9323   6.177   2.541   2.952
 3127TIP3    H1 9324   6.110   2.473   2.945
 3127TIP3    H2 9325   6.257   2.494   2.978
 3128TIP3   OH2 9326   6.038   7.163   2.464
 3128TIP3    H1 9327   6.096   7.200   2.531
 3128TIP3    H2 9328   5.997   7.087   2.506
 3129TIP3   OH2 9329   0.763   3.859   1.912
 3129TIP3    H1 9330   0.700   3.836   1.981
 3129TIP3    H2 9331   0.843   3.882   1.959
 3130TIP3   OH2 9332   0.148   1.324   5.430
 3130TIP3    H1 9333   0.218   1.350   5.491
 3130TIP3    H2 9334   0.076   1.383   5.451
 3131TIP3   OH2 9335   4.738   6.927   2.451
 3131TIP3    H1 9336   4.706   6.837   2.447
 3131TIP3    H2 9337   4.785   6.932   2.535
 3132TIP3   OH2 9338   7.831   1.904   3.971
 3132TIP3    H1 9339   7.838   1.994   4.004
 3132TIP3    H2 9340   7.920   1.870   3.975
 3133TIP3   OH2 9341   3.962   6.637   0.341
 3133TIP3    H1 9342   4.002   6.720   0.366
 3133TIP3    H2 9343   3.921   6.654   0.256
 3134TIP3   OH2 9344   4.361   0.656   2.535
 3134TIP3    H1 9345   4.391   0.746   2.545
 3134TIP3    H2 9346   4.435   0.603   2.566
 3135TIP3   OH2 9347   5.545   6.275   5.320
 3135TIP3    H1 9348   5.627   6.273   5.368
 3135TIP3    H2 9349   5.542   6.362   5.280
 3136TIP3   OH2 9350   7.024   2.693   0.532
 3136TIP3    H1 9351   7.043   2.621   0.591
 3136TIP3    H2 9352   6.981   2.759   0.587
 3137TIP3   OH2 9353   8.278   2.049   3.112
 3137TIP3    H1 9354   8.236   2.051   3.198
 3137TIP3    H2 9355   8.287   1.956   3.092
 3138TIP3   OH2 9356   0.341   4.503   1.198
 3138TIP3    H1 9357   0.306   4.562   1.266
 3138TIP3    H2 9358   0.293   4.421   1.211
 3139TIP3   OH2 9359   4.339   4.237   1.618
 3139TIP3    H1 9360   4.316   4.319   1.573
 3139TIP3    H2 9361   4.400   4.193   1.558
 3140TIP3   OH2 9362   1.477   4.047   2.506
 3140TIP3    H1 9363   1.442   3.962   2.479
 3140TIP3    H2 9364   1.443   4.059   2.595
 3141TIP3   OH2 9365   5.440   1.727   4.953
 3141TIP3    H1 9366   5.372   1.793   4.938
 3141TIP3    H2 9367   5.485   1.758   5.033
 3142TIP3   OH2 9368   3.755   1.618   6.762
 3142TIP3    H1 9369   3.827   1.586   6.707
 3142TIP3    H2 9370   3.687   1.645   6.701
 3143TIP3   OH2 9371   6.148   3.213   0.329
 3143TIP3    H1 9372   6.162   3.239   0.238
 3143TIP3    H2 9373   6.229   3.239   0.374
 3144TIP3   OH2 9374   1.609   3.890   1.361
 3144TIP3    H1 9375   1.595   3.968   1.307
 3144TIP3    H2 9376   1.605   3.924   1.451
 3145TIP3   OH2 9377   7.997   3.383   6.384
 3145TIP3    H1 9378   7.983   3.313   6.447
 3145TIP3    H2 9379   8.018   3.338   6.302
 3146TIP3   OH2 9380   6.369   3.472   0.053
 3146TIP3    H1 9381   6.368   3.474   0.149
 3146TIP3    H2 9382   6.454   3.509   0.029
 3147TIP3   OH2 9383   7.672   5.300   3.954
 3147TIP3    H1 9384   7.674   5.387   3.994
 3147TIP3    H2 9385   7.609   5.251   4.006
 3148TIP3   OH2 9386   1.761   7.646   1.639
 3148TIP3    H1 9387   1.795   7.579   1.580
 3148TIP3    H2 9388   1.789   7.729   1.601
 3149TIP3   OH2 9389   6.655   4.241   3.738
 3149TIP3    H1 9390   6.731   4.298   3.753
 3149TIP3    H2 9391   6.683   4.156   3.772
 3150TIP3   OH2 9392   2.478   4.898   6.173
 3150TIP3    H1 9393   2.397   4.849   6.162
 3150TIP3    H2 9394   2.450   4.989   6.176
 3151TIP3   OH2 9395   4.575   5.170   6.462
 3151TIP3    H1 9396   4.605   5.121   6.538
 3151TIP3    H2 9397   4.571   5.261   6.492
 3152TIP3   OH2 9398   1.027   0.822   1.452
 3152TIP3    H1 9399   0.966   0.788   1.386
 3152TIP3    H2 9400   1.091   0.871   1.402
 3153TIP3   OH2 9401   6.724   6.132   2.194
 3153TIP3    H1 9402   6.712   6.214   2.243
 3153TIP3    H2 9403   6.808   6.098   2.224
 3154TIP3   OH2 9404   2.219   0.862   3.420
 3154TIP3    H1 9405   2.157   0.902   3.481
 3154TIP3    H2 9406   2.281   0.815   3.475
 3155TIP3   OH2 9407   5.495   5.964   6.550
 3155TIP3    H1 9408   5.483   5.930   6.639
 3155TIP3    H2 9409   5.463   6.054   6.554
 3156TIP3   OH2 9410   3.050   2.366   1.363
 3156TIP3    H1 9411   3.007   2.286   1.333
 3156TIP3    H2 9412   3.143   2.346   1.360
 3157TIP3   OH2 9413   5.870   6.314   5.660
 3157TIP3    H1 9414   5.805   6.337   5.727
 3157TIP3    H2 9415   5.892   6.398   5.620
 3158TIP3   OH2 9416   4.802   4.725   2.944
 3158TIP3    H1 9417   4.799   4.766   3.030
 3158TIP3    H2 9418   4.895   4.721   2.922
 3159TIP3   OH2 9419   0.173   0.355   5.663
 3159TIP3    H1 9420   0.210   0.430   5.617
 3159TIP3    H2 9421   0.106   0.321   5.604
 3160TIP3   OH2 9422   1.234   4.048   5.512
 3160TIP3    H1 9423   1.168   4.066   5.579
 3160TIP3    H2 9424   1.301   3.996   5.557
 3161TIP3   OH2 9425   5.745   2.565   1.155
 3161TIP3    H1 9426   5.679   2.593   1.092
 3161TIP3    H2 9427   5.824   2.551   1.102
 3162TIP3   OH2 9428   6.529   5.113   0.685
 3162TIP3    H1 9429   6.501   5.165   0.760
 3162TIP3    H2 9430   6.491   5.157   0.609
 3163TIP3   OH2 9431   5.099   1.261   3.607
 3163TIP3    H1 9432   5.050   1.210   3.542
 3163TIP3    H2 9433   5.182   1.282   3.563
 3164TIP3   OH2 9434   0.410   3.371   2.602
 3164TIP3    H1 9435   0.324   3.343   2.634
 3164TIP3    H2 9436   0.450   3.418   2.675
 3165TIP3   OH2 9437   2.836   6.112   1.767
 3165TIP3    H1 9438   2.817   6.042   1.829
 3165TIP3    H2 9439   2.858   6.068   1.685
 3166TIP3   OH2 9440   6.152   2.297   5.079
 3166TIP3    H1 9441   6.203   2.377   5.068
 3166TIP3    H2 9442   6.068   2.317   5.039
 3167TIP3   OH2 9443   5.068   3.573   3.076
 3167TIP3    H1 9444   5.133   3.577   3.005
 3167TIP3    H2 9445   4.984   3.562   3.031
 3168TIP3   OH2 9446   3.178   4.171   6.611
 3168TIP3    H1 9447   3.214   4.120   6.683
 3168TIP3    H2 9448   3.093   4.203   6.643
 3169TIP3   OH2 9449   2.752   4.795   5.161
 3169TIP3    H1 9450   2.658   4.805   5.178
 3169TIP3    H2 9451   2.756   4.757   5.073
 3170TIP3   OH2 9452   4.271   2.709   0.679
 3170TIP3    H1 9453   4.346   2.656   0.652
 3170TIP3    H2 9454   4.232   2.660   0.751
 3171TIP3   OH2 9455   1.321   4.501   4.854
 3171TIP3    H1 9456   1.393   4.441   4.833
 3171TIP3    H2 9457   1.353   4.553   4.927
 3172TIP3   OH2 9458   8.020   2.641   4.651
 3172TIP3    H1 9459   7.963   2.711   4.681
 3172TIP3    H2 9460   8.073   2.681   4.582
 3173TIP3   OH2 9461   6.998   1.285   5.815
 3173TIP3    H1 9462   7.011   1.368   5.769
 3173TIP3    H2 9463   7.055   1.223   5.768
 3174TIP3   OH2 9464   6.576   4.857   0.656
 3174TIP3    H1 9465   6.575   4.949   0.682
 3174TIP3    H2 9466   6.483   4.833   0.649
 3175TIP3   OH2 9467   2.154   2.445   1.014
 3175TIP3    H1 9468   2.185   2.474   1.100
 3175TIP3    H2 9469   2.169   2.520   0.957
 3176TIP3   OH2 9470   5.238   4.917   3.111
 3176TIP3    H1 9471   5.295   4.846   3.083
 3176TIP3    H2 9472   5.160   4.908   3.057
 3177TIP3   OH2 9473   4.182   1.092   4.621
 3177TIP3    H1 9474   4.225   1.039   4.688
 3177TIP3    H2 9475   4.155   1.029   4.554
 3178TIP3   OH2 9476   0.383   5.589   5.602
 3178TIP3    H1 9477   0.424   5.594   5.516
 3178TIP3    H2 9478   0.415   5.667   5.648
 3179TIP3   OH2 9479   0.605   5.677   4.347
 3179TIP3    H1 9480   0.700   5.677   4.358
 3179TIP3    H2 9481   0.592   5.668   4.252
 3180TIP3   OH2 9482   7.482   5.842   2.773
 3180TIP3    H1 9483   7.409   5.799   2.817
 3180TIP3    H2 9484   7.457   5.844   2.681
 3181TIP3   OH2 9485   4.689   4.849   2.708
 3181TIP3    H1 9486   4.604   4.888   2.725
 3181TIP3    H2 9487   4.717   4.815   2.793
 3182TIP3   OH2 9488   5.208   3.850   1.762
 3182TIP3    H1 9489   5.264   3.784   1.803
 3182TIP3    H2 9490   5.146   3.876   1.830
 3183TIP3   OH2 9491   1.280   4.838   3.300
 3183TIP3    H1 9492   1.236   4.782   3.236
 3183TIP3    H2 9493   1.326   4.778   3.358
 3184TIP3   OH2 9494   2.324   5.342   3.486
 3184TIP3    H1 9495   2.408   5.374   3.521
 3184TIP3    H2 9496   2.328   5.362   3.393
 3185TIP3   OH2 9497   2.394   4.402   0.758
 3185TIP3    H1 9498   2.452   4.333   0.725
 3185TIP3    H2 9499   2.397   4.470   0.691
 3186TIP3   OH2 9500   5.373   4.427   2.290
 3186TIP3    H1 9501   5.336   4.351   2.246
 3186TIP3    H2 9502   5.443   4.391   2.345
 3187TIP3   OH2 9503   2.953   0.836   5.893
 3187TIP3    H1 9504   3.010   0.857   5.966
 3187TIP3    H2 9505   2.867   0.819   5.933
 3188TIP3   OH2 9506   5.815   1.201   4.549
 3188TIP3    H1 9507   5.800   1.293   4.529
 3188TIP3    H2 9508   5.735   1.157   4.518
 3189TIP3   OH2 9509   0.133   4.757   5.330
 3189TIP3    H1 9510   0.156   4.727   5.243
 3189TIP3    H2 9511   0.068   4.694   5.361
 3190TIP3   OH2 9512   0.677   0.925   4.027
 3190TIP3    H1 9513   0.715   0.996   3.976
 3190TIP3    H2 9514   0.614   0.968   4.085
 3191TIP3   OH2 9515   0.994   0.601   3.018
 3191TIP3    H1 9516   0.943   0.540   2.963
 3191TIP3    H2 9517   0.999   0.681   2.965
 3192TIP3   OH2 9518   5.930   3.129   3.551
 3192TIP3    H1 9519   5.877   3.144   3.630
 3192TIP3    H2 9520   5.877   3.069   3.498
 3193TIP3   OH2 9521   3.100   6.383   6.259
 3193TIP3    H1 9522   3.065   6.468   6.285
 3193TIP3    H2 9523   3.077   6.376   6.166
 3194TIP3   OH2 9524   3.379   4.057   1.693
 3194TIP3    H1 9525   3.364   4.117   1.766
 3194TIP3    H2 9526   3.338   3.975   1.720
 3195TIP3   OH2 9527   7.687   5.919   0.839
 3195TIP3    H1 9528   7.715   5.919   0.930
 3195TIP3    H2 9529   7.721   6.001   0.803
 3196TIP3   OH2 9530   1.242   4.023   1.349
 3196TIP3    H1 9531   1.330   4.056   1.367
 3196TIP3    H2 9532   1.255   3.936   1.313
 3197TIP3   OH2 9533   1.419   2.379   5.509
 3197TIP3    H1 9534   1.331   2.407   5.483
 3197TIP3    H2 9535   1.414   2.283   5.509
 3198TIP3   OH2 9536   0.129   4.763   3.488
 3198TIP3    H1 9537   0.115   4.781   3.395
 3198TIP3    H2 9538   0.061   4.812   3.533
 3199TIP3   OH2 9539   0.351   2.077   3.903
 3199TIP3    H1 9540   0.357   1.985   3.927
 3199TIP3    H2 9541   0.422   2.090   3.840
 3200TIP3   OH2 9542   7.885   1.745   1.989
 3200TIP3    H1 9543   7.838   1.705   1.916
 3200TIP3    H2 9544   7.862   1.838   1.984
 3201TIP3   OH2 9545   0.833   5.393   0.984
 3201TIP3    H1 9546   0.743   5.418   1.003
 3201TIP3    H2 9547   0.881   5.412   1.065
 3202TIP3   OH2 9548   5.935   7.383   5.289
 3202TIP3    H1 9549   5.972   7.350   5.207
 3202TIP3    H2 9550   6.011   7.388   5.348
 3203TIP3   OH2 9551   2.445   2.209   2.187
 3203TIP3    H1 9552   2.514   2.177   2.129
 3203TIP3    H2 9553   2.411   2.130   2.229
 3204TIP3   OH2 9554   5.458   4.343   4.762
 3204TIP3    H1 9555   5.386   4.282   4.746
 3204TIP3    H2 9556   5.475   4.383   4.676
 3205TIP3   OH2 9557   5.492   1.095   5.547
 3205TIP3    H1 9558   5.493   1.004   5.579
 3205TIP3    H2 9559   5.460   1.146   5.622
 3206TIP3   OH2 9560   8.234   3.184   2.248
 3206TIP3    H1 9561   8.144   3.213   2.262
 3206TIP3    H2 9562   8.280   3.262   2.217
 3207TIP3   OH2 9563   7.162   3.010   2.219
 3207TIP3    H1 9564   7.141   3.103   2.210
 3207TIP3    H2 9565   7.086   2.965   2.182
 3208TIP3   OH2 9566   3.528   0.656   6.095
 3208TIP3    H1 9567   3.492   0.667   6.007
 3208TIP3    H2 9568   3.474   0.588   6.135
 3209TIP3   OH2 9569   4.841   7.361   1.982
 3209TIP3    H1 9570   4.815   7.383   1.893
 3209TIP3    H2 9571   4.927   7.402   1.993
 3210TIP3   OH2 9572   5.908   3.168   4.022
 3210TIP3    H1 9573   5.884   3.086   4.064
 3210TIP3    H2 9574   5.834   3.189   3.966
 3211TIP3   OH2 9575   0.938   2.841   0.224
 3211TIP3    H1 9576   0.951   2.907   0.293
 3211TIP3    H2 9577   0.856   2.867   0.182
 3212TIP3   OH2 9578   1.100   1.036   0.838
 3212TIP3    H1 9579   1.141   1.086   0.908
 3212TIP3    H2 9580   1.016   1.008   0.874
 3213TIP3   OH2 9581   4.608   1.553   3.977
 3213TIP3    H1 9582   4.538   1.617   3.962
 3213TIP3    H2 9583   4.591   1.520   4.065
 3214TIP3   OH2 9584   5.598   2.548   6.606
 3214TIP3    H1 9585   5.649   2.620   6.643
 3214TIP3    H2 9586   5.634   2.536   6.518
 3215TIP3   OH2 9587   7.328   1.555   0.206
 3215TIP3    H1 9588   7.283   1.558   0.122
 3215TIP3    H2 9589   7.418   1.583   0.186
 3216TIP3   OH2 9590   7.303   7.017   4.632
 3216TIP3    H1 9591   7.283   7.086   4.568
 3216TIP3    H2 9592   7.337   6.945   4.579
 3217TIP3   OH2 9593   1.425   5.778   6.472
 3217TIP3    H1 9594   1.507   5.784   6.424
 3217TIP3    H2 9595   1.450   5.755   6.561
 3218TIP3   OH2 9596   0.443   7.132   2.194
 3218TIP3    H1 9597   0.508   7.174   2.138
 3218TIP3    H2 9598   0.363   7.183   2.179
 3219TIP3   OH2 9599   1.355   0.818   0.692
 3219TIP3    H1 9600   1.325   0.897   0.737
 3219TIP3    H2 9601   1.430   0.789   0.742
 3220TIP3   OH2 9602   8.195   7.035   3.909
 3220TIP3    H1 9603   8.165   6.944   3.917
 3220TIP3    H2 9604   8.283   7.034   3.945
 3221TIP3   OH2 9605   3.299   5.241   6.326
 3221TIP3    H1 9606   3.314   5.251   6.232
 3221TIP3    H2 9607   3.302   5.331   6.360
 3222TIP3   OH2 9608   2.700   1.422   0.987
 3222TIP3    H1 9609   2.678   1.331   0.968
 3222TIP3    H2 9610   2.654   1.472   0.919
 3223TIP3   OH2 9611   2.675   6.563   5.342
 3223TIP3    H1 9612   2.585   6.554   5.373
 3223TIP3    H2 9613   2.673   6.527   5.253
 3224TIP3   OH2 9614   0.371   6.905   2.995
 3224TIP3    H1 9615   0.446   6.925   2.938
 3224TIP3    H2 9616   0.306   6.972   2.974
 3225TIP3   OH2 9617   0.667   3.639   2.324
 3225TIP3    H1 9618   0.700   3.712   2.377
 3225TIP3    H2 9619   0.582   3.619   2.362
 3226TIP3   OH2 9620   6.574   5.970   6.463
 3226TIP3    H1 9621   6.573   5.877   6.486
 3226TIP3    H2 9622   6.541   5.973   6.374
 3227TIP3   OH2 9623   2.634   1.433   0.655
 3227TIP3    H1 9624   2.719   1.390   0.664
 3227TIP3    H2 9625   2.622   1.441   0.561
 3228TIP3   OH2 9626   5.322   7.323   2.529
 3228TIP3    H1 9627   5.264   7.334   2.454
 3228TIP3    H2 9628   5.269   7.279   2.595
 3229TIP3   OH2 9629   5.077   7.173   3.024
 3229TIP3    H1 9630   5.121   7.224   3.092
 3229TIP3    H2 9631   4.986   7.168   3.053
 3230TIP3   OH2 9632   1.667   5.955   0.626
 3230TIP3    H1 9633   1.693   6.047   0.635
 3230TIP3    H2 9634   1.696   5.914   0.707
 3231TIP3   OH2 9635   1.056   6.655   3.952
 3231TIP3    H1 9636   1.052   6.566   3.988
 3231TIP3    H2 9637   1.055   6.642   3.857
 3232TIP3   OH2 9638   2.506   5.436   2.531
 3232TIP3    H1 9639   2.514   5.517   2.480
 3232TIP3    H2 9640   2.451   5.379   2.477
 3233TIP3   OH2 9641   4.626   6.165   2.732
 3233TIP3    H1 9642   4.598   6.097   2.671
 3233TIP3    H2 9643   4.720   6.151   2.743
 3234TIP3   OH2 9644   2.840   4.172   5.809
 3234TIP3    H1 9645   2.758   4.213   5.837
 3234TIP3    H2 9646   2.864   4.115   5.882
 3235TIP3   OH2 9647   4.997   3.701   4.111
 3235TIP3    H1 9648   5.019   3.609   4.095
 3235TIP3    H2 9649   4.912   3.713   4.069
 3236TIP3   OH2 9650   4.187   1.809   2.620
 3236TIP3    H1 9651   4.154   1.763   2.697
 3236TIP3    H2 9652   4.155   1.756   2.546
 3237TIP3   OH2 9653   1.736   2.190   1.449
 3237TIP3    H1 9654   1.749   2.186   1.355
 3237TIP3    H2 9655   1.817   2.227   1.483
 3238TIP3   OH2 9656   1.686   5.478   1.804
 3238TIP3    H1 9657   1.695   5.525   1.887
 3238TIP3    H2 9658   1.758   5.510   1.750
 3239TIP3   OH2 9659   4.905   1.023   1.762
 3239TIP3    H1 9660   4.902   1.107   1.715
 3239TIP3    H2 9661   4.992   1.021   1.802
 3240TIP3   OH2 9662   1.316   2.581   0.364
 3240TIP3    H1 9663   1.365   2.557   0.285
 3240TIP3    H2 9664   1.229   2.604   0.331
 3241TIP3   OH2 9665   5.998   0.428   2.021
 3241TIP3    H1 9666   5.947   0.445   2.101
 3241TIP3    H2 9667   6.086   0.459   2.042
 3242TIP3   OH2 9668   6.626   3.127   4.917
 3242TIP3    H1 9669   6.694   3.174   4.869
 3242TIP3    H2 9670   6.577   3.195   4.963
 3243TIP3   OH2 9671   2.237   2.218   6.268
 3243TIP3    H1 9672   2.252   2.145   6.207
 3243TIP3    H2 9673   2.165   2.188   6.323
 3244TIP3   OH2 9674   5.856   1.897   6.708
 3244TIP3    H1 9675   5.898   1.888   6.622
 3244TIP3    H2 9676   5.792   1.826   6.711
 3245TIP3   OH2 9677   5.709   7.550   4.170
 3245TIP3    H1 9678   5.760   7.625   4.140
 3245TIP3    H2 9679   5.737   7.478   4.113
 3246TIP3   OH2 9680   7.244   2.113   0.718
 3246TIP3    H1 9681   7.316   2.074   0.765
 3246TIP3    H2 9682   7.199   2.039   0.676
 3247TIP3   OH2 9683   4.609   7.528   6.724
 3247TIP3    H1 9684   4.615   7.529   6.628
 3247TIP3    H2 9685   4.585   7.618   6.747
 3248TIP3   OH2 9686   0.949   0.346   0.223
 3248TIP3    H1 9687   0.896   0.401   0.165
 3248TIP3    H2 9688   0.977   0.405   0.293
 3249TIP3   OH2 9689   6.977   0.960   1.030
 3249TIP3    H1 9690   6.941   1.040   1.068
 3249TIP3    H2 9691   7.069   0.959   1.058
 3250TIP3   OH2 9692   0.827   5.884   4.581
 3250TIP3    H1 9693   0.807   5.900   4.488
 3250TIP3    H2 9694   0.903   5.826   4.580
 3251TIP3   OH2 9695   2.650   4.519   6.372
 3251TIP3    H1 9696   2.559   4.548   6.370
 3251TIP3    H2 9697   2.671   4.499   6.281
 3252TIP3   OH2 9698   3.394   7.615   4.195
 3252TIP3    H1 9699   3.315   7.613   4.141
 3252TIP3    H2 9700   3.401   7.706   4.224
 3253TIP3   OH2 9701   2.048   1.208   5.822
 3253TIP3    H1 9702   2.046   1.120   5.859
 3253TIP3    H2 9703   2.014   1.198   5.734
 3254TIP3   OH2 9704   7.674   0.886   5.235
 3254TIP3    H1 9705   7.691   0.953   5.169
 3254TIP3    H2 9706   7.754   0.883   5.288
 3255TIP3   OH2 9707   4.885   5.096   4.154
 3255TIP3    H1 9708   4.794   5.108   4.180
 3255TIP3    H2 9709   4.884   5.107   4.058
 3256TIP3   OH2 9710   7.936   4.339   4.481
 3256TIP3    H1 9711   7.915   4.433   4.485
 3256TIP3    H2 9712   7.874   4.304   4.417
 3257TIP3   OH2 9713   0.907   4.713   5.907
 3257TIP3    H1 9714   0.822   4.754   5.893
 3257TIP3    H2 9715   0.887   4.626   5.941
 3258TIP3   OH2 9716   4.779   2.534   1.898
 3258TIP3    H1 9717   4.873   2.524   1.882
 3258TIP3    H2 9718   4.750   2.598   1.833
 3259TIP3   OH2 9719   7.093   3.363   3.178
 3259TIP3    H1 9720   7.189   3.371   3.185
 3259TIP3    H2 9721   7.063   3.452   3.160
 3260TIP3   OH2 9722   1.149   6.096   1.698
 3260TIP3    H1 9723   1.188   6.052   1.623
 3260TIP3    H2 9724   1.199   6.063   1.773
 3261TIP3   OH2 9725   2.919   3.975   5.998
 3261TIP3    H1 9726   2.966   3.903   5.956
 3261TIP3    H2 9727   2.947   3.971   6.090
 3262TIP3   OH2 9728   6.253   7.594   3.265
 3262TIP3    H1 9729   6.186   7.573   3.200
 3262TIP3    H2 9730   6.214   7.570   3.349
 3263TIP3   OH2 9731   1.723   5.176   1.507
 3263TIP3    H1 9732   1.635   5.209   1.528
 3263TIP3    H2 9733   1.781   5.250   1.524
 3264TIP3   OH2 9734   1.363   0.520   4.299
 3264TIP3    H1 9735   1.301   0.593   4.294
 3264TIP3    H2 9736   1.449   0.562   4.298
 3265TIP3   OH2 9737   4.366   6.970   6.220
 3265TIP3    H1 9738   4.310   6.893   6.232
 3265TIP3    H2 9739   4.349   6.998   6.130
 3266TIP3   OH2 9740   4.496   1.990   6.757
 3266TIP3    H1 9741   4.570   1.930   6.746
 3266TIP3    H2 9742   4.430   1.938   6.802
 3267TIP3   OH2 9743   2.218   7.783   3.317
 3267TIP3    H1 9744   2.285   7.849   3.300
 3267TIP3    H2 9745   2.262   7.699   3.303
 3268TIP3   OH2 9746   4.353   3.997   0.938
 3268TIP3    H1 9747   4.302   4.074   0.914
 3268TIP3    H2 9748   4.340   3.936   0.865
 3269TIP3   OH2 9749   3.455   5.591   5.660
 3269TIP3    H1 9750   3.435   5.603   5.567
 3269TIP3    H2 9751   3.465   5.497   5.671
 3270TIP3   OH2 9752   3.182   4.468   0.934
 3270TIP3    H1 9753   3.145   4.520   0.863
 3270TIP3    H2 9754   3.274   4.493   0.937
 3271TIP3   OH2 9755   6.372   4.822   4.008
 3271TIP3    H1 9756   6.350   4.828   4.101
 3271TIP3    H2 9757   6.467   4.818   4.006
 3272TIP3   OH2 9758   0.321   4.240   1.560
 3272TIP3    H1 9759   0.279   4.188   1.491
 3272TIP3    H2 9760   0.254   4.249   1.628
 3273TIP3   OH2 9761   0.714   5.516   3.517
 3273TIP3    H1 9762   0.664   5.462   3.578
 3273TIP3    H2 9763   0.758   5.580   3.572
 3274TIP3   OH2 9764   5.945   3.051   0.703
 3274TIP3    H1 9765   5.938   3.039   0.798
 3274TIP3    H2 9766   5.945   2.962   0.667
 3275TIP3   OH2 9767   1.354   0.222   2.950
 3275TIP3    H1 9768   1.403   0.160   3.004
 3275TIP3    H2 9769   1.420   0.267   2.898
 3276TIP3   OH2 9770   7.061   7.540   2.932
 3276TIP3    H1 9771   6.999   7.468   2.942
 3276TIP3    H2 9772   7.139   7.511   2.979
 3277TIP3   OH2 9773   6.651   1.274   3.577
 3277TIP3    H1 9774   6.682   1.191   3.612
 3277TIP3    H2 9775   6.625   1.253   3.486
 3278TIP3   OH2 9776   6.040   2.762   6.732
 3278TIP3    H1 9777   6.014   2.718   6.813
 3278TIP3    H2 9778   6.136   2.757   6.732
 3279TIP3   OH2 9779   6.776   2.394   4.041
 3279TIP3    H1 9780   6.860   2.412   4.084
 3279TIP3    H2 9781   6.710   2.421   4.105
 3280TIP3   OH2 9782   2.345   1.094   4.186
 3280TIP3    H1 9783   2.305   1.011   4.212
 3280TIP3    H2 9784   2.307   1.158   4.247
 3281TIP3   OH2 9785   3.313   5.315   6.049
 3281TIP3    H1 9786   3.404   5.311   6.079
 3281TIP3    H2 9787   3.310   5.392   5.992
 3282TIP3   OH2 9788   5.944   0.509   5.125
 3282TIP3    H1 9789   5.849   0.519   5.118
 3282TIP3    H2 9790   5.979   0.577   5.067
 3283TIP3   OH2 9791   8.286   7.368   1.375
 3283TIP3    H1 9792   8.350   7.439   1.365
 3283TIP3    H2 9793   8.201   7.412   1.379
 3284TIP3   OH2 9794   0.426   2.698   6.248
 3284TIP3    H1 9795   0.509   2.702   6.201
 3284TIP3    H2 9796   0.407   2.789   6.271
 3285TIP3   OH2 9797   2.048   4.533   5.982
 3285TIP3    H1 9798   1.958   4.558   5.962
 3285TIP3    H2 9799   2.056   4.548   6.077
 3286TIP3   OH2 9800   7.935   0.917   4.825
 3286TIP3    H1 9801   7.896   1.003   4.815
 3286TIP3    H2 9802   8.002   0.928   4.892
 3287TIP3   OH2 9803   6.404   7.226   2.029
 3287TIP3    H1 9804   6.333   7.291   2.030
 3287TIP3    H2 9805   6.359   7.142   2.015
 3288TIP3   OH2 9806   1.757   0.568   4.425
 3288TIP3    H1 9807   1.839   0.531   4.457
 3288TIP3    H2 9808   1.707   0.492   4.394
 3289TIP3   OH2 9809   0.934   2.701   6.223
 3289TIP3    H1 9810   1.005   2.761   6.247
 3289TIP3    H2 9811   0.977   2.634   6.170
 3290TIP3   OH2 9812   1.155   5.594   2.679
 3290TIP3    H1 9813   1.097   5.660   2.716
 3290TIP3    H2 9814   1.226   5.586   2.743
 3291TIP3   OH2 9815   7.620   3.873   5.309
 3291TIP3    H1 9816   7.654   3.784   5.302
 3291TIP3    H2 9817   7.526   3.864   5.290
 3292TIP3   OH2 9818   7.095   2.487   3.051
 3292TIP3    H1 9819   7.128   2.460   3.137
 3292TIP3    H2 9820   7.115   2.580   3.045
 3293TIP3   OH2 9821   3.110   0.702   5.145
 3293TIP3    H1 9822   3.075   0.764   5.208
 3293TIP3    H2 9823   3.140   0.628   5.197
 3294TIP3   OH2 9824   7.515   7.011   3.682
 3294TIP3    H1 9825   7.499   7.105   3.687
 3294TIP3    H2 9826   7.437   6.975   3.640
 3295TIP3   OH2 9827   5.897   2.594   1.697
 3295TIP3    H1 9828   5.987   2.575   1.672
 3295TIP3    H2 9829   5.895   2.689   1.709
 3296TIP3   OH2 9830   2.908   7.670   2.159
 3296TIP3    H1 9831   2.972   7.737   2.182
 3296TIP3    H2 9832   2.920   7.656   2.065
 3297TIP3   OH2 9833   6.888   3.156   2.262
 3297TIP3    H1 9834   6.869   3.124   2.351
 3297TIP3    H2 9835   6.829   3.231   2.251
 3298TIP3   OH2 9836   4.034   6.953   1.750
 3298TIP3    H1 9837   4.116   6.993   1.780
 3298TIP3    H2 9838   3.966   7.017   1.772
 3299TIP3   OH2 9839   7.168   0.266   3.509
 3299TIP3    H1 9840   7.211   0.188   3.474
 3299TIP3    H2 9841   7.227   0.338   3.486
 3300TIP3   OH2 9842   4.234   0.326   2.485
 3300TIP3    H1 9843   4.280   0.271   2.421
 3300TIP3    H2 9844   4.299   0.344   2.553
 3301TIP3   OH2 9845   2.901   0.118   4.836
 3301TIP3    H1 9846   2.834   0.057   4.805
 3301TIP3    H2 9847   2.886   0.198   4.786
 3302TIP3   OH2 9848   5.803   3.728   5.942
 3302TIP3    H1 9849   5.753   3.658   5.902
 3302TIP3    H2 9850   5.866   3.683   5.999
 3303TIP3   OH2 9851   5.296   1.925   5.920
 3303TIP3    H1 9852   5.389   1.902   5.908
 3303TIP3    H2 9853   5.250   1.874   5.854
 3304TIP3   OH2 9854   2.376   4.529   6.358
 3304TIP3    H1 9855   2.373   4.464   6.288
 3304TIP3    H2 9856   2.324   4.492   6.429
 3305TIP3   OH2 9857   0.295   4.238   3.541
 3305TIP3    H1 9858   0.285   4.153   3.584
 3305TIP3    H2 9859   0.205   4.271   3.533
 3306TIP3   OH2 9860   2.191   2.403   5.103
 3306TIP3    H1 9861   2.149   2.447   5.029
 3306TIP3    H2 9862   2.237   2.473   5.150
 3307TIP3   OH2 9863   6.706   1.306   6.452
 3307TIP3    H1 9864   6.663   1.220   6.442
 3307TIP3    H2 9865   6.748   1.301   6.538
 3308TIP3   OH2 9866   8.006   0.194   0.309
 3308TIP3    H1 9867   8.076   0.247   0.348
 3308TIP3    H2 9868   8.049   0.111   0.286
 3309TIP3   OH2 9869   5.191   7.412   2.272
 3309TIP3    H1 9870   5.238   7.419   2.189
 3309TIP3    H2 9871   5.102   7.387   2.247
 3310TIP3   OH2 9872   7.347   0.202   3.966
 3310TIP3    H1 9873   7.302   0.235   3.888
 3310TIP3    H2 9874   7.364   0.281   4.018
 3311TIP3   OH2 9875   1.761   0.852   2.459
 3311TIP3    H1 9876   1.731   0.775   2.411
 3311TIP3    H2 9877   1.681   0.900   2.480
 3312TIP3   OH2 9878   7.569   2.341   3.258
 3312TIP3    H1 9879   7.566   2.260   3.208
 3312TIP3    H2 9880   7.592   2.314   3.347
 3313TIP3   OH2 9881   0.957   1.909   2.622
 3313TIP3    H1 9882   0.986   1.957   2.699
 3313TIP3    H2 9883   0.870   1.944   2.603
 3314TIP3   OH2 9884   0.936   3.347   2.454
 3314TIP3    H1 9885   1.026   3.364   2.481
 3314TIP3    H2 9886   0.883   3.374   2.529
 3315TIP3   OH2 9887   0.562   3.675   4.531
 3315TIP3    H1 9888   0.525   3.728   4.602
 3315TIP3    H2 9889   0.610   3.737   4.477
 3316TIP3   OH2 9890   4.645   6.027   5.195
 3316TIP3    H1 9891   4.617   6.104   5.244
 3316TIP3    H2 9892   4.568   6.000   5.145
 3317TIP3   OH2 9893   6.259   1.122   2.109
 3317TIP3    H1 9894   6.249   1.099   2.016
 3317TIP3    H2 9895   6.190   1.186   2.125
 3318TIP3   OH2 9896   1.760   1.083   2.193
 3318TIP3    H1 9897   1.802   1.063   2.277
 3318TIP3    H2 9898   1.774   1.004   2.140
 3319TIP3   OH2 9899   5.304   5.647   0.557
 3319TIP3    H1 9900   5.337   5.598   0.482
 3319TIP3    H2 9901   5.312   5.739   0.531
 3320TIP3   OH2 9902   8.000   7.694   5.386
 3320TIP3    H1 9903   7.912   7.658   5.377
 3320TIP3    H2 9904   7.990   7.788   5.373
 3321TIP3   OH2 9905   2.729   0.619   0.322
 3321TIP3    H1 9906   2.682   0.654   0.246
 3321TIP3    H2 9907   2.671   0.552   0.357
 3322TIP3   OH2 9908   2.407   0.471   1.525
 3322TIP3    H1 9909   2.415   0.486   1.620
 3322TIP3    H2 9910   2.415   0.376   1.516
 3323TIP3   OH2 9911   7.627   2.933   6.181
 3323TIP3    H1 9912   7.685   2.876   6.232
 3323TIP3    H2 9913   7.609   2.884   6.101
 3324TIP3   OH2 9914   6.480   0.610   0.993
 3324TIP3    H1 9915   6.427   0.533   1.014
 3324TIP3    H2 9916   6.571   0.581   1.005
 3325TIP3   OH2 9917   7.373   5.020   0.626
 3325TIP3    H1 9918   7.463   4.992   0.645
 3325TIP3    H2 9919   7.351   4.977   0.543
 3326TIP3   OH2 9920   1.922   6.002   6.616
 3326TIP3    H1 9921   1.837   6.039   6.590
 3326TIP3    H2 9922   1.958   5.965   6.536
 3327TIP3   OH2 9923   1.734   1.386   5.840
 3327TIP3    H1 9924   1.659   1.348   5.885
 3327TIP3    H2 9925   1.768   1.452   5.902
 3328TIP3   OH2 9926   5.953   6.862   2.329
 3328TIP3    H1 9927   6.043   6.836   2.313
 3328TIP3    H2 9928   5.900   6.806   2.272
 3329TIP3   OH2 9929   5.319   2.789   6.129
 3329TIP3    H1 9930   5.403   2.745   6.114
 3329TIP3    H2 9931   5.259   2.717   6.150
 3330TIP3   OH2 9932   3.141   6.614   4.326
 3330TIP3    H1 9933   3.111   6.541   4.380
 3330TIP3    H2 9934   3.230   6.633   4.357
 3331TIP3   OH2 9935   8.180  -0.025   0.299
 3331TIP3    H1 9936   8.147  -0.100   0.349
 3331TIP3    H2 9937   8.251  -0.061   0.246
 3332TIP3   OH2 9938   4.934   5.701   3.776
 3332TIP3    H1 9939   4.857   5.757   3.770
 3332TIP3    H2 9940   5.003   5.759   3.807
 3333TIP3   OH2 9941   8.007   2.889   5.653
 3333TIP3    H1 9942   7.964   2.972   5.631
 3333TIP3    H2 9943   7.939   2.836   5.693
 3334TIP3   OH2 9944   4.939   7.870   2.164
 3334TIP3    H1 9945   4.850   7.892   2.137
 3334TIP3    H2 9946   4.930   7.786   2.209
 3335TIP3   OH2 9947   1.888   1.908   1.314
 3335TIP3    H1 9948   1.805   1.950   1.290
 3335TIP3    H2 9949   1.868   1.862   1.395
 3336TIP3   OH2 9950   4.141   5.981   6.120
 3336TIP3    H1 9951   4.199   6.029   6.061
 3336TIP3    H2 9952   4.053   5.997   6.085
 3337TIP3   OH2 9953   6.793   5.545   0.155
 3337TIP3    H1 9954   6.792   5.475   0.220
 3337TIP3    H2 9955   6.862   5.605   0.185
 3338TIP3   OH2 9956   4.411   5.977   0.315
 3338TIP3    H1 9957   4.437   6.018   0.397
 3338TIP3    H2 9958   4.400   5.884   0.337
 3339TIP3   OH2 9959   3.878   1.523   2.691
 3339TIP3    H1 9960   3.823   1.464   2.743
 3339TIP3    H2 9961   3.853   1.504   2.600
 3340TIP3   OH2 9962   2.837   1.391   6.367
 3340TIP3    H1 9963   2.830   1.301   6.398
 3340TIP3    H2 9964   2.781   1.441   6.426
 3341TIP3   OH2 9965   2.120   6.462   6.540
 3341TIP3    H1 9966   2.100   6.400   6.470
 3341TIP3    H2 9967   2.144   6.542   6.494
 3342TIP3   OH2 9968   2.996   1.170   4.491
 3342TIP3    H1 9969   2.987   1.220   4.572
 3342TIP3    H2 9970   3.052   1.223   4.436
 3343TIP3   OH2 9971   4.764   5.273   1.183
 3343TIP3    H1 9972   4.844   5.323   1.200
 3343TIP3    H2 9973   4.795   5.190   1.148
 3344TIP3   OH2 9974   3.130   3.956   6.462
 3344TIP3    H1 9975   3.063   3.926   6.524
 3344TIP3    H2 9976   3.159   4.040   6.498
 3345TIP3   OH2 9977   0.691   5.135   2.029
 3345TIP3    H1 9978   0.687   5.043   2.003
 3345TIP3    H2 9979   0.617   5.147   2.088
 3346TIP3   OH2 9980   8.056   5.835   4.015
 3346TIP3    H1 9981   8.087   5.886   4.090
 3346TIP3    H2 9982   7.999   5.896   3.967
 3347TIP3   OH2 9983   0.672   7.587   5.321
 3347TIP3    H1 9984   0.633   7.533   5.252
 3347TIP3    H2 9985   0.600   7.642   5.352
 3348TIP3   OH2 9986   2.848   0.374   0.654
 3348TIP3    H1 9987   2.765   0.402   0.616
 3348TIP3    H2 9988   2.897   0.455   0.666
 3349TIP3   OH2 9989   0.900   7.427   1.706
 3349TIP3    H1 9990   0.921   7.514   1.673
 3349TIP3    H2 9991   0.958   7.416   1.781
 3350TIP3   OH2 9992   7.650   3.598   3.057
 3350TIP3    H1 9993   7.699   3.566   2.981
 3350TIP3    H2 9994   7.712   3.589   3.130
 3351TIP3   OH2 9995   7.494   0.798   4.788
 3351TIP3    H1 9996   7.528   0.850   4.861
 3351TIP3    H2 9997   7.521   0.708   4.809
 3352TIP3   OH2 9998   2.008   4.916   5.646
 3352TIP3    H1 9999   2.003   5.002   5.605
 3352TIP3    H210000   2.102   4.902   5.659
 3353TIP3   OH210001   5.271   7.067   4.218
 3353TIP3    H110002   5.261   7.050   4.125
 3353TIP3    H210003   5.219   7.145   4.235
 3354TIP3   OH210004   0.491   5.920   0.140
 3354TIP3    H110005   0.554   5.852   0.163
 3354TIP3    H210006   0.442   5.883   0.066
 3355TIP3   OH210007   6.334   1.924   0.863
 3355TIP3    H110008   6.317   1.848   0.918
 3355TIP3    H210009   6.253   1.975   0.865
 3356TIP3   OH210010   3.052   0.856   2.489
 3356TIP3    H110011   2.965   0.884   2.516
 3356TIP3    H210012   3.053   0.761   2.504
 3357TIP3   OH210013   1.237   7.669   5.547
 3357TIP3    H110014   1.251   7.594   5.489
 3357TIP3    H210015   1.292   7.651   5.623
 3358TIP3   OH210016   1.168   6.080   2.439
 3358TIP3    H110017   1.187   5.990   2.413
 3358TIP3    H210018   1.227   6.097   2.512
 3359TIP3   OH210019   3.488   1.026   5.816
 3359TIP3    H110020   3.484   1.121   5.827
 3359TIP3    H210021   3.494   1.013   5.722
 3360TIP3   OH210022   3.789   7.437   5.883
 3360TIP3    H110023   3.859   7.458   5.821
 3360TIP3    H210024   3.823   7.364   5.934
 3361TIP3   OH210025   0.420   5.963   3.169
 3361TIP3    H110026   0.399   5.876   3.135
 3361TIP3    H210027   0.463   5.946   3.253
 3362TIP3   OH210028   0.084   1.921   1.146
 3362TIP3    H110029   0.138   1.850   1.111
 3362TIP3    H210030   0.141   1.998   1.141
 3363TIP3   OH210031   5.076   3.446   5.242
 3363TIP3    H110032   5.039   3.367   5.203
 3363TIP3    H210033   5.048   3.517   5.184
 3364TIP3   OH210034   7.654   4.636   3.692
 3364TIP3    H110035   7.664   4.712   3.750
 3364TIP3    H210036   7.578   4.658   3.637
 3365TIP3   OH210037   5.170   2.325   4.428
 3365TIP3    H110038   5.143   2.386   4.497
 3365TIP3    H210039   5.099   2.327   4.365
 3366TIP3   OH210040   3.472   2.030   0.506
 3366TIP3    H110041   3.463   2.074   0.590
 3366TIP3    H210042   3.396   1.972   0.500
 3367TIP3   OH210043   6.759   7.545   4.890
 3367TIP3    H110044   6.786   7.595   4.968
 3367TIP3    H210045   6.809   7.464   4.896
 3368TIP3   OH210046   5.932   6.821   5.394
 3368TIP3    H110047   5.936   6.813   5.299
 3368TIP3    H210048   5.918   6.915   5.409
 3369TIP3   OH210049   1.596   4.601   3.188
 3369TIP3    H110050   1.660   4.661   3.149
 3369TIP3    H210051   1.535   4.583   3.116
 3370TIP3   OH210052   1.470   6.193   3.064
 3370TIP3    H110053   1.408   6.125   3.040
 3370TIP3    H210054   1.556   6.152   3.054
 3371TIP3   OH210055   0.149   4.192   2.299
 3371TIP3    H110056   0.219   4.164   2.358
 3371TIP3    H210057   0.068   4.161   2.340
 3372TIP3   OH210058   2.248   4.289   3.488
 3372TIP3    H110059   2.159   4.317   3.468
 3372TIP3    H210060   2.304   4.348   3.438
 3373TIP3   OH210061   1.769   5.176   2.831
 3373TIP3    H110062   1.838   5.201   2.768
 3373TIP3    H210063   1.690   5.217   2.797
 3374TIP3   OH210064   1.609   2.035   2.715
 3374TIP3    H110065   1.526   2.080   2.702
 3374TIP3    H210066   1.590   1.966   2.778
 3375TIP3   OH210067   5.398   2.387   0.086
 3375TIP3    H110068   5.355   2.378   0.001
 3375TIP3    H210069   5.415   2.481   0.094
 3376TIP3   OH210070   1.309   4.896   4.527
 3376TIP3    H110071   1.364   4.939   4.463
 3376TIP3    H210072   1.368   4.836   4.573
 3377TIP3   OH210073   8.182   1.408   2.084
 3377TIP3    H110074   8.231   1.472   2.136
 3377TIP3    H210075   8.219   1.324   2.108
 3378TIP3   OH210076   1.061   0.984   4.737
 3378TIP3    H110077   1.082   1.002   4.645
 3378TIP3    H210078   0.967   0.999   4.744
 3379TIP3   OH210079   1.766   1.237   0.523
 3379TIP3    H110080   1.825   1.312   0.529
 3379TIP3    H210081   1.822   1.165   0.494
 3380TIP3   OH210082   6.363   3.437   1.052
 3380TIP3    H110083   6.296   3.500   1.026
 3380TIP3    H210084   6.377   3.453   1.145
 3381TIP3   OH210085   7.305   4.487   4.459
 3381TIP3    H110086   7.255   4.568   4.464
 3381TIP3    H210087   7.239   4.419   4.447
 3382TIP3   OH210088   4.009   3.771   4.848
 3382TIP3    H110089   4.068   3.823   4.903
 3382TIP3    H210090   4.066   3.704   4.809
 3383TIP3   OH210091   2.838   2.592   0.835
 3383TIP3    H110092   2.817   2.539   0.758
 3383TIP3    H210093   2.912   2.645   0.807
 3384TIP3   OH210094   7.812   0.990   0.926
 3384TIP3    H110095   7.872   0.936   0.875
 3384TIP3    H210096   7.744   0.929   0.955
 3385TIP3   OH210097   5.287   3.524   4.965
 3385TIP3    H110098   5.378   3.553   4.965
 3385TIP3    H210099   5.291   3.429   4.955
 3386TIP3   OH210100   4.629   0.826   5.309
 3386TIP3    H110101   4.607   0.845   5.401
 3386TIP3    H210102   4.708   0.773   5.314
 3387TIP3   OH210103   6.093   1.870   1.656
 3387TIP3    H110104   6.084   1.906   1.568
 3387TIP3    H210105   6.080   1.945   1.714
 3388TIP3   OH210106   2.358   3.626   1.887
 3388TIP3    H110107   2.350   3.589   1.975
 3388TIP3    H210108   2.440   3.676   1.890
 3389TIP3   OH210109   4.519   1.811   3.244
 3389TIP3    H110110   4.465   1.766   3.179
 3389TIP3    H210111   4.508   1.904   3.224
 3390TIP3   OH210112   0.772   2.345   3.380
 3390TIP3    H110113   0.718   2.293   3.321
 3390TIP3    H210114   0.836   2.283   3.416
 3391TIP3   OH210115   0.317   1.000   4.607
 3391TIP3    H110116   0.315   0.929   4.672
 3391TIP3    H210117   0.225   1.013   4.584
 3392TIP3   OH210118   4.078   1.480   6.166
 3392TIP3    H110119   4.099   1.391   6.195
 3392TIP3    H210120   4.161   1.513   6.130
 3393TIP3   OH210121   5.596   2.872   1.950
 3393TIP3    H110122   5.661   2.898   2.016
 3393TIP3    H210123   5.552   2.954   1.927
 3394TIP3   OH210124   7.515   0.705   5.565
 3394TIP3    H110125   7.495   0.785   5.517
 3394TIP3    H210126   7.602   0.721   5.602
 3395TIP3   OH210127   5.239   3.566   4.459
 3395TIP3    H110128   5.204   3.505   4.524
 3395TIP3    H210129   5.297   3.512   4.405
 3396TIP3   OH210130   1.042   4.763   4.905
 3396TIP3    H110131   0.974   4.711   4.861
 3396TIP3    H210132   0.995   4.839   4.940
 3397TIP3   OH210133   0.633   5.057   0.715
 3397TIP3    H110134   0.695   5.087   0.781
 3397TIP3    H210135   0.688   5.023   0.644
 3398TIP3   OH210136   6.218   6.813   2.392
 3398TIP3    H110137   6.305   6.836   2.360
 3398TIP3    H210138   6.227   6.810   2.487
 3399TIP3   OH210139   2.715   0.392   5.285
 3399TIP3    H110140   2.641   0.386   5.224
 3399TIP3    H210141   2.791   0.409   5.229
 3400TIP3   OH210142   7.864   4.052   3.486
 3400TIP3    H110143   7.932   4.006   3.536
 3400TIP3    H210144   7.852   3.998   3.408
 3401TIP3   OH210145   6.481   3.288   6.004
 3401TIP3    H110146   6.468   3.198   5.974
 3401TIP3    H210147   6.398   3.332   5.985
 3402TIP3   OH210148   3.761   0.770   1.462
 3402TIP3    H110149   3.801   0.774   1.549
 3402TIP3    H210150   3.802   0.695   1.419
 3403TIP3   OH210151   8.192   2.973   5.114
 3403TIP3    H110152   8.144   2.972   5.197
 3403TIP3    H210153   8.284   2.979   5.139
 3404TIP3   OH210154   7.496   5.142   3.146
 3404TIP3    H110155   7.409   5.112   3.122
 3404TIP3    H210156   7.528   5.077   3.208
 3405TIP3   OH210157   0.168   6.038   5.206
 3405TIP3    H110158   0.169   5.946   5.231
 3405TIP3    H210159   0.238   6.078   5.259
 3406TIP3   OH210160   1.748   7.266   4.871
 3406TIP3    H110161   1.841   7.271   4.847
 3406TIP3    H210162   1.707   7.337   4.821
 3407TIP3   OH210163   5.055   2.217   6.204
 3407TIP3    H110164   4.985   2.225   6.269
 3407TIP3    H210165   5.064   2.123   6.189
 3408TIP3   OH210166   0.717   6.958   0.687
 3408TIP3    H110167   0.694   6.935   0.777
 3408TIP3    H210168   0.802   6.916   0.672
 3409TIP3   OH210169   7.117   5.517   1.489
 3409TIP3    H110170   7.153   5.562   1.566
 3409TIP3    H210171   7.029   5.490   1.517
 3410TIP3   OH210172   6.593   1.661   1.692
 3410TIP3    H110173   6.620   1.574   1.662
 3410TIP3    H210174   6.500   1.651   1.712
 3411TIP3   OH210175   3.945   4.055   3.715
 3411TIP3    H110176   3.880   4.125   3.711
 3411TIP3    H210177   3.999   4.077   3.791
 3412TIP3   OH210178   7.950   5.737   1.016
 3412TIP3    H110179   8.026   5.739   0.958
 3412TIP3    H210180   7.980   5.689   1.093
 3413TIP3   OH210181   2.948   7.195   5.224
 3413TIP3    H110182   3.038   7.224   5.214
 3413TIP3    H210183   2.918   7.177   5.135
 3414TIP3   OH210184   2.792   0.233   4.276
 3414TIP3    H110185   2.753   0.319   4.262
 3414TIP3    H210186   2.822   0.206   4.189
 3415TIP3   OH210187   3.786   5.297   2.108
 3415TIP3    H110188   3.808   5.210   2.076
 3415TIP3    H210189   3.866   5.328   2.151
 3416TIP3   OH210190   8.224   6.217   0.676
 3416TIP3    H110191   8.151   6.191   0.732
 3416TIP3    H210192   8.239   6.142   0.618
 3417TIP3   OH210193   1.521   0.695   3.830
 3417TIP3    H110194   1.551   0.779   3.795
 3417TIP3    H210195   1.452   0.718   3.892
 3418TIP3   OH210196   2.412   6.398   5.027
 3418TIP3    H110197   2.382   6.389   5.118
 3418TIP3    H210198   2.469   6.322   5.014
 3419TIP3   OH210199   5.354   1.230   1.205
 3419TIP3    H110200   5.440   1.271   1.217
 3419TIP3    H210201   5.291   1.301   1.217
 3420TIP3   OH210202   3.846   6.030   1.266
 3420TIP3    H110203   3.925   6.034   1.321
 3420TIP3    H210204   3.840   6.117   1.227
 3421TIP3   OH210205  -0.009   5.229   4.133
 3421TIP3    H110206   0.081   5.198   4.132
 3421TIP3    H210207  -0.016   5.283   4.212
 3422TIP3   OH210208   5.000   1.283   6.502
 3422TIP3    H110209   4.972   1.227   6.430
 3422TIP3    H210210   4.930   1.275   6.567
 3423TIP3   OH210211   4.333   2.694   1.750
 3423TIP3    H110212   4.307   2.684   1.841
 3423TIP3    H210213   4.288   2.622   1.705
 3424TIP3   OH210214   7.986   4.125   4.148
 3424TIP3    H110215   7.970   4.219   4.148
 3424TIP3    H210216   8.038   4.110   4.068
 3425TIP3   OH210217   5.489   5.910   4.036
 3425TIP3    H110218   5.510   5.817   4.052
 3425TIP3    H210219   5.529   5.956   4.110
 3426TIP3   OH210220   4.438   3.875   6.249
 3426TIP3    H110221   4.422   3.967   6.270
 3426TIP3    H210222   4.464   3.836   6.332
 3427TIP3   OH210223   2.467   0.747   4.210
 3427TIP3    H110224   2.506   0.834   4.212
 3427TIP3    H210225   2.377   0.760   4.239
 3428TIP3   OH210226   0.208   0.064   0.436
 3428TIP3    H110227   0.277   0.102   0.489
 3428TIP3    H210228   0.237   0.074   0.346
 3429TIP3   OH210229   1.337   2.441   1.949
 3429TIP3    H110230   1.424   2.404   1.935
 3429TIP3    H210231   1.310   2.473   1.863
 3430TIP3   OH210232   5.720   4.336   4.899
 3430TIP3    H110233   5.662   4.412   4.912
 3430TIP3    H210234   5.676   4.284   4.831
 3431TIP3   OH210235   3.874   0.807   6.734
 3431TIP3    H110236   3.800   0.820   6.793
 3431TIP3    H210237   3.948   0.788   6.792
 3432TIP3   OH210238   6.290   6.613   0.355
 3432TIP3    H110239   6.384   6.600   0.342
 3432TIP3    H210240   6.272   6.575   0.441
 3433TIP3   OH210241   7.486   2.713   5.218
 3433TIP3    H110242   7.508   2.719   5.311
 3433TIP3    H210243   7.486   2.619   5.200
 3434TIP3   OH210244   5.677   2.943   6.168
 3434TIP3    H110245   5.683   2.960   6.074
 3434TIP3    H210246   5.724   3.017   6.209
 3435TIP3   OH210247   7.560   4.809   5.423
 3435TIP3    H110248   7.585   4.723   5.391
 3435TIP3    H210249   7.640   4.861   5.416
 3436TIP3   OH210250   4.988   4.597   4.463
 3436TIP3    H110251   4.959   4.672   4.412
 3436TIP3    H210252   5.008   4.530   4.398
 3437TIP3   OH210253   2.688   3.584   6.595
 3437TIP3    H110254   2.701   3.646   6.524
 3437TIP3    H210255   2.686   3.637   6.674
 3438TIP3   OH210256   6.093   6.695   5.753
 3438TIP3    H110257   6.002   6.726   5.753
 3438TIP3    H210258   6.144   6.772   5.776
 3439TIP3   OH210259   4.253   0.398   3.856
 3439TIP3    H110260   4.219   0.364   3.939
 3439TIP3    H210261   4.198   0.473   3.835
 3440TIP3   OH210262   3.985   3.523   6.738
 3440TIP3    H110263   3.906   3.505   6.789
 3440TIP3    H210264   4.054   3.474   6.782
 3441TIP3   OH210265   4.551   6.524   5.061
 3441TIP3    H110266   4.519   6.437   5.041
 3441TIP3    H210267   4.473   6.576   5.079
 3442TIP3   OH210268   2.326   1.439   6.412
 3442TIP3    H110269   2.287   1.353   6.430
 3442TIP3    H210270   2.326   1.484   6.496
 3443TIP3   OH210271   5.429   2.238   5.220
 3443TIP3    H110272   5.404   2.315   5.271
 3443TIP3    H210273   5.359   2.175   5.235
 3444TIP3   OH210274   2.481   1.793   0.500
 3444TIP3    H110275   2.473   1.839   0.416
 3444TIP3    H210276   2.407   1.732   0.500
 3445TIP3   OH210277   0.556   2.007   2.417
 3445TIP3    H110278   0.597   1.978   2.498
 3445TIP3    H210279   0.508   2.086   2.442
 3446TIP3   OH210280   2.253   6.441   5.285
 3446TIP3    H110281   2.202   6.462   5.207
 3446TIP3    H210282   2.202   6.475   5.358
 3447TIP3   OH210283   5.104   6.009   0.981
 3447TIP3    H110284   5.010   6.023   0.971
 3447TIP3    H210285   5.140   6.024   0.894
 3448TIP3   OH210286   0.964   6.757   3.307
 3448TIP3    H110287   0.953   6.692   3.238
 3448TIP3    H210288   0.882   6.754   3.357
 3449TIP3   OH210289   3.812   6.044   4.004
 3449TIP3    H110290   3.729   6.008   4.036
 3449TIP3    H210291   3.812   6.025   3.910
 3450TIP3   OH210292   0.531   1.770   1.070
 3450TIP3    H110293   0.477   1.702   1.029
 3450TIP3    H210294   0.620   1.750   1.043
 3451TIP3   OH210295   5.836   0.015   2.948
 3451TIP3    H110296   5.811  -0.045   3.018
 3451TIP3    H210297   5.897   0.076   2.989
 3452TIP3   OH210298   3.172   0.595   4.892
 3452TIP3    H110299   3.180   0.502   4.914
 3452TIP3    H210300   3.143   0.636   4.973
 3453TIP3   OH210301   3.278   5.499   1.024
 3453TIP3    H110302   3.372   5.489   1.010
 3453TIP3    H210303   3.238   5.478   0.940
 3454TIP3   OH210304   0.482   4.589   0.391
 3454TIP3    H110305   0.434   4.656   0.343
 3454TIP3    H210306   0.499   4.628   0.477
 3455TIP3   OH210307   2.875   0.890   4.455
 3455TIP3    H110308   2.913   0.970   4.491
 3455TIP3    H210309   2.950   0.832   4.443
 3456TIP3   OH210310   2.886   4.568   5.303
 3456TIP3    H110311   2.834   4.636   5.260
 3456TIP3    H210312   2.969   4.611   5.324
 3457TIP3   OH210313   6.967   4.272   0.690
 3457TIP3    H110314   6.909   4.201   0.664
 3457TIP3    H210315   7.055   4.233   0.686
 3458TIP3   OH210316   2.166   2.767   1.255
 3458TIP3    H110317   2.116   2.835   1.210
 3458TIP3    H210318   2.108   2.737   1.325
 3459TIP3   OH210319   5.231   1.536   3.799
 3459TIP3    H110320   5.251   1.475   3.729
 3459TIP3    H210321   5.135   1.532   3.808
 3460TIP3   OH210322   5.144   5.750   0.068
 3460TIP3    H110323   5.096   5.809   0.010
 3460TIP3    H210324   5.123   5.783   0.156
 3461TIP3   OH210325   5.030   3.478   3.371
 3461TIP3    H110326   5.102   3.495   3.430
 3461TIP3    H210327   5.057   3.516   3.287
 3462TIP3   OH210328   6.739   2.108   5.697
 3462TIP3    H110329   6.695   2.111   5.782
 3462TIP3    H210330   6.821   2.154   5.710
 3463TIP3   OH210331   2.373   3.890   2.709
 3463TIP3    H110332   2.335   3.955   2.769
 3463TIP3    H210333   2.428   3.941   2.650
 3464TIP3   OH210334   4.549   2.868   0.110
 3464TIP3    H110335   4.565   2.800   0.045
 3464TIP3    H210336   4.468   2.910   0.083
 3465TIP3   OH210337   5.901   2.047   2.295
 3465TIP3    H110338   5.974   2.102   2.268
 3465TIP3    H210339   5.845   2.041   2.217
 3466TIP3   OH210340   1.222   5.599   4.397
 3466TIP3    H110341   1.172   5.592   4.316
 3466TIP3    H210342   1.261   5.512   4.408
 3467TIP3   OH210343   1.203   4.361   1.394
 3467TIP3    H110344   1.296   4.352   1.415
 3467TIP3    H210345   1.192   4.308   1.314
 3468TIP3   OH210346   6.776   4.922   3.525
 3468TIP3    H110347   6.762   5.006   3.483
 3468TIP3    H210348   6.716   4.922   3.600
 3469TIP3   OH210349   7.617   1.643   3.778
 3469TIP3    H110350   7.709   1.624   3.796
 3469TIP3    H210351   7.600   1.604   3.693
 3470TIP3   OH210352   1.910   0.586   2.555
 3470TIP3    H110353   1.973   0.520   2.584
 3470TIP3    H210354   1.958   0.641   2.494
 3471TIP3   OH210355   8.278   1.261   4.872
 3471TIP3    H110356   8.207   1.324   4.860
 3471TIP3    H210357   8.299   1.266   4.965
 3472TIP3   OH210358   7.382   2.953   3.609
 3472TIP3    H110359   7.306   2.988   3.562
 3472TIP3    H210360   7.357   2.864   3.633
 3473TIP3   OH210361   3.896   1.493   1.580
 3473TIP3    H110362   3.943   1.415   1.610
 3473TIP3    H210363   3.819   1.459   1.535
 3474TIP3   OH210364   3.259   0.134   1.987
 3474TIP3    H110365   3.187   0.193   2.010
 3474TIP3    H210366   3.308   0.182   1.920
 3475TIP3   OH210367   0.374   2.860   0.857
 3475TIP3    H110368   0.441   2.884   0.793
 3475TIP3    H210369   0.418   2.796   0.914
 3476TIP3   OH210370   3.441   7.093   1.028
 3476TIP3    H110371   3.501   7.167   1.018
 3476TIP3    H210372   3.389   7.115   1.105
 3477TIP3   OH210373   1.052   3.798   0.357
 3477TIP3    H110374   1.001   3.873   0.388
 3477TIP3    H210375   1.128   3.836   0.314
 3478TIP3   OH210376   7.239   0.459   4.895
 3478TIP3    H110377   7.187   0.403   4.952
 3478TIP3    H210378   7.189   0.541   4.890
 3479TIP3   OH210379   4.358   4.516   5.885
 3479TIP3    H110380   4.371   4.470   5.802
 3479TIP3    H210381   4.434   4.490   5.938
 3480TIP3   OH210382   2.550   0.374   3.184
 3480TIP3    H110383   2.483   0.336   3.127
 3480TIP3    H210384   2.633   0.345   3.145
 3481TIP3   OH210385   7.609   7.570   3.587
 3481TIP3    H110386   7.674   7.578   3.517
 3481TIP3    H210387   7.556   7.649   3.581
 3482TIP3   OH210388   3.887   6.901   4.031
 3482TIP3    H110389   3.936   6.856   3.961
 3482TIP3    H210390   3.949   6.908   4.103
 3483TIP3   OH210391   3.449   3.127   5.462
 3483TIP3    H110392   3.480   3.048   5.417
 3483TIP3    H210393   3.401   3.175   5.396
 3484TIP3   OH210394   3.910   6.249   0.776
 3484TIP3    H110395   3.999   6.285   0.783
 3484TIP3    H210396   3.853   6.325   0.791
 3485TIP3   OH210397   7.378   2.937   2.667
 3485TIP3    H110398   7.445   2.958   2.602
 3485TIP3    H210399   7.295   2.946   2.618
 3486TIP3   OH210400   4.651   1.571   4.471
 3486TIP3    H110401   4.713   1.540   4.537
 3486TIP3    H210402   4.706   1.615   4.406
 3487TIP3   OH210403   5.305   0.402   3.308
 3487TIP3    H110404   5.387   0.415   3.262
 3487TIP3    H210405   5.295   0.480   3.363
 3488TIP3   OH210406   7.924   3.181   4.716
 3488TIP3    H110407   7.832   3.206   4.724
 3488TIP3    H210408   7.971   3.244   4.771
 3489TIP3   OH210409   7.441   7.086   2.089
 3489TIP3    H110410   7.466   7.022   2.156
 3489TIP3    H210411   7.406   7.033   2.017
 3490TIP3   OH210412   2.037   1.704   5.161
 3490TIP3    H110413   2.037   1.648   5.083
 3490TIP3    H210414   2.123   1.690   5.201
 3491TIP3   OH210415   1.223   2.377   6.652
 3491TIP3    H110416   1.146   2.424   6.685
 3491TIP3    H210417   1.187   2.301   6.606
 3492TIP3   OH210418   6.190   1.983   6.570
 3492TIP3    H110419   6.259   1.953   6.630
 3492TIP3    H210420   6.144   2.051   6.620
 3493TIP3   OH210421   4.949   4.894   1.362
 3493TIP3    H110422   4.921   4.822   1.306
 3493TIP3    H210423   4.867   4.937   1.388
 3494TIP3   OH210424   5.816   2.332   1.272
 3494TIP3    H110425   5.790   2.322   1.364
 3494TIP3    H210426   5.774   2.413   1.243
 3495TIP3   OH210427   6.868   7.609   5.142
 3495TIP3    H110428   6.919   7.643   5.215
 3495TIP3    H210429   6.780   7.645   5.154
 3496TIP3   OH210430   1.098   5.585   6.088
 3496TIP3    H110431   1.167   5.552   6.145
 3496TIP3    H210432   1.144   5.616   6.010
 3497TIP3   OH210433   0.395   6.812   3.819
 3497TIP3    H110434   0.380   6.905   3.801
 3497TIP3    H210435   0.401   6.807   3.914
 3498TIP3   OH210436   8.033   2.274   4.236
 3498TIP3    H110437   8.053   2.350   4.181
 3498TIP3    H210438   7.947   2.245   4.206
 3499TIP3   OH210439   2.866   3.760   2.962
 3499TIP3    H110440   2.816   3.766   3.043
 3499TIP3    H210441   2.923   3.837   2.964
 3500TIP3   OH210442   3.556   3.043   6.171
 3500TIP3    H110443   3.491   3.112   6.186
 3500TIP3    H210444   3.523   2.994   6.097
 3501TIP3   OH210445   4.410   4.949   2.948
 3501TIP3    H110446   4.429   4.936   2.855
 3501TIP3    H210447   4.336   5.010   2.950
 3502TIP3   OH210448   0.269   4.786   2.585
 3502TIP3    H110449   0.200   4.743   2.635
 3502TIP3    H210450   0.328   4.822   2.652
 3503TIP3   OH210451   8.186   1.970   2.233
 3503TIP3    H110452   8.216   2.047   2.282
 3503TIP3    H210453   8.244   1.899   2.262
 3504TIP3   OH210454   1.283   3.158   3.757
 3504TIP3    H110455   1.319   3.246   3.771
 3504TIP3    H210456   1.360   3.104   3.736
 3505TIP3   OH210457   6.283   4.597   5.124
 3505TIP3    H110458   6.367   4.627   5.088
 3505TIP3    H210459   6.306   4.521   5.177
 3506TIP3   OH210460   5.967   4.731   4.990
 3506TIP3    H110461   5.991   4.638   4.990
 3506TIP3    H210462   5.938   4.748   5.080
 3507TIP3   OH210463   0.433   5.648   0.856
 3507TIP3    H110464   0.472   5.567   0.824
 3507TIP3    H210465   0.489   5.674   0.929
 3508TIP3   OH210466   3.292   1.985   4.836
 3508TIP3    H110467   3.233   1.914   4.808
 3508TIP3    H210468   3.237   2.063   4.836
 3509TIP3   OH210469   1.584   5.428   3.104
 3509TIP3    H110470   1.565   5.512   3.145
 3509TIP3    H210471   1.679   5.419   3.111
 3510TIP3   OH210472   5.729   2.136   4.313
 3510TIP3    H110473   5.763   2.094   4.392
 3510TIP3    H210474   5.806   2.165   4.266
 3511TIP3   OH210475   1.259   3.086   3.202
 3511TIP3    H110476   1.166   3.068   3.189
 3511TIP3    H210477   1.272   3.079   3.297
 3512TIP3   OH210478   1.474   4.153   1.462
 3512TIP3    H110479   1.476   4.241   1.426
 3512TIP3    H210480   1.452   4.165   1.555
 3513TIP3   OH210481   8.156   1.573   0.403
 3513TIP3    H110482   8.158   1.544   0.494
 3513TIP3    H210483   8.125   1.663   0.407
 3514TIP3   OH210484   5.100   7.195   1.429
 3514TIP3    H110485   5.078   7.229   1.342
 3514TIP3    H210486   5.165   7.256   1.462
 3515TIP3   OH210487   3.233   1.431   6.406
 3515TIP3    H110488   3.256   1.504   6.464
 3515TIP3    H210489   3.176   1.470   6.339
 3516TIP3   OH210490   3.553   6.694   4.928
 3516TIP3    H110491   3.532   6.787   4.920
 3516TIP3    H210492   3.585   6.669   4.841
 3517TIP3   OH210493   0.904   4.327   4.248
 3517TIP3    H110494   0.845   4.292   4.182
 3517TIP3    H210495   0.991   4.303   4.218
 3518TIP3   OH210496   1.937   0.686   0.654
 3518TIP3    H110497   1.882   0.739   0.597
 3518TIP3    H210498   1.943   0.601   0.610
 3519TIP3   OH210499   3.341   2.759   5.368
 3519TIP3    H110500   3.252   2.785   5.391
 3519TIP3    H210501   3.392   2.774   5.447
 3520TIP3   OH210502   7.120   3.486  -0.051
 3520TIP3    H110503   7.054   3.551  -0.026
 3520TIP3    H210504   7.115   3.420   0.018
 3521TIP3   OH210505   4.006   3.091   0.927
 3521TIP3    H110506   4.011   3.016   0.868
 3521TIP3    H210507   4.063   3.157   0.887
 3522TIP3   OH210508   0.160   6.545   5.529
 3522TIP3    H110509   0.183   6.634   5.552
 3522TIP3    H210510   0.230   6.516   5.470
 3523TIP3   OH210511   6.441   2.286   2.153
 3523TIP3    H110512   6.441   2.370   2.198
 3523TIP3    H210513   6.412   2.305   2.064
 3524TIP3   OH210514   4.853   1.757   2.400
 3524TIP3    H110515   4.820   1.704   2.472
 3524TIP3    H210516   4.909   1.822   2.441
 3525TIP3   OH210517   1.058   6.388   0.620
 3525TIP3    H110518   1.117   6.382   0.545
 3525TIP3    H210519   1.095   6.328   0.685
 3526TIP3   OH210520   0.964   3.008   3.102
 3526TIP3    H110521   0.904   3.043   3.167
 3526TIP3    H210522   0.943   2.915   3.097
 3527TIP3   OH210523   1.664   6.889   1.445
 3527TIP3    H110524   1.641   6.888   1.353
 3527TIP3    H210525   1.706   6.804   1.460
 3528TIP3   OH210526   0.414   3.666   3.519
 3528TIP3    H110527   0.487   3.678   3.580
 3528TIP3    H210528   0.453   3.682   3.433
 3529TIP3   OH210529   0.180   7.047   4.088
 3529TIP3    H110530   0.259   7.002   4.058
 3529TIP3    H210531   0.207   7.139   4.097
 3530TIP3   OH210532   6.544   6.744   1.274
 3530TIP3    H110533   6.525   6.665   1.325
 3530TIP3    H210534   6.579   6.806   1.339
 3531TIP3   OH210535   1.116   7.380   1.861
 3531TIP3    H110536   1.209   7.364   1.876
 3531TIP3    H210537   1.071   7.313   1.912
 3532TIP3   OH210538   1.165   1.144   4.405
 3532TIP3    H110539   1.126   1.201   4.340
 3532TIP3    H210540   1.123   1.059   4.392
 3533TIP3   OH210541   0.013  -0.088   0.859
 3533TIP3    H110542  -0.004  -0.004   0.900
 3533TIP3    H210543   0.020  -0.069   0.765
 3534TIP3   OH210544   2.136   5.387   0.113
 3534TIP3    H110545   2.191   5.421   0.184
 3534TIP3    H210546   2.171   5.300   0.096
 3535TIP3   OH210547   0.488   1.321   2.007
 3535TIP3    H110548   0.402   1.334   1.966
 3535TIP3    H210549   0.498   1.226   2.011
 3536TIP3   OH210550   4.662   4.992   6.632
 3536TIP3    H110551   4.697   4.943   6.706
 3536TIP3    H210552   4.631   4.925   6.571
 3537TIP3   OH210553   6.545   7.370   3.571
 3537TIP3    H110554   6.451   7.377   3.592
 3537TIP3    H210555   6.565   7.449   3.522
 3538TIP3   OH210556   1.820   5.816   4.437
 3538TIP3    H110557   1.754   5.884   4.448
 3538TIP3    H210558   1.870   5.816   4.519
 3539TIP3   OH210559   4.614   5.157   2.528
 3539TIP3    H110560   4.584   5.247   2.510
 3539TIP3    H210561   4.708   5.167   2.545
 3540TIP3   OH210562   4.903   0.292   0.859
 3540TIP3    H110563   4.963   0.219   0.872
 3540TIP3    H210564   4.876   0.317   0.947
 3541TIP3   OH210565   3.134   1.046   6.417
 3541TIP3    H110566   3.227   1.058   6.434
 3541TIP3    H210567   3.128   0.962   6.371
 3542TIP3   OH210568   1.341   5.168   5.207
 3542TIP3    H110569   1.253   5.131   5.204
 3542TIP3    H210570   1.354   5.189   5.300
 3543TIP3   OH210571   2.927   7.766   2.729
 3543TIP3    H110572   2.986   7.818   2.785
 3543TIP3    H210573   2.867   7.725   2.791
 3544TIP3   OH210574   4.456   0.252   5.856
 3544TIP3    H110575   4.490   0.306   5.927
 3544TIP3    H210576   4.458   0.163   5.891
 3545TIP3   OH210577   0.772   2.660   4.441
 3545TIP3    H110578   0.758   2.754   4.445
 3545TIP3    H210579   0.777   2.640   4.347
 3546TIP3   OH210580   4.842   3.997   1.658
 3546TIP3    H110581   4.896   3.923   1.686
 3546TIP3    H210582   4.757   3.981   1.698
 3547TIP3   OH210583   1.993   5.978   0.665
 3547TIP3    H110584   2.068   5.922   0.686
 3547TIP3    H210585   1.933   5.968   0.739
 3548TIP3   OH210586   6.041   0.009   1.516
 3548TIP3    H110587   6.135  -0.002   1.531
 3548TIP3    H210588   6.024   0.102   1.534
 3549TIP3   OH210589   2.649   7.787   6.397
 3549TIP3    H110590   2.617   7.704   6.364
 3549TIP3    H210591   2.731   7.802   6.351
 3550TIP3   OH210592   6.554   7.161   6.449
 3550TIP3    H110593   6.553   7.153   6.545
 3550TIP3    H210594   6.462   7.152   6.424
 3551TIP3   OH210595   8.276   5.944   4.972
 3551TIP3    H110596   8.339   5.982   5.033
 3551TIP3    H210597   8.233   5.875   5.021
 3552TIP3   OH210598   5.075   3.536   2.303
 3552TIP3    H110599   5.038   3.617   2.268
 3552TIP3    H210600   5.169   3.543   2.286
 3553TIP3   OH210601   2.013   2.481   2.863
 3553TIP3    H110602   2.043   2.400   2.904
 3553TIP3    H210603   1.928   2.498   2.904
 3554TIP3   OH210604   2.544   0.966   6.319
 3554TIP3    H110605   2.475   0.915   6.362
 3554TIP3    H210606   2.520   1.057   6.336
 3555TIP3   OH210607   1.121   3.898   3.280
 3555TIP3    H110608   1.191   3.963   3.273
 3555TIP3    H210609   1.062   3.934   3.346
 3556TIP3   OH210610   0.856   3.176   5.768
 3556TIP3    H110611   0.865   3.260   5.723
 3556TIP3    H210612   0.942   3.134   5.758
 3557TIP3   OH210613   1.029   0.131   6.581
 3557TIP3    H110614   1.057   0.058   6.635
 3557TIP3    H210615   1.097   0.138   6.513
 3558TIP3   OH210616   3.418   2.442   4.388
 3558TIP3    H110617   3.339   2.447   4.334
 3558TIP3    H210618   3.483   2.492   4.339
 3559TIP3   OH210619   3.189   4.653   1.840
 3559TIP3    H110620   3.216   4.659   1.748
 3559TIP3    H210621   3.142   4.569   1.845
 3560TIP3   OH210622   3.769   6.617   1.714
 3560TIP3    H110623   3.772   6.669   1.794
 3560TIP3    H210624   3.675   6.611   1.693
 3561TIP3   OH210625   7.156   1.887   0.599
 3561TIP3    H110626   7.153   1.835   0.679
 3561TIP3    H210627   7.193   1.828   0.533
 3562TIP3   OH210628   0.590   2.741   2.487
 3562TIP3    H110629   0.530   2.815   2.471
 3562TIP3    H210630   0.616   2.751   2.578
 3563TIP3   OH210631   2.273   5.787   6.212
 3563TIP3    H110632   2.234   5.703   6.234
 3563TIP3    H210633   2.311   5.775   6.125
 3564TIP3   OH210634   5.350   5.479   4.701
 3564TIP3    H110635   5.407   5.529   4.643
 3564TIP3    H210636   5.262   5.513   4.685
 3565TIP3   OH210637   1.259   6.409   4.658
 3565TIP3    H110638   1.347   6.446   4.667
 3565TIP3    H210639   1.206   6.482   4.624
 3566TIP3   OH210640   2.543   0.969   5.027
 3566TIP3    H110641   2.503   0.941   4.944
 3566TIP3    H210642   2.637   0.956   5.013
 3567TIP3   OH210643   3.355   3.502   1.484
 3567TIP3    H110644   3.316   3.491   1.571
 3567TIP3    H210645   3.390   3.591   1.484
 3568TIP3   OH210646   4.979   7.538   0.877
 3568TIP3    H110647   4.975   7.633   0.874
 3568TIP3    H210648   4.913   7.513   0.942
 3569TIP3   OH210649   4.440   6.644   4.817
 3569TIP3    H110650   4.394   6.644   4.901
 3569TIP3    H210651   4.429   6.555   4.784
 3570TIP3   OH210652   1.371   7.578   5.781
 3570TIP3    H110653   1.348   7.623   5.863
 3570TIP3    H210654   1.435   7.512   5.808
 3571TIP3   OH210655   1.283   5.980   4.608
 3571TIP3    H110656   1.349   6.048   4.602
 3571TIP3    H210657   1.201   6.022   4.582
 3572TIP3   OH210658   6.394   3.587   5.333
 3572TIP3    H110659   6.344   3.516   5.374
 3572TIP3    H210660   6.365   3.586   5.242
 3573TIP3   OH210661   4.023   0.644   3.154
 3573TIP3    H110662   4.002   0.601   3.237
 3573TIP3    H210663   4.093   0.589   3.116
 3574TIP3   OH210664   1.606   4.581   5.665
 3574TIP3    H110665   1.553   4.502   5.656
 3574TIP3    H210666   1.542   4.653   5.661
 3575TIP3   OH210667   4.739   2.028   1.501
 3575TIP3    H110668   4.689   2.089   1.555
 3575TIP3    H210669   4.691   1.946   1.508
 3576TIP3   OH210670   6.572   6.719   6.433
 3576TIP3    H110671   6.616   6.634   6.427
 3576TIP3    H210672   6.527   6.717   6.517
 3577TIP3   OH210673   7.047   7.256   1.426
 3577TIP3    H110674   7.115   7.209   1.475
 3577TIP3    H210675   6.964   7.219   1.459
 3578TIP3   OH210676   0.240   4.405   5.565
 3578TIP3    H110677   0.216   4.366   5.481
 3578TIP3    H210678   0.157   4.414   5.612
 3579TIP3   OH210679   2.693   0.820   4.682
 3579TIP3    H110680   2.756   0.797   4.614
 3579TIP3    H210681   2.707   0.913   4.699
 3580TIP3   OH210682   1.571   7.590   2.197
 3580TIP3    H110683   1.579   7.600   2.292
 3580TIP3    H210684   1.656   7.557   2.168
 3581TIP3   OH210685   2.411   2.319   4.936
 3581TIP3    H110686   2.340   2.335   4.998
 3581TIP3    H210687   2.377   2.347   4.852
 3582TIP3   OH210688   4.071   7.460   2.157
 3582TIP3    H110689   4.127   7.437   2.231
 3582TIP3    H210690   4.102   7.406   2.085
 3583TIP3   OH210691   1.000   6.404   4.074
 3583TIP3    H110692   0.947   6.349   4.131
 3583TIP3    H210693   1.090   6.378   4.092
 3584TIP3   OH210694   2.127   6.115   5.228
 3584TIP3    H110695   2.058   6.150   5.283
 3584TIP3    H210696   2.099   6.133   5.139
 3585TIP3   OH210697   0.735   3.810   4.783
 3585TIP3    H110698   0.699   3.879   4.727
 3585TIP3    H210699   0.808   3.774   4.733
 3586TIP3   OH210700   0.187   0.498   6.356
 3586TIP3    H110701   0.258   0.464   6.301
 3586TIP3    H210702   0.138   0.421   6.383
 3587TIP3   OH210703   2.077   3.027   1.196
 3587TIP3    H110704   2.063   3.115   1.161
 3587TIP3    H210705   2.161   3.033   1.243
 3588TIP3   OH210706   7.187   5.633   3.402
 3588TIP3    H110707   7.238   5.619   3.323
 3588TIP3    H210708   7.132   5.709   3.382
 3589TIP3   OH210709   3.274   0.974   5.134
 3589TIP3    H110710   3.199   1.024   5.101
 3589TIP3    H210711   3.263   0.973   5.229
 3590TIP3   OH210712   3.872   6.111   1.694
 3590TIP3    H110713   3.824   6.030   1.713
 3590TIP3    H210714   3.917   6.132   1.775
 3591TIP3   OH210715   7.820   5.441   1.966
 3591TIP3    H110716   7.793   5.361   1.920
 3591TIP3    H210717   7.841   5.502   1.896
 3592TIP3   OH210718   7.130   7.450   1.605
 3592TIP3    H110719   7.079   7.383   1.650
 3592TIP3    H210720   7.102   7.444   1.513
 3593TIP3   OH210721   4.715   2.325   4.565
 3593TIP3    H110722   4.642   2.387   4.569
 3593TIP3    H210723   4.781   2.363   4.623
 3594TIP3   OH210724   7.088   3.243   5.275
 3594TIP3    H110725   7.127   3.313   5.223
 3594TIP3    H210726   7.149   3.169   5.266
 3595TIP3   OH210727   2.939   7.805   1.875
 3595TIP3    H110728   2.898   7.877   1.827
 3595TIP3    H210729   2.961   7.843   1.960
 3596TIP3   OH210730   3.610   5.747   6.677
 3596TIP3    H110731   3.521   5.781   6.680
 3596TIP3    H210732   3.612   5.690   6.600
 3597TIP3   OH210733   8.000   1.355   3.642
 3597TIP3    H110734   7.993   1.348   3.547
 3597TIP3    H210735   8.090   1.381   3.658
 3598TIP3   OH210736   0.313   4.169   6.437
 3598TIP3    H110737   0.266   4.235   6.487
 3598TIP3    H210738   0.248   4.132   6.377
 3599TIP3   OH210739   8.107   0.608   3.524
 3599TIP3    H110740   8.130   0.669   3.454
 3599TIP3    H210741   8.138   0.650   3.604
 3600TIP3   OH210742   5.222   5.246   2.472
 3600TIP3    H110743   5.198   5.179   2.536
 3600TIP3    H210744   5.312   5.269   2.493
 3601TIP3   OH210745   7.795   1.566   1.123
 3601TIP3    H110746   7.768   1.510   1.195
 3601TIP3    H210747   7.720   1.623   1.107
 3602TIP3   OH210748   6.313   4.283   5.059
 3602TIP3    H110749   6.359   4.327   5.131
 3602TIP3    H210750   6.328   4.190   5.075
 3603TIP3   OH210751   0.497   3.296   0.368
 3603TIP3    H110752   0.555   3.273   0.440
 3603TIP3    H210753   0.526   3.383   0.341
 3604TIP3   OH210754   4.423   5.611   1.323
 3604TIP3    H110755   4.410   5.650   1.410
 3604TIP3    H210756   4.493   5.663   1.284
 3605TIP3   OH210757   2.039   1.858   5.527
 3605TIP3    H110758   1.977   1.835   5.458
 3605TIP3    H210759   2.000   1.934   5.570
 3606TIP3   OH210760   7.888   6.822   1.158
 3606TIP3    H110761   7.794   6.835   1.174
 3606TIP3    H210762   7.926   6.813   1.245
 3607TIP3   OH210763   1.134   6.311   3.741
 3607TIP3    H110764   1.174   6.242   3.795
 3607TIP3    H210765   1.207   6.346   3.690
 3608TIP3   OH210766   5.628   6.229   4.914
 3608TIP3    H110767   5.646   6.189   4.999
 3608TIP3    H210768   5.689   6.186   4.854
 3609TIP3   OH210769   8.183   2.311   3.713
 3609TIP3    H110770   8.123   2.245   3.748
 3609TIP3    H210771   8.268   2.266   3.709
 3610TIP3   OH210772   2.694   2.866   5.843
 3610TIP3    H110773   2.735   2.791   5.886
 3610TIP3    H210774   2.616   2.830   5.802
 3611TIP3   OH210775   0.633   6.375   0.248
 3611TIP3    H110776   0.683   6.357   0.169
 3611TIP3    H210777   0.557   6.317   0.243
 3612TIP3   OH210778   1.483   7.426   6.139
 3612TIP3    H110779   1.481   7.504   6.082
 3612TIP3    H210780   1.468   7.353   6.079
 3613TIP3   OH210781   1.796   1.579   3.947
 3613TIP3    H110782   1.804   1.550   4.038
 3613TIP3    H210783   1.766   1.669   3.953
 3614TIP3   OH210784   6.464   6.832   2.252
 3614TIP3    H110785   6.518   6.753   2.252
 3614TIP3    H210786   6.515   6.896   2.302
 3615TIP3   OH210787   3.103   4.667   4.875
 3615TIP3    H110788   3.072   4.737   4.932
 3615TIP3    H210789   3.119   4.709   4.790
 3616TIP3   OH210790   3.316   0.621   3.076
 3616TIP3    H110791   3.299   0.702   3.028
 3616TIP3    H210792   3.356   0.650   3.158
 3617TIP3   OH210793   2.928   3.586   4.186
 3617TIP3    H110794   2.989   3.658   4.202
 3617TIP3    H210795   2.971   3.533   4.119
 3618TIP3   OH210796   7.755   2.299   3.508
 3618TIP3    H110797   7.735   2.301   3.601
 3618TIP3    H210798   7.824   2.233   3.499
 3619TIP3   OH210799   8.033   1.281   2.408
 3619TIP3    H110800   8.122   1.300   2.439
 3619TIP3    H210801   8.035   1.188   2.387
 3620TIP3   OH210802   5.470   3.278   1.131
 3620TIP3    H110803   5.513   3.290   1.047
 3620TIP3    H210804   5.411   3.353   1.139
 3621TIP3   OH210805   5.049   1.413   6.772
 3621TIP3    H110806   5.017   1.477   6.835
 3621TIP3    H210807   5.003   1.435   6.691
 3622TIP3   OH210808   0.620   7.636   2.721
 3622TIP3    H110809   0.662   7.699   2.781
 3622TIP3    H210810   0.543   7.606   2.768
 3623TIP3   OH210811   3.383   3.204   3.351
 3623TIP3    H110812   3.479   3.201   3.355
 3623TIP3    H210813   3.361   3.165   3.267
 3624TIP3   OH210814   6.921   0.564   3.607
 3624TIP3    H110815   6.849   0.606   3.562
 3624TIP3    H210816   6.968   0.516   3.539
 3625TIP3   OH210817   6.102   7.747   6.173
 3625TIP3    H110818   6.190   7.710   6.180
 3625TIP3    H210819   6.088   7.755   6.078
 3626TIP3   OH210820   2.408   7.625   2.098
 3626TIP3    H110821   2.493   7.668   2.087
 3626TIP3    H210822   2.414   7.546   2.045
 3627TIP3   OH210823   4.848   3.619   4.325
 3627TIP3    H110824   4.906   3.660   4.260
 3627TIP3    H210825   4.887   3.640   4.409
 3628TIP3   OH210826   3.973   7.651   6.149
 3628TIP3    H110827   4.031   7.577   6.166
 3628TIP3    H210828   3.886   7.619   6.174
 3629TIP3   OH210829   2.761   5.637   3.431
 3629TIP3    H110830   2.766   5.545   3.403
 3629TIP3    H210831   2.832   5.647   3.494
 3630TIP3   OH210832   0.866   5.173   3.633
 3630TIP3    H110833   0.851   5.084   3.666
 3630TIP3    H210834   0.868   5.163   3.537
 3631TIP3   OH210835   4.165   7.217   0.563
 3631TIP3    H110836   4.227   7.145   0.578
 3631TIP3    H210837   4.138   7.208   0.472
 3632TIP3   OH210838   1.285   0.509   4.605
 3632TIP3    H110839   1.369   0.551   4.587
 3632TIP3    H210840   1.292   0.423   4.561
 3633TIP3   OH210841   3.736   1.604   4.200
 3633TIP3    H110842   3.769   1.539   4.138
 3633TIP3    H210843   3.811   1.661   4.217
 3634TIP3   OH210844   7.105   4.122   5.289
 3634TIP3    H110845   7.122   4.182   5.362
 3634TIP3    H210846   7.015   4.143   5.262
 3635TIP3   OH210847   1.638   2.460   5.652
 3635TIP3    H110848   1.710   2.482   5.592
 3635TIP3    H210849   1.563   2.442   5.595
 3636TIP3   OH210850   0.926   2.023   0.934
 3636TIP3    H110851   1.000   2.067   0.892
 3636TIP3    H210852   0.853   2.084   0.925
 3637TIP3   OH210853   7.516   2.606   0.774
 3637TIP3    H110854   7.472   2.648   0.700
 3637TIP3    H210855   7.556   2.677   0.823
 3638TIP3   OH210856   3.606   2.624   5.386
 3638TIP3    H110857   3.571   2.535   5.378
 3638TIP3    H210858   3.557   2.675   5.322
 3639TIP3   OH210859   6.294   3.621   3.575
 3639TIP3    H110860   6.306   3.609   3.481
 3639TIP3    H210861   6.331   3.708   3.593
 3640TIP3   OH210862   6.818   1.678   0.069
 3640TIP3    H110863   6.892   1.618   0.080
 3640TIP3    H210864   6.822   1.736   0.145
 3641TIP3   OH210865   1.828   4.795   3.134
 3641TIP3    H110866   1.795   4.884   3.123
 3641TIP3    H210867   1.920   4.799   3.109
 3642TIP3   OH210868   0.318   0.755   4.149
 3642TIP3    H110869   0.320   0.766   4.244
 3642TIP3    H210870   0.266   0.676   4.135
 3643TIP3   OH210871   2.143   6.544   3.077
 3643TIP3    H110872   2.207   6.493   3.027
 3643TIP3    H210873   2.186   6.562   3.160
 3644TIP3   OH210874   5.533   1.584   1.288
 3644TIP3    H110875   5.499   1.672   1.301
 3644TIP3    H210876   5.465   1.527   1.327
 3645TIP3   OH210877   6.726   6.849   3.662
 3645TIP3    H110878   6.702   6.814   3.749
 3645TIP3    H210879   6.821   6.851   3.663
 3646TIP3   OH210880   6.593   4.631   5.331
 3646TIP3    H110881   6.542   4.697   5.378
 3646TIP3    H210882   6.543   4.550   5.342
 3647TIP3   OH210883   3.273   2.732   0.189
 3647TIP3    H110884   3.178   2.725   0.176
 3647TIP3    H210885   3.310   2.666   0.131
 3648TIP3   OH210886   1.118   2.249   2.901
 3648TIP3    H110887   1.157   2.166   2.875
 3648TIP3    H210888   1.024   2.233   2.897
 3649TIP3   OH210889   5.751   1.831   2.676
 3649TIP3    H110890   5.710   1.875   2.751
 3649TIP3    H210891   5.833   1.797   2.710
 3650TIP3   OH210892   7.947   0.198   1.157
 3650TIP3    H110893   7.951   0.103   1.164
 3650TIP3    H210894   8.037   0.227   1.171
 3651TIP3   OH210895   7.756   2.690   6.253
 3651TIP3    H110896   7.796   2.642   6.325
 3651TIP3    H210897   7.782   2.643   6.175
 3652TIP3   OH210898   2.267   4.813   0.698
 3652TIP3    H110899   2.243   4.769   0.617
 3652TIP3    H210900   2.361   4.826   0.692
 3653TIP3   OH210901   0.557   3.745   2.059
 3653TIP3    H110902   0.599   3.689   2.124
 3653TIP3    H210903   0.509   3.810   2.110
 3654TIP3   OH210904   7.719   6.480   5.005
 3654TIP3    H110905   7.788   6.539   5.037
 3654TIP3    H210906   7.662   6.466   5.080
 3655TIP3   OH210907   5.187   7.006   5.145
 3655TIP3    H110908   5.230   7.067   5.085
 3655TIP3    H210909   5.112   6.973   5.096
 3656TIP3   OH210910   4.513   0.312   0.214
 3656TIP3    H110911   4.457   0.388   0.198
 3656TIP3    H210912   4.511   0.263   0.132
 3657TIP3   OH210913   6.441   4.871   5.377
 3657TIP3    H110914   6.502   4.933   5.338
 3657TIP3    H210915   6.368   4.866   5.314
 3658TIP3   OH210916   2.924   3.940   5.652
 3658TIP3    H110917   2.917   4.028   5.690
 3658TIP3    H210918   2.915   3.954   5.558
 3659TIP3   OH210919   8.185   5.504   6.386
 3659TIP3    H110920   8.183   5.578   6.326
 3659TIP3    H210921   8.276   5.500   6.417
 3660TIP3   OH210922   5.172   1.936   3.100
 3660TIP3    H110923   5.251   1.935   3.045
 3660TIP3    H210924   5.105   1.973   3.043
 3661TIP3   OH210925   4.955   1.792   6.650
 3661TIP3    H110926   5.013   1.804   6.725
 3661TIP3    H210927   5.014   1.760   6.581
 3662TIP3   OH210928   2.631   7.253   0.753
 3662TIP3    H110929   2.677   7.220   0.831
 3662TIP3    H210930   2.701   7.287   0.697
 3663TIP3   OH210931   1.200   0.170   1.424
 3663TIP3    H110932   1.207   0.251   1.474
 3663TIP3    H210933   1.282   0.124   1.441
 3664TIP3   OH210934   1.153   4.780   1.101
 3664TIP3    H110935   1.178   4.719   1.031
 3664TIP3    H210936   1.159   4.729   1.181
 3665TIP3   OH210937   5.328   4.968   1.573
 3665TIP3    H110938   5.420   4.941   1.580
 3665TIP3    H210939   5.307   4.961   1.480
 3666TIP3   OH210940   1.031   4.089   5.673
 3666TIP3    H110941   0.979   4.143   5.615
 3666TIP3    H210942   1.031   4.135   5.757
 3667TIP3   OH210943   0.170   2.733   1.223
 3667TIP3    H110944   0.203   2.665   1.165
 3667TIP3    H210945   0.100   2.776   1.173
 3668TIP3   OH210946   7.885   1.609   3.810
 3668TIP3    H110947   7.963   1.585   3.861
 3668TIP3    H210948   7.921   1.640   3.726
 3669TIP3   OH210949   1.725   2.233   2.899
 3669TIP3    H110950   1.699   2.161   2.842
 3669TIP3    H210951   1.774   2.191   2.969
 3670TIP3   OH210952   5.583   2.985   0.943
 3670TIP3    H110953   5.677   3.002   0.956
 3670TIP3    H210954   5.540   3.035   1.012
 3671TIP3   OH210955   0.404   3.506   5.130
 3671TIP3    H110956   0.465   3.518   5.203
 3671TIP3    H210957   0.394   3.594   5.093
 3672TIP3   OH210958   0.029   4.791   0.202
 3672TIP3    H110959   0.054   4.741   0.280
 3672TIP3    H210960   0.086   4.868   0.204
 3673TIP3   OH210961   5.962   3.420   3.046
 3673TIP3    H110962   5.894   3.352   3.046
 3673TIP3    H210963   5.983   3.432   3.139
 3674TIP3   OH210964   4.887   0.517   2.021
 3674TIP3    H110965   4.841   0.555   2.096
 3674TIP3    H210966   4.942   0.587   1.988
 3675TIP3   OH210967   0.003   6.482   0.207
 3675TIP3    H110968   0.091   6.519   0.201
 3675TIP3    H210969  -0.001   6.415   0.139
 3676TIP3   OH210970   4.012   7.409   4.323
 3676TIP3    H110971   4.068   7.336   4.349
 3676TIP3    H210972   3.924   7.371   4.316
 3677TIP3   OH210973   6.497   3.250   0.746
 3677TIP3    H110974   6.435   3.224   0.815
 3677TIP3    H210975   6.561   3.179   0.745
 3678TIP3   OH210976   2.925   7.701   3.153
 3678TIP3    H110977   2.844   7.681   3.108
 3678TIP3    H210978   2.960   7.616   3.180
 3679TIP3   OH210979   5.685   0.153   5.681
 3679TIP3    H110980   5.628   0.196   5.617
 3679TIP3    H210981   5.761   0.210   5.689
 3680TIP3   OH210982   5.646   2.561   0.306
 3680TIP3    H110983   5.674   2.477   0.343
 3680TIP3    H210984   5.637   2.545   0.212
 3681TIP3   OH210985   5.552   3.458   4.895
 3681TIP3    H110986   5.582   3.430   4.982
 3681TIP3    H210987   5.506   3.382   4.860
 3682TIP3   OH210988   2.613   1.885   0.721
 3682TIP3    H110989   2.565   1.862   0.641
 3682TIP3    H210990   2.665   1.962   0.696
 3683TIP3   OH210991   7.684   2.147   4.317
 3683TIP3    H110992   7.617   2.110   4.259
 3683TIP3    H210993   7.760   2.160   4.260
 3684TIP3   OH210994   3.196   5.523   4.271
 3684TIP3    H110995   3.176   5.493   4.183
 3684TIP3    H210996   3.121   5.577   4.295
 3685TIP3   OH210997   1.769   2.092   1.152
 3685TIP3    H110998   1.691   2.126   1.109
 3685TIP3    H210999   1.842   2.120   1.096
 3686TIP3   OH211000   5.141   3.094   1.819
 3686TIP3    H111001   5.215   3.141   1.780
 3686TIP3    H211002   5.069   3.157   1.817
 3687TIP3   OH211003   6.699   1.921   1.711
 3687TIP3    H111004   6.657   1.839   1.684
 3687TIP3    H211005   6.779   1.894   1.755
 3688TIP3   OH211006   3.249   7.564   1.628
 3688TIP3    H111007   3.172   7.552   1.683
 3688TIP3    H211008   3.237   7.650   1.589
 3689TIP3   OH211009   6.598   7.019   2.065
 3689TIP3    H111010   6.511   7.059   2.061
 3689TIP3    H211011   6.651   7.072   2.005
 3690TIP3   OH211012   1.794   5.483   2.787
 3690TIP3    H111013   1.836   5.462   2.871
 3690TIP3    H211014   1.720   5.539   2.811
 3691TIP3   OH211015   0.278   7.083   6.498
 3691TIP3    H111016   0.292   7.003   6.447
 3691TIP3    H211017   0.272   7.153   6.433
 3692TIP3   OH211018   0.107   1.950   1.833
 3692TIP3    H111019   0.141   2.021   1.886
 3692TIP3    H211020   0.133   1.972   1.743
 3693TIP3   OH211021   1.477   4.169   5.846
 3693TIP3    H111022   1.571   4.185   5.841
 3693TIP3    H211023   1.437   4.245   5.804
 3694TIP3   OH211024   0.050   2.280   6.112
 3694TIP3    H111025   0.105   2.280   6.190
 3694TIP3    H211026   0.089   2.346   6.055
 3695TIP3   OH211027   0.961   4.036   2.511
 3695TIP3    H111028   0.914   4.055   2.592
 3695TIP3    H211029   1.015   4.113   2.496
 3696TIP3   OH211030   3.440   6.146   3.423
 3696TIP3    H111031   3.475   6.070   3.469
 3696TIP3    H211032   3.517   6.190   3.386
 3697TIP3   OH211033   3.848   7.650   5.184
 3697TIP3    H111034   3.867   7.729   5.234
 3697TIP3    H211035   3.844   7.679   5.093
 3698TIP3   OH211036   4.197   3.216   3.861
 3698TIP3    H111037   4.200   3.123   3.837
 3698TIP3    H211038   4.139   3.219   3.937
 3699TIP3   OH211039   2.228   2.551   0.126
 3699TIP3    H111040   2.148   2.597   0.101
 3699TIP3    H211041   2.272   2.533   0.042
 3700TIP3   OH211042   5.155   6.535   2.082
 3700TIP3    H111043   5.104   6.462   2.048
 3700TIP3    H211044   5.239   6.497   2.106
 3701TIP3   OH211045   8.321   4.146   0.066
 3701TIP3    H111046   8.267   4.172   0.140
 3701TIP3    H211047   8.261   4.098   0.009
 3702TIP3   OH211048   3.616   6.659   4.184
 3702TIP3    H111049   3.640   6.747   4.212
 3702TIP3    H211050   3.534   6.671   4.135
 3703TIP3   OH211051   7.627   2.936   4.330
 3703TIP3    H111052   7.709   2.929   4.378
 3703TIP3    H211053   7.608   2.847   4.302
 3704TIP3   OH211054   1.900   0.929   6.696
 3704TIP3    H111055   1.948   0.930   6.779
 3704TIP3    H211056   1.841   0.854   6.704
 3705TIP3   OH211057   2.441   0.814   6.834
 3705TIP3    H111058   2.373   0.747   6.832
 3705TIP3    H211059   2.519   0.770   6.798
 3706TIP3   OH211060   7.421   0.972   4.326
 3706TIP3    H111061   7.478   0.957   4.401
 3706TIP3    H211062   7.392   0.884   4.301
 3707TIP3   OH211063   2.423   5.884   0.583
 3707TIP3    H111064   2.370   5.864   0.660
 3707TIP3    H211065   2.400   5.974   0.560
 3708TIP3   OH211066   7.593   6.643   5.527
 3708TIP3    H111067   7.622   6.568   5.580
 3708TIP3    H211068   7.667   6.661   5.469
 3709TIP3   OH211069   3.987   2.914   3.986
 3709TIP3    H111070   3.994   3.008   4.003
 3709TIP3    H211071   4.061   2.875   4.032
 3710TIP3   OH211072   5.624   2.025   6.741
 3710TIP3    H111073   5.709   2.005   6.702
 3710TIP3    H211074   5.598   1.945   6.785
 3711TIP3   OH211075   1.614   3.064   6.756
 3711TIP3    H111076   1.569   3.108   6.684
 3711TIP3    H211077   1.598   2.971   6.741
 3712TIP3   OH211078   1.018   3.152   4.663
 3712TIP3    H111079   1.007   3.199   4.746
 3712TIP3    H211080   1.059   3.216   4.605
 3713TIP3   OH211081   1.960   1.313   3.414
 3713TIP3    H111082   1.964   1.405   3.388
 3713TIP3    H211083   2.003   1.266   3.343
 3714TIP3   OH211084   8.037   3.174   5.865
 3714TIP3    H111085   7.995   3.259   5.851
 3714TIP3    H211086   7.968   3.118   5.900
 3715TIP3   OH211087   6.136   2.937   1.287
 3715TIP3    H111088   6.170   3.022   1.315
 3715TIP3    H211089   6.042   2.942   1.308
 3716TIP3   OH211090   7.400   0.094   2.163
 3716TIP3    H111091   7.355   0.171   2.130
 3716TIP3    H211092   7.363   0.021   2.114
 3717TIP3   OH211093   1.672   2.869   5.106
 3717TIP3    H111094   1.678   2.777   5.133
 3717TIP3    H211095   1.591   2.900   5.146
 3718TIP3   OH211096   6.203   7.253   4.053
 3718TIP3    H111097   6.167   7.284   4.137
 3718TIP3    H211098   6.199   7.158   4.059
 3719TIP3   OH211099   4.038   6.741   5.104
 3719TIP3    H111100   4.004   6.822   5.141
 3719TIP3    H211101   4.039   6.680   5.178
 3720TIP3   OH211102   1.395   2.576   6.626
 3720TIP3    H111103   1.465   2.558   6.563
 3720TIP3    H211104   1.344   2.495   6.629
 3721TIP3   OH211105   7.512   4.143   4.787
 3721TIP3    H111106   7.425   4.106   4.801
 3721TIP3    H211107   7.545   4.099   4.708
 3722TIP3   OH211108   7.631   1.139   1.567
 3722TIP3    H111109   7.560   1.078   1.586
 3722TIP3    H211110   7.704   1.109   1.621
 3723TIP3   OH211111   5.378   5.243   1.183
 3723TIP3    H111112   5.375   5.176   1.116
 3723TIP3    H211113   5.375   5.326   1.135
 3724TIP3   OH211114   7.022   3.259   3.931
 3724TIP3    H111115   6.933   3.225   3.927
 3724TIP3    H211116   7.042   3.285   3.841
 3725TIP3   OH211117   7.091   3.710   5.454
 3725TIP3    H111118   7.036   3.741   5.382
 3725TIP3    H211119   7.065   3.764   5.528
 3726TIP3   OH211120   5.748   6.575   0.830
 3726TIP3    H111121   5.678   6.626   0.869
 3726TIP3    H211122   5.828   6.605   0.873
 3727TIP3   OH211123   2.172   6.889   5.089
 3727TIP3    H111124   2.130   6.896   5.003
 3727TIP3    H211125   2.113   6.935   5.149
 3728TIP3   OH211126   1.768   7.090   1.599
 3728TIP3    H111127   1.795   7.062   1.687
 3728TIP3    H211128   1.724   7.014   1.562
 3729TIP3   OH211129   6.927   2.496   5.331
 3729TIP3    H111130   6.956   2.537   5.249
 3729TIP3    H211131   6.904   2.406   5.306
 3730TIP3   OH211132   6.842   4.650   5.763
 3730TIP3    H111133   6.936   4.636   5.770
 3730TIP3    H211134   6.823   4.641   5.670
 3731TIP3   OH211135   5.852   1.433   6.453
 3731TIP3    H111136   5.774   1.407   6.405
 3731TIP3    H211137   5.828   1.424   6.545
 3732TIP3   OH211138   4.636   2.982   0.792
 3732TIP3    H111139   4.684   2.934   0.724
 3732TIP3    H211140   4.545   2.975   0.765
 3733TIP3   OH211141   1.164   2.166   4.641
 3733TIP3    H111142   1.100   2.158   4.571
 3733TIP3    H211143   1.249   2.168   4.597
 3734TIP3   OH211144   2.372   1.333   1.752
 3734TIP3    H111145   2.301   1.320   1.689
 3734TIP3    H211146   2.404   1.244   1.771
 3735TIP3   OH211147   5.255   0.878   6.329
 3735TIP3    H111148   5.321   0.886   6.398
 3735TIP3    H211149   5.212   0.794   6.346
 3736TIP3   OH211150   1.544   6.258   2.778
 3736TIP3    H111151   1.637   6.277   2.766
 3736TIP3    H211152   1.528   6.275   2.871
 3737TIP3   OH211153   4.766   5.910   3.840
 3737TIP3    H111154   4.805   5.981   3.790
 3737TIP3    H211155   4.705   5.867   3.779
 3738TIP3   OH211156   7.614   7.355   4.560
 3738TIP3    H111157   7.638   7.306   4.638
 3738TIP3    H211158   7.693   7.405   4.539
 3739TIP3   OH211159   5.819   7.198   0.268
 3739TIP3    H111160   5.736   7.222   0.226
 3739TIP3    H211161   5.805   7.217   0.361
 3740TIP3   OH211162   3.804   1.403   3.809
 3740TIP3    H111163   3.735   1.361   3.860
 3740TIP3    H211164   3.870   1.429   3.874
 3741TIP3   OH211165   4.802   4.575   0.209
 3741TIP3    H111166   4.867   4.543   0.272
 3741TIP3    H211167   4.721   4.530   0.233
 3742TIP3   OH211168   6.702   6.023   3.462
 3742TIP3    H111169   6.732   6.038   3.372
 3742TIP3    H211170   6.775   5.978   3.504
 3743TIP3   OH211171   3.371   7.423   4.402
 3743TIP3    H111172   3.334   7.468   4.479
 3743TIP3    H211173   3.362   7.487   4.331
 3744TIP3   OH211174   0.189   5.542   1.798
 3744TIP3    H111175   0.196   5.454   1.759
 3744TIP3    H211176   0.095   5.559   1.802
 3745TIP3   OH211177   5.196   0.330   0.632
 3745TIP3    H111178   5.218   0.261   0.696
 3745TIP3    H211179   5.279   0.349   0.589
 3746TIP3   OH211180   7.673   4.973   4.945
 3746TIP3    H111181   7.619   4.895   4.940
 3746TIP3    H211182   7.761   4.944   4.922
 3747TIP3   OH211183   3.619   6.400   2.740
 3747TIP3    H111184   3.546   6.436   2.791
 3747TIP3    H211185   3.697   6.433   2.785
 3748TIP3   OH211186   3.339   6.684   5.579
 3748TIP3    H111187   3.414   6.716   5.530
 3748TIP3    H211188   3.376   6.622   5.642
 3749TIP3   OH211189   0.621   2.694   1.173
 3749TIP3    H111190   0.635   2.783   1.141
 3749TIP3    H211191   0.679   2.686   1.248
 3750TIP3   OH211192   4.648   5.244   0.521
 3750TIP3    H111193   4.606   5.320   0.481
 3750TIP3    H211194   4.706   5.281   0.588
 3751TIP3   OH211195   2.119   0.470   5.362
 3751TIP3    H111196   2.199   0.516   5.338
 3751TIP3    H211197   2.059   0.487   5.289
 3752TIP3   OH211198   0.759   6.539   4.737
 3752TIP3    H111199   0.681   6.539   4.793
 3752TIP3    H211200   0.820   6.598   4.780
 3753TIP3   OH211201   6.550   7.632   4.060
 3753TIP3    H111202   6.561   7.646   3.966
 3753TIP3    H211203   6.571   7.716   4.099
 3754TIP3   OH211204   3.160   3.336   3.423
 3754TIP3    H111205   3.246   3.306   3.393
 3754TIP3    H211206   3.173   3.429   3.441
 3755TIP3   OH211207   3.858   7.361   0.237
 3755TIP3    H111208   3.799   7.360   0.312
 3755TIP3    H211209   3.901   7.446   0.241
 3756TIP3   OH211210   1.024   5.795   3.492
 3756TIP3    H111211   0.966   5.864   3.524
 3756TIP3    H211212   1.110   5.817   3.528
 3757TIP3   OH211213   1.983   2.533   3.452
 3757TIP3    H111214   1.906   2.568   3.406
 3757TIP3    H211215   2.026   2.611   3.488
 3758TIP3   OH211216   5.973   0.888   1.315
 3758TIP3    H111217   6.019   0.965   1.281
 3758TIP3    H211218   5.884   0.894   1.279
 3759TIP3   OH211219   5.733   5.362   1.440
 3759TIP3    H111220   5.688   5.421   1.380
 3759TIP3    H211221   5.701   5.275   1.417
 3760TIP3   OH211222   8.328   4.367   3.482
 3760TIP3    H111223   8.290   4.386   3.396
 3760TIP3    H211224   8.324   4.450   3.529
 3761TIP3   OH211225   4.110   1.857   0.130
 3761TIP3    H111226   4.136   1.766   0.125
 3761TIP3    H211227   4.016   1.854   0.147
 3762TIP3   OH211228   2.641   6.291   5.663
 3762TIP3    H111229   2.614   6.357   5.599
 3762TIP3    H211230   2.569   6.287   5.725
 3763TIP3   OH211231   0.093   0.378   1.810
 3763TIP3    H111232   0.012   0.396   1.858
 3763TIP3    H211233   0.079   0.417   1.723
 3764TIP3   OH211234   0.447   6.882   1.529
 3764TIP3    H111235   0.409   6.799   1.559
 3764TIP3    H211236   0.388   6.949   1.562
 3765TIP3   OH211237   6.117   3.148   3.049
 3765TIP3    H111238   6.167   3.072   3.079
 3765TIP3    H211239   6.145   3.219   3.107
 3766TIP3   OH211240   1.539   2.084   6.178
 3766TIP3    H111241   1.620   2.035   6.166
 3766TIP3    H211242   1.517   2.072   6.270
 3767TIP3   OH211243   4.318   1.531   3.594
 3767TIP3    H111244   4.322   1.475   3.517
 3767TIP3    H211245   4.409   1.557   3.610
 3768TIP3   OH211246   5.080   1.650   3.550
 3768TIP3    H111247   5.053   1.657   3.641
 3768TIP3    H211248   5.139   1.724   3.536
 3769TIP3   OH211249   3.052   5.730   0.271
 3769TIP3    H111250   2.999   5.745   0.192
 3769TIP3    H211251   2.997   5.676   0.327
 3770TIP3   OH211252   1.533   0.722   5.540
 3770TIP3    H111253   1.458   0.662   5.537
 3770TIP3    H211254   1.606   0.668   5.566
 3771TIP3   OH211255   6.224   0.664   5.290
 3771TIP3    H111256   6.131   0.676   5.307
 3771TIP3    H211257   6.265   0.666   5.376
 3772TIP3   OH211258   4.626   2.755   5.243
 3772TIP3    H111259   4.670   2.778   5.324
 3772TIP3    H211260   4.533   2.757   5.265
 3773TIP3   OH211261   7.736   5.376   1.450
 3773TIP3    H111262   7.755   5.444   1.386
 3773TIP3    H211263   7.669   5.415   1.507
 3774TIP3   OH211264   1.627   6.705   2.980
 3774TIP3    H111265   1.558   6.746   3.033
 3774TIP3    H211266   1.678   6.654   3.043
 3775TIP3   OH211267   6.284   7.096   6.308
 3775TIP3    H111268   6.304   7.010   6.271
 3775TIP3    H211269   6.244   7.144   6.235
 3776TIP3   OH211270   8.066   5.430   3.628
 3776TIP3    H111271   8.099   5.349   3.665
 3776TIP3    H211272   8.118   5.499   3.669
 3777TIP3   OH211273   7.690   1.870   6.203
 3777TIP3    H111274   7.650   1.786   6.223
 3777TIP3    H211275   7.667   1.887   6.111
 3778TIP3   OH211276   6.791   4.585   4.936
 3778TIP3    H111277   6.763   4.494   4.945
 3778TIP3    H211278   6.885   4.583   4.956
 3779TIP3   OH211279   1.432   5.502   1.708
 3779TIP3    H111280   1.526   5.481   1.713
 3779TIP3    H211281   1.422   5.547   1.624
 3780TIP3   OH211282   3.524   2.185   1.278
 3780TIP3    H111283   3.487   2.254   1.222
 3780TIP3    H211284   3.536   2.111   1.220
 3781TIP3   OH211285   5.831   2.322   1.770
 3781TIP3    H111286   5.808   2.326   1.863
 3781TIP3    H211287   5.862   2.410   1.749
 3782TIP3   OH211288   0.960   7.643   5.957
 3782TIP3    H111289   1.023   7.713   5.971
 3782TIP3    H211290   1.000   7.566   5.999
 3783TIP3   OH211291   6.584   7.609   3.792
 3783TIP3    H111292   6.617   7.579   3.708
 3783TIP3    H211293   6.516   7.546   3.816
 3784TIP3   OH211294   5.677   0.084   4.591
 3784TIP3    H111295   5.581   0.087   4.586
 3784TIP3    H211296   5.702   0.173   4.615
 3785TIP3   OH211297   4.937   1.335   2.585
 3785TIP3    H111298   4.845   1.316   2.568
 3785TIP3    H211299   4.953   1.300   2.673
 3786TIP3   OH211300   6.866   2.507   3.821
 3786TIP3    H111301   6.944   2.452   3.823
 3786TIP3    H211302   6.812   2.476   3.894
 3787TIP3   OH211303   1.560   0.087   5.076
 3787TIP3    H111304   1.487   0.117   5.131
 3787TIP3    H211305   1.633   0.076   5.137
 3788TIP3   OH211306   6.213   0.438   0.414
 3788TIP3    H111307   6.140   0.494   0.387
 3788TIP3    H211308   6.230   0.382   0.338
 3789TIP3   OH211309   4.054   6.246   1.055
 3789TIP3    H111310   4.052   6.320   0.995
 3789TIP3    H211311   3.984   6.264   1.117
 3790TIP3   OH211312   5.550   3.520   1.930
 3790TIP3    H111313   5.559   3.460   2.004
 3790TIP3    H211314   5.559   3.465   1.853
 3791TIP3   OH211315   6.276   2.051   4.243
 3791TIP3    H111316   6.266   2.082   4.153
 3791TIP3    H211317   6.351   2.101   4.277
 3792TIP3   OH211318   1.918   2.845   6.627
 3792TIP3    H111319   1.960   2.882   6.705
 3792TIP3    H211320   1.984   2.854   6.558
 3793TIP3   OH211321   5.486   0.103   2.619
 3793TIP3    H111322   5.572   0.069   2.644
 3793TIP3    H211323   5.500   0.197   2.607
 3794TIP3   OH211324   5.675   3.026   5.860
 3794TIP3    H111325   5.607   3.037   5.794
 3794TIP3    H211326   5.708   2.937   5.847
 3795TIP3   OH211327   1.663   1.820   3.707
 3795TIP3    H111328   1.713   1.844   3.785
 3795TIP3    H211329   1.574   1.803   3.738
 3796TIP3   OH211330   5.619   3.261   0.611
 3796TIP3    H111331   5.599   3.230   0.523
 3796TIP3    H211332   5.712   3.284   0.608
 3797TIP3   OH211333   1.299   1.244   3.961
 3797TIP3    H111334   1.382   1.261   4.006
 3797TIP3    H211335   1.307   1.153   3.930
 3798TIP3   OH211336   8.287   4.104   1.927
 3798TIP3    H111337   8.236   4.052   1.989
 3798TIP3    H211338   8.373   4.114   1.969
 3799TIP3   OH211339   2.052   3.725   5.576
 3799TIP3    H111340   1.958   3.739   5.564
 3799TIP3    H211341   2.065   3.632   5.556
 3800TIP3   OH211342   7.510   5.208   2.832
 3800TIP3    H111343   7.469   5.286   2.796
 3800TIP3    H211344   7.513   5.224   2.927
 3801TIP3   OH211345   6.893   7.027   2.781
 3801TIP3    H111346   6.836   6.979   2.840
 3801TIP3    H211347   6.876   6.991   2.695
 3802TIP3   OH211348   6.047   1.781   1.936
 3802TIP3    H111349   6.082   1.808   2.021
 3802TIP3    H211350   5.952   1.782   1.948
 3803TIP3   OH211351   3.303   3.515   0.965
 3803TIP3    H111352   3.294   3.600   0.921
 3803TIP3    H211353   3.367   3.467   0.913
 3804TIP3   OH211354   3.282   3.284   4.896
 3804TIP3    H111355   3.311   3.196   4.874
 3804TIP3    H211356   3.328   3.341   4.835
 3805TIP3   OH211357   5.708   2.043   2.064
 3805TIP3    H111358   5.634   2.008   2.113
 3805TIP3    H211359   5.672   2.064   1.978
 3806TIP3   OH211360   5.540   3.914   0.741
 3806TIP3    H111361   5.614   3.878   0.691
 3806TIP3    H211362   5.478   3.943   0.674
 3807TIP3   OH211363   8.238   0.704   2.996
 3807TIP3    H111364   8.238   0.797   2.973
 3807TIP3    H211365   8.275   0.660   2.919
 3808TIP3   OH211366   0.855   0.366   6.634
 3808TIP3    H111367   0.927   0.314   6.598
 3808TIP3    H211368   0.792   0.300   6.665
 3809TIP3   OH211369   8.153   0.324   3.384
 3809TIP3    H111370   8.187   0.367   3.306
 3809TIP3    H211371   8.186   0.234   3.379
 3810TIP3   OH211372   0.363   2.650   5.978
 3810TIP3    H111373   0.307   2.573   5.988
 3810TIP3    H211374   0.385   2.676   6.068
 3811TIP3   OH211375   2.873   7.642   0.518
 3811TIP3    H111376   2.795   7.659   0.465
 3811TIP3    H211377   2.937   7.706   0.488
 3812TIP3   OH211378   5.272   5.929   1.735
 3812TIP3    H111379   5.215   5.862   1.775
 3812TIP3    H211380   5.242   5.934   1.644
 3813TIP3   OH211381   5.718   2.343   0.666
 3813TIP3    H111382   5.727   2.437   0.652
 3813TIP3    H211383   5.627   2.332   0.695
 3814TIP3   OH211384   1.760   7.199   2.188
 3814TIP3    H111385   1.854   7.189   2.203
 3814TIP3    H211386   1.733   7.266   2.251
 3815TIP3   OH211387   4.712   3.133   0.991
 3815TIP3    H111388   4.623   3.117   1.020
 3815TIP3    H211389   4.718   3.091   0.906
 3816TIP3   OH211390   3.000   3.817   0.249
 3816TIP3    H111391   2.973   3.882   0.184
 3816TIP3    H211392   3.058   3.758   0.201
 3817TIP3   OH211393   1.379   3.973   4.431
 3817TIP3    H111394   1.455   4.011   4.475
 3817TIP3    H211395   1.315   4.044   4.427
 3818TIP3   OH211396   0.516   0.110   0.053
 3818TIP3    H111397   0.464   0.044   0.099
 3818TIP3    H211398   0.590   0.127   0.111
 3819TIP3   OH211399   4.555   1.949  -0.010
 3819TIP3    H111400   4.580   2.029   0.036
 3819TIP3    H211401   4.620   1.884   0.019
 3820TIP3   OH211402   4.797   1.125   1.275
 3820TIP3    H111403   4.834   1.077   1.200
 3820TIP3    H211404   4.729   1.067   1.309
 3821TIP3   OH211405   7.688   1.097   2.756
 3821TIP3    H111406   7.731   1.026   2.803
 3821TIP3    H211407   7.755   1.131   2.696
 3822TIP3   OH211408   6.435   1.728   3.685
 3822TIP3    H111409   6.453   1.763   3.772
 3822TIP3    H211410   6.360   1.779   3.653
 3823TIP3   OH211411   5.959   6.759   3.190
 3823TIP3    H111412   6.001   6.830   3.140
 3823TIP3    H211413   5.891   6.726   3.130
 3824TIP3   OH211414   1.623   5.152   3.491
 3824TIP3    H111415   1.665   5.069   3.466
 3824TIP3    H211416   1.695   5.208   3.517
 3825TIP3   OH211417   4.103   2.302   2.475
 3825TIP3    H111418   4.182   2.354   2.489
 3825TIP3    H211419   4.132   2.211   2.484
 3826TIP3   OH211420   7.191   7.556   6.676
 3826TIP3    H111421   7.188   7.567   6.581
 3826TIP3    H211422   7.130   7.485   6.694
 3827TIP3   OH211423   1.124   4.189   2.373
 3827TIP3    H111424   1.150   4.126   2.307
 3827TIP3    H211425   1.169   4.270   2.347
 3828TIP3   OH211426   2.561   7.704   4.037
 3828TIP3    H111427   2.596   7.755   3.964
 3828TIP3    H211428   2.475   7.742   4.054
 3829TIP3   OH211429   0.812   5.895   3.284
 3829TIP3    H111430   0.797   5.849   3.201
 3829TIP3    H211431   0.873   5.965   3.261
 3830TIP3   OH211432   1.709   1.801   4.951
 3830TIP3    H111433   1.797   1.807   4.988
 3830TIP3    H211434   1.680   1.713   4.974
 3831TIP3   OH211435   8.284   6.714   4.725
 3831TIP3    H111436   8.243   6.799   4.745
 3831TIP3    H211437   8.308   6.720   4.633
 3832TIP3   OH211438   3.859   3.349   1.775
 3832TIP3    H111439   3.767   3.373   1.789
 3832TIP3    H211440   3.857   3.254   1.766
 3833TIP3   OH211441   5.547   1.974   4.171
 3833TIP3    H111442   5.596   1.924   4.106
 3833TIP3    H211443   5.614   2.019   4.222
 3834TIP3   OH211444   6.795   5.338   0.346
 3834TIP3    H111445   6.805   5.244   0.331
 3834TIP3    H211446   6.758   5.344   0.434
 3835TIP3   OH211447   1.669   7.302   4.415
 3835TIP3    H111448   1.651   7.294   4.508
 3835TIP3    H211449   1.586   7.282   4.372
 3836TIP3   OH211450   2.342   3.017   2.702
 3836TIP3    H111451   2.359   3.026   2.608
 3836TIP3    H211452   2.430   3.014   2.741
 3837TIP3   OH211453   4.976   5.679   2.103
 3837TIP3    H111454   4.917   5.671   2.178
 3837TIP3    H211455   5.057   5.636   2.131
 3838TIP3   OH211456   5.430   5.433   3.464
 3838TIP3    H111457   5.455   5.345   3.493
 3838TIP3    H211458   5.348   5.419   3.416
 3839TIP3   OH211459   7.063   5.196   1.513
 3839TIP3    H111460   6.995   5.229   1.454
 3839TIP3    H211461   7.129   5.266   1.514
 3840TIP3   OH211462   7.947   6.103   2.299
 3840TIP3    H111463   7.924   6.122   2.208
 3840TIP3    H211464   7.865   6.076   2.340
 3841TIP3   OH211465   0.909   1.962   4.277
 3841TIP3    H111466   0.892   2.020   4.203
 3841TIP3    H211467   0.932   2.020   4.349
 3842TIP3   OH211468   0.803   1.666   3.508
 3842TIP3    H111469   0.883   1.693   3.553
 3842TIP3    H211470   0.744   1.637   3.579
 3843TIP3   OH211471   0.215   6.002   4.139
 3843TIP3    H111472   0.237   5.953   4.060
 3843TIP3    H211473   0.119   6.008   4.138
 3844TIP3   OH211474   8.229   1.410   1.451
 3844TIP3    H111475   8.204   1.466   1.525
 3844TIP3    H211476   8.161   1.425   1.385
 3845TIP3   OH211477   4.741   6.623   2.522
 3845TIP3    H111478   4.663   6.635   2.467
 3845TIP3    H211479   4.762   6.530   2.512
 3846TIP3   OH211480   7.491   3.161   0.222
 3846TIP3    H111481   7.462   3.169   0.131
 3846TIP3    H211482   7.511   3.068   0.232
 3847TIP3   OH211483   1.351   7.070   6.593
 3847TIP3    H111484   1.329   7.046   6.683
 3847TIP3    H211485   1.405   6.997   6.562
 3848TIP3   OH211486   1.343   2.492   2.250
 3848TIP3    H111487   1.248   2.490   2.241
 3848TIP3    H211488   1.374   2.519   2.164
 3849TIP3   OH211489   7.477   3.541   4.054
 3849TIP3    H111490   7.546   3.583   4.106
 3849TIP3    H211491   7.518   3.460   4.022
 3850TIP3   OH211492   7.237   2.009   5.856
 3850TIP3    H111493   7.201   2.095   5.878
 3850TIP3    H211494   7.219   1.955   5.933
 3851TIP3   OH211495   8.211   4.081   2.373
 3851TIP3    H111496   8.151   4.099   2.301
 3851TIP3    H211497   8.171   4.007   2.419
 3852TIP3   OH211498   7.183   4.741   4.555
 3852TIP3    H111499   7.160   4.807   4.490
 3852TIP3    H211500   7.270   4.767   4.585
 3853TIP3   OH211501   1.872   0.617   3.329
 3853TIP3    H111502   1.827   0.554   3.273
 3853TIP3    H211503   1.883   0.694   3.274
 3854TIP3   OH211504   4.180   5.405   6.048
 3854TIP3    H111505   4.145   5.323   6.014
 3854TIP3    H211506   4.224   5.381   6.130
 3855TIP3   OH211507   6.507   7.221   3.134
 3855TIP3    H111508   6.503   7.292   3.198
 3855TIP3    H211509   6.584   7.241   3.081
 3856TIP3   OH211510   4.173   1.693   4.792
 3856TIP3    H111511   4.089   1.655   4.820
 3856TIP3    H211512   4.164   1.700   4.697
 3857TIP3   OH211513   5.641   0.642   3.521
 3857TIP3    H111514   5.676   0.729   3.542
 3857TIP3    H211515   5.618   0.648   3.428
 3858TIP3   OH211516   2.901   5.896   1.237
 3858TIP3    H111517   2.818   5.939   1.216
 3858TIP3    H211518   2.923   5.847   1.157
 3859TIP3   OH211519   2.747   7.074   2.764
 3859TIP3    H111520   2.796   7.115   2.835
 3859TIP3    H211521   2.815   7.043   2.703
 3860TIP3   OH211522   2.442   1.044   5.616
 3860TIP3    H111523   2.398   1.070   5.534
 3860TIP3    H211524   2.535   1.052   5.597
 3861TIP3   OH211525   7.671   3.103   3.134
 3861TIP3    H111526   7.618   3.157   3.191
 3861TIP3    H211527   7.663   3.015   3.171
 3862TIP3   OH211528   1.596   5.939   2.522
 3862TIP3    H111529   1.665   5.975   2.577
 3862TIP3    H211530   1.539   6.014   2.503
 3863TIP3   OH211531   8.007   5.337   1.546
 3863TIP3    H111532   8.062   5.281   1.492
 3863TIP3    H211533   7.924   5.290   1.553
 3864TIP3   OH211534   8.019   2.478   5.501
 3864TIP3    H111535   7.988   2.394   5.465
 3864TIP3    H211536   8.037   2.532   5.424
 3865TIP3   OH211537   1.795   5.920   5.742
 3865TIP3    H111538   1.705   5.927   5.711
 3865TIP3    H211539   1.793   5.961   5.829
 3866TIP3   OH211540   5.857   3.057   5.132
 3866TIP3    H111541   5.941   3.045   5.088
 3866TIP3    H211542   5.809   3.117   5.075
 3867TIP3   OH211543   7.101   7.699   0.619
 3867TIP3    H111544   7.053   7.618   0.600
 3867TIP3    H211545   7.056   7.766   0.567
 3868TIP3   OH211546   7.542   4.982   0.012
 3868TIP3    H111547   7.606   4.912  -0.001
 3868TIP3    H211548   7.594   5.057   0.041
 3869TIP3   OH211549   8.106   3.980   5.747
 3869TIP3    H111550   8.040   4.026   5.799
 3869TIP3    H211551   8.088   4.005   5.657
 3870TIP3   OH211552   5.737   5.353   1.033
 3870TIP3    H111553   5.815   5.318   1.076
 3870TIP3    H211554   5.697   5.411   1.098
 3871TIP3   OH211555   5.523   0.243   5.040
 3871TIP3    H111556   5.529   0.330   5.080
 3871TIP3    H211557   5.434   0.240   5.003
 3872TIP3   OH211558   2.534   5.516   3.550
 3872TIP3    H111559   2.603   5.551   3.494
 3872TIP3    H211560   2.470   5.587   3.556
 3873TIP3   OH211561   4.545   4.990   1.849
 3873TIP3    H111562   4.526   5.007   1.757
 3873TIP3    H211563   4.460   4.996   1.893
 3874TIP3   OH211564   7.186   5.159   5.708
 3874TIP3    H111565   7.193   5.138   5.615
 3874TIP3    H211566   7.149   5.080   5.748
 3875TIP3   OH211567   3.961   3.131   5.400
 3875TIP3    H111568   4.018   3.071   5.352
 3875TIP3    H211569   3.879   3.131   5.350
 3876TIP3   OH211570   2.748   1.702   2.448
 3876TIP3    H111571   2.656   1.716   2.471
 3876TIP3    H211572   2.796   1.730   2.526
 3877TIP3   OH211573   3.843   0.565   0.986
 3877TIP3    H111574   3.769   0.571   1.047
 3877TIP3    H211575   3.814   0.615   0.909
 3878TIP3   OH211576   3.962   4.066   0.211
 3878TIP3    H111577   4.057   4.078   0.210
 3878TIP3    H211578   3.930   4.136   0.269
 3879TIP3   OH211579   3.037   5.329   5.988
 3879TIP3    H111580   3.058   5.293   5.902
 3879TIP3    H211581   3.116   5.314   6.040
 3880TIP3   OH211582   1.426   5.234   4.707
 3880TIP3    H111583   1.352   5.256   4.650
 3880TIP3    H211584   1.503   5.262   4.657
 3881TIP3   OH211585   0.408   4.220   4.090
 3881TIP3    H111586   0.365   4.228   4.005
 3881TIP3    H211587   0.432   4.310   4.113
 3882TIP3   OH211588   6.178   6.688   3.388
 3882TIP3    H111589   6.272   6.681   3.374
 3882TIP3    H211590   6.140   6.623   3.329
 3883TIP3   OH211591   3.004   1.175   4.792
 3883TIP3    H111592   3.084   1.221   4.820
 3883TIP3    H211593   2.935   1.213   4.847
 3884TIP3   OH211594   1.020   7.035   5.073
 3884TIP3    H111595   0.977   7.037   4.987
 3884TIP3    H211596   1.027   7.126   5.099
 3885TIP3   OH211597   7.218   2.432   6.432
 3885TIP3    H111598   7.179   2.469   6.511
 3885TIP3    H211599   7.252   2.507   6.384
 3886TIP3   OH211600   7.644   2.796   3.928
 3886TIP3    H111601   7.641   2.746   3.847
 3886TIP3    H211602   7.651   2.887   3.900
 3887TIP3   OH211603   4.120   4.040   6.309
 3887TIP3    H111604   4.071   4.044   6.392
 3887TIP3    H211605   4.169   3.958   6.314
 3888TIP3   OH211606   1.988   5.792   4.955
 3888TIP3    H111607   2.041   5.849   5.011
 3888TIP3    H211608   1.988   5.708   5.000
 3889TIP3   OH211609   4.118   3.048   2.029
 3889TIP3    H111610   4.160   3.002   1.957
 3889TIP3    H211611   4.048   2.989   2.058
 3890TIP3   OH211612   1.273   4.138   4.838
 3890TIP3    H111613   1.244   4.150   4.928
 3890TIP3    H211614   1.196   4.159   4.785
 3891TIP3   OH211615   0.934   5.252   4.886
 3891TIP3    H111616   1.023   5.218   4.873
 3891TIP3    H211617   0.937   5.341   4.850
 3892TIP3   OH211618   1.293   6.003   2.986
 3892TIP3    H111619   1.201   6.029   2.981
 3892TIP3    H211620   1.312   5.969   2.898
 3893TIP3   OH211621   0.681   3.850   5.915
 3893TIP3    H111622   0.726   3.934   5.925
 3893TIP3    H211623   0.623   3.845   5.991
 3894TIP3   OH211624   8.263   6.863   1.664
 3894TIP3    H111625   8.169   6.860   1.646
 3894TIP3    H211626   8.288   6.953   1.647
 3895TIP3   OH211627   4.819   2.949   4.655
 3895TIP3    H111628   4.877   3.001   4.711
 3895TIP3    H211629   4.848   2.969   4.566
 3896TIP3   OH211630   1.659   7.682   5.874
 3896TIP3    H111631   1.572   7.719   5.862
 3896TIP3    H211632   1.650   7.621   5.947
 3897TIP3   OH211633   2.903   1.810   3.962
 3897TIP3    H111634   2.950   1.811   3.879
 3897TIP3    H211635   2.862   1.896   3.968
 3898TIP3   OH211636   0.761   6.428   6.076
 3898TIP3    H111637   0.776   6.425   5.981
 3898TIP3    H211638   0.698   6.358   6.093
 3899TIP3   OH211639   6.655   6.460   2.821
 3899TIP3    H111640   6.564   6.473   2.849
 3899TIP3    H211641   6.678   6.541   2.776
 3900TIP3   OH211642   8.032   2.939   2.173
 3900TIP3    H111643   8.044   2.850   2.206
 3900TIP3    H211644   8.120   2.974   2.165
 3901TIP3   OH211645   4.091   1.317   4.739
 3901TIP3    H111646   4.108   1.278   4.825
 3901TIP3    H211647   4.149   1.269   4.680
 3902TIP3   OH211648   6.103   3.755   3.218
 3902TIP3    H111649   6.061   3.814   3.155
 3902TIP3    H211650   6.045   3.756   3.294
 3903TIP3   OH211651   4.257   6.537   3.181
 3903TIP3    H111652   4.190   6.596   3.215
 3903TIP3    H211653   4.255   6.462   3.242
 3904TIP3   OH211654   2.955   6.657   5.107
 3904TIP3    H111655   2.968   6.746   5.139
 3904TIP3    H211656   2.891   6.619   5.167
 3905TIP3   OH211657   3.864   3.681   5.932
 3905TIP3    H111658   3.847   3.622   5.859
 3905TIP3    H211659   3.818   3.642   6.006
 3906TIP3   OH211660   4.617   0.566   6.605
 3906TIP3    H111661   4.638   0.473   6.615
 3906TIP3    H211662   4.644   0.587   6.516
 3907TIP3   OH211663   7.994   0.623   0.974
 3907TIP3    H111664   8.055   0.555   0.945
 3907TIP3    H211665   7.985   0.680   0.898
 3908TIP3   OH211666   1.784   2.729   4.432
 3908TIP3    H111667   1.866   2.732   4.481
 3908TIP3    H211668   1.757   2.821   4.425
 3909TIP3   OH211669   3.837   2.891   2.884
 3909TIP3    H111670   3.863   2.914   2.795
 3909TIP3    H211671   3.853   2.796   2.890
 3910TIP3   OH211672   7.241   7.639   2.498
 3910TIP3    H111673   7.170   7.636   2.562
 3910TIP3    H211674   7.318   7.607   2.546
 3911TIP3   OH211675   1.993   1.328   2.407
 3911TIP3    H111676   1.928   1.269   2.447
 3911TIP3    H211677   2.013   1.392   2.475
 3912TIP3   OH211678   2.868   3.933   3.858
 3912TIP3    H111679   2.895   3.858   3.806
 3912TIP3    H211680   2.869   4.007   3.796
 3913TIP3   OH211681   3.439   1.947   0.133
 3913TIP3    H111682   3.359   1.998   0.121
 3913TIP3    H211683   3.482   1.949   0.048
 3914TIP3   OH211684   6.736   3.091   3.968
 3914TIP3    H111685   6.668   3.030   3.938
 3914TIP3    H211686   6.744   3.155   3.896
 3915TIP3   OH211687   6.215   6.281   0.627
 3915TIP3    H111688   6.198   6.251   0.538
 3915TIP3    H211689   6.247   6.370   0.616
 3916TIP3   OH211690   4.067   6.657   6.618
 3916TIP3    H111691   4.020   6.702   6.688
 3916TIP3    H211692   3.999   6.631   6.556
 3917TIP3   OH211693   2.480   2.923   1.391
 3917TIP3    H111694   2.429   2.895   1.467
 3917TIP3    H211695   2.419   2.977   1.341
 3918TIP3   OH211696   2.731   2.131   5.275
 3918TIP3    H111697   2.661   2.114   5.212
 3918TIP3    H211698   2.803   2.074   5.248
 3919TIP3   OH211699   5.477   0.708   4.335
 3919TIP3    H111700   5.490   0.643   4.404
 3919TIP3    H211701   5.446   0.658   4.260
 3920TIP3   OH211702   5.139   7.280   3.262
 3920TIP3    H111703   5.123   7.197   3.305
 3920TIP3    H211704   5.227   7.305   3.290
 3921TIP3   OH211705   0.494   7.318   3.878
 3921TIP3    H111706   0.568   7.319   3.817
 3921TIP3    H211707   0.448   7.400   3.861
 3922TIP3   OH211708   4.381   1.454   4.578
 3922TIP3    H111709   4.420   1.458   4.491
 3922TIP3    H211710   4.413   1.533   4.622
 3923TIP3   OH211711   0.592   6.307   3.417
 3923TIP3    H111712   0.577   6.352   3.500
 3923TIP3    H211713   0.504   6.285   3.385
 3924TIP3   OH211714   3.276   3.772   4.521
 3924TIP3    H111715   3.345   3.738   4.579
 3924TIP3    H211716   3.310   3.856   4.490
 3925TIP3   OH211717   1.360   7.100   2.467
 3925TIP3    H111718   1.297   7.044   2.421
 3925TIP3    H211719   1.445   7.062   2.448
 3926TIP3   OH211720   4.093   4.349   5.082
 3926TIP3    H111721   4.132   4.351   4.994
 3926TIP3    H211722   4.001   4.328   5.066
 3927TIP3   OH211723   6.131   5.344   3.168
 3927TIP3    H111724   6.063   5.282   3.143
 3927TIP3    H211725   6.112   5.365   3.260
 3928TIP3   OH211726   1.923   6.472   2.062
 3928TIP3    H111727   1.992   6.526   2.098
 3928TIP3    H211728   1.886   6.427   2.138
 3929TIP3   OH211729   5.043   4.179   1.754
 3929TIP3    H111730   4.966   4.127   1.728
 3929TIP3    H211731   5.006   4.253   1.803
 3930TIP3   OH211732   1.640   3.684   5.347
 3930TIP3    H111733   1.722   3.657   5.304
 3930TIP3    H211734   1.657   3.774   5.376
 3931TIP3   OH211735   6.554   0.218   6.457
 3931TIP3    H111736   6.534   0.138   6.506
 3931TIP3    H211737   6.542   0.194   6.365
 3932TIP3   OH211738   2.502   7.072   4.573
 3932TIP3    H111739   2.583   7.033   4.605
 3932TIP3    H211740   2.529   7.150   4.526
 3933TIP3   OH211741   6.231   4.917   0.443
 3933TIP3    H111742   6.167   4.969   0.394
 3933TIP3    H211743   6.259   4.974   0.514
 3934TIP3   OH211744   5.614   5.953   1.147
 3934TIP3    H111745   5.668   5.945   1.225
 3934TIP3    H211746   5.532   5.909   1.171
 3935TIP3   OH211747   1.612   2.055   4.105
 3935TIP3    H111748   1.684   2.116   4.088
 3935TIP3    H211749   1.576   2.083   4.188
 3936TIP3   OH211750   6.664   2.806   0.665
 3936TIP3    H111751   6.746   2.796   0.618
 3936TIP3    H211752   6.617   2.874   0.616
 3937TIP3   OH211753   5.902   4.982   2.863
 3937TIP3    H111754   5.986   4.991   2.908
 3937TIP3    H211755   5.924   4.935   2.782
 3938TIP3   OH211756   4.001   3.246   3.078
 3938TIP3    H111757   3.998   3.157   3.113
 3938TIP3    H211758   3.910   3.266   3.056
 3939TIP3   OH211759   8.185   5.400   1.035
 3939TIP3    H111760   8.190   5.425   1.127
 3939TIP3    H211761   8.200   5.481   0.987
 3940TIP3   OH211762   0.868   1.907   1.824
 3940TIP3    H111763   0.911   1.833   1.868
 3940TIP3    H211764   0.788   1.869   1.787
 3941TIP3   OH211765   6.390   7.241   6.030
 3941TIP3    H111766   6.423   7.151   6.028
 3941TIP3    H211767   6.353   7.255   5.943
 3942TIP3   OH211768   0.537   4.011   3.088
 3942TIP3    H111769   0.516   4.082   3.149
 3942TIP3    H211770   0.628   3.990   3.106
 3943TIP3   OH211771   0.022   6.014   4.722
 3943TIP3    H111772   0.005   5.998   4.815
 3943TIP3    H211773   0.112   6.046   4.720
 3944TIP3   OH211774   1.391   4.944   5.943
 3944TIP3    H111775   1.356   5.018   5.894
 3944TIP3    H211776   1.318   4.882   5.949
 3945TIP3   OH211777   8.235   7.775   4.803
 3945TIP3    H111778   8.176   7.750   4.874
 3945TIP3    H211779   8.240   7.696   4.748
 3946TIP3   OH211780   3.501   4.923   0.128
 3946TIP3    H111781   3.503   4.940   0.222
 3946TIP3    H211782   3.520   5.007   0.087
 3947TIP3   OH211783   2.706   3.640   6.128
 3947TIP3    H111784   2.665   3.726   6.112
 3947TIP3    H211785   2.634   3.586   6.160
 3948TIP3   OH211786   0.233   3.880   6.503
 3948TIP3    H111787   0.201   3.813   6.563
 3948TIP3    H211788   0.170   3.952   6.511
 3949TIP3   OH211789   1.980   4.388   4.047
 3949TIP3    H111790   1.988   4.331   3.971
 3949TIP3    H211791   1.968   4.475   4.011
 3950TIP3   OH211792   0.184   6.268   4.914
 3950TIP3    H111793   0.217   6.179   4.898
 3950TIP3    H211794   0.090   6.262   4.894
 3951TIP3   OH211795   5.954   1.887   6.465
 3951TIP3    H111796   6.043   1.895   6.500
 3951TIP3    H211797   5.951   1.949   6.392
 3952TIP3   OH211798   1.552   2.842   1.742
 3952TIP3    H111799   1.609   2.882   1.808
 3952TIP3    H211800   1.468   2.886   1.754
 3953TIP3   OH211801   4.604   3.144   3.002
 3953TIP3    H111802   4.640   3.214   3.057
 3953TIP3    H211803   4.589   3.071   3.062
 3954TIP3   OH211804   6.201   7.217   1.308
 3954TIP3    H111805   6.260   7.269   1.363
 3954TIP3    H211806   6.245   7.213   1.223
 3955TIP3   OH211807   0.115   6.370   2.931
 3955TIP3    H111808   0.083   6.360   2.841
 3955TIP3    H211809   0.037   6.363   2.985
 3956TIP3   OH211810   4.468   6.282   2.307
 3956TIP3    H111811   4.507   6.205   2.266
 3956TIP3    H211812   4.378   6.284   2.274
 3957TIP3   OH211813   0.523   1.047   6.681
 3957TIP3    H111814   0.478   0.965   6.701
 3957TIP3    H211815   0.571   1.069   6.761
 3958TIP3   OH211816   1.750   3.911   5.540
 3958TIP3    H111817   1.707   3.975   5.483
 3958TIP3    H211818   1.776   3.960   5.617
 3959TIP3   OH211819   4.341   6.966   1.836
 3959TIP3    H111820   4.355   7.047   1.788
 3959TIP3    H211821   4.399   6.902   1.794
 3960TIP3   OH211822   1.899   2.775   5.908
 3960TIP3    H111823   1.837   2.724   5.856
 3960TIP3    H211824   1.972   2.715   5.923
 3961TIP3   OH211825   3.027   6.406   5.960
 3961TIP3    H111826   3.081   6.349   5.904
 3961TIP3    H211827   2.993   6.472   5.900
 3962TIP3   OH211828   4.255   0.022   2.134
 3962TIP3    H111829   4.287  -0.059   2.172
 3962TIP3    H211830   4.317   0.042   2.064
 3963TIP3   OH211831   1.896   4.667   5.558
 3963TIP3    H111832   1.822   4.664   5.617
 3963TIP3    H211833   1.934   4.754   5.572
 3964TIP3   OH211834   4.513   4.732   0.210
 3964TIP3    H111835   4.594   4.702   0.251
 3964TIP3    H211836   4.499   4.820   0.243
 3965TIP3   OH211837   4.190   5.385   3.672
 3965TIP3    H111838   4.250   5.452   3.640
 3965TIP3    H211839   4.195   5.315   3.607
 3966TIP3   OH211840   2.962   3.365   5.658
 3966TIP3    H111841   2.961   3.434   5.725
 3966TIP3    H211842   2.914   3.293   5.698
 3967TIP3   OH211843   2.800   2.728   0.548
 3967TIP3    H111844   2.753   2.650   0.519
 3967TIP3    H211845   2.860   2.696   0.616
 3968TIP3   OH211846   3.200   1.601   4.504
 3968TIP3    H111847   3.139   1.673   4.517
 3968TIP3    H211848   3.267   1.637   4.446
 3969TIP3   OH211849   7.752   3.702   3.709
 3969TIP3    H111850   7.827   3.650   3.738
 3969TIP3    H211851   7.759   3.783   3.759
 3970TIP3   OH211852   0.065   1.907   4.470
 3970TIP3    H111853   0.062   2.002   4.458
 3970TIP3    H211854  -0.024   1.884   4.498
 3971TIP3   OH211855   2.635   2.090   6.097
 3971TIP3    H111856   2.721   2.126   6.072
 3971TIP3    H211857   2.581   2.104   6.019
 3972TIP3   OH211858   6.446   1.675   2.546
 3972TIP3    H111859   6.429   1.716   2.461
 3972TIP3    H211860   6.375   1.612   2.557
 3973TIP3   OH211861   7.025   3.011   2.881
 3973TIP3    H111862   7.058   2.922   2.884
 3973TIP3    H211863   6.948   3.007   2.824
 3974TIP3   OH211864   3.310   1.776   2.502
 3974TIP3    H111865   3.346   1.697   2.462
 3974TIP3    H211866   3.320   1.844   2.435
 3975TIP3   OH211867   4.588   0.914   4.065
 3975TIP3    H111868   4.504   0.961   4.069
 3975TIP3    H211869   4.604   0.902   3.972
 3976TIP3   OH211870   1.759   2.796   0.760
 3976TIP3    H111871   1.799   2.879   0.735
 3976TIP3    H211872   1.831   2.745   0.797
 3977TIP3   OH211873   2.370   7.649   5.024
 3977TIP3    H111874   2.316   7.570   5.027
 3977TIP3    H211875   2.323   7.709   4.965
 3978TIP3   OH211876   4.021   0.135   1.154
 3978TIP3    H111877   4.084   0.071   1.121
 3978TIP3    H211878   3.937   0.089   1.151
 3979TIP3   OH211879   5.987   3.567   6.089
 3979TIP3    H111880   5.923   3.585   6.158
 3979TIP3    H211881   6.011   3.474   6.102
 3980TIP3   OH211882   7.634   1.046   3.183
 3980TIP3    H111883   7.622   1.116   3.247
 3980TIP3    H211884   7.610   0.966   3.229
 3981TIP3   OH211885   2.219   0.949   2.813
 3981TIP3    H111886   2.182   0.879   2.759
 3981TIP3    H211887   2.162   0.952   2.890
 3982TIP3   OH211888   7.514   6.610   4.058
 3982TIP3    H111889   7.477   6.654   3.982
 3982TIP3    H211890   7.447   6.548   4.085
 3983TIP3   OH211891   2.878   7.527   2.409
 3983TIP3    H111892   2.886   7.536   2.314
 3983TIP3    H211893   2.959   7.565   2.444
 3984TIP3   OH211894   2.228   2.881   4.855
 3984TIP3    H111895   2.179   2.908   4.777
 3984TIP3    H211896   2.193   2.935   4.926
 3985TIP3   OH211897   7.016   4.187   4.970
 3985TIP3    H111898   7.073   4.129   4.919
 3985TIP3    H211899   7.075   4.252   5.006
 3986TIP3   OH211900   6.141   3.890   0.884
 3986TIP3    H111901   6.129   3.932   0.968
 3986TIP3    H211902   6.101   3.950   0.821
 3987TIP3   OH211903   2.883   1.141   6.457
 3987TIP3    H111904   2.883   1.096   6.372
 3987TIP3    H211905   2.976   1.150   6.480
 3988TIP3   OH211906   7.246   3.525   0.322
 3988TIP3    H111907   7.330   3.485   0.345
 3988TIP3    H211908   7.269   3.595   0.260
 3989TIP3   OH211909   3.642   0.500   4.469
 3989TIP3    H111910   3.568   0.454   4.430
 3989TIP3    H211911   3.626   0.592   4.447
 3990TIP3   OH211912   7.699   3.374   5.040
 3990TIP3    H111913   7.683   3.326   4.958
 3990TIP3    H211914   7.647   3.328   5.105
 3991TIP3   OH211915   5.096   0.227   3.251
 3991TIP3    H111916   5.185   0.255   3.272
 3991TIP3    H211917   5.054   0.215   3.336
 3992TIP3   OH211918   3.039   5.283   0.278
 3992TIP3    H111919   2.958   5.321   0.244
 3992TIP3    H211920   3.033   5.190   0.255
 3993TIP3   OH211921   1.059   5.942   2.070
 3993TIP3    H111922   1.128   5.959   2.005
 3993TIP3    H211923   0.983   5.991   2.037
 3994TIP3   OH211924   3.107   3.715   5.667
 3994TIP3    H111925   3.127   3.697   5.758
 3994TIP3    H211926   3.030   3.772   5.670
 3995TIP3   OH211927   7.464   3.315   5.243
 3995TIP3    H111928   7.467   3.341   5.335
 3995TIP3    H211929   7.392   3.366   5.206
 3996TIP3   OH211930   2.962   3.961   3.133
 3996TIP3    H111931   3.029   3.982   3.068
 3996TIP3    H211932   3.007   3.905   3.197
 3997TIP3   OH211933   0.594   7.703   0.367
 3997TIP3    H111934   0.595   7.694   0.272
 3997TIP3    H211935   0.609   7.797   0.382
 3998TIP3   OH211936   3.863   5.001   3.040
 3998TIP3    H111937   3.858   4.908   3.061
 3998TIP3    H211938   3.825   5.008   2.952
 3999TIP3   OH211939   2.633   0.589   4.818
 3999TIP3    H111940   2.671   0.587   4.906
 3999TIP3    H211941   2.666   0.670   4.779
 4000TIP3   OH211942   0.490   5.910   6.730
 4000TIP3    H111943   0.458   6.001   6.733
 4000TIP3    H211944   0.582   5.917   6.756
 4001TIP3   OH211945   2.634   5.291   1.877
 4001TIP3    H111946   2.683   5.230   1.823
 4001TIP3    H211947   2.546   5.252   1.883
 4002TIP3   OH211948   3.227   4.522   6.566
 4002TIP3    H111949   3.176   4.602   6.553
 4002TIP3    H211950   3.167   4.462   6.611
 4003TIP3   OH211951   4.754   0.294   5.538
 4003TIP3    H111952   4.756   0.200   5.553
 4003TIP3    H211953   4.840   0.315   5.502
 4004TIP3   OH211954   1.298   2.906   1.030
 4004TIP3    H111955   1.293   2.813   1.008
 4004TIP3    H211956   1.386   2.932   1.003
 4005TIP3   OH211957   4.142   3.037   6.178
 4005TIP3    H111958   4.101   3.054   6.263
 4005TIP3    H211959   4.101   3.099   6.119
 4006TIP3   OH211960   2.208   3.399   0.451
 4006TIP3    H111961   2.267   3.343   0.501
 4006TIP3    H211962   2.238   3.488   0.470
 4007TIP3   OH211963   2.294   2.682   0.916
 4007TIP3    H111964   2.319   2.631   0.993
 4007TIP3    H211965   2.337   2.637   0.843
 4008TIP3   OH211966   8.047   3.427   4.790
 4008TIP3    H111967   7.993   3.459   4.863
 4008TIP3    H211968   8.111   3.369   4.831
 4009TIP3   OH211969   0.082   3.844   4.521
 4009TIP3    H111970   0.036   3.834   4.605
 4009TIP3    H211971   0.129   3.761   4.509
 4010TIP3   OH211972   3.769   6.104   2.482
 4010TIP3    H111973   3.704   6.062   2.539
 4010TIP3    H211974   3.742   6.080   2.393
 4011TIP3   OH211975   5.296   4.221   2.109
 4011TIP3    H111976   5.295   4.176   2.024
 4011TIP3    H211977   5.206   4.214   2.141
 4012TIP3   OH211978   8.289   6.293   5.249
 4012TIP3    H111979   8.334   6.375   5.229
 4012TIP3    H211980   8.353   6.225   5.228
 4013TIP3   OH211981   4.834   2.925   6.505
 4013TIP3    H111982   4.919   2.885   6.486
 4013TIP3    H211983   4.770   2.857   6.486
 4014TIP3   OH211984   1.659   2.458   3.834
 4014TIP3    H111985   1.665   2.493   3.746
 4014TIP3    H211986   1.630   2.532   3.888
 4015TIP3   OH211987   1.347   4.722   1.346
 4015TIP3    H111988   1.384   4.695   1.430
 4015TIP3    H211989   1.368   4.651   1.286
 4016TIP3   OH211990   1.939   1.577   4.673
 4016TIP3    H111991   1.850   1.613   4.672
 4016TIP3    H211992   1.937   1.506   4.609
 4017TIP3   OH211993   7.155   6.823   3.311
 4017TIP3    H111994   7.075   6.831   3.363
 4017TIP3    H211995   7.134   6.756   3.246
 4018TIP3   OH211996   1.899   6.367   0.990
 4018TIP3    H111997   1.859   6.454   0.997
 4018TIP3    H211998   1.960   6.375   0.916
 4019TIP3   OH211999   6.486   3.338   5.023
 4019TIP3    H112000   6.485   3.311   5.115
 4019TIP3    H212001   6.414   3.401   5.016
 4020TIP3   OH212002   6.583   7.763   2.806
 4020TIP3    H112003   6.544   7.691   2.758
 4020TIP3    H212004   6.513   7.794   2.864
 4021TIP3   OH212005   0.770   1.884   3.979
 4021TIP3    H112006   0.719   1.804   3.965
 4021TIP3    H212007   0.727   1.928   4.051
 4022TIP3   OH212008   6.469   6.130   1.918
 4022TIP3    H112009   6.476   6.193   1.846
 4022TIP3    H212010   6.418   6.175   1.985
 4023TIP3   OH212011   5.151   6.651   4.488
 4023TIP3    H112012   5.222   6.693   4.440
 4023TIP3    H212013   5.088   6.625   4.421
 4024TIP3   OH212014   5.871   3.107   6.497
 4024TIP3    H112015   5.950   3.054   6.506
 4024TIP3    H212016   5.821   3.092   6.577
 4025TIP3   OH212017   6.339   3.977   4.868
 4025TIP3    H112018   6.428   3.994   4.837
 4025TIP3    H212019   6.284   3.992   4.791
 4026TIP3   OH212020   6.376   5.894   4.490
 4026TIP3    H112021   6.393   5.986   4.509
 4026TIP3    H212022   6.302   5.872   4.547
 4027TIP3   OH212023   3.987   3.822   0.860
 4027TIP3    H112024   4.073   3.847   0.827
 4027TIP3    H212025   3.925   3.857   0.796
 4028TIP3   OH212026   0.193   6.646   4.486
 4028TIP3    H112027   0.226   6.695   4.562
 4028TIP3    H212028   0.267   6.592   4.459
 4029TIP3   OH212029   2.360   1.525   3.826
 4029TIP3    H112030   2.419   1.478   3.768
 4029TIP3    H212031   2.278   1.533   3.776
 4030TIP3   OH212032   5.121   7.687   0.341
 4030TIP3    H112033   5.125   7.592   0.326
 4030TIP3    H212034   5.166   7.724   0.265
 4031TIP3   OH212035   4.004   3.609   1.316
 4031TIP3    H112036   3.978   3.696   1.285
 4031TIP3    H212037   4.069   3.627   1.384
 4032TIP3   OH212038   6.903   0.805   4.504
 4032TIP3    H112039   6.840   0.852   4.560
 4032TIP3    H212040   6.988   0.828   4.540
 4033TIP3   OH212041   4.252   6.675   2.183
 4033TIP3    H112042   4.211   6.740   2.126
 4033TIP3    H212043   4.204   6.595   2.166
 4034TIP3   OH212044   7.297   4.748   5.841
 4034TIP3    H112045   7.376   4.783   5.800
 4034TIP3    H212046   7.252   4.825   5.876
 4035TIP3   OH212047   2.325   4.746   1.631
 4035TIP3    H112048   2.262   4.805   1.591
 4035TIP3    H212049   2.339   4.678   1.566
 4036TIP3   OH212050   4.907   5.148   3.878
 4036TIP3    H112051   5.002   5.146   3.894
 4036TIP3    H212052   4.886   5.241   3.877
 4037TIP3   OH212053   5.053   6.298   1.970
 4037TIP3    H112054   5.068   6.306   1.876
 4037TIP3    H212055   4.962   6.326   1.982
 4038TIP3   OH212056   1.013   7.583   6.424
 4038TIP3    H112057   0.951   7.521   6.388
 4038TIP3    H212058   1.099   7.546   6.404
 4039TIP3   OH212059   6.166   0.218   2.292
 4039TIP3    H112060   6.180   0.124   2.284
 4039TIP3    H212061   6.238   0.257   2.242
 4040TIP3   OH212062   1.071   4.377   5.692
 4040TIP3    H112063   0.996   4.404   5.638
 4040TIP3    H212064   1.148   4.396   5.638
 4041TIP3   OH212065   6.504   4.475   0.638
 4041TIP3    H112066   6.570   4.421   0.594
 4041TIP3    H212067   6.554   4.549   0.673
 4042TIP3   OH212068   7.326   4.379   0.317
 4042TIP3    H112069   7.389   4.452   0.324
 4042TIP3    H212070   7.246   4.413   0.356
 4043TIP3   OH212071   4.225   7.132   4.089
 4043TIP3    H112072   4.306   7.130   4.039
 4043TIP3    H212073   4.158   7.155   4.025
 4044TIP3   OH212074   3.347   5.315   2.551
 4044TIP3    H112075   3.325   5.349   2.465
 4044TIP3    H212076   3.305   5.229   2.555
 4045TIP3   OH212077   6.380   7.614   1.670
 4045TIP3    H112078   6.401   7.552   1.600
 4045TIP3    H212079   6.441   7.687   1.656
 4046TIP3   OH212080   1.231   6.716   0.618
 4046TIP3    H112081   1.223   6.805   0.584
 4046TIP3    H212082   1.170   6.665   0.565
 4047TIP3   OH212083   2.348  -0.027   4.382
 4047TIP3    H112084   2.261  -0.006   4.348
 4047TIP3    H212085   2.337  -0.026   4.477
 4048TIP3   OH212086   2.555   4.500   4.693
 4048TIP3    H112087   2.584   4.517   4.783
 4048TIP3    H212088   2.459   4.499   4.700
 4049TIP3   OH212089   7.358   5.809   2.518
 4049TIP3    H112090   7.293   5.872   2.489
 4049TIP3    H212091   7.410   5.790   2.441
 4050TIP3   OH212092   4.790   1.940   0.674
 4050TIP3    H112093   4.868   1.918   0.725
 4050TIP3    H212094   4.788   2.036   0.675
 4051TIP3   OH212095   4.248   3.568   6.503
 4051TIP3    H112096   4.236   3.507   6.576
 4051TIP3    H212097   4.249   3.512   6.425
 4052TIP3   OH212098   6.703   0.938   0.919
 4052TIP3    H112099   6.775   0.892   0.962
 4052TIP3    H212100   6.631   0.874   0.919
 4053TIP3   OH212101   1.590   6.862   5.770
 4053TIP3    H112102   1.650   6.897   5.704
 4053TIP3    H212103   1.606   6.915   5.848
 4054TIP3   OH212104   0.672   1.605   5.200
 4054TIP3    H112105   0.673   1.510   5.205
 4054TIP3    H212106   0.581   1.627   5.178
 4055TIP3   OH212107   7.597   5.766   4.658
 4055TIP3    H112108   7.530   5.776   4.590
 4055TIP3    H212109   7.597   5.850   4.705
 4056TIP3   OH212110   3.645   4.706   1.207
 4056TIP3    H112111   3.640   4.612   1.227
 4056TIP3    H212112   3.685   4.745   1.285
 4057TIP3   OH212113   0.190   3.340   6.344
 4057TIP3    H112114   0.143   3.417   6.312
 4057TIP3    H212115   0.282   3.359   6.326
 4058TIP3   OH212116   5.401   7.275   1.837
 4058TIP3    H112117   5.436   7.191   1.808
 4058TIP3    H212118   5.384   7.263   1.930
 4059TIP3   OH212119   3.947   4.455   6.603
 4059TIP3    H112120   3.925   4.503   6.683
 4059TIP3    H212121   3.952   4.522   6.535
 4060TIP3   OH212122   5.364   0.069   0.932
 4060TIP3    H112123   5.340  -0.010   0.884
 4060TIP3    H212124   5.313   0.139   0.891
 4061TIP3   OH212125   0.875   1.688   4.964
 4061TIP3    H112126   0.837   1.608   4.927
 4061TIP3    H212127   0.965   1.687   4.934
 4062TIP3   OH212128   6.657   1.977   5.985
 4062TIP3    H112129   6.725   2.034   6.020
 4062TIP3    H212130   6.577   2.007   6.028
 4063TIP3   OH212131   6.708   2.806   3.460
 4063TIP3    H112132   6.633   2.797   3.402
 4063TIP3    H212133   6.689   2.747   3.533
 4064TIP3   OH212134   0.455   6.851   5.763
 4064TIP3    H112135   0.470   6.926   5.820
 4064TIP3    H212136   0.541   6.809   5.755
 4065TIP3   OH212137   1.321   3.935   5.275
 4065TIP3    H112138   1.256   3.865   5.273
 4065TIP3    H212139   1.291   3.994   5.344
 4066TIP3   OH212140   5.646   7.201   3.189
 4066TIP3    H112141   5.720   7.238   3.140
 4066TIP3    H212142   5.673   7.205   3.280
 4067TIP3   OH212143   2.090   5.797   1.493
 4067TIP3    H112144   2.168   5.771   1.445
 4067TIP3    H212145   2.123   5.851   1.565
 4068TIP3   OH212146   1.121   5.032   0.863
 4068TIP3    H112147   1.057   5.001   0.799
 4068TIP3    H212148   1.086   5.003   0.948
 4069TIP3   OH212149   1.886   2.544   6.395
 4069TIP3    H112150   1.885   2.567   6.302
 4069TIP3    H212151   1.796   2.555   6.424
 4070TIP3   OH212152   2.311   0.310   2.759
 4070TIP3    H112153   2.300   0.311   2.854
 4070TIP3    H212154   2.398   0.349   2.746
 4071TIP3   OH212155   4.308   6.205   0.166
 4071TIP3    H112156   4.337   6.124   0.207
 4071TIP3    H212157   4.285   6.179   0.077
 4072TIP3   OH212158   4.314   6.279   1.114
 4072TIP3    H112159   4.225   6.272   1.151
 4072TIP3    H212160   4.372   6.251   1.185
 4073TIP3   OH212161   1.204   1.059   1.384
 4073TIP3    H112162   1.188   1.149   1.414
 4073TIP3    H212163   1.228   1.069   1.292
 4074TIP3   OH212164   2.713   3.230   3.433
 4074TIP3    H112165   2.798   3.210   3.396
 4074TIP3    H212166   2.659   3.256   3.358
 4075TIP3   OH212167   5.557   0.179   5.946
 4075TIP3    H112168   5.623   0.179   5.876
 4075TIP3    H212169   5.584   0.106   6.003
 4076TIP3   OH212170   3.203   0.427   6.706
 4076TIP3    H112171   3.299   0.422   6.698
 4076TIP3    H212172   3.172   0.341   6.676
 4077TIP3   OH212173   4.033   5.623   2.496
 4077TIP3    H112174   4.054   5.652   2.584
 4077TIP3    H212175   4.040   5.528   2.500
 4078TIP3   OH212176   0.651   4.079   1.388
 4078TIP3    H112177   0.667   4.063   1.482
 4078TIP3    H212178   0.733   4.055   1.346
 4079TIP3   OH212179   7.497   3.735   3.836
 4079TIP3    H112180   7.578   3.695   3.805
 4079TIP3    H212181   7.462   3.672   3.899
 4080TIP3   OH212182   3.920   0.838   4.008
 4080TIP3    H112183   3.896   0.759   3.960
 4080TIP3    H212184   3.944   0.807   4.095
 4081TIP3   OH212185   2.206   5.500   5.559
 4081TIP3    H112186   2.123   5.496   5.513
 4081TIP3    H212187   2.231   5.408   5.570
 4082TIP3   OH212188   2.001   7.321   4.763
 4082TIP3    H112189   2.011   7.416   4.762
 4082TIP3    H212190   2.071   7.290   4.821
 4083TIP3   OH212191   0.048   3.010   3.427
 4083TIP3    H112192  -0.005   2.944   3.471
 4083TIP3    H212193   0.115   3.034   3.492
 4084TIP3   OH212194   2.327   2.405   0.491
 4084TIP3    H112195   2.310   2.325   0.442
 4084TIP3    H212196   2.333   2.376   0.582
 4085TIP3   OH212197   3.151   2.082   6.625
 4085TIP3    H112198   3.209   2.138   6.677
 4085TIP3    H212199   3.202   2.002   6.610
 4086TIP3   OH212200   2.490   2.805   4.910
 4086TIP3    H112201   2.400   2.805   4.877
 4086TIP3    H212202   2.524   2.892   4.886
 4087TIP3   OH212203   5.923   6.696   3.817
 4087TIP3    H112204   5.911   6.676   3.910
 4087TIP3    H212205   6.016   6.715   3.808
 4088TIP3   OH212206   7.215   1.690   2.709
 4088TIP3    H112207   7.148   1.695   2.640
 4088TIP3    H212208   7.267   1.769   2.697
 4089TIP3   OH212209   2.324   0.098   2.526
 4089TIP3    H112210   2.413   0.070   2.546
 4089TIP3    H212211   2.299   0.154   2.599
 4090TIP3   OH212212   1.258   4.761   0.813
 4090TIP3    H112213   1.186   4.715   0.770
 4090TIP3    H212214   1.216   4.836   0.855
 4091TIP3   OH212215   7.307   1.708   5.789
 4091TIP3    H112216   7.344   1.777   5.844
 4091TIP3    H212217   7.293   1.634   5.849
 4092TIP3   OH212218   7.813   1.670   2.439
 4092TIP3    H112219   7.777   1.627   2.361
 4092TIP3    H212220   7.874   1.735   2.404
 4093TIP3   OH212221   0.954   4.967   1.078
 4093TIP3    H112222   1.036   4.935   1.116
 4093TIP3    H212223   0.899   4.889   1.072
 4094TIP3   OH212224   6.904   2.971   4.358
 4094TIP3    H112225   6.895   3.016   4.442
 4094TIP3    H212226   6.930   2.882   4.381
 4095TIP3   OH212227   0.341   7.645   4.335
 4095TIP3    H112228   0.245   7.642   4.337
 4095TIP3    H212229   0.369   7.558   4.361
 4096TIP3   OH212230   1.198   1.977   1.318
 4096TIP3    H112231   1.285   1.992   1.280
 4096TIP3    H212232   1.216   1.953   1.409
 4097TIP3   OH212233   0.360   0.442   3.511
 4097TIP3    H112234   0.284   0.495   3.533
 4097TIP3    H212235   0.413   0.443   3.591
 4098TIP3   OH212236   0.659   6.363   2.273
 4098TIP3    H112237   0.699   6.424   2.336
 4098TIP3    H212238   0.690   6.392   2.188
 4099TIP3   OH212239   4.109   7.191   0.272
 4099TIP3    H112240   4.097   7.148   0.188
 4099TIP3    H212241   4.030   7.244   0.283
 4100TIP3   OH212242   1.699   4.008   4.362
 4100TIP3    H112243   1.626   4.055   4.321
 4100TIP3    H212244   1.777   4.056   4.335
 4101TIP3   OH212245   5.864   3.588   0.312
 4101TIP3    H112246   5.853   3.495   0.331
 4101TIP3    H212247   5.955   3.597   0.285
 4102TIP3   OH212248   3.306   0.244   5.605
 4102TIP3    H112249   3.376   0.222   5.543
 4102TIP3    H212250   3.348   0.302   5.669
 4103TIP3   OH212251   6.169   3.520   2.884
 4103TIP3    H112252   6.105   3.479   2.943
 4103TIP3    H212253   6.189   3.451   2.820
 4104TIP3   OH212254   6.903   5.345   1.071
 4104TIP3    H112255   6.909   5.286   0.996
 4104TIP3    H212256   6.980   5.402   1.063
 4105TIP3   OH212257   5.995   4.419   0.929
 4105TIP3    H112258   5.953   4.409   1.015
 4105TIP3    H212259   5.972   4.508   0.902
 4106TIP3   OH212260   4.811   4.869   6.400
 4106TIP3    H112261   4.790   4.779   6.424
 4106TIP3    H212262   4.741   4.895   6.341
 4107TIP3   OH212263   2.563   0.153   4.414
 4107TIP3    H112264   2.508   0.087   4.373
 4107TIP3    H212265   2.627   0.177   4.347
 4108TIP3   OH212266   0.737   3.574   1.834
 4108TIP3    H112267   0.806   3.609   1.890
 4108TIP3    H212268   0.670   3.642   1.834
 4109TIP3   OH212269   2.505   6.165   3.823
 4109TIP3    H112270   2.584   6.187   3.872
 4109TIP3    H212271   2.440   6.229   3.853
 4110TIP3   OH212272   6.826   6.212   5.586
 4110TIP3    H112273   6.775   6.196   5.665
 4110TIP3    H212274   6.768   6.263   5.530
 4111TIP3   OH212275   2.006   1.967   4.220
 4111TIP3    H112276   2.028   1.937   4.309
 4111TIP3    H212277   2.044   1.901   4.163
 4112TIP3   OH212278   3.262   4.730   6.131
 4112TIP3    H112279   3.167   4.719   6.128
 4112TIP3    H212280   3.277   4.821   6.106
 4113TIP3   OH212281   7.040   1.100   2.153
 4113TIP3    H112282   6.980   1.087   2.227
 4113TIP3    H212283   6.985   1.092   2.075
 4114TIP3   OH212284   4.335   3.211   1.425
 4114TIP3    H112285   4.306   3.172   1.507
 4114TIP3    H212286   4.350   3.136   1.367
 4115TIP3   OH212287   1.084   1.687   1.912
 4115TIP3    H112288   1.175   1.697   1.886
 4115TIP3    H212289   1.046   1.628   1.847
 4116TIP3   OH212290   5.374   0.476   4.512
 4116TIP3    H112291   5.427   0.415   4.563
 4116TIP3    H212292   5.318   0.421   4.458
 4117TIP3   OH212293   1.176   3.882   3.847
 4117TIP3    H112294   1.224   3.961   3.822
 4117TIP3    H212295   1.097   3.915   3.891
 4118TIP3   OH212296   5.156   3.358   6.062
 4118TIP3    H112297   5.180   3.281   6.113
 4118TIP3    H212298   5.090   3.326   6.000
 4119TIP3   OH212299   3.729   5.463   5.518
 4119TIP3    H112300   3.704   5.404   5.447
 4119TIP3    H212301   3.791   5.412   5.571
 4120TIP3   OH212302   2.029   1.435   0.217
 4120TIP3    H112303   2.098   1.372   0.195
 4120TIP3    H212304   1.948   1.391   0.193
 4121TIP3   OH212305   3.563   0.935   4.619
 4121TIP3    H112306   3.577   1.010   4.676
 4121TIP3    H212307   3.481   0.897   4.650
 4122TIP3   OH212308   4.807   2.285   5.688
 4122TIP3    H112309   4.814   2.363   5.742
 4122TIP3    H212310   4.721   2.292   5.647
 4123TIP3   OH212311   1.835   0.707   0.905
 4123TIP3    H112312   1.867   0.626   0.945
 4123TIP3    H212313   1.878   0.711   0.820
 4124TIP3   OH212314   3.113   0.370   2.042
 4124TIP3    H112315   3.082   0.407   1.959
 4124TIP3    H212316   3.204   0.398   2.049
 4125TIP3   OH212317   6.511   7.566   1.184
 4125TIP3    H112318   6.468   7.547   1.101
 4125TIP3    H212319   6.584   7.504   1.188
 4126TIP3   OH212320   0.775   1.331   1.947
 4126TIP3    H112321   0.748   1.274   2.019
 4126TIP3    H212322   0.698   1.385   1.929
 4127TIP3   OH212323   3.788   0.487   2.938
 4127TIP3    H112324   3.701   0.506   2.975
 4127TIP3    H212325   3.802   0.394   2.957
 4128TIP3   OH212326   5.596   1.419   0.959
 4128TIP3    H112327   5.521   1.473   0.933
 4128TIP3    H212328   5.670   1.456   0.910
 4129TIP3   OH212329   6.249   3.324   4.760
 4129TIP3    H112330   6.278   3.259   4.696
 4129TIP3    H212331   6.283   3.293   4.844
 4130TIP3   OH212332   2.936   2.142   1.929
 4130TIP3    H112333   2.886   2.216   1.963
 4130TIP3    H212334   2.940   2.080   2.002
 4131TIP3   OH212335   7.935   2.141   6.672
 4131TIP3    H112336   7.990   2.067   6.697
 4131TIP3    H212337   7.983   2.218   6.702
 4132TIP3   OH212338   2.507   4.797   5.248
 4132TIP3    H112339   2.461   4.836   5.173
 4132TIP3    H212340   2.482   4.852   5.322
 4133TIP3   OH212341   3.371   1.792   5.646
 4133TIP3    H112342   3.357   1.879   5.684
 4133TIP3    H212343   3.465   1.778   5.653
 4134TIP3   OH212344   1.917   4.578   3.321
 4134TIP3    H112345   1.842   4.638   3.317
 4134TIP3    H212346   1.992   4.633   3.296
 4135TIP3   OH212347   7.204   4.906   2.469
 4135TIP3    H112348   7.158   4.983   2.434
 4135TIP3    H212349   7.279   4.942   2.516
 4136TIP3   OH212350   6.561   3.987   6.331
 4136TIP3    H112351   6.570   4.077   6.362
 4136TIP3    H212352   6.650   3.961   6.307
 4137TIP3   OH212353   1.709   5.585   0.560
 4137TIP3    H112354   1.733   5.629   0.642
 4137TIP3    H212355   1.690   5.495   0.586
 4138TIP3   OH212356   7.787   1.018   6.491
 4138TIP3    H112357   7.722   1.004   6.422
 4138TIP3    H212358   7.869   0.988   6.453
 4139TIP3   OH212359   5.931  -0.012   4.612
 4139TIP3    H112360   5.934  -0.021   4.707
 4139TIP3    H212361   5.839   0.007   4.593
 4140TIP3   OH212362   1.597   2.981   1.444
 4140TIP3    H112363   1.576   3.035   1.521
 4140TIP3    H212364   1.690   2.994   1.430
 4141TIP3   OH212365   4.467   3.171   4.807
 4141TIP3    H112366   4.469   3.216   4.722
 4141TIP3    H212367   4.376   3.142   4.817
 4142TIP3   OH212368   3.331   4.159   5.974
 4142TIP3    H112369   3.403   4.095   5.972
 4142TIP3    H212370   3.276   4.132   6.047
 4143TIP3   OH212371   4.894   2.362   4.784
 4143TIP3    H112372   4.876   2.337   4.875
 4143TIP3    H212373   4.890   2.458   4.784
 4144TIP3   OH212374   0.577   6.060   3.634
 4144TIP3    H112375   0.584   6.098   3.722
 4144TIP3    H212376   0.666   6.031   3.613
 4145TIP3   OH212377   4.898   3.949   6.624
 4145TIP3    H112378   4.868   3.949   6.533
 4145TIP3    H212379   4.863   3.868   6.662
 4146TIP3   OH212380   3.860   3.761   0.460
 4146TIP3    H112381   3.899   3.839   0.420
 4146TIP3    H212382   3.900   3.687   0.414
 4147TIP3   OH212383   2.940   5.171   4.585
 4147TIP3    H112384   2.885   5.248   4.599
 4147TIP3    H212385   2.937   5.156   4.491
 4148TIP3   OH212386   5.316   2.451   2.576
 4148TIP3    H112387   5.306   2.356   2.584
 4148TIP3    H212388   5.365   2.463   2.495
 4149TIP3   OH212389   3.122   2.065   6.358
 4149TIP3    H112390   3.154   2.024   6.438
 4149TIP3    H212391   3.063   2.001   6.319
 4150TIP3   OH212392   5.090   5.730   0.763
 4150TIP3    H112393   5.100   5.699   0.853
 4150TIP3    H212394   5.159   5.795   0.752
 4151TIP3   OH212395   7.364   2.550   1.370
 4151TIP3    H112396   7.377   2.644   1.384
 4151TIP3    H212397   7.416   2.530   1.292
 4152TIP3   OH212398   8.205   7.320   3.599
 4152TIP3    H112399   8.244   7.348   3.516
 4152TIP3    H212400   8.128   7.375   3.609
 4153TIP3   OH212401   7.333   4.788   4.950
 4153TIP3    H112402   7.418   4.761   4.985
 4153TIP3    H212403   7.355   4.851   4.881
 4154TIP3   OH212404   0.743   6.464   2.011
 4154TIP3    H112405   0.702   6.507   1.936
 4154TIP3    H212406   0.834   6.495   2.010
 4155TIP3   OH212407   2.877   4.571   5.614
 4155TIP3    H112408   2.845   4.606   5.531
 4155TIP3    H212409   2.955   4.520   5.589
 4156TIP3   OH212410   1.464   7.679   4.304
 4156TIP3    H112411   1.462   7.614   4.375
 4156TIP3    H212412   1.553   7.713   4.306
 4157TIP3   OH212413   6.995   4.938   3.350
 4157TIP3    H112414   6.923   4.948   3.411
 4157TIP3    H212415   6.991   5.016   3.294
 4158TIP3   OH212416   2.140   6.417   3.444
 4158TIP3    H112417   2.204   6.455   3.384
 4158TIP3    H212418   2.154   6.463   3.527
 4159TIP3   OH212419   5.118   5.427   1.860
 4159TIP3    H112420   5.076   5.351   1.901
 4159TIP3    H212421   5.070   5.502   1.895
 4160TIP3   OH212422   6.433   2.526   5.341
 4160TIP3    H112423   6.403   2.616   5.356
 4160TIP3    H212424   6.454   2.494   5.429
 4161TIP3   OH212425   5.169   3.884   4.179
 4161TIP3    H112426   5.195   3.873   4.271
 4161TIP3    H212427   5.097   3.823   4.168
 4162TIP3   OH212428   5.691   2.620   3.103
 4162TIP3    H112429   5.674   2.537   3.058
 4162TIP3    H212430   5.762   2.601   3.163
 4163TIP3   OH212431   0.762   4.872   1.959
 4163TIP3    H112432   0.782   4.894   1.868
 4163TIP3    H212433   0.733   4.781   1.956
 4164TIP3   OH212434   0.632   6.222   3.861
 4164TIP3    H112435   0.727   6.231   3.857
 4164TIP3    H212436   0.615   6.170   3.939
 4165TIP3   OH212437   6.614   7.834   3.243
 4165TIP3    H112438   6.608   7.918   3.197
 4165TIP3    H212439   6.690   7.790   3.204
 4166TIP3   OH212440   5.334   2.955   1.108
 4166TIP3    H112441   5.354   3.019   1.177
 4166TIP3    H212442   5.382   2.876   1.134
 4167TIP3   OH212443   7.832   1.097   0.644
 4167TIP3    H112444   7.789   1.061   0.722
 4167TIP3    H212445   7.888   1.167   0.679
 4168TIP3   OH212446   7.001   4.814   3.677
 4168TIP3    H112447   6.983   4.891   3.730
 4168TIP3    H212448   6.942   4.822   3.602
 4169TIP3   OH212449   4.814   4.677   2.029
 4169TIP3    H112450   4.736   4.626   2.048
 4169TIP3    H212451   4.807   4.754   2.086
 4170TIP3   OH212452   6.019   0.740   6.243
 4170TIP3    H112453   6.044   0.649   6.230
 4170TIP3    H212454   6.076   0.790   6.184
 4171TIP3   OH212455   4.562   3.780   0.807
 4171TIP3    H112456   4.503   3.717   0.848
 4171TIP3    H212457   4.646   3.734   0.801
 4172TIP3   OH212458   4.924   7.056   2.666
 4172TIP3    H112459   4.901   7.037   2.757
 4172TIP3    H212460   4.900   7.148   2.654
 4173TIP3   OH212461   4.881   5.019   5.523
 4173TIP3    H112462   4.820   5.093   5.518
 4173TIP3    H212463   4.849   4.967   5.597
 4174TIP3   OH212464   4.204   1.298   1.341
 4174TIP3    H112465   4.253   1.217   1.325
 4174TIP3    H212466   4.140   1.301   1.270
 4175TIP3   OH212467   2.867   1.415   4.620
 4175TIP3    H112468   2.788   1.462   4.646
 4175TIP3    H212469   2.933   1.484   4.607
 4176TIP3   OH212470   4.562   0.661   6.148
 4176TIP3    H112471   4.649   0.651   6.186
 4176TIP3    H212472   4.543   0.755   6.156
 4177TIP3   OH212473   1.330   3.525   3.885
 4177TIP3    H112474   1.364   3.611   3.862
 4177TIP3    H212475   1.309   3.531   3.978
 4178TIP3   OH212476   4.087   3.584   4.331
 4178TIP3    H112477   4.125   3.672   4.326
 4178TIP3    H212478   4.111   3.552   4.418
 4179TIP3   OH212479   2.331   5.371   3.199
 4179TIP3    H112480   2.247   5.413   3.182
 4179TIP3    H212481   2.389   5.406   3.131
 4180TIP3   OH212482   4.501   5.029   4.926
 4180TIP3    H112483   4.444   5.060   4.855
 4180TIP3    H212484   4.457   4.950   4.959
 4181TIP3   OH212485   1.455   0.024   6.507
 4181TIP3    H112486   1.504   0.047   6.586
 4181TIP3    H212487   1.521   0.021   6.438
 4182TIP3   OH212488   0.298   4.951   3.941
 4182TIP3    H112489   0.266   5.040   3.952
 4182TIP3    H212490   0.301   4.938   3.846
 4183TIP3   OH212491   5.361   3.312   0.525
 4183TIP3    H112492   5.434   3.301   0.585
 4183TIP3    H212493   5.393   3.279   0.441
 4184TIP3   OH212494   7.650   2.690   1.329
 4184TIP3    H112495   7.741   2.676   1.354
 4184TIP3    H212496   7.653   2.765   1.269
 4185TIP3   OH212497   2.490   1.216   5.161
 4185TIP3    H112498   2.451   1.262   5.086
 4185TIP3    H212499   2.481   1.124   5.138
 4186TIP3   OH212500   3.902   6.850   3.468
 4186TIP3    H112501   3.885   6.926   3.523
 4186TIP3    H212502   3.903   6.776   3.528
 4187TIP3   OH212503   7.598   6.090   3.189
 4187TIP3    H112504   7.649   6.015   3.219
 4187TIP3    H212505   7.604   6.085   3.093
 4188TIP3   OH212506   2.143   1.468   5.741
 4188TIP3    H112507   2.108   1.382   5.767
 4188TIP3    H212508   2.155   1.461   5.646
 4189TIP3   OH212509   4.207   5.703   3.034
 4189TIP3    H112510   4.126   5.751   3.052
 4189TIP3    H212511   4.263   5.721   3.109
 4190TIP3   OH212512   4.807   7.748   5.505
 4190TIP3    H112513   4.864   7.676   5.533
 4190TIP3    H212514   4.851   7.827   5.537
 4191TIP3   OH212515   2.684   6.660   0.284
 4191TIP3    H112516   2.667   6.754   0.298
 4191TIP3    H212517   2.744   6.658   0.210
 4192TIP3   OH212518   4.205   4.989   6.080
 4192TIP3    H112519   4.252   4.912   6.113
 4192TIP3    H212520   4.200   5.048   6.155
 4193TIP3   OH212521   7.506   4.995   1.709
 4193TIP3    H112522   7.420   4.967   1.677
 4193TIP3    H212523   7.543   4.916   1.749
 4194TIP3   OH212524   6.877   6.227   1.742
 4194TIP3    H112525   6.813   6.181   1.688
 4194TIP3    H212526   6.828   6.255   1.819
 4195TIP3   OH212527   1.281   5.942   1.908
 4195TIP3    H112528   1.364   5.991   1.905
 4195TIP3    H212529   1.304   5.853   1.883
 4196TIP3   OH212530   3.282   5.036   2.928
 4196TIP3    H112531   3.336   5.114   2.917
 4196TIP3    H212532   3.198   5.060   2.890
 4197TIP3   OH212533   5.482   5.512   2.697
 4197TIP3    H112534   5.558   5.501   2.640
 4197TIP3    H212535   5.478   5.430   2.747
 4198TIP3   OH212536   0.508   7.826   1.706
 4198TIP3    H112537   0.541   7.907   1.746
 4198TIP3    H212538   0.541   7.756   1.762
 4199TIP3   OH212539   6.501   7.592   4.838
 4199TIP3    H112540   6.500   7.520   4.775
 4199TIP3    H212541   6.592   7.596   4.868
 4200TIP3   OH212542   6.768   2.653   4.216
 4200TIP3    H112543   6.697   2.662   4.152
 4200TIP3    H212544   6.832   2.720   4.191
 4201TIP3   OH212545   2.112   7.046   6.269
 4201TIP3    H112546   2.146   7.114   6.210
 4201TIP3    H212547   2.178   7.038   6.337
 4202TIP3   OH212548   8.125   1.716   2.864
 4202TIP3    H112549   8.189   1.773   2.905
 4202TIP3    H212550   8.128   1.635   2.915
 4203TIP3   OH212551   5.511   7.441   3.939
 4203TIP3    H112552   5.575   7.486   3.994
 4203TIP3    H212553   5.541   7.456   3.849
 4204TIP3   OH212554   7.460   1.919   4.712
 4204TIP3    H112555   7.387   1.949   4.766
 4204TIP3    H212556   7.472   1.988   4.647
 4205TIP3   OH212557   7.768   2.646   1.630
 4205TIP3    H112558   7.715   2.632   1.551
 4205TIP3    H212559   7.783   2.740   1.634
 4206TIP3   OH212560   8.101   5.558   5.788
 4206TIP3    H112561   8.066   5.546   5.876
 4206TIP3    H212562   8.024   5.576   5.734
 4207TIP3   OH212563   0.349   4.908   6.230
 4207TIP3    H112564   0.288   4.862   6.288
 4207TIP3    H212565   0.370   4.988   6.277
 4208TIP3   OH212566   8.252   0.716   2.575
 4208TIP3    H112567   8.343   0.724   2.605
 4208TIP3    H212568   8.216   0.804   2.586
 4209TIP3   OH212569   4.603   4.845   5.377
 4209TIP3    H112570   4.613   4.856   5.471
 4209TIP3    H212571   4.523   4.793   5.367
 4210TIP3   OH212572   7.192   3.854   6.638
 4210TIP3    H112573   7.287   3.839   6.632
 4210TIP3    H212574   7.154   3.793   6.575
 4211TIP3   OH212575   6.660   6.423   3.957
 4211TIP3    H112576   6.588   6.487   3.958
 4211TIP3    H212577   6.621   6.343   3.922
 4212TIP3   OH212578   2.494   2.062   4.918
 4212TIP3    H112579   2.454   2.146   4.941
 4212TIP3    H212580   2.581   2.086   4.886
 4213TIP3   OH212581   6.567   4.814   3.003
 4213TIP3    H112582   6.640   4.811   3.066
 4213TIP3    H212583   6.546   4.907   2.995
 4214TIP3   OH212584   7.334   1.220   0.638
 4214TIP3    H112585   7.345   1.283   0.567
 4214TIP3    H212586   7.387   1.144   0.612
 4215TIP3   OH212587   2.958   0.225   4.038
 4215TIP3    H112588   2.886   0.249   3.980
 4215TIP3    H212589   3.007   0.306   4.050
 4216TIP3   OH212590   0.986   0.810   4.954
 4216TIP3    H112591   0.994   0.886   5.012
 4216TIP3    H212592   0.949   0.846   4.873
 4217TIP3   OH212593   1.601   2.230   4.602
 4217TIP3    H112594   1.522   2.250   4.651
 4217TIP3    H212595   1.654   2.309   4.606
 4218TIP3   OH212596   7.651   0.545   0.051
 4218TIP3    H112597   7.649   0.640   0.045
 4218TIP3    H212598   7.727   0.519  -0.002
 4219TIP3   OH212599   6.701   7.757   6.271
 4219TIP3    H112600   6.710   7.846   6.237
 4219TIP3    H212601   6.771   7.708   6.229
 4220TIP3   OH212602   2.002   0.999   1.736
 4220TIP3    H112603   1.957   1.080   1.758
 4220TIP3    H212604   2.076   0.995   1.797
 4221TIP3   OH212605   8.090   4.965   5.557
 4221TIP3    H112606   8.010   5.014   5.540
 4221TIP3    H212607   8.158   5.013   5.510
 4222TIP3   OH212608   1.414   4.630   0.447
 4222TIP3    H112609   1.371   4.682   0.514
 4222TIP3    H212610   1.350   4.562   0.424
 4223TIP3   OH212611   7.611   7.522   2.898
 4223TIP3    H112612   7.546   7.573   2.946
 4223TIP3    H212613   7.575   7.434   2.894
 4224TIP3   OH212614   7.221   7.131   1.594
 4224TIP3    H112615   7.297   7.115   1.651
 4224TIP3    H212616   7.180   7.045   1.585
 4225TIP3   OH212617   1.101   5.027   4.626
 4225TIP3    H112618   1.180   4.989   4.588
 4225TIP3    H212619   1.130   5.063   4.710
 4226TIP3   OH212620   1.799   1.459   1.520
 4226TIP3    H112621   1.834   1.445   1.608
 4226TIP3    H212622   1.792   1.371   1.483
 4227TIP3   OH212623   7.020   5.876   6.699
 4227TIP3    H112624   6.971   5.854   6.779
 4227TIP3    H212625   7.085   5.807   6.691
 4228TIP3   OH212626   3.831   5.283   6.238
 4228TIP3    H112627   3.817   5.371   6.273
 4228TIP3    H212628   3.913   5.254   6.279
 4229TIP3   OH212629   2.421   7.553   1.367
 4229TIP3    H112630   2.352   7.500   1.328
 4229TIP3    H212631   2.502   7.518   1.329
 4230TIP3   OH212632   7.541   6.898   5.663
 4230TIP3    H112633   7.538   6.854   5.748
 4230TIP3    H212634   7.571   6.830   5.602
 4231TIP3   OH212635   3.821   0.070   6.001
 4231TIP3    H112636   3.861   0.061   6.088
 4231TIP3    H212637   3.889   0.110   5.947
 4232TIP3   OH212638   4.122   1.804   5.332
 4232TIP3    H112639   4.109   1.715   5.363
 4232TIP3    H212640   4.052   1.818   5.268
 4233TIP3   OH212641   3.545   1.167   2.753
 4233TIP3    H112642   3.585   1.241   2.798
 4233TIP3    H212643   3.453   1.168   2.782
 4234TIP3   OH212644   2.918   6.604   6.243
 4234TIP3    H112645   2.869   6.626   6.322
 4234TIP3    H212646   2.884   6.519   6.216
 4235TIP3   OH212647   6.771   6.237   2.706
 4235TIP3    H112648   6.768   6.260   2.613
 4235TIP3    H212649   6.730   6.311   2.750
 4236TIP3   OH212650   4.094   5.428   4.549
 4236TIP3    H112651   4.143   5.404   4.627
 4236TIP3    H212652   4.142   5.388   4.477
 4237TIP3   OH212653   0.320   5.120   2.419
 4237TIP3    H112654   0.288   5.159   2.500
 4237TIP3    H212655   0.242   5.108   2.365
 4238TIP3   OH212656   3.887   6.368   6.403
 4238TIP3    H112657   3.894   6.462   6.420
 4238TIP3    H212658   3.943   6.327   6.469
 4239TIP3   OH212659   5.213   6.054   0.744
 4239TIP3    H112660   5.145   6.117   0.719
 4239TIP3    H212661   5.234   6.007   0.663
 4240TIP3   OH212662   3.946   4.153   1.992
 4240TIP3    H112663   3.989   4.072   2.019
 4240TIP3    H212664   3.854   4.139   2.011
 4241TIP3   OH212665   1.839   6.463   3.430
 4241TIP3    H112666   1.804   6.466   3.519
 4241TIP3    H212667   1.933   6.449   3.442
 4242TIP3   OH212668   5.883   0.564   1.804
 4242TIP3    H112669   5.911   0.496   1.866
 4242TIP3    H212670   5.804   0.601   1.842
 4243TIP3   OH212671   4.401   6.128   4.340
 4243TIP3    H112672   4.494   6.117   4.361
 4243TIP3    H212673   4.363   6.167   4.419
 4244TIP3   OH212674   0.721   7.581   0.684
 4244TIP3    H112675   0.788   7.522   0.718
 4244TIP3    H212676   0.660   7.593   0.757
 4245TIP3   OH212677   2.679   1.083   5.503
 4245TIP3    H112678   2.772   1.075   5.482
 4245TIP3    H212679   2.638   1.010   5.457
 4246TIP3   OH212680   1.851   0.434   6.243
 4246TIP3    H112681   1.832   0.345   6.213
 4246TIP3    H212682   1.935   0.427   6.287
 4247TIP3   OH212683   2.186   2.098   5.094
 4247TIP3    H112684   2.156   2.189   5.093
 4247TIP3    H212685   2.256   2.097   5.159
 4248TIP3   OH212686   6.192   5.798   0.524
 4248TIP3    H112687   6.116   5.854   0.540
 4248TIP3    H212688   6.252   5.853   0.474
 4249TIP3   OH212689   6.084   1.224   0.287
 4249TIP3    H112690   6.051   1.287   0.351
 4249TIP3    H212691   6.042   1.249   0.205
 4250TIP3   OH212692   1.570   0.746   0.849
 4250TIP3    H112693   1.660   0.754   0.880
 4250TIP3    H212694   1.536   0.669   0.895
 4251TIP3   OH212695   7.475   4.180   0.474
 4251TIP3    H112696   7.421   4.239   0.423
 4251TIP3    H212697   7.549   4.234   0.503
 4252TIP3   OH212698   7.735   0.359   2.326
 4252TIP3    H112699   7.692   0.437   2.291
 4252TIP3    H212700   7.711   0.289   2.266
 4253TIP3   OH212701   6.140   7.309   3.194
 4253TIP3    H112702   6.149   7.399   3.162
 4253TIP3    H212703   6.050   7.285   3.175
 4254TIP3   OH212704   5.090   5.489   1.249
 4254TIP3    H112705   5.067   5.426   1.318
 4254TIP3    H212706   5.108   5.434   1.173
 4255TIP3   OH212707   6.713   6.897   4.102
 4255TIP3    H112708   6.686   6.936   4.019
 4255TIP3    H212709   6.632   6.863   4.140
 4256TIP3   OH212710   1.968   6.630   1.790
 4256TIP3    H112711   2.009   6.652   1.874
 4256TIP3    H212712   1.959   6.535   1.791
 4257TIP3   OH212713   0.054   6.463   0.828
 4257TIP3    H112714   0.148   6.470   0.808
 4257TIP3    H212715   0.015   6.431   0.747
 4258TIP3   OH212716   5.101   4.211   0.320
 4258TIP3    H112717   5.131   4.161   0.244
 4258TIP3    H212718   5.019   4.168   0.345
 4259TIP3   OH212719   6.596   0.631   0.412
 4259TIP3    H112720   6.561   0.642   0.324
 4259TIP3    H212721   6.527   0.666   0.469
 4260TIP3   OH212722   5.467   6.889   3.659
 4260TIP3    H112723   5.425   6.807   3.686
 4260TIP3    H212724   5.560   6.866   3.651
 4261TIP3   OH212725   0.149   5.319   2.581
 4261TIP3    H112726   0.158   5.344   2.673
 4261TIP3    H212727   0.196   5.386   2.533
 4262TIP3   OH212728   1.816   1.194   2.808
 4262TIP3    H112729   1.910   1.182   2.797
 4262TIP3    H212730   1.779   1.170   2.722
 4263TIP3   OH212731   3.465   7.253   0.301
 4263TIP3    H112732   3.536   7.193   0.277
 4263TIP3    H212733   3.432   7.286   0.217
 4264TIP3   OH212734   6.302   1.214   2.541
 4264TIP3    H112735   6.289   1.122   2.566
 4264TIP3    H212736   6.387   1.215   2.497
 4265TIP3   OH212737   4.969   6.622   1.395
 4265TIP3    H112738   4.893   6.564   1.399
 4265TIP3    H212739   5.043   6.565   1.414
 4266TIP3   OH212740   3.927   7.489   5.650
 4266TIP3    H112741   3.998   7.552   5.635
 4266TIP3    H212742   3.911   7.450   5.565
 4267TIP3   OH212743   6.897   3.937   6.234
 4267TIP3    H112744   6.842   3.980   6.169
 4267TIP3    H212745   6.986   3.948   6.203
 4268TIP3   OH212746   2.522   1.041   3.395
 4268TIP3    H112747   2.538   0.951   3.427
 4268TIP3    H212748   2.594   1.058   3.334
 4269TIP3   OH212749   3.703   0.380   5.919
 4269TIP3    H112750   3.754   0.418   5.991
 4269TIP3    H212751   3.747   0.411   5.840
 4270TIP3   OH212752   6.290   2.739   5.589
 4270TIP3    H112753   6.197   2.754   5.606
 4270TIP3    H212754   6.323   2.700   5.670
 4271TIP3   OH212755   6.774   4.204   0.223
 4271TIP3    H112756   6.847   4.243   0.176
 4271TIP3    H212757   6.770   4.114   0.191
 4272TIP3   OH212758   3.361   0.797   4.717
 4272TIP3    H112759   3.301   0.737   4.761
 4272TIP3    H212760   3.315   0.881   4.718
 4273TIP3   OH212761   4.728   4.228   6.228
 4273TIP3    H112762   4.779   4.174   6.168
 4273TIP3    H212763   4.651   4.253   6.178
 4274TIP3   OH212764   1.551   6.960   2.773
 4274TIP3    H112765   1.591   6.905   2.706
 4274TIP3    H212766   1.623   7.014   2.805
 4275TIP3   OH212767   6.888   3.093   4.620
 4275TIP3    H112768   6.909   3.077   4.711
 4275TIP3    H212769   6.913   3.184   4.605
 4276TIP3   OH212770   5.983   2.913   0.304
 4276TIP3    H112771   5.995   2.839   0.362
 4276TIP3    H212772   5.888   2.918   0.290
 4277TIP3   OH212773   6.219   5.400   1.309
 4277TIP3    H112774   6.207   5.493   1.293
 4277TIP3    H212775   6.133   5.369   1.337
 4278TIP3   OH212776   0.810   5.760   0.672
 4278TIP3    H112777   0.905   5.747   0.673
 4278TIP3    H212778   0.776   5.679   0.634
 4279TIP3   OH212779   1.265   0.972   3.892
 4279TIP3    H112780   1.221   0.954   3.976
 4279TIP3    H212781   1.336   0.908   3.888
 4280TIP3   OH212782   1.117   3.396   0.733
 4280TIP3    H112783   1.053   3.401   0.805
 4280TIP3    H212784   1.136   3.302   0.725
 4281TIP3   OH212785   0.573   7.729   0.078
 4281TIP3    H112786   0.514   7.804   0.073
 4281TIP3    H212787   0.628   7.736   0.000
 4282TIP3   OH212788   5.316   5.364   2.092
 4282TIP3    H112789   5.403   5.346   2.126
 4282TIP3    H212790   5.332   5.410   2.009
 4283TIP3   OH212791   5.582   7.777   5.383
 4283TIP3    H112792   5.606   7.732   5.464
 4283TIP3    H212793   5.584   7.709   5.316
 4284TIP3   OH212794   4.416   3.321   0.549
 4284TIP3    H112795   4.420   3.371   0.467
 4284TIP3    H212796   4.508   3.302   0.569
 4285TIP3   OH212797   2.210   0.615   1.397
 4285TIP3    H112798   2.277   0.585   1.459
 4285TIP3    H212799   2.218   0.556   1.322
 4286TIP3   OH212800  -0.027   7.075   6.546
 4286TIP3    H112801  -0.038   7.111   6.458
 4286TIP3    H212802   0.053   7.023   6.540
 4287TIP3   OH212803   7.671   4.279   6.204
 4287TIP3    H112804   7.676   4.348   6.270
 4287TIP3    H212805   7.685   4.326   6.121
 4288TIP3   OH212806   2.868   0.664   4.998
 4288TIP3    H112807   2.829   0.750   4.982
 4288TIP3    H212808   2.956   0.683   5.031
 4289TIP3   OH212809   5.519   2.484   3.989
 4289TIP3    H112810   5.505   2.567   3.944
 4289TIP3    H212811   5.507   2.504   4.082
 4290TIP3   OH212812   5.786   1.762   2.004
 4290TIP3    H112813   5.717   1.722   1.952
 4290TIP3    H212814   5.767   1.855   2.003
 4291TIP3   OH212815   3.591   0.138   3.246
 4291TIP3    H112816   3.516   0.168   3.296
 4291TIP3    H212817   3.632   0.071   3.301
 4292TIP3   OH212818   3.239   1.220   2.031
 4292TIP3    H112819   3.301   1.256   2.095
 4292TIP3    H212820   3.270   1.253   1.947
 4293TIP3   OH212821   3.777   2.227   1.748
 4293TIP3    H112822   3.717   2.191   1.682
 4293TIP3    H212823   3.810   2.308   1.709
 4294TIP3   OH212824   3.958   4.634   1.766
 4294TIP3    H112825   4.021   4.562   1.770
 4294TIP3    H212826   3.925   4.642   1.856
 4295TIP3   OH212827   4.569   2.605   4.798
 4295TIP3    H112828   4.566   2.690   4.754
 4295TIP3    H212829   4.585   2.542   4.727
 4296TIP3   OH212830   4.216   5.491   0.272
 4296TIP3    H112831   4.295   5.539   0.249
 4296TIP3    H212832   4.190   5.449   0.190
 4297TIP3   OH212833   3.236   7.633   5.952
 4297TIP3    H112834   3.243   7.562   6.015
 4297TIP3    H212835   3.166   7.606   5.893
 4298TIP3   OH212836   0.930   4.736   6.377
 4298TIP3    H112837   0.961   4.695   6.296
 4298TIP3    H212838   0.868   4.802   6.347
 4299TIP3   OH212839   2.490   1.310   0.854
 4299TIP3    H112840   2.536   1.340   0.775
 4299TIP3    H212841   2.468   1.218   0.835
 4300TIP3   OH212842   4.952   4.323   5.921
 4300TIP3    H112843   4.921   4.375   5.847
 4300TIP3    H212844   4.873   4.287   5.961
 4301TIP3   OH212845   0.819   5.752   3.041
 4301TIP3    H112846   0.799   5.806   2.964
 4301TIP3    H212847   0.912   5.732   3.033
 4302TIP3   OH212848   6.294   1.421   1.030
 4302TIP3    H112849   6.293   1.350   1.094
 4302TIP3    H212850   6.212   1.468   1.044
 4303TIP3   OH212851   4.655   4.241   1.785
 4303TIP3    H112852   4.653   4.303   1.712
 4303TIP3    H212853   4.616   4.161   1.749
 4304TIP3   OH212854   5.890   6.903   6.104
 4304TIP3    H112855   5.812   6.955   6.083
 4304TIP3    H212856   5.957   6.968   6.127
 4305TIP3   OH212857   0.801   7.450   3.444
 4305TIP3    H112858   0.867   7.490   3.500
 4305TIP3    H212859   0.812   7.492   3.359
 4306TIP3   OH212860   4.963   1.264   5.779
 4306TIP3    H112861   4.998   1.239   5.865
 4306TIP3    H212862   4.905   1.338   5.797
 4307TIP3   OH212863   5.451   2.829   4.969
 4307TIP3    H112864   5.411   2.765   4.910
 4307TIP3    H212865   5.541   2.799   4.979
 4308TIP3   OH212866   7.148   5.238   2.703
 4308TIP3    H112867   7.092   5.161   2.709
 4308TIP3    H212868   7.235   5.204   2.684
 4309TIP3   OH212869   1.411   1.216   1.108
 4309TIP3    H112870   1.435   1.124   1.103
 4309TIP3    H212871   1.454   1.249   1.187
 4310TIP3   OH212872   7.798   1.195   5.553
 4310TIP3    H112873   7.889   1.204   5.523
 4310TIP3    H212874   7.776   1.280   5.591
 4311TIP3   OH212875   3.355   1.213   3.870
 4311TIP3    H112876   3.330   1.125   3.896
 4311TIP3    H212877   3.389   1.203   3.781
 4312TIP3   OH212878   5.920   3.957   6.015
 4312TIP3    H112879   6.006   3.969   5.974
 4312TIP3    H212880   5.874   3.897   5.957
 4313TIP3   OH212881   0.763   6.829   1.178
 4313TIP3    H112882   0.734   6.809   1.267
 4313TIP3    H212883   0.839   6.886   1.190
 4314TIP3   OH212884   5.290   0.351   0.339
 4314TIP3    H112885   5.338   0.420   0.385
 4314TIP3    H212886   5.323   0.355   0.249
 4315TIP3   OH212887   4.544   5.933   6.705
 4315TIP3    H112888   4.523   6.007   6.648
 4315TIP3    H212889   4.640   5.928   6.704
 4316TIP3   OH212890   3.736   7.640   3.459
 4316TIP3    H112891   3.657   7.591   3.484
 4316TIP3    H212892   3.784   7.653   3.541
 4317TIP3   OH212893   4.179   4.468   1.799
 4317TIP3    H112894   4.214   4.382   1.821
 4317TIP3    H212895   4.247   4.530   1.826
 4318TIP3   OH212896   4.300   0.847   6.281
 4318TIP3    H112897   4.283   0.776   6.218
 4318TIP3    H212898   4.233   0.835   6.348
 4319TIP3   OH212899   8.127   1.937   6.320
 4319TIP3    H112900   8.067   1.874   6.280
 4319TIP3    H212901   8.207   1.929   6.268
 4320TIP3   OH212902   3.141   0.882   5.679
 4320TIP3    H112903   3.195   0.949   5.720
 4320TIP3    H212904   3.070   0.866   5.743
 4321TIP3   OH212905   4.589   1.497   3.142
 4321TIP3    H112906   4.509   1.447   3.123
 4321TIP3    H212907   4.561   1.589   3.135
 4322TIP3   OH212908   2.739   6.665   6.473
 4322TIP3    H112909   2.791   6.600   6.519
 4322TIP3    H212910   2.650   6.654   6.507
 4323TIP3   OH212911   7.411   0.182   4.922
 4323TIP3    H112912   7.378   0.248   4.983
 4323TIP3    H212913   7.501   0.166   4.951
 4324TIP3   OH212914   3.336   0.847   3.510
 4324TIP3    H112915   3.377   0.913   3.455
 4324TIP3    H212916   3.408   0.811   3.562
 4325TIP3   OH212917   0.876   5.539   5.816
 4325TIP3    H112918   0.802   5.552   5.876
 4325TIP3    H212919   0.952   5.575   5.863
 4326TIP3   OH212920   1.002   1.124   5.735
 4326TIP3    H112921   0.971   1.193   5.794
 4326TIP3    H212922   0.923   1.087   5.697
 4327TIP3   OH212923   0.748   6.506   1.029
 4327TIP3    H112924   0.682   6.451   0.987
 4327TIP3    H212925   0.701   6.554   1.097
 4328TIP3   OH212926   0.969   2.263   0.265
 4328TIP3    H112927   0.923   2.196   0.316
 4328TIP3    H212928   0.912   2.340   0.269
 4329TIP3   OH212929   7.545   2.585   1.834
 4329TIP3    H112930   7.619   2.576   1.774
 4329TIP3    H212931   7.507   2.498   1.838
 4330TIP3   OH212932   7.385   7.206   5.889
 4330TIP3    H112933   7.316   7.244   5.835
 4330TIP3    H212934   7.348   7.124   5.921
 4331TIP3   OH212935   2.366   1.069   6.679
 4331TIP3    H112936   2.458   1.070   6.652
 4331TIP3    H212937   2.350   0.979   6.709
 4332TIP3   OH212938   1.669   2.886   4.841
 4332TIP3    H112939   1.682   2.892   4.936
 4332TIP3    H212940   1.642   2.796   4.825
 4333TIP3   OH212941   3.535   6.093   1.952
 4333TIP3    H112942   3.575   6.176   1.926
 4333TIP3    H212943   3.441   6.106   1.935
 4334TIP3   OH212944   0.868   6.419   3.592
 4334TIP3    H112945   0.824   6.343   3.553
 4334TIP3    H212946   0.957   6.415   3.559
 4335TIP3   OH212947   6.870   4.567   5.316
 4335TIP3    H112948   6.775   4.575   5.314
 4335TIP3    H212949   6.889   4.521   5.398
 4336TIP3   OH212950   6.446   1.276   4.166
 4336TIP3    H112951   6.359   1.312   4.180
 4336TIP3    H212952   6.472   1.309   4.080
 4337TIP3   OH212953   3.775   4.335   3.728
 4337TIP3    H112954   3.788   4.305   3.638
 4337TIP3    H212955   3.723   4.415   3.719
 4338TIP3   OH212956   1.292   3.075   4.670
 4338TIP3    H112957   1.203   3.106   4.684
 4338TIP3    H212958   1.314   3.030   4.752
 4339TIP3   OH212959   0.673   1.463   1.231
 4339TIP3    H112960   0.577   1.461   1.224
 4339TIP3    H212961   0.691   1.545   1.278
 4340TIP3   OH212962   6.291   6.097   3.111
 4340TIP3    H112963   6.219   6.099   3.047
 4340TIP3    H212964   6.370   6.108   3.058
 4341TIP3   OH212965   6.787   3.611   0.150
 4341TIP3    H112966   6.809   3.545   0.215
 4341TIP3    H212967   6.750   3.683   0.202
 4342TIP3   OH212968   2.640   1.717   3.727
 4342TIP3    H112969   2.657   1.669   3.808
 4342TIP3    H212970   2.592   1.655   3.672
 4343TIP3   OH212971   6.399   2.551   3.931
 4343TIP3    H112972   6.329   2.615   3.914
 4343TIP3    H212973   6.376   2.511   4.014
 4344TIP3   OH212974   3.005   3.143   3.967
 4344TIP3    H112975   2.950   3.141   3.889
 4344TIP3    H212976   3.052   3.226   3.962
 4345TIP3   OH212977   2.911   6.887   3.936
 4345TIP3    H112978   2.905   6.971   3.981
 4345TIP3    H212979   2.976   6.901   3.867
 4346TIP3   OH212980   1.955   6.379   4.075
 4346TIP3    H112981   1.956   6.475   4.082
 4346TIP3    H212982   2.018   6.350   4.140
 4347TIP3   OH212983   0.280   3.599   6.119
 4347TIP3    H112984   0.196   3.581   6.161
 4347TIP3    H212985   0.333   3.642   6.187
 4348TIP3   OH212986   6.110   3.739   4.981
 4348TIP3    H112987   6.125   3.834   4.982
 4348TIP3    H212988   6.051   3.724   5.055
 4349TIP3   OH212989   2.232   4.281   0.548
 4349TIP3    H112990   2.204   4.308   0.635
 4349TIP3    H212991   2.152   4.281   0.496
 4350TIP3   OH212992   1.212   5.345   2.049
 4350TIP3    H112993   1.270   5.410   2.090
 4350TIP3    H212994   1.233   5.349   1.956
 4351TIP3   OH212995   5.318   7.236   3.718
 4351TIP3    H112996   5.368   7.215   3.638
 4351TIP3    H212997   5.287   7.325   3.704
 4352TIP3   OH212998   4.539   6.378   1.537
 4352TIP3    H112999   4.487   6.362   1.616
 4352TIP3    H213000   4.489   6.442   1.487
 4353TIP3   OH213001   7.005   5.871   0.991
 4353TIP3    H113002   6.955   5.793   0.965
 4353TIP3    H213003   6.953   5.945   0.960
 4354TIP3   OH213004   4.579   5.177   3.226
 4354TIP3    H113005   4.572   5.142   3.315
 4354TIP3    H213006   4.618   5.264   3.237
 4355TIP3   OH213007   4.706   4.732   4.682
 4355TIP3    H113008   4.708   4.792   4.757
 4355TIP3    H213009   4.669   4.785   4.610
 4356TIP3   OH213010   7.902   2.945   6.154
 4356TIP3    H113011   7.819   2.986   6.134
 4356TIP3    H213012   7.888   2.852   6.135
 4357TIP3   OH213013   6.561   6.941   5.248
 4357TIP3    H113014   6.478   6.980   5.274
 4357TIP3    H213015   6.539   6.887   5.171
 4358TIP3   OH213016   5.941   5.099   5.914
 4358TIP3    H113017   5.980   5.103   6.001
 4358TIP3    H213018   5.853   5.063   5.929
 4359TIP3   OH213019   4.590   6.813   6.454
 4359TIP3    H113020   4.504   6.840   6.487
 4359TIP3    H213021   4.573   6.733   6.405
 4360TIP3   OH213022   3.439   5.651   2.195
 4360TIP3    H113023   3.413   5.707   2.122
 4360TIP3    H213024   3.513   5.600   2.161
 4361TIP3   OH213025   2.039   2.433   2.451
 4361TIP3    H113026   1.973   2.481   2.401
 4361TIP3    H213027   2.122   2.475   2.426
 4362TIP3   OH213028   8.099   6.070   1.240
 4362TIP3    H113029   8.104   6.134   1.311
 4362TIP3    H213030   8.179   6.019   1.248
 4363TIP3   OH213031   2.868   3.125   5.783
 4363TIP3    H113032   2.900   3.060   5.845
 4363TIP3    H213033   2.825   3.074   5.714
 4364TIP3   OH213034   2.518   0.739   3.940
 4364TIP3    H113035   2.518   0.834   3.924
 4364TIP3    H213036   2.499   0.730   4.034
 4365TIP3   OH213037   2.885   1.765   4.244
 4365TIP3    H113038   2.945   1.835   4.271
 4365TIP3    H213039   2.927   1.725   4.168
 4366TIP3   OH213040   2.352   5.170   2.654
 4366TIP3    H113041   2.356   5.179   2.558
 4366TIP3    H213042   2.427   5.116   2.676
 4367TIP3   OH213043   4.297   5.149   6.346
 4367TIP3    H113044   4.388   5.173   6.329
 4367TIP3    H213045   4.297   5.118   6.436
 4368TIP3   OH213046   0.291   1.240   0.231
 4368TIP3    H113047   0.232   1.258   0.304
 4368TIP3    H213048   0.273   1.310   0.168
 4369TIP3   OH213049   8.249   6.477   3.739
 4369TIP3    H113050   8.204   6.559   3.719
 4369TIP3    H213051   8.186   6.409   3.715
 4370TIP3   OH213052   7.944   7.536   2.014
 4370TIP3    H113053   8.018   7.590   2.043
 4370TIP3    H213054   7.868   7.595   2.020
 4371TIP3   OH213055   1.560   2.818   5.571
 4371TIP3    H113056   1.498   2.891   5.563
 4371TIP3    H213057   1.549   2.767   5.491
 4372TIP3   OH213058   3.488   4.773   5.915
 4372TIP3    H113059   3.451   4.731   5.993
 4372TIP3    H213060   3.574   4.804   5.943
 4373TIP3   OH213061   7.808   5.874   5.708
 4373TIP3    H113062   7.808   5.779   5.721
 4373TIP3    H213063   7.858   5.887   5.627
 4374TIP3   OH213064   0.541   4.918   5.506
 4374TIP3    H113065   0.562   4.837   5.460
 4374TIP3    H213066   0.451   4.907   5.534
 4375TIP3   OH213067   6.136   5.772   6.497
 4375TIP3    H113068   6.175   5.813   6.421
 4375TIP3    H213069   6.054   5.819   6.511
 4376TIP3   OH213070   4.842   4.817   4.332
 4376TIP3    H113071   4.766   4.844   4.385
 4376TIP3    H213072   4.823   4.849   4.244
 4377TIP3   OH213073   5.964   5.207   1.122
 4377TIP3    H113074   6.008   5.281   1.080
 4377TIP3    H213075   6.033   5.143   1.136
 4378TIP3   OH213076   7.706   2.564   0.199
 4378TIP3    H113077   7.632   2.552   0.259
 4378TIP3    H213078   7.781   2.578   0.256
 4379TIP3   OH213079   5.915   1.738   4.422
 4379TIP3    H113080   5.825   1.766   4.435
 4379TIP3    H213081   5.951   1.800   4.358
 4380TIP3   OH213082   5.253   1.369   6.158
 4380TIP3    H113083   5.336   1.336   6.126
 4380TIP3    H213084   5.187   1.322   6.107
 4381TIP3   OH213085   4.564   4.801   3.575
 4381TIP3    H113086   4.603   4.767   3.655
 4381TIP3    H213087   4.471   4.776   3.581
 4382TIP3   OH213088   6.596   4.984   1.724
 4382TIP3    H113089   6.561   4.981   1.635
 4382TIP3    H213090   6.523   5.017   1.777
 4383TIP3   OH213091   8.220   2.903   6.411
 4383TIP3    H113092   8.244   2.825   6.462
 4383TIP3    H213093   8.295   2.961   6.421
 4384TIP3   OH213094   1.563   7.607   1.359
 4384TIP3    H113095   1.619   7.675   1.322
 4384TIP3    H213096   1.474   7.633   1.335
 4385TIP3   OH213097   0.628   5.198   1.232
 4385TIP3    H113098   0.591   5.142   1.164
 4385TIP3    H213099   0.715   5.163   1.248
 4386TIP3   OH213100   1.141   0.020   1.172
 4386TIP3    H113101   1.082  -0.050   1.201
 4386TIP3    H213102   1.193   0.041   1.250
 4387TIP3   OH213103   6.992   2.811   0.941
 4387TIP3    H113104   6.957   2.772   1.021
 4387TIP3    H213105   6.993   2.905   0.959
 4388TIP3   OH213106   0.079   2.332   2.619
 4388TIP3    H113107   0.090   2.239   2.641
 4388TIP3    H213108  -0.003   2.335   2.569
 4389TIP3   OH213109   6.784   4.054   4.060
 4389TIP3    H113110   6.696   4.032   4.092
 4389TIP3    H213111   6.793   4.005   3.978
 4390TIP3   OH213112   7.322   7.559   4.852
 4390TIP3    H113113   7.399   7.610   4.825
 4390TIP3    H213114   7.253   7.625   4.866
 4391TIP3   OH213115   2.641   6.709   3.078
 4391TIP3    H113116   2.600   6.760   3.148
 4391TIP3    H213117   2.735   6.715   3.095
 4392TIP3   OH213118   6.524   5.707   5.576
 4392TIP3    H113119   6.509   5.795   5.609
 4392TIP3    H213120   6.566   5.661   5.649
 4393TIP3   OH213121   5.716   5.376   2.579
 4393TIP3    H113122   5.752   5.344   2.662
 4393TIP3    H213123   5.788   5.368   2.517
 4394TIP3   OH213124   0.683   2.231   4.632
 4394TIP3    H113125   0.610   2.180   4.668
 4394TIP3    H213126   0.752   2.223   4.699
 4395TIP3   OH213127   6.727   3.949   0.104
 4395TIP3    H113128   6.640   3.917   0.129
 4395TIP3    H213129   6.727   3.946   0.009
 4396TIP3   OH213130   0.986   3.013   5.079
 4396TIP3    H113131   1.015   3.024   5.169
 4396TIP3    H213132   0.912   2.953   5.084
 4397TIP3   OH213133   1.416   1.845   2.193
 4397TIP3    H113134   1.420   1.797   2.110
 4397TIP3    H213135   1.455   1.930   2.174
 4398TIP3   OH213136   5.519   6.679   1.428
 4398TIP3    H113137   5.539   6.586   1.432
 4398TIP3    H213138   5.528   6.710   1.518
 4399TIP3   OH213139   4.831   0.694   2.533
 4399TIP3    H113140   4.857   0.612   2.490
 4399TIP3    H213141   4.900   0.712   2.596
 4400TIP3   OH213142   3.974   0.269   5.830
 4400TIP3    H113143   3.935   0.334   5.771
 4400TIP3    H213144   4.007   0.320   5.904
 4401TIP3   OH213145   5.638   2.217   1.559
 4401TIP3    H113146   5.723   2.231   1.601
 4401TIP3    H213147   5.578   2.200   1.631
 4402TIP3   OH213148   8.043   5.530   1.383
 4402TIP3    H113149   7.953   5.541   1.352
 4402TIP3    H213150   8.038   5.457   1.444
 4403TIP3   OH213151   4.395   4.879   4.165
 4403TIP3    H113152   4.406   4.895   4.071
 4403TIP3    H213153   4.309   4.918   4.185
 4404TIP3   OH213154   1.984   3.663   4.917
 4404TIP3    H113155   2.062   3.693   4.964
 4404TIP3    H213156   1.960   3.581   4.961
 4405TIP3   OH213157   4.359   4.685   1.864
 4405TIP3    H113158   4.287   4.740   1.895
 4405TIP3    H213159   4.407   4.741   1.804
 4406TIP3   OH213160   3.859   6.640   6.442
 4406TIP3    H113161   3.787   6.643   6.505
 4406TIP3    H213162   3.839   6.708   6.378
 4407TIP3   OH213163   0.116   7.563   6.266
 4407TIP3    H113164   0.169   7.544   6.343
 4407TIP3    H213165   0.026   7.550   6.295
 4408TIP3   OH213166   5.332   4.038   5.566
 4408TIP3    H113167   5.345   4.057   5.473
 4408TIP3    H213168   5.359   4.118   5.611
 4409TIP3   OH213169   5.507   0.736   5.533
 4409TIP3    H113170   5.598   0.741   5.503
 4409TIP3    H213171   5.460   0.696   5.460
 4410TIP3   OH213172   6.515   2.000   2.134
 4410TIP3    H113173   6.492   1.978   2.044
 4410TIP3    H213174   6.487   2.091   2.144
 4411TIP3   OH213175   6.811   4.065   4.629
 4411TIP3    H113176   6.848   3.989   4.583
 4411TIP3    H213177   6.803   4.036   4.720
 4412TIP3   OH213178   0.874   6.218   0.346
 4412TIP3    H113179   0.794   6.271   0.352
 4412TIP3    H213180   0.910   6.219   0.435
 4413TIP3   OH213181   1.063   0.500   4.760
 4413TIP3    H113182   1.144   0.501   4.711
 4413TIP3    H213183   1.044   0.407   4.774
 4414TIP3   OH213184   0.845   2.230   3.865
 4414TIP3    H113185   0.934   2.253   3.839
 4414TIP3    H213186   0.849   2.217   3.960
 4415TIP3   OH213187   1.400   1.780   3.155
 4415TIP3    H113188   1.319   1.740   3.125
 4415TIP3    H213189   1.375   1.834   3.230
 4416TIP3   OH213190   1.963   7.298   1.602
 4416TIP3    H113191   1.903   7.341   1.540
 4416TIP3    H213192   1.920   7.215   1.621
 4417TIP3   OH213193   0.820   7.727   5.119
 4417TIP3    H113194   0.810   7.799   5.057
 4417TIP3    H213195   0.741   7.731   5.173
 4418TIP3   OH213196   3.392   1.713   5.138
 4418TIP3    H113197   3.308   1.745   5.171
 4418TIP3    H213198   3.455   1.779   5.166
 4419TIP3   OH213199   1.644   6.445   1.933
 4419TIP3    H113200   1.693   6.448   1.850
 4419TIP3    H213201   1.701   6.489   1.996
 4420TIP3   OH213202   2.335   6.223   3.574
 4420TIP3    H113203   2.295   6.233   3.488
 4420TIP3    H213204   2.412   6.281   3.571
 4421TIP3   OH213205   3.059   2.618   1.865
 4421TIP3    H113206   3.061   2.568   1.783
 4421TIP3    H213207   2.973   2.598   1.902
 4422TIP3   OH213208   5.476   2.267   2.193
 4422TIP3    H113209   5.514   2.324   2.127
 4422TIP3    H213210   5.546   2.206   2.216
 4423TIP3   OH213211   1.778   5.952   0.355
 4423TIP3    H113212   1.737   5.948   0.442
 4423TIP3    H213213   1.862   5.997   0.370
 4424TIP3   OH213214   8.045   2.462   5.035
 4424TIP3    H113215   8.000   2.441   4.954
 4424TIP3    H213216   8.071   2.553   5.025
 4425TIP3   OH213217   1.150   4.286   6.242
 4425TIP3    H113218   1.059   4.313   6.256
 4425TIP3    H213219   1.165   4.216   6.305
 4426TIP3   OH213220   4.790   7.173   1.101
 4426TIP3    H113221   4.714   7.222   1.069
 4426TIP3    H213222   4.795   7.193   1.194
 4427TIP3   OH213223   1.217   1.103   2.564
 4427TIP3    H113224   1.166   1.184   2.561
 4427TIP3    H213225   1.156   1.039   2.601
 4428TIP3   OH213226   5.839   6.533   1.611
 4428TIP3    H113227   5.764   6.475   1.625
 4428TIP3    H213228   5.909   6.494   1.664
 4429TIP3   OH213229   0.123   1.022   4.854
 4429TIP3    H113230   0.095   0.994   4.766
 4429TIP3    H213231   0.064   1.094   4.875
 4430TIP3   OH213232   2.888   1.465   2.651
 4430TIP3    H113233   2.963   1.486   2.596
 4430TIP3    H213234   2.812   1.478   2.594
 4431TIP3   OH213235   5.307   1.997   1.513
 4431TIP3    H113236   5.341   2.050   1.441
 4431TIP3    H213237   5.246   2.055   1.558
 4432TIP3   OH213238   7.207   1.184   5.663
 4432TIP3    H113239   7.264   1.121   5.708
 4432TIP3    H213240   7.261   1.262   5.653
 4433TIP3   OH213241   5.838   6.211   0.777
 4433TIP3    H113242   5.815   6.127   0.817
 4433TIP3    H213243   5.919   6.237   0.821
 4434TIP3   OH213244   2.954   1.313   0.412
 4434TIP3    H113245   2.922   1.303   0.323
 4434TIP3    H213246   2.889   1.268   0.466
 4435TIP3   OH213247   7.324   0.721   4.315
 4435TIP3    H113248   7.334   0.680   4.400
 4435TIP3    H213249   7.231   0.743   4.309
 4436TIP3   OH213250   3.154   2.467   4.279
 4436TIP3    H113251   3.115   2.441   4.362
 4436TIP3    H213252   3.171   2.561   4.288
 4437TIP3   OH213253   5.288   6.778   2.724
 4437TIP3    H113254   5.314   6.810   2.637
 4437TIP3    H213255   5.272   6.684   2.711
 4438TIP3   OH213256   1.200   1.364   6.689
 4438TIP3    H113257   1.200   1.284   6.742
 4438TIP3    H213258   1.122   1.356   6.634
 4439TIP3   OH213259   0.201   1.085   2.669
 4439TIP3    H113260   0.139   1.048   2.733
 4439TIP3    H213261   0.283   1.091   2.717
 4440TIP3   OH213262   2.195   1.072   1.368
 4440TIP3    H113263   2.263   1.004   1.364
 4440TIP3    H213264   2.196   1.111   1.281
 4441TIP3   OH213265   4.052   5.890   6.540
 4441TIP3    H113266   4.049   5.962   6.603
 4441TIP3    H213267   3.984   5.829   6.570
 4442TIP3   OH213268   3.142   1.758   5.231
 4442TIP3    H113269   3.126   1.691   5.297
 4442TIP3    H213270   3.060   1.764   5.182
 4443TIP3   OH213271   6.151   1.078   1.191
 4443TIP3    H113272   6.204   1.149   1.225
 4443TIP3    H213273   6.069   1.119   1.164
 4444TIP3   OH213274   0.840   0.121   2.460
 4444TIP3    H113275   0.819   0.161   2.376
 4444TIP3    H213276   0.934   0.104   2.455
 4445TIP3   OH213277   1.158   5.580   0.960
 4445TIP3    H113278   1.081   5.533   0.992
 4445TIP3    H213279   1.183   5.638   1.032
 4446TIP3   OH213280   0.107   1.967   6.221
 4446TIP3    H113281   0.113   1.922   6.137
 4446TIP3    H213282   0.069   2.052   6.201
 4447TIP3   OH213283   4.054   0.474   6.263
 4447TIP3    H113284   3.967   0.434   6.267
 4447TIP3    H213285   4.111   0.405   6.230
 4448TIP3   OH213286   0.941   2.406   5.126
 4448TIP3    H113287   0.975   2.408   5.216
 4448TIP3    H213288   1.013   2.370   5.075
 4449TIP3   OH213289   7.469   7.711   6.310
 4449TIP3    H113290   7.561   7.685   6.312
 4449TIP3    H213291   7.442   7.706   6.402
 4450TIP3   OH213292   4.454   3.415   6.314
 4450TIP3    H113293   4.539   3.373   6.318
 4450TIP3    H213294   4.453   3.474   6.390
 4451TIP3   OH213295   5.530   2.196   4.967
 4451TIP3    H113296   5.465   2.187   4.897
 4451TIP3    H213297   5.478   2.200   5.047
 4452TIP3   OH213298   4.707   1.523   3.671
 4452TIP3    H113299   4.666   1.555   3.591
 4452TIP3    H213300   4.650   1.554   3.742
 4453TIP3   OH213301   6.937   5.836   1.857
 4453TIP3    H113302   6.967   5.830   1.948
 4453TIP3    H213303   6.866   5.900   1.859
 4454TIP3   OH213304   1.096   6.172   4.564
 4454TIP3    H113305   1.023   6.184   4.624
 4454TIP3    H213306   1.160   6.239   4.590
 4455TIP3   OH213307   8.066   3.772   2.758
 4455TIP3    H113308   8.154   3.748   2.729
 4455TIP3    H213309   8.075   3.792   2.851
 4456TIP3   OH213310   3.916   6.315   3.694
 4456TIP3    H113311   3.953   6.291   3.779
 4456TIP3    H213312   3.831   6.269   3.690
 4457TIP3   OH213313   6.987   2.005   6.455
 4457TIP3    H113314   7.074   2.023   6.420
 4457TIP3    H213315   6.995   2.021   6.549
 4458TIP3   OH213316   2.373   4.429   5.598
 4458TIP3    H113317   2.372   4.364   5.528
 4458TIP3    H213318   2.432   4.498   5.566
 4459TIP3   OH213319   6.548   2.320   4.931
 4459TIP3    H113320   6.495   2.388   4.972
 4459TIP3    H213321   6.491   2.281   4.865
 4460TIP3   OH213322   2.047   4.611   6.241
 4460TIP3    H113323   2.090   4.612   6.326
 4460TIP3    H213324   2.009   4.699   6.233
 4461TIP3   OH213325   2.789   3.275   0.999
 4461TIP3    H113326   2.791   3.179   0.995
 4461TIP3    H213327   2.803   3.304   0.909
 4462TIP3   OH213328   3.003   1.032   5.451
 4462TIP3    H113329   3.025   1.125   5.449
 4462TIP3    H213330   3.050   0.998   5.528
 4463TIP3   OH213331   6.204   7.377   1.866
 4463TIP3    H113332   6.118   7.396   1.829
 4463TIP3    H213333   6.209   7.432   1.944
 4464TIP3   OH213334   6.352   5.246   3.956
 4464TIP3    H113335   6.303   5.324   3.929
 4464TIP3    H213336   6.444   5.271   3.947
 4465TIP3   OH213337   1.194   3.878   2.857
 4465TIP3    H113338   1.158   3.796   2.891
 4465TIP3    H213339   1.206   3.862   2.764
 4466TIP3   OH213340   2.659   4.584   1.622
 4466TIP3    H113341   2.604   4.533   1.682
 4466TIP3    H213342   2.710   4.518   1.575
 4467TIP3   OH213343   4.950   5.550   5.404
 4467TIP3    H113344   4.888   5.541   5.476
 4467TIP3    H213345   4.912   5.499   5.332
 4468TIP3   OH213346   5.914   2.232   3.634
 4468TIP3    H113347   5.910   2.248   3.540
 4468TIP3    H213348   5.823   2.223   3.661
 4469TIP3   OH213349   6.703   4.032   6.019
 4469TIP3    H113350   6.612   4.006   6.004
 4469TIP3    H213351   6.701   4.128   6.017
 4470TIP3   OH213352   5.877   2.436   4.650
 4470TIP3    H113353   5.895   2.470   4.562
 4470TIP3    H213354   5.782   2.443   4.659
 4471TIP3   OH213355   4.286   4.021   3.621
 4471TIP3    H113356   4.285   3.973   3.538
 4471TIP3    H213357   4.253   3.958   3.685
 4472TIP3   OH213358   5.614   0.962   5.188
 4472TIP3    H113359   5.657   0.881   5.214
 4472TIP3    H213360   5.556   0.983   5.261
 4473TIP3   OH213361   6.707   1.505   1.028
 4473TIP3    H113362   6.670   1.592   1.041
 4473TIP3    H213363   6.792   1.507   1.072
 4474TIP3   OH213364   7.359   6.906   2.458
 4474TIP3    H113365   7.314   6.877   2.379
 4474TIP3    H213366   7.381   6.997   2.441
 4475TIP3   OH213367   5.473   4.190   5.008
 4475TIP3    H113368   5.542   4.227   5.063
 4475TIP3    H213369   5.469   4.248   4.932
 4476TIP3   OH213370   7.378   3.238   1.113
 4476TIP3    H113371   7.440   3.309   1.099
 4476TIP3    H213372   7.327   3.264   1.189
 4477TIP3   OH213373   5.864   7.338   3.069
 4477TIP3    H113374   5.833   7.426   3.048
 4477TIP3    H213375   5.859   7.290   2.987
 4478TIP3   OH213376   0.411   1.274   0.720
 4478TIP3    H113377   0.320   1.285   0.694
 4478TIP3    H213378   0.457   1.257   0.637
 4479TIP3   OH213379   2.552   4.595   0.504
 4479TIP3    H113380   2.623   4.651   0.473
 4479TIP3    H213381   2.549   4.609   0.599
 4480TIP3   OH213382   3.424   1.900   3.686
 4480TIP3    H113383   3.436   1.825   3.743
 4480TIP3    H213384   3.440   1.976   3.742
 4481TIP3   OH213385   7.191   2.207   1.785
 4481TIP3    H113386   7.159   2.117   1.790
 4481TIP3    H213387   7.184   2.231   1.693
 4482TIP3   OH213388   1.690   4.638   1.119
 4482TIP3    H113389   1.702   4.547   1.090
 4482TIP3    H213390   1.612   4.667   1.072
 4483TIP3   OH213391   5.272   1.656   2.578
 4483TIP3    H113392   5.190   1.618   2.610
 4483TIP3    H213393   5.340   1.606   2.623
 4484TIP3   OH213394   6.827   2.448   1.911
 4484TIP3    H113395   6.833   2.391   1.834
 4484TIP3    H213396   6.915   2.484   1.921
 4485TIP3   OH213397   3.374   4.889   3.994
 4485TIP3    H113398   3.308   4.956   4.009
 4485TIP3    H213399   3.325   4.812   3.965
 4486TIP3   OH213400   0.946   4.010   6.196
 4486TIP3    H113401   0.919   4.031   6.107
 4486TIP3    H213402   1.030   3.966   6.187
 4487TIP3   OH213403   7.396   5.310   4.672
 4487TIP3    H113404   7.416   5.295   4.580
 4487TIP3    H213405   7.416   5.402   4.687
 4488TIP3   OH213406   2.544   6.725   4.275
 4488TIP3    H113407   2.630   6.766   4.273
 4488TIP3    H213408   2.499   6.767   4.348
 4489TIP3   OH213409   5.588   6.994   1.900
 4489TIP3    H113410   5.620   6.969   1.813
 4489TIP3    H213411   5.642   7.068   1.925
 4490TIP3   OH213412   8.350   5.012   5.253
 4490TIP3    H113413   8.384   4.931   5.290
 4490TIP3    H213414   8.326   5.065   5.329
 4491TIP3   OH213415   0.125   0.652   3.316
 4491TIP3    H113416   0.178   0.723   3.280
 4491TIP3    H213417   0.094   0.604   3.239
 4492TIP3   OH213418   1.584   5.361   5.522
 4492TIP3    H113419   1.517   5.430   5.525
 4492TIP3    H213420   1.660   5.400   5.565
 4493TIP3   OH213421   0.123   2.643   3.368
 4493TIP3    H113422   0.109   2.550   3.388
 4493TIP3    H213423   0.218   2.651   3.358
 4494TIP3   OH213424   5.804   1.302   2.869
 4494TIP3    H113425   5.852   1.383   2.885
 4494TIP3    H213426   5.851   1.236   2.919
 4495TIP3   OH213427   0.630   5.785   2.283
 4495TIP3    H113428   0.563   5.811   2.346
 4495TIP3    H213429   0.592   5.806   2.198
 4496TIP3   OH213430   1.236   2.475   3.006
 4496TIP3    H113431   1.253   2.560   2.965
 4496TIP3    H213432   1.188   2.425   2.941
 4497TIP3   OH213433   5.494   2.821   0.415
 4497TIP3    H113434   5.536   2.814   0.329
 4497TIP3    H213435   5.552   2.878   0.465
 4498TIP3   OH213436   2.865   4.131   2.373
 4498TIP3    H113437   2.803   4.107   2.303
 4498TIP3    H213438   2.833   4.216   2.405
 4499TIP3   OH213439   1.907   2.283   5.747
 4499TIP3    H113440   1.961   2.362   5.739
 4499TIP3    H213441   1.872   2.287   5.837
 4500TIP3   OH213442   0.124   6.100   3.512
 4500TIP3    H113443   0.151   6.176   3.461
 4500TIP3    H213444   0.177   6.105   3.592
 4501TIP3   OH213445   5.728   6.314   3.390
 4501TIP3    H113446   5.690   6.341   3.474
 4501TIP3    H213447   5.758   6.395   3.350
 4502TIP3   OH213448   2.975   5.021   0.126
 4502TIP3    H113449   2.892   4.988   0.092
 4502TIP3    H213450   3.024   5.047   0.047
 4503TIP3   OH213451   2.527   4.081   5.601
 4503TIP3    H113452   2.529   3.989   5.629
 4503TIP3    H213453   2.565   4.129   5.674
 4504TIP3   OH213454   1.465   1.877   0.271
 4504TIP3    H113455   1.468   1.921   0.186
 4504TIP3    H213456   1.384   1.827   0.269
 4505TIP3   OH213457   7.601   5.307   1.067
 4505TIP3    H113458   7.695   5.298   1.052
 4505TIP3    H213459   7.570   5.219   1.088
 4506TIP3   OH213460   5.847   4.635   4.294
 4506TIP3    H113461   5.803   4.634   4.379
 4506TIP3    H213462   5.893   4.718   4.292
 4507TIP3   OH213463   0.075   7.087   0.537
 4507TIP3    H113464   0.049   6.996   0.528
 4507TIP3    H213465   0.002   7.129   0.582
 4508TIP3   OH213466   7.667   1.870   6.667
 4508TIP3    H113467   7.740   1.880   6.728
 4508TIP3    H213468   7.692   1.797   6.610
 4509TIP3   OH213469   8.215   2.420   4.368
 4509TIP3    H113470   8.140   2.371   4.334
 4509TIP3    H213471   8.224   2.494   4.307
 4510TIP3   OH213472   0.223   7.191   0.906
 4510TIP3    H113473   0.230   7.265   0.845
 4510TIP3    H213474   0.130   7.169   0.907
 4511TIP3   OH213475   5.253   5.702   1.242
 4511TIP3    H113476   5.179   5.643   1.257
 4511TIP3    H213477   5.304   5.697   1.323
 4512TIP3   OH213478   2.170   3.908   1.966
 4512TIP3    H113479   2.075   3.904   1.957
 4512TIP3    H213480   2.189   3.862   2.048
 4513TIP3   OH213481   7.668   4.599   0.988
 4513TIP3    H113482   7.691   4.669   1.049
 4513TIP3    H213483   7.587   4.629   0.947
 4514TIP3   OH213484   1.321   0.653   1.382
 4514TIP3    H113485   1.273   0.659   1.464
 4514TIP3    H213486   1.290   0.727   1.330
 4515TIP3   OH213487   3.694   3.372   4.322
 4515TIP3    H113488   3.671   3.318   4.246
 4515TIP3    H213489   3.784   3.348   4.342
 4516TIP3   OH213490   6.771   0.249   4.427
 4516TIP3    H113491   6.716   0.327   4.440
 4516TIP3    H213492   6.853   0.271   4.470
 4517TIP3   OH213493   1.385   1.700   3.750
 4517TIP3    H113494   1.323   1.704   3.824
 4517TIP3    H213495   1.349   1.632   3.693
 4518TIP3   OH213496   7.190   2.323   4.387
 4518TIP3    H113497   7.206   2.250   4.326
 4518TIP3    H213498   7.276   2.361   4.403
 4519TIP3   OH213499   5.291   3.057   2.399
 4519TIP3    H113500   5.268   3.147   2.419
 4519TIP3    H213501   5.256   3.006   2.472
 4520TIP3   OH213502   6.435   6.130   1.052
 4520TIP3    H113503   6.527   6.101   1.060
 4520TIP3    H213504   6.424   6.150   0.960
 4521TIP3   OH213505   6.767   4.775   4.766
 4521TIP3    H113506   6.765   4.750   4.674
 4521TIP3    H213507   6.763   4.692   4.814
 4522TIP3   OH213508   2.556   7.573   3.741
 4522TIP3    H113509   2.467   7.555   3.770
 4522TIP3    H213510   2.575   7.660   3.775
 4523TIP3   OH213511   6.558   7.397   0.168
 4523TIP3    H113512   6.533   7.405   0.260
 4523TIP3    H213513   6.497   7.454   0.122
 4524TIP3   OH213514   0.400   0.992   4.902
 4524TIP3    H113515   0.331   1.044   4.859
 4524TIP3    H213516   0.404   0.911   4.852
 4525TIP3   OH213517   4.315   4.987   3.244
 4525TIP3    H113518   4.358   5.033   3.172
 4525TIP3    H213519   4.359   4.903   3.250
 4526TIP3   OH213520   1.049   6.886   1.456
 4526TIP3    H113521   1.103   6.823   1.504
 4526TIP3    H213522   0.959   6.856   1.470
 4527TIP3   OH213523   3.982   2.475   6.700
 4527TIP3    H113524   3.956   2.498   6.611
 4527TIP3    H213525   3.991   2.559   6.745
 4528TIP3   OH213526   6.891   0.517   3.955
 4528TIP3    H113527   6.829   0.587   3.935
 4528TIP3    H213528   6.977   0.556   3.940
 4529TIP3   OH213529   2.631   2.840   4.010
 4529TIP3    H113530   2.723   2.852   4.032
 4529TIP3    H213531   2.586   2.839   4.094
 4530TIP3   OH213532   1.574   7.334   2.620
 4530TIP3    H113533   1.575   7.357   2.527
 4530TIP3    H213534   1.481   7.326   2.641
 4531TIP3   OH213535   1.881   4.115   5.069
 4531TIP3    H113536   1.804   4.091   5.121
 4531TIP3    H213537   1.933   4.034   5.065
 4532TIP3   OH213538   5.094   5.495   2.493
 4532TIP3    H113539   5.122   5.547   2.568
 4532TIP3    H213540   5.148   5.416   2.497
 4533TIP3   OH213541   7.617   0.036   4.123
 4533TIP3    H113542   7.591   0.112   4.071
 4533TIP3    H213543   7.561  -0.035   4.091
 4534TIP3   OH213544   7.880   6.698   2.884
 4534TIP3    H113545   7.896   6.707   2.790
 4534TIP3    H213546   7.799   6.647   2.891
 4535TIP3   OH213547   1.101   5.920   6.065
 4535TIP3    H113548   1.060   5.833   6.065
 4535TIP3    H213549   1.193   5.903   6.086
 4536TIP3   OH213550   6.516   7.033   3.406
 4536TIP3    H113551   6.437   7.085   3.388
 4536TIP3    H213552   6.583   7.070   3.350
 4537TIP3   OH213553   3.533   3.998   5.886
 4537TIP3    H113554   3.574   4.084   5.880
 4537TIP3    H213555   3.584   3.942   5.828
 4538TIP3   OH213556   1.150   4.233   5.942
 4538TIP3    H113557   1.217   4.277   5.890
 4538TIP3    H213558   1.159   4.272   6.029
 4539TIP3   OH213559   6.690   5.294   2.824
 4539TIP3    H113560   6.708   5.367   2.765
 4539TIP3    H213561   6.727   5.218   2.780
 4540TIP3   OH213562   5.289   4.286   1.648
 4540TIP3    H113563   5.213   4.238   1.681
 4540TIP3    H213564   5.307   4.352   1.715
 4541TIP3   OH213565   2.640   5.996   1.209
 4541TIP3    H113566   2.554   6.016   1.171
 4541TIP3    H213567   2.620   5.964   1.297
 4542TIP3   OH213568   5.564   2.508   4.724
 4542TIP3    H113569   5.505   2.584   4.721
 4542TIP3    H213570   5.535   2.459   4.801
 4543TIP3   OH213571   0.784   6.605  -0.005
 4543TIP3    H113572   0.783   6.510  -0.013
 4543TIP3    H213573   0.840   6.622   0.071
 4544TIP3   OH213574   5.904   3.454   3.997
 4544TIP3    H113575   5.923   3.361   3.986
 4544TIP3    H213576   5.923   3.471   4.089
 4545TIP3   OH213577   3.574   7.258   4.448
 4545TIP3    H113578   3.502   7.321   4.447
 4545TIP3    H213579   3.641   7.298   4.502
 4546TIP3   OH213580   3.122   1.590   0.187
 4546TIP3    H113581   3.146   1.617   0.098
 4546TIP3    H213582   3.198   1.614   0.240
 4547TIP3   OH213583   1.815   6.979   1.850
 4547TIP3    H113584   1.861   6.895   1.861
 4547TIP3    H213585   1.879   7.045   1.878
 4548TIP3   OH213586   2.453   5.708   6.557
 4548TIP3    H113587   2.503   5.641   6.510
 4548TIP3    H213588   2.368   5.668   6.573
 4549TIP3   OH213589   3.958   3.209   4.342
 4549TIP3    H113590   3.910   3.139   4.386
 4549TIP3    H213591   4.032   3.228   4.400
 4550TIP3   OH213592   4.449   7.773   1.047
 4550TIP3    H113593   4.468   7.864   1.027
 4550TIP3    H213594   4.370   7.753   0.996
 4551TIP3   OH213595   6.410   7.673   2.111
 4551TIP3    H113596   6.396   7.681   2.206
 4551TIP3    H213597   6.490   7.723   2.095
 4552TIP3   OH213598   2.317   1.144   3.782
 4552TIP3    H113599   2.291   1.227   3.741
 4552TIP3    H213600   2.253   1.081   3.750
 4553TIP3   OH213601   5.813   6.486   2.907
 4553TIP3    H113602   5.842   6.430   2.979
 4553TIP3    H213603   5.743   6.540   2.946
 4554TIP3   OH213604   0.001   7.316   1.977
 4554TIP3    H113605   0.007   7.398   2.026
 4554TIP3    H213606  -0.037   7.340   1.893
 4555TIP3   OH213607   0.828   4.200   3.111
 4555TIP3    H113608   0.884   4.174   3.038
 4555TIP3    H213609   0.806   4.117   3.155
 4556TIP3   OH213610   4.448   4.612   6.649
 4556TIP3    H113611   4.432   4.668   6.725
 4556TIP3    H213612   4.489   4.534   6.685
 4557TIP3   OH213613   7.715   2.848   1.095
 4557TIP3    H113614   7.770   2.809   1.026
 4557TIP3    H213615   7.688   2.932   1.059
 4558TIP3   OH213616   2.981   3.471   6.594
 4558TIP3    H113617   2.888   3.463   6.574
 4558TIP3    H213618   3.013   3.381   6.597
 4559TIP3   OH213619   6.588   7.716   6.699
 4559TIP3    H113620   6.664   7.679   6.656
 4559TIP3    H213621   6.565   7.653   6.767
 4560TIP3   OH213622   4.239   3.246   6.553
 4560TIP3    H113623   4.320   3.197   6.567
 4560TIP3    H213624   4.170   3.186   6.580
 4561TIP3   OH213625   1.910   0.004   1.023
 4561TIP3    H113626   1.961   0.001   1.105
 4561TIP3    H213627   1.819  -0.001   1.051
 4562TIP3   OH213628   4.872   4.122   0.445
 4562TIP3    H113629   4.858   4.196   0.504
 4562TIP3    H213630   4.809   4.056   0.473
 4563TIP3   OH213631   6.170   2.889   5.147
 4563TIP3    H113632   6.230   2.876   5.221
 4563TIP3    H213633   6.083   2.884   5.186
 4564TIP3   OH213634   4.441   6.441   0.148
 4564TIP3    H113635   4.426   6.432   0.054
 4564TIP3    H213636   4.410   6.359   0.185
 4565TIP3   OH213637   4.527   2.207   3.925
 4565TIP3    H113638   4.611   2.175   3.894
 4565TIP3    H213639   4.539   2.220   4.019
 4566TIP3   OH213640   5.824   7.508   4.700
 4566TIP3    H113641   5.868   7.552   4.628
 4566TIP3    H213642   5.875   7.429   4.714
 4567TIP3   OH213643   4.412   1.353   2.956
 4567TIP3    H113644   4.334   1.377   3.006
 4567TIP3    H213645   4.378   1.324   2.871
 4568TIP3   OH213646   5.692   4.688   3.296
 4568TIP3    H113647   5.785   4.666   3.290
 4568TIP3    H213648   5.647   4.604   3.292
 4569TIP3   OH213649   0.321   6.327   0.011
 4569TIP3    H113650   0.414   6.303   0.008
 4569TIP3    H213651   0.320   6.410   0.059
 4570TIP3   OH213652   2.516   0.040   1.285
 4570TIP3    H113653   2.482  -0.017   1.354
 4570TIP3    H213654   2.455   0.027   1.212
 4571TIP3   OH213655   7.749   7.758   2.810
 4571TIP3    H113656   7.734   7.665   2.826
 4571TIP3    H213657   7.798   7.788   2.887
 4572TIP3   OH213658   0.506   4.887   1.281
 4572TIP3    H113659   0.554   4.896   1.364
 4572TIP3    H213660   0.536   4.961   1.228
 4573TIP3   OH213661   1.526   4.221   4.879
 4573TIP3    H113662   1.441   4.176   4.879
 4573TIP3    H213663   1.562   4.205   4.791
 4574TIP3   OH213664   5.487   6.529   3.511
 4574TIP3    H113665   5.558   6.593   3.507
 4574TIP3    H213666   5.515   6.466   3.578
 4575TIP3   OH213667   7.147   5.245   3.533
 4575TIP3    H113668   7.106   5.235   3.448
 4575TIP3    H213669   7.211   5.174   3.537
 4576TIP3   OH213670   5.324   2.615   1.504
 4576TIP3    H113671   5.335   2.703   1.470
 4576TIP3    H213672   5.398   2.566   1.469
 4577TIP3   OH213673   1.271   4.693   3.016
 4577TIP3    H113674   1.350   4.683   2.963
 4577TIP3    H213675   1.230   4.774   2.984
 4578TIP3   OH213676   7.898   4.354   6.397
 4578TIP3    H113677   7.813   4.389   6.423
 4578TIP3    H213678   7.892   4.260   6.414
 4579TIP3   OH213679   2.464   1.083   2.963
 4579TIP3    H113680   2.448   1.019   3.033
 4579TIP3    H213681   2.432   1.040   2.884
 4580TIP3   OH213682   7.871   4.747   6.104
 4580TIP3    H113683   7.872   4.801   6.026
 4580TIP3    H213684   7.942   4.781   6.158
 4581TIP3   OH213685   2.385   7.477   0.470
 4581TIP3    H113686   2.350   7.553   0.518
 4581TIP3    H213687   2.413   7.513   0.386
 4582TIP3   OH213688   0.511   4.413   5.615
 4582TIP3    H113689   0.424   4.399   5.576
 4582TIP3    H213690   0.548   4.325   5.622
 4583TIP3   OH213691   8.171   0.408   1.969
 4583TIP3    H113692   8.110   0.349   2.014
 4583TIP3    H213693   8.187   0.479   2.032
 4584TIP3   OH213694   4.566   1.021   1.471
 4584TIP3    H113695   4.479   1.003   1.436
 4584TIP3    H213696   4.555   1.103   1.520
 4585TIP3   OH213697   1.098   0.966   0.315
 4585TIP3    H113698   1.060   0.986   0.229
 4585TIP3    H213699   1.081   1.045   0.367
 4586TIP3   OH213700   5.045   4.655   2.389
 4586TIP3    H113701   4.970   4.636   2.331
 4586TIP3    H213702   5.104   4.708   2.335
 4587TIP3   OH213703   2.869   6.384   2.815
 4587TIP3    H113704   2.940   6.448   2.813
 4587TIP3    H213705   2.865   6.356   2.907
 4588TIP3   OH213706   1.488   7.686   1.680
 4588TIP3    H113707   1.567   7.645   1.646
 4588TIP3    H213708   1.426   7.684   1.607
 4589TIP3   OH213709   6.108   5.954   3.282
 4589TIP3    H113710   6.169   6.027   3.269
 4589TIP3    H213711   6.029   5.995   3.317
 4590TIP3   OH213712   5.247   3.169   2.770
 4590TIP3    H113713   5.192   3.246   2.783
 4590TIP3    H213714   5.190   3.095   2.793
 4591TIP3   OH213715   4.703   0.856   1.830
 4591TIP3    H113716   4.772   0.922   1.842
 4591TIP3    H213717   4.691   0.818   1.917
 4592TIP3   OH213718   6.375   3.026   1.938
 4592TIP3    H113719   6.428   3.106   1.943
 4592TIP3    H213720   6.371   2.995   2.028
 4593TIP3   OH213721   4.538   7.452   1.201
 4593TIP3    H113722   4.508   7.390   1.268
 4593TIP3    H213723   4.543   7.535   1.247
 4594TIP3   OH213724   5.340   3.586   2.230
 4594TIP3    H113725   5.411   3.569   2.293
 4594TIP3    H213726   5.347   3.680   2.212
 4595TIP3   OH213727   3.471   2.401   1.138
 4595TIP3    H113728   3.471   2.386   1.044
 4595TIP3    H213729   3.424   2.484   1.149
 4596TIP3   OH213730   5.671   2.166   1.012
 4596TIP3    H113731   5.615   2.244   1.012
 4596TIP3    H213732   5.692   2.152   0.920
 4597TIP3   OH213733   0.604   5.686   2.879
 4597TIP3    H113734   0.636   5.695   2.789
 4597TIP3    H213735   0.683   5.671   2.932
 4598TIP3   OH213736   7.042   4.145   1.376
 4598TIP3    H113737   7.104   4.102   1.434
 4598TIP3    H213738   7.042   4.091   1.297
 4599TIP3   OH213739   4.141   1.568   5.089
 4599TIP3    H113740   4.133   1.657   5.122
 4599TIP3    H213741   4.091   1.568   5.007
 4600TIP3   OH213742   7.913   2.081   4.518
 4600TIP3    H113743   7.936   2.142   4.448
 4600TIP3    H213744   7.870   2.008   4.472
 4601TIP3   OH213745   0.205   2.040   5.514
 4601TIP3    H113746   0.295   2.024   5.543
 4601TIP3    H213747   0.198   2.135   5.507
 4602TIP3   OH213748   2.348   7.468   5.909
 4602TIP3    H113749   2.421   7.506   5.860
 4602TIP3    H213750   2.275   7.469   5.846
 4603TIP3   OH213751   2.017   0.589   6.527
 4603TIP3    H113752   2.071   0.604   6.605
 4603TIP3    H213753   1.942   0.539   6.560
 4604TIP3   OH213754   4.579   4.005   6.598
 4604TIP3    H113755   4.517   3.935   6.580
 4604TIP3    H213756   4.652   3.989   6.538
 4605TIP3   OH213757   1.075   5.134   6.069
 4605TIP3    H113758   0.982   5.129   6.093
 4605TIP3    H213759   1.079   5.205   6.004
 4606TIP3   OH213760   3.801   4.491   1.595
 4606TIP3    H113761   3.711   4.517   1.616
 4606TIP3    H213762   3.856   4.556   1.638
 4607TIP3   OH213763   5.379   0.664   5.293
 4607TIP3    H113764   5.364   0.758   5.285
 4607TIP3    H213765   5.431   0.641   5.216
 4608TIP3   OH213766   3.665   2.394   5.124
 4608TIP3    H113767   3.647   2.395   5.218
 4608TIP3    H213768   3.689   2.303   5.106
 4609TIP3   OH213769   5.142   0.684   6.441
 4609TIP3    H113770   5.191   0.602   6.448
 4609TIP3    H213771   5.153   0.725   6.527
 4610TIP3   OH213772   6.865   7.174   6.631
 4610TIP3    H113773   6.859   7.148   6.539
 4610TIP3    H213774   6.812   7.254   6.636
 4611TIP3   OH213775   5.050   0.942   2.976
 4611TIP3    H113776   4.983   0.960   3.042
 4611TIP3    H213777   5.076   1.028   2.943
 4612TIP3   OH213778   8.210   3.941   1.623
 4612TIP3    H113779   8.299   3.918   1.596
 4612TIP3    H213780   8.156   3.925   1.545
 4613TIP3   OH213781   5.037   1.661   1.666
 4613TIP3    H113782   4.966   1.628   1.611
 4613TIP3    H213783   5.094   1.586   1.680
 4614TIP3   OH213784   2.548   5.712   3.916
 4614TIP3    H113785   2.577   5.785   3.861
 4614TIP3    H213786   2.579   5.734   4.004
 4615TIP3   OH213787   4.871   7.332   2.615
 4615TIP3    H113788   4.792   7.384   2.632
 4615TIP3    H213789   4.914   7.376   2.542
 4616TIP3   OH213790   3.061   5.239   5.188
 4616TIP3    H113791   3.029   5.155   5.154
 4616TIP3    H213792   3.000   5.261   5.258
 4617TIP3   OH213793   0.550   3.641   1.518
 4617TIP3    H113794   0.483   3.573   1.512
 4617TIP3    H213795   0.539   3.679   1.606
 4618TIP3   OH213796   6.443   2.119   1.208
 4618TIP3    H113797   6.401   2.199   1.174
 4618TIP3    H213798   6.537   2.134   1.193
 4619TIP3   OH213799   5.748   5.823   3.438
 4619TIP3    H113800   5.675   5.788   3.388
 4619TIP3    H213801   5.826   5.800   3.388
 4620TIP3   OH213802   2.690   1.264   2.920
 4620TIP3    H113803   2.626   1.203   2.883
 4620TIP3    H213804   2.723   1.219   2.998
 4621TIP3   OH213805   3.865   7.614   3.688
 4621TIP3    H113806   3.839   7.537   3.738
 4621TIP3    H213807   3.855   7.687   3.749
 4622TIP3   OH213808   7.421   5.005   4.797
 4622TIP3    H113809   7.470   5.081   4.764
 4622TIP3    H213810   7.411   4.948   4.721
 4623TIP3   OH213811   4.526   2.345   6.055
 4623TIP3    H113812   4.574   2.368   6.135
 4623TIP3    H213813   4.586   2.287   6.008
 4624TIP3   OH213814   7.775   4.269   0.446
 4624TIP3    H113815   7.777   4.192   0.502
 4624TIP3    H213816   7.832   4.246   0.372
 4625TIP3   OH213817   1.025   1.249   2.978
 4625TIP3    H113818   1.035   1.320   2.914
 4625TIP3    H213819   0.938   1.263   3.015
 4626TIP3   OH213820   6.335   5.578   1.693
 4626TIP3    H113821   6.367   5.615   1.776
 4626TIP3    H213822   6.240   5.580   1.701
 4627TIP3   OH213823   0.591   5.318   1.745
 4627TIP3    H113824   0.611   5.381   1.814
 4627TIP3    H213825   0.511   5.352   1.704
 4628TIP3   OH213826   8.015   2.381   4.754
 4628TIP3    H113827   8.101   2.353   4.725
 4628TIP3    H213828   8.008   2.472   4.726
 4629TIP3   OH213829   1.159   2.648   5.140
 4629TIP3    H113830   1.253   2.640   5.124
 4629TIP3    H213831   1.118   2.608   5.063
 4630TIP3   OH213832   5.941   2.507   4.394
 4630TIP3    H113833   5.881   2.534   4.325
 4630TIP3    H213834   6.020   2.559   4.380
 4631TIP3   OH213835   0.913   4.303   3.862
 4631TIP3    H113836   0.834   4.355   3.851
 4631TIP3    H213837   0.980   4.366   3.890
 4632TIP3   OH213838   3.671   0.661   2.016
 4632TIP3    H113839   3.597   0.653   2.076
 4632TIP3    H213840   3.717   0.740   2.044
 4633TIP3   OH213841   6.884   4.846   0.262
 4633TIP3    H113842   6.900   4.807   0.176
 4633TIP3    H213843   6.820   4.788   0.304
 4634TIP3   OH213844   1.566   6.398   4.281
 4634TIP3    H113845   1.506   6.356   4.343
 4634TIP3    H213846   1.650   6.354   4.295
 4635TIP3   OH213847   6.302   1.460   4.660
 4635TIP3    H113848   6.233   1.394   4.648
 4635TIP3    H213849   6.345   1.464   4.575
 4636TIP3   OH213850   4.669   1.247   4.438
 4636TIP3    H113851   4.745   1.212   4.391
 4636TIP3    H213852   4.706   1.312   4.498
 4637TIP3   OH213853   3.674   3.162   2.791
 4637TIP3    H113854   3.578   3.155   2.795
 4637TIP3    H213855   3.700   3.174   2.882
 4638TIP3   OH213856   6.367   3.885   3.691
 4638TIP3    H113857   6.458   3.896   3.719
 4638TIP3    H213858   6.368   3.906   3.597
 4639TIP3   OH213859   5.295   0.501   1.782
 4639TIP3    H113860   5.288   0.463   1.695
 4639TIP3    H213861   5.245   0.583   1.777
 4640TIP3   OH213862   4.019   2.009   3.202
 4640TIP3    H113863   3.955   2.044   3.265
 4640TIP3    H213864   3.974   2.012   3.118
 4641TIP3   OH213865   3.050   4.275   2.576
 4641TIP3    H113866   3.000   4.357   2.565
 4641TIP3    H213867   2.985   4.206   2.566
 4642TIP3   OH213868   3.539   4.307   4.945
 4642TIP3    H113869   3.488   4.242   4.994
 4642TIP3    H213870   3.588   4.354   5.012
 4643TIP3   OH213871   3.116   1.840   4.660
 4643TIP3    H113872   3.082   1.759   4.697
 4643TIP3    H213873   3.039   1.886   4.628
 4644TIP3   OH213874   7.864   5.577   5.631
 4644TIP3    H113875   7.879   5.499   5.578
 4644TIP3    H213876   7.772   5.570   5.659
 4645TIP3   OH213877   8.139   5.665   0.428
 4645TIP3    H113878   8.090   5.597   0.382
 4645TIP3    H213879   8.217   5.620   0.460
 4646TIP3   OH213880   7.391   6.724   2.669
 4646TIP3    H113881   7.303   6.692   2.650
 4646TIP3    H213882   7.419   6.767   2.588
 4647TIP3   OH213883   0.591   1.102   5.994
 4647TIP3    H113884   0.572   1.036   5.928
 4647TIP3    H213885   0.575   1.185   5.951
 4648TIP3   OH213886   0.076   3.926   3.135
 4648TIP3    H113887   0.159   3.886   3.108
 4648TIP3    H213888   0.076   4.011   3.092
 4649TIP3   OH213889   2.728   3.205   4.040
 4649TIP3    H113890   2.710   3.151   3.963
 4649TIP3    H213891   2.820   3.188   4.060
 4650TIP3   OH213892   2.364   0.887   3.154
 4650TIP3    H113893   2.345   0.902   3.246
 4650TIP3    H213894   2.393   0.796   3.150
 4651TIP3   OH213895   2.217   2.217   5.666
 4651TIP3    H113896   2.124   2.231   5.650
 4651TIP3    H213897   2.258   2.232   5.581
 4652TIP3   OH213898   3.252   6.348   5.054
 4652TIP3    H113899   3.227   6.347   5.146
 4652TIP3    H213900   3.277   6.258   5.034
 4653TIP3   OH213901   5.213   1.974   6.437
 4653TIP3    H113902   5.254   1.923   6.507
 4653TIP3    H213903   5.173   1.908   6.380
 4654TIP3   OH213904   0.702   6.466   1.374
 4654TIP3    H113905   0.752   6.386   1.360
 4654TIP3    H213906   0.633   6.462   1.308
 4655TIP3   OH213907   5.813   4.179   6.438
 4655TIP3    H113908   5.884   4.161   6.499
 4655TIP3    H213909   5.739   4.127   6.471
 4656TIP3   OH213910   6.033   2.731   3.104
 4656TIP3    H113911   6.089   2.662   3.067
 4656TIP3    H213912   5.976   2.685   3.165
 4657TIP3   OH213913   6.088   6.216   3.512
 4657TIP3    H113914   6.140   6.185   3.586
 4657TIP3    H213915   6.000   6.183   3.529
 4658TIP3   OH213916   0.994   5.468   2.332
 4658TIP3    H113917   0.960   5.513   2.409
 4658TIP3    H213918   0.948   5.508   2.258
 4659TIP3   OH213919   6.717   5.201   5.660
 4659TIP3    H113920   6.754   5.119   5.627
 4659TIP3    H213921   6.654   5.227   5.593
 4660TIP3   OH213922   1.378   3.172   4.109
 4660TIP3    H113923   1.306   3.198   4.052
 4660TIP3    H213924   1.338   3.157   4.194
 4661TIP3   OH213925   7.846   1.650   4.934
 4661TIP3    H113926   7.851   1.669   4.840
 4661TIP3    H213927   7.756   1.620   4.947
 4662TIP3   OH213928   7.810   4.070   2.975
 4662TIP3    H113929   7.875   4.139   2.963
 4662TIP3    H213930   7.842   3.998   2.921
 4663TIP3   OH213931   1.351   1.955   4.461
 4663TIP3    H113932   1.322   1.918   4.377
 4663TIP3    H213933   1.382   2.043   4.439
 4664TIP3   OH213934   1.888   0.445   3.864
 4664TIP3    H113935   1.848   0.423   3.948
 4664TIP3    H213936   1.860   0.535   3.847
 4665TIP3   OH213937   4.466   5.969   4.089
 4665TIP3    H113938   4.501   6.022   4.161
 4665TIP3    H213939   4.462   5.881   4.125
 4666TIP3   OH213940   5.428   5.303   0.444
 4666TIP3    H113941   5.406   5.393   0.419
 4666TIP3    H213942   5.416   5.253   0.364
 4667TIP3   OH213943   6.462   6.665   3.048
 4667TIP3    H113944   6.432   6.754   3.065
 4667TIP3    H213945   6.381   6.614   3.036
 4668TIP3   OH213946   2.035   7.388   6.122
 4668TIP3    H113947   2.092   7.312   6.114
 4668TIP3    H213948   1.996   7.399   6.035
 4669TIP3   OH213949   5.499   5.772   5.106
 4669TIP3    H113950   5.500   5.858   5.148
 4669TIP3    H213951   5.409   5.762   5.074
 4670TIP3   OH213952   6.015   2.836   1.902
 4670TIP3    H113953   5.949   2.836   1.834
 4670TIP3    H213954   6.098   2.825   1.855
 4671TIP3   OH213955   1.236   0.287   0.237
 4671TIP3    H113956   1.233   0.248   0.149
 4671TIP3    H213957   1.144   0.298   0.261
 4672TIP3   OH213958   2.857   1.090   2.532
 4672TIP3    H113959   2.870   1.113   2.624
 4672TIP3    H213960   2.768   1.119   2.513
 4673TIP3   OH213961   2.060   4.740   2.306
 4673TIP3    H113962   2.004   4.720   2.231
 4673TIP3    H213963   2.000   4.759   2.378
 4674TIP3   OH213964   5.359   6.749   0.716
 4674TIP3    H113965   5.394   6.673   0.762
 4674TIP3    H213966   5.269   6.758   0.749
 4675TIP3   OH213967   6.594   4.290   0.431
 4675TIP3    H113968   6.537   4.333   0.367
 4675TIP3    H213969   6.657   4.241   0.377
 4676TIP3   OH213970   7.756   4.085   2.361
 4676TIP3    H113971   7.777   4.015   2.299
 4676TIP3    H213972   7.692   4.045   2.420
 4677TIP3   OH213973   0.462   5.632   4.766
 4677TIP3    H113974   0.444   5.670   4.680
 4677TIP3    H213975   0.549   5.666   4.789
 4678TIP3   OH213976   7.652   0.485   5.039
 4678TIP3    H113977   7.713   0.559   5.029
 4678TIP3    H213978   7.602   0.485   4.957
 4679TIP3   OH213979   5.796   7.144   2.021
 4679TIP3    H113980   5.840   7.211   2.074
 4679TIP3    H213981   5.809   7.172   1.931
 4680TIP3   OH213982   7.359   3.946   5.323
 4680TIP3    H113983   7.382   3.978   5.235
 4680TIP3    H213984   7.274   3.986   5.341
 4681TIP3   OH213985   4.486   5.175   1.613
 4681TIP3    H113986   4.407   5.121   1.612
 4681TIP3    H213987   4.484   5.222   1.530
 4682TIP3   OH213988   4.565   0.357   4.861
 4682TIP3    H113989   4.633   0.400   4.809
 4682TIP3    H213990   4.557   0.411   4.940
 4683TIP3   OH213991   1.022   4.825   6.700
 4683TIP3    H113992   1.108   4.856   6.672
 4683TIP3    H213993   0.976   4.903   6.730
 4684TIP3   OH213994   4.920   6.691   6.181
 4684TIP3    H113995   4.896   6.718   6.269
 4684TIP3    H213996   4.915   6.771   6.129
 4685TIP3   OH213997   5.328   5.144   5.483
 4685TIP3    H113998   5.336   5.191   5.565
 4685TIP3    H213999   5.255   5.187   5.437
 4686TIP3   OH214000   3.270   0.533   5.363
 4686TIP3    H114001   3.211   0.568   5.430
 4686TIP3    H214002   3.343   0.595   5.361
 4687TIP3   OH214003   0.920   7.050   3.271
 4687TIP3    H114004   0.959   6.963   3.282
 4687TIP3    H214005   0.920   7.064   3.176
 4688TIP3   OH214006   6.091   4.365   4.367
 4688TIP3    H114007   6.011   4.382   4.318
 4688TIP3    H214008   6.064   4.312   4.442
 4689TIP3   OH214009   1.806   7.003   4.637
 4689TIP3    H114010   1.780   7.074   4.695
 4689TIP3    H214011   1.891   7.030   4.603
 4690TIP3   OH214012   5.267   3.690   2.916
 4690TIP3    H114013   5.317   3.753   2.968
 4690TIP3    H214014   5.324   3.668   2.843
 4691TIP3   OH214015   7.636   4.224   3.511
 4691TIP3    H114016   7.706   4.161   3.496
 4691TIP3    H214017   7.576   4.210   3.437
 4692TIP3   OH214018   6.211   1.353   1.542
 4692TIP3    H114019   6.234   1.428   1.597
 4692TIP3    H214020   6.123   1.372   1.510
 4693TIP3   OH214021   3.670   5.154   1.877
 4693TIP3    H114022   3.599   5.113   1.926
 4693TIP3    H214023   3.671   5.245   1.907
 4694TIP3   OH214024   6.294   2.154   4.750
 4694TIP3    H114025   6.232   2.225   4.736
 4694TIP3    H214026   6.247   2.090   4.803
 4695TIP3   OH214027   3.833   2.417   4.366
 4695TIP3    H114028   3.785   2.426   4.449
 4695TIP3    H214029   3.794   2.339   4.325
 4696TIP3   OH214030   5.094   1.741   1.257
 4696TIP3    H114031   4.999   1.743   1.249
 4696TIP3    H214032   5.119   1.834   1.263
 4697TIP3   OH214033   5.666   1.135   4.964
 4697TIP3    H114034   5.625   1.085   4.893
 4697TIP3    H214035   5.605   1.126   5.037
 4698TIP3   OH214036   0.184   2.967   2.587
 4698TIP3    H114037   0.117   2.972   2.519
 4698TIP3    H214038   0.267   2.971   2.539
 4699TIP3   OH214039   6.846   5.250   2.456
 4699TIP3    H114040   6.857   5.158   2.433
 4699TIP3    H214041   6.932   5.290   2.444
 4700TIP3   OH214042   0.807   2.893   6.736
 4700TIP3    H114043   0.765   2.866   6.818
 4700TIP3    H214044   0.746   2.956   6.697
 4701TIP3   OH214045   2.117   5.321   0.966
 4701TIP3    H114046   2.180   5.388   0.992
 4701TIP3    H214047   2.070   5.360   0.892
 4702TIP3   OH214048   3.424   4.593   5.045
 4702TIP3    H114049   3.415   4.504   5.011
 4702TIP3    H214050   3.509   4.622   5.013
 4703TIP3   OH214051   0.997   4.367   1.039
 4703TIP3    H114052   0.953   4.361   1.123
 4703TIP3    H214053   0.969   4.288   0.992
 4704TIP3   OH214054   6.291   1.234   4.893
 4704TIP3    H114055   6.245   1.176   4.833
 4704TIP3    H214056   6.257   1.210   4.980
 4705TIP3   OH214057   0.177   1.824   0.815
 4705TIP3    H114058   0.174   1.920   0.811
 4705TIP3    H214059   0.164   1.796   0.725
 4706TIP3   OH214060   6.277   7.157   1.739
 4706TIP3    H114061   6.367   7.161   1.705
 4706TIP3    H214062   6.262   7.244   1.776
 4707TIP3   OH214063   5.326   7.750   5.821
 4707TIP3    H114064   5.239   7.736   5.785
 4707TIP3    H214065   5.313   7.755   5.915
 4708TIP3   OH214066   7.778   5.105   0.162
 4708TIP3    H114067   7.785   5.191   0.121
 4708TIP3    H214068   7.862   5.063   0.144
 4709TIP3   OH214069   4.562   4.513   3.289
 4709TIP3    H114070   4.484   4.457   3.281
 4709TIP3    H214071   4.546   4.585   3.228
 4710TIP3   OH214072   5.338   1.100   3.857
 4710TIP3    H114073   5.250   1.113   3.819
 4710TIP3    H214074   5.397   1.106   3.782
 4711TIP3   OH214075   6.901   5.681   3.727
 4711TIP3    H114076   6.979   5.636   3.696
 4711TIP3    H214077   6.882   5.746   3.659
 4712TIP3   OH214078   2.642   3.551   3.891
 4712TIP3    H114079   2.649   3.518   3.802
 4712TIP3    H214080   2.577   3.494   3.933
 4713TIP3   OH214081   7.402   2.190   5.568
 4713TIP3    H114082   7.427   2.200   5.660
 4713TIP3    H214083   7.441   2.107   5.540
 4714TIP3   OH214084   1.947   4.156   3.072
 4714TIP3    H114085   2.039   4.136   3.089
 4714TIP3    H214086   1.949   4.238   3.023
 4715TIP3   OH214087   2.792   1.659   0.603
 4715TIP3    H114088   2.761   1.740   0.643
 4715TIP3    H214089   2.730   1.592   0.634
 4716TIP3   OH214090   7.328   5.247   4.976
 4716TIP3    H114091   7.287   5.193   5.043
 4716TIP3    H214092   7.346   5.330   5.020
 4717TIP3   OH214093   4.371   4.237   3.803
 4717TIP3    H114094   4.288   4.273   3.836
 4717TIP3    H214095   4.345   4.164   3.747
 4718TIP3   OH214096   3.683   3.446   0.213
 4718TIP3    H114097   3.636   3.395   0.280
 4718TIP3    H214098   3.615   3.497   0.170
 4719TIP3   OH214099   8.099   2.380   2.846
 4719TIP3    H114100   8.153   2.388   2.768
 4719TIP3    H214101   8.160   2.394   2.919
 4720TIP3   OH214102   8.034   3.545   2.142
 4720TIP3    H114103   8.020   3.598   2.220
 4720TIP3    H214104   8.053   3.457   2.175
 4721TIP3   OH214105   4.394   0.172   4.977
 4721TIP3    H114106   4.473   0.193   4.925
 4721TIP3    H214107   4.408   0.217   5.060
 4722TIP3   OH214108   4.514   5.449   0.419
 4722TIP3    H114109   4.474   5.501   0.489
 4722TIP3    H214110   4.482   5.490   0.338
 4723TIP3   OH214111   0.402   4.188   0.578
 4723TIP3    H114112   0.308   4.180   0.598
 4723TIP3    H214113   0.426   4.274   0.613
 4724TIP3   OH214114   6.328   3.441   2.450
 4724TIP3    H114115   6.394   3.471   2.387
 4724TIP3    H214116   6.356   3.354   2.475
 4725TIP3   OH214117   6.924   1.992   2.470
 4725TIP3    H114118   6.880   1.907   2.466
 4725TIP3    H214119   6.997   1.984   2.408
 4726TIP3   OH214120   0.832   3.501   0.844
 4726TIP3    H114121   0.755   3.448   0.825
 4726TIP3    H214122   0.809   3.550   0.923
 4727TIP3   OH214123   1.252   6.409   6.116
 4727TIP3    H114124   1.305   6.344   6.069
 4727TIP3    H214125   1.283   6.493   6.084
 4728TIP3   OH214126   3.438   3.648   5.855
 4728TIP3    H114127   3.410   3.568   5.899
 4728TIP3    H214128   3.367   3.710   5.872
 4729TIP3   OH214129   7.571   6.628   6.774
 4729TIP3    H114130   7.566   6.717   6.738
 4729TIP3    H214131   7.626   6.580   6.712
 4730TIP3   OH214132   1.450   1.262   6.205
 4730TIP3    H114133   1.469   1.312   6.284
 4730TIP3    H214134   1.430   1.174   6.236
 4731TIP3   OH214135   2.974   4.699   5.865
 4731TIP3    H114136   2.951   4.792   5.860
 4731TIP3    H214137   3.070   4.698   5.855
 4732TIP3   OH214138   6.082   4.144   2.166
 4732TIP3    H114139   6.156   4.156   2.225
 4732TIP3    H214140   6.070   4.230   2.125
 4733TIP3   OH214141   3.138   2.237   0.387
 4733TIP3    H114142   3.149   2.323   0.428
 4733TIP3    H214143   3.080   2.254   0.313
 4734TIP3   OH214144   7.315   4.809   6.526
 4734TIP3    H114145   7.221   4.790   6.525
 4734TIP3    H214146   7.320   4.904   6.525
 4735TIP3   OH214147   3.488   1.440   4.172
 4735TIP3    H114148   3.561   1.497   4.195
 4735TIP3    H214149   3.528   1.369   4.121
 4736TIP3   OH214150   5.302   5.052   0.633
 4736TIP3    H114151   5.388   5.016   0.614
 4736TIP3    H214152   5.242   5.003   0.577
 4737TIP3   OH214153   6.285   0.222   6.152
 4737TIP3    H114154   6.343   0.146   6.159
 4737TIP3    H214155   6.271   0.232   6.058
 4738TIP3   OH214156   4.030   6.691   3.287
 4738TIP3    H114157   3.986   6.768   3.325
 4738TIP3    H214158   3.992   6.616   3.333
 4739TIP3   OH214159   5.225   3.052   4.302
 4739TIP3    H114160   5.319   3.052   4.320
 4739TIP3    H214161   5.203   2.959   4.289
 4740TIP3   OH214162   0.646   1.739   6.753
 4740TIP3    H114163   0.580   1.773   6.693
 4740TIP3    H214164   0.637   1.793   6.832
 4741TIP3   OH214165   0.851   6.657   2.240
 4741TIP3    H114166   0.887   6.652   2.151
 4741TIP3    H214167   0.848   6.750   2.259
 4742TIP3   OH214168   3.900   6.372   4.966
 4742TIP3    H114169   3.851   6.291   4.976
 4742TIP3    H214170   3.879   6.402   4.878
 4743TIP3   OH214171   4.489   5.448   4.402
 4743TIP3    H114172   4.466   5.541   4.409
 4743TIP3    H214173   4.466   5.425   4.312
 4744TIP3   OH214174   3.755   7.528   6.250
 4744TIP3    H114175   3.687   7.565   6.193
 4744TIP3    H214176   3.754   7.435   6.232
 4745TIP3   OH214177   1.135   4.655   0.197
 4745TIP3    H114178   1.139   4.669   0.102
 4745TIP3    H214179   1.041   4.649   0.216
 4746TIP3   OH214180   5.901   7.310   4.971
 4746TIP3    H114181   5.943   7.241   5.022
 4746TIP3    H214182   5.810   7.281   4.962
 4747TIP3   OH214183   3.012   4.405   5.824
 4747TIP3    H114184   2.992   4.318   5.789
 4747TIP3    H214185   3.051   4.388   5.909
 4748TIP3   OH214186   0.362   7.676   0.613
 4748TIP3    H114187   0.415   7.596   0.601
 4748TIP3    H214188   0.290   7.666   0.551
 4749TIP3   OH214189   1.674   0.810   0.130
 4749TIP3    H114190   1.596   0.843   0.175
 4749TIP3    H214191   1.707   0.740   0.186
 4750TIP3   OH214192   4.796   0.172   4.669
 4750TIP3    H114193   4.701   0.184   4.664
 4750TIP3    H214194   4.813   0.158   4.762
 4751TIP3   OH214195   5.121   3.192   5.825
 4751TIP3    H114196   5.203   3.176   5.779
 4751TIP3    H214197   5.104   3.111   5.874
 4752TIP3   OH214198   8.315   3.281   1.254
 4752TIP3    H114199   8.275   3.277   1.167
 4752TIP3    H214200   8.306   3.192   1.288
 4753TIP3   OH214201   4.564   3.226   2.735
 4753TIP3    H114202   4.594   3.188   2.818
 4753TIP3    H214203   4.536   3.150   2.683
 4754TIP3   OH214204   7.281   4.902   0.964
 4754TIP3    H114205   7.235   4.956   0.900
 4754TIP3    H214206   7.211   4.859   1.013
 4755TIP3   OH214207   5.647   1.977   2.892
 4755TIP3    H114208   5.721   1.948   2.946
 4755TIP3    H214209   5.671   2.066   2.866
 4756TIP3   OH214210   1.338   3.803   1.255
 4756TIP3    H114211   1.271   3.737   1.235
 4756TIP3    H214212   1.413   3.752   1.283
 4757TIP3   OH214213   6.301   7.179   4.582
 4757TIP3    H114214   6.365   7.229   4.632
 4757TIP3    H214215   6.256   7.243   4.528
 4758TIP3   OH214216   6.976   6.321   6.301
 4758TIP3    H114217   7.061   6.363   6.288
 4758TIP3    H214218   6.995   6.243   6.354
 4759TIP3   OH214219   1.410   5.907   4.858
 4759TIP3    H114220   1.421   5.991   4.814
 4759TIP3    H214221   1.415   5.929   4.951
 4760TIP3   OH214222   3.100   4.303   5.491
 4760TIP3    H114223   3.164   4.364   5.527
 4760TIP3    H214224   3.129   4.217   5.523
 4761TIP3   OH214225   0.220   1.039   1.829
 4761TIP3    H114226   0.230   0.956   1.783
 4761TIP3    H214227   0.131   1.067   1.809
 4762TIP3   OH214228   7.767   1.565   0.843
 4762TIP3    H114229   7.776   1.518   0.925
 4762TIP3    H214230   7.837   1.630   0.844
 4763TIP3   OH214231   4.981   2.112   5.914
 4763TIP3    H114232   5.004   2.124   6.006
 4763TIP3    H214233   4.977   2.018   5.902
 4764TIP3   OH214234   3.293   1.473   0.394
 4764TIP3    H114235   3.360   1.433   0.450
 4764TIP3    H214236   3.339   1.547   0.353
 4765TIP3   OH214237   5.571   4.185   2.132
 4765TIP3    H114238   5.598   4.142   2.050
 4765TIP3    H214239   5.476   4.193   2.123
 4766TIP3   OH214240   5.106   5.437   3.529
 4766TIP3    H114241   5.089   5.408   3.440
 4766TIP3    H214242   5.099   5.533   3.525
 4767TIP3   OH214243   0.963   4.667   4.407
 4767TIP3    H114244   1.031   4.710   4.355
 4767TIP3    H214245   0.951   4.725   4.482
 4768TIP3   OH214246   2.263   2.121   5.936
 4768TIP3    H114247   2.322   2.046   5.926
 4768TIP3    H214248   2.246   2.150   5.847
 4769TIP3   OH214249   2.305   3.056   5.967
 4769TIP3    H114250   2.321   2.974   6.013
 4769TIP3    H214251   2.376   3.062   5.903
 4770TIP3   OH214252   2.213   3.775   3.270
 4770TIP3    H114253   2.216   3.707   3.338
 4770TIP3    H214254   2.219   3.857   3.318
 4771TIP3   OH214255   0.285   7.396   2.505
 4771TIP3    H114256   0.293   7.486   2.535
 4771TIP3    H214257   0.374   7.363   2.503
 4772TIP3   OH214258   6.046   1.821   5.172
 4772TIP3    H114259   6.137   1.834   5.198
 4772TIP3    H214260   6.016   1.747   5.225
 4773TIP3   OH214261   0.679   0.503   6.282
 4773TIP3    H114262   0.719   0.419   6.260
 4773TIP3    H214263   0.745   0.548   6.336
 4774TIP3   OH214264   7.236   1.380   3.455
 4774TIP3    H114265   7.142   1.397   3.454
 4774TIP3    H214266   7.255   1.351   3.544
 4775TIP3   OH214267   3.351   3.101   6.537
 4775TIP3    H114268   3.423   3.038   6.543
 4775TIP3    H214269   3.327   3.100   6.444
 4776TIP3   OH214270   2.446   5.910   2.803
 4776TIP3    H114271   2.524   5.912   2.748
 4776TIP3    H214272   2.454   5.829   2.853
 4777TIP3   OH214273   2.502   4.326   2.951
 4777TIP3    H114274   2.569   4.310   2.886
 4777TIP3    H214275   2.535   4.284   3.031
 4778TIP3   OH214276   4.210   7.086   2.179
 4778TIP3    H114277   4.298   7.050   2.169
 4778TIP3    H214278   4.191   7.127   2.094
 4779TIP3   OH214279   1.194   6.119   3.918
 4779TIP3    H114280   1.257   6.053   3.949
 4779TIP3    H214281   1.209   6.195   3.975
 4780TIP3   OH214282   0.836   3.091   4.455
 4780TIP3    H114283   0.745   3.114   4.471
 4780TIP3    H214284   0.884   3.137   4.524
 4781TIP3   OH214285   6.068   5.339   5.011
 4781TIP3    H114286   6.070   5.317   5.104
 4781TIP3    H214287   6.002   5.408   5.004
 4782TIP3   OH214288   6.833   1.258   1.705
 4782TIP3    H114289   6.872   1.340   1.734
 4782TIP3    H214290   6.757   1.285   1.653
 4783TIP3   OH214291   7.255   6.748   0.437
 4783TIP3    H114292   7.225   6.661   0.412
 4783TIP3    H214293   7.351   6.741   0.438
 4784TIP3   OH214294   4.999   4.455   0.373
 4784TIP3    H114295   5.023   4.365   0.349
 4784TIP3    H214296   5.076   4.507   0.350
 4785TIP3   OH214297   2.035   5.707   0.931
 4785TIP3    H114298   1.986   5.668   1.004
 4785TIP3    H214299   2.100   5.763   0.974
 4786TIP3   OH214300   1.740   0.356   2.471
 4786TIP3    H114301   1.796   0.430   2.496
 4786TIP3    H214302   1.785   0.280   2.507
 4787TIP3   OH214303   2.251   4.056   3.872
 4787TIP3    H114304   2.278   4.039   3.962
 4787TIP3    H214305   2.302   3.994   3.820
 4788TIP3   OH214306   3.646   1.700   1.194
 4788TIP3    H114307   3.582   1.629   1.189
 4788TIP3    H214308   3.690   1.698   1.110
 4789TIP3   OH214309   5.520   4.168   3.639
 4789TIP3    H114310   5.472   4.116   3.575
 4789TIP3    H214311   5.507   4.122   3.722
 4790TIP3   OH214312   0.912   4.028   3.887
 4790TIP3    H114313   0.908   3.998   3.796
 4790TIP3    H214314   0.923   4.123   3.880
 4791TIP3   OH214315   6.885   7.023   1.071
 4791TIP3    H114316   6.907   7.110   1.036
 4791TIP3    H214317   6.805   7.038   1.122
 4792TIP3   OH214318   5.348   0.104   5.813
 4792TIP3    H114319   5.417   0.146   5.865
 4792TIP3    H214320   5.364   0.011   5.822
 4793TIP3   OH214321   6.577   0.240   3.294
 4793TIP3    H114322   6.533   0.247   3.209
 4793TIP3    H214323   6.657   0.291   3.284
 4794TIP3   OH214324   2.487   2.739   5.722
 4794TIP3    H114325   2.499   2.747   5.627
 4794TIP3    H214326   2.403   2.695   5.732
 4795TIP3   OH214327   4.205   7.524   6.717
 4795TIP3    H114328   4.168   7.478   6.792
 4795TIP3    H214329   4.299   7.532   6.737
 4796TIP3   OH214330   1.843   5.957   4.193
 4796TIP3    H114331   1.856   5.889   4.260
 4796TIP3    H214332   1.816   5.908   4.115
 4797TIP3   OH214333   6.840   4.185   5.576
 4797TIP3    H114334   6.776   4.210   5.643
 4797TIP3    H214335   6.832   4.090   5.568
 4798TIP3   OH214336   1.817   3.559   5.168
 4798TIP3    H114337   1.762   3.539   5.092
 4798TIP3    H214338   1.838   3.473   5.206
 4799TIP3   OH214339   6.270   4.670   1.710
 4799TIP3    H114340   6.185   4.628   1.721
 4799TIP3    H214341   6.257   4.759   1.744
 4800TIP3   OH214342   2.039   6.865   2.032
 4800TIP3    H114343   2.065   6.917   2.108
 4800TIP3    H214344   2.118   6.816   2.008
 4801TIP3   OH214345   0.412   3.667   6.361
 4801TIP3    H114346   0.456   3.733   6.306
 4801TIP3    H214347   0.392   3.713   6.442
 4802TIP3   OH214348   1.631   2.814   1.032
 4802TIP3    H114349   1.625   2.758   0.954
 4802TIP3    H214350   1.724   2.816   1.053
 4803TIP3   OH214351   4.835   7.567   0.417
 4803TIP3    H114352   4.787   7.485   0.400
 4803TIP3    H214353   4.775   7.619   0.470
 4804TIP3   OH214354   8.167   5.657   3.776
 4804TIP3    H114355   8.141   5.686   3.863
 4804TIP3    H214356   8.256   5.691   3.765
 4805TIP3   OH214357   4.256   3.607   2.714
 4805TIP3    H114358   4.213   3.601   2.799
 4805TIP3    H214359   4.313   3.530   2.710
 4806TIP3   OH214360   4.460   3.771   6.498
 4806TIP3    H114361   4.390   3.706   6.508
 4806TIP3    H214362   4.523   3.749   6.567
 4807TIP3   OH214363   2.839   3.183   2.541
 4807TIP3    H114364   2.807   3.273   2.547
 4807TIP3    H214365   2.822   3.157   2.451
 4808TIP3   OH214366   1.168   1.553   4.525
 4808TIP3    H114367   1.196   1.642   4.548
 4808TIP3    H214368   1.164   1.554   4.430
 4809TIP3   OH214369   5.855   6.818   5.679
 4809TIP3    H114370   5.905   6.808   5.598
 4809TIP3    H214371   5.816   6.906   5.672
 4810TIP3   OH214372   8.014   5.798   3.512
 4810TIP3    H114373   8.094   5.850   3.511
 4810TIP3    H214374   8.017   5.750   3.595
 4811TIP3   OH214375   6.256   4.142   2.733
 4811TIP3    H114376   6.268   4.227   2.691
 4811TIP3    H214377   6.208   4.161   2.814
 4812TIP3   OH214378   8.127   7.516   6.117
 4812TIP3    H114379   8.158   7.574   6.048
 4812TIP3    H214380   8.112   7.432   6.073
 4813TIP3   OH214381   3.674   6.753   2.603
 4813TIP3    H114382   3.733   6.678   2.594
 4813TIP3    H214383   3.713   6.805   2.673
 4814TIP3   OH214384   4.172   6.827   1.278
 4814TIP3    H114385   4.077   6.821   1.271
 4814TIP3    H214386   4.189   6.920   1.293
 4815TIP3   OH214387   0.746   0.413   4.870
 4815TIP3    H114388   0.824   0.379   4.913
 4815TIP3    H214389   0.766   0.505   4.853
 4816TIP3   OH214390   0.348   7.779   6.525
 4816TIP3    H114391   0.369   7.713   6.592
 4816TIP3    H214392   0.432   7.803   6.488
 4817TIP3   OH214393   7.085   4.465   6.561
 4817TIP3    H114394   7.114   4.479   6.651
 4817TIP3    H214395   7.103   4.548   6.516
 4818TIP3   OH214396   1.587   1.049   0.522
 4818TIP3    H114397   1.642   1.127   0.526
 4818TIP3    H214398   1.534   1.061   0.443
 4819TIP3   OH214399   0.408   2.039   0.367
 4819TIP3    H114400   0.468   2.099   0.322
 4819TIP3    H214401   0.461   1.999   0.436
 4820TIP3   OH214402   1.074   5.619   5.156
 4820TIP3    H114403   1.033   5.655   5.077
 4820TIP3    H214404   1.139   5.684   5.181
 4821TIP3   OH214405   1.061   4.011   1.061
 4821TIP3    H114406   0.967   4.003   1.078
 4821TIP3    H214407   1.069   4.016   0.966
 4822TIP3   OH214408   3.502   6.226   1.107
 4822TIP3    H114409   3.473   6.301   1.159
 4822TIP3    H214410   3.465   6.240   1.020
 4823TIP3   OH214411   1.570   7.378   5.875
 4823TIP3    H114412   1.638   7.348   5.815
 4823TIP3    H214413   1.560   7.306   5.937
 4824TIP3   OH214414   1.245   2.577   4.632
 4824TIP3    H114415   1.301   2.552   4.558
 4824TIP3    H214416   1.229   2.670   4.619
 4825TIP3   OH214417   5.494   1.239   3.358
 4825TIP3    H114418   5.534   1.154   3.344
 4825TIP3    H214419   5.401   1.221   3.371
 4826TIP3   OH214420   0.537   7.808   6.335
 4826TIP3    H114421   0.528   7.712   6.329
 4826TIP3    H214422   0.630   7.822   6.349
 4827TIP3   OH214423   0.820   7.764   1.296
 4827TIP3    H114424   0.770   7.789   1.219
 4827TIP3    H214425   0.767   7.794   1.370
 4828TIP3   OH214426   6.080   0.191   2.756
 4828TIP3    H114427   6.060   0.251   2.827
 4828TIP3    H214428   6.012   0.206   2.691
 4829TIP3   OH214429   5.143   3.940   5.285
 4829TIP3    H114430   5.123   3.899   5.201
 4829TIP3    H214431   5.227   3.984   5.270
 4830TIP3   OH214432   5.896   6.342   3.138
 4830TIP3    H114433   5.939   6.404   3.197
 4830TIP3    H214434   5.875   6.267   3.193
 4831TIP3   OH214435   6.614   5.287   5.425
 4831TIP3    H114436   6.541   5.340   5.394
 4831TIP3    H214437   6.691   5.340   5.406
 4832TIP3   OH214438   7.124   0.662   0.562
 4832TIP3    H114439   7.030   0.647   0.563
 4832TIP3    H214440   7.135   0.747   0.520
 4833TIP3   OH214441   0.811   1.404   2.306
 4833TIP3    H114442   0.880   1.340   2.284
 4833TIP3    H214443   0.856   1.488   2.310
 4834TIP3   OH214444   3.777   7.777   6.569
 4834TIP3    H114445   3.855   7.727   6.591
 4834TIP3    H214446   3.712   7.750   6.633
 4835TIP3   OH214447   7.587   4.271   0.890
 4835TIP3    H114448   7.547   4.345   0.844
 4835TIP3    H214449   7.513   4.218   0.920
 4836TIP3   OH214450   8.025   0.302   1.687
 4836TIP3    H114451   8.092   0.361   1.654
 4836TIP3    H214452   8.018   0.234   1.619
 4837TIP3   OH214453   8.072   4.696   1.410
 4837TIP3    H114454   8.157   4.653   1.400
 4837TIP3    H214455   8.093   4.784   1.442
 4838TIP3   OH214456   0.232   0.805   1.691
 4838TIP3    H114457   0.200   0.859   1.618
 4838TIP3    H214458   0.301   0.752   1.652
 4839TIP3   OH214459   0.950   4.780   2.798
 4839TIP3    H114460   0.907   4.781   2.884
 4839TIP3    H214461   0.942   4.870   2.766
 4840TIP3   OH214462   5.298   0.255   6.138
 4840TIP3    H114463   5.284   0.285   6.048
 4840TIP3    H214464   5.287   0.160   6.134
 4841TIP3   OH214465   1.483   1.225   1.365
 4841TIP3    H114466   1.572   1.189   1.374
 4841TIP3    H214467   1.443   1.212   1.450
 4842TIP3   OH214468   6.863   7.549   1.846
 4842TIP3    H114469   6.893   7.637   1.824
 4842TIP3    H214470   6.777   7.542   1.804
 4843TIP3   OH214471   8.043   1.123   5.905
 4843TIP3    H114472   8.022   1.206   5.863
 4843TIP3    H214473   7.966   1.102   5.957
 4844TIP3   OH214474   5.710   6.927   4.437
 4844TIP3    H114475   5.721   7.020   4.457
 4844TIP3    H214476   5.615   6.915   4.430
 4845TIP3   OH214477   7.915   1.881   2.293
 4845TIP3    H114478   8.008   1.893   2.272
 4845TIP3    H214479   7.883   1.969   2.311
 4846TIP3   OH214480   0.577   7.806   3.953
 4846TIP3    H114481   0.553   7.798   4.045
 4846TIP3    H214482   0.498   7.837   3.910
 4847TIP3   OH214483   1.620   1.715   5.862
 4847TIP3    H114484   1.709   1.743   5.884
 4847TIP3    H214485   1.608   1.742   5.771
 4848TIP3   OH214486   7.012   4.503   2.192
 4848TIP3    H114487   6.922   4.472   2.177
 4848TIP3    H214488   7.064   4.422   2.193
 4849TIP3   OH214489   2.352   4.450   5.867
 4849TIP3    H114490   2.284   4.508   5.901
 4849TIP3    H214491   2.329   4.437   5.775
 4850TIP3   OH214492   0.616   4.591   6.018
 4850TIP3    H114493   0.537   4.551   5.982
 4850TIP3    H214494   0.675   4.517   6.034
 4851TIP3   OH214495   5.957   0.613   1.292
 4851TIP3    H114496   5.969   0.707   1.279
 4851TIP3    H214497   5.988   0.596   1.381
 4852TIP3   OH214498   6.405   1.439   6.508
 4852TIP3    H114499   6.482   1.417   6.455
 4852TIP3    H214500   6.425   1.524   6.546
 4853TIP3   OH214501   2.134   2.714   3.631
 4853TIP3    H114502   2.146   2.640   3.691
 4853TIP3    H214503   2.205   2.774   3.652
 4854TIP3   OH214504   2.314   3.847   2.240
 4854TIP3    H114505   2.257   3.902   2.294
 4854TIP3    H214506   2.319   3.764   2.288
 4855TIP3   OH214507   1.593   6.378   4.784
 4855TIP3    H114508   1.565   6.432   4.858
 4855TIP3    H214509   1.610   6.441   4.714
 4856TIP3   OH214510   5.805   6.319   2.043
 4856TIP3    H114511   5.880   6.303   2.101
 4856TIP3    H214512   5.741   6.251   2.068
 4857TIP3   OH214513   6.423   1.003   0.235
 4857TIP3    H114514   6.388   0.951   0.163
 4857TIP3    H214515   6.367   0.981   0.310
 4858TIP3   OH214516   2.057   4.511   3.725
 4858TIP3    H114517   2.116   4.441   3.755
 4858TIP3    H214518   2.014   4.474   3.648
 4859TIP3   OH214519   4.744   5.540   1.067
 4859TIP3    H114520   4.745   5.546   0.971
 4859TIP3    H214521   4.727   5.448   1.086
 4860TIP3   OH214522   6.819   2.255   2.397
 4860TIP3    H114523   6.854   2.188   2.456
 4860TIP3    H214524   6.827   2.337   2.447
 4861TIP3   OH214525   5.381   5.307   1.443
 4861TIP3    H114526   5.336   5.389   1.424
 4861TIP3    H214527   5.375   5.257   1.361
 4862TIP3   OH214528   2.051   1.450   6.609
 4862TIP3    H114529   2.020   1.441   6.518
 4862TIP3    H214530   2.037   1.542   6.630
 4863TIP3   OH214531   4.544   6.719   2.352
 4863TIP3    H114532   4.451   6.702   2.362
 4863TIP3    H214533   4.565   6.690   2.263
 4864TIP3   OH214534   3.522   7.450   1.416
 4864TIP3    H114535   3.452   7.451   1.350
 4864TIP3    H214536   3.590   7.507   1.380
 4865TIP3   OH214537   5.394   1.469   4.852
 4865TIP3    H114538   5.425   1.556   4.876
 4865TIP3    H214539   5.299   1.478   4.846
 4866TIP3   OH214540   7.612   5.155   5.509
 4866TIP3    H114541   7.563   5.154   5.427
 4866TIP3    H214542   7.561   5.212   5.567
 4867TIP3   OH214543   4.596   5.257   2.925
 4867TIP3    H114544   4.569   5.216   3.007
 4867TIP3    H214545   4.689   5.236   2.917
 4868TIP3   OH214546   0.252   0.709   3.653
 4868TIP3    H114547   0.333   0.703   3.602
 4868TIP3    H214548   0.279   0.751   3.735
 4869TIP3   OH214549   2.015   7.594   3.091
 4869TIP3    H114550   1.932   7.597   3.043
 4869TIP3    H214551   2.001   7.528   3.158
 4870TIP3   OH214552   8.088   3.137   6.206
 4870TIP3    H114553   8.077   3.125   6.300
 4870TIP3    H214554   8.041   3.063   6.167
 4871TIP3   OH214555   4.015   6.815   5.509
 4871TIP3    H114556   3.948   6.858   5.456
 4871TIP3    H214557   4.096   6.860   5.486
 4872TIP3   OH214558   5.024   3.233   6.488
 4872TIP3    H114559   4.985   3.146   6.498
 4872TIP3    H214560   5.057   3.255   6.575
 4873TIP3   OH214561   6.124   6.242   5.511
 4873TIP3    H114562   6.085   6.327   5.527
 4873TIP3    H214563   6.058   6.193   5.462
 4874TIP3   OH214564   6.668   1.846   2.489
 4874TIP3    H114565   6.635   1.777   2.547
 4874TIP3    H214566   6.650   1.928   2.536
 4875TIP3   OH214567   5.155   7.295   1.171
 4875TIP3    H114568   5.245   7.326   1.160
 4875TIP3    H214569   5.133   7.256   1.086
 4876TIP3   OH214570   0.736   2.343   0.384
 4876TIP3    H114571   0.695   2.429   0.378
 4876TIP3    H214572   0.764   2.337   0.476
 4877TIP3   OH214573   6.030   2.703   5.561
 4877TIP3    H114574   5.943   2.721   5.597
 4877TIP3    H214575   6.020   2.715   5.467
 4878TIP3   OH214576   0.628   2.064   3.816
 4878TIP3    H114577   0.701   2.126   3.821
 4878TIP3    H214578   0.654   1.991   3.872
 4879TIP3   OH214579   0.301   0.199   5.119
 4879TIP3    H114580   0.246   0.271   5.151
 4879TIP3    H214581   0.389   0.236   5.115
 4880TIP3   OH214582   1.684   1.544   0.431
 4880TIP3    H114583   1.628   1.487   0.484
 4880TIP3    H214584   1.773   1.520   0.456
 4881TIP3   OH214585   6.686   0.352   3.727
 4881TIP3    H114586   6.705   0.443   3.748
 4881TIP3    H214587   6.771   0.310   3.717
 4882TIP3   OH214588   2.641   4.574   3.914
 4882TIP3    H114589   2.721   4.522   3.905
 4882TIP3    H214590   2.576   4.525   3.863
 4883TIP3   OH214591   2.805   3.201   5.007
 4883TIP3    H114592   2.792   3.126   5.065
 4883TIP3    H214593   2.759   3.178   4.926
 4884TIP3   OH214594   7.098   6.404   5.269
 4884TIP3    H114595   7.106   6.498   5.257
 4884TIP3    H214596   7.042   6.394   5.346
 4885TIP3   OH214597   6.367   2.312   0.561
 4885TIP3    H114598   6.331   2.224   0.551
 4885TIP3    H214599   6.407   2.331   0.477
 4886TIP3   OH214600   8.257   2.339   4.033
 4886TIP3    H114601   8.232   2.415   3.980
 4886TIP3    H214602   8.341   2.363   4.071
 4887TIP3   OH214603   8.152   1.027   5.229
 4887TIP3    H114604   8.124   1.090   5.297
 4887TIP3    H214605   8.245   1.046   5.216
 4888TIP3   OH214606   5.468   3.619   0.412
 4888TIP3    H114607   5.436   3.579   0.331
 4888TIP3    H214608   5.418   3.575   0.481
 4889TIP3   OH214609   6.353   3.062   5.891
 4889TIP3    H114610   6.271   3.111   5.878
 4889TIP3    H214611   6.339   3.013   5.971
 4890TIP3   OH214612   5.891   6.309   5.111
 4890TIP3    H114613   5.897   6.297   5.206
 4890TIP3    H214614   5.818   6.253   5.084
 4891TIP3   OH214615   8.262   3.332   4.133
 4891TIP3    H114616   8.168   3.315   4.128
 4891TIP3    H214617   8.268   3.423   4.162
 4892TIP3   OH214618   2.815   2.737   5.292
 4892TIP3    H114619   2.823   2.643   5.307
 4892TIP3    H214620   2.722   2.752   5.278
 4893TIP3   OH214621   5.005   4.532   2.658
 4893TIP3    H114622   5.048   4.568   2.580
 4893TIP3    H214623   5.074   4.530   2.725
 4894TIP3   OH214624   2.987   5.698   3.576
 4894TIP3    H114625   2.967   5.705   3.669
 4894TIP3    H214626   3.059   5.635   3.571
 4895TIP3   OH214627   2.045   0.927   0.030
 4895TIP3    H114628   2.129   0.971   0.044
 4895TIP3    H214629   2.069   0.842  -0.008
 4896TIP3   OH214630   2.569   2.803   5.175
 4896TIP3    H114631   2.534   2.800   5.086
 4896TIP3    H214632   2.560   2.895   5.200
 4897TIP3   OH214633   0.383   5.673   3.420
 4897TIP3    H114634   0.422   5.637   3.340
 4897TIP3    H214635   0.429   5.756   3.433
 4898TIP3   OH214636   3.298   3.696   3.717
 4898TIP3    H114637   3.241   3.719   3.644
 4898TIP3    H214638   3.351   3.773   3.731
 4899TIP3   OH214639   5.372   4.339   5.666
 4899TIP3    H114640   5.343   4.355   5.756
 4899TIP3    H214641   5.446   4.279   5.675
 4900TIP3   OH214642   4.424   1.098   2.292
 4900TIP3    H114643   4.478   1.177   2.291
 4900TIP3    H214644   4.482   1.029   2.262
 4901TIP3   OH214645   3.568   3.226   0.477
 4901TIP3    H114646   3.636   3.164   0.451
 4901TIP3    H214647   3.551   3.205   0.569
 4902TIP3   OH214648   2.667   1.265   2.439
 4902TIP3    H114649   2.698   1.334   2.381
 4902TIP3    H214650   2.640   1.311   2.519
 4903TIP3   OH214651   5.477   1.288   6.000
 4903TIP3    H114652   5.560   1.279   5.953
 4903TIP3    H214653   5.415   1.319   5.934
 4904TIP3   OH214654   3.906   2.867   5.627
 4904TIP3    H114655   3.870   2.816   5.699
 4904TIP3    H214656   3.959   2.805   5.578
 4905TIP3   OH214657   8.116   7.674   3.581
 4905TIP3    H114658   8.109   7.601   3.520
 4905TIP3    H214659   8.052   7.653   3.650
 4906TIP3   OH214660   2.923   4.471   6.616
 4906TIP3    H114661   2.925   4.386   6.572
 4906TIP3    H214662   2.885   4.531   6.552
 4907TIP3   OH214663   7.197   5.193   4.106
 4907TIP3    H114664   7.190   5.244   4.187
 4907TIP3    H214665   7.125   5.131   4.111
 4908TIP3   OH214666   5.773   1.288   2.091
 4908TIP3    H114667   5.767   1.202   2.048
 4908TIP3    H214668   5.721   1.278   2.171
 4909TIP3   OH214669   2.942   5.165   3.081
 4909TIP3    H114670   3.000   5.089   3.077
 4909TIP3    H214671   2.854   5.128   3.084
 4910TIP3   OH214672   6.891   4.554   6.322
 4910TIP3    H114673   6.922   4.465   6.336
 4910TIP3    H214674   6.901   4.569   6.228
 4911TIP3   OH214675   1.578   2.390   5.239
 4911TIP3    H114676   1.601   2.350   5.323
 4911TIP3    H214677   1.499   2.344   5.211
 4912TIP3   OH214678   7.641   7.787   2.429
 4912TIP3    H114679   7.719   7.823   2.472
 4912TIP3    H214680   7.648   7.818   2.338
 4913TIP3   OH214681   7.389   5.335   0.875
 4913TIP3    H114682   7.440   5.331   0.956
 4913TIP3    H214683   7.343   5.419   0.881
 4914TIP3   OH214684   1.091   3.109   1.709
 4914TIP3    H114685   1.148   3.122   1.633
 4914TIP3    H214686   1.095   3.191   1.757
 4915TIP3   OH214687   2.128   1.213   5.259
 4915TIP3    H114688   2.206   1.255   5.223
 4915TIP3    H214689   2.058   1.277   5.246
 4916TIP3   OH214690   1.160   2.481   6.294
 4916TIP3    H114691   1.105   2.478   6.372
 4916TIP3    H214692   1.105   2.522   6.227
 4917TIP3   OH214693   0.652   5.306   4.992
 4917TIP3    H114694   0.740   5.277   4.969
 4917TIP3    H214695   0.649   5.398   4.965
 4918TIP3   OH214696   3.291   1.948   4.488
 4918TIP3    H114697   3.238   1.908   4.558
 4918TIP3    H214698   3.380   1.920   4.507
 4919TIP3   OH214699   2.634   4.612   0.136
 4919TIP3    H114700   2.630   4.537   0.195
 4919TIP3    H214701   2.542   4.637   0.122
 4920TIP3   OH214702   2.236   6.294   4.855
 4920TIP3    H114703   2.304   6.324   4.915
 4920TIP3    H214704   2.283   6.254   4.782
 4921TIP3   OH214705   6.482   0.544   6.155
 4921TIP3    H114706   6.519   0.473   6.102
 4921TIP3    H214707   6.427   0.499   6.220
 4922TIP3   OH214708   7.747   4.891   1.978
 4922TIP3    H114709   7.661   4.876   2.018
 4922TIP3    H214710   7.809   4.851   2.039
 4923TIP3   OH214711   6.166   3.029   0.561
 4923TIP3    H114712   6.126   3.083   0.630
 4923TIP3    H214713   6.156   3.080   0.481
 4924TIP3   OH214714   0.335   3.288   3.826
 4924TIP3    H114715   0.309   3.197   3.842
 4924TIP3    H214716   0.431   3.285   3.818
 4925TIP3   OH214717   2.792   4.028   0.354
 4925TIP3    H114718   2.853   4.102   0.364
 4925TIP3    H214719   2.824   3.962   0.415
 4926TIP3   OH214720   4.959   4.445   1.235
 4926TIP3    H114721   4.904   4.371   1.258
 4926TIP3    H214722   5.002   4.470   1.317
 4927TIP3   OH214723   4.001   5.470   3.391
 4927TIP3    H114724   4.032   5.557   3.416
 4927TIP3    H214725   4.060   5.409   3.436
 4928TIP3   OH214726   5.709   1.921   3.327
 4928TIP3    H114727   5.768   1.864   3.278
 4928TIP3    H214728   5.726   1.899   3.419
 4929TIP3   OH214729   5.470   2.072   1.157
 4929TIP3    H114730   5.556   2.081   1.115
 4929TIP3    H214731   5.453   2.159   1.193
 4930TIP3   OH214732   4.252   0.388   4.820
 4930TIP3    H114733   4.329   0.368   4.873
 4930TIP3    H214734   4.180   0.342   4.863
 4931TIP3   OH214735   5.487   4.862   5.696
 4931TIP3    H114736   5.547   4.937   5.692
 4931TIP3    H214737   5.496   4.819   5.611
 4932TIP3   OH214738   0.620   4.634   1.754
 4932TIP3    H114739   0.684   4.628   1.683
 4932TIP3    H214740   0.654   4.576   1.822
 4933TIP3   OH214741   3.365   0.906   2.012
 4933TIP3    H114742   3.413   0.918   2.094
 4933TIP3    H214743   3.321   0.990   1.998
 4934TIP3   OH214744   3.526   4.323   0.578
 4934TIP3    H114745   3.431   4.323   0.584
 4934TIP3    H214746   3.555   4.381   0.648
 4935TIP3   OH214747   0.311   4.578   4.330
 4935TIP3    H114748   0.264   4.642   4.276
 4935TIP3    H214749   0.373   4.537   4.270
 4936TIP3   OH214750   3.887   0.149   1.960
 4936TIP3    H114751   3.864   0.103   1.879
 4936TIP3    H214752   3.895   0.079   2.025
 4937TIP3   OH214753   2.687   2.101   0.579
 4937TIP3    H114754   2.750   2.080   0.509
 4937TIP3    H214755   2.604   2.114   0.533
 4938TIP3   OH214756   5.471   1.621   3.625
 4938TIP3    H114757   5.421   1.658   3.552
 4938TIP3    H214758   5.450   1.528   3.623
 4939TIP3   OH214759   7.327   3.811   0.942
 4939TIP3    H114760   7.267   3.829   0.870
 4939TIP3    H214761   7.322   3.717   0.956
 4940TIP3   OH214762   1.660   4.903   5.522
 4940TIP3    H114763   1.568   4.914   5.498
 4940TIP3    H214764   1.662   4.915   5.617
 4941TIP3   OH214765   0.368   2.545   1.887
 4941TIP3    H114766   0.322   2.618   1.845
 4941TIP3    H214767   0.459   2.573   1.891
 4942TIP3   OH214768   7.113   3.366   6.340
 4942TIP3    H114769   7.175   3.377   6.413
 4942TIP3    H214770   7.153   3.413   6.267
 4943TIP3   OH214771   3.924   4.663   3.961
 4943TIP3    H114772   3.997   4.640   3.904
 4943TIP3    H214773   3.886   4.580   3.986
 4944TIP3   OH214774   4.219   5.692   6.017
 4944TIP3    H114775   4.213   5.599   5.997
 4944TIP3    H214776   4.135   5.713   6.058
 4945TIP3   OH214777   1.386   1.654   5.609
 4945TIP3    H114778   1.381   1.583   5.674
 4945TIP3    H214779   1.317   1.714   5.633
 4946TIP3   OH214780   4.949   7.348   5.790
 4946TIP3    H114781   4.889   7.311   5.854
 4946TIP3    H214782   5.014   7.395   5.841
 4947TIP3   OH214783   5.503   7.552   0.407
 4947TIP3    H114784   5.566   7.480   0.416
 4947TIP3    H214785   5.471   7.545   0.317
 4948TIP3   OH214786   7.623   1.380   4.838
 4948TIP3    H114787   7.558   1.377   4.768
 4948TIP3    H214788   7.597   1.455   4.891
 4949TIP3   OH214789   7.540   3.062   4.954
 4949TIP3    H114790   7.618   3.008   4.966
 4949TIP3    H214791   7.466   3.002   4.969
 4950TIP3   OH214792   3.231   6.183   3.224
 4950TIP3    H114793   3.217   6.091   3.204
 4950TIP3    H214794   3.294   6.183   3.296
 4951TIP3   OH214795   4.350   2.964   1.340
 4951TIP3    H114796   4.387   2.947   1.254
 4951TIP3    H214797   4.329   2.878   1.375
 4952TIP3   OH214798   3.869   4.190   4.954
 4952TIP3    H114799   3.941   4.136   4.922
 4952TIP3    H214800   3.854   4.254   4.885
 4953TIP3   OH214801   3.670   2.822   6.326
 4953TIP3    H114802   3.621   2.901   6.306
 4953TIP3    H214803   3.710   2.796   6.243
 4954TIP3   OH214804   1.321   7.543   2.655
 4954TIP3    H114805   1.331   7.448   2.666
 4954TIP3    H214806   1.258   7.552   2.583
 4955TIP3   OH214807   5.064   2.648   4.455
 4955TIP3    H114808   5.008   2.620   4.382
 4955TIP3    H214809   5.117   2.719   4.418
 4956TIP3   OH214810   1.158   6.083   1.341
 4956TIP3    H114811   1.219   6.010   1.351
 4956TIP3    H214812   1.163   6.106   1.248
 4957TIP3   OH214813   7.664   3.249   4.772
 4957TIP3    H114814   7.631   3.260   4.682
 4957TIP3    H214815   7.597   3.196   4.815
 4958TIP3   OH214816   1.842   6.241   4.808
 4958TIP3    H114817   1.765   6.292   4.832
 4958TIP3    H214818   1.865   6.272   4.720
 4959TIP3   OH214819   0.428   6.242   6.715
 4959TIP3    H114820   0.397   6.258   6.625
 4959TIP3    H214821   0.459   6.328   6.745
 4960TIP3   OH214822   6.150   7.023   4.842
 4960TIP3    H114823   6.246   7.028   4.839
 4960TIP3    H214824   6.129   7.038   4.934
 4961TIP3   OH214825   1.565   3.468   2.200
 4961TIP3    H114826   1.612   3.537   2.248
 4961TIP3    H214827   1.567   3.497   2.109
 4962TIP3   OH214828   6.075   6.496   4.529
 4962TIP3    H114829   6.153   6.540   4.563
 4962TIP3    H214830   6.020   6.481   4.606
 4963TIP3   OH214831   6.412   4.613   6.266
 4963TIP3    H114832   6.490   4.610   6.321
 4963TIP3    H214833   6.442   4.589   6.179
 4964TIP3   OH214834   2.562   4.576   4.168
 4964TIP3    H114835   2.473   4.602   4.191
 4964TIP3    H214836   2.569   4.594   4.075
 4965TIP3   OH214837   6.613   5.380   3.353
 4965TIP3    H114838   6.554   5.453   3.336
 4965TIP3    H214839   6.568   5.327   3.418
 4966TIP3   OH214840   6.968   2.769   4.744
 4966TIP3    H114841   7.048   2.797   4.789
 4966TIP3    H214842   6.897   2.804   4.798
 4967TIP3   OH214843   2.210   3.831   0.617
 4967TIP3    H114844   2.242   3.744   0.642
 4967TIP3    H214845   2.289   3.882   0.602
 4968TIP3   OH214846   1.245   4.840   2.730
 4968TIP3    H114847   1.177   4.883   2.781
 4968TIP3    H214848   1.202   4.764   2.691
 4969TIP3   OH214849   1.783   3.578   5.696
 4969TIP3    H114850   1.713   3.561   5.760
 4969TIP3    H214851   1.845   3.507   5.709
 4970TIP3   OH214852   0.021   2.893   4.197
 4970TIP3    H114853   0.116   2.883   4.203
 4970TIP3    H214854   0.006   2.985   4.218
 4971TIP3   OH214855   1.515   6.530   4.553
 4971TIP3    H114856   1.551   6.606   4.597
 4971TIP3    H214857   1.517   6.552   4.460
 4972TIP3   OH214858   2.559   0.262   0.753
 4972TIP3    H114859   2.618   0.306   0.814
 4972TIP3    H214860   2.570   0.309   0.670
 4973TIP3   OH214861   4.199   6.451   3.821
 4973TIP3    H114862   4.160   6.497   3.746
 4973TIP3    H214863   4.182   6.508   3.896
 4974TIP3   OH214864   3.519   4.068   2.241
 4974TIP3    H114865   3.524   4.034   2.152
 4974TIP3    H214866   3.445   4.129   2.239
 4975TIP3   OH214867   5.469   1.692   0.118
 4975TIP3    H114868   5.383   1.709   0.158
 4975TIP3    H214869   5.526   1.758   0.156
 4976TIP3   OH214870   4.630   4.967   0.390
 4976TIP3    H114871   4.560   4.913   0.428
 4976TIP3    H214872   4.623   5.050   0.438
 4977TIP3   OH214873   5.087   5.826   0.336
 4977TIP3    H114874   5.156   5.877   0.377
 4977TIP3    H214875   5.112   5.735   0.352
 4978TIP3   OH214876   4.809   4.311   0.641
 4978TIP3    H114877   4.819   4.261   0.722
 4978TIP3    H214878   4.715   4.326   0.634
 4979TIP3   OH214879   4.278   1.688   6.260
 4979TIP3    H114880   4.186   1.716   6.255
 4979TIP3    H214881   4.299   1.659   6.171
 4980TIP3   OH214882   0.928   2.177   4.121
 4980TIP3    H114883   0.871   2.249   4.147
 4980TIP3    H214884   1.016   2.204   4.149
 4981TIP3   OH214885   4.296   7.669   1.529
 4981TIP3    H114886   4.218   7.698   1.575
 4981TIP3    H214887   4.264   7.637   1.445
 4982TIP3   OH214888   0.314   2.192   4.175
 4982TIP3    H114889   0.393   2.222   4.220
 4982TIP3    H214890   0.347   2.132   4.107
 4983TIP3   OH214891   4.968   5.752   2.804
 4983TIP3    H114892   5.009   5.752   2.890
 4983TIP3    H214893   5.037   5.723   2.744
 4984TIP3   OH214894   2.473   5.320   6.676
 4984TIP3    H114895   2.531   5.366   6.616
 4984TIP3    H214896   2.386   5.326   6.635
 4985TIP3   OH214897   6.032   5.151   6.153
 4985TIP3    H114898   6.026   5.097   6.232
 4985TIP3    H214899   6.070   5.233   6.183
 4986TIP3   OH214900   2.521   3.535   0.366
 4986TIP3    H114901   2.612   3.558   0.349
 4986TIP3    H214902   2.470   3.595   0.312
 4987TIP3   OH214903   1.690   1.137   4.692
 4987TIP3    H114904   1.732   1.159   4.609
 4987TIP3    H214905   1.726   1.199   4.755
 4988TIP3   OH214906   3.165   3.639   0.141
 4988TIP3    H114907   3.219   3.596   0.207
 4988TIP3    H214908   3.135   3.568   0.084
 4989TIP3   OH214909   2.823   7.537   5.400
 4989TIP3    H114910   2.758   7.585   5.451
 4989TIP3    H214911   2.874   7.489   5.465
 4990TIP3   OH214912   1.830   7.850   6.100
 4990TIP3    H114913   1.874   7.797   6.166
 4990TIP3    H214914   1.869   7.823   6.017
 4991TIP3   OH214915   3.942   3.852   5.192
 4991TIP3    H114916   3.868   3.881   5.246
 4991TIP3    H214917   3.902   3.802   5.121
 4992TIP3   OH214918   5.013   4.397   2.940
 4992TIP3    H114919   4.925   4.365   2.959
 4992TIP3    H214920   5.036   4.355   2.857
 4993TIP3   OH214921   7.208   2.688   4.496
 4993TIP3    H114922   7.120   2.684   4.460
 4993TIP3    H214923   7.247   2.765   4.455
 4994TIP3   OH214924   0.006   4.441   6.397
 4994TIP3    H114925  -0.062   4.442   6.329
 4994TIP3    H214926   0.088   4.450   6.349
 4995TIP3   OH214927   5.051   6.622   5.964
 4995TIP3    H114928   4.988   6.572   5.912
 4995TIP3    H214929   5.009   6.632   6.049
 4996TIP3   OH214930   0.082   7.352   1.672
 4996TIP3    H114931   0.141   7.342   1.597
 4996TIP3    H214932   0.121   7.423   1.724
 4997TIP3   OH214933   3.007   3.069   5.441
 4997TIP3    H114934   3.007   3.009   5.515
 4997TIP3    H214935   3.063   3.141   5.469
 4998TIP3   OH214936   7.429   3.750   3.357
 4998TIP3    H114937   7.523   3.768   3.357
 4998TIP3    H214938   7.391   3.825   3.404
 4999TIP3   OH214939   8.115   6.529   6.452
 4999TIP3    H114940   8.182   6.487   6.506
 4999TIP3    H214941   8.040   6.470   6.456
 5000TIP3   OH214942   3.171   1.969   1.811
 5000TIP3    H114943   3.091   1.974   1.863
 5000TIP3    H214944   3.144   1.996   1.723
 5001TIP3   OH214945   4.823   0.197   4.267
 5001TIP3    H114946   4.746   0.251   4.277
 5001TIP3    H214947   4.789   0.108   4.258
 5002TIP3   OH214948   5.010   7.605   4.105
 5002TIP3    H114949   4.919   7.579   4.118
 5002TIP3    H214950   5.014   7.630   4.012
 5003TIP3   OH214951   8.084   0.876   6.565
 5003TIP3    H114952   8.073   0.914   6.478
 5003TIP3    H214953   8.086   0.781   6.550
 5004TIP3   OH214954   2.501   3.524   5.510
 5004TIP3    H114955   2.588   3.540   5.474
 5004TIP3    H214956   2.452   3.604   5.493
 5005TIP3   OH214957   7.487   1.019   2.570
 5005TIP3    H114958   7.423   0.956   2.537
 5005TIP3    H214959   7.558   1.017   2.506
 5006TIP3   OH214960   2.279   0.877   0.991
 5006TIP3    H114961   2.276   0.789   0.953
 5006TIP3    H214962   2.188   0.896   1.014
 5007TIP3   OH214963   2.843   0.873   0.365
 5007TIP3    H114964   2.759   0.830   0.348
 5007TIP3    H214965   2.874   0.900   0.278
 5008TIP3   OH214966   5.882   0.616   4.693
 5008TIP3    H114967   5.936   0.683   4.735
 5008TIP3    H214968   5.927   0.534   4.711
 5009TIP3   OH214969   1.039   0.361   5.351
 5009TIP3    H114970   1.031   0.317   5.436
 5009TIP3    H214971   1.031   0.454   5.371
 5010TIP3   OH214972   7.839   3.573   4.909
 5010TIP3    H114973   7.876   3.639   4.968
 5010TIP3    H214974   7.782   3.520   4.965
 5011TIP3   OH214975   8.219   3.203   4.946
 5011TIP3    H114976   8.267   3.143   4.889
 5011TIP3    H214977   8.189   3.148   5.019
 5012TIP3   OH214978   3.991   7.594   0.220
 5012TIP3    H114979   4.057   7.650   0.179
 5012TIP3    H214980   3.969   7.640   0.302
 5013TIP3   OH214981   3.692   1.480   3.125
 5013TIP3    H114982   3.735   1.408   3.171
 5013TIP3    H214983   3.607   1.489   3.168
 5014TIP3   OH214984   6.528   1.743   1.305
 5014TIP3    H114985   6.443   1.711   1.335
 5014TIP3    H214986   6.586   1.667   1.312
 5015TIP3   OH214987   1.519   1.107   4.090
 5015TIP3    H114988   1.590   1.117   4.153
 5015TIP3    H214989   1.446   1.074   4.141
 5016TIP3   OH214990   3.047   0.527   4.633
 5016TIP3    H114991   3.097   0.572   4.565
 5016TIP3    H214992   3.083   0.559   4.715
 5017TIP3   OH214993   8.154   4.482   2.625
 5017TIP3    H114994   8.143   4.449   2.714
 5017TIP3    H214995   8.159   4.403   2.570
 5018TIP3   OH214996   3.559   6.950   2.464
 5018TIP3    H114997   3.603   6.874   2.501
 5018TIP3    H214998   3.569   7.018   2.531
 5019TIP3   OH214999   2.153   4.112   5.933
 5019TIP3    H115000   2.103   4.186   5.900
 5019TIP3    H215001   2.172   4.058   5.856
 5020TIP3   OH215002   3.783   4.512   5.865
 5020TIP3    H115003   3.794   4.584   5.803
 5020TIP3    H215004   3.790   4.433   5.812
 5021TIP3   OH215005   0.105   2.213   4.995
 5021TIP3    H115006   0.037   2.146   5.002
 5021TIP3    H215007   0.057   2.295   4.983
 5022TIP3   OH215008   0.173   5.990   5.813
 5022TIP3    H115009   0.173   5.906   5.768
 5022TIP3    H215010   0.266   6.010   5.827
 5023TIP3   OH215011   1.797   6.355   2.752
 5023TIP3    H115012   1.845   6.424   2.706
 5023TIP3    H215013   1.842   6.348   2.837
 5024TIP3   OH215014   5.895   0.985   5.110
 5024TIP3    H115015   5.856   1.054   5.163
 5024TIP3    H215016   5.842   0.983   5.030
 5025TIP3   OH215017   5.092   5.741   1.865
 5025TIP3    H115018   5.049   5.709   1.945
 5025TIP3    H215019   5.046   5.822   1.844
 5026TIP3   OH215020   0.414   5.902   1.231
 5026TIP3    H115021   0.337   5.861   1.192
 5026TIP3    H215022   0.382   5.945   1.310
 5027TIP3   OH215023   2.748   1.165   0.510
 5027TIP3    H115024   2.782   1.081   0.477
 5027TIP3    H215025   2.657   1.147   0.532
 5028TIP3   OH215026   1.045   2.579   4.203
 5028TIP3    H115027   1.104   2.653   4.190
 5028TIP3    H215028   0.959   2.612   4.177
 5029TIP3   OH215029   5.930   0.357   4.880
 5029TIP3    H115030   6.006   0.311   4.916
 5029TIP3    H215031   5.901   0.414   4.951
 5030TIP3   OH215032   2.127   2.401   6.757
 5030TIP3    H115033   2.133   2.495   6.772
 5030TIP3    H215034   2.187   2.363   6.822
 5031TIP3   OH215035   5.388   4.081   1.887
 5031TIP3    H115036   5.331   4.112   1.818
 5031TIP3    H215037   5.476   4.109   1.860
 5032TIP3   OH215038   3.268   6.288   3.767
 5032TIP3    H115039   3.257   6.268   3.674
 5032TIP3    H215040   3.189   6.254   3.809
 5033TIP3   OH215041   2.768   6.994   0.061
 5033TIP3    H115042   2.753   7.064  -0.003
 5033TIP3    H215043   2.858   7.010   0.092
 5034TIP3   OH215044   7.868   7.468   2.953
 5034TIP3    H115045   7.781   7.508   2.955
 5034TIP3    H215046   7.871   7.421   2.870
 5035TIP3   OH215047   4.323   3.871   0.039
 5035TIP3    H115048   4.378   3.804  -0.002
 5035TIP3    H215049   4.256   3.822   0.087
 5036TIP3   OH215050   6.455   2.033   0.341
 5036TIP3    H115051   6.412   2.053   0.424
 5036TIP3    H215052   6.496   2.116   0.314
 5037TIP3   OH215053   5.630   6.383   1.444
 5037TIP3    H115054   5.634   6.345   1.357
 5037TIP3    H215055   5.574   6.323   1.494
 5038TIP3   OH215056   7.834   0.508   2.073
 5038TIP3    H115057   7.912   0.512   2.018
 5038TIP3    H215058   7.863   0.463   2.153
 5039TIP3   OH215059   2.849   4.662   4.265
 5039TIP3    H115060   2.851   4.746   4.310
 5039TIP3    H215061   2.920   4.667   4.201
 5040TIP3   OH215062   3.830   5.518   6.402
 5040TIP3    H115063   3.890   5.533   6.475
 5040TIP3    H215064   3.743   5.522   6.441
 5041TIP3   OH215065   7.649   1.645   2.187
 5041TIP3    H115066   7.744   1.635   2.182
 5041TIP3    H215067   7.615   1.560   2.160
 5042TIP3   OH215068   3.192   2.894   2.369
 5042TIP3    H115069   3.107   2.850   2.361
 5042TIP3    H215070   3.226   2.896   2.280
 5043TIP3   OH215071   5.296   5.227   4.195
 5043TIP3    H115072   5.221   5.275   4.230
 5043TIP3    H215073   5.322   5.169   4.266
 5044TIP3   OH215074   7.947   0.061   4.110
 5044TIP3    H115075   7.911   0.149   4.100
 5044TIP3    H215076   8.040   0.070   4.089
 5045TIP3   OH215077   2.398   3.914   5.214
 5045TIP3    H115078   2.478   3.871   5.181
 5045TIP3    H215079   2.401   4.002   5.176
 5046TIP3   OH215080   8.140   0.921   2.080
 5046TIP3    H115081   8.090   0.923   2.162
 5046TIP3    H215082   8.224   0.960   2.103
 5047TIP3   OH215083   6.553   0.993   6.446
 5047TIP3    H115084   6.578   1.032   6.362
 5047TIP3    H215085   6.549   0.899   6.429
 5048TIP3   OH215086   6.961   2.216   3.643
 5048TIP3    H115087   6.900   2.193   3.713
 5048TIP3    H215088   7.033   2.261   3.688
 5049TIP3   OH215089   0.693   6.837   3.797
 5049TIP3    H115090   0.744   6.917   3.788
 5049TIP3    H215091   0.713   6.805   3.885
 5050TIP3   OH215092   0.074   5.010   6.494
 5050TIP3    H115093   0.089   4.921   6.463
 5050TIP3    H215094   0.061   5.001   6.588
 5051TIP3   OH215095   1.379   7.127   2.920
 5051TIP3    H115096   1.412   7.064   2.856
 5051TIP3    H215097   1.345   7.072   2.992
 5052TIP3   OH215098   0.115   1.405   3.017
 5052TIP3    H115099   0.088   1.386   2.927
 5052TIP3    H215100   0.034   1.431   3.061
 5053TIP3   OH215101   1.212   6.131   0.503
 5053TIP3    H115102   1.290   6.078   0.486
 5053TIP3    H215103   1.228   6.212   0.454
 5054TIP3   OH215104   6.677   6.040   4.658
 5054TIP3    H115105   6.699   5.979   4.729
 5054TIP3    H215106   6.599   6.002   4.618
 5055TIP3   OH215107   4.961   7.755   3.052
 5055TIP3    H115108   4.894   7.686   3.047
 5055TIP3    H215109   5.042   7.712   3.024
 5056TIP3   OH215110   4.661   0.122   0.384
 5056TIP3    H115111   4.587   0.072   0.348
 5056TIP3    H215112   4.651   0.210   0.348
 5057TIP3   OH215113   5.298   0.228   4.852
 5057TIP3    H115114   5.244   0.160   4.892
 5057TIP3    H215115   5.238   0.300   4.834
 5058TIP3   OH215116   2.048   7.666   0.032
 5058TIP3    H115117   1.979   7.599   0.029
 5058TIP3    H215118   2.026   7.725  -0.040
 5059TIP3   OH215119   6.064   7.122   1.551
 5059TIP3    H115120   6.085   7.173   1.473
 5059TIP3    H215121   6.127   7.152   1.617
 5060TIP3   OH215122   4.738   2.685   3.788
 5060TIP3    H115123   4.665   2.712   3.843
 5060TIP3    H215124   4.719   2.722   3.701
 5061TIP3   OH215125   2.372   7.738   6.499
 5061TIP3    H115126   2.364   7.677   6.426
 5061TIP3    H215127   2.326   7.817   6.470
 5062TIP3   OH215128   5.842   6.281   3.750
 5062TIP3    H115129   5.861   6.197   3.709
 5062TIP3    H215130   5.877   6.274   3.839
 5063TIP3   OH215131   7.521   3.423   3.684
 5063TIP3    H115132   7.612   3.406   3.707
 5063TIP3    H215133   7.527   3.478   3.605
 5064TIP3   OH215134   0.743   2.610   3.380
 5064TIP3    H115135   0.758   2.518   3.360
 5064TIP3    H215136   0.665   2.610   3.435
 5065TIP3   OH215137   6.286   0.413   0.970
 5065TIP3    H115138   6.246   0.460   0.896
 5065TIP3    H215139   6.215   0.403   1.033
 5066TIP3   OH215140   8.213   6.206   4.897
 5066TIP3    H115141   8.124   6.193   4.929
 5066TIP3    H215142   8.220   6.149   4.820
 5067TIP3   OH215143   3.467   1.101   4.836
 5067TIP3    H115144   3.385   1.149   4.849
 5067TIP3    H215145   3.533   1.169   4.821
 5068TIP3   OH215146   6.584   5.777   5.246
 5068TIP3    H115147   6.505   5.747   5.202
 5068TIP3    H215148   6.567   5.762   5.339
 5069TIP3   OH215149   7.389   6.248   2.405
 5069TIP3    H115150   7.327   6.288   2.466
 5069TIP3    H215151   7.433   6.323   2.364
 5070TIP3   OH215152   2.908   1.064   2.819
 5070TIP3    H115153   2.989   1.012   2.817
 5070TIP3    H215154   2.919   1.122   2.894
 5071TIP3   OH215155   6.746   4.695   0.435
 5071TIP3    H115156   6.791   4.617   0.469
 5071TIP3    H215157   6.701   4.731   0.511
 5072TIP3   OH215158   5.891   0.540   3.874
 5072TIP3    H115159   5.819   0.529   3.937
 5072TIP3    H215160   5.970   0.545   3.928
 5073TIP3   OH215161   7.277   5.681   6.119
 5073TIP3    H115162   7.315   5.766   6.141
 5073TIP3    H215163   7.183   5.692   6.135
 5074TIP3   OH215164   3.072   2.507   2.553
 5074TIP3    H115165   3.130   2.454   2.608
 5074TIP3    H215166   3.077   2.465   2.467
 5075TIP3   OH215167   3.541   6.063   1.387
 5075TIP3    H115168   3.509   6.108   1.309
 5075TIP3    H215169   3.593   5.990   1.353
 5076TIP3   OH215170   3.953   5.785   1.825
 5076TIP3    H115171   3.902   5.784   1.906
 5076TIP3    H215172   3.889   5.763   1.757
 5077TIP3   OH215173   7.598   2.418   6.194
 5077TIP3    H115174   7.560   2.484   6.136
 5077TIP3    H215175   7.572   2.335   6.155
 5078TIP3   OH215176   3.192   2.097   0.011
 5078TIP3    H115177   3.161   2.009  -0.011
 5078TIP3    H215178   3.219   2.135  -0.072
 5079TIP3   OH215179   7.144   3.658   4.800
 5079TIP3    H115180   7.187   3.626   4.721
 5079TIP3    H215181   7.202   3.632   4.872
 5080TIP3   OH215182   6.354   6.298   4.160
 5080TIP3    H115183   6.305   6.322   4.239
 5080TIP3    H215184   6.445   6.292   4.189
 5081TIP3   OH215185   1.106   6.384   0.099
 5081TIP3    H115186   1.106   6.451   0.031
 5081TIP3    H215187   1.175   6.323   0.073
 5082TIP3   OH215188   4.310   1.812   4.992
 5082TIP3    H115189   4.258   1.891   4.978
 5082TIP3    H215190   4.271   1.747   4.934
 5083TIP3   OH215191   6.759   2.240   2.931
 5083TIP3    H115192   6.847   2.229   2.967
 5083TIP3    H215193   6.769   2.221   2.837
 5084TIP3   OH215194   7.024   7.204   0.576
 5084TIP3    H115195   6.987   7.195   0.488
 5084TIP3    H215196   6.997   7.291   0.605
 5085TIP3   OH215197   7.122   3.158   0.054
 5085TIP3    H115198   7.126   3.217   0.128
 5085TIP3    H215199   7.034   3.121   0.057
 5086TIP3   OH215200   3.757   2.719   1.558
 5086TIP3    H115201   3.686   2.745   1.617
 5086TIP3    H215202   3.749   2.778   1.483
 5087TIP3   OH215203   4.848   3.518   0.394
 5087TIP3    H115204   4.840   3.569   0.314
 5087TIP3    H215205   4.817   3.430   0.369
 5088TIP3   OH215206   5.087   2.070   2.230
 5088TIP3    H115207   5.123   2.151   2.193
 5088TIP3    H215208   5.071   2.013   2.155
 5089TIP3   OH215209   5.582   5.215   6.548
 5089TIP3    H115210   5.665   5.207   6.596
 5089TIP3    H215211   5.567   5.309   6.541
 5090TIP3   OH215212   0.128   4.754   6.403
 5090TIP3    H115213   0.067   4.716   6.466
 5090TIP3    H215214   0.182   4.680   6.375
 5091TIP3   OH215215   0.028   7.532   2.200
 5091TIP3    H115216   0.054   7.610   2.249
 5091TIP3    H215217   0.046   7.460   2.260
 5092TIP3   OH215218   2.961   3.715   5.034
 5092TIP3    H115219   2.917   3.631   5.022
 5092TIP3    H215220   2.893   3.780   5.015
 5093TIP3   OH215221   5.953   0.217   1.890
 5093TIP3    H115222   5.873   0.221   1.837
 5093TIP3    H215223   5.937   0.279   1.961
 5094TIP3   OH215224   7.789   4.726   0.301
 5094TIP3    H115225   7.881   4.716   0.277
 5094TIP3    H215226   7.749   4.641   0.282
 5095TIP3   OH215227   0.179   3.023   2.879
 5095TIP3    H115228   0.238   2.959   2.920
 5095TIP3    H215229   0.170   2.992   2.789
 5096TIP3   OH215230   8.112   1.773   0.030
 5096TIP3    H115231   8.070   1.722   0.099
 5096TIP3    H215232   8.059   1.757  -0.048
 5097TIP3   OH215233   2.902   3.502   2.909
 5097TIP3    H115234   2.896   3.598   2.906
 5097TIP3    H215235   2.812   3.472   2.898
 5098TIP3   OH215236   4.299   3.409   2.047
 5098TIP3    H115237   4.301   3.500   2.075
 5098TIP3    H215238   4.207   3.391   2.029
 5099TIP3   OH215239   3.672   6.217   6.562
 5099TIP3    H115240   3.709   6.131   6.579
 5099TIP3    H215241   3.710   6.244   6.478
 5100TIP3   OH215242   3.879   0.823   2.554
 5100TIP3    H115243   3.897   0.871   2.635
 5100TIP3    H215244   3.966   0.810   2.514
 5101TIP3   OH215245   4.257   1.928   3.519
 5101TIP3    H115246   4.193   1.895   3.583
 5101TIP3    H215247   4.271   1.854   3.459
 5102TIP3   OH215248   6.814   0.941   2.604
 5102TIP3    H115249   6.839   0.849   2.600
 5102TIP3    H215250   6.788   0.955   2.695
 5103TIP3   OH215251   7.927   0.265   5.358
 5103TIP3    H115252   7.909   0.205   5.431
 5103TIP3    H215253   7.842   0.279   5.317
 5104TIP3   OH215254   1.932   2.769   1.955
 5104TIP3    H115255   1.861   2.820   1.918
 5104TIP3    H215256   1.957   2.815   2.035
 5105TIP3   OH215257   8.054   1.091   6.724
 5105TIP3    H115258   7.964   1.079   6.753
 5105TIP3    H215259   8.075   1.010   6.677
 5106TIP3   OH215260   7.041   3.362   0.236
 5106TIP3    H115261   6.974   3.415   0.280
 5106TIP3    H215262   7.123   3.405   0.258
 5107TIP3   OH215263   5.289   3.614   1.881
 5107TIP3    H115264   5.384   3.609   1.891
 5107TIP3    H215265   5.256   3.532   1.918
 5108TIP3   OH215266   8.015   7.615   4.215
 5108TIP3    H115267   7.966   7.675   4.271
 5108TIP3    H215268   8.081   7.670   4.172
 5109TIP3   OH215269   4.746   4.723   1.228
 5109TIP3    H115270   4.701   4.798   1.267
 5109TIP3    H215271   4.730   4.733   1.134
 5110TIP3   OH215272   1.524   3.406   3.170
 5110TIP3    H115273   1.599   3.465   3.183
 5110TIP3    H215274   1.516   3.398   3.075
 5111TIP3   OH215275   1.254   7.413   2.200
 5111TIP3    H115276   1.282   7.343   2.141
 5111TIP3    H215277   1.166   7.437   2.170
 5112TIP3   OH215278   2.393   4.832   2.739
 5112TIP3    H115279   2.415   4.914   2.695
 5112TIP3    H215280   2.453   4.767   2.701
 5113TIP3   OH215281   2.389   6.060   1.886
 5113TIP3    H115282   2.390   6.130   1.951
 5113TIP3    H215283   2.343   6.098   1.811
 5114TIP3   OH215284   4.385   0.405   6.384
 5114TIP3    H115285   4.367   0.456   6.463
 5114TIP3    H215286   4.366   0.315   6.409
 5115TIP3   OH215287   2.860   7.192   2.353
 5115TIP3    H115288   2.877   7.156   2.266
 5115TIP3    H215289   2.786   7.251   2.340
 5116TIP3   OH215290   0.553   0.411   2.991
 5116TIP3    H115291   0.472   0.459   2.973
 5116TIP3    H215292   0.574   0.432   3.082
 5117TIP3   OH215293   2.960   7.376   1.861
 5117TIP3    H115294   2.937   7.329   1.780
 5117TIP3    H215295   2.978   7.466   1.832
 5118TIP3   OH215296   4.477   5.834   5.086
 5118TIP3    H115297   4.409   5.894   5.117
 5118TIP3    H215298   4.476   5.762   5.149
 5119TIP3   OH215299   2.298   3.315   4.522
 5119TIP3    H115300   2.258   3.239   4.565
 5119TIP3    H215301   2.292   3.295   4.429
 5120TIP3   OH215302   2.547   5.960   2.307
 5120TIP3    H115303   2.470   5.964   2.363
 5120TIP3    H215304   2.560   5.867   2.290
 5121TIP3   OH215305   1.315   4.629   6.575
 5121TIP3    H115306   1.295   4.655   6.485
 5121TIP3    H215307   1.363   4.704   6.611
 5122TIP3   OH215308   3.843   6.561   4.033
 5122TIP3    H115309   3.796   6.618   4.094
 5122TIP3    H215310   3.791   6.563   3.953
 5123TIP3   OH215311   6.037   0.171   0.123
 5123TIP3    H115312   5.984   0.107   0.077
 5123TIP3    H215313   5.981   0.204   0.193
 5124TIP3   OH215314   1.184   1.489   1.184
 5124TIP3    H115315   1.262   1.518   1.137
 5124TIP3    H215316   1.188   1.534   1.268
 5125TIP3   OH215317   2.161   4.340  -0.006
 5125TIP3    H115318   2.153   4.313   0.086
 5125TIP3    H215319   2.254   4.363  -0.016
 5126TIP3   OH215320   0.988   1.764   0.847
 5126TIP3    H115321   1.003   1.844   0.899
 5126TIP3    H215322   0.917   1.719   0.892
 5127TIP3   OH215323   7.876   7.247   2.754
 5127TIP3    H115324   7.923   7.166   2.735
 5127TIP3    H215325   7.921   7.313   2.700
 5128TIP3   OH215326   4.490   7.632   0.153
 5128TIP3    H115327   4.436   7.703   0.187
 5128TIP3    H215328   4.578   7.669   0.149
 5129TIP3   OH215329   6.256   0.958   2.627
 5129TIP3    H115330   6.167   0.934   2.653
 5129TIP3    H215331   6.307   0.878   2.639
 5130TIP3   OH215332   6.521   0.958   1.640
 5130TIP3    H115333   6.553   1.026   1.580
 5130TIP3    H215334   6.447   0.918   1.595
 5131TIP3   OH215335   1.688   3.505   4.951
 5131TIP3    H115336   1.652   3.547   4.872
 5131TIP3    H215337   1.736   3.429   4.918
 5132TIP3   OH215338   0.131   3.227   5.477
 5132TIP3    H115339   0.155   3.315   5.450
 5132TIP3    H215340   0.204   3.199   5.533
 5133TIP3   OH215341   0.911   4.335   2.182
 5133TIP3    H115342   0.832   4.300   2.142
 5133TIP3    H215343   0.964   4.257   2.203
 5134TIP3   OH215344   4.636   3.846   1.341
 5134TIP3    H115345   4.726   3.814   1.348
 5134TIP3    H215346   4.634   3.893   1.257
 5135TIP3   OH215347   6.118   6.737   6.049
 5135TIP3    H115348   6.028   6.764   6.067
 5135TIP3    H215349   6.152   6.804   5.989
 5136TIP3   OH215350   0.859   4.930   3.772
 5136TIP3    H115351   0.771   4.958   3.794
 5136TIP3    H215352   0.867   4.842   3.811
 5137TIP3   OH215353   1.149   3.842   6.136
 5137TIP3    H115354   1.155   3.794   6.054
 5137TIP3    H215355   1.212   3.913   6.128
 5138TIP3   OH215356   2.047   0.329   1.514
 5138TIP3    H115357   2.093   0.334   1.597
 5138TIP3    H215358   1.959   0.362   1.533
 5139TIP3   OH215359   6.874   1.960   1.953
 5139TIP3    H115360   6.894   1.887   2.011
 5139TIP3    H215361   6.860   2.034   2.013
 5140TIP3   OH215362   7.838   1.485   6.259
 5140TIP3    H115363   7.803   1.467   6.172
 5140TIP3    H215364   7.922   1.528   6.242
 5141TIP3   OH215365   7.656   6.299   4.151
 5141TIP3    H115366   7.651   6.357   4.226
 5141TIP3    H215367   7.645   6.356   4.075
 5142TIP3   OH215368   3.285   1.276   2.815
 5142TIP3    H115369   3.328   1.361   2.818
 5142TIP3    H215370   3.194   1.296   2.791
 5143TIP3   OH215371   3.181   4.032   4.149
 5143TIP3    H115372   3.115   3.967   4.124
 5143TIP3    H215373   3.213   4.001   4.234
 5144TIP3   OH215374   4.631   3.459   4.854
 5144TIP3    H115375   4.616   3.377   4.902
 5144TIP3    H215376   4.682   3.513   4.914
 5145TIP3   OH215377   6.515   6.331   0.422
 5145TIP3    H115378   6.562   6.396   0.474
 5145TIP3    H215379   6.561   6.329   0.338
 5146TIP3   OH215380   6.416   0.478   6.431
 5146TIP3    H115381   6.450   0.390   6.447
 5146TIP3    H215382   6.335   0.483   6.481
 5147TIP3   OH215383   3.260   6.689   5.158
 5147TIP3    H115384   3.316   6.629   5.109
 5147TIP3    H215385   3.171   6.666   5.130
 5148TIP3   OH215386   3.203   5.081   4.592
 5148TIP3    H115387   3.260   5.101   4.667
 5148TIP3    H215388   3.122   5.128   4.611
 5149TIP3   OH215389   5.954   3.313   3.306
 5149TIP3    H115390   5.939   3.220   3.290
 5149TIP3    H215391   5.940   3.324   3.400
 5150TIP3   OH215392   4.020   6.567   5.604
 5150TIP3    H115393   4.039   6.649   5.560
 5150TIP3    H215394   4.105   6.531   5.628
 5151TIP3   OH215395   6.835   7.412   3.028
 5151TIP3    H115396   6.892   7.370   3.092
 5151TIP3    H215397   6.784   7.340   2.990
 5152TIP3   OH215398   3.540   6.712   0.606
 5152TIP3    H115399   3.525   6.703   0.512
 5152TIP3    H215400   3.630   6.745   0.612
 5153TIP3   OH215401   6.776   5.322   4.210
 5153TIP3    H115402   6.853   5.364   4.173
 5153TIP3    H215403   6.778   5.345   4.303
 5154TIP3   OH215404   5.083   2.961   4.766
 5154TIP3    H115405   5.096   2.877   4.809
 5154TIP3    H215406   5.139   3.022   4.814
 5155TIP3   OH215407   1.859   4.185   4.214
 5155TIP3    H115408   1.921   4.236   4.162
 5155TIP3    H215409   1.776   4.192   4.166
 5156TIP3   OH215410   2.349   0.206   0.950
 5156TIP3    H115411   2.271   0.238   0.906
 5156TIP3    H215412   2.419   0.212   0.884
 5157TIP3   OH215413   1.123   4.943   2.970
 5157TIP3    H115414   1.174   5.020   2.995
 5157TIP3    H215415   1.032   4.971   2.976
 5158TIP3   OH215416   1.890   2.255   2.082
 5158TIP3    H115417   1.969   2.220   2.124
 5158TIP3    H215418   1.921   2.333   2.036
 5159TIP3   OH215419   5.445   4.036   2.648
 5159TIP3    H115420   5.497   4.004   2.721
 5159TIP3    H215421   5.460   3.973   2.577
 5160TIP3   OH215422   6.988   2.705   5.814
 5160TIP3    H115423   7.027   2.717   5.728
 5160TIP3    H215424   7.060   2.676   5.870
 5161TIP3   OH215425   0.538   5.674   3.813
 5161TIP3    H115426   0.617   5.620   3.822
 5161TIP3    H215427   0.474   5.617   3.770
 5162TIP3   OH215428   7.035   5.446   2.843
 5162TIP3    H115429   7.085   5.386   2.787
 5162TIP3    H215430   7.083   5.529   2.839
 5163TIP3   OH215431   0.461   7.486   0.097
 5163TIP3    H115432   0.513   7.566   0.100
 5163TIP3    H215433   0.464   7.458   0.006
 5164TIP3   OH215434   3.894   4.177   2.851
 5164TIP3    H115435   3.884   4.271   2.868
 5164TIP3    H215436   3.867   4.166   2.759
 5165TIP3   OH215437   4.072   5.785   5.104
 5165TIP3    H115438   4.088   5.750   5.016
 5165TIP3    H215439   3.984   5.824   5.098
 5166TIP3   OH215440   1.009   1.042   3.799
 5166TIP3    H115441   1.090   1.009   3.838
 5166TIP3    H215442   0.950   0.966   3.799
 5167TIP3   OH215443  -0.006   5.417   3.405
 5167TIP3    H115444  -0.076   5.406   3.341
 5167TIP3    H215445   0.007   5.330   3.442
 5168TIP3   OH215446   3.432   3.243   2.202
 5168TIP3    H115447   3.384   3.174   2.157
 5168TIP3    H215448   3.522   3.233   2.171
 5169TIP3   OH215449   3.727   3.381   3.403
 5169TIP3    H115450   3.672   3.453   3.373
 5169TIP3    H215451   3.717   3.381   3.499
 5170TIP3   OH215452   4.422   0.983   3.661
 5170TIP3    H115453   4.392   0.934   3.737
 5170TIP3    H215454   4.488   1.043   3.695
 5171TIP3   OH215455   5.585   2.699   6.079
 5171TIP3    H115456   5.613   2.787   6.103
 5171TIP3    H215457   5.612   2.689   5.988
 5172TIP3   OH215458   4.208   2.146   5.770
 5172TIP3    H115459   4.115   2.126   5.762
 5172TIP3    H215460   4.213   2.241   5.758
 5173TIP3   OH215461   2.684   1.485   3.311
 5173TIP3    H115462   2.709   1.521   3.226
 5173TIP3    H215463   2.618   1.419   3.290
 5174TIP3   OH215464   4.507   2.061   0.328
 5174TIP3    H115465   4.536   2.120   0.398
 5174TIP3    H215466   4.418   2.089   0.308
 5175TIP3   OH215467   4.157   5.300   4.803
 5175TIP3    H115468   4.248   5.298   4.832
 5175TIP3    H215469   4.137   5.209   4.779
 5176TIP3   OH215470   1.038   7.569   1.012
 5176TIP3    H115471   0.978   7.574   0.938
 5176TIP3    H215472   1.022   7.483   1.051
 5177TIP3   OH215473   2.047   7.735   6.300
 5177TIP3    H115474   2.053   7.648   6.339
 5177TIP3    H215475   2.108   7.789   6.352
 5178TIP3   OH215476   5.204   2.969   5.485
 5178TIP3    H115477   5.153   2.907   5.433
 5178TIP3    H215478   5.142   3.038   5.508
 5179TIP3   OH215479   5.815   7.062   4.090
 5179TIP3    H115480   5.752   6.991   4.085
 5179TIP3    H215481   5.804   7.109   4.007
 5180TIP3   OH215482   1.348   4.671   5.695
 5180TIP3    H115483   1.285   4.659   5.625
 5180TIP3    H215484   1.319   4.751   5.740
 5181TIP3   OH215485   4.445   2.516   5.814
 5181TIP3    H115486   4.449   2.493   5.907
 5181TIP3    H215487   4.516   2.466   5.774
 5182TIP3   OH215488   8.227   6.064   4.113
 5182TIP3    H115489   8.207   6.033   4.202
 5182TIP3    H215490   8.172   6.142   4.102
 5183TIP3   OH215491   0.831   7.277   5.230
 5183TIP3    H115492   0.833   7.319   5.143
 5183TIP3    H215493   0.852   7.348   5.291
 5184TIP3   OH215494   6.776   7.704   3.049
 5184TIP3    H115495   6.800   7.612   3.038
 5184TIP3    H215496   6.727   7.725   2.969
 5185TIP3   OH215497   2.161   5.613   2.525
 5185TIP3    H115498   2.087   5.562   2.558
 5185TIP3    H215499   2.238   5.574   2.566
 5186TIP3   OH215500   2.884   0.819   5.295
 5186TIP3    H115501   2.919   0.884   5.355
 5186TIP3    H215502   2.808   0.783   5.341
 5187TIP3   OH215503   8.227   0.650   2.125
 5187TIP3    H115504   8.317   0.663   2.094
 5187TIP3    H215505   8.182   0.731   2.102
 5188TIP3   OH215506   6.002   6.269   5.913
 5188TIP3    H115507   6.002   6.264   5.818
 5188TIP3    H215508   5.962   6.186   5.941
 5189TIP3   OH215509   7.362   7.002   2.811
 5189TIP3    H115510   7.398   6.969   2.728
 5189TIP3    H215511   7.331   6.924   2.856
 5190TIP3   OH215512   1.105   0.503   0.401
 5190TIP3    H115513   1.154   0.557   0.338
 5190TIP3    H215514   1.170   0.474   0.464
 5191TIP3   OH215515   0.772   3.717   1.373
 5191TIP3    H115516   0.790   3.632   1.334
 5191TIP3    H215517   0.696   3.703   1.428
 5192TIP3   OH215518   6.360   7.353   3.846
 5192TIP3    H115519   6.306   7.352   3.926
 5192TIP3    H215520   6.445   7.321   3.874
 5193TIP3   OH215521   3.440   1.439   3.243
 5193TIP3    H115522   3.374   1.390   3.195
 5193TIP3    H215523   3.392   1.513   3.281
 5194TIP3   OH215524   1.476   3.259   0.464
 5194TIP3    H115525   1.408   3.325   0.474
 5194TIP3    H215526   1.549   3.305   0.423
 5195TIP3   OH215527   2.083   1.765   6.406
 5195TIP3    H115528   2.037   1.848   6.392
 5195TIP3    H215529   2.037   1.724   6.480
 5196TIP3   OH215530   7.791   2.575   2.803
 5196TIP3    H115531   7.815   2.659   2.844
 5196TIP3    H215532   7.732   2.600   2.731
 5197TIP3   OH215533   2.930   2.614   2.908
 5197TIP3    H115534   2.873   2.543   2.877
 5197TIP3    H215535   2.871   2.688   2.922
 5198TIP3   OH215536   4.761   0.327   5.135
 5198TIP3    H115537   4.764   0.299   5.044
 5198TIP3    H215538   4.852   0.351   5.156
 5199TIP3   OH215539   5.880   4.989   2.437
 5199TIP3    H115540   5.895   4.961   2.528
 5199TIP3    H215541   5.928   4.926   2.385
 5200TIP3   OH215542   5.661   4.372   1.076
 5200TIP3    H115543   5.660   4.345   1.167
 5200TIP3    H215544   5.635   4.294   1.027
 5201TIP3   OH215545   1.515   5.048   6.426
 5201TIP3    H115546   1.505   4.954   6.440
 5201TIP3    H215547   1.517   5.058   6.331
 5202TIP3   OH215548   7.193   2.522   6.701
 5202TIP3    H115549   7.257   2.587   6.674
 5202TIP3    H215550   7.160   2.553   6.785
 5203TIP3   OH215551   3.658   2.329   0.044
 5203TIP3    H115552   3.640   2.295   0.132
 5203TIP3    H215553   3.571   2.338   0.004
 5204TIP3   OH215554   3.692   5.919   1.767
 5204TIP3    H115555   3.641   5.850   1.725
 5204TIP3    H215556   3.632   5.959   1.830
 5205TIP3   OH215557   3.122   4.659   5.417
 5205TIP3    H115558   3.204   4.679   5.372
 5205TIP3    H215559   3.149   4.619   5.500
 5206TIP3   OH215560   5.889   3.400   5.433
 5206TIP3    H115561   5.804   3.425   5.398
 5206TIP3    H215562   5.923   3.337   5.370
 5207TIP3   OH215563   0.210   3.321   5.052
 5207TIP3    H115564   0.271   3.389   5.080
 5207TIP3    H215565   0.254   3.279   4.979
 5208TIP3   OH215566   4.166   6.237   4.908
 5208TIP3    H115567   4.097   6.172   4.895
 5208TIP3    H215568   4.120   6.321   4.904
 5209TIP3   OH215569   4.086   7.332   0.818
 5209TIP3    H115570   4.094   7.289   0.732
 5209TIP3    H215571   4.070   7.261   0.879
 5210TIP3   OH215572   7.722   7.318   0.576
 5210TIP3    H115573   7.766   7.302   0.493
 5210TIP3    H215574   7.716   7.232   0.617
 5211TIP3   OH215575   0.439   0.855   0.673
 5211TIP3    H115576   0.530   0.875   0.649
 5211TIP3    H215577   0.425   0.767   0.641
 5212TIP3   OH215578   3.734   7.608   1.399
 5212TIP3    H115579   3.764   7.689   1.359
 5212TIP3    H215580   3.785   7.540   1.355
 5213TIP3   OH215581   6.831   0.317   0.715
 5213TIP3    H115582   6.748   0.317   0.762
 5213TIP3    H215583   6.893   0.278   0.776
 5214TIP3   OH215584   7.101   5.147   4.709
 5214TIP3    H115585   7.036   5.150   4.639
 5214TIP3    H215586   7.104   5.055   4.735
 5215TIP3   OH215587   4.951   7.792   1.126
 5215TIP3    H115588   4.959   7.706   1.168
 5215TIP3    H215589   4.987   7.854   1.189
 5216TIP3   OH215590   2.330   2.782   6.110
 5216TIP3    H115591   2.272   2.767   6.184
 5216TIP3    H215592   2.404   2.723   6.125
 5217TIP3   OH215593   7.954   6.646   5.115
 5217TIP3    H115594   8.008   6.571   5.092
 5217TIP3    H215595   7.997   6.721   5.074
 5218TIP3   OH215596   4.228   0.185   1.461
 5218TIP3    H115597   4.286   0.200   1.536
 5218TIP3    H215598   4.182   0.268   1.449
 5219TIP3   OH215599   1.363   5.174   1.170
 5219TIP3    H115600   1.443   5.151   1.122
 5219TIP3    H215601   1.389   5.249   1.223
 5220TIP3   OH215602   4.595   7.169   3.216
 5220TIP3    H115603   4.686   7.197   3.206
 5220TIP3    H215604   4.544   7.231   3.163
 5221TIP3   OH215605   7.210   4.424   3.339
 5221TIP3    H115606   7.117   4.440   3.356
 5221TIP3    H215607   7.212   4.378   3.255
 5222TIP3   OH215608   5.697   3.679   5.572
 5222TIP3    H115609   5.661   3.767   5.563
 5222TIP3    H215610   5.663   3.631   5.496
 5223TIP3   OH215611   4.040   4.485   3.362
 5223TIP3    H115612   4.121   4.456   3.406
 5223TIP3    H215613   4.004   4.551   3.421
 5224TIP3   OH215614   7.856   4.701   0.570
 5224TIP3    H115615   7.827   4.687   0.480
 5224TIP3    H215616   7.834   4.620   0.616
 5225TIP3   OH215617   3.723   6.489   2.213
 5225TIP3    H115618   3.652   6.504   2.275
 5225TIP3    H215619   3.754   6.401   2.233
 5226TIP3   OH215620   4.086   4.832   4.108
 5226TIP3    H115621   4.125   4.773   4.173
 5226TIP3    H215622   4.035   4.775   4.051
 5227TIP3   OH215623   0.048   5.917   0.996
 5227TIP3    H115624   0.106   5.925   0.921
 5227TIP3    H215625  -0.007   5.995   0.993
 5228TIP3   OH215626   8.189   2.050   4.238
 5228TIP3    H115627   8.276   2.083   4.261
 5228TIP3    H215628   8.140   2.127   4.213
 5229TIP3   OH215629   3.327   1.902   2.041
 5229TIP3    H115630   3.261   1.877   1.978
 5229TIP3    H215631   3.361   1.986   2.010
 5230TIP3   OH215632   0.506   6.718   6.406
 5230TIP3    H115633   0.549   6.795   6.444
 5230TIP3    H215634   0.577   6.655   6.395
 5231TIP3   OH215635   7.769   1.151   4.827
 5231TIP3    H115636   7.738   1.241   4.837
 5231TIP3    H215637   7.795   1.144   4.735
 5232TIP3   OH215638   3.253   3.113   2.963
 5232TIP3    H115639   3.252   3.069   2.878
 5232TIP3    H215640   3.308   3.057   3.018
 5233TIP3   OH215641   4.420   2.063   2.666
 5233TIP3    H115642   4.422   1.984   2.612
 5233TIP3    H215643   4.444   2.134   2.605
 5234TIP3   OH215644   3.196   1.103   5.833
 5234TIP3    H115645   3.193   1.182   5.887
 5234TIP3    H215646   3.269   1.052   5.869
 5235TIP3   OH215647   3.724   1.706   6.351
 5235TIP3    H115648   3.756   1.791   6.379
 5235TIP3    H215649   3.790   1.644   6.383
 5236TIP3   OH215650   2.415   2.390   5.750
 5236TIP3    H115651   2.463   2.411   5.670
 5236TIP3    H215652   2.333   2.351   5.720
 5237TIP3   OH215653   6.165   4.352   1.637
 5237TIP3    H115654   6.152   4.434   1.686
 5237TIP3    H215655   6.213   4.296   1.697
 5238TIP3   OH215656   5.738   6.641   4.946
 5238TIP3    H115657   5.692   6.693   4.880
 5238TIP3    H215658   5.761   6.560   4.901
 5239TIP3   OH215659   5.232   6.987   5.812
 5239TIP3    H115660   5.306   6.933   5.785
 5239TIP3    H215661   5.235   6.987   5.907
 5240TIP3   OH215662   5.687   5.447   6.269
 5240TIP3    H115663   5.692   5.542   6.280
 5240TIP3    H215664   5.775   5.421   6.243
 5241TIP3   OH215665   0.949   2.034   0.438
 5241TIP3    H115666   0.880   1.972   0.414
 5241TIP3    H215667   1.010   1.983   0.491
 5242TIP3   OH215668   6.745   4.704   4.513
 5242TIP3    H115669   6.776   4.621   4.475
 5242TIP3    H215670   6.659   4.717   4.474
 5243TIP3   OH215671   2.582   5.671   1.994
 5243TIP3    H115672   2.614   5.686   2.083
 5243TIP3    H215673   2.487   5.685   2.001
 5244TIP3   OH215674   3.846   0.158   5.333
 5244TIP3    H115675   3.868   0.125   5.246
 5244TIP3    H215676   3.825   0.251   5.319
 5245TIP3   OH215677   7.117   5.677   4.924
 5245TIP3    H115678   7.095   5.710   5.011
 5245TIP3    H215679   7.100   5.750   4.865
 5246TIP3   OH215680   6.695   6.511   3.130
 5246TIP3    H115681   6.650   6.453   3.191
 5246TIP3    H215682   6.625   6.553   3.080
 5247TIP3   OH215683   3.526   1.900   5.310
 5247TIP3    H115684   3.566   1.983   5.285
 5247TIP3    H215685   3.455   1.924   5.369
 5248TIP3   OH215686   3.105   5.487   3.989
 5248TIP3    H115687   3.173   5.545   3.954
 5248TIP3    H215688   3.025   5.517   3.947
 5249TIP3   OH215689   3.603   1.804   4.052
 5249TIP3    H115690   3.630   1.732   4.109
 5249TIP3    H215691   3.577   1.874   4.113
 5250TIP3   OH215692   1.548   1.594   6.105
 5250TIP3    H115693   1.463   1.618   6.142
 5250TIP3    H215694   1.554   1.642   6.023
 5251TIP3   OH215695   6.474   6.329   3.274
 5251TIP3    H115696   6.504   6.259   3.215
 5251TIP3    H215697   6.379   6.318   3.277
 5252TIP3   OH215698   6.776   1.030   4.251
 5252TIP3    H115699   6.817   0.948   4.223
 5252TIP3    H215700   6.844   1.096   4.239
 5253TIP3   OH215701   7.667   6.739   4.294
 5253TIP3    H115702   7.681   6.652   4.332
 5253TIP3    H215703   7.612   6.723   4.218
 5254TIP3   OH215704   7.469   2.242   0.179
 5254TIP3    H115705   7.484   2.185   0.254
 5254TIP3    H215706   7.446   2.327   0.218
 5255TIP3   OH215707   5.014   3.676   3.803
 5255TIP3    H115708   5.025   3.771   3.793
 5255TIP3    H215709   4.935   3.656   3.754
 5256TIP3   OH215710   0.860   5.972   0.230
 5256TIP3    H115711   0.938   5.953   0.178
 5256TIP3    H215712   0.867   6.065   0.249
 5257TIP3   OH215713   5.096   5.133   0.224
 5257TIP3    H115714   5.023   5.085   0.263
 5257TIP3    H215715   5.070   5.145   0.132
 5258TIP3   OH215716   2.728   6.817   5.297
 5258TIP3    H115717   2.822   6.831   5.303
 5258TIP3    H215718   2.717   6.722   5.304
 5259TIP3   OH215719   5.645   0.510   1.526
 5259TIP3    H115720   5.656   0.444   1.594
 5259TIP3    H215721   5.639   0.459   1.445
 5260TIP3   OH215722   2.557   0.300   2.234
 5260TIP3    H115723   2.641   0.335   2.206
 5260TIP3    H215724   2.568   0.205   2.232
 5261TIP3   OH215725   6.236   2.931   3.193
 5261TIP3    H115726   6.234   2.959   3.284
 5261TIP3    H215727   6.154   2.882   3.181
 5262TIP3   OH215728   7.254   4.976   0.024
 5262TIP3    H115729   7.212   5.045  -0.026
 5262TIP3    H215730   7.347   4.997   0.020
 5263TIP3   OH215731   7.096   0.343   5.263
 5263TIP3    H115732   7.076   0.313   5.174
 5263TIP3    H215733   7.024   0.402   5.285
 5264TIP3   OH215734   2.611   4.122   4.651
 5264TIP3    H115735   2.689   4.147   4.700
 5264TIP3    H215736   2.599   4.028   4.671
 5265TIP3   OH215737   5.923   2.835   3.803
 5265TIP3    H115738   5.933   2.748   3.840
 5265TIP3    H215739   6.012   2.871   3.802
 5266TIP3   OH215740   1.363   0.864   2.403
 5266TIP3    H115741   1.410   0.931   2.453
 5266TIP3    H215742   1.412   0.783   2.419
 5267TIP3   OH215743   8.278   5.903   3.420
 5267TIP3    H115744   8.357   5.943   3.457
 5267TIP3    H215745   8.308   5.819   3.385
 5268TIP3   OH215746   1.947   3.072   1.648
 5268TIP3    H115747   1.900   2.989   1.649
 5268TIP3    H215748   1.907   3.123   1.719
 5269TIP3   OH215749   3.415   2.739   1.447
 5269TIP3    H115750   3.434   2.798   1.520
 5269TIP3    H215751   3.323   2.754   1.427
 5270TIP3   OH215752   1.053   5.025   4.345
 5270TIP3    H115753   1.074   5.042   4.437
 5270TIP3    H215754   1.094   4.940   4.327
 5271TIP3   OH215755   1.402   0.103   0.532
 5271TIP3    H115756   1.350   0.142   0.603
 5271TIP3    H215757   1.337   0.082   0.464
 5272TIP3   OH215758   6.857   7.769   2.417
 5272TIP3    H115759   6.926   7.747   2.354
 5272TIP3    H215760   6.857   7.697   2.480
 5273TIP3   OH215761   5.755   5.198   0.490
 5273TIP3    H115762   5.753   5.140   0.414
 5273TIP3    H215763   5.677   5.174   0.541
 5274TIP3   OH215764   3.626   6.405   4.335
 5274TIP3    H115765   3.672   6.337   4.287
 5274TIP3    H215766   3.644   6.486   4.287
 5275TIP3   OH215767   6.501   3.947   6.719
 5275TIP3    H115768   6.483   4.032   6.759
 5275TIP3    H215769   6.595   3.951   6.698
 5276TIP3   OH215770   7.346   4.403   6.466
 5276TIP3    H115771   7.404   4.400   6.543
 5276TIP3    H215772   7.258   4.415   6.503
 5277TIP3   OH215773   4.085   4.633   5.576
 5277TIP3    H115774   4.096   4.547   5.536
 5277TIP3    H215775   4.083   4.693   5.501
 5278TIP3   OH215776   4.661   2.201   3.031
 5278TIP3    H115777   4.666   2.136   2.961
 5278TIP3    H215778   4.673   2.285   2.986
 5279TIP3   OH215779   8.234   2.432   1.927
 5279TIP3    H115780   8.171   2.369   1.961
 5279TIP3    H215781   8.251   2.403   1.838
 5280TIP3   OH215782   7.058   3.888   2.931
 5280TIP3    H115783   6.997   3.892   2.858
 5280TIP3    H215784   7.116   3.963   2.918
 5281TIP3   OH215785   7.705   6.963   2.930
 5281TIP3    H115786   7.719   6.870   2.951
 5281TIP3    H215787   7.687   6.964   2.836
 5282TIP3   OH215788   0.286   6.886   0.085
 5282TIP3    H115789   0.302   6.980   0.076
 5282TIP3    H215790   0.365   6.852   0.127
 5283TIP3   OH215791   2.915   5.902   2.498
 5283TIP3    H115792   3.002   5.879   2.529
 5283TIP3    H215793   2.922   5.906   2.403
 5284TIP3   OH215794   2.226   4.338   2.376
 5284TIP3    H115795   2.248   4.426   2.408
 5284TIP3    H215796   2.136   4.345   2.346
 5285TIP3   OH215797   3.596   1.452   6.232
 5285TIP3    H115798   3.658   1.480   6.299
 5285TIP3    H215799   3.652   1.415   6.163
 5286TIP3   OH215800   1.736   3.774   0.288
 5286TIP3    H115801   1.750   3.848   0.229
 5286TIP3    H215802   1.821   3.731   0.293
 5287TIP3   OH215803   4.778   7.348   2.942
 5287TIP3    H115804   4.698   7.387   2.977
 5287TIP3    H215805   4.747   7.276   2.887
 5288TIP3   OH215806   3.883   5.276   4.893
 5288TIP3    H115807   3.904   5.323   4.974
 5288TIP3    H215808   3.968   5.253   4.856
 5289TIP3   OH215809   4.356   0.859   2.127
 5289TIP3    H115810   4.325   0.929   2.183
 5289TIP3    H215811   4.445   0.885   2.103
 5290TIP3   OH215812   7.858   1.789   0.305
 5290TIP3    H115813   7.850   1.700   0.272
 5290TIP3    H215814   7.798   1.840   0.250
 5291TIP3   OH215815   0.189   0.008   3.556
 5291TIP3    H115816   0.168   0.089   3.603
 5291TIP3    H215817   0.277   0.022   3.523
 5292TIP3   OH215818   6.749   7.810   0.381
 5292TIP3    H115819   6.715   7.780   0.297
 5292TIP3    H215820   6.679   7.863   0.418
 5293TIP3   OH215821   1.784   7.483   3.932
 5293TIP3    H115822   1.781   7.575   3.908
 5293TIP3    H215823   1.749   7.480   4.021
 5294TIP3   OH215824   0.969   2.551   0.421
 5294TIP3    H115825   0.886   2.588   0.452
 5294TIP3    H215826   1.009   2.622   0.371
 5295TIP3   OH215827   2.594   0.092   3.702
 5295TIP3    H115828   2.602   0.001   3.673
 5295TIP3    H215829   2.571   0.140   3.623
 5296TIP3   OH215830   3.222   5.999   4.587
 5296TIP3    H115831   3.198   6.090   4.572
 5296TIP3    H215832   3.172   5.974   4.665
 5297TIP3   OH215833   3.480   7.612   6.214
 5297TIP3    H115834   3.474   7.529   6.167
 5297TIP3    H215835   3.432   7.674   6.159
 5298TIP3   OH215836   7.186   6.023   6.335
 5298TIP3    H115837   7.234   5.964   6.277
 5298TIP3    H215838   7.240   6.102   6.338
 5299TIP3   OH215839   1.742   0.894   1.284
 5299TIP3    H115840   1.770   0.806   1.257
 5299TIP3    H215841   1.800   0.916   1.357
 5300TIP3   OH215842   6.238   6.792   2.780
 5300TIP3    H115843   6.291   6.719   2.749
 5300TIP3    H215844   6.148   6.768   2.758
 5301TIP3   OH215845   8.189   6.409   3.077
 5301TIP3    H115846   8.229   6.394   3.163
 5301TIP3    H215847   8.095   6.398   3.092
 5302TIP3   OH215848   0.044   6.823   6.155
 5302TIP3    H115849  -0.034   6.794   6.109
 5302TIP3    H215850   0.115   6.809   6.093
 5303TIP3   OH215851   7.941   0.873   1.872
 5303TIP3    H115852   7.956   0.779   1.865
 5303TIP3    H215853   8.017   0.906   1.919
 5304TIP3   OH215854   3.273   5.082   3.239
 5304TIP3    H115855   3.226   5.023   3.179
 5304TIP3    H215856   3.334   5.129   3.183
 5305TIP3   OH215857   6.037   3.111   4.446
 5305TIP3    H115858   6.087   3.105   4.364
 5305TIP3    H215859   6.043   3.204   4.471
 5306TIP3   OH215860   5.964   4.363   2.453
 5306TIP3    H115861   5.872   4.367   2.428
 5306TIP3    H215862   6.011   4.360   2.370
 5307TIP3   OH215863   3.461   6.150   4.162
 5307TIP3    H115864   3.505   6.065   4.154
 5307TIP3    H215865   3.476   6.193   4.078
 5308TIP3   OH215866   0.403   2.936   2.390
 5308TIP3    H115867   0.417   3.031   2.390
 5308TIP3    H215868   0.373   2.916   2.301
 5309TIP3   OH215869   4.316   0.057   5.525
 5309TIP3    H115870   4.364   0.130   5.564
 5309TIP3    H215871   4.237   0.097   5.490
 5310TIP3   OH215872   7.011   6.180   4.443
 5310TIP3    H115873   6.938   6.123   4.465
 5310TIP3    H215874   7.015   6.243   4.515
 5311TIP3   OH215875   6.522   2.836   6.368
 5311TIP3    H115876   6.497   2.782   6.293
 5311TIP3    H215877   6.612   2.863   6.349
 5312TIP3   OH215878   5.751   5.872   5.908
 5312TIP3    H115879   5.695   5.878   5.986
 5312TIP3    H215880   5.705   5.811   5.850
 5313TIP3   OH215881   1.402   5.809   0.727
 5313TIP3    H115882   1.335   5.874   0.705
 5313TIP3    H215883   1.440   5.785   0.643
 5314TIP3   OH215884   4.658   5.563   6.343
 5314TIP3    H115885   4.600   5.639   6.343
 5314TIP3    H215886   4.735   5.591   6.393
 5315TIP3   OH215887   2.223   3.556   1.663
 5315TIP3    H115888   2.136   3.533   1.696
 5315TIP3    H215889   2.269   3.590   1.740
 5316TIP3   OH215890   3.696   4.538   3.428
 5316TIP3    H115891   3.664   4.479   3.360
 5316TIP3    H215892   3.771   4.582   3.388
 5317TIP3   OH215893   1.143   7.748   3.080
 5317TIP3    H115894   1.152   7.684   3.009
 5317TIP3    H215895   1.219   7.805   3.071
 5318TIP3   OH215896   5.056   5.193   5.429
 5318TIP3    H115897   4.990   5.126   5.447
 5318TIP3    H215898   5.051   5.253   5.504
 5319TIP3   OH215899   0.362   1.814   5.337
 5319TIP3    H115900   0.407   1.784   5.416
 5319TIP3    H215901   0.391   1.752   5.269
 5320TIP3   OH215902   5.940   0.946   4.624
 5320TIP3    H115903   5.890   0.913   4.549
 5320TIP3    H215904   5.906   1.034   4.640
 5321TIP3   OH215905   6.035   7.176   6.164
 5321TIP3    H115906   6.025   7.199   6.072
 5321TIP3    H215907   6.078   7.252   6.204
 5322TIP3   OH215908   5.038   0.311   5.499
 5322TIP3    H115909   5.036   0.325   5.404
 5322TIP3    H215910   5.104   0.242   5.512
 5323TIP3   OH215911   2.009   7.147   1.938
 5323TIP3    H115912   2.033   7.114   2.025
 5323TIP3    H215913   2.084   7.126   1.882
 5324TIP3   OH215914   1.403   4.323   0.156
 5324TIP3    H115915   1.488   4.289   0.131
 5324TIP3    H215916   1.369   4.260   0.220
 5325TIP3   OH215917   2.407   0.239   1.819
 5325TIP3    H115918   2.450   0.170   1.871
 5325TIP3    H215919   2.451   0.320   1.847
 5326TIP3   OH215920   1.584   6.613   5.898
 5326TIP3    H115921   1.666   6.618   5.946
 5326TIP3    H215922   1.585   6.690   5.841
 5327TIP3   OH215923   0.938   4.825   4.624
 5327TIP3    H115924   1.021   4.873   4.629
 5327TIP3    H215925   0.875   4.882   4.668
 5328TIP3   OH215926   5.936   5.527   3.072
 5328TIP3    H115927   5.936   5.621   3.086
 5328TIP3    H215928   5.970   5.491   3.154
 5329TIP3   OH215929   7.202   2.616   1.653
 5329TIP3    H115930   7.215   2.563   1.732
 5329TIP3    H215931   7.288   2.621   1.612
 5330TIP3   OH215932   4.007   5.828   3.986
 5330TIP3    H115933   4.012   5.795   4.075
 5330TIP3    H215934   4.055   5.911   3.988
 5331TIP3   OH215935   5.019   4.923   0.963
 5331TIP3    H115936   5.002   4.860   1.033
 5331TIP3    H215937   5.094   4.889   0.916
 5332TIP3   OH215938   5.316   2.204   0.274
 5332TIP3    H115939   5.291   2.175   0.186
 5332TIP3    H215940   5.358   2.289   0.261
 5333TIP3   OH215941   1.218   3.026   0.332
 5333TIP3    H115942   1.286   2.964   0.359
 5333TIP3    H215943   1.150   3.017   0.398
 5334TIP3   OH215944   0.129   3.094   4.718
 5334TIP3    H115945   0.087   3.157   4.659
 5334TIP3    H215946   0.199   3.055   4.665
 5335TIP3   OH215947   6.412   4.768   1.997
 5335TIP3    H115948   6.392   4.675   2.004
 5335TIP3    H215949   6.485   4.773   1.936
 5336TIP3   OH215950   7.964   5.208   5.768
 5336TIP3    H115951   8.011   5.287   5.740
 5336TIP3    H215952   8.013   5.178   5.845
 5337TIP3   OH215953   3.282   7.521   2.396
 5337TIP3    H115954   3.279   7.452   2.331
 5337TIP3    H215955   3.203   7.508   2.449
 5338TIP3   OH215956   4.030   6.549   2.568
 5338TIP3    H115957   4.021   6.604   2.490
 5338TIP3    H215958   3.947   6.503   2.575
 5339TIP3   OH215959   5.627   1.842   0.623
 5339TIP3    H115960   5.687   1.770   0.607
 5339TIP3    H215961   5.673   1.919   0.588
 5340TIP3   OH215962   3.211   6.469   4.818
 5340TIP3    H115963   3.245   6.425   4.896
 5340TIP3    H215964   3.240   6.415   4.745
 5341TIP3   OH215965   3.584   2.340   3.726
 5341TIP3    H115966   3.531   2.407   3.769
 5341TIP3    H215967   3.597   2.374   3.637
 5342TIP3   OH215968   1.596   5.254   4.941
 5342TIP3    H115969   1.658   5.189   4.909
 5342TIP3    H215970   1.523   5.250   4.880
 5343TIP3   OH215971   0.975   6.946   6.593
 5343TIP3    H115972   1.027   6.870   6.567
 5343TIP3    H215973   0.909   6.911   6.652
 5344TIP3   OH215974   0.514   5.077   2.227
 5344TIP3    H115975   0.452   5.091   2.298
 5344TIP3    H215976   0.496   4.989   2.196
 5345TIP3   OH215977   0.856   1.515   6.324
 5345TIP3    H115978   0.847   1.496   6.231
 5345TIP3    H215979   0.786   1.465   6.366
 5346TIP3   OH215980   3.233   2.016   5.215
 5346TIP3    H115981   3.204   1.926   5.231
 5346TIP3    H215982   3.295   2.009   5.144
 5347TIP3   OH215983   3.742   5.602   4.250
 5347TIP3    H115984   3.783   5.515   4.253
 5347TIP3    H215985   3.694   5.610   4.332
 5348TIP3   OH215986   7.387   7.758   0.649
 5348TIP3    H115987   7.413   7.725   0.735
 5348TIP3    H215988   7.296   7.730   0.639
 5349TIP3   OH215989   7.579   0.518   6.090
 5349TIP3    H115990   7.648   0.470   6.044
 5349TIP3    H215991   7.601   0.507   6.183
 5350TIP3   OH215992   1.993   6.970   3.064
 5350TIP3    H115993   1.978   7.060   3.037
 5350TIP3    H215994   2.062   6.938   3.006
 5351TIP3   OH215995   7.896   0.457   4.308
 5351TIP3    H115996   7.930   0.388   4.366
 5351TIP3    H215997   7.821   0.416   4.265
 5352TIP3   OH215998   3.790   1.025   4.944
 5352TIP3    H115999   3.816   0.934   4.931
 5352TIP3    H216000   3.713   1.020   5.001
 5353TIP3   OH216001   0.314   0.263   1.903
 5353TIP3    H116002   0.253   0.328   1.868
 5353TIP3    H216003   0.278   0.179   1.874
 5354TIP3   OH216004   3.687   4.466   1.340
 5354TIP3    H116005   3.760   4.465   1.403
 5354TIP3    H216006   3.619   4.414   1.383
 5355TIP3   OH216007   7.515   2.592   6.396
 5355TIP3    H116008   7.581   2.533   6.358
 5355TIP3    H216009   7.554   2.679   6.391
 5356TIP3   OH216010   4.453   0.401   6.085
 5356TIP3    H116011   4.477   0.464   6.153
 5356TIP3    H216012   4.392   0.341   6.129
 5357TIP3   OH216013   3.737   4.490   1.931
 5357TIP3    H116014   3.649   4.484   1.893
 5357TIP3    H216015   3.790   4.430   1.879
 5358TIP3   OH216016   4.959   5.437   3.000
 5358TIP3    H116017   4.905   5.441   2.921
 5358TIP3    H216018   4.929   5.511   3.053
 5359TIP3   OH216019   6.690   3.483   1.698
 5359TIP3    H116020   6.607   3.530   1.687
 5359TIP3    H216021   6.672   3.419   1.767
 5360TIP3   OH216022   7.795   6.961   4.344
 5360TIP3    H116023   7.741   6.883   4.333
 5360TIP3    H216024   7.738   7.034   4.317
 5361TIP3   OH216025   4.480   2.378   0.092
 5361TIP3    H116026   4.473   2.323   0.014
 5361TIP3    H216027   4.401   2.432   0.090
 5362TIP3   OH216028   3.395   5.865   2.032
 5362TIP3    H116029   3.461   5.924   1.998
 5362TIP3    H216030   3.354   5.828   1.954
 5363TIP3   OH216031   0.441   6.379   4.749
 5363TIP3    H116032   0.514   6.358   4.808
 5363TIP3    H216033   0.429   6.473   4.758
 5364TIP3   OH216034   5.194   7.489   3.720
 5364TIP3    H116035   5.122   7.521   3.666
 5364TIP3    H216036   5.253   7.564   3.729
 5365TIP3   OH216037   1.634   0.392   2.235
 5365TIP3    H116038   1.681   0.374   2.316
 5365TIP3    H216039   1.691   0.450   2.185
 5366TIP3   OH216040   4.294   2.120   6.616
 5366TIP3    H116041   4.279   2.215   6.624
 5366TIP3    H216042   4.370   2.103   6.671
 5367TIP3   OH216043   4.594   1.990   5.359
 5367TIP3    H116044   4.576   1.912   5.308
 5367TIP3    H216045   4.523   1.995   5.423
 5368TIP3   OH216046   7.986   1.659   3.214
 5368TIP3    H116047   7.899   1.689   3.186
 5368TIP3    H216048   8.045   1.729   3.188
 5369TIP3   OH216049   2.479   1.491   4.304
 5369TIP3    H116050   2.575   1.485   4.306
 5369TIP3    H216051   2.451   1.455   4.388
 5370TIP3   OH216052   4.540   3.666   6.108
 5370TIP3    H116053   4.621   3.714   6.123
 5370TIP3    H216054   4.472   3.721   6.148
 5371TIP3   OH216055   3.694   1.696   5.334
 5371TIP3    H116056   3.610   1.740   5.327
 5371TIP3    H216057   3.724   1.715   5.423
 5372TIP3   OH216058   3.645   2.402   4.848
 5372TIP3    H116059   3.662   2.406   4.942
 5372TIP3    H216060   3.702   2.331   4.817
 5373TIP3   OH216061   7.889   6.032   3.451
 5373TIP3    H116062   7.801   6.041   3.488
 5373TIP3    H216063   7.915   5.943   3.473
 5374TIP3   OH216064   6.393   0.445   1.385
 5374TIP3    H116065   6.484   0.417   1.376
 5374TIP3    H216066   6.343   0.382   1.332
 5375TIP3   OH216067   2.562   3.878   4.716
 5375TIP3    H116068   2.479   3.859   4.672
 5375TIP3    H216069   2.586   3.796   4.759
 5376TIP3   OH216070   8.014   1.926   6.786
 5376TIP3    H116071   7.956   1.860   6.825
 5376TIP3    H216072   8.041   1.887   6.703
 5377TIP3   OH216073   7.634   6.354   3.258
 5377TIP3    H116074   7.617   6.261   3.268
 5377TIP3    H216075   7.548   6.394   3.249
 5378TIP3   OH216076   3.116   0.105   0.043
 5378TIP3    H116077   3.050   0.102  -0.026
 5378TIP3    H216078   3.163   0.187   0.029
 5379TIP3   OH216079   7.814   7.140   6.513
 5379TIP3    H116080   7.827   7.225   6.469
 5379TIP3    H216081   7.721   7.138   6.534
 5380TIP3   OH216082   7.421   2.336   1.853
 5380TIP3    H116083   7.350   2.273   1.841
 5380TIP3    H216084   7.498   2.282   1.869
 5381TIP3   OH216085   5.420   7.157   1.077
 5381TIP3    H116086   5.399   7.066   1.058
 5381TIP3    H216087   5.409   7.203   0.994
 5382TIP3   OH216088   4.583   1.755   1.470
 5382TIP3    H116089   4.577   1.751   1.374
 5382TIP3    H216090   4.663   1.706   1.491
 5383TIP3   OH216091   7.230   2.464   5.016
 5383TIP3    H116092   7.297   2.477   5.084
 5383TIP3    H216093   7.234   2.371   4.995
 5384TIP3   OH216094   6.144   2.031   3.137
 5384TIP3    H116095   6.166   1.938   3.134
 5384TIP3    H216096   6.223   2.073   3.171
 5385TIP3   OH216097   6.737   7.050   1.328
 5385TIP3    H116098   6.739   7.093   1.414
 5385TIP3    H216099   6.783   6.967   1.343
 5386TIP3   OH216100   7.706   0.495   0.647
 5386TIP3    H116101   7.626   0.536   0.614
 5386TIP3    H216102   7.715   0.416   0.593
 5387TIP3   OH216103   3.579   6.424   5.000
 5387TIP3    H116104   3.582   6.519   4.987
 5387TIP3    H216105   3.522   6.392   4.930
 5388TIP3   OH216106   3.855   2.544   0.960
 5388TIP3    H116107   3.929   2.569   1.015
 5388TIP3    H216108   3.779   2.548   1.018
 5389TIP3   OH216109   5.925   1.613   1.729
 5389TIP3    H116110   5.901   1.529   1.768
 5389TIP3    H216111   5.867   1.623   1.654
 5390TIP3   OH216112   1.080   2.781   2.180
 5390TIP3    H116113   1.157   2.764   2.126
 5390TIP3    H216114   1.014   2.720   2.148
 5391TIP3   OH216115   0.454   2.711   3.158
 5391TIP3    H116116   0.498   2.779   3.210
 5391TIP3    H216117   0.381   2.757   3.117
 5392TIP3   OH216118   3.962   7.221   3.418
 5392TIP3    H116119   3.999   7.156   3.359
 5392TIP3    H216120   4.032   7.242   3.480
 5393TIP3   OH216121   6.880   1.927   3.516
 5393TIP3    H116122   6.819   1.867   3.560
 5393TIP3    H216123   6.836   2.012   3.519
 5394TIP3   OH216124   6.348   5.735   1.937
 5394TIP3    H116125   6.397   5.811   1.965
 5394TIP3    H216126   6.322   5.692   2.018
 5395TIP3   OH216127   0.127   2.639   4.643
 5395TIP3    H116128   0.188   2.650   4.716
 5395TIP3    H216129   0.053   2.695   4.666
 5396TIP3   OH216130   0.904   1.231   2.588
 5396TIP3    H116131   0.960   1.278   2.526
 5396TIP3    H216132   0.904   1.285   2.666
 5397TIP3   OH216133   4.557   5.637   6.746
 5397TIP3    H116134   4.510   5.638   6.829
 5397TIP3    H216135   4.573   5.729   6.726
 5398TIP3   OH216136   1.201   0.075   4.273
 5398TIP3    H116137   1.211   0.116   4.188
 5398TIP3    H216138   1.247  -0.008   4.265
 5399TIP3   OH216139   0.189   0.097   1.296
 5399TIP3    H116140   0.161   0.005   1.290
 5399TIP3    H216141   0.280   0.096   1.266
 5400TIP3   OH216142   4.862   5.700   6.124
 5400TIP3    H116143   4.804   5.628   6.097
 5400TIP3    H216144   4.803   5.770   6.151
 5401TIP3   OH216145   5.903   1.494   3.600
 5401TIP3    H116146   5.834   1.465   3.540
 5401TIP3    H216147   5.867   1.477   3.688
 5402TIP3   OH216148   1.525   1.014   3.079
 5402TIP3    H116149   1.511   1.105   3.053
 5402TIP3    H216150   1.472   1.003   3.158
 5403TIP3   OH216151   7.896   5.914   3.043
 5403TIP3    H116152   7.866   5.862   2.969
 5403TIP3    H216153   7.907   5.851   3.115
 5404TIP3   OH216154   5.182   0.080   5.533
 5404TIP3    H116155   5.155   0.071   5.625
 5404TIP3    H216156   5.278   0.077   5.536
 5405TIP3   OH216157   1.370   3.462   1.825
 5405TIP3    H116158   1.361   3.367   1.824
 5405TIP3    H216159   1.307   3.493   1.760
 5406TIP3   OH216160   7.149   0.824   1.810
 5406TIP3    H116161   7.191   0.893   1.861
 5406TIP3    H216162   7.215   0.755   1.803
 5407TIP3   OH216163   3.182   6.068   0.661
 5407TIP3    H116164   3.255   6.089   0.719
 5407TIP3    H216165   3.111   6.044   0.720
 5408TIP3   OH216166   0.986   3.907   5.120
 5408TIP3    H116167   1.032   3.846   5.178
 5408TIP3    H216168   1.054   3.966   5.088
 5409TIP3   OH216169   4.084   1.743   3.622
 5409TIP3    H116170   4.142   1.673   3.648
 5409TIP3    H216171   4.022   1.751   3.694
 5410TIP3   OH216172   6.205   3.112   3.978
 5410TIP3    H116173   6.115   3.086   3.958
 5410TIP3    H216174   6.249   3.115   3.893
 5411TIP3   OH216175   1.967   1.113   4.088
 5411TIP3    H116176   2.033   1.153   4.145
 5411TIP3    H216177   1.982   1.152   4.002
 5412TIP3   OH216178   6.778   2.142   2.667
 5412TIP3    H116179   6.794   2.222   2.615
 5412TIP3    H216180   6.859   2.092   2.657
 5413TIP3   OH216181   0.844   6.039   1.875
 5413TIP3    H116182   0.791   5.964   1.848
 5413TIP3    H216183   0.844   6.097   1.798
 5414TIP3   OH216184   3.782   0.782   3.590
 5414TIP3    H116185   3.769   0.725   3.665
 5414TIP3    H216186   3.695   0.790   3.550
 5415TIP3   OH216187   4.284   4.237   1.888
 5415TIP3    H116188   4.299   4.145   1.912
 5415TIP3    H216189   4.327   4.246   1.803
 5416TIP3   OH216190   0.424   4.439   2.291
 5416TIP3    H116191   0.347   4.429   2.347
 5416TIP3    H216192   0.495   4.462   2.352
 5417TIP3   OH216193   3.075   1.557   5.407
 5417TIP3    H116194   3.074   1.607   5.489
 5417TIP3    H216195   3.116   1.474   5.431
 5418TIP3   OH216196   6.439   3.166   3.479
 5418TIP3    H116197   6.460   3.209   3.396
 5418TIP3    H216198   6.524   3.151   3.520
 5419TIP3   OH216199   1.326   4.536   3.871
 5419TIP3    H116200   1.339   4.470   3.803
 5419TIP3    H216201   1.271   4.603   3.831
 5420TIP3   OH216202   2.276   1.935  -0.012
 5420TIP3    H116203   2.321   1.929  -0.097
 5420TIP3    H216204   2.268   1.844   0.017
 5421TIP3   OH216205   8.043   0.435   1.281
 5421TIP3    H116206   7.984   0.492   1.232
 5421TIP3    H216207   8.115   0.417   1.220
 5422TIP3   OH216208   6.814   3.747   6.660
 5422TIP3    H116209   6.793   3.840   6.672
 5422TIP3    H216210   6.889   3.732   6.717
 5423TIP3   OH216211   7.518   6.100   6.578
 5423TIP3    H116212   7.458   6.052   6.636
 5423TIP3    H216213   7.506   6.192   6.603
 5424TIP3   OH216214   2.036   6.053   6.332
 5424TIP3    H116215   2.015   6.143   6.359
 5424TIP3    H216216   2.081   6.016   6.408
 5425TIP3   OH216217   3.061   6.420   3.297
 5425TIP3    H116218   3.013   6.351   3.250
 5425TIP3    H216219   2.998   6.491   3.306
 5426TIP3   OH216220   6.647   2.940   0.151
 5426TIP3    H116221   6.665   2.846   0.143
 5426TIP3    H216222   6.562   2.951   0.108
 5427TIP3   OH216223   4.037   6.121   0.244
 5427TIP3    H116224   4.018   6.081   0.159
 5427TIP3    H216225   4.125   6.156   0.236
 5428TIP3   OH216226   4.882   0.034   2.301
 5428TIP3    H116227   4.877   0.120   2.342
 5428TIP3    H216228   4.837  -0.024   2.361
 5429TIP3   OH216229   1.421   6.552   4.133
 5429TIP3    H116230   1.357   6.608   4.177
 5429TIP3    H216231   1.476   6.520   4.204
 5430TIP3   OH216232   6.629   1.523   4.635
 5430TIP3    H116233   6.710   1.476   4.656
 5430TIP3    H216234   6.587   1.468   4.569
 5431TIP3   OH216235   2.970   3.670   2.569
 5431TIP3    H116236   3.036   3.601   2.581
 5431TIP3    H216237   3.020   3.743   2.531
 5432TIP3   OH216238   3.113   0.005   3.812
 5432TIP3    H116239   3.029   0.006   3.857
 5432TIP3    H216240   3.093   0.037   3.724
 5433TIP3   OH216241   1.493   4.602   2.880
 5433TIP3    H116242   1.484   4.507   2.877
 5433TIP3    H216243   1.493   4.629   2.788
 5434TIP3   OH216244   4.753   1.147   2.803
 5434TIP3    H116245   4.826   1.142   2.742
 5434TIP3    H216246   4.701   1.221   2.773
 5435TIP3   OH216247   1.701   3.741   4.265
 5435TIP3    H116248   1.650   3.669   4.302
 5435TIP3    H216249   1.666   3.819   4.307
 5436TIP3   OH216250   7.131   6.477   6.117
 5436TIP3    H116251   7.041   6.477   6.084
 5436TIP3    H216252   7.185   6.473   6.038
 5437TIP3   OH216253   6.581   2.951   3.802
 5437TIP3    H116254   6.598   2.882   3.737
 5437TIP3    H216255   6.541   3.022   3.751
 5438TIP3   OH216256   3.382   5.077   3.693
 5438TIP3    H116257   3.420   5.096   3.778
 5438TIP3    H216258   3.431   5.001   3.661
 5439TIP3   OH216259   6.312   4.126   3.847
 5439TIP3    H116260   6.312   4.033   3.826
 5439TIP3    H216261   6.256   4.133   3.924
 5440TIP3   OH216262   3.971   3.989   4.487
 5440TIP3    H116263   3.968   3.963   4.395
 5440TIP3    H216264   3.887   4.030   4.504
 5441TIP3   OH216265   5.890   7.374   5.686
 5441TIP3    H116266   5.797   7.390   5.669
 5441TIP3    H216267   5.935   7.448   5.645
 5442TIP3   OH216268   3.668   4.435   2.622
 5442TIP3    H116269   3.592   4.387   2.588
 5442TIP3    H216270   3.642   4.527   2.617
 5443TIP3   OH216271   4.717   7.248   1.366
 5443TIP3    H116272   4.632   7.203   1.365
 5443TIP3    H216273   4.698   7.334   1.403
 5444TIP3   OH216274   1.777   4.513   5.862
 5444TIP3    H116275   1.723   4.542   5.789
 5444TIP3    H216276   1.728   4.540   5.940
 5445TIP3   OH216277   7.726   7.652   6.349
 5445TIP3    H116278   7.801   7.708   6.370
 5445TIP3    H216279   7.752   7.607   6.268
 5446TIP3   OH216280   0.594   3.238   3.846
 5446TIP3    H116281   0.648   3.215   3.770
 5446TIP3    H216282   0.590   3.158   3.897
 5447TIP3   OH216283   1.422   1.084   3.477
 5447TIP3    H116284   1.392   1.029   3.404
 5447TIP3    H216285   1.517   1.077   3.474
 5448TIP3   OH216286   4.859   6.645   3.840
 5448TIP3    H116287   4.845   6.644   3.935
 5448TIP3    H216288   4.773   6.670   3.804
 5449TIP3   OH216289   6.936   5.848   5.789
 5449TIP3    H116290   7.013   5.889   5.748
 5449TIP3    H216291   6.962   5.757   5.803
 5450TIP3   OH216292   0.310   5.917   0.826
 5450TIP3    H116293   0.382   5.908   0.764
 5450TIP3    H216294   0.234   5.881   0.780
 5451TIP3   OH216295   7.518   0.129   4.492
 5451TIP3    H116296   7.603   0.087   4.484
 5451TIP3    H216297   7.535   0.208   4.544
 5452TIP3   OH216298   6.448   4.184   2.178
 5452TIP3    H116299   6.477   4.267   2.214
 5452TIP3    H216300   6.438   4.200   2.084
 5453TIP3   OH216301   0.869   5.593   4.369
 5453TIP3    H116302   0.915   5.562   4.292
 5453TIP3    H216303   0.876   5.688   4.366
 5454TIP3   OH216304   0.864   0.452   1.350
 5454TIP3    H116305   0.793   0.407   1.304
 5454TIP3    H216306   0.844   0.545   1.340
 5455TIP3   OH216307   6.723   4.580   4.228
 5455TIP3    H116308   6.724   4.518   4.155
 5455TIP3    H216309   6.683   4.532   4.300
 5456TIP3   OH216310   3.193   4.687   0.038
 5456TIP3    H116311   3.159   4.622  -0.024
 5456TIP3    H216312   3.285   4.661   0.052
 5457TIP3   OH216313   0.761   7.808   4.230
 5457TIP3    H116314   0.753   7.730   4.286
 5457TIP3    H216315   0.729   7.779   4.145
 5458TIP3   OH216316   1.326   4.037   6.040
 5458TIP3    H116317   1.404   4.084   6.010
 5458TIP3    H216318   1.255   4.069   5.985
 5459TIP3   OH216319   0.509   7.129   2.488
 5459TIP3    H116320   0.598   7.100   2.509
 5459TIP3    H216321   0.500   7.112   2.395
 5460TIP3   OH216322   4.546   3.950   3.693
 5460TIP3    H116323   4.481   3.958   3.624
 5460TIP3    H216324   4.499   3.911   3.766
 5461TIP3   OH216325   1.770   0.540   1.833
 5461TIP3    H116326   1.856   0.503   1.815
 5461TIP3    H216327   1.773   0.628   1.796
 5462TIP3   OH216328   3.627   2.418   3.439
 5462TIP3    H116329   3.708   2.372   3.414
 5462TIP3    H216330   3.562   2.387   3.376
 5463TIP3   OH216331   6.433   6.981   6.027
 5463TIP3    H116332   6.442   6.925   6.104
 5463TIP3    H216333   6.514   6.968   5.978
 5464TIP3   OH216334   6.906   4.240   6.261
 5464TIP3    H116335   6.968   4.191   6.207
 5464TIP3    H216336   6.840   4.271   6.199
 5465TIP3   OH216337   7.449   6.642   2.310
 5465TIP3    H116338   7.355   6.629   2.293
 5465TIP3    H216339   7.475   6.710   2.247
 5466TIP3   OH216340   2.998   4.413   3.285
 5466TIP3    H116341   3.060   4.483   3.265
 5466TIP3    H216342   2.988   4.365   3.203
 5467TIP3   OH216343   0.225   4.078   4.531
 5467TIP3    H116344   0.164   4.108   4.599
 5467TIP3    H216345   0.197   3.988   4.512
 5468TIP3   OH216346   7.198   6.005   2.693
 5468TIP3    H116347   7.204   5.933   2.756
 5468TIP3    H216348   7.234   6.080   2.740
 5469TIP3   OH216349   8.183   2.476   0.839
 5469TIP3    H116350   8.271   2.472   0.877
 5469TIP3    H216351   8.147   2.559   0.869
 5470TIP3   OH216352   7.661   6.617   4.772
 5470TIP3    H116353   7.609   6.557   4.719
 5470TIP3    H216354   7.691   6.564   4.845
 5471TIP3   OH216355   3.722   4.020   3.509
 5471TIP3    H116356   3.768   4.104   3.502
 5471TIP3    H216357   3.742   3.990   3.598
 5472TIP3   OH216358   8.259   5.595   0.689
 5472TIP3    H116359   8.322   5.542   0.738
 5472TIP3    H216360   8.180   5.542   0.687
 5473TIP3   OH216361   4.944   2.000   2.488
 5473TIP3    H116362   4.948   2.034   2.399
 5473TIP3    H216363   4.905   2.071   2.540
 5474TIP3   OH216364   2.628   0.502   5.520
 5474TIP3    H116365   2.663   0.462   5.440
 5474TIP3    H216366   2.692   0.481   5.587
 5475TIP3   OH216367   6.848   5.607   6.652
 5475TIP3    H116368   6.807   5.561   6.579
 5475TIP3    H216369   6.938   5.623   6.623
 5476TIP3   OH216370   2.805   5.235   6.716
 5476TIP3    H116371   2.799   5.331   6.708
 5476TIP3    H216372   2.897   5.215   6.700
 5477TIP3   OH216373   5.436   3.167   6.483
 5477TIP3    H116374   5.394   3.105   6.424
 5477TIP3    H216375   5.428   3.252   6.439
 5478TIP3   OH216376   2.682   4.742   2.808
 5478TIP3    H116377   2.768   4.783   2.821
 5478TIP3    H216378   2.669   4.689   2.886
 5479TIP3   OH216379   7.298   6.775   2.945
 5479TIP3    H116380   7.355   6.730   2.883
 5479TIP3    H216381   7.282   6.710   3.014
 5480TIP3   OH216382   4.008   0.253   6.642
 5480TIP3    H116383   3.967   0.329   6.683
 5480TIP3    H216384   4.098   0.254   6.674
 5481TIP3   OH216385   3.960   1.274   2.937
 5481TIP3    H116386   3.924   1.201   2.987
 5481TIP3    H216387   3.919   1.266   2.851
 5482TIP3   OH216388   4.489   4.721   6.211
 5482TIP3    H116389   4.528   4.644   6.170
 5482TIP3    H216390   4.398   4.722   6.180
 5483TIP3   OH216391   4.816   1.047   0.486
 5483TIP3    H116392   4.899   1.046   0.439
 5483TIP3    H216393   4.769   1.123   0.451
 5484TIP3   OH216394   2.299   0.659   5.290
 5484TIP3    H116395   2.258   0.745   5.302
 5484TIP3    H216396   2.318   0.654   5.196
 5485TIP3   OH216397   5.489   5.859   4.702
 5485TIP3    H116398   5.444   5.933   4.742
 5485TIP3    H216399   5.582   5.882   4.707
 5486TIP3   OH216400   1.947   7.528   0.977
 5486TIP3    H116401   1.949   7.470   1.054
 5486TIP3    H216402   1.865   7.576   0.985
 5487TIP3   OH216403   7.941   7.434   1.756
 5487TIP3    H116404   7.951   7.470   1.844
 5487TIP3    H216405   7.846   7.436   1.740
 5488TIP3   OH216406   7.062   1.176   3.281
 5488TIP3    H116407   7.031   1.226   3.357
 5488TIP3    H216408   7.098   1.242   3.222
 5489TIP3   OH216409   7.105   5.749   5.177
 5489TIP3    H116410   7.164   5.727   5.249
 5489TIP3    H216411   7.018   5.724   5.209
 5490TIP3   OH216412   1.721   6.269   3.289
 5490TIP3    H116413   1.630   6.275   3.317
 5490TIP3    H216414   1.771   6.309   3.360
 5491TIP3   OH216415   2.102   3.116   0.869
 5491TIP3    H116416   2.192   3.133   0.897
 5491TIP3    H216417   2.081   3.188   0.810
 5492TIP3   OH216418   2.808   4.971   2.356
 5492TIP3    H116419   2.786   4.943   2.267
 5492TIP3    H216420   2.817   5.066   2.349
 5493TIP3   OH216421   4.263   1.889   4.093
 5493TIP3    H116422   4.254   1.981   4.068
 5493TIP3    H216423   4.211   1.879   4.173
 5494TIP3   OH216424   2.124   3.053   5.015
 5494TIP3    H116425   2.045   3.025   5.062
 5494TIP3    H216426   2.178   3.095   5.082
 5495TIP3   OH216427   7.658   6.177   4.453
 5495TIP3    H116428   7.666   6.085   4.428
 5495TIP3    H216429   7.569   6.201   4.430
 5496TIP3   OH216430   5.525   1.989   4.649
 5496TIP3    H116431   5.558   1.984   4.738
 5496TIP3    H216432   5.519   2.083   4.631
 5497TIP3   OH216433   6.658   4.882   6.637
 5497TIP3    H116434   6.609   4.800   6.649
 5497TIP3    H216435   6.627   4.916   6.553
 5498TIP3   OH216436   1.308   4.265   5.345
 5498TIP3    H116437   1.283   4.216   5.423
 5498TIP3    H216438   1.395   4.300   5.365
 5499TIP3   OH216439   7.201   1.798   3.269
 5499TIP3    H116440   7.287   1.764   3.246
 5499TIP3    H216441   7.165   1.830   3.186
 5500TIP3   OH216442   6.752   4.978   4.487
 5500TIP3    H116443   6.787   4.889   4.484
 5500TIP3    H216444   6.676   4.973   4.544
 5501TIP3   OH216445   8.199   7.699   5.922
 5501TIP3    H116446   8.279   7.731   5.963
 5501TIP3    H216447   8.219   7.696   5.828
 5502TIP3   OH216448   5.411   2.703   0.747
 5502TIP3    H116449   5.351   2.769   0.713
 5502TIP3    H216450   5.434   2.649   0.672
 5503TIP3   OH216451   5.178   0.824   2.546
 5503TIP3    H116452   5.192   0.741   2.501
 5503TIP3    H216453   5.259   0.873   2.531
 5504TIP3   OH216454   7.701   3.140   5.244
 5504TIP3    H116455   7.765   3.096   5.187
 5504TIP3    H216456   7.621   3.144   5.192
 5505TIP3   OH216457   3.671   3.755   6.530
 5505TIP3    H116458   3.611   3.683   6.507
 5505TIP3    H216459   3.757   3.713   6.533
 5506TIP3   OH216460   2.745   5.858   6.204
 5506TIP3    H116461   2.655   5.882   6.225
 5506TIP3    H216462   2.794   5.940   6.211
 5507TIP3   OH216463   5.280   4.890   4.971
 5507TIP3    H116464   5.188   4.910   4.959
 5507TIP3    H216465   5.288   4.797   4.949
 5508TIP3   OH216466   6.816   7.619   4.195
 5508TIP3    H116467   6.876   7.605   4.121
 5508TIP3    H216468   6.729   7.601   4.159
 5509TIP3   OH216469   5.877   1.867   0.255
 5509TIP3    H116470   5.962   1.908   0.239
 5509TIP3    H216471   5.878   1.845   0.348
 5510TIP3   OH216472   7.606   3.753   6.289
 5510TIP3    H116473   7.542   3.804   6.238
 5510TIP3    H216474   7.675   3.733   6.226
 5511TIP3   OH216475   7.232   2.236   1.042
 5511TIP3    H116476   7.296   2.227   0.971
 5511TIP3    H216477   7.162   2.289   1.004
 5512TIP3   OH216478   0.985   1.564   5.734
 5512TIP3    H116479   0.934   1.513   5.797
 5512TIP3    H216480   1.076   1.551   5.760
 5513TIP3   OH216481   3.581   7.746   5.476
 5513TIP3    H116482   3.593   7.660   5.436
 5513TIP3    H216483   3.500   7.738   5.527
 5514TIP3   OH216484   7.770   0.708   5.657
 5514TIP3    H116485   7.859   0.675   5.653
 5514TIP3    H216486   7.772   0.788   5.604
 5515TIP3   OH216487   5.460   3.479   3.101
 5515TIP3    H116488   5.553   3.460   3.085
 5515TIP3    H216489   5.457   3.574   3.114
 5516TIP3   OH216490   2.872   5.028   0.391
 5516TIP3    H116491   2.838   5.115   0.413
 5516TIP3    H216492   2.888   5.032   0.297
 5517TIP3   OH216493   0.670   0.194   4.155
 5517TIP3    H116494   0.686   0.272   4.102
 5517TIP3    H216495   0.756   0.173   4.193
 5518TIP3   OH216496   7.008   4.981   1.336
 5518TIP3    H116497   7.037   4.952   1.249
 5518TIP3    H216498   7.036   5.073   1.341
 5519TIP3   OH216499   2.840   6.915   6.575
 5519TIP3    H116500   2.793   6.835   6.552
 5519TIP3    H216501   2.858   6.906   6.669
 5520TIP3   OH216502   4.891   0.681   3.874
 5520TIP3    H116503   4.923   0.591   3.868
 5520TIP3    H216504   4.971   0.734   3.880
 5521TIP3   OH216505   7.959   3.810   5.373
 5521TIP3    H116506   7.914   3.893   5.355
 5521TIP3    H216507   7.938   3.792   5.465
 5522TIP3   OH216508   0.611   5.090   6.770
 5522TIP3    H116509   0.588   5.016   6.826
 5522TIP3    H216510   0.536   5.149   6.776
 5523TIP3   OH216511   1.787   0.474  -0.038
 5523TIP3    H116512   1.807   0.433  -0.122
 5523TIP3    H216513   1.775   0.400   0.022
 5524TIP3   OH216514   5.674   4.588   5.605
 5524TIP3    H116515   5.696   4.636   5.685
 5524TIP3    H216516   5.741   4.520   5.598
 5525TIP3   OH216517   6.480   2.101   1.756
 5525TIP3    H116518   6.551   2.040   1.774
 5525TIP3    H216519   6.452   2.080   1.667
 5526TIP3   OH216520   1.999   4.624   1.779
 5526TIP3    H116521   1.932   4.596   1.716
 5526TIP3    H216522   2.052   4.546   1.794
 5527TIP3   OH216523   5.064   0.562   4.108
 5527TIP3    H116524   5.054   0.643   4.159
 5527TIP3    H216525   5.063   0.492   4.173
 5528TIP3   OH216526   7.744   2.566   2.374
 5528TIP3    H116527   7.820   2.565   2.431
 5528TIP3    H216528   7.688   2.635   2.409
 5529TIP3   OH216529   8.023   2.767   6.677
 5529TIP3    H116530   8.009   2.754   6.583
 5529TIP3    H216531   7.946   2.815   6.706
 5530TIP3   OH216532   8.243   0.146   3.812
 5530TIP3    H116533   8.226   0.157   3.905
 5530TIP3    H216534   8.168   0.186   3.768
 5531TIP3   OH216535   6.322   3.045   4.338
 5531TIP3    H116536   6.369   3.066   4.257
 5531TIP3    H216537   6.367   2.969   4.373
 5532TIP3   OH216538   8.230   7.137   4.991
 5532TIP3    H116539   8.270   7.203   4.935
 5532TIP3    H216540   8.303   7.087   5.026
 5533TIP3   OH216541   4.316   0.635   4.938
 5533TIP3    H116542   4.367   0.583   4.999
 5533TIP3    H216543   4.314   0.583   4.858
 5534TIP3   OH216544   0.484   5.259   5.216
 5534TIP3    H116545   0.542   5.315   5.165
 5534TIP3    H216546   0.396   5.289   5.193
 5535TIP3   OH216547   6.816   0.264   2.918
 5535TIP3    H116548   6.898   0.228   2.884
 5535TIP3    H216549   6.762   0.187   2.939
 5536TIP3   OH216550   6.843   5.945   5.434
 5536TIP3    H116551   6.838   6.026   5.485
 5536TIP3    H216552   6.903   5.965   5.362
 5537TIP3   OH216553   2.513   0.370   5.087
 5537TIP3    H116554   2.444   0.315   5.051
 5537TIP3    H216555   2.477   0.459   5.082
 5538TIP3   OH216556   4.793   4.876   6.057
 5538TIP3    H116557   4.763   4.785   6.058
 5538TIP3    H216558   4.731   4.923   6.113
 5539TIP3   OH216559   6.086   0.581   3.233
 5539TIP3    H116560   6.070   0.657   3.289
 5539TIP3    H216561   6.144   0.614   3.164
 5540TIP3   OH216562   1.186   1.554   2.986
 5540TIP3    H116563   1.157   1.631   3.035
 5540TIP3    H216564   1.235   1.502   3.050
 5541TIP3   OH216565   5.361   7.623   2.531
 5541TIP3    H116566   5.382   7.532   2.509
 5541TIP3    H216567   5.329   7.619   2.621
 5542TIP3   OH216568   0.661   3.493   3.651
 5542TIP3    H116569   0.732   3.541   3.608
 5542TIP3    H216570   0.642   3.544   3.729
 5543TIP3   OH216571   1.929   1.463   0.486
 5543TIP3    H116572   2.006   1.467   0.544
 5543TIP3    H216573   1.965   1.479   0.399
 5544TIP3   OH216574   6.853   3.678   0.863
 5544TIP3    H116575   6.763   3.644   0.868
 5544TIP3    H216576   6.872   3.678   0.769
 5545TIP3   OH216577   2.379   6.052   5.163
 5545TIP3    H116578   2.296   6.092   5.190
 5545TIP3    H216579   2.353   5.985   5.100
 5546TIP3   OH216580   1.782   0.285   5.245
 5546TIP3    H116581   1.776   0.316   5.155
 5546TIP3    H216582   1.795   0.364   5.297
 5547TIP3   OH216583   6.082   0.947   1.852
 5547TIP3    H116584   6.146   1.018   1.839
 5547TIP3    H216585   6.062   0.916   1.764
 5548TIP3   OH216586   6.328   3.163   3.744
 5548TIP3    H116587   6.345   3.153   3.650
 5548TIP3    H216588   6.336   3.258   3.760
 5549TIP3   OH216589   5.691   5.297   3.240
 5549TIP3    H116590   5.606   5.258   3.220
 5549TIP3    H216591   5.703   5.282   3.333
 5550TIP3   OH216592   1.100   5.793   3.099
 5550TIP3    H116593   1.104   5.741   3.180
 5550TIP3    H216594   1.069   5.879   3.127
 5551TIP3   OH216595  -0.037   3.903   3.778
 5551TIP3    H116596  -0.037   3.849   3.857
 5551TIP3    H216597   0.008   3.850   3.713
 5552TIP3   OH216598   2.234   0.225   4.825
 5552TIP3    H116599   2.283   0.178   4.892
 5552TIP3    H216600   2.277   0.310   4.820
 5553TIP3   OH216601   2.729   4.189   6.138
 5553TIP3    H116602   2.803   4.129   6.144
 5553TIP3    H216603   2.703   4.206   6.228
 5554TIP3   OH216604   1.747   4.677   6.274
 5554TIP3    H116605   1.653   4.667   6.258
 5554TIP3    H216606   1.753   4.689   6.369
 5555TIP3   OH216607   5.780   4.249   3.920
 5555TIP3    H116608   5.839   4.272   3.992
 5555TIP3    H216609   5.700   4.298   3.937
 5556TIP3   OH216610   7.099   7.791   5.679
 5556TIP3    H116611   7.034   7.843   5.727
 5556TIP3    H216612   7.098   7.827   5.591
 5557TIP3   OH216613   4.593   7.301   4.775
 5557TIP3    H116614   4.658   7.289   4.706
 5557TIP3    H216615   4.514   7.257   4.743
 5558TIP3   OH216616   5.285   0.366   1.535
 5558TIP3    H116617   5.302   0.284   1.581
 5558TIP3    H216618   5.329   0.356   1.450
 5559TIP3   OH216619   3.226   4.287   2.957
 5559TIP3    H116620   3.269   4.207   2.987
 5559TIP3    H216621   3.270   4.357   3.005
 5560TIP3   OH216622   1.810   0.374   3.545
 5560TIP3    H116623   1.790   0.464   3.573
 5560TIP3    H216624   1.900   0.379   3.512
 5561TIP3   OH216625   7.773   2.481   6.480
 5561TIP3    H116626   7.715   2.408   6.461
 5561TIP3    H216627   7.861   2.444   6.475
 5562TIP3   OH216628   6.687   4.433   3.090
 5562TIP3    H116629   6.624   4.452   3.159
 5562TIP3    H216630   6.648   4.470   3.010
 5563TIP3   OH216631   0.129   3.385   2.651
 5563TIP3    H116632   0.094   3.376   2.563
 5563TIP3    H216633   0.057   3.358   2.708
 5564TIP3   OH216634   1.235   4.664   3.555
 5564TIP3    H116635   1.164   4.728   3.546
 5564TIP3    H216636   1.203   4.587   3.509
 5565TIP3   OH216637   4.032   1.013   1.032
 5565TIP3    H116638   3.992   1.011   1.119
 5565TIP3    H216639   3.974   1.069   0.981
 5566TIP3   OH216640   2.498   7.461   2.843
 5566TIP3    H116641   2.592   7.449   2.851
 5566TIP3    H216642   2.481   7.462   2.749
 5567TIP3   OH216643   6.517   0.294   0.914
 5567TIP3    H116644   6.432   0.337   0.924
 5567TIP3    H216645   6.512   0.250   0.829
 5568TIP3   OH216646   0.844   0.026   3.550
 5568TIP3    H116647   0.771   0.067   3.597
 5568TIP3    H216648   0.817   0.027   3.458
 5569TIP3   OH216649   4.705   4.612   6.068
 5569TIP3    H116650   4.693   4.570   5.983
 5569TIP3    H216651   4.771   4.558   6.112
 5570TIP3   OH216652   7.216   4.514   4.737
 5570TIP3    H116653   7.308   4.507   4.762
 5570TIP3    H216654   7.214   4.581   4.669
 5571TIP3   OH216655   0.832   1.011   2.435
 5571TIP3    H116656   0.854   1.093   2.480
 5571TIP3    H216657   0.844   0.943   2.502
 5572TIP3   OH216658   2.568   7.197   4.145
 5572TIP3    H116659   2.524   7.260   4.089
 5572TIP3    H216660   2.644   7.168   4.094
 5573TIP3   OH216661   3.912   0.074   1.683
 5573TIP3    H116662   3.888  -0.019   1.686
 5573TIP3    H216663   3.830   0.119   1.662
 5574TIP3   OH216664   4.327   0.084   2.865
 5574TIP3    H116665   4.387   0.025   2.911
 5574TIP3    H216666   4.308   0.039   2.782
 5575TIP3   OH216667   7.575   2.985   2.465
 5575TIP3    H116668   7.667   2.985   2.440
 5575TIP3    H216669   7.533   3.043   2.401
 5576TIP3   OH216670   2.651   7.437   4.724
 5576TIP3    H116671   2.698   7.368   4.678
 5576TIP3    H216672   2.708   7.461   4.797
 5577TIP3   OH216673   7.298   4.716   0.054
 5577TIP3    H116674   7.358   4.712   0.129
 5577TIP3    H216675   7.268   4.807   0.054
 5578TIP3   OH216676   0.487   3.312   1.268
 5578TIP3    H116677   0.527   3.256   1.335
 5578TIP3    H216678   0.555   3.322   1.202
 5579TIP3   OH216679   1.478   2.177   4.355
 5579TIP3    H116680   1.548   2.202   4.415
 5579TIP3    H216681   1.446   2.260   4.319
 5580TIP3   OH216682   4.142   2.033   1.946
 5580TIP3    H116683   4.218   1.976   1.935
 5580TIP3    H216684   4.178   2.122   1.948
 5581TIP3   OH216685   8.229   4.912   3.615
 5581TIP3    H116686   8.237   4.966   3.694
 5581TIP3    H216687   8.138   4.883   3.615
 5582TIP3   OH216688   5.945   0.476   3.477
 5582TIP3    H116689   5.943   0.440   3.565
 5582TIP3    H216690   6.035   0.509   3.467
 5583TIP3   OH216691   3.047   0.022   3.317
 5583TIP3    H116692   2.993  -0.025   3.253
 5583TIP3    H216693   3.089   0.092   3.266
 5584TIP3   OH216694   0.703   3.329   0.054
 5584TIP3    H116695   0.767   3.275   0.006
 5584TIP3    H216696   0.739   3.335   0.142
 5585TIP3   OH216697   4.417   5.134   3.609
 5585TIP3    H116698   4.426   5.225   3.579
 5585TIP3    H216699   4.506   5.103   3.619
 5586TIP3   OH216700   5.725   1.466   4.581
 5586TIP3    H116701   5.806   1.501   4.618
 5586TIP3    H216702   5.659   1.532   4.603
 5587TIP3   OH216703   0.098   3.821   4.045
 5587TIP3    H116704   0.165   3.792   3.983
 5587TIP3    H216705   0.139   3.894   4.092
 5588TIP3   OH216706   6.874   4.706   2.380
 5588TIP3    H116707   6.924   4.669   2.308
 5588TIP3    H216708   6.908   4.662   2.458
 5589TIP3   OH216709   1.356   1.423   0.852
 5589TIP3    H116710   1.359   1.330   0.875
 5589TIP3    H216711   1.387   1.467   0.931
 5590TIP3   OH216712   3.775   4.769   2.355
 5590TIP3    H116713   3.830   4.694   2.332
 5590TIP3    H216714   3.806   4.794   2.442
 5591TIP3   OH216715   0.127   0.353   5.324
 5591TIP3    H116716   0.078   0.432   5.345
 5591TIP3    H216717   0.061   0.283   5.325
 5592TIP3   OH216718   3.407   7.559   0.908
 5592TIP3    H116719   3.343   7.626   0.886
 5592TIP3    H216720   3.358   7.494   0.959
 5593TIP3   OH216721   8.149   3.428   5.245
 5593TIP3    H116722   8.141   3.332   5.249
 5593TIP3    H216723   8.190   3.452   5.328
 5594TIP3   OH216724   0.385   5.726   3.037
 5594TIP3    H116725   0.331   5.766   2.968
 5594TIP3    H216726   0.466   5.702   2.992
 5595TIP3   OH216727   2.266   1.535   3.378
 5595TIP3    H116728   2.311   1.615   3.405
 5595TIP3    H216729   2.304   1.514   3.292
 5596TIP3   OH216730   0.664   4.264   6.080
 5596TIP3    H116731   0.679   4.217   6.163
 5596TIP3    H216732   0.571   4.251   6.062
 5597TIP3   OH216733   5.568   0.293   5.466
 5597TIP3    H116734   5.648   0.301   5.414
 5597TIP3    H216735   5.566   0.372   5.520
 5598TIP3   OH216736   3.896   3.477   2.561
 5598TIP3    H116737   3.827   3.434   2.509
 5598TIP3    H216738   3.963   3.409   2.572
 5599TIP3   OH216739   3.500   6.244   3.915
 5599TIP3    H116740   3.412   6.269   3.887
 5599TIP3    H216741   3.539   6.203   3.839
 5600TIP3   OH216742   1.885   7.060   6.446
 5600TIP3    H116743   1.965   7.042   6.396
 5600TIP3    H216744   1.880   7.156   6.449
 5601TIP3   OH216745   1.543   4.975   4.382
 5601TIP3    H116746   1.579   4.893   4.417
 5601TIP3    H216747   1.588   4.987   4.298
 5602TIP3   OH216748   8.003   3.357   1.579
 5602TIP3    H116749   7.985   3.276   1.531
 5602TIP3    H216750   8.052   3.410   1.517
 5603TIP3   OH216751   5.879   7.348   4.047
 5603TIP3    H116752   5.832   7.320   3.968
 5603TIP3    H216753   5.882   7.269   4.102
 5604TIP3   OH216754   0.014   0.800   3.568
 5604TIP3    H116755   0.094   0.766   3.608
 5604TIP3    H216756   0.024   0.782   3.474
 5605TIP3   OH216757   5.998   2.599   2.039
 5605TIP3    H116758   5.918   2.621   2.085
 5605TIP3    H216759   6.022   2.679   1.992
 5606TIP3   OH216760   7.410   3.416   2.893
 5606TIP3    H116761   7.381   3.421   2.984
 5606TIP3    H216762   7.373   3.333   2.861
 5607TIP3   OH216763   6.525   3.934   2.339
 5607TIP3    H116764   6.449   3.886   2.372
 5607TIP3    H216765   6.488   3.999   2.280
 5608TIP3   OH216766   5.719   4.298   3.161
 5608TIP3    H116767   5.673   4.357   3.220
 5608TIP3    H216768   5.710   4.211   3.201
 5609TIP3   OH216769   7.766   4.988   4.567
 5609TIP3    H116770   7.744   4.903   4.604
 5609TIP3    H216771   7.833   5.024   4.625
 5610TIP3   OH216772   4.355   6.743   0.545
 5610TIP3    H116773   4.388   6.664   0.588
 5610TIP3    H216774   4.375   6.731   0.453
 5611TIP3   OH216775   5.206   6.683   1.707
 5611TIP3    H116776   5.137   6.656   1.768
 5611TIP3    H216777   5.167   6.755   1.657
 5612TIP3   OH216778   3.722   6.860   5.960
 5612TIP3    H116779   3.641   6.861   5.910
 5612TIP3    H216780   3.708   6.795   6.029
 5613TIP3   OH216781   4.306   4.570   1.027
 5613TIP3    H116782   4.354   4.507   1.080
 5613TIP3    H216783   4.222   4.528   1.009
 5614TIP3   OH216784   5.643   6.357   1.804
 5614TIP3    H116785   5.549   6.365   1.821
 5614TIP3    H216786   5.683   6.367   1.891
 5615TIP3   OH216787   6.622   7.670   2.288
 5615TIP3    H116788   6.644   7.752   2.242
 5615TIP3    H216789   6.691   7.662   2.355
 5616TIP3   OH216790   1.816   1.335   0.063
 5616TIP3    H116791   1.772   1.349  -0.021
 5616TIP3    H216792   1.771   1.259   0.101
 5617TIP3   OH216793   0.979   6.707   1.008
 5617TIP3    H116794   0.898   6.667   1.039
 5617TIP3    H216795   1.030   6.633   0.973
 5618TIP3   OH216796   0.432   0.709   2.975
 5618TIP3    H116797   0.433   0.791   2.925
 5618TIP3    H216798   0.523   0.697   3.003
 5619TIP3   OH216799   5.927   6.998   3.000
 5619TIP3    H116800   5.904   6.964   2.914
 5619TIP3    H216801   5.844   7.029   3.037
 5620TIP3   OH216802   5.814   5.632   2.714
 5620TIP3    H116803   5.885   5.575   2.744
 5620TIP3    H216804   5.802   5.608   2.622
 5621TIP3   OH216805   1.071   0.697   3.568
 5621TIP3    H116806   1.093   0.786   3.543
 5621TIP3    H216807   1.019   0.664   3.494
 5622TIP3   OH216808   7.970   1.947   2.830
 5622TIP3    H116809   7.903   2.011   2.855
 5622TIP3    H216810   7.985   1.895   2.909
 5623TIP3   OH216811   4.695   2.560   0.209
 5623TIP3    H116812   4.651   2.491   0.161
 5623TIP3    H216813   4.736   2.614   0.141
 5624TIP3   OH216814   2.984   5.825   5.475
 5624TIP3    H116815   2.985   5.749   5.417
 5624TIP3    H216816   2.892   5.834   5.501
 5625TIP3   OH216817   0.150   6.722   3.118
 5625TIP3    H116818   0.099   6.802   3.118
 5625TIP3    H216819   0.184   6.716   3.029
 5626TIP3   OH216820   3.183   5.242   1.062
 5626TIP3    H116821   3.210   5.334   1.071
 5626TIP3    H216822   3.155   5.217   1.150
 5627TIP3   OH216823   2.891   5.670   1.603
 5627TIP3    H116824   2.902   5.625   1.687
 5627TIP3    H216825   2.869   5.600   1.542
 5628TIP3   OH216826   5.708   3.245   0.140
 5628TIP3    H116827   5.703   3.173   0.077
 5628TIP3    H216828   5.670   3.320   0.093
 5629TIP3   OH216829   8.055   5.570   6.136
 5629TIP3    H116830   8.013   5.509   6.195
 5629TIP3    H216831   8.030   5.657   6.169
 5630TIP3   OH216832   7.233   4.133   3.215
 5630TIP3    H116833   7.175   4.105   3.285
 5630TIP3    H216834   7.187   4.206   3.173
 5631TIP3   OH216835   3.707   3.523   6.121
 5631TIP3    H116836   3.715   3.469   6.199
 5631TIP3    H216837   3.657   3.469   6.060
 5632TIP3   OH216838   1.640   5.596   1.060
 5632TIP3    H116839   1.560   5.647   1.052
 5632TIP3    H216840   1.634   5.531   0.990
 5633TIP3   OH216841   2.112   7.462   2.850
 5633TIP3    H116842   2.104   7.487   2.942
 5633TIP3    H216843   2.187   7.402   2.849
 5634TIP3   OH216844   2.854   2.990   6.237
 5634TIP3    H116845   2.775   3.011   6.187
 5634TIP3    H216846   2.821   2.960   6.322
 5635TIP3   OH216847   6.940   5.170   4.462
 5635TIP3    H116848   6.886   5.247   4.481
 5635TIP3    H216849   6.877   5.098   4.457
 5636TIP3   OH216850   4.100   4.969   1.033
 5636TIP3    H116851   4.089   4.913   1.110
 5636TIP3    H216852   4.145   5.047   1.067
 5637TIP3   OH216853   5.555   7.787   4.272
 5637TIP3    H116854   5.621   7.721   4.250
 5637TIP3    H216855   5.473   7.738   4.272
 5638TIP3   OH216856   8.004   1.790   6.551
 5638TIP3    H116857   8.039   1.826   6.470
 5638TIP3    H216858   7.969   1.704   6.526
 5639TIP3   OH216859   6.933   2.943   0.618
 5639TIP3    H116860   6.963   2.994   0.543
 5639TIP3    H216861   6.939   3.003   0.692
 5640TIP3   OH216862   7.945   4.849   0.915
 5640TIP3    H116863   8.020   4.901   0.885
 5640TIP3    H216864   7.884   4.850   0.842
 5641TIP3   OH216865   7.090   6.253   5.676
 5641TIP3    H116866   6.998   6.232   5.656
 5641TIP3    H216867   7.103   6.340   5.637
 5642TIP3   OH216868   6.523   7.088   4.302
 5642TIP3    H116869   6.477   7.153   4.354
 5642TIP3    H216870   6.523   7.123   4.213
 5643TIP3   OH216871   5.494   0.595   0.837
 5643TIP3    H116872   5.545   0.525   0.878
 5643TIP3    H216873   5.555   0.635   0.775
 5644TIP3   OH216874   5.480   5.282   2.480
 5644TIP3    H116875   5.485   5.338   2.403
 5644TIP3    H216876   5.571   5.273   2.509
 5645TIP3   OH216877   7.153   6.644   3.607
 5645TIP3    H116878   7.074   6.694   3.628
 5645TIP3    H216879   7.123   6.571   3.554
 5646TIP3   OH216880   2.632   4.981   4.650
 5646TIP3    H116881   2.626   5.056   4.591
 5646TIP3    H216882   2.586   4.910   4.604
 5647TIP3   OH216883   1.540   6.718   4.364
 5647TIP3    H116884   1.446   6.736   4.371
 5647TIP3    H216885   1.582   6.789   4.413
 5648TIP3   OH216886   0.847   2.457   6.445
 5648TIP3    H116887   0.870   2.454   6.537
 5648TIP3    H216888   0.780   2.525   6.439
 5649TIP3   OH216889   6.643   5.639   2.185
 5649TIP3    H116890   6.640   5.645   2.281
 5649TIP3    H216891   6.642   5.730   2.156
 5650TIP3   OH216892   0.290   5.341   0.603
 5650TIP3    H116893   0.334   5.408   0.549
 5650TIP3    H216894   0.346   5.333   0.680
 5651TIP3   OH216895   3.476   5.703   5.961
 5651TIP3    H116896   3.529   5.646   5.906
 5651TIP3    H216897   3.521   5.788   5.959
 5652TIP3   OH216898   2.118   7.119   3.330
 5652TIP3    H116899   2.055   7.054   3.300
 5652TIP3    H216900   2.198   7.101   3.279
 5653TIP3   OH216901   3.438   0.668   3.300
 5653TIP3    H116902   3.399   0.644   3.385
 5653TIP3    H216903   3.530   0.684   3.320
 5654TIP3   OH216904   0.037   4.000   0.749
 5654TIP3    H116905   0.065   3.982   0.659
 5654TIP3    H216906  -0.059   4.006   0.743
 5655TIP3   OH216907   0.663   2.255   1.439
 5655TIP3    H116908   0.655   2.214   1.525
 5655TIP3    H216909   0.699   2.186   1.383
 5656TIP3   OH216910   7.065   5.604   5.782
 5656TIP3    H116911   6.996   5.542   5.803
 5656TIP3    H216912   7.093   5.580   5.694
 5657TIP3   OH216913   2.320   3.773   4.587
 5657TIP3    H116914   2.326   3.820   4.503
 5657TIP3    H216915   2.267   3.696   4.567
 5658TIP3   OH216916   6.264   1.577   0.314
 5658TIP3    H116917   6.308   1.559   0.397
 5658TIP3    H216918   6.334   1.575   0.249
 5659TIP3   OH216919   2.419   3.119   2.202
 5659TIP3    H116920   2.444   3.199   2.155
 5659TIP3    H216921   2.482   3.053   2.172
 5660TIP3   OH216922   7.798   4.083   4.972
 5660TIP3    H116923   7.854   4.128   4.909
 5660TIP3    H216924   7.855   4.019   5.014
 5661TIP3   OH216925   3.815   6.231   5.331
 5661TIP3    H116926   3.805   6.200   5.421
 5661TIP3    H216927   3.741   6.290   5.317
 5662TIP3   OH216928   4.680   1.744   0.147
 5662TIP3    H116929   4.698   1.782   0.233
 5662TIP3    H216930   4.740   1.670   0.141
 5663TIP3   OH216931   0.071   2.355   1.688
 5663TIP3    H116932   0.042   2.280   1.636
 5663TIP3    H216933   0.145   2.391   1.638
 5664TIP3   OH216934   8.216   6.374   3.333
 5664TIP3    H116935   8.189   6.283   3.348
 5664TIP3    H216936   8.280   6.392   3.402
 5665TIP3   OH216937   5.334   2.493   5.334
 5665TIP3    H116938   5.311   2.453   5.418
 5665TIP3    H216939   5.261   2.472   5.276
 5666TIP3   OH216940   8.146   6.792   2.047
 5666TIP3    H116941   8.051   6.782   2.041
 5666TIP3    H216942   8.181   6.735   1.979
 5667TIP3   OH216943   0.899   6.210   3.874
 5667TIP3    H116944   0.953   6.257   3.937
 5667TIP3    H216945   0.929   6.241   3.788
 5668TIP3   OH216946   1.446   0.091   6.149
 5668TIP3    H116947   1.534   0.066   6.177
 5668TIP3    H216948   1.429   0.174   6.192
 5669TIP3   OH216949   3.142   5.064   2.243
 5669TIP3    H116950   3.082   5.136   2.227
 5669TIP3    H216951   3.222   5.088   2.196
 5670TIP3   OH216952   7.618   2.593   4.486
 5670TIP3    H116953   7.665   2.651   4.546
 5670TIP3    H216954   7.623   2.637   4.401
 5671TIP3   OH216955   2.202   4.842   3.294
 5671TIP3    H116956   2.120   4.890   3.307
 5671TIP3    H216957   2.269   4.899   3.331
 5672TIP3   OH216958   5.279   4.307   0.507
 5672TIP3    H116959   5.222   4.299   0.431
 5672TIP3    H216960   5.221   4.300   0.582
 5673TIP3   OH216961   3.280   6.942   1.878
 5673TIP3    H116962   3.311   6.856   1.904
 5673TIP3    H216963   3.311   6.952   1.787
 5674TIP3   OH216964   2.318   3.529   3.184
 5674TIP3    H116965   2.290   3.619   3.168
 5674TIP3    H216966   2.280   3.507   3.270
 5675TIP3   OH216967   4.020   0.258   4.908
 5675TIP3    H116968   3.949   0.310   4.871
 5675TIP3    H216969   3.976   0.198   4.969
 5676TIP3   OH216970   6.117   3.240   5.886
 5676TIP3    H116971   6.185   3.307   5.877
 5676TIP3    H216972   6.038   3.281   5.851
 5677TIP3   OH216973   1.340   1.937   3.361
 5677TIP3    H116974   1.309   2.024   3.337
 5677TIP3    H216975   1.330   1.933   3.456
 5678TIP3   OH216976   1.252   0.479   4.974
 5678TIP3    H116977   1.284   0.415   4.910
 5678TIP3    H216978   1.190   0.533   4.923
 5679TIP3   OH216979   6.752   0.617   6.207
 5679TIP3    H116980   6.667   0.590   6.171
 5679TIP3    H216981   6.783   0.540   6.254
 5680TIP3   OH216982   1.386   0.982   0.993
 5680TIP3    H116983   1.379   1.043   0.920
 5680TIP3    H216984   1.454   0.920   0.967
 5681TIP3   OH216985   1.460   5.366   3.869
 5681TIP3    H116986   1.439   5.314   3.791
 5681TIP3    H216987   1.510   5.307   3.925
 5682TIP3   OH216988   6.649   5.597   5.804
 5682TIP3    H116989   6.709   5.613   5.878
 5682TIP3    H216990   6.620   5.507   5.817
 5683TIP3   OH216991   3.095   1.553   2.506
 5683TIP3    H116992   3.150   1.631   2.494
 5683TIP3    H216993   3.073   1.525   2.418
 5684TIP3   OH216994   0.544   0.871   4.307
 5684TIP3    H116995   0.548   0.828   4.222
 5684TIP3    H216996   0.563   0.802   4.370
 5685TIP3   OH216997   5.533   6.589   5.610
 5685TIP3    H116998   5.602   6.565   5.672
 5685TIP3    H216999   5.475   6.513   5.608
 5686TIP3   OH217000   3.570   0.760   1.002
 5686TIP3    H117001   3.489   0.711   1.016
 5686TIP3    H217002   3.634   0.717   1.059
 5687TIP3   OH217003   1.032   4.532   5.309
 5687TIP3    H117004   1.022   4.611   5.256
 5687TIP3    H217005   1.036   4.461   5.246
 5688TIP3   OH217006   1.606   6.147   1.244
 5688TIP3    H117007   1.631   6.231   1.283
 5688TIP3    H217008   1.564   6.100   1.316
 5689TIP3   OH217009   5.282   1.819   4.370
 5689TIP3    H117010   5.292   1.806   4.276
 5689TIP3    H217011   5.252   1.910   4.379
 5690TIP3   OH217012   3.141   3.212   4.614
 5690TIP3    H117013   3.101   3.266   4.682
 5690TIP3    H217014   3.069   3.193   4.553
 5691TIP3   OH217015   6.924   6.881   1.800
 5691TIP3    H117016   6.939   6.809   1.860
 5691TIP3    H217017   7.004   6.887   1.748
 5692TIP3   OH217018   4.898   3.695   4.954
 5692TIP3    H117019   4.946   3.739   4.884
 5692TIP3    H217020   4.901   3.757   5.027
 5693TIP3   OH217021   0.341   4.738   4.659
 5693TIP3    H117022   0.341   4.687   4.740
 5693TIP3    H217023   0.421   4.790   4.664
 5694TIP3   OH217024   6.657   0.805   1.219
 5694TIP3    H117025   6.705   0.870   1.271
 5694TIP3    H217026   6.724   0.742   1.192
 5695TIP3   OH217027   6.111   2.203   2.202
 5695TIP3    H117028   6.097   2.238   2.114
 5695TIP3    H217029   6.199   2.165   2.199
 5696TIP3   OH217030   3.343   2.317   1.422
 5696TIP3    H117031   3.413   2.380   1.439
 5696TIP3    H217032   3.373   2.267   1.346
 5697TIP3   OH217033   2.186   4.537   2.029
 5697TIP3    H117034   2.208   4.574   2.115
 5697TIP3    H217035   2.206   4.607   1.967
 5698TIP3   OH217036   2.113   1.864   1.169
 5698TIP3    H117037   2.098   1.882   1.076
 5698TIP3    H217038   2.028   1.880   1.210
 5699TIP3   OH217039   3.287   1.234   4.184
 5699TIP3    H117040   3.282   1.243   4.279
 5699TIP3    H217041   3.322   1.318   4.154
 5700TIP3   OH217042   2.718   1.257   4.957
 5700TIP3    H117043   2.668   1.261   5.039
 5700TIP3    H217044   2.665   1.202   4.899
 5701TIP3   OH217045   5.287   2.144   2.450
 5701TIP3    H117046   5.231   2.156   2.527
 5701TIP3    H217047   5.225   2.136   2.377
 5702TIP3   OH217048   7.041   0.742   1.243
 5702TIP3    H117049   7.024   0.815   1.184
 5702TIP3    H217050   6.956   0.699   1.253
 5703TIP3   OH217051   0.777   0.861   6.427
 5703TIP3    H117052   0.778   0.767   6.444
 5703TIP3    H217053   0.803   0.870   6.335
 5704TIP3   OH217054   8.128   1.362   6.516
 5704TIP3    H117055   8.170   1.437   6.475
 5704TIP3    H217056   8.035   1.372   6.495
 5705TIP3   OH217057   1.515   6.150   6.244
 5705TIP3    H117058   1.512   6.108   6.330
 5705TIP3    H217059   1.606   6.139   6.216
 5706TIP3   OH217060   4.239   1.533   5.698
 5706TIP3    H117061   4.315   1.591   5.688
 5706TIP3    H217062   4.274   1.455   5.742
 5707TIP3   OH217063   5.300   1.556   2.927
 5707TIP3    H117064   5.218   1.600   2.950
 5707TIP3    H217065   5.276   1.463   2.922
 5708TIP3   OH217066   5.484   4.959   6.626
 5708TIP3    H117067   5.548   4.942   6.695
 5708TIP3    H217068   5.499   5.051   6.603
 5709TIP3   OH217069   0.122   1.016   5.126
 5709TIP3    H117070   0.147   1.001   5.035
 5709TIP3    H217071   0.199   1.056   5.166
 5710TIP3   OH217072   3.156   0.824   6.089
 5710TIP3    H117073   3.146   0.790   6.179
 5710TIP3    H217074   3.234   0.879   6.093
 5711TIP3   OH217075   3.097   0.458   6.129
 5711TIP3    H117076   3.066   0.538   6.172
 5711TIP3    H217077   3.185   0.445   6.164
 5712TIP3   OH217078   2.845   2.305   2.132
 5712TIP3    H117079   2.802   2.365   2.193
 5712TIP3    H217080   2.937   2.306   2.159
 5713TIP3   OH217081   7.897   7.075   4.586
 5713TIP3    H117082   7.834   7.054   4.656
 5713TIP3    H217083   7.856   7.042   4.506
 5714TIP3   OH217084   2.839   1.695   0.914
 5714TIP3    H117085   2.745   1.691   0.932
 5714TIP3    H217086   2.861   1.607   0.885
 5715TIP3   OH217087   0.881   2.305   1.098
 5715TIP3    H117088   0.967   2.269   1.121
 5715TIP3    H217089   0.852   2.352   1.176
 5716TIP3   OH217090   6.548   2.731   2.256
 5716TIP3    H117091   6.583   2.710   2.170
 5716TIP3    H217092   6.517   2.647   2.291
 5717TIP3   OH217093   6.378   5.294   0.160
 5717TIP3    H117094   6.406   5.382   0.134
 5717TIP3    H217095   6.293   5.307   0.201
 5718TIP3   OH217096   5.922   3.985   2.783
 5718TIP3    H117097   5.957   4.054   2.839
 5718TIP3    H217098   5.991   3.918   2.781
 5719TIP3   OH217099   1.067   4.477   4.020
 5719TIP3    H117100   1.162   4.490   4.019
 5719TIP3    H217101   1.053   4.402   4.079
 5720TIP3   OH217102   4.149   3.637   1.553
 5720TIP3    H117103   4.134   3.550   1.590
 5720TIP3    H217104   4.106   3.696   1.615
 5721TIP3   OH217105   8.238   7.062   6.278
 5721TIP3    H117106   8.171   7.080   6.212
 5721TIP3    H217107   8.253   6.968   6.272
 5722TIP3   OH217108   3.880   5.062   0.923
 5722TIP3    H117109   3.950   5.016   0.969
 5722TIP3    H217110   3.914   5.150   0.907
 5723TIP3   OH217111   1.960   6.333   1.838
 5723TIP3    H117112   1.922   6.375   1.916
 5723TIP3    H217113   2.052   6.360   1.839
 5724TIP3   OH217114   1.226   7.414   3.855
 5724TIP3    H117115   1.286   7.351   3.896
 5724TIP3    H217116   1.170   7.361   3.798
 5725TIP3   OH217117   7.954   0.104   4.950
 5725TIP3    H117118   8.006   0.182   4.968
 5725TIP3    H217119   7.971   0.086   4.857
 5726TIP3   OH217120   7.433   3.293   6.214
 5726TIP3    H117121   7.471   3.327   6.295
 5726TIP3    H217122   7.362   3.353   6.193
 5727TIP3   OH217123   5.750   0.337   4.666
 5727TIP3    H117124   5.759   0.428   4.638
 5727TIP3    H217125   5.817   0.326   4.734
 5728TIP3   OH217126   7.022   7.082   3.127
 5728TIP3    H117127   7.075   7.010   3.162
 5728TIP3    H217128   7.034   7.076   3.033
 5729TIP3   OH217129   4.414   5.408   2.572
 5729TIP3    H117130   4.411   5.387   2.665
 5729TIP3    H217131   4.332   5.374   2.537
 5730TIP3   OH217132   7.320   5.912   1.567
 5730TIP3    H117133   7.376   5.887   1.641
 5730TIP3    H217134   7.376   5.966   1.512
 5731TIP3   OH217135   0.454   1.784   4.273
 5731TIP3    H117136   0.535   1.742   4.244
 5731TIP3    H217137   0.414   1.819   4.194
 5732TIP3   OH217138   1.068   4.418   5.030
 5732TIP3    H117139   1.158   4.438   5.004
 5732TIP3    H217140   1.014   4.472   4.973
 5733TIP3   OH217141   6.831   1.072   5.200
 5733TIP3    H117142   6.738   1.051   5.200
 5733TIP3    H217143   6.834   1.166   5.219
 5734TIP3   OH217144   7.016   1.493   6.416
 5734TIP3    H117145   7.054   1.442   6.344
 5734TIP3    H217146   6.957   1.555   6.373
 5735TIP3   OH217147   1.225   7.685   0.496
 5735TIP3    H117148   1.148   7.713   0.447
 5735TIP3    H217149   1.299   7.701   0.437
 5736TIP3   OH217150   5.338   3.136   0.841
 5736TIP3    H117151   5.314   3.108   0.929
 5736TIP3    H217152   5.404   3.073   0.813
 5737TIP3   OH217153   6.238   2.761   2.772
 5737TIP3    H117154   6.205   2.708   2.844
 5737TIP3    H217155   6.184   2.839   2.773
 5738TIP3   OH217156   0.816   0.865   0.184
 5738TIP3    H117157   0.815   0.833   0.274
 5738TIP3    H217158   0.728   0.846   0.151
 5739TIP3   OH217159   0.614   0.405   1.239
 5739TIP3    H117160   0.570   0.321   1.230
 5739TIP3    H217161   0.544   0.466   1.262
 5740TIP3   OH217162   4.778   7.223   6.504
 5740TIP3    H117163   4.822   7.169   6.439
 5740TIP3    H217164   4.849   7.267   6.551
 5741TIP3   OH217165   3.911   7.220   2.287
 5741TIP3    H117166   3.995   7.264   2.277
 5741TIP3    H217167   3.846   7.286   2.261
 5742TIP3   OH217168   4.338   3.277   2.445
 5742TIP3    H117169   4.358   3.189   2.475
 5742TIP3    H217170   4.310   3.266   2.354
 5743TIP3   OH217171   0.242   6.534   6.001
 5743TIP3    H117172   0.316   6.565   6.053
 5743TIP3    H217173   0.237   6.441   6.019
 5744TIP3   OH217174   7.127   7.350   6.079
 5744TIP3    H117175   7.114   7.353   5.984
 5744TIP3    H217176   7.056   7.403   6.115
 5745TIP3   OH217177   6.820   7.104   1.595
 5745TIP3    H117178   6.821   7.021   1.643
 5745TIP3    H217179   6.874   7.162   1.649
 5746TIP3   OH217180   3.315   1.200   4.463
 5746TIP3    H117181   3.272   1.157   4.536
 5746TIP3    H217182   3.364   1.272   4.502
 5747TIP3   OH217183   2.515   0.260   3.470
 5747TIP3    H117184   2.591   0.315   3.451
 5747TIP3    H217185   2.445   0.321   3.491
 5748TIP3   OH217186   4.787   1.339   6.077
 5748TIP3    H117187   4.714   1.364   6.134
 5748TIP3    H217188   4.762   1.253   6.043
 5749TIP3   OH217189   0.461   5.366   6.051
 5749TIP3    H117190   0.487   5.276   6.069
 5749TIP3    H217191   0.383   5.380   6.106
 5750TIP3   OH217192   0.469   1.144   3.799
 5750TIP3    H117193   0.548   1.153   3.852
 5750TIP3    H217194   0.501   1.120   3.712
 5751TIP3   OH217195   5.005   6.500   2.613
 5751TIP3    H117196   5.083   6.555   2.618
 5751TIP3    H217197   4.991   6.486   2.519
 5752TIP3   OH217198   4.986   2.189   6.501
 5752TIP3    H117199   5.060   2.138   6.535
 5752TIP3    H217200   4.999   2.276   6.537
 5753TIP3   OH217201   6.838   3.119   0.092
 5753TIP3    H117202   6.815   3.205   0.128
 5753TIP3    H217203   6.761   3.064   0.109
 5754TIP3   OH217204   0.959   5.825   2.304
 5754TIP3    H117205   0.867   5.840   2.324
 5754TIP3    H217206   0.981   5.893   2.241
 5755TIP3   OH217207   3.829   4.087   1.307
 5755TIP3    H117208   3.911   4.111   1.350
 5755TIP3    H217209   3.761   4.106   1.371
 5756TIP3   OH217210   1.286   0.771   5.950
 5756TIP3    H117211   1.290   0.784   6.045
 5756TIP3    H217212   1.249   0.852   5.917
 5757TIP3   OH217213   7.155   1.707   5.058
 5757TIP3    H117214   7.064   1.677   5.060
 5757TIP3    H217215   7.184   1.704   5.150
 5758TIP3   OH217216   3.628   1.831   0.364
 5758TIP3    H117217   3.594   1.921   0.360
 5758TIP3    H217218   3.590   1.795   0.444
 5759TIP3   OH217219   7.260   3.302   4.723
 5759TIP3    H117220   7.332   3.293   4.661
 5759TIP3    H217221   7.299   3.344   4.800
 5760TIP3   OH217222   0.341   1.369   6.285
 5760TIP3    H117223   0.314   1.353   6.376
 5760TIP3    H217224   0.400   1.297   6.265
 5761TIP3   OH217225   0.606   6.042   5.624
 5761TIP3    H117226   0.676   6.038   5.689
 5761TIP3    H217227   0.634   6.112   5.564
 5762TIP3   OH217228   8.112   3.879   2.495
 5762TIP3    H117229   8.185   3.823   2.470
 5762TIP3    H217230   8.075   3.836   2.572
 5763TIP3   OH217231   6.309   1.289   6.285
 5763TIP3    H117232   6.215   1.272   6.279
 5763TIP3    H217233   6.319   1.341   6.365
 5764TIP3   OH217234   1.342   5.390   2.980
 5764TIP3    H117235   1.415   5.405   3.040
 5764TIP3    H217236   1.311   5.477   2.957
 5765TIP3   OH217237   3.368   6.927   3.008
 5765TIP3    H117238   3.460   6.917   3.034
 5765TIP3    H217239   3.371   6.984   2.932
 5766TIP3   OH217240   1.128   0.027   2.067
 5766TIP3    H117241   1.131   0.105   2.122
 5766TIP3    H217242   1.104   0.059   1.980
 5767TIP3   OH217243   7.527   6.460   6.118
 5767TIP3    H117244   7.514   6.445   6.025
 5767TIP3    H217245   7.612   6.504   6.124
 5768TIP3   OH217246   6.397   3.573   2.743
 5768TIP3    H117247   6.396   3.486   2.702
 5768TIP3    H217248   6.305   3.595   2.755
 5769TIP3   OH217249   5.171   6.652   3.254
 5769TIP3    H117250   5.159   6.652   3.160
 5769TIP3    H217251   5.103   6.594   3.287
 5770TIP3   OH217252   2.877   3.175   3.681
 5770TIP3    H117253   2.871   3.268   3.660
 5770TIP3    H217254   2.793   3.138   3.654
 5771TIP3   OH217255   3.981   7.449   3.006
 5771TIP3    H117256   4.016   7.468   3.093
 5771TIP3    H217257   4.022   7.515   2.949
 5772TIP3   OH217258   4.424   0.712   0.567
 5772TIP3    H117259   4.341   0.665   0.556
 5772TIP3    H217260   4.397   0.801   0.592
 5773TIP3   OH217261   4.463   4.169   0.334
 5773TIP3    H117262   4.510   4.086   0.339
 5773TIP3    H217263   4.530   4.236   0.348
 5774TIP3   OH217264   1.239   7.070   1.804
 5774TIP3    H117265   1.252   7.089   1.897
 5774TIP3    H217266   1.280   6.985   1.791
 5775TIP3   OH217267   6.545   4.964   6.367
 5775TIP3    H117268   6.455   4.941   6.345
 5775TIP3    H217269   6.597   4.933   6.293
 5776TIP3   OH217270   0.441   2.692   1.593
 5776TIP3    H117271   0.359   2.710   1.640
 5776TIP3    H217272   0.500   2.763   1.619
 5777TIP3   OH217273   3.025   4.127   5.060
 5777TIP3    H117274   2.989   4.198   5.114
 5777TIP3    H217275   3.108   4.162   5.027
 5778TIP3   OH217276   4.500   2.327   5.134
 5778TIP3    H117277   4.453   2.320   5.217
 5778TIP3    H217278   4.445   2.280   5.071
 5779TIP3   OH217279  -0.051   7.103   2.641
 5779TIP3    H117280  -0.053   7.176   2.704
 5779TIP3    H217281   0.032   7.113   2.595
 5780TIP3   OH217282   4.830   0.161   1.804
 5780TIP3    H117283   4.747   0.197   1.833
 5780TIP3    H217284   4.820   0.152   1.709
 5781TIP3   OH217285   4.930   4.633   0.592
 5781TIP3    H117286   4.963   4.574   0.524
 5781TIP3    H217287   4.965   4.598   0.674
 5782TIP3   OH217288   4.204   6.028   3.993
 5782TIP3    H117289   4.205   6.087   3.918
 5782TIP3    H217290   4.296   6.016   4.016
 5783TIP3   OH217291   0.261   2.014   4.769
 5783TIP3    H117292   0.241   1.972   4.853
 5783TIP3    H217293   0.182   2.002   4.717
 5784TIP3   OH217294   3.854   0.741   1.720
 5784TIP3    H117295   3.904   0.670   1.760
 5784TIP3    H217296   3.809   0.783   1.794
 5785TIP3   OH217297   2.458   6.000   6.698
 5785TIP3    H117298   2.366   5.986   6.677
 5785TIP3    H217299   2.480   5.928   6.758
 5786TIP3   OH217300   7.989   6.430   5.311
 5786TIP3    H117301   8.036   6.392   5.386
 5786TIP3    H217302   8.052   6.427   5.239
 5787TIP3   OH217303   7.477   1.057   0.069
 5787TIP3    H117304   7.500   1.076   0.160
 5787TIP3    H217305   7.491   1.139   0.022
 5788TIP3   OH217306   7.566   1.027   4.951
 5788TIP3    H117307   7.510   1.101   4.977
 5788TIP3    H217308   7.640   1.068   4.905
 5789TIP3   OH217309   0.120   7.288   2.328
 5789TIP3    H117310   0.170   7.309   2.406
 5789TIP3    H217311   0.183   7.297   2.256
 5790TIP3   OH217312   1.288   1.785   6.747
 5790TIP3    H117313   1.382   1.800   6.757
 5790TIP3    H217314   1.255   1.778   6.837
 5791TIP3   OH217315   0.470   2.177   2.090
 5791TIP3    H117316   0.498   2.226   2.013
 5791TIP3    H217317   0.486   2.237   2.164
 5792TIP3   OH217318   0.802   3.092   1.555
 5792TIP3    H117319   0.816   3.106   1.649
 5792TIP3    H217320   0.874   3.036   1.527
 5793TIP3   OH217321   6.623   2.021   5.027
 5793TIP3    H117322   6.607   2.115   5.016
 5793TIP3    H217323   6.537   1.984   5.047
 5794TIP3   OH217324   3.716   5.756   0.239
 5794TIP3    H117325   3.696   5.816   0.311
 5794TIP3    H217326   3.715   5.669   0.278
 5795TIP3   OH217327   7.984   7.081   2.294
 5795TIP3    H117328   7.968   7.136   2.218
 5795TIP3    H217329   8.064   7.033   2.272
 5796TIP3   OH217330   1.775   5.927   5.327
 5796TIP3    H117331   1.703   5.921   5.389
 5796TIP3    H217332   1.742   5.884   5.248
 5797TIP3   OH217333   3.846   0.846   2.195
 5797TIP3    H117334   3.778   0.801   2.245
 5797TIP3    H217335   3.829   0.939   2.211
 5798TIP3   OH217336   3.465   4.352   3.566
 5798TIP3    H117337   3.508   4.345   3.481
 5798TIP3    H217338   3.398   4.284   3.564
 5799TIP3   OH217339   1.302   7.045   1.327
 5799TIP3    H117340   1.301   7.127   1.279
 5799TIP3    H217341   1.251   7.063   1.406
 5800TIP3   OH217342   6.544   4.497   3.577
 5800TIP3    H117343   6.515   4.568   3.520
 5800TIP3    H217344   6.640   4.499   3.572
 5801TIP3   OH217345   1.898   5.155   4.521
 5801TIP3    H117346   1.987   5.187   4.540
 5801TIP3    H217347   1.842   5.232   4.532
 5802TIP3   OH217348   2.646   5.927   3.780
 5802TIP3    H117349   2.729   5.970   3.761
 5802TIP3    H217350   2.584   5.998   3.795
 5803TIP3   OH217351   5.736   4.835   4.876
 5803TIP3    H117352   5.819   4.805   4.914
 5803TIP3    H217353   5.709   4.908   4.931
 5804TIP3   OH217354   6.458   5.992   3.950
 5804TIP3    H117355   6.551   5.974   3.966
 5804TIP3    H217356   6.455   6.019   3.858
 5805TIP3   OH217357   6.383   4.381   3.839
 5805TIP3    H117358   6.323   4.451   3.864
 5805TIP3    H217359   6.340   4.301   3.868
 5806TIP3   OH217360   4.212   3.823   4.314
 5806TIP3    H117361   4.270   3.785   4.249
 5806TIP3    H217362   4.267   3.882   4.365
 5807TIP3   OH217363   5.988   2.195   6.369
 5807TIP3    H117364   5.956   2.258   6.433
 5807TIP3    H217365   6.082   2.189   6.386
 5808TIP3   OH217366   4.974   0.253   1.155
 5808TIP3    H117367   4.998   0.272   1.246
 5808TIP3    H217368   4.935   0.165   1.158
 5809TIP3   OH217369   0.785   7.625   3.213
 5809TIP3    H117370   0.738   7.608   3.132
 5809TIP3    H217371   0.717   7.651   3.275
 5810TIP3   OH217372   3.250   5.214   5.470
 5810TIP3    H117373   3.179   5.164   5.430
 5810TIP3    H217374   3.330   5.173   5.437
 5811TIP3   OH217375   1.959   0.290   2.873
 5811TIP3    H117376   1.982   0.375   2.910
 5811TIP3    H217377   1.973   0.299   2.779
 5812TIP3   OH217378   4.200   2.343   2.844
 5812TIP3    H117379   4.256   2.266   2.837
 5812TIP3    H217380   4.261   2.417   2.847
 5813TIP3   OH217381   4.504   0.420   3.256
 5813TIP3    H117382   4.583   0.452   3.298
 5813TIP3    H217383   4.536   0.363   3.186
 5814TIP3   OH217384   7.862   5.402   6.283
 5814TIP3    H117385   7.849   5.308   6.270
 5814TIP3    H217386   7.857   5.414   6.378
 5815TIP3   OH217387   3.160   3.436   3.118
 5815TIP3    H117388   3.136   3.413   3.208
 5815TIP3    H217389   3.085   3.408   3.066
 5816TIP3   OH217390   6.054   6.157   1.725
 5816TIP3    H117391   6.140   6.116   1.736
 5816TIP3    H217392   6.063   6.243   1.766
 5817TIP3   OH217393   5.410   4.940   4.684
 5817TIP3    H117394   5.396   4.888   4.763
 5817TIP3    H217395   5.386   5.029   4.710
 5818TIP3   OH217396   2.252   6.314   6.772
 5818TIP3    H117397   2.215   6.226   6.768
 5818TIP3    H217398   2.248   6.338   6.864
 5819TIP3   OH217399   0.503   3.575   2.756
 5819TIP3    H117400   0.564   3.648   2.758
 5819TIP3    H217401   0.503   3.540   2.845
 5820TIP3   OH217402   7.468   6.482   5.159
 5820TIP3    H117403   7.378   6.489   5.191
 5820TIP3    H217404   7.473   6.547   5.089
 5821TIP3   OH217405   2.996   5.739   3.843
 5821TIP3    H117406   2.962   5.801   3.907
 5821TIP3    H217407   2.950   5.657   3.862
 5822TIP3   OH217408   4.006   3.403   5.335
 5822TIP3    H117409   4.059   3.384   5.257
 5822TIP3    H217410   4.006   3.321   5.384
 5823TIP3   OH217411   3.651   0.566   0.116
 5823TIP3    H117412   3.674   0.508   0.188
 5823TIP3    H217413   3.607   0.640   0.159
 5824TIP3   OH217414   4.847   1.519   5.861
 5824TIP3    H117415   4.783   1.573   5.816
 5824TIP3    H217416   4.799   1.478   5.932
 5825TIP3   OH217417   6.527   7.475   3.272
 5825TIP3    H117418   6.442   7.516   3.253
 5825TIP3    H217419   6.575   7.542   3.321
 5826TIP3   OH217420   5.602   4.345   2.404
 5826TIP3    H117421   5.637   4.259   2.380
 5826TIP3    H217422   5.589   4.340   2.498
 5827TIP3   OH217423   4.933   0.476   6.451
 5827TIP3    H117424   5.005   0.482   6.389
 5827TIP3    H217425   4.861   0.437   6.401
 5828TIP3   OH217426   5.197   1.192   0.867
 5828TIP3    H117427   5.217   1.234   0.951
 5828TIP3    H217428   5.203   1.262   0.803
 5829TIP3   OH217429   8.147   3.913   1.330
 5829TIP3    H117430   8.075   3.852   1.347
 5829TIP3    H217431   8.119   3.962   1.253
 5830TIP3   OH217432   3.978   0.593   0.123
 5830TIP3    H117433   3.883   0.593   0.137
 5830TIP3    H217434   4.006   0.681   0.146
 5831TIP3   OH217435   6.521   2.569   3.228
 5831TIP3    H117436   6.597   2.539   3.179
 5831TIP3    H217437   6.511   2.661   3.204
 5832TIP3   OH217438   8.286   0.671   0.331
 5832TIP3    H117439   8.302   0.643   0.241
 5832TIP3    H217440   8.201   0.714   0.328
 5833TIP3   OH217441   3.091   0.711   3.508
 5833TIP3    H117442   3.057   0.709   3.418
 5833TIP3    H217443   3.171   0.764   3.502
 5834TIP3   OH217444   1.243   5.299   4.537
 5834TIP3    H117445   1.279   5.307   4.448
 5834TIP3    H217446   1.163   5.248   4.525
 5835TIP3   OH217447   0.231   3.117   2.172
 5835TIP3    H117448   0.217   3.200   2.126
 5835TIP3    H217449   0.306   3.134   2.229
 5836TIP3   OH217450   3.277   4.268   5.724
 5836TIP3    H117451   3.269   4.181   5.686
 5836TIP3    H217452   3.296   4.252   5.816
 5837TIP3   OH217453   0.750   2.044   3.202
 5837TIP3    H117454   0.681   2.012   3.145
 5837TIP3    H217455   0.736   1.997   3.285
 5838TIP3   OH217456   6.954   5.047   3.787
 5838TIP3    H117457   6.897   5.120   3.762
 5838TIP3    H217458   7.042   5.083   3.782
 5839TIP3   OH217459   7.411   6.804   1.666
 5839TIP3    H117460   7.476   6.781   1.600
 5839TIP3    H217461   7.436   6.754   1.743
 5840TIP3   OH217462   4.730   5.806   1.741
 5840TIP3    H117463   4.720   5.894   1.705
 5840TIP3    H217464   4.713   5.817   1.834
 5841TIP3   OH217465   3.153   5.015   6.408
 5841TIP3    H117466   3.189   5.096   6.372
 5841TIP3    H217467   3.095   4.981   6.339
 5842TIP3   OH217468   1.799   1.895   3.215
 5842TIP3    H117469   1.887   1.866   3.240
 5842TIP3    H217470   1.752   1.814   3.196
 5843TIP3   OH217471   8.204   2.757   2.483
 5843TIP3    H117472   8.270   2.723   2.422
 5843TIP3    H217473   8.205   2.851   2.469
 5844TIP3   OH217474   1.913   0.955   3.291
 5844TIP3    H117475   1.998   0.978   3.330
 5844TIP3    H217476   1.903   1.015   3.217
 5845TIP3   OH217477   4.884   6.590   4.355
 5845TIP3    H117478   4.859   6.666   4.407
 5845TIP3    H217479   4.866   6.616   4.264
 5846TIP3   OH217480   8.158   6.767   3.862
 5846TIP3    H117481   8.083   6.712   3.885
 5846TIP3    H217482   8.187   6.734   3.777
 5847TIP3   OH217483   4.875   7.000   1.509
 5847TIP3    H117484   4.970   6.989   1.507
 5847TIP3    H217485   4.854   7.046   1.427
 5848TIP3   OH217486   5.096   3.330   6.746
 5848TIP3    H117487   5.190   3.310   6.742
 5848TIP3    H217488   5.091   3.425   6.732
 5849TIP3   OH217489   4.265   7.418   5.778
 5849TIP3    H117490   4.227   7.490   5.828
 5849TIP3    H217491   4.302   7.459   5.700
 5850TIP3   OH217492   3.271   5.807   3.811
 5850TIP3    H117493   3.288   5.862   3.888
 5850TIP3    H217494   3.176   5.805   3.804
 5851TIP3   OH217495   1.035   3.202   5.488
 5851TIP3    H117496   1.079   3.160   5.562
 5851TIP3    H217497   1.090   3.184   5.413
 5852TIP3   OH217498   2.913   1.414   2.899
 5852TIP3    H117499   2.903   1.442   2.808
 5852TIP3    H217500   2.829   1.372   2.920
 5853TIP3   OH217501   0.987   2.716   6.661
 5853TIP3    H117502   1.054   2.745   6.599
 5853TIP3    H217503   0.928   2.792   6.669
 5854TIP3   OH217504   0.498   5.613   5.365
 5854TIP3    H117505   0.501   5.702   5.329
 5854TIP3    H217506   0.589   5.585   5.366
 5855TIP3   OH217507   4.599   3.119   5.736
 5855TIP3    H117508   4.524   3.073   5.775
 5855TIP3    H217509   4.660   3.132   5.809
 5856TIP3   OH217510   6.837   4.020   0.607
 5856TIP3    H117511   6.841   3.945   0.548
 5856TIP3    H217512   6.744   4.041   0.613
 5857TIP3   OH217513   1.939   1.705   6.703
 5857TIP3    H117514   1.963   1.789   6.742
 5857TIP3    H217515   1.964   1.640   6.769
 5858TIP3   OH217516   0.403   4.995   5.202
 5858TIP3    H117517   0.336   5.018   5.267
 5858TIP3    H217518   0.435   5.080   5.170
 5859TIP3   OH217519   0.171   1.661   6.364
 5859TIP3    H117520   0.211   1.607   6.432
 5859TIP3    H217521   0.237   1.666   6.295
 5860TIP3   OH217522   2.017   1.801   2.417
 5860TIP3    H117523   2.026   1.830   2.326
 5860TIP3    H217524   1.959   1.866   2.457
 5861TIP3   OH217525   5.023   3.834   4.765
 5861TIP3    H117526   5.030   3.762   4.702
 5861TIP3    H217527   5.037   3.913   4.713
 5862TIP3   OH217528   3.715   3.871   0.713
 5862TIP3    H117529   3.711   3.793   0.658
 5862TIP3    H217530   3.685   3.942   0.657
 5863TIP3   OH217531   1.593   0.251   0.187
 5863TIP3    H117532   1.669   0.212   0.143
 5863TIP3    H217533   1.604   0.227   0.279
 5864TIP3   OH217534   0.879   5.099   4.107
 5864TIP3    H117535   0.925   5.081   4.189
 5864TIP3    H217536   0.828   5.019   4.091
 5865TIP3   OH217537   5.671   2.909   3.074
 5865TIP3    H117538   5.662   2.814   3.071
 5865TIP3    H217539   5.670   2.936   2.982
 5866TIP3   OH217540   0.384   7.347   6.176
 5866TIP3    H117541   0.305   7.341   6.122
 5866TIP3    H217542   0.434   7.268   6.153
 5867TIP3   OH217543   0.076   5.447   6.730
 5867TIP3    H117544   0.160   5.461   6.774
 5867TIP3    H217545   0.013   5.496   6.783
 5868TIP3   OH217546   5.867   6.384   6.244
 5868TIP3    H117547   5.818   6.443   6.186
 5868TIP3    H217548   5.851   6.419   6.332
 5869TIP3   OH217549   4.926   7.332   6.107
 5869TIP3    H117550   4.854   7.286   6.065
 5869TIP3    H217551   4.972   7.265   6.158
 5870TIP3   OH217552   5.176   4.148   4.095
 5870TIP3    H117553   5.180   4.056   4.122
 5870TIP3    H217554   5.150   4.145   4.003
 5871TIP3   OH217555   4.392   5.701   4.155
 5871TIP3    H117556   4.390   5.686   4.249
 5871TIP3    H217557   4.315   5.654   4.121
 5872TIP3   OH217558   3.785   1.072   1.539
 5872TIP3    H117559   3.869   1.027   1.549
 5872TIP3    H217560   3.722   1.003   1.524
 5873TIP3   OH217561   3.490   4.450   1.720
 5873TIP3    H117562   3.508   4.402   1.639
 5873TIP3    H217563   3.417   4.507   1.699
 5874TIP3   OH217564   1.299   4.151   0.536
 5874TIP3    H117565   1.285   4.118   0.447
 5874TIP3    H217566   1.386   4.190   0.533
 5875TIP3   OH217567   5.499   0.208   0.551
 5875TIP3    H117568   5.428   0.154   0.516
 5875TIP3    H217569   5.551   0.233   0.475
 5876TIP3   OH217570   5.200   3.436   6.443
 5876TIP3    H117571   5.122   3.380   6.447
 5876TIP3    H217572   5.199   3.485   6.525
 5877TIP3   OH217573   6.401   5.983   5.133
 5877TIP3    H117574   6.440   6.015   5.215
 5877TIP3    H217575   6.404   5.888   5.141
 5878TIP3   OH217576   6.126   4.061   6.598
 5878TIP3    H117577   6.101   4.115   6.672
 5878TIP3    H217578   6.220   4.077   6.587
 5879TIP3   OH217579   4.031   4.721   3.563
 5879TIP3    H117580   4.055   4.764   3.481
 5879TIP3    H217581   3.970   4.781   3.605
 5880TIP3   OH217582   1.218   0.952   6.567
 5880TIP3    H117583   1.277   1.025   6.590
 5880TIP3    H217584   1.276   0.883   6.537
 5881TIP3   OH217585   2.172   0.456   2.594
 5881TIP3    H117586   2.228   0.467   2.517
 5881TIP3    H217587   2.220   0.396   2.650
 5882TIP3   OH217588   4.433   1.729   3.004
 5882TIP3    H117589   4.348   1.686   3.008
 5882TIP3    H217590   4.450   1.740   2.911
 5883TIP3   OH217591   3.751   3.837   4.829
 5883TIP3    H117592   3.833   3.790   4.848
 5883TIP3    H217593   3.766   3.879   4.745
 5884TIP3   OH217594   0.715   5.804   1.841
 5884TIP3    H117595   0.675   5.837   1.921
 5884TIP3    H217596   0.644   5.757   1.796
 5885TIP3   OH217597   0.640   1.360   3.682
 5885TIP3    H117598   0.717   1.307   3.665
 5885TIP3    H217599   0.570   1.317   3.634
 5886TIP3   OH217600   0.284   2.276   3.601
 5886TIP3    H117601   0.208   2.312   3.555
 5886TIP3    H217602   0.247   2.239   3.682
 5887TIP3   OH217603   7.913   4.596   5.562
 5887TIP3    H117604   7.860   4.569   5.636
 5887TIP3    H217605   7.939   4.515   5.519
 5888TIP3   OH217606   2.451   3.480   1.485
 5888TIP3    H117607   2.510   3.523   1.546
 5888TIP3    H217608   2.389   3.432   1.541
 5889TIP3   OH217609   2.426   2.643   2.218
 5889TIP3    H117610   2.474   2.571   2.178
 5889TIP3    H217611   2.374   2.603   2.287
 5890TIP3   OH217612   1.615   0.917   3.716
 5890TIP3    H117613   1.639   0.924   3.624
 5890TIP3    H217614   1.651   0.995   3.757
 5891TIP3   OH217615   7.560   6.917   6.165
 5891TIP3    H117616   7.648   6.954   6.171
 5891TIP3    H217617   7.545   6.875   6.249
 5892TIP3   OH217618   6.495   2.583   6.186
 5892TIP3    H117619   6.449   2.606   6.105
 5892TIP3    H217620   6.565   2.524   6.158
 5893TIP3   OH217621   1.095   7.668   1.872
 5893TIP3    H117622   1.091   7.573   1.885
 5893TIP3    H217623   1.154   7.699   1.941
 5894TIP3   OH217624   4.655   0.903   1.155
 5894TIP3    H117625   4.574   0.933   1.114
 5894TIP3    H217626   4.711   0.876   1.081
 5895TIP3   OH217627   2.339   0.651   2.933
 5895TIP3    H117628   2.274   0.648   2.862
 5895TIP3    H217629   2.294   0.695   3.005
 5896TIP3   OH217630   3.005   0.782   1.346
 5896TIP3    H117631   2.988   0.777   1.252
 5896TIP3    H217632   2.919   0.789   1.386
 5897TIP3   OH217633   2.130   3.655   3.959
 5897TIP3    H117634   2.088   3.631   4.041
 5897TIP3    H217635   2.160   3.572   3.922
 5898TIP3   OH217636   1.789   7.190   3.390
 5898TIP3    H117637   1.748   7.164   3.307
 5898TIP3    H217638   1.727   7.164   3.457
 5899TIP3   OH217639   7.600   6.914   6.675
 5899TIP3    H117640   7.669   6.915   6.742
 5899TIP3    H217641   7.555   6.997   6.686
 5900TIP3   OH217642   6.574   0.040   5.775
 5900TIP3    H117643   6.635  -0.015   5.725
 5900TIP3    H217644   6.620   0.123   5.786
 5901TIP3   OH217645   2.346   0.040   6.680
 5901TIP3    H117646   2.257   0.008   6.690
 5901TIP3    H217647   2.371   0.015   6.591
 5902TIP3   OH217648   8.151   3.333   1.032
 5902TIP3    H117649   8.087   3.284   0.981
 5902TIP3    H217650   8.232   3.327   0.980
 5903TIP3   OH217651   3.736   0.406   5.264
 5903TIP3    H117652   3.813   0.464   5.267
 5903TIP3    H217653   3.699   0.411   5.352
 5904TIP3   OH217654   5.602   2.473   2.050
 5904TIP3    H117655   5.663   2.522   2.105
 5904TIP3    H217656   5.520   2.523   2.055
 5905TIP3   OH217657   3.126   5.905   6.193
 5905TIP3    H117658   3.050   5.961   6.214
 5905TIP3    H217659   3.140   5.918   6.100
 5906TIP3   OH217660   2.000   7.745   4.338
 5906TIP3    H117661   2.049   7.677   4.384
 5906TIP3    H217662   1.989   7.710   4.249
 5907TIP3   OH217663   6.184   2.353   2.420
 5907TIP3    H117664   6.202   2.438   2.379
 5907TIP3    H217665   6.155   2.297   2.348
 5908TIP3   OH217666   1.991   7.148   0.105
 5908TIP3    H117667   2.044   7.207   0.051
 5908TIP3    H217668   1.965   7.201   0.180
 5909TIP3   OH217669   3.026   5.333   2.142
 5909TIP3    H117670   3.057   5.423   2.133
 5909TIP3    H217671   3.000   5.307   2.053
 5910TIP3   OH217672   0.406   5.745   2.479
 5910TIP3    H117673   0.327   5.799   2.485
 5910TIP3    H217674   0.380   5.670   2.426
 5911TIP3   OH217675   3.190   6.862   4.720
 5911TIP3    H117676   3.145   6.777   4.724
 5911TIP3    H217677   3.165   6.906   4.802
 5912TIP3   OH217678   7.929   2.155   6.066
 5912TIP3    H117679   7.931   2.192   6.154
 5912TIP3    H217680   8.019   2.130   6.048
 5913TIP3   OH217681   2.812   3.215   2.823
 5913TIP3    H117682   2.760   3.142   2.857
 5913TIP3    H217683   2.842   3.186   2.737
 5914TIP3   OH217684   5.422   7.079   1.597
 5914TIP3    H117685   5.356   7.065   1.664
 5914TIP3    H217686   5.491   7.016   1.617
 5915TIP3   OH217687   2.133   0.191   6.105
 5915TIP3    H117688   2.069   0.260   6.121
 5915TIP3    H217689   2.083   0.122   6.061
 5916TIP3   OH217690   3.370   0.485   2.814
 5916TIP3    H117691   3.456   0.449   2.791
 5916TIP3    H217692   3.390   0.554   2.877
 5917TIP3   OH217693   3.779   6.982   5.452
 5917TIP3    H117694   3.697   6.939   5.475
 5917TIP3    H217695   3.799   7.038   5.527
 5918TIP3   OH217696   3.702   2.836   1.896
 5918TIP3    H117697   3.647   2.836   1.818
 5918TIP3    H217698   3.644   2.806   1.966
 5919TIP3   OH217699   1.156   6.633   1.440
 5919TIP3    H117700   1.165   6.567   1.371
 5919TIP3    H217701   1.225   6.612   1.503
 5920TIP3   OH217702   6.146   3.297   1.559
 5920TIP3    H117703   6.213   3.309   1.627
 5920TIP3    H217704   6.064   3.298   1.608
 5921TIP3   OH217705   0.310   6.963   0.444
 5921TIP3    H117706   0.314   7.002   0.357
 5921TIP3    H217707   0.245   7.015   0.491
 5922TIP3   OH217708   4.548   7.429   3.086
 5922TIP3    H117709   4.459   7.420   3.052
 5922TIP3    H217710   4.540   7.491   3.159
 5923TIP3   OH217711   1.370   2.093   5.562
 5923TIP3    H117712   1.376   2.004   5.528
 5923TIP3    H217713   1.444   2.102   5.622
 5924TIP3   OH217714   6.040   0.764   3.445
 5924TIP3    H117715   6.024   0.858   3.460
 5924TIP3    H217716   5.982   0.720   3.506
 5925TIP3   OH217717   5.351   4.448   0.937
 5925TIP3    H117718   5.377   4.474   0.848
 5925TIP3    H217719   5.281   4.384   0.925
 5926TIP3   OH217720   0.939   0.241   4.962
 5926TIP3    H117721   0.947   0.161   4.910
 5926TIP3    H217722   1.004   0.233   5.031
 5927TIP3   OH217723   0.182   1.929   6.488
 5927TIP3    H117724   0.154   1.838   6.481
 5927TIP3    H217725   0.161   1.967   6.403
 5928TIP3   OH217726   0.277   0.531   6.021
 5928TIP3    H117727   0.342   0.563   6.083
 5928TIP3    H217728   0.302   0.570   5.937
 5929TIP3   OH217729   3.462   5.253   2.814
 5929TIP3    H117730   3.477   5.330   2.869
 5929TIP3    H217731   3.438   5.290   2.728
 5930TIP3   OH217732   6.898   7.313   4.901
 5930TIP3    H117733   6.943   7.269   4.973
 5930TIP3    H217734   6.939   7.278   4.822
 5931TIP3   OH217735   7.205   3.591   5.684
 5931TIP3    H117736   7.179   3.631   5.600
 5931TIP3    H217737   7.299   3.605   5.689
 5932TIP3   OH217738   4.875   7.118   3.218
 5932TIP3    H117739   4.860   7.177   3.292
 5932TIP3    H217740   4.904   7.036   3.258
 5933TIP3   OH217741   2.594   1.888  -0.045
 5933TIP3    H117742   2.523   1.939  -0.083
 5933TIP3    H217743   2.555   1.803  -0.026
 5934TIP3   OH217744   6.593   3.363   5.745
 5934TIP3    H117745   6.565   3.373   5.836
 5934TIP3    H217746   6.602   3.269   5.733
 5935TIP3   OH217747   1.290   0.388   4.029
 5935TIP3    H117748   1.297   0.401   4.123
 5935TIP3    H217749   1.375   0.414   3.994
 5936TIP3   OH217750   2.744   6.134   2.393
 5936TIP3    H117751   2.820   6.134   2.335
 5936TIP3    H217752   2.705   6.047   2.383
 5937TIP3   OH217753   6.061   7.708   0.884
 5937TIP3    H117754   5.985   7.678   0.934
 5937TIP3    H217755   6.048   7.671   0.797
 5938TIP3   OH217756   5.827   3.544   3.410
 5938TIP3    H117757   5.821   3.477   3.342
 5938TIP3    H217758   5.745   3.536   3.458
 5939TIP3   OH217759   2.372   6.218   4.621
 5939TIP3    H117760   2.460   6.207   4.586
 5939TIP3    H217761   2.331   6.283   4.564
 5940TIP3   OH217762   3.000   1.479   4.130
 5940TIP3    H117763   2.917   1.436   4.109
 5940TIP3    H217764   3.058   1.456   4.058
 5941TIP3   OH217765   1.056   2.198   0.793
 5941TIP3    H117766   1.077   2.177   0.702
 5941TIP3    H217767   1.024   2.288   0.791
 5942TIP3   OH217768   1.029   7.841   1.011
 5942TIP3    H117769   1.002   7.871   0.924
 5942TIP3    H217770   1.027   7.745   1.005
 5943TIP3   OH217771   1.343   5.133   2.918
 5943TIP3    H117772   1.329   5.226   2.937
 5943TIP3    H217773   1.356   5.093   3.004
 5944TIP3   OH217774   2.461   5.712   2.610
 5944TIP3    H117775   2.474   5.665   2.693
 5944TIP3    H217776   2.519   5.788   2.617
 5945TIP3   OH217777   6.593   3.091   3.166
 5945TIP3    H117778   6.608   3.144   3.087
 5945TIP3    H217779   6.644   3.134   3.234
 5946TIP3   OH217780   1.514   2.993   0.422
 5946TIP3    H117781   1.453   2.960   0.488
 5946TIP3    H217782   1.522   3.086   0.440
 5947TIP3   OH217783   5.060   1.893   1.975
 5947TIP3    H117784   5.042   1.955   1.905
 5947TIP3    H217785   5.018   1.812   1.947
 5948TIP3   OH217786   3.557   3.778   2.783
 5948TIP3    H117787   3.581   3.838   2.712
 5948TIP3    H217788   3.607   3.698   2.766
 5949TIP3   OH217789   4.518   4.402   2.498
 5949TIP3    H117790   4.568   4.472   2.539
 5949TIP3    H217791   4.481   4.353   2.572
 5950TIP3   OH217792   6.710   4.403   4.430
 5950TIP3    H117793   6.721   4.324   4.378
 5950TIP3    H217794   6.735   4.377   4.519
 5951TIP3   OH217795   1.946   6.945   0.985
 5951TIP3    H117796   2.008   6.986   0.925
 5951TIP3    H217797   1.866   6.997   0.975
 5952TIP3   OH217798   5.206   4.235   2.688
 5952TIP3    H117799   5.242   4.151   2.663
 5952TIP3    H217800   5.123   4.241   2.639
 5953TIP3   OH217801   0.749   2.047   1.285
 5953TIP3    H117802   0.796   1.978   1.238
 5953TIP3    H217803   0.818   2.102   1.322
 5954TIP3   OH217804   2.537   6.452   3.099
 5954TIP3    H117805   2.573   6.528   3.053
 5954TIP3    H217806   2.554   6.469   3.191
 5955TIP3   OH217807   4.613   6.454   4.478
 5955TIP3    H117808   4.658   6.535   4.453
 5955TIP3    H217809   4.562   6.431   4.400
 5956TIP3   OH217810   3.272   2.827   1.823
 5956TIP3    H117811   3.188   2.850   1.784
 5956TIP3    H217812   3.252   2.754   1.882
 5957TIP3   OH217813   6.991   3.111   6.281
 5957TIP3    H117814   6.897   3.095   6.291
 5957TIP3    H217815   6.999   3.206   6.288
 5958TIP3   OH217816   6.595   2.529   2.786
 5958TIP3    H117817   6.663   2.475   2.747
 5958TIP3    H217818   6.638   2.613   2.802
 5959TIP3   OH217819   0.893   7.672   0.154
 5959TIP3    H117820   0.853   7.588   0.131
 5959TIP3    H217821   0.887   7.724   0.073
 5960TIP3   OH217822   2.437   6.254   2.672
 5960TIP3    H117823   2.483   6.219   2.748
 5960TIP3    H217824   2.365   6.192   2.658
 5961TIP3   OH217825   4.049   7.690   2.865
 5961TIP3    H117826   3.986   7.748   2.906
 5961TIP3    H217827   4.123   7.746   2.843
 5962TIP3   OH217828   5.131   3.497   3.988
 5962TIP3    H117829   5.227   3.505   3.986
 5962TIP3    H217830   5.100   3.575   3.942
 5963TIP3   OH217831   0.920   1.703   0.125
 5963TIP3    H117832   0.926   1.608   0.111
 5963TIP3    H217833   0.905   1.739   0.038
 5964TIP3   OH217834   7.703   6.880   4.699
 5964TIP3    H117835   7.686   6.792   4.732
 5964TIP3    H217836   7.698   6.872   4.604
 5965TIP3   OH217837   6.908   1.716   3.814
 5965TIP3    H117838   6.949   1.801   3.829
 5965TIP3    H217839   6.877   1.689   3.901
 5966TIP3   OH217840   3.750   1.023   0.113
 5966TIP3    H117841   3.723   1.007   0.023
 5966TIP3    H217842   3.789   1.110   0.111
 5967TIP3   OH217843   3.603   4.899   2.135
 5967TIP3    H117844   3.623   4.849   2.215
 5967TIP3    H217845   3.606   4.834   2.065
 5968TIP3   OH217846   4.575   5.168   5.492
 5968TIP3    H117847   4.546   5.077   5.489
 5968TIP3    H217848   4.565   5.194   5.584
 5969TIP3   OH217849   3.180   3.649   6.426
 5969TIP3    H117850   3.113   3.598   6.472
 5969TIP3    H217851   3.166   3.739   6.457
 5970TIP3   OH217852   0.629   3.915   0.423
 5970TIP3    H117853   0.663   3.837   0.467
 5970TIP3    H217854   0.534   3.900   0.418
 5971TIP3   OH217855   8.194   5.841   4.531
 5971TIP3    H117856   8.251   5.909   4.570
 5971TIP3    H217857   8.246   5.761   4.537
 5972TIP3   OH217858   1.343   0.953   4.264
 5972TIP3    H117859   1.367   0.997   4.345
 5972TIP3    H217860   1.255   0.984   4.245
 5973TIP3   OH217861   6.623   0.757   6.699
 5973TIP3    H117862   6.558   0.754   6.629
 5973TIP3    H217863   6.653   0.667   6.709
 5974TIP3   OH217864   7.301   3.582   1.601
 5974TIP3    H117865   7.241   3.627   1.541
 5974TIP3    H217866   7.311   3.643   1.674
 5975TIP3   OH217867   5.751   7.052   5.628
 5975TIP3    H117868   5.675   7.006   5.591
 5975TIP3    H217869   5.797   7.086   5.551
 5976TIP3   OH217870   8.099   4.494   4.040
 5976TIP3    H117871   8.168   4.442   4.080
 5976TIP3    H217872   8.129   4.510   3.951
 5977TIP3   OH217873   0.219   6.945   6.733
 5977TIP3    H117874   0.227   7.008   6.661
 5977TIP3    H217875   0.288   6.881   6.716
 5978TIP3   OH217876   8.154   4.275   6.863
 5978TIP3    H117877   8.172   4.218   6.789
 5978TIP3    H217878   8.234   4.327   6.874
 5979TIP3   OH217879   2.568   0.616   6.293
 5979TIP3    H117880   2.555   0.528   6.327
 5979TIP3    H217881   2.479   0.651   6.281
 5980TIP3   OH217882   2.770   3.850   3.480
 5980TIP3    H117883   2.715   3.878   3.407
 5980TIP3    H217884   2.824   3.927   3.501
 5981TIP3   OH217885   2.420   3.618   5.070
 5981TIP3    H117886   2.452   3.535   5.035
 5981TIP3    H217887   2.499   3.671   5.083
 5982TIP3   OH217888   7.827   5.630   4.685
 5982TIP3    H117889   7.737   5.657   4.666
 5982TIP3    H217890   7.861   5.697   4.745
 5983TIP3   OH217891   0.521   1.809   5.765
 5983TIP3    H117892   0.457   1.783   5.831
 5983TIP3    H217893   0.599   1.834   5.815
 5984TIP3   OH217894   8.070   2.724   0.238
 5984TIP3    H117895   8.097   2.808   0.201
 5984TIP3    H217896   8.088   2.660   0.170
 5985TIP3   OH217897   6.467   7.483   6.496
 5985TIP3    H117898   6.392   7.453   6.547
 5985TIP3    H217899   6.441   7.570   6.465
 5986TIP3   OH217900   5.191   0.541   5.584
 5986TIP3    H117901   5.159   0.539   5.494
 5986TIP3    H217902   5.164   0.457   5.622
 5987TIP3   OH217903   6.720   1.741   4.772
 5987TIP3    H117904   6.681   1.660   4.737
 5987TIP3    H217905   6.650   1.806   4.766
 5988TIP3   OH217906   3.259   0.698   1.902
 5988TIP3    H117907   3.288   0.778   1.947
 5988TIP3    H217908   3.288   0.627   1.959
 5989TIP3   OH217909   1.628   0.265   0.461
 5989TIP3    H117910   1.622   0.318   0.541
 5989TIP3    H217911   1.559   0.200   0.469
 5990TIP3   OH217912   8.209   3.509   1.881
 5990TIP3    H117913   8.201   3.419   1.847
 5990TIP3    H217914   8.119   3.542   1.878
 5991TIP3   OH217915   3.465   3.312   6.258
 5991TIP3    H117916   3.550   3.308   6.303
 5991TIP3    H217917   3.450   3.406   6.245
 5992TIP3   OH217918   3.744   5.396   3.556
 5992TIP3    H117919   3.808   5.466   3.552
 5992TIP3    H217920   3.774   5.340   3.627
 5993TIP3   OH217921   7.337   4.370   5.555
 5993TIP3    H117922   7.372   4.404   5.637
 5993TIP3    H217923   7.390   4.292   5.536
 5994TIP3   OH217924   1.184   4.777   3.954
 5994TIP3    H117925   1.174   4.852   3.894
 5994TIP3    H217926   1.278   4.771   3.969
 5995TIP3   OH217927   3.020   7.472   3.896
 5995TIP3    H117928   2.982   7.537   3.836
 5995TIP3    H217929   2.961   7.469   3.971
 5996TIP3   OH217930   1.601   7.024   3.508
 5996TIP3    H117931   1.680   6.981   3.540
 5996TIP3    H217932   1.545   6.952   3.479
 5997TIP3   OH217933   1.470   6.880   0.459
 5997TIP3    H117934   1.418   6.959   0.474
 5997TIP3    H217935   1.414   6.824   0.405
 5998TIP3   OH217936   5.590   7.503   2.834
 5998TIP3    H117937   5.532   7.493   2.909
 5998TIP3    H217938   5.570   7.428   2.778
 5999TIP3   OH217939   5.474   4.008   4.430
 5999TIP3    H117940   5.550   3.968   4.387
 5999TIP3    H217941   5.443   4.073   4.366
 6000TIP3   OH217942   0.063   4.214   1.683
 6000TIP3    H117943   0.041   4.138   1.738
 6000TIP3    H217944   0.002   4.282   1.712
 6001TIP3   OH217945   6.925   7.475   0.576
 6001TIP3    H117946   6.937   7.490   0.483
 6001TIP3    H217947   6.843   7.520   0.597
 6002TIP3   OH217948   8.162   4.231   4.583
 6002TIP3    H117949   8.092   4.290   4.556
 6002TIP3    H217950   8.152   4.155   4.527
 6003TIP3   OH217951   1.338   1.740   0.698
 6003TIP3    H117952   1.423   1.784   0.694
 6003TIP3    H217953   1.349   1.672   0.764
 6004TIP3   OH217954   0.053   6.436   4.040
 6004TIP3    H117955   0.112   6.394   4.101
 6004TIP3    H217956  -0.028   6.448   4.090
 6005TIP3   OH217957   2.998   7.201   4.381
 6005TIP3    H117958   2.980   7.276   4.438
 6005TIP3    H217959   3.070   7.155   4.425
 6006TIP3   OH217960   7.891   0.154   1.886
 6006TIP3    H117961   7.921   0.200   1.807
 6006TIP3    H217962   7.954   0.083   1.898
 6007TIP3   OH217963   8.247   7.714   0.567
 6007TIP3    H117964   8.221   7.773   0.496
 6007TIP3    H217965   8.327   7.672   0.535
 6008TIP3   OH217966   4.070   3.221   3.506
 6008TIP3    H117967   4.046   3.311   3.483
 6008TIP3    H217968   4.004   3.195   3.570
 6009TIP3   OH217969   3.144   6.312   0.923
 6009TIP3    H117970   3.238   6.312   0.903
 6009TIP3    H217971   3.113   6.226   0.895
 6010TIP3   OH217972   4.114   2.034   2.504
 6010TIP3    H117973   4.092   1.991   2.421
 6010TIP3    H217974   4.167   1.969   2.551
 6011TIP3   OH217975   0.006   2.971   2.362
 6011TIP3    H117976   0.055   2.927   2.292
 6011TIP3    H217977  -0.026   3.051   2.320
 6012TIP3   OH217978   3.785   6.438   0.576
 6012TIP3    H117979   3.738   6.358   0.596
 6012TIP3    H217980   3.768   6.496   0.651
 6013TIP3   OH217981   2.805   0.355   5.663
 6013TIP3    H117982   2.797   0.415   5.738
 6013TIP3    H217983   2.889   0.311   5.677
 6014TIP3   OH217984   7.911   3.060   0.927
 6014TIP3    H117985   7.897   2.972   0.893
 6014TIP3    H217986   7.918   3.115   0.849
 6015TIP3   OH217987   6.670   0.531   2.312
 6015TIP3    H117988   6.653   0.437   2.322
 6015TIP3    H217989   6.590   0.566   2.273
 6016TIP3   OH217990   6.495   6.074   0.020
 6016TIP3    H117991   6.419   6.024   0.050
 6016TIP3    H217992   6.552   6.008  -0.021
 6017TIP3   OH217993   4.601   4.979   6.243
 6017TIP3    H117994   4.578   5.039   6.315
 6017TIP3    H217995   4.526   4.919   6.237
 6018TIP3   OH217996   0.650   4.116   2.430
 6018TIP3    H117997   0.713   4.188   2.423
 6018TIP3    H217998   0.604   4.116   2.347
 6019TIP3   OH217999   4.826   6.038   0.939
 6019TIP3    H118000   4.798   5.948   0.949
 6019TIP3    H218001   4.745   6.089   0.933
 6020TIP3   OH218002   0.419   5.527   2.735
 6020TIP3    H118003   0.463   5.461   2.682
 6020TIP3    H218004   0.488   5.564   2.790
 6021TIP3   OH218005   4.600   3.089   5.291
 6021TIP3    H118006   4.604   3.073   5.197
 6021TIP3    H218007   4.561   3.009   5.327
 6022TIP3   OH218008   7.346   3.618   5.392
 6022TIP3    H118009   7.303   3.567   5.324
 6022TIP3    H218010   7.301   3.702   5.393
 6023TIP3   OH218011   5.895   3.693   3.002
 6023TIP3    H118012   5.918   3.601   3.002
 6023TIP3    H218013   5.953   3.733   2.937
 6024TIP3   OH218014   6.873   5.931   4.482
 6024TIP3    H118015   6.806   5.871   4.449
 6024TIP3    H218016   6.829   5.980   4.552
 6025TIP3   OH218017   3.262   6.857  -0.033
 6025TIP3    H118018   3.313   6.892   0.040
 6025TIP3    H218019   3.283   6.764  -0.034
 6026TIP3   OH218020   3.221   4.579   1.310
 6026TIP3    H118021   3.176   4.507   1.266
 6026TIP3    H218022   3.244   4.640   1.240
 6027TIP3   OH218023   4.977   0.730   4.655
 6027TIP3    H118024   4.927   0.702   4.578
 6027TIP3    H218025   5.065   0.748   4.621
 6028TIP3   OH218026   3.114   2.408   5.223
 6028TIP3    H118027   3.165   2.424   5.303
 6028TIP3    H218028   3.063   2.488   5.211
 6029TIP3   OH218029   6.928   3.103   4.918
 6029TIP3    H118030   7.023   3.102   4.929
 6029TIP3    H218031   6.894   3.074   5.002
 6030TIP3   OH218032   3.328   2.285   5.127
 6030TIP3    H118033   3.238   2.311   5.147
 6030TIP3    H218034   3.374   2.290   5.211
 6031TIP3   OH218035   4.048   2.621   1.147
 6031TIP3    H118036   4.065   2.716   1.147
 6031TIP3    H218037   4.082   2.591   1.231
 6032TIP3   OH218038   4.052   6.264   5.544
 6032TIP3    H118039   4.023   6.354   5.532
 6032TIP3    H218040   3.974   6.217   5.574
 6033TIP3   OH218041   1.723   5.643   2.513
 6033TIP3    H118042   1.789   5.669   2.577
 6033TIP3    H218043   1.750   5.556   2.484
 6034TIP3   OH218044   0.504   2.574   2.937
 6034TIP3    H118045   0.582   2.628   2.928
 6034TIP3    H218046   0.452   2.618   3.004
 6035TIP3   OH218047   4.222   7.612   0.866
 6035TIP3    H118048   4.183   7.529   0.839
 6035TIP3    H218049   4.155   7.653   0.922
 6036TIP3   OH218050   4.377   3.006   0.726
 6036TIP3    H118051   4.373   2.995   0.631
 6036TIP3    H218052   4.296   3.053   0.748
 6037TIP3   OH218053   2.099   5.810   5.245
 6037TIP3    H118054   2.183   5.818   5.290
 6037TIP3    H218055   2.056   5.894   5.259
 6038TIP3   OH218056   4.867   6.821   4.490
 6038TIP3    H118057   4.822   6.878   4.552
 6038TIP3    H218058   4.861   6.867   4.406
 6039TIP3   OH218059   4.662   2.907   1.337
 6039TIP3    H118060   4.616   2.989   1.321
 6039TIP3    H218061   4.755   2.930   1.330
 6040TIP3   OH218062   3.934   1.641   4.907
 6040TIP3    H118063   3.866   1.640   4.840
 6040TIP3    H218064   3.893   1.600   4.983
 6041TIP3   OH218065   6.757   4.019   6.686
 6041TIP3    H118066   6.825   4.029   6.620
 6041TIP3    H218067   6.748   4.106   6.725
 6042TIP3   OH218068   8.081   2.196   2.019
 6042TIP3    H118069   8.017   2.125   2.011
 6042TIP3    H218070   8.151   2.159   2.073
 6043TIP3   OH218071   4.341   2.564   5.203
 6043TIP3    H118072   4.403   2.499   5.170
 6043TIP3    H218073   4.299   2.599   5.124
 6044TIP3   OH218074   5.313   5.193   4.690
 6044TIP3    H118075   5.218   5.195   4.682
 6044TIP3    H218076   5.338   5.284   4.710
 6045TIP3   OH218077   2.997   3.895   5.386
 6045TIP3    H118078   3.034   3.811   5.361
 6045TIP3    H218079   2.942   3.920   5.312
 6046TIP3   OH218080   6.505   1.665   5.522
 6046TIP3    H118081   6.544   1.725   5.458
 6046TIP3    H218082   6.479   1.721   5.595
 6047TIP3   OH218083   5.742   3.687   1.324
 6047TIP3    H118084   5.685   3.667   1.250
 6047TIP3    H218085   5.734   3.610   1.381
 6048TIP3   OH218086   3.847   4.429   4.054
 6048TIP3    H118087   3.840   4.380   4.136
 6048TIP3    H218088   3.758   4.432   4.020
 6049TIP3   OH218089   6.666   3.242   6.187
 6049TIP3    H118090   6.594   3.257   6.125
 6049TIP3    H218091   6.688   3.329   6.220
 6050TIP3   OH218092   3.913   7.530   0.917
 6050TIP3    H118093   3.826   7.504   0.886
 6050TIP3    H218094   3.972   7.463   0.883
 6051TIP3   OH218095   0.793   6.606   0.320
 6051TIP3    H118096   0.753   6.644   0.398
 6051TIP3    H218097   0.727   6.545   0.287
 6052TIP3   OH218098   1.526   7.053   1.906
 6052TIP3    H118099   1.537   7.047   1.811
 6052TIP3    H218100   1.570   6.976   1.940
 6053TIP3   OH218101   2.128   2.235   2.952
 6053TIP3    H118102   2.197   2.229   3.017
 6053TIP3    H218103   2.063   2.171   2.980
 6054TIP3   OH218104   6.419   2.312   3.289
 6054TIP3    H118105   6.463   2.387   3.249
 6054TIP3    H218106   6.385   2.262   3.215
 6055TIP3   OH218107  -0.037   0.275   0.453
 6055TIP3    H118108  -0.009   0.198   0.404
 6055TIP3    H218109   0.033   0.338   0.441
 6056TIP3   OH218110   3.911   1.523   6.407
 6056TIP3    H118111   3.937   1.492   6.494
 6056TIP3    H218112   3.993   1.531   6.359
 6057TIP3   OH218113   1.730   1.105   4.256
 6057TIP3    H118114   1.800   1.064   4.204
 6057TIP3    H218115   1.774   1.177   4.301
 6058TIP3   OH218116   1.747   4.407   0.343
 6058TIP3    H118117   1.765   4.461   0.421
 6058TIP3    H218118   1.698   4.465   0.285
 6059TIP3   OH218119   1.571   0.570   2.926
 6059TIP3    H118120   1.613   0.559   2.841
 6059TIP3    H218121   1.478   0.577   2.906
 6060TIP3   OH218122   0.204   2.632   0.344
 6060TIP3    H118123   0.196   2.643   0.249
 6060TIP3    H218124   0.188   2.540   0.360
 6061TIP3   OH218125   2.723   4.813   6.121
 6061TIP3    H118126   2.636   4.845   6.144
 6061TIP3    H218127   2.756   4.876   6.057
 6062TIP3   OH218128   0.824   2.881   5.963
 6062TIP3    H118129   0.915   2.909   5.966
 6062TIP3    H218130   0.774   2.959   5.985
 6063TIP3   OH218131   4.289   2.959   0.070
 6063TIP3    H118132   4.210   2.932   0.116
 6063TIP3    H218133   4.259   2.984  -0.018
 6064TIP3   OH218134   6.379   6.012   4.816
 6064TIP3    H118135   6.321   6.078   4.778
 6064TIP3    H218136   6.348   6.002   4.906
 6065TIP3   OH218137   3.873   7.390   6.457
 6065TIP3    H118138   3.863   7.461   6.394
 6065TIP3    H218139   3.968   7.385   6.472
 6066TIP3   OH218140   6.068   0.383   2.500
 6066TIP3    H118141   6.100   0.328   2.428
 6066TIP3    H218142   6.129   0.365   2.572
 6067TIP3   OH218143   4.593   7.074   0.761
 6067TIP3    H118144   4.621   7.000   0.814
 6067TIP3    H218145   4.599   7.149   0.821
 6068TIP3   OH218146   1.347   3.555   4.152
 6068TIP3    H118147   1.306   3.531   4.235
 6068TIP3    H218148   1.367   3.648   4.161
 6069TIP3   OH218149   7.900   3.295   3.211
 6069TIP3    H118150   7.993   3.273   3.208
 6069TIP3    H218151   7.855   3.215   3.185
 6070TIP3   OH218152   4.597   5.686   3.992
 6070TIP3    H118153   4.628   5.772   3.962
 6070TIP3    H218154   4.510   5.704   4.029
 6071TIP3   OH218155   6.654   6.636   1.056
 6071TIP3    H118156   6.600   6.654   1.134
 6071TIP3    H218157   6.736   6.602   1.091
 6072TIP3   OH218158   5.793   3.162   2.411
 6072TIP3    H118159   5.803   3.255   2.389
 6072TIP3    H218160   5.882   3.129   2.418
 6073TIP3   OH218161   7.890   1.446   1.409
 6073TIP3    H118162   7.826   1.403   1.353
 6073TIP3    H218163   7.908   1.381   1.477
 6074TIP3   OH218164   1.868   0.636   4.722
 6074TIP3    H118165   1.774   0.623   4.732
 6074TIP3    H218166   1.897   0.560   4.671
 6075TIP3   OH218167   1.182   0.150   4.002
 6075TIP3    H118168   1.196   0.131   3.909
 6075TIP3    H218169   1.234   0.229   4.019
 6076TIP3   OH218170   6.590   7.748   4.457
 6076TIP3    H118171   6.633   7.678   4.506
 6076TIP3    H218172   6.663   7.798   4.419
 6077TIP3   OH218173   5.997   4.294   3.674
 6077TIP3    H118174   5.996   4.200   3.656
 6077TIP3    H218175   6.042   4.302   3.758
 6078TIP3   OH218176   4.324   6.198   3.077
 6078TIP3    H118177   4.310   6.110   3.112
 6078TIP3    H218178   4.294   6.257   3.146
 6079TIP3   OH218179   6.142   1.881   5.475
 6079TIP3    H118180   6.165   1.919   5.391
 6079TIP3    H218181   6.098   1.799   5.453
 6080TIP3   OH218182   0.650   5.430   1.412
 6080TIP3    H118183   0.666   5.340   1.383
 6080TIP3    H218184   0.731   5.457   1.454
 6081TIP3   OH218185   0.826   2.732   4.113
 6081TIP3    H118186   0.758   2.724   4.046
 6081TIP3    H218187   0.848   2.825   4.113
 6082TIP3   OH218188   7.846   2.869   4.481
 6082TIP3    H118189   7.911   2.906   4.541
 6082TIP3    H218190   7.782   2.828   4.538
 6083TIP3   OH218191   5.156   5.398   6.831
 6083TIP3    H118192   5.200   5.419   6.913
 6083TIP3    H218193   5.159   5.480   6.781
 6084TIP3   OH218194   6.643   5.359   2.324
 6084TIP3    H118195   6.683   5.289   2.377
 6084TIP3    H218196   6.716   5.416   2.301
 6085TIP3   OH218197   4.184   0.219   6.059
 6085TIP3    H118198   4.233   0.159   6.116
 6085TIP3    H218199   4.195   0.183   5.971
 6086TIP3   OH218200   7.043   7.779   0.885
 6086TIP3    H118201   7.066   7.776   0.792
 6086TIP3    H218202   6.956   7.819   0.886
 6087TIP3   OH218203   6.131   3.986   1.413
 6087TIP3    H118204   6.119   3.892   1.401
 6087TIP3    H218205   6.085   4.007   1.494
 6088TIP3   OH218206   4.868   5.482   4.422
 6088TIP3    H118207   4.798   5.455   4.482
 6088TIP3    H218208   4.826   5.546   4.364
 6089TIP3   OH218209   6.176   1.180   0.870
 6089TIP3    H118210   6.156   1.255   0.925
 6089TIP3    H218211   6.192   1.217   0.783
 6090TIP3   OH218212   6.411   3.649   1.613
 6090TIP3    H118213   6.443   3.714   1.552
 6090TIP3    H218214   6.447   3.676   1.698
 6091TIP3   OH218215   7.359   5.917   5.060
 6091TIP3    H118216   7.356   5.978   5.134
 6091TIP3    H218217   7.268   5.890   5.048
 6092TIP3   OH218218   7.235   5.014   5.088
 6092TIP3    H118219   7.182   4.948   5.133
 6092TIP3    H218220   7.246   4.980   4.999
 6093TIP3   OH218221   4.118   0.853   2.348
 6093TIP3    H118222   4.171   0.777   2.326
 6093TIP3    H218223   4.039   0.843   2.295
 6094TIP3   OH218224   3.918   6.739   0.084
 6094TIP3    H118225   3.931   6.816   0.029
 6094TIP3    H218226   3.859   6.683   0.033
 6095TIP3   OH218227   4.010   2.053   1.676
 6095TIP3    H118228   3.935   2.113   1.671
 6095TIP3    H218229   4.038   2.059   1.767
 6096TIP3   OH218230   6.931   3.432   5.570
 6096TIP3    H118231   6.959   3.341   5.560
 6096TIP3    H218232   6.994   3.482   5.518
 6097TIP3   OH218233   7.105   0.219   1.509
 6097TIP3    H118234   7.101   0.314   1.516
 6097TIP3    H218235   7.150   0.203   1.426
 6098TIP3   OH218236   2.436   5.235   5.310
 6098TIP3    H118237   2.383   5.299   5.262
 6098TIP3    H218238   2.495   5.288   5.363
 6099TIP3   OH218239   5.350   7.289   6.553
 6099TIP3    H118240   5.345   7.374   6.509
 6099TIP3    H218241   5.383   7.229   6.487
 6100TIP3   OH218242   7.260   0.400   5.489
 6100TIP3    H118243   7.344   0.368   5.455
 6100TIP3    H218244   7.194   0.364   5.430
 6101TIP3   OH218245   2.901   1.838   5.501
 6101TIP3    H118246   2.962   1.912   5.499
 6101TIP3    H218247   2.931   1.784   5.574
 6102TIP3   OH218248   0.316   6.501   0.706
 6102TIP3    H118249   0.325   6.595   0.692
 6102TIP3    H218250   0.342   6.462   0.622
 6103TIP3   OH218251   2.501   5.894   6.321
 6103TIP3    H118252   2.481   5.871   6.412
 6103TIP3    H218253   2.422   5.871   6.272
 6104TIP3   OH218254   4.319   5.785   1.559
 6104TIP3    H118255   4.238   5.810   1.516
 6104TIP3    H218256   4.292   5.732   1.634
 6105TIP3   OH218257   5.327   0.008   2.821
 6105TIP3    H118258   5.365   0.070   2.758
 6105TIP3    H218259   5.326   0.055   2.904
 6106TIP3   OH218260   7.816   5.337   5.474
 6106TIP3    H118261   7.828   5.333   5.379
 6106TIP3    H218262   7.788   5.249   5.498
 6107TIP3   OH218263   4.302   1.572   0.457
 6107TIP3    H118264   4.314   1.664   0.436
 6107TIP3    H218265   4.236   1.571   0.526
 6108TIP3   OH218266   5.753   4.518   6.115
 6108TIP3    H118267   5.663   4.529   6.087
 6108TIP3    H218268   5.789   4.607   6.117
 6109TIP3   OH218269   1.469   5.675   4.493
 6109TIP3    H118270   1.467   5.762   4.533
 6109TIP3    H218271   1.380   5.662   4.461
 6110TIP3   OH218272   4.414   0.875   3.164
 6110TIP3    H118273   4.410   0.863   3.069
 6110TIP3    H218274   4.362   0.803   3.200
 6111TIP3   OH218275   6.157   1.256   5.973
 6111TIP3    H118276   6.134   1.226   6.061
 6111TIP3    H218277   6.242   1.216   5.956
 6112TIP3   OH218278   1.958   6.649   4.097
 6112TIP3    H118279   1.892   6.704   4.137
 6112TIP3    H218280   2.036   6.661   4.152
 6113TIP3   OH218281   6.621   2.951   4.621
 6113TIP3    H118282   6.633   2.916   4.710
 6113TIP3    H218283   6.702   2.999   4.604
 6114TIP3   OH218284   7.082   6.535   6.781
 6114TIP3    H118285   7.120   6.613   6.741
 6114TIP3    H218286   7.018   6.503   6.718
 6115TIP3   OH218287   5.731   1.607   1.540
 6115TIP3    H118288   5.708   1.637   1.451
 6115TIP3    H218289   5.682   1.667   1.598
 6116TIP3   OH218290   1.906   4.933   5.912
 6116TIP3    H118291   1.834   4.994   5.893
 6116TIP3    H218292   1.966   4.942   5.837
 6117TIP3   OH218293   5.985   5.160   1.850
 6117TIP3    H118294   5.907   5.200   1.890
 6117TIP3    H218295   6.053   5.227   1.859
 6118TIP3   OH218296   4.762   5.252   1.726
 6118TIP3    H118297   4.738   5.233   1.816
 6118TIP3    H218298   4.685   5.298   1.690
 6119TIP3   OH218299   1.702   3.999   1.606
 6119TIP3    H118300   1.777   4.059   1.606
 6119TIP3    H218301   1.648   4.029   1.679
 6120TIP3   OH218302   5.895   0.594   2.969
 6120TIP3    H118303   5.950   0.516   2.962
 6120TIP3    H218304   5.826   0.581   2.903
 6121TIP3   OH218305   0.736   0.989   1.989
 6121TIP3    H118306   0.717   0.934   2.065
 6121TIP3    H218307   0.650   1.004   1.949
 6122TIP3   OH218308   6.447   5.955   5.668
 6122TIP3    H118309   6.400   6.014   5.609
 6122TIP3    H218310   6.418   5.981   5.755
 6123TIP3   OH218311   0.479   1.580   5.999
 6123TIP3    H118312   0.570   1.553   6.007
 6123TIP3    H218313   0.441   1.518   5.937
 6124TIP3   OH218314   6.449   4.553   1.131
 6124TIP3    H118315   6.454   4.518   1.220
 6124TIP3    H218316   6.372   4.511   1.094
 6125TIP3   OH218317   7.428   3.683   2.831
 6125TIP3    H118318   7.488   3.728   2.890
 6125TIP3    H218319   7.422   3.594   2.866
 6126TIP3   OH218320   2.005   1.869   3.713
 6126TIP3    H118321   2.075   1.906   3.660
 6126TIP3    H218322   1.954   1.944   3.742
 6127TIP3   OH218323   6.434   6.700   3.619
 6127TIP3    H118324   6.438   6.660   3.532
 6127TIP3    H218325   6.423   6.794   3.601
 6128TIP3   OH218326   7.815   1.406   4.248
 6128TIP3    H118327   7.745   1.365   4.196
 6128TIP3    H218328   7.785   1.397   4.339
 6129TIP3   OH218329   4.581   6.190   3.933
 6129TIP3    H118330   4.551   6.107   3.970
 6129TIP3    H218331   4.512   6.252   3.954
 6130TIP3   OH218332   1.790   3.012   3.288
 6130TIP3    H118333   1.742   2.959   3.224
 6130TIP3    H218334   1.735   3.090   3.299
 6131TIP3   OH218335   5.105   0.043   5.265
 6131TIP3    H118336   5.131   0.059   5.355
 6131TIP3    H218337   5.171  -0.019   5.232
 6132TIP3   OH218338   0.034   2.483   3.010
 6132TIP3    H118339   0.004   2.574   3.007
 6132TIP3    H218340   0.112   2.482   2.955
 6133TIP3   OH218341   3.538   2.145   6.451
 6133TIP3    H118342   3.472   2.213   6.439
 6133TIP3    H218343   3.620   2.186   6.426
 6134TIP3   OH218344   5.302   6.798   4.964
 6134TIP3    H118345   5.335   6.848   4.890
 6134TIP3    H218346   5.241   6.735   4.926
 6135TIP3   OH218347   0.431   5.523   1.278
 6135TIP3    H118348   0.500   5.486   1.333
 6135TIP3    H218349   0.385   5.584   1.337
 6136TIP3   OH218350   1.104   0.856   2.523
 6136TIP3    H118351   1.193   0.868   2.487
 6136TIP3    H218352   1.050   0.839   2.446
 6137TIP3   OH218353   2.994   3.544   4.659
 6137TIP3    H118354   2.947   3.599   4.597
 6137TIP3    H218355   2.956   3.457   4.648
 6138TIP3   OH218356   5.597   6.057   2.854
 6138TIP3    H118357   5.531   5.994   2.826
 6138TIP3    H218358   5.548   6.129   2.893
 6139TIP3   OH218359   5.208   4.933   5.587
 6139TIP3    H118360   5.283   4.907   5.641
 6139TIP3    H218361   5.237   5.012   5.542
 6140TIP3   OH218362   3.469   7.025   2.112
 6140TIP3    H118363   3.408   7.038   2.040
 6140TIP3    H218364   3.415   6.996   2.185
 6141TIP3   OH218365   3.947   0.813   4.766
 6141TIP3    H118366   3.993   0.842   4.844
 6141TIP3    H218367   3.965   0.719   4.760
 6142TIP3   OH218368   0.992   5.786   2.817
 6142TIP3    H118369   0.954   5.848   2.754
 6142TIP3    H218370   1.068   5.831   2.852
 6143TIP3   OH218371   0.692   1.395   5.561
 6143TIP3    H118372   0.782   1.424   5.547
 6143TIP3    H218373   0.638   1.466   5.525
 6144TIP3   OH218374   2.479   7.355   3.956
 6144TIP3    H118375   2.397   7.364   3.907
 6144TIP3    H218376   2.530   7.433   3.932
 6145TIP3   OH218377   4.919   3.193   0.668
 6145TIP3    H118378   4.939   3.103   0.693
 6145TIP3    H218379   5.004   3.237   0.668
 6146TIP3   OH218380   1.489   5.952   1.524
 6146TIP3    H118381   1.492   6.048   1.514
 6146TIP3    H218382   1.544   5.934   1.600
 6147TIP3   OH218383   7.544   7.280   3.662
 6147TIP3    H118384   7.598   7.359   3.654
 6147TIP3    H218385   7.494   7.277   3.581
 6148TIP3   OH218386   5.053   1.834   4.100
 6148TIP3    H118387   5.001   1.763   4.063
 6148TIP3    H218388   5.143   1.800   4.101
 6149TIP3   OH218389   4.524   6.551   1.992
 6149TIP3    H118390   4.507   6.527   1.901
 6149TIP3    H218391   4.440   6.543   2.036
 6150TIP3   OH218392   2.318   0.387   1.171
 6150TIP3    H118393   2.343   0.323   1.103
 6150TIP3    H218394   2.247   0.345   1.219
 6151TIP3   OH218395   1.285   5.876   2.745
 6151TIP3    H118396   1.350   5.830   2.691
 6151TIP3    H218397   1.290   5.967   2.715
 6152TIP3   OH218398   2.110   2.491   4.237
 6152TIP3    H118399   2.159   2.412   4.214
 6152TIP3    H218400   2.115   2.495   4.333
 6153TIP3   OH218401   2.327   5.740   2.073
 6153TIP3    H118402   2.273   5.706   2.145
 6153TIP3    H218403   2.288   5.824   2.051
 6154TIP3   OH218404   6.530   4.896   0.941
 6154TIP3    H118405   6.543   4.990   0.930
 6154TIP3    H218406   6.490   4.867   0.858
 6155TIP3   OH218407   6.822   3.056   5.195
 6155TIP3    H118408   6.730   3.030   5.200
 6155TIP3    H218409   6.869   2.984   5.238
 6156TIP3   OH218410   7.544   0.684   3.889
 6156TIP3    H118411   7.517   0.776   3.881
 6156TIP3    H218412   7.562   0.673   3.983
 6157TIP3   OH218413   8.176   6.693   3.594
 6157TIP3    H118414   8.241   6.754   3.560
 6157TIP3    H218415   8.118   6.676   3.519
 6158TIP3   OH218416   1.067   6.648   4.495
 6158TIP3    H118417   0.998   6.713   4.484
 6158TIP3    H218418   1.093   6.657   4.587
 6159TIP3   OH218419   2.630   7.753   5.089
 6159TIP3    H118420   2.684   7.707   5.153
 6159TIP3    H218421   2.564   7.688   5.062
 6160TIP3   OH218422   5.461   0.488   5.651
 6160TIP3    H118423   5.367   0.487   5.667
 6160TIP3    H218424   5.479   0.577   5.620
 6161TIP3   OH218425   4.264   0.703   1.872
 6161TIP3    H118426   4.245   0.733   1.961
 6161TIP3    H218427   4.198   0.635   1.856
 6162TIP3   OH218428   7.363   3.738   0.135
 6162TIP3    H118429   7.328   3.820   0.169
 6162TIP3    H218430   7.444   3.762   0.092
 6163TIP3   OH218431   1.334   4.154   6.765
 6163TIP3    H118432   1.383   4.232   6.739
 6163TIP3    H218433   1.243   4.179   6.756
 6164TIP3   OH218434   6.503   5.757   4.739
 6164TIP3    H118435   6.444   5.684   4.726
 6164TIP3    H218436   6.448   5.827   4.774
 6165TIP3   OH218437   2.257   0.980   4.614
 6165TIP3    H118438   2.195   1.052   4.619
 6165TIP3    H218439   2.205   0.905   4.588
 6166TIP3   OH218440   6.385   2.398   4.148
 6166TIP3    H118441   6.382   2.439   4.234
 6166TIP3    H218442   6.460   2.339   4.153
 6167TIP3   OH218443   2.930   3.433   3.624
 6167TIP3    H118444   2.928   3.472   3.537
 6167TIP3    H218445   3.023   3.420   3.643
 6168TIP3   OH218446   5.394   6.740   2.342
 6168TIP3    H118447   5.433   6.821   2.310
 6168TIP3    H218448   5.305   6.740   2.309
 6169TIP3   OH218449   6.045   7.867   1.601
 6169TIP3    H118450   6.031   7.782   1.559
 6169TIP3    H218451   6.067   7.845   1.692
 6170TIP3   OH218452   6.694   2.629   3.657
 6170TIP3    H118453   6.655   2.551   3.617
 6170TIP3    H218454   6.750   2.594   3.727
 6171TIP3   OH218455   7.594   1.129   5.792
 6171TIP3    H118456   7.601   1.035   5.809
 6171TIP3    H218457   7.631   1.140   5.705
 6172TIP3   OH218458   1.210   6.198   3.387
 6172TIP3    H118459   1.280   6.180   3.449
 6172TIP3    H218460   1.254   6.209   3.303
 6173TIP3   OH218461   1.392   7.075   5.550
 6173TIP3    H118462   1.428   7.074   5.639
 6173TIP3    H218463   1.338   6.995   5.545
 6174TIP3   OH218464   3.254   4.974   5.075
 6174TIP3    H118465   3.164   4.949   5.052
 6174TIP3    H218466   3.284   4.904   5.133
 6175TIP3   OH218467   3.544   1.064   4.356
 6175TIP3    H118468   3.464   1.116   4.354
 6175TIP3    H218469   3.554   1.038   4.448
 6176TIP3   OH218470   0.478   7.305   4.532
 6176TIP3    H118471   0.497   7.217   4.500
 6176TIP3    H218472   0.402   7.333   4.480
 6177TIP3   OH218473   5.072   5.521   4.661
 6177TIP3    H118474   5.017   5.457   4.706
 6177TIP3    H218475   5.011   5.570   4.606
 6178TIP3   OH218476   6.374   2.337   1.897
 6178TIP3    H118477   6.414   2.266   1.845
 6178TIP3    H218478   6.403   2.417   1.853
 6179TIP3   OH218479   3.826   5.917   5.142
 6179TIP3    H118480   3.742   5.909   5.097
 6179TIP3    H218481   3.838   6.011   5.155
 6180TIP3   OH218482   5.434   6.542   0.931
 6180TIP3    H118483   5.365   6.516   0.993
 6180TIP3    H218484   5.479   6.614   0.974
 6181TIP3   OH218485   1.501   6.399   0.738
 6181TIP3    H118486   1.463   6.458   0.674
 6181TIP3    H218487   1.556   6.455   0.793
 6182TIP3   OH218488   2.881   3.610   3.415
 6182TIP3    H118489   2.865   3.576   3.327
 6182TIP3    H218490   2.812   3.676   3.428
 6183TIP3   OH218491   4.916   7.638   2.297
 6183TIP3    H118492   4.947   7.627   2.387
 6183TIP3    H218493   4.930   7.552   2.257
 6184TIP3   OH218494   7.653   6.232   1.789
 6184TIP3    H118495   7.660   6.315   1.836
 6184TIP3    H218496   7.639   6.256   1.698
 6185TIP3   OH218497   4.357   6.425   6.381
 6185TIP3    H118498   4.284   6.453   6.325
 6185TIP3    H218499   4.321   6.426   6.470
 6186TIP3   OH218500   7.512   3.621   4.519
 6186TIP3    H118501   7.549   3.650   4.602
 6186TIP3    H218502   7.501   3.701   4.467
 6187TIP3   OH218503   3.206   5.486   1.714
 6187TIP3    H118504   3.204   5.529   1.629
 6187TIP3    H218505   3.251   5.404   1.699
 6188TIP3   OH218506   7.128   1.378   5.259
 6188TIP3    H118507   7.201   1.316   5.261
 6188TIP3    H218508   7.057   1.333   5.306
 6189TIP3   OH218509   1.876   6.514   4.632
 6189TIP3    H118510   1.965   6.520   4.667
 6189TIP3    H218511   1.876   6.432   4.583
 6190TIP3   OH218512   6.551   0.901   5.995
 6190TIP3    H118513   6.497   0.830   5.962
 6190TIP3    H218514   6.641   0.873   5.976
 6191TIP3   OH218515   4.492   2.336   3.419
 6191TIP3    H118516   4.552   2.289   3.361
 6191TIP3    H218517   4.517   2.428   3.411
 6192TIP3   OH218518   3.326   2.510   3.715
 6192TIP3    H118519   3.260   2.445   3.689
 6192TIP3    H218520   3.281   2.594   3.708
 6193TIP3   OH218521  -0.040   1.318   2.792
 6193TIP3    H118522  -0.003   1.326   2.704
 6193TIP3    H218523  -0.039   1.224   2.810
 6194TIP3   OH218524   6.211   6.328   3.289
 6194TIP3    H118525   6.183   6.267   3.221
 6194TIP3    H218526   6.161   6.303   3.366
 6195TIP3   OH218527   0.477   2.063   0.690
 6195TIP3    H118528   0.439   1.997   0.748
 6195TIP3    H218529   0.571   2.056   0.704
 6196TIP3   OH218530   0.358   0.655   0.926
 6196TIP3    H118531   0.436   0.702   0.954
 6196TIP3    H218532   0.311   0.718   0.870
 6197TIP3   OH218533   3.677   7.218   2.018
 6197TIP3    H118534   3.621   7.148   2.051
 6197TIP3    H218535   3.685   7.279   2.091
 6198TIP3   OH218536   2.920   3.308   6.353
 6198TIP3    H118537   2.837   3.295   6.306
 6198TIP3    H218538   2.932   3.227   6.403
 6199TIP3   OH218539   4.929   6.403   0.384
 6199TIP3    H118540   4.901   6.471   0.446
 6199TIP3    H218541   5.002   6.443   0.336
 6200TIP3   OH218542   3.480   2.561   6.509
 6200TIP3    H118543   3.575   2.550   6.521
 6200TIP3    H218544   3.441   2.490   6.561
 6201TIP3   OH218545   0.536   3.428   5.955
 6201TIP3    H118546   0.570   3.498   6.012
 6201TIP3    H218547   0.574   3.447   5.869
 6202TIP3   OH218548   1.219   4.912  -0.009
 6202TIP3    H118549   1.125   4.931   0.000
 6202TIP3    H218550   1.222   4.816  -0.016
 6203TIP3   OH218551   1.881   5.747   5.549
 6203TIP3    H118552   1.857   5.771   5.460
 6203TIP3    H218553   1.840   5.814   5.604
 6204TIP3   OH218554   5.748   3.375   5.121
 6204TIP3    H118555   5.806   3.334   5.057
 6204TIP3    H218556   5.754   3.469   5.103
 6205TIP3   OH218557   4.329   0.515   3.448
 6205TIP3    H118558   4.375   0.593   3.478
 6205TIP3    H218559   4.388   0.475   3.384
 6206TIP3   OH218560   5.864   2.332   3.099
 6206TIP3    H118561   5.778   2.331   3.057
 6206TIP3    H218562   5.924   2.302   3.031
 6207TIP3   OH218563   3.265   3.458   4.665
 6207TIP3    H118564   3.176   3.494   4.657
 6207TIP3    H218565   3.284   3.424   4.577
 6208TIP3   OH218566   6.573   4.094   0.601
 6208TIP3    H118567   6.549   4.163   0.539
 6208TIP3    H218568   6.506   4.098   0.669
 6209TIP3   OH218569   6.484   6.460   0.898
 6209TIP3    H118570   6.452   6.520   0.831
 6209TIP3    H218571   6.531   6.517   0.960
 6210TIP3   OH218572   4.599   4.323   0.054
 6210TIP3    H118573   4.679   4.307   0.104
 6210TIP3    H218574   4.530   4.287   0.109
 6211TIP3   OH218575   6.009   4.197   2.956
 6211TIP3    H118576   5.972   4.237   2.877
 6211TIP3    H218577   6.009   4.267   3.020
 6212TIP3   OH218578   7.990   4.615   4.439
 6212TIP3    H118579   8.031   4.686   4.488
 6212TIP3    H218580   7.980   4.649   4.351
 6213TIP3   OH218581   3.549   0.636   4.765
 6213TIP3    H118582   3.492   0.709   4.743
 6213TIP3    H218583   3.540   0.575   4.692
 6214TIP3   OH218584   8.194   0.191   4.097
 6214TIP3    H118585   8.246   0.163   4.172
 6214TIP3    H218586   8.183   0.286   4.110
 6215TIP3   OH218587   5.724   0.683   5.388
 6215TIP3    H118588   5.688   0.634   5.314
 6215TIP3    H218589   5.737   0.618   5.457
 6216TIP3   OH218590  -0.009   6.779   0.450
 6216TIP3    H118591   0.049   6.703   0.448
 6216TIP3    H218592  -0.033   6.794   0.359
 6217TIP3   OH218593   4.816   6.046   1.388
 6217TIP3    H118594   4.746   5.982   1.401
 6217TIP3    H218595   4.848   6.065   1.477
 6218TIP3   OH218596   4.713   4.619   2.540
 6218TIP3    H118597   4.676   4.698   2.580
 6218TIP3    H218598   4.806   4.620   2.565
 6219TIP3   OH218599   3.263   5.779   5.674
 6219TIP3    H118600   3.193   5.738   5.624
 6219TIP3    H218601   3.328   5.710   5.685
 6220TIP3   OH218602   5.158   5.616   5.816
 6220TIP3    H118603   5.101   5.690   5.835
 6220TIP3    H218604   5.146   5.557   5.891
 6221TIP3   OH218605   6.374   2.652   2.017
 6221TIP3    H118606   6.349   2.708   1.943
 6221TIP3    H218607   6.470   2.657   2.020
 6222TIP3   OH218608   6.738   3.314   3.806
 6222TIP3    H118609   6.718   3.339   3.716
 6222TIP3    H218610   6.672   3.361   3.858
 6223TIP3   OH218611   4.265   0.461   0.063
 6223TIP3    H118612   4.303   0.395   0.004
 6223TIP3    H218613   4.176   0.474   0.031
 6224TIP3   OH218614   5.971   4.451   5.336
 6224TIP3    H118615   5.919   4.428   5.413
 6224TIP3    H218616   5.977   4.546   5.339
 6225TIP3   OH218617   0.116   3.024   0.608
 6225TIP3    H118618   0.062   2.954   0.646
 6225TIP3    H218619   0.083   3.104   0.649
 6226TIP3   OH218620   4.431   4.637   5.413
 6226TIP3    H118621   4.390   4.573   5.355
 6226TIP3    H218622   4.503   4.589   5.454
 6227TIP3   OH218623   7.430   1.388   0.411
 6227TIP3    H118624   7.376   1.452   0.365
 6227TIP3    H218625   7.519   1.420   0.400
 6228TIP3   OH218626   5.898   3.362   5.766
 6228TIP3    H118627   5.840   3.423   5.813
 6228TIP3    H218628   5.884   3.382   5.674
 6229TIP3   OH218629   3.898   2.632   4.970
 6229TIP3    H118630   3.921   2.644   4.878
 6229TIP3    H218631   3.808   2.664   4.976
 6230TIP3   OH218632   6.736   5.932   5.960
 6230TIP3    H118633   6.768   5.917   6.049
 6230TIP3    H218634   6.806   5.899   5.904
 6231TIP3   OH218635   6.536   5.902   2.916
 6231TIP3    H118636   6.612   5.863   2.873
 6231TIP3    H218637   6.492   5.952   2.847
 6232TIP3   OH218638   3.603   0.101   5.829
 6232TIP3    H118639   3.626   0.188   5.798
 6232TIP3    H218640   3.670   0.080   5.894
 6233TIP3   OH218641   5.978   7.504   1.820
 6233TIP3    H118642   5.914   7.532   1.754
 6233TIP3    H218643   5.928   7.449   1.881
 6234TIP3   OH218644   0.249   0.568   4.968
 6234TIP3    H118645   0.191   0.622   5.022
 6234TIP3    H218646   0.312   0.531   5.030
 6235TIP3   OH218647   1.060   6.278   2.130
 6235TIP3    H118648   0.973   6.242   2.145
 6235TIP3    H218649   1.114   6.201   2.111
 6236TIP3   OH218650   0.380   4.890   2.026
 6236TIP3    H118651   0.300   4.838   2.034
 6236TIP3    H218652   0.451   4.827   2.042
 6237TIP3   OH218653   8.096   6.782   5.316
 6237TIP3    H118654   8.177   6.812   5.276
 6237TIP3    H218655   8.046   6.743   5.244
 6238TIP3   OH218656   0.264   1.912   2.549
 6238TIP3    H118657   0.281   1.933   2.641
 6238TIP3    H218658   0.264   1.997   2.505
 6239TIP3   OH218659   2.024   5.642   3.921
 6239TIP3    H118660   2.065   5.630   4.007
 6239TIP3    H218661   2.093   5.679   3.866
 6240TIP3   OH218662   1.317   3.509   0.534
 6240TIP3    H118663   1.370   3.582   0.503
 6240TIP3    H218664   1.293   3.533   0.624
 6241TIP3   OH218665   6.588   3.123   1.157
 6241TIP3    H118666   6.651   3.162   1.096
 6241TIP3    H218667   6.583   3.185   1.230
 6242TIP3   OH218668   2.923   3.003   5.191
 6242TIP3    H118669   2.836   3.014   5.228
 6242TIP3    H218670   2.982   3.018   5.265
 6243TIP3   OH218671   7.980   1.258   0.255
 6243TIP3    H118672   7.999   1.201   0.180
 6243TIP3    H218673   8.058   1.313   0.264
 6244TIP3   OH218674   0.448   6.763   5.319
 6244TIP3    H118675   0.491   6.841   5.284
 6244TIP3    H218676   0.387   6.796   5.385
 6245TIP3   OH218677   7.831   0.675   5.047
 6245TIP3    H118678   7.814   0.754   5.098
 6245TIP3    H218679   7.924   0.657   5.060
 6246TIP3   OH218680   5.909   5.650   0.552
 6246TIP3    H118681   5.956   5.731   0.535
 6246TIP3    H218682   5.938   5.590   0.484
 6247TIP3   OH218683   2.728   7.190   5.350
 6247TIP3    H118684   2.748   7.178   5.442
 6247TIP3    H218685   2.814   7.193   5.307
 6248TIP3   OH218686   7.084   5.657   2.602
 6248TIP3    H118687   7.154   5.721   2.612
 6248TIP3    H218688   7.027   5.673   2.677
 6249TIP3   OH218689   7.086   7.036   2.031
 6249TIP3    H118690   7.112   7.123   2.002
 6249TIP3    H218691   7.011   7.014   1.976
 6250TIP3   OH218692   4.730   3.058   3.805
 6250TIP3    H118693   4.809   3.003   3.805
 6250TIP3    H218694   4.665   3.007   3.758
 6251TIP3   OH218695   1.417   6.938   4.775
 6251TIP3    H118696   1.396   7.030   4.793
 6251TIP3    H218697   1.500   6.923   4.821
 6252TIP3   OH218698   0.900   6.068   0.672
 6252TIP3    H118699   0.886   6.002   0.604
 6252TIP3    H218700   0.820   6.120   0.671
 6253TIP3   OH218701   6.420   0.849   0.912
 6253TIP3    H118702   6.441   0.756   0.920
 6253TIP3    H218703   6.346   0.862   0.970
 6254TIP3   OH218704   5.603   1.494   2.031
 6254TIP3    H118705   5.548   1.521   2.105
 6254TIP3    H218706   5.654   1.420   2.064
 6255TIP3   OH218707   7.779   4.354   5.910
 6255TIP3    H118708   7.728   4.435   5.914
 6255TIP3    H218709   7.867   4.382   5.887
 6256TIP3   OH218710   1.872   1.116   6.502
 6256TIP3    H118711   1.868   1.088   6.593
 6256TIP3    H218712   1.961   1.094   6.475
 6257TIP3   OH218713   0.749   5.966   6.781
 6257TIP3    H118714   0.826   5.911   6.764
 6257TIP3    H218715   0.783   6.056   6.779
 6258TIP3   OH218716   5.383   2.437   5.946
 6258TIP3    H118717   5.368   2.346   5.920
 6258TIP3    H218718   5.307   2.458   6.001
 6259TIP3   OH218719   6.619   7.130   0.055
 6259TIP3    H118720   6.604   7.220   0.084
 6259TIP3    H218721   6.538   7.104   0.012
 6260TIP3   OH218722   2.856   1.322   6.721
 6260TIP3    H118723   2.933   1.284   6.680
 6260TIP3    H218724   2.840   1.403   6.671
 6261TIP3   OH218725   1.003   2.842   0.650
 6261TIP3    H118726   1.024   2.862   0.741
 6261TIP3    H218727   1.083   2.865   0.601
 6262TIP3   OH218728   3.407   0.255   0.150
 6262TIP3    H118729   3.463   0.198   0.203
 6262TIP3    H218730   3.385   0.327   0.210
 6263TIP3   OH218731   2.895   0.789   1.109
 6263TIP3    H118732   2.844   0.715   1.076
 6263TIP3    H218733   2.945   0.819   1.033
 6264TIP3   OH218734   6.867   6.493   6.092
 6264TIP3    H118735   6.870   6.416   6.149
 6264TIP3    H218736   6.793   6.545   6.125
 6265TIP3   OH218737   5.499   3.782   2.504
 6265TIP3    H118738   5.592   3.759   2.508
 6265TIP3    H218739   5.457   3.724   2.566
 6266TIP3   OH218740   2.449   3.456   6.635
 6266TIP3    H118741   2.524   3.512   6.613
 6266TIP3    H218742   2.478   3.368   6.614
 6267TIP3   OH218743   1.817   6.011   3.253
 6267TIP3    H118744   1.909   6.010   3.279
 6267TIP3    H218745   1.786   6.098   3.278
 6268TIP3   OH218746   6.460   2.908   1.230
 6268TIP3    H118747   6.393   2.925   1.296
 6268TIP3    H218748   6.504   2.992   1.218
 6269TIP3   OH218749   3.848   2.111  -0.025
 6269TIP3    H118750   3.903   2.159  -0.087
 6269TIP3    H218751   3.761   2.152  -0.033
 6270TIP3   OH218752   0.822   2.426   2.614
 6270TIP3    H118753   0.763   2.396   2.683
 6270TIP3    H218754   0.832   2.351   2.557
 6271TIP3   OH218755   6.461   1.726   2.254
 6271TIP3    H118756   6.470   1.820   2.241
 6271TIP3    H218757   6.367   1.710   2.248
 6272TIP3   OH218758   6.179   0.055   0.410
 6272TIP3    H118759   6.126   0.134   0.400
 6272TIP3    H218760   6.217   0.062   0.498
 6273TIP3   OH218761   6.724   4.363   4.056
 6273TIP3    H118762   6.774   4.288   4.026
 6273TIP3    H218763   6.652   4.326   4.108
 6274TIP3   OH218764   7.417   6.008   1.218
 6274TIP3    H118765   7.395   5.989   1.127
 6274TIP3    H218766   7.332   6.020   1.261
 6275TIP3   OH218767   0.070   2.967   5.599
 6275TIP3    H118768   0.043   2.988   5.688
 6275TIP3    H218769   0.093   3.052   5.561
 6276TIP3   OH218770   6.924   3.124   1.991
 6276TIP3    H118771   6.840   3.160   1.961
 6276TIP3    H218772   6.921   3.134   2.086
 6277TIP3   OH218773   6.148   4.813   5.439
 6277TIP3    H118774   6.129   4.827   5.532
 6277TIP3    H218775   6.171   4.900   5.406
 6278TIP3   OH218776   6.804   0.763   5.969
 6278TIP3    H118777   6.849   0.689   5.929
 6278TIP3    H218778   6.799   0.741   6.062
 6279TIP3   OH218779   2.544   4.834   2.093
 6279TIP3    H118780   2.500   4.844   2.008
 6279TIP3    H218781   2.472   4.830   2.156
 6280TIP3   OH218782   2.053   5.637   4.502
 6280TIP3    H118783   1.998   5.636   4.423
 6280TIP3    H218784   2.142   5.623   4.469
 6281TIP3   OH218785   5.960   4.353   0.601
 6281TIP3    H118786   5.899   4.426   0.602
 6281TIP3    H218787   6.046   4.394   0.610
 6282TIP3   OH218788   1.667   1.259   6.594
 6282TIP3    H118789   1.651   1.353   6.588
 6282TIP3    H218790   1.738   1.242   6.533
 6283TIP3   OH218791   3.530   2.739   2.075
 6283TIP3    H118792   3.444   2.722   2.114
 6283TIP3    H218793   3.578   2.787   2.142
 6284TIP3   OH218794   6.400   5.153   1.214
 6284TIP3    H118795   6.391   5.197   1.299
 6284TIP3    H218796   6.463   5.083   1.231
 6285TIP3   OH218797   4.155   1.716   1.246
 6285TIP3    H118798   4.194   1.803   1.235
 6285TIP3    H218799   4.187   1.686   1.331
 6286TIP3   OH218800   3.923   6.032   0.532
 6286TIP3    H118801   3.942   6.041   0.438
 6286TIP3    H218802   3.907   6.122   0.561
 6287TIP3   OH218803   7.223   6.926   1.042
 6287TIP3    H118804   7.293   6.904   0.981
 6287TIP3    H218805   7.183   6.843   1.065
 6288TIP3   OH218806   3.423   4.254   4.431
 6288TIP3    H118807   3.502   4.246   4.377
 6288TIP3    H218808   3.408   4.349   4.436
 6289TIP3   OH218809   4.260   0.979   2.602
 6289TIP3    H118810   4.213   0.987   2.519
 6289TIP3    H218811   4.217   0.907   2.648
 6290TIP3   OH218812   0.175   3.539   1.756
 6290TIP3    H118813   0.185   3.490   1.675
 6290TIP3    H218814   0.082   3.563   1.759
 6291TIP3   OH218815   4.462   2.424   4.591
 6291TIP3    H118816   4.374   2.426   4.628
 6291TIP3    H218817   4.462   2.495   4.526
 6292TIP3   OH218818   0.196   5.480   1.076
 6292TIP3    H118819   0.183   5.494   0.982
 6292TIP3    H218820   0.175   5.387   1.089
 6293TIP3   OH218821   3.610   6.379   0.185
 6293TIP3    H118822   3.618   6.465   0.227
 6293TIP3    H218823   3.516   6.361   0.185
 6294TIP3   OH218824   6.026   3.742   4.633
 6294TIP3    H118825   5.943   3.787   4.654
 6294TIP3    H218826   6.022   3.661   4.683
 6295TIP3   OH218827   4.399   0.899   4.373
 6295TIP3    H118828   4.444   0.826   4.331
 6295TIP3    H218829   4.314   0.863   4.401
 6296TIP3   OH218830   7.320   1.997   5.180
 6296TIP3    H118831   7.289   1.988   5.090
 6296TIP3    H218832   7.259   2.060   5.220
 6297TIP3   OH218833   6.992   6.870   3.661
 6297TIP3    H118834   7.045   6.923   3.602
 6297TIP3    H218835   6.960   6.932   3.727
 6298TIP3   OH218836   4.240   2.162   3.139
 6298TIP3    H118837   4.173   2.102   3.171
 6298TIP3    H218838   4.250   2.140   3.046
 6299TIP3   OH218839   5.827   6.443   6.508
 6299TIP3    H118840   5.894   6.484   6.563
 6299TIP3    H218841   5.772   6.517   6.480
 6300TIP3   OH218842   5.049   2.054   0.531
 6300TIP3    H118843   5.105   2.028   0.457
 6300TIP3    H218844   5.028   1.972   0.575
 6301TIP3   OH218845   3.660   7.060   0.165
 6301TIP3    H118846   3.611   7.106   0.097
 6301TIP3    H218847   3.740   7.030   0.122
 6302TIP3   OH218848   7.261   3.293   2.211
 6302TIP3    H118849   7.253   3.387   2.230
 6302TIP3    H218850   7.252   3.287   2.116
 6303TIP3   OH218851   7.074   6.000   3.669
 6303TIP3    H118852   7.066   6.094   3.689
 6303TIP3    H218853   7.163   5.978   3.698
 6304TIP3   OH218854   7.398   2.655   3.679
 6304TIP3    H118855   7.365   2.569   3.706
 6304TIP3    H218856   7.493   2.643   3.677
 6305TIP3   OH218857   7.642   5.666   0.752
 6305TIP3    H118858   7.674   5.741   0.803
 6305TIP3    H218859   7.709   5.599   0.764
 6306TIP3   OH218860   6.609   1.101   6.180
 6306TIP3    H118861   6.600   1.047   6.101
 6306TIP3    H218862   6.569   1.184   6.157
 6307TIP3   OH218863   1.212   7.013   4.218
 6307TIP3    H118864   1.226   6.979   4.130
 6307TIP3    H218865   1.135   7.070   4.210
 6308TIP3   OH218866   5.567   1.167   3.690
 6308TIP3    H118867   5.618   1.090   3.712
 6308TIP3    H218868   5.632   1.237   3.679
 6309TIP3   OH218869   1.233   5.309   4.261
 6309TIP3    H118870   1.230   5.357   4.177
 6309TIP3    H218871   1.190   5.226   4.242
 6310TIP3   OH218872   6.193   5.053   0.845
 6310TIP3    H118873   6.121   5.112   0.826
 6310TIP3    H218874   6.189   5.040   0.940
 6311TIP3   OH218875   1.430   5.990   0.446
 6311TIP3    H118876   1.506   6.022   0.496
 6311TIP3    H218877   1.447   5.897   0.434
 6312TIP3   OH218878   2.220   1.978   3.575
 6312TIP3    H118879   2.291   2.035   3.604
 6312TIP3    H218880   2.263   1.895   3.553
 6313TIP3   OH218881   2.043   6.157   4.983
 6313TIP3    H118882   1.958   6.176   4.944
 6313TIP3    H218883   2.104   6.216   4.937
 6314TIP3   OH218884   1.231   6.464   2.834
 6314TIP3    H118885   1.175   6.417   2.773
 6314TIP3    H218886   1.309   6.485   2.783
 6315TIP3   OH218887   5.296   3.257   1.569
 6315TIP3    H118888   5.207   3.286   1.591
 6315TIP3    H218889   5.301   3.263   1.474
 6316TIP3   OH218890   3.782   6.923   4.764
 6316TIP3    H118891   3.734   6.934   4.846
 6316TIP3    H218892   3.824   6.837   4.773
 6317TIP3   OH218893   7.147   5.629   6.688
 6317TIP3    H118894   7.230   5.669   6.714
 6317TIP3    H218895   7.162   5.535   6.697
 6318TIP3   OH218896   7.852   3.149   1.415
 6318TIP3    H118897   7.789   3.222   1.417
 6318TIP3    H218898   7.863   3.131   1.322
 6319TIP3   OH218899   7.772   4.020   4.307
 6319TIP3    H118900   7.744   4.105   4.342
 6319TIP3    H218901   7.835   4.041   4.239
 6320TIP3   OH218902   7.726   7.489   0.286
 6320TIP3    H118903   7.801   7.430   0.283
 6320TIP3    H218904   7.759   7.569   0.325
 6321TIP3   OH218905   5.020   0.034   0.424
 6321TIP3    H118906   4.964   0.109   0.443
 6321TIP3    H218907   4.987  -0.036   0.480
 6322TIP3   OH218908   5.682   6.258   4.134
 6322TIP3    H118909   5.691   6.353   4.142
 6322TIP3    H218910   5.757   6.231   4.080
 6323TIP3   OH218911   5.954   3.558   1.674
 6323TIP3    H118912   6.045   3.586   1.668
 6323TIP3    H218913   5.957   3.463   1.665
 6324TIP3   OH218914   3.202   5.516   3.511
 6324TIP3    H118915   3.231   5.488   3.424
 6324TIP3    H218916   3.274   5.491   3.569
 6325TIP3   OH218917   4.695   5.809   1.012
 6325TIP3    H118918   4.611   5.853   1.028
 6325TIP3    H218919   4.690   5.729   1.065
 6326TIP3   OH218920   0.720   1.753   2.123
 6326TIP3    H118921   0.664   1.820   2.164
 6326TIP3    H218922   0.809   1.778   2.147
 6327TIP3   OH218923   5.421   7.575   3.493
 6327TIP3    H118924   5.425   7.630   3.572
 6327TIP3    H218925   5.349   7.611   3.442
 6328TIP3   OH218926   2.751   3.260   2.024
 6328TIP3    H118927   2.833   3.221   1.992
 6328TIP3    H218928   2.705   3.288   1.945
 6329TIP3   OH218929   0.777   5.891   5.143
 6329TIP3    H118930   0.760   5.797   5.136
 6329TIP3    H218931   0.852   5.906   5.086
 6330TIP3   OH218932   2.603   0.397   2.746
 6330TIP3    H118933   2.638   0.375   2.660
 6330TIP3    H218934   2.651   0.340   2.807
 6331TIP3   OH218935   6.378   0.902   3.055
 6331TIP3    H118936   6.439   0.948   3.112
 6331TIP3    H218937   6.291   0.927   3.087
 6332TIP3   OH218938   5.952   0.380   0.791
 6332TIP3    H118939   5.999   0.454   0.829
 6332TIP3    H218940   5.860   0.401   0.803
 6333TIP3   OH218941   8.270   4.414   5.584
 6333TIP3    H118942   8.231   4.378   5.664
 6333TIP3    H218943   8.261   4.509   5.593
 6334TIP3   OH218944   2.498   2.378   0.963
 6334TIP3    H118945   2.549   2.458   0.974
 6334TIP3    H218946   2.475   2.351   1.052
 6335TIP3   OH218947   8.140   6.282   4.453
 6335TIP3    H118948   8.087   6.255   4.378
 6335TIP3    H218949   8.077   6.288   4.525
 6336TIP3   OH218950   3.662   5.924   0.501
 6336TIP3    H118951   3.753   5.947   0.519
 6336TIP3    H218952   3.620   6.007   0.481
 6337TIP3   OH218953   0.674   1.605   1.905
 6337TIP3    H118954   0.669   1.673   1.838
 6337TIP3    H218955   0.702   1.650   1.984
 6338TIP3   OH218956   5.735   0.904   4.426
 6338TIP3    H118957   5.675   0.836   4.458
 6338TIP3    H218958   5.678   0.973   4.392
 6339TIP3   OH218959   7.805   5.355   3.541
 6339TIP3    H118960   7.782   5.269   3.577
 6339TIP3    H218961   7.890   5.375   3.580
 6340TIP3   OH218962   5.998   2.345   2.628
 6340TIP3    H118963   5.951   2.265   2.607
 6340TIP3    H218964   6.067   2.351   2.562
 6341TIP3   OH218965   2.595   5.122   1.052
 6341TIP3    H118966   2.532   5.052   1.037
 6341TIP3    H218967   2.547   5.187   1.103
 6342TIP3   OH218968   0.735   7.387   4.394
 6342TIP3    H118969   0.711   7.478   4.411
 6342TIP3    H218970   0.662   7.335   4.428
 6343TIP3   OH218971   2.570   2.833   5.494
 6343TIP3    H118972   2.629   2.905   5.514
 6343TIP3    H218973   2.498   2.873   5.446
 6344TIP3   OH218974   0.591   5.304   0.286
 6344TIP3    H118975   0.659   5.300   0.353
 6344TIP3    H218976   0.523   5.359   0.324
 6345TIP3   OH218977   4.289   7.355   3.088
 6345TIP3    H118978   4.253   7.285   3.035
 6345TIP3    H218979   4.271   7.328   3.178
 6346TIP3   OH218980   1.755   4.274   3.429
 6346TIP3    H118981   1.730   4.240   3.343
 6346TIP3    H218982   1.679   4.324   3.459
 6347TIP3   OH218983   7.204   3.705   3.084
 6347TIP3    H118984   7.238   3.795   3.086
 6347TIP3    H218985   7.151   3.702   3.004
 6348TIP3   OH218986   1.723   0.038   3.220
 6348TIP3    H118987   1.679   0.020   3.303
 6348TIP3    H218988   1.654   0.034   3.155
 6349TIP3   OH218989   7.029   1.119   4.126
 6349TIP3    H118990   6.962   1.163   4.074
 6349TIP3    H218991   7.109   1.169   4.110
 6350TIP3   OH218992   1.568   3.980   0.332
 6350TIP3    H118993   1.473   3.986   0.319
 6350TIP3    H218994   1.588   3.889   0.310
 6351TIP3   OH218995   5.694   0.444   3.702
 6351TIP3    H118996   5.688   0.506   3.630
 6351TIP3    H218997   5.768   0.475   3.754
 6352TIP3   OH218998   6.944   7.788   4.514
 6352TIP3    H118999   6.964   7.805   4.606
 6352TIP3    H219000   6.910   7.698   4.514
 6353TIP3   OH219001   1.661   5.849   5.062
 6353TIP3    H119002   1.629   5.759   5.051
 6353TIP3    H219003   1.705   5.869   4.979
 6354TIP3   OH219004   4.589   6.512   0.408
 6354TIP3    H119005   4.636   6.555   0.336
 6354TIP3    H219006   4.503   6.490   0.370
 6355TIP3   OH219007   2.833   6.391   4.123
 6355TIP3    H119008   2.827   6.472   4.071
 6355TIP3    H219009   2.806   6.418   4.211
 6356TIP3   OH219010   5.662   1.574   4.255
 6356TIP3    H119011   5.666   1.632   4.331
 6356TIP3    H219012   5.575   1.535   4.260
 6357TIP3   OH219013   4.731   7.507   1.767
 6357TIP3    H119014   4.651   7.477   1.723
 6357TIP3    H219015   4.740   7.598   1.739
 6358TIP3   OH219016   7.677   4.816   1.137
 6358TIP3    H119017   7.632   4.893   1.171
 6358TIP3    H219018   7.766   4.822   1.172
 6359TIP3   OH219019   0.936   1.579   1.704
 6359TIP3    H119020   0.894   1.523   1.770
 6359TIP3    H219021   0.864   1.607   1.647
 6360TIP3   OH219022   7.706   1.416   6.011
 6360TIP3    H119023   7.669   1.350   6.069
 6360TIP3    H219024   7.637   1.434   5.947
 6361TIP3   OH219025   4.037   1.818   6.285
 6361TIP3    H119026   4.069   1.906   6.267
 6361TIP3    H219027   3.971   1.830   6.354
 6362TIP3   OH219028   7.501   4.231   1.193
 6362TIP3    H119029   7.418   4.229   1.145
 6362TIP3    H219030   7.476   4.233   1.285
 6363TIP3   OH219031   3.120   7.373   4.790
 6363TIP3    H119032   3.165   7.422   4.722
 6363TIP3    H219033   3.066   7.309   4.742
 6364TIP3   OH219034   4.721   7.462   3.745
 6364TIP3    H119035   4.804   7.511   3.746
 6364TIP3    H219036   4.680   7.485   3.662
 6365TIP3   OH219037   4.499   3.244   4.543
 6365TIP3    H119038   4.525   3.217   4.455
 6365TIP3    H219039   4.561   3.312   4.567
 6366TIP3   OH219040   3.018   1.789   3.699
 6366TIP3    H119041   3.081   1.793   3.628
 6366TIP3    H219042   2.934   1.772   3.656
 6367TIP3   OH219043   0.401   7.266   3.182
 6367TIP3    H119044   0.398   7.173   3.205
 6367TIP3    H219045   0.471   7.271   3.116
 6368TIP3   OH219046   5.061   6.225   3.067
 6368TIP3    H119047   4.976   6.257   3.095
 6368TIP3    H219048   5.122   6.254   3.135
 6369TIP3   OH219049   1.493   7.627   2.842
 6369TIP3    H119050   1.453   7.586   2.919
 6369TIP3    H219051   1.441   7.594   2.768
 6370TIP3   OH219052   2.977   7.615   4.687
 6370TIP3    H119053   3.021   7.638   4.769
 6370TIP3    H219054   2.892   7.658   4.693
 6371TIP3   OH219055   8.094   2.725   1.968
 6371TIP3    H119056   8.090   2.714   2.063
 6371TIP3    H219057   8.121   2.639   1.935
 6372TIP3   OH219058   5.003   3.641   4.572
 6372TIP3    H119059   5.081   3.663   4.521
 6372TIP3    H219060   5.007   3.546   4.582
 6373TIP3   OH219061   1.021   3.313   6.287
 6373TIP3    H119062   1.062   3.348   6.208
 6373TIP3    H219063   0.928   3.333   6.276
 6374TIP3   OH219064   5.729   7.088   4.713
 6374TIP3    H119065   5.716   7.142   4.790
 6374TIP3    H219066   5.733   7.150   4.640
 6375TIP3   OH219067   6.907   4.956   6.393
 6375TIP3    H119068   6.822   4.951   6.349
 6375TIP3    H219069   6.961   5.008   6.333
 6376TIP3   OH219070   7.132   7.130   2.878
 6376TIP3    H119071   7.218   7.094   2.857
 6376TIP3    H219072   7.078   7.107   2.803
 6377TIP3   OH219073   4.172   7.625   5.937
 6377TIP3    H119074   4.198   7.712   5.908
 6377TIP3    H219075   4.076   7.629   5.943
 6378TIP3   OH219076   0.768   7.043   2.540
 6378TIP3    H119077   0.839   6.983   2.517
 6378TIP3    H219078   0.791   7.125   2.497
 6379TIP3   OH219079   2.886   0.245   0.384
 6379TIP3    H119080   2.889   0.278   0.474
 6379TIP3    H219081   2.907   0.321   0.330
 6380TIP3   OH219082   5.424   2.621   5.735
 6380TIP3    H119083   5.448   2.575   5.816
 6380TIP3    H219084   5.463   2.569   5.665
 6381TIP3   OH219085   1.930   2.779   2.940
 6381TIP3    H119086   1.940   2.848   3.005
 6381TIP3    H219087   2.013   2.732   2.941
 6382TIP3   OH219088   2.330   2.025   1.587
 6382TIP3    H119089   2.237   2.037   1.566
 6382TIP3    H219090   2.332   1.942   1.635
 6383TIP3   OH219091   8.268   0.250   1.350
 6383TIP3    H119092   8.349   0.199   1.345
 6383TIP3    H219093   8.276   0.315   1.280
 6384TIP3   OH219094   1.620   1.663   0.914
 6384TIP3    H119095   1.697   1.608   0.898
 6384TIP3    H219096   1.557   1.605   0.956
 6385TIP3   OH219097   2.516   5.007   2.397
 6385TIP3    H119098   2.585   4.947   2.426
 6385TIP3    H219099   2.456   4.952   2.347
 6386TIP3   OH219100   0.479   3.046   3.084
 6386TIP3    H119101   0.406   3.108   3.094
 6386TIP3    H219102   0.515   3.037   3.173
 6387TIP3   OH219103   3.454   1.348   1.884
 6387TIP3    H119104   3.518   1.416   1.867
 6387TIP3    H219105   3.505   1.274   1.917
 6388TIP3   OH219106   6.700   1.724   3.618
 6388TIP3    H119107   6.609   1.748   3.636
 6388TIP3    H219108   6.732   1.688   3.701
 6389TIP3   OH219109   5.050   2.117   0.967
 6389TIP3    H119110   5.009   2.033   0.948
 6389TIP3    H219111   4.978   2.180   0.966
 6390TIP3   OH219112   1.669   2.074   2.128
 6390TIP3    H119113   1.750   2.110   2.093
 6390TIP3    H219114   1.620   2.151   2.157
 6391TIP3   OH219115   0.440  -0.052   5.901
 6391TIP3    H119116   0.384  -0.082   5.829
 6391TIP3    H219117   0.392   0.021   5.940
 6392TIP3   OH219118   0.964   5.535   4.656
 6392TIP3    H119119   1.038   5.529   4.715
 6392TIP3    H219120   0.988   5.605   4.595
 6393TIP3   OH219121   0.335   0.192   6.011
 6393TIP3    H119122   0.255   0.184   5.960
 6393TIP3    H219123   0.396   0.238   5.954
 6394TIP3   OH219124   0.134   0.729   0.088
 6394TIP3    H119125   0.122   0.681   0.007
 6394TIP3    H219126   0.156   0.818   0.061
 6395TIP3   OH219127   0.439   4.615   2.083
 6395TIP3    H119128   0.435   4.578   2.171
 6395TIP3    H219129   0.407   4.545   2.026
 6396TIP3   OH219130   5.957   3.856   6.563
 6396TIP3    H119131   5.946   3.862   6.469
 6396TIP3    H219132   6.008   3.933   6.587
 6397TIP3   OH219133   0.069   6.701   4.986
 6397TIP3    H119134   0.090   6.647   4.910
 6397TIP3    H219135  -0.022   6.728   4.972
 6398TIP3   OH219136   5.655   1.822   5.134
 6398TIP3    H119137   5.662   1.855   5.224
 6398TIP3    H219138   5.710   1.744   5.133
 6399TIP3   OH219139   1.477   2.263   0.147
 6399TIP3    H119140   1.552   2.323   0.155
 6399TIP3    H219141   1.400   2.320   0.147
 6400TIP3   OH219142   0.849   4.322   2.466
 6400TIP3    H119143   0.891   4.347   2.384
 6400TIP3    H219144   0.915   4.269   2.511
 6401TIP3   OH219145   6.870   0.855   3.724
 6401TIP3    H119146   6.829   0.793   3.785
 6401TIP3    H219147   6.963   0.853   3.747
 6402TIP3   OH219148   3.202   6.281   0.110
 6402TIP3    H119149   3.133   6.285   0.176
 6402TIP3    H219150   3.157   6.253   0.030
 6403TIP3   OH219151   7.948   6.344   6.648
 6403TIP3    H119152   7.888   6.418   6.657
 6403TIP3    H219153   7.891   6.271   6.623
 6404TIP3   OH219154   3.336   3.123   2.683
 6404TIP3    H119155   3.263   3.119   2.622
 6404TIP3    H219156   3.414   3.127   2.627
 6405TIP3   OH219157   1.087   4.190   3.701
 6405TIP3    H119158   1.019   4.227   3.758
 6405TIP3    H219159   1.113   4.262   3.644
 6406TIP3   OH219160   3.885   0.545   1.359
 6406TIP3    H119161   3.938   0.553   1.279
 6406TIP3    H219162   3.941   0.500   1.421
 6407TIP3   OH219163   1.383   0.576   5.214
 6407TIP3    H119164   1.389   0.671   5.222
 6407TIP3    H219165   1.320   0.562   5.144
 6408TIP3   OH219166   3.210   3.983  -0.027
 6408TIP3    H119167   3.133   4.038  -0.015
 6408TIP3    H219168   3.238   3.960   0.062
 6409TIP3   OH219169   7.834   1.061   6.068
 6409TIP3    H119170   7.757   1.116   6.058
 6409TIP3    H219171   7.803   0.987   6.121
 6410TIP3   OH219172   0.588   0.235   5.023
 6410TIP3    H119173   0.639   0.256   4.945
 6410TIP3    H219174   0.568   0.320   5.063
 6411TIP3   OH219175   5.319   1.108   2.111
 6411TIP3    H119176   5.402   1.062   2.122
 6411TIP3    H219177   5.340   1.181   2.052
 6412TIP3   OH219178   7.691   1.014   2.384
 6412TIP3    H119179   7.640   0.988   2.308
 6412TIP3    H219180   7.715   0.932   2.426
 6413TIP3   OH219181   0.915   3.673   5.863
 6413TIP3    H119182   0.828   3.694   5.896
 6413TIP3    H219183   0.900   3.621   5.784
 6414TIP3   OH219184   1.305   6.997   5.843
 6414TIP3    H119185   1.209   6.994   5.844
 6414TIP3    H219186   1.330   6.933   5.776
 6415TIP3   OH219187   4.320   0.392   0.600
 6415TIP3    H119188   4.266   0.343   0.662
 6415TIP3    H219189   4.407   0.355   0.610
 6416TIP3   OH219190   7.823   4.458   0.733
 6416TIP3    H119191   7.778   4.375   0.748
 6416TIP3    H219192   7.809   4.507   0.814
 6417TIP3   OH219193   2.357   5.114   3.104
 6417TIP3    H119194   2.378   5.201   3.135
 6417TIP3    H219195   2.283   5.127   3.044
 6418TIP3   OH219196   3.554   2.241   6.172
 6418TIP3    H119197   3.624   2.176   6.186
 6418TIP3    H219198   3.583   2.291   6.096
 6419TIP3   OH219199   1.127   6.867   5.387
 6419TIP3    H119200   1.079   6.850   5.305
 6419TIP3    H219201   1.187   6.792   5.395
 6420TIP3   OH219202   0.456   5.356   4.201
 6420TIP3    H119203   0.476   5.361   4.295
 6420TIP3    H219204   0.458   5.447   4.172
 6421TIP3   OH219205   2.055   4.031   4.066
 6421TIP3    H119206   2.033   3.960   4.128
 6421TIP3    H219207   1.971   4.056   4.028
 6422TIP3   OH219208   5.295   6.099   4.286
 6422TIP3    H119209   5.248   6.115   4.368
 6422TIP3    H219210   5.329   6.010   4.295
 6423TIP3   OH219211   7.365   2.835   1.430
 6423TIP3    H119212   7.441   2.870   1.476
 6423TIP3    H219213   7.292   2.890   1.458
 6424TIP3   OH219214   4.739   1.064   6.092
 6424TIP3    H119215   4.751   1.015   6.173
 6424TIP3    H219216   4.771   1.005   6.024
 6425TIP3   OH219217   0.174   0.093   6.820
 6425TIP3    H119218   0.101   0.150   6.844
 6425TIP3    H219219   0.134   0.022   6.770
 6426TIP3   OH219220   5.951   4.237   3.298
 6426TIP3    H119221   5.862   4.234   3.333
 6426TIP3    H219222   5.949   4.308   3.233
 6427TIP3   OH219223   5.650   3.457  -0.016
 6427TIP3    H119224   5.575   3.473  -0.073
 6427TIP3    H219225   5.643   3.525   0.051
 6428TIP3   OH219226   3.374   6.409   1.599
 6428TIP3    H119227   3.286   6.373   1.614
 6428TIP3    H219228   3.432   6.351   1.648
 6429TIP3   OH219229   7.812   4.599   1.389
 6429TIP3    H119230   7.806   4.522   1.332
 6429TIP3    H219231   7.906   4.614   1.400
 6430TIP3   OH219232   0.851   2.236   5.942
 6430TIP3    H119233   0.863   2.240   6.037
 6430TIP3    H219234   0.899   2.311   5.908
 6431TIP3   OH219235   4.943   1.646   4.942
 6431TIP3    H119236   5.007   1.625   4.874
 6431TIP3    H219237   4.937   1.741   4.941
 6432TIP3   OH219238   4.120   0.693   5.336
 6432TIP3    H119239   4.085   0.782   5.333
 6432TIP3    H219240   4.214   0.704   5.351
 6433TIP3   OH219241   5.342   3.352   4.251
 6433TIP3    H119242   5.357   3.322   4.161
 6433TIP3    H219243   5.378   3.283   4.306
 6434TIP3   OH219244   5.230   1.716   0.262
 6434TIP3    H119245   5.152   1.769   0.245
 6434TIP3    H219246   5.272   1.759   0.336
 6435TIP3   OH219247   7.860   4.001   0.331
 6435TIP3    H119248   7.905   3.949   0.397
 6435TIP3    H219249   7.773   3.961   0.324
 6436TIP3   OH219250   2.158   0.081   4.075
 6436TIP3    H119251   2.246   0.115   4.092
 6436TIP3    H219252   2.127   0.132   4.000
 6437TIP3   OH219253   1.586   5.726   6.692
 6437TIP3    H119254   1.605   5.796   6.754
 6437TIP3    H219255   1.649   5.657   6.714
 6438TIP3   OH219256   7.829   7.624   5.077
 6438TIP3    H119257   7.769   7.657   5.144
 6438TIP3    H219258   7.772   7.576   5.016
 6439TIP3   OH219259   7.331   6.661   5.603
 6439TIP3    H119260   7.412   6.634   5.559
 6439TIP3    H219261   7.329   6.756   5.593
 6440TIP3   OH219262   6.634   7.210   1.100
 6440TIP3    H119263   6.641   7.151   1.175
 6440TIP3    H219264   6.547   7.193   1.063
 6441TIP3   OH219265   3.934   0.743   2.931
 6441TIP3    H119266   3.990   0.717   3.005
 6441TIP3    H219267   3.882   0.664   2.911
 6442TIP3   OH219268   5.006   5.950   3.096
 6442TIP3    H119269   5.056   5.885   3.047
 6442TIP3    H219270   5.055   6.031   3.085
 6443TIP3   OH219271   4.497   1.692   4.649
 6443TIP3    H119272   4.545   1.764   4.691
 6443TIP3    H219273   4.558   1.656   4.586
 6444TIP3   OH219274   7.092   1.729   3.513
 6444TIP3    H119275   7.126   1.770   3.434
 6444TIP3    H219276   7.013   1.778   3.534
 6445TIP3   OH219277   8.044   4.279   3.754
 6445TIP3    H119278   7.967   4.223   3.766
 6445TIP3    H219279   8.106   4.249   3.820
 6446TIP3   OH219280   4.687   1.203   2.540
 6446TIP3    H119281   4.632   1.240   2.471
 6446TIP3    H219282   4.730   1.128   2.499
 6447TIP3   OH219283   0.358   6.294   5.851
 6447TIP3    H119284   0.379   6.206   5.822
 6447TIP3    H219285   0.295   6.282   5.922
 6448TIP3   OH219286   3.552   4.047   0.554
 6448TIP3    H119287   3.597   4.026   0.473
 6448TIP3    H219288   3.538   4.141   0.551
 6449TIP3   OH219289   1.740   0.190   1.381
 6449TIP3    H119290   1.647   0.184   1.359
 6449TIP3    H219291   1.769   0.099   1.387
 6450TIP3   OH219292   6.375   6.822   6.246
 6450TIP3    H119293   6.342   6.753   6.188
 6450TIP3    H219294   6.428   6.776   6.311
 6451TIP3   OH219295   3.065   5.135   6.669
 6451TIP3    H119296   3.121   5.098   6.602
 6451TIP3    H219297   3.083   5.229   6.666
 6452TIP3   OH219298   3.347   6.955   0.427
 6452TIP3    H119299   3.395   7.020   0.479
 6452TIP3    H219300   3.282   6.919   0.487
 6453TIP3   OH219301   6.821   5.696   0.910
 6453TIP3    H119302   6.750   5.758   0.898
 6453TIP3    H219303   6.777   5.613   0.929
 6454TIP3   OH219304   1.069   6.439   3.394
 6454TIP3    H119305   1.104   6.350   3.403
 6454TIP3    H219306   1.006   6.433   3.323
 6455TIP3   OH219307   3.440   6.678   2.790
 6455TIP3    H119308   3.466   6.741   2.856
 6455TIP3    H219309   3.512   6.676   2.727
 6456TIP3   OH219310   5.063   1.843   2.678
 6456TIP3    H119311   5.040   1.885   2.595
 6456TIP3    H219312   5.043   1.750   2.664
 6457TIP3   OH219313   4.563   7.587   1.516
 6457TIP3    H119314   4.593   7.633   1.438
 6457TIP3    H219315   4.474   7.617   1.530
 6458TIP3   OH219316   1.389   1.197   4.877
 6458TIP3    H119317   1.356   1.212   4.788
 6458TIP3    H219318   1.379   1.103   4.891
 6459TIP3   OH219319   2.779   6.931   5.580
 6459TIP3    H119320   2.754   6.958   5.491
 6459TIP3    H219321   2.742   6.843   5.589
 6460TIP3   OH219322   5.954   7.714   2.442
 6460TIP3    H119323   6.015   7.780   2.475
 6460TIP3    H219324   5.871   7.760   2.430
 6461TIP3   OH219325   1.546   5.215   2.070
 6461TIP3    H119326   1.570   5.292   2.019
 6461TIP3    H219327   1.513   5.153   2.006
 6462TIP3   OH219328   8.158   4.250   6.561
 6462TIP3    H119329   8.246   4.280   6.537
 6462TIP3    H219330   8.100   4.301   6.505
 6463TIP3   OH219331   7.501   4.753   6.707
 6463TIP3    H119332   7.430   4.748   6.643
 6463TIP3    H219333   7.527   4.662   6.720
 6464TIP3   OH219334   6.162   5.085   4.098
 6464TIP3    H119335   6.227   5.133   4.046
 6464TIP3    H219336   6.078   5.123   4.073
 6465TIP3   OH219337   5.556   7.405   1.285
 6465TIP3    H119338   5.574   7.318   1.250
 6465TIP3    H219339   5.531   7.457   1.208
 6466TIP3   OH219340   4.123   1.249   1.624
 6466TIP3    H119341   4.122   1.154   1.637
 6466TIP3    H219342   4.153   1.260   1.534
 6467TIP3   OH219343   4.865   6.515   4.805
 6467TIP3    H119344   4.929   6.457   4.765
 6467TIP3    H219345   4.802   6.456   4.846
 6468TIP3   OH219346   3.588   2.223   0.331
 6468TIP3    H119347   3.539   2.150   0.367
 6468TIP3    H219348   3.569   2.296   0.390
 6469TIP3   OH219349   3.512   4.849   1.588
 6469TIP3    H119350   3.596   4.840   1.633
 6469TIP3    H219351   3.486   4.940   1.605
 6470TIP3   OH219352   7.955   0.902   3.539
 6470TIP3    H119353   8.028   0.877   3.482
 6470TIP3    H219354   7.879   0.906   3.480
 6471TIP3   OH219355   4.236   5.673   6.747
 6471TIP3    H119356   4.245   5.642   6.837
 6471TIP3    H219357   4.239   5.769   6.754
 6472TIP3   OH219358   3.865   6.340   0.260
 6472TIP3    H119359   3.928   6.270   0.242
 6472TIP3    H219360   3.783   6.308   0.222
 6473TIP3   OH219361   1.547   4.262   5.163
 6473TIP3    H119362   1.557   4.255   5.068
 6473TIP3    H219363   1.579   4.178   5.197
 6474TIP3   OH219364   2.498   3.756   3.194
 6474TIP3    H119365   2.500   3.742   3.100
 6474TIP3    H219366   2.429   3.821   3.207
 6475TIP3   OH219367   2.269   4.118   0.847
 6475TIP3    H119368   2.349   4.084   0.807
 6475TIP3    H219369   2.230   4.041   0.890
 6476TIP3   OH219370   5.016   7.152   0.511
 6476TIP3    H119371   5.040   7.167   0.420
 6476TIP3    H219372   5.056   7.224   0.559
 6477TIP3   OH219373   4.746   5.916   3.136
 6477TIP3    H119374   4.696   5.969   3.075
 6477TIP3    H219375   4.838   5.938   3.118
 6478TIP3   OH219376   3.911   7.822   0.476
 6478TIP3    H119377   3.956   7.893   0.430
 6478TIP3    H219378   3.982   7.769   0.513
 6479TIP3   OH219379   2.670   2.618   3.847
 6479TIP3    H119380   2.751   2.642   3.804
 6479TIP3    H219381   2.638   2.700   3.886
 6480TIP3   OH219382   2.335   1.629   5.043
 6480TIP3    H119383   2.309   1.706   4.992
 6480TIP3    H219384   2.399   1.584   4.987
 6481TIP3   OH219385   2.356   0.048   5.972
 6481TIP3    H119386   2.325   0.050   6.062
 6481TIP3    H219387   2.284   0.087   5.921
 6482TIP3   OH219388   1.177   2.151   6.507
 6482TIP3    H119389   1.096   2.115   6.472
 6482TIP3    H219390   1.246   2.104   6.460
 6483TIP3   OH219391   2.640   4.329   5.321
 6483TIP3    H119392   2.667   4.387   5.392
 6483TIP3    H219393   2.552   4.300   5.346
 6484TIP3   OH219394   7.981   1.009   2.318
 6484TIP3    H119395   8.023   0.957   2.386
 6484TIP3    H219396   7.888   1.010   2.343
 6485TIP3   OH219397   7.841   5.203   2.201
 6485TIP3    H119398   7.782   5.142   2.246
 6485TIP3    H219399   7.849   5.167   2.113
 6486TIP3   OH219400   2.053   2.989   6.289
 6486TIP3    H119401   2.034   3.052   6.359
 6486TIP3    H219402   2.097   2.917   6.334
 6487TIP3   OH219403   3.508   5.301   5.682
 6487TIP3    H119404   3.445   5.255   5.626
 6487TIP3    H219405   3.555   5.232   5.727
 6488TIP3   OH219406   2.387   0.200   6.223
 6488TIP3    H119407   2.432   0.227   6.143
 6488TIP3    H219408   2.303   0.246   6.220
 6489TIP3   OH219409   4.041   2.901   0.707
 6489TIP3    H119410   4.113   2.843   0.682
 6489TIP3    H219411   3.966   2.869   0.657
 6490TIP3   OH219412   1.388   6.815   3.486
 6490TIP3    H119413   1.360   6.732   3.448
 6490TIP3    H219414   1.309   6.854   3.522
 6491TIP3   OH219415   3.932   3.835   5.608
 6491TIP3    H119416   4.000   3.888   5.567
 6491TIP3    H219417   3.920   3.874   5.694
 6492TIP3   OH219418   2.862   3.460   1.539
 6492TIP3    H119419   2.874   3.548   1.574
 6492TIP3    H219420   2.948   3.419   1.549
 6493TIP3   OH219421   1.572   4.284   6.620
 6493TIP3    H119422   1.522   4.351   6.667
 6493TIP3    H219423   1.661   4.318   6.619
 6494TIP3   OH219424   4.453   7.506   2.067
 6494TIP3    H119425   4.401   7.539   2.140
 6494TIP3    H219426   4.524   7.457   2.108
 6495TIP3   OH219427   2.753   2.370   5.794
 6495TIP3    H119428   2.714   2.294   5.836
 6495TIP3    H219429   2.689   2.397   5.728
 6496TIP3   OH219430   1.691   7.327   1.838
 6496TIP3    H119431   1.771   7.373   1.864
 6496TIP3    H219432   1.691   7.247   1.891
 6497TIP3   OH219433   6.821   0.416   4.818
 6497TIP3    H119434   6.879   0.359   4.767
 6497TIP3    H219435   6.769   0.462   4.754
 6498TIP3   OH219436   1.335   4.436   5.928
 6498TIP3    H119437   1.366   4.405   6.013
 6498TIP3    H219438   1.344   4.531   5.932
 6499TIP3   OH219439   6.875  -0.017   3.152
 6499TIP3    H119440   6.868   0.076   3.176
 6499TIP3    H219441   6.784  -0.048   3.151
 6500TIP3   OH219442   7.731   5.746   6.399
 6500TIP3    H119443   7.762   5.727   6.488
 6500TIP3    H219444   7.727   5.841   6.395
 6501TIP3   OH219445   7.582   7.855   4.451
 6501TIP3    H119446   7.626   7.856   4.536
 6501TIP3    H219447   7.567   7.762   4.434
 6502TIP3   OH219448   5.663   7.720   6.630
 6502TIP3    H119449   5.735   7.725   6.567
 6502TIP3    H219450   5.627   7.633   6.619
 6503TIP3   OH219451   5.380   3.603   3.974
 6503TIP3    H119452   5.421   3.553   3.904
 6503TIP3    H219453   5.451   3.617   4.037
 6504TIP3   OH219454   4.522   5.450   1.942
 6504TIP3    H119455   4.483   5.364   1.956
 6504TIP3    H219456   4.613   5.440   1.972
 6505TIP3   OH219457   5.690   1.009   1.584
 6505TIP3    H119458   5.600   1.002   1.551
 6505TIP3    H219459   5.722   0.919   1.583
 6506TIP3   OH219460   4.777   5.112   5.872
 6506TIP3    H119461   4.845   5.052   5.840
 6506TIP3    H219462   4.770   5.092   5.966
 6507TIP3   OH219463   5.714   7.410   6.128
 6507TIP3    H119464   5.686   7.367   6.210
 6507TIP3    H219465   5.808   7.422   6.138
 6508TIP3   OH219466   6.261   5.259   4.285
 6508TIP3    H119467   6.234   5.202   4.213
 6508TIP3    H219468   6.280   5.199   4.357
 6509TIP3   OH219469   1.608   4.162   4.629
 6509TIP3    H119470   1.697   4.164   4.594
 6509TIP3    H219471   1.556   4.214   4.567
 6510TIP3   OH219472   7.609   5.716   5.458
 6510TIP3    H119473   7.617   5.671   5.374
 6510TIP3    H219474   7.627   5.648   5.523
 6511TIP3   OH219475   6.909   0.420   6.346
 6511TIP3    H119476   6.912   0.350   6.411
 6511TIP3    H219477   6.998   0.425   6.311
 6512TIP3   OH219478   2.570   6.943   2.335
 6512TIP3    H119479   2.657   6.908   2.352
 6512TIP3    H219480   2.585   7.013   2.272
 6513TIP3   OH219481   0.075   0.106   1.826
 6513TIP3    H119482   0.060   0.201   1.830
 6513TIP3    H219483  -0.005   0.068   1.863
 6514TIP3   OH219484   5.678   0.453   6.719
 6514TIP3    H119485   5.623   0.488   6.789
 6514TIP3    H219486   5.638   0.369   6.697
 6515TIP3   OH219487   0.453   1.435   4.769
 6515TIP3    H119488   0.469   1.402   4.681
 6515TIP3    H219489   0.422   1.525   4.755
 6516TIP3   OH219490   1.701   6.713   2.714
 6516TIP3    H119491   1.674   6.698   2.805
 6516TIP3    H219492   1.796   6.697   2.715
 6517TIP3   OH219493   3.281   2.339   6.467
 6517TIP3    H119494   3.203   2.390   6.485
 6517TIP3    H219495   3.288   2.339   6.371
 6518TIP3   OH219496   3.643   2.684   5.037
 6518TIP3    H119497   3.632   2.595   5.069
 6518TIP3    H219498   3.584   2.736   5.091
 6519TIP3   OH219499   1.582   4.496   3.452
 6519TIP3    H119500   1.594   4.530   3.364
 6519TIP3    H219501   1.488   4.478   3.459
 6520TIP3   OH219502   3.166   6.593   3.589
 6520TIP3    H119503   3.129   6.566   3.505
 6520TIP3    H219504   3.100   6.568   3.654
 6521TIP3   OH219505   7.558   3.921   4.958
 6521TIP3    H119506   7.643   3.964   4.969
 6521TIP3    H219507   7.495   3.981   4.998
 6522TIP3   OH219508   3.260   4.110   2.535
 6522TIP3    H119509   3.240   4.089   2.443
 6522TIP3    H219510   3.192   4.172   2.561
 6523TIP3   OH219511   7.207   3.062   6.525
 6523TIP3    H119512   7.167   3.009   6.594
 6523TIP3    H219513   7.138   3.074   6.460
 6524TIP3   OH219514   0.156   7.094   5.153
 6524TIP3    H119515   0.185   7.186   5.146
 6524TIP3    H219516   0.229   7.050   5.197
 6525TIP3   OH219517   0.518   0.672   1.251
 6525TIP3    H119518   0.498   0.722   1.330
 6525TIP3    H219519   0.442   0.616   1.238
 6526TIP3   OH219520   3.555   0.476   3.092
 6526TIP3    H119521   3.604   0.543   3.140
 6526TIP3    H219522   3.463   0.503   3.100
 6527TIP3   OH219523   4.192   1.359   5.295
 6527TIP3    H119524   4.176   1.415   5.219
 6527TIP3    H219525   4.271   1.310   5.274
 6528TIP3   OH219526   2.987   3.342   5.135
 6528TIP3    H119527   3.009   3.343   5.229
 6528TIP3    H219528   2.937   3.261   5.123
 6529TIP3   OH219529   4.777   3.881   3.004
 6529TIP3    H119530   4.774   3.824   3.081
 6529TIP3    H219531   4.703   3.854   2.951
 6530TIP3   OH219532   7.992   3.288   2.282
 6530TIP3    H119533   7.957   3.322   2.364
 6530TIP3    H219534   7.914   3.260   2.232
 6531TIP3   OH219535   4.013   1.483   6.708
 6531TIP3    H119536   4.021   1.546   6.779
 6531TIP3    H219537   4.077   1.512   6.643
 6532TIP3   OH219538   3.305   0.343   0.698
 6532TIP3    H119539   3.366   0.381   0.635
 6532TIP3    H219540   3.282   0.258   0.662
 6533TIP3   OH219541   7.749   7.151   5.939
 6533TIP3    H119542   7.755   7.223   5.875
 6533TIP3    H219543   7.699   7.188   6.012
 6534TIP3   OH219544   3.344   4.840   3.402
 6534TIP3    H119545   3.292   4.908   3.361
 6534TIP3    H219546   3.434   4.875   3.402
 6535TIP3   OH219547   1.919   3.835   1.919
 6535TIP3    H119548   1.914   3.774   1.993
 6535TIP3    H219549   1.923   3.778   1.842
 6536TIP3   OH219550   1.019   2.303   5.376
 6536TIP3    H119551   0.977   2.313   5.461
 6536TIP3    H219552   1.078   2.379   5.370
 6537TIP3   OH219553   1.926   3.637   3.171
 6537TIP3    H119554   1.996   3.683   3.216
 6537TIP3    H219555   1.958   3.627   3.081
 6538TIP3   OH219556   6.286  -0.031   1.033
 6538TIP3    H119557   6.269  -0.123   1.050
 6538TIP3    H219558   6.200   0.010   1.028
 6539TIP3   OH219559   1.230   4.436  -0.027
 6539TIP3    H119560   1.282   4.408   0.049
 6539TIP3    H219561   1.167   4.365  -0.041
 6540TIP3   OH219562   6.632   0.360   6.033
 6540TIP3    H119563   6.625   0.347   5.938
 6540TIP3    H219564   6.714   0.317   6.057
 6541TIP3   OH219565   0.265   0.349   2.500
 6541TIP3    H119566   0.334   0.401   2.541
 6541TIP3    H219567   0.273   0.368   2.406
 6542TIP3   OH219568   0.269   0.349   4.795
 6542TIP3    H119569   0.176   0.326   4.792
 6542TIP3    H219570   0.280   0.393   4.880
 6543TIP3   OH219571   3.964   6.737   4.853
 6543TIP3    H119572   3.997   6.660   4.807
 6543TIP3    H219573   4.001   6.730   4.941
 6544TIP3   OH219574   5.558   7.731   0.588
 6544TIP3    H119575   5.536   7.668   0.519
 6544TIP3    H219576   5.609   7.799   0.543
 6545TIP3   OH219577   7.034   5.881   0.136
 6545TIP3    H119578   6.950   5.842   0.161
 6545TIP3    H219579   7.088   5.875   0.214
 6546TIP3   OH219580   1.756   6.186   6.743
 6546TIP3    H119581   1.779   6.262   6.690
 6546TIP3    H219582   1.791   6.206   6.830
 6547TIP3   OH219583   4.189   4.028   5.895
 6547TIP3    H119584   4.096   4.007   5.892
 6547TIP3    H219585   4.197   4.088   5.969
 6548TIP3   OH219586   6.928   2.694   1.204
 6548TIP3    H119587   6.969   2.689   1.290
 6548TIP3    H219588   6.934   2.606   1.169
 6549TIP3   OH219589   3.786   0.518   6.133
 6549TIP3    H119590   3.764   0.500   6.225
 6549TIP3    H219591   3.725   0.586   6.107
 6550TIP3   OH219592   2.520   0.977   0.586
 6550TIP3    H119593   2.450   0.915   0.607
 6550TIP3    H219594   2.496   1.011   0.499
 6551TIP3   OH219595   5.420   6.157   3.548
 6551TIP3    H119596   5.477   6.221   3.591
 6551TIP3    H219597   5.348   6.144   3.609
 6552TIP3   OH219598   3.999   6.072   5.816
 6552TIP3    H119599   4.025   6.026   5.737
 6552TIP3    H219600   3.959   6.005   5.871
 6553TIP3   OH219601   4.306   1.837   2.144
 6553TIP3    H119602   4.337   1.748   2.157
 6553TIP3    H219603   4.312   1.851   2.050
 6554TIP3   OH219604   1.762   1.347   5.541
 6554TIP3    H119605   1.809   1.288   5.600
 6554TIP3    H219606   1.696   1.389   5.597
 6555TIP3   OH219607   6.929   2.204   5.349
 6555TIP3    H119608   6.917   2.232   5.258
 6555TIP3    H219609   7.023   2.191   5.358
 6556TIP3   OH219610   2.594   5.624   1.406
 6556TIP3    H119611   2.587   5.595   1.497
 6556TIP3    H219612   2.662   5.569   1.368
 6557TIP3   OH219613   5.488   6.071   0.842
 6557TIP3    H119614   5.510   6.161   0.819
 6557TIP3    H219615   5.393   6.066   0.827
 6558TIP3   OH219616   5.435   5.505   5.788
 6558TIP3    H119617   5.344   5.516   5.816
 6558TIP3    H219618   5.469   5.594   5.786
 6559TIP3   OH219619   4.440   0.425   4.608
 6559TIP3    H119620   4.398   0.417   4.694
 6559TIP3    H219621   4.512   0.487   4.622
 6560TIP3   OH219622   7.508   6.468   0.322
 6560TIP3    H119623   7.559   6.538   0.362
 6560TIP3    H219624   7.498   6.403   0.391
 6561TIP3   OH219625   3.055   6.587   2.809
 6561TIP3    H119626   2.988   6.653   2.824
 6561TIP3    H219627   3.121   6.604   2.876
 6562TIP3   OH219628   3.760   4.159   5.937
 6562TIP3    H119629   3.784   4.193   6.023
 6562TIP3    H219630   3.800   4.220   5.875
 6563TIP3   OH219631   4.416   5.391   4.902
 6563TIP3    H119632   4.466   5.336   4.842
 6563TIP3    H219633   4.447   5.480   4.884
 6564TIP3   OH219634   3.586   2.695   3.231
 6564TIP3    H119635   3.540   2.743   3.162
 6564TIP3    H219636   3.520   2.637   3.268
 6565TIP3   OH219637   1.340   2.518   5.895
 6565TIP3    H119638   1.429   2.498   5.927
 6565TIP3    H219639   1.296   2.433   5.894
 6566TIP3   OH219640   5.918   5.547   5.852
 6566TIP3    H119641   5.920   5.625   5.797
 6566TIP3    H219642   5.846   5.494   5.818
 6567TIP3   OH219643   7.226   3.258   2.521
 6567TIP3    H119644   7.177   3.186   2.561
 6567TIP3    H219645   7.286   3.215   2.460
 6568TIP3   OH219646   6.393   0.137   4.564
 6568TIP3    H119647   6.301   0.136   4.590
 6568TIP3    H219648   6.441   0.133   4.647
 6569TIP3   OH219649   1.657   5.051   2.289
 6569TIP3    H119650   1.648   5.090   2.202
 6569TIP3    H219651   1.576   5.074   2.334
 6570TIP3   OH219652   1.619   0.096   2.609
 6570TIP3    H119653   1.568   0.016   2.622
 6570TIP3    H219654   1.699   0.067   2.565
 6571TIP3   OH219655   0.079   1.801   5.400
 6571TIP3    H119656   0.075   1.897   5.400
 6571TIP3    H219657   0.173   1.781   5.395
 6572TIP3   OH219658   7.708   7.241   6.238
 6572TIP3    H119659   7.666   7.268   6.320
 6572TIP3    H219660   7.799   7.268   6.249
 6573TIP3   OH219661   3.363   7.318   2.200
 6573TIP3    H119662   3.437   7.341   2.144
 6573TIP3    H219663   3.393   7.240   2.248
 6574TIP3   OH219664   7.697   1.920   0.098
 6574TIP3    H119665   7.695   2.005   0.054
 6574TIP3    H219666   7.626   1.870   0.058
 6575TIP3   OH219667   2.738   1.765   1.336
 6575TIP3    H119668   2.659   1.716   1.314
 6575TIP3    H219669   2.712   1.823   1.407
 6576TIP3   OH219670   2.731   4.728   4.867
 6576TIP3    H119671   2.655   4.681   4.901
 6576TIP3    H219672   2.708   4.749   4.777
 6577TIP3   OH219673   5.770   5.889   2.258
 6577TIP3    H119674   5.706   5.929   2.318
 6577TIP3    H219675   5.851   5.938   2.274
 6578TIP3   OH219676   4.453   4.372   6.120
 6578TIP3    H119677   4.370   4.326   6.111
 6578TIP3    H219678   4.461   4.388   6.214
 6579TIP3   OH219679   4.163   3.746   2.491
 6579TIP3    H119680   4.067   3.756   2.492
 6579TIP3    H219681   4.182   3.688   2.565
 6580TIP3   OH219682   4.060   4.910   3.362
 6580TIP3    H119683   4.141   4.928   3.314
 6580TIP3    H219684   4.011   4.992   3.359
 6581TIP3   OH219685   6.705   4.876   6.177
 6581TIP3    H119686   6.768   4.921   6.121
 6581TIP3    H219687   6.688   4.793   6.133
 6582TIP3   OH219688   2.680   3.662   0.761
 6582TIP3    H119689   2.716   3.662   0.850
 6582TIP3    H219690   2.756   3.675   0.704
 6583TIP3   OH219691   6.059   1.316   2.180
 6583TIP3    H119692   5.982   1.309   2.123
 6583TIP3    H219693   6.068   1.410   2.195
 6584TIP3   OH219694   1.131   2.857   5.325
 6584TIP3    H119695   1.047   2.893   5.355
 6584TIP3    H219696   1.108   2.800   5.252
 6585TIP3   OH219697   0.681   2.127   5.413
 6585TIP3    H119698   0.649   2.073   5.341
 6585TIP3    H219699   0.756   2.078   5.448
 6586TIP3   OH219700   4.777   3.129   2.134
 6586TIP3    H119701   4.831   3.204   2.113
 6586TIP3    H219702   4.692   3.149   2.095
 6587TIP3   OH219703   5.085   4.657   2.924
 6587TIP3    H119704   5.180   4.653   2.936
 6587TIP3    H219705   5.057   4.566   2.931
 6588TIP3   OH219706   6.258   6.685   4.867
 6588TIP3    H119707   6.232   6.693   4.775
 6588TIP3    H219708   6.175   6.683   4.915
 6589TIP3   OH219709   1.092   0.765   6.216
 6589TIP3    H119710   1.002   0.794   6.199
 6589TIP3    H219711   1.147   0.831   6.173
 6590TIP3   OH219712   2.891   2.887   4.049
 6590TIP3    H119713   2.942   2.968   4.045
 6590TIP3    H219714   2.921   2.844   4.128
 6591TIP3   OH219715   6.896   7.566   1.409
 6591TIP3    H119716   6.984   7.563   1.373
 6591TIP3    H219717   6.842   7.520   1.345
 6592TIP3   OH219718   4.276   4.445   1.445
 6592TIP3    H119719   4.193   4.469   1.404
 6592TIP3    H219720   4.328   4.407   1.375
 6593TIP3   OH219721   7.106   7.372   3.501
 6593TIP3    H119722   7.014   7.397   3.506
 6593TIP3    H219723   7.152   7.454   3.484
 6594TIP3   OH219724   3.748   4.559   4.539
 6594TIP3    H119725   3.805   4.614   4.593
 6594TIP3    H219726   3.664   4.559   4.585
 6595TIP3   OH219727   4.814   0.721   1.041
 6595TIP3    H119728   4.888   0.720   1.101
 6595TIP3    H219729   4.852   0.748   0.957
 6596TIP3   OH219730   3.603   3.565   2.405
 6596TIP3    H119731   3.574   3.656   2.415
 6596TIP3    H219732   3.537   3.513   2.451
 6597TIP3   OH219733   1.001   5.863   6.700
 6597TIP3    H119734   1.063   5.855   6.628
 6597TIP3    H219735   1.054   5.899   6.772
 6598TIP3   OH219736   7.352   0.352   2.038
 6598TIP3    H119737   7.335   0.314   1.952
 6598TIP3    H219738   7.266   0.364   2.077
 6599TIP3   OH219739   2.947   2.145   1.256
 6599TIP3    H119740   3.006   2.078   1.290
 6599TIP3    H219741   2.928   2.118   1.166
 6600TIP3   OH219742   6.170   0.862   4.462
 6600TIP3    H119743   6.243   0.807   4.490
 6600TIP3    H219744   6.115   0.871   4.540
 6601TIP3   OH219745   7.736   5.409   0.249
 6601TIP3    H119746   7.718   5.347   0.319
 6601TIP3    H219747   7.690   5.489   0.275
 6602TIP3   OH219748   8.267   2.394   4.626
 6602TIP3    H119749   8.242   2.401   4.534
 6602TIP3    H219750   8.347   2.447   4.634
 6603TIP3   OH219751   6.914   1.560   0.418
 6603TIP3    H119752   6.936   1.471   0.446
 6603TIP3    H219753   6.953   1.568   0.331
 6604TIP3   OH219754   6.555   3.439   3.965
 6604TIP3    H119755   6.565   3.534   3.973
 6604TIP3    H219756   6.468   3.428   3.925
 6605TIP3   OH219757   3.313   4.178   5.096
 6605TIP3    H119758   3.378   4.145   5.159
 6605TIP3    H219759   3.290   4.265   5.129
 6606TIP3   OH219760   3.941   0.951   1.304
 6606TIP3    H119761   4.012   0.922   1.361
 6606TIP3    H219762   3.865   0.900   1.334
 6607TIP3   OH219763   7.704   0.902   6.257
 6607TIP3    H119764   7.612   0.876   6.264
 6607TIP3    H219765   7.753   0.820   6.267
 6608TIP3   OH219766   0.090   4.620   2.703
 6608TIP3    H119767   0.000   4.590   2.689
 6608TIP3    H219768   0.116   4.581   2.786
 6609TIP3   OH219769   0.678   1.512   1.576
 6609TIP3    H119770   0.653   1.586   1.631
 6609TIP3    H219771   0.601   1.496   1.521
 6610TIP3   OH219772   6.564   3.222   4.449
 6610TIP3    H119773   6.634   3.223   4.514
 6610TIP3    H219774   6.601   3.176   4.374
 6611TIP3   OH219775   8.227   1.394   0.250
 6611TIP3    H119776   8.280   1.350   0.316
 6611TIP3    H219777   8.191   1.470   0.295
 6612TIP3   OH219778   7.129   4.076   4.530
 6612TIP3    H119779   7.053   4.027   4.499
 6612TIP3    H219780   7.098   4.167   4.537
 6613TIP3   OH219781   0.428   7.020   6.185
 6613TIP3    H119782   0.500   6.971   6.146
 6613TIP3    H219783   0.379   6.955   6.236
 6614TIP3   OH219784   6.710   6.348   1.423
 6614TIP3    H119785   6.696   6.255   1.436
 6614TIP3    H219786   6.625   6.381   1.391
 6615TIP3   OH219787   8.025   3.692   4.067
 6615TIP3    H119788   8.114   3.661   4.087
 6615TIP3    H219789   7.978   3.686   4.150
 6616TIP3   OH219790   5.388   7.133   0.759
 6616TIP3    H119791   5.364   7.196   0.691
 6616TIP3    H219792   5.309   7.081   0.773
 6617TIP3   OH219793   8.128   1.789   4.581
 6617TIP3    H119794   8.173   1.705   4.590
 6617TIP3    H219795   8.064   1.776   4.511
 6618TIP3   OH219796   6.341   1.466   3.545
 6618TIP3    H119797   6.421   1.472   3.493
 6618TIP3    H219798   6.356   1.525   3.619
 6619TIP3   OH219799   5.559   2.121   1.843
 6619TIP3    H119800   5.526   2.208   1.864
 6619TIP3    H219801   5.483   2.064   1.852
 6620TIP3   OH219802   0.100   6.463   3.510
 6620TIP3    H119803   0.142   6.541   3.475
 6620TIP3    H219804   0.090   6.481   3.604
 6621TIP3   OH219805   5.702   2.282   5.197
 6621TIP3    H119806   5.617   2.239   5.202
 6621TIP3    H219807   5.764   2.213   5.221
 6622TIP3   OH219808   4.425   7.703   0.700
 6622TIP3    H119809   4.399   7.795   0.700
 6622TIP3    H219810   4.386   7.667   0.780
 6623TIP3   OH219811   0.795   3.454   1.586
 6623TIP3    H119812   0.796   3.481   1.678
 6623TIP3    H219813   0.726   3.506   1.546
 6624TIP3   OH219814   7.375   1.250   5.965
 6624TIP3    H119815   7.428   1.213   5.895
 6624TIP3    H219816   7.313   1.181   5.988
 6625TIP3   OH219817   7.449   5.792   1.784
 6625TIP3    H119818   7.497   5.865   1.824
 6625TIP3    H219819   7.405   5.749   1.857
 6626TIP3   OH219820   1.974   0.426   4.549
 6626TIP3    H119821   2.061   0.411   4.513
 6626TIP3    H219822   1.932   0.340   4.547
 6627TIP3   OH219823   5.641   1.286   6.382
 6627TIP3    H119824   5.604   1.236   6.309
 6627TIP3    H219825   5.586   1.364   6.388
 6628TIP3   OH219826   3.460   7.321   4.998
 6628TIP3    H119827   3.521   7.269   4.946
 6628TIP3    H219828   3.459   7.406   4.955
 6629TIP3   OH219829   1.999   5.099   2.006
 6629TIP3    H119830   1.921   5.131   1.961
 6629TIP3    H219831   2.029   5.025   1.954
 6630TIP3   OH219832   2.376   5.238   2.376
 6630TIP3    H119833   2.451   5.179   2.386
 6630TIP3    H219834   2.364   5.245   2.281
 6631TIP3   OH219835   1.358   0.527   5.497
 6631TIP3    H119836   1.266   0.526   5.524
 6631TIP3    H219837   1.355   0.534   5.402
 6632TIP3   OH219838   7.859   5.463   3.290
 6632TIP3    H119839   7.807   5.406   3.233
 6632TIP3    H219840   7.843   5.430   3.378
 6633TIP3   OH219841   5.317   1.642   6.231
 6633TIP3    H119842   5.236   1.671   6.273
 6633TIP3    H219843   5.295   1.558   6.191
 6634TIP3   OH219844   6.203   0.259   6.390
 6634TIP3    H119845   6.196   0.170   6.423
 6634TIP3    H219846   6.254   0.251   6.309
 6635TIP3   OH219847   3.851   4.904   4.278
 6635TIP3    H119848   3.792   4.895   4.203
 6635TIP3    H219849   3.842   4.996   4.304
 6636TIP3   OH219850   1.051   1.425   3.244
 6636TIP3    H119851   0.977   1.477   3.276
 6636TIP3    H219852   1.032   1.410   3.151
 6637TIP3   OH219853   3.787   2.871   3.332
 6637TIP3    H119854   3.848   2.812   3.377
 6637TIP3    H219855   3.710   2.816   3.315
 6638TIP3   OH219856   2.929   5.932   4.040
 6638TIP3    H119857   2.945   5.996   4.109
 6638TIP3    H219858   2.879   5.862   4.083
 6639TIP3   OH219859   1.467   0.029   3.119
 6639TIP3    H119860   1.426  -0.048   3.078
 6639TIP3    H219861   1.413   0.047   3.196
 6640TIP3   OH219862   6.384   2.576   2.610
 6640TIP3    H119863   6.319   2.622   2.662
 6640TIP3    H219864   6.438   2.530   2.674
 6641TIP3   OH219865   0.490   2.647   0.119
 6641TIP3    H119866   0.532   2.608   0.196
 6641TIP3    H219867   0.444   2.575   0.077
 6642TIP3   OH219868   4.935   3.301   4.464
 6642TIP3    H119869   4.992   3.247   4.519
 6642TIP3    H219870   4.869   3.239   4.431
 6643TIP3   OH219871   2.641   7.788   1.383
 6643TIP3    H119872   2.559   7.837   1.375
 6643TIP3    H219873   2.662   7.763   1.293
 6644TIP3   OH219874   6.499   6.774   5.031
 6644TIP3    H119875   6.574   6.732   4.989
 6644TIP3    H219876   6.427   6.713   5.017
 6645TIP3   OH219877   5.056   4.093   2.983
 6645TIP3    H119878   5.144   4.119   2.956
 6645TIP3    H219879   5.043   4.137   3.067
 6646TIP3   OH219880   6.657   0.189   1.112
 6646TIP3    H119881   6.597   0.248   1.066
 6646TIP3    H219882   6.732   0.244   1.135
 6647TIP3   OH219883   7.830   0.998   0.388
 6647TIP3    H119884   7.806   1.046   0.468
 6647TIP3    H219885   7.865   1.065   0.330
 6648TIP3   OH219886   6.336   2.932   2.210
 6648TIP3    H119887   6.247   2.904   2.231
 6648TIP3    H219888   6.391   2.861   2.241
 6649TIP3   OH219889   7.697   5.849   0.557
 6649TIP3    H119890   7.708   5.776   0.496
 6649TIP3    H219891   7.668   5.807   0.639
 6650TIP3   OH219892   2.786   2.695   5.627
 6650TIP3    H119893   2.723   2.739   5.569
 6650TIP3    H219894   2.756   2.604   5.630
 6651TIP3   OH219895   1.169   2.258   5.064
 6651TIP3    H119896   1.173   2.184   5.004
 6651TIP3    H219897   1.245   2.247   5.121
 6652TIP3   OH219898   2.739   7.624   2.923
 6652TIP3    H119899   2.767   7.535   2.903
 6652TIP3    H219900   2.652   7.632   2.883
 6653TIP3   OH219901   7.241   3.294   4.077
 6653TIP3    H119902   7.169   3.274   4.017
 6653TIP3    H219903   7.318   3.256   4.034
 6654TIP3   OH219904   2.662   6.222   3.399
 6654TIP3    H119905   2.602   6.175   3.342
 6654TIP3    H219906   2.696   6.156   3.459
 6655TIP3   OH219907   1.011   1.186   2.276
 6655TIP3    H119908   1.020   1.149   2.188
 6655TIP3    H219909   0.945   1.133   2.318
 6656TIP3   OH219910   6.540   1.974   4.744
 6656TIP3    H119911   6.620   2.011   4.781
 6656TIP3    H219912   6.486   2.050   4.723
 6657TIP3   OH219913   4.643   7.617   5.818
 6657TIP3    H119914   4.572   7.632   5.880
 6657TIP3    H219915   4.723   7.636   5.867
 6658TIP3   OH219916   3.640   5.745   6.253
 6658TIP3    H119917   3.681   5.719   6.170
 6658TIP3    H219918   3.560   5.790   6.227
 6659TIP3   OH219919   3.143   0.597   5.592
 6659TIP3    H119920   3.128   0.533   5.661
 6659TIP3    H219921   3.134   0.682   5.636
 6660TIP3   OH219922   0.141   1.331   0.707
 6660TIP3    H119923   0.128   1.416   0.749
 6660TIP3    H219924   0.145   1.268   0.779
 6661TIP3   OH219925   4.957   1.001   5.297
 6661TIP3    H119926   4.970   1.075   5.238
 6661TIP3    H219927   4.920   1.041   5.377
 6662TIP3   OH219928   2.886   2.642   3.705
 6662TIP3    H119929   2.933   2.721   3.680
 6662TIP3    H219930   2.889   2.586   3.627
 6663TIP3   OH219931   4.125   4.018   5.525
 6663TIP3    H119932   4.213   4.027   5.563
 6663TIP3    H219933   4.084   4.103   5.540
 6664TIP3   OH219934   2.435   7.028   2.756
 6664TIP3    H119935   2.405   7.030   2.666
 6664TIP3    H219936   2.531   7.030   2.750
 6665TIP3   OH219937   5.201   0.072   3.582
 6665TIP3    H119938   5.114   0.033   3.574
 6665TIP3    H219939   5.247   0.044   3.503
 6666TIP3   OH219940   6.534   0.032   3.843
 6666TIP3    H119941   6.521   0.075   3.759
 6666TIP3    H219942   6.447   0.003   3.870
 6667TIP3   OH219943   5.232   4.055   0.124
 6667TIP3    H119944   5.191   4.020   0.045
 6667TIP3    H219945   5.269   3.979   0.168
 6668TIP3   OH219946   1.555   6.713   2.256
 6668TIP3    H119947   1.619   6.774   2.291
 6668TIP3    H219948   1.552   6.732   2.163
 6669TIP3   OH219949   4.495   1.757   6.442
 6669TIP3    H119950   4.506   1.852   6.443
 6669TIP3    H219951   4.435   1.740   6.370
 6670TIP3   OH219952   5.029   7.655   2.565
 6670TIP3    H119953   5.083   7.725   2.601
 6670TIP3    H219954   4.983   7.619   2.641
 6671TIP3   OH219955   7.155   4.773   1.421
 6671TIP3    H119956   7.192   4.835   1.484
 6671TIP3    H219957   7.076   4.816   1.389
 6672TIP3   OH219958   7.275   7.686   3.564
 6672TIP3    H119959   7.225   7.669   3.484
 6672TIP3    H219960   7.334   7.758   3.540
 6673TIP3   OH219961   0.303   1.838   4.050
 6673TIP3    H119962   0.301   1.751   4.010
 6673TIP3    H219963   0.211   1.856   4.072
 6674TIP3   OH219964   4.352   5.022   4.697
 6674TIP3    H119965   4.260   4.997   4.689
 6674TIP3    H219966   4.387   5.013   4.609
 6675TIP3   OH219967   1.729   7.076   5.993
 6675TIP3    H119968   1.809   7.024   5.988
 6675TIP3    H219969   1.671   7.026   6.049
 6676TIP3   OH219970   0.027   3.552   6.236
 6676TIP3    H119971  -0.013   3.625   6.282
 6676TIP3    H219972  -0.046   3.506   6.195
 6677TIP3   OH219973   4.379   5.409   2.842
 6677TIP3    H119974   4.456   5.353   2.853
 6677TIP3    H219975   4.335   5.407   2.927
 6678TIP3   OH219976   2.107   4.109   6.197
 6678TIP3    H119977   2.015   4.133   6.209
 6678TIP3    H219978   2.119   4.107   6.102
 6679TIP3   OH219979   0.129   7.721   3.573
 6679TIP3    H119980   0.122   7.793   3.511
 6679TIP3    H219981   0.110   7.642   3.522
 6680TIP3   OH219982   3.853   2.798   0.082
 6680TIP3    H119983   3.846   2.703   0.079
 6680TIP3    H219984   3.767   2.829   0.052
 6681TIP3   OH219985   4.991   1.917   4.546
 6681TIP3    H119986   5.002   1.823   4.533
 6681TIP3    H219987   5.022   1.956   4.464
 6682TIP3   OH219988   1.932   0.241   0.852
 6682TIP3    H119989   1.926   0.231   0.757
 6682TIP3    H219990   1.944   0.152   0.885
 6683TIP3   OH219991   0.096   5.072   5.584
 6683TIP3    H119992   0.048   5.149   5.552
 6683TIP3    H219993   0.165   5.108   5.639
 6684TIP3   OH219994   7.160   3.789   3.904
 6684TIP3    H119995   7.171   3.707   3.951
 6684TIP3    H219996   7.073   3.821   3.931
 6685TIP3   OH219997   2.445   6.383   6.013
 6685TIP3    H119998   2.445   6.454   5.950
 6685TIP3    H219999   2.383   6.409   6.080
 6686TIP3   OH220000   6.482   4.504   3.253
 6686TIP3    H120001   6.511   4.580   3.304
 6686TIP3    H220002   6.406   4.471   3.300
 6687TIP3   OH220003   4.900   6.874   5.555
 6687TIP3    H120004   4.915   6.906   5.466
 6687TIP3    H220005   4.946   6.790   5.559
 6688TIP3   OH220006   1.066   7.068   3.891
 6688TIP3    H120007   1.129   6.999   3.909
 6688TIP3    H220008   1.088   7.099   3.803
 6689TIP3   OH220009   3.791   7.105   0.410
 6689TIP3    H120010   3.756   7.129   0.325
 6689TIP3    H220011   3.733   7.146   0.473
 6690TIP3   OH220012   0.228   5.810   5.328
 6690TIP3    H120013   0.267   5.771   5.250
 6690TIP3    H220014   0.303   5.840   5.380
 6691TIP3   OH220015   0.703   5.336   2.311
 6691TIP3    H120016   0.730   5.416   2.265
 6691TIP3    H220017   0.615   5.318   2.278
 6692TIP3   OH220018   1.229   7.295   5.781
 6692TIP3    H120019   1.161   7.288   5.714
 6692TIP3    H220020   1.291   7.358   5.745
 6693TIP3   OH220021   7.593   6.741   3.635
 6693TIP3    H120022   7.660   6.712   3.697
 6693TIP3    H220023   7.605   6.836   3.629
 6694TIP3   OH220024   4.039   5.572   4.886
 6694TIP3    H120025   4.062   5.489   4.844
 6694TIP3    H220026   4.009   5.546   4.974
 6695TIP3   OH220027   7.616   3.474   4.305
 6695TIP3    H120028   7.545   3.513   4.355
 6695TIP3    H220029   7.577   3.398   4.263
 6696TIP3   OH220030   5.807   1.074   6.456
 6696TIP3    H120031   5.775   1.164   6.451
 6696TIP3    H220032   5.767   1.029   6.382
 6697TIP3   OH220033   2.184   2.885   4.259
 6697TIP3    H120034   2.172   2.814   4.197
 6697TIP3    H220035   2.117   2.949   4.235
 6698TIP3   OH220036   2.518   2.488   1.308
 6698TIP3    H120037   2.593   2.504   1.364
 6698TIP3    H220038   2.543   2.413   1.254
 6699TIP3   OH220039   3.746   6.823   6.277
 6699TIP3    H120040   3.714   6.739   6.245
 6699TIP3    H220041   3.674   6.857   6.331
 6700TIP3   OH220042   1.082   5.280   5.387
 6700TIP3    H120043   0.988   5.291   5.401
 6700TIP3    H220044   1.090   5.195   5.344
 6701TIP3   OH220045   0.197   1.548   0.164
 6701TIP3    H120046   0.186   1.542   0.070
 6701TIP3    H220047   0.160   1.633   0.188
 6702TIP3   OH220048   7.050   7.274   2.474
 6702TIP3    H120049   7.104   7.200   2.502
 6702TIP3    H220050   7.041   7.328   2.553
 6703TIP3   OH220051   1.839   4.105   6.201
 6703TIP3    H120052   1.747   4.078   6.199
 6703TIP3    H220053   1.837   4.198   6.179
 6704TIP3   OH220054   3.603   4.085   2.886
 6704TIP3    H120055   3.550   4.029   2.830
 6704TIP3    H220056   3.691   4.047   2.882
 6705TIP3   OH220057   2.457   3.956   4.116
 6705TIP3    H120058   2.471   3.873   4.072
 6705TIP3    H220059   2.488   3.941   4.206
 6706TIP3   OH220060   0.240   7.366   0.484
 6706TIP3    H120061   0.210   7.377   0.574
 6706TIP3    H220062   0.214   7.277   0.460
 6707TIP3   OH220063   4.640   2.575   3.328
 6707TIP3    H120064   4.658   2.623   3.409
 6707TIP3    H220065   4.553   2.604   3.302
 6708TIP3   OH220066   2.702   2.374   2.372
 6708TIP3    H120067   2.694   2.426   2.453
 6708TIP3    H220068   2.718   2.285   2.403
 6709TIP3   OH220069   1.741   5.773   3.362
 6709TIP3    H120070   1.764   5.842   3.300
 6709TIP3    H220071   1.742   5.816   3.447
 6710TIP3   OH220072   5.516   5.144   0.182
 6710TIP3    H120073   5.591   5.124   0.238
 6710TIP3    H220074   5.554   5.170   0.099
 6711TIP3   OH220075   4.023   3.525   3.445
 6711TIP3    H120076   3.931   3.554   3.446
 6711TIP3    H220077   4.041   3.501   3.536
 6712TIP3   OH220078   0.015   6.763   2.275
 6712TIP3    H120079  -0.027   6.808   2.202
 6712TIP3    H220080   0.088   6.715   2.235
 6713TIP3   OH220081   5.418   2.601   3.397
 6713TIP3    H120082   5.386   2.512   3.408
 6713TIP3    H220083   5.513   2.594   3.411
 6714TIP3   OH220084   2.275   2.572   5.450
 6714TIP3    H120085   2.241   2.647   5.402
 6714TIP3    H220086   2.364   2.560   5.418
 6715TIP3   OH220087   5.156   6.934   1.532
 6715TIP3    H120088   5.249   6.914   1.521
 6715TIP3    H220089   5.149   7.027   1.509
 6716TIP3   OH220090   0.461   2.793   4.389
 6716TIP3    H120091   0.506   2.755   4.465
 6716TIP3    H220092   0.395   2.729   4.365
 6717TIP3   OH220093   5.169   0.742   0.293
 6717TIP3    H120094   5.116   0.821   0.297
 6717TIP3    H220095   5.192   0.733   0.201
 6718TIP3   OH220096   6.335   4.909   6.191
 6718TIP3    H120097   6.242   4.894   6.205
 6718TIP3    H220098   6.365   4.834   6.141
 6719TIP3   OH220099   4.219   2.417   5.691
 6719TIP3    H120100   4.238   2.454   5.604
 6719TIP3    H220101   4.293   2.444   5.745
 6720TIP3   OH220102   0.411   5.205   1.417
 6720TIP3    H120103   0.358   5.284   1.403
 6720TIP3    H220104   0.486   5.215   1.359
 6721TIP3   OH220105   1.340   4.915   2.355
 6721TIP3    H120106   1.326   4.966   2.435
 6721TIP3    H220107   1.256   4.918   2.309
 6722TIP3   OH220108   1.838   5.342   6.308
 6722TIP3    H120109   1.905   5.339   6.239
 6722TIP3    H220110   1.861   5.418   6.361
 6723TIP3   OH220111   3.367   6.611   1.151
 6723TIP3    H120112   3.330   6.530   1.186
 6723TIP3    H220113   3.309   6.680   1.183
 6724TIP3   OH220114   4.445   4.494   3.845
 6724TIP3    H120115   4.437   4.403   3.872
 6724TIP3    H220116   4.500   4.492   3.768
 6725TIP3   OH220117   6.540   0.903   3.431
 6725TIP3    H120118   6.529   0.952   3.349
 6725TIP3    H220119   6.450   0.880   3.458
 6726TIP3   OH220120   6.695   5.362   0.616
 6726TIP3    H120121   6.607   5.373   0.652
 6726TIP3    H220122   6.736   5.448   0.627
 6727TIP3   OH220123   7.183   1.106   1.869
 6727TIP3    H120124   7.136   1.104   1.785
 6727TIP3    H220125   7.265   1.059   1.852
 6728TIP3   OH220126   7.222   6.839   5.077
 6728TIP3    H120127   7.258   6.917   5.033
 6728TIP3    H220128   7.229   6.860   5.170
 6729TIP3   OH220129   6.547   0.260   0.177
 6729TIP3    H120130   6.572   0.276   0.086
 6729TIP3    H220131   6.460   0.220   0.172
 6730TIP3   OH220132   7.251   1.296   3.712
 6730TIP3    H120133   7.175   1.312   3.768
 6730TIP3    H220134   7.322   1.344   3.754
 6731TIP3   OH220135   1.295   2.816   3.182
 6731TIP3    H120136   1.293   2.908   3.208
 6731TIP3    H220137   1.273   2.816   3.089
 6732TIP3   OH220138   7.435   1.230   1.904
 6732TIP3    H120139   7.443   1.137   1.926
 6732TIP3    H220140   7.516   1.269   1.936
 6733TIP3   OH220141   1.489   5.729   0.438
 6733TIP3    H120142   1.427   5.655   0.439
 6733TIP3    H220143   1.575   5.688   0.441
 6734TIP3   OH220144   5.253   6.768   6.375
 6734TIP3    H120145   5.325   6.766   6.437
 6734TIP3    H220146   5.192   6.833   6.411
 6735TIP3   OH220147   5.084   6.534  -0.009
 6735TIP3    H120148   5.093   6.471   0.062
 6735TIP3    H220149   5.104   6.619   0.032
 6736TIP3   OH220150   6.957   1.887   1.473
 6736TIP3    H120151   6.971   1.922   1.561
 6736TIP3    H220152   6.919   1.960   1.424
 6737TIP3   OH220153   7.579   0.787   3.591
 6737TIP3    H120154   7.650   0.802   3.652
 6737TIP3    H220155   7.557   0.694   3.602
 6738TIP3   OH220156   5.616   1.146   4.354
 6738TIP3    H120157   5.569   1.219   4.395
 6738TIP3    H220158   5.675   1.188   4.290
 6739TIP3   OH220159   7.812   3.627   0.406
 6739TIP3    H120160   7.895   3.659   0.371
 6739TIP3    H220161   7.746   3.681   0.361
 6740TIP3   OH220162   6.339   0.724   2.837
 6740TIP3    H120163   6.413   0.718   2.777
 6740TIP3    H220164   6.364   0.793   2.899
 6741TIP3   OH220165   6.749   5.955   5.058
 6741TIP3    H120166   6.678   5.909   5.103
 6741TIP3    H220167   6.773   5.897   4.986
 6742TIP3   OH220168   1.498   2.648   2.876
 6742TIP3    H120169   1.486   2.610   2.789
 6742TIP3    H220170   1.499   2.572   2.935
 6743TIP3   OH220171   7.053   6.319   0.530
 6743TIP3    H120172   7.108   6.244   0.553
 6743TIP3    H220173   7.113   6.381   0.488
 6744TIP3   OH220174   4.883   3.033   1.241
 6744TIP3    H120175   4.889   2.993   1.155
 6744TIP3    H220176   4.849   3.121   1.224
 6745TIP3   OH220177   6.044   5.468   4.159
 6745TIP3    H120178   6.009   5.398   4.214
 6745TIP3    H220179   5.967   5.517   4.130
 6746TIP3   OH220180   1.391   0.022   3.388
 6746TIP3    H120181   1.469   0.073   3.409
 6746TIP3    H220182   1.355  -0.003   3.473
 6747TIP3   OH220183   2.687   7.188   1.003
 6747TIP3    H120184   2.642   7.135   1.069
 6747TIP3    H220185   2.780   7.181   1.025
 6748TIP3   OH220186   7.354   0.699   2.108
 6748TIP3    H120187   7.276   0.751   2.088
 6748TIP3    H220188   7.373   0.652   2.027
 6749TIP3   OH220189   5.635   1.844   3.616
 6749TIP3    H120190   5.621   1.887   3.700
 6749TIP3    H220191   5.595   1.758   3.626
 6750TIP3   OH220192   1.366   1.966   3.643
 6750TIP3    H120193   1.380   1.921   3.726
 6750TIP3    H220194   1.421   2.045   3.649
 6751TIP3   OH220195   6.427   4.613   2.879
 6751TIP3    H120196   6.486   4.594   2.806
 6751TIP3    H220197   6.459   4.695   2.916
 6752TIP3   OH220198   3.385   5.172   1.279
 6752TIP3    H120199   3.359   5.177   1.371
 6752TIP3    H220200   3.384   5.078   1.259
 6753TIP3   OH220201   6.227   3.599   4.231
 6753TIP3    H120202   6.312   3.637   4.250
 6753TIP3    H220203   6.246   3.508   4.208
 6754TIP3   OH220204   4.914   3.386   2.122
 6754TIP3    H120205   4.984   3.352   2.067
 6754TIP3    H220206   4.959   3.430   2.195
 6755TIP3   OH220207   1.055   3.474   3.794
 6755TIP3    H120208   1.139   3.480   3.839
 6755TIP3    H220209   0.991   3.466   3.864
 6756TIP3   OH220210   2.942   2.191   1.666
 6756TIP3    H120211   3.028   2.171   1.630
 6756TIP3    H220212   2.943   2.153   1.754
 6757TIP3   OH220213   1.887   0.127   0.467
 6757TIP3    H120214   1.867   0.060   0.532
 6757TIP3    H220215   1.802   0.159   0.438
 6758TIP3   OH220216   5.431   0.171   4.582
 6758TIP3    H120217   5.399   0.168   4.672
 6758TIP3    H220218   5.357   0.205   4.531
 6759TIP3   OH220219   0.303   7.717   2.004
 6759TIP3    H120220   0.252   7.776   2.058
 6759TIP3    H220221   0.390   7.757   1.998
 6760TIP3   OH220222   3.509   2.397   3.183
 6760TIP3    H120223   3.537   2.313   3.146
 6760TIP3    H220224   3.509   2.457   3.109
 6761TIP3   OH220225   8.337   3.810   6.702
 6761TIP3    H120226   8.290   3.866   6.641
 6761TIP3    H220227   8.322   3.850   6.788
 6762TIP3   OH220228   6.841   7.343   3.441
 6762TIP3    H120229   6.766   7.318   3.386
 6762TIP3    H220230   6.844   7.277   3.510
 6763TIP3   OH220231   5.662   0.997   2.467
 6763TIP3    H120232   5.657   0.945   2.548
 6763TIP3    H220233   5.728   0.952   2.414
 6764TIP3   OH220234   2.643   3.413   2.804
 6764TIP3    H120235   2.682   3.326   2.812
 6764TIP3    H220236   2.558   3.405   2.846
 6765TIP3   OH220237   5.163   2.921   2.817
 6765TIP3    H120238   5.185   2.839   2.773
 6765TIP3    H220239   5.068   2.929   2.807
 6766TIP3   OH220240   3.957   6.498   4.697
 6766TIP3    H120241   3.951   6.457   4.610
 6766TIP3    H220242   3.870   6.534   4.713
 6767TIP3   OH220243   7.845   2.316   2.822
 6767TIP3    H120244   7.941   2.312   2.825
 6767TIP3    H220245   7.826   2.409   2.807
 6768TIP3   OH220246   1.937   1.418   5.245
 6768TIP3    H120247   1.969   1.438   5.333
 6768TIP3    H220248   1.924   1.503   5.204
 6769TIP3   OH220249   5.408   3.480   0.887
 6769TIP3    H120250   5.470   3.407   0.877
 6769TIP3    H220251   5.367   3.464   0.972
 6770TIP3   OH220252   1.491   2.534   1.120
 6770TIP3    H120253   1.399   2.538   1.096
 6770TIP3    H220254   1.502   2.605   1.184
 6771TIP3   OH220255   2.536   4.167   0.785
 6771TIP3    H120256   2.562   4.175   0.876
 6771TIP3    H220257   2.584   4.090   0.753
 6772TIP3   OH220258   7.921   6.360   1.328
 6772TIP3    H120259   7.859   6.328   1.393
 6772TIP3    H220260   7.874   6.352   1.245
 6773TIP3   OH220261   5.175   2.759   4.208
 6773TIP3    H120262   5.187   2.664   4.217
 6773TIP3    H220263   5.201   2.777   4.117
 6774TIP3   OH220264   2.243   6.125   1.583
 6774TIP3    H120265   2.226   6.041   1.627
 6774TIP3    H220266   2.156   6.160   1.566
 6775TIP3   OH220267   3.331   3.708   2.917
 6775TIP3    H120268   3.418   3.723   2.882
 6775TIP3    H220269   3.294   3.638   2.863
 6776TIP3   OH220270   7.128   6.464   1.172
 6776TIP3    H120271   7.137   6.559   1.174
 6776TIP3    H220272   7.125   6.441   1.079
 6777TIP3   OH220273   7.036   5.203   3.290
 6777TIP3    H120274   6.966   5.267   3.299
 6777TIP3    H220275   7.077   5.224   3.205
 6778TIP3   OH220276   3.842   3.687   2.824
 6778TIP3    H120277   3.773   3.621   2.828
 6778TIP3    H220278   3.892   3.664   2.745
 6779TIP3   OH220279   4.026   4.523   0.983
 6779TIP3    H120280   3.976   4.490   1.058
 6779TIP3    H220281   3.971   4.504   0.907
 6780TIP3   OH220282   0.461   2.035   5.604
 6780TIP3    H120283   0.540   2.064   5.558
 6780TIP3    H220284   0.485   1.949   5.639
 6781TIP3   OH220285   3.479   5.947   1.070
 6781TIP3    H120286   3.402   5.963   1.015
 6781TIP3    H220287   3.510   6.034   1.094
 6782TIP3   OH220288   1.140   3.235   0.150
 6782TIP3    H120289   1.233   3.225   0.131
 6782TIP3    H220290   1.125   3.181   0.227
 6783TIP3   OH220291   5.940   7.390   2.100
 6783TIP3    H120292   6.002   7.321   2.077
 6783TIP3    H220293   5.942   7.393   2.195
 6784TIP3   OH220294   1.986   0.915   5.928
 6784TIP3    H120295   1.897   0.928   5.895
 6784TIP3    H220296   1.974   0.884   6.018
 6785TIP3   OH220297   7.789   6.691   5.827
 6785TIP3    H120298   7.809   6.785   5.832
 6785TIP3    H220299   7.853   6.657   5.764
 6786TIP3   OH220300   4.868   3.968   5.070
 6786TIP3    H120301   4.799   4.020   5.029
 6786TIP3    H220302   4.864   3.991   5.162
 6787TIP3   OH220303   5.524   3.722   1.523
 6787TIP3    H120304   5.513   3.758   1.611
 6787TIP3    H220305   5.515   3.797   1.465
 6788TIP3   OH220306   0.990   1.864   2.144
 6788TIP3    H120307   1.040   1.827   2.071
 6788TIP3    H220308   1.044   1.849   2.221
 6789TIP3   OH220309   3.231   5.993   4.017
 6789TIP3    H120310   3.281   6.054   4.071
 6789TIP3    H220311   3.185   5.937   4.080
 6790TIP3   OH220312   6.321   5.978   1.594
 6790TIP3    H120313   6.246   5.920   1.579
 6790TIP3    H220314   6.340   6.015   1.507
 6791TIP3   OH220315   2.490   3.344   1.050
 6791TIP3    H120316   2.579   3.311   1.048
 6791TIP3    H220317   2.493   3.419   1.110
 6792TIP3   OH220318   2.863   0.185   1.019
 6792TIP3    H120319   2.933   0.156   1.078
 6792TIP3    H220320   2.886   0.275   0.998
 6793TIP3   OH220321   6.454   4.419   0.246
 6793TIP3    H120322   6.518   4.477   0.206
 6793TIP3    H220323   6.428   4.360   0.176
 6794TIP3   OH220324   4.350   7.295   3.367
 6794TIP3    H120325   4.362   7.200   3.355
 6794TIP3    H220326   4.423   7.322   3.422
 6795TIP3   OH220327   4.219   6.276   4.570
 6795TIP3    H120328   4.304   6.290   4.611
 6795TIP3    H220329   4.159   6.332   4.620
 6796TIP3   OH220330   5.997   0.535   1.543
 6796TIP3    H120331   5.968   0.543   1.634
 6796TIP3    H220332   5.968   0.448   1.516
 6797TIP3   OH220333   7.079   5.294   2.129
 6797TIP3    H120334   7.165   5.278   2.090
 6797TIP3    H220335   7.019   5.241   2.076
 6798TIP3   OH220336   4.208   2.098   0.282
 6798TIP3    H120337   4.180   2.028   0.223
 6798TIP3    H220338   4.168   2.076   0.366
 6799TIP3   OH220339   4.899   6.143   2.771
 6799TIP3    H120340   4.981   6.138   2.723
 6799TIP3    H220341   4.899   6.067   2.829
 6800TIP3   OH220342   7.578   7.298   1.890
 6800TIP3    H120343   7.575   7.268   1.981
 6800TIP3    H220344   7.552   7.221   1.839
 6801TIP3   OH220345   7.030   0.219   0.917
 6801TIP3    H120346   7.003   0.146   0.972
 6801TIP3    H220347   7.089   0.180   0.852
 6802TIP3   OH220348   7.104   2.746   5.552
 6802TIP3    H120349   7.174   2.809   5.568
 6802TIP3    H220350   7.067   2.771   5.468
 6803TIP3   OH220351   2.346   0.391   2.390
 6803TIP3    H120352   2.424   0.358   2.346
 6803TIP3    H220353   2.276   0.331   2.365
 6804TIP3   OH220354   2.473   6.458   4.182
 6804TIP3    H120355   2.487   6.553   4.181
 6804TIP3    H220356   2.448   6.438   4.272
 6805TIP3   OH220357   3.680   1.890   3.008
 6805TIP3    H120358   3.761   1.935   2.983
 6805TIP3    H220359   3.699   1.797   2.991
 6806TIP3   OH220360   7.512   1.301   0.977
 6806TIP3    H120361   7.527   1.362   0.905
 6806TIP3    H220362   7.445   1.241   0.944
 6807TIP3   OH220363   2.372   1.659   4.070
 6807TIP3    H120364   2.412   1.620   4.147
 6807TIP3    H220365   2.383   1.594   4.001
 6808TIP3   OH220366   5.422   4.997   3.877
 6808TIP3    H120367   5.449   4.934   3.811
 6808TIP3    H220368   5.502   5.046   3.899
 6809TIP3   OH220369   1.179   7.549   2.422
 6809TIP3    H120370   1.229   7.483   2.374
 6809TIP3    H220371   1.089   7.517   2.421
 6810TIP3   OH220372   6.750   4.749   3.237
 6810TIP3    H120373   6.810   4.675   3.250
 6810TIP3    H220374   6.800   4.811   3.184
 6811TIP3   OH220375   2.849   4.473   0.021
 6811TIP3    H120376   2.913   4.527  -0.026
 6811TIP3    H220377   2.782   4.535   0.049
 6812TIP3   OH220378   6.614   2.126   6.619
 6812TIP3    H120379   6.630   2.077   6.700
 6812TIP3    H220380   6.679   2.094   6.557
 6813TIP3   OH220381   5.378   7.174   5.395
 6813TIP3    H120382   5.299   7.123   5.410
 6813TIP3    H220383   5.346   7.263   5.377
 6814TIP3   OH220384   6.068   7.518   1.204
 6814TIP3    H120385   6.076   7.514   1.108
 6814TIP3    H220386   6.152   7.554   1.233
 6815TIP3   OH220387   6.879   6.900   5.752
 6815TIP3    H120388   6.883   6.875   5.660
 6815TIP3    H220389   6.886   6.995   5.751
 6816TIP3   OH220390   3.519   7.489   5.870
 6816TIP3    H120391   3.501   7.578   5.901
 6816TIP3    H220392   3.614   7.478   5.881
 6817TIP3   OH220393   5.925   6.495   0.318
 6817TIP3    H120394   5.910   6.549   0.240
 6817TIP3    H220395   5.902   6.552   0.391
 6818TIP3   OH220396   0.007   0.700   6.355
 6818TIP3    H120397  -0.065   0.642   6.380
 6818TIP3    H220398   0.077   0.641   6.328
 6819TIP3   OH220399   7.980   6.541   1.760
 6819TIP3    H120400   7.990   6.456   1.802
 6819TIP3    H220401   7.949   6.598   1.830
 6820TIP3   OH220402   0.812   0.414   3.308
 6820TIP3    H120403   0.735   0.418   3.364
 6820TIP3    H220404   0.840   0.505   3.299
 6821TIP3   OH220405   5.567   4.152   5.757
 6821TIP3    H120406   5.582   4.072   5.807
 6821TIP3    H220407   5.573   4.223   5.821
 6822TIP3   OH220408   4.117   1.172   4.990
 6822TIP3    H120409   4.033   1.168   5.037
 6822TIP3    H220410   4.173   1.109   5.035
 6823TIP3   OH220411   2.295   2.602   2.778
 6823TIP3    H120412   2.247   2.685   2.768
 6823TIP3    H220413   2.226   2.536   2.791
 6824TIP3   OH220414   2.883   7.226   4.656
 6824TIP3    H120415   2.844   7.220   4.569
 6824TIP3    H220416   2.954   7.161   4.655
 6825TIP3   OH220417   2.225   3.056  -0.009
 6825TIP3    H120418   2.143   3.014  -0.033
 6825TIP3    H220419   2.199   3.135   0.037
 6826TIP3   OH220420   0.546   1.681   5.536
 6826TIP3    H120421   0.629   1.697   5.490
 6826TIP3    H220422   0.555   1.730   5.618
 6827TIP3   OH220423   6.014   3.000   5.759
 6827TIP3    H120424   6.064   3.035   5.833
 6827TIP3    H220425   5.940   3.061   5.749
 6828TIP3   OH220426   2.324   2.303   0.216
 6828TIP3    H120427   2.274   2.363   0.160
 6828TIP3    H220428   2.379   2.253   0.155
 6829TIP3   OH220429   4.622   1.682   6.001
 6829TIP3    H120430   4.643   1.696   5.909
 6829TIP3    H220431   4.564   1.754   6.025
 6830TIP3   OH220432   5.236   4.826   6.582
 6830TIP3    H120433   5.259   4.734   6.573
 6830TIP3    H220434   5.320   4.869   6.602
 6831TIP3   OH220435   0.655   0.798   5.748
 6831TIP3    H120436   0.732   0.749   5.776
 6831TIP3    H220437   0.585   0.770   5.807
 6832TIP3   OH220438   4.071   3.184   2.532
 6832TIP3    H120439   4.153   3.186   2.581
 6832TIP3    H220440   4.083   3.115   2.466
 6833TIP3   OH220441   7.220   5.141   0.829
 6833TIP3    H120442   7.242   5.105   0.743
 6833TIP3    H220443   7.289   5.206   0.846
 6834TIP3   OH220444   7.674   7.216   3.902
 6834TIP3    H120445   7.759   7.203   3.858
 6834TIP3    H220446   7.617   7.250   3.833
 6835TIP3   OH220447   1.028   1.392   0.866
 6835TIP3    H120448   1.030   1.451   0.791
 6835TIP3    H220449   0.940   1.402   0.903
 6836TIP3   OH220450   0.803   3.929   3.197
 6836TIP3    H120451   0.792   3.855   3.137
 6836TIP3    H220452   0.841   3.891   3.276
 6837TIP3   OH220453   7.753   2.264   5.878
 6837TIP3    H120454   7.807   2.221   5.945
 6837TIP3    H220455   7.760   2.357   5.898
 6838TIP3   OH220456   4.893   2.414   3.765
 6838TIP3    H120457   4.839   2.488   3.794
 6838TIP3    H220458   4.982   2.438   3.791
 6839TIP3   OH220459   5.570   3.050   2.572
 6839TIP3    H120460   5.520   3.131   2.582
 6839TIP3    H220461   5.652   3.077   2.530
 6840TIP3   OH220462   5.660   4.087   0.359
 6840TIP3    H120463   5.641   4.103   0.452
 6840TIP3    H220464   5.609   4.009   0.338
 6841TIP3   OH220465   0.903   6.876   6.295
 6841TIP3    H120466   0.853   6.851   6.374
 6841TIP3    H220467   0.864   6.959   6.268
 6842TIP3   OH220468   1.436   6.162   1.993
 6842TIP3    H120469   1.436   6.102   2.068
 6842TIP3    H220470   1.489   6.237   2.023
 6843TIP3   OH220471   8.002   5.839   0.290
 6843TIP3    H120472   7.975   5.900   0.359
 6843TIP3    H220473   8.036   5.763   0.337
 6844TIP3   OH220474   8.092   1.754   1.619
 6844TIP3    H120475   8.003   1.784   1.637
 6844TIP3    H220476   8.134   1.827   1.573
 6845TIP3   OH220477   2.140   0.282   1.787
 6845TIP3    H120478   2.107   0.315   1.870
 6845TIP3    H220479   2.235   0.289   1.795
 6846TIP3   OH220480   5.488   3.119   1.343
 6846TIP3    H120481   5.557   3.165   1.391
 6846TIP3    H220482   5.462   3.181   1.275
 6847TIP3   OH220483   2.764   1.534   4.945
 6847TIP3    H120484   2.790   1.442   4.943
 6847TIP3    H220485   2.693   1.538   5.009
 6848TIP3   OH220486   2.734   4.886   1.378
 6848TIP3    H120487   2.761   4.900   1.287
 6848TIP3    H220488   2.698   4.798   1.380
 6849TIP3   OH220489   3.401   4.864   5.542
 6849TIP3    H120490   3.454   4.902   5.472
 6849TIP3    H220491   3.322   4.919   5.544
 6850TIP3   OH220492   6.105   5.419   1.015
 6850TIP3    H120493   6.201   5.419   1.019
 6850TIP3    H220494   6.083   5.500   0.969
 6851TIP3   OH220495   4.324   4.368   5.652
 6851TIP3    H120496   4.353   4.434   5.588
 6851TIP3    H220497   4.229   4.376   5.653
 6852TIP3   OH220498   3.785   1.628   6.075
 6852TIP3    H120499   3.877   1.636   6.101
 6852TIP3    H220500   3.735   1.647   6.155
 6853TIP3   OH220501   0.671   5.403   1.989
 6853TIP3    H120502   0.695   5.310   1.982
 6853TIP3    H220503   0.753   5.447   2.012
 6854TIP3   OH220504   4.248   4.059   2.836
 6854TIP3    H120505   4.195   4.034   2.760
 6854TIP3    H220506   4.210   4.142   2.865
 6855TIP3   OH220507   4.063   1.518   2.998
 6855TIP3    H120508   3.978   1.542   3.035
 6855TIP3    H220509   4.056   1.424   2.981
 6856TIP3   OH220510   0.938   6.328   5.823
 6856TIP3    H120511   1.025   6.295   5.844
 6856TIP3    H220512   0.954   6.416   5.789
 6857TIP3   OH220513   0.816   3.485   1.239
 6857TIP3    H120514   0.796   3.448   1.153
 6857TIP3    H220515   0.838   3.409   1.294
 6858TIP3   OH220516   2.708   1.555   3.943
 6858TIP3    H120517   2.773   1.608   3.990
 6858TIP3    H220518   2.693   1.480   4.000
 6859TIP3   OH220519   3.177   3.717   1.236
 6859TIP3    H120520   3.134   3.713   1.321
 6859TIP3    H220521   3.244   3.785   1.247
 6860TIP3   OH220522   0.308   2.446   6.602
 6860TIP3    H120523   0.265   2.361   6.600
 6860TIP3    H220524   0.393   2.431   6.560
 6861TIP3   OH220525   7.353   7.136   6.309
 6861TIP3    H120526   7.392   7.075   6.246
 6861TIP3    H220527   7.259   7.129   6.293
 6862TIP3   OH220528   0.672   5.577   0.016
 6862TIP3    H120529   0.717   5.492   0.014
 6862TIP3    H220530   0.614   5.574  -0.060
 6863TIP3   OH220531   0.570   2.666   0.818
 6863TIP3    H120532   0.630   2.642   0.748
 6863TIP3    H220533   0.557   2.584   0.867
 6864TIP3   OH220534   5.045   6.031   4.697
 6864TIP3    H120535   5.015   5.966   4.633
 6864TIP3    H220536   5.097   6.092   4.645
 6865TIP3   OH220537   6.850   7.545   3.771
 6865TIP3    H120538   6.912   7.605   3.813
 6865TIP3    H220539   6.770   7.597   3.759
 6866TIP3   OH220540   2.659   3.306   6.257
 6866TIP3    H120541   2.604   3.228   6.266
 6866TIP3    H220542   2.603   3.371   6.215
 6867TIP3   OH220543   6.973   2.587   1.462
 6867TIP3    H120544   7.039   2.527   1.497
 6867TIP3    H220545   6.960   2.651   1.532
 6868TIP3   OH220546   4.754   3.235   5.924
 6868TIP3    H120547   4.727   3.294   5.995
 6868TIP3    H220548   4.811   3.171   5.966
 6869TIP3   OH220549   1.378   1.793   2.687
 6869TIP3    H120550   1.309   1.727   2.689
 6869TIP3    H220551   1.332   1.875   2.667
 6870TIP3   OH220552   4.662   0.917   4.520
 6870TIP3    H120553   4.701   0.960   4.443
 6870TIP3    H220554   4.568   0.926   4.508
 6871TIP3   OH220555   5.780   2.595   5.604
 6871TIP3    H120556   5.724   2.626   5.533
 6871TIP3    H220557   5.788   2.501   5.589
 6872TIP3   OH220558   1.579   4.220   1.198
 6872TIP3    H120559   1.590   4.239   1.105
 6872TIP3    H220560   1.506   4.158   1.202
 6873TIP3   OH220561   6.489   6.442   6.528
 6873TIP3    H120562   6.399   6.415   6.546
 6873TIP3    H220563   6.499   6.432   6.433
 6874TIP3   OH220564   5.958   4.147   0.864
 6874TIP3    H120565   5.923   4.156   0.775
 6874TIP3    H220566   5.979   4.236   0.890
 6875TIP3   OH220567   6.039   1.404   2.470
 6875TIP3    H120568   5.964   1.352   2.498
 6875TIP3    H220569   6.087   1.347   2.410
 6876TIP3   OH220570   0.475   5.116   0.096
 6876TIP3    H120571   0.558   5.135   0.051
 6876TIP3    H220572   0.486   5.155   0.183
 6877TIP3   OH220573   6.350   3.330   1.721
 6877TIP3    H120574   6.349   3.358   1.813
 6877TIP3    H220575   6.438   3.295   1.707
 6878TIP3   OH220576   7.978   0.042   4.683
 6878TIP3    H120577   8.052   0.081   4.637
 6878TIP3    H220578   7.923   0.006   4.613
 6879TIP3   OH220579   3.061   5.052   1.653
 6879TIP3    H120580   3.033   5.112   1.585
 6879TIP3    H220581   3.007   4.974   1.642
 6880TIP3   OH220582   3.067   4.647   4.089
 6880TIP3    H120583   3.094   4.584   4.156
 6880TIP3    H220584   3.139   4.646   4.025
 6881TIP3   OH220585   1.399   1.861   4.710
 6881TIP3    H120586   1.385   1.868   4.616
 6881TIP3    H220587   1.489   1.892   4.723
 6882TIP3   OH220588   3.343   0.895   3.017
 6882TIP3    H120589   3.347   0.970   3.076
 6882TIP3    H220590   3.434   0.868   3.007
 6883TIP3   OH220591   8.141   6.923   1.260
 6883TIP3    H120592   8.101   7.005   1.233
 6883TIP3    H220593   8.221   6.949   1.306
 6884TIP3   OH220594   5.509   1.783   6.085
 6884TIP3    H120595   5.513   1.859   6.143
 6884TIP3    H220596   5.432   1.734   6.114
 6885TIP3   OH220597   8.188   2.097   5.951
 6885TIP3    H120598   8.159   2.132   5.867
 6885TIP3    H220599   8.237   2.168   5.992
 6886TIP3   OH220600   7.289   2.870   3.870
 6886TIP3    H120601   7.331   2.786   3.852
 6886TIP3    H220602   7.348   2.913   3.933
 6887TIP3   OH220603   5.262   5.560   6.591
 6887TIP3    H120604   5.349   5.520   6.588
 6887TIP3    H220605   5.269   5.636   6.534
 6888TIP3   OH220606   4.983   5.509   0.635
 6888TIP3    H120607   5.056   5.447   0.636
 6888TIP3    H220608   5.021   5.592   0.665
 6889TIP3   OH220609   4.678   3.303   3.485
 6889TIP3    H120610   4.634   3.317   3.401
 6889TIP3    H220611   4.766   3.273   3.461
 6890TIP3   OH220612   5.480   4.995   2.075
 6890TIP3    H120613   5.570   5.026   2.082
 6890TIP3    H220614   5.445   5.003   2.164
 6891TIP3   OH220615   0.818   5.258   5.433
 6891TIP3    H120616   0.735   5.216   5.413
 6891TIP3    H220617   0.801   5.311   5.511
 6892TIP3   OH220618   7.395   2.494   3.958
 6892TIP3    H120619   7.303   2.513   3.976
 6892TIP3    H220620   7.400   2.399   3.954
 6893TIP3   OH220621   8.016   4.234   2.503
 6893TIP3    H120622   7.937   4.185   2.522
 6893TIP3    H220623   8.044   4.202   2.417
 6894TIP3   OH220624   8.264   0.250   2.995
 6894TIP3    H120625   8.311   0.239   2.913
 6894TIP3    H220626   8.190   0.307   2.973
 6895TIP3   OH220627   2.165   2.849   2.809
 6895TIP3    H120628   2.227   2.912   2.773
 6895TIP3    H220629   2.080   2.893   2.802
 6896TIP3   OH220630   6.300   2.918   0.289
 6896TIP3    H120631   6.206   2.903   0.288
 6896TIP3    H220632   6.335   2.849   0.345
 6897TIP3   OH220633   6.380   7.365   0.872
 6897TIP3    H120634   6.362   7.457   0.892
 6897TIP3    H220635   6.294   7.327   0.855
 6898TIP3   OH220636   6.871   2.614   6.490
 6898TIP3    H120637   6.912   2.607   6.403
 6898TIP3    H220638   6.910   2.542   6.540
 6899TIP3   OH220639   7.016   0.102   2.827
 6899TIP3    H120640   7.015   0.128   2.735
 6899TIP3    H220641   7.093   0.046   2.835
 6900TIP3   OH220642   3.954   1.259   5.347
 6900TIP3    H120643   4.045   1.285   5.330
 6900TIP3    H220644   3.910   1.269   5.263
 6901TIP3   OH220645   4.202   5.595   0.824
 6901TIP3    H120646   4.193   5.589   0.729
 6901TIP3    H220647   4.292   5.569   0.842
 6902TIP3   OH220648   0.204   5.346   2.857
 6902TIP3    H120649   0.122   5.350   2.906
 6902TIP3    H220650   0.262   5.407   2.902
 6903TIP3   OH220651   3.183   6.673   2.403
 6903TIP3    H120652   3.246   6.662   2.474
 6903TIP3    H220653   3.097   6.657   2.443
 6904TIP3   OH220654   5.666   1.694   6.708
 6904TIP3    H120655   5.661   1.695   6.612
 6904TIP3    H220656   5.638   1.606   6.732
 6905TIP3   OH220657   5.490   4.520   0.483
 6905TIP3    H120658   5.397   4.501   0.499
 6905TIP3    H220659   5.522   4.446   0.431
 6906TIP3   OH220660   0.513   0.132   2.974
 6906TIP3    H120661   0.531   0.113   3.066
 6906TIP3    H220662   0.501   0.227   2.971
 6907TIP3   OH220663   1.253   6.231   6.630
 6907TIP3    H120664   1.326   6.283   6.662
 6907TIP3    H220665   1.200   6.213   6.709
 6908TIP3   OH220666   1.145   5.953   0.677
 6908TIP3    H120667   1.062   5.995   0.701
 6908TIP3    H220668   1.170   5.995   0.595
 6909TIP3   OH220669   7.892   4.709   1.676
 6909TIP3    H120670   7.867   4.743   1.590
 6909TIP3    H220671   7.985   4.729   1.683
 6910TIP3   OH220672   5.245   5.268   3.274
 6910TIP3    H120673   5.304   5.227   3.211
 6910TIP3    H220674   5.192   5.197   3.307
 6911TIP3   OH220675   7.025   2.190   0.046
 6911TIP3    H120676   7.015   2.283   0.031
 6911TIP3    H220677   7.110   2.168   0.006
 6912TIP3   OH220678   4.186   3.016   2.721
 6912TIP3    H120679   4.182   2.955   2.794
 6912TIP3    H220680   4.096   3.021   2.688
 6913TIP3   OH220681   4.091   2.349   0.238
 6913TIP3    H120682   4.151   2.277   0.218
 6913TIP3    H220683   4.065   2.383   0.152
 6914TIP3   OH220684   3.150   0.763   6.352
 6914TIP3    H120685   3.090   0.728   6.418
 6914TIP3    H220686   3.237   0.753   6.391
 6915TIP3   OH220687   4.704   6.526   3.541
 6915TIP3    H120688   4.706   6.620   3.523
 6915TIP3    H220689   4.626   6.513   3.595
 6916TIP3   OH220690   6.257   2.838   1.779
 6916TIP3    H120691   6.308   2.845   1.698
 6916TIP3    H220692   6.300   2.898   1.840
 6917TIP3   OH220693   7.246   3.196   2.857
 6917TIP3    H120694   7.174   3.133   2.864
 6917TIP3    H220695   7.324   3.142   2.845
 6918TIP3   OH220696   1.686   2.392   6.620
 6918TIP3    H120697   1.648   2.304   6.622
 6918TIP3    H220698   1.688   2.415   6.527
 6919TIP3   OH220699   6.646   3.549   5.570
 6919TIP3    H120700   6.632   3.473   5.627
 6919TIP3    H220701   6.724   3.528   5.519
 6920TIP3   OH220702   0.658   7.446   0.438
 6920TIP3    H120703   0.634   7.530   0.400
 6920TIP3    H220704   0.681   7.467   0.529
 6921TIP3   OH220705   1.256   3.955   2.286
 6921TIP3    H120706   1.204   3.898   2.229
 6921TIP3    H220707   1.346   3.943   2.255
 6922TIP3   OH220708   1.962   1.197   3.151
 6922TIP3    H120709   1.880   1.244   3.139
 6922TIP3    H220710   2.030   1.264   3.141
 6923TIP3   OH220711   2.434   4.231   2.188
 6923TIP3    H120712   2.370   4.247   2.258
 6923TIP3    H220713   2.384   4.234   2.107
 6924TIP3   OH220714   1.104   0.093   2.493
 6924TIP3    H120715   1.171   0.032   2.462
 6924TIP3    H220716   1.136   0.122   2.579
 6925TIP3   OH220717   7.999   4.183   2.830
 6925TIP3    H120718   8.063   4.114   2.811
 6925TIP3    H220719   8.051   4.264   2.834
 6926TIP3   OH220720   4.449   0.148   2.383
 6926TIP3    H120721   4.492   0.099   2.313
 6926TIP3    H220722   4.495   0.232   2.384
 6927TIP3   OH220723   5.008   7.313   6.708
 6927TIP3    H120724   4.973   7.302   6.796
 6927TIP3    H220725   5.048   7.400   6.709
 6928TIP3   OH220726   5.673   2.523   3.486
 6928TIP3    H120727   5.664   2.428   3.471
 6928TIP3    H220728   5.662   2.533   3.581
 6929TIP3   OH220729   4.203   3.780   2.219
 6929TIP3    H120730   4.294   3.757   2.199
 6929TIP3    H220731   4.187   3.741   2.305
 6930TIP3   OH220732   3.188   1.475   5.811
 6930TIP3    H120733   3.279   1.496   5.832
 6930TIP3    H220734   3.158   1.549   5.757
 6931TIP3   OH220735   7.929   5.464   4.512
 6931TIP3    H120736   7.854   5.404   4.511
 6931TIP3    H220737   7.894   5.545   4.550
 6932TIP3   OH220738   1.525   7.095   2.207
 6932TIP3    H120739   1.612   7.135   2.206
 6932TIP3    H220740   1.507   7.074   2.116
 6933TIP3   OH220741   7.558   0.650   4.170
 6933TIP3    H120742   7.480   0.677   4.218
 6933TIP3    H220743   7.614   0.611   4.236
 6934TIP3   OH220744   6.048   0.940   0.151
 6934TIP3    H120745   6.077   0.916   0.239
 6934TIP3    H220746   5.956   0.915   0.148
 6935TIP3   OH220747   3.006   5.475   2.424
 6935TIP3    H120748   2.934   5.534   2.442
 6935TIP3    H220749   2.969   5.410   2.364
 6936TIP3   OH220750   4.730   6.961   3.816
 6936TIP3    H120751   4.783   6.944   3.738
 6936TIP3    H220752   4.671   6.886   3.821
 6937TIP3   OH220753   5.758   6.842   1.266
 6937TIP3    H120754   5.820   6.857   1.337
 6937TIP3    H220755   5.682   6.802   1.308
 6938TIP3   OH220756   2.201   1.345   6.078
 6938TIP3    H120757   2.199   1.329   6.172
 6938TIP3    H220758   2.124   1.299   6.044
 6939TIP3   OH220759   3.790   7.139   5.921
 6939TIP3    H120760   3.786   7.049   5.953
 6939TIP3    H220761   3.879   7.148   5.886
 6940TIP3   OH220762   0.572   2.336   3.048
 6940TIP3    H120763   0.560   2.426   3.018
 6940TIP3    H220764   0.667   2.322   3.042
 6941TIP3   OH220765   0.478   0.537   3.287
 6941TIP3    H120766   0.451   0.491   3.367
 6941TIP3    H220767   0.420   0.504   3.219
 6942TIP3   OH220768   3.681   6.675   6.685
 6942TIP3    H120769   3.642   6.753   6.724
 6942TIP3    H220770   3.626   6.602   6.716
 6943TIP3   OH220771   6.246   2.327   6.112
 6943TIP3    H120772   6.279   2.389   6.046
 6943TIP3    H220773   6.194   2.264   6.062
 6944TIP3   OH220774   2.995   0.224   2.955
 6944TIP3    H120775   2.988   0.291   2.887
 6944TIP3    H220776   3.069   0.253   3.009
 6945TIP3   OH220777   2.323   4.561   2.456
 6945TIP3    H120778   2.302   4.654   2.447
 6945TIP3    H220779   2.418   4.558   2.462
 6946TIP3   OH220780   3.965   7.564   4.729
 6946TIP3    H120781   4.029   7.497   4.753
 6946TIP3    H220782   4.000   7.603   4.649
 6947TIP3   OH220783   6.120  -0.020   5.668
 6947TIP3    H120784   6.094   0.060   5.623
 6947TIP3    H220785   6.149   0.009   5.754
 6948TIP3   OH220786   5.527   5.438   2.247
 6948TIP3    H120787   5.619   5.445   2.222
 6948TIP3    H220788   5.506   5.523   2.287
 6949TIP3   OH220789   1.623   3.515   1.946
 6949TIP3    H120790   1.688   3.444   1.949
 6949TIP3    H220791   1.559   3.486   1.882
 6950TIP3   OH220792   5.873   2.588   4.914
 6950TIP3    H120793   5.883   2.493   4.907
 6950TIP3    H220794   5.887   2.620   4.825
 6951TIP3   OH220795   3.119   6.639   1.533
 6951TIP3    H120796   3.133   6.733   1.548
 6951TIP3    H220797   3.053   6.636   1.463
 6952TIP3   OH220798   1.666   7.734   3.162
 6952TIP3    H120799   1.661   7.641   3.141
 6952TIP3    H220800   1.603   7.746   3.234
 6953TIP3   OH220801   1.229   4.143   5.111
 6953TIP3    H120802   1.258   4.071   5.166
 6953TIP3    H220803   1.272   4.220   5.148
 6954TIP3   OH220804   3.592   5.283   4.623
 6954TIP3    H120805   3.619   5.275   4.714
 6954TIP3    H220806   3.566   5.194   4.598
 6955TIP3   OH220807   4.145   4.686   0.225
 6955TIP3    H120808   4.166   4.724   0.310
 6955TIP3    H220809   4.165   4.756   0.162
 6956TIP3   OH220810   0.344   2.348   5.423
 6956TIP3    H120811   0.309   2.420   5.370
 6956TIP3    H220812   0.354   2.275   5.362
 6957TIP3   OH220813   6.146   5.398   2.504
 6957TIP3    H120814   6.115   5.425   2.590
 6957TIP3    H220815   6.241   5.406   2.509
 6958TIP3   OH220816   6.030   1.919   4.234
 6958TIP3    H120817   6.111   1.970   4.240
 6958TIP3    H220818   6.044   1.861   4.159
 6959TIP3   OH220819   5.629   5.985   3.140
 6959TIP3    H120820   5.628   6.015   3.050
 6959TIP3    H220821   5.559   5.919   3.144
 6960TIP3   OH220822   6.693   2.765   1.355
 6960TIP3    H120823   6.630   2.805   1.295
 6960TIP3    H220824   6.774   2.758   1.304
 6961TIP3   OH220825   8.138  -0.024   1.915
 6961TIP3    H120826   8.072  -0.033   1.983
 6961TIP3    H220827   8.106  -0.079   1.843
 6962TIP3   OH220828   5.249   1.171   5.681
 6962TIP3    H120829   5.184   1.108   5.712
 6962TIP3    H220830   5.289   1.205   5.761
 6963TIP3   OH220831   4.856   2.379   0.338
 6963TIP3    H120832   4.907   2.398   0.417
 6963TIP3    H220833   4.813   2.462   0.316
 6964TIP3   OH220834   3.580   0.316   1.959
 6964TIP3    H120835   3.611   0.230   1.987
 6964TIP3    H220836   3.635   0.338   1.883
 6965TIP3   OH220837   7.009   6.398   1.408
 6965TIP3    H120838   6.918   6.367   1.417
 6965TIP3    H220839   7.016   6.423   1.316
 6966TIP3   OH220840   3.109   6.832   5.706
 6966TIP3    H120841   3.128   6.892   5.634
 6966TIP3    H220842   3.178   6.765   5.700
 6967TIP3   OH220843   1.667   1.560   6.638
 6967TIP3    H120844   1.660   1.600   6.551
 6967TIP3    H220845   1.743   1.603   6.678
 6968TIP3   OH220846   3.942   5.598   0.471
 6968TIP3    H120847   4.034   5.582   0.495
 6968TIP3    H220848   3.903   5.633   0.551
 6969TIP3   OH220849   3.672   2.352   5.952
 6969TIP3    H120850   3.677   2.281   5.888
 6969TIP3    H220851   3.687   2.431   5.900
 6970TIP3   OH220852   4.461   2.034   6.387
 6970TIP3    H120853   4.539   2.064   6.432
 6970TIP3    H220854   4.389   2.080   6.430
 6971TIP3   OH220855   7.654   5.353   4.233
 6971TIP3    H120856   7.686   5.319   4.316
 6971TIP3    H220857   7.559   5.349   4.240
 6972TIP3   OH220858   3.108   0.629   1.553
 6972TIP3    H120859   3.025   0.581   1.552
 6972TIP3    H220860   3.100   0.692   1.482
 6973TIP3   OH220861   0.339   2.196   5.111
 6973TIP3    H120862   0.379   2.282   5.099
 6973TIP3    H220863   0.253   2.203   5.070
 6974TIP3   OH220864   1.299   0.448   3.428
 6974TIP3    H120865   1.393   0.428   3.418
 6974TIP3    H220866   1.266   0.448   3.338
 6975TIP3   OH220867   7.208   6.488   2.805
 6975TIP3    H120868   7.179   6.539   2.729
 6975TIP3    H220869   7.132   6.433   2.827
 6976TIP3   OH220870   2.819   2.445   5.289
 6976TIP3    H120871   2.770   2.434   5.208
 6976TIP3    H220872   2.840   2.356   5.316
 6977TIP3   OH220873   3.291   2.698   4.484
 6977TIP3    H120874   3.377   2.719   4.523
 6977TIP3    H220875   3.228   2.735   4.545
 6978TIP3   OH220876   0.081   6.128   6.309
 6978TIP3    H120877   0.050   6.038   6.301
 6978TIP3    H220878   0.146   6.126   6.379
 6979TIP3   OH220879   8.278   1.970   5.687
 6979TIP3    H120880   8.347   1.981   5.621
 6979TIP3    H220881   8.320   1.994   5.770
 6980TIP3   OH220882   7.440   7.401   0.964
 6980TIP3    H120883   7.467   7.484   0.924
 6980TIP3    H220884   7.345   7.411   0.977
 6981TIP3   OH220885   3.463   6.239   2.564
 6981TIP3    H120886   3.525   6.280   2.624
 6981TIP3    H220887   3.381   6.237   2.612
 6982TIP3   OH220888   4.261   4.350   6.585
 6982TIP3    H120889   4.166   4.341   6.574
 6982TIP3    H220890   4.271   4.417   6.653
 6983TIP3   OH220891   4.672   4.294   1.011
 6983TIP3    H120892   4.683   4.252   1.096
 6983TIP3    H220893   4.727   4.243   0.952
 6984TIP3   OH220894   6.716   1.566   2.706
 6984TIP3    H120895   6.638   1.594   2.754
 6984TIP3    H220896   6.736   1.480   2.741
 6985TIP3   OH220897   6.304   0.143   0.137
 6985TIP3    H120898   6.270   0.072   0.192
 6985TIP3    H220899   6.226   0.185   0.100
 6986TIP3   OH220900   0.092   1.755   6.036
 6986TIP3    H120901  -0.001   1.768   6.019
 6986TIP3    H220902   0.098   1.666   6.073
 6987TIP3   OH220903   0.795   4.082   2.764
 6987TIP3    H120904   0.731   4.019   2.729
 6987TIP3    H220905   0.746   4.132   2.829
 6988TIP3   OH220906   4.034   2.422   5.883
 6988TIP3    H120907   4.111   2.450   5.933
 6988TIP3    H220908   4.070   2.390   5.800
 6989TIP3   OH220909   2.271   3.318   4.246
 6989TIP3    H120910   2.209   3.381   4.209
 6989TIP3    H220911   2.261   3.239   4.193
 6990TIP3   OH220912   5.635   0.634   6.531
 6990TIP3    H120913   5.714   0.686   6.541
 6990TIP3    H220914   5.652   0.554   6.580
 6991TIP3   OH220915   5.007   2.334   2.899
 6991TIP3    H120916   4.999   2.260   2.960
 6991TIP3    H220917   5.068   2.394   2.943
 6992TIP3   OH220918   6.891   6.431   6.625
 6992TIP3    H120919   6.818   6.467   6.675
 6992TIP3    H220920   6.856   6.353   6.583
 6993TIP3   OH220921   4.792   5.503   0.162
 6993TIP3    H120922   4.871   5.484   0.212
 6993TIP3    H220923   4.757   5.583   0.201
 6994TIP3   OH220924   8.173   5.333   5.654
 6994TIP3    H120925   8.268   5.328   5.666
 6994TIP3    H220926   8.151   5.423   5.679
 6995TIP3   OH220927   5.717   6.522   4.205
 6995TIP3    H120928   5.747   6.541   4.294
 6995TIP3    H220929   5.632   6.566   4.199
 6996TIP3   OH220930   7.711   1.908   3.718
 6996TIP3    H120931   7.621   1.906   3.751
 6996TIP3    H220932   7.762   1.863   3.786
 6997TIP3   OH220933   6.864   1.362   4.321
 6997TIP3    H120934   6.841   1.345   4.230
 6997TIP3    H220935   6.841   1.454   4.335
 6998TIP3   OH220936   8.007   0.892   2.637
 6998TIP3    H120937   7.955   0.890   2.717
 6998TIP3    H220938   7.960   0.836   2.576
 6999TIP3   OH220939   5.505   0.475   4.840
 6999TIP3    H120940   5.556   0.501   4.916
 6999TIP3    H220941   5.536   0.387   4.818
 7000TIP3   OH220942   7.686   1.753   1.787
 7000TIP3    H120943   7.653   1.671   1.825
 7000TIP3    H220944   7.644   1.758   1.701
 7001TIP3   OH220945   2.070   1.167   2.657
 7001TIP3    H120946   2.132   1.098   2.684
 7001TIP3    H220947   2.115   1.249   2.679
 7002TIP3   OH220948   2.488   1.893   4.542
 7002TIP3    H120949   2.495   1.868   4.450
 7002TIP3    H220950   2.578   1.891   4.575
 7003TIP3   OH220951   0.195   5.052   1.493
 7003TIP3    H120952   0.139   5.033   1.418
 7003TIP3    H220953   0.272   5.094   1.455
 7004TIP3   OH220954   3.804   0.374   5.653
 7004TIP3    H120955   3.714   0.367   5.623
 7004TIP3    H220956   3.837   0.454   5.613
 7005TIP3   OH220957   5.096   1.767   0.603
 7005TIP3    H120958   5.037   1.703   0.563
 7005TIP3    H220959   5.131   1.723   0.680
 7006TIP3   OH220960   4.951   2.244   5.108
 7006TIP3    H120961   4.861   2.219   5.086
 7006TIP3    H220962   4.947   2.338   5.122
 7007TIP3   OH220963   7.351   6.144   5.648
 7007TIP3    H120964   7.389   6.157   5.561
 7007TIP3    H220965   7.265   6.186   5.644
 7008TIP3   OH220966   6.438   1.463   4.906
 7008TIP3    H120967   6.407   1.460   4.815
 7008TIP3    H220968   6.380   1.402   4.952
 7009TIP3   OH220969   1.596   4.930   1.095
 7009TIP3    H120970   1.677   4.957   1.051
 7009TIP3    H220971   1.541   4.895   1.024
 7010TIP3   OH220972   3.111   0.326   4.990
 7010TIP3    H120973   3.132   0.233   4.998
 7010TIP3    H220974   3.016   0.328   4.978
 7011TIP3   OH220975   4.071   7.041   3.217
 7011TIP3    H120976   4.122   7.077   3.144
 7011TIP3    H220977   4.036   6.959   3.184
 7012TIP3   OH220978   0.579   4.846   6.093
 7012TIP3    H120979   0.486   4.852   6.112
 7012TIP3    H220980   0.597   4.752   6.088
 7013TIP3   OH220981   0.537   3.995   0.769
 7013TIP3    H120982   0.484   4.026   0.695
 7013TIP3    H220983   0.609   3.947   0.728
 7014TIP3   OH220984   6.062   0.149   3.910
 7014TIP3    H120985   5.975   0.159   3.871
 7014TIP3    H220986   6.121   0.144   3.835
 7015TIP3   OH220987   0.718   4.974   3.235
 7015TIP3    H120988   0.660   5.007   3.304
 7015TIP3    H220989   0.688   5.018   3.156
 7016TIP3   OH220990   7.005   7.362   2.178
 7016TIP3    H120991   7.008   7.362   2.274
 7016TIP3    H220992   6.948   7.435   2.156
 7017TIP3   OH220993   6.209   5.550   2.965
 7017TIP3    H120994   6.189   5.505   3.048
 7017TIP3    H220995   6.268   5.621   2.990
 7018TIP3   OH220996   6.626   6.976   5.816
 7018TIP3    H120997   6.596   7.064   5.791
 7018TIP3    H220998   6.715   6.970   5.780
 7019TIP3   OH220999   0.534   6.571   1.185
 7019TIP3    H121000   0.501   6.659   1.205
 7019TIP3    H221001   0.462   6.528   1.139
 7020TIP3   OH221002   6.641   3.307   6.662
 7020TIP3    H121003   6.616   3.357   6.584
 7020TIP3    H221004   6.652   3.373   6.730
 7021TIP3   OH221005   2.723   1.088   3.698
 7021TIP3    H121006   2.670   1.154   3.742
 7021TIP3    H221007   2.751   1.130   3.616
 7022TIP3   OH221008   7.034   5.462   6.359
 7022TIP3    H121009   7.062   5.407   6.433
 7022TIP3    H221010   6.986   5.402   6.302
 7023TIP3   OH221011   2.484   6.632   2.087
 7023TIP3    H121012   2.440   6.646   2.172
 7023TIP3    H221013   2.545   6.705   2.079
 7024TIP3   OH221014   6.815   6.177   0.382
 7024TIP3    H121015   6.841   6.193   0.291
 7024TIP3    H221016   6.885   6.217   0.434
 7025TIP3   OH221017   1.120   2.348   4.328
 7025TIP3    H121018   1.049   2.412   4.322
 7025TIP3    H221019   1.197   2.394   4.294
 7026TIP3   OH221020   0.252   6.714   4.200
 7026TIP3    H121021   0.242   6.637   4.256
 7026TIP3    H221022   0.166   6.755   4.200
 7027TIP3   OH221023   4.730   4.409   2.078
 7027TIP3    H121024   4.643   4.446   2.063
 7027TIP3    H221025   4.738   4.339   2.013
 7028TIP3   OH221026   6.235   4.408   3.052
 7028TIP3    H121027   6.282   4.381   3.131
 7028TIP3    H221028   6.146   4.427   3.082
 7029TIP3   OH221029   1.066   7.397   0.109
 7029TIP3    H121030   0.976   7.417   0.084
 7029TIP3    H221031   1.100   7.480   0.143
 7030TIP3   OH221032   1.989   5.704   1.220
 7030TIP3    H121033   2.072   5.751   1.215
 7030TIP3    H221034   2.004   5.634   1.284
 7031TIP3   OH221035   1.717   6.619   6.463
 7031TIP3    H121036   1.687   6.529   6.477
 7031TIP3    H221037   1.724   6.628   6.368
 7032TIP3   OH221038   2.602   1.295   0.013
 7032TIP3    H121039   2.595   1.249  -0.071
 7032TIP3    H221040   2.536   1.364   0.008
 7033TIP3   OH221041   6.654   1.978   3.934
 7033TIP3    H121042   6.595   2.004   3.863
 7033TIP3    H221043   6.641   1.884   3.944
 7034TIP3   OH221044   2.702   0.124   5.104
 7034TIP3    H121045   2.782   0.171   5.124
 7034TIP3    H221046   2.645   0.190   5.064
 7035TIP3   OH221047   4.606   0.704   1.333
 7035TIP3    H121048   4.596   0.781   1.277
 7035TIP3    H221049   4.674   0.729   1.396
 7036TIP3   OH221050   1.760   1.898   6.166
 7036TIP3    H121051   1.823   1.930   6.230
 7036TIP3    H221052   1.801   1.821   6.128
 7037TIP3   OH221053   2.041   6.106   3.505
 7037TIP3    H121054   2.095   6.068   3.436
 7037TIP3    H221055   2.062   6.199   3.503
 7038TIP3   OH221056   5.230   0.747   4.583
 7038TIP3    H121057   5.291   0.673   4.585
 7038TIP3    H221058   5.284   0.821   4.555
 7039TIP3   OH221059   1.175   2.256   1.167
 7039TIP3    H121060   1.212   2.196   1.233
 7039TIP3    H221061   1.216   2.229   1.085
 7040TIP3   OH221062   1.036   2.386   3.184
 7040TIP3    H121063   1.107   2.412   3.127
 7040TIP3    H221064   1.037   2.450   3.255
 7041TIP3   OH221065   6.236   3.672   6.093
 7041TIP3    H121066   6.147   3.638   6.082
 7041TIP3    H221067   6.226   3.767   6.091
 7042TIP3   OH221068   0.173   4.589   0.707
 7042TIP3    H121069   0.192   4.509   0.756
 7042TIP3    H221070   0.133   4.647   0.772
 7043TIP3   OH221071   1.078   2.982   4.365
 7043TIP3    H121072   1.129   3.062   4.353
 7043TIP3    H221073   1.001   3.009   4.416
 7044TIP3   OH221074   4.919   3.199   5.296
 7044TIP3    H121075   4.855   3.131   5.318
 7044TIP3    H221076   4.985   3.192   5.365
 7045TIP3   OH221077   2.872   5.937   1.512
 7045TIP3    H121078   2.882   5.945   1.418
 7045TIP3    H221079   2.854   5.844   1.527
 7046TIP3   OH221080   2.897   4.667   4.606
 7046TIP3    H121081   2.980   4.640   4.566
 7046TIP3    H221082   2.922   4.696   4.694
 7047TIP3   OH221083   4.822   7.659   3.369
 7047TIP3    H121084   4.839   7.614   3.286
 7047TIP3    H221085   4.856   7.747   3.356
 7048TIP3   OH221086   4.384   1.448   5.108
 7048TIP3    H121087   4.381   1.381   5.039
 7048TIP3    H221088   4.301   1.495   5.098
 7049TIP3   OH221089   6.919   3.196   1.296
 7049TIP3    H121090   6.912   3.123   1.357
 7049TIP3    H221091   6.876   3.269   1.342
 7050TIP3   OH221092   7.493   2.092   4.511
 7050TIP3    H121093   7.573   2.117   4.466
 7050TIP3    H221094   7.447   2.175   4.527
 7051TIP3   OH221095   0.637   4.231   4.407
 7051TIP3    H121096   0.595   4.293   4.467
 7051TIP3    H221097   0.729   4.257   4.406
 7052TIP3   OH221098   2.299   5.868   2.419
 7052TIP3    H121099   2.323   5.806   2.487
 7052TIP3    H221100   2.235   5.820   2.365
 7053TIP3   OH221101   3.706   6.694   5.266
 7053TIP3    H121102   3.664   6.779   5.258
 7053TIP3    H221103   3.788   6.703   5.217
 7054TIP3   OH221104   5.202   7.769   2.120
 7054TIP3    H121105   5.237   7.794   2.206
 7054TIP3    H221106   5.109   7.792   2.124
 7055TIP3   OH221107   8.119   3.426   6.100
 7055TIP3    H121108   8.032   3.467   6.103
 7055TIP3    H221109   8.101   3.333   6.117
 7056TIP3   OH221110   7.307   0.753   3.666
 7056TIP3    H121111   7.239   0.813   3.634
 7056TIP3    H221112   7.379   0.764   3.604
 7057TIP3   OH221113   5.062   6.498   0.955
 7057TIP3    H121114   5.123   6.491   1.028
 7057TIP3    H221115   5.115   6.480   0.877
 7058TIP3   OH221116   5.505   6.268   5.815
 7058TIP3    H121117   5.566   6.207   5.772
 7058TIP3    H221118   5.424   6.219   5.823
 7059TIP3   OH221119   4.066   0.902   6.467
 7059TIP3    H121120   4.081   0.952   6.547
 7059TIP3    H221121   4.057   0.812   6.497
 7060TIP3   OH221122   3.668   1.803   5.629
 7060TIP3    H121123   3.739   1.739   5.625
 7060TIP3    H221124   3.713   1.888   5.631
 7061TIP3   OH221125   2.955   2.294   5.619
 7061TIP3    H121126   2.889   2.300   5.688
 7061TIP3    H221127   2.937   2.369   5.562
 7062TIP3   OH221128   1.520   0.972   6.841
 7062TIP3    H121129   1.562   0.901   6.792
 7062TIP3    H221130   1.584   1.043   6.839
 7063TIP3   OH221131   3.466   4.315   1.977
 7063TIP3    H121132   3.447   4.393   2.030
 7063TIP3    H221133   3.489   4.350   1.891
 7064TIP3   OH221134   4.225   1.048   3.429
 7064TIP3    H121135   4.191   1.129   3.468
 7064TIP3    H221136   4.282   1.011   3.497
 7065TIP3   OH221137   0.764   3.102   6.524
 7065TIP3    H121138   0.690   3.162   6.534
 7065TIP3    H221139   0.755   3.069   6.434
 7066TIP3   OH221140   4.361   0.471   5.353
 7066TIP3    H121141   4.414   0.489   5.431
 7066TIP3    H221142   4.394   0.532   5.287
 7067TIP3   OH221143   5.144   1.750   5.481
 7067TIP3    H121144   5.143   1.845   5.471
 7067TIP3    H221145   5.060   1.721   5.445
 7068TIP3   OH221146   7.047   2.262   4.839
 7068TIP3    H121147   6.996   2.187   4.810
 7068TIP3    H221148   7.000   2.338   4.805
 7069TIP3   OH221149   4.371   4.084   1.218
 7069TIP3    H121150   4.405   4.039   1.141
 7069TIP3    H221151   4.324   4.016   1.267
 7070TIP3   OH221152   3.859   3.177   3.694
 7070TIP3    H121153   3.803   3.252   3.674
 7070TIP3    H221154   3.799   3.112   3.732
 7071TIP3   OH221155   0.358   2.286   0.550
 7071TIP3    H121156   0.400   2.203   0.571
 7071TIP3    H221157   0.414   2.352   0.592
 7072TIP3   OH221158   5.929   2.582   0.367
 7072TIP3    H121159   5.869   2.621   0.431
 7072TIP3    H221160   5.900   2.618   0.283
 7073TIP3   OH221161   7.080   1.446   3.110
 7073TIP3    H121162   7.036   1.509   3.052
 7073TIP3    H221163   7.171   1.447   3.082
 7074TIP3   OH221164   7.749   1.468   5.489
 7074TIP3    H121165   7.689   1.522   5.539
 7074TIP3    H221166   7.713   1.466   5.400
 7075TIP3   OH221167   1.609   3.956   5.199
 7075TIP3    H121168   1.625   3.866   5.170
 7075TIP3    H221169   1.515   3.962   5.209
 7076TIP3   OH221170   3.572   0.125   6.734
 7076TIP3    H121171   3.640   0.177   6.777
 7076TIP3    H221172   3.491   0.148   6.781
 7077TIP3   OH221173   2.631   7.292   4.439
 7077TIP3    H121174   2.679   7.374   4.439
 7077TIP3    H221175   2.617   7.271   4.347
 7078TIP3   OH221176   3.649   6.209   0.610
 7078TIP3    H121177   3.569   6.197   0.559
 7078TIP3    H221178   3.634   6.159   0.691
 7079TIP3   OH221179   5.717   1.013   0.695
 7079TIP3    H121180   5.809   1.022   0.670
 7079TIP3    H221181   5.707   1.069   0.772
 7080TIP3   OH221182   6.210   0.041   4.267
 7080TIP3    H121183   6.259   0.115   4.231
 7080TIP3    H221184   6.237   0.037   4.359
 7081TIP3   OH221185   6.194   6.377   5.271
 7081TIP3    H121186   6.172   6.335   5.354
 7081TIP3    H221187   6.134   6.452   5.266
 7082TIP3   OH221188   1.092   0.213   2.259
 7082TIP3    H121189   1.179   0.252   2.265
 7082TIP3    H221190   1.080   0.170   2.344
 7083TIP3   OH221191   5.665   6.007   2.505
 7083TIP3    H121192   5.754   5.985   2.534
 7083TIP3    H221193   5.666   6.101   2.491
 7084TIP3   OH221194   1.965   6.098   3.918
 7084TIP3    H121195   1.972   6.189   3.944
 7084TIP3    H221196   1.933   6.053   3.996
 7085TIP3   OH221197   0.666   1.629   3.756
 7085TIP3    H121198   0.663   1.614   3.851
 7085TIP3    H221199   0.638   1.546   3.718
 7086TIP3   OH221200   4.054   2.451   1.914
 7086TIP3    H121201   4.130   2.507   1.899
 7086TIP3    H221202   4.007   2.451   1.831
 7087TIP3   OH221203   1.641   6.261   5.657
 7087TIP3    H121204   1.730   6.290   5.635
 7087TIP3    H221205   1.585   6.336   5.635
 7088TIP3   OH221206   3.509   7.177   5.871
 7088TIP3    H121207   3.604   7.170   5.885
 7088TIP3    H221208   3.483   7.253   5.923
 7089TIP3   OH221209   7.489   5.654   3.980
 7089TIP3    H121210   7.472   5.571   4.024
 7089TIP3    H221211   7.425   5.657   3.909
 7090TIP3   OH221212   7.424   1.710   0.848
 7090TIP3    H121213   7.469   1.640   0.801
 7090TIP3    H221214   7.416   1.678   0.938
 7091TIP3   OH221215   4.853   0.447   2.381
 7091TIP3    H121216   4.869   0.396   2.460
 7091TIP3    H221217   4.931   0.433   2.327
 7092TIP3   OH221218   7.261   1.106   6.357
 7092TIP3    H121219   7.196   1.086   6.424
 7092TIP3    H221220   7.216   1.165   6.296
 7093TIP3   OH221221   1.945   5.661   0.466
 7093TIP3    H121222   2.001   5.704   0.531
 7093TIP3    H221223   1.862   5.647   0.511
 7094TIP3   OH221224   5.601   6.246   6.706
 7094TIP3    H121225   5.511   6.261   6.676
 7094TIP3    H221226   5.652   6.236   6.625
 7095TIP3   OH221227   2.547   1.819   2.116
 7095TIP3    H121228   2.635   1.790   2.138
 7095TIP3    H221229   2.559   1.907   2.081
 7096TIP3   OH221230   0.725   2.930   6.293
 7096TIP3    H121231   0.692   2.847   6.259
 7096TIP3    H221232   0.820   2.922   6.289
 7097TIP3   OH221233   8.058   7.157   5.712
 7097TIP3    H121234   8.021   7.220   5.651
 7097TIP3    H221235   8.035   7.072   5.676
 7098TIP3   OH221236   6.883   0.097   1.628
 7098TIP3    H121237   6.817   0.090   1.558
 7098TIP3    H221238   6.954   0.146   1.588
 7099TIP3   OH221239   4.055   7.643   1.746
 7099TIP3    H121240   4.094   7.726   1.775
 7099TIP3    H221241   3.961   7.656   1.757
 7100TIP3   OH221242   4.376   7.151   3.865
 7100TIP3    H121243   4.355   7.236   3.826
 7100TIP3    H221244   4.460   7.127   3.826
 7101TIP3   OH221245   3.950   5.792   2.949
 7101TIP3    H121246   3.979   5.884   2.948
 7101TIP3    H221247   3.864   5.795   2.991
 7102TIP3   OH221248   2.750   5.412   0.938
 7102TIP3    H121249   2.674   5.423   0.881
 7102TIP3    H221250   2.713   5.407   1.026
 7103TIP3   OH221251   1.955   1.595   3.366
 7103TIP3    H121252   1.915   1.579   3.452
 7103TIP3    H221253   2.004   1.677   3.377
 7104TIP3   OH221254   5.476   2.113   0.487
 7104TIP3    H121255   5.456   2.021   0.500
 7104TIP3    H221256   5.435   2.135   0.403
 7105TIP3   OH221257   2.486   1.206   2.252
 7105TIP3    H121258   2.413   1.258   2.286
 7105TIP3    H221259   2.531   1.175   2.331
 7106TIP3   OH221260   1.988   5.902   3.721
 7106TIP3    H121261   1.979   5.942   3.807
 7106TIP3    H221262   2.023   5.972   3.666
 7107TIP3   OH221263   7.568   3.936   1.142
 7107TIP3    H121264   7.621   3.942   1.063
 7107TIP3    H221265   7.525   4.021   1.150
 7108TIP3   OH221266   8.097   6.010   6.560
 7108TIP3    H121267   8.039   6.000   6.485
 7108TIP3    H221268   8.113   5.921   6.591
 7109TIP3   OH221269   2.604   3.825   3.885
 7109TIP3    H121270   2.686   3.875   3.877
 7109TIP3    H221271   2.631   3.734   3.894
 7110TIP3   OH221272   2.807   6.675   1.388
 7110TIP3    H121273   2.794   6.600   1.447
 7110TIP3    H221274   2.774   6.644   1.304
 7111TIP3   OH221275   2.866   4.098   1.210
 7111TIP3    H121276   2.915   4.037   1.264
 7111TIP3    H221277   2.925   4.173   1.197
 7112TIP3   OH221278   4.000   6.765   6.008
 7112TIP3    H121279   4.047   6.808   5.936
 7112TIP3    H221280   3.912   6.803   6.004
 7113TIP3   OH221281   0.490   7.270   4.154
 7113TIP3    H121282   0.558   7.203   4.150
 7113TIP3    H221283   0.470   7.288   4.063
 7114TIP3   OH221284   4.038   6.219   6.580
 7114TIP3    H121285   3.988   6.138   6.589
 7114TIP3    H221286   4.097   6.203   6.506
 7115TIP3   OH221287   4.089   6.913   4.188
 7115TIP3    H121288   4.114   6.873   4.271
 7115TIP3    H221289   4.159   6.976   4.170
 7116TIP3   OH221290   1.011   5.475   0.221
 7116TIP3    H121291   0.936   5.438   0.175
 7116TIP3    H221292   1.087   5.431   0.183
 7117TIP3   OH221293   7.716   5.598   6.157
 7117TIP3    H121294   7.717   5.651   6.237
 7117TIP3    H221295   7.768   5.521   6.179
 7118TIP3   OH221296   7.923   7.170   1.792
 7118TIP3    H121297   7.945   7.258   1.762
 7118TIP3    H221298   7.940   7.172   1.887
 7119TIP3   OH221299   5.447   0.449   6.279
 7119TIP3    H121300   5.538   0.449   6.250
 7119TIP3    H221301   5.407   0.375   6.233
 7120TIP3   OH221302   4.975   0.588   6.699
 7120TIP3    H121303   4.961   0.537   6.620
 7120TIP3    H221304   4.934   0.537   6.769
 7121TIP3   OH221305   4.837   2.450   2.503
 7121TIP3    H121306   4.884   2.503   2.567
 7121TIP3    H221307   4.906   2.408   2.451
 7122TIP3   OH221308   6.124   2.763   5.860
 7122TIP3    H121309   6.051   2.746   5.920
 7122TIP3    H221310   6.090   2.827   5.798
 7123TIP3   OH221311   5.925   6.474   2.367
 7123TIP3    H121312   5.922   6.466   2.462
 7123TIP3    H221313   5.834   6.494   2.342
 7124TIP3   OH221314   8.171   5.207   0.163
 7124TIP3    H121315   8.150   5.250   0.246
 7124TIP3    H221316   8.092   5.157   0.140
 7125TIP3   OH221317   5.490   6.518   6.508
 7125TIP3    H121318   5.438   6.444   6.477
 7125TIP3    H221319   5.449   6.542   6.591
 7126TIP3   OH221320   6.926   0.739   3.286
 7126TIP3    H121321   6.965   0.805   3.344
 7126TIP3    H221322   6.839   0.723   3.324
 7127TIP3   OH221323   3.675   4.896   1.808
 7127TIP3    H121324   3.580   4.903   1.816
 7127TIP3    H221325   3.708   4.982   1.833
 7128TIP3   OH221326   2.950   1.419   3.264
 7128TIP3    H121327   2.874   1.465   3.300
 7128TIP3    H221328   3.011   1.412   3.338
 7129TIP3   OH221329   3.403   5.529   3.942
 7129TIP3    H121330   3.471   5.536   3.875
 7129TIP3    H221331   3.429   5.591   4.010
 7130TIP3   OH221332   3.825   1.104   0.490
 7130TIP3    H121333   3.773   1.032   0.456
 7130TIP3    H221334   3.772   1.182   0.474
 7131TIP3   OH221335   4.984   1.244   4.733
 7131TIP3    H121336   4.988   1.148   4.731
 7131TIP3    H221337   5.019   1.267   4.819
 7132TIP3   OH221338   2.186   7.342   1.413
 7132TIP3    H121339   2.263   7.291   1.438
 7132TIP3    H221340   2.118   7.314   1.473
 7133TIP3   OH221341   4.588   2.460   2.361
 7133TIP3    H121342   4.671   2.433   2.400
 7133TIP3    H221343   4.614   2.513   2.286
 7134TIP3   OH221344   7.901   0.568   0.225
 7134TIP3    H121345   7.860   0.489   0.190
 7134TIP3    H221346   7.831   0.614   0.271
 7135TIP3   OH221347   3.558   2.003   2.566
 7135TIP3    H121348   3.500   2.003   2.490
 7135TIP3    H221349   3.641   1.968   2.532
 7136TIP3   OH221350   1.136   4.489   3.272
 7136TIP3    H121351   1.047   4.463   3.247
 7136TIP3    H221352   1.168   4.537   3.196
 7137TIP3   OH221353   7.443   0.955   3.843
 7137TIP3    H121354   7.387   0.920   3.774
 7137TIP3    H221355   7.396   0.935   3.924
 7138TIP3   OH221356   7.378   5.097   2.621
 7138TIP3    H121357   7.431   5.097   2.701
 7138TIP3    H221358   7.433   5.142   2.557
 7139TIP3   OH221359   3.623   7.250   0.650
 7139TIP3    H121360   3.528   7.257   0.641
 7139TIP3    H221361   3.635   7.178   0.712
 7140TIP3   OH221362   7.421   0.757   6.049
 7140TIP3    H121363   7.416   0.793   6.137
 7140TIP3    H221364   7.476   0.679   6.058
 7141TIP3   OH221365   4.400   0.461   1.009
 7141TIP3    H121366   4.467   0.486   1.072
 7141TIP3    H221367   4.340   0.404   1.059
 7142TIP3   OH221368   0.106   0.944   4.044
 7142TIP3    H121369   0.118   0.956   4.138
 7142TIP3    H221370   0.185   0.899   4.015
 7143TIP3   OH221371   1.248   7.386   4.321
 7143TIP3    H121372   1.155   7.384   4.344
 7143TIP3    H221373   1.253   7.442   4.243
 7144TIP3   OH221374   8.266   3.795   3.372
 7144TIP3    H121375   8.227   3.715   3.335
 7144TIP3    H221376   8.309   3.837   3.297
 7145TIP3   OH221377   4.869   3.318   5.059
 7145TIP3    H121378   4.880   3.277   5.145
 7145TIP3    H221379   4.774   3.330   5.051
 7146TIP3   OH221380   1.163   6.383   1.629
 7146TIP3    H121381   1.135   6.447   1.695
 7146TIP3    H221382   1.205   6.314   1.679
 7147TIP3   OH221383   6.233   7.409   6.583
 7147TIP3    H121384   6.246   7.348   6.655
 7147TIP3    H221385   6.190   7.485   6.623
 7148TIP3   OH221386   6.618   3.754   4.778
 7148TIP3    H121387   6.660   3.677   4.740
 7148TIP3    H221388   6.570   3.720   4.853
 7149TIP3   OH221389   7.582   6.037   5.713
 7149TIP3    H121390   7.624   6.056   5.629
 7149TIP3    H221391   7.494   6.072   5.705
 7150TIP3   OH221392   7.889   3.749   1.147
 7150TIP3    H121393   7.857   3.778   1.061
 7150TIP3    H221394   7.891   3.829   1.200
 7151TIP3   OH221395   7.227   0.908   2.424
 7151TIP3    H121396   7.168   0.911   2.349
 7151TIP3    H221397   7.243   0.815   2.439
 7152TIP3   OH221398   3.947   0.517   5.451
 7152TIP3    H121399   4.018   0.453   5.456
 7152TIP3    H221400   3.990   0.599   5.426
 7153TIP3   OH221401   2.946   2.753   2.297
 7153TIP3    H121402   3.001   2.674   2.290
 7153TIP3    H221403   2.880   2.741   2.229
 7154TIP3   OH221404   6.196   2.809   4.154
 7154TIP3    H121405   6.255   2.865   4.204
 7154TIP3    H221406   6.240   2.795   4.070
 7155TIP3   OH221407   6.314   1.857   5.212
 7155TIP3    H121408   6.375   1.841   5.284
 7155TIP3    H221409   6.369   1.855   5.134
 7156TIP3   OH221410   0.390   2.950   1.893
 7156TIP3    H121411   0.355   3.038   1.900
 7156TIP3    H221412   0.436   2.935   1.976
 7157TIP3   OH221413   5.306   2.691   3.140
 7157TIP3    H121414   5.321   2.780   3.109
 7157TIP3    H221415   5.356   2.684   3.220
 7158TIP3   OH221416   5.535   1.433   1.654
 7158TIP3    H121417   5.618   1.471   1.683
 7158TIP3    H221418   5.560   1.366   1.591
 7159TIP3   OH221419   4.991   1.121   0.222
 7159TIP3    H121420   4.979   1.099   0.130
 7159TIP3    H221421   5.082   1.151   0.228
 7160TIP3   OH221422   4.233   7.231   5.578
 7160TIP3    H121423   4.232   7.312   5.629
 7160TIP3    H221424   4.238   7.161   5.643
 7161TIP3   OH221425   7.536   3.452   1.183
 7161TIP3    H121426   7.607   3.435   1.246
 7161TIP3    H221427   7.535   3.547   1.173
 7162TIP3   OH221428   5.636   0.617   1.234
 7162TIP3    H121429   5.728   0.622   1.262
 7162TIP3    H221430   5.623   0.695   1.181
 7163TIP3   OH221431   5.595   6.246   1.169
 7163TIP3    H121432   5.580   6.156   1.139
 7163TIP3    H221433   5.667   6.277   1.116
 7164TIP3   OH221434   7.422   1.479   5.458
 7164TIP3    H121435   7.369   1.547   5.417
 7164TIP3    H221436   7.451   1.517   5.541
 7165TIP3   OH221437   6.610   0.049   2.949
 7165TIP3    H121438   6.595   0.035   2.856
 7165TIP3    H221439   6.531   0.093   2.980
 7166TIP3   OH221440   5.008   6.001   1.888
 7166TIP3    H121441   5.019   6.087   1.927
 7166TIP3    H221442   4.922   6.005   1.845
 7167TIP3   OH221443   7.817   6.669   0.945
 7167TIP3    H121444   7.895   6.620   0.917
 7167TIP3    H221445   7.846   6.718   1.022
 7168TIP3   OH221446   0.237   4.057   2.005
 7168TIP3    H121447   0.220   4.048   2.099
 7168TIP3    H221448   0.289   4.137   1.998
 7169TIP3   OH221449   4.166   1.014   1.808
 7169TIP3    H121450   4.073   1.010   1.783
 7169TIP3    H221451   4.193   0.923   1.814
 7170TIP3   OH221452   5.109   3.578   0.393
 7170TIP3    H121453   5.023   3.540   0.411
 7170TIP3    H221454   5.165   3.502   0.376
 7171TIP3   OH221455   4.655   5.837   4.385
 7171TIP3    H121456   4.588   5.798   4.441
 7171TIP3    H221457   4.689   5.765   4.333
 7172TIP3   OH221458   8.222   1.068   3.303
 7172TIP3    H121459   8.260   1.147   3.340
 7172TIP3    H221460   8.173   1.099   3.226
 7173TIP3   OH221461   3.436   7.770   2.313
 7173TIP3    H121462   3.378   7.705   2.353
 7173TIP3    H221463   3.494   7.718   2.257
 7174TIP3   OH221464   4.064   5.626   1.054
 7174TIP3    H121465   4.108   5.627   0.969
 7174TIP3    H221466   3.972   5.610   1.032
 7175TIP3   OH221467   1.373   4.378   2.674
 7175TIP3    H121468   1.308   4.418   2.616
 7175TIP3    H221469   1.334   4.294   2.700
 7176TIP3   OH221470   1.932   5.382   2.291
 7176TIP3    H121471   1.967   5.406   2.377
 7176TIP3    H221472   1.849   5.338   2.311
 7177TIP3   OH221473   3.538   3.683   0.934
 7177TIP3    H121474   3.557   3.649   0.847
 7177TIP3    H221475   3.484   3.761   0.918
 7178TIP3   OH221476   7.490   7.616   2.608
 7178TIP3    H121477   7.541   7.655   2.537
 7178TIP3    H221478   7.512   7.669   2.685
 7179TIP3   OH221479   0.550   6.437   1.593
 7179TIP3    H121480   0.540   6.345   1.569
 7179TIP3    H221481   0.610   6.472   1.527
 7180TIP3   OH221482   5.589   6.340   3.688
 7180TIP3    H121483   5.677   6.323   3.720
 7180TIP3    H221484   5.552   6.402   3.751
 7181TIP3   OH221485   8.205   1.945   1.390
 7181TIP3    H121486   8.277   1.937   1.328
 7181TIP3    H221487   8.135   1.892   1.353
 7182TIP3   OH221488   1.546   2.056   1.592
 7182TIP3    H121489   1.605   2.100   1.531
 7182TIP3    H221490   1.599   2.041   1.670
 7183TIP3   OH221491   6.047   3.219   1.028
 7183TIP3    H121492   5.970   3.266   0.995
 7183TIP3    H221493   6.059   3.252   1.117
 7184TIP3   OH221494   6.122   2.494   1.617
 7184TIP3    H121495   6.140   2.400   1.614
 7184TIP3    H221496   6.202   2.533   1.654
 7185TIP3   OH221497   8.022   4.940   1.868
 7185TIP3    H121498   7.964   4.866   1.851
 7185TIP3    H221499   8.069   4.952   1.785
 7186TIP3   OH221500   1.710   2.959   1.931
 7186TIP3    H121501   1.761   3.039   1.918
 7186TIP3    H221502   1.677   2.966   2.021
 7187TIP3   OH221503   1.644   6.922   4.943
 7187TIP3    H121504   1.700   6.981   4.994
 7187TIP3    H221505   1.702   6.888   4.875
 7188TIP3   OH221506   2.422   6.980   0.698
 7188TIP3    H121507   2.385   6.938   0.621
 7188TIP3    H221508   2.471   7.054   0.664
 7189TIP3   OH221509   4.891   0.255   2.542
 7189TIP3    H121510   4.809   0.234   2.587
 7189TIP3    H221511   4.949   0.182   2.564
 7190TIP3   OH221512   3.634   6.116   6.307
 7190TIP3    H121513   3.709   6.057   6.311
 7190TIP3    H221514   3.559   6.061   6.328
 7191TIP3   OH221515   4.960   1.987   2.920
 7191TIP3    H121516   4.989   1.929   2.850
 7191TIP3    H221517   4.872   2.014   2.893
 7192TIP3   OH221518   1.850   7.475   1.415
 7192TIP3    H121519   1.767   7.503   1.378
 7192TIP3    H221520   1.916   7.494   1.348
 7193TIP3   OH221521   1.243   2.037   4.879
 7193TIP3    H121522   1.204   2.083   4.805
 7193TIP3    H221523   1.306   1.976   4.840
 7194TIP3   OH221524   4.434   7.201   1.727
 7194TIP3    H121525   4.527   7.193   1.750
 7194TIP3    H221526   4.406   7.282   1.769
 7195TIP3   OH221527   7.404   6.223   4.913
 7195TIP3    H121528   7.374   6.140   4.950
 7195TIP3    H221529   7.383   6.288   4.981
 7196TIP3   OH221530   4.449   1.074   6.220
 7196TIP3    H121531   4.514   1.051   6.154
 7196TIP3    H221532   4.407   0.990   6.242
 7197TIP3   OH221533   6.422   5.164   0.440
 7197TIP3    H121534   6.391   5.227   0.375
 7197TIP3    H221535   6.488   5.112   0.394
 7198TIP3   OH221536   8.031   5.803   0.685
 7198TIP3    H121537   7.982   5.726   0.713
 7198TIP3    H221538   8.100   5.768   0.629
 7199TIP3   OH221539   4.507   5.674   5.869
 7199TIP3    H121540   4.442   5.744   5.877
 7199TIP3    H221541   4.527   5.650   5.960
 7200TIP3   OH221542   2.094   6.459   0.022
 7200TIP3    H121543   2.104   6.370   0.056
 7200TIP3    H221544   2.100   6.449  -0.073
 7201TIP3   OH221545   4.999   6.410   3.786
 7201TIP3    H121546   4.947   6.353   3.843
 7201TIP3    H221547   4.967   6.498   3.806
 7202TIP3   OH221548   4.120   4.257   3.529
 7202TIP3    H121549   4.131   4.182   3.587
 7202TIP3    H221550   4.191   4.316   3.553
 7203TIP3   OH221551   6.382   6.874   0.482
 7203TIP3    H121552   6.475   6.889   0.501
 7203TIP3    H221553   6.378   6.783   0.455
 7204TIP3   OH221554   6.495   2.861   4.399
 7204TIP3    H121555   6.545   2.783   4.374
 7204TIP3    H221556   6.535   2.889   4.481
 7205TIP3   OH221557   6.995   2.626   6.175
 7205TIP3    H121558   7.059   2.693   6.202
 7205TIP3    H221559   6.928   2.675   6.128
 7206TIP3   OH221560   7.118   5.413   4.831
 7206TIP3    H121561   7.027   5.385   4.824
 7206TIP3    H221562   7.112   5.503   4.865
 7207TIP3   OH221563   6.947   2.250   0.649
 7207TIP3    H121564   6.965   2.162   0.615
 7207TIP3    H221565   6.852   2.255   0.654
 7208TIP3   OH221566   3.901   5.796   2.683
 7208TIP3    H121567   3.950   5.781   2.764
 7208TIP3    H221568   3.964   5.841   2.626
 7209TIP3   OH221569   7.587   1.504   2.871
 7209TIP3    H121570   7.646   1.502   2.795
 7209TIP3    H221571   7.643   1.488   2.946
 7210TIP3   OH221572   1.046   4.542   6.687
 7210TIP3    H121573   1.047   4.635   6.664
 7210TIP3    H221574   1.125   4.507   6.646
 7211TIP3   OH221575   8.292   2.094   4.686
 7211TIP3    H121576   8.250   2.179   4.689
 7211TIP3    H221577   8.225   2.033   4.717
 7212TIP3   OH221578   4.449   3.073   0.997
 7212TIP3    H121579   4.436   3.072   0.902
 7212TIP3    H221580   4.420   2.987   1.027
 7213TIP3   OH221581   6.311   3.503   6.817
 7213TIP3    H121582   6.306   3.561   6.741
 7213TIP3    H221583   6.268   3.422   6.788
 7214TIP3   OH221584   2.751   6.255   3.899
 7214TIP3    H121585   2.756   6.298   3.984
 7214TIP3    H221586   2.833   6.206   3.892
 7215TIP3   OH221587   1.773   4.511   1.626
 7215TIP3    H121588   1.740   4.487   1.539
 7215TIP3    H221589   1.750   4.604   1.635
 7216TIP3   OH221590   5.181   3.456   1.168
 7216TIP3    H121591   5.160   3.533   1.115
 7216TIP3    H221592   5.242   3.488   1.234
 7217TIP3   OH221593   5.539   2.448   1.441
 7217TIP3    H121594   5.588   2.388   1.496
 7217TIP3    H221595   5.603   2.516   1.417
 7218TIP3   OH221596   3.870   6.953   4.488
 7218TIP3    H121597   3.843   6.982   4.576
 7218TIP3    H221598   3.959   6.922   4.500
 7219TIP3   OH221599   1.308   1.758   6.181
 7219TIP3    H121600   1.225   1.750   6.134
 7219TIP3    H221601   1.300   1.840   6.230
 7220TIP3   OH221602   6.099   3.573   3.855
 7220TIP3    H121603   6.041   3.567   3.931
 7220TIP3    H221604   6.069   3.504   3.796
 7221TIP3   OH221605   0.729   1.954   3.474
 7221TIP3    H121606   0.763   1.867   3.495
 7221TIP3    H221607   0.643   1.958   3.517
 7222TIP3   OH221608   3.976   4.844   6.021
 7222TIP3    H121609   4.039   4.885   6.081
 7222TIP3    H221610   3.975   4.752   6.046
 7223TIP3   OH221611   5.178   5.318   0.635
 7223TIP3    H121612   5.240   5.258   0.595
 7223TIP3    H221613   5.109   5.262   0.669
 7224TIP3   OH221614   3.678   6.185   3.699
 7224TIP3    H121615   3.647   6.195   3.609
 7224TIP3    H221616   3.683   6.090   3.712
 7225TIP3   OH221617   2.257   5.090   2.145
 7225TIP3    H121618   2.165   5.093   2.119
 7225TIP3    H221619   2.299   5.159   2.092
 7226TIP3   OH221620   5.331   0.996   1.053
 7226TIP3    H121621   5.346   1.084   1.089
 7226TIP3    H221622   5.237   0.983   1.062
 7227TIP3   OH221623   3.889   2.836   6.771
 7227TIP3    H121624   3.852   2.772   6.710
 7227TIP3    H221625   3.969   2.794   6.804
 7228TIP3   OH221626   3.451   2.708   0.970
 7228TIP3    H121627   3.479   2.660   0.893
 7228TIP3    H221628   3.357   2.720   0.959
 7229TIP3   OH221629   5.768   2.013   1.417
 7229TIP3    H121630   5.711   2.084   1.445
 7229TIP3    H221631   5.720   1.933   1.438
 7230TIP3   OH221632   2.005   2.218   1.057
 7230TIP3    H121633   2.077   2.277   1.033
 7230TIP3    H221634   2.023   2.195   1.149
 7231TIP3   OH221635   7.700   2.471   3.964
 7231TIP3    H121636   7.608   2.492   3.980
 7231TIP3    H221637   7.709   2.381   3.995
 7232TIP3   OH221638   4.246   0.444   3.143
 7232TIP3    H121639   4.335   0.459   3.175
 7232TIP3    H221640   4.242   0.350   3.126
 7233TIP3   OH221641   2.311   2.636   5.154
 7233TIP3    H121642   2.253   2.680   5.091
 7233TIP3    H221643   2.399   2.663   5.128
 7234TIP3   OH221644   5.096   6.944   6.505
 7234TIP3    H121645   5.067   7.035   6.500
 7234TIP3    H221646   5.097   6.924   6.599
 7235TIP3   OH221647   6.888   5.501   2.128
 7235TIP3    H121648   6.944   5.425   2.144
 7235TIP3    H221649   6.856   5.489   2.039
 7236TIP3   OH221650   1.485   7.624   3.368
 7236TIP3    H121651   1.407   7.570   3.381
 7236TIP3    H221652   1.471   7.701   3.424
 7237TIP3   OH221653   7.869   3.350   2.527
 7237TIP3    H121654   7.856   3.281   2.592
 7237TIP3    H221655   7.867   3.431   2.578
 7238TIP3   OH221656   6.106   1.694   5.699
 7238TIP3    H121657   6.017   1.730   5.693
 7238TIP3    H221658   6.163   1.770   5.686
 7239TIP3   OH221659   0.425   1.650   5.119
 7239TIP3    H121660   0.369   1.592   5.067
 7239TIP3    H221661   0.484   1.690   5.055
 7240TIP3   OH221662   2.305   5.697   4.755
 7240TIP3    H121663   2.317   5.615   4.804
 7240TIP3    H221664   2.365   5.690   4.681
 7241TIP3   OH221665   5.795   6.653   5.986
 7241TIP3    H121666   5.810   6.743   6.014
 7241TIP3    H221667   5.724   6.622   6.041
 7242TIP3   OH221668   4.202   1.782   6.647
 7242TIP3    H121669   4.267   1.850   6.661
 7242TIP3    H221670   4.118   1.828   6.643
 7243TIP3   OH221671   5.885   0.241   6.692
 7243TIP3    H121672   5.841   0.246   6.777
 7243TIP3    H221673   5.948   0.169   6.702
 7244TIP3   OH221674   4.417   2.962   6.173
 7244TIP3    H121675   4.324   2.984   6.178
 7244TIP3    H221676   4.460   3.024   6.232
 7245TIP3   OH221677   4.424   2.095   4.377
 7245TIP3    H121678   4.472   2.068   4.456
 7245TIP3    H221679   4.335   2.110   4.408
 7246TIP3   OH221680   6.907   4.752   0.013
 7246TIP3    H121681   6.967   4.685  -0.021
 7246TIP3    H221682   6.908   4.821  -0.052
 7247TIP3   OH221683   1.858   7.228   0.945
 7247TIP3    H121684   1.903   7.298   0.897
 7247TIP3    H221685   1.917   7.207   1.017
 7248TIP3   OH221686   5.404   2.969   0.121
 7248TIP3    H121687   5.459   3.047   0.108
 7248TIP3    H221688   5.320   3.003   0.150
 7249TIP3   OH221689   0.122   3.507   3.077
 7249TIP3    H121690   0.200   3.509   3.022
 7249TIP3    H221691   0.148   3.457   3.154
 7250TIP3   OH221692   7.316   3.046   6.257
 7250TIP3    H121693   7.333   3.046   6.352
 7250TIP3    H221694   7.349   3.131   6.227
 7251TIP3   OH221695   2.749   1.779   4.566
 7251TIP3    H121696   2.802   1.859   4.565
 7251TIP3    H221697   2.752   1.748   4.475
 7252TIP3   OH221698   3.317   0.107   3.617
 7252TIP3    H121699   3.226   0.124   3.594
 7252TIP3    H221700   3.313   0.043   3.688
 7253TIP3   OH221701   3.570   5.988   6.012
 7253TIP3    H121702   3.478   6.013   6.011
 7253TIP3    H221703   3.614   6.056   5.962
 7254TIP3   OH221704   4.286   1.091   5.544
 7254TIP3    H121705   4.197   1.099   5.512
 7254TIP3    H221706   4.340   1.083   5.465
 7255TIP3   OH221707   1.633   6.837   5.352
 7255TIP3    H121708   1.660   6.878   5.434
 7255TIP3    H221709   1.588   6.907   5.304
 7256TIP3   OH221710   5.234   7.225   4.984
 7256TIP3    H121711   5.165   7.292   4.988
 7256TIP3    H221712   5.279   7.242   4.901
 7257TIP3   OH221713   7.593   4.719   5.033
 7257TIP3    H121714   7.664   4.719   5.097
 7257TIP3    H221715   7.614   4.648   4.973
 7258TIP3   OH221716   2.805   6.217   1.114
 7258TIP3    H121717   2.737   6.284   1.125
 7258TIP3    H221718   2.767   6.138   1.152
 7259TIP3   OH221719   1.409   7.153   4.380
 7259TIP3    H121720   1.353   7.229   4.366
 7259TIP3    H221721   1.366   7.082   4.331
 7260TIP3   OH221722   1.861   2.466   5.485
 7260TIP3    H121723   1.877   2.382   5.443
 7260TIP3    H221724   1.937   2.480   5.541
 7261TIP3   OH221725   2.104   5.804   0.275
 7261TIP3    H121726   2.071   5.869   0.213
 7261TIP3    H221727   2.026   5.759   0.307
 7262TIP3   OH221728   2.948   4.031   0.698
 7262TIP3    H121729   2.869   4.041   0.751
 7262TIP3    H221730   3.010   4.093   0.735
 7263TIP3   OH221731   5.784   6.660   4.463
 7263TIP3    H121732   5.795   6.741   4.414
 7263TIP3    H221733   5.833   6.674   4.545
 7264TIP3   OH221734   6.499   1.358   4.451
 7264TIP3    H121735   6.428   1.294   4.446
 7264TIP3    H221736   6.548   1.346   4.369
 7265TIP3   OH221737   2.263   5.421   2.749
 7265TIP3    H121738   2.350   5.461   2.745
 7265TIP3    H221739   2.274   5.334   2.709
 7266TIP3   OH221740   0.691   7.097   4.084
 7266TIP3    H121741   0.779   7.066   4.103
 7266TIP3    H221742   0.684   7.092   3.988
 7267TIP3   OH221743   7.581   6.821   5.166
 7267TIP3    H121744   7.544   6.791   5.083
 7267TIP3    H221745   7.546   6.910   5.177
 7268TIP3   OH221746   2.317   1.316   2.979
 7268TIP3    H121747   2.273   1.345   2.899
 7268TIP3    H221748   2.360   1.234   2.954
 7269TIP3   OH221749   7.406   5.302   3.738
 7269TIP3    H121750   7.484   5.323   3.789
 7269TIP3    H221751   7.410   5.362   3.663
 7270TIP3   OH221752   6.099   1.561   5.976
 7270TIP3    H121753   6.119   1.468   5.984
 7270TIP3    H221754   6.024   1.565   5.916
 7271TIP3   OH221755   6.559   1.180   2.004
 7271TIP3    H121756   6.515   1.248   1.953
 7271TIP3    H221757   6.507   1.101   1.989
 7272TIP3   OH221758   5.990   2.250   4.303
 7272TIP3    H121759   5.979   2.195   4.380
 7272TIP3    H221760   5.963   2.337   4.332
 7273TIP3   OH221761   8.046   3.838   0.786
 7273TIP3    H121762   7.967   3.804   0.827
 7273TIP3    H221763   8.109   3.766   0.792
 7274TIP3   OH221764   2.489   2.660   1.865
 7274TIP3    H121765   2.415   2.612   1.829
 7274TIP3    H221766   2.522   2.604   1.936
 7275TIP3   OH221767   4.548   2.312   5.596
 7275TIP3    H121768   4.492   2.237   5.615
 7275TIP3    H221769   4.530   2.333   5.504
 7276TIP3   OH221770   7.643   7.795   2.172
 7276TIP3    H121771   7.672   7.742   2.097
 7276TIP3    H221772   7.549   7.806   2.158
 7277TIP3   OH221773   1.172   6.958   4.703
 7277TIP3    H121774   1.266   6.972   4.708
 7277TIP3    H221775   1.135   7.046   4.697
 7278TIP3   OH221776   2.479   3.916   2.043
 7278TIP3    H121777   2.418   3.877   2.106
 7278TIP3    H221778   2.434   3.994   2.010
 7279TIP3   OH221779   1.105   2.631   0.199
 7279TIP3    H121780   1.044   2.567   0.162
 7279TIP3    H221781   1.057   2.713   0.198
 7280TIP3   OH221782   2.494   1.025   3.965
 7280TIP3    H121783   2.415   1.057   3.922
 7280TIP3    H221784   2.477   1.036   4.058
 7281TIP3   OH221785   0.877   2.969   5.338
 7281TIP3    H121786   0.837   3.056   5.341
 7281TIP3    H221787   0.828   2.923   5.270
 7282TIP3   OH221788   1.169   7.154   3.646
 7282TIP3    H121789   1.260   7.180   3.635
 7282TIP3    H221790   1.125   7.181   3.565
 7283TIP3   OH221791   3.496   6.219   4.740
 7283TIP3    H121792   3.555   6.254   4.673
 7283TIP3    H221793   3.432   6.167   4.692
 7284TIP3   OH221794   6.893   1.996   0.543
 7284TIP3    H121795   6.823   1.934   0.562
 7284TIP3    H221796   6.973   1.952   0.574
 7285TIP3   OH221797   8.289   4.142   5.212
 7285TIP3    H121798   8.230   4.189   5.153
 7285TIP3    H221799   8.371   4.191   5.208
 7286TIP3   OH221800   2.596   1.162   6.103
 7286TIP3    H121801   2.689   1.144   6.089
 7286TIP3    H221802   2.588   1.175   6.198
 7287TIP3   OH221803   0.743   3.886   5.247
 7287TIP3    H121804   0.829   3.920   5.223
 7287TIP3    H221805   0.695   3.882   5.164
 7288TIP3   OH221806   1.371   3.298   2.327
 7288TIP3    H121807   1.445   3.352   2.298
 7288TIP3    H221808   1.411   3.226   2.375
 7289TIP3   OH221809   4.250   0.703   0.864
 7289TIP3    H121810   4.277   0.613   0.880
 7289TIP3    H221811   4.332   0.751   0.851
 7290TIP3   OH221812   5.790   2.955   4.411
 7290TIP3    H121813   5.789   2.999   4.497
 7290TIP3    H221814   5.863   2.995   4.365
 7291TIP3   OH221815   2.361   5.202   4.012
 7291TIP3    H121816   2.379   5.151   3.933
 7291TIP3    H221817   2.355   5.293   3.982
 7292TIP3   OH221818   1.966   3.040   3.501
 7292TIP3    H121819   2.021   3.113   3.472
 7292TIP3    H221820   1.922   3.009   3.422
 7293TIP3   OH221821   5.441   1.063   3.062
 7293TIP3    H121822   5.491   1.144   3.070
 7293TIP3    H221823   5.440   1.026   3.150
 7294TIP3   OH221824   5.714   4.983   0.327
 7294TIP3    H121825   5.641   4.922   0.316
 7294TIP3    H221826   5.788   4.928   0.352
 7295TIP3   OH221827   3.965   5.633   6.638
 7295TIP3    H121828   4.056   5.620   6.665
 7295TIP3    H221829   3.913   5.605   6.713
 7296TIP3   OH221830   5.816   7.729   4.509
 7296TIP3    H121831   5.839   7.799   4.570
 7296TIP3    H221832   5.899   7.703   4.470
 7297TIP3   OH221833   4.684   1.563   6.474
 7297TIP3    H121834   4.762   1.610   6.444
 7297TIP3    H221835   4.611   1.620   6.452
 7298TIP3   OH221836   6.210   1.766   3.166
 7298TIP3    H121837   6.233   1.706   3.094
 7298TIP3    H221838   6.286   1.765   3.224
 7299TIP3   OH221839   5.384   5.492   1.081
 7299TIP3    H121840   5.357   5.574   1.123
 7299TIP3    H221841   5.388   5.514   0.988
 7300TIP3   OH221842   7.175   7.055   5.438
 7300TIP3    H121843   7.098   7.109   5.422
 7300TIP3    H221844   7.222   7.099   5.509
 7301TIP3   OH221845   4.308   1.956   1.325
 7301TIP3    H121846   4.228   2.008   1.322
 7301TIP3    H221847   4.378   2.021   1.320
 7302TIP3   OH221848   0.663   4.383   0.964
 7302TIP3    H121849   0.616   4.355   1.042
 7302TIP3    H221850   0.712   4.460   0.991
 7303TIP3   OH221851   6.810   6.925   2.509
 7303TIP3    H121852   6.899   6.953   2.533
 7303TIP3    H221853   6.762   7.007   2.497
 7304TIP3   OH221854   5.672   5.302   4.565
 7304TIP3    H121855   5.709   5.217   4.587
 7304TIP3    H221856   5.641   5.292   4.475
 7305TIP3   OH221857   7.324   6.433   4.143
 7305TIP3    H121858   7.339   6.375   4.217
 7305TIP3    H221859   7.228   6.436   4.133
 7306TIP3   OH221860   4.600   0.935   0.194
 7306TIP3    H121861   4.663   0.939   0.122
 7306TIP3    H221862   4.530   0.878   0.162
 7307TIP3   OH221863   3.596   6.657   0.985
 7307TIP3    H121864   3.644   6.725   1.033
 7307TIP3    H221865   3.526   6.631   1.044
 7308TIP3   OH221866   4.102   7.689   5.535
 7308TIP3    H121867   4.174   7.750   5.550
 7308TIP3    H221868   4.144   7.607   5.508
 7309TIP3   OH221869   0.959   0.499   6.006
 7309TIP3    H121870   0.879   0.552   6.011
 7309TIP3    H221871   0.973   0.469   6.096
 7310TIP3   OH221872   0.093   7.718   2.397
 7310TIP3    H121873   0.116   7.810   2.410
 7310TIP3    H221874   0.140   7.672   2.466
 7311TIP3   OH221875   0.167   7.618   4.944
 7311TIP3    H121876   0.176   7.594   5.036
 7311TIP3    H221877   0.128   7.706   4.947
 7312TIP3   OH221878   2.491   4.439   1.202
 7312TIP3    H121879   2.573   4.412   1.243
 7312TIP3    H221880   2.476   4.373   1.133
 7313TIP3   OH221881   2.190   6.434   6.133
 7313TIP3    H121882   2.118   6.480   6.176
 7313TIP3    H221883   2.183   6.458   6.041
 7314TIP3   OH221884   0.327   5.541   3.666
 7314TIP3    H121885   0.234   5.553   3.684
 7314TIP3    H221886   0.344   5.598   3.591
 7315TIP3   OH221887   4.169   2.524   3.397
 7315TIP3    H121888   4.241   2.579   3.428
 7315TIP3    H221889   4.204   2.480   3.319
 7316TIP3   OH221890   7.390   6.655   0.140
 7316TIP3    H121891   7.440   6.599   0.081
 7316TIP3    H221892   7.392   6.609   0.224
 7317TIP3   OH221893   6.657   0.490   4.495
 7317TIP3    H121894   6.569   0.481   4.459
 7317TIP3    H221895   6.646   0.543   4.574
 7318TIP3   OH221896   0.995   5.956   6.309
 7318TIP3    H121897   0.937   6.031   6.294
 7318TIP3    H221898   1.026   5.932   6.222
 7319TIP3   OH221899   0.790   4.767   1.038
 7319TIP3    H121900   0.705   4.739   1.073
 7319TIP3    H221901   0.776   4.769   0.943
 7320TIP3   OH221902   5.110   1.657   4.721
 7320TIP3    H121903   5.057   1.651   4.642
 7320TIP3    H221904   5.190   1.701   4.693
 7321TIP3   OH221905   3.908   1.575   1.192
 7321TIP3    H121906   3.840   1.603   1.252
 7321TIP3    H221907   3.970   1.648   1.190
 7322TIP3   OH221908   1.558   1.844   2.897
 7322TIP3    H121909   1.517   1.862   2.982
 7322TIP3    H221910   1.485   1.831   2.837
 7323TIP3   OH221911   3.178   0.759   4.448
 7323TIP3    H121912   3.223   0.809   4.380
 7323TIP3    H221913   3.179   0.668   4.415
 7324TIP3   OH221914   6.960   1.673   2.605
 7324TIP3    H121915   6.880   1.665   2.657
 7324TIP3    H221916   6.946   1.615   2.530
 7325TIP3   OH221917   1.365   1.740   1.231
 7325TIP3    H121918   1.285   1.791   1.218
 7325TIP3    H221919   1.396   1.764   1.318
 7326TIP3   OH221920   1.195   0.231   5.964
 7326TIP3    H121921   1.286   0.208   5.981
 7326TIP3    H221922   1.195   0.326   5.954
 7327TIP3   OH221923   1.937   6.542   2.624
 7327TIP3    H121924   1.988   6.578   2.697
 7327TIP3    H221925   2.002   6.529   2.555
 7328TIP3   OH221926   5.897   2.771   5.272
 7328TIP3    H121927   5.857   2.686   5.254
 7328TIP3    H221928   5.843   2.834   5.224
 7329TIP3   OH221929   1.107   2.501   2.395
 7329TIP3    H121930   1.174   2.561   2.428
 7329TIP3    H221931   1.035   2.507   2.458
 7330TIP3   OH221932   3.850   1.060   4.363
 7330TIP3    H121933   3.861   0.964   4.362
 7330TIP3    H221934   3.758   1.074   4.342
 7331TIP3   OH221935   6.991   7.767   3.876
 7331TIP3    H121936   7.026   7.827   3.941
 7331TIP3    H221937   7.063   7.708   3.856
 7332TIP3   OH221938   1.330   4.610   1.607
 7332TIP3    H121939   1.402   4.599   1.669
 7332TIP3    H221940   1.286   4.525   1.608
 7333TIP3   OH221941   2.992   3.013   6.004
 7333TIP3    H121942   2.955   3.021   6.091
 7333TIP3    H221943   2.972   2.923   5.978
 7334TIP3   OH221944   4.603   2.369   0.989
 7334TIP3    H121945   4.656   2.300   0.950
 7334TIP3    H221946   4.628   2.370   1.081
 7335TIP3   OH221947   8.096   1.829   4.016
 7335TIP3    H121948   8.129   1.841   4.105
 7335TIP3    H221949   8.122   1.909   3.970
 7336TIP3   OH221950   6.458   6.506   0.042
 7336TIP3    H121951   6.544   6.468   0.057
 7336TIP3    H221952   6.408   6.437  -0.002
 7337TIP3   OH221953   0.405   7.121   5.915
 7337TIP3    H121954   0.335   7.166   5.868
 7337TIP3    H221955   0.371   7.107   6.003
 7338TIP3   OH221956   6.028   5.617   2.106
 7338TIP3    H121957   6.115   5.598   2.140
 7338TIP3    H221958   6.034   5.708   2.075
 7339TIP3   OH221959   6.940   2.519   2.838
 7339TIP3    H121960   7.002   2.588   2.817
 7339TIP3    H221961   6.974   2.479   2.917
 7340TIP3   OH221962   3.547   1.923   5.961
 7340TIP3    H121963   3.509   1.840   5.991
 7340TIP3    H221964   3.478   1.963   5.907
 7341TIP3   OH221965   2.763   2.064   4.808
 7341TIP3    H121966   2.846   2.055   4.855
 7341TIP3    H221967   2.765   2.153   4.773
 7342TIP3   OH221968   8.203   6.223   0.354
 7342TIP3    H121969   8.173   6.312   0.374
 7342TIP3    H221970   8.209   6.221   0.258
 7343TIP3   OH221971   4.855   3.772   1.023
 7343TIP3    H121972   4.805   3.738   0.948
 7343TIP3    H221973   4.857   3.699   1.085
 7344TIP3   OH221974   5.839   1.134   6.106
 7344TIP3    H121975   5.804   1.049   6.134
 7344TIP3    H221976   5.767   1.176   6.059
 7345TIP3   OH221977   5.766   7.266   0.991
 7345TIP3    H121978   5.735   7.357   0.997
 7345TIP3    H221979   5.726   7.222   1.065
 7346TIP3   OH221980   6.556   1.243   0.175
 7346TIP3    H121981   6.531   1.151   0.181
 7346TIP3    H221982   6.501   1.278   0.105
 7347TIP3   OH221983   4.120   1.383   2.567
 7347TIP3    H121984   4.025   1.376   2.558
 7347TIP3    H221985   4.147   1.437   2.492
 7348TIP3   OH221986   1.499   4.561   1.807
 7348TIP3    H121987   1.536   4.474   1.790
 7348TIP3    H221988   1.422   4.544   1.861
 7349TIP3   OH221989   4.823   6.309   3.986
 7349TIP3    H121990   4.837   6.251   4.061
 7349TIP3    H221991   4.747   6.272   3.941
 7350TIP3   OH221992   1.292   3.133   0.685
 7350TIP3    H121993   1.327   3.158   0.771
 7350TIP3    H221994   1.352   3.173   0.622
 7351TIP3   OH221995   7.486   0.248   5.415
 7351TIP3    H121996   7.561   0.288   5.372
 7351TIP3    H221997   7.495   0.155   5.397
 7352TIP3   OH221998   6.225   0.891   2.237
 7352TIP3    H121999   6.150   0.915   2.293
 7352TIP3    H222000   6.246   0.972   2.190
 7353TIP3   OH222001   7.327   5.170   6.317
 7353TIP3    H122002   7.348   5.260   6.294
 7353TIP3    H222003   7.405   5.137   6.361
 7354TIP3   OH222004   1.869   6.205   5.326
 7354TIP3    H122005   1.865   6.109   5.326
 7354TIP3    H222006   1.816   6.232   5.251
 7355TIP3   OH222007   1.210   1.174   0.533
 7355TIP3    H122008   1.237   1.266   0.541
 7355TIP3    H222009   1.117   1.175   0.557
 7356TIP3   OH222010   7.935   7.603   4.789
 7356TIP3    H122011   7.975   7.630   4.871
 7356TIP3    H222012   8.009   7.592   4.729
 7357TIP3   OH222013   4.602   3.940   4.175
 7357TIP3    H122014   4.571   4.019   4.131
 7357TIP3    H222015   4.539   3.925   4.245
 7358TIP3   OH222016   4.811   1.245   0.760
 7358TIP3    H122017   4.818   1.157   0.797
 7358TIP3    H222018   4.728   1.245   0.712
 7359TIP3   OH222019   6.229   3.937   6.111
 7359TIP3    H122020   6.223   4.033   6.104
 7359TIP3    H222021   6.168   3.914   6.180
 7360TIP3   OH222022   6.385   2.914   0.762
 7360TIP3    H122023   6.372   2.955   0.847
 7360TIP3    H222024   6.307   2.936   0.711
 7361TIP3   OH222025   5.674   0.333   0.857
 7361TIP3    H122026   5.649   0.360   0.768
 7361TIP3    H222027   5.707   0.244   0.846
 7362TIP3   OH222028   7.213   7.195   4.434
 7362TIP3    H122029   7.223   7.287   4.458
 7362TIP3    H222030   7.286   7.177   4.375
 7363TIP3   OH222031   7.933   1.333   3.901
 7363TIP3    H122032   7.948   1.351   3.808
 7363TIP3    H222033   8.006   1.376   3.945
 7364TIP3   OH222034   2.327   6.020   5.553
 7364TIP3    H122035   2.339   6.092   5.491
 7364TIP3    H222036   2.256   6.049   5.610
 7365TIP3   OH222037   0.674   2.413   4.422
 7365TIP3    H122038   0.692   2.361   4.501
 7365TIP3    H222039   0.682   2.504   4.451
 7366TIP3   OH222040   4.178   4.811   0.454
 7366TIP3    H122041   4.163   4.829   0.547
 7366TIP3    H222042   4.231   4.885   0.423
 7367TIP3   OH222043   0.035   1.112   6.116
 7367TIP3    H122044   0.045   1.195   6.068
 7367TIP3    H222045   0.015   1.139   6.206
 7368TIP3   OH222046   4.186   5.038   4.279
 7368TIP3    H122047   4.187   4.985   4.358
 7368TIP3    H222048   4.136   4.986   4.216
 7369TIP3   OH222049   0.099   2.307   5.593
 7369TIP3    H122050   0.103   2.399   5.618
 7369TIP3    H222051   0.181   2.270   5.626
 7370TIP3   OH222052   6.179   0.801   4.213
 7370TIP3    H122053   6.181   0.817   4.308
 7370TIP3    H222054   6.127   0.874   4.179
 7371TIP3   OH222055   3.992   6.738   3.016
 7371TIP3    H122056   3.980   6.651   2.976
 7371TIP3    H222057   4.027   6.719   3.103
 7372TIP3   OH222058   5.174   0.794   3.961
 7372TIP3    H122059   5.266   0.771   3.946
 7372TIP3    H222060   5.146   0.734   4.031
 7373TIP3   OH222061   5.395   1.834   1.292
 7373TIP3    H122062   5.393   1.928   1.279
 7373TIP3    H222063   5.305   1.809   1.310
 7374TIP3   OH222064   7.045   5.178   2.984
 7374TIP3    H122065   6.954   5.178   2.955
 7374TIP3    H222066   7.089   5.239   2.924
 7375TIP3   OH222067   3.779   6.403   2.486
 7375TIP3    H122068   3.791   6.318   2.444
 7375TIP3    H222069   3.684   6.416   2.488
 7376TIP3   OH222070   5.376   7.436   5.283
 7376TIP3    H122071   5.470   7.433   5.302
 7376TIP3    H222072   5.368   7.400   5.195
 7377TIP3   OH222073   3.404   4.102   3.082
 7377TIP3    H122074   3.452   4.116   3.000
 7377TIP3    H222075   3.472   4.079   3.146
 7378TIP3   OH222076   4.639   3.850   0.183
 7378TIP3    H122077   4.550   3.820   0.201
 7378TIP3    H222078   4.690   3.770   0.169
 7379TIP3   OH222079   8.005   7.066   6.140
 7379TIP3    H122080   8.030   6.994   6.082
 7379TIP3    H222081   7.926   7.034   6.184
 7380TIP3   OH222082   5.347   2.205   6.594
 7380TIP3    H122083   5.312   2.145   6.529
 7380TIP3    H222084   5.348   2.155   6.675
 7381TIP3   OH222085   7.531   1.256   6.458
 7381TIP3    H122086   7.559   1.296   6.375
 7381TIP3    H222087   7.454   1.204   6.435
 7382TIP3   OH222088   2.293   6.628   3.289
 7382TIP3    H122089   2.313   6.661   3.376
 7382TIP3    H222090   2.327   6.695   3.229
 7383TIP3   OH222091   0.723   7.475   6.319
 7383TIP3    H122092   0.641   7.515   6.347
 7383TIP3    H222093   0.708   7.381   6.328
 7384TIP3   OH222094   5.833   7.389   2.394
 7384TIP3    H122095   5.905   7.412   2.452
 7384TIP3    H222096   5.829   7.293   2.398
 7385TIP3   OH222097   4.158   5.044   3.668
 7385TIP3    H122098   4.193   5.071   3.583
 7385TIP3    H222099   4.229   4.997   3.710
 7386TIP3   OH222100   1.122   3.918   0.053
 7386TIP3    H122101   1.124   4.000   0.004
 7386TIP3    H222102   1.071   3.937   0.131
 7387TIP3   OH222103   7.946   3.589   6.645
 7387TIP3    H122104   8.003   3.537   6.589
 7387TIP3    H222105   8.003   3.620   6.715
 7388TIP3   OH222106   0.944   7.028   1.237
 7388TIP3    H122107   1.028   7.013   1.193
 7388TIP3    H222108   0.964   7.016   1.330
 7389TIP3   OH222109   0.463   0.748   5.526
 7389TIP3    H122110   0.490   0.803   5.600
 7389TIP3    H222111   0.435   0.810   5.459
 7390TIP3   OH222112   7.834   6.269   6.090
 7390TIP3    H122113   7.848   6.347   6.036
 7390TIP3    H222114   7.890   6.282   6.167
 7391TIP3   OH222115   2.183   3.918   5.747
 7391TIP3    H122116   2.272   3.886   5.735
 7391TIP3    H222117   2.134   3.880   5.674
 7392TIP3   OH222118   5.463   4.661   4.521
 7392TIP3    H122119   5.421   4.725   4.579
 7392TIP3    H222120   5.414   4.581   4.534
 7393TIP3   OH222121   0.798   3.428   5.079
 7393TIP3    H122122   0.854   3.439   5.156
 7393TIP3    H222123   0.786   3.517   5.045
 7394TIP3   OH222124   2.556   6.694   0.783
 7394TIP3    H122125   2.607   6.645   0.719
 7394TIP3    H222126   2.516   6.765   0.732
 7395TIP3   OH222127   6.425   4.715   0.116
 7395TIP3    H122128   6.444   4.723   0.210
 7395TIP3    H222129   6.329   4.708   0.112
 7396TIP3   OH222130   3.275   0.916   5.420
 7396TIP3    H122131   3.354   0.956   5.456
 7396TIP3    H222132   3.237   0.867   5.493
 7397TIP3   OH222133   7.500   5.155   4.109
 7397TIP3    H122134   7.564   5.115   4.168
 7397TIP3    H222135   7.461   5.081   4.062
 7398TIP3   OH222136   6.808   0.772   4.121
 7398TIP3    H122137   6.745   0.761   4.193
 7398TIP3    H222138   6.880   0.713   4.143
 7399TIP3   OH222139   3.144   1.311   0.150
 7399TIP3    H122140   3.136   1.400   0.184
 7399TIP3    H222141   3.054   1.280   0.144
 7400TIP3   OH222142   6.902   0.591   4.327
 7400TIP3    H122143   6.829   0.535   4.352
 7400TIP3    H222144   6.898   0.664   4.389
 7401TIP3   OH222145   5.907   4.574   6.602
 7401TIP3    H122146   5.984   4.551   6.550
 7401TIP3    H222147   5.919   4.528   6.685
 7402TIP3   OH222148   4.200   5.311   4.321
 7402TIP3    H122149   4.289   5.325   4.288
 7402TIP3    H222150   4.189   5.216   4.321
 7403TIP3   OH222151   5.478   6.922   2.150
 7403TIP3    H122152   5.569   6.939   2.173
 7403TIP3    H222153   5.476   6.926   2.054
 7404TIP3   OH222154   1.618   3.918   6.670
 7404TIP3    H122155   1.705   3.958   6.669
 7404TIP3    H222156   1.618   3.863   6.749
 7405TIP3   OH222157   3.182   7.638   3.642
 7405TIP3    H122158   3.260   7.668   3.688
 7405TIP3    H222159   3.172   7.547   3.670
 7406TIP3   OH222160   5.701   7.630   3.382
 7406TIP3    H122161   5.706   7.693   3.454
 7406TIP3    H222162   5.624   7.577   3.401
 7407TIP3   OH222163   5.188   2.189   2.707
 7407TIP3    H122164   5.124   2.254   2.737
 7407TIP3    H222165   5.200   2.132   2.783
 7408TIP3   OH222166   4.728   1.565   2.244
 7408TIP3    H122167   4.728   1.613   2.160
 7408TIP3    H222168   4.764   1.628   2.307
 7409TIP3   OH222169   1.844   0.234   6.608
 7409TIP3    H122170   1.793   0.292   6.665
 7409TIP3    H222171   1.934   0.242   6.640
 7410TIP3   OH222172   3.065   0.688   6.620
 7410TIP3    H122173   3.105   0.604   6.646
 7410TIP3    H222174   2.971   0.670   6.617
 7411TIP3   OH222175   7.062   1.960   1.752
 7411TIP3    H122176   7.038   1.868   1.741
 7411TIP3    H222177   7.006   1.991   1.823
 7412TIP3   OH222178   6.812   6.796   1.406
 7412TIP3    H122179   6.896   6.758   1.379
 7412TIP3    H222180   6.779   6.736   1.473
 7413TIP3   OH222181   7.533   0.430   4.494
 7413TIP3    H122182   7.455   0.472   4.531
 7413TIP3    H222183   7.600   0.498   4.496
 7414TIP3   OH222184   7.226   6.249   3.090
 7414TIP3    H122185   7.258   6.214   3.174
 7414TIP3    H222186   7.171   6.323   3.114
 7415TIP3   OH222187   8.051   5.148   4.686
 7415TIP3    H122188   8.072   5.150   4.779
 7415TIP3    H222189   8.073   5.236   4.654
 7416TIP3   OH222190   7.531   1.144   0.335
 7416TIP3    H122191   7.486   1.225   0.360
 7416TIP3    H222192   7.623   1.160   0.357
 7417TIP3   OH222193   6.442   4.750   0.388
 7417TIP3    H122194   6.358   4.789   0.411
 7417TIP3    H222195   6.461   4.691   0.462
 7418TIP3   OH222196   0.324   2.979   4.528
 7418TIP3    H122197   0.395   2.962   4.591
 7418TIP3    H222198   0.337   2.914   4.459
 7419TIP3   OH222199   3.353   4.733   6.769
 7419TIP3    H122200   3.298   4.805   6.798
 7419TIP3    H222201   3.291   4.669   6.733
 7420TIP3   OH222202   1.260   3.358   5.585
 7420TIP3    H122203   1.325   3.398   5.527
 7420TIP3    H222204   1.286   3.266   5.590
 7421TIP3   OH222205   8.268   6.157   5.948
 7421TIP3    H122206   8.321   6.115   5.881
 7421TIP3    H222207   8.178   6.152   5.915
 7422TIP3   OH222208   6.126   5.627   0.797
 7422TIP3    H122209   6.049   5.681   0.778
 7422TIP3    H222210   6.200   5.685   0.782
 7423TIP3   OH222211   5.371   7.522   0.149
 7423TIP3    H122212   5.298   7.467   0.121
 7423TIP3    H222213   5.370   7.595   0.087
 7424TIP3   OH222214   1.021   4.606   0.926
 7424TIP3    H122215   1.008   4.531   0.984
 7424TIP3    H222216   0.963   4.673   0.960
 7425TIP3   OH222217   4.536   2.625   0.945
 7425TIP3    H122218   4.479   2.629   0.869
 7425TIP3    H222219   4.566   2.534   0.948
 7426TIP3   OH222220   4.043   7.258   5.849
 7426TIP3    H122221   4.072   7.218   5.931
 7426TIP3    H222222   4.108   7.325   5.830
 7427TIP3   OH222223   2.965   5.171   0.730
 7427TIP3    H122224   2.874   5.191   0.709
 7427TIP3    H222225   3.016   5.240   0.687
 7428TIP3   OH222226   8.145   4.760   3.266
 7428TIP3    H122227   8.178   4.791   3.181
 7428TIP3    H222228   8.087   4.830   3.296
 7429TIP3   OH222229   2.248   0.608   0.476
 7429TIP3    H122230   2.280   0.696   0.493
 7429TIP3    H222231   2.194   0.617   0.397
 7430TIP3   OH222232   7.045   3.079   5.809
 7430TIP3    H122233   6.991   3.132   5.868
 7430TIP3    H222234   6.983   3.018   5.769
 7431TIP3   OH222235   4.070   7.302   1.346
 7431TIP3    H122236   3.992   7.339   1.304
 7431TIP3    H222237   4.058   7.319   1.439
 7432TIP3   OH222238   1.803   7.820   2.188
 7432TIP3    H122239   1.838   7.756   2.250
 7432TIP3    H222240   1.813   7.778   2.102
 7433TIP3   OH222241   7.441   5.498   2.834
 7433TIP3    H122242   7.454   5.519   2.926
 7433TIP3    H222243   7.362   5.546   2.810
 7434TIP3   OH222244   4.568   1.788   0.611
 7434TIP3    H122245   4.543   1.830   0.528
 7434TIP3    H222246   4.639   1.843   0.645
 7435TIP3   OH222247   5.376   3.500   5.240
 7435TIP3    H122248   5.287   3.524   5.213
 7435TIP3    H222249   5.371   3.407   5.261
 7436TIP3   OH222250   4.039   7.662   3.446
 7436TIP3    H122251   3.989   7.631   3.521
 7436TIP3    H222252   4.045   7.757   3.459
 7437TIP3   OH222253   7.341   0.062   5.221
 7437TIP3    H122254   7.405   0.129   5.197
 7437TIP3    H222255   7.268   0.111   5.259
 7438TIP3   OH222256   7.974   6.802   3.149
 7438TIP3    H122257   7.968   6.727   3.209
 7438TIP3    H222258   7.931   6.771   3.069
 7439TIP3   OH222259   8.242   1.704   6.696
 7439TIP3    H122260   8.206   1.620   6.725
 7439TIP3    H222261   8.251   1.694   6.601
 7440TIP3   OH222262   5.166   7.061   5.550
 7440TIP3    H122263   5.183   7.073   5.644
 7440TIP3    H222264   5.157   6.966   5.540
 7441TIP3   OH222265   0.999   2.920   1.457
 7441TIP3    H122266   1.065   2.851   1.458
 7441TIP3    H222267   1.034   2.987   1.399
 7442TIP3   OH222268   0.183   0.069   2.513
 7442TIP3    H122269   0.124   0.104   2.580
 7442TIP3    H222270   0.231   0.145   2.480
 7443TIP3   OH222271   4.367   6.706   0.278
 7443TIP3    H122272   4.426   6.636   0.250
 7443TIP3    H222273   4.285   6.689   0.232
 7444TIP3   OH222274   4.161   5.971   1.884
 7444TIP3    H122275   4.120   5.899   1.836
 7444TIP3    H222276   4.087   6.017   1.925
 7445TIP3   OH222277   3.509   3.842   3.429
 7445TIP3    H122278   3.444   3.888   3.375
 7445TIP3    H222279   3.553   3.913   3.477
 7446TIP3   OH222280   5.360   3.497   0.194
 7446TIP3    H122281   5.318   3.562   0.138
 7446TIP3    H222282   5.344   3.413   0.151
 7447TIP3   OH222283   4.408   5.720   2.663
 7447TIP3    H122284   4.344   5.648   2.662
 7447TIP3    H222285   4.376   5.781   2.597
 7448TIP3   OH222286   5.393   5.966   2.408
 7448TIP3    H122287   5.384   6.014   2.326
 7448TIP3    H222288   5.483   5.983   2.436
 7449TIP3   OH222289   5.162   7.521   1.547
 7449TIP3    H122290   5.234   7.477   1.501
 7449TIP3    H222291   5.086   7.466   1.529
 7450TIP3   OH222292   5.952   2.196   0.251
 7450TIP3    H122293   5.990   2.225   0.333
 7450TIP3    H222294   5.992   2.252   0.184
 7451TIP3   OH222295   7.874   1.944   1.681
 7451TIP3    H122296   7.840   1.957   1.592
 7451TIP3    H222297   7.809   1.887   1.722
 7452TIP3   OH222298   0.324   0.332   6.783
 7452TIP3    H122299   0.268   0.255   6.798
 7452TIP3    H222300   0.262   0.404   6.771
 7453TIP3   OH222301   2.423   6.315   0.364
 7453TIP3    H122302   2.453   6.342   0.277
 7453TIP3    H222303   2.339   6.273   0.349
 7454TIP3   OH222304   6.729   6.898   4.568
 7454TIP3    H122305   6.636   6.873   4.565
 7454TIP3    H222306   6.736   6.970   4.505
 7455TIP3   OH222307   4.302   4.690   1.561
 7455TIP3    H122308   4.210   4.709   1.577
 7455TIP3    H222309   4.304   4.597   1.538
 7456TIP3   OH222310   0.288   3.118   6.663
 7456TIP3    H122311   0.365   3.060   6.662
 7456TIP3    H222312   0.240   3.095   6.584
 7457TIP3   OH222313   8.193   1.611   6.387
 7457TIP3    H122314   8.167   1.614   6.295
 7457TIP3    H222315   8.287   1.631   6.385
 7458TIP3   OH222316   5.562   3.040   6.685
 7458TIP3    H122317   5.585   2.975   6.619
 7458TIP3    H222318   5.526   3.114   6.635
 7459TIP3   OH222319   2.751   0.582   0.973
 7459TIP3    H122320   2.665   0.546   0.995
 7459TIP3    H222321   2.742   0.613   0.883
 7460TIP3   OH222322   3.866   1.301   4.504
 7460TIP3    H122323   3.957   1.285   4.527
 7460TIP3    H222324   3.839   1.221   4.459
 7461TIP3   OH222325   2.930   5.370   2.788
 7461TIP3    H122326   2.872   5.428   2.836
 7461TIP3    H222327   3.010   5.421   2.775
 7462TIP3   OH222328   2.652   3.046   3.845
 7462TIP3    H122329   2.612   3.015   3.763
 7462TIP3    H222330   2.634   2.976   3.908
 7463TIP3   OH222331   2.574   5.122   0.213
 7463TIP3    H122332   2.547   5.134   0.122
 7463TIP3    H222333   2.502   5.074   0.254
 7464TIP3   OH222334   5.733   7.512   0.714
 7464TIP3    H122335   5.736   7.601   0.678
 7464TIP3    H222336   5.666   7.516   0.782
 7465TIP3   OH222337   0.575   2.960   4.661
 7465TIP3    H122338   0.649   3.000   4.708
 7465TIP3    H222339   0.587   2.866   4.671
 7466TIP3   OH222340   6.011   2.264   1.081
 7466TIP3    H122341   6.090   2.302   1.119
 7466TIP3    H222342   5.942   2.281   1.145
 7467TIP3   OH222343   5.479   2.481   4.997
 7467TIP3    H122344   5.501   2.390   5.018
 7467TIP3    H222345   5.406   2.502   5.055
 7468TIP3   OH222346   7.179   2.360   3.753
 7468TIP3    H122347   7.184   2.375   3.848
 7468TIP3    H222348   7.268   2.339   3.727
 7469TIP3   OH222349   3.455   0.251   2.943
 7469TIP3    H122350   3.380   0.298   2.907
 7469TIP3    H222351   3.510   0.319   2.981
 7470TIP3   OH222352   4.278   6.474   5.250
 7470TIP3    H122353   4.182   6.472   5.256
 7470TIP3    H222354   4.305   6.389   5.284
 7471TIP3   OH222355   4.687   6.590   1.141
 7471TIP3    H122356   4.741   6.548   1.073
 7471TIP3    H222357   4.700   6.536   1.219
 7472TIP3   OH222358   1.430   7.534   0.948
 7472TIP3    H122359   1.482   7.578   0.880
 7472TIP3    H222360   1.382   7.466   0.901
 7473TIP3   OH222361   3.182   0.428   3.444
 7473TIP3    H122362   3.169   0.517   3.411
 7473TIP3    H222363   3.099   0.406   3.486
 7474TIP3   OH222364   2.256   4.972   4.110
 7474TIP3    H122365   2.308   5.047   4.082
 7474TIP3    H222366   2.279   4.960   4.203
 7475TIP3   OH222367   7.330   5.736   2.018
 7475TIP3    H122368   7.256   5.688   1.981
 7475TIP3    H222369   7.319   5.728   2.113
 7476TIP3   OH222370   3.756   5.341   0.098
 7476TIP3    H122371   3.702   5.263   0.080
 7476TIP3    H222372   3.782   5.372   0.011
 7477TIP3   OH222373   2.867   6.612   3.419
 7477TIP3    H122374   2.860   6.568   3.504
 7477TIP3    H222375   2.784   6.593   3.375
 7478TIP3   OH222376   0.423   0.468   4.630
 7478TIP3    H122377   0.455   0.388   4.590
 7478TIP3    H222378   0.375   0.439   4.708
 7479TIP3   OH222379   5.220   0.347   2.421
 7479TIP3    H122380   5.289   0.363   2.486
 7479TIP3    H222381   5.209   0.251   2.421
 7480TIP3   OH222382   6.445   0.856   4.964
 7480TIP3    H122383   6.404   0.917   4.902
 7480TIP3    H222384   6.475   0.912   5.036
 7481TIP3   OH222385   6.285   5.460   3.780
 7481TIP3    H122386   6.272   5.539   3.832
 7481TIP3    H222387   6.198   5.438   3.747
 7482TIP3   OH222388   3.564   1.413   0.856
 7482TIP3    H122389   3.531   1.503   0.862
 7482TIP3    H222390   3.495   1.359   0.895
 7483TIP3   OH222391   1.928   4.377   2.241
 7483TIP3    H122392   1.877   4.444   2.286
 7483TIP3    H222393   1.917   4.395   2.148
 7484TIP3   OH222394   2.550   2.562   5.334
 7484TIP3    H122395   2.564   2.494   5.268
 7484TIP3    H222396   2.592   2.640   5.297
 7485TIP3   OH222397   0.998   2.081   1.653
 7485TIP3    H122398   1.078   2.060   1.702
 7485TIP3    H222399   0.930   2.026   1.695
 7486TIP3   OH222400   7.599   3.229   0.779
 7486TIP3    H122401   7.611   3.165   0.850
 7486TIP3    H222402   7.674   3.215   0.721
 7487TIP3   OH222403   7.511   2.280   0.867
 7487TIP3    H122404   7.605   2.295   0.882
 7487TIP3    H222405   7.504   2.186   0.851
 7488TIP3   OH222406   6.215   5.332   6.655
 7488TIP3    H122407   6.223   5.397   6.585
 7488TIP3    H222408   6.200   5.249   6.609
 7489TIP3   OH222409   1.900   2.591   0.888
 7489TIP3    H122410   1.815   2.557   0.861
 7489TIP3    H222411   1.962   2.551   0.827
 7490TIP3   OH222412   0.793   3.098   3.329
 7490TIP3    H122413   0.716   3.154   3.316
 7490TIP3    H222414   0.849   3.148   3.388
 7491TIP3   OH222415   0.409   3.597   3.138
 7491TIP3    H122416   0.353   3.556   3.204
 7491TIP3    H222417   0.444   3.523   3.088
 7492TIP3   OH222418   0.592   6.972   2.846
 7492TIP3    H122419   0.636   6.975   2.761
 7492TIP3    H222420   0.592   7.063   2.876
 7493TIP3   OH222421   6.675   6.929   6.300
 7493TIP3    H122422   6.609   6.993   6.329
 7493TIP3    H222423   6.660   6.853   6.356
 7494TIP3   OH222424   7.323   4.896   0.389
 7494TIP3    H122425   7.284   4.968   0.340
 7494TIP3    H222426   7.383   4.854   0.327
 7495TIP3   OH222427   2.497   3.066   2.492
 7495TIP3    H122428   2.511   3.161   2.498
 7495TIP3    H222429   2.573   3.033   2.444
 7496TIP3   OH222430   0.548   5.177   3.298
 7496TIP3    H122431   0.542   5.242   3.227
 7496TIP3    H222432   0.459   5.172   3.333
 7497TIP3   OH222433   3.387   6.219   2.294
 7497TIP3    H122434   3.413   6.304   2.259
 7497TIP3    H222435   3.420   6.219   2.384
 7498TIP3   OH222436   1.673   7.779   5.300
 7498TIP3    H122437   1.683   7.866   5.261
 7498TIP3    H222438   1.629   7.795   5.383
 7499TIP3   OH222439   4.125   2.761   2.918
 7499TIP3    H122440   4.108   2.796   3.005
 7499TIP3    H222441   4.045   2.712   2.896
 7500TIP3   OH222442   5.179   3.388   4.675
 7500TIP3    H122443   5.122   3.413   4.748
 7500TIP3    H222444   5.141   3.306   4.642
 7501TIP3   OH222445   1.106   0.549   3.808
 7501TIP3    H122446   1.180   0.593   3.765
 7501TIP3    H222447   1.146   0.492   3.873
 7502TIP3   OH222448   1.980   5.110   0.488
 7502TIP3    H122449   1.990   5.205   0.494
 7502TIP3    H222450   2.036   5.075   0.558
 7503TIP3   OH222451   5.099   7.307   5.255
 7503TIP3    H122452   5.032   7.346   5.198
 7503TIP3    H222453   5.145   7.245   5.199
 7504TIP3   OH222454   7.666   0.810   1.951
 7504TIP3    H122455   7.681   0.902   1.971
 7504TIP3    H222456   7.691   0.763   2.031
 7505TIP3   OH222457   7.851   5.755   6.644
 7505TIP3    H122458   7.838   5.759   6.739
 7505TIP3    H222459   7.947   5.752   6.634
 7506TIP3   OH222460   2.855   3.222   2.260
 7506TIP3    H122461   2.819   3.232   2.172
 7506TIP3    H222462   2.945   3.253   2.253
 7507TIP3   OH222463   1.670   5.292   0.223
 7507TIP3    H122464   1.719   5.324   0.299
 7507TIP3    H222465   1.698   5.347   0.151
 7508TIP3   OH222466   4.326   4.509   5.189
 7508TIP3    H122467   4.333   4.525   5.094
 7508TIP3    H222468   4.251   4.450   5.198
 7509TIP3   OH222469   0.200   5.208   3.863
 7509TIP3    H122470   0.123   5.152   3.860
 7509TIP3    H222471   0.165   5.296   3.878
 7510TIP3   OH222472   7.237   6.277   6.416
 7510TIP3    H122473   7.275   6.312   6.496
 7510TIP3    H222474   7.297   6.305   6.347
 7511TIP3   OH222475   0.488   5.252   3.928
 7511TIP3    H122476   0.449   5.250   4.016
 7511TIP3    H222477   0.413   5.252   3.869
 7512TIP3   OH222478   0.239   5.602   3.980
 7512TIP3    H122479   0.202   5.647   3.904
 7512TIP3    H222480   0.189   5.521   3.986
 7513TIP3   OH222481   2.952   0.932   0.674
 7513TIP3    H122482   2.997   1.012   0.648
 7513TIP3    H222483   3.006   0.861   0.638
 7514TIP3   OH222484   3.246   2.723   0.476
 7514TIP3    H122485   3.245   2.729   0.381
 7514TIP3    H222486   3.220   2.810   0.507
 7515TIP3   OH222487   4.006   6.370   2.990
 7515TIP3    H122488   3.988   6.306   2.921
 7515TIP3    H222489   4.096   6.398   2.973
 7516TIP3   OH222490   6.352   2.886   6.574
 7516TIP3    H122491   6.401   2.857   6.497
 7516TIP3    H222492   6.372   2.821   6.641
 7517TIP3   OH222493   3.607   4.325   3.267
 7517TIP3    H122494   3.625   4.231   3.262
 7517TIP3    H222495   3.609   4.355   3.176
 7518TIP3   OH222496   7.131   5.407   2.474
 7518TIP3    H122497   7.110   5.499   2.486
 7518TIP3    H222498   7.115   5.367   2.560
 7519TIP3   OH222499   2.288   6.041   1.326
 7519TIP3    H122500   2.371   6.071   1.363
 7519TIP3    H222501   2.224   6.054   1.397
 7520TIP3   OH222502   6.917   4.340   3.693
 7520TIP3    H122503   6.968   4.394   3.632
 7520TIP3    H222504   6.982   4.290   3.742
 7521TIP3   OH222505   6.200   4.438   5.669
 7521TIP3    H122506   6.205   4.344   5.653
 7521TIP3    H222507   6.204   4.448   5.764
 7522TIP3   OH222508   7.622   0.637   3.100
 7522TIP3    H122509   7.616   0.543   3.082
 7522TIP3    H222510   7.706   0.663   3.063
 7523TIP3   OH222511   0.343   3.936   1.787
 7523TIP3    H122512   0.395   4.004   1.743
 7523TIP3    H222513   0.304   3.980   1.862
 7524TIP3   OH222514   2.765   0.367   2.530
 7524TIP3    H122515   2.796   0.451   2.496
 7524TIP3    H222516   2.690   0.345   2.475
 7525TIP3   OH222517   1.733   0.877   1.981
 7525TIP3    H122518   1.824   0.849   1.967
 7525TIP3    H222519   1.732   0.969   1.955
 7526TIP3   OH222520   2.895   1.219   0.146
 7526TIP3    H122521   2.904   1.126   0.125
 7526TIP3    H222522   2.814   1.246   0.103
 7527TIP3   OH222523   7.643   4.309   2.467
 7527TIP3    H122524   7.654   4.255   2.389
 7527TIP3    H222525   7.679   4.256   2.538
 7528TIP3   OH222526   5.867   4.949   5.642
 7528TIP3    H122527   5.852   4.877   5.704
 7528TIP3    H222528   5.961   4.966   5.648
 7529TIP3   OH222529   0.977   7.818   5.554
 7529TIP3    H122530   1.049   7.765   5.519
 7529TIP3    H222531   1.021   7.895   5.591
 7530TIP3   OH222532   6.415   6.919   1.524
 7530TIP3    H122533   6.485   6.887   1.580
 7530TIP3    H222534   6.396   7.007   1.557
 7531TIP3   OH222535   2.156   5.900   1.740
 7531TIP3    H122536   2.161   5.902   1.836
 7531TIP3    H222537   2.116   5.816   1.720
 7532TIP3   OH222538   4.327   1.261   0.554
 7532TIP3    H122539   4.399   1.254   0.491
 7532TIP3    H222540   4.359   1.324   0.619
 7533TIP3   OH222541   6.573   5.880   1.644
 7533TIP3    H122542   6.490   5.920   1.619
 7533TIP3    H222543   6.551   5.790   1.668
 7534TIP3   OH222544   1.901   6.280   5.595
 7534TIP3    H122545   1.902   6.270   5.499
 7534TIP3    H222546   1.964   6.216   5.627
 7535TIP3   OH222547   5.347   3.287   6.776
 7535TIP3    H122548   5.435   3.252   6.763
 7535TIP3    H222549   5.360   3.372   6.818
 7536TIP3   OH222550   3.723   5.749   5.742
 7536TIP3    H122551   3.775   5.732   5.820
 7536TIP3    H222552   3.672   5.669   5.729
 7537TIP3   OH222553   6.958   1.266   0.863
 7537TIP3    H122554   6.915   1.213   0.796
 7537TIP3    H222555   6.907   1.250   0.943
 7538TIP3   OH222556   0.652   7.071   3.352
 7538TIP3    H122557   0.648   7.119   3.435
 7538TIP3    H222558   0.744   7.074   3.327
 7539TIP3   OH222559   1.991   5.819   4.696
 7539TIP3    H122560   2.049   5.751   4.662
 7539TIP3    H222561   1.992   5.806   4.791
 7540TIP3   OH222562   3.918   5.402   4.321
 7540TIP3    H122563   4.004   5.363   4.302
 7540TIP3    H222564   3.935   5.459   4.397
 7541TIP3   OH222565   3.142   5.931   5.226
 7541TIP3    H122566   3.100   6.016   5.240
 7541TIP3    H222567   3.096   5.872   5.286
 7542TIP3   OH222568   6.625   3.936   3.833
 7542TIP3    H122569   6.707   3.901   3.799
 7542TIP3    H222570   6.609   3.885   3.913
 7543TIP3   OH222571   8.028   3.108   6.491
 7543TIP3    H122572   8.097   3.042   6.493
 7543TIP3    H222573   8.010   3.128   6.583
 7544TIP3   OH222574   7.853   6.312   4.609
 7544TIP3    H122575   7.802   6.279   4.535
 7544TIP3    H222576   7.790   6.323   4.679
 7545TIP3   OH222577   3.268   7.398   6.085
 7545TIP3    H122578   3.344   7.390   6.143
 7545TIP3    H222579   3.194   7.378   6.141
 7546TIP3   OH222580   4.076   0.084   0.241
 7546TIP3    H122581   4.142   0.070   0.173
 7546TIP3    H222582   4.094   0.172   0.274
 7547TIP3   OH222583   6.397   6.246   5.554
 7547TIP3    H122584   6.309   6.225   5.522
 7547TIP3    H222585   6.416   6.332   5.518
 7548TIP3   OH222586   2.656   7.392   5.162
 7548TIP3    H122587   2.708   7.370   5.239
 7548TIP3    H222588   2.714   7.374   5.088
 7549TIP3   OH222589   1.057   4.425   3.566
 7549TIP3    H122590   1.043   4.418   3.471
 7549TIP3    H222591   0.976   4.465   3.598
 7550TIP3   OH222592   6.040   5.741   3.533
 7550TIP3    H122593   6.008   5.658   3.567
 7550TIP3    H222594   6.081   5.719   3.450
 7551TIP3   OH222595   3.975   5.733   0.233
 7551TIP3    H122596   3.967   5.681   0.313
 7551TIP3    H222597   3.888   5.773   0.222
 7552TIP3   OH222598   0.483   6.845   0.264
 7552TIP3    H122599   0.420   6.870   0.331
 7552TIP3    H222600   0.568   6.869   0.301
 7553TIP3   OH222601   2.879   5.883   4.560
 7553TIP3    H122602   2.939   5.875   4.635
 7553TIP3    H222603   2.875   5.795   4.523
 7554TIP3   OH222604   0.757   7.571   4.765
 7554TIP3    H122605   0.838   7.594   4.811
 7554TIP3    H222606   0.709   7.653   4.757
 7555TIP3   OH222607   6.256   7.128   5.564
 7555TIP3    H122608   6.303   7.045   5.556
 7555TIP3    H222609   6.189   7.110   5.630
 7556TIP3   OH222610   7.566   2.151   5.225
 7556TIP3    H122611   7.488   2.102   5.202
 7556TIP3    H222612   7.627   2.136   5.153
 7557TIP3   OH222613   7.180   2.159   6.164
 7557TIP3    H122614   7.199   2.249   6.139
 7557TIP3    H222615   7.267   2.118   6.173
 7558TIP3   OH222616   2.505   2.211   6.348
 7558TIP3    H122617   2.418   2.228   6.312
 7558TIP3    H222618   2.557   2.183   6.273
 7559TIP3   OH222619   5.620   5.694   1.714
 7559TIP3    H122620   5.615   5.679   1.808
 7559TIP3    H222621   5.590   5.784   1.703
 7560TIP3   OH222622   2.201   3.353   2.550
 7560TIP3    H122623   2.215   3.272   2.502
 7560TIP3    H222624   2.199   3.421   2.482
 7561TIP3   OH222625   5.276   4.992   1.884
 7561TIP3    H122626   5.350   4.963   1.938
 7561TIP3    H222627   5.198   4.969   1.934
 7562TIP3   OH222628   6.733   4.051   1.871
 7562TIP3    H122629   6.754   4.007   1.954
 7562TIP3    H222630   6.675   4.123   1.896
 7563TIP3   OH222631   4.709   6.247   5.992
 7563TIP3    H122632   4.702   6.334   6.033
 7563TIP3    H222633   4.626   6.204   6.014
 7564TIP3   OH222634   1.628   3.449   5.887
 7564TIP3    H122635   1.661   3.424   5.974
 7564TIP3    H222636   1.631   3.367   5.837
 7565TIP3   OH222637   4.892   3.524   3.602
 7565TIP3    H122638   4.908   3.437   3.640
 7565TIP3    H222639   4.930   3.518   3.515
 7566TIP3   OH222640   5.460   5.878   3.554
 7566TIP3    H122641   5.540   5.902   3.601
 7566TIP3    H222642   5.436   5.958   3.506
 7567TIP3   OH222643   8.135   7.176   6.754
 7567TIP3    H122644   8.139   7.264   6.717
 7567TIP3    H222645   8.183   7.121   6.692
 7568TIP3   OH222646   4.357   3.715   1.207
 7568TIP3    H122647   4.449   3.732   1.188
 7568TIP3    H222648   4.357   3.635   1.259
 7569TIP3   OH222649   5.029   2.900   1.450
 7569TIP3    H122650   5.026   2.813   1.410
 7569TIP3    H222651   4.990   2.959   1.385
 7570TIP3   OH222652   6.432   1.096   5.388
 7570TIP3    H122653   6.342   1.068   5.405
 7570TIP3    H222654   6.443   1.175   5.440
 7571TIP3   OH222655   4.594   5.212   2.215
 7571TIP3    H122656   4.647   5.136   2.237
 7571TIP3    H222657   4.605   5.271   2.290
 7572TIP3   OH222658   1.400   6.217   6.011
 7572TIP3    H122659   1.421   6.200   6.103
 7572TIP3    H222660   1.483   6.208   5.965
 7573TIP3   OH222661   4.804   2.110   4.382
 7573TIP3    H122662   4.790   2.177   4.449
 7573TIP3    H222663   4.873   2.147   4.327
 7574TIP3   OH222664   3.712   4.362   6.471
 7574TIP3    H122665   3.796   4.390   6.508
 7574TIP3    H222666   3.647   4.421   6.512
 7575TIP3   OH222667  -0.008   4.566   6.646
 7575TIP3    H122668   0.051   4.551   6.720
 7575TIP3    H222669   0.032   4.519   6.573
 7576TIP3   OH222670   7.782   5.073   1.631
 7576TIP3    H122671   7.794   4.999   1.571
 7576TIP3    H222672   7.687   5.078   1.643
 7577TIP3   OH222673   0.771   5.506   4.845
 7577TIP3    H122674   0.818   5.502   4.762
 7577TIP3    H222675   0.744   5.598   4.853
 7578TIP3   OH222676   3.064   4.096   2.068
 7578TIP3    H122677   3.143   4.068   2.022
 7578TIP3    H222678   3.088   4.181   2.106
 7579TIP3   OH222679   3.499   7.814   6.440
 7579TIP3    H122680   3.564   7.778   6.380
 7579TIP3    H222681   3.539   7.806   6.526
 7580TIP3   OH222682   5.057   7.230   6.453
 7580TIP3    H122683   5.141   7.263   6.422
 7580TIP3    H222684   5.054   7.255   6.546
 7581TIP3   OH222685   0.993   5.053   0.252
 7581TIP3    H122686   1.024   4.969   0.287
 7581TIP3    H222687   0.983   5.038   0.158
 7582TIP3   OH222688   4.607   7.710   1.261
 7582TIP3    H122689   4.643   7.792   1.293
 7582TIP3    H222690   4.554   7.735   1.185
 7583TIP3   OH222691   0.773   1.161   3.891
 7583TIP3    H122692   0.795   1.217   3.966
 7583TIP3    H222693   0.857   1.125   3.863
 7584TIP3   OH222694   3.466   2.109   3.873
 7584TIP3    H122695   3.557   2.107   3.842
 7584TIP3    H222696   3.458   2.192   3.920
 7585TIP3   OH222697   0.867   2.624   0.777
 7585TIP3    H122698   0.852   2.669   0.860
 7585TIP3    H222699   0.919   2.686   0.725
 7586TIP3   OH222700   2.079   7.050   1.474
 7586TIP3    H122701   1.995   7.004   1.468
 7586TIP3    H222702   2.128   7.020   1.397
 7587TIP3   OH222703   7.860   1.391   0.623
 7587TIP3    H122704   7.951   1.379   0.649
 7587TIP3    H222705   7.819   1.437   0.697
 7588TIP3   OH222706   6.212   1.150   1.729
 7588TIP3    H122707   6.270   1.198   1.670
 7588TIP3    H222708   6.127   1.149   1.683
 7589TIP3   OH222709   3.601   4.439   6.809
 7589TIP3    H122710   3.660   4.515   6.810
 7589TIP3    H222711   3.520   4.472   6.771
 7590TIP3   OH222712   6.312   7.634   0.945
 7590TIP3    H122713   6.226   7.660   0.913
 7590TIP3    H222714   6.361   7.715   0.953
 7591TIP3   OH222715   2.652   3.912   1.421
 7591TIP3    H122716   2.561   3.883   1.432
 7591TIP3    H222717   2.659   3.936   1.329
 7592TIP3   OH222718   1.794   4.442   1.994
 7592TIP3    H122719   1.734   4.450   2.068
 7592TIP3    H222720   1.740   4.408   1.923
 7593TIP3   OH222721   7.515   2.067   1.594
 7593TIP3    H122722   7.446   2.131   1.613
 7593TIP3    H222723   7.469   1.984   1.583
 7594TIP3   OH222724   2.758   1.078   4.710
 7594TIP3    H122725   2.847   1.080   4.743
 7594TIP3    H222726   2.748   1.160   4.661
 7595TIP3   OH222727   7.269   0.671   2.792
 7595TIP3    H122728   7.296   0.655   2.882
 7595TIP3    H222729   7.273   0.767   2.782
 7596TIP3   OH222730   6.720   0.251   6.665
 7596TIP3    H122731   6.809   0.231   6.638
 7596TIP3    H222732   6.677   0.282   6.585
 7597TIP3   OH222733   1.949   3.479   1.730
 7597TIP3    H122734   1.909   3.410   1.782
 7597TIP3    H222735   1.880   3.545   1.720
 7598TIP3   OH222736   6.867   1.388   2.828
 7598TIP3    H122737   6.875   1.324   2.899
 7598TIP3    H222738   6.910   1.467   2.863
 7599TIP3   OH222739   2.471   1.989   5.649
 7599TIP3    H122740   2.425   1.949   5.575
 7599TIP3    H222741   2.424   1.958   5.726
 7600TIP3   OH222742   6.886   6.602   0.049
 7600TIP3    H122743   6.876   6.592   0.144
 7600TIP3    H222744   6.980   6.598   0.034
 7601TIP3   OH222745   1.650   0.021   1.111
 7601TIP3    H122746   1.610   0.098   1.150
 7601TIP3    H222747   1.614   0.017   1.023
 7602TIP3   OH222748   5.113   3.401   2.793
 7602TIP3    H122749   5.048   3.369   2.731
 7602TIP3    H222750   5.143   3.484   2.756
 7603TIP3   OH222751   4.253   2.659   2.023
 7603TIP3    H122752   4.334   2.699   2.054
 7603TIP3    H222753   4.205   2.636   2.102
 7604TIP3   OH222754   5.647   0.706   2.093
 7604TIP3    H122755   5.625   0.667   2.008
 7604TIP3    H222756   5.743   0.699   2.098
 7605TIP3   OH222757   8.080   1.761   2.589
 7605TIP3    H122758   8.079   1.856   2.573
 7605TIP3    H222759   8.093   1.753   2.684
 7606TIP3   OH222760   0.202   1.355   1.449
 7606TIP3    H122761   0.263   1.396   1.510
 7606TIP3    H222762   0.116   1.384   1.478
 7607TIP3   OH222763   2.197   1.340   3.619
 7607TIP3    H122764   2.197   1.339   3.523
 7607TIP3    H222765   2.105   1.343   3.643
 7608TIP3   OH222766   4.431   4.758   5.044
 7608TIP3    H122767   4.389   4.691   4.991
 7608TIP3    H222768   4.515   4.719   5.069
 7609TIP3   OH222769   2.786   5.725   6.476
 7609TIP3    H122770   2.836   5.803   6.501
 7609TIP3    H222771   2.713   5.759   6.424
 7610TIP3   OH222772   2.354   1.081   5.911
 7610TIP3    H122773   2.343   1.166   5.868
 7610TIP3    H222774   2.428   1.094   5.970
 7611TIP3   OH222775   7.453   6.702   4.950
 7611TIP3    H122776   7.405   6.773   4.908
 7611TIP3    H222777   7.515   6.672   4.883
 7612TIP3   OH222778   0.926   0.102   0.346
 7612TIP3    H122779   0.901   0.134   0.432
 7612TIP3    H222780   0.951   0.181   0.297
 7613TIP3   OH222781   3.158   0.011   5.676
 7613TIP3    H122782   3.197   0.089   5.637
 7613TIP3    H222783   3.200   0.003   5.762
 7614TIP3   OH222784   6.556   6.355   5.962
 7614TIP3    H122785   6.529   6.340   6.052
 7614TIP3    H222786   6.493   6.305   5.909
 7615TIP3   OH222787   1.430   4.840   5.252
 7615TIP3    H122788   1.481   4.759   5.260
 7615TIP3    H222789   1.375   4.826   5.175
 7616TIP3   OH222790   0.767   1.643   0.951
 7616TIP3    H122791   0.752   1.560   0.996
 7616TIP3    H222792   0.706   1.642   0.877
 7617TIP3   OH222793   2.719   0.827   0.753
 7617TIP3    H122794   2.654   0.869   0.697
 7617TIP3    H222795   2.803   0.853   0.715
 7618TIP3   OH222796   3.994   6.127   3.452
 7618TIP3    H122797   3.932   6.181   3.501
 7618TIP3    H222798   3.968   6.137   3.360
 7619TIP3   OH222799   2.272   6.709   1.083
 7619TIP3    H122800   2.286   6.623   1.042
 7619TIP3    H222801   2.282   6.771   1.010
 7620TIP3   OH222802   6.714   4.527   0.186
 7620TIP3    H122803   6.707   4.582   0.264
 7620TIP3    H222804   6.795   4.479   0.198
 7621TIP3   OH222805   0.462   2.704   3.506
 7621TIP3    H122806   0.465   2.615   3.541
 7621TIP3    H222807   0.385   2.744   3.547
 7622TIP3   OH222808   8.082   2.942   4.018
 7622TIP3    H122809   8.147   2.948   4.087
 7622TIP3    H222810   8.010   2.892   4.056
 7623TIP3   OH222811   2.017   0.650   1.595
 7623TIP3    H122812   2.079   0.610   1.656
 7623TIP3    H222813   2.048   0.623   1.508
 7624TIP3   OH222814   0.079   3.285   4.538
 7624TIP3    H122815   0.135   3.351   4.578
 7624TIP3    H222816  -0.003   3.332   4.519
 7625TIP3   OH222817   0.033   2.062   0.565
 7625TIP3    H122818  -0.004   2.150   0.558
 7625TIP3    H222819   0.104   2.071   0.628
 7626TIP3   OH222820   7.089   4.095   2.005
 7626TIP3    H122821   7.010   4.089   2.058
 7626TIP3    H222822   7.109   4.004   1.981
 7627TIP3   OH222823   7.113   1.136   1.505
 7627TIP3    H122824   7.126   1.230   1.517
 7627TIP3    H222825   7.020   1.126   1.486
 7628TIP3   OH222826   6.302   5.239   5.315
 7628TIP3    H122827   6.240   5.206   5.380
 7628TIP3    H222828   6.289   5.184   5.238
 7629TIP3   OH222829   3.086   0.375   5.737
 7629TIP3    H122830   3.115   0.348   5.824
 7629TIP3    H222831   3.152   0.338   5.678
 7630TIP3   OH222832   1.789   2.665   5.283
 7630TIP3    H122833   1.769   2.747   5.328
 7630TIP3    H222834   1.810   2.604   5.354
 7631TIP3   OH222835   4.660   4.998   3.421
 7631TIP3    H122836   4.620   4.920   3.461
 7631TIP3    H222837   4.748   5.002   3.459
 7632TIP3   OH222838   4.315   6.379   0.429
 7632TIP3    H122839   4.388   6.319   0.445
 7632TIP3    H222840   4.303   6.377   0.334
 7633TIP3   OH222841   2.559   3.190   1.473
 7633TIP3    H122842   2.650   3.194   1.444
 7633TIP3    H222843   2.516   3.261   1.426
 7634TIP3   OH222844   6.021   7.730   4.995
 7634TIP3    H122845   5.978   7.644   5.006
 7634TIP3    H222846   5.949   7.790   4.976
 7635TIP3   OH222847   6.782   0.286   2.135
 7635TIP3    H122848   6.763   0.378   2.115
 7635TIP3    H222849   6.755   0.276   2.227
 7636TIP3   OH222850   2.063   1.863   3.348
 7636TIP3    H122851   2.148   1.889   3.313
 7636TIP3    H222852   2.039   1.933   3.409
 7637TIP3   OH222853   2.133   7.276   5.022
 7637TIP3    H122854   2.105   7.332   5.094
 7637TIP3    H222855   2.227   7.264   5.037
 7638TIP3   OH222856   0.867   1.646   2.556
 7638TIP3    H122857   0.909   1.599   2.485
 7638TIP3    H222858   0.928   1.717   2.578
 7639TIP3   OH222859   7.842   1.336   6.485
 7639TIP3    H122860   7.837   1.249   6.446
 7639TIP3    H222861   7.819   1.396   6.413
 7640TIP3   OH222862   3.775   3.223   2.535
 7640TIP3    H122863   3.746   3.209   2.625
 7640TIP3    H222864   3.869   3.207   2.537
 7641TIP3   OH222865   0.857   1.620   3.248
 7641TIP3    H122866   0.772   1.651   3.215
 7641TIP3    H222867   0.853   1.635   3.342
 7642TIP3   OH222868   6.871   1.569   3.456
 7642TIP3    H122869   6.819   1.627   3.512
 7642TIP3    H222870   6.955   1.614   3.449
 7643TIP3   OH222871   2.461   6.480   3.602
 7643TIP3    H122872   2.516   6.504   3.677
 7643TIP3    H222873   2.371   6.487   3.635
 7644TIP3   OH222874   0.264   2.473   6.224
 7644TIP3    H122875   0.178   2.480   6.266
 7644TIP3    H222876   0.312   2.550   6.253
 7645TIP3   OH222877   3.810   1.172   6.322
 7645TIP3    H122878   3.871   1.113   6.276
 7645TIP3    H222879   3.853   1.257   6.320
 7646TIP3   OH222880   4.063   3.810   3.593
 7646TIP3    H122881   4.016   3.892   3.574
 7646TIP3    H222882   4.121   3.798   3.517
 7647TIP3   OH222883   0.087   0.707   0.719
 7647TIP3    H122884   0.066   0.770   0.650
 7647TIP3    H222885   0.031   0.631   0.700
 7648TIP3   OH222886   4.558   1.128   3.004
 7648TIP3    H122887   4.614   1.139   2.928
 7648TIP3    H222888   4.498   1.203   3.001
 7649TIP3   OH222889   0.683   2.413   5.419
 7649TIP3    H122890   0.659   2.451   5.504
 7649TIP3    H222891   0.705   2.322   5.440
 7650TIP3   OH222892   2.850   7.468   4.905
 7650TIP3    H122893   2.873   7.519   4.982
 7650TIP3    H222894   2.920   7.486   4.842
 7651TIP3   OH222895   0.251   6.352   3.812
 7651TIP3    H122896   0.330   6.359   3.866
 7651TIP3    H222897   0.259   6.268   3.768
 7652TIP3   OH222898   5.326   6.155   1.913
 7652TIP3    H122899   5.275   6.139   1.992
 7652TIP3    H222900   5.331   6.070   1.869
 7653TIP3   OH222901   1.242   2.970   4.957
 7653TIP3    H122902   1.149   2.980   4.979
 7653TIP3    H222903   1.281   3.054   4.982
 7654TIP3   OH222904   0.495   5.392   4.473
 7654TIP3    H122905   0.523   5.483   4.486
 7654TIP3    H222906   0.528   5.346   4.550
 7655TIP3   OH222907   1.312   3.466   0.129
 7655TIP3    H122908   1.222   3.456   0.161
 7655TIP3    H222909   1.356   3.384   0.152
 7656TIP3   OH222910   5.844   0.945   2.255
 7656TIP3    H122911   5.911   1.009   2.279
 7656TIP3    H222912   5.880   0.861   2.284
 7657TIP3   OH222913   0.696   1.353   5.123
 7657TIP3    H122914   0.768   1.366   5.062
 7657TIP3    H222915   0.637   1.293   5.078
 7658TIP3   OH222916   8.128   2.086   3.921
 7658TIP3    H122917   8.036   2.112   3.924
 7658TIP3    H222918   8.173   2.153   3.973
 7659TIP3   OH222919   5.672   7.107   1.196
 7659TIP3    H122920   5.723   7.031   1.222
 7659TIP3    H222921   5.591   7.100   1.247
 7660TIP3   OH222922   5.769   5.903   5.469
 7660TIP3    H122923   5.682   5.864   5.459
 7660TIP3    H222924   5.768   5.940   5.558
 7661TIP3   OH222925   3.464   4.974   0.390
 7661TIP3    H122926   3.376   5.005   0.408
 7661TIP3    H222927   3.458   4.879   0.395
 7662TIP3   OH222928   0.727   3.380   2.628
 7662TIP3    H122929   0.662   3.437   2.668
 7662TIP3    H222930   0.693   3.291   2.642
 7663TIP3   OH222931   1.271   6.634   3.327
 7663TIP3    H122932   1.211   6.645   3.254
 7663TIP3    H222933   1.249   6.548   3.364
 7664TIP3   OH222934   6.584   1.869   5.325
 7664TIP3    H122935   6.597   1.961   5.346
 7664TIP3    H222936   6.667   1.842   5.284
 7665TIP3   OH222937   0.791   1.014   5.632
 7665TIP3    H122938   0.738   0.940   5.663
 7665TIP3    H222939   0.727   1.076   5.597
 7666TIP3   OH222940   7.544   4.050   4.527
 7666TIP3    H122941   7.559   4.128   4.473
 7666TIP3    H222942   7.482   3.997   4.477
 7667TIP3   OH222943   5.003   0.043   2.664
 7667TIP3    H122944   5.079  -0.011   2.643
 7667TIP3    H222945   4.941  -0.018   2.705
 7668TIP3   OH222946   2.251   3.490   2.120
 7668TIP3    H122947   2.272   3.422   2.056
 7668TIP3    H222948   2.155   3.485   2.129
 7669TIP3   OH222949   4.083   7.855   0.978
 7669TIP3    H122950   4.012   7.878   0.919
 7669TIP3    H222951   4.050   7.877   1.065
 7670TIP3   OH222952   5.407   6.309   2.706
 7670TIP3    H122953   5.344   6.255   2.754
 7670TIP3    H222954   5.453   6.358   2.775
 7671TIP3   OH222955   8.060   5.292   2.069
 7671TIP3    H122956   8.068   5.200   2.093
 7671TIP3    H222957   8.135   5.308   2.012
 7672TIP3   OH222958   1.946   6.693   2.914
 7672TIP3    H122959   1.867   6.699   2.969
 7672TIP3    H222960   2.009   6.644   2.967
 7673TIP3   OH222961   1.295   7.402   3.448
 7673TIP3    H122962   1.234   7.333   3.421
 7673TIP3    H222963   1.345   7.362   3.519
 7674TIP3   OH222964   0.219   4.641   3.728
 7674TIP3    H122965   0.183   4.679   3.648
 7674TIP3    H222966   0.150   4.654   3.793
 7675TIP3   OH222967   7.449   1.686   6.201
 7675TIP3    H122968   7.395   1.669   6.278
 7675TIP3    H222969   7.408   1.634   6.131
 7676TIP3   OH222970   3.474   4.041   5.314
 7676TIP3    H122971   3.545   4.035   5.250
 7676TIP3    H222972   3.495   3.974   5.379
 7677TIP3   OH222973   5.904   5.843   3.926
 7677TIP3    H122974   5.995   5.849   3.896
 7677TIP3    H222975   5.910   5.806   4.014
 7678TIP3   OH222976   7.727   4.534   4.815
 7678TIP3    H122977   7.740   4.622   4.779
 7678TIP3    H222978   7.815   4.507   4.844
 7679TIP3   OH222979   3.732   2.048   6.217
 7679TIP3    H122980   3.743   2.001   6.134
 7679TIP3    H222981   3.788   2.001   6.279
 7680TIP3   OH222982   7.824   4.708   3.114
 7680TIP3    H122983   7.898   4.707   3.054
 7680TIP3    H222984   7.852   4.652   3.187
 7681TIP3   OH222985   6.866   0.345   1.198
 7681TIP3    H122986   6.914   0.428   1.196
 7681TIP3    H222987   6.932   0.279   1.218
 7682TIP3   OH222988   0.777   3.939   5.674
 7682TIP3    H122989   0.742   3.910   5.759
 7682TIP3    H222990   0.859   3.982   5.696
 7683TIP3   OH222991   1.436   2.725   4.246
 7683TIP3    H122992   1.489   2.716   4.166
 7683TIP3    H222993   1.348   2.744   4.215
 7684TIP3   OH222994   5.742   7.490   1.665
 7684TIP3    H122995   5.667   7.501   1.722
 7684TIP3    H222996   5.736   7.562   1.602
 7685TIP3   OH222997   6.420   4.329   4.133
 7685TIP3    H122998   6.381   4.389   4.197
 7685TIP3    H222999   6.387   4.360   4.048
 7686TIP3   OH223000   4.889   3.742   1.727
 7686TIP3    H123001   4.795   3.727   1.741
 7686TIP3    H223002   4.921   3.774   1.811
 7687TIP3   OH223003   0.007   6.864   4.193
 7687TIP3    H123004   0.068   6.918   4.143
 7687TIP3    H223005  -0.054   6.926   4.232
 7688TIP3   OH223006   3.644   3.475   2.835
 7688TIP3    H123007   3.655   3.407   2.769
 7688TIP3    H223008   3.561   3.453   2.878
 7689TIP3   OH223009   5.353   3.869   2.286
 7689TIP3    H123010   5.393   3.850   2.370
 7689TIP3    H223011   5.414   3.928   2.242
 7690TIP3   OH223012   5.732  -0.003   4.322
 7690TIP3    H123013   5.648  -0.043   4.346
 7690TIP3    H223014   5.742   0.070   4.384
 7691TIP3   OH223015   7.422   2.985   6.733
 7691TIP3    H123016   7.446   3.045   6.662
 7691TIP3    H223017   7.489   3.001   6.800
 7692TIP3   OH223018   2.457   6.471   5.529
 7692TIP3    H123019   2.407   6.494   5.607
 7692TIP3    H223020   2.428   6.381   5.509
 7693TIP3   OH223021   2.726   2.393   1.770
 7693TIP3    H123022   2.691   2.455   1.705
 7693TIP3    H223023   2.788   2.339   1.721
 7694TIP3   OH223024   5.219   5.383   0.076
 7694TIP3    H123025   5.296   5.355   0.125
 7694TIP3    H223026   5.146   5.334   0.116
 7695TIP3   OH223027   6.365   0.725   5.971
 7695TIP3    H123028   6.333   0.656   5.914
 7695TIP3    H223029   6.400   0.679   6.048
 7696TIP3   OH223030   2.015   0.926   1.025
 7696TIP3    H123031   2.011   0.908   1.119
 7696TIP3    H223032   2.004   0.840   0.984
 7697TIP3   OH223033   2.692   7.708   0.327
 7697TIP3    H123034   2.620   7.761   0.360
 7697TIP3    H223035   2.734   7.762   0.260
 7698TIP3   OH223036   4.465   5.317   4.179
 7698TIP3    H123037   4.532   5.363   4.130
 7698TIP3    H223038   4.419   5.264   4.113
 7699TIP3   OH223039   6.302   5.918   3.639
 7699TIP3    H123040   6.221   5.873   3.616
 7699TIP3    H223041   6.273   6.003   3.673
 7700TIP3   OH223042   0.453   2.510   2.532
 7700TIP3    H123043   0.508   2.589   2.528
 7700TIP3    H223044   0.375   2.533   2.481
 7701TIP3   OH223045   0.319   7.380   4.301
 7701TIP3    H123046   0.291   7.426   4.222
 7701TIP3    H223047   0.398   7.333   4.274
 7702TIP3   OH223048   3.905   0.226   3.574
 7702TIP3    H123049   3.848   0.149   3.569
 7702TIP3    H223050   3.947   0.230   3.488
 7703TIP3   OH223051   3.842   6.039   6.067
 7703TIP3    H123052   3.763   6.009   6.021
 7703TIP3    H223053   3.826   6.015   6.158
 7704TIP3   OH223054   1.001   6.038   4.136
 7704TIP3    H123055   1.082   5.999   4.171
 7704TIP3    H223056   1.027   6.076   4.052
 7705TIP3   OH223057   7.774   2.852   3.430
 7705TIP3    H123058   7.756   2.758   3.437
 7705TIP3    H223059   7.757   2.873   3.338
 7706TIP3   OH223060   0.699   2.691   1.919
 7706TIP3    H123061   0.787   2.656   1.906
 7706TIP3    H223062   0.684   2.746   1.842
 7707TIP3   OH223063   3.652   6.354   1.879
 7707TIP3    H123064   3.639   6.429   1.937
 7707TIP3    H223065   3.681   6.394   1.796
 7708TIP3   OH223066   2.372   3.784   1.508
 7708TIP3    H123067   2.345   3.859   1.562
 7708TIP3    H223068   2.332   3.708   1.551
 7709TIP3   OH223069   5.246   5.527   3.895
 7709TIP3    H123070   5.317   5.574   3.853
 7709TIP3    H223071   5.187   5.503   3.824
 7710TIP3   OH223072   6.399   7.592   0.075
 7710TIP3    H123073   6.357   7.661   0.024
 7710TIP3    H223074   6.333   7.566   0.140
 7711TIP3   OH223075   7.513   4.981   3.431
 7711TIP3    H123076   7.579   4.918   3.459
 7711TIP3    H223077   7.436   4.961   3.486
 7712TIP3   OH223078   3.495   4.252   2.504
 7712TIP3    H123079   3.503   4.257   2.409
 7712TIP3    H223080   3.415   4.202   2.519
 7713TIP3   OH223081   5.245   6.574   5.758
 7713TIP3    H123082   5.332   6.593   5.794
 7713TIP3    H223083   5.187   6.577   5.834
 7714TIP3   OH223084   0.031   1.798   3.049
 7714TIP3    H123085   0.046   1.811   3.143
 7714TIP3    H223086   0.048   1.705   3.035
 7715TIP3   OH223087   0.137   2.698   6.525
 7715TIP3    H123088   0.113   2.751   6.601
 7715TIP3    H223089   0.204   2.638   6.558
 7716TIP3   OH223090   3.396   0.241   3.401
 7716TIP3    H123091   3.344   0.319   3.421
 7716TIP3    H223092   3.420   0.206   3.487
 7717TIP3   OH223093   6.436   3.619   3.028
 7717TIP3    H123094   6.420   3.585   2.940
 7717TIP3    H223095   6.449   3.713   3.015
 7718TIP3   OH223096   1.847   7.193   4.146
 7718TIP3    H123097   1.834   7.287   4.136
 7718TIP3    H223098   1.906   7.168   4.074
 7719TIP3   OH223099   1.534   5.316   6.520
 7719TIP3    H123100   1.541   5.382   6.451
 7719TIP3    H223101   1.529   5.233   6.473
 7720TIP3   OH223102   6.988  -0.037   4.708
 7720TIP3    H123103   6.948  -0.030   4.795
 7720TIP3    H223104   7.081  -0.021   4.723
 7721TIP3   OH223105   6.651   6.535   1.838
 7721TIP3    H123106   6.697   6.467   1.888
 7721TIP3    H223107   6.637   6.606   1.900
 7722TIP3   OH223108   6.626   6.849   1.703
 7722TIP3    H123109   6.681   6.787   1.656
 7722TIP3    H223110   6.644   6.832   1.795
 7723TIP3   OH223111   1.880   4.137  -0.014
 7723TIP3    H123112   1.955   4.091   0.023
 7723TIP3    H223113   1.914   4.177  -0.095
 7724TIP3   OH223114   2.285   3.584   3.668
 7724TIP3    H123115   2.264   3.545   3.752
 7724TIP3    H223116   2.302   3.676   3.688
 7725TIP3   OH223117   1.321   6.135   2.693
 7725TIP3    H123118   1.410   6.166   2.708
 7725TIP3    H223119   1.266   6.210   2.714
 7726TIP3   OH223120   7.926   4.864   3.632
 7726TIP3    H123121   7.915   4.769   3.623
 7726TIP3    H223122   7.838   4.897   3.650
 7727TIP3   OH223123   4.581   2.869   4.713
 7727TIP3    H123124   4.578   2.914   4.797
 7727TIP3    H223125   4.665   2.892   4.675
 7728TIP3   OH223126   4.655   5.493   3.606
 7728TIP3    H123127   4.735   5.449   3.580
 7728TIP3    H223128   4.634   5.457   3.692
 7729TIP3   OH223129   1.109   4.412   1.641
 7729TIP3    H123130   1.127   4.392   1.550
 7729TIP3    H223131   1.017   4.389   1.653
 7730TIP3   OH223132   1.353   6.801   6.190
 7730TIP3    H123133   1.317   6.743   6.258
 7730TIP3    H223134   1.278   6.851   6.159
 7731TIP3   OH223135   0.340   4.967   3.683
 7731TIP3    H123136   0.269   4.915   3.645
 7731TIP3    H223137   0.353   5.038   3.621
 7732TIP3   OH223138   0.567   4.650   1.127
 7732TIP3    H123139   0.505   4.578   1.140
 7732TIP3    H223140   0.550   4.710   1.199
 7733TIP3   OH223141   2.596   3.015   3.585
 7733TIP3    H123142   2.633   3.086   3.532
 7733TIP3    H223143   2.580   2.944   3.523
 7734TIP3   OH223144   0.221   4.144   3.888
 7734TIP3    H123145   0.147   4.135   3.828
 7734TIP3    H223146   0.291   4.094   3.848
 7735TIP3   OH223147   0.870   0.058   0.976
 7735TIP3    H123148   0.934   0.125   0.999
 7735TIP3    H223149   0.825   0.092   0.900
 7736TIP3   OH223150   6.213   6.583   0.599
 7736TIP3    H123151   6.154   6.647   0.559
 7736TIP3    H223152   6.188   6.582   0.691
 7737TIP3   OH223153   0.815   4.282   0.101
 7737TIP3    H123154   0.745   4.323   0.151
 7737TIP3    H223155   0.845   4.351   0.041
 7738TIP3   OH223156   4.714   1.309   0.448
 7738TIP3    H123157   4.743   1.326   0.359
 7738TIP3    H223158   4.700   1.396   0.486
 7739TIP3   OH223159   7.205   6.568   5.060
 7739TIP3    H123160   7.196   6.661   5.038
 7739TIP3    H223161   7.153   6.522   4.994
 7740TIP3   OH223162   7.346   0.455   5.946
 7740TIP3    H123163   7.413   0.460   6.014
 7740TIP3    H223164   7.394   0.462   5.863
 7741TIP3   OH223165   3.256   5.129   4.176
 7741TIP3    H123166   3.272   5.177   4.257
 7741TIP3    H223167   3.169   5.091   4.187
 7742TIP3   OH223168   0.537   3.639   3.834
 7742TIP3    H123169   0.580   3.724   3.847
 7742TIP3    H223170   0.443   3.660   3.835
 7743TIP3   OH223171   6.048   0.405   4.091
 7743TIP3    H123172   6.034   0.395   4.185
 7743TIP3    H223173   6.081   0.320   4.061
 7744TIP3   OH223174   6.601   2.878   6.785
 7744TIP3    H123175   6.632   2.947   6.727
 7744TIP3    H223176   6.522   2.915   6.826
 7745TIP3   OH223177   4.637   0.135   2.646
 7745TIP3    H123178   4.563   0.115   2.589
 7745TIP3    H223179   4.656   0.052   2.689
 7746TIP3   OH223180   7.643   6.928   2.675
 7746TIP3    H123181   7.637   6.994   2.607
 7746TIP3    H223182   7.609   6.848   2.636
 7747TIP3   OH223183   4.147   7.308   3.605
 7747TIP3    H123184   4.168   7.315   3.699
 7747TIP3    H223185   4.232   7.315   3.561
 7748TIP3   OH223186   4.829   6.210   0.673
 7748TIP3    H123187   4.841   6.142   0.739
 7748TIP3    H223188   4.737   6.235   0.681
 7749TIP3   OH223189   0.319   6.112   3.702
 7749TIP3    H123190   0.389   6.073   3.650
 7749TIP3    H223191   0.292   6.042   3.762
 7750TIP3   OH223192   3.564   0.108   4.598
 7750TIP3    H123193   3.533   0.154   4.520
 7750TIP3    H223194   3.506   0.138   4.668
 7751TIP3   OH223195   2.909   6.183   3.244
 7751TIP3    H123196   2.939   6.096   3.270
 7751TIP3    H223197   2.827   6.196   3.291
 7752TIP3   OH223198   2.091   6.570   2.264
 7752TIP3    H123199   2.158   6.576   2.332
 7752TIP3    H223200   2.033   6.499   2.293
 7753TIP3   OH223201   5.663   3.836   4.283
 7753TIP3    H123202   5.628   3.750   4.306
 7753TIP3    H223203   5.685   3.828   4.190
 7754TIP3   OH223204   5.938   6.208   0.503
 7754TIP3    H123205   5.926   6.252   0.587
 7754TIP3    H223206   5.882   6.256   0.442
 7755TIP3   OH223207   3.579   6.956   5.203
 7755TIP3    H123208   3.545   7.043   5.226
 7755TIP3    H223209   3.590   6.958   5.108
 7756TIP3   OH223210   3.609   6.758   5.517
 7756TIP3    H123211   3.669   6.729   5.585
 7756TIP3    H223212   3.657   6.747   5.435
 7757TIP3   OH223213   4.526   6.759   1.737
 7757TIP3    H123214   4.582   6.750   1.660
 7757TIP3    H223215   4.445   6.715   1.712
 7758TIP3   OH223216   0.774   2.030   0.658
 7758TIP3    H123217   0.844   1.988   0.708
 7758TIP3    H223218   0.818   2.078   0.588
 7759TIP3   OH223219   1.809   5.931   0.869
 7759TIP3    H123220   1.731   5.887   0.902
 7759TIP3    H223221   1.837   5.988   0.941
 7760TIP3   OH223222   6.543   6.822   0.864
 7760TIP3    H123223   6.563   6.787   0.950
 7760TIP3    H223224   6.590   6.905   0.860
 7761TIP3   OH223225   0.210   5.038   6.024
 7761TIP3    H123226   0.225   4.980   5.949
 7761TIP3    H223227   0.261   4.999   6.095
 7762TIP3   OH223228   5.480   6.549   3.234
 7762TIP3    H123229   5.485   6.536   3.329
 7762TIP3    H223230   5.427   6.477   3.203
 7763TIP3   OH223231   2.625   2.427   5.087
 7763TIP3    H123232   2.676   2.464   5.014
 7763TIP3    H223233   2.549   2.386   5.045
 7764TIP3   OH223234   1.593   2.795   6.671
 7764TIP3    H123235   1.536   2.757   6.738
 7764TIP3    H223236   1.674   2.744   6.677
 7765TIP3   OH223237   7.025   7.404   5.551
 7765TIP3    H123238   7.092   7.445   5.495
 7765TIP3    H223239   6.997   7.474   5.610
 7766TIP3   OH223240   0.080   3.437   2.097
 7766TIP3    H123241   0.030   3.483   2.030
 7766TIP3    H223242   0.171   3.440   2.065
 7767TIP3   OH223243   3.262   7.555   4.628
 7767TIP3    H123244   3.340   7.607   4.609
 7767TIP3    H223245   3.191   7.620   4.637
 7768TIP3   OH223246   0.096   5.497   0.423
 7768TIP3    H123247   0.151   5.472   0.348
 7768TIP3    H223248   0.157   5.503   0.497
 7769TIP3   OH223249   2.979   2.806   4.315
 7769TIP3    H123250   2.912   2.791   4.381
 7769TIP3    H223251   3.062   2.789   4.360
 7770TIP3   OH223252   7.902   3.580   5.909
 7770TIP3    H123253   7.997   3.575   5.909
 7770TIP3    H223254   7.881   3.662   5.952
 7771TIP3   OH223255   5.036   7.760   3.866
 7771TIP3    H123256   4.978   7.769   3.791
 7771TIP3    H223257   5.066   7.849   3.884
 7772TIP3   OH223258   0.849   2.257   3.033
 7772TIP3    H123259   0.916   2.318   3.066
 7772TIP3    H223260   0.834   2.197   3.106
 7773TIP3   OH223261   7.391   1.520   4.518
 7773TIP3    H123262   7.430   1.579   4.454
 7773TIP3    H223263   7.444   1.440   4.513
 7774TIP3   OH223264   2.982   3.906   4.462
 7774TIP3    H123265   3.048   3.856   4.413
 7774TIP3    H223266   2.916   3.841   4.486
 7775TIP3   OH223267   3.083   1.080   3.227
 7775TIP3    H123268   3.133   1.006   3.190
 7775TIP3    H223269   3.076   1.143   3.155
 7776TIP3   OH223270   2.269   4.829   5.668
 7776TIP3    H123271   2.333   4.873   5.611
 7776TIP3    H223272   2.221   4.770   5.609
 7777TIP3   OH223273   6.506   2.027   3.721
 7777TIP3    H123274   6.482   2.030   3.628
 7777TIP3    H223275   6.468   2.107   3.758
 7778TIP3   OH223276   6.429   3.926   5.912
 7778TIP3    H123277   6.374   3.883   5.846
 7778TIP3    H223278   6.370   3.941   5.986
 7779TIP3   OH223279   2.976   7.752   3.826
 7779TIP3    H123280   3.005   7.814   3.893
 7779TIP3    H223281   3.013   7.786   3.744
 7780TIP3   OH223282   2.118   2.329   3.332
 7780TIP3    H123283   2.082   2.401   3.384
 7780TIP3    H223284   2.042   2.279   3.304
 7781TIP3   OH223285   1.357   6.801   1.707
 7781TIP3    H123286   1.391   6.878   1.661
 7781TIP3    H223287   1.419   6.732   1.686
 7782TIP3   OH223288   7.475   6.751   3.288
 7782TIP3    H123289   7.432   6.769   3.372
 7782TIP3    H223290   7.459   6.830   3.236
 7783TIP3   OH223291   4.741   5.657   2.265
 7783TIP3    H123292   4.665   5.709   2.290
 7783TIP3    H223293   4.727   5.572   2.308
 7784TIP3   OH223294   0.775   2.705   5.753
 7784TIP3    H123295   0.780   2.776   5.818
 7784TIP3    H223296   0.831   2.735   5.681
 7785TIP3   OH223297   6.233   0.507   4.329
 7785TIP3    H123298   6.315   0.478   4.287
 7785TIP3    H223299   6.220   0.596   4.297
 7786TIP3   OH223300   3.714   1.344   5.962
 7786TIP3    H123301   3.798   1.308   5.990
 7786TIP3    H223302   3.737   1.429   5.923
 7787TIP3   OH223303   3.942   5.657   5.540
 7787TIP3    H123304   3.856   5.658   5.582
 7787TIP3    H223305   3.939   5.730   5.478
 7788TIP3   OH223306   5.134   2.644   2.109
 7788TIP3    H123307   5.091   2.706   2.050
 7788TIP3    H223308   5.227   2.664   2.101
 7789TIP3   OH223309   3.129   0.627   5.884
 7789TIP3    H123310   3.059   0.689   5.901
 7789TIP3    H223311   3.107   0.550   5.936
 7790TIP3   OH223312   2.294   3.937   0.157
 7790TIP3    H123313   2.382   3.973   0.155
 7790TIP3    H223314   2.237   4.014   0.149
 7791TIP3   OH223315   7.238   6.028   4.299
 7791TIP3    H123316   7.203   5.965   4.361
 7791TIP3    H223317   7.165   6.086   4.279
 7792TIP3   OH223318   2.394   3.329   3.614
 7792TIP3    H123319   2.489   3.342   3.616
 7792TIP3    H223320   2.358   3.417   3.602
 7793TIP3   OH223321   2.029   0.172   6.400
 7793TIP3    H123322   1.969   0.155   6.473
 7793TIP3    H223323   2.021   0.094   6.345
 7794TIP3   OH223324   3.097   1.287   6.581
 7794TIP3    H123325   3.154   1.296   6.504
 7794TIP3    H223326   3.142   1.335   6.650
 7795TIP3   OH223327   2.020   7.307   0.323
 7795TIP3    H123328   2.095   7.254   0.350
 7795TIP3    H223329   1.955   7.294   0.393
 7796TIP3   OH223330   3.236   0.477   6.413
 7796TIP3    H123331   3.244   0.394   6.461
 7796TIP3    H223332   3.230   0.544   6.481
 7797TIP3   OH223333   6.542   3.252   1.382
 7797TIP3    H123334   6.551   3.215   1.469
 7797TIP3    H223335   6.576   3.341   1.390
 7798TIP3   OH223336   0.265   7.652   2.593
 7798TIP3    H123337   0.329   7.719   2.571
 7798TIP3    H223338   0.247   7.666   2.686
 7799TIP3   OH223339   1.793   2.054   4.360
 7799TIP3    H123340   1.851   2.048   4.284
 7799TIP3    H223341   1.752   1.967   4.366
 7800TIP3   OH223342   7.794   7.678   0.820
 7800TIP3    H123343   7.873   7.731   0.827
 7800TIP3    H223344   7.791   7.650   0.728
 7801TIP3   OH223345   5.974   7.701   2.118
 7801TIP3    H123346   6.068   7.711   2.130
 7801TIP3    H223347   5.964   7.620   2.067
 7802TIP3   OH223348   3.210   6.287   2.657
 7802TIP3    H123349   3.173   6.206   2.693
 7802TIP3    H223350   3.136   6.331   2.615
 7803TIP3   OH223351   8.028   5.921   2.042
 7803TIP3    H123352   7.971   5.997   2.035
 7803TIP3    H223353   7.993   5.859   1.979
 7804TIP3   OH223354   7.819   5.408   4.896
 7804TIP3    H123355   7.785   5.486   4.853
 7804TIP3    H223356   7.762   5.337   4.865
 7805TIP3   OH223357   2.491   2.498   5.991
 7805TIP3    H123358   2.397   2.511   6.004
 7805TIP3    H223359   2.498   2.451   5.908
 7806TIP3   OH223360   0.389   5.113   0.826
 7806TIP3    H123361   0.343   5.037   0.790
 7806TIP3    H223362   0.474   5.113   0.781
 7807TIP3   OH223363   5.402   6.225   4.075
 7807TIP3    H123364   5.495   6.241   4.092
 7807TIP3    H223365   5.371   6.181   4.153
 7808TIP3   OH223366   4.106   4.779   1.984
 7808TIP3    H123367   4.115   4.714   2.054
 7808TIP3    H223368   4.014   4.775   1.959
 7809TIP3   OH223369   4.338   5.123   5.304
 7809TIP3    H123370   4.365   5.127   5.395
 7809TIP3    H223371   4.363   5.208   5.268
 7810TIP3   OH223372   2.095   2.534   0.489
 7810TIP3    H123373   2.183   2.498   0.476
 7810TIP3    H223374   2.051   2.523   0.405
 7811TIP3   OH223375   7.359   0.380   5.165
 7811TIP3    H123376   7.400   0.458   5.201
 7811TIP3    H223377   7.271   0.379   5.202
 7812TIP3   OH223378   4.749   6.450   1.390
 7812TIP3    H123379   4.761   6.370   1.340
 7812TIP3    H223380   4.680   6.429   1.453
 7813TIP3   OH223381   6.206   4.131   3.356
 7813TIP3    H123382   6.114   4.157   3.361
 7813TIP3    H223383   6.204   4.037   3.343
 7814TIP3   OH223384   2.572   4.600   3.020
 7814TIP3    H123385   2.511   4.586   2.947
 7814TIP3    H223386   2.606   4.513   3.040
 7815TIP3   OH223387   1.237   1.591   5.876
 7815TIP3    H123388   1.247   1.548   5.961
 7815TIP3    H223389   1.245   1.685   5.896
 7816TIP3   OH223390   7.875   4.752   2.492
 7816TIP3    H123391   7.828   4.674   2.463
 7816TIP3    H223392   7.961   4.721   2.517
 7817TIP3   OH223393   7.471   3.044   4.003
 7817TIP3    H123394   7.543   2.986   4.029
 7817TIP3    H223395   7.500   3.083   3.921
 7818TIP3   OH223396   3.592   7.042   6.668
 7818TIP3    H123397   3.567   6.976   6.733
 7818TIP3    H223398   3.685   7.024   6.651
 7819TIP3   OH223399   2.315   4.824   1.900
 7819TIP3    H123400   2.323   4.806   1.806
 7819TIP3    H223401   2.230   4.867   1.909
 7820TIP3   OH223402   2.511   0.825   2.514
 7820TIP3    H123403   2.521   0.852   2.605
 7820TIP3    H223404   2.593   0.779   2.494
 7821TIP3   OH223405   4.743   4.694   1.724
 7821TIP3    H123406   4.788   4.613   1.702
 7821TIP3    H223407   4.725   4.687   1.817
 7822TIP3   OH223408   6.069   3.598   6.614
 7822TIP3    H123409   6.040   3.690   6.615
 7822TIP3    H223410   6.136   3.595   6.546
 7823TIP3   OH223411   4.940   4.572  -0.029
 7823TIP3    H123412   4.990   4.496   0.001
 7823TIP3    H223413   4.896   4.605   0.049
 7824TIP3   OH223414   5.800   6.252   5.415
 7824TIP3    H123415   5.819   6.272   5.506
 7824TIP3    H223416   5.817   6.158   5.407
 7825TIP3   OH223417   5.224   4.182   4.591
 7825TIP3    H123418   5.220   4.250   4.524
 7825TIP3    H223419   5.142   4.135   4.582
 7826TIP3   OH223420   0.548   4.330   6.415
 7826TIP3    H123421   0.465   4.284   6.429
 7826TIP3    H223422   0.609   4.261   6.388
 7827TIP3   OH223423   7.801   3.806   2.218
 7827TIP3    H123424   7.764   3.763   2.141
 7827TIP3    H223425   7.826   3.735   2.276
 7828TIP3   OH223426   4.852   5.382   4.778
 7828TIP3    H123427   4.782   5.409   4.718
 7828TIP3    H223428   4.865   5.458   4.834
 7829TIP3   OH223429   2.164   2.668   5.903
 7829TIP3    H123430   2.156   2.586   5.951
 7829TIP3    H223431   2.204   2.729   5.966
 7830TIP3   OH223432   2.986   2.479   1.607
 7830TIP3    H123433   3.014   2.481   1.515
 7830TIP3    H223434   2.974   2.386   1.626
 7831TIP3   OH223435   6.167   3.244   2.068
 7831TIP3    H123436   6.224   3.303   2.018
 7831TIP3    H223437   6.203   3.246   2.157
 7832TIP3   OH223438   4.975   5.352   5.200
 7832TIP3    H123439   5.019   5.290   5.257
 7832TIP3    H223440   4.905   5.301   5.159
 7833TIP3   OH223441   6.391   0.173   5.580
 7833TIP3    H123442   6.450   0.132   5.644
 7833TIP3    H223443   6.384   0.109   5.509
 7834TIP3   OH223444   5.357   7.189   0.358
 7834TIP3    H123445   5.374   7.117   0.419
 7834TIP3    H223446   5.319   7.258   0.412
 7835TIP3   OH223447   1.145   1.224   1.056
 7835TIP3    H123448   1.239   1.220   1.070
 7835TIP3    H223449   1.134   1.291   0.988
 7836TIP3   OH223450   6.324   6.554   5.809
 7836TIP3    H123451   6.235   6.591   5.806
 7836TIP3    H223452   6.379   6.623   5.770
 7837TIP3   OH223453   3.428   0.084   2.600
 7837TIP3    H123454   3.509   0.102   2.648
 7837TIP3    H223455   3.444  -0.001   2.558
 7838TIP3   OH223456   4.785   7.758   1.698
 7838TIP3    H123457   4.813   7.728   1.611
 7838TIP3    H223458   4.726   7.831   1.680
 7839TIP3   OH223459   2.187   7.507   0.214
 7839TIP3    H123460   2.121   7.437   0.212
 7839TIP3    H223461   2.156   7.572   0.152
 7840TIP3   OH223462   1.051   6.540   6.251
 7840TIP3    H123463   1.056   6.603   6.179
 7840TIP3    H223464   1.103   6.466   6.221
 7841TIP3   OH223465   3.083   2.623   3.982
 7841TIP3    H123466   3.068   2.678   3.905
 7841TIP3    H223467   3.005   2.636   4.036
 7842TIP3   OH223468   7.592   4.070   1.566
 7842TIP3    H123469   7.639   4.068   1.649
 7842TIP3    H223470   7.653   4.111   1.505
 7843TIP3   OH223471   6.693   0.002   5.359
 7843TIP3    H123472   6.727  -0.067   5.415
 7843TIP3    H223473   6.724   0.083   5.399
 7844TIP3   OH223474   6.979   6.422   3.165
 7844TIP3    H123475   6.963   6.393   3.255
 7844TIP3    H223476   6.892   6.443   3.131
 7845TIP3   OH223477   7.142   0.499   4.435
 7845TIP3    H123478   7.085   0.536   4.368
 7845TIP3    H223479   7.164   0.412   4.403
 7846TIP3   OH223480   4.982   5.961   3.366
 7846TIP3    H123481   5.065   5.963   3.414
 7846TIP3    H223482   5.005   5.982   3.276
 7847TIP3   OH223483   4.770   7.277   4.522
 7847TIP3    H123484   4.832   7.247   4.456
 7847TIP3    H223485   4.771   7.372   4.514
 7848TIP3   OH223486   2.338   3.099   5.160
 7848TIP3    H123487   2.378   3.181   5.189
 7848TIP3    H223488   2.314   3.054   5.241
 7849TIP3   OH223489   1.703   3.285   2.721
 7849TIP3    H123490   1.796   3.277   2.743
 7849TIP3    H223491   1.683   3.377   2.736
 7850TIP3   OH223492   1.322   2.761   2.006
 7850TIP3    H123493   1.376   2.685   1.983
 7850TIP3    H223494   1.319   2.814   1.927
 7851TIP3   OH223495   5.664   3.187   5.318
 7851TIP3    H123496   5.672   3.267   5.266
 7851TIP3    H223497   5.726   3.126   5.279
 7852TIP3   OH223498   2.412   6.584   2.622
 7852TIP3    H123499   2.396   6.498   2.583
 7852TIP3    H223500   2.505   6.582   2.647
 7853TIP3   OH223501   6.867   0.293   3.247
 7853TIP3    H123502   6.887   0.372   3.198
 7853TIP3    H223503   6.952   0.257   3.271
 7854TIP3   OH223504   6.514   3.726   1.835
 7854TIP3    H123505   6.461   3.683   1.901
 7854TIP3    H223506   6.554   3.800   1.880
 7855TIP3   OH223507   7.125   0.024   0.273
 7855TIP3    H123508   7.208   0.068   0.291
 7855TIP3    H223509   7.059   0.084   0.308
 7856TIP3   OH223510   0.465   2.391   0.857
 7856TIP3    H123511   0.530   2.329   0.892
 7856TIP3    H223512   0.431   2.348   0.779
 7857TIP3   OH223513   1.975   4.662   3.956
 7857TIP3    H123514   2.008   4.638   3.869
 7857TIP3    H223515   1.886   4.695   3.939
 7858TIP3   OH223516   1.281   5.225   0.427
 7858TIP3    H123517   1.206   5.214   0.485
 7858TIP3    H223518   1.303   5.136   0.399
 7859TIP3   OH223519   3.178   2.756   3.709
 7859TIP3    H123520   3.133   2.809   3.644
 7859TIP3    H223521   3.196   2.816   3.781
 7860TIP3   OH223522   6.405   4.377   5.287
 7860TIP3    H123523   6.350   4.341   5.356
 7860TIP3    H223524   6.487   4.327   5.293
 7861TIP3   OH223525   1.656   0.814   4.527
 7861TIP3    H123526   1.628   0.818   4.618
 7861TIP3    H223527   1.662   0.720   4.508
 7862TIP3   OH223528   4.440   2.642   0.350
 7862TIP3    H123529   4.360   2.621   0.303
 7862TIP3    H223530   4.504   2.663   0.282
 7863TIP3   OH223531   1.771   5.058   3.071
 7863TIP3    H123532   1.806   5.120   3.135
 7863TIP3    H223533   1.751   5.111   2.994
 7864TIP3   OH223534   7.388   2.728   2.851
 7864TIP3    H123535   7.450   2.743   2.923
 7864TIP3    H223536   7.408   2.795   2.786
 7865TIP3   OH223537   5.219   5.885   2.607
 7865TIP3    H123538   5.287   5.860   2.669
 7865TIP3    H223539   5.267   5.912   2.529
 7866TIP3   OH223540   4.550   7.787   5.600
 7866TIP3    H123541   4.626   7.764   5.546
 7866TIP3    H223542   4.567   7.746   5.684
 7867TIP3   OH223543   2.066   3.869   3.830
 7867TIP3    H123544   2.113   3.945   3.864
 7867TIP3    H223545   2.114   3.794   3.864
 7868TIP3   OH223546   3.181   1.968   0.431
 7868TIP3    H123547   3.133   1.927   0.503
 7868TIP3    H223548   3.157   2.060   0.435
 7869TIP3   OH223549   1.095   3.826   2.090
 7869TIP3    H123550   1.152   3.750   2.078
 7869TIP3    H223551   1.102   3.874   2.008
 7870TIP3   OH223552   3.223   4.539   5.649
 7870TIP3    H123553   3.235   4.472   5.716
 7870TIP3    H223554   3.245   4.621   5.693
 7871TIP3   OH223555   2.875   5.576   0.479
 7871TIP3    H123556   2.831   5.585   0.395
 7871TIP3    H223557   2.831   5.503   0.522
 7872TIP3   OH223558   2.511   7.128   3.582
 7872TIP3    H123559   2.551   7.069   3.518
 7872TIP3    H223560   2.448   7.180   3.532
 7873TIP3   OH223561   7.861   4.518   3.296
 7873TIP3    H123562   7.922   4.471   3.353
 7873TIP3    H223563   7.850   4.460   3.220
 7874TIP3   OH223564   7.806   7.473   4.391
 7874TIP3    H123565   7.888   7.518   4.410
 7874TIP3    H223566   7.762   7.529   4.328
 7875TIP3   OH223567   2.681   3.890   1.125
 7875TIP3    H123568   2.706   3.816   1.069
 7875TIP3    H223569   2.754   3.951   1.119
 7876TIP3   OH223570   3.800   7.231   4.302
 7876TIP3    H123571   3.716   7.251   4.342
 7876TIP3    H223572   3.832   7.154   4.349
 7877TIP3   OH223573   0.365   1.551   0.926
 7877TIP3    H123574   0.413   1.488   0.873
 7877TIP3    H223575   0.279   1.558   0.884
 7878TIP3   OH223576   4.685   0.490   3.548
 7878TIP3    H123577   4.625   0.433   3.597
 7878TIP3    H223578   4.635   0.571   3.534
 7879TIP3   OH223579   3.549   5.174   1.524
 7879TIP3    H123580   3.574   5.211   1.439
 7879TIP3    H223581   3.631   5.142   1.561
 7880TIP3   OH223582   4.704   6.987   4.926
 7880TIP3    H123583   4.710   6.891   4.926
 7880TIP3    H223584   4.613   7.005   4.949
 7881TIP3   OH223585   5.030   0.981   3.827
 7881TIP3    H123586   4.981   1.026   3.894
 7881TIP3    H223587   5.089   0.923   3.875
 7882TIP3   OH223588   5.554   1.349   3.041
 7882TIP3    H123589   5.507   1.431   3.026
 7882TIP3    H223590   5.597   1.330   2.957
 7883TIP3   OH223591   6.858   5.044   5.104
 7883TIP3    H123592   6.842   4.951   5.115
 7883TIP3    H223593   6.836   5.062   5.013
 7884TIP3   OH223594   7.885   2.605   0.398
 7884TIP3    H123595   7.836   2.686   0.389
 7884TIP3    H223596   7.969   2.623   0.354
 7885TIP3   OH223597   7.226   2.975   5.268
 7885TIP3    H123598   7.138   2.939   5.278
 7885TIP3    H223599   7.263   2.927   5.194
 7886TIP3   OH223600   6.330   3.106   4.605
 7886TIP3    H123601   6.412   3.126   4.560
 7886TIP3    H223602   6.264   3.102   4.536
 7887TIP3   OH223603   7.730   1.477   3.575
 7887TIP3    H123604   7.751   1.398   3.626
 7887TIP3    H223605   7.814   1.523   3.568
 7888TIP3   OH223606   7.181   2.275   5.890
 7888TIP3    H123607   7.263   2.288   5.842
 7888TIP3    H223608   7.191   2.329   5.968
 7889TIP3   OH223609   2.601   4.288   6.564
 7889TIP3    H123610   2.590   4.379   6.538
 7889TIP3    H223611   2.686   4.262   6.528
 7890TIP3   OH223612   5.556   6.969   4.002
 7890TIP3    H123613   5.485   6.980   3.938
 7890TIP3    H223614   5.533   7.027   4.074
 7891TIP3   OH223615   2.711   6.380   6.210
 7891TIP3    H123616   2.661   6.307   6.248
 7891TIP3    H223617   2.655   6.456   6.222
 7892TIP3   OH223618   4.424   3.566   5.213
 7892TIP3    H123619   4.402   3.602   5.299
 7892TIP3    H223620   4.493   3.624   5.179
 7893TIP3   OH223621   5.454   0.315   1.033
 7893TIP3    H123622   5.540   0.335   0.995
 7893TIP3    H223623   5.431   0.230   0.995
 7894TIP3   OH223624   4.400   7.509   2.775
 7894TIP3    H123625   4.349   7.542   2.849
 7894TIP3    H223626   4.337   7.459   2.723
 7895TIP3   OH223627   5.932   1.118   3.035
 7895TIP3    H123628   5.887   1.141   3.117
 7895TIP3    H223629   5.931   1.022   3.033
 7896TIP3   OH223630   6.212   2.572   0.964
 7896TIP3    H123631   6.265   2.568   0.884
 7896TIP3    H223632   6.196   2.666   0.977
 7897TIP3   OH223633   4.636   2.993   4.057
 7897TIP3    H123634   4.674   3.015   3.972
 7897TIP3    H223635   4.573   2.923   4.038
 7898TIP3   OH223636   4.042   5.335   3.938
 7898TIP3    H123637   4.092   5.340   3.857
 7898TIP3    H223638   3.951   5.347   3.911
 7899TIP3   OH223639   8.205   5.254   2.461
 7899TIP3    H123640   8.286   5.270   2.508
 7899TIP3    H223641   8.181   5.339   2.424
 7900TIP3   OH223642   3.566   3.702   0.151
 7900TIP3    H123643   3.484   3.737   0.115
 7900TIP3    H223644   3.625   3.777   0.155
 7901TIP3   OH223645   1.046   5.192   3.902
 7901TIP3    H123646   0.991   5.158   3.973
 7901TIP3    H223647   1.074   5.114   3.854
 7902TIP3   OH223648   6.432   2.236   5.864
 7902TIP3    H123649   6.523   2.263   5.876
 7902TIP3    H223650   6.406   2.202   5.949
 7903TIP3   OH223651   8.182   0.945   3.894
 7903TIP3    H123652   8.133   0.863   3.896
 7903TIP3    H223653   8.257   0.930   3.952
 7904TIP3   OH223654   8.171   7.130   1.629
 7904TIP3    H123655   8.194   7.220   1.606
 7904TIP3    H223656   8.127   7.137   1.714
 7905TIP3   OH223657   5.211   3.027   6.714
 7905TIP3    H123658   5.241   3.095   6.775
 7905TIP3    H223659   5.292   2.985   6.684
 7906TIP3   OH223660   1.392   7.732   2.402
 7906TIP3    H123661   1.337   7.797   2.358
 7906TIP3    H223662   1.333   7.659   2.420
 7907TIP3   OH223663   7.195   0.692   3.261
 7907TIP3    H123664   7.165   0.760   3.200
 7907TIP3    H223665   7.115   0.645   3.285
 7908TIP3   OH223666   1.847   5.032   0.759
 7908TIP3    H123667   1.936   5.015   0.728
 7908TIP3    H223668   1.814   4.946   0.786
 7909TIP3   OH223669   5.994   6.396   4.284
 7909TIP3    H123670   6.027   6.445   4.359
 7909TIP3    H223671   5.899   6.392   4.298
 7910TIP3   OH223672   4.787   4.297   5.326
 7910TIP3    H123673   4.834   4.214   5.330
 7910TIP3    H223674   4.795   4.324   5.234
 7911TIP3   OH223675   0.506   1.920   3.643
 7911TIP3    H123676   0.465   1.840   3.676
 7911TIP3    H223677   0.528   1.971   3.721
 7912TIP3   OH223678   5.801   2.079   0.613
 7912TIP3    H123679   5.791   2.172   0.635
 7912TIP3    H223680   5.892   2.059   0.633
 7913TIP3   OH223681   0.161   5.369   5.674
 7913TIP3    H123682   0.224   5.298   5.680
 7913TIP3    H223683   0.207   5.439   5.628
 7914TIP3   OH223684   2.629   2.565   0.424
 7914TIP3    H123685   2.570   2.607   0.362
 7914TIP3    H223686   2.594   2.476   0.434
 7915TIP3   OH223687   7.249   3.781   1.778
 7915TIP3    H123688   7.312   3.853   1.773
 7915TIP3    H223689   7.164   3.823   1.764
 7916TIP3   OH223690   4.612   5.751   3.662
 7916TIP3    H123691   4.619   5.658   3.638
 7916TIP3    H223692   4.587   5.795   3.580
 7917TIP3   OH223693   6.818   0.538   1.570
 7917TIP3    H123694   6.914   0.537   1.570
 7917TIP3    H223695   6.795   0.623   1.606
 7918TIP3   OH223696   0.419   3.586   1.157
 7918TIP3    H123697   0.454   3.499   1.176
 7918TIP3    H223698   0.325   3.579   1.175
 7919TIP3   OH223699   1.013   4.545   6.192
 7919TIP3    H123700   0.995   4.518   6.101
 7919TIP3    H223701   0.950   4.495   6.244
 7920TIP3   OH223702   3.250   5.865   0.883
 7920TIP3    H123703   3.160   5.834   0.888
 7920TIP3    H223704   3.302   5.786   0.867
 7921TIP3   OH223705   2.934   0.407   2.763
 7921TIP3    H123706   2.868   0.427   2.697
 7921TIP3    H223707   2.968   0.492   2.790
 7922TIP3   OH223708   6.737   7.358   5.201
 7922TIP3    H123709   6.784   7.407   5.133
 7922TIP3    H223710   6.667   7.417   5.229
 7923TIP3   OH223711   0.119   6.519   5.193
 7923TIP3    H123712   0.090   6.569   5.116
 7923TIP3    H223713   0.170   6.582   5.244
 7924TIP3   OH223714   4.891   1.528   2.861
 7924TIP3    H123715   4.871   1.489   2.946
 7924TIP3    H223716   4.807   1.528   2.815
 7925TIP3   OH223717   4.657   4.589   0.583
 7925TIP3    H123718   4.746   4.624   0.575
 7925TIP3    H223719   4.648   4.566   0.675
 7926TIP3   OH223720   5.116   2.064   4.340
 7926TIP3    H123721   5.135   2.146   4.386
 7926TIP3    H223722   5.109   2.089   4.248
 7927TIP3   OH223723   1.506   3.761   3.200
 7927TIP3    H123724   1.445   3.788   3.269
 7927TIP3    H223725   1.580   3.724   3.246
 7928TIP3   OH223726   5.175   2.466   3.848
 7928TIP3    H123727   5.191   2.555   3.818
 7928TIP3    H223728   5.194   2.470   3.942
 7929TIP3   OH223729   1.048   3.687   0.669
 7929TIP3    H123730   0.999   3.679   0.587
 7929TIP3    H223731   1.070   3.598   0.694
 7930TIP3   OH223732   5.643   6.272   2.513
 7930TIP3    H123733   5.575   6.264   2.579
 7930TIP3    H223734   5.716   6.316   2.557
 7931TIP3   OH223735   5.204   6.217   2.822
 7931TIP3    H123736   5.157   6.220   2.905
 7931TIP3    H223737   5.144   6.255   2.758
 7932TIP3   OH223738   7.767   1.974   1.400
 7932TIP3    H123739   7.811   2.043   1.350
 7932TIP3    H223740   7.675   1.982   1.375
 7933TIP3   OH223741   7.776   5.417   6.534
 7933TIP3    H123742   7.814   5.479   6.597
 7933TIP3    H223743   7.686   5.449   6.520
 7934TIP3   OH223744   3.310   0.729   2.287
 7934TIP3    H123745   3.328   0.713   2.380
 7934TIP3    H223746   3.380   0.683   2.241
 7935TIP3   OH223747   6.368   0.501   4.704
 7935TIP3    H123748   6.290   0.476   4.654
 7935TIP3    H223749   6.333   0.545   4.782
 7936TIP3   OH223750   8.078   2.989   1.854
 7936TIP3    H123751   7.988   3.020   1.846
 7936TIP3    H223752   8.073   2.918   1.919
 7937TIP3   OH223753   0.831   7.612   5.709
 7937TIP3    H123754   0.891   7.625   5.783
 7937TIP3    H223755   0.827   7.698   5.667
 7938TIP3   OH223756   1.111   1.329   3.761
 7938TIP3    H123757   1.168   1.289   3.827
 7938TIP3    H223758   1.161   1.324   3.680
 7939TIP3   OH223759   6.530   4.135   4.430
 7939TIP3    H123760   6.516   4.140   4.336
 7939TIP3    H223761   6.625   4.140   4.441
 7940TIP3   OH223762   0.660   7.637   4.425
 7940TIP3    H123763   0.679   7.679   4.509
 7940TIP3    H223764   0.570   7.662   4.406
 7941TIP3   OH223765   0.137   4.788   4.167
 7941TIP3    H123766   0.073   4.828   4.225
 7941TIP3    H223767   0.220   4.831   4.190
 7942TIP3   OH223768   2.248   0.897   1.628
 7942TIP3    H123769   2.156   0.914   1.648
 7942TIP3    H223770   2.252   0.803   1.607
 7943TIP3   OH223771   7.822   3.352   5.385
 7943TIP3    H123772   7.876   3.377   5.310
 7943TIP3    H223773   7.781   3.269   5.359
 7944TIP3   OH223774   6.003   4.642   2.219
 7944TIP3    H123775   6.032   4.697   2.292
 7944TIP3    H223776   5.908   4.635   2.230
 7945TIP3   OH223777   7.122   0.497   1.554
 7945TIP3    H123778   7.218   0.496   1.560
 7945TIP3    H223779   7.092   0.481   1.643
 7946TIP3   OH223780   6.393   5.751   1.113
 7946TIP3    H123781   6.348   5.832   1.140
 7946TIP3    H223782   6.455   5.733   1.184
 7947TIP3   OH223783   6.065   7.635   4.449
 7947TIP3    H123784   6.158   7.660   4.457
 7947TIP3    H223785   6.066   7.540   4.448
 7948TIP3   OH223786   7.768   1.467   3.074
 7948TIP3    H123787   7.758   1.411   3.152
 7948TIP3    H223788   7.844   1.521   3.094
 7949TIP3   OH223789   2.924   7.153   1.102
 7949TIP3    H123790   3.000   7.111   1.062
 7949TIP3    H223791   2.910   7.104   1.183
 7950TIP3   OH223792   4.544   7.262   0.968
 7950TIP3    H123793   4.465   7.210   0.952
 7950TIP3    H223794   4.514   7.334   1.024
 7951TIP3   OH223795   3.843   4.277   3.476
 7951TIP3    H123796   3.937   4.282   3.455
 7951TIP3    H223797   3.800   4.306   3.395
 7952TIP3   OH223798   7.609   5.625   3.082
 7952TIP3    H123799   7.651   5.539   3.094
 7952TIP3    H223800   7.650   5.661   3.003
 7953TIP3   OH223801   6.729   2.858   4.885
 7953TIP3    H123802   6.707   2.950   4.899
 7953TIP3    H223803   6.718   2.818   4.971
 7954TIP3   OH223804   1.921   4.734   0.109
 7954TIP3    H123805   1.926   4.687   0.025
 7954TIP3    H223806   1.828   4.743   0.126
 7955TIP3   OH223807   7.203   0.363   0.334
 7955TIP3    H123808   7.118   0.348   0.292
 7955TIP3    H223809   7.182   0.415   0.412
 7956TIP3   OH223810   8.316   7.248   5.388
 7956TIP3    H123811   8.357   7.325   5.348
 7956TIP3    H223812   8.262   7.211   5.319
 7957TIP3   OH223813   4.920   2.578   4.223
 7957TIP3    H123814   4.826   2.572   4.203
 7957TIP3    H223815   4.942   2.669   4.204
 7958TIP3   OH223816   6.333   6.769   1.864
 7958TIP3    H123817   6.309   6.838   1.926
 7958TIP3    H223818   6.427   6.779   1.852
 7959TIP3   OH223819   3.621   4.045   3.242
 7959TIP3    H123820   3.638   4.009   3.329
 7959TIP3    H223821   3.645   3.975   3.182
 7960TIP3   OH223822   5.725   6.727   0.252
 7960TIP3    H123823   5.790   6.796   0.249
 7960TIP3    H223824   5.659   6.758   0.314
 7961TIP3   OH223825   3.679   2.032   1.046
 7961TIP3    H123826   3.732   2.004   0.971
 7961TIP3    H223827   3.600   1.978   1.041
 7962TIP3   OH223828   0.603   2.576   0.374
 7962TIP3    H123829   0.659   2.604   0.446
 7962TIP3    H223830   0.521   2.550   0.416
 7963TIP3   OH223831   6.485   2.109   2.862
 7963TIP3    H123832   6.572   2.132   2.896
 7963TIP3    H223833   6.440   2.192   2.853
 7964TIP3   OH223834   7.975   1.120   1.319
 7964TIP3    H123835   8.007   1.134   1.230
 7964TIP3    H223836   7.891   1.075   1.308
 7965TIP3   OH223837   2.686   4.571   5.856
 7965TIP3    H123838   2.614   4.594   5.797
 7965TIP3    H223839   2.642   4.541   5.936
 7966TIP3   OH223840   4.605   7.147   5.689
 7966TIP3    H123841   4.603   7.055   5.716
 7966TIP3    H223842   4.574   7.146   5.599
 7967TIP3   OH223843   5.444   6.953   6.734
 7967TIP3    H123844   5.520   6.960   6.792
 7967TIP3    H223845   5.372   6.992   6.783
 7968TIP3   OH223846   2.030   2.658   1.477
 7968TIP3    H123847   1.960   2.650   1.412
 7968TIP3    H223848   2.004   2.734   1.530
 7969TIP3   OH223849   2.645   1.374   1.642
 7969TIP3    H123850   2.623   1.423   1.562
 7969TIP3    H223851   2.560   1.353   1.681
 7970TIP3   OH223852   1.300   4.434   2.312
 7970TIP3    H123853   1.305   4.503   2.247
 7970TIP3    H223854   1.247   4.471   2.383
 7971TIP3   OH223855   1.346   0.705   6.559
 7971TIP3    H123856   1.441   0.699   6.556
 7971TIP3    H223857   1.322   0.684   6.649
 7972TIP3   OH223858   0.380   5.212   3.523
 7972TIP3    H123859   0.456   5.270   3.526
 7972TIP3    H223860   0.314   5.257   3.576
 7973TIP3   OH223861   4.549   3.036   3.545
 7973TIP3    H123862   4.458   3.055   3.521
 7973TIP3    H223863   4.597   3.117   3.527
 7974TIP3   OH223864   5.724   4.588   3.784
 7974TIP3    H123865   5.716   4.523   3.715
 7974TIP3    H223866   5.792   4.554   3.842
 7975TIP3   OH223867   4.652   2.521   4.171
 7975TIP3    H123868   4.637   2.428   4.187
 7975TIP3    H223869   4.593   2.543   4.099
 7976TIP3   OH223870   3.209   6.557   0.011
 7976TIP3    H123871   3.275   6.490   0.028
 7976TIP3    H223872   3.147   6.515  -0.049
 7977TIP3   OH223873   1.948   3.959   4.674
 7977TIP3    H123874   2.032   3.984   4.714
 7977TIP3    H223875   1.956   3.986   4.583
 7978TIP3   OH223876   0.581   6.536   5.180
 7978TIP3    H123877   0.512   6.473   5.161
 7978TIP3    H223878   0.541   6.598   5.242
 7979TIP3   OH223879   3.427   4.955   1.891
 7979TIP3    H123880   3.359   5.023   1.897
 7979TIP3    H223881   3.404   4.892   1.959
 7980TIP3   OH223882   1.505   5.753   0.116
 7980TIP3    H123883   1.513   5.821   0.049
 7980TIP3    H223884   1.419   5.767   0.155
 7981TIP3   OH223885   3.623   3.314   6.483
 7981TIP3    H123886   3.568   3.391   6.497
 7981TIP3    H223887   3.614   3.264   6.565
 7982TIP3   OH223888   4.672   2.641   2.160
 7982TIP3    H123889   4.739   2.623   2.094
 7982TIP3    H223890   4.603   2.686   2.111
 7983TIP3   OH223891   2.253   5.221   5.068
 7983TIP3    H123892   2.231   5.294   5.126
 7983TIP3    H223893   2.172   5.204   5.020
 7984TIP3   OH223894   3.950   6.402   4.434
 7984TIP3    H123895   3.915   6.448   4.357
 7984TIP3    H223896   3.971   6.314   4.402
 7985TIP3   OH223897   2.165   3.231   1.636
 7985TIP3    H123898   2.195   3.253   1.548
 7985TIP3    H223899   2.089   3.175   1.622
 7986TIP3   OH223900   7.025   6.362   2.062
 7986TIP3    H123901   6.993   6.274   2.081
 7986TIP3    H223902   6.946   6.413   2.044
 7987TIP3   OH223903   0.027   5.877   6.286
 7987TIP3    H123904   0.056   5.796   6.326
 7987TIP3    H223905  -0.065   5.862   6.263
 7988TIP3   OH223906   8.282   3.723   2.186
 7988TIP3    H123907   8.331   3.754   2.110
 7988TIP3    H223908   8.236   3.645   2.155
 7989TIP3   OH223909   0.863   1.668   1.321
 7989TIP3    H123910   0.952   1.650   1.351
 7989TIP3    H223911   0.873   1.741   1.260
 7990TIP3   OH223912   4.079   0.304   2.073
 7990TIP3    H123913   4.132   0.240   2.120
 7990TIP3    H223914   4.029   0.252   2.010
 7991TIP3   OH223915   1.458   1.287   2.443
 7991TIP3    H123916   1.482   1.377   2.424
 7991TIP3    H223917   1.367   1.293   2.475
 7992TIP3   OH223918   1.288   4.149   3.235
 7992TIP3    H123919   1.360   4.115   3.181
 7992TIP3    H223920   1.231   4.194   3.172
 7993TIP3   OH223921   1.628   0.857   6.133
 7993TIP3    H123922   1.582   0.912   6.196
 7993TIP3    H223923   1.720   0.870   6.152
 7994TIP3   OH223924   5.003   0.778   0.864
 7994TIP3    H123925   4.999   0.708   0.799
 7994TIP3    H223926   5.073   0.751   0.924
 7995TIP3   OH223927   7.877   3.907   3.244
 7995TIP3    H123928   7.856   3.836   3.183
 7995TIP3    H223929   7.932   3.967   3.195
 7996TIP3   OH223930   4.046   3.468   4.072
 7996TIP3    H123931   4.041   3.494   4.164
 7996TIP3    H223932   4.139   3.452   4.056
 7997TIP3   OH223933   2.156   3.730   6.262
 7997TIP3    H123934   2.082   3.767   6.214
 7997TIP3    H223935   2.123   3.647   6.297
 7998TIP3   OH223936   5.611   4.174   0.635
 7998TIP3    H123937   5.517   4.171   0.653
 7998TIP3    H223938   5.641   4.255   0.677
 7999TIP3   OH223939   1.237   2.752   2.400
 7999TIP3    H123940   1.304   2.816   2.377
 7999TIP3    H223941   1.172   2.759   2.330
 8000TIP3   OH223942   1.040   1.808   4.732
 8000TIP3    H123943   1.086   1.891   4.741
 8000TIP3    H223944   0.947   1.832   4.737
 8001TIP3   OH223945   5.746   4.541   2.270
 8001TIP3    H123946   5.705   4.624   2.294
 8001TIP3    H223947   5.679   4.475   2.289
 8002TIP3   OH223948   0.339   5.451   2.417
 8002TIP3    H123949   0.354   5.425   2.326
 8002TIP3    H223950   0.426   5.458   2.455
 8003TIP3   OH223951   4.662   0.302   6.652
 8003TIP3    H123952   4.755   0.295   6.673
 8003TIP3    H223953   4.651   0.252   6.572
 8004TIP3   OH223954   0.181   0.247   3.690
 8004TIP3    H123955   0.146   0.319   3.638
 8004TIP3    H223956   0.110   0.225   3.751
 8005TIP3   OH223957   6.866   2.167   3.905
 8005TIP3    H123958   6.884   2.230   3.975
 8005TIP3    H223959   6.774   2.143   3.918
 8006TIP3   OH223960   7.967   2.286   0.807
 8006TIP3    H123961   7.951   2.284   0.712
 8006TIP3    H223962   8.045   2.339   0.817
 8007TIP3   OH223963   0.417   0.786   5.911
 8007TIP3    H123964   0.334   0.795   5.865
 8007TIP3    H223965   0.408   0.842   5.989
 8008TIP3   OH223966   2.656   2.583   1.576
 8008TIP3    H123967   2.701   2.641   1.515
 8008TIP3    H223968   2.586   2.636   1.613
 8009TIP3   OH223969   5.404   2.068   5.639
 8009TIP3    H123970   5.364   2.129   5.702
 8009TIP3    H223971   5.496   2.092   5.639
 8010TIP3   OH223972   4.327   2.892   3.276
 8010TIP3    H123973   4.262   2.959   3.255
 8010TIP3    H223974   4.407   2.923   3.235
 8011TIP3   OH223975   4.201   3.837   5.356
 8011TIP3    H123976   4.177   3.908   5.415
 8011TIP3    H223977   4.273   3.792   5.400
 8012TIP3   OH223978   4.289   0.840   3.868
 8012TIP3    H123979   4.224   0.903   3.900
 8012TIP3    H223980   4.238   0.764   3.839
 8013TIP3   OH223981   6.593   1.145   1.450
 8013TIP3    H123982   6.685   1.124   1.434
 8013TIP3    H223983   6.546   1.103   1.379
 8014TIP3   OH223984   5.619   3.037   1.683
 8014TIP3    H123985   5.605   3.125   1.648
 8014TIP3    H223986   5.532   3.007   1.708
 8015TIP3   OH223987   0.303   1.774   4.500
 8015TIP3    H123988   0.215   1.812   4.510
 8015TIP3    H223989   0.322   1.785   4.406
 8016TIP3   OH223990   4.955   4.028   1.062
 8016TIP3    H123991   4.922   3.944   1.028
 8016TIP3    H223992   4.906   4.042   1.143
 8017TIP3   OH223993   0.006   4.464   1.236
 8017TIP3    H123994   0.022   4.534   1.300
 8017TIP3    H223995  -0.020   4.389   1.288
 8018TIP3   OH223996   6.216   6.952   4.177
 8018TIP3    H123997   6.200   6.858   4.171
 8018TIP3    H223998   6.152   6.983   4.241
 8019TIP3   OH223999   7.293   4.297   6.197
 8019TIP3    H124000   7.305   4.364   6.130
 8019TIP3    H224001   7.313   4.341   6.279
 8020TIP3   OH224002   0.849   4.388   4.837
 8020TIP3    H124003   0.855   4.344   4.753
 8020TIP3    H224004   0.872   4.321   4.901
 8021TIP3   OH224005   1.579   2.372   6.018
 8021TIP3    H124006   1.515   2.398   6.084
 8021TIP3    H224007   1.543   2.292   5.979
 8022TIP3   OH224008   8.126   6.501   4.778
 8022TIP3    H124009   8.146   6.420   4.732
 8022TIP3    H224010   8.184   6.566   4.739
 8023TIP3   OH224011   3.599   6.632   6.099
 8023TIP3    H124012   3.584   6.596   6.011
 8023TIP3    H224013   3.588   6.557   6.157
 8024TIP3   OH224014   6.324   6.622   4.598
 8024TIP3    H124015   6.308   6.713   4.572
 8024TIP3    H224016   6.407   6.625   4.644
 8025TIP3   OH224017   3.291   1.858   6.498
 8025TIP3    H124018   3.347   1.813   6.434
 8025TIP3    H224019   3.328   1.834   6.583
 8026TIP3   OH224020   5.082   6.789   0.727
 8026TIP3    H124021   5.030   6.797   0.807
 8026TIP3    H224022   5.096   6.878   0.697
 8027TIP3   OH224023   2.456   6.936   6.329
 8027TIP3    H124024   2.415   6.864   6.280
 8027TIP3    H224025   2.428   6.922   6.420
 8028TIP3   OH224026   8.132   0.428   0.192
 8028TIP3    H124027   8.055   0.484   0.199
 8028TIP3    H224028   8.189   0.457   0.264
 8029TIP3   OH224029   3.362   1.651   3.375
 8029TIP3    H124030   3.321   1.663   3.461
 8029TIP3    H224031   3.450   1.687   3.384
 8030TIP3   OH224032   4.997   0.183   4.040
 8030TIP3    H124033   4.948   0.201   4.121
 8030TIP3    H224034   5.007   0.087   4.040
 8031TIP3   OH224035   1.619   0.002   1.757
 8031TIP3    H124036   1.664   0.086   1.773
 8031TIP3    H224037   1.536   0.027   1.715
 8032TIP3   OH224038   6.035   7.128   5.744
 8032TIP3    H124039   5.995   7.202   5.699
 8032TIP3    H224040   5.968   7.060   5.742
 8033TIP3   OH224041   1.897   2.115   5.139
 8033TIP3    H124042   1.980   2.105   5.091
 8033TIP3    H224043   1.833   2.136   5.071
 8034TIP3   OH224044   4.653   0.590   0.592
 8034TIP3    H124045   4.568   0.632   0.578
 8034TIP3    H224046   4.670   0.601   0.686
 8035TIP3   OH224047   1.268   2.877   5.562
 8035TIP3    H124048   1.252   2.790   5.598
 8035TIP3    H224049   1.233   2.874   5.473
 8036TIP3   OH224050   0.528   4.051   5.348
 8036TIP3    H124051   0.586   3.986   5.308
 8036TIP3    H224052   0.570   4.135   5.329
 8037TIP3   OH224053   1.315   7.264   2.706
 8037TIP3    H124054   1.328   7.182   2.659
 8037TIP3    H224055   1.334   7.242   2.797
 8038TIP3   OH224056   4.236   2.420   4.739
 8038TIP3    H124057   4.163   2.461   4.693
 8038TIP3    H224058   4.203   2.334   4.766
 8039TIP3   OH224059   6.589   0.720   2.683
 8039TIP3    H124060   6.671   0.670   2.687
 8039TIP3    H224061   6.556   0.704   2.595
 8040TIP3   OH224062   0.276   2.612   4.349
 8040TIP3    H124063   0.216   2.598   4.423
 8040TIP3    H224064   0.235   2.567   4.276
 8041TIP3   OH224065   3.466   1.485   5.644
 8041TIP3    H124066   3.412   1.564   5.640
 8041TIP3    H224067   3.536   1.508   5.705
 8042TIP3   OH224068   6.142   6.668   1.157
 8042TIP3    H124069   6.141   6.760   1.133
 8042TIP3    H224070   6.235   6.645   1.159
 8043TIP3   OH224071   3.179   5.346   3.206
 8043TIP3    H124072   3.102   5.332   3.152
 8043TIP3    H224073   3.194   5.261   3.248
 8044TIP3   OH224074   1.792   4.561   2.423
 8044TIP3    H124075   1.873   4.585   2.468
 8044TIP3    H224076   1.737   4.639   2.431
 8045TIP3   OH224077   0.265   0.399   0.436
 8045TIP3    H124078   0.325   0.401   0.361
 8045TIP3    H224079   0.295   0.326   0.489
 8046TIP3   OH224080   5.740   6.351   4.566
 8046TIP3    H124081   5.726   6.442   4.540
 8046TIP3    H224082   5.675   6.302   4.515
 8047TIP3   OH224083   7.694   4.872   3.818
 8047TIP3    H124084   7.736   4.873   3.904
 8047TIP3    H224085   7.614   4.923   3.831
 8048TIP3   OH224086   0.501   4.615   6.331
 8048TIP3    H124087   0.532   4.697   6.370
 8048TIP3    H224088   0.563   4.549   6.361
 8049TIP3   OH224089   3.095   0.731   3.944
 8049TIP3    H124090   3.150   0.807   3.925
 8049TIP3    H224091   3.010   0.767   3.966
 8050TIP3   OH224092   5.571   6.184   6.069
 8050TIP3    H124093   5.522   6.240   6.129
 8050TIP3    H224094   5.537   6.206   5.982
 8051TIP3   OH224095   3.188   5.496   0.164
 8051TIP3    H124096   3.134   5.574   0.152
 8051TIP3    H224097   3.130   5.434   0.209
 8052TIP3   OH224098   4.832   1.752   1.175
 8052TIP3    H124099   4.772   1.700   1.122
 8052TIP3    H224100   4.778   1.787   1.245
 8053TIP3   OH224101   6.699   1.733   6.132
 8053TIP3    H124102   6.733   1.669   6.070
 8053TIP3    H224103   6.709   1.817   6.089
 8054TIP3   OH224104   1.049   2.994   0.915
 8054TIP3    H124105   1.010   2.917   0.955
 8054TIP3    H224106   1.140   2.994   0.946
 8055TIP3   OH224107   7.378   4.540   6.067
 8055TIP3    H124108   7.450   4.561   6.006
 8055TIP3    H224109   7.308   4.601   6.043
 8056TIP3   OH224110   6.515   5.198   4.856
 8056TIP3    H124111   6.504   5.120   4.912
 8056TIP3    H224112   6.426   5.226   4.837
 8057TIP3   OH224113   3.278   4.202   4.670
 8057TIP3    H124114   3.340   4.217   4.598
 8057TIP3    H224115   3.276   4.285   4.717
 8058TIP3   OH224116   6.960   3.125   3.130
 8058TIP3    H124117   6.989   3.089   3.047
 8058TIP3    H224118   7.003   3.210   3.136
 8059TIP3   OH224119   2.370   0.467   0.675
 8059TIP3    H124120   2.378   0.382   0.630
 8059TIP3    H224121   2.310   0.517   0.619
 8060TIP3   OH224122   1.467   7.019   1.565
 8060TIP3    H124123   1.522   6.947   1.535
 8060TIP3    H224124   1.425   7.051   1.485
 8061TIP3   OH224125   7.082   0.466   2.820
 8061TIP3    H124126   7.158   0.521   2.802
 8061TIP3    H224127   7.108   0.379   2.790
 8062TIP3   OH224128   6.867   4.272   2.948
 8062TIP3    H124129   6.834   4.351   2.991
 8062TIP3    H224130   6.859   4.290   2.855
 8063TIP3   OH224131   2.756   1.222   4.370
 8063TIP3    H124132   2.721   1.138   4.340
 8063TIP3    H224133   2.842   1.200   4.405
 8064TIP3   OH224134   3.618   5.917   4.653
 8064TIP3    H124135   3.691   5.875   4.699
 8064TIP3    H224136   3.565   5.955   4.723
 8065TIP3   OH224137   6.431   4.469   4.815
 8065TIP3    H124138   6.370   4.437   4.882
 8065TIP3    H224139   6.450   4.393   4.761
 8066TIP3   OH224140   2.320   1.015   0.023
 8066TIP3    H124141   2.356   0.958  -0.046
 8066TIP3    H224142   2.395   1.034   0.079
 8067TIP3   OH224143   0.935   5.303   5.927
 8067TIP3    H124144   0.917   5.385   5.881
 8067TIP3    H224145   0.931   5.236   5.859
 8068TIP3   OH224146   3.575   4.790   4.837
 8068TIP3    H124147   3.502   4.851   4.830
 8068TIP3    H224148   3.545   4.713   4.788
 8069TIP3   OH224149   6.735   2.417   6.121
 8069TIP3    H124150   6.809   2.454   6.169
 8069TIP3    H224151   6.713   2.337   6.169
 8070TIP3   OH224152   7.027   5.339   1.789
 8070TIP3    H124153   6.976   5.259   1.780
 8070TIP3    H224154   7.107   5.312   1.836
 8071TIP3   OH224155   2.311   5.653   0.080
 8071TIP3    H124156   2.225   5.616   0.101
 8071TIP3    H224157   2.363   5.640   0.159
 8072TIP3   OH224158   1.908   7.745   1.928
 8072TIP3    H124159   1.927   7.766   1.836
 8072TIP3    H224160   1.955   7.664   1.944
 8073TIP3   OH224161   7.334   2.727   6.563
 8073TIP3    H124162   7.365   2.814   6.587
 8073TIP3    H224163   7.413   2.679   6.538
 8074TIP3   OH224164   4.019   0.934   0.610
 8074TIP3    H124165   3.993   0.918   0.701
 8074TIP3    H224166   3.954   0.996   0.577
 8075TIP3   OH224167   4.958   6.996   1.885
 8075TIP3    H124168   4.952   6.905   1.857
 8075TIP3    H224169   5.019   6.995   1.959
 8076TIP3   OH224170   0.059   4.651   1.407
 8076TIP3    H124171   0.113   4.662   1.485
 8076TIP3    H224172   0.074   4.730   1.356
 8077TIP3   OH224173   3.591   2.879   5.547
 8077TIP3    H124174   3.606   2.789   5.517
 8077TIP3    H224175   3.652   2.932   5.495
 8078TIP3   OH224176   2.712   4.503   3.259
 8078TIP3    H124177   2.799   4.477   3.288
 8078TIP3    H224178   2.721   4.595   3.235
 8079TIP3   OH224179   5.615   1.968   2.500
 8079TIP3    H124180   5.530   1.975   2.544
 8079TIP3    H224181   5.672   1.926   2.564
 8080TIP3   OH224182   2.541   2.426   2.018
 8080TIP3    H124183   2.620   2.378   1.992
 8080TIP3    H224184   2.489   2.363   2.066
 8081TIP3   OH224185   4.445   1.399   0.741
 8081TIP3    H124186   4.395   1.480   0.754
 8081TIP3    H224187   4.411   1.339   0.808
 8082TIP3   OH224188   7.171   4.050   1.608
 8082TIP3    H124189   7.229   4.093   1.671
 8082TIP3    H224190   7.101   4.013   1.662
 8083TIP3   OH224191   1.523   3.734   0.857
 8083TIP3    H124192   1.589   3.761   0.920
 8083TIP3    H224193   1.520   3.804   0.793
 8084TIP3   OH224194   2.996   5.659   3.253
 8084TIP3    H124195   2.980   5.567   3.233
 8084TIP3    H224196   2.999   5.663   3.349
 8085TIP3   OH224197   8.037   7.344   5.478
 8085TIP3    H124198   8.000   7.385   5.400
 8085TIP3    H224199   8.128   7.325   5.454
 8086TIP3   OH224200   4.599   7.726   3.569
 8086TIP3    H124201   4.506   7.709   3.553
 8086TIP3    H224202   4.632   7.757   3.484
 8087TIP3   OH224203   8.281   5.136   3.441
 8087TIP3    H124204   8.193   5.148   3.405
 8087TIP3    H224205   8.278   5.050   3.484
 8088TIP3   OH224206   4.023   1.114   0.286
 8088TIP3    H124207   3.969   1.144   0.359
 8088TIP3    H224208   4.075   1.191   0.261
 8089TIP3   OH224209   6.039   4.679   4.726
 8089TIP3    H124210   6.064   4.587   4.719
 8089TIP3    H224211   6.031   4.695   4.821
 8090TIP3   OH224212   3.679   5.066   2.798
 8090TIP3    H124213   3.692   5.065   2.703
 8090TIP3    H224214   3.602   5.121   2.812
 8091TIP3   OH224215   7.565   6.040   1.450
 8091TIP3    H124216   7.526   5.994   1.375
 8091TIP3    H224217   7.611   5.971   1.499
 8092TIP3   OH224218   0.369   2.622   5.594
 8092TIP3    H124219   0.285   2.640   5.635
 8092TIP3    H224220   0.348   2.568   5.518
 8093TIP3   OH224221   4.765   7.119   0.264
 8093TIP3    H124222   4.730   7.196   0.310
 8093TIP3    H224223   4.754   7.047   0.325
 8094TIP3   OH224224   0.414   7.665   5.469
 8094TIP3    H124225   0.335   7.718   5.456
 8094TIP3    H224226   0.456   7.703   5.547
 8095TIP3   OH224227   7.008   6.746   2.809
 8095TIP3    H124228   7.072   6.684   2.845
 8095TIP3    H224229   6.926   6.697   2.806
 8096TIP3   OH224230   5.093   6.685   3.594
 8096TIP3    H124231   5.123   6.758   3.648
 8096TIP3    H224232   4.998   6.694   3.591
 8097TIP3   OH224233   4.849   1.454   3.133
 8097TIP3    H124234   4.754   1.466   3.129
 8097TIP3    H224235   4.874   1.493   3.217
 8098TIP3   OH224236   2.917   6.309   5.637
 8098TIP3    H124237   2.915   6.404   5.625
 8098TIP3    H224238   2.827   6.286   5.659
 8099TIP3   OH224239   1.336   4.184   1.731
 8099TIP3    H124240   1.261   4.135   1.697
 8099TIP3    H224241   1.299   4.246   1.793
 8100TIP3   OH224242   0.326   2.882   1.374
 8100TIP3    H124243   0.379   2.803   1.384
 8100TIP3    H224244   0.248   2.852   1.328
 8101TIP3   OH224245   7.353   3.248   0.658
 8101TIP3    H124246   7.424   3.212   0.712
 8101TIP3    H224247   7.285   3.272   0.720
 8102TIP3   OH224248   7.609   0.808   0.939
 8102TIP3    H124249   7.535   0.829   0.881
 8102TIP3    H224250   7.621   0.714   0.930
 8103TIP3   OH224251   5.289   0.077   0.398
 8103TIP3    H124252   5.211   0.054   0.449
 8103TIP3    H224253   5.268   0.160   0.357
 8104TIP3   OH224254   8.155   3.757   6.362
 8104TIP3    H124255   8.065   3.734   6.337
 8104TIP3    H224256   8.145   3.815   6.437
 8105TIP3   OH224257   6.315   0.811   3.532
 8105TIP3    H124258   6.219   0.813   3.535
 8105TIP3    H224259   6.341   0.788   3.621
 8106TIP3   OH224260   0.129   7.264   6.342
 8106TIP3    H124261   0.060   7.207   6.309
 8106TIP3    H224262   0.172   7.297   6.263
 8107TIP3   OH224263   3.108   2.338   1.005
 8107TIP3    H124264   3.172   2.390   1.053
 8107TIP3    H224265   3.035   2.327   1.067
 8108TIP3   OH224266   5.739   3.081   4.684
 8108TIP3    H124267   5.829   3.056   4.703
 8108TIP3    H224268   5.701   3.102   4.770
 8109TIP3   OH224269   7.951   0.499   6.770
 8109TIP3    H124270   7.943   0.582   6.818
 8109TIP3    H224271   8.013   0.519   6.700
 8110TIP3   OH224272   7.651   7.590   1.968
 8110TIP3    H124273   7.677   7.601   1.877
 8110TIP3    H224274   7.607   7.505   1.970
 8111TIP3   OH224275   5.469   2.489   2.360
 8111TIP3    H124276   5.465   2.400   2.326
 8111TIP3    H224277   5.562   2.503   2.380
 8112TIP3   OH224278   1.603   4.291   1.797
 8112TIP3    H124279   1.670   4.222   1.796
 8112TIP3    H224280   1.523   4.247   1.770
 8113TIP3   OH224281   4.258   6.195   5.360
 8113TIP3    H124282   4.189   6.203   5.425
 8113TIP3    H224283   4.337   6.225   5.405
 8114TIP3   OH224284   6.716   3.602   3.215
 8114TIP3    H124285   6.762   3.579   3.134
 8114TIP3    H224286   6.627   3.570   3.202
 8115TIP3   OH224287   0.234   6.168   3.164
 8115TIP3    H124288   0.214   6.178   3.257
 8115TIP3    H224289   0.297   6.095   3.161
 8116TIP3   OH224290   0.681   6.693   3.298
 8116TIP3    H124291   0.595   6.659   3.278
 8116TIP3    H224292   0.704   6.748   3.223
 8117TIP3   OH224293   3.461   5.080   6.466
 8117TIP3    H124294   3.396   5.149   6.457
 8117TIP3    H224295   3.482   5.080   6.560
 8118TIP3   OH224296   7.223   1.438   1.781
 8118TIP3    H124297   7.267   1.367   1.828
 8118TIP3    H224298   7.267   1.517   1.812
 8119TIP3   OH224299   0.956   1.118   1.225
 8119TIP3    H124300   0.932   1.041   1.173
 8119TIP3    H224301   1.014   1.169   1.168
 8120TIP3   OH224302   3.892   4.744   0.493
 8120TIP3    H124303   3.976   4.785   0.473
 8120TIP3    H224304   3.912   4.650   0.497
 8121TIP3   OH224305   3.884   5.009   3.919
 8121TIP3    H124306   3.890   4.930   3.972
 8121TIP3    H224307   3.965   5.057   3.938
 8122TIP3   OH224308   0.096   7.019   5.517
 8122TIP3    H124309   0.113   7.085   5.584
 8122TIP3    H224310   0.081   7.070   5.437
 8123TIP3   OH224311   6.641   4.605   0.925
 8123TIP3    H124312   6.726   4.616   0.969
 8123TIP3    H224313   6.578   4.603   0.997
 8124TIP3   OH224314   4.121   6.982   4.860
 8124TIP3    H124315   4.053   7.044   4.888
 8124TIP3    H224316   4.074   6.899   4.849
 8125TIP3   OH224317   3.584   3.907   5.054
 8125TIP3    H124318   3.629   3.887   4.972
 8125TIP3    H224319   3.650   3.948   5.110
 8126TIP3   OH224320   3.199   7.371   0.995
 8126TIP3    H124321   3.106   7.393   0.989
 8126TIP3    H224322   3.217   7.319   0.917
 8127TIP3   OH224323   6.806   3.177   5.941
 8127TIP3    H124324   6.772   3.191   6.030
 8127TIP3    H224325   6.801   3.264   5.900
 8128TIP3   OH224326   7.957   6.404   2.668
 8128TIP3    H124327   7.979   6.355   2.747
 8128TIP3    H224328   7.870   6.374   2.644
 8129TIP3   OH224329   7.487   6.472   4.633
 8129TIP3    H124330   7.449   6.384   4.632
 8129TIP3    H224331   7.412   6.531   4.640
 8130TIP3   OH224332   7.152   6.608   2.577
 8130TIP3    H124333   7.184   6.576   2.493
 8130TIP3    H224334   7.076   6.662   2.555
 8131TIP3   OH224335   6.135   0.189   4.956
 8131TIP3    H124336   6.116   0.104   4.996
 8131TIP3    H224337   6.214   0.220   5.001
 8132TIP3   OH224338   5.029   5.021   2.403
 8132TIP3    H124339   5.096   5.060   2.347
 8132TIP3    H224340   5.077   4.959   2.458
 8133TIP3   OH224341   8.171   4.955   0.824
 8133TIP3    H124342   8.169   5.049   0.808
 8133TIP3    H224343   8.241   4.943   0.889
 8134TIP3   OH224344   2.633   7.464   1.020
 8134TIP3    H124345   2.632   7.385   0.966
 8134TIP3    H224346   2.609   7.434   1.108
 8135TIP3   OH224347   1.028   1.994   3.150
 8135TIP3    H124348   1.072   2.048   3.216
 8135TIP3    H224349   0.937   2.025   3.151
 8136TIP3   OH224350   5.188   2.469   4.159
 8136TIP3    H124351   5.175   2.391   4.213
 8136TIP3    H224352   5.278   2.496   4.177
 8137TIP3   OH224353   0.784   0.986   4.760
 8137TIP3    H124354   0.745   1.031   4.835
 8137TIP3    H224355   0.713   0.931   4.725
 8138TIP3   OH224356   2.889   3.826   1.325
 8138TIP3    H124357   2.798   3.830   1.354
 8138TIP3    H224358   2.897   3.743   1.278
 8139TIP3   OH224359   0.200   5.343   5.150
 8139TIP3    H124360   0.188   5.356   5.056
 8139TIP3    H224361   0.127   5.390   5.190
 8140TIP3   OH224362   7.285   7.133   1.196
 8140TIP3    H124363   7.222   7.075   1.154
 8140TIP3    H224364   7.268   7.219   1.157
 8141TIP3   OH224365   8.015   6.817   6.471
 8141TIP3    H124366   8.096   6.766   6.469
 8141TIP3    H224367   8.045   6.907   6.485
 8142TIP3   OH224368   2.119   5.294   4.719
 8142TIP3    H124369   2.054   5.364   4.712
 8142TIP3    H224370   2.078   5.229   4.776
 8143TIP3   OH224371   0.600   7.444   6.742
 8143TIP3    H124372   0.572   7.357   6.714
 8143TIP3    H224373   0.688   7.430   6.777
 8144TIP3   OH224374   1.241   1.216   1.794
 8144TIP3    H124375   1.328   1.203   1.755
 8144TIP3    H224376   1.191   1.138   1.768
 8145TIP3   OH224377   7.819   5.609   1.253
 8145TIP3    H124378   7.819   5.704   1.266
 8145TIP3    H224379   7.757   5.594   1.182
 8146TIP3   OH224380   3.783   5.229   5.960
 8146TIP3    H124381   3.766   5.226   6.054
 8146TIP3    H224382   3.877   5.211   5.951
 8147TIP3   OH224383   6.155   6.447   0.164
 8147TIP3    H124384   6.223   6.492   0.214
 8147TIP3    H224385   6.074   6.466   0.210
 8148TIP3   OH224386   2.193   1.222   1.596
 8148TIP3    H124387   2.166   1.137   1.563
 8148TIP3    H224388   2.247   1.259   1.526
 8149TIP3   OH224389   7.215   2.118   1.290
 8149TIP3    H124390   7.210   2.168   1.209
 8149TIP3    H224391   7.308   2.114   1.310
 8150TIP3   OH224392   3.464   3.753   1.438
 8150TIP3    H124393   3.476   3.724   1.348
 8150TIP3    H224394   3.518   3.832   1.445
 8151TIP3   OH224395   4.297   6.865   3.177
 8151TIP3    H124396   4.225   6.803   3.170
 8151TIP3    H224397   4.338   6.864   3.090
 8152TIP3   OH224398   7.803   5.814   3.768
 8152TIP3    H124399   7.855   5.752   3.819
 8152TIP3    H224400   7.771   5.764   3.693
 8153TIP3   OH224401   3.751   1.341   5.544
 8153TIP3    H124402   3.774   1.430   5.571
 8153TIP3    H224403   3.821   1.315   5.484
 8154TIP3   OH224404   3.128   7.094   4.624
 8154TIP3    H124405   3.152   7.002   4.623
 8154TIP3    H224406   3.212   7.141   4.621
 8155TIP3   OH224407   3.789   3.412   1.122
 8155TIP3    H124408   3.815   3.458   1.202
 8155TIP3    H224409   3.859   3.428   1.060
 8156TIP3   OH224410   4.814   1.487   0.883
 8156TIP3    H124411   4.771   1.513   0.802
 8156TIP3    H224412   4.827   1.393   0.874
 8157TIP3   OH224413   7.318   4.708   5.256
 8157TIP3    H124414   7.234   4.754   5.257
 8157TIP3    H224415   7.382   4.778   5.242
 8158TIP3   OH224416   4.707   2.413   6.347
 8158TIP3    H124417   4.632   2.444   6.397
 8158TIP3    H224418   4.763   2.490   6.338
 8159TIP3   OH224419   0.187   4.321   6.002
 8159TIP3    H124420   0.255   4.282   5.948
 8159TIP3    H224421   0.184   4.413   5.975
 8160TIP3   OH224422   0.434   6.155   0.275
 8160TIP3    H124423   0.466   6.067   0.258
 8160TIP3    H224424   0.349   6.159   0.231
 8161TIP3   OH224425   1.909   2.227   6.737
 8161TIP3    H124426   1.961   2.278   6.799
 8161TIP3    H224427   1.840   2.287   6.708
 8162TIP3   OH224428   1.659   5.519   4.826
 8162TIP3    H124429   1.633   5.445   4.881
 8162TIP3    H224430   1.582   5.575   4.824
 8163TIP3   OH224431   4.657   4.958   1.337
 8163TIP3    H124432   4.604   4.913   1.403
 8163TIP3    H224433   4.667   5.047   1.370
 8164TIP3   OH224434   5.482   1.321   4.637
 8164TIP3    H124435   5.454   1.371   4.714
 8164TIP3    H224436   5.548   1.376   4.595
 8165TIP3   OH224437   2.153   0.301   3.220
 8165TIP3    H124438   2.156   0.389   3.258
 8165TIP3    H224439   2.060   0.280   3.215
 8166TIP3   OH224440   6.823   3.550   3.926
 8166TIP3    H124441   6.757   3.489   3.959
 8166TIP3    H224442   6.862   3.505   3.851
 8167TIP3   OH224443   1.399   2.898   5.220
 8167TIP3    H124444   1.374   2.848   5.142
 8167TIP3    H224445   1.394   2.835   5.292
 8168TIP3   OH224446   3.398   5.533   0.767
 8168TIP3    H124447   3.479   5.577   0.740
 8168TIP3    H224448   3.343   5.535   0.689
 8169TIP3   OH224449   6.120   2.170   3.808
 8169TIP3    H124450   6.103   2.222   3.886
 8169TIP3    H224451   6.040   2.179   3.755
 8170TIP3   OH224452   5.438   5.882   2.140
 8170TIP3    H124453   5.483   5.828   2.076
 8170TIP3    H224454   5.455   5.840   2.224
 8171TIP3   OH224455   6.662   7.356   0.837
 8171TIP3    H124456   6.574   7.349   0.873
 8171TIP3    H224457   6.652   7.411   0.759
 8172TIP3   OH224458   1.540   5.048   1.710
 8172TIP3    H124459   1.450   5.050   1.741
 8172TIP3    H224460   1.537   5.092   1.625
 8173TIP3   OH224461   3.440   7.039   6.434
 8173TIP3    H124462   3.442   7.044   6.530
 8173TIP3    H224463   3.422   6.947   6.416
 8174TIP3   OH224464   4.750   1.667   4.234
 8174TIP3    H124465   4.721   1.758   4.230
 8174TIP3    H224466   4.812   1.659   4.161
 8175TIP3   OH224467   6.756   5.822   4.808
 8175TIP3    H124468   6.817   5.753   4.785
 8175TIP3    H224469   6.670   5.787   4.784
 8176TIP3   OH224470   6.766   7.079   3.305
 8176TIP3    H124471   6.838   7.099   3.246
 8176TIP3    H224472   6.800   7.010   3.362
 8177TIP3   OH224473   8.194   0.521   5.622
 8177TIP3    H124474   8.192   0.568   5.705
 8177TIP3    H224475   8.110   0.542   5.581
 8178TIP3   OH224476   2.592   4.388   0.330
 8178TIP3    H124477   2.561   4.456   0.390
 8178TIP3    H224478   2.572   4.305   0.375
 8179TIP3   OH224479   5.514   5.109   2.735
 8179TIP3    H124480   5.517   5.199   2.766
 8179TIP3    H224481   5.568   5.060   2.797
 8180TIP3   OH224482   3.508   0.970   0.604
 8180TIP3    H124483   3.557   0.959   0.522
 8180TIP3    H224484   3.576   0.974   0.671
 8181TIP3   OH224485   4.314   4.450   3.465
 8181TIP3    H124486   4.401   4.414   3.483
 8181TIP3    H224487   4.311   4.532   3.514
 8182TIP3   OH224488   6.376   6.880   5.559
 8182TIP3    H124489   6.407   6.821   5.628
 8182TIP3    H224490   6.456   6.917   5.521
 8183TIP3   OH224491   4.441   7.266   1.371
 8183TIP3    H124492   4.421   7.237   1.460
 8183TIP3    H224493   4.385   7.212   1.315
 8184TIP3   OH224494   1.997   0.737   4.366
 8184TIP3    H124495   1.903   0.721   4.362
 8184TIP3    H224496   2.029   0.718   4.278
 8185TIP3   OH224497   6.250   6.955   0.778
 8185TIP3    H124498   6.340   6.922   0.791
 8185TIP3    H224499   6.195   6.879   0.795
 8186TIP3   OH224500   0.089   3.785   1.945
 8186TIP3    H124501   0.125   3.871   1.924
 8186TIP3    H224502   0.095   3.736   1.864
 8187TIP3   OH224503   1.827   0.633   1.275
 8187TIP3    H124504   1.846   0.568   1.208
 8187TIP3    H224505   1.733   0.624   1.292
 8188TIP3   OH224506   0.994   3.732   1.028
 8188TIP3    H124507   1.078   3.691   1.009
 8188TIP3    H224508   1.015   3.808   1.083
 8189TIP3   OH224509   5.519   4.316   2.659
 8189TIP3    H124510   5.584   4.311   2.730
 8189TIP3    H224511   5.490   4.226   2.647
 8190TIP3   OH224512   4.104   7.881   6.229
 8190TIP3    H124513   4.077   7.940   6.160
 8190TIP3    H224514   4.072   7.795   6.202
 8191TIP3   OH224515   7.448   3.347   1.776
 8191TIP3    H124516   7.520   3.386   1.825
 8191TIP3    H224517   7.398   3.422   1.743
 8192TIP3   OH224518   5.564   2.276   6.441
 8192TIP3    H124519   5.510   2.278   6.362
 8192TIP3    H224520   5.505   2.245   6.510
 8193TIP3   OH224521   6.641   5.468   0.965
 8193TIP3    H124522   6.693   5.389   0.984
 8193TIP3    H224523   6.562   5.458   1.018
 8194TIP3   OH224524   0.531   3.010   3.685
 8194TIP3    H124525   0.602   2.947   3.673
 8194TIP3    H224526   0.495   2.990   3.771
 8195TIP3   OH224527   4.422   1.525   2.610
 8195TIP3    H124528   4.377   1.521   2.525
 8195TIP3    H224529   4.351   1.538   2.673
 8196TIP3   OH224530   1.003   2.408   0.020
 8196TIP3    H124531   0.987   2.383  -0.070
 8196TIP3    H224532   0.989   2.328   0.071
 8197TIP3   OH224533   0.325  -0.046   4.077
 8197TIP3    H124534   0.357   0.044   4.073
 8197TIP3    H224535   0.274  -0.058   3.997
 8198TIP3   OH224536   2.231   4.980   4.472
 8198TIP3    H124537   2.298   4.912   4.480
 8198TIP3    H224538   2.196   4.990   4.560
 8199TIP3   OH224539   0.537   7.213   2.926
 8199TIP3    H124540   0.541   7.308   2.921
 8199TIP3    H224541   0.445   7.192   2.915
 8200TIP3   OH224542   7.651   7.440   6.501
 8200TIP3    H124543   7.679   7.513   6.446
 8200TIP3    H224544   7.559   7.428   6.480
 8201TIP3   OH224545   0.816   7.701   1.810
 8201TIP3    H124546   0.838   7.772   1.749
 8201TIP3    H224547   0.900   7.677   1.850
 8202TIP3   OH224548   6.178   3.034   3.456
 8202TIP3    H124549   6.108   3.065   3.514
 8202TIP3    H224550   6.244   3.103   3.459
 8203TIP3   OH224551   6.736   2.867   1.884
 8203TIP3    H124552   6.828   2.866   1.860
 8203TIP3    H224553   6.689   2.859   1.800
 8204TIP3   OH224554   3.860   2.290   3.368
 8204TIP3    H124555   3.836   2.200   3.389
 8204TIP3    H224556   3.953   2.296   3.391
 8205TIP3   OH224557   0.198   4.856   2.311
 8205TIP3    H124558   0.194   4.767   2.276
 8205TIP3    H224559   0.205   4.843   2.406
 8206TIP3   OH224560   4.204   3.351   6.288
 8206TIP3    H124561   4.202   3.320   6.379
 8206TIP3    H224562   4.296   3.374   6.273
 8207TIP3   OH224563   4.903   2.867   3.497
 8207TIP3    H124564   4.956   2.826   3.428
 8207TIP3    H224565   4.887   2.956   3.464
 8208TIP3   OH224566   5.431   3.716   5.885
 8208TIP3    H124567   5.346   3.760   5.882
 8208TIP3    H224568   5.435   3.667   5.803
 8209TIP3   OH224569   6.132   6.556   6.320
 8209TIP3    H124570   6.120   6.485   6.257
 8209TIP3    H224571   6.105   6.635   6.273
 8210TIP3   OH224572   3.679   1.733   1.500
 8210TIP3    H124573   3.675   1.745   1.405
 8210TIP3    H224574   3.752   1.672   1.513
 8211TIP3   OH224575   3.079   1.225   2.992
 8211TIP3    H124576   3.035   1.295   2.943
 8211TIP3    H224577   3.171   1.251   2.994
 8212TIP3   OH224578   4.769   0.023   5.673
 8212TIP3    H124579   4.701  -0.043   5.687
 8212TIP3    H224580   4.800   0.045   5.761
 8213TIP3   OH224581   1.076   4.231   6.698
 8213TIP3    H124582   1.005   4.294   6.707
 8213TIP3    H224583   1.077   4.209   6.605
 8214TIP3   OH224584   4.231   3.162   4.465
 8214TIP3    H124585   4.312   3.203   4.494
 8214TIP3    H224586   4.240   3.070   4.489
 8215TIP3   OH224587   6.839   1.096   1.944
 8215TIP3    H124588   6.860   1.160   1.876
 8215TIP3    H224589   6.752   1.120   1.976
 8216TIP3   OH224590   0.530   2.676   4.670
 8216TIP3    H124591   0.487   2.598   4.633
 8216TIP3    H224592   0.614   2.642   4.703
 8217TIP3   OH224593   2.571   4.688   5.649
 8217TIP3    H124594   2.645   4.717   5.596
 8217TIP3    H224595   2.504   4.755   5.635
 8218TIP3   OH224596   2.545   0.711   1.150
 8218TIP3    H124597   2.513   0.635   1.102
 8218TIP3    H224598   2.604   0.675   1.216
 8219TIP3   OH224599   7.877   2.917   1.573
 8219TIP3    H124600   7.947   2.873   1.524
 8219TIP3    H224601   7.843   2.983   1.513
 8220TIP3   OH224602   7.098   1.491   5.668
 8220TIP3    H124603   7.101   1.492   5.572
 8220TIP3    H224604   7.090   1.583   5.693
 8221TIP3   OH224605   7.457   7.286   0.478
 8221TIP3    H124606   7.436   7.371   0.441
 8221TIP3    H224607   7.542   7.298   0.520
 8222TIP3   OH224608   0.601   2.310   4.919
 8222TIP3    H124609   0.584   2.365   4.996
 8222TIP3    H224610   0.515   2.301   4.877
 8223TIP3   OH224611   8.165   7.424   0.165
 8223TIP3    H124612   8.255   7.425   0.134
 8223TIP3    H224613   8.171   7.390   0.254
 8224TIP3   OH224614   6.422   2.563   6.468
 8224TIP3    H124615   6.455   2.599   6.386
 8224TIP3    H224616   6.478   2.602   6.536
 8225TIP3   OH224617   7.659   3.726   1.973
 8225TIP3    H124618   7.652   3.631   1.967
 8225TIP3    H224619   7.653   3.756   1.882
 8226TIP3   OH224620   3.571   2.449   2.070
 8226TIP3    H124621   3.559   2.543   2.084
 8226TIP3    H224622   3.504   2.408   2.124
 8227TIP3   OH224623   2.095   7.076   4.568
 8227TIP3    H124624   2.041   7.133   4.514
 8227TIP3    H224625   2.122   7.005   4.510
 8228TIP3   OH224626   3.526   1.298   2.307
 8228TIP3    H124627   3.580   1.261   2.377
 8228TIP3    H224628   3.436   1.278   2.332
 8229TIP3   OH224629   6.885   2.498   4.746
 8229TIP3    H124630   6.798   2.499   4.788
 8229TIP3    H224631   6.926   2.579   4.775
 8230TIP3   OH224632   1.478   2.768   3.563
 8230TIP3    H124633   1.513   2.856   3.567
 8230TIP3    H224634   1.544   2.714   3.607
 8231TIP3   OH224635   2.421  -0.017   6.414
 8231TIP3    H124636   2.497   0.020   6.458
 8231TIP3    H224637   2.401   0.046   6.345
 8232TIP3   OH224638   3.468   7.568   2.943
 8232TIP3    H124639   3.559   7.548   2.966
 8232TIP3    H224640   3.460   7.663   2.956
 8233TIP3   OH224641   6.382  -0.069   4.768
 8233TIP3    H124642   6.431  -0.087   4.848
 8233TIP3    H224643   6.393   0.025   4.753
 8234TIP3   OH224644   3.591   3.117   4.841
 8234TIP3    H124645   3.550   3.120   4.927
 8234TIP3    H224646   3.521   3.088   4.782
 8235TIP3   OH224647   4.530   4.273   0.674
 8235TIP3    H124648   4.500   4.182   0.665
 8235TIP3    H224649   4.456   4.326   0.647
 8236TIP3   OH224650   3.813   4.337   4.722
 8236TIP3    H124651   3.825   4.368   4.633
 8236TIP3    H224652   3.734   4.283   4.719
 8237TIP3   OH224653   4.624   2.880   5.947
 8237TIP3    H124654   4.717   2.895   5.931
 8237TIP3    H224655   4.616   2.879   6.043
 8238TIP3   OH224656   7.341   0.886   5.430
 8238TIP3    H124657   7.390   0.957   5.388
 8238TIP3    H224658   7.301   0.839   5.357
 8239TIP3   OH224659   3.349   6.887   5.332
 8239TIP3    H124660   3.329   6.817   5.271
 8239TIP3    H224661   3.434   6.922   5.303
 8240TIP3   OH224662   4.577   6.159   1.808
 8240TIP3    H124663   4.527   6.180   1.730
 8240TIP3    H224664   4.511   6.148   1.877
 8241TIP3   OH224665   0.381   2.617   0.553
 8241TIP3    H124666   0.342   2.612   0.640
 8241TIP3    H224667   0.308   2.636   0.494
 8242TIP3   OH224668   7.916   6.259   4.279
 8242TIP3    H124669   7.926   6.317   4.204
 8242TIP3    H224670   7.822   6.257   4.296
 8243TIP3   OH224671   5.973   7.168   4.287
 8243TIP3    H124672   5.936   7.124   4.211
 8243TIP3    H224673   6.031   7.103   4.327
 8244TIP3   OH224674   1.951   3.144   5.528
 8244TIP3    H124675   1.988   3.089   5.598
 8244TIP3    H224676   2.027   3.174   5.479
 8245TIP3   OH224677   4.031   3.961   6.555
 8245TIP3    H124678   4.020   4.010   6.636
 8245TIP3    H224679   3.975   3.884   6.565
 8246TIP3   OH224680   5.243   3.397   2.042
 8246TIP3    H124681   5.272   3.435   2.125
 8246TIP3    H224682   5.258   3.303   2.053
 8247TIP3   OH224683   2.317   7.581   2.379
 8247TIP3    H124684   2.319   7.608   2.287
 8247TIP3    H224685   2.344   7.660   2.427
 8248TIP3   OH224686   4.297   5.608   6.483
 8248TIP3    H124687   4.269   5.614   6.574
 8248TIP3    H224688   4.274   5.693   6.445
 8249TIP3   OH224689   1.661   7.573   4.906
 8249TIP3    H124690   1.662   7.516   4.983
 8249TIP3    H224691   1.591   7.635   4.922
 8250TIP3   OH224692   8.059   7.499   3.353
 8250TIP3    H124693   8.057   7.403   3.348
 8250TIP3    H224694   8.121   7.525   3.285
 8251TIP3   OH224695   3.678   1.561   1.879
 8251TIP3    H124696   3.770   1.547   1.857
 8251TIP3    H224697   3.680   1.619   1.955
 8252TIP3   OH224698   5.828   0.306   2.636
 8252TIP3    H124699   5.779   0.369   2.688
 8252TIP3    H224700   5.873   0.359   2.570
 8253TIP3   OH224701   7.516   1.479   0.725
 8253TIP3    H124702   7.610   1.498   0.721
 8253TIP3    H224703   7.493   1.453   0.636
 8254TIP3   OH224704   4.843   3.660   0.150
 8254TIP3    H124705   4.895   3.740   0.156
 8254TIP3    H224706   4.892   3.605   0.088
 8255TIP3   OH224707   5.921   3.383   4.266
 8255TIP3    H124708   5.926   3.460   4.323
 8255TIP3    H224709   6.012   3.354   4.258
 8256TIP3   OH224710   7.594   2.447   1.203
 8256TIP3    H124711   7.643   2.523   1.234
 8256TIP3    H224712   7.645   2.415   1.128
 8257TIP3   OH224713   0.727   0.056   2.020
 8257TIP3    H124714   0.770  -0.017   2.066
 8257TIP3    H224715   0.681   0.013   1.947
 8258TIP3   OH224716   4.261   0.521   2.813
 8258TIP3    H124717   4.315   0.537   2.891
 8258TIP3    H224718   4.291   0.436   2.781
 8259TIP3   OH224719   5.583   1.589   5.873
 8259TIP3    H124720   5.550   1.662   5.927
 8259TIP3    H224721   5.520   1.583   5.801
 8260TIP3   OH224722   7.539   2.169   6.084
 8260TIP3    H124723   7.479   2.112   6.133
 8260TIP3    H224724   7.612   2.112   6.059
 8261TIP3   OH224725   6.989   6.080   6.075
 8261TIP3    H124726   7.071   6.078   6.025
 8261TIP3    H224727   6.935   6.145   6.029
 8262TIP3   OH224728   6.435   1.814   2.879
 8262TIP3    H124729   6.455   1.907   2.882
 8262TIP3    H224730   6.386   1.802   2.798
 8263TIP3   OH224731   3.648   5.447   1.811
 8263TIP3    H124732   3.738   5.432   1.782
 8263TIP3    H224733   3.618   5.520   1.758
 8264TIP3   OH224734   3.238   0.946   0.142
 8264TIP3    H124735   3.147   0.958   0.115
 8264TIP3    H224736   3.265   1.033   0.171
 8265TIP3   OH224737   0.575   1.122   5.327
 8265TIP3    H124738   0.610   1.201   5.287
 8265TIP3    H224739   0.548   1.149   5.415
 8266TIP3   OH224740   0.692   7.473   2.093
 8266TIP3    H124741   0.673   7.516   2.177
 8266TIP3    H224742   0.610   7.479   2.044
 8267TIP3   OH224743   7.896   2.526   3.768
 8267TIP3    H124744   7.963   2.458   3.777
 8267TIP3    H224745   7.832   2.507   3.837
 8268TIP3   OH224746   3.411   3.046   1.244
 8268TIP3    H124747   3.457   2.964   1.226
 8268TIP3    H224748   3.466   3.114   1.205
 8269TIP3   OH224749   5.867   5.896   6.473
 8269TIP3    H124750   5.830   5.865   6.556
 8269TIP3    H224751   5.820   5.978   6.455
 8270TIP3   OH224752   1.611   4.489   6.074
 8270TIP3    H124753   1.689   4.461   6.122
 8270TIP3    H224754   1.538   4.467   6.132
 8271TIP3   OH224755   5.179   6.107   1.522
 8271TIP3    H124756   5.200   6.137   1.433
 8271TIP3    H224757   5.114   6.038   1.508
 8272TIP3   OH224758   2.396   4.903   1.210
 8272TIP3    H124759   2.337   4.844   1.162
 8272TIP3    H224760   2.424   4.851   1.285
 8273TIP3   OH224761   7.650   5.287   0.463
 8273TIP3    H124762   7.649   5.200   0.423
 8273TIP3    H224763   7.573   5.288   0.520
 8274TIP3   OH224764   5.206   6.470   5.312
 8274TIP3    H124765   5.161   6.554   5.302
 8274TIP3    H224766   5.234   6.447   5.223
 8275TIP3   OH224767   1.270   5.656   2.922
 8275TIP3    H124768   1.215   5.707   2.982
 8275TIP3    H224769   1.313   5.722   2.867
 8276TIP3   OH224770   4.926   6.333   5.230
 8276TIP3    H124771   4.982   6.306   5.302
 8276TIP3    H224772   4.920   6.429   5.239
 8277TIP3   OH224773   4.069   1.670   1.673
 8277TIP3    H124774   4.071   1.740   1.608
 8277TIP3    H224775   3.993   1.617   1.650
 8278TIP3   OH224776   8.193   3.477   0.141
 8278TIP3    H124777   8.284   3.458   0.118
 8278TIP3    H224778   8.167   3.546   0.081
 8279TIP3   OH224779   3.770   3.704   3.460
 8279TIP3    H124780   3.694   3.739   3.413
 8279TIP3    H224781   3.776   3.757   3.540
 8280TIP3   OH224782   7.488   3.788   4.722
 8280TIP3    H124783   7.406   3.838   4.727
 8280TIP3    H224784   7.539   3.818   4.798
 8281TIP3   OH224785   2.506   4.947   1.612
 8281TIP3    H124786   2.444   4.877   1.631
 8281TIP3    H224787   2.493   4.967   1.519
 8282TIP3   OH224788   5.534   1.675   5.509
 8282TIP3    H124789   5.463   1.612   5.497
 8282TIP3    H224790   5.500   1.757   5.473
 8283TIP3   OH224791   3.217   6.870   0.659
 8283TIP3    H124792   3.273   6.933   0.704
 8283TIP3    H224793   3.210   6.796   0.720
 8284TIP3   OH224794   7.301   2.882   0.054
 8284TIP3    H124795   7.243   2.862   0.128
 8284TIP3    H224796   7.262   2.959   0.014
 8285TIP3   OH224797   4.552   2.767   5.697
 8285TIP3    H124798   4.598   2.800   5.774
 8285TIP3    H224799   4.507   2.689   5.727
 8286TIP3   OH224800   6.981   5.997   5.179
 8286TIP3    H124801   6.899   5.999   5.130
 8286TIP3    H224802   7.019   5.911   5.159
 8287TIP3   OH224803   3.630   0.721   2.321
 8287TIP3    H124804   3.643   0.721   2.416
 8287TIP3    H224805   3.590   0.636   2.302
 8288TIP3   OH224806   1.330   4.999   0.248
 8288TIP3    H124807   1.249   4.990   0.298
 8288TIP3    H224808   1.311   4.957   0.164
 8289TIP3   OH224809   1.542   2.168   3.658
 8289TIP3    H124810   1.545   2.228   3.583
 8289TIP3    H224811   1.614   2.107   3.643
 8290TIP3   OH224812   1.621   0.154   3.502
 8290TIP3    H124813   1.684   0.225   3.512
 8290TIP3    H224814   1.543   0.185   3.548
 8291TIP3   OH224815   3.505   4.722   2.510
 8291TIP3    H124816   3.559   4.685   2.441
 8291TIP3    H224817   3.528   4.815   2.513
 8292TIP3   OH224818   4.484   5.364   3.824
 8292TIP3    H124819   4.437   5.316   3.893
 8292TIP3    H224820   4.536   5.297   3.780
 8293TIP3   OH224821   7.874   5.096   3.161
 8293TIP3    H124822   7.905   5.045   3.086
 8293TIP3    H224823   7.870   5.186   3.128
 8294TIP3   OH224824   1.647   4.957   3.725
 8294TIP3    H124825   1.683   4.917   3.645
 8294TIP3    H224826   1.710   5.024   3.750
 8295TIP3   OH224827   5.914   3.319   4.921
 8295TIP3    H124828   5.955   3.397   4.885
 8295TIP3    H224829   5.955   3.246   4.874
 8296TIP3   OH224830   7.245   0.918   1.392
 8296TIP3    H124831   7.189   0.984   1.433
 8296TIP3    H224832   7.184   0.849   1.364
 8297TIP3   OH224833   6.070   2.152   6.012
 8297TIP3    H124834   5.987   2.134   6.056
 8297TIP3    H224835   6.108   2.066   5.995
 8298TIP3   OH224836   6.046   6.211   4.539
 8298TIP3    H124837   6.071   6.302   4.524
 8298TIP3    H224838   6.068   6.196   4.631
 8299TIP3   OH224839   5.170   3.941   6.090
 8299TIP3    H124840   5.259   3.973   6.086
 8299TIP3    H224841   5.141   3.936   5.999
 8300TIP3   OH224842   4.054   3.740   3.973
 8300TIP3    H124843   3.966   3.778   3.979
 8300TIP3    H224844   4.052   3.665   4.032
 8301TIP3   OH224845   2.830   7.541   4.068
 8301TIP3    H124846   2.895   7.584   4.124
 8301TIP3    H224847   2.758   7.604   4.062
 8302TIP3   OH224848   2.508   7.543   5.699
 8302TIP3    H124849   2.467   7.504   5.622
 8302TIP3    H224850   2.587   7.586   5.665
 8303TIP3   OH224851   3.410   6.246   0.863
 8303TIP3    H124852   3.439   6.331   0.830
 8303TIP3    H224853   3.463   6.182   0.816
 8304TIP3   OH224854   3.970   1.534   5.854
 8304TIP3    H124855   3.974   1.486   5.937
 8304TIP3    H224856   4.061   1.538   5.825
 8305TIP3   OH224857   4.900   7.581   5.158
 8305TIP3    H124858   4.835   7.589   5.227
 8305TIP3    H224859   4.982   7.612   5.198
 8306TIP3   OH224860   0.508   5.827   2.033
 8306TIP3    H124861   0.436   5.767   2.013
 8306TIP3    H224862   0.472   5.914   2.016
 8307TIP3   OH224863   5.501   1.876   3.135
 8307TIP3    H124864   5.433   1.927   3.180
 8307TIP3    H224865   5.582   1.903   3.178
 8308TIP3   OH224866   6.541   3.714   4.048
 8308TIP3    H124867   6.453   3.749   4.038
 8308TIP3    H224868   6.554   3.708   4.143
 8309TIP3   OH224869   7.106   3.858   0.768
 8309TIP3    H124870   7.018   3.863   0.804
 8309TIP3    H224871   7.112   3.933   0.708
 8310TIP3   OH224872   0.892   2.065   6.500
 8310TIP3    H124873   0.855   2.153   6.493
 8310TIP3    H224874   0.820   2.007   6.477
 8311TIP3   OH224875   2.514   2.030   1.380
 8311TIP3    H124876   2.600   2.025   1.422
 8311TIP3    H224877   2.451   2.032   1.452
 8312TIP3   OH224878   3.722   0.703   3.185
 8312TIP3    H124879   3.706   0.765   3.257
 8312TIP3    H224880   3.801   0.656   3.212
 8313TIP3   OH224881   4.657   1.764   6.718
 8313TIP3    H124882   4.594   1.736   6.652
 8313TIP3    H224883   4.742   1.753   6.676
 8314TIP3   OH224884   1.629   4.367   2.556
 8314TIP3    H124885   1.677   4.424   2.497
 8314TIP3    H224886   1.541   4.406   2.561
 8315TIP3   OH224887   4.839   3.559   2.905
 8315TIP3    H124888   4.891   3.569   2.825
 8315TIP3    H224889   4.750   3.584   2.880
 8316TIP3   OH224890   1.344   5.502   6.209
 8316TIP3    H124891   1.329   5.412   6.182
 8316TIP3    H224892   1.438   5.506   6.228
 8317TIP3   OH224893   2.928   7.515   6.037
 8317TIP3    H124894   2.934   7.437   6.092
 8317TIP3    H224895   2.946   7.483   5.948
 8318TIP3   OH224896   6.318   2.680   0.447
 8318TIP3    H124897   6.271   2.635   0.378
 8318TIP3    H224898   6.410   2.673   0.422
 8319TIP3   OH224899   0.719   5.436   0.594
 8319TIP3    H124900   0.795   5.428   0.652
 8319TIP3    H224901   0.747   5.395   0.512
 8320TIP3   OH224902   7.960   0.588   0.554
 8320TIP3    H124903   7.881   0.536   0.570
 8320TIP3    H224904   7.966   0.592   0.458
 8321TIP3   OH224905   5.326   4.422   1.880
 8321TIP3    H124906   5.273   4.432   1.959
 8321TIP3    H224907   5.416   4.419   1.911
 8322TIP3   OH224908   7.389   1.873   2.422
 8322TIP3    H124909   7.349   1.921   2.350
 8322TIP3    H224910   7.471   1.921   2.440
 8323TIP3   OH224911   3.029   4.115   2.830
 8323TIP3    H124912   3.075   4.032   2.841
 8323TIP3    H224913   3.097   4.176   2.801
 8324TIP3   OH224914   4.348   5.607   3.818
 8324TIP3    H124915   4.396   5.524   3.810
 8324TIP3    H224916   4.412   5.674   3.795
 8325TIP3   OH224917   1.116   3.753   5.299
 8325TIP3    H124918   1.141   3.661   5.293
 8325TIP3    H224919   1.063   3.758   5.379
 8326TIP3   OH224920   8.283   3.628   5.397
 8326TIP3    H124921   8.284   3.711   5.349
 8326TIP3    H224922   8.264   3.652   5.487
 8327TIP3   OH224923   7.852   4.234   4.747
 8327TIP3    H124924   7.762   4.237   4.713
 8327TIP3    H224925   7.907   4.237   4.670
 8328TIP3   OH224926   1.088   6.245   5.496
 8328TIP3    H124927   1.114   6.259   5.405
 8328TIP3    H224928   1.021   6.312   5.512
 8329TIP3   OH224929   2.957   4.855   3.922
 8329TIP3    H124930   3.006   4.900   3.853
 8329TIP3    H224931   2.955   4.763   3.894
 8330TIP3   OH224932   3.434   2.384   0.868
 8330TIP3    H124933   3.384   2.426   0.797
 8330TIP3    H224934   3.504   2.336   0.823
 8331TIP3   OH224935   6.175   7.367   5.463
 8331TIP3    H124936   6.196   7.298   5.526
 8331TIP3    H224937   6.170   7.447   5.516
 8332TIP3   OH224938   8.142   6.782   0.689
 8332TIP3    H124939   8.182   6.765   0.604
 8332TIP3    H224940   8.202   6.842   0.733
 8333TIP3   OH224941   0.084   5.160   0.573
 8333TIP3    H124942   0.041   5.178   0.656
 8333TIP3    H224943   0.152   5.228   0.566
 8334TIP3   OH224944   4.500   2.597   4.382
 8334TIP3    H124945   4.508   2.693   4.386
 8334TIP3    H224946   4.568   2.569   4.321
 8335TIP3   OH224947   7.847   3.613   2.689
 8335TIP3    H124948   7.932   3.630   2.729
 8335TIP3    H224949   7.806   3.548   2.746
 8336TIP3   OH224950   6.086   4.493   4.954
 8336TIP3    H124951   6.084   4.400   4.977
 8336TIP3    H224952   6.144   4.533   5.019
 8337TIP3   OH224953   7.964   2.100   5.172
 8337TIP3    H124954   8.053   2.134   5.176
 8337TIP3    H224955   7.974   2.007   5.151
 8338TIP3   OH224956   3.823   0.101   4.676
 8338TIP3    H124957   3.734   0.091   4.640
 8338TIP3    H224958   3.812   0.161   4.750
 8339TIP3   OH224959   4.565   7.104   2.281
 8339TIP3    H124960   4.609   7.051   2.348
 8339TIP3    H224961   4.532   7.040   2.218
 8340TIP3   OH224962   5.041   3.309   1.392
 8340TIP3    H124963   5.099   3.381   1.366
 8340TIP3    H224964   4.963   3.321   1.338
 8341TIP3   OH224965   4.771   6.717   2.080
 8341TIP3    H124966   4.691   6.666   2.064
 8341TIP3    H224967   4.745   6.808   2.063
 8342TIP3   OH224968   1.769   0.380   1.556
 8342TIP3    H124969   1.744   0.332   1.477
 8342TIP3    H224970   1.718   0.460   1.553
 8343TIP3   OH224971   3.003   3.204   3.060
 8343TIP3    H124972   3.086   3.196   3.013
 8343TIP3    H224973   2.937   3.211   2.991
 8344TIP3   OH224974   4.485   2.543   0.594
 8344TIP3    H124975   4.462   2.577   0.508
 8344TIP3    H224976   4.581   2.538   0.593
 8345TIP3   OH224977   2.470   1.003   2.069
 8345TIP3    H124978   2.533   0.940   2.106
 8345TIP3    H224979   2.474   1.078   2.129
 8346TIP3   OH224980   7.917   1.587   4.622
 8346TIP3    H124981   7.887   1.677   4.607
 8346TIP3    H224982   7.844   1.532   4.592
 8347TIP3   OH224983   5.912   4.267   6.179
 8347TIP3    H124984   5.891   4.209   6.253
 8347TIP3    H224985   5.862   4.347   6.196
 8348TIP3   OH224986   5.069   1.629   3.079
 8348TIP3    H124987   5.038   1.710   3.121
 8348TIP3    H224988   5.004   1.611   3.011
 8349TIP3   OH224989   6.491   7.200   5.718
 8349TIP3    H124990   6.409   7.246   5.700
 8349TIP3    H224991   6.522   7.171   5.633
 8350TIP3   OH224992   1.897   2.410   4.767
 8350TIP3    H124993   1.893   2.430   4.861
 8350TIP3    H224994   1.959   2.338   4.761
 8351TIP3   OH224995   2.382   1.808   1.187
 8351TIP3    H124996   2.412   1.809   1.278
 8351TIP3    H224997   2.304   1.864   1.186
 8352TIP3   OH224998   2.375   5.850   5.353
 8352TIP3    H124999   2.401   5.909   5.282
 8352TIP3    H225000   2.371   5.906   5.430
 8353TIP3   OH225001   7.949   3.691   3.425
 8353TIP3    H125002   8.003   3.748   3.370
 8353TIP3    H225003   7.969   3.717   3.514
 8354TIP3   OH225004   3.206   3.433   1.254
 8354TIP3    H125005   3.262   3.455   1.328
 8354TIP3    H225006   3.248   3.476   1.179
 8355TIP3   OH225007   6.751   5.932   0.218
 8355TIP3    H125008   6.700   6.006   0.251
 8355TIP3    H225009   6.694   5.890   0.154
 8356TIP3   OH225010   8.185   0.240   5.581
 8356TIP3    H125011   8.184   0.325   5.624
 8356TIP3    H225012   8.145   0.255   5.496
 8357TIP3   OH225013   5.902   6.461   1.361
 8357TIP3    H125014   5.860   6.484   1.444
 8357TIP3    H225015   5.892   6.366   1.355
 8358TIP3   OH225016   3.414   2.892   3.398
 8358TIP3    H125017   3.407   2.880   3.493
 8358TIP3    H225018   3.494   2.943   3.387
 8359TIP3   OH225019   3.074   5.657   6.732
 8359TIP3    H125020   3.025   5.728   6.690
 8359TIP3    H225021   3.106   5.696   6.813
 8360TIP3   OH225022   5.044   3.763   6.275
 8360TIP3    H125023   5.056   3.818   6.352
 8360TIP3    H225024   5.099   3.803   6.208
 8361TIP3   OH225025   3.820   2.595   0.305
 8361TIP3    H125026   3.740   2.613   0.255
 8361TIP3    H225027   3.831   2.500   0.299
 8362TIP3   OH225028   0.986   7.106   3.002
 8362TIP3    H125029   1.002   7.034   2.941
 8362TIP3    H225030   0.913   7.155   2.963
 8363TIP3   OH225031   7.777   0.833   2.793
 8363TIP3    H125032   7.791   0.739   2.794
 8363TIP3    H225033   7.825   0.865   2.870
 8364TIP3   OH225034   2.444   4.951   5.491
 8364TIP3    H125035   2.413   5.041   5.487
 8364TIP3    H225036   2.540   4.959   5.487
 8365TIP3   OH225037   3.553   2.733   4.591
 8365TIP3    H125038   3.572   2.797   4.523
 8365TIP3    H225039   3.585   2.773   4.672
 8366TIP3   OH225040   6.732   3.008   6.302
 8366TIP3    H125041   6.763   2.964   6.223
 8366TIP3    H225042   6.707   3.095   6.273
 8367TIP3   OH225043   0.188   7.300   3.702
 8367TIP3    H125044   0.242   7.292   3.624
 8367TIP3    H225045   0.101   7.322   3.670
 8368TIP3   OH225046   1.291   0.235   4.815
 8368TIP3    H125047   1.382   0.229   4.787
 8368TIP3    H225048   1.260   0.144   4.815
 8369TIP3   OH225049   5.886   6.056   4.359
 8369TIP3    H125050   5.891   6.115   4.284
 8369TIP3    H225051   5.939   6.097   4.426
 8370TIP3   OH225052   6.345   4.321   6.305
 8370TIP3    H125053   6.363   4.407   6.269
 8370TIP3    H225054   6.292   4.278   6.238
 8371TIP3   OH225055   7.003   1.184   5.463
 8371TIP3    H125056   7.088   1.179   5.507
 8371TIP3    H225057   6.956   1.105   5.490
 8372TIP3   OH225058   6.722   1.744   3.126
 8372TIP3    H125059   6.702   1.761   3.034
 8372TIP3    H225060   6.807   1.786   3.140
 8373TIP3   OH225061   6.624   1.181   3.023
 8373TIP3    H125062   6.586   1.117   3.083
 8373TIP3    H225063   6.683   1.232   3.079
 8374TIP3   OH225064   0.373   1.700   0.575
 8374TIP3    H125065   0.369   1.635   0.505
 8374TIP3    H225066   0.322   1.774   0.542
 8375TIP3   OH225067   3.119   0.545   3.728
 8375TIP3    H125068   3.103   0.602   3.803
 8375TIP3    H225069   3.124   0.604   3.653
 8376TIP3   OH225070   7.497   0.903   6.561
 8376TIP3    H125071   7.564   0.966   6.588
 8376TIP3    H225072   7.414   0.947   6.580
 8377TIP3   OH225073   7.301   4.166   0.135
 8377TIP3    H125074   7.345   4.172   0.050
 8377TIP3    H225075   7.308   4.254   0.172
 8378TIP3   OH225076   2.058   2.702   4.074
 8378TIP3    H125077   2.051   2.629   4.136
 8378TIP3    H225078   2.000   2.769   4.109
 8379TIP3   OH225079   2.581   6.851   1.411
 8379TIP3    H125080   2.569   6.910   1.335
 8379TIP3    H225081   2.604   6.767   1.372
 8380TIP3   OH225082   2.347   6.984   5.950
 8380TIP3    H125083   2.359   6.993   5.856
 8380TIP3    H225084   2.420   6.929   5.978
 8381TIP3   OH225085   6.407   7.064   1.008
 8381TIP3    H125086   6.331   7.063   0.950
 8381TIP3    H225087   6.377   7.020   1.088
 8382TIP3   OH225088   0.171   3.656   5.065
 8382TIP3    H125089   0.120   3.737   5.063
 8382TIP3    H225090   0.107   3.587   5.052
 8383TIP3   OH225091   4.010   0.341   2.813
 8383TIP3    H125092   3.930   0.385   2.840
 8383TIP3    H225093   4.080   0.404   2.831
 8384TIP3   OH225094   7.967   1.349   3.336
 8384TIP3    H125095   8.046   1.366   3.284
 8384TIP3    H225096   7.942   1.259   3.313
 8385TIP3   OH225097   4.821   6.098   1.696
 8385TIP3    H125098   4.741   6.142   1.725
 8385TIP3    H225099   4.887   6.167   1.692
 8386TIP3   OH225100   0.441   1.500   1.433
 8386TIP3    H125101   0.441   1.595   1.425
 8386TIP3    H225102   0.399   1.469   1.353
 8387TIP3   OH225103   8.173   5.589   4.110
 8387TIP3    H125104   8.086   5.551   4.126
 8387TIP3    H225105   8.157   5.683   4.103
 8388TIP3   OH225106   5.573   7.649   5.129
 8388TIP3    H125107   5.498   7.623   5.076
 8388TIP3    H225108   5.596   7.570   5.179
 8389TIP3   OH225109   2.601   6.082   0.438
 8389TIP3    H125110   2.552   6.151   0.395
 8389TIP3    H225111   2.645   6.035   0.367
 8390TIP3   OH225112   4.613   5.221   4.774
 8390TIP3    H125113   4.603   5.150   4.838
 8390TIP3    H225114   4.699   5.258   4.792
 8391TIP3   OH225115   3.696   2.398   0.761
 8391TIP3    H125116   3.784   2.371   0.733
 8391TIP3    H225117   3.710   2.480   0.808
 8392TIP3   OH225118   6.161   0.264   1.712
 8392TIP3    H125119   6.096   0.233   1.775
 8392TIP3    H225120   6.216   0.324   1.762
 8393TIP3   OH225121   2.799   4.724   6.524
 8393TIP3    H125122   2.778   4.817   6.525
 8393TIP3    H225123   2.727   4.684   6.475
 8394TIP3   OH225124   7.045   4.456   5.987
 8394TIP3    H125125   6.956   4.423   5.996
 8394TIP3    H225126   7.090   4.390   5.933
 8395TIP3   OH225127   4.801   3.777   6.107
 8395TIP3    H125128   4.868   3.798   6.173
 8395TIP3    H225129   4.852   3.754   6.029
 8396TIP3   OH225130   2.481   3.085   5.775
 8396TIP3    H125131   2.554   3.025   5.790
 8396TIP3    H225132   2.515   3.148   5.711
 8397TIP3   OH225133   1.503   3.513   4.746
 8397TIP3    H125134   1.496   3.432   4.695
 8397TIP3    H225135   1.469   3.581   4.688
 8398TIP3   OH225136   1.820   2.220   3.386
 8398TIP3    H125137   1.770   2.151   3.430
 8398TIP3    H225138   1.867   2.264   3.457
 8399TIP3   OH225139   2.406   6.504   0.582
 8399TIP3    H125140   2.383   6.427   0.529
 8399TIP3    H225141   2.500   6.514   0.570
 8400TIP3   OH225142   5.042   3.979   4.535
 8400TIP3    H125143   5.104   3.916   4.497
 8400TIP3    H225144   4.973   3.988   4.469
 8401TIP3   OH225145   0.928   4.197   0.685
 8401TIP3    H125146   0.891   4.165   0.768
 8401TIP3    H225147   0.999   4.256   0.712
 8402TIP3   OH225148   7.074   5.795   1.388
 8402TIP3    H125149   7.030   5.834   1.463
 8402TIP3    H225150   7.162   5.773   1.420
 8403TIP3   OH225151   4.460   3.331   1.094
 8403TIP3    H125152   4.449   3.238   1.071
 8403TIP3    H225153   4.431   3.336   1.185
 8404TIP3   OH225154   4.661   0.516   5.379
 8404TIP3    H125155   4.714   0.452   5.426
 8404TIP3    H225156   4.725   0.571   5.334
 8405TIP3   OH225157   4.311   5.638   5.528
 8405TIP3    H125158   4.248   5.606   5.464
 8405TIP3    H225159   4.349   5.717   5.487
 8406TIP3   OH225160   6.574   6.469   2.137
 8406TIP3    H125161   6.592   6.468   2.231
 8406TIP3    H225162   6.554   6.561   2.117
 8407TIP3   OH225163   4.254   4.103   0.194
 8407TIP3    H125164   4.282   4.016   0.166
 8407TIP3    H225165   4.322   4.131   0.256
 8408TIP3   OH225166   5.999   7.564   3.371
 8408TIP3    H125167   6.052   7.617   3.431
 8408TIP3    H225168   5.923   7.619   3.351
 8409TIP3   OH225169   1.889   0.104   2.512
 8409TIP3    H125170   1.949   0.035   2.484
 8409TIP3    H225171   1.886   0.096   2.607
 8410TIP3   OH225172   1.144   2.369   3.995
 8410TIP3    H125173   1.238   2.353   4.005
 8410TIP3    H225174   1.127   2.448   4.046
 8411TIP3   OH225175   1.277   2.810   1.438
 8411TIP3    H125176   1.321   2.792   1.355
 8411TIP3    H225177   1.289   2.904   1.451
 8412TIP3   OH225178   6.074   7.292   0.202
 8412TIP3    H125179   5.984   7.268   0.224
 8412TIP3    H225180   6.115   7.211   0.175
 8413TIP3   OH225181   3.663   2.011   2.179
 8413TIP3    H125182   3.668   2.072   2.105
 8413TIP3    H225183   3.751   2.014   2.218
 8414TIP3   OH225184   5.045   5.695   3.504
 8414TIP3    H125185   5.023   5.681   3.596
 8414TIP3    H225186   5.085   5.782   3.501
 8415TIP3   OH225187   2.706   6.447   4.356
 8415TIP3    H125188   2.663   6.479   4.435
 8415TIP3    H225189   2.637   6.442   4.291
 8416TIP3   OH225190   2.355   5.733   0.373
 8416TIP3    H125191   2.274   5.777   0.349
 8416TIP3    H225192   2.394   5.789   0.440
 8417TIP3   OH225193   2.145   5.748   5.684
 8417TIP3    H125194   2.070   5.769   5.628
 8417TIP3    H225195   2.187   5.674   5.641
 8418TIP3   OH225196   6.366   7.843   2.963
 8418TIP3    H125197   6.309   7.797   2.902
 8418TIP3    H225198   6.319   7.841   3.047
 8419TIP3   OH225199   3.181   4.810   4.643
 8419TIP3    H125200   3.167   4.779   4.553
 8419TIP3    H225201   3.189   4.905   4.635
 8420TIP3   OH225202   1.886   2.054   5.590
 8420TIP3    H125203   1.804   2.085   5.629
 8420TIP3    H225204   1.904   2.116   5.519
 8421TIP3   OH225205   6.076   3.815   2.225
 8421TIP3    H125206   5.990   3.831   2.186
 8421TIP3    H225207   6.119   3.900   2.222
 8422TIP3   OH225208   2.066   0.645   5.691
 8422TIP3    H125209   2.152   0.602   5.696
 8422TIP3    H225210   2.004   0.573   5.704
 8423TIP3   OH225211   5.741   7.325   0.508
 8423TIP3    H125212   5.744   7.231   0.525
 8423TIP3    H225213   5.742   7.365   0.595
 8424TIP3   OH225214   5.054   5.807   4.520
 8424TIP3    H125215   5.141   5.771   4.533
 8424TIP3    H225216   5.034   5.789   4.428
 8425TIP3   OH225217   2.409   7.038  -0.038
 8425TIP3    H125218   2.334   6.987  -0.007
 8425TIP3    H225219   2.419   7.108   0.027
 8426TIP3   OH225220   6.095   2.931   6.511
 8426TIP3    H125221   6.187   2.943   6.532
 8426TIP3    H225222   6.062   2.871   6.579
 8427TIP3   OH225223   0.545   3.069   0.222
 8427TIP3    H125224   0.521   3.151   0.266
 8427TIP3    H225225   0.471   3.011   0.238
 8428TIP3   OH225226   4.447   5.752   6.178
 8428TIP3    H125227   4.370   5.739   6.122
 8428TIP3    H225228   4.411   5.784   6.261
 8429TIP3   OH225229   7.670   1.571   5.244
 8429TIP3    H125230   7.618   1.628   5.301
 8429TIP3    H225231   7.674   1.618   5.160
 8430TIP3   OH225232   2.571   6.836   3.341
 8430TIP3    H125233   2.476   6.836   3.350
 8430TIP3    H225234   2.603   6.851   3.430
 8431TIP3   OH225235   8.178   0.451   4.173
 8431TIP3    H125236   8.102   0.450   4.232
 8431TIP3    H225237   8.140   0.449   4.085
 8432TIP3   OH225238   1.756   7.233   5.719
 8432TIP3    H125239   1.812   7.193   5.786
 8432TIP3    H225240   1.802   7.217   5.637
 8433TIP3   OH225241   3.556   0.500   0.573
 8433TIP3    H125242   3.470   0.542   0.570
 8433TIP3    H225243   3.611   0.562   0.620
 8434TIP3   OH225244   2.581   5.040   5.767
 8434TIP3    H125245   2.578   5.114   5.826
 8434TIP3    H225246   2.537   4.969   5.814
 8435TIP3   OH225247   5.444   0.946   1.475
 8435TIP3    H125248   5.376   0.887   1.509
 8435TIP3    H225249   5.421   0.958   1.383
 8436TIP3   OH225250   7.817   3.160   1.165
 8436TIP3    H125251   7.746   3.218   1.137
 8436TIP3    H225252   7.842   3.115   1.084
 8437TIP3   OH225253   5.443   1.591   2.230
 8437TIP3    H125254   5.364   1.546   2.200
 8437TIP3    H225255   5.411   1.671   2.272
 8438TIP3   OH225256   5.192   5.177   3.909
 8438TIP3    H125257   5.252   5.110   3.875
 8438TIP3    H225258   5.239   5.214   3.983
 8439TIP3   OH225259   5.080   0.027   5.783
 8439TIP3    H125260   5.165   0.056   5.816
 8439TIP3    H225261   5.017   0.070   5.841
 8440TIP3   OH225262   1.804   7.645   5.633
 8440TIP3    H125263   1.761   7.726   5.608
 8440TIP3    H225264   1.756   7.616   5.711
 8441TIP3   OH225265   7.729   3.432   6.237
 8441TIP3    H125266   7.660   3.420   6.172
 8441TIP3    H225267   7.739   3.346   6.278
 8442TIP3   OH225268   4.952   2.935   2.235
 8442TIP3    H125269   4.893   3.005   2.210
 8442TIP3    H225270   4.988   2.903   2.152
 8443TIP3   OH225271   1.738   6.491   0.550
 8443TIP3    H125272   1.762   6.581   0.572
 8443TIP3    H225273   1.656   6.500   0.501
 8444TIP3   OH225274   4.361   4.376   3.131
 8444TIP3    H125275   4.405   4.330   3.059
 8444TIP3    H225276   4.303   4.310   3.169
 8445TIP3   OH225277   2.240   0.385   5.759
 8445TIP3    H125278   2.255   0.290   5.752
 8445TIP3    H225279   2.292   0.423   5.689
 8446TIP3   OH225280   6.600   3.667   5.914
 8446TIP3    H125281   6.535   3.714   5.967
 8446TIP3    H225282   6.641   3.606   5.976
 8447TIP3   OH225283   3.225   5.249   3.928
 8447TIP3    H125284   3.241   5.231   4.021
 8447TIP3    H225285   3.180   5.333   3.927
 8448TIP3   OH225286   7.962   1.939   0.699
 8448TIP3    H125287   8.002   1.996   0.765
 8448TIP3    H225288   7.978   1.850   0.731
 8449TIP3   OH225289   3.005   2.885   5.671
 8449TIP3    H125290   2.925   2.839   5.645
 8449TIP3    H225291   3.041   2.832   5.742
 8450TIP3   OH225292   3.673   0.728   5.337
 8450TIP3    H125293   3.636   0.646   5.368
 8450TIP3    H225294   3.599   0.776   5.300
 8451TIP3   OH225295   1.666   1.644   4.675
 8451TIP3    H125296   1.593   1.589   4.702
 8451TIP3    H225297   1.647   1.730   4.713
 8452TIP3   OH225298   7.116   4.351   3.086
 8452TIP3    H125299   7.199   4.378   3.048
 8452TIP3    H225300   7.067   4.311   3.014
 8453TIP3   OH225301   3.024   4.404   4.973
 8453TIP3    H125302   3.076   4.400   5.053
 8453TIP3    H225303   3.039   4.492   4.939
 8454TIP3   OH225304   7.512   5.510   6.472
 8454TIP3    H125305   7.442   5.489   6.410
 8454TIP3    H225306   7.537   5.599   6.450
 8455TIP3   OH225307   2.104   5.949   2.011
 8455TIP3    H125308   2.074   5.989   2.093
 8455TIP3    H225309   2.058   5.865   2.007
 8456TIP3   OH225310   1.065   4.167   4.654
 8456TIP3    H125311   1.010   4.245   4.645
 8456TIP3    H225312   1.108   4.157   4.569
 8457TIP3   OH225313   7.629   6.896   1.239
 8457TIP3    H125314   7.565   6.919   1.306
 8457TIP3    H225315   7.601   6.944   1.161
 8458TIP3   OH225316   2.417   7.217   1.179
 8458TIP3    H125317   2.445   7.194   1.268
 8458TIP3    H225318   2.324   7.196   1.177
 8459TIP3   OH225319   5.067   6.318   1.691
 8459TIP3    H125320   5.094   6.239   1.643
 8459TIP3    H225321   5.080   6.389   1.629
 8460TIP3   OH225322   8.194   5.136   3.046
 8460TIP3    H125323   8.184   5.041   3.043
 8460TIP3    H225324   8.152   5.162   3.128
 8461TIP3   OH225325   6.419   4.265   4.640
 8461TIP3    H125326   6.325   4.252   4.653
 8461TIP3    H225327   6.447   4.193   4.585
 8462TIP3   OH225328   4.426   4.107   2.413
 8462TIP3    H125329   4.420   4.049   2.489
 8462TIP3    H225330   4.335   4.119   2.385
 8463TIP3   OH225331   0.815   5.197   6.202
 8463TIP3    H125332   0.856   5.282   6.189
 8463TIP3    H225333   0.742   5.196   6.141
 8464TIP3   OH225334   0.064   0.459   3.550
 8464TIP3    H125335   0.096   0.533   3.497
 8464TIP3    H225336  -0.016   0.431   3.506
 8465TIP3   OH225337   1.351   3.479   5.859
 8465TIP3    H125338   1.445   3.465   5.850
 8465TIP3    H225339   1.313   3.433   5.785
 8466TIP3   OH225340   5.179   5.760   2.999
 8466TIP3    H125341   5.236   5.735   3.071
 8466TIP3    H225342   5.239   5.786   2.929
 8467TIP3   OH225343   0.289   7.152   2.873
 8467TIP3    H125344   0.216   7.194   2.919
 8467TIP3    H225345   0.259   7.145   2.783
 8468TIP3   OH225346   2.004   5.265   1.621
 8468TIP3    H125347   2.086   5.241   1.665
 8468TIP3    H225348   1.935   5.237   1.682
 8469TIP3   OH225349   3.799   0.771   5.074
 8469TIP3    H125350   3.750   0.752   5.154
 8469TIP3    H225351   3.890   0.776   5.102
 8470TIP3   OH225352   5.683   5.481   0.781
 8470TIP3    H125353   5.699   5.428   0.859
 8470TIP3    H225354   5.614   5.435   0.734
 8471TIP3   OH225355   4.427   6.702   5.353
 8471TIP3    H125356   4.392   6.787   5.327
 8471TIP3    H225357   4.359   6.639   5.327
 8472TIP3   OH225358   7.076   1.263   6.197
 8472TIP3    H125359   7.091   1.331   6.132
 8472TIP3    H225360   7.022   1.198   6.152
 8473TIP3   OH225361   3.310   6.200   5.642
 8473TIP3    H125362   3.384   6.251   5.607
 8473TIP3    H225363   3.321   6.113   5.603
 8474TIP3   OH225364   3.992   2.706   2.297
 8474TIP3    H125365   3.968   2.672   2.384
 8474TIP3    H225366   4.052   2.641   2.262
 8475TIP3   OH225367   6.487   6.872   0.180
 8475TIP3    H125368   6.527   6.827   0.105
 8475TIP3    H225369   6.517   6.963   0.172
 8476TIP3   OH225370   7.988   7.589   6.792
 8476TIP3    H125371   7.945   7.675   6.796
 8476TIP3    H225372   7.915   7.526   6.791
 8477TIP3   OH225373   2.842   6.237   6.743
 8477TIP3    H125374   2.894   6.185   6.804
 8477TIP3    H225375   2.782   6.174   6.703
 8478TIP3   OH225376   5.583   7.312   2.607
 8478TIP3    H125377   5.623   7.238   2.561
 8478TIP3    H225378   5.490   7.306   2.584
 8479TIP3   OH225379   5.306   1.249   6.529
 8479TIP3    H125380   5.363   1.202   6.468
 8479TIP3    H225381   5.222   1.203   6.522
 8480TIP3   OH225382   1.088   5.048   5.201
 8480TIP3    H125383   1.092   4.974   5.263
 8480TIP3    H225384   1.011   5.030   5.148
 8481TIP3   OH225385   1.333   6.809   2.834
 8481TIP3    H125386   1.393   6.747   2.876
 8481TIP3    H225387   1.390   6.874   2.794
 8482TIP3   OH225388   1.686   5.642   5.910
 8482TIP3    H125389   1.656   5.730   5.930
 8482TIP3    H225390   1.771   5.634   5.955
 8483TIP3   OH225391   0.834   0.828   6.158
 8483TIP3    H125392   0.817   0.762   6.091
 8483TIP3    H225393   0.780   0.903   6.132
 8484TIP3   OH225394   5.515   5.137   3.503
 8484TIP3    H125395   5.435   5.129   3.555
 8484TIP3    H225396   5.512   5.063   3.442
 8485TIP3   OH225397   1.243   3.705   0.884
 8485TIP3    H125398   1.204   3.780   0.838
 8485TIP3    H225399   1.334   3.731   0.898
 8486TIP3   OH225400   2.620   5.023   2.710
 8486TIP3    H125401   2.656   4.965   2.777
 8486TIP3    H225402   2.696   5.071   2.676
 8487TIP3   OH225403   0.645   7.007   4.666
 8487TIP3    H125404   0.553   7.004   4.692
 8487TIP3    H225405   0.644   7.049   4.580
 8488TIP3   OH225406   6.324   5.574   4.527
 8488TIP3    H125407   6.385   5.507   4.558
 8488TIP3    H225408   6.326   5.566   4.432
 8489TIP3   OH225409   6.344   1.127   4.473
 8489TIP3    H125410   6.268   1.069   4.469
 8489TIP3    H225411   6.412   1.080   4.424
 8490TIP3   OH225412   0.987   7.798   3.598
 8490TIP3    H125413   1.021   7.720   3.641
 8490TIP3    H225414   0.984   7.775   3.506
 8491TIP3   OH225415   1.979   5.058   3.328
 8491TIP3    H125416   1.950   5.119   3.396
 8491TIP3    H225417   2.032   5.111   3.269
 8492TIP3   OH225418   6.184   5.823   2.749
 8492TIP3    H125419   6.190   5.760   2.821
 8492TIP3    H225420   6.221   5.777   2.674
 8493TIP3   OH225421   4.815   7.033   2.947
 8493TIP3    H125422   4.806   7.069   3.036
 8493TIP3    H225423   4.750   6.962   2.943
 8494TIP3   OH225424   6.180   4.771   0.015
 8494TIP3    H125425   6.251   4.814  -0.033
 8494TIP3    H225426   6.110   4.836   0.018
 8495TIP3   OH225427   4.896   2.107   1.304
 8495TIP3    H125428   4.983   2.071   1.324
 8495TIP3    H225429   4.838   2.064   1.367
 8496TIP3   OH225430   5.142   3.128   6.237
 8496TIP3    H125431   5.221   3.083   6.265
 8496TIP3    H225432   5.118   3.185   6.311
 8497TIP3   OH225433   7.288   0.263   2.907
 8497TIP3    H125434   7.257   0.173   2.894
 8497TIP3    H225435   7.285   0.276   3.001
 8498TIP3   OH225436   1.952   5.804   6.193
 8498TIP3    H125437   1.967   5.884   6.243
 8498TIP3    H225438   1.939   5.736   6.260
 8499TIP3   OH225439   1.457   1.517   1.089
 8499TIP3    H125440   1.438   1.581   1.157
 8499TIP3    H225441   1.544   1.485   1.109
 8500TIP3   OH225442   7.816   3.117   0.650
 8500TIP3    H125443   7.904   3.149   0.669
 8500TIP3    H225444   7.819   3.092   0.558
 8501TIP3   OH225445   6.495   1.371   3.919
 8501TIP3    H125446   6.566   1.424   3.882
 8501TIP3    H225447   6.415   1.416   3.893
 8502TIP3   OH225448   2.737   4.530   1.295
 8502TIP3    H125449   2.784   4.592   1.239
 8502TIP3    H225450   2.802   4.501   1.358
 8503TIP3   OH225451   1.707   1.630   2.122
 8503TIP3    H125452   1.667   1.543   2.120
 8503TIP3    H225453   1.782   1.620   2.181
 8504TIP3   OH225454   6.532   7.519   2.700
 8504TIP3    H125455   6.483   7.467   2.764
 8504TIP3    H225456   6.515   7.476   2.616
 8505TIP3   OH225457   0.793   5.109   0.917
 8505TIP3    H125458   0.868   5.076   0.967
 8505TIP3    H225459   0.789   5.202   0.939
 8506TIP3   OH225460   7.269   3.750   6.219
 8506TIP3    H125461   7.198   3.808   6.190
 8506TIP3    H225462   7.242   3.723   6.307
 8507TIP3   OH225463   4.769   4.972   5.182
 8507TIP3    H125464   4.847   4.975   5.238
 8507TIP3    H225465   4.701   4.935   5.238
 8508TIP3   OH225466   0.287   7.728   1.548
 8508TIP3    H125467   0.368   7.756   1.591
 8508TIP3    H225468   0.229   7.803   1.556
 8509TIP3   OH225469   6.182   3.050   5.499
 8509TIP3    H125470   6.264   3.084   5.536
 8509TIP3    H225471   6.137   3.011   5.574
 8510TIP3   OH225472   7.266   3.322   1.531
 8510TIP3    H125473   7.302   3.410   1.548
 8510TIP3    H225474   7.186   3.318   1.583
 8511TIP3   OH225475   4.839   7.652   1.435
 8511TIP3    H125476   4.790   7.651   1.353
 8511TIP3    H225477   4.901   7.579   1.427
 8512TIP3   OH225478   6.331   2.598   3.433
 8512TIP3    H125479   6.374   2.572   3.351
 8512TIP3    H225480   6.243   2.559   3.427
 8513TIP3   OH225481   1.882   0.258   3.247
 8513TIP3    H125482   1.843   0.312   3.178
 8513TIP3    H225483   1.836   0.174   3.239
 8514TIP3   OH225484   3.224   1.554   2.755
 8514TIP3    H125485   3.168   1.617   2.799
 8514TIP3    H225486   3.187   1.546   2.667
 8515TIP3   OH225487   2.016   7.157   2.573
 8515TIP3    H125488   2.058   7.134   2.490
 8515TIP3    H225489   1.980   7.074   2.605
 8516TIP3   OH225490   6.457   5.443   4.238
 8516TIP3    H125491   6.394   5.376   4.262
 8516TIP3    H225492   6.542   5.401   4.248
 8517TIP3   OH225493   1.489   2.961   4.387
 8517TIP3    H125494   1.402   2.996   4.405
 8517TIP3    H225495   1.471   2.876   4.345
 8518TIP3   OH225496   6.718   4.655   6.010
 8518TIP3    H125497   6.707   4.560   6.020
 8518TIP3    H225498   6.771   4.665   5.931
 8519TIP3   OH225499   3.425   3.382   2.491
 8519TIP3    H125500   3.360   3.421   2.550
 8519TIP3    H225501   3.375   3.357   2.413
 8520TIP3   OH225502   0.160   2.940   3.857
 8520TIP3    H125503   0.158   3.017   3.913
 8520TIP3    H225504   0.073   2.936   3.818
 8521TIP3   OH225505   0.971   1.319   6.545
 8521TIP3    H125506   0.947   1.229   6.524
 8521TIP3    H225507   1.010   1.353   6.465
 8522TIP3   OH225508   5.482   1.369   2.657
 8522TIP3    H125509   5.441   1.365   2.571
 8522TIP3    H225510   5.529   1.453   2.658
 8523TIP3   OH225511   3.747   7.436   3.863
 8523TIP3    H125512   3.748   7.348   3.901
 8523TIP3    H225513   3.712   7.492   3.933
 8524TIP3   OH225514   2.894   2.736   6.007
 8524TIP3    H125515   2.853   2.730   6.093
 8524TIP3    H225516   2.940   2.653   5.997
 8525TIP3   OH225517   1.592   4.514   3.918
 8525TIP3    H125518   1.505   4.552   3.909
 8525TIP3    H225519   1.585   4.456   3.993
 8526TIP3   OH225520   6.267   5.618   5.510
 8526TIP3    H125521   6.258   5.531   5.548
 8526TIP3    H225522   6.349   5.652   5.546
 8527TIP3   OH225523   5.959   3.062   2.042
 8527TIP3    H125524   5.976   2.973   2.010
 8527TIP3    H225525   6.046   3.102   2.046
 8528TIP3   OH225526   1.390   6.541   4.865
 8528TIP3    H125527   1.323   6.580   4.809
 8528TIP3    H225528   1.340   6.501   4.937
 8529TIP3   OH225529   4.092   3.371   1.632
 8529TIP3    H125530   4.156   3.327   1.688
 8529TIP3    H225531   4.012   3.372   1.683
 8530TIP3   OH225532   2.350   3.109   0.985
 8530TIP3    H125533   2.395   3.026   0.967
 8530TIP3    H225534   2.418   3.175   0.979
 8531TIP3   OH225535   8.011   1.305   1.908
 8531TIP3    H125536   8.037   1.342   1.824
 8531TIP3    H225537   8.069   1.347   1.972
 8532TIP3   OH225538   1.010   4.626   1.842
 8532TIP3    H125539   1.017   4.623   1.747
 8532TIP3    H225540   1.044   4.712   1.866
 8533TIP3   OH225541   3.018   5.587   6.317
 8533TIP3    H125542   3.031   5.601   6.223
 8533TIP3    H225543   2.945   5.644   6.340
 8534TIP3   OH225544   8.094   7.287   2.410
 8534TIP3    H125545   8.179   7.311   2.374
 8534TIP3    H225546   8.072   7.203   2.369
 8535TIP3   OH225547   6.860   5.576   1.699
 8535TIP3    H125548   6.894   5.493   1.732
 8535TIP3    H225549   6.888   5.641   1.763
 8536TIP3   OH225550   0.659   5.585   3.258
 8536TIP3    H125551   0.678   5.559   3.348
 8536TIP3    H225552   0.736   5.635   3.231
 8537TIP3   OH225553   1.962   3.594   0.363
 8537TIP3    H125554   1.975   3.500   0.377
 8537TIP3    H225555   2.050   3.630   0.356
 8538TIP3   OH225556   1.745   2.892   0.328
 8538TIP3    H125557   1.790   2.965   0.285
 8538TIP3    H225558   1.672   2.933   0.374
 8539TIP3   OH225559   6.645   7.556   0.648
 8539TIP3    H125560   6.590   7.532   0.572
 8539TIP3    H225561   6.628   7.649   0.661
 8540TIP3   OH225562   5.918   5.172   3.140
 8540TIP3    H125563   5.934   5.082   3.167
 8540TIP3    H225564   5.830   5.192   3.172
 8541TIP3   OH225565   2.528   6.495   1.404
 8541TIP3    H125566   2.610   6.513   1.450
 8541TIP3    H225567   2.479   6.437   1.463
 8542TIP3   OH225568   5.434   3.737   4.662
 8542TIP3    H125569   5.376   3.667   4.632
 8542TIP3    H225570   5.520   3.697   4.665
 8543TIP3   OH225571   4.260   6.035   3.521
 8543TIP3    H125572   4.232   6.074   3.604
 8543TIP3    H225573   4.201   6.073   3.456
 8544TIP3   OH225574   6.639   4.826   3.839
 8544TIP3    H125575   6.659   4.851   3.930
 8544TIP3    H225576   6.669   4.736   3.832
 8545TIP3   OH225577   3.000   2.932   1.964
 8545TIP3    H125578   2.911   2.934   1.932
 8545TIP3    H225579   3.019   3.022   1.989
 8546TIP3   OH225580   5.612   1.254   1.437
 8546TIP3    H125581   5.680   1.276   1.374
 8546TIP3    H225582   5.639   1.169   1.473
 8547TIP3   OH225583   1.500   6.182   4.073
 8547TIP3    H125584   1.580   6.230   4.054
 8547TIP3    H225585   1.527   6.111   4.131
 8548TIP3   OH225586   3.706   6.922   4.241
 8548TIP3    H125587   3.768   6.924   4.314
 8548TIP3    H225588   3.761   6.921   4.163
 8549TIP3   OH225589   5.473   2.885   2.239
 8549TIP3    H125590   5.463   2.953   2.306
 8549TIP3    H225591   5.553   2.909   2.192
 8550TIP3   OH225592   8.032   6.142   3.091
 8550TIP3    H125593   7.960   6.079   3.087
 8550TIP3    H225594   8.031   6.175   3.180
 8551TIP3   OH225595   7.804   0.001   5.815
 8551TIP3    H125596   7.749   0.047   5.877
 8551TIP3    H225597   7.772  -0.090   5.817
 8552TIP3   OH225598   3.308   7.606   2.727
 8552TIP3    H125599   3.276   7.684   2.773
 8552TIP3    H225600   3.356   7.557   2.793
 8553TIP3   OH225601   2.196   4.060   2.487
 8553TIP3    H125602   2.165   4.150   2.476
 8553TIP3    H225603   2.261   4.065   2.557
 8554TIP3   OH225604   1.388   1.356   5.132
 8554TIP3    H125605   1.471   1.339   5.175
 8554TIP3    H225606   1.399   1.319   5.044
 8555TIP3   OH225607   1.234   5.913   4.165
 8555TIP3    H125608   1.262   5.877   4.081
 8555TIP3    H225609   1.308   5.898   4.224
 8556TIP3   OH225610   1.670   3.038   6.225
 8556TIP3    H125611   1.685   2.993   6.308
 8556TIP3    H225612   1.699   2.976   6.158
 8557TIP3   OH225613   4.383   3.681   4.141
 8557TIP3    H125614   4.367   3.603   4.086
 8557TIP3    H225615   4.435   3.648   4.214
 8558TIP3   OH225616   0.760   6.249   6.765
 8558TIP3    H125617   0.806   6.235   6.683
 8558TIP3    H225618   0.709   6.329   6.751
 8559TIP3   OH225619   3.431   2.757   4.269
 8559TIP3    H125620   3.380   2.718   4.340
 8559TIP3    H225621   3.485   2.685   4.236
 8560TIP3   OH225622   7.935   4.971   2.760
 8560TIP3    H125623   7.941   4.881   2.790
 8560TIP3    H225624   8.004   4.978   2.694
 8561TIP3   OH225625   4.257   1.655   5.986
 8561TIP3    H125626   4.223   1.744   5.975
 8561TIP3    H225627   4.311   1.641   5.908
 8562TIP3   OH225628   8.291   0.228   0.875
 8562TIP3    H125629   8.362   0.287   0.901
 8562TIP3    H225630   8.253   0.271   0.797
 8563TIP3   OH225631   5.232   3.554   3.590
 8563TIP3    H125632   5.289   3.487   3.629
 8563TIP3    H225633   5.185   3.592   3.664
 8564TIP3   OH225634   0.504   5.585   4.089
 8564TIP3    H125635   0.426   5.587   4.032
 8564TIP3    H225636   0.577   5.572   4.028
 8565TIP3   OH225637   5.417   2.690   0.099
 8565TIP3    H125638   5.332   2.709   0.059
 8565TIP3    H225639   5.447   2.773   0.134
 8566TIP3   OH225640   5.629   6.041   0.597
 8566TIP3    H125641   5.642   6.136   0.595
 8566TIP3    H225642   5.548   6.027   0.548
 8567TIP3   OH225643   6.859   5.687   5.263
 8567TIP3    H125644   6.815   5.768   5.291
 8567TIP3    H225645   6.789   5.622   5.259
 8568TIP3   OH225646   8.057   0.082   3.132
 8568TIP3    H125647   8.145   0.119   3.127
 8568TIP3    H225648   8.012   0.117   3.054
 8569TIP3   OH225649   5.683   1.278   5.453
 8569TIP3    H125650   5.599   1.234   5.439
 8569TIP3    H225651   5.720   1.233   5.530
 8570TIP3   OH225652   3.774   3.216  -0.041
 8570TIP3    H125653   3.808   3.265   0.034
 8570TIP3    H225654   3.801   3.126  -0.025
 8571TIP3   OH225655   2.239   6.702   0.025
 8571TIP3    H125656   2.202   6.614   0.016
 8571TIP3    H225657   2.181   6.746   0.088
 8572TIP3   OH225658   3.828   3.143   6.190
 8572TIP3    H125659   3.848   3.119   6.100
 8572TIP3    H225660   3.744   3.102   6.209
 8573TIP3   OH225661   4.261   1.281   0.159
 8573TIP3    H125662   4.316   1.352   0.191
 8573TIP3    H225663   4.291   1.204   0.206
 8574TIP3   OH225664   1.699   4.100   3.905
 8574TIP3    H125665   1.651   4.149   3.972
 8574TIP3    H225666   1.783   4.145   3.898
 8575TIP3   OH225667   5.368   2.962   3.056
 8575TIP3    H125668   5.318   2.954   2.975
 8575TIP3    H225669   5.440   3.021   3.035
 8576TIP3   OH225670   8.025   0.678   5.779
 8576TIP3    H125671   8.108   0.682   5.825
 8576TIP3    H225672   7.962   0.716   5.841
 8577TIP3   OH225673   0.781   6.474   3.900
 8577TIP3    H125674   0.837   6.484   3.823
 8577TIP3    H225675   0.834   6.427   3.963
 8578TIP3   OH225676   1.758   0.448   3.116
 8578TIP3    H125677   1.822   0.458   3.046
 8578TIP3    H225678   1.673   0.458   3.072
 8579TIP3   OH225679   3.221   5.626   1.478
 8579TIP3    H125680   3.263   5.564   1.419
 8579TIP3    H225681   3.206   5.704   1.426
 8580TIP3   OH225682   2.077   7.840   1.224
 8580TIP3    H125683   2.077   7.750   1.191
 8580TIP3    H225684   2.085   7.831   1.319
 8581TIP3   OH225685   3.705   5.540   2.720
 8581TIP3    H125686   3.636   5.507   2.662
 8581TIP3    H225687   3.735   5.621   2.678
 8582TIP3   OH225688   3.845   2.190   1.285
 8582TIP3    H125689   3.785   2.185   1.210
 8582TIP3    H225690   3.814   2.122   1.345
 8583TIP3   OH225691   4.853   6.400   2.822
 8583TIP3    H125692   4.904   6.435   2.750
 8583TIP3    H225693   4.847   6.306   2.804
 8584TIP3   OH225694   3.786   1.889   4.558
 8584TIP3    H125695   3.814   1.828   4.627
 8584TIP3    H225696   3.697   1.912   4.581
 8585TIP3   OH225697   7.403   4.633   1.638
 8585TIP3    H125698   7.467   4.671   1.699
 8585TIP3    H225699   7.456   4.608   1.562
 8586TIP3   OH225700   7.352   5.933   6.117
 8586TIP3    H125701   7.447   5.933   6.105
 8586TIP3    H225702   7.319   5.988   6.046
 8587TIP3   OH225703   5.399   6.639   6.755
 8587TIP3    H125704   5.444   6.604   6.832
 8587TIP3    H225705   5.404   6.734   6.765
 8588TIP3   OH225706   8.109   4.614   5.082
 8588TIP3    H125707   8.166   4.598   5.157
 8588TIP3    H225708   8.134   4.701   5.051
 8589TIP3   OH225709   4.667   0.395   6.348
 8589TIP3    H125710   4.676   0.302   6.370
 8589TIP3    H225711   4.573   0.409   6.342
 8590TIP3   OH225712   5.599   2.392   2.946
 8590TIP3    H125713   5.619   2.325   2.880
 8590TIP3    H225714   5.589   2.473   2.895
 8591TIP3   OH225715   7.567   0.540   3.387
 8591TIP3    H125716   7.634   0.510   3.449
 8591TIP3    H225717   7.591   0.498   3.304
 8592TIP3   OH225718   6.774   4.086   2.620
 8592TIP3    H125719   6.820   4.016   2.666
 8592TIP3    H225720   6.732   4.042   2.546
 8593TIP3   OH225721   4.402   5.358   5.184
 8593TIP3    H125722   4.456   5.437   5.188
 8593TIP3    H225723   4.372   5.353   5.093
 8594TIP3   OH225724   1.934   5.594   5.173
 8594TIP3    H125725   1.978   5.673   5.205
 8594TIP3    H225726   1.844   5.602   5.204
 8595TIP3   OH225727   2.195   1.702   0.127
 8595TIP3    H125728   2.126   1.762   0.156
 8595TIP3    H225729   2.156   1.654   0.054
 8596TIP3   OH225730   1.185   2.810   6.243
 8596TIP3    H125731   1.189   2.781   6.334
 8596TIP3    H225732   1.256   2.874   6.234
 8597TIP3   OH225733   1.472   7.055   0.773
 8597TIP3    H125734   1.410   6.986   0.797
 8597TIP3    H225735   1.521   7.018   0.700
 8598TIP3   OH225736   2.338   0.330   3.008
 8598TIP3    H125737   2.257   0.305   3.053
 8598TIP3    H225738   2.339   0.425   3.014
 8599TIP3   OH225739   3.820   4.193   2.560
 8599TIP3    H125740   3.802   4.176   2.467
 8599TIP3    H225741   3.774   4.274   2.579
 8600TIP3   OH225742   1.783   1.742   1.505
 8600TIP3    H125743   1.717   1.765   1.569
 8600TIP3    H225744   1.786   1.647   1.506
 8601TIP3   OH225745   2.364   4.230   4.677
 8601TIP3    H125746   2.339   4.168   4.745
 8601TIP3    H225747   2.459   4.220   4.668
 8602TIP3   OH225748   5.239   0.614   3.489
 8602TIP3    H125749   5.271   0.704   3.480
 8602TIP3    H225750   5.145   0.624   3.508
 8603TIP3   OH225751   7.492   7.087   1.033
 8603TIP3    H125752   7.441   7.091   1.114
 8603TIP3    H225753   7.475   7.170   0.990
 8604TIP3   OH225754   5.005   7.706   1.882
 8604TIP3    H125755   4.945   7.716   1.955
 8604TIP3    H225756   4.952   7.729   1.805
 8605TIP3   OH225757   5.311   4.720   2.530
 8605TIP3    H125758   5.269   4.681   2.452
 8605TIP3    H225759   5.293   4.657   2.600
 8606TIP3   OH225760   3.828   3.674   1.958
 8606TIP3    H125761   3.735   3.697   1.956
 8606TIP3    H225762   3.836   3.615   2.033
 8607TIP3   OH225763   6.094   1.540   3.363
 8607TIP3    H125764   6.171   1.573   3.408
 8607TIP3    H225765   6.033   1.517   3.434
 8608TIP3   OH225766   1.027   6.106   2.904
 8608TIP3    H125767   0.971   6.038   2.868
 8608TIP3    H225768   1.042   6.166   2.831
 8609TIP3   OH225769   2.841   0.780   3.697
 8609TIP3    H125770   2.878   0.773   3.609
 8609TIP3    H225771   2.828   0.874   3.711
 8610TIP3   OH225772   1.356   5.790   6.181
 8610TIP3    H125773   1.343   5.695   6.183
 8610TIP3    H225774   1.372   5.814   6.272
 8611TIP3   OH225775   4.437   2.648   3.140
 8611TIP3    H125776   4.386   2.567   3.149
 8611TIP3    H225777   4.394   2.710   3.198
 8612TIP3   OH225778   2.538   4.566   4.971
 8612TIP3    H125779   2.614   4.512   4.993
 8612TIP3    H225780   2.478   4.555   5.045
 8613TIP3   OH225781   0.031   1.817   2.446
 8613TIP3    H125782   0.107   1.812   2.503
 8613TIP3    H225783  -0.027   1.747   2.477
 8614TIP3   OH225784   2.941   4.589   2.875
 8614TIP3    H125785   2.998   4.656   2.914
 8614TIP3    H225786   2.995   4.510   2.876
 8615TIP3   OH225787   7.890   0.125   0.801
 8615TIP3    H125788   7.825   0.074   0.753
 8615TIP3    H225789   7.970   0.117   0.750
 8616TIP3   OH225790   5.090   5.767   4.234
 8616TIP3    H125791   5.174   5.784   4.276
 8616TIP3    H225792   5.076   5.843   4.177
 8617TIP3   OH225793   0.670   7.216   6.435
 8617TIP3    H125794   0.611   7.207   6.509
 8617TIP3    H225795   0.756   7.230   6.475
 8618TIP3   OH225796   4.733   0.047   5.262
 8618TIP3    H125797   4.656   0.006   5.222
 8618TIP3    H225798   4.718   0.141   5.250
 8619TIP3   OH225799   0.075   5.135   1.244
 8619TIP3    H125800   0.121   5.198   1.300
 8619TIP3    H225801   0.091   5.166   1.155
 8620TIP3   OH225802   6.107   7.331   2.869
 8620TIP3    H125803   6.028   7.304   2.822
 8620TIP3    H225804   6.147   7.248   2.897
 8621TIP3   OH225805   1.953   5.376   6.038
 8621TIP3    H125806   1.964   5.468   6.017
 8621TIP3    H225807   1.902   5.340   5.966
 8622TIP3   OH225808   0.012   1.974   3.732
 8622TIP3    H125809   0.081   2.029   3.768
 8622TIP3    H225810  -0.067   2.000   3.779
 8623TIP3   OH225811   0.377   1.710   4.750
 8623TIP3    H125812   0.357   1.738   4.661
 8623TIP3    H225813   0.314   1.757   4.805
 8624TIP3   OH225814   5.907   7.696   0.155
 8624TIP3    H125815   5.874   7.606   0.161
 8624TIP3    H225816   5.984   7.696   0.213
 8625TIP3   OH225817   6.974   2.184   3.083
 8625TIP3    H125818   6.954   2.242   3.157
 8625TIP3    H225819   7.041   2.124   3.118
 8626TIP3   OH225820   6.735   4.365   1.238
 8626TIP3    H125821   6.762   4.297   1.300
 8626TIP3    H225822   6.661   4.407   1.280
 8627TIP3   OH225823   2.949   7.135   4.128
 8627TIP3    H125824   2.942   7.167   4.218
 8627TIP3    H225825   3.039   7.104   4.120
 8628TIP3   OH225826   7.836   5.660   5.929
 8628TIP3    H125827   7.789   5.675   6.011
 8628TIP3    H225828   7.823   5.567   5.911
 8629TIP3   OH225829   5.635   3.515   5.364
 8629TIP3    H125830   5.659   3.546   5.276
 8629TIP3    H225831   5.549   3.476   5.352
 8630TIP3   OH225832   7.688   0.291   3.670
 8630TIP3    H125833   7.724   0.380   3.674
 8630TIP3    H225834   7.594   0.303   3.685
 8631TIP3   OH225835   8.139   4.767   0.625
 8631TIP3    H125836   8.046   4.747   0.615
 8631TIP3    H225837   8.144   4.816   0.708
 8632TIP3   OH225838   3.173   7.019   5.476
 8632TIP3    H125839   3.225   7.073   5.536
 8632TIP3    H225840   3.238   6.975   5.421
 8633TIP3   OH225841   2.689   6.428   5.093
 8633TIP3    H125842   2.773   6.452   5.055
 8633TIP3    H225843   2.656   6.358   5.036
 8634TIP3   OH225844   1.952   3.236   3.923
 8634TIP3    H125845   1.931   3.238   4.016
 8634TIP3    H225846   1.953   3.143   3.901
 8635TIP3   OH225847   0.702   0.415   0.764
 8635TIP3    H125848   0.720   0.440   0.854
 8635TIP3    H225849   0.744   0.484   0.712
 8636TIP3   OH225850   0.747   1.487   4.584
 8636TIP3    H125851   0.681   1.464   4.519
 8636TIP3    H225852   0.754   1.583   4.578
 8637TIP3   OH225853   7.008   5.938   1.606
 8637TIP3    H125854   7.055   6.017   1.635
 8637TIP3    H225855   6.989   5.891   1.687
 8638TIP3   OH225856   1.260   0.956   4.942
 8638TIP3    H125857   1.191   0.936   4.878
 8638TIP3    H225858   1.218   1.016   5.004
 8639TIP3   OH225859   3.557   5.382   0.934
 8639TIP3    H125860   3.511   5.435   0.868
 8639TIP3    H225861   3.511   5.298   0.933
 8640TIP3   OH225862   5.302   6.861   4.001
 8640TIP3    H125863   5.209   6.885   3.993
 8640TIP3    H225864   5.324   6.823   3.916
 8641TIP3   OH225865   0.539   5.644   6.759
 8641TIP3    H125866   0.632   5.652   6.781
 8641TIP3    H225867   0.512   5.734   6.741
 8642TIP3   OH225868   4.370   6.497   0.683
 8642TIP3    H125869   4.420   6.437   0.738
 8642TIP3    H225870   4.343   6.445   0.608
 8643TIP3   OH225871   4.529   5.305   1.334
 8643TIP3    H125872   4.508   5.394   1.365
 8643TIP3    H225873   4.601   5.318   1.272
 8644TIP3   OH225874   1.589   4.009   6.165
 8644TIP3    H125875   1.551   4.074   6.224
 8644TIP3    H225876   1.515   3.955   6.139
 8645TIP3   OH225877   5.773   5.943   1.450
 8645TIP3    H125878   5.830   5.987   1.386
 8645TIP3    H225879   5.765   6.007   1.521
 8646TIP3   OH225880   7.261   4.701   0.580
 8646TIP3    H125881   7.284   4.735   0.667
 8646TIP3    H225882   7.270   4.777   0.522
 8647TIP3   OH225883   3.329   5.572   3.182
 8647TIP3    H125884   3.401   5.508   3.189
 8647TIP3    H225885   3.250   5.519   3.183
 8648TIP3   OH225886   5.326   1.778   6.597
 8648TIP3    H125887   5.414   1.795   6.563
 8648TIP3    H225888   5.321   1.683   6.607
 8649TIP3   OH225889   6.507   0.922   3.990
 8649TIP3    H125890   6.467   1.003   4.024
 8649TIP3    H225891   6.475   0.916   3.900
 8650TIP3   OH225892   1.990   3.340   2.141
 8650TIP3    H125893   2.048   3.266   2.122
 8650TIP3    H225894   1.920   3.333   2.076
 8651TIP3   OH225895   2.842   2.583   4.110
 8651TIP3    H125896   2.788   2.599   4.188
 8651TIP3    H225897   2.784   2.538   4.049
 8652TIP3   OH225898   8.215   5.228   5.426
 8652TIP3    H125899   8.147   5.246   5.490
 8652TIP3    H225900   8.256   5.313   5.409
 8653TIP3   OH225901   4.837   7.288   3.420
 8653TIP3    H125902   4.876   7.375   3.416
 8653TIP3    H225903   4.851   7.259   3.510
 8654TIP3   OH225904   1.836   0.223   0.069
 8654TIP3    H125905   1.912   0.214   0.127
 8654TIP3    H225906   1.871   0.209  -0.019
 8655TIP3   OH225907   5.616   4.317   5.973
 8655TIP3    H125908   5.616   4.285   6.063
 8655TIP3    H225909   5.684   4.385   5.972
 8656TIP3   OH225910   1.066   6.274   2.698
 8656TIP3    H125911   1.018   6.354   2.677
 8656TIP3    H225912   1.032   6.209   2.637
 8657TIP3   OH225913   2.763   7.892   2.348
 8657TIP3    H125914   2.774   7.806   2.387
 8657TIP3    H225915   2.844   7.939   2.371
 8658TIP3   OH225916   5.614   4.793   5.198
 8658TIP3    H125917   5.699   4.763   5.165
 8658TIP3    H225918   5.595   4.871   5.146
 8659TIP3   OH225919   5.751   4.590   0.571
 8659TIP3    H125920   5.716   4.515   0.620
 8659TIP3    H225921   5.696   4.595   0.493
 8660TIP3   OH225922   4.291   2.025   2.921
 8660TIP3    H125923   4.266   1.933   2.925
 8660TIP3    H225924   4.347   2.031   2.843
 8661TIP3   OH225925   5.712   0.627   5.842
 8661TIP3    H125926   5.779   0.612   5.908
 8661TIP3    H225927   5.635   0.656   5.891
 8662TIP3   OH225928   4.503   5.788   3.164
 8662TIP3    H125929   4.449   5.859   3.199
 8662TIP3    H225930   4.593   5.819   3.175
 8663TIP3   OH225931   2.093  -0.035   6.729
 8663TIP3    H125932   2.017  -0.069   6.681
 8663TIP3    H225933   2.060   0.043   6.774
 8664TIP3   OH225934   5.975   3.757   1.147
 8664TIP3    H125935   5.932   3.824   1.093
 8664TIP3    H225936   5.912   3.738   1.216
 8665TIP3   OH225937   2.793   1.496   5.867
 8665TIP3    H125938   2.713   1.544   5.887
 8665TIP3    H225939   2.764   1.409   5.841
 8666TIP3   OH225940   2.574   2.850   2.171
 8666TIP3    H125941   2.524   2.768   2.170
 8666TIP3    H225942   2.542   2.899   2.096
 8667TIP3   OH225943   7.089   2.968   1.838
 8667TIP3    H125944   7.163   3.027   1.827
 8667TIP3    H225945   7.029   3.015   1.896
 8668TIP3   OH225946   7.922   2.541   4.132
 8668TIP3    H125947   7.836   2.511   4.102
 8668TIP3    H225948   7.967   2.570   4.053
 8669TIP3   OH225949   1.231   1.738   0.219
 8669TIP3    H125950   1.244   1.657   0.267
 8669TIP3    H225951   1.139   1.736   0.192
 8670TIP3   OH225952   5.164   4.275   1.012
 8670TIP3    H125953   5.081   4.238   0.981
 8670TIP3    H225954   5.143   4.311   1.099
 8671TIP3   OH225955   3.366   3.841   4.002
 8671TIP3    H125956   3.406   3.761   4.038
 8671TIP3    H225957   3.271   3.824   4.007
 8672TIP3   OH225958   0.485   0.785   1.538
 8672TIP3    H125959   0.559   0.845   1.543
 8672TIP3    H225960   0.516   0.705   1.580
 8673TIP3   OH225961   6.110   1.055   6.529
 8673TIP3    H125962   6.183   1.038   6.470
 8673TIP3    H225963   6.032   1.030   6.479
 8674TIP3   OH225964   4.778   7.331   0.808
 8674TIP3    H125965   4.721   7.351   0.882
 8674TIP3    H225966   4.722   7.340   0.731
 8675TIP3   OH225967   4.762   6.736   1.570
 8675TIP3    H125968   4.820   6.810   1.551
 8675TIP3    H225969   4.812   6.659   1.541
 8676TIP3   OH225970   2.517   2.644   0.749
 8676TIP3    H125971   2.565   2.604   0.822
 8676TIP3    H225972   2.585   2.667   0.686
 8677TIP3   OH225973   4.882   2.255   0.651
 8677TIP3    H125974   4.923   2.333   0.688
 8677TIP3    H225975   4.954   2.209   0.607
 8678TIP3   OH225976   5.907   1.824   0.864
 8678TIP3    H125977   5.974   1.891   0.873
 8678TIP3    H225978   5.849   1.838   0.940
 8679TIP3   OH225979   7.452   4.242   3.967
 8679TIP3    H125980   7.493   4.306   3.910
 8679TIP3    H225981   7.404   4.184   3.908
 8680TIP3   OH225982   2.701   2.602   4.898
 8680TIP3    H125983   2.770   2.668   4.890
 8680TIP3    H225984   2.624   2.642   4.857
 8681TIP3   OH225985   2.687   5.608   4.730
 8681TIP3    H125986   2.753   5.561   4.678
 8681TIP3    H225987   2.611   5.614   4.672
 8682TIP3   OH225988   3.005   2.257   4.144
 8682TIP3    H125989   2.958   2.281   4.064
 8682TIP3    H225990   3.024   2.340   4.188
 8683TIP3   OH225991   7.532   1.633   5.638
 8683TIP3    H125992   7.604   1.684   5.675
 8683TIP3    H225993   7.455   1.660   5.689
 8684TIP3   OH225994   3.300   6.375   1.289
 8684TIP3    H125995   3.216   6.331   1.299
 8684TIP3    H225996   3.332   6.387   1.379
 8685TIP3   OH225997   1.453   7.755   4.999
 8685TIP3    H125998   1.369   7.742   4.956
 8685TIP3    H225999   1.482   7.842   4.971
 8686TIP3   OH226000   1.085   1.737   3.141
 8686TIP3    H126001   1.000   1.705   3.171
 8686TIP3    H226002   1.080   1.832   3.150
 8687TIP3   OH226003   5.793   5.209   3.533
 8687TIP3    H126004   5.794   5.265   3.610
 8687TIP3    H226005   5.701   5.186   3.520
 8688TIP3   OH226006   8.162   3.981   6.586
 8688TIP3    H126007   8.083   3.964   6.636
 8688TIP3    H226008   8.157   4.073   6.562
 8689TIP3   OH226009   7.771   2.428   0.932
 8689TIP3    H126010   7.821   2.353   0.899
 8689TIP3    H226011   7.786   2.497   0.868
 8690TIP3   OH226012   5.875   7.130   5.406
 8690TIP3    H126013   5.827   7.211   5.387
 8690TIP3    H226014   5.930   7.116   5.329
 8691TIP3   OH226015   3.429   5.129   0.908
 8691TIP3    H126016   3.352   5.165   0.951
 8691TIP3    H226017   3.396   5.084   0.831
 8692TIP3   OH226018   6.489   0.311   5.306
 8692TIP3    H126019   6.498   0.401   5.275
 8692TIP3    H226020   6.512   0.315   5.399
 8693TIP3   OH226021   2.203   1.407   2.755
 8693TIP3    H126022   2.229   1.494   2.723
 8693TIP3    H226023   2.118   1.422   2.796
 8694TIP3   OH226024   2.892   7.440   0.264
 8694TIP3    H126025   2.819   7.389   0.232
 8694TIP3    H226026   2.869   7.531   0.243
 8695TIP3   OH226027   4.260   7.117   1.212
 8695TIP3    H126028   4.188   7.180   1.208
 8695TIP3    H226029   4.282   7.099   1.120
 8696TIP3   OH226030   6.613   7.498   5.429
 8696TIP3    H126031   6.597   7.592   5.442
 8696TIP3    H226032   6.531   7.465   5.393
 8697TIP3   OH226033   4.419   3.029   2.574
 8697TIP3    H126034   4.421   2.982   2.491
 8697TIP3    H226035   4.337   3.003   2.615
 8698TIP3   OH226036   1.184   6.968   0.534
 8698TIP3    H126037   1.186   7.061   0.556
 8698TIP3    H226038   1.162   6.966   0.440
 8699TIP3   OH226039   2.644   3.824   6.416
 8699TIP3    H126040   2.634   3.915   6.386
 8699TIP3    H226041   2.562   3.782   6.391
 8700TIP3   OH226042   3.268   4.168   3.931
 8700TIP3    H126043   3.266   4.122   4.015
 8700TIP3    H226044   3.228   4.107   3.870
 8701TIP3   OH226045   3.703   7.396   2.229
 8701TIP3    H126046   3.692   7.485   2.195
 8701TIP3    H226047   3.653   7.396   2.311
 8702TIP3   OH226048   8.214   4.489   3.251
 8702TIP3    H126049   8.175   4.441   3.178
 8702TIP3    H226050   8.173   4.576   3.246
 8703TIP3   OH226051   6.347   3.292   0.510
 8703TIP3    H126052   6.280   3.303   0.577
 8703TIP3    H226053   6.411   3.233   0.550
 8704TIP3   OH226054   3.311   7.047   2.359
 8704TIP3    H126055   3.381   7.014   2.414
 8704TIP3    H226056   3.257   7.099   2.418
 8705TIP3   OH226057   6.399   5.394   0.690
 8705TIP3    H126058   6.399   5.357   0.778
 8705TIP3    H226059   6.310   5.377   0.657
 8706TIP3   OH226060   0.473   1.935   6.057
 8706TIP3    H126061   0.551   1.905   6.009
 8706TIP3    H226062   0.508   1.988   6.128
 8707TIP3   OH226063   2.617   1.953   3.209
 8707TIP3    H126064   2.617   2.023   3.275
 8707TIP3    H226065   2.706   1.953   3.174
 8708TIP3   OH226066   2.641   1.470   5.192
 8708TIP3    H126067   2.659   1.509   5.277
 8708TIP3    H226068   2.577   1.401   5.211
 8709TIP3   OH226069   7.583   0.351   1.210
 8709TIP3    H126070   7.535   0.434   1.207
 8709TIP3    H226071   7.660   0.367   1.156
 8710TIP3   OH226072   6.232   1.863   4.490
 8710TIP3    H126073   6.145   1.852   4.454
 8710TIP3    H226074   6.257   1.952   4.466
 8711TIP3   OH226075   0.590   7.751   3.385
 8711TIP3    H126076   0.514   7.792   3.342
 8711TIP3    H226077   0.574   7.764   3.478
 8712TIP3   OH226078   0.880   4.353   6.342
 8712TIP3    H126079   0.895   4.265   6.377
 8712TIP3    H226080   0.801   4.384   6.387
 8713TIP3   OH226081   1.555   3.352   4.040
 8713TIP3    H126082   1.511   3.279   4.085
 8713TIP3    H226083   1.483   3.409   4.013
 8714TIP3   OH226084   7.538   6.035   4.203
 8714TIP3    H126085   7.444   6.051   4.211
 8714TIP3    H226086   7.574   6.118   4.171
 8715TIP3   OH226087   1.904   3.921   6.410
 8715TIP3    H126088   1.861   3.854   6.357
 8715TIP3    H226089   1.935   3.986   6.346
 8716TIP3   OH226090   1.669   2.528   3.573
 8716TIP3    H126091   1.717   2.445   3.569
 8716TIP3    H226092   1.630   2.537   3.486
 8717TIP3   OH226093   4.311   2.610   4.917
 8717TIP3    H126094   4.394   2.610   4.870
 8717TIP3    H226095   4.267   2.530   4.887
 8718TIP3   OH226096   1.747   3.976   2.391
 8718TIP3    H126097   1.735   4.053   2.446
 8718TIP3    H226098   1.756   4.012   2.302
 8719TIP3   OH226099   7.678   5.662   0.313
 8719TIP3    H126100   7.589   5.649   0.280
 8719TIP3    H226101   7.728   5.692   0.237
 8720TIP3   OH226102   7.715   1.258   6.715
 8720TIP3    H126103   7.747   1.251   6.625
 8720TIP3    H226104   7.621   1.242   6.708
 8721TIP3   OH226105   5.753   4.974   4.219
 8721TIP3    H126106   5.796   4.973   4.305
 8721TIP3    H226107   5.681   4.912   4.228
 8722TIP3   OH226108   6.962   0.276   4.634
 8722TIP3    H126109   7.003   0.194   4.662
 8722TIP3    H226110   7.025   0.314   4.573
 8723TIP3   OH226111   6.996   7.457   4.035
 8723TIP3    H126112   7.020   7.373   4.073
 8723TIP3    H226113   7.006   7.444   3.941
 8724TIP3   OH226114   3.686   0.254   1.108
 8724TIP3    H126115   3.718   0.276   1.196
 8724TIP3    H226116   3.714   0.163   1.095
 8725TIP3   OH226117   8.116   2.180   5.690
 8725TIP3    H126118   8.052   2.192   5.620
 8725TIP3    H226119   8.198   2.159   5.645
 8726TIP3   OH226120   3.563   5.507   3.725
 8726TIP3    H126121   3.525   5.442   3.666
 8726TIP3    H226122   3.644   5.467   3.756
 8727TIP3   OH226123   3.035   4.914   3.139
 8727TIP3    H126124   3.050   4.847   3.072
 8727TIP3    H226125   3.042   4.867   3.222
 8728TIP3   OH226126   2.435   6.946   5.048
 8728TIP3    H126127   2.456   7.017   5.108
 8728TIP3    H226128   2.342   6.928   5.063
 8729TIP3   OH226129   5.657   6.665   6.359
 8729TIP3    H126130   5.600   6.607   6.408
 8729TIP3    H226131   5.642   6.643   6.267
 8730TIP3   OH226132   3.775   3.071   1.775
 8730TIP3    H126133   3.731   3.014   1.837
 8730TIP3    H226134   3.835   3.013   1.727
 8731TIP3   OH226135   5.590   4.438   3.378
 8731TIP3    H126136   5.514   4.480   3.418
 8731TIP3    H226137   5.642   4.408   3.453
 8732TIP3   OH226138   5.876   7.390   1.350
 8732TIP3    H126139   5.935   7.425   1.283
 8732TIP3    H226140   5.800   7.358   1.301
 8733TIP3   OH226141   7.638   3.351   0.357
 8733TIP3    H126142   7.575   3.284   0.330
 8733TIP3    H226143   7.584   3.421   0.393
 8734TIP3   OH226144   7.304   0.539   6.292
 8734TIP3    H126145   7.382   0.499   6.330
 8734TIP3    H226146   7.284   0.613   6.349
 8735TIP3   OH226147   3.610   5.679   2.935
 8735TIP3    H126148   3.627   5.611   2.870
 8735TIP3    H226149   3.517   5.698   2.927
 8736TIP3   OH226150   0.567   5.210   5.482
 8736TIP3    H126151   0.538   5.250   5.400
 8736TIP3    H226152   0.522   5.125   5.485
 8737TIP3   OH226153   8.259   4.247   5.818
 8737TIP3    H126154   8.255   4.155   5.845
 8737TIP3    H226155   8.346   4.276   5.844
 8738TIP3   OH226156   6.959   1.170   4.520
 8738TIP3    H126157   6.940   1.189   4.428
 8738TIP3    H226158   7.046   1.131   4.519
 8739TIP3   OH226159   6.163   2.060   2.797
 8739TIP3    H126160   6.090   2.004   2.822
 8739TIP3    H226161   6.229   2.000   2.763
 8740TIP3   OH226162   2.383   3.733   5.403
 8740TIP3    H126163   2.370   3.789   5.327
 8740TIP3    H226164   2.298   3.691   5.416
 8741TIP3   OH226165   5.802   4.010   1.359
 8741TIP3    H126166   5.852   4.081   1.399
 8741TIP3    H226167   5.810   4.025   1.265
 8742TIP3   OH226168   4.212   2.087   5.271
 8742TIP3    H126169   4.135   2.115   5.321
 8742TIP3    H226170   4.191   1.997   5.245
 8743TIP3   OH226171   1.847   3.943   5.939
 8743TIP3    H126172   1.810   4.006   5.877
 8743TIP3    H226173   1.879   3.997   6.012
 8744TIP3   OH226174   2.566   0.305   6.056
 8744TIP3    H126175   2.645   0.279   6.102
 8744TIP3    H226176   2.568   0.255   5.974
 8745TIP3   OH226177   2.580   1.982   6.524
 8745TIP3    H126178   2.501   1.929   6.514
 8745TIP3    H226179   2.575   2.048   6.455
 8746TIP3   OH226180   4.786   4.591   6.457
 8746TIP3    H126181   4.875   4.597   6.421
 8746TIP3    H226182   4.765   4.498   6.453
 8747TIP3   OH226183   1.207   5.670   5.849
 8747TIP3    H126184   1.183   5.714   5.767
 8747TIP3    H226185   1.286   5.620   5.826
 8748TIP3   OH226186   0.824   5.340   0.090
 8748TIP3    H126187   0.757   5.323   0.156
 8748TIP3    H226188   0.799   5.287   0.015
 8749TIP3   OH226189   5.275   2.692   3.638
 8749TIP3    H126190   5.312   2.663   3.555
 8749TIP3    H226191   5.227   2.773   3.615
 8750TIP3   OH226192   3.241   2.608   2.863
 8750TIP3    H126193   3.165   2.596   2.919
 8750TIP3    H226194   3.225   2.691   2.818
 8751TIP3   OH226195   5.398   4.047   0.456
 8751TIP3    H126196   5.338   4.039   0.530
 8751TIP3    H226197   5.382   4.135   0.421
 8752TIP3   OH226198   4.776   1.195   3.669
 8752TIP3    H126199   4.747   1.226   3.584
 8752TIP3    H226200   4.858   1.148   3.651
 8753TIP3   OH226201   5.164   6.253   3.303
 8753TIP3    H126202   5.254   6.286   3.296
 8753TIP3    H226203   5.127   6.302   3.377
 8754TIP3   OH226204   7.688   5.356   3.101
 8754TIP3    H126205   7.615   5.293   3.104
 8754TIP3    H226206   7.752   5.315   3.042
 8755TIP3   OH226207   4.847   4.047   2.759
 8755TIP3    H126208   4.800   3.991   2.697
 8755TIP3    H226209   4.871   4.124   2.708
 8756TIP3   OH226210   3.460   2.363   1.805
 8756TIP3    H126211   3.533   2.402   1.853
 8756TIP3    H226212   3.463   2.405   1.719
 8757TIP3   OH226213   1.513   1.753   4.151
 8757TIP3    H126214   1.430   1.787   4.186
 8757TIP3    H226215   1.571   1.751   4.227
 8758TIP3   OH226216   4.175   7.831   3.893
 8758TIP3    H126217   4.184   7.919   3.930
 8758TIP3    H226218   4.106   7.790   3.945
 8759TIP3   OH226219   7.215   1.218   0.890
 8759TIP3    H126220   7.121   1.226   0.873
 8759TIP3    H226221   7.256   1.220   0.804
 8760TIP3   OH226222   7.111   1.885   6.080
 8760TIP3    H126223   7.163   1.924   6.150
 8760TIP3    H226224   7.025   1.927   6.088
 8761TIP3   OH226225   4.957   7.185   0.050
 8761TIP3    H126226   4.897   7.150   0.116
 8761TIP3    H226227   4.930   7.276   0.040
 8762TIP3   OH226228   7.375   2.471   4.574
 8762TIP3    H126229   7.308   2.538   4.565
 8762TIP3    H226230   7.456   2.514   4.547
 8763TIP3   OH226231   4.416   3.474   1.414
 8763TIP3    H126232   4.390   3.531   1.486
 8763TIP3    H226233   4.380   3.388   1.437
 8764TIP3   OH226234   6.590   3.132   1.633
 8764TIP3    H126235   6.621   3.155   1.720
 8764TIP3    H226236   6.527   3.062   1.646
 8765TIP3   OH226237   3.909   0.142   3.944
 8765TIP3    H126238   4.001   0.120   3.928
 8765TIP3    H226239   3.885   0.089   4.020
 8766TIP3   OH226240   0.536   3.531   5.379
 8766TIP3    H126241   0.621   3.565   5.406
 8766TIP3    H226242   0.479   3.546   5.455
 8767TIP3   OH226243   5.341   4.275   4.264
 8767TIP3    H126244   5.289   4.212   4.215
 8767TIP3    H226245   5.322   4.359   4.223
 8768TIP3   OH226246   0.159   2.475   5.894
 8768TIP3    H126247   0.082   2.489   5.838
 8768TIP3    H226248   0.220   2.428   5.837
 8769TIP3   OH226249   7.262   1.954   6.467
 8769TIP3    H126250   7.289   1.895   6.537
 8769TIP3    H226251   7.302   2.038   6.490
 8770TIP3   OH226252   6.179   1.015   5.415
 8770TIP3    H126253   6.103   1.056   5.457
 8770TIP3    H226254   6.149   0.928   5.391
 8771TIP3   OH226255   5.604   5.753   1.356
 8771TIP3    H126256   5.655   5.818   1.404
 8771TIP3    H226257   5.536   5.726   1.417
 8772TIP3   OH226258   3.842   3.525   0.838
 8772TIP3    H126259   3.830   3.615   0.867
 8772TIP3    H226260   3.903   3.487   0.901
 8773TIP3   OH226261   2.498   2.633   2.605
 8773TIP3    H126262   2.530   2.719   2.631
 8773TIP3    H226263   2.427   2.614   2.666
 8774TIP3   OH226264   4.859   3.963   4.312
 8774TIP3    H126265   4.810   3.924   4.240
 8774TIP3    H226266   4.831   4.055   4.313
 8775TIP3   OH226267   5.456   0.503   2.872
 8775TIP3    H126268   5.388   0.459   2.821
 8775TIP3    H226269   5.446   0.469   2.961
 8776TIP3   OH226270   4.012   3.804   1.738
 8776TIP3    H126271   3.957   3.865   1.690
 8776TIP3    H226272   3.958   3.775   1.811
 8777TIP3   OH226273   6.419   2.944   4.839
 8777TIP3    H126274   6.468   3.017   4.877
 8777TIP3    H226275   6.384   2.978   4.757
 8778TIP3   OH226276   5.917   4.336   4.690
 8778TIP3    H126277   5.913   4.255   4.742
 8778TIP3    H226278   5.856   4.395   4.732
 8779TIP3   OH226279   2.675   0.849   2.193
 8779TIP3    H126280   2.678   0.793   2.271
 8779TIP3    H226281   2.749   0.909   2.204
 8780TIP3   OH226282   0.450   1.943   1.761
 8780TIP3    H126283   0.372   1.984   1.723
 8780TIP3    H226284   0.417   1.892   1.835
 8781TIP3   OH226285   1.831   4.255   4.505
 8781TIP3    H126286   1.892   4.182   4.494
 8781TIP3    H226287   1.862   4.321   4.442
 8782TIP3   OH226288   0.787   5.088   4.462
 8782TIP3    H126289   0.816   5.173   4.494
 8782TIP3    H226290   0.867   5.045   4.431
 8783TIP3   OH226291   6.843   1.357   4.734
 8783TIP3    H126292   6.856   1.307   4.653
 8783TIP3    H226293   6.812   1.292   4.797
 8784TIP3   OH226294   1.646   2.790   3.090
 8784TIP3    H126295   1.607   2.736   3.022
 8784TIP3    H226296   1.596   2.872   3.087
 8785TIP3   OH226297   2.508   4.152   1.854
 8785TIP3    H126298   2.422   4.179   1.887
 8785TIP3    H226299   2.558   4.233   1.846
 8786TIP3   OH226300   2.140   1.786   6.087
 8786TIP3    H126301   2.197   1.825   6.021
 8786TIP3    H226302   2.198   1.764   6.160
 8787TIP3   OH226303   6.804   2.014   1.113
 8787TIP3    H126304   6.812   2.072   1.189
 8787TIP3    H226305   6.893   2.004   1.080
 8788TIP3   OH226306   3.057   4.888   0.591
 8788TIP3    H126307   3.006   4.958   0.551
 8788TIP3    H226308   3.007   4.863   0.669
 8789TIP3   OH226309   8.045   7.519   0.626
 8789TIP3    H126310   7.979   7.517   0.557
 8789TIP3    H226311   8.120   7.564   0.587
 8790TIP3   OH226312   3.511   1.708   0.581
 8790TIP3    H126313   3.447   1.744   0.643
 8790TIP3    H226314   3.500   1.614   0.588
 8791TIP3   OH226315   6.349   5.384   5.643
 8791TIP3    H126316   6.435   5.367   5.680
 8791TIP3    H226317   6.322   5.300   5.606
 8792TIP3   OH226318   1.341   1.858   5.884
 8792TIP3    H126319   1.349   1.954   5.890
 8792TIP3    H226320   1.420   1.825   5.926
 8793TIP3   OH226321   1.714   1.549   5.048
 8793TIP3    H126322   1.677   1.469   5.010
 8793TIP3    H226323   1.677   1.553   5.137
 8794TIP3   OH226324   8.027   4.953   0.176
 8794TIP3    H126325   8.040   4.860   0.159
 8794TIP3    H226326   8.113   4.984   0.204
 8795TIP3   OH226327   1.348   7.756   1.433
 8795TIP3    H126328   1.410   7.828   1.434
 8795TIP3    H226329   1.262   7.798   1.436
 8796TIP3   OH226330   2.462   5.069   6.764
 8796TIP3    H126331   2.367   5.061   6.752
 8796TIP3    H226332   2.483   5.158   6.736
 8797TIP3   OH226333   5.032   2.787   6.694
 8797TIP3    H126334   5.072   2.856   6.641
 8797TIP3    H226335   5.105   2.748   6.742
 8798TIP3   OH226336   6.855   3.019   1.496
 8798TIP3    H126337   6.868   2.932   1.531
 8798TIP3    H226338   6.763   3.038   1.514
 8799TIP3   OH226339   3.621   4.830   6.592
 8799TIP3    H126340   3.529   4.830   6.617
 8799TIP3    H226341   3.621   4.794   6.503
 8800TIP3   OH226342   4.500   7.236   4.456
 8800TIP3    H126343   4.588   7.220   4.491
 8800TIP3    H226344   4.516   7.257   4.363
 8801TIP3   OH226345   7.311   6.876   3.543
 8801TIP3    H126346   7.257   6.832   3.610
 8801TIP3    H226347   7.249   6.897   3.473
 8802TIP3   OH226348   3.763   4.861   0.080
 8802TIP3    H126349   3.789   4.781   0.034
 8802TIP3    H226350   3.667   4.858   0.080
 8803TIP3   OH226351   5.617   3.112   4.918
 8803TIP3    H126352   5.537   3.151   4.953
 8803TIP3    H226353   5.605   3.018   4.927
 8804TIP3   OH226354   6.203   3.404   5.427
 8804TIP3    H126355   6.138   3.345   5.389
 8804TIP3    H226356   6.156   3.452   5.495
 8805TIP3   OH226357   3.504   3.198   5.086
 8805TIP3    H126358   3.425   3.233   5.044
 8805TIP3    H226359   3.510   3.247   5.168
 8806TIP3   OH226360   5.627   1.940   4.894
 8806TIP3    H126361   5.691   1.917   4.961
 8806TIP3    H226362   5.576   2.012   4.933
 8807TIP3   OH226363   6.829   1.659   5.703
 8807TIP3    H126364   6.773   1.582   5.693
 8807TIP3    H226365   6.867   1.649   5.791
 8808TIP3   OH226366   0.702   3.968   0.113
 8808TIP3    H126367   0.759   4.045   0.126
 8808TIP3    H226368   0.689   3.933   0.201
 8809TIP3   OH226369   4.192   5.088   1.715
 8809TIP3    H126370   4.144   5.167   1.739
 8809TIP3    H226371   4.125   5.019   1.716
 8810TIP3   OH226372   1.016   7.325   6.306
 8810TIP3    H126373   1.076   7.251   6.298
 8810TIP3    H226374   0.965   7.307   6.384
 8811TIP3   OH226375   4.134   6.852   2.824
 8811TIP3    H126376   4.088   6.789   2.879
 8811TIP3    H226377   4.226   6.843   2.850
 8812TIP3   OH226378   5.043   1.924   3.619
 8812TIP3    H126379   4.953   1.897   3.638
 8812TIP3    H226380   5.049   1.919   3.523
 8813TIP3   OH226381   3.915   3.085   5.947
 8813TIP3    H126382   3.910   3.142   5.870
 8813TIP3    H226383   3.856   3.012   5.927
 8814TIP3   OH226384   7.206   6.726   6.591
 8814TIP3    H126385   7.203   6.660   6.522
 8814TIP3    H226386   7.182   6.807   6.548
 8815TIP3   OH226387   5.801   4.316   1.740
 8815TIP3    H126388   5.870   4.377   1.765
 8815TIP3    H226389   5.740   4.368   1.688
 8816TIP3   OH226390   4.313   7.112   0.925
 8816TIP3    H126391   4.345   7.045   0.865
 8816TIP3    H226392   4.219   7.114   0.911
 8817TIP3   OH226393   7.713   2.344   4.531
 8817TIP3    H126394   7.700   2.287   4.455
 8817TIP3    H226395   7.686   2.431   4.501
 8818TIP3   OH226396   3.008   7.616   1.723
 8818TIP3    H126397   2.932   7.632   1.667
 8818TIP3    H226398   3.012   7.692   1.781
 8819TIP3   OH226399   5.210   4.092   4.975
 8819TIP3    H126400   5.300   4.125   4.981
 8819TIP3    H226401   5.214   4.026   4.906
 8820TIP3   OH226402   4.776   4.338   3.252
 8820TIP3    H126403   4.774   4.326   3.157
 8820TIP3    H226404   4.727   4.418   3.267
 8821TIP3   OH226405   0.901   7.376   0.805
 8821TIP3    H126406   0.829   7.313   0.797
 8821TIP3    H226407   0.972   7.326   0.846
 8822TIP3   OH226408   6.440   5.131   3.510
 8822TIP3    H126409   6.459   5.042   3.538
 8822TIP3    H226410   6.356   5.125   3.465
 8823TIP3   OH226411   1.342   4.181   0.910
 8823TIP3    H126412   1.430   4.219   0.898
 8823TIP3    H226413   1.358   4.087   0.922
 8824TIP3   OH226414   6.965   7.303   0.065
 8824TIP3    H126415   6.997   7.215   0.045
 8824TIP3    H226416   7.030   7.339   0.125
 8825TIP3   OH226417   0.843   5.237   0.399
 8825TIP3    H126418   0.882   5.210   0.316
 8825TIP3    H226419   0.916   5.234   0.461
 8826TIP3   OH226420   4.630   0.505   1.149
 8826TIP3    H126421   4.615   0.593   1.185
 8826TIP3    H226422   4.706   0.515   1.092
 8827TIP3   OH226423   1.995   4.597   2.589
 8827TIP3    H126424   1.931   4.589   2.660
 8827TIP3    H226425   2.042   4.678   2.609
 8828TIP3   OH226426   0.277   6.952   1.848
 8828TIP3    H126427   0.268   7.000   1.765
 8828TIP3    H226428   0.197   6.974   1.896
 8829TIP3   OH226429   6.819   2.455   2.616
 8829TIP3    H126430   6.871   2.485   2.691
 8829TIP3    H226431   6.775   2.534   2.585
 8830TIP3   OH226432   8.032   1.437   2.719
 8830TIP3    H126433   8.026   1.513   2.776
 8830TIP3    H226434   8.095   1.379   2.763
 8831TIP3   OH226435   7.235   5.764   0.554
 8831TIP3    H126436   7.163   5.825   0.569
 8831TIP3    H226437   7.301   5.790   0.619
 8832TIP3   OH226438   7.299   5.973   3.206
 8832TIP3    H126439   7.392   5.997   3.203
 8832TIP3    H226440   7.296   5.899   3.266
 8833TIP3   OH226441   2.445   0.840   6.102
 8833TIP3    H126442   2.495   0.869   6.178
 8833TIP3    H226443   2.511   0.813   6.038
 8834TIP3   OH226444   5.714   7.229   4.480
 8834TIP3    H126445   5.661   7.307   4.499
 8834TIP3    H226446   5.778   7.259   4.415
 8835TIP3   OH226447  -0.046   3.347   3.497
 8835TIP3    H126448  -0.064   3.392   3.580
 8835TIP3    H226449   0.024   3.398   3.457
 8836TIP3   OH226450   5.763   0.756   4.927
 8836TIP3    H126451   5.720   0.705   4.996
 8836TIP3    H226452   5.736   0.714   4.845
 8837TIP3   OH226453   0.065   5.200   4.759
 8837TIP3    H126454   0.114   5.171   4.836
 8837TIP3    H226455  -0.004   5.256   4.795
 8838TIP3   OH226456   1.642   2.689   5.801
 8838TIP3    H126457   1.609   2.741   5.728
 8838TIP3    H226458   1.614   2.599   5.780
 8839TIP3   OH226459   6.629   5.298   3.942
 8839TIP3    H126460   6.682   5.321   4.018
 8839TIP3    H226461   6.691   5.259   3.880
 8840TIP3   OH226462   1.155   2.901   0.057
 8840TIP3    H126463   1.092   2.864   0.119
 8840TIP3    H226464   1.237   2.906   0.107
 8841TIP3   OH226465   4.730   7.836   2.496
 8841TIP3    H126466   4.811   7.811   2.451
 8841TIP3    H226467   4.760   7.869   2.581
 8842TIP3   OH226468   5.437   4.185   1.402
 8842TIP3    H126469   5.399   4.217   1.484
 8842TIP3    H226470   5.409   4.249   1.336
 8843TIP3   OH226471   8.155   7.674   1.696
 8843TIP3    H126472   8.082   7.645   1.641
 8843TIP3    H226473   8.230   7.622   1.667
 8844TIP3   OH226474   1.066   4.930   5.592
 8844TIP3    H126475   0.995   4.908   5.532
 8844TIP3    H226476   1.142   4.944   5.535
 8845TIP3   OH226477   7.729   2.049   0.585
 8845TIP3    H126478   7.704   1.961   0.611
 8845TIP3    H226479   7.824   2.046   0.577
 8846TIP3   OH226480   7.882   1.070   4.316
 8846TIP3    H126481   7.932   1.054   4.236
 8846TIP3    H226482   7.791   1.079   4.287
 8847TIP3   OH226483   0.508   6.220   1.341
 8847TIP3    H126484   0.496   6.145   1.398
 8847TIP3    H226485   0.424   6.231   1.297
 8848TIP3   OH226486   4.997   0.342   4.951
 8848TIP3    H126487   5.054   0.392   4.893
 8848TIP3    H226488   5.039   0.350   5.037
 8849TIP3   OH226489   6.479   7.748   5.715
 8849TIP3    H126490   6.501   7.786   5.800
 8849TIP3    H226491   6.563   7.714   5.682
 8850TIP3   OH226492   6.712   6.615   1.588
 8850TIP3    H126493   6.678   6.578   1.670
 8850TIP3    H226494   6.739   6.539   1.537
 8851TIP3   OH226495   4.346   5.046   0.511
 8851TIP3    H126496   4.285   5.119   0.503
 8851TIP3    H226497   4.379   5.051   0.601
 8852TIP3   OH226498   3.281   6.182   1.894
 8852TIP3    H126499   3.185   6.178   1.894
 8852TIP3    H226500   3.301   6.275   1.897
 8853TIP3   OH226501   4.309   2.709   6.077
 8853TIP3    H126502   4.280   2.682   6.164
 8853TIP3    H226503   4.378   2.773   6.092
 8854TIP3   OH226504   5.763   2.654   2.194
 8854TIP3    H126505   5.719   2.736   2.214
 8854TIP3    H226506   5.784   2.617   2.280
 8855TIP3   OH226507   0.475   4.177   2.210
 8855TIP3    H126508   0.469   4.269   2.235
 8855TIP3    H226509   0.514   4.178   2.122
 8856TIP3   OH226510   6.641   0.242   5.055
 8856TIP3    H126511   6.597   0.231   5.140
 8856TIP3    H226512   6.701   0.316   5.069
 8857TIP3   OH226513   2.567   7.196   6.724
 8857TIP3    H126514   2.525   7.272   6.684
 8857TIP3    H226515   2.617   7.232   6.797
 8858TIP3   OH226516   1.177   3.565   6.240
 8858TIP3    H126517   1.175   3.583   6.146
 8858TIP3    H226518   1.255   3.612   6.271
 8859TIP3   OH226519   5.758   5.653   3.658
 8859TIP3    H126520   5.806   5.715   3.603
 8859TIP3    H226521   5.701   5.708   3.712
 8860TIP3   OH226522   5.552   1.638   2.631
 8860TIP3    H126523   5.578   1.721   2.590
 8860TIP3    H226524   5.571   1.650   2.724
 8861TIP3   OH226525   5.987   2.277   0.695
 8861TIP3    H126526   5.902   2.321   0.697
 8861TIP3    H226527   6.038   2.327   0.631
 8862TIP3   OH226528   3.217   6.607   6.075
 8862TIP3    H126529   3.247   6.693   6.105
 8862TIP3    H226530   3.122   6.611   6.082
 8863TIP3   OH226531   1.186   1.788   2.337
 8863TIP3    H126532   1.173   1.842   2.415
 8863TIP3    H226533   1.275   1.809   2.309
 8864TIP3   OH226534   6.965   3.522   2.196
 8864TIP3    H126535   6.882   3.485   2.227
 8864TIP3    H226536   7.026   3.508   2.268
 8865TIP3   OH226537   5.302   0.988   0.017
 8865TIP3    H126538   5.367   0.940   0.068
 8865TIP3    H226539   5.282   1.065   0.070
 8866TIP3   OH226540   1.513   4.854   6.625
 8866TIP3    H126541   1.582   4.888   6.683
 8866TIP3    H226542   1.433   4.897   6.654
 8867TIP3   OH226543   2.264   4.039   3.328
 8867TIP3    H126544   2.333   4.084   3.377
 8867TIP3    H226545   2.184   4.061   3.376
 8868TIP3   OH226546   4.521   1.464   4.247
 8868TIP3    H126547   4.508   1.371   4.266
 8868TIP3    H226548   4.571   1.497   4.321
 8869TIP3   OH226549   0.654   6.625   0.575
 8869TIP3    H126550   0.683   6.547   0.623
 8869TIP3    H226551   0.720   6.691   0.597
 8870TIP3   OH226552   2.213   5.257   6.521
 8870TIP3    H126553   2.243   5.315   6.452
 8870TIP3    H226554   2.220   5.169   6.484
 8871TIP3   OH226555   6.447   3.284   5.312
 8871TIP3    H126556   6.363   3.310   5.350
 8871TIP3    H226557   6.503   3.268   5.388
 8872TIP3   OH226558   4.867   5.649   6.491
 8872TIP3    H126559   4.941   5.665   6.432
 8872TIP3    H226560   4.905   5.597   6.563
 8873TIP3   OH226561   2.606   5.906   4.840
 8873TIP3    H126562   2.655   5.824   4.839
 8873TIP3    H226563   2.515   5.879   4.829
 8874TIP3   OH226564   3.203   1.448   3.078
 8874TIP3    H126565   3.228   1.508   3.007
 8874TIP3    H226566   3.158   1.503   3.141
 8875TIP3   OH226567   6.287   3.115   1.431
 8875TIP3    H126568   6.229   3.178   1.475
 8875TIP3    H226569   6.361   3.168   1.401
 8876TIP3   OH226570   0.644   2.150   1.718
 8876TIP3    H126571   0.713   2.144   1.785
 8876TIP3    H226572   0.576   2.091   1.749
 8877TIP3   OH226573   3.343   5.746   1.803
 8877TIP3    H126574   3.285   5.789   1.740
 8877TIP3    H226575   3.312   5.656   1.808
 8878TIP3   OH226576   3.773   0.852   5.559
 8878TIP3    H126577   3.725   0.819   5.483
 8878TIP3    H226578   3.729   0.935   5.580
 8879TIP3   OH226579   2.147   0.061   3.610
 8879TIP3    H126580   2.220   0.009   3.578
 8879TIP3    H226581   2.171   0.085   3.700
 8880TIP3   OH226582   2.670   2.056   1.752
 8880TIP3    H126583   2.699   2.059   1.661
 8880TIP3    H226584   2.671   1.963   1.775
 8881TIP3   OH226585   1.956   2.972   3.830
 8881TIP3    H126586   1.995   2.889   3.857
 8881TIP3    H226587   1.905   2.951   3.752
 8882TIP3   OH226588   5.071   5.864   1.464
 8882TIP3    H126589   5.074   5.796   1.531
 8882TIP3    H226590   5.063   5.817   1.382
 8883TIP3   OH226591   2.314   6.871   3.137
 8883TIP3    H126592   2.297   6.846   3.046
 8883TIP3    H226593   2.318   6.967   3.135
 8884TIP3   OH226594   5.116   3.578   1.594
 8884TIP3    H126595   5.160   3.633   1.658
 8884TIP3    H226596   5.025   3.608   1.594
 8885TIP3   OH226597   2.784   7.166   1.708
 8885TIP3    H126598   2.698   7.137   1.737
 8885TIP3    H226599   2.844   7.096   1.734
 8886TIP3   OH226600   6.451   6.975   2.688
 8886TIP3    H126601   6.443   6.995   2.595
 8886TIP3    H226602   6.376   6.918   2.707
 8887TIP3   OH226603   5.161   3.829   6.543
 8887TIP3    H126604   5.237   3.886   6.525
 8887TIP3    H226605   5.115   3.872   6.615
 8888TIP3   OH226606   1.484   6.394   0.305
 8888TIP3    H126607   1.521   6.479   0.281
 8888TIP3    H226608   1.560   6.336   0.311
 8889TIP3   OH226609   7.465   2.493   0.299
 8889TIP3    H126610   7.373   2.507   0.324
 8889TIP3    H226611   7.502   2.444   0.372
 8890TIP3   OH226612   4.087   7.135   6.080
 8890TIP3    H126613   4.132   7.061   6.038
 8890TIP3    H226614   4.052   7.100   6.161
 8891TIP3   OH226615   5.955   0.297   5.924
 8891TIP3    H126616   5.957   0.217   5.977
 8891TIP3    H226617   6.045   0.309   5.895
 8892TIP3   OH226618   6.808   0.722   4.989
 8892TIP3    H126619   6.879   0.680   5.038
 8892TIP3    H226620   6.763   0.777   5.054
 8893TIP3   OH226621   4.752   3.967   5.837
 8893TIP3    H126622   4.683   3.981   5.902
 8893TIP3    H226623   4.780   3.876   5.851
 8894TIP3   OH226624   4.671   7.810   0.597
 8894TIP3    H126625   4.603   7.764   0.647
 8894TIP3    H226626   4.623   7.867   0.537
 8895TIP3   OH226627   4.887   5.142   2.975
 8895TIP3    H126628   4.917   5.097   2.895
 8895TIP3    H226629   4.911   5.234   2.961
 8896TIP3   OH226630   5.158   2.931   5.945
 8896TIP3    H126631   5.209   2.891   6.016
 8896TIP3    H226632   5.182   2.882   5.867
 8897TIP3   OH226633   3.677   4.130   2.011
 8897TIP3    H126634   3.613   4.201   2.012
 8897TIP3    H226635   3.628   4.056   1.974
 8898TIP3   OH226636   2.648   3.633   4.294
 8898TIP3    H126637   2.598   3.562   4.254
 8898TIP3    H226638   2.735   3.628   4.255
 8899TIP3   OH226639   3.207   3.803   2.469
 8899TIP3    H126640   3.298   3.827   2.481
 8899TIP3    H226641   3.173   3.869   2.408
 8900TIP3   OH226642   0.653   4.273   2.908
 8900TIP3    H126643   0.680   4.257   2.999
 8900TIP3    H226644   0.681   4.362   2.890
 8901TIP3   OH226645   7.184   6.517   2.252
 8901TIP3    H126646   7.115   6.450   2.247
 8901TIP3    H226647   7.228   6.511   2.167
 8902TIP3   OH226648   5.766   0.969   3.443
 8902TIP3    H126649   5.859   0.992   3.448
 8902TIP3    H226650   5.724   1.024   3.508
 8903TIP3   OH226651   1.322   6.390   6.381
 8903TIP3    H126652   1.253   6.350   6.435
 8903TIP3    H226653   1.297   6.370   6.291
 8904TIP3   OH226654   7.396   0.159   6.433
 8904TIP3    H126655   7.352   0.240   6.458
 8904TIP3    H226656   7.327   0.092   6.433
 8905TIP3   OH226657   1.351   2.064   2.912
 8905TIP3    H126658   1.437   2.051   2.951
 8905TIP3    H226659   1.364   2.135   2.849
 8906TIP3   OH226660   7.403   3.917   1.436
 8906TIP3    H126661   7.485   3.963   1.451
 8906TIP3    H226662   7.338   3.965   1.488
 8907TIP3   OH226663   2.270   1.883   4.951
 8907TIP3    H126664   2.252   1.926   4.868
 8907TIP3    H226665   2.237   1.944   5.018
 8908TIP3   OH226666   3.160   0.157   0.533
 8908TIP3    H126667   3.149   0.062   0.539
 8908TIP3    H226668   3.173   0.175   0.440
 8909TIP3   OH226669   0.651   1.774   1.699
 8909TIP3    H126670   0.578   1.830   1.725
 8909TIP3    H226671   0.679   1.809   1.614
 8910TIP3   OH226672   3.775   0.790   4.548
 8910TIP3    H126673   3.696   0.841   4.567
 8910TIP3    H226674   3.825   0.790   4.629
 8911TIP3   OH226675   2.310   1.988   2.265
 8911TIP3    H126676   2.230   1.955   2.223
 8911TIP3    H226677   2.347   1.911   2.308
 8912TIP3   OH226678   0.600   1.752   4.940
 8912TIP3    H126679   0.679   1.796   4.909
 8912TIP3    H226680   0.547   1.739   4.861
 8913TIP3   OH226681   2.469   6.677   6.607
 8913TIP3    H126682   2.476   6.771   6.616
 8913TIP3    H226683   2.402   6.651   6.670
 8914TIP3   OH226684   2.347   6.183   0.709
 8914TIP3    H126685   2.412   6.190   0.780
 8914TIP3    H226686   2.370   6.254   0.649
 8915TIP3   OH226687   4.221   4.225   6.132
 8915TIP3    H126688   4.183   4.162   6.193
 8915TIP3    H226689   4.147   4.280   6.104
 8916TIP3   OH226690   4.905   1.156   5.095
 8916TIP3    H126691   4.956   1.232   5.066
 8916TIP3    H226692   4.823   1.163   5.047
 8917TIP3   OH226693   5.635   7.441   6.519
 8917TIP3    H126694   5.603   7.371   6.462
 8917TIP3    H226695   5.721   7.463   6.485
 8918TIP3   OH226696   6.003   0.292   3.248
 8918TIP3    H126697   5.981   0.271   3.338
 8918TIP3    H226698   6.028   0.384   3.250
 8919TIP3   OH226699   5.443   4.385   4.486
 8919TIP3    H126700   5.537   4.394   4.475
 8919TIP3    H226701   5.417   4.321   4.420
 8920TIP3   OH226702   2.219   5.607   6.485
 8920TIP3    H126703   2.126   5.606   6.462
 8920TIP3    H226704   2.263   5.565   6.412
 8921TIP3   OH226705   7.794   6.175   5.478
 8921TIP3    H126706   7.765   6.087   5.454
 8921TIP3    H226707   7.782   6.227   5.399
 8922TIP3   OH226708   5.294   1.492   6.681
 8922TIP3    H126709   5.308   1.413   6.629
 8922TIP3    H226710   5.222   1.470   6.740
 8923TIP3   OH226711   0.058   7.351   2.721
 8923TIP3    H126712   0.006   7.431   2.712
 8923TIP3    H226713   0.125   7.358   2.653
 8924TIP3   OH226714   7.397   1.975   2.755
 8924TIP3    H126715   7.417   1.953   2.664
 8924TIP3    H226716   7.477   1.953   2.803
 8925TIP3   OH226717   5.416   0.457   1.289
 8925TIP3    H126718   5.403   0.411   1.206
 8925TIP3    H226719   5.497   0.506   1.276
 8926TIP3   OH226720   5.798   0.627   4.153
 8926TIP3    H126721   5.825   0.661   4.239
 8926TIP3    H226722   5.845   0.544   4.145
 8927TIP3   OH226723   5.210   6.097   6.755
 8927TIP3    H126724   5.116   6.081   6.754
 8927TIP3    H226725   5.229   6.131   6.667
 8928TIP3   OH226726   6.164   4.278   0.308
 8928TIP3    H126727   6.166   4.224   0.387
 8928TIP3    H226728   6.234   4.342   0.320
 8929TIP3   OH226729   7.751   2.064   5.024
 8929TIP3    H126730   7.776   2.067   4.932
 8929TIP3    H226731   7.835   2.069   5.071
 8930TIP3   OH226732   7.112   0.995   4.745
 8930TIP3    H126733   7.109   1.090   4.735
 8930TIP3    H226734   7.049   0.977   4.816
 8931TIP3   OH226735   3.465   6.686   1.919
 8931TIP3    H126736   3.554   6.692   1.953
 8931TIP3    H226737   3.412   6.661   1.995
 8932TIP3   OH226738   6.896   0.577   2.061
 8932TIP3    H126739   6.905   0.651   2.001
 8932TIP3    H226740   6.920   0.612   2.146
 8933TIP3   OH226741  -0.012   3.092   3.057
 8933TIP3    H126742   0.029   3.081   2.971
 8933TIP3    H226743  -0.077   3.022   3.062
 8934TIP3   OH226744   3.047   2.737   5.419
 8934TIP3    H126745   3.012   2.723   5.507
 8934TIP3    H226746   2.971   2.763   5.367
 8935TIP3   OH226747   6.030   0.169   0.975
 8935TIP3    H126748   5.966   0.224   0.929
 8935TIP3    H226749   6.071   0.229   1.037
 8936TIP3   OH226750   6.926   0.992   6.102
 8936TIP3    H126751   6.871   0.942   6.042
 8936TIP3    H226752   6.875   0.995   6.183
 8937TIP3   OH226753   0.430   4.512   3.013
 8937TIP3    H126754   0.397   4.595   2.979
 8937TIP3    H226755   0.357   4.451   3.001
 8938TIP3   OH226756   4.758   6.327   5.495
 8938TIP3    H126757   4.719   6.243   5.519
 8938TIP3    H226758   4.719   6.391   5.555
 8939TIP3   OH226759   5.887   2.080   5.215
 8939TIP3    H126760   5.843   2.004   5.176
 8939TIP3    H226761   5.978   2.052   5.227
 8940TIP3   OH226762   4.168   6.796   0.910
 8940TIP3    H126763   4.113   6.786   0.987
 8940TIP3    H226764   4.258   6.792   0.943
 8941TIP3   OH226765   1.596   2.623   2.081
 8941TIP3    H126766   1.629   2.700   2.127
 8941TIP3    H226767   1.675   2.575   2.056
 8942TIP3   OH226768   2.149   4.586   0.186
 8942TIP3    H126769   2.129   4.512   0.130
 8942TIP3    H226770   2.079   4.649   0.169
 8943TIP3   OH226771   2.761   6.476   1.565
 8943TIP3    H126772   2.721   6.425   1.636
 8943TIP3    H226773   2.855   6.472   1.583
 8944TIP3   OH226774   1.584   0.312   6.566
 8944TIP3    H126775   1.662   0.265   6.536
 8944TIP3    H226776   1.581   0.390   6.511
 8945TIP3   OH226777   0.835   3.475   2.927
 8945TIP3    H126778   0.784   3.394   2.917
 8945TIP3    H226779   0.904   3.467   2.861
 8946TIP3   OH226780   3.300   4.542   0.297
 8946TIP3    H126781   3.270   4.614   0.351
 8946TIP3    H226782   3.326   4.583   0.214
 8947TIP3   OH226783   0.853   4.124   4.923
 8947TIP3    H126784   0.786   4.090   4.863
 8947TIP3    H226785   0.834   4.084   5.007
 8948TIP3   OH226786   4.971   7.245   3.663
 8948TIP3    H126787   5.009   7.333   3.663
 8948TIP3    H226788   4.975   7.217   3.754
 8949TIP3   OH226789   6.671   6.567   4.299
 8949TIP3    H126790   6.764   6.552   4.279
 8949TIP3    H226791   6.648   6.645   4.250
 8950TIP3   OH226792   1.691   1.376   1.059
 8950TIP3    H126793   1.775   1.413   1.088
 8950TIP3    H226794   1.700   1.282   1.075
 8951TIP3   OH226795   2.317   7.253   2.876
 8951TIP3    H126796   2.384   7.321   2.876
 8951TIP3    H226797   2.360   7.175   2.842
 8952TIP3   OH226798   6.572   5.180   6.731
 8952TIP3    H126799   6.512   5.186   6.657
 8952TIP3    H226800   6.659   5.177   6.691
 8953TIP3   OH226801   5.120   0.035   1.745
 8953TIP3    H126802   5.100  -0.046   1.698
 8953TIP3    H226803   5.192   0.074   1.696
 8954TIP3   OH226804   7.937   7.296   2.119
 8954TIP3    H126805   7.843   7.300   2.137
 8954TIP3    H226806   7.961   7.386   2.097
 8955TIP3   OH226807   2.788   6.812   4.791
 8955TIP3    H126808   2.724   6.809   4.862
 8955TIP3    H226809   2.849   6.741   4.809
 8956TIP3   OH226810   6.598   6.322   4.718
 8956TIP3    H126811   6.520   6.323   4.774
 8956TIP3    H226812   6.647   6.245   4.745
 8957TIP3   OH226813   2.220   5.029   6.401
 8957TIP3    H126814   2.209   4.956   6.463
 8957TIP3    H226815   2.222   4.986   6.315
 8958TIP3   OH226816   2.431   3.602   0.061
 8958TIP3    H126817   2.382   3.630  -0.016
 8958TIP3    H226818   2.487   3.677   0.082
 8959TIP3   OH226819   4.346   4.033   4.433
 8959TIP3    H126820   4.433   4.063   4.458
 8959TIP3    H226821   4.293   4.045   4.512
 8960TIP3   OH226822   5.231   5.627   5.522
 8960TIP3    H126823   5.143   5.602   5.495
 8960TIP3    H226824   5.226   5.635   5.617
 8961TIP3   OH226825   3.615   7.350   5.427
 8961TIP3    H126826   3.571   7.285   5.372
 8961TIP3    H226827   3.623   7.308   5.513
 8962TIP3   OH226828   0.254   4.224   1.231
 8962TIP3    H126829   0.266   4.141   1.277
 8962TIP3    H226830   0.222   4.199   1.144
 8963TIP3   OH226831   0.464   7.236   0.395
 8963TIP3    H126832   0.554   7.266   0.402
 8963TIP3    H226833   0.412   7.317   0.393
 8964TIP3   OH226834   5.441   4.038   5.286
 8964TIP3    H126835   5.504   4.099   5.247
 8964TIP3    H226836   5.436   3.965   5.224
 8965TIP3   OH226837   6.318   0.993   0.668
 8965TIP3    H126838   6.413   1.001   0.663
 8965TIP3    H226839   6.298   1.006   0.760
 8966TIP3   OH226840   0.205   3.648   0.820
 8966TIP3    H126841   0.137   3.632   0.884
 8966TIP3    H226842   0.243   3.733   0.845
 8967TIP3   OH226843   5.898   6.922   0.273
 8967TIP3    H126844   5.982   6.895   0.310
 8967TIP3    H226845   5.899   7.018   0.277
 8968TIP3   OH226846   7.797   6.402   0.127
 8968TIP3    H126847   7.842   6.342   0.187
 8968TIP3    H226848   7.852   6.480   0.124
 8969TIP3   OH226849   6.125   6.048   2.899
 8969TIP3    H126850   6.033   6.049   2.873
 8969TIP3    H226851   6.158   5.964   2.867
 8970TIP3   OH226852   2.040   3.370   6.156
 8970TIP3    H126853   1.995   3.286   6.145
 8970TIP3    H226854   1.973   3.436   6.138
 8971TIP3   OH226855   8.046   2.932   5.357
 8971TIP3    H126856   7.952   2.942   5.371
 8971TIP3    H226857   8.078   2.889   5.436
 8972TIP3   OH226858   3.680   4.121   4.407
 8972TIP3    H126859   3.624   4.129   4.484
 8972TIP3    H226860   3.671   4.029   4.381
 8973TIP3   OH226861   0.418   5.980   5.901
 8973TIP3    H126862   0.402   5.887   5.918
 8973TIP3    H226863   0.505   5.996   5.937
 8974TIP3   OH226864   5.617   7.801   2.902
 8974TIP3    H126865   5.601   7.709   2.881
 8974TIP3    H226866   5.710   7.813   2.885
 8975TIP3   OH226867   4.212   0.069   5.775
 8975TIP3    H126868   4.131   0.119   5.765
 8975TIP3    H226869   4.238   0.048   5.685
 8976TIP3   OH226870   1.388   7.517   4.529
 8976TIP3    H126871   1.317   7.541   4.589
 8976TIP3    H226872   1.346   7.464   4.461
 8977TIP3   OH226873   5.541   3.936   1.344
 8977TIP3    H126874   5.500   4.022   1.347
 8977TIP3    H226875   5.635   3.955   1.340
 8978TIP3   OH226876   5.065   2.114   1.577
 8978TIP3    H126877   4.985   2.062   1.569
 8978TIP3    H226878   5.053   2.165   1.657
 8979TIP3   OH226879   8.204   1.231   5.655
 8979TIP3    H126880   8.287   1.187   5.675
 8979TIP3    H226881   8.186   1.285   5.731
 8980TIP3   OH226882   7.341   1.594   2.443
 8980TIP3    H126883   7.413   1.640   2.399
 8980TIP3    H226884   7.331   1.640   2.526
 8981TIP3   OH226885   5.699   4.061   3.329
 8981TIP3    H126886   5.677   3.994   3.394
 8981TIP3    H226887   5.640   4.044   3.256
 8982TIP3   OH226888   1.137   0.571   0.967
 8982TIP3    H126889   1.131   0.528   1.052
 8982TIP3    H226890   1.072   0.641   0.972
 8983TIP3   OH226891   2.954   2.035   5.124
 8983TIP3    H126892   3.050   2.046   5.124
 8983TIP3    H226893   2.941   1.947   5.091
 8984TIP3   OH226894   7.248   5.229   1.925
 8984TIP3    H126895   7.244   5.134   1.915
 8984TIP3    H226896   7.335   5.254   1.892
 8985TIP3   OH226897   1.460   2.015   1.287
 8985TIP3    H126898   1.534   1.972   1.244
 8985TIP3    H226899   1.459   2.103   1.249
 8986TIP3   OH226900   6.690   6.277   5.336
 8986TIP3    H126901   6.708   6.252   5.246
 8986TIP3    H226902   6.596   6.295   5.338
 8987TIP3   OH226903   3.939   1.862   5.108
 8987TIP3    H126904   3.845   1.877   5.118
 8987TIP3    H226905   3.947   1.819   5.023
 8988TIP3   OH226906   4.269   2.658   4.550
 8988TIP3    H126907   4.326   2.635   4.476
 8988TIP3    H226908   4.218   2.732   4.518
 8989TIP3   OH226909   2.306   3.282   6.137
 8989TIP3    H126910   2.313   3.213   6.071
 8989TIP3    H226911   2.214   3.306   6.138
 8990TIP3   OH226912   1.438   3.897   1.738
 8990TIP3    H126913   1.419   3.976   1.688
 8990TIP3    H226914   1.373   3.833   1.709
 8991TIP3   OH226915   1.831   1.483   0.849
 8991TIP3    H126916   1.773   1.420   0.893
 8991TIP3    H226917   1.918   1.443   0.855
 8992TIP3   OH226918   7.624   3.819   4.170
 8992TIP3    H126919   7.543   3.826   4.220
 8992TIP3    H226920   7.691   3.856   4.227
 8993TIP3   OH226921   1.974   6.748   3.230
 8993TIP3    H126922   1.974   6.810   3.157
 8993TIP3    H226923   2.066   6.734   3.250
 8994TIP3   OH226924   1.147   3.249   4.009
 8994TIP3    H126925   1.122   3.216   3.923
 8994TIP3    H226926   1.073   3.302   4.038
 8995TIP3   OH226927   1.756   0.137   6.059
 8995TIP3    H126928   1.776   0.057   6.009
 8995TIP3    H226929   1.774   0.208   5.998
 8996TIP3   OH226930   3.844   2.270   2.404
 8996TIP3    H126931   3.848   2.302   2.314
 8996TIP3    H226932   3.932   2.284   2.439
 8997TIP3   OH226933   6.483   3.969   2.723
 8997TIP3    H126934   6.518   4.053   2.693
 8997TIP3    H226935   6.389   3.983   2.728
 8998TIP3   OH226936   0.855   2.849   3.414
 8998TIP3    H126937   0.826   2.925   3.364
 8998TIP3    H226938   0.798   2.777   3.384
 8999TIP3   OH226939   5.194   1.290   3.341
 8999TIP3    H126940   5.111   1.253   3.310
 8999TIP3    H226941   5.187   1.384   3.325
 9000TIP3   OH226942   5.557   5.660   4.135
 9000TIP3    H126943   5.573   5.582   4.083
 9000TIP3    H226944   5.580   5.635   4.225
 9001TIP3   OH226945   7.432   3.348   5.512
 9001TIP3    H126946   7.484   3.348   5.592
 9001TIP3    H226947   7.377   3.427   5.519
 9002TIP3   OH226948   6.068   3.349   1.287
 9002TIP3    H126949   6.111   3.420   1.240
 9002TIP3    H226950   6.131   3.322   1.354
 9003TIP3   OH226951   7.504   6.374   0.870
 9003TIP3    H126952   7.472   6.347   0.956
 9003TIP3    H226953   7.523   6.467   0.880
 9004TIP3   OH226954   4.364   0.303   3.618
 9004TIP3    H126955   4.358   0.386   3.572
 9004TIP3    H226956   4.343   0.324   3.709
 9005TIP3   OH226957   6.263   3.780   4.480
 9005TIP3    H126958   6.179   3.761   4.522
 9005TIP3    H226959   6.316   3.701   4.495
 9006TIP3   OH226960   5.027   4.434   1.512
 9006TIP3    H126961   5.086   4.396   1.577
 9006TIP3    H226962   5.058   4.524   1.500
 9007TIP3   OH226963   5.510   0.869   6.459
 9007TIP3    H126964   5.557   0.786   6.454
 9007TIP3    H226965   5.579   0.935   6.462
 9008TIP3   OH226966   3.398   4.331   5.352
 9008TIP3    H126967   3.450   4.371   5.422
 9008TIP3    H226968   3.426   4.240   5.351
 9009TIP3   OH226969   7.301   4.778   3.252
 9009TIP3    H126970   7.387   4.743   3.228
 9009TIP3    H226971   7.300   4.866   3.216
 9010TIP3   OH226972   0.274   4.897   4.412
 9010TIP3    H126973   0.357   4.871   4.374
 9010TIP3    H226974   0.252   4.827   4.474
 9011TIP3   OH226975   1.161   1.832   5.072
 9011TIP3    H126976   1.164   1.746   5.029
 9011TIP3    H226977   1.196   1.893   5.007
 9012TIP3   OH226978   8.156   3.199   5.483
 9012TIP3    H126979   8.112   3.115   5.497
 9012TIP3    H226980   8.249   3.176   5.475
 9013TIP3   OH226981   4.746   3.351   3.169
 9013TIP3    H126982   4.776   3.412   3.102
 9013TIP3    H226983   4.660   3.384   3.195
 9014TIP3   OH226984   2.709   2.700   3.280
 9014TIP3    H126985   2.642   2.735   3.339
 9014TIP3    H226986   2.770   2.773   3.268
 9015TIP3   OH226987   1.591   5.163   4.005
 9015TIP3    H126988   1.580   5.088   4.063
 9015TIP3    H226989   1.626   5.126   3.924
 9016TIP3   OH226990   2.729   0.226   1.924
 9016TIP3    H126991   2.783   0.275   1.986
 9016TIP3    H226992   2.756   0.258   1.838
 9017TIP3   OH226993   2.200   5.909   6.494
 9017TIP3    H126994   2.241   5.843   6.550
 9017TIP3    H226995   2.231   5.889   6.406
 9018TIP3   OH226996   4.360   7.037   0.594
 9018TIP3    H126997   4.442   7.039   0.643
 9018TIP3    H226998   4.344   6.943   0.580
 9019TIP3   OH226999   3.900   5.018   5.626
 9019TIP3    H127000   3.936   5.005   5.539
 9019TIP3    H227001   3.974   5.002   5.685
 9020TIP3   OH227002   1.965   2.218   5.383
 9020TIP3    H127003   1.935   2.170   5.306
 9020TIP3    H227004   2.059   2.201   5.387
 9021TIP3   OH227005   0.471   1.203   1.401
 9021TIP3    H127006   0.435   1.291   1.412
 9021TIP3    H227007   0.515   1.184   1.483
 9022TIP3   OH227008   7.182   2.879   0.366
 9022TIP3    H127009   7.120   2.839   0.426
 9022TIP3    H227010   7.156   2.971   0.362
 9023TIP3   OH227011   0.103   5.788   3.816
 9023TIP3    H127012   0.183   5.816   3.863
 9023TIP3    H227013   0.046   5.865   3.820
 9024TIP3   OH227014   0.643   7.506   1.781
 9024TIP3    H127015   0.703   7.454   1.728
 9024TIP3    H227016   0.697   7.577   1.816
 9025TIP3   OH227017   3.528   1.346   4.584
 9025TIP3    H127018   3.590   1.316   4.650
 9025TIP3    H227019   3.581   1.399   4.524
 9026TIP3   OH227020   3.260   4.638   0.656
 9026TIP3    H127021   3.332   4.667   0.713
 9026TIP3    H227022   3.183   4.684   0.689
 9027TIP3   OH227023   4.881   1.339   2.051
 9027TIP3    H127024   4.922   1.345   2.137
 9027TIP3    H227025   4.808   1.402   2.055
 9028TIP3   OH227026   2.971   2.381   3.100
 9028TIP3    H127027   2.918   2.438   3.044
 9028TIP3    H227028   3.034   2.341   3.040
 9029TIP3   OH227029   4.661   4.755   3.835
 9029TIP3    H127030   4.721   4.794   3.898
 9029TIP3    H227031   4.681   4.661   3.837
 9030TIP3   OH227032   2.885   6.913   5.851
 9030TIP3    H127033   2.979   6.929   5.840
 9030TIP3    H227034   2.852   6.903   5.762
 9031TIP3   OH227035   5.144   4.066   3.557
 9031TIP3    H127036   5.141   4.159   3.535
 9031TIP3    H227037   5.231   4.037   3.529
 9032TIP3   OH227038   5.016   0.410   3.871
 9032TIP3    H127039   5.019   0.325   3.915
 9032TIP3    H227040   5.043   0.473   3.937
 9033TIP3   OH227041   1.002   2.600   1.959
 9033TIP3    H127042   0.960   2.526   2.004
 9033TIP3    H227043   1.064   2.558   1.898
 9034TIP3   OH227044   2.256   2.641   1.661
 9034TIP3    H127045   2.193   2.610   1.597
 9034TIP3    H227046   2.228   2.730   1.682
 9035TIP3   OH227047   7.415   3.421   5.796
 9035TIP3    H127048   7.494   3.413   5.849
 9035TIP3    H227049   7.357   3.478   5.847
 9036TIP3   OH227050   3.377   6.534   3.771
 9036TIP3    H127051   3.324   6.581   3.707
 9036TIP3    H227052   3.338   6.447   3.776
 9037TIP3   OH227053   4.662   5.081   3.766
 9037TIP3    H127054   4.621   4.998   3.793
 9037TIP3    H227055   4.754   5.071   3.789
 9038TIP3   OH227056   4.957   2.796   1.707
 9038TIP3    H127057   5.029   2.736   1.723
 9038TIP3    H227058   4.968   2.823   1.616
 9039TIP3   OH227059   7.487   1.939   5.754
 9039TIP3    H127060   7.413   1.983   5.795
 9039TIP3    H227061   7.470   1.945   5.660
 9040TIP3   OH227062   7.803   7.415   0.919
 9040TIP3    H127063   7.717   7.381   0.894
 9040TIP3    H227064   7.789   7.509   0.930
 9041TIP3   OH227065   2.991   5.946   3.330
 9041TIP3    H127066   3.033   5.862   3.309
 9041TIP3    H227067   3.034   5.973   3.411
 9042TIP3   OH227068   3.453   4.892   1.318
 9042TIP3    H127069   3.475   4.864   1.407
 9042TIP3    H227070   3.532   4.871   1.267
 9043TIP3   OH227071   3.363   3.556   3.458
 9043TIP3    H127072   3.416   3.635   3.449
 9043TIP3    H227073   3.360   3.539   3.552
 9044TIP3   OH227074   1.445   7.311   0.233
 9044TIP3    H127075   1.413   7.401   0.229
 9044TIP3    H227076   1.442   7.280   0.142
 9045TIP3   OH227077   1.659   6.642   3.989
 9045TIP3    H127078   1.696   6.700   4.055
 9045TIP3    H227079   1.568   6.628   4.016
 9046TIP3   OH227080   4.203   2.243   0.758
 9046TIP3    H127081   4.238   2.300   0.826
 9046TIP3    H227082   4.256   2.261   0.680
 9047TIP3   OH227083   3.853   4.341   0.829
 9047TIP3    H127084   3.905   4.281   0.776
 9047TIP3    H227085   3.809   4.284   0.894
 9048TIP3   OH227086   4.122   0.142   3.749
 9048TIP3    H127087   4.158   0.229   3.765
 9048TIP3    H227088   4.031   0.158   3.724
 9049TIP3   OH227089   3.870   2.864   2.120
 9049TIP3    H127090   3.840   2.805   2.050
 9049TIP3    H227091   3.904   2.805   2.188
 9050TIP3   OH227092   1.882   5.004   2.594
 9050TIP3    H127093   1.905   4.922   2.637
 9050TIP3    H227094   1.854   4.980   2.506
 9051TIP3   OH227095   2.812   5.699   2.826
 9051TIP3    H127096   2.774   5.718   2.912
 9051TIP3    H227097   2.901   5.733   2.831
 9052TIP3   OH227098   2.169   1.764   2.824
 9052TIP3    H127099   2.116   1.703   2.876
 9052TIP3    H227100   2.180   1.721   2.740
 9053TIP3   OH227101   3.190   5.770   4.988
 9053TIP3    H127102   3.121   5.759   4.923
 9053TIP3    H227103   3.148   5.817   5.060
 9054TIP3   OH227104   1.870   6.388   2.336
 9054TIP3    H127105   1.887   6.316   2.398
 9054TIP3    H227106   1.824   6.454   2.389
 9055TIP3   OH227107   0.537   1.166   4.165
 9055TIP3    H127108   0.584   1.140   4.244
 9055TIP3    H227109   0.446   1.174   4.194
 9056TIP3   OH227110   1.910   6.327   3.029
 9056TIP3    H127111   1.860   6.294   3.105
 9056TIP3    H227112   1.951   6.407   3.060
 9057TIP3   OH227113   2.790   5.660   0.220
 9057TIP3    H127114   2.784   5.611   0.138
 9057TIP3    H227115   2.705   5.704   0.228
 9058TIP3   OH227116   4.110   2.021   3.843
 9058TIP3    H127117   4.133   2.114   3.841
 9058TIP3    H227118   4.111   1.997   3.936
 9059TIP3   OH227119   1.584   5.370   0.895
 9059TIP3    H127120   1.646   5.326   0.837
 9059TIP3    H227121   1.501   5.370   0.847
 9060TIP3   OH227122   4.278   5.417   3.088
 9060TIP3    H127123   4.212   5.486   3.087
 9060TIP3    H227124   4.359   5.462   3.112
 9061TIP3   OH227125   7.935   4.561   3.651
 9061TIP3    H127126   7.954   4.472   3.678
 9061TIP3    H227127   7.841   4.571   3.666
 9062TIP3   OH227128   3.097   1.120   1.403
 9062TIP3    H127129   3.002   1.115   1.393
 9062TIP3    H227130   3.114   1.082   1.489
 9063TIP3   OH227131   2.653   2.406   2.652
 9063TIP3    H127132   2.600   2.485   2.654
 9063TIP3    H227133   2.691   2.400   2.739
 9064TIP3   OH227134   3.699   4.499   2.194
 9064TIP3    H127135   3.776   4.513   2.249
 9064TIP3    H227136   3.734   4.495   2.105
 9065TIP3   OH227137   5.260   0.891   3.431
 9065TIP3    H127138   5.350   0.920   3.412
 9065TIP3    H227139   5.221   0.878   3.345
 9066TIP3   OH227140   5.704   0.532   2.772
 9066TIP3    H127141   5.624   0.538   2.824
 9066TIP3    H227142   5.690   0.593   2.699
 9067TIP3   OH227143   4.942   5.102   6.567
 9067TIP3    H127144   4.878   5.041   6.528
 9067TIP3    H227145   4.984   5.052   6.637
 9068TIP3   OH227146   0.534   6.585   3.854
 9068TIP3    H127147   0.617   6.540   3.868
 9068TIP3    H227148   0.468   6.526   3.890
 9069TIP3   OH227149   8.268   7.089   0.884
 9069TIP3    H127150   8.201   7.074   0.950
 9069TIP3    H227151   8.319   7.007   0.883
 9070TIP3   OH227152   2.542   2.235   1.211
 9070TIP3    H127153   2.493   2.178   1.270
 9070TIP3    H227154   2.629   2.241   1.251
 9071TIP3   OH227155   4.295   5.398   1.539
 9071TIP3    H127156   4.248   5.434   1.464
 9071TIP3    H227157   4.226   5.360   1.594
 9072TIP3   OH227158   4.875   5.222   2.535
 9072TIP3    H127159   4.933   5.232   2.610
 9072TIP3    H227160   4.903   5.141   2.493
 9073TIP3   OH227161   8.239   7.136   4.476
 9073TIP3    H127162   8.303   7.206   4.466
 9073TIP3    H227163   8.198   7.127   4.390
 9074TIP3   OH227164   1.467   3.971   1.104
 9074TIP3    H127165   1.442   3.894   1.155
 9074TIP3    H227166   1.547   3.946   1.059
 9075TIP3   OH227167   7.099   3.577   6.729
 9075TIP3    H127168   7.056   3.492   6.742
 9075TIP3    H227169   7.068   3.631   6.801
 9076TIP3   OH227170   1.347   4.047   4.046
 9076TIP3    H127171   1.426   4.089   4.078
 9076TIP3    H227172   1.352   4.055   3.951
 9077TIP3   OH227173   1.742   5.279   0.689
 9077TIP3    H127174   1.767   5.188   0.704
 9077TIP3    H227175   1.677   5.275   0.619
 9078TIP3   OH227176   8.114   5.327   4.941
 9078TIP3    H127177   8.029   5.356   4.909
 9078TIP3    H227178   8.173   5.400   4.922
 9079TIP3   OH227179   0.170   5.373   1.374
 9079TIP3    H127180   0.112   5.437   1.416
 9079TIP3    H227181   0.208   5.421   1.301
 9080TIP3   OH227182   6.037   4.040   2.480
 9080TIP3    H127183   6.129   4.061   2.467
 9080TIP3    H227184   6.006   4.104   2.544
 9081TIP3   OH227185   1.435   4.170   6.400
 9081TIP3    H127186   1.343   4.172   6.426
 9081TIP3    H227187   1.482   4.204   6.476
 9082TIP3   OH227188   3.652   2.166   1.529
 9082TIP3    H127189   3.582   2.118   1.573
 9082TIP3    H227190   3.623   2.175   1.439
 9083TIP3   OH227191   1.134   4.852   1.639
 9083TIP3    H127192   1.199   4.786   1.616
 9083TIP3    H227193   1.176   4.904   1.707
 9084TIP3   OH227194   0.370   0.956   2.857
 9084TIP3    H127195   0.459   0.990   2.849
 9084TIP3    H227196   0.331   1.008   2.927
 9085TIP3   OH227197   6.248   4.193   2.368
 9085TIP3    H127198   6.258   4.230   2.456
 9085TIP3    H227199   6.334   4.204   2.328
 9086TIP3   OH227200   5.448   4.233   0.056
 9086TIP3    H127201   5.521   4.173   0.041
 9086TIP3    H227202   5.371   4.177   0.061
 9087TIP3   OH227203   4.133   0.184   1.776
 9087TIP3    H127204   4.170   0.109   1.729
 9087TIP3    H227205   4.038   0.176   1.764
 9088TIP3   OH227206   2.170   7.177   6.041
 9088TIP3    H127207   2.243   7.118   6.026
 9088TIP3    H227208   2.128   7.186   5.955
 9089TIP3   OH227209   7.461   0.371   2.732
 9089TIP3    H127210   7.446   0.329   2.647
 9089TIP3    H227211   7.397   0.330   2.790
 9090TIP3   OH227212   6.595   5.694   4.455
 9090TIP3    H127213   6.552   5.690   4.540
 9090TIP3    H227214   6.633   5.607   4.443
 9091TIP3   OH227215   2.863   1.664   0.078
 9091TIP3    H127216   2.930   1.630   0.137
 9091TIP3    H227217   2.796   1.699   0.136
 9092TIP3   OH227218   6.483   0.047   2.236
 9092TIP3    H127219   6.563   0.016   2.194
 9092TIP3    H227220   6.431   0.085   2.165
 9093TIP3   OH227221   5.338   2.225   6.248
 9093TIP3    H127222   5.245   2.204   6.249
 9093TIP3    H227223   5.341   2.320   6.240
 9094TIP3   OH227224   5.319   3.967   4.752
 9094TIP3    H127225   5.357   3.891   4.708
 9094TIP3    H227226   5.322   4.036   4.686
 9095TIP3   OH227227   3.977   0.307   0.938
 9095TIP3    H127228   3.940   0.393   0.960
 9095TIP3    H227229   3.979   0.260   1.022
 9096TIP3   OH227230   3.640   0.561   1.182
 9096TIP3    H127231   3.705   0.540   1.249
 9096TIP3    H227232   3.556   0.540   1.222
 9097TIP3   OH227233   0.947   6.603   5.792
 9097TIP3    H127234   0.983   6.658   5.722
 9097TIP3    H227235   0.987   6.637   5.872
 9098TIP3   OH227236   3.418   0.064   1.475
 9098TIP3    H127237   3.339   0.062   1.529
 9098TIP3    H227238   3.394   0.114   1.397
 9099TIP3   OH227239   1.474   3.438   2.908
 9099TIP3    H127240   1.379   3.436   2.906
 9099TIP3    H227241   1.498   3.506   2.845
 9100TIP3   OH227242   4.946   1.858   0.910
 9100TIP3    H127243   4.995   1.782   0.879
 9100TIP3    H227244   4.906   1.829   0.992
 9101TIP3   OH227245   2.326   3.114   1.279
 9101TIP3    H127246   2.360   3.140   1.193
 9101TIP3    H227247   2.282   3.192   1.312
 9102TIP3   OH227248   6.798   1.164   1.061
 9102TIP3    H127249   6.759   1.098   1.004
 9102TIP3    H227250   6.726   1.193   1.117
 9103TIP3   OH227251   2.004   2.978   3.120
 9103TIP3    H127252   2.014   3.072   3.105
 9103TIP3    H227253   1.931   2.971   3.182
 9104TIP3   OH227254   0.912   6.278   4.733
 9104TIP3    H127255   0.971   6.267   4.808
 9104TIP3    H227256   0.852   6.348   4.760
 9105TIP3   OH227257   0.944   5.757   1.648
 9105TIP3    H127258   0.883   5.753   1.721
 9105TIP3    H227259   0.916   5.834   1.598
 9106TIP3   OH227260   3.961   7.149   5.602
 9106TIP3    H127261   4.016   7.145   5.523
 9106TIP3    H227262   4.021   7.179   5.671
 9107TIP3   OH227263   6.423   4.118   0.823
 9107TIP3    H127264   6.378   4.192   0.863
 9107TIP3    H227265   6.447   4.062   0.897
 9108TIP3   OH227266   1.807   3.857   4.875
 9108TIP3    H127267   1.858   3.780   4.902
 9108TIP3    H227268   1.859   3.897   4.806
 9109TIP3   OH227269   6.569   7.827   0.685
 9109TIP3    H127270   6.479   7.795   0.676
 9109TIP3    H227271   6.561   7.922   0.679
 9110TIP3   OH227272   1.507   0.346   5.672
 9110TIP3    H127273   1.431   0.340   5.731
 9110TIP3    H227274   1.473   0.388   5.593
 9111TIP3   OH227275   7.313   1.711   1.760
 9111TIP3    H127276   7.225   1.727   1.725
 9111TIP3    H227277   7.304   1.726   1.854
 9112TIP3   OH227278   5.773   5.638   0.253
 9112TIP3    H127279   5.708   5.701   0.283
 9112TIP3    H227280   5.855   5.687   0.253
 9113TIP3   OH227281   2.927   2.490   6.629
 9113TIP3    H127282   2.859   2.556   6.646
 9113TIP3    H227283   3.007   2.541   6.614
 9114TIP3   OH227284   2.433   1.916   0.216
 9114TIP3    H127285   2.508   1.953   0.169
 9114TIP3    H227286   2.357   1.937   0.161
 9115TIP3   OH227287   3.982   2.723   3.506
 9115TIP3    H127288   4.021   2.635   3.501
 9115TIP3    H227289   4.057   2.782   3.508
 9116TIP3   OH227290   5.802   7.696   1.083
 9116TIP3    H127291   5.822   7.629   1.148
 9116TIP3    H227292   5.720   7.666   1.043
 9117TIP3   OH227293   2.556   6.860   3.956
 9117TIP3    H127294   2.627   6.905   3.910
 9117TIP3    H227295   2.476   6.901   3.924
 9118TIP3   OH227296   7.421   4.646   3.972
 9118TIP3    H127297   7.497   4.593   3.996
 9118TIP3    H227298   7.352   4.582   3.954
 9119TIP3   OH227299   7.806   5.312   2.607
 9119TIP3    H127300   7.860   5.257   2.663
 9119TIP3    H227301   7.858   5.325   2.528
 9120TIP3   OH227302   7.172   1.265   4.736
 9120TIP3    H127303   7.145   1.282   4.646
 9120TIP3    H227304   7.135   1.338   4.786
 9121TIP3   OH227305   0.464   3.410   6.334
 9121TIP3    H127306   0.471   3.386   6.242
 9121TIP3    H227307   0.461   3.506   6.334
 9122TIP3   OH227308   2.237   0.933   0.605
 9122TIP3    H127309   2.145   0.907   0.608
 9122TIP3    H227310   2.242   1.010   0.662
 9123TIP3   OH227311   0.800   6.263   3.083
 9123TIP3    H127312   0.776   6.174   3.057
 9123TIP3    H227313   0.724   6.316   3.059
 9124TIP3   OH227314   2.751   1.546   4.390
 9124TIP3    H127315   2.805   1.582   4.320
 9124TIP3    H227316   2.803   1.474   4.426
 9125TIP3   OH227317   6.139   1.412   5.621
 9125TIP3    H127318   6.126   1.385   5.530
 9125TIP3    H227319   6.151   1.507   5.616
 9126TIP3   OH227320   3.724   5.414   2.410
 9126TIP3    H127321   3.792   5.421   2.342
 9126TIP3    H227322   3.734   5.494   2.461
 9127TIP3   OH227323   0.147   6.197   1.462
 9127TIP3    H127324   0.064   6.180   1.419
 9127TIP3    H227325   0.152   6.293   1.468
 9128TIP3   OH227326   1.384   3.609   2.721
 9128TIP3    H127327   1.330   3.669   2.670
 9128TIP3    H227328   1.335   3.526   2.721
 9129TIP3   OH227329   0.772   1.967   5.668
 9129TIP3    H127330   0.722   2.035   5.713
 9129TIP3    H227331   0.838   1.940   5.732
 9130TIP3   OH227332   6.743   6.622   0.767
 9130TIP3    H127333   6.658   6.665   0.778
 9130TIP3    H227334   6.746   6.557   0.838
 9131TIP3   OH227335   0.239   4.980   0.214
 9131TIP3    H127336   0.273   4.947   0.298
 9131TIP3    H227337   0.317   4.988   0.159
 9132TIP3   OH227338   4.840   1.743   1.849
 9132TIP3    H127339   4.922   1.723   1.803
 9132TIP3    H227340   4.788   1.791   1.785
 9133TIP3   OH227341   4.601   6.477   2.862
 9133TIP3    H127342   4.561   6.490   2.775
 9133TIP3    H227343   4.688   6.442   2.843
 9134TIP3   OH227344   8.296   5.523   6.022
 9134TIP3    H127345   8.213   5.539   6.068
 9134TIP3    H227346   8.291   5.432   5.994
 9135TIP3   OH227347   3.468   7.103   4.242
 9135TIP3    H127348   3.520   7.023   4.253
 9135TIP3    H227349   3.501   7.161   4.310
 9136TIP3   OH227350   3.679   2.651   6.100
 9136TIP3    H127351   3.683   2.559   6.124
 9136TIP3    H227352   3.585   2.670   6.091
 9137TIP3   OH227353   4.493   5.652   5.273
 9137TIP3    H127354   4.528   5.576   5.319
 9137TIP3    H227355   4.513   5.727   5.329
 9138TIP3   OH227356   6.695   3.987   1.593
 9138TIP3    H127357   6.606   3.951   1.590
 9138TIP3    H227358   6.713   4.000   1.686
 9139TIP3   OH227359   5.997   7.362   4.492
 9139TIP3    H127360   5.990   7.300   4.565
 9139TIP3    H227361   5.987   7.307   4.414
 9140TIP3   OH227362   7.045   0.052   2.161
 9140TIP3    H127363   6.998   0.031   2.080
 9140TIP3    H227364   6.989   0.018   2.231
 9141TIP3   OH227365   8.227   2.399   6.459
 9141TIP3    H127366   8.224   2.312   6.500
 9141TIP3    H227367   8.252   2.458   6.530
 9142TIP3   OH227368   2.489   7.134   5.249
 9142TIP3    H127369   2.575   7.160   5.281
 9142TIP3    H227370   2.457   7.210   5.200
 9143TIP3   OH227371   5.305   3.554   6.214
 9143TIP3    H127372   5.289   3.504   6.294
 9143TIP3    H227373   5.227   3.539   6.161
 9144TIP3   OH227374   7.170   3.414   0.790
 9144TIP3    H127375   7.183   3.481   0.723
 9144TIP3    H227376   7.152   3.462   0.870
 9145TIP3   OH227377   1.952   7.417   5.864
 9145TIP3    H127378   1.892   7.409   5.790
 9145TIP3    H227379   2.038   7.397   5.826
 9146TIP3   OH227380   6.488   2.276   3.842
 9146TIP3    H127381   6.433   2.354   3.842
 9146TIP3    H227382   6.575   2.308   3.865
 9147TIP3   OH227383   2.043   6.855   0.207
 9147TIP3    H127384   2.074   6.945   0.204
 9147TIP3    H227385   2.015   6.842   0.298
 9148TIP3   OH227386   0.680   6.861   5.470
 9148TIP3    H127387   0.707   6.935   5.416
 9148TIP3    H227388   0.588   6.878   5.490
 9149TIP3   OH227389   4.796   5.530   5.647
 9149TIP3    H127390   4.823   5.491   5.730
 9149TIP3    H227391   4.701   5.523   5.647
 9150TIP3   OH227392   1.563   1.697   6.398
 9150TIP3    H127393   1.568   1.792   6.391
 9150TIP3    H227394   1.591   1.665   6.312
 9151TIP3   OH227395   0.941   5.025   2.689
 9151TIP3    H127396   0.981   5.106   2.658
 9151TIP3    H227397   0.878   5.001   2.622
 9152TIP3   OH227398   7.844   7.826   4.666
 9152TIP3    H127399   7.851   7.910   4.712
 9152TIP3    H227400   7.873   7.761   4.729
 9153TIP3   OH227401   6.223   1.278   6.671
 9153TIP3    H127402   6.189   1.200   6.627
 9153TIP3    H227403   6.270   1.325   6.602
 9154TIP3   OH227404   1.112   7.344   6.734
 9154TIP3    H127405   1.123   7.335   6.640
 9154TIP3    H227406   1.177   7.409   6.760
 9155TIP3   OH227407   4.459   0.884   5.957
 9155TIP3    H127408   4.366   0.890   5.935
 9155TIP3    H227409   4.502   0.942   5.894
 9156TIP3   OH227410   2.924   7.281   5.889
 9156TIP3    H127411   3.019   7.285   5.901
 9156TIP3    H227412   2.913   7.284   5.794
 9157TIP3   OH227413   7.854   0.227   3.001
 9157TIP3    H127414   7.798   0.149   3.009
 9157TIP3    H227415   7.804   0.286   2.944
 9158TIP3   OH227416   2.781   4.672   3.550
 9158TIP3    H127417   2.872   4.645   3.563
 9158TIP3    H227418   2.767   4.666   3.456
 9159TIP3   OH227419   0.703   4.833   0.255
 9159TIP3    H127420   0.787   4.788   0.264
 9159TIP3    H227421   0.685   4.832   0.161
 9160TIP3   OH227422   4.744   0.549   5.685
 9160TIP3    H127423   4.785   0.504   5.759
 9160TIP3    H227424   4.702   0.480   5.635
 9161TIP3   OH227425   0.576   5.753   5.745
 9161TIP3    H127426   0.548   5.842   5.723
 9161TIP3    H227427   0.576   5.750   5.841
 9162TIP3   OH227428   6.960   6.975   4.209
 9162TIP3    H127429   7.012   6.896   4.225
 9162TIP3    H227430   6.884   6.943   4.160
 9163TIP3   OH227431   0.568   7.432   3.587
 9163TIP3    H127432   0.637   7.427   3.521
 9163TIP3    H227433   0.583   7.516   3.631
 9164TIP3   OH227434   5.500   3.304   1.754
 9164TIP3    H127435   5.498   3.229   1.814
 9164TIP3    H227436   5.425   3.290   1.696
 9165TIP3   OH227437   5.767   4.847   1.708
 9165TIP3    H127438   5.782   4.770   1.763
 9165TIP3    H227439   5.754   4.919   1.770
 9166TIP3   OH227440   5.480   1.432   3.895
 9166TIP3    H127441   5.567   1.461   3.867
 9166TIP3    H227442   5.420   1.476   3.835
 9167TIP3   OH227443   6.864   7.654   0.069
 9167TIP3    H127444   6.790   7.684   0.124
 9167TIP3    H227445   6.827   7.585   0.014
 9168TIP3   OH227446   3.547   5.358   3.201
 9168TIP3    H127447   3.635   5.396   3.203
 9168TIP3    H227448   3.548   5.293   3.271
 9169TIP3   OH227449   5.422   7.003   2.531
 9169TIP3    H127450   5.339   7.036   2.497
 9169TIP3    H227451   5.410   6.999   2.626
 9170TIP3   OH227452   0.258   4.038   4.954
 9170TIP3    H127453   0.246   4.099   4.881
 9170TIP3    H227454   0.304   3.963   4.915
 9171TIP3   OH227455   5.414   2.559   4.264
 9171TIP3    H127456   5.456   2.639   4.296
 9171TIP3    H227457   5.441   2.491   4.325
 9172TIP3   OH227458   3.579   5.693   0.635
 9172TIP3    H127459   3.590   5.766   0.574
 9172TIP3    H227460   3.667   5.677   0.669
 9173TIP3   OH227461   1.457   2.987   5.903
 9173TIP3    H127462   1.407   2.911   5.935
 9173TIP3    H227463   1.549   2.962   5.914
 9174TIP3   OH227464   1.075   5.767   4.565
 9174TIP3    H127465   1.127   5.708   4.510
 9174TIP3    H227466   1.125   5.849   4.567
 9175TIP3   OH227467   5.749   1.532   5.431
 9175TIP3    H127468   5.742   1.440   5.453
 9175TIP3    H227469   5.663   1.569   5.452
 9176TIP3   OH227470   7.406   6.304   1.127
 9176TIP3    H127471   7.448   6.242   1.186
 9176TIP3    H227472   7.314   6.277   1.125
 9177TIP3   OH227473   4.420   6.976   5.252
 9177TIP3    H127474   4.497   6.927   5.221
 9177TIP3    H227475   4.382   7.013   5.172
 9178TIP3   OH227476   2.707   3.972   1.703
 9178TIP3    H127477   2.669   3.925   1.629
 9178TIP3    H227478   2.636   4.028   1.735
 9179TIP3   OH227479   6.521   5.659   0.244
 9179TIP3    H127480   6.500   5.610   0.324
 9179TIP3    H227481   6.556   5.593   0.184
 9180TIP3   OH227482   7.712   6.893   2.283
 9180TIP3    H127483   7.679   6.943   2.357
 9180TIP3    H227484   7.763   6.957   2.232
 9181TIP3   OH227485   3.425   2.600   0.680
 9181TIP3    H127486   3.496   2.664   0.680
 9181TIP3    H227487   3.376   2.619   0.600
 9182TIP3   OH227488   0.878   3.113   0.721
 9182TIP3    H127489   0.931   3.071   0.789
 9182TIP3    H227490   0.792   3.071   0.728
 9183TIP3   OH227491   0.969   2.160   4.445
 9183TIP3    H127492   1.021   2.227   4.401
 9183TIP3    H227493   0.902   2.208   4.493
 9184TIP3   OH227494   2.658   5.196   3.665
 9184TIP3    H127495   2.626   5.284   3.642
 9184TIP3    H227496   2.749   5.210   3.693
 9185TIP3   OH227497   7.431   1.236   5.058
 9185TIP3    H127498   7.484   1.261   5.135
 9185TIP3    H227499   7.396   1.319   5.025
 9186TIP3   OH227500   4.732   3.735   4.034
 9186TIP3    H127501   4.666   3.781   4.085
 9186TIP3    H227502   4.707   3.643   4.038
 9187TIP3   OH227503   0.464   3.974   4.372
 9187TIP3    H127504   0.470   4.054   4.320
 9187TIP3    H227505   0.379   3.980   4.416
 9188TIP3   OH227506   0.323   2.255   2.900
 9188TIP3    H127507   0.416   2.260   2.921
 9188TIP3    H227508   0.297   2.345   2.882
 9189TIP3   OH227509   2.151   5.603   4.154
 9189TIP3    H127510   2.199   5.678   4.188
 9189TIP3    H227511   2.085   5.584   4.221
 9190TIP3   OH227512   3.582   6.861   3.650
 9190TIP3    H127513   3.625   6.938   3.613
 9190TIP3    H227514   3.651   6.815   3.697
 9191TIP3   OH227515   6.473   0.662   0.160
 9191TIP3    H127516   6.503   0.630   0.075
 9191TIP3    H227517   6.412   0.733   0.139
 9192TIP3   OH227518   4.829   3.671   6.659
 9192TIP3    H127519   4.919   3.638   6.657
 9192TIP3    H227520   4.796   3.643   6.745
 9193TIP3   OH227521   2.364   6.206   4.178
 9193TIP3    H127522   2.398   6.291   4.152
 9193TIP3    H227523   2.297   6.186   4.112
 9194TIP3   OH227524   4.613   1.909   1.727
 9194TIP3    H127525   4.545   1.975   1.744
 9194TIP3    H227526   4.568   1.840   1.680
 9195TIP3   OH227527   1.975   3.890   1.132
 9195TIP3    H127528   2.015   3.803   1.134
 9195TIP3    H227529   2.030   3.944   1.188
 9196TIP3   OH227530   5.762   2.604   1.464
 9196TIP3    H127531   5.846   2.597   1.419
 9196TIP3    H227532   5.783   2.592   1.556
 9197TIP3   OH227533   4.059   3.334   1.300
 9197TIP3    H127534   4.134   3.329   1.359
 9197TIP3    H227535   4.026   3.423   1.310
 9198TIP3   OH227536   8.056   1.184   5.431
 9198TIP3    H127537   8.065   1.274   5.401
 9198TIP3    H227538   8.107   1.180   5.512
 9199TIP3   OH227539   5.477   0.874   0.178
 9199TIP3    H127540   5.459   0.908   0.265
 9199TIP3    H227541   5.464   0.779   0.186
 9200TIP3   OH227542   7.044   4.074   4.170
 9200TIP3    H127543   6.972   4.028   4.127
 9200TIP3    H227544   7.108   4.006   4.190
 9201TIP3   OH227545   1.620   0.713   3.215
 9201TIP3    H127546   1.605   0.622   3.241
 9201TIP3    H227547   1.611   0.712   3.119
 9202TIP3   OH227548   4.563   1.341   6.403
 9202TIP3    H127549   4.541   1.340   6.310
 9202TIP3    H227550   4.605   1.426   6.416
 9203TIP3   OH227551   1.634   0.687   6.499
 9203TIP3    H127552   1.671   0.766   6.459
 9203TIP3    H227553   1.680   0.678   6.582
 9204TIP3   OH227554   1.843   5.920   1.291
 9204TIP3    H127555   1.901   5.851   1.260
 9204TIP3    H227556   1.835   5.980   1.216
 9205TIP3   OH227557   6.441   6.085   2.741
 9205TIP3    H127558   6.368   6.124   2.692
 9205TIP3    H227559   6.518   6.104   2.688
 9206TIP3   OH227560   2.219   2.312   2.617
 9206TIP3    H127561   2.202   2.250   2.689
 9206TIP3    H227562   2.132   2.339   2.589
 9207TIP3   OH227563   2.658   3.076   5.275
 9207TIP3    H127564   2.609   3.157   5.262
 9207TIP3    H227565   2.682   3.076   5.367
 9208TIP3   OH227566   2.914   5.262   3.704
 9208TIP3    H127567   2.918   5.293   3.613
 9208TIP3    H227568   2.980   5.193   3.709
 9209TIP3   OH227569   7.805   4.256   0.166
 9209TIP3    H127570   7.819   4.166   0.195
 9209TIP3    H227571   7.866   4.267   0.092
 9210TIP3   OH227572   7.423   1.208   3.356
 9210TIP3    H127573   7.459   1.139   3.411
 9210TIP3    H227574   7.374   1.265   3.416
 9211TIP3   OH227575   4.376   2.948   2.318
 9211TIP3    H127576   4.366   3.026   2.263
 9211TIP3    H227577   4.467   2.921   2.304
 9212TIP3   OH227578   0.834   2.163   1.903
 9212TIP3    H127579   0.856   2.073   1.878
 9212TIP3    H227580   0.916   2.211   1.892
 9213TIP3   OH227581   6.544   4.719   3.431
 9213TIP3    H127582   6.541   4.762   3.516
 9213TIP3    H227583   6.633   4.734   3.399
 9214TIP3   OH227584   3.601   7.145   3.854
 9214TIP3    H127585   3.552   7.063   3.866
 9214TIP3    H227586   3.652   7.154   3.935
 9215TIP3   OH227587   3.902   4.525   5.189
 9215TIP3    H127588   3.933   4.582   5.260
 9215TIP3    H227589   3.977   4.468   5.171
 9216TIP3   OH227590   6.681   0.813   5.200
 9216TIP3    H127591   6.619   0.884   5.218
 9216TIP3    H227592   6.726   0.798   5.283
 9217TIP3   OH227593   2.965   6.616   5.806
 9217TIP3    H127594   2.939   6.619   5.714
 9217TIP3    H227595   2.968   6.708   5.833
 9218TIP3   OH227596   1.048   7.218   4.651
 9218TIP3    H127597   1.034   7.260   4.735
 9218TIP3    H227598   1.023   7.284   4.586
 9219TIP3   OH227599   3.427   6.914   1.630
 9219TIP3    H127600   3.448   6.821   1.628
 9219TIP3    H227601   3.409   6.937   1.538
 9220TIP3   OH227602   1.904   6.620   0.160
 9220TIP3    H127603   1.985   6.582   0.127
 9220TIP3    H227604   1.914   6.714   0.146
 9221TIP3   OH227605   4.591   2.651   6.133
 9221TIP3    H127606   4.534   2.623   6.205
 9221TIP3    H227607   4.531   2.668   6.060
 9222TIP3   OH227608   4.592   3.324   5.100
 9222TIP3    H127609   4.582   3.419   5.096
 9222TIP3    H227610   4.538   3.297   5.174
 9223TIP3   OH227611   7.515   3.330   2.577
 9223TIP3    H127612   7.441   3.269   2.583
 9223TIP3    H227613   7.477   3.415   2.601
 9224TIP3   OH227614   7.395   6.488   3.278
 9224TIP3    H127615   7.427   6.578   3.274
 9224TIP3    H227616   7.370   6.477   3.370
 9225TIP3   OH227617   6.048   6.156   6.542
 9225TIP3    H127618   6.096   6.143   6.460
 9225TIP3    H227619   5.962   6.187   6.515
 9226TIP3   OH227620   3.569   3.429   5.291
 9226TIP3    H127621   3.646   3.470   5.329
 9226TIP3    H227622   3.530   3.378   5.363
 9227TIP3   OH227623   5.151   4.717   4.056
 9227TIP3    H127624   5.177   4.643   4.111
 9227TIP3    H227625   5.230   4.770   4.049
 9228TIP3   OH227626   3.345  -0.040   4.720
 9228TIP3    H127627   3.283   0.029   4.697
 9228TIP3    H227628   3.372  -0.019   4.810
 9229TIP3   OH227629   1.938   3.873   2.980
 9229TIP3    H127630   1.985   3.873   2.897
 9229TIP3    H227631   1.949   3.783   3.014
 9230TIP3   OH227632   4.204   4.194   3.276
 9230TIP3    H127633   4.211   4.201   3.371
 9230TIP3    H227634   4.111   4.178   3.259
 9231TIP3   OH227635   1.859   3.059   1.376
 9231TIP3    H127636   1.950   3.063   1.347
 9231TIP3    H227637   1.862   3.080   1.469
 9232TIP3   OH227638   2.231   2.515   6.371
 9232TIP3    H127639   2.238   2.478   6.459
 9232TIP3    H227640   2.187   2.447   6.320
 9233TIP3   OH227641   7.871   4.486   5.246
 9233TIP3    H127642   7.836   4.422   5.184
 9233TIP3    H227643   7.957   4.451   5.270
 9234TIP3   OH227644   1.259   2.835   3.709
 9234TIP3    H127645   1.196   2.805   3.643
 9234TIP3    H227646   1.341   2.792   3.684
 9235TIP3   OH227647   7.591   7.782   5.119
 9235TIP3    H127648   7.503   7.763   5.151
 9235TIP3    H227649   7.593   7.877   5.107
 9236TIP3   OH227650   3.568   2.652   0.185
 9236TIP3    H127651   3.497   2.644   0.250
 9236TIP3    H227652   3.532   2.611   0.107
 9237TIP3   OH227653   3.081   1.630   1.165
 9237TIP3    H127654   3.011   1.692   1.147
 9237TIP3    H227655   3.071   1.609   1.258
 9238TIP3   OH227656   4.702   3.426   6.129
 9238TIP3    H127657   4.648   3.501   6.155
 9238TIP3    H227658   4.785   3.439   6.174
 9239TIP3   OH227659   5.616   5.662   1.969
 9239TIP3    H127660   5.554   5.595   1.942
 9239TIP3    H227661   5.678   5.616   2.026
 9240TIP3   OH227662   5.804   3.850   2.552
 9240TIP3    H127663   5.816   3.931   2.601
 9240TIP3    H227664   5.842   3.868   2.466
 9241TIP3   OH227665   1.835   3.241   0.531
 9241TIP3    H127666   1.815   3.224   0.439
 9241TIP3    H227667   1.750   3.258   0.572
 9242TIP3   OH227668   4.943   7.548   2.821
 9242TIP3    H127669   4.887   7.471   2.830
 9242TIP3    H227670   5.018   7.529   2.877
 9243TIP3   OH227671   0.054   3.466   0.520
 9243TIP3    H127672   0.123   3.521   0.484
 9243TIP3    H227673   0.086   3.377   0.510
 9244TIP3   OH227674   5.001   0.815   4.231
 9244TIP3    H127675   5.073   0.863   4.271
 9244TIP3    H227676   4.928   0.877   4.231
 9245TIP3   OH227677   1.254   0.214   6.447
 9245TIP3    H127678   1.335   0.210   6.498
 9245TIP3    H227679   1.281   0.249   6.362
 9246TIP3   OH227680   4.569   2.914   0.386
 9246TIP3    H127681   4.483   2.945   0.413
 9246TIP3    H227682   4.561   2.896   0.292
 9247TIP3   OH227683   2.581   4.673   2.553
 9247TIP3    H127684   2.632   4.695   2.631
 9247TIP3    H227685   2.630   4.602   2.512
 9248TIP3   OH227686   3.535   5.496   4.458
 9248TIP3    H127687   3.510   5.457   4.374
 9248TIP3    H227688   3.548   5.421   4.516
 9249TIP3   OH227689   8.083   2.536   3.551
 9249TIP3    H127690   8.008   2.577   3.593
 9249TIP3    H227691   8.090   2.450   3.594
 9250TIP3   OH227692   6.704   3.040   6.601
 9250TIP3    H127693   6.679   3.132   6.605
 9250TIP3    H227694   6.720   3.023   6.508
 9251TIP3   OH227695   7.914   4.363   3.065
 9251TIP3    H127696   7.997   4.397   3.031
 9251TIP3    H227697   7.856   4.360   2.989
 9252TIP3   OH227698   0.345   5.156   5.711
 9252TIP3    H127699   0.405   5.225   5.740
 9252TIP3    H227700   0.394   5.075   5.724
 9253TIP3   OH227701   6.675   3.526   6.236
 9253TIP3    H127702   6.624   3.606   6.248
 9253TIP3    H227703   6.760   3.546   6.275
 9254TIP3   OH227704   3.252   7.808   5.120
 9254TIP3    H127705   3.239   7.718   5.149
 9254TIP3    H227706   3.258   7.859   5.200
 9255TIP3   OH227707   4.098   4.921   0.697
 9255TIP3    H127708   4.044   4.882   0.765
 9255TIP3    H227709   4.188   4.911   0.728
 9256TIP3   OH227710   7.676   4.599   5.992
 9256TIP3    H127711   7.753   4.636   6.034
 9256TIP3    H227712   7.646   4.667   5.932
 9257TIP3   OH227713   1.974   3.520   0.905
 9257TIP3    H127714   1.975   3.467   0.825
 9257TIP3    H227715   2.063   3.512   0.939
 9258TIP3   OH227716   6.316   1.154   3.463
 9258TIP3    H127717   6.265   1.095   3.519
 9258TIP3    H227718   6.313   1.238   3.508
 9259TIP3   OH227719   7.344   5.692   5.805
 9259TIP3    H127720   7.305   5.755   5.745
 9259TIP3    H227721   7.270   5.658   5.856
 9260TIP3   OH227722   1.845   1.906   6.483
 9260TIP3    H127723   1.868   1.873   6.570
 9260TIP3    H227724   1.750   1.915   6.485
 9261TIP3   OH227725   7.861   1.141   4.582
 9261TIP3    H127726   7.861   1.118   4.489
 9261TIP3    H227727   7.954   1.153   4.603
 9262TIP3   OH227728   3.302   3.060   2.055
 9262TIP3    H127729   3.257   3.089   1.976
 9262TIP3    H227730   3.291   2.965   2.056
 9263TIP3   OH227731   4.784   2.485   5.067
 9263TIP3    H127732   4.694   2.453   5.065
 9263TIP3    H227733   4.779   2.575   5.036
 9264TIP3   OH227734   6.624   0.991   3.679
 9264TIP3    H127735   6.703   0.941   3.703
 9264TIP3    H227736   6.593   0.949   3.599
 9265TIP3   OH227737   3.858   2.524  -0.020
 9265TIP3    H127738   3.815   2.440  -0.003
 9265TIP3    H227739   3.808   2.562  -0.092
 9266TIP3   OH227740   1.020   1.101   2.026
 9266TIP3    H127741   0.939   1.052   2.011
 9266TIP3    H227742   1.089   1.036   2.013
 9267TIP3   OH227743   7.371   7.295   3.432
 9267TIP3    H127744   7.352   7.253   3.349
 9267TIP3    H227745   7.285   7.309   3.472
 9268TIP3   OH227746   4.049   3.587   3.742
 9268TIP3    H127747   4.053   3.619   3.832
 9268TIP3    H227748   4.042   3.666   3.689
 9269TIP3   OH227749   5.626   0.339   4.359
 9269TIP3    H127750   5.704   0.393   4.374
 9269TIP3    H227751   5.559   0.379   4.414
 9270TIP3   OH227752   5.360   2.977   6.313
 9270TIP3    H127753   5.355   2.943   6.224
 9270TIP3    H227754   5.429   2.926   6.355
 9271TIP3   OH227755   5.179   0.984   0.702
 9271TIP3    H127756   5.215   1.054   0.757
 9271TIP3    H227757   5.143   0.920   0.764
 9272TIP3   OH227758   5.537   7.467   4.695
 9272TIP3    H127759   5.618   7.456   4.745
 9272TIP3    H227760   5.567   7.489   4.606
 9273TIP3   OH227761   7.937   3.559   1.841
 9273TIP3    H127762   7.909   3.490   1.781
 9273TIP3    H227763   7.940   3.516   1.927
 9274TIP3   OH227764   1.981   5.212   6.710
 9274TIP3    H127765   1.889   5.195   6.691
 9274TIP3    H227766   2.015   5.254   6.631
 9275TIP3   OH227767   7.759   6.259   3.780
 9275TIP3    H127768   7.744   6.327   3.845
 9275TIP3    H227769   7.771   6.306   3.698
 9276TIP3   OH227770   7.147   1.772   0.868
 9276TIP3    H127771   7.094   1.693   0.881
 9276TIP3    H227772   7.237   1.741   0.874
 9277TIP3   OH227773   6.133   6.596   0.852
 9277TIP3    H127774   6.089   6.682   0.849
 9277TIP3    H227775   6.115   6.563   0.940
 9278TIP3   OH227776   1.397   0.724   4.868
 9278TIP3    H127777   1.323   0.683   4.913
 9278TIP3    H227778   1.373   0.816   4.861
 9279TIP3   OH227779   1.044   1.551   2.345
 9279TIP3    H127780   1.098   1.492   2.292
 9279TIP3    H227781   1.095   1.632   2.351
 9280TIP3   OH227782   3.682   0.110   2.223
 9280TIP3    H127783   3.738   0.079   2.294
 9280TIP3    H227784   3.699   0.204   2.219
 9281TIP3   OH227785   6.676   5.039   5.341
 9281TIP3    H127786   6.641   5.126   5.358
 9281TIP3    H227787   6.713   5.044   5.253
 9282TIP3   OH227788   5.792   5.262   2.826
 9282TIP3    H127789   5.742   5.307   2.894
 9282TIP3    H227790   5.839   5.193   2.874
 9283TIP3   OH227791   1.670   4.245   0.110
 9283TIP3    H127792   1.707   4.292   0.185
 9283TIP3    H227793   1.746   4.208   0.066
 9284TIP3   OH227794   7.473   6.976   3.132
 9284TIP3    H127795   7.404   6.924   3.090
 9284TIP3    H227796   7.546   6.972   3.070
 9285TIP3   OH227797   4.594   0.530   2.607
 9285TIP3    H127798   4.667   0.592   2.601
 9285TIP3    H227799   4.606   0.487   2.692
 9286TIP3   OH227800   4.009   2.949   0.218
 9286TIP3    H127801   4.016   2.906   0.304
 9286TIP3    H227802   3.977   2.881   0.160
 9287TIP3   OH227803   2.969   0.937   6.680
 9287TIP3    H127804   2.986   0.855   6.633
 9287TIP3    H227805   2.947   0.999   6.611
 9288TIP3   OH227806   0.307   0.756   4.758
 9288TIP3    H127807   0.319   0.697   4.832
 9288TIP3    H227808   0.228   0.723   4.714
 9289TIP3   OH227809   3.252   4.721   2.654
 9289TIP3    H127810   3.318   4.718   2.585
 9289TIP3    H227811   3.295   4.765   2.727
 9290TIP3   OH227812   7.352   7.215   3.180
 9290TIP3    H127813   7.396   7.140   3.141
 9290TIP3    H227814   7.301   7.252   3.108
 9291TIP3   OH227815   3.004   2.489   0.306
 9291TIP3    H127816   2.919   2.485   0.350
 9291TIP3    H227817   2.984   2.515   0.216
 9292TIP3   OH227818   7.787   2.083   2.968
 9292TIP3    H127819   7.695   2.082   2.994
 9292TIP3    H227820   7.797   2.165   2.920
 9293TIP3   OH227821   6.781   0.131   0.265
 9293TIP3    H127822   6.825   0.077   0.199
 9293TIP3    H227823   6.702   0.163   0.222
 9294TIP3   OH227824   2.234   4.387   5.016
 9294TIP3    H127825   2.270   4.450   5.078
 9294TIP3    H227826   2.142   4.381   5.038
 9295TIP3   OH227827   1.010   2.410   4.665
 9295TIP3    H127828   1.062   2.334   4.694
 9295TIP3    H227829   1.075   2.478   4.647
 9296TIP3   OH227830   4.497   3.997   0.632
 9296TIP3    H127831   4.519   3.946   0.710
 9296TIP3    H227832   4.555   3.962   0.564
 9297TIP3   OH227833   6.628   6.450   5.715
 9297TIP3    H127834   6.551   6.491   5.677
 9297TIP3    H227835   6.600   6.425   5.804
 9298TIP3   OH227836   6.587   6.601   4.686
 9298TIP3    H127837   6.674   6.628   4.715
 9298TIP3    H227838   6.578   6.511   4.717
 9299TIP3   OH227839   4.724   5.177   1.976
 9299TIP3    H127840   4.671   5.106   1.939
 9299TIP3    H227841   4.670   5.213   2.047
 9300TIP3   OH227842   1.537   5.515   3.611
 9300TIP3    H127843   1.466   5.560   3.656
 9300TIP3    H227844   1.569   5.451   3.675
 9301TIP3   OH227845   1.697   1.153   3.866
 9301TIP3    H127846   1.667   1.244   3.853
 9301TIP3    H227847   1.648   1.123   3.942
 9302TIP3   OH227848   0.784   0.604   1.681
 9302TIP3    H127849   0.707   0.562   1.643
 9302TIP3    H227850   0.799   0.556   1.762
 9303TIP3   OH227851   6.061   6.893   2.064
 9303TIP3    H127852   5.975   6.853   2.075
 9303TIP3    H227853   6.066   6.914   1.970
 9304TIP3   OH227854   3.115   6.197   1.644
 9304TIP3    H127855   3.184   6.163   1.587
 9304TIP3    H227856   3.049   6.128   1.644
 9305TIP3   OH227857   4.180   4.861   4.490
 9305TIP3    H127858   4.232   4.819   4.558
 9305TIP3    H227859   4.104   4.804   4.480
 9306TIP3   OH227860   7.046   3.861   5.700
 9306TIP3    H127861   6.979   3.823   5.758
 9306TIP3    H227862   7.049   3.953   5.725
 9307TIP3   OH227863   4.584   1.385   2.011
 9307TIP3    H127864   4.589   1.322   1.940
 9307TIP3    H227865   4.555   1.466   1.969
 9308TIP3   OH227866   2.816   5.169   1.488
 9308TIP3    H127867   2.764   5.110   1.433
 9308TIP3    H227868   2.809   5.132   1.576
 9309TIP3   OH227869   2.395   4.775   4.495
 9309TIP3    H127870   2.366   4.686   4.471
 9309TIP3    H227871   2.393   4.775   4.590
 9310TIP3   OH227872   0.347   3.479   1.956
 9310TIP3    H127873   0.289   3.538   1.908
 9310TIP3    H227874   0.417   3.458   1.895
 9311TIP3   OH227875   4.726   6.801   5.861
 9311TIP3    H127876   4.695   6.816   5.951
 9311TIP3    H227877   4.817   6.830   5.862
 9312TIP3   OH227878   1.107   1.318   4.835
 9312TIP3    H127879   1.022   1.285   4.809
 9312TIP3    H227880   1.151   1.339   4.753
 9313TIP3   OH227881   5.044   1.612   0.828
 9313TIP3    H127882   5.104   1.568   0.888
 9313TIP3    H227883   4.959   1.573   0.845
 9314TIP3   OH227884   5.158   6.945   4.560
 9314TIP3    H127885   5.189   6.930   4.649
 9314TIP3    H227886   5.096   6.875   4.543
 9315TIP3   OH227887   6.208   1.777   0.542
 9315TIP3    H127888   6.261   1.704   0.574
 9315TIP3    H227889   6.222   1.778   0.447
 9316TIP3   OH227890   1.601   0.648   2.352
 9316TIP3    H127891   1.534   0.590   2.389
 9316TIP3    H227892   1.600   0.628   2.258
 9317TIP3   OH227893   3.804   5.131   1.614
 9317TIP3    H127894   3.872   5.195   1.635
 9317TIP3    H227895   3.746   5.132   1.690
 9318TIP3   OH227896   6.089   7.573   3.066
 9318TIP3    H127897   6.002   7.611   3.076
 9318TIP3    H227898   6.085   7.524   2.984
 9319TIP3   OH227899   6.601   6.285   4.287
 9319TIP3    H127900   6.602   6.374   4.322
 9319TIP3    H227901   6.672   6.283   4.223
 9320TIP3   OH227902   0.461   0.670   6.194
 9320TIP3    H127903   0.508   0.589   6.217
 9320TIP3    H227904   0.482   0.730   6.266
 9321TIP3   OH227905   4.639   7.344   2.176
 9321TIP3    H127906   4.714   7.348   2.117
 9321TIP3    H227907   4.629   7.251   2.195
 9322TIP3   OH227908   3.664   6.510   3.843
 9322TIP3    H127909   3.658   6.420   3.876
 9322TIP3    H227910   3.573   6.534   3.826
 9323TIP3   OH227911   6.228   0.257   5.849
 9323TIP3    H127912   6.225   0.253   5.753
 9323TIP3    H227913   6.262   0.344   5.868
 9324TIP3   OH227914   2.559   5.101   4.210
 9324TIP3    H127915   2.496   5.132   4.146
 9324TIP3    H227916   2.629   5.060   4.158
 9325TIP3   OH227917   6.196   3.840   5.760
 9325TIP3    H127918   6.106   3.820   5.735
 9325TIP3    H227919   6.250   3.782   5.707
 9326TIP3   OH227920   0.468   3.404   4.579
 9326TIP3    H127921   0.501   3.492   4.560
 9326TIP3    H227922   0.390   3.418   4.634
 9327TIP3   OH227923   8.043   2.668   2.242
 9327TIP3    H127924   7.998   2.654   2.325
 9327TIP3    H227925   8.065   2.580   2.212
 9328TIP3   OH227926   6.476   3.746   6.204
 9328TIP3    H127927   6.499   3.836   6.224
 9328TIP3    H227928   6.397   3.752   6.151
 9329TIP3   OH227929   4.584   2.120   4.705
 9329TIP3    H127930   4.614   2.196   4.653
 9329TIP3    H227931   4.630   2.046   4.667
 9330TIP3   OH227932   2.817   1.918   6.642
 9330TIP3    H127933   2.754   1.953   6.579
 9330TIP3    H227934   2.866   1.852   6.593
 9331TIP3   OH227935   7.206   4.274   5.880
 9331TIP3    H127936   7.249   4.196   5.845
 9331TIP3    H227937   7.276   4.339   5.887
 9332TIP3   OH227938   2.241   4.236   0.218
 9332TIP3    H127939   2.298   4.202   0.287
 9332TIP3    H227940   2.171   4.282   0.265
 9333TIP3   OH227941   2.336   3.216   0.606
 9333TIP3    H127942   2.284   3.135   0.609
 9333TIP3    H227943   2.343   3.243   0.697
 9334TIP3   OH227944   1.045   4.005   1.882
 9334TIP3    H127945   1.050   4.028   1.790
 9334TIP3    H227946   1.043   4.089   1.928
 9335TIP3   OH227947   6.743   0.356   1.781
 9335TIP3    H127948   6.721   0.397   1.697
 9335TIP3    H227949   6.832   0.385   1.800
 9336TIP3   OH227950   5.241   5.195   5.003
 9336TIP3    H127951   5.250   5.192   4.908
 9336TIP3    H227952   5.156   5.155   5.020
 9337TIP3   OH227953   1.857   4.356   0.663
 9337TIP3    H127954   1.941   4.352   0.708
 9337TIP3    H227955   1.840   4.265   0.637
 9338TIP3   OH227956   1.611   4.330   0.942
 9338TIP3    H127957   1.585   4.404   0.887
 9338TIP3    H227958   1.695   4.357   0.980
 9339TIP3   OH227959   1.799   0.717   5.207
 9339TIP3    H127960   1.830   0.753   5.290
 9339TIP3    H227961   1.718   0.766   5.188
 9340TIP3   OH227962   1.082   1.863   0.609
 9340TIP3    H127963   1.040   1.829   0.688
 9340TIP3    H227964   1.174   1.836   0.617
 9341TIP3   OH227965   6.202   7.358   6.312
 9341TIP3    H127966   6.196   7.413   6.390
 9341TIP3    H227967   6.284   7.310   6.323
 9342TIP3   OH227968   7.961   3.668   2.389
 9342TIP3    H127969   7.977   3.762   2.397
 9342TIP3    H227970   7.958   3.636   2.480
 9343TIP3   OH227971   3.029   6.562   1.198
 9343TIP3    H127972   3.023   6.475   1.235
 9343TIP3    H227973   2.942   6.579   1.161
 9344TIP3   OH227974   0.712   7.145   5.913
 9344TIP3    H127975   0.722   7.224   5.859
 9344TIP3    H227976   0.621   7.118   5.898
 9345TIP3   OH227977   3.397   2.683   5.776
 9345TIP3    H127978   3.389   2.764   5.724
 9345TIP3    H227979   3.481   2.646   5.750
 9346TIP3   OH227980   5.966   5.510   6.709
 9346TIP3    H127981   5.912   5.445   6.663
 9346TIP3    H227982   6.055   5.492   6.680
 9347TIP3   OH227983   7.388   3.470   4.910
 9347TIP3    H127984   7.459   3.430   4.860
 9347TIP3    H227985   7.428   3.545   4.954
 9348TIP3   OH227986   7.455   0.920   2.222
 9348TIP3    H127987   7.423   0.842   2.176
 9348TIP3    H227988   7.380   0.949   2.274
 9349TIP3   OH227989   1.656   3.278   6.102
 9349TIP3    H127990   1.645   3.184   6.114
 9349TIP3    H227991   1.641   3.316   6.188
 9350TIP3   OH227992   7.925   7.186   4.935
 9350TIP3    H127993   8.020   7.189   4.945
 9350TIP3    H227994   7.895   7.130   5.006
 9351TIP3   OH227995   5.831   7.198   6.330
 9351TIP3    H127996   5.888   7.221   6.404
 9351TIP3    H227997   5.891   7.169   6.261
 9352TIP3   OH227998   1.850   4.394   6.210
 9352TIP3    H127999   1.894   4.477   6.194
 9352TIP3    H228000   1.827   4.396   6.303
 9353TIP3   OH228001   0.206   3.588   4.442
 9353TIP3    H128002   0.131   3.552   4.395
 9353TIP3    H228003   0.274   3.599   4.376
 9354TIP3   OH228004   5.415   6.948   4.716
 9354TIP3    H128005   5.486   6.926   4.656
 9354TIP3    H228006   5.417   7.044   4.721
 9355TIP3   OH228007   0.493   7.185   6.660
 9355TIP3    H128008   0.404   7.158   6.640
 9355TIP3    H228009   0.532   7.110   6.705
 9356TIP3   OH228010   0.320   6.938   0.860
 9356TIP3    H128011   0.413   6.951   0.840
 9356TIP3    H228012   0.282   7.026   0.856
 9357TIP3   OH228013   0.194   1.799   4.967
 9357TIP3    H128014   0.215   1.837   5.052
 9357TIP3    H228015   0.110   1.756   4.980
 9358TIP3   OH228016   0.771   3.000   4.849
 9358TIP3    H128017   0.830   3.070   4.819
 9358TIP3    H228018   0.808   2.920   4.812
 9359TIP3   OH228019   6.436   6.954   4.012
 9359TIP3    H128020   6.449   7.036   3.963
 9359TIP3    H228021   6.364   6.973   4.071
 9360TIP3   OH228022  -0.073   4.424   2.141
 9360TIP3    H128023  -0.073   4.399   2.048
 9360TIP3    H228024  -0.132   4.361   2.182
 9361TIP3   OH228025   1.281   5.367   0.162
 9361TIP3    H128026   1.324   5.450   0.182
 9361TIP3    H228027   1.285   5.317   0.243
 9362TIP3   OH228028   7.445   4.804   4.560
 9362TIP3    H128029   7.436   4.827   4.467
 9362TIP3    H228030   7.533   4.766   4.567
 9363TIP3   OH228031   6.102   4.334   3.927
 9363TIP3    H128032   6.123   4.284   4.007
 9363TIP3    H228033   6.109   4.425   3.954
 9364TIP3   OH228034   2.588   5.926   4.469
 9364TIP3    H128035   2.593   6.017   4.440
 9364TIP3    H228036   2.668   5.914   4.522
 9365TIP3   OH228037   8.198   2.339   0.570
 9365TIP3    H128038   8.109   2.310   0.551
 9365TIP3    H228039   8.191   2.385   0.653
 9366TIP3   OH228040   3.211   2.940   0.619
 9366TIP3    H128041   3.249   2.992   0.689
 9366TIP3    H228042   3.119   2.966   0.616
 9367TIP3   OH228043   3.215   6.043   2.192
 9367TIP3    H128044   3.265   5.982   2.138
 9367TIP3    H228045   3.279   6.104   2.227
 9368TIP3   OH228046   4.099   2.799   5.924
 9368TIP3    H128047   4.183   2.787   5.970
 9368TIP3    H228048   4.080   2.892   5.935
 9369TIP3   OH228049   2.801   3.078   0.503
 9369TIP3    H128050   2.841   3.067   0.589
 9369TIP3    H228051   2.721   3.026   0.507
 9370TIP3   OH228052   4.115   4.924   5.757
 9370TIP3    H128053   4.199   4.910   5.712
 9370TIP3    H228054   4.119   4.867   5.834
 9371TIP3   OH228055   4.200   6.959   5.398
 9371TIP3    H128056   4.272   6.962   5.335
 9371TIP3    H228057   4.141   7.029   5.370
 9372TIP3   OH228058   1.912   4.241   3.824
 9372TIP3    H128059   1.934   4.175   3.758
 9372TIP3    H228060   1.850   4.300   3.779
 9373TIP3   OH228061   3.484   3.603   1.192
 9373TIP3    H128062   3.397   3.565   1.180
 9373TIP3    H228063   3.516   3.620   1.104
 9374TIP3   OH228064   4.583   1.059   3.285
 9374TIP3    H128065   4.587   1.091   3.195
 9374TIP3    H228066   4.515   0.991   3.283
 9375TIP3   OH228067   6.412   6.964   3.093
 9375TIP3    H128068   6.425   7.059   3.092
 9375TIP3    H228069   6.319   6.953   3.111
 9376TIP3   OH228070   5.667   3.599   4.691
 9376TIP3    H128071   5.735   3.553   4.642
 9376TIP3    H228072   5.631   3.533   4.751
 9377TIP3   OH228073  -0.026   2.782   3.586
 9377TIP3    H128074  -0.012   2.715   3.519
 9377TIP3    H228075  -0.101   2.750   3.637
 9378TIP3   OH228076   0.152   1.363   4.674
 9378TIP3    H128077   0.098   1.326   4.744
 9378TIP3    H228078   0.242   1.344   4.699
 9379TIP3   OH228079   2.455   7.277   4.767
 9379TIP3    H128080   2.539   7.322   4.759
 9379TIP3    H228081   2.451   7.218   4.692
 9380TIP3   OH228082   2.907   3.754   2.006
 9380TIP3    H128083   2.916   3.849   1.999
 9380TIP3    H228084   2.885   3.738   2.098
 9381TIP3   OH228085   1.983   1.804   4.431
 9381TIP3    H128086   1.966   1.816   4.524
 9381TIP3    H228087   2.067   1.758   4.427
 9382TIP3   OH228088   4.134   7.239   1.917
 9382TIP3    H128089   4.045   7.231   1.882
 9382TIP3    H228090   4.183   7.286   1.850
 9383TIP3   OH228091   1.118   6.273   4.932
 9383TIP3    H128092   1.204   6.252   4.894
 9383TIP3    H228093   1.135   6.349   4.987
 9384TIP3   OH228094   8.273   7.671  -0.002
 9384TIP3    H128095   8.198   7.665   0.057
 9384TIP3    H228096   8.242   7.631  -0.084
 9385TIP3   OH228097   4.735   0.470   0.327
 9385TIP3    H128098   4.656   0.433   0.287
 9385TIP3    H228099   4.796   0.397   0.332
 9386TIP3   OH228100   5.385   0.302   1.952
 9386TIP3    H128101   5.474   0.310   1.918
 9386TIP3    H228102   5.331   0.348   1.887
 9387TIP3   OH228103   3.793   2.655   3.716
 9387TIP3    H128104   3.721   2.633   3.657
 9387TIP3    H228105   3.865   2.678   3.658
 9388TIP3   OH228106   0.540   3.518   6.652
 9388TIP3    H128107   0.458   3.470   6.649
 9388TIP3    H228108   0.547   3.550   6.742
 9389TIP3   OH228109   2.657  -0.009   2.825
 9389TIP3    H128110   2.600   0.036   2.887
 9389TIP3    H228111   2.644   0.037   2.742
 9390TIP3   OH228112   4.222   0.878   0.346
 9390TIP3    H128113   4.186   0.949   0.399
 9390TIP3    H228114   4.190   0.798   0.387
 9391TIP3   OH228115   2.075   4.368   1.362
 9391TIP3    H128116   2.083   4.291   1.307
 9391TIP3    H228117   2.000   4.350   1.419
 9392TIP3   OH228118   4.724   7.017   4.620
 9392TIP3    H128119   4.721   7.008   4.715
 9392TIP3    H228120   4.754   7.106   4.605
 9393TIP3   OH228121   1.437   6.157   5.491
 9393TIP3    H128122   1.360   6.102   5.504
 9393TIP3    H228123   1.471   6.171   5.580
 9394TIP3   OH228124   5.267   5.949   3.873
 9394TIP3    H128125   5.334   5.928   3.937
 9394TIP3    H228126   5.218   6.022   3.911
 9395TIP3   OH228127   0.733   1.101   0.476
 9395TIP3    H128128   0.706   1.010   0.490
 9395TIP3    H228129   0.808   1.112   0.535
 9396TIP3   OH228130   6.382   0.725   1.282
 9396TIP3    H128131   6.445   0.720   1.210
 9396TIP3    H228132   6.384   0.639   1.323
 9397TIP3   OH228133   4.940   1.010  -0.028
 9397TIP3    H128134   4.997   0.974  -0.097
 9397TIP3    H228135   4.864   0.952  -0.028
 9398TIP3   OH228136   2.898   3.845   6.555
 9398TIP3    H128137   2.920   3.817   6.466
 9398TIP3    H228138   2.803   3.859   6.553
 9399TIP3   OH228139   0.066   1.018   3.719
 9399TIP3    H128140   0.037   0.952   3.656
 9399TIP3    H228141   0.028   0.991   3.802
 9400TIP3   OH228142   2.516   6.583   4.859
 9400TIP3    H128143   2.470   6.516   4.909
 9400TIP3    H228144   2.552   6.642   4.926
 9401TIP3   OH228145   4.484   0.253   5.247
 9401TIP3    H128146   4.559   0.313   5.238
 9401TIP3    H228147   4.447   0.274   5.333
 9402TIP3   OH228148   0.482   4.174   1.768
 9402TIP3    H128149   0.479   4.219   1.852
 9402TIP3    H228150   0.448   4.237   1.705
 9403TIP3   OH228151   3.596   2.909   2.291
 9403TIP3    H128152   3.535   2.950   2.352
 9403TIP3    H228153   3.648   2.981   2.257
 9404TIP3   OH228154   7.998   3.372   2.780
 9404TIP3    H128155   7.965   3.383   2.869
 9404TIP3    H228156   8.088   3.405   2.783
 9405TIP3   OH228157   6.156   0.877   3.203
 9405TIP3    H128158   6.068   0.866   3.166
 9405TIP3    H228159   6.140   0.904   3.294
 9406TIP3   OH228160   3.034   3.426   0.434
 9406TIP3    H128161   2.940   3.430   0.451
 9406TIP3    H228162   3.062   3.345   0.477
 9407TIP3   OH228163   1.123   6.039   3.609
 9407TIP3    H128164   1.142   6.079   3.524
 9407TIP3    H228165   1.208   6.022   3.648
 9408TIP3   OH228166   3.867   1.683   3.804
 9408TIP3    H128167   3.849   1.591   3.783
 9408TIP3    H228168   3.940   1.680   3.866
 9409TIP3   OH228169   4.346   1.811   1.610
 9409TIP3    H128170   4.414   1.781   1.549
 9409TIP3    H228171   4.280   1.853   1.554
 9410TIP3   OH228172   3.683   7.416   0.429
 9410TIP3    H128173   3.756   7.436   0.487
 9410TIP3    H228174   3.630   7.353   0.477
 9411TIP3   OH228175   1.489   1.042   4.487
 9411TIP3    H128176   1.560   0.980   4.502
 9411TIP3    H228177   1.534   1.126   4.470
 9412TIP3   OH228178   5.248   4.325   5.285
 9412TIP3    H128179   5.318   4.260   5.273
 9412TIP3    H228180   5.287   4.407   5.255
 9413TIP3   OH228181   5.558   1.283   0.650
 9413TIP3    H128182   5.551   1.206   0.593
 9413TIP3    H228183   5.582   1.247   0.735
 9414TIP3   OH228184   4.783   0.845   3.424
 9414TIP3    H128185   4.862   0.883   3.463
 9414TIP3    H228186   4.772   0.892   3.341
 9415TIP3   OH228187   8.044   6.458   0.350
 9415TIP3    H128188   8.125   6.499   0.319
 9415TIP3    H228189   7.989   6.531   0.377
 9416TIP3   OH228190   0.908   5.978   1.475
 9416TIP3    H128191   0.992   5.969   1.429
 9416TIP3    H228192   0.842   5.971   1.406
 9417TIP3   OH228193   3.966   6.953   5.235
 9417TIP3    H128194   3.881   6.974   5.275
 9417TIP3    H228195   4.011   7.037   5.229
 9418TIP3   OH228196   1.973   6.926   2.719
 9418TIP3    H128197   2.036   6.855   2.709
 9418TIP3    H228198   1.911   6.895   2.785
 9419TIP3   OH228199   1.388   5.970   3.680
 9419TIP3    H128200   1.423   5.922   3.605
 9419TIP3    H228201   1.463   6.018   3.715
 9420TIP3   OH228202   8.199   2.006   4.998
 9420TIP3    H128203   8.214   1.922   5.041
 9420TIP3    H228204   8.134   1.986   4.930
 9421TIP3   OH228205   3.732   3.974   6.687
 9421TIP3    H128206   3.693   3.904   6.635
 9421TIP3    H228207   3.662   4.038   6.698
 9422TIP3   OH228208   3.019   6.807   2.155
 9422TIP3    H128209   3.041   6.876   2.093
 9422TIP3    H228210   3.103   6.771   2.183
 9423TIP3   OH228211   4.013   1.336   1.898
 9423TIP3    H128212   3.931   1.299   1.864
 9423TIP3    H228213   4.082   1.295   1.847
 9424TIP3   OH228214   2.848   3.306   4.635
 9424TIP3    H128215   2.849   3.333   4.543
 9424TIP3    H228216   2.792   3.229   4.637
 9425TIP3   OH228217   5.088   6.512   5.021
 9425TIP3    H128218   5.019   6.574   5.046
 9425TIP3    H228219   5.041   6.439   4.980
 9426TIP3   OH228220   5.971   3.771   3.471
 9426TIP3    H128221   5.985   3.755   3.565
 9426TIP3    H228222   5.920   3.696   3.441
 9427TIP3   OH228223   0.269   2.830   4.108
 9427TIP3    H128224   0.243   2.847   4.017
 9427TIP3    H228225   0.336   2.763   4.101
 9428TIP3   OH228226   3.352   0.194   1.247
 9428TIP3    H128227   3.388   0.128   1.187
 9428TIP3    H228228   3.303   0.253   1.191
 9429TIP3   OH228229   7.559   5.483   1.658
 9429TIP3    H128230   7.498   5.551   1.687
 9429TIP3    H228231   7.546   5.411   1.720
 9430TIP3   OH228232   1.374   6.743   5.324
 9430TIP3    H128233   1.343   6.743   5.233
 9430TIP3    H228234   1.462   6.779   5.319
 9431TIP3   OH228235   4.986   7.503   1.226
 9431TIP3    H128236   4.915   7.496   1.162
 9431TIP3    H228237   5.034   7.420   1.218
 9432TIP3   OH228238   4.926   3.443   5.870
 9432TIP3    H128239   4.993   3.403   5.814
 9432TIP3    H228240   4.849   3.387   5.860
 9433TIP3   OH228241   2.623   3.233   3.128
 9433TIP3    H128242   2.615   3.312   3.074
 9433TIP3    H228243   2.543   3.184   3.111
 9434TIP3   OH228244   4.962   3.873   0.347
 9434TIP3    H128245   5.040   3.820   0.362
 9434TIP3    H228246   4.970   3.945   0.409
 9435TIP3   OH228247   4.562   4.085   3.438
 9435TIP3    H128248   4.518   4.160   3.479
 9435TIP3    H228249   4.641   4.073   3.490
 9436TIP3   OH228250   4.739   5.434   3.291
 9436TIP3    H128251   4.774   5.376   3.359
 9436TIP3    H228252   4.810   5.496   3.273
 9437TIP3   OH228253   3.355   0.582   1.629
 9437TIP3    H128254   3.266   0.616   1.620
 9437TIP3    H228255   3.393   0.635   1.700
 9438TIP3   OH228256   4.153   4.347   3.930
 9438TIP3    H128257   4.079   4.359   3.990
 9438TIP3    H228258   4.124   4.391   3.849
 9439TIP3   OH228259   4.222   5.513   4.065
 9439TIP3    H128260   4.162   5.438   4.062
 9439TIP3    H228261   4.261   5.515   3.978
 9440TIP3   OH228262   2.728   2.765   2.985
 9440TIP3    H128263   2.749   2.712   3.062
 9440TIP3    H228264   2.637   2.791   2.999
 9441TIP3   OH228265   8.228   4.566   3.686
 9441TIP3    H128266   8.259   4.649   3.721
 9441TIP3    H228267   8.146   4.588   3.641
 9442TIP3   OH228268   5.537   5.826   0.242
 9442TIP3    H128269   5.486   5.770   0.184
 9442TIP3    H228270   5.472   5.868   0.298
 9443TIP3   OH228271   7.200   1.476   0.612
 9443TIP3    H128272   7.149   1.395   0.604
 9443TIP3    H228273   7.142   1.536   0.660
 9444TIP3   OH228274   4.635   7.353   0.367
 9444TIP3    H128275   4.607   7.338   0.457
 9444TIP3    H228276   4.559   7.392   0.324
 9445TIP3   OH228277   6.631   3.827   0.625
 9445TIP3    H128278   6.616   3.920   0.607
 9445TIP3    H228279   6.587   3.811   0.709
 9446TIP3   OH228280   7.766   3.520   5.594
 9446TIP3    H128281   7.758   3.438   5.643
 9446TIP3    H228282   7.792   3.493   5.505
 9447TIP3   OH228283   4.123   0.817   5.009
 9447TIP3    H128284   4.179   0.755   4.962
 9447TIP3    H228285   4.184   0.875   5.054
 9448TIP3   OH228286   1.370   0.759   4.040
 9448TIP3    H128287   1.295   0.716   4.081
 9448TIP3    H228288   1.401   0.820   4.107
 9449TIP3   OH228289   0.663   1.926   2.651
 9449TIP3    H128290   0.663   2.017   2.680
 9449TIP3    H228291   0.675   1.875   2.732
 9450TIP3   OH228292   5.702   3.753   0.476
 9450TIP3    H128293   5.611   3.728   0.460
 9450TIP3    H228294   5.753   3.677   0.448
 9451TIP3   OH228295   5.690   4.192   5.262
 9451TIP3    H128296   5.756   4.202   5.193
 9451TIP3    H228297   5.687   4.278   5.304
 9452TIP3   OH228298   0.676  -0.023   0.256
 9452TIP3    H128299   0.765  -0.005   0.286
 9452TIP3    H228300   0.678  -0.113   0.225
 9453TIP3   OH228301   1.067   6.182   5.204
 9453TIP3    H128302   1.007   6.172   5.130
 9453TIP3    H228303   1.152   6.156   5.170
 9454TIP3   OH228304   2.292   6.931   4.423
 9454TIP3    H128305   2.293   6.971   4.336
 9454TIP3    H228306   2.342   6.992   4.478
 9455TIP3   OH228307   5.931   0.555   6.002
 9455TIP3    H128308   5.938   0.554   6.097
 9455TIP3    H228309   5.928   0.463   5.976
 9456TIP3   OH228310   6.906   0.374   5.734
 9456TIP3    H128311   6.944   0.419   5.810
 9456TIP3    H228312   6.908   0.439   5.664
 9457TIP3   OH228313   0.156   2.243   3.159
 9457TIP3    H128314   0.088   2.189   3.118
 9457TIP3    H228315   0.235   2.226   3.107
 9458TIP3   OH228316   5.107   4.693   1.494
 9458TIP3    H128317   5.106   4.699   1.590
 9458TIP3    H228318   5.082   4.781   1.464
 9459TIP3   OH228319   7.901   5.516   4.126
 9459TIP3    H128320   7.826   5.530   4.184
 9459TIP3    H228321   7.864   5.524   4.038
 9460TIP3   OH228322   4.944   3.269   2.613
 9460TIP3    H128323   4.885   3.338   2.581
 9460TIP3    H228324   4.897   3.188   2.596
 9461TIP3   OH228325   7.422   2.702   5.750
 9461TIP3    H128326   7.371   2.781   5.734
 9461TIP3    H228327   7.377   2.634   5.699
 9462TIP3   OH228328   3.620   3.565   0.657
 9462TIP3    H128329   3.691   3.520   0.612
 9462TIP3    H228330   3.567   3.604   0.587
 9463TIP3   OH228331   7.636   4.597   5.696
 9463TIP3    H128332   7.654   4.684   5.731
 9463TIP3    H228333   7.625   4.612   5.602
 9464TIP3   OH228334   7.048   1.981   1.020
 9464TIP3    H128335   7.104   2.003   1.095
 9464TIP3    H228336   7.100   1.919   0.969
 9465TIP3   OH228337   5.365   7.252   4.718
 9465TIP3    H128338   5.391   7.344   4.718
 9465TIP3    H228339   5.327   7.237   4.632
 9466TIP3   OH228340   0.761   3.356   6.289
 9466TIP3    H128341   0.777   3.402   6.372
 9466TIP3    H228342   0.667   3.338   6.290
 9467TIP3   OH228343   4.003   4.399   5.981
 9467TIP3    H128344   3.934   4.417   5.917
 9467TIP3    H228345   4.053   4.480   5.987
 9468TIP3   OH228346   3.060   6.878   4.322
 9468TIP3    H128347   3.080   6.785   4.327
 9468TIP3    H228348   3.119   6.913   4.255
 9469TIP3   OH228349   0.163   7.761   6.049
 9469TIP3    H128350   0.143   7.702   6.122
 9469TIP3    H228351   0.259   7.760   6.042
 9470TIP3   OH228352   1.801   1.198   1.348
 9470TIP3    H128353   1.781   1.166   1.260
 9470TIP3    H228354   1.858   1.132   1.386
 9471TIP3   OH228355   3.449   0.690   0.350
 9471TIP3    H128356   3.526   0.743   0.369
 9471TIP3    H228357   3.375   0.747   0.371
 9472TIP3   OH228358   3.615   4.345   2.964
 9472TIP3    H128359   3.531   4.381   2.935
 9472TIP3    H228360   3.622   4.261   2.919
 9473TIP3   OH228361   6.189   3.292   4.200
 9473TIP3    H128362   6.257   3.268   4.263
 9473TIP3    H228363   6.213   3.247   4.119
 9474TIP3   OH228364   7.415   1.448   3.858
 9474TIP3    H128365   7.494   1.483   3.817
 9474TIP3    H228366   7.432   1.455   3.952
 9475TIP3   OH228367   2.833   7.370   0.537
 9475TIP3    H128368   2.824   7.463   0.560
 9475TIP3    H228369   2.838   7.369   0.441
 9476TIP3   OH228370   2.039   1.600   1.809
 9476TIP3    H128371   1.952   1.559   1.806
 9476TIP3    H228372   2.023   1.692   1.791
 9477TIP3   OH228373   4.372   1.406   3.355
 9477TIP3    H128374   4.334   1.470   3.294
 9477TIP3    H228375   4.356   1.321   3.313
 9478TIP3   OH228376   4.762   3.109   6.300
 9478TIP3    H128377   4.791   3.065   6.381
 9478TIP3    H228378   4.694   3.169   6.329
 9479TIP3   OH228379   2.301   5.002   5.230
 9479TIP3    H128380   2.327   4.998   5.138
 9479TIP3    H228381   2.360   5.066   5.269
 9480TIP3   OH228382   0.615   4.937   2.850
 9480TIP3    H128383   0.600   4.961   2.759
 9480TIP3    H228384   0.533   4.956   2.895
 9481TIP3   OH228385   0.549   1.323   2.295
 9481TIP3    H128386   0.634   1.366   2.289
 9481TIP3    H228387   0.514   1.326   2.206
 9482TIP3   OH228388   5.395   0.676   1.519
 9482TIP3    H128389   5.473   0.729   1.502
 9482TIP3    H228390   5.424   0.586   1.502
 9483TIP3   OH228391   4.014   1.507   3.369
 9483TIP3    H128392   4.088   1.566   3.355
 9483TIP3    H228393   4.033   1.464   3.452
 9484TIP3   OH228394   6.418   4.401   6.011
 9484TIP3    H128395   6.393   4.333   5.947
 9484TIP3    H228396   6.514   4.397   6.013
 9485TIP3   OH228397   3.575   1.823   3.275
 9485TIP3    H128398   3.538   1.911   3.285
 9485TIP3    H228399   3.532   1.788   3.196
 9486TIP3   OH228400   5.695   6.937   2.774
 9486TIP3    H128401   5.611   6.982   2.781
 9486TIP3    H228402   5.732   6.970   2.692
 9487TIP3   OH228403   7.483   4.545   0.537
 9487TIP3    H128404   7.423   4.599   0.588
 9487TIP3    H228405   7.500   4.469   0.592
 9488TIP3   OH228406   6.717   4.479   2.138
 9488TIP3    H128407   6.741   4.447   2.225
 9488TIP3    H228408   6.624   4.500   2.146
 9489TIP3   OH228409   7.282   1.556   6.788
 9489TIP3    H128410   7.326   1.639   6.769
 9489TIP3    H228411   7.191   1.571   6.765
 9490TIP3   OH228412   2.080   3.553   5.311
 9490TIP3    H128413   1.997   3.590   5.280
 9490TIP3    H228414   2.090   3.473   5.260
 9491TIP3   OH228415   1.372   6.122   5.227
 9491TIP3    H128416   1.426   6.150   5.301
 9491TIP3    H228417   1.434   6.114   5.154
 9492TIP3   OH228418   6.824   6.659   5.197
 9492TIP3    H128419   6.816   6.594   5.128
 9492TIP3    H228420   6.918   6.664   5.215
 9493TIP3   OH228421   6.139   2.269   4.057
 9493TIP3    H128422   6.079   2.266   4.131
 9493TIP3    H228423   6.217   2.314   4.090
 9494TIP3   OH228424   2.642   4.067   2.238
 9494TIP3    H128425   2.625   4.006   2.167
 9494TIP3    H228426   2.566   4.125   2.239
 9495TIP3   OH228427   5.181   1.496   2.209
 9495TIP3    H128428   5.117   1.428   2.230
 9495TIP3    H228429   5.136   1.578   2.231
 9496TIP3   OH228430   3.988   5.032   0.073
 9496TIP3    H128431   4.054   4.963   0.073
 9496TIP3    H228432   3.908   4.989   0.104
 9497TIP3   OH228433   3.651   6.438   1.364
 9497TIP3    H128434   3.663   6.375   1.434
 9497TIP3    H228435   3.594   6.505   1.401
 9498TIP3   OH228436   6.431   5.910   0.687
 9498TIP3    H128437   6.394   5.839   0.740
 9498TIP3    H228438   6.476   5.865   0.616
 9499TIP3   OH228439   7.550   4.559   1.421
 9499TIP3    H128440   7.540   4.465   1.406
 9499TIP3    H228441   7.645   4.571   1.432
 9500TIP3   OH228442   4.978   2.899   5.068
 9500TIP3    H128443   4.883   2.894   5.078
 9500TIP3    H228444   5.004   2.813   5.037
 9501TIP3   OH228445   2.980   1.838   5.826
 9501TIP3    H128446   3.048   1.893   5.866
 9501TIP3    H228447   2.963   1.770   5.892
 9502TIP3   OH228448   6.451   5.248   2.072
 9502TIP3    H128449   6.498   5.173   2.107
 9502TIP3    H228450   6.424   5.298   2.149
 9503TIP3   OH228451   7.758   1.770   3.141
 9503TIP3    H128452   7.732   1.825   3.067
 9503TIP3    H228453   7.687   1.782   3.204
 9504TIP3   OH228454   5.098   3.219   4.106
 9504TIP3    H128455   5.131   3.177   4.185
 9504TIP3    H228456   5.131   3.308   4.110
 9505TIP3   OH228457   0.222   1.971   1.567
 9505TIP3    H128458   0.140   1.980   1.518
 9505TIP3    H228459   0.280   2.036   1.529
 9506TIP3   OH228460   6.243   7.097   2.897
 9506TIP3    H128461   6.329   7.075   2.861
 9506TIP3    H228462   6.193   7.015   2.891
 9507TIP3   OH228463   1.399   0.492   5.891
 9507TIP3    H128464   1.461   0.469   5.961
 9507TIP3    H228465   1.376   0.583   5.908
 9508TIP3   OH228466   6.952   0.245   3.674
 9508TIP3    H128467   7.031   0.263   3.623
 9508TIP3    H228468   6.974   0.269   3.764
 9509TIP3   OH228469   0.333   5.132   4.557
 9509TIP3    H128470   0.336   5.060   4.494
 9509TIP3    H228471   0.424   5.162   4.564
 9510TIP3   OH228472   7.728   4.390   1.184
 9510TIP3    H128473   7.663   4.326   1.154
 9510TIP3    H228474   7.724   4.460   1.120
 9511TIP3   OH228475   2.390   6.899   0.430
 9511TIP3    H128476   2.367   6.808   0.412
 9511TIP3    H228477   2.474   6.912   0.385
 9512TIP3   OH228478   3.530   1.969   4.606
 9512TIP3    H128479   3.530   2.059   4.572
 9512TIP3    H228480   3.472   1.972   4.682
 9513TIP3   OH228481   8.332   1.351   4.274
 9513TIP3    H128482   8.262   1.413   4.292
 9513TIP3    H228483   8.339   1.348   4.179
 9514TIP3   OH228484   5.806   0.870   5.728
 9514TIP3    H128485   5.778   0.785   5.763
 9514TIP3    H228486   5.865   0.906   5.794
 9515TIP3   OH228487   5.116   2.430   6.039
 9515TIP3    H128488   5.088   2.347   6.077
 9515TIP3    H228489   5.110   2.417   5.944
 9516TIP3   OH228490   2.064   6.702   0.491
 9516TIP3    H128491   2.018   6.618   0.485
 9516TIP3    H228492   2.143   6.689   0.438
 9517TIP3   OH228493   4.816   1.796   3.219
 9517TIP3    H128494   4.726   1.814   3.191
 9517TIP3    H228495   4.813   1.706   3.252
 9518TIP3   OH228496   7.934   7.002   3.718
 9518TIP3    H128497   8.010   7.032   3.768
 9518TIP3    H228498   7.931   7.059   3.641
 9519TIP3   OH228499   8.114   0.702   1.500
 9519TIP3    H128500   8.144   0.785   1.535
 9519TIP3    H228501   8.019   0.713   1.491
 9520TIP3   OH228502   8.074   6.835   4.970
 9520TIP3    H128503   8.111   6.910   5.017
 9520TIP3    H228504   8.083   6.858   4.877
 9521TIP3   OH228505   5.534   4.909   3.348
 9521TIP3    H128506   5.594   4.834   3.344
 9521TIP3    H228507   5.465   4.881   3.408
 9522TIP3   OH228508   4.370   7.397   3.718
 9522TIP3    H128509   4.335   7.486   3.711
 9522TIP3    H228510   4.445   7.396   3.659
 9523TIP3   OH228511   4.100   6.460   0.837
 9523TIP3    H128512   4.191   6.432   0.838
 9523TIP3    H228513   4.096   6.529   0.771
 9524TIP3   OH228514   6.426   3.527   4.463
 9524TIP3    H128515   6.442   3.438   4.430
 9524TIP3    H228516   6.408   3.515   4.556
 9525TIP3   OH228517   2.032   7.045   4.875
 9525TIP3    H128518   2.046   7.114   4.939
 9525TIP3    H228519   2.024   7.091   4.791
 9526TIP3   OH228520   2.597   5.291   5.541
 9526TIP3    H128521   2.606   5.376   5.584
 9526TIP3    H228522   2.624   5.227   5.608
 9527TIP3   OH228523   3.486   5.134   5.384
 9527TIP3    H128524   3.533   5.059   5.348
 9527TIP3    H228525   3.551   5.205   5.384
 9528TIP3   OH228526   8.210   7.875   3.155
 9528TIP3    H128527   8.191   7.781   3.152
 9528TIP3    H228528   8.247   7.888   3.242
 9529TIP3   OH228529   5.602   6.916   3.122
 9529TIP3    H128530   5.635   6.991   3.172
 9529TIP3    H228531   5.507   6.931   3.116
 9530TIP3   OH228532   7.272   2.449   0.873
 9530TIP3    H128533   7.358   2.413   0.851
 9530TIP3    H228534   7.289   2.539   0.901
 9531TIP3   OH228535   6.710   3.148   5.640
 9531TIP3    H128536   6.748   3.076   5.691
 9531TIP3    H228537   6.785   3.197   5.609
 9532TIP3   OH228538   0.293   7.274   5.713
 9532TIP3    H128539   0.307   7.367   5.731
 9532TIP3    H228540   0.198   7.266   5.701
 9533TIP3   OH228541   0.499   4.492   4.143
 9533TIP3    H128542   0.594   4.488   4.151
 9533TIP3    H228543   0.484   4.553   4.070
 9534TIP3   OH228544   2.908   2.775   5.033
 9534TIP3    H128545   2.856   2.718   5.091
 9534TIP3    H228546   2.934   2.848   5.089
 9535TIP3   OH228547   6.402   6.505   3.993
 9535TIP3    H128548   6.376   6.586   4.037
 9535TIP3    H228549   6.370   6.435   4.050
 9536TIP3   OH228550   3.408   5.950   6.294
 9536TIP3    H128551   3.358   5.871   6.273
 9536TIP3    H228552   3.343   6.021   6.291
 9537TIP3   OH228553   1.322   1.439   3.268
 9537TIP3    H128554   1.332   1.516   3.325
 9537TIP3    H228555   1.228   1.431   3.254
 9538TIP3   OH228556   7.129   0.156   0.661
 9538TIP3    H128557   7.094   0.148   0.572
 9538TIP3    H228558   7.190   0.229   0.656
 9539TIP3   OH228559   7.581   4.486   4.462
 9539TIP3    H128560   7.491   4.460   4.480
 9539TIP3    H228561   7.574   4.550   4.391
 9540TIP3   OH228562   3.216   6.853   3.518
 9540TIP3    H128563   3.287   6.829   3.459
 9540TIP3    H228564   3.197   6.772   3.566
 9541TIP3   OH228565   4.259   1.570   3.174
 9541TIP3    H128566   4.196   1.535   3.111
 9541TIP3    H228567   4.216   1.647   3.212
 9542TIP3   OH228568   6.226   3.723   1.267
 9542TIP3    H128569   6.139   3.728   1.228
 9542TIP3    H228570   6.285   3.736   1.192
 9543TIP3   OH228571   4.225   6.177   3.771
 9543TIP3    H128572   4.307   6.190   3.723
 9543TIP3    H228573   4.194   6.265   3.789
 9544TIP3   OH228574   1.217   4.239   1.148
 9544TIP3    H128575   1.211   4.147   1.175
 9544TIP3    H228576   1.235   4.234   1.054
 9545TIP3   OH228577   1.322   6.569   5.856
 9545TIP3    H128578   1.417   6.574   5.867
 9545TIP3    H228579   1.310   6.507   5.784
 9546TIP3   OH228580   6.323   3.333   3.209
 9546TIP3    H128581   6.295   3.415   3.248
 9546TIP3    H228582   6.351   3.356   3.121
 9547TIP3   OH228583   1.197   5.816   1.095
 9547TIP3    H128584   1.145   5.893   1.071
 9547TIP3    H228585   1.232   5.837   1.182
 9548TIP3   OH228586   1.521   1.018   2.570
 9548TIP3    H128587   1.474   0.991   2.649
 9548TIP3    H228588   1.473   1.093   2.537
 9549TIP3   OH228589   4.717   3.458   2.633
 9549TIP3    H128590   4.673   3.385   2.678
 9549TIP3    H228591   4.647   3.522   2.617
 9550TIP3   OH228592   4.678   5.729   1.353
 9550TIP3    H128593   4.755   5.748   1.299
 9550TIP3    H228594   4.714   5.684   1.430
 9551TIP3   OH228595   5.266   6.591   6.117
 9551TIP3    H128596   5.259   6.662   6.180
 9551TIP3    H228597   5.197   6.609   6.053
 9552TIP3   OH228598   0.885   4.521   5.536
 9552TIP3    H128599   0.936   4.515   5.455
 9552TIP3    H228600   0.943   4.566   5.598
 9553TIP3   OH228601   3.490   7.524   1.740
 9553TIP3    H128602   3.461   7.599   1.794
 9553TIP3    H228603   3.423   7.517   1.672
 9554TIP3   OH228604   2.619   0.788   0.120
 9554TIP3    H128605   2.569   0.862   0.153
 9554TIP3    H228606   2.684   0.826   0.061
 9555TIP3   OH228607   1.953   2.928   4.647
 9555TIP3    H128608   1.860   2.949   4.654
 9555TIP3    H228609   1.998   3.006   4.678
 9556TIP3   OH228610   3.954   2.927   1.627
 9556TIP3    H128611   3.983   2.984   1.556
 9556TIP3    H228612   3.914   2.852   1.583
 9557TIP3   OH228613   1.259   4.661   6.317
 9557TIP3    H128614   1.185   4.704   6.359
 9557TIP3    H228615   1.219   4.597   6.258
 9558TIP3   OH228616   7.108   0.569   3.785
 9558TIP3    H128617   7.160   0.648   3.765
 9558TIP3    H228618   7.045   0.564   3.713
 9559TIP3   OH228619   4.800   4.113   1.980
 9559TIP3    H128620   4.751   4.166   1.917
 9559TIP3    H228621   4.732   4.071   2.033
 9560TIP3   OH228622   4.706   1.501   1.752
 9560TIP3    H128623   4.759   1.562   1.803
 9560TIP3    H228624   4.616   1.520   1.779
 9561TIP3   OH228625   7.565   3.776   0.583
 9561TIP3    H128626   7.608   3.790   0.498
 9561TIP3    H228627   7.537   3.685   0.581
 9562TIP3   OH228628   4.299   6.772   6.509
 9562TIP3    H128629   4.301   6.743   6.418
 9562TIP3    H228630   4.222   6.728   6.546
 9563TIP3   OH228631   0.740   4.568   6.562
 9563TIP3    H128632   0.700   4.654   6.553
 9563TIP3    H228633   0.834   4.584   6.550
 9564TIP3   OH228634   7.619   5.225   4.842
 9564TIP3    H128635   7.646   5.138   4.871
 9564TIP3    H228636   7.556   5.255   4.908
 9565TIP3   OH228637   2.968   4.896   2.589
 9565TIP3    H128638   2.899   4.918   2.526
 9565TIP3    H228639   2.988   4.804   2.571
 9566TIP3   OH228640   0.472   1.214   0.464
 9566TIP3    H128641   0.421   1.209   0.383
 9566TIP3    H228642   0.549   1.161   0.448
 9567TIP3   OH228643   3.336   4.626   3.605
 9567TIP3    H128644   3.382   4.544   3.589
 9567TIP3    H228645   3.358   4.681   3.530
 9568TIP3   OH228646   2.365   5.508   3.959
 9568TIP3    H128647   2.294   5.537   4.015
 9568TIP3    H228648   2.433   5.575   3.968
 9569TIP3   OH228649   5.875   2.314   5.477
 9569TIP3    H128650   5.958   2.338   5.519
 9569TIP3    H228651   5.891   2.329   5.384
 9570TIP3   OH228652   1.400   5.204   3.640
 9570TIP3    H128653   1.478   5.186   3.587
 9570TIP3    H228654   1.332   5.149   3.602
 9571TIP3   OH228655   0.898   1.242   3.628
 9571TIP3    H128656   0.961   1.314   3.633
 9571TIP3    H228657   0.928   1.179   3.694
 9572TIP3   OH228658   1.054   4.932   1.967
 9572TIP3    H128659   1.003   5.006   1.937
 9572TIP3    H228660   1.057   4.942   2.062
 9573TIP3   OH228661   8.279   6.589   5.968
 9573TIP3    H128662   8.362   6.563   6.007
 9573TIP3    H228663   8.290   6.570   5.875
 9574TIP3   OH228664   1.426   6.301   1.722
 9574TIP3    H128665   1.484   6.377   1.730
 9574TIP3    H228666   1.423   6.264   1.810
 9575TIP3   OH228667   3.348   4.967   0.659
 9575TIP3    H128668   3.269   4.916   0.675
 9575TIP3    H228669   3.411   4.904   0.623
 9576TIP3   OH228670   1.656   7.525   5.198
 9576TIP3    H128671   1.588   7.472   5.240
 9576TIP3    H228672   1.642   7.613   5.233
 9577TIP3   OH228673   6.857   6.372   4.604
 9577TIP3    H128674   6.875   6.457   4.563
 9577TIP3    H228675   6.768   6.379   4.637
 9578TIP3   OH228676   4.094   4.010   2.599
 9578TIP3    H128677   4.034   4.084   2.610
 9578TIP3    H228678   4.103   4.000   2.504
 9579TIP3   OH228679   7.645   4.458   0.300
 9579TIP3    H128680   7.679   4.431   0.385
 9579TIP3    H228681   7.678   4.393   0.238
 9580TIP3   OH228682   1.717   2.611   6.172
 9580TIP3    H128683   1.686   2.552   6.103
 9580TIP3    H228684   1.735   2.693   6.126
 9581TIP3   OH228685   2.984   2.311   6.409
 9581TIP3    H128686   3.025   2.227   6.391
 9581TIP3    H228687   3.009   2.367   6.336
 9582TIP3   OH228688   0.000   5.937   1.335
 9582TIP3    H128689  -0.020   5.945   1.429
 9582TIP3    H228690   0.095   5.930   1.332
 9583TIP3   OH228691   3.483   6.513   2.340
 9583TIP3    H128692   3.414   6.547   2.283
 9583TIP3    H228693   3.444   6.515   2.428
 9584TIP3   OH228694   5.466   6.487   3.875
 9584TIP3    H128695   5.418   6.455   3.951
 9584TIP3    H228696   5.528   6.551   3.910
 9585TIP3   OH228697   4.680   3.549   2.034
 9585TIP3    H128698   4.743   3.518   2.099
 9585TIP3    H228699   4.726   3.617   1.986
 9586TIP3   OH228700   7.524   1.327   2.626
 9586TIP3    H128701   7.617   1.352   2.628
 9586TIP3    H228702   7.480   1.402   2.585
 9587TIP3   OH228703   4.865   4.283   2.639
 9587TIP3    H128704   4.810   4.271   2.562
 9587TIP3    H228705   4.886   4.377   2.639
 9588TIP3   OH228706   0.876   1.232   4.130
 9588TIP3    H128707   0.849   1.184   4.208
 9588TIP3    H228708   0.950   1.285   4.159
 9589TIP3   OH228709   7.834   2.681   5.192
 9589TIP3    H128710   7.793   2.715   5.271
 9589TIP3    H228711   7.839   2.586   5.206
 9590TIP3   OH228712   8.048   2.324   0.055
 9590TIP3    H128713   7.964   2.369   0.052
 9590TIP3    H228714   8.040   2.252  -0.007
 9591TIP3   OH228715   1.614   5.041   0.250
 9591TIP3    H128716   1.635   5.135   0.244
 9591TIP3    H228717   1.518   5.038   0.251
 9592TIP3   OH228718   6.637   0.248   2.349
 9592TIP3    H128719   6.682   0.212   2.426
 9592TIP3    H228720   6.577   0.179   2.322
 9593TIP3   OH228721   0.692   6.623   3.609
 9593TIP3    H128722   0.698   6.623   3.513
 9593TIP3    H228723   0.776   6.586   3.637
 9594TIP3   OH228724   6.021   0.226   0.575
 9594TIP3    H128725   5.992   0.296   0.632
 9594TIP3    H228726   6.067   0.165   0.633
 9595TIP3   OH228727   6.413   7.354   1.458
 9595TIP3    H128728   6.440   7.291   1.526
 9595TIP3    H228729   6.488   7.412   1.449
 9596TIP3   OH228730   2.044   1.617   3.835
 9596TIP3    H128731   2.045   1.704   3.795
 9596TIP3    H228732   1.951   1.596   3.843
 9597TIP3   OH228733   3.353   0.705   6.539
 9597TIP3    H128734   3.440   0.670   6.517
 9597TIP3    H228735   3.368   0.755   6.619
 9598TIP3   OH228736   6.808   3.420   0.360
 9598TIP3    H128737   6.783   3.405   0.451
 9598TIP3    H228738   6.745   3.370   0.309
 9599TIP3   OH228739   1.771   4.939   0.455
 9599TIP3    H128740   1.826   5.014   0.481
 9599TIP3    H228741   1.712   4.974   0.389
 9600TIP3   OH228742   2.672   7.392   1.588
 9600TIP3    H128743   2.583   7.371   1.616
 9600TIP3    H228744   2.721   7.311   1.605
 9601TIP3   OH228745   5.592   6.804   0.980
 9601TIP3    H128746   5.599   6.882   0.924
 9601TIP3    H228747   5.664   6.813   1.042
 9602TIP3   OH228748   0.621   3.978   5.002
 9602TIP3    H128749   0.557   3.938   4.943
 9602TIP3    H228750   0.584   4.064   5.023
 9603TIP3   OH228751   6.847   4.335   6.516
 9603TIP3    H128752   6.941   4.353   6.509
 9603TIP3    H228753   6.828   4.276   6.443
 9604TIP3   OH228754   3.724   6.335   4.619
 9604TIP3    H128755   3.781   6.263   4.643
 9604TIP3    H228756   3.749   6.357   4.530
 9605TIP3   OH228757   3.429   3.096   3.641
 9605TIP3    H128758   3.348   3.051   3.662
 9605TIP3    H228759   3.415   3.132   3.553
 9606TIP3   OH228760   4.106   1.078   6.155
 9606TIP3    H128761   4.116   0.995   6.108
 9606TIP3    H228762   4.184   1.083   6.211
 9607TIP3   OH228763   7.482   3.674   5.081
 9607TIP3    H128764   7.564   3.647   5.122
 9607TIP3    H228765   7.503   3.758   5.039
 9608TIP3   OH228766   6.783   3.212   3.350
 9608TIP3    H128767   6.835   3.185   3.425
 9608TIP3    H228768   6.836   3.189   3.274
 9609TIP3   OH228769   1.605   6.650   1.676
 9609TIP3    H128770   1.645   6.565   1.693
 9609TIP3    H228771   1.670   6.697   1.623
 9610TIP3   OH228772   7.693   4.210   5.491
 9610TIP3    H128773   7.623   4.236   5.431
 9610TIP3    H228774   7.656   4.223   5.578
 9611TIP3   OH228775   3.007   7.407   3.176
 9611TIP3    H128776   3.025   7.368   3.091
 9611TIP3    H228777   3.048   7.348   3.239
 9612TIP3   OH228778   0.648   5.075   5.702
 9612TIP3    H128779   0.623   5.034   5.619
 9612TIP3    H228780   0.626   5.168   5.691
 9613TIP3   OH228781   3.844   1.434   2.448
 9613TIP3    H128782   3.875   1.375   2.379
 9613TIP3    H228783   3.764   1.473   2.413
 9614TIP3   OH228784   0.772   0.559   2.226
 9614TIP3    H128785   0.726   0.482   2.260
 9614TIP3    H228786   0.811   0.530   2.144
 9615TIP3   OH228787   0.748   2.591   6.682
 9615TIP3    H128788   0.803   2.663   6.654
 9615TIP3    H228789   0.807   2.532   6.729
 9616TIP3   OH228790   4.234   2.620   0.924
 9616TIP3    H128791   4.188   2.641   1.005
 9616TIP3    H228792   4.248   2.525   0.929
 9617TIP3   OH228793   0.942   4.828   1.413
 9617TIP3    H128794   1.005   4.839   1.485
 9617TIP3    H228795   0.955   4.738   1.383
 9618TIP3   OH228796   6.312   4.833   0.725
 9618TIP3    H128797   6.231   4.783   0.718
 9618TIP3    H228798   6.288   4.913   0.772
 9619TIP3   OH228799   7.596   0.673   2.491
 9619TIP3    H128800   7.509   0.632   2.489
 9619TIP3    H228801   7.624   0.664   2.582
 9620TIP3   OH228802   3.264   1.274   4.928
 9620TIP3    H128803   3.281   1.259   5.021
 9620TIP3    H228804   3.242   1.367   4.922
 9621TIP3   OH228805   7.872   5.867   2.479
 9621TIP3    H128806   7.967   5.861   2.468
 9621TIP3    H228807   7.838   5.791   2.431
 9622TIP3   OH228808   8.186   1.561   0.669
 9622TIP3    H128809   8.270   1.544   0.712
 9622TIP3    H228810   8.130   1.594   0.739
 9623TIP3   OH228811   0.962   1.550   3.813
 9623TIP3    H128812   1.038   1.492   3.814
 9623TIP3    H228813   0.892   1.499   3.853
 9624TIP3   OH228814   4.933   7.334   2.269
 9624TIP3    H128815   4.840   7.335   2.293
 9624TIP3    H228816   4.956   7.241   2.267
 9625TIP3   OH228817   6.157   7.076   0.085
 9625TIP3    H128818   6.168   6.997   0.139
 9625TIP3    H228819   6.076   7.061   0.037
 9626TIP3   OH228820   0.502   3.713   1.787
 9626TIP3    H128821   0.501   3.697   1.882
 9626TIP3    H228822   0.438   3.784   1.774
 9627TIP3   OH228823   6.302   7.398   4.373
 9627TIP3    H128824   6.249   7.448   4.312
 9627TIP3    H228825   6.333   7.463   4.436
 9628TIP3   OH228826   6.121   7.663   3.587
 9628TIP3    H128827   6.115   7.669   3.682
 9628TIP3    H228828   6.149   7.750   3.559
 9629TIP3   OH228829   3.087   5.014   5.694
 9629TIP3    H128830   3.175   5.043   5.721
 9629TIP3    H228831   3.093   5.006   5.599
 9630TIP3   OH228832   4.124   1.110   2.244
 9630TIP3    H128833   4.214   1.138   2.263
 9630TIP3    H228834   4.122   1.017   2.266
 9631TIP3   OH228835   7.711   5.621   2.408
 9631TIP3    H128836   7.695   5.592   2.498
 9631TIP3    H228837   7.624   5.643   2.375
 9632TIP3   OH228838   5.396   7.344   3.345
 9632TIP3    H128839   5.413   7.415   3.408
 9632TIP3    H228840   5.417   7.264   3.393
 9633TIP3   OH228841   1.570   3.897   4.760
 9633TIP3    H128842   1.560   3.988   4.732
 9633TIP3    H228843   1.657   3.894   4.800
 9634TIP3   OH228844   4.130   0.529   5.777
 9634TIP3    H128845   4.070   0.567   5.841
 9634TIP3    H228846   4.217   0.547   5.812
 9635TIP3   OH228847   6.555   7.154   1.674
 9635TIP3    H128848   6.586   7.183   1.760
 9635TIP3    H228849   6.633   7.121   1.630
 9636TIP3   OH228850   2.083   6.851   3.913
 9636TIP3    H128851   2.169   6.854   3.869
 9636TIP3    H228852   2.100   6.803   3.994
 9637TIP3   OH228853   6.626   3.017   2.106
 9637TIP3    H128854   6.663   2.960   2.038
 9637TIP3    H228855   6.605   3.098   2.060
 9638TIP3   OH228856   3.165   0.497   4.363
 9638TIP3    H128857   3.097   0.435   4.338
 9638TIP3    H228858   3.228   0.495   4.292
 9639TIP3   OH228859   4.037   4.751   3.079
 9639TIP3    H128860   4.078   4.822   3.030
 9639TIP3    H228861   4.105   4.683   3.083
 9640TIP3   OH228862   3.241   3.576   2.126
 9640TIP3    H128863   3.334   3.559   2.110
 9640TIP3    H228864   3.239   3.662   2.167
 9641TIP3   OH228865   7.704   6.273   2.645
 9641TIP3    H128866   7.702   6.190   2.693
 9641TIP3    H228867   7.615   6.307   2.653
 9642TIP3   OH228868   2.995   6.749   0.148
 9642TIP3    H128869   3.037   6.754   0.063
 9642TIP3    H228870   3.029   6.669   0.188
 9643TIP3   OH228871   7.636   3.033   3.573
 9643TIP3    H128872   7.681   2.963   3.525
 9643TIP3    H228873   7.545   3.003   3.578
 9644TIP3   OH228874   0.223   0.718   4.404
 9644TIP3    H128875   0.304   0.713   4.455
 9644TIP3    H228876   0.167   0.651   4.443
 9645TIP3   OH228877   7.087   0.330   2.128
 9645TIP3    H128878   7.090   0.235   2.136
 9645TIP3    H228879   6.994   0.351   2.135
 9646TIP3   OH228880   1.129   7.555   3.609
 9646TIP3    H128881   1.175   7.533   3.528
 9646TIP3    H228882   1.187   7.523   3.679
 9647TIP3   OH228883   2.611   4.021   3.318
 9647TIP3    H128884   2.634   4.102   3.273
 9647TIP3    H228885   2.549   4.049   3.385
 9648TIP3   OH228886   6.764   7.561   4.585
 9648TIP3    H128887   6.769   7.561   4.680
 9648TIP3    H228888   6.812   7.482   4.559
 9649TIP3   OH228889   4.684   1.543   4.889
 9649TIP3    H128890   4.629   1.608   4.844
 9649TIP3    H228891   4.763   1.591   4.912
 9650TIP3   OH228892   5.357   7.322   1.483
 9650TIP3    H128893   5.395   7.282   1.561
 9650TIP3    H228894   5.428   7.324   1.420
 9651TIP3   OH228895   3.690   6.942   3.094
 9651TIP3    H128896   3.763   6.926   3.033
 9651TIP3    H228897   3.684   7.037   3.100
 9652TIP3   OH228898   5.034   0.531   0.736
 9652TIP3    H128899   5.114   0.480   0.734
 9652TIP3    H228900   4.970   0.474   0.781
 9653TIP3   OH228901   6.591   3.679   4.330
 9653TIP3    H128902   6.620   3.749   4.389
 9653TIP3    H228903   6.532   3.625   4.384
 9654TIP3   OH228904   3.938   0.875   0.221
 9654TIP3    H128905   3.876   0.917   0.161
 9654TIP3    H228906   3.981   0.948   0.266
 9655TIP3   OH228907   5.049   4.420   4.265
 9655TIP3    H128908   4.985   4.452   4.202
 9655TIP3    H228909   5.109   4.366   4.214
 9656TIP3   OH228910   6.347   6.307   2.072
 9656TIP3    H128911   6.423   6.355   2.105
 9656TIP3    H228912   6.321   6.353   1.993
 9657TIP3   OH228913   4.405   2.663   1.381
 9657TIP3    H128914   4.498   2.646   1.365
 9657TIP3    H228915   4.375   2.587   1.431
 9658TIP3   OH228916   2.962   4.262   3.053
 9658TIP3    H128917   3.043   4.221   3.023
 9658TIP3    H228918   2.895   4.233   2.991
 9659TIP3   OH228919   3.559   1.285   6.539
 9659TIP3    H128920   3.579   1.244   6.455
 9659TIP3    H228921   3.602   1.229   6.604
 9660TIP3   OH228922   7.818   0.396   1.439
 9660TIP3    H128923   7.900   0.415   1.393
 9660TIP3    H228924   7.751   0.400   1.371
 9661TIP3   OH228925   4.700   6.709   4.863
 9661TIP3    H128926   4.734   6.637   4.812
 9661TIP3    H228927   4.606   6.693   4.868
 9662TIP3   OH228928   2.834   0.943   5.030
 9662TIP3    H128929   2.916   0.992   5.024
 9662TIP3    H228930   2.831   0.911   5.120
 9663TIP3   OH228931   6.643   5.067   4.251
 9663TIP3    H128932   6.677   5.149   4.216
 9663TIP3    H228933   6.681   5.060   4.338
 9664TIP3   OH228934   1.892   0.913   4.692
 9664TIP3    H128935   1.800   0.940   4.701
 9664TIP3    H228936   1.889   0.818   4.689
 9665TIP3   OH228937   5.807   1.380   1.776
 9665TIP3    H128938   5.737   1.330   1.818
 9665TIP3    H228939   5.865   1.313   1.738
 9666TIP3   OH228940   6.000   0.829   0.718
 9666TIP3    H128941   5.932   0.787   0.665
 9666TIP3    H228942   6.048   0.884   0.657
 9667TIP3   OH228943   6.590   3.976   3.309
 9667TIP3    H128944   6.641   4.037   3.363
 9667TIP3    H228945   6.582   4.020   3.224
 9668TIP3   OH228946   5.626   6.014   4.239
 9668TIP3    H128947   5.712   5.985   4.268
 9668TIP3    H228948   5.642   6.100   4.200
 9669TIP3   OH228949   3.268   2.371   2.710
 9669TIP3    H128950   3.283   2.451   2.759
 9669TIP3    H228951   3.355   2.341   2.685
 9670TIP3   OH228952   6.474   2.895   2.850
 9670TIP3    H128953   6.506   2.860   2.933
 9670TIP3    H228954   6.404   2.835   2.823
 9671TIP3   OH228955   2.534   5.934   1.711
 9671TIP3    H128956   2.603   5.880   1.751
 9671TIP3    H228957   2.493   5.979   1.784
 9672TIP3   OH228958   1.758   2.655   3.306
 9672TIP3    H128959   1.802   2.689   3.228
 9672TIP3    H228960   1.667   2.644   3.279
 9673TIP3   OH228961   1.719   6.987   5.573
 9673TIP3    H128962   1.813   6.973   5.567
 9673TIP3    H228963   1.704   7.071   5.529
 9674TIP3   OH228964   5.431   0.888   6.098
 9674TIP3    H128965   5.515   0.842   6.104
 9674TIP3    H228966   5.375   0.842   6.161
 9675TIP3   OH228967   4.391   5.226   2.034
 9675TIP3    H128968   4.355   5.138   2.019
 9675TIP3    H228969   4.455   5.214   2.104
 9676TIP3   OH228970   5.942   6.450   4.765
 9676TIP3    H128971   5.991   6.397   4.827
 9676TIP3    H228972   5.879   6.389   4.726
 9677TIP3   OH228973   3.844   0.483   3.315
 9677TIP3    H128974   3.786   0.429   3.369
 9677TIP3    H228975   3.932   0.460   3.345
 9678TIP3   OH228976   2.096   7.409   0.766
 9678TIP3    H128977   2.036   7.358   0.712
 9678TIP3    H228978   2.040   7.450   0.832
 9679TIP3   OH228979   1.910   0.745   5.461
 9679TIP3    H128980   1.868   0.823   5.497
 9679TIP3    H228981   1.987   0.731   5.516
 9680TIP3   OH228982   6.326   2.314   2.690
 9680TIP3    H128983   6.304   2.222   2.673
 9680TIP3    H228984   6.292   2.361   2.614
 9681TIP3   OH228985   4.269   6.079   2.180
 9681TIP3    H128986   4.343   6.038   2.223
 9681TIP3    H228987   4.192   6.033   2.214
 9682TIP3   OH228988   3.828   2.009   3.403
 9682TIP3    H128989   3.806   2.031   3.494
 9682TIP3    H228990   3.748   1.970   3.368
 9683TIP3   OH228991   7.985   7.268   6.327
 9683TIP3    H128992   8.062   7.318   6.299
 9683TIP3    H228993   7.991   7.186   6.277
 9684TIP3   OH228994   1.723   2.892   2.807
 9684TIP3    H128995   1.691   2.822   2.748
 9684TIP3    H228996   1.775   2.846   2.873
 9685TIP3   OH228997   2.478   5.653   4.542
 9685TIP3    H128998   2.434   5.597   4.478
 9685TIP3    H228999   2.468   5.742   4.507
 9686TIP3   OH229000   0.585   1.669   0.739
 9686TIP3    H129001   0.512   1.688   0.681
 9686TIP3    H229002   0.646   1.617   0.685
 9687TIP3   OH229003   0.963   1.050   6.504
 9687TIP3    H129004   1.031   1.028   6.567
 9687TIP3    H229005   0.913   0.969   6.493
 9688TIP3   OH229006   5.181   5.912   4.912
 9688TIP3    H129007   5.132   5.941   4.836
 9688TIP3    H229008   5.258   5.970   4.914
 9689TIP3   OH229009   2.477   7.481   2.573
 9689TIP3    H129010   2.500   7.565   2.534
 9689TIP3    H229011   2.387   7.464   2.544
 9690TIP3   OH229012   1.329   3.547   4.970
 9690TIP3    H129013   1.313   3.636   4.938
 9690TIP3    H229014   1.418   3.527   4.941
 9691TIP3   OH229015   2.024   7.673   5.933
 9691TIP3    H129016   1.967   7.597   5.945
 9691TIP3    H229017   2.077   7.653   5.856
 9692TIP3   OH229018   1.465   5.193   2.503
 9692TIP3    H129019   1.392   5.138   2.532
 9692TIP3    H229020   1.490   5.242   2.581
 9693TIP3   OH229021   1.215   1.379   1.575
 9693TIP3    H129022   1.213   1.321   1.652
 9693TIP3    H229023   1.307   1.404   1.567
 9694TIP3   OH229024   2.413   1.267   3.455
 9694TIP3    H129025   2.378   1.249   3.542
 9694TIP3    H229026   2.451   1.184   3.427
 9695TIP3   OH229027   0.581   5.292   4.696
 9695TIP3    H129028   0.593   5.229   4.767
 9695TIP3    H229029   0.668   5.327   4.679
 9696TIP3   OH229030   0.978   0.247   3.170
 9696TIP3    H129031   1.058   0.300   3.168
 9696TIP3    H229032   0.918   0.295   3.227
 9697TIP3   OH229033   3.876   0.111   6.421
 9697TIP3    H129034   3.903   0.190   6.468
 9697TIP3    H229035   3.780   0.113   6.423
 9698TIP3   OH229036   0.881   3.984   0.456
 9698TIP3    H129037   0.788   3.966   0.441
 9698TIP3    H229038   0.883   4.029   0.541
 9699TIP3   OH229039   2.116   6.559   4.731
 9699TIP3    H129040   2.153   6.646   4.744
 9699TIP3    H229041   2.152   6.506   4.802
 9700TIP3   OH229042   4.361   3.470   4.776
 9700TIP3    H129043   4.324   3.555   4.799
 9700TIP3    H229044   4.456   3.485   4.773
 9701TIP3   OH229045   1.344   7.729   5.259
 9701TIP3    H129046   1.420   7.754   5.207
 9701TIP3    H229047   1.315   7.810   5.300
 9702TIP3   OH229048   0.618   0.563   0.381
 9702TIP3    H129049   0.535   0.562   0.430
 9702TIP3    H229050   0.598   0.613   0.302
 9703TIP3   OH229051   5.176   6.997   3.706
 9703TIP3    H129052   5.187   7.091   3.717
 9703TIP3    H229053   5.265   6.962   3.704
 9704TIP3   OH229054   0.416   1.406   1.175
 9704TIP3    H129055   0.398   1.469   1.105
 9704TIP3    H229056   0.361   1.330   1.153
 9705TIP3   OH229057   4.629   5.743   0.764
 9705TIP3    H129058   4.596   5.655   0.747
 9705TIP3    H229059   4.627   5.752   0.859
 9706TIP3   OH229060   3.829   2.708   3.979
 9706TIP3    H129061   3.888   2.783   3.972
 9706TIP3    H229062   3.807   2.686   3.889
 9707TIP3   OH229063   4.613   4.513   0.850
 9707TIP3    H129064   4.518   4.501   0.848
 9707TIP3    H229065   4.648   4.428   0.876
 9708TIP3   OH229066   2.273   7.650   0.660
 9708TIP3    H129067   2.246   7.585   0.725
 9708TIP3    H229068   2.249   7.734   0.698
 9709TIP3   OH229069   4.804   6.093   2.467
 9709TIP3    H129070   4.800   5.999   2.485
 9709TIP3    H229071   4.855   6.129   2.539
 9710TIP3   OH229072   4.069   6.750   3.891
 9710TIP3    H129073   4.133   6.729   3.959
 9710TIP3    H229074   4.122   6.777   3.816
 9711TIP3   OH229075   7.754   7.789   1.737
 9711TIP3    H129076   7.810   7.863   1.760
 9711TIP3    H229077   7.667   7.827   1.727
 9712TIP3   OH229078   3.343   7.266   3.353
 9712TIP3    H129079   3.259   7.221   3.360
 9712TIP3    H229080   3.394   7.233   3.427
 9713TIP3   OH229081   3.699   6.757   3.325
 9713TIP3    H129082   3.656   6.823   3.272
 9713TIP3    H229083   3.776   6.800   3.362
 9714TIP3   OH229084   7.220   1.775   1.300
 9714TIP3    H129085   7.165   1.852   1.294
 9714TIP3    H229086   7.289   1.799   1.362
 9715TIP3   OH229087   7.654   0.087   3.284
 9715TIP3    H129088   7.688   0.053   3.201
 9715TIP3    H229089   7.715   0.156   3.309
 9716TIP3   OH229090   5.622   3.659   1.089
 9716TIP3    H129091   5.688   3.713   1.045
 9716TIP3    H229092   5.551   3.720   1.109
 9717TIP3   OH229093   6.520   2.618   5.849
 9717TIP3    H129094   6.429   2.595   5.833
 9717TIP3    H229095   6.569   2.540   5.822
 9718TIP3   OH229096   3.744   2.198   4.230
 9718TIP3    H129097   3.789   2.179   4.147
 9718TIP3    H229098   3.689   2.121   4.245
 9719TIP3   OH229099   4.587   0.653   4.539
 9719TIP3    H129100   4.661   0.623   4.487
 9719TIP3    H229101   4.596   0.749   4.540
 9720TIP3   OH229102   0.800   2.705   2.311
 9720TIP3    H129103   0.806   2.801   2.302
 9720TIP3    H229104   0.729   2.691   2.373
 9721TIP3   OH229105   2.393   6.724   6.172
 9721TIP3    H129106   2.373   6.727   6.078
 9721TIP3    H229107   2.456   6.653   6.181
 9722TIP3   OH229108   7.401   7.711   3.019
 9722TIP3    H129109   7.372   7.725   3.109
 9722TIP3    H229110   7.361   7.784   2.970
 9723TIP3   OH229111   6.179   2.220   1.610
 9723TIP3    H129112   6.247   2.161   1.578
 9723TIP3    H229113   6.127   2.166   1.669
 9724TIP3   OH229114   6.115   4.122   0.091
 9724TIP3    H129115   6.022   4.103   0.108
 9724TIP3    H229116   6.133   4.202   0.140
 9725TIP3   OH229117   6.543   0.114   2.668
 9725TIP3    H129118   6.583   0.038   2.627
 9725TIP3    H229119   6.463   0.129   2.618
 9726TIP3   OH229120   7.918   1.532   2.146
 9726TIP3    H129121   8.011   1.511   2.140
 9726TIP3    H229122   7.907   1.609   2.091
 9727TIP3   OH229123   2.475   7.337   6.160
 9727TIP3    H129124   2.538   7.291   6.105
 9727TIP3    H229125   2.439   7.405   6.104
 9728TIP3   OH229126   3.047   5.184   1.305
 9728TIP3    H129127   3.090   5.100   1.320
 9728TIP3    H229128   2.961   5.175   1.346
 9729TIP3   OH229129   0.979   1.834   5.788
 9729TIP3    H129130   1.004   1.833   5.880
 9729TIP3    H229131   0.975   1.742   5.763
 9730TIP3   OH229132   5.888   6.960   6.599
 9730TIP3    H129133   5.855   6.935   6.513
 9730TIP3    H229134   5.969   7.007   6.582
 9731TIP3   OH229135   7.920   7.720   1.511
 9731TIP3    H129136   7.844   7.723   1.570
 9731TIP3    H229137   7.899   7.651   1.449
 9732TIP3   OH229138   8.092   5.007   2.128
 9732TIP3    H129139   8.045   4.929   2.159
 9732TIP3    H229140   8.086   5.002   2.033
 9733TIP3   OH229141   1.695   6.342   3.955
 9733TIP3    H129142   1.640   6.408   3.996
 9733TIP3    H229143   1.782   6.357   3.992
 9734TIP3   OH229144   5.780   4.640   4.576
 9734TIP3    H129145   5.857   4.687   4.607
 9734TIP3    H229146   5.706   4.691   4.609
 9735TIP3   OH229147   1.617   5.052   4.712
 9735TIP3    H129148   1.655   5.078   4.628
 9735TIP3    H229149   1.530   5.091   4.712
 9736TIP3   OH229150   0.794   0.233   6.334
 9736TIP3    H129151   0.763   0.253   6.423
 9736TIP3    H229152   0.775   0.140   6.323
 9737TIP3   OH229153   0.181   0.269   2.246
 9737TIP3    H129154   0.159   0.339   2.184
 9737TIP3    H229155   0.137   0.191   2.211
 9738TIP3   OH229156   4.393   6.348   4.018
 9738TIP3    H129157   4.312   6.374   3.973
 9738TIP3    H229158   4.381   6.379   4.108
 9739TIP3   OH229159   1.554   5.610   4.103
 9739TIP3    H129160   1.497   5.561   4.043
 9739TIP3    H229161   1.595   5.677   4.049
 9740TIP3   OH229162   3.307   4.063   1.977
 9740TIP3    H129163   3.374   3.995   1.980
 9740TIP3    H229164   3.356   4.145   1.981
 9741TIP3   OH229165   3.057   2.045   4.307
 9741TIP3    H129166   3.013   2.115   4.259
 9741TIP3    H229167   3.150   2.055   4.286
 9742TIP3   OH229168   7.337   4.302   3.513
 9742TIP3    H129169   7.428   4.309   3.483
 9742TIP3    H229170   7.287   4.354   3.450
 9743TIP3   OH229171   4.526   1.109   5.772
 9743TIP3    H129172   4.534   1.179   5.837
 9743TIP3    H229173   4.602   1.120   5.715
 9744TIP3   OH229174   4.181   3.413   5.130
 9744TIP3    H129175   4.271   3.426   5.160
 9744TIP3    H229176   4.190   3.378   5.042
 9745TIP3   OH229177   6.521   4.670   1.574
 9745TIP3    H129178   6.436   4.714   1.573
 9745TIP3    H229179   6.576   4.724   1.517
 9746TIP3   OH229180   7.395   0.081   3.357
 9746TIP3    H129181   7.358   0.135   3.287
 9746TIP3    H229182   7.488   0.077   3.336
 9747TIP3   OH229183   7.818   0.335   6.512
 9747TIP3    H129184   7.797   0.337   6.605
 9747TIP3    H229185   7.912   0.350   6.508
 9748TIP3   OH229186   8.147   2.850   2.737
 9748TIP3    H129187   8.196   2.821   2.660
 9748TIP3    H229188   8.105   2.932   2.709
 9749TIP3   OH229189   7.926   6.565   5.575
 9749TIP3    H129190   7.938   6.587   5.482
 9749TIP3    H229191   8.008   6.592   5.616
 9750TIP3   OH229192   2.449   1.181   0.401
 9750TIP3    H129193   2.498   1.253   0.361
 9750TIP3    H229194   2.386   1.225   0.459
 9751TIP3   OH229195   7.636   6.535   1.878
 9751TIP3    H129196   7.689   6.541   1.958
 9751TIP3    H229197   7.563   6.594   1.893
 9752TIP3   OH229198   8.280   5.761   0.165
 9752TIP3    H129199   8.266   5.668   0.145
 9752TIP3    H229200   8.223   5.778   0.240
 9753TIP3   OH229201   6.148   5.323   0.306
 9753TIP3    H129202   6.064   5.366   0.293
 9753TIP3    H229203   6.132   5.259   0.375
 9754TIP3   OH229204   6.599   6.114   3.100
 9754TIP3    H129205   6.688   6.149   3.094
 9754TIP3    H229206   6.596   6.042   3.037
 9755TIP3   OH229207   6.508   0.522   1.622
 9755TIP3    H129208   6.449   0.493   1.552
 9755TIP3    H229209   6.549   0.601   1.588
 9756TIP3   OH229210   1.098   0.588   5.793
 9756TIP3    H129211   1.047   0.535   5.856
 9756TIP3    H229212   1.158   0.638   5.848
 9757TIP3   OH229213   2.459   0.384   4.289
 9757TIP3    H129214   2.385   0.382   4.349
 9757TIP3    H229215   2.530   0.342   4.338
 9758TIP3   OH229216   6.362   4.594   5.523
 9758TIP3    H129217   6.295   4.554   5.578
 9758TIP3    H229218   6.320   4.670   5.484
 9759TIP3   OH229219   0.536   0.547   5.371
 9759TIP3    H129220   0.509   0.612   5.437
 9759TIP3    H229221   0.568   0.473   5.422
 9760TIP3   OH229222   6.429   2.082   3.139
 9760TIP3    H129223   6.493   2.021   3.176
 9760TIP3    H229224   6.443   2.078   3.044
 9761TIP3   OH229225   0.303   3.416   6.678
 9761TIP3    H129226   0.268   3.327   6.675
 9761TIP3    H229227   0.229   3.472   6.655
 9762TIP3   OH229228   0.196   4.060   0.279
 9762TIP3    H129229   0.276   4.109   0.259
 9762TIP3    H229230   0.138   4.078   0.205
 9763TIP3   OH229231   5.844   2.873   1.676
 9763TIP3    H129232   5.772   2.923   1.715
 9763TIP3    H229233   5.829   2.879   1.582
 9764TIP3   OH229234   4.221   4.919   5.162
 9764TIP3    H129235   4.283   4.854   5.129
 9764TIP3    H229236   4.276   4.986   5.203
 9765TIP3   OH229237   4.036   5.846   3.246
 9765TIP3    H129238   4.066   5.788   3.316
 9765TIP3    H229239   3.941   5.846   3.254
 9766TIP3   OH229240   1.941   3.097   6.049
 9766TIP3    H129241   2.013   3.061   6.102
 9766TIP3    H229242   1.865   3.095   6.107
 9767TIP3   OH229243   3.002   0.211   1.627
 9767TIP3    H129244   2.908   0.227   1.623
 9767TIP3    H229245   3.038   0.285   1.675
 9768TIP3   OH229246   3.307   5.458   1.968
 9768TIP3    H129247   3.280   5.471   1.877
 9768TIP3    H229248   3.257   5.523   2.018
 9769TIP3   OH229249   7.897   7.697   0.380
 9769TIP3    H129250   7.839   7.699   0.456
 9769TIP3    H229251   7.934   7.786   0.377
 9770TIP3   OH229252   3.125   3.129   2.480
 9770TIP3    H129253   3.033   3.127   2.505
 9770TIP3    H229254   3.143   3.040   2.451
 9771TIP3   OH229255   0.773   3.247   4.171
 9771TIP3    H129256   0.680   3.227   4.164
 9771TIP3    H229257   0.789   3.258   4.265
 9772TIP3   OH229258   6.487   2.515   1.691
 9772TIP3    H129259   6.564   2.568   1.712
 9772TIP3    H229260   6.504   2.479   1.604
 9773TIP3   OH229261   5.455   0.196   3.663
 9773TIP3    H129262   5.435   0.289   3.678
 9773TIP3    H229263   5.370   0.154   3.656
 9774TIP3   OH229264   8.114   5.583   4.710
 9774TIP3    H129265   8.024   5.550   4.716
 9774TIP3    H229266   8.135   5.582   4.617
 9775TIP3   OH229267   1.868   2.637   1.239
 9775TIP3    H129268   1.900   2.563   1.187
 9775TIP3    H229269   1.863   2.709   1.177
 9776TIP3   OH229270   4.418   4.354   4.652
 9776TIP3    H129271   4.453   4.267   4.633
 9776TIP3    H229272   4.464   4.380   4.732
 9777TIP3   OH229273   5.381   0.945   5.315
 9777TIP3    H129274   5.357   0.913   5.402
 9777TIP3    H229275   5.356   1.038   5.316
 9778TIP3   OH229276   5.971   1.032   0.504
 9778TIP3    H129277   5.900   1.031   0.440
 9778TIP3    H229278   6.051   1.030   0.451
 9779TIP3   OH229279   6.571   6.028   6.171
 9779TIP3    H129280   6.504   5.972   6.132
 9779TIP3    H229281   6.650   5.973   6.175
 9780TIP3   OH229282   0.815   3.893   6.686
 9780TIP3    H129283   0.800   3.954   6.759
 9780TIP3    H229284   0.908   3.870   6.694
 9781TIP3   OH229285   3.189   1.724   4.041
 9781TIP3    H129286   3.095   1.718   4.026
 9781TIP3    H229287   3.208   1.818   4.038
 9782TIP3   OH229288   6.051   5.070   6.559
 9782TIP3    H129289   6.056   5.008   6.487
 9782TIP3    H229290   6.097   5.027   6.631
 9783TIP3   OH229291   4.058   6.956   2.395
 9783TIP3    H129292   3.966   6.931   2.387
 9783TIP3    H229293   4.083   6.981   2.307
 9784TIP3   OH229294   6.609   2.722   4.038
 9784TIP3    H129295   6.555   2.657   3.993
 9784TIP3    H229296   6.579   2.806   4.004
 9785TIP3   OH229297   2.479   0.642   3.217
 9785TIP3    H129298   2.541   0.685   3.276
 9785TIP3    H229299   2.524   0.563   3.189
 9786TIP3   OH229300  -0.013   3.887   5.337
 9786TIP3    H129301  -0.084   3.877   5.399
 9786TIP3    H229302  -0.007   3.981   5.321
 9787TIP3   OH229303   4.140   4.761   2.801
 9787TIP3    H129304   4.187   4.843   2.817
 9787TIP3    H229305   4.195   4.693   2.841
 9788TIP3   OH229306   0.614   1.701   6.432
 9788TIP3    H129307   0.589   1.680   6.342
 9788TIP3    H229308   0.672   1.630   6.457
 9789TIP3   OH229309   8.263   5.906   1.612
 9789TIP3    H129310   8.170   5.927   1.599
 9789TIP3    H229311   8.277   5.917   1.706
 9790TIP3   OH229312   3.770   4.251   6.207
 9790TIP3    H129313   3.733   4.305   6.277
 9790TIP3    H229314   3.768   4.162   6.242
 9791TIP3   OH229315   2.389   2.150   4.530
 9791TIP3    H129316   2.415   2.060   4.511
 9791TIP3    H229317   2.471   2.198   4.539
 9792TIP3   OH229318   5.696   6.655   3.096
 9792TIP3    H129319   5.625   6.622   3.151
 9792TIP3    H229320   5.681   6.749   3.089
 9793TIP3   OH229321   4.065   4.045   3.958
 9793TIP3    H129322   4.100   4.089   4.036
 9793TIP3    H229323   4.104   3.958   3.960
 9794TIP3   OH229324   7.863   0.321   2.570
 9794TIP3    H129325   7.958   0.315   2.581
 9794TIP3    H229326   7.849   0.315   2.475
 9795TIP3   OH229327   7.868   5.138   3.856
 9795TIP3    H129328   7.806   5.204   3.888
 9795TIP3    H229329   7.889   5.086   3.933
 9796TIP3   OH229330   0.536   3.790   6.647
 9796TIP3    H129331   0.626   3.810   6.673
 9796TIP3    H229332   0.540   3.699   6.616
 9797TIP3   OH229333   7.643   0.868   5.906
 9797TIP3    H129334   7.560   0.834   5.938
 9797TIP3    H229335   7.708   0.832   5.966
 9798TIP3   OH229336   7.956   3.439   0.545
 9798TIP3    H129337   7.970   3.384   0.468
 9798TIP3    H229338   7.888   3.501   0.520
 9799TIP3   OH229339   0.191   5.657   2.807
 9799TIP3    H129340   0.258   5.601   2.768
 9799TIP3    H229341   0.225   5.746   2.796
 9800TIP3   OH229342   3.109   1.310   6.011
 9800TIP3    H129343   3.074   1.353   6.090
 9800TIP3    H229344   3.115   1.380   5.946
 9801TIP3   OH229345   0.846   6.038   5.760
 9801TIP3    H129346   0.872   6.119   5.802
 9801TIP3    H229347   0.886   6.040   5.673
 9802TIP3   OH229348   4.657   0.626   3.993
 9802TIP3    H129349   4.621   0.707   3.956
 9802TIP3    H229350   4.751   0.632   3.976
 9803TIP3   OH229351   5.562   6.747   5.357
 9803TIP3    H129352   5.576   6.696   5.437
 9803TIP3    H229353   5.564   6.682   5.287
 9804TIP3   OH229354   0.251   7.795   4.625
 9804TIP3    H129355   0.243   7.866   4.562
 9804TIP3    H229356   0.245   7.838   4.711
 9805TIP3   OH229357   1.166   2.543   5.412
 9805TIP3    H129358   1.161   2.597   5.492
 9805TIP3    H229359   1.124   2.596   5.345
 9806TIP3   OH229360   1.774   4.855   5.232
 9806TIP3    H129361   1.713   4.850   5.305
 9806TIP3    H229362   1.837   4.923   5.259
 9807TIP3   OH229363   7.008   6.834   4.645
 9807TIP3    H129364   6.924   6.878   4.645
 9807TIP3    H229365   7.053   6.867   4.723
 9808TIP3   OH229366   6.652   2.990   2.385
 9808TIP3    H129367   6.646   3.006   2.291
 9808TIP3    H229368   6.579   2.930   2.403
 9809TIP3   OH229369   4.666   5.902   6.110
 9809TIP3    H129370   4.594   5.846   6.138
 9809TIP3    H229371   4.626   5.964   6.049
 9810TIP3   OH229372   0.033   0.519   4.413
 9810TIP3    H129373  -0.046   0.569   4.431
 9810TIP3    H229374   0.001   0.437   4.374
 9811TIP3   OH229375   1.246   3.771   1.601
 9811TIP3    H129376   1.240   3.677   1.587
 9811TIP3    H229377   1.202   3.810   1.526
 9812TIP3   OH229378   5.633   5.100   5.697
 9812TIP3    H129379   5.629   5.159   5.622
 9812TIP3    H229380   5.722   5.063   5.694
 9813TIP3   OH229381   6.156   1.163   5.134
 9813TIP3    H129382   6.179   1.121   5.216
 9813TIP3    H229383   6.089   1.105   5.096
 9814TIP3   OH229384   7.819   3.911   2.704
 9814TIP3    H129385   7.906   3.878   2.727
 9814TIP3    H229386   7.767   3.831   2.689
 9815TIP3   OH229387   3.432   6.238   6.706
 9815TIP3    H129388   3.507   6.198   6.662
 9815TIP3    H229389   3.439   6.331   6.687
 9816TIP3   OH229390   7.242   4.338   5.024
 9816TIP3    H129391   7.234   4.383   5.108
 9816TIP3    H229392   7.321   4.376   4.985
 9817TIP3   OH229393   2.725   5.955   5.250
 9817TIP3    H129394   2.749   5.982   5.338
 9817TIP3    H229395   2.664   6.022   5.220
 9818TIP3   OH229396   5.694   1.728   6.433
 9818TIP3    H129397   5.782   1.760   6.450
 9818TIP3    H229398   5.642   1.807   6.420
 9819TIP3   OH229399   3.969   1.234   5.970
 9819TIP3    H129400   4.005   1.176   6.038
 9819TIP3    H229401   3.993   1.191   5.887
 9820TIP3   OH229402   4.407   0.715   5.220
 9820TIP3    H129403   4.486   0.758   5.253
 9820TIP3    H229404   4.401   0.741   5.128
 9821TIP3   OH229405   6.806   4.809   1.484
 9821TIP3    H129406   6.869   4.872   1.450
 9821TIP3    H229407   6.786   4.753   1.409
 9822TIP3   OH229408   3.057   7.346   6.263
 9822TIP3    H129409   3.006   7.271   6.294
 9822TIP3    H229410   3.112   7.370   6.338
 9823TIP3   OH229411   7.193   4.822   2.871
 9823TIP3    H129412   7.147   4.752   2.918
 9823TIP3    H229413   7.282   4.790   2.862
 9824TIP3   OH229414   0.263   4.930   0.605
 9824TIP3    H129415   0.185   4.964   0.650
 9824TIP3    H229416   0.228   4.878   0.532
 9825TIP3   OH229417   0.686   7.600   3.762
 9825TIP3    H129418   0.747   7.673   3.749
 9825TIP3    H229419   0.631   7.626   3.835
 9826TIP3   OH229420   3.543   0.950   2.227
 9826TIP3    H129421   3.558   1.015   2.295
 9826TIP3    H229422   3.546   0.866   2.273
 9827TIP3   OH229423   6.645   6.705   5.391
 9827TIP3    H129424   6.710   6.678   5.327
 9827TIP3    H229425   6.607   6.785   5.354
 9828TIP3   OH229426   1.979   5.631   6.781
 9828TIP3    H129427   1.974   5.644   6.686
 9828TIP3    H229428   1.909   5.684   6.816
 9829TIP3   OH229429   3.547   5.129   3.064
 9829TIP3    H129430   3.538   5.221   3.088
 9829TIP3    H229431   3.641   5.119   3.044
 9830TIP3   OH229432   5.360   0.149   1.631
 9830TIP3    H129433   5.405   0.189   1.705
 9830TIP3    H229434   5.427   0.095   1.588
 9831TIP3   OH229435   0.528   6.681   0.828
 9831TIP3    H129436   0.505   6.644   0.743
 9831TIP3    H229437   0.506   6.612   0.891
 9832TIP3   OH229438   0.763   7.290   2.413
 9832TIP3    H129439   0.750   7.351   2.341
 9832TIP3    H229440   0.751   7.343   2.492
 9833TIP3   OH229441   4.986   5.108   2.020
 9833TIP3    H129442   4.983   5.015   1.998
 9833TIP3    H229443   4.900   5.142   1.992
 9834TIP3   OH229444   7.397   5.445   5.945
 9834TIP3    H129445   7.396   5.538   5.919
 9834TIP3    H229446   7.309   5.429   5.977
 9835TIP3   OH229447   1.436   0.467   0.143
 9835TIP3    H129448   1.372   0.423   0.198
 9835TIP3    H229449   1.515   0.413   0.149
 9836TIP3   OH229450   3.728   2.119   5.045
 9836TIP3    H129451   3.776   2.089   4.968
 9836TIP3    H229452   3.637   2.101   5.025
 9837TIP3   OH229453   1.906   4.905   1.581
 9837TIP3    H129454   1.859   4.988   1.575
 9837TIP3    H229455   1.838   4.838   1.578
 9838TIP3   OH229456   7.735   0.713   0.360
 9838TIP3    H129457   7.641   0.714   0.378
 9838TIP3    H229458   7.766   0.799   0.390
 9839TIP3   OH229459   7.251   2.678   4.833
 9839TIP3    H129460   7.225   2.651   4.745
 9839TIP3    H229461   7.250   2.597   4.884
 9840TIP3   OH229462   6.870   3.847   2.742
 9840TIP3    H129463   6.904   3.796   2.668
 9840TIP3    H229464   6.784   3.810   2.760
 9841TIP3   OH229465   1.047   6.847   2.897
 9841TIP3    H129466   1.033   6.839   2.803
 9841TIP3    H229467   1.138   6.820   2.910
 9842TIP3   OH229468   4.021   3.202   4.073
 9842TIP3    H129469   4.006   3.293   4.050
 9842TIP3    H229470   4.023   3.201   4.169
 9843TIP3   OH229471   2.784   4.344   0.628
 9843TIP3    H129472   2.818   4.259   0.598
 9843TIP3    H229473   2.807   4.405   0.558
 9844TIP3   OH229474   3.468   4.501   1.074
 9844TIP3    H129475   3.517   4.484   0.994
 9844TIP3    H229476   3.477   4.421   1.125
 9845TIP3   OH229477   2.146   2.607   4.905
 9845TIP3    H129478   2.143   2.693   4.863
 9845TIP3    H229479   2.069   2.606   4.962
 9846TIP3   OH229480   1.016   7.709   2.741
 9846TIP3    H129481   1.072   7.780   2.771
 9846TIP3    H229482   1.051   7.631   2.786
 9847TIP3   OH229483   8.115   5.813   2.311
 9847TIP3    H129484   8.118   5.824   2.216
 9847TIP3    H229485   8.163   5.889   2.346
 9848TIP3   OH229486   5.778   5.502   2.118
 9848TIP3    H129487   5.869   5.529   2.129
 9848TIP3    H229488   5.784   5.418   2.072
 9849TIP3   OH229489   7.206   6.931   3.901
 9849TIP3    H129490   7.119   6.970   3.899
 9849TIP3    H229491   7.265   7.005   3.913
 9850TIP3   OH229492   2.661   6.228   5.269
 9850TIP3    H129493   2.720   6.220   5.344
 9850TIP3    H229494   2.700   6.297   5.215
 9851TIP3   OH229495   5.556   0.972   2.140
 9851TIP3    H129496   5.602   0.905   2.089
 9851TIP3    H229497   5.626   1.022   2.181
 9852TIP3   OH229498   1.946   6.146   0.477
 9852TIP3    H129499   1.951   6.082   0.548
 9852TIP3    H229500   1.855   6.177   0.479
 9853TIP3   OH229501   6.995   1.593   4.814
 9853TIP3    H129502   7.041   1.577   4.731
 9853TIP3    H229503   6.925   1.528   4.816
 9854TIP3   OH229504   8.155   4.971   4.211
 9854TIP3    H129505   8.138   4.986   4.305
 9854TIP3    H229506   8.166   5.059   4.175
 9855TIP3   OH229507   7.852   2.345   5.183
 9855TIP3    H129508   7.913   2.394   5.128
 9855TIP3    H229509   7.878   2.253   5.172
 9856TIP3   OH229510   7.032   5.355   0.600
 9856TIP3    H129511   7.005   5.289   0.536
 9856TIP3    H229512   6.980   5.335   0.678
 9857TIP3   OH229513   2.495   0.583   6.600
 9857TIP3    H129514   2.501   0.662   6.546
 9857TIP3    H229515   2.514   0.511   6.540
 9858TIP3   OH229516   7.912   2.596   1.317
 9858TIP3    H129517   7.990   2.564   1.271
 9858TIP3    H229518   7.867   2.516   1.345
 9859TIP3   OH229519   1.455   3.742   3.788
 9859TIP3    H129520   1.480   3.781   3.704
 9859TIP3    H229521   1.502   3.793   3.853
 9860TIP3   OH229522   4.580   7.438   5.102
 9860TIP3    H129523   4.584   7.517   5.156
 9860TIP3    H229524   4.637   7.375   5.147
 9861TIP3   OH229525   6.501   0.163   3.572
 9861TIP3    H129526   6.578   0.192   3.620
 9861TIP3    H229527   6.519   0.189   3.481
 9862TIP3   OH229528   3.579   7.634   2.101
 9862TIP3    H129529   3.507   7.677   2.055
 9862TIP3    H229530   3.658   7.660   2.054
 9863TIP3   OH229531   0.519   0.850   0.324
 9863TIP3    H129532   0.516   0.921   0.259
 9863TIP3    H229533   0.450   0.790   0.297
 9864TIP3   OH229534   3.400   6.510   4.431
 9864TIP3    H129535   3.459   6.443   4.396
 9864TIP3    H229536   3.449   6.592   4.423
 9865TIP3   OH229537   7.669   4.026   3.993
 9865TIP3    H129538   7.651   3.966   4.065
 9865TIP3    H229539   7.594   4.085   3.992
 9866TIP3   OH229540   1.046   0.706   0.055
 9866TIP3    H129541   1.129   0.702   0.102
 9866TIP3    H229542   1.029   0.800   0.045
 9867TIP3   OH229543   7.459   0.644   0.317
 9867TIP3    H129544   7.431   0.665   0.229
 9867TIP3    H229545   7.499   0.557   0.309
 9868TIP3   OH229546   4.501   5.875   5.451
 9868TIP3    H129547   4.480   5.966   5.474
 9868TIP3    H229548   4.577   5.853   5.506
 9869TIP3   OH229549   6.293   5.119   5.858
 9869TIP3    H129550   6.301   5.062   5.782
 9869TIP3    H229551   6.208   5.162   5.847
 9870TIP3   OH229552   6.732   5.997   1.847
 9870TIP3    H129553   6.679   5.966   1.773
 9870TIP3    H229554   6.678   6.065   1.888
 9871TIP3   OH229555   3.564   0.480   5.475
 9871TIP3    H129556   3.541   0.536   5.550
 9871TIP3    H229557   3.542   0.392   5.504
 9872TIP3   OH229558   0.092   0.718   5.142
 9872TIP3    H129559   0.140   0.792   5.180
 9872TIP3    H229560   0.054   0.674   5.218
 9873TIP3   OH229561   4.429   3.651   2.166
 9873TIP3    H129562   4.440   3.616   2.254
 9873TIP3    H229563   4.508   3.625   2.120
 9874TIP3   OH229564   3.319   3.800   1.737
 9874TIP3    H129565   3.269   3.760   1.808
 9874TIP3    H229566   3.410   3.786   1.761
 9875TIP3   OH229567   2.543   5.466   0.763
 9875TIP3    H129568   2.464   5.414   0.748
 9875TIP3    H229569   2.552   5.519   0.683
 9876TIP3   OH229570   2.754   5.914   1.949
 9876TIP3    H129571   2.846   5.888   1.960
 9876TIP3    H229572   2.704   5.838   1.979
 9877TIP3   OH229573   7.120   2.012   2.237
 9877TIP3    H129574   7.065   1.950   2.189
 9877TIP3    H229575   7.204   2.010   2.191
 9878TIP3   OH229576   2.950   5.829  -0.012
 9878TIP3    H129577   2.908   5.803  -0.094
 9878TIP3    H229578   2.879   5.859   0.043
 9879TIP3   OH229579   2.483   5.251   1.608
 9879TIP3    H129580   2.512   5.164   1.637
 9879TIP3    H229581   2.408   5.234   1.552
 9880TIP3   OH229582   3.342   4.786   5.246
 9880TIP3    H129583   3.414   4.845   5.269
 9880TIP3    H229584   3.383   4.717   5.193
 9881TIP3   OH229585   7.351   6.145   2.871
 9881TIP3    H129586   7.302   6.195   2.936
 9881TIP3    H229587   7.440   6.141   2.906
 9882TIP3   OH229588   0.666   1.157   1.224
 9882TIP3    H129589   0.590   1.183   1.276
 9882TIP3    H229590   0.631   1.096   1.159
 9883TIP3   OH229591   2.152   0.414   6.335
 9883TIP3    H129592   2.115   0.334   6.373
 9883TIP3    H229593   2.132   0.482   6.399
 9884TIP3   OH229594   5.740   1.208   4.036
 9884TIP3    H129595   5.799   1.134   4.045
 9884TIP3    H229596   5.652   1.170   4.045
 9885TIP3   OH229597   0.477   2.898   2.806
 9885TIP3    H129598   0.472   2.928   2.897
 9885TIP3    H229599   0.562   2.853   2.801
 9886TIP3   OH229600   5.723   6.095   5.132
 9886TIP3    H129601   5.668   6.128   5.204
 9886TIP3    H229602   5.724   6.000   5.145
 9887TIP3   OH229603   1.490   3.402   3.697
 9887TIP3    H129604   1.455   3.473   3.750
 9887TIP3    H229605   1.495   3.439   3.608
 9888TIP3   OH229606   5.459   7.128   3.521
 9888TIP3    H129607   5.456   7.040   3.557
 9888TIP3    H229608   5.551   7.142   3.499
 9889TIP3   OH229609   4.013   3.470   0.606
 9889TIP3    H129610   3.968   3.426   0.533
 9889TIP3    H229611   3.942   3.492   0.666
 9890TIP3   OH229612   5.657   4.084   1.862
 9890TIP3    H129613   5.729   4.025   1.883
 9890TIP3    H229614   5.694   4.145   1.798
 9891TIP3   OH229615   5.839   1.401   6.738
 9891TIP3    H129616   5.891   1.330   6.776
 9891TIP3    H229617   5.749   1.371   6.745
 9892TIP3   OH229618   2.321   4.841   2.237
 9892TIP3    H129619   2.237   4.813   2.272
 9892TIP3    H229620   2.303   4.927   2.197
 9893TIP3   OH229621   0.887   0.303   2.923
 9893TIP3    H129622   0.935   0.306   3.006
 9893TIP3    H229623   0.862   0.211   2.913
 9894TIP3   OH229624   6.274   0.009   2.863
 9894TIP3    H129625   6.330   0.065   2.916
 9894TIP3    H229626   6.194   0.060   2.851
 9895TIP3   OH229627   5.774   5.340   1.878
 9895TIP3    H129628   5.693   5.339   1.827
 9895TIP3    H229629   5.827   5.408   1.837
 9896TIP3   OH229630   8.180   1.702   5.055
 9896TIP3    H129631   8.139   1.714   4.969
 9896TIP3    H229632   8.127   1.754   5.115
 9897TIP3   OH229633   4.820   6.200   5.031
 9897TIP3    H129634   4.846   6.249   5.109
 9897TIP3    H229635   4.810   6.110   5.062
 9898TIP3   OH229636   1.508   4.765   6.308
 9898TIP3    H129637   1.509   4.807   6.222
 9898TIP3    H229638   1.419   4.732   6.317
 9899TIP3   OH229639   3.284   6.004   1.472
 9899TIP3    H129640   3.372   6.036   1.452
 9899TIP3    H229641   3.252   5.969   1.389
 9900TIP3   OH229642   1.137   2.229   2.357
 9900TIP3    H129643   1.133   2.315   2.399
 9900TIP3    H229644   1.052   2.220   2.313
 9901TIP3   OH229645   7.772   3.010   5.889
 9901TIP3    H129646   7.788   2.923   5.851
 9901TIP3    H229647   7.702   3.047   5.836
 9902TIP3   OH229648   3.200   6.581   0.290
 9902TIP3    H129649   3.250   6.509   0.328
 9902TIP3    H229650   3.217   6.575   0.196
 9903TIP3   OH229651   6.770   7.235   4.084
 9903TIP3    H129652   6.859   7.259   4.109
 9903TIP3    H229653   6.715   7.268   4.155
 9904TIP3   OH229654   0.134   4.572   2.319
 9904TIP3    H129655   0.081   4.511   2.268
 9904TIP3    H229656   0.174   4.517   2.386
 9905TIP3   OH229657   8.244   2.727   2.954
 9905TIP3    H129658   8.252   2.788   3.027
 9905TIP3    H229659   8.220   2.781   2.879
 9906TIP3   OH229660   3.679   5.492   0.309
 9906TIP3    H129661   3.681   5.417   0.369
 9906TIP3    H229662   3.707   5.457   0.225
 9907TIP3   OH229663   2.083   5.505   2.925
 9907TIP3    H129664   2.100   5.596   2.900
 9907TIP3    H229665   2.143   5.454   2.870
 9908TIP3   OH229666   1.887   6.213   2.542
 9908TIP3    H129667   1.860   6.233   2.631
 9908TIP3    H229668   1.862   6.121   2.529
 9909TIP3   OH229669   6.852   5.917   6.247
 9909TIP3    H129670   6.860   5.953   6.336
 9909TIP3    H229671   6.911   5.970   6.194
 9910TIP3   OH229672   3.486   2.331   4.058
 9910TIP3    H129673   3.420   2.401   4.054
 9910TIP3    H229674   3.570   2.377   4.061
 9911TIP3   OH229675   4.366   7.436   4.075
 9911TIP3    H129676   4.386   7.484   3.995
 9911TIP3    H229677   4.276   7.405   4.063
 9912TIP3   OH229678   2.037   0.801   1.280
 9912TIP3    H129679   1.970   0.734   1.292
 9912TIP3    H229680   2.115   0.764   1.319
 9913TIP3   OH229681   6.143   7.320   0.509
 9913TIP3    H129682   6.225   7.368   0.509
 9913TIP3    H229683   6.137   7.281   0.422
 9914TIP3   OH229684   7.328   5.421   5.527
 9914TIP3    H129685   7.366   5.389   5.609
 9914TIP3    H229686   7.239   5.385   5.526
 9915TIP3   OH229687   4.258   2.254   5.036
 9915TIP3    H129688   4.298   2.197   4.970
 9915TIP3    H229689   4.239   2.196   5.110
 9916TIP3   OH229690   5.044   0.643   1.189
 9916TIP3    H129691   5.057   0.650   1.284
 9916TIP3    H229692   5.098   0.568   1.163
 9917TIP3   OH229693   2.814   1.493   1.817
 9917TIP3    H129694   2.859   1.457   1.740
 9917TIP3    H229695   2.721   1.485   1.797
 9918TIP3   OH229696   4.040   5.303   0.934
 9918TIP3    H129697   4.044   5.380   0.877
 9918TIP3    H229698   4.029   5.339   1.022
 9919TIP3   OH229699   6.386   5.251   3.218
 9919TIP3    H129700   6.314   5.314   3.225
 9919TIP3    H229701   6.465   5.306   3.211
 9920TIP3   OH229702   2.948   5.693   4.853
 9920TIP3    H129703   2.855   5.674   4.847
 9920TIP3    H229704   2.987   5.613   4.890
 9921TIP3   OH229705   1.146   6.983   0.264
 9921TIP3    H129706   1.158   7.078   0.267
 9921TIP3    H229707   1.065   6.971   0.214
 9922TIP3   OH229708   4.946   3.498   6.254
 9922TIP3    H129709   5.000   3.468   6.180
 9922TIP3    H229710   4.986   3.580   6.281
 9923TIP3   OH229711   4.952   2.506   3.272
 9923TIP3    H129712   4.869   2.544   3.301
 9923TIP3    H229713   5.006   2.582   3.249
 9924TIP3   OH229714   6.448   5.576   3.288
 9924TIP3    H129715   6.474   5.586   3.196
 9924TIP3    H229716   6.473   5.658   3.330
 9925TIP3   OH229717   2.482   6.521   6.320
 9925TIP3    H129718   2.447   6.440   6.357
 9925TIP3    H229719   2.459   6.588   6.384
 9926TIP3   OH229720   4.161   3.689   5.819
 9926TIP3    H129721   4.080   3.694   5.767
 9926TIP3    H229722   4.179   3.780   5.843
 9927TIP3   OH229723   5.156   3.510   5.504
 9927TIP3    H129724   5.112   3.585   5.543
 9927TIP3    H229725   5.114   3.498   5.419
 9928TIP3   OH229726   3.061   0.774   0.471
 9928TIP3    H129727   3.121   0.846   0.453
 9928TIP3    H229728   2.974   0.810   0.455
 9929TIP3   OH229729   7.347   1.956   0.078
 9929TIP3    H129730   7.390   1.966   0.163
 9929TIP3    H229731   7.387   2.024   0.023
 9930TIP3   OH229732   7.479   2.316   2.164
 9930TIP3    H129733   7.465   2.347   2.075
 9930TIP3    H229734   7.411   2.357   2.216
 9931TIP3   OH229735   8.031   4.338   1.915
 9931TIP3    H129736   7.983   4.412   1.880
 9931TIP3    H229737   8.118   4.346   1.877
 9932TIP3   OH229738   0.988   0.994   5.181
 9932TIP3    H129739   0.989   0.966   5.272
 9932TIP3    H229740   1.053   1.063   5.175
 9933TIP3   OH229741   7.958   5.452   6.762
 9933TIP3    H129742   7.963   5.429   6.855
 9933TIP3    H229743   8.017   5.390   6.719
 9934TIP3   OH229744   0.281   4.467   2.548
 9934TIP3    H129745   0.250   4.431   2.631
 9934TIP3    H229746   0.286   4.561   2.563
 9935TIP3   OH229747   0.320   0.235   3.962
 9935TIP3    H129748   0.252   0.218   3.897
 9935TIP3    H229749   0.336   0.329   3.958
 9936TIP3   OH229750   2.060   6.602   1.409
 9936TIP3    H129751   2.140   6.651   1.389
 9936TIP3    H229752   2.066   6.524   1.354
 9937TIP3   OH229753   4.277   3.425  -0.016
 9937TIP3    H129754   4.222   3.381   0.049
 9937TIP3    H229755   4.246   3.391  -0.100
 9938TIP3   OH229756   5.284   1.421   5.861
 9938TIP3    H129757   5.280   1.471   5.779
 9938TIP3    H229758   5.262   1.486   5.928
 9939TIP3   OH229759   3.625   6.233   1.572
 9939TIP3    H129760   3.690   6.191   1.628
 9939TIP3    H229761   3.611   6.171   1.501
 9940TIP3   OH229762   6.345   0.456   2.980
 9940TIP3    H129763   6.401   0.415   2.914
 9940TIP3    H229764   6.345   0.549   2.957
 9941TIP3   OH229765   5.758   7.787   4.986
 9941TIP3    H129766   5.690   7.743   5.036
 9941TIP3    H229767   5.779   7.865   5.037
 9942TIP3   OH229768   1.971   1.853   1.735
 9942TIP3    H129769   1.886   1.822   1.704
 9942TIP3    H229770   1.978   1.942   1.698
 9943TIP3   OH229771   2.188   6.676   6.389
 9943TIP3    H129772   2.201   6.760   6.434
 9943TIP3    H229773   2.230   6.687   6.304
 9944TIP3   OH229774   1.355   6.780   5.658
 9944TIP3    H129775   1.311   6.711   5.708
 9944TIP3    H229776   1.443   6.786   5.697
 9945TIP3   OH229777   0.476   4.443   4.527
 9945TIP3    H129778   0.437   4.493   4.455
 9945TIP3    H229779   0.507   4.510   4.589
 9946TIP3   OH229780   7.873   0.417   4.770
 9946TIP3    H129781   7.929   0.452   4.839
 9946TIP3    H229782   7.808   0.486   4.754
 9947TIP3   OH229783   5.619   3.985   2.869
 9947TIP3    H129784   5.586   3.935   2.943
 9947TIP3    H229785   5.707   3.950   2.854
 9948TIP3   OH229786   4.518   4.095   1.451
 9948TIP3    H129787   4.570   4.016   1.439
 9948TIP3    H229788   4.497   4.124   1.362
 9949TIP3   OH229789   2.776   7.356   2.886
 9949TIP3    H129790   2.816   7.278   2.925
 9949TIP3    H229791   2.765   7.334   2.794
 9950TIP3   OH229792   2.111   0.749   3.128
 9950TIP3    H129793   2.177   0.788   3.185
 9950TIP3    H229794   2.068   0.823   3.085
 9951TIP3   OH229795   1.604   0.481   6.359
 9951TIP3    H129796   1.592   0.569   6.396
 9951TIP3    H229797   1.698   0.476   6.340
 9952TIP3   OH229798   6.755   7.471   2.102
 9952TIP3    H129799   6.777   7.485   2.010
 9952TIP3    H229800   6.694   7.542   2.124
 9953TIP3   OH229801   4.292   3.850   3.860
 9953TIP3    H129802   4.226   3.801   3.908
 9953TIP3    H229803   4.366   3.790   3.854
 9954TIP3   OH229804   8.166   4.111   3.948
 9954TIP3    H129805   8.210   4.048   3.891
 9954TIP3    H229806   8.228   4.129   4.018
 9955TIP3   OH229807   7.685   1.055   3.900
 9955TIP3    H129808   7.602   1.020   3.867
 9955TIP3    H229809   7.728   1.092   3.823
 9956TIP3   OH229810   0.833   2.139   4.884
 9956TIP3    H129811   0.772   2.201   4.924
 9956TIP3    H229812   0.886   2.107   4.958
 9957TIP3   OH229813   2.796   2.493   1.296
 9957TIP3    H129814   2.792   2.472   1.202
 9957TIP3    H229815   2.871   2.443   1.328
 9958TIP3   OH229816   5.438   5.660   4.517
 9958TIP3    H129817   5.453   5.734   4.575
 9958TIP3    H229818   5.525   5.637   4.484
 9959TIP3   OH229819   8.144   6.024   0.107
 9959TIP3    H129820   8.143   5.932   0.133
 9959TIP3    H229821   8.235   6.040   0.080
 9960TIP3   OH229822   1.127   1.531   6.392
 9960TIP3    H129823   1.034   1.535   6.370
 9960TIP3    H229824   1.142   1.606   6.449
 9961TIP3   OH229825   1.312   5.407   5.771
 9961TIP3    H129826   1.221   5.414   5.743
 9961TIP3    H229827   1.363   5.441   5.698
 9962TIP3   OH229828   3.760   3.485   5.768
 9962TIP3    H129829   3.719   3.445   5.845
 9962TIP3    H229830   3.727   3.434   5.694
 9963TIP3   OH229831   1.540   6.048   2.220
 9963TIP3    H129832   1.548   6.130   2.268
 9963TIP3    H229833   1.616   6.047   2.162
 9964TIP3   OH229834   5.855   7.346   2.771
 9964TIP3    H129835   5.874   7.412   2.704
 9964TIP3    H229836   5.760   7.351   2.783
 9965TIP3   OH229837   2.551   1.292   3.833
 9965TIP3    H129838   2.481   1.227   3.830
 9965TIP3    H229839   2.525   1.352   3.903
 9966TIP3   OH229840   7.489   1.852   0.338
 9966TIP3    H129841   7.451   1.831   0.424
 9966TIP3    H229842   7.537   1.773   0.314
 9967TIP3   OH229843   1.658   1.749   5.351
 9967TIP3    H129844   1.721   1.820   5.340
 9967TIP3    H229845   1.709   1.677   5.390
 9968TIP3   OH229846   4.117   1.780   3.339
 9968TIP3    H129847   4.109   1.868   3.300
 9968TIP3    H229848   4.053   1.779   3.410
 9969TIP3   OH229849   5.609   0.610   1.848
 9969TIP3    H129850   5.565   0.645   1.770
 9969TIP3    H229851   5.575   0.521   1.857
 9970TIP3   OH229852   5.233   3.847   3.924
 9970TIP3    H129853   5.216   3.847   4.018
 9970TIP3    H229854   5.273   3.762   3.907
 9971TIP3   OH229855   3.374   0.653   4.209
 9971TIP3    H129856   3.340   0.734   4.246
 9971TIP3    H229857   3.439   0.682   4.145
 9972TIP3   OH229858   4.632   0.190   1.095
 9972TIP3    H129859   4.669   0.276   1.114
 9972TIP3    H229860   4.697   0.128   1.128
 9973TIP3   OH229861   6.129   4.424   6.450
 9973TIP3    H129862   6.146   4.418   6.544
 9973TIP3    H229863   6.196   4.369   6.409
 9974TIP3   OH229864   5.607   1.917   0.195
 9974TIP3    H129865   5.607   2.001   0.148
 9974TIP3    H229866   5.697   1.886   0.188
 9975TIP3   OH229867   6.011   7.484   2.573
 9975TIP3    H129868   6.038   7.512   2.661
 9975TIP3    H229869   6.013   7.564   2.521
 9976TIP3   OH229870   8.249   6.816   2.547
 9976TIP3    H129871   8.305   6.746   2.581
 9976TIP3    H229872   8.266   6.817   2.453
 9977TIP3   OH229873   1.602   1.929   6.793
 9977TIP3    H129874   1.585   1.942   6.699
 9977TIP3    H229875   1.643   2.011   6.821
 9978TIP3   OH229876   1.642   5.717   1.326
 9978TIP3    H129877   1.690   5.797   1.348
 9978TIP3    H229878   1.656   5.705   1.232
 9979TIP3   OH229879   7.219   0.731   6.488
 9979TIP3    H129880   7.222   0.807   6.546
 9979TIP3    H229881   7.131   0.695   6.499
 9980TIP3   OH229882   2.891   1.839   1.753
 9980TIP3    H129883   2.813   1.803   1.711
 9980TIP3    H229884   2.951   1.764   1.760
 9981TIP3   OH229885   1.517   4.366   4.450
 9981TIP3    H129886   1.556   4.329   4.371
 9981TIP3    H229887   1.427   4.386   4.426
 9982TIP3   OH229888   7.048   3.314   4.545
 9982TIP3    H129889   7.099   3.307   4.626
 9982TIP3    H229890   7.109   3.353   4.483
 9983TIP3   OH229891   1.356   0.228   4.484
 9983TIP3    H129892   1.382   0.139   4.510
 9983TIP3    H229893   1.301   0.215   4.407
 9984TIP3   OH229894   3.056   5.043   0.947
 9984TIP3    H129895   3.117   5.098   0.996
 9984TIP3    H229896   3.032   5.096   0.870
 9985TIP3   OH229897   7.139   0.854   2.121
 9985TIP3    H129898   7.133   0.948   2.135
 9985TIP3    H229899   7.063   0.818   2.167
 9986TIP3   OH229900   4.535   1.772   5.189
 9986TIP3    H129901   4.569   1.683   5.178
 9986TIP3    H229902   4.453   1.772   5.141
 9987TIP3   OH229903   0.455   6.494   0.432
 9987TIP3    H129904   0.501   6.567   0.473
 9987TIP3    H229905   0.520   6.424   0.429
 9988TIP3   OH229906   0.394   5.511   0.416
 9988TIP3    H129907   0.445   5.584   0.450
 9988TIP3    H229908   0.367   5.539   0.328
 9989TIP3   OH229909   5.254   0.759   5.745
 9989TIP3    H129910   5.328   0.797   5.698
 9989TIP3    H229911   5.213   0.700   5.683
 9990TIP3   OH229912   0.234   1.930   5.856
 9990TIP3    H129913   0.304   1.979   5.899
 9990TIP3    H229914   0.208   1.864   5.920
 9991TIP3   OH229915   6.073   7.166   2.176
 9991TIP3    H129916   6.077   7.079   2.137
 9991TIP3    H229917   6.065   7.150   2.270
 9992TIP3   OH229918   6.079   1.367   5.350
 9992TIP3    H129919   5.996   1.344   5.309
 9992TIP3    H229920   6.145   1.327   5.293
 9993TIP3   OH229921   3.310   7.372   5.450
 9993TIP3    H129922   3.280   7.441   5.391
 9993TIP3    H229923   3.341   7.419   5.527
 9994TIP3   OH229924   0.145   3.070   6.400
 9994TIP3    H129925   0.203   3.042   6.329
 9994TIP3    H229926   0.145   3.165   6.395
 9995TIP3   OH229927   4.464   0.044   6.709
 9995TIP3    H129928   4.430  -0.040   6.679
 9995TIP3    H229929   4.559   0.029   6.719
 9996TIP3   OH229930   4.642   3.484   4.016
 9996TIP3    H129931   4.648   3.438   3.933
 9996TIP3    H229932   4.716   3.450   4.067
 9997TIP3   OH229933   7.095   3.707   1.406
 9997TIP3    H129934   7.024   3.763   1.373
 9997TIP3    H229935   7.156   3.701   1.333
 9998TIP3   OH229936   1.526   7.274   3.202
 9998TIP3    H129937   1.581   7.204   3.167
 9998TIP3    H229938   1.464   7.229   3.259
 9999TIP3   OH229939   4.008   2.489   3.934
 9999TIP3    H129940   3.974   2.571   3.970
 9999TIP3    H229941   3.938   2.458   3.876
10000TIP3   OH229942   2.998   4.615   2.608
10000TIP3    H129943   2.941   4.620   2.685
10000TIP3    H229944   3.085   4.634   2.641
10001TIP3   OH229945   4.269   6.304   3.358
10001TIP3    H129946   4.346   6.289   3.413
10001TIP3    H229947   4.197   6.265   3.406
10002TIP3   OH229948   6.323   0.088   3.317
10002TIP3    H129949   6.251   0.055   3.371
10002TIP3    H229950   6.401   0.044   3.351
10003TIP3   OH229951   7.772   0.434   2.841
10003TIP3    H129952   7.788   0.392   2.756
10003TIP3    H229953   7.713   0.507   2.821
10004TIP3   OH229954   5.028   1.583   2.651
10004TIP3    H129955   5.013   1.493   2.620
10004TIP3    H229956   4.995   1.582   2.742
10005TIP3   OH229957   1.651   2.344   2.193
10005TIP3    H129958   1.595   2.368   2.119
10005TIP3    H229959   1.740   2.352   2.160
10006TIP3   OH229960   6.056   1.561   1.063
10006TIP3    H129961   6.015   1.605   1.138
10006TIP3    H229962   6.037   1.619   0.988
10007TIP3   OH229963   5.412   1.210   5.111
10007TIP3    H129964   5.371   1.218   5.198
10007TIP3    H229965   5.339   1.219   5.050
10008TIP3   OH229966   4.338   6.189   1.935
10008TIP3    H129967   4.312   6.194   2.026
10008TIP3    H229968   4.292   6.113   1.900
10009TIP3   OH229969   3.968   6.752   1.543
10009TIP3    H129970   3.901   6.721   1.604
10009TIP3    H229971   4.020   6.813   1.594
10010TIP3   OH229972   3.602   1.738   2.077
10010TIP3    H129973   3.586   1.831   2.094
10010TIP3    H229974   3.516   1.702   2.054
10011TIP3   OH229975   3.995   3.878   2.047
10011TIP3    H129976   3.921   3.821   2.025
10011TIP3    H229977   4.061   3.818   2.081
10012TIP3   OH229978   2.017   0.363   0.591
10012TIP3    H129979   2.089   0.309   0.559
10012TIP3    H229980   1.962   0.378   0.514
10013TIP3   OH229981   0.990   2.907   1.876
10013TIP3    H129982   1.030   2.954   1.803
10013TIP3    H229983   1.005   2.815   1.857
10014TIP3   OH229984   7.905   6.135   0.211
10014TIP3    H129985   7.940   6.135   0.300
10014TIP3    H229986   7.969   6.087   0.160
10015TIP3   OH229987   5.214   2.682   1.781
10015TIP3    H129988   5.278   2.745   1.814
10015TIP3    H229989   5.251   2.651   1.698
10016TIP3   OH229990   6.785   2.387   1.403
10016TIP3    H129991   6.838   2.463   1.378
10016TIP3    H229992   6.701   2.423   1.428
10017TIP3   OH229993   0.875   0.386   3.775
10017TIP3    H129994   0.920   0.302   3.763
10017TIP3    H229995   0.945   0.452   3.770
10018TIP3   OH229996   6.436   6.163   4.487
10018TIP3    H129997   6.453   6.217   4.409
10018TIP3    H229998   6.465   6.217   4.560
10019TIP3   OH229999   4.711   7.096   6.735
10019TIP3    H130000   4.704   7.142   6.651
10019TIP3    H230001   4.717   7.166   6.800
10020TIP3   OH230002   6.784   2.603   5.071
10020TIP3    H130003   6.744   2.554   5.143
10020TIP3    H230004   6.720   2.597   5.000
10021TIP3   OH230005   0.262   3.690   3.830
10021TIP3    H130006   0.214   3.707   3.749
10021TIP3    H230007   0.228   3.606   3.860
10022TIP3   OH230008   2.151   1.421   3.992
10022TIP3    H130009   2.119   1.492   3.936
10022TIP3    H230010   2.240   1.405   3.962
10023TIP3   OH230011   8.391   6.197   2.496
10023TIP3    H130012   8.349   6.283   2.495
10023TIP3    H230013   8.323   6.137   2.465
10024TIP3   OH230014   1.921   5.210   3.543
10024TIP3    H130015   1.942   5.303   3.535
10024TIP3    H230016   1.905   5.197   3.637
10025TIP3   OH230017   6.087   4.919   6.344
10025TIP3    H130018   6.122   4.834   6.368
10025TIP3    H230019   5.998   4.902   6.313
10026TIP3   OH230020   4.746   5.477   2.817
10026TIP3    H130021   4.695   5.556   2.838
10026TIP3    H230022   4.680   5.411   2.795
10027TIP3   OH230023   3.850   1.597   2.162
10027TIP3    H130024   3.766   1.639   2.143
10027TIP3    H230025   3.827   1.508   2.187
10028TIP3   OH230026   1.095   3.737   4.071
10028TIP3    H130027   1.172   3.775   4.112
10028TIP3    H230028   1.106   3.755   3.978
10029TIP3   OH230029   5.352   2.018   2.899
10029TIP3    H130030   5.442   1.999   2.928
10029TIP3    H230031   5.352   1.997   2.806
10030TIP3   OH230032   1.257   4.136   2.714
10030TIP3    H130033   1.168   4.150   2.681
10030TIP3    H230034   1.246   4.122   2.808
10031TIP3   OH230035   2.243   1.278   0.592
10031TIP3    H130036   2.270   1.359   0.635
10031TIP3    H230037   2.155   1.297   0.557
10032TIP3   OH230038   1.816   3.508   2.461
10032TIP3    H130039   1.847   3.419   2.446
10032TIP3    H230040   1.817   3.519   2.556
10033TIP3   OH230041   2.741   7.426   6.498
10033TIP3    H130042   2.724   7.467   6.413
10033TIP3    H230043   2.688   7.346   6.497
10034TIP3   OH230044   7.254   6.667   4.653
10034TIP3    H130045   7.168   6.700   4.680
10034TIP3    H230046   7.276   6.717   4.575
10035TIP3   OH230047   5.020   6.846   1.217
10035TIP3    H130048   4.983   6.789   1.285
10035TIP3    H230049   5.114   6.846   1.235
10036TIP3   OH230050   5.793   0.494   5.597
10036TIP3    H130051   5.884   0.520   5.587
10036TIP3    H230052   5.766   0.531   5.681
10037TIP3   OH230053   6.387   2.172   5.384
10037TIP3    H130054   6.383   2.210   5.471
10037TIP3    H230055   6.481   2.166   5.364
10038TIP3   OH230056   6.075   6.977   1.809
10038TIP3    H130057   6.053   6.989   1.716
10038TIP3    H230058   6.153   7.030   1.822
10039TIP3   OH230059   6.304   0.788   1.549
10039TIP3    H130060   6.317   0.773   1.455
10039TIP3    H230061   6.246   0.717   1.576
10040TIP3   OH230062   1.164   0.457   6.550
10040TIP3    H130063   1.227   0.522   6.580
10040TIP3    H230064   1.217   0.382   6.523
10041TIP3   OH230065   2.130   6.052   5.758
10041TIP3    H130066   2.092   5.964   5.763
10041TIP3    H230067   2.117   6.088   5.846
10042TIP3   OH230068   2.059   4.897   0.295
10042TIP3    H130069   2.007   4.859   0.224
10042TIP3    H230070   1.994   4.924   0.360
10043TIP3   OH230071   5.931   5.883   2.585
10043TIP3    H130072   5.939   5.811   2.647
10043TIP3    H230073   5.989   5.858   2.512
10044TIP3   OH230074   2.003   0.798   2.026
10044TIP3    H130075   2.092   0.823   2.001
10044TIP3    H230076   2.014   0.716   2.075
10045TIP3   OH230077   0.971   2.357   1.628
10045TIP3    H130078   0.988   2.268   1.661
10045TIP3    H230079   0.947   2.344   1.536
10046TIP3   OH230080   8.326   5.480   5.295
10046TIP3    H130081   8.238   5.500   5.263
10046TIP3    H230082   8.334   5.531   5.375
10047TIP3   OH230083   6.288   5.577   2.172
10047TIP3    H130084   6.366   5.606   2.219
10047TIP3    H230085   6.270   5.490   2.206
10048TIP3   OH230086   0.127   3.740   3.593
10048TIP3    H130087   0.081   3.766   3.513
10048TIP3    H230088   0.204   3.692   3.561
10049TIP3   OH230089   4.999   1.326   2.281
10049TIP3    H130090   5.040   1.239   2.273
10049TIP3    H230091   4.987   1.337   2.376
10050TIP3   OH230092   2.733   5.029   3.991
10050TIP3    H130093   2.822   4.997   4.004
10050TIP3    H230094   2.700   4.980   3.916
10051TIP3   OH230095   7.465   0.454   5.699
10051TIP3    H130096   7.483   0.536   5.653
10051TIP3    H230097   7.390   0.417   5.653
10052TIP3   OH230098   2.951   6.940   0.776
10052TIP3    H130099   3.021   6.975   0.831
10052TIP3    H230100   2.901   7.017   0.748
10053TIP3   OH230101   0.891   4.722   5.209
10053TIP3    H130102   0.811   4.677   5.236
10053TIP3    H230103   0.862   4.788   5.146
10054TIP3   OH230104   7.676   3.914   5.749
10054TIP3    H130105   7.634   3.878   5.671
10054TIP3    H230106   7.617   3.984   5.777
10055TIP3   OH230107   7.879   2.503   5.760
10055TIP3    H130108   7.927   2.505   5.677
10055TIP3    H230109   7.792   2.472   5.736
10056TIP3   OH230110   6.206   6.695   6.522
10056TIP3    H130111   6.111   6.691   6.537
10056TIP3    H230112   6.217   6.675   6.429
10057TIP3   OH230113   2.531   7.217   2.201
10057TIP3    H130114   2.567   7.297   2.162
10057TIP3    H230115   2.459   7.247   2.256
10058TIP3   OH230116   7.462   4.734   6.279
10058TIP3    H130117   7.451   4.645   6.248
10058TIP3    H230118   7.460   4.727   6.375
10059TIP3   OH230119   1.321   4.083   3.767
10059TIP3    H130120   1.384   4.147   3.733
10059TIP3    H230121   1.237   4.113   3.732
10060TIP3   OH230122   5.105   7.268   4.181
10060TIP3    H130123   5.176   7.274   4.116
10060TIP3    H230124   5.107   7.352   4.226
10061TIP3   OH230125   0.467   6.448   0.925
10061TIP3    H130126   0.402   6.453   0.855
10061TIP3    H230127   0.452   6.363   0.965
10062TIP3   OH230128   3.438   3.027   4.276
10062TIP3    H130129   3.519   3.035   4.327
10062TIP3    H230130   3.429   2.933   4.261
10063TIP3   OH230131   3.161   3.299   4.216
10063TIP3    H130132   3.114   3.228   4.260
10063TIP3    H230133   3.239   3.314   4.270
10064TIP3   OH230134   3.075   1.508   3.514
10064TIP3    H130135   3.149   1.526   3.571
10064TIP3    H230136   2.999   1.507   3.572
10065TIP3   OH230137   1.298   7.312   0.848
10065TIP3    H130138   1.245   7.274   0.918
10065TIP3    H230139   1.363   7.244   0.827
10066TIP3   OH230140   5.863   4.131   5.718
10066TIP3    H130141   5.769   4.116   5.708
10066TIP3    H230142   5.870   4.189   5.794
10067TIP3   OH230143   7.599   0.624   2.753
10067TIP3    H130144   7.526   0.561   2.749
10067TIP3    H230145   7.560   0.705   2.785
10068TIP3   OH230146   5.682   5.479   3.029
10068TIP3    H130147   5.691   5.417   3.101
10068TIP3    H230148   5.763   5.530   3.030
10069TIP3   OH230149   4.477   1.172   0.312
10069TIP3    H130150   4.529   1.234   0.261
10069TIP3    H230151   4.514   1.086   0.292
10070TIP3   OH230152   2.077   2.494   5.664
10070TIP3    H130153   2.136   2.529   5.597
10070TIP3    H230154   2.093   2.548   5.741
10071TIP3   OH230155   3.302   4.151   3.586
10071TIP3    H130156   3.341   4.097   3.655
10071TIP3    H230157   3.256   4.089   3.530
10072TIP3   OH230158   7.806   3.252   3.524
10072TIP3    H130159   7.732   3.192   3.513
10072TIP3    H230160   7.790   3.295   3.608
10073TIP3   OH230161   0.175   4.343   5.274
10073TIP3    H130162   0.232   4.270   5.253
10073TIP3    H230163   0.204   4.414   5.216
10074TIP3   OH230164   2.405   6.235   5.403
10074TIP3    H130165   2.475   6.233   5.338
10074TIP3    H230166   2.342   6.299   5.369
10075TIP3   OH230167   3.714   1.013   3.929
10075TIP3    H130168   3.775   0.950   3.968
10075TIP3    H230169   3.750   1.030   3.842
10076TIP3   OH230170   3.229   5.841   1.239
10076TIP3    H130171   3.140   5.813   1.220
10076TIP3    H230172   3.281   5.808   1.166
10077TIP3   OH230173   8.085   2.703   0.972
10077TIP3    H130174   8.097   2.625   1.026
10077TIP3    H230175   8.129   2.773   1.021
10078TIP3   OH230176   7.562   5.988   5.432
10078TIP3    H130177   7.564   5.892   5.434
10078TIP3    H230178   7.567   6.009   5.338
10079TIP3   OH230179   7.804   6.417   3.557
10079TIP3    H130180   7.753   6.420   3.476
10079TIP3    H230181   7.783   6.499   3.602
10080TIP3   OH230182   3.650   6.410   3.048
10080TIP3    H130183   3.598   6.331   3.056
10080TIP3    H230184   3.665   6.439   3.138
10081TIP3   OH230185   7.517   3.984   3.719
10081TIP3    H130186   7.510   3.907   3.775
10081TIP3    H230187   7.610   3.994   3.703
10082TIP3   OH230188   2.709   2.982   2.377
10082TIP3    H130189   2.755   3.044   2.321
10082TIP3    H230190   2.672   2.917   2.317
10083TIP3   OH230191   2.748   4.986   6.485
10083TIP3    H130192   2.780   5.019   6.401
10083TIP3    H230193   2.721   5.064   6.534
10084TIP3   OH230194   1.779   0.505   4.981
10084TIP3    H130195   1.798   0.597   4.998
10084TIP3    H230196   1.705   0.484   5.039
10085TIP3   OH230197   2.410   3.158   6.368
10085TIP3    H130198   2.355   3.179   6.443
10085TIP3    H230199   2.364   3.197   6.293
10086TIP3   OH230200   7.797   1.858   2.645
10086TIP3    H130201   7.875   1.886   2.693
10086TIP3    H230202   7.830   1.793   2.582
10087TIP3   OH230203   5.018   2.967   0.787
10087TIP3    H130204   4.999   2.887   0.836
10087TIP3    H230205   5.101   2.950   0.743
10088TIP3   OH230206   4.345   4.542   4.919
10088TIP3    H130207   4.286   4.477   4.883
10088TIP3    H230208   4.431   4.500   4.919
10089TIP3   OH230209   4.775   5.421   6.146
10089TIP3    H130210   4.706   5.461   6.199
10089TIP3    H230211   4.792   5.337   6.187
10090TIP3   OH230212   6.696   1.258   3.306
10090TIP3    H130213   6.787   1.245   3.333
10090TIP3    H230214   6.697   1.339   3.255
10091TIP3   OH230215   6.531   1.146   0.588
10091TIP3    H130216   6.445   1.171   0.555
10091TIP3    H230217   6.565   1.224   0.631
10092TIP3   OH230218   6.762   5.042   4.826
10092TIP3    H130219   6.770   4.947   4.827
10092TIP3    H230220   6.668   5.059   4.836
10093TIP3   OH230221   0.604   1.194   2.615
10093TIP3    H130222   0.669   1.256   2.581
10093TIP3    H230223   0.575   1.146   2.537
10094TIP3   OH230224   4.345   7.383   0.277
10094TIP3    H130225   4.389   7.414   0.198
10094TIP3    H230226   4.288   7.313   0.247
10095TIP3   OH230227   0.099   5.649   3.320
10095TIP3    H130228   0.077   5.573   3.374
10095TIP3    H230229   0.180   5.683   3.358
10096TIP3   OH230230   6.374   2.491   4.393
10096TIP3    H130231   6.455   2.523   4.434
10096TIP3    H230232   6.356   2.409   4.438
10097TIP3   OH230233   4.660   3.355   3.758
10097TIP3    H130234   4.653   3.349   3.663
10097TIP3    H230235   4.682   3.267   3.787
10098TIP3   OH230236   2.048   7.428   2.578
10098TIP3    H130237   2.034   7.333   2.586
10098TIP3    H230238   2.074   7.456   2.666
10099TIP3   OH230239   6.094   7.652   6.662
10099TIP3    H130240   6.171   7.709   6.661
10099TIP3    H230241   6.023   7.707   6.696
10100TIP3   OH230242   5.369   2.237   3.083
10100TIP3    H130243   5.357   2.160   3.027
10100TIP3    H230244   5.454   2.272   3.057
10101TIP3   OH230245   1.880   2.028   0.640
10101TIP3    H130246   1.826   1.949   0.652
10101TIP3    H230247   1.851   2.087   0.709
10102TIP3   OH230248   6.988   6.751   1.066
10102TIP3    H130249   6.959   6.774   0.977
10102TIP3    H230250   6.977   6.831   1.117
10103TIP3   OH230251   1.011   3.565   4.285
10103TIP3    H130252   0.918   3.557   4.263
10103TIP3    H230253   1.039   3.644   4.239
10104TIP3   OH230254   6.179   1.373   4.114
10104TIP3    H130255   6.207   1.449   4.064
10104TIP3    H230256   6.088   1.391   4.137
10105TIP3   OH230257   0.434   2.990   6.261
10105TIP3    H130258   0.416   3.075   6.220
10105TIP3    H230259   0.526   2.997   6.288
10106TIP3   OH230260   5.074   1.574   6.493
10106TIP3    H130261   5.147   1.538   6.544
10106TIP3    H230262   5.035   1.498   6.450
10107TIP3   OH230263   3.439   3.556   6.527
10107TIP3    H130264   3.444   3.570   6.621
10107TIP3    H230265   3.346   3.553   6.507
10108TIP3   OH230266   6.762   0.938   0.169
10108TIP3    H130267   6.690   0.973   0.222
10108TIP3    H230268   6.819   1.013   0.155
10109TIP3   OH230269   6.270   0.419   5.604
10109TIP3    H130270   6.322   0.343   5.578
10109TIP3    H230271   6.304   0.491   5.551
10110TIP3   OH230272   5.760   4.925   6.022
10110TIP3    H130273   5.783   4.932   6.115
10110TIP3    H230274   5.666   4.907   6.022
10111TIP3   OH230275   1.121   2.225   3.769
10111TIP3    H130276   1.128   2.147   3.824
10111TIP3    H230277   1.144   2.298   3.826
10112TIP3   OH230278   8.167   5.021   0.412
10112TIP3    H130279   8.245   5.054   0.456
10112TIP3    H230280   8.151   4.935   0.451
10113TIP3   OH230281   4.683   2.134   5.136
10113TIP3    H130282   4.612   2.198   5.132
10113TIP3    H230283   4.667   2.085   5.217
10114TIP3   OH230284   7.661   4.901   2.491
10114TIP3    H130285   7.740   4.850   2.507
10114TIP3    H230286   7.639   4.939   2.577
10115TIP3   OH230287   1.531   1.456   0.118
10115TIP3    H130288   1.502   1.494   0.201
10115TIP3    H230289   1.624   1.480   0.112
10116TIP3   OH230290   1.155   3.580   1.237
10116TIP3    H130291   1.064   3.557   1.255
10116TIP3    H230292   1.180   3.526   1.162
10117TIP3   OH230293   4.512   5.995   2.548
10117TIP3    H130294   4.542   6.005   2.458
10117TIP3    H230295   4.526   5.902   2.568
10118TIP3   OH230296   3.353   2.051   5.795
10118TIP3    H130297   3.290   2.109   5.752
10118TIP3    H230298   3.438   2.087   5.772
10119TIP3   OH230299   3.816   2.266   6.413
10119TIP3    H130300   3.899   2.234   6.448
10119TIP3    H230301   3.832   2.275   6.319
10120TIP3   OH230302   7.693   5.036   4.277
10120TIP3    H130303   7.755   5.107   4.261
10120TIP3    H230304   7.730   4.989   4.352
10121TIP3   OH230305   2.168   4.896   4.981
10121TIP3    H130306   2.093   4.837   4.987
10121TIP3    H230307   2.199   4.903   5.072
10122TIP3   OH230308   1.312   7.337   1.303
10122TIP3    H130309   1.285   7.423   1.272
10122TIP3    H230310   1.297   7.340   1.398
10123TIP3   OH230311   7.369   7.507   5.501
10123TIP3    H130312   7.458   7.478   5.523
10123TIP3    H230313   7.373   7.602   5.505
10124TIP3   OH230314   5.888   6.719   1.822
10124TIP3    H130315   5.937   6.652   1.869
10124TIP3    H230316   5.872   6.681   1.735
10125TIP3   OH230317   5.370   7.704   6.751
10125TIP3    H130318   5.393   7.747   6.668
10125TIP3    H230319   5.433   7.633   6.760
10126TIP3   OH230320   7.541   4.662   3.167
10126TIP3    H130321   7.635   4.684   3.164
10126TIP3    H230322   7.529   4.619   3.252
10127TIP3   OH230323   3.875   2.123   2.649
10127TIP3    H130324   3.837   2.154   2.567
10127TIP3    H230325   3.942   2.061   2.622
10128TIP3   OH230326   6.347   6.140   0.809
10128TIP3    H130327   6.287   6.201   0.765
10128TIP3    H230328   6.390   6.093   0.738
10129TIP3   OH230329   7.618   6.140   5.164
10129TIP3    H130330   7.687   6.103   5.110
10129TIP3    H230331   7.660   6.212   5.211
10130TIP3   OH230332   0.358   3.137   0.678
10130TIP3    H130333   0.379   3.122   0.770
10130TIP3    H230334   0.297   3.068   0.655
10131TIP3   OH230335   6.383   1.893   6.764
10131TIP3    H130336   6.477   1.910   6.757
10131TIP3    H230337   6.375   1.799   6.747
10132TIP3   OH230338   4.552   0.331   2.109
10132TIP3    H130339   4.553   0.245   2.067
10132TIP3    H230340   4.566   0.313   2.202
10133TIP3   OH230341   6.078   1.075   2.369
10133TIP3    H130342   6.130   1.151   2.343
10133TIP3    H230343   6.038   1.100   2.452
10134TIP3   OH230344   7.111   4.115   6.126
10134TIP3    H130345   7.192   4.165   6.137
10134TIP3    H230346   7.088   4.127   6.034
10135TIP3   OH230347   6.840   4.932   3.046
10135TIP3    H130348   6.921   4.953   3.092
10135TIP3    H230349   6.842   4.986   2.967
10136TIP3   OH230350   7.617   4.541   5.394
10136TIP3    H130351   7.596   4.466   5.339
10136TIP3    H230352   7.712   4.551   5.386
10137TIP3   OH230353   1.288   2.640   0.864
10137TIP3    H130354   1.255   2.595   0.942
10137TIP3    H230355   1.309   2.570   0.802
10138TIP3   OH230356   1.585   6.920   6.167
10138TIP3    H130357   1.571   6.968   6.248
10138TIP3    H230358   1.504   6.871   6.152
10139TIP3   OH230359   2.446   3.342   5.254
10139TIP3    H130360   2.442   3.404   5.327
10139TIP3    H230361   2.501   3.385   5.189
10140TIP3   OH230362   0.093   1.828   2.099
10140TIP3    H130363   0.142   1.762   2.148
10140TIP3    H230364   0.117   1.911   2.139
10141TIP3   OH230365   3.304   4.261   2.291
10141TIP3    H130366   3.344   4.339   2.329
10141TIP3    H230367   3.238   4.295   2.231
10142TIP3   OH230368   4.519   2.818   1.990
10142TIP3    H130369   4.542   2.796   1.900
10142TIP3    H230370   4.471   2.901   1.983
10143TIP3   OH230371   7.080   7.059   3.489
10143TIP3    H130372   7.110   7.142   3.526
10143TIP3    H230373   7.091   7.069   3.395
10144TIP3   OH230374   5.186   5.122   2.190
10144TIP3    H130375   5.236   5.200   2.166
10144TIP3    H230376   5.107   5.128   2.136
10145TIP3   OH230377   1.889   4.058   0.371
10145TIP3    H130378   1.797   4.033   0.385
10145TIP3    H230379   1.939   3.991   0.417
10146TIP3   OH230380   8.243   6.651   1.837
10146TIP3    H130381   8.162   6.665   1.789
10146TIP3    H230382   8.311   6.684   1.778
10147TIP3   OH230383   4.879   4.143   0.835
10147TIP3    H130384   4.890   4.064   0.781
10147TIP3    H230385   4.905   4.115   0.922
10148TIP3   OH230386   4.076   2.327   3.572
10148TIP3    H130387   4.121   2.398   3.526
10148TIP3    H230388   4.144   2.261   3.587
10149TIP3   OH230389   2.754   4.822   0.531
10149TIP3    H130390   2.761   4.884   0.458
10149TIP3    H230391   2.843   4.813   0.565
10150TIP3   OH230392   4.202   1.562   6.504
10150TIP3    H130393   4.208   1.649   6.545
10150TIP3    H230394   4.240   1.575   6.417
10151TIP3   OH230395   6.659   1.513   1.354
10151TIP3    H130396   6.660   1.485   1.446
10151TIP3    H230397   6.634   1.435   1.305
10152TIP3   OH230398   1.726   4.759   4.296
10152TIP3    H130399   1.785   4.797   4.361
10152TIP3    H230400   1.775   4.687   4.257
10153TIP3   OH230401   3.016   5.186   1.915
10153TIP3    H130402   3.093   5.215   1.867
10153TIP3    H230403   3.049   5.117   1.973
10154TIP3   OH230404   5.619   3.927   5.886
10154TIP3    H130405   5.699   3.897   5.929
10154TIP3    H230406   5.563   3.849   5.882
10155TIP3   OH230407   6.126   4.518   3.564
10155TIP3    H130408   6.075   4.453   3.613
10155TIP3    H230409   6.160   4.577   3.632
10156TIP3   OH230410   5.032   4.971   1.724
10156TIP3    H130411   4.975   4.905   1.764
10156TIP3    H230412   4.977   5.015   1.660
10157TIP3   OH230413   8.237   7.013   3.364
10157TIP3    H130414   8.200   7.102   3.366
10157TIP3    H230415   8.212   6.975   3.448
10158TIP3   OH230416   5.853   1.011   1.974
10158TIP3    H130417   5.861   0.964   2.057
10158TIP3    H230418   5.933   0.988   1.926
10159TIP3   OH230419   4.505   6.344   2.578
10159TIP3    H130420   4.510   6.316   2.486
10159TIP3    H230421   4.567   6.286   2.623
10160TIP3   OH230422   5.694   7.473   3.694
10160TIP3    H130423   5.750   7.494   3.619
10160TIP3    H230424   5.728   7.390   3.727
10161TIP3   OH230425   4.530   1.463   6.144
10161TIP3    H130426   4.539   1.535   6.081
10161TIP3    H230427   4.445   1.425   6.124
10162TIP3   OH230428   1.575   0.436   3.386
10162TIP3    H130429   1.646   0.371   3.386
10162TIP3    H230430   1.594   0.490   3.463
10163TIP3   OH230431   0.412   1.534   1.832
10163TIP3    H130432   0.493   1.486   1.849
10163TIP3    H230433   0.413   1.605   1.896
10164TIP3   OH230434   2.378   5.719   1.625
10164TIP3    H130435   2.401   5.799   1.672
10164TIP3    H230436   2.433   5.651   1.666
10165TIP3   OH230437   5.480   3.126   4.347
10165TIP3    H130438   5.552   3.156   4.292
10165TIP3    H230439   5.522   3.075   4.416
10166TIP3   OH230440   2.611   3.813   2.455
10166TIP3    H130441   2.615   3.857   2.370
10166TIP3    H230442   2.552   3.740   2.440
10167TIP3   OH230443   7.757   4.195   2.699
10167TIP3    H130444   7.841   4.210   2.743
10167TIP3    H230445   7.749   4.099   2.696
10168TIP3   OH230446   6.476   2.125   6.155
10168TIP3    H130447   6.474   2.207   6.204
10168TIP3    H230448   6.438   2.061   6.215
10169TIP3   OH230449   7.264   6.068   1.990
10169TIP3    H130450   7.319   6.061   2.068
10169TIP3    H230451   7.325   6.088   1.919
10170TIP3   OH230452   0.735   6.582   4.446
10170TIP3    H130453   0.718   6.593   4.539
10170TIP3    H230454   0.827   6.557   4.441
10171TIP3   OH230455   4.840   3.025   2.522
10171TIP3    H130456   4.816   3.036   2.430
10171TIP3    H230457   4.881   2.938   2.526
10172TIP3   OH230458   1.008  -0.021   5.380
10172TIP3    H130459   0.946  -0.069   5.326
10172TIP3    H230460   0.956   0.050   5.418
10173TIP3   OH230461   7.893   4.033   1.214
10173TIP3    H130462   7.887   4.064   1.123
10173TIP3    H230463   7.848   4.099   1.265
10174TIP3   OH230464   7.315   6.855   4.158
10174TIP3    H130465   7.234   6.808   4.176
10174TIP3    H230466   7.320   6.860   4.062
10175TIP3   OH230467   0.270   0.950   2.132
10175TIP3    H130468   0.286   0.929   2.224
10175TIP3    H230469   0.183   0.990   2.132
10176TIP3   OH230470   2.846   4.280   6.427
10176TIP3    H130471   2.827   4.337   6.352
10176TIP3    H230472   2.882   4.201   6.387
10177TIP3   OH230473   2.231   0.076   5.695
10177TIP3    H130474   2.214   0.089   5.601
10177TIP3    H230475   2.145   0.053   5.732
10178TIP3   OH230476   2.499   1.143   4.800
10178TIP3    H130477   2.418   1.095   4.781
10178TIP3    H230478   2.568   1.082   4.774
10179TIP3   OH230479   5.146   7.208   4.496
10179TIP3    H130480   5.098   7.224   4.415
10179TIP3    H230481   5.154   7.113   4.501
10180TIP3   OH230482   7.265   7.362   4.050
10180TIP3    H130483   7.259   7.386   4.143
10180TIP3    H230484   7.345   7.404   4.020
10181TIP3   OH230485   5.917   6.539   3.360
10181TIP3    H130486   5.904   6.537   3.455
10181TIP3    H230487   5.932   6.632   3.341
10182TIP3   OH230488   7.800   5.153   1.900
10182TIP3    H130489   7.818   5.139   1.807
10182TIP3    H230490   7.806   5.066   1.939
10183TIP3   OH230491   5.363   3.575   5.662
10183TIP3    H130492   5.326   3.556   5.576
10183TIP3    H230493   5.403   3.493   5.690
10184TIP3   OH230494   0.045   6.802   0.939
10184TIP3    H130495   0.119   6.742   0.928
10184TIP3    H230496  -0.004   6.765   1.013
10185TIP3   OH230497   1.171   1.952   5.314
10185TIP3    H130498   1.247   1.917   5.360
10185TIP3    H230499   1.163   1.897   5.236
10186TIP3   OH230500   0.182   2.640   0.747
10186TIP3    H130501   0.125   2.658   0.672
10186TIP3    H230502   0.174   2.718   0.802
10187TIP3   OH230503   6.591   2.605   4.528
10187TIP3    H130504   6.631   2.575   4.610
10187TIP3    H230505   6.511   2.650   4.556
10188TIP3   OH230506   7.056   5.141   6.272
10188TIP3    H130507   7.031   5.218   6.222
10188TIP3    H230508   7.143   5.161   6.307
10189TIP3   OH230509   8.141   2.132   0.938
10189TIP3    H130510   8.058   2.129   0.890
10189TIP3    H230511   8.134   2.063   1.003
10190TIP3   OH230512   0.584   4.198   4.724
10190TIP3    H130513   0.629   4.120   4.690
10190TIP3    H230514   0.600   4.266   4.658
10191TIP3   OH230515   4.118   2.006   4.926
10191TIP3    H130516   4.116   2.086   4.873
10191TIP3    H230517   4.026   1.981   4.934
10192TIP3   OH230518   1.776   7.259   6.206
10192TIP3    H130519   1.728   7.191   6.160
10192TIP3    H230520   1.845   7.286   6.145
10193TIP3   OH230521   4.154   4.323   2.098
10193TIP3    H130522   4.068   4.309   2.060
10193TIP3    H230523   4.216   4.291   2.032
10194TIP3   OH230524   4.250   3.776   3.004
10194TIP3    H130525   4.176   3.728   3.040
10194TIP3    H230526   4.211   3.853   2.964
10195TIP3   OH230527   2.574   0.264   5.778
10195TIP3    H130528   2.542   0.175   5.763
10195TIP3    H230529   2.638   0.278   5.708
10196TIP3   OH230530   0.444   6.370   4.002
10196TIP3    H130531   0.498   6.403   4.074
10196TIP3    H230532   0.508   6.341   3.937
10197TIP3   OH230533   2.756   1.462   1.246
10197TIP3    H130534   2.744   1.459   1.151
10197TIP3    H230535   2.850   1.458   1.258
10198TIP3   OH230536   7.985   0.532   5.417
10198TIP3    H130537   7.962   0.580   5.338
10198TIP3    H230538   7.968   0.440   5.395
10199TIP3   OH230539   1.571   2.620   4.797
10199TIP3    H130540   1.578   2.599   4.704
10199TIP3    H230541   1.594   2.538   4.841
10200TIP3   OH230542   7.180   5.997   5.392
10200TIP3    H130543   7.097   6.015   5.348
10200TIP3    H230544   7.246   6.036   5.334
10201TIP3   OH230545   2.713   0.736   6.011
10201TIP3    H130546   2.717   0.716   6.104
10201TIP3    H230547   2.736   0.655   5.967
10202TIP3   OH230548   4.402   3.719   0.280
10202TIP3    H130549   4.308   3.735   0.271
10202TIP3    H230550   4.409   3.657   0.352
10203TIP3   OH230551   8.032   4.684   2.896
10203TIP3    H130552   8.092   4.612   2.916
10203TIP3    H230553   7.963   4.644   2.844
10204TIP3   OH230554   7.682   3.609   5.271
10204TIP3    H130555   7.775   3.599   5.254
10204TIP3    H230556   7.657   3.526   5.313
10205TIP3   OH230557   7.787   0.137   5.563
10205TIP3    H130558   7.800   0.072   5.633
10205TIP3    H230559   7.769   0.219   5.609
10206TIP3   OH230560   3.088   2.044   3.793
10206TIP3    H130561   3.160   2.021   3.852
10206TIP3    H230562   3.061   1.961   3.755
10207TIP3   OH230563   3.123   1.524   5.029
10207TIP3    H130564   3.065   1.477   5.088
10207TIP3    H230565   3.191   1.561   5.086
10208TIP3   OH230566   7.596   6.528   0.017
10208TIP3    H130567   7.643   6.607  -0.010
10208TIP3    H230568   7.665   6.470   0.052
10209TIP3   OH230569   5.843   2.400   6.515
10209TIP3    H130570   5.762   2.370   6.475
10209TIP3    H230571   5.818   2.423   6.605
10210TIP3   OH230572   0.910   7.285   1.471
10210TIP3    H130573   0.978   7.220   1.492
10210TIP3    H230574   0.917   7.349   1.542
10211TIP3   OH230575   7.598   1.064   2.056
10211TIP3    H130576   7.537   1.013   2.108
10211TIP3    H230577   7.657   1.105   2.120
10212TIP3   OH230578   4.674   2.613   1.337
10212TIP3    H130579   4.759   2.575   1.313
10212TIP3    H230580   4.696   2.700   1.372
10213TIP3   OH230581   5.543   2.799   4.314
10213TIP3    H130582   5.521   2.860   4.244
10213TIP3    H230583   5.621   2.837   4.356
10214TIP3   OH230584   2.078   0.629   0.249
10214TIP3    H130585   1.990   0.663   0.262
10214TIP3    H230586   2.102   0.656   0.160
10215TIP3   OH230587   5.017   6.052   5.543
10215TIP3    H130588   5.029   6.143   5.572
10215TIP3    H230589   5.095   6.007   5.574
10216TIP3   OH230590   3.984   4.612   6.203
10216TIP3    H130591   3.942   4.611   6.290
10216TIP3    H230592   3.998   4.519   6.183
10217TIP3   OH230593   0.114   7.121   4.699
10217TIP3    H130594   0.054   7.122   4.625
10217TIP3    H230595   0.093   7.201   4.747
10218TIP3   OH230596   5.520   2.899   3.655
10218TIP3    H130597   5.436   2.936   3.627
10218TIP3    H230598   5.561   2.870   3.574
10219TIP3   OH230599   3.265   2.434   4.610
10219TIP3    H130600   3.319   2.395   4.679
10219TIP3    H230601   3.327   2.453   4.539
10220TIP3   OH230602   1.740   7.680   2.647
10220TIP3    H130603   1.695   7.598   2.629
10220TIP3    H230604   1.672   7.747   2.634
10221TIP3   OH230605   0.890   7.028   4.810
10221TIP3    H130606   0.803   7.035   4.770
10221TIP3    H230607   0.948   7.075   4.750
10222TIP3   OH230608   1.834   2.086   3.749
10222TIP3    H130609   1.810   2.164   3.699
10222TIP3    H230610   1.834   2.114   3.840
10223TIP3   OH230611   1.336   3.808   4.880
10223TIP3    H130612   1.422   3.839   4.854
10223TIP3    H230613   1.276   3.879   4.856
10224TIP3   OH230614   6.939   7.430   4.380
10224TIP3    H130615   6.889   7.491   4.325
10224TIP3    H230616   6.937   7.347   4.332
10225TIP3   OH230617   1.509   1.932   5.120
10225TIP3    H130618   1.575   1.890   5.065
10225TIP3    H230619   1.459   1.860   5.158
10226TIP3   OH230620   3.766   3.539   2.184
10226TIP3    H130621   3.722   3.536   2.269
10226TIP3    H230622   3.854   3.506   2.201
10227TIP3   OH230623   0.409   4.499   5.858
10227TIP3    H130624   0.428   4.470   5.769
10227TIP3    H230625   0.319   4.531   5.854
10228TIP3   OH230626   0.493   0.963   1.100
10228TIP3    H130627   0.514   0.968   1.007
10228TIP3    H230628   0.498   0.870   1.121
10229TIP3   OH230629   0.134   2.618   1.480
10229TIP3    H130630   0.095   2.675   1.546
10229TIP3    H230631   0.159   2.677   1.409
10230TIP3   OH230632   1.994   7.128   3.915
10230TIP3    H130633   1.963   7.143   3.825
10230TIP3    H230634   2.023   7.037   3.915
10231TIP3   OH230635   2.246   6.073   2.724
10231TIP3    H130636   2.198   6.085   2.807
10231TIP3    H230637   2.315   6.011   2.745
10232TIP3   OH230638   5.251   1.148   2.658
10232TIP3    H130639   5.228   1.211   2.726
10232TIP3    H230640   5.325   1.189   2.613
10233TIP3   OH230641   2.243   2.329   1.459
10233TIP3    H130642   2.273   2.388   1.390
10233TIP3    H230643   2.308   2.338   1.528
10234TIP3   OH230644   1.717   2.364   4.318
10234TIP3    H130645   1.732   2.270   4.328
10234TIP3    H230646   1.707   2.396   4.408
10235TIP3   OH230647   3.672   7.479   0.826
10235TIP3    H130648   3.593   7.532   0.839
10235TIP3    H230649   3.645   7.411   0.765
10236TIP3   OH230650   0.326   1.453   3.563
10236TIP3    H130651   0.273   1.386   3.605
10236TIP3    H230652   0.308   1.442   3.469
10237TIP3   OH230653   4.055   5.784   1.446
10237TIP3    H130654   3.965   5.752   1.442
10237TIP3    H230655   4.047   5.876   1.473
10238TIP3   OH230656   5.440   2.264   0.721
10238TIP3    H130657   5.389   2.204   0.775
10238TIP3    H230658   5.458   2.216   0.641
10239TIP3   OH230659   7.240   0.355   3.145
10239TIP3    H130660   7.279   0.369   3.231
10239TIP3    H230661   7.234   0.442   3.107
10240TIP3   OH230662   1.161   6.773   5.117
10240TIP3    H130663   1.090   6.803   5.061
10240TIP3    H230664   1.220   6.848   5.125
10241TIP3   OH230665   4.426   4.305   2.749
10241TIP3    H130666   4.349   4.308   2.806
10241TIP3    H230667   4.460   4.216   2.760
10242TIP3   OH230668   4.494   7.820   2.878
10242TIP3    H130669   4.575   7.782   2.842
10242TIP3    H230670   4.458   7.752   2.934
10243TIP3   OH230671   0.110   4.796   2.008
10243TIP3    H130672   0.098   4.873   2.064
10243TIP3    H230673   0.036   4.739   2.029
10244TIP3   OH230674   7.711   4.349   5.053
10244TIP3    H130675   7.653   4.393   4.991
10244TIP3    H230676   7.730   4.264   5.014
10245TIP3   OH230677   4.841   0.415   3.344
10245TIP3    H130678   4.912   0.369   3.388
10245TIP3    H230679   4.788   0.452   3.415
10246TIP3   OH230680   8.321   7.239   5.673
10246TIP3    H130681   8.324   7.244   5.577
10246TIP3    H230682   8.241   7.190   5.692
10247TIP3   OH230683   1.946   1.273   1.708
10247TIP3    H130684   2.037   1.252   1.686
10247TIP3    H230685   1.953   1.326   1.787
10248TIP3   OH230686   4.010   6.923   0.397
10248TIP3    H130687   3.944   6.992   0.394
10248TIP3    H230688   4.093   6.968   0.379
10249TIP3   OH230689   5.294   2.994   3.522
10249TIP3    H130690   5.250   3.078   3.537
10249TIP3    H230691   5.337   3.004   3.437
10250TIP3   OH230692   4.642   2.055   0.922
10250TIP3    H130693   4.595   2.089   0.846
10250TIP3    H230694   4.640   1.960   0.912
10251TIP3   OH230695   0.184   0.960   0.610
10251TIP3    H130696   0.269   0.935   0.644
10251TIP3    H230697   0.198   0.971   0.516
10252TIP3   OH230698   2.334   5.911   3.320
10252TIP3    H130699   2.364   5.837   3.372
10252TIP3    H230700   2.414   5.958   3.297
10253TIP3   OH230701   1.259   5.310   1.773
10253TIP3    H130702   1.232   5.274   1.689
10253TIP3    H230703   1.300   5.393   1.751
10254TIP3   OH230704   5.417   5.412   4.988
10254TIP3    H130705   5.361   5.341   5.020
10254TIP3    H230706   5.356   5.477   4.953
10255TIP3   OH230707   3.841   6.723   0.680
10255TIP3    H130708   3.825   6.669   0.758
10255TIP3    H230709   3.933   6.710   0.660
10256TIP3   OH230710   7.768   0.294   0.437
10256TIP3    H130711   7.839   0.280   0.375
10256TIP3    H230712   7.751   0.208   0.475
10257TIP3   OH230713   8.135   6.122   3.376
10257TIP3    H130714   8.190   6.046   3.396
10257TIP3    H230715   8.047   6.096   3.405
10258TIP3   OH230716   1.206   5.406   3.996
10258TIP3    H130717   1.146   5.348   3.950
10258TIP3    H230718   1.292   5.389   3.957
10259TIP3   OH230719   5.599   6.524   5.205
10259TIP3    H130720   5.673   6.541   5.147
10259TIP3    H230721   5.525   6.510   5.146
10260TIP3   OH230722   3.433   3.309   3.805
10260TIP3    H130723   3.426   3.275   3.894
10260TIP3    H230724   3.449   3.231   3.751
10261TIP3   OH230725   1.301   5.248   0.851
10261TIP3    H130726   1.234   5.181   0.864
10261TIP3    H230727   1.308   5.294   0.935
10262TIP3   OH230728   7.362   7.221   0.225
10262TIP3    H130729   7.410   7.248   0.304
10262TIP3    H230730   7.329   7.134   0.246
10263TIP3   OH230731   3.495   2.888   0.470
10263TIP3    H130732   3.520   2.950   0.539
10263TIP3    H230733   3.415   2.847   0.502
10264TIP3   OH230734   8.179   2.547   1.191
10264TIP3    H130735   8.178   2.623   1.249
10264TIP3    H230736   8.248   2.490   1.226
10265TIP3   OH230737   0.233   2.849   2.172
10265TIP3    H130738   0.241   2.944   2.169
10265TIP3    H230739   0.162   2.829   2.111
10266TIP3   OH230740   3.860   5.374   0.683
10266TIP3    H130741   3.873   5.444   0.619
10266TIP3    H230742   3.769   5.349   0.673
10267TIP3   OH230743   5.104   4.681   5.234
10267TIP3    H130744   5.103   4.653   5.326
10267TIP3    H230745   5.085   4.775   5.238
10268TIP3   OH230746   5.598   5.286   4.829
10268TIP3    H130747   5.592   5.288   4.734
10268TIP3    H230748   5.520   5.332   4.859
10269TIP3   OH230749   0.807   1.397   3.108
10269TIP3    H130750   0.811   1.481   3.154
10269TIP3    H230751   0.784   1.334   3.177
10270TIP3   OH230752   4.463   5.864   3.457
10270TIP3    H130753   4.400   5.934   3.474
10270TIP3    H230754   4.548   5.908   3.452
10271TIP3   OH230755   2.677   0.639   2.008
10271TIP3    H130756   2.657   0.697   2.080
10271TIP3    H230757   2.724   0.565   2.048
10272TIP3   OH230758   3.258   5.850   3.471
10272TIP3    H130759   3.322   5.809   3.529
10272TIP3    H230760   3.307   5.868   3.391
10273TIP3   OH230761   6.025   6.047   0.233
10273TIP3    H130762   6.057   6.100   0.306
10273TIP3    H230763   6.027   6.107   0.158
10274TIP3   OH230764   3.001   5.555   5.687
10274TIP3    H130765   3.053   5.599   5.754
10274TIP3    H230766   3.065   5.524   5.623
10275TIP3   OH230767   5.696   3.721   0.110
10275TIP3    H130768   5.735   3.688   0.190
10275TIP3    H230769   5.770   3.751   0.057
10276TIP3   OH230770   5.461   7.477   3.086
10276TIP3    H130771   5.452   7.381   3.091
10276TIP3    H230772   5.467   7.504   3.178
10277TIP3   OH230773   0.612   0.055   1.065
10277TIP3    H130774   0.708   0.054   1.061
10277TIP3    H230775   0.584  -0.001   0.993
10278TIP3   OH230776   4.773   4.233   1.285
10278TIP3    H130777   4.812   4.156   1.326
10278TIP3    H230778   4.743   4.286   1.358
10279TIP3   OH230779   8.219   7.593   2.679
10279TIP3    H130780   8.274   7.626   2.609
10279TIP3    H230781   8.198   7.670   2.732
10280TIP3   OH230782   7.193   6.102   0.277
10280TIP3    H130783   7.247   6.180   0.263
10280TIP3    H230784   7.256   6.033   0.298
10281TIP3   OH230785   1.320   3.829   4.198
10281TIP3    H130786   1.333   3.900   4.134
10281TIP3    H230787   1.348   3.867   4.281
10282TIP3   OH230788   2.622   1.962   4.323
10282TIP3    H130789   2.629   2.056   4.303
10282TIP3    H230790   2.675   1.920   4.255
10283TIP3   OH230791   2.518   2.929   0.855
10283TIP3    H130792   2.515   2.834   0.864
10283TIP3    H230793   2.516   2.944   0.761
10284TIP3   OH230794   0.134   5.393   4.520
10284TIP3    H130795   0.141   5.406   4.426
10284TIP3    H230796   0.167   5.475   4.558
10285TIP3   OH230797   3.671   5.675   4.968
10285TIP3    H130798   3.617   5.635   5.037
10285TIP3    H230799   3.684   5.605   4.904
10286TIP3   OH230800   1.255   6.880   2.314
10286TIP3    H130801   1.264   6.802   2.368
10286TIP3    H230802   1.270   6.848   2.224
10287TIP3   OH230803   2.807   4.819   0.029
10287TIP3    H130804   2.795   4.811  -0.065
10287TIP3    H230805   2.722   4.798   0.067
10288TIP3   OH230806   8.143   3.982   6.178
10288TIP3    H130807   8.169   3.936   6.098
10288TIP3    H230808   8.170   3.924   6.249
10289TIP3   OH230809   2.206   3.268   0.200
10289TIP3    H130810   2.234   3.325   0.271
10289TIP3    H230811   2.230   3.180   0.230
10290TIP3   OH230812   1.130   4.868   0.398
10290TIP3    H130813   1.107   4.847   0.488
10290TIP3    H230814   1.134   4.783   0.354
10291TIP3   OH230815   3.169   5.769   2.559
10291TIP3    H130816   3.185   5.736   2.470
10291TIP3    H230817   3.257   5.778   2.596
10292TIP3   OH230818   3.505   6.483   0.790
10292TIP3    H130819   3.531   6.557   0.845
10292TIP3    H230820   3.510   6.517   0.700
10293TIP3   OH230821   7.861   4.472   2.516
10293TIP3    H130822   7.928   4.405   2.504
10293TIP3    H230823   7.779   4.429   2.492
10294TIP3   OH230824   6.853   0.109   3.451
10294TIP3    H130825   6.841   0.172   3.381
10294TIP3    H230826   6.888   0.160   3.524
10295TIP3   OH230827   0.796   5.782   6.137
10295TIP3    H130828   0.774   5.759   6.228
10295TIP3    H230829   0.761   5.710   6.085
10296TIP3   OH230830   1.416   3.233   0.913
10296TIP3    H130831   1.484   3.183   0.867
10296TIP3    H230832   1.455   3.320   0.924
10297TIP3   OH230833   7.265   6.846   2.203
10297TIP3    H130834   7.217   6.927   2.184
10297TIP3    H230835   7.321   6.833   2.126
10298TIP3   OH230836   3.352   1.256   5.626
10298TIP3    H130837   3.326   1.264   5.717
10298TIP3    H230838   3.383   1.343   5.601
10299TIP3   OH230839   7.973   1.798   1.301
10299TIP3    H130840   7.916   1.727   1.273
10299TIP3    H230841   7.918   1.854   1.356
10300TIP3   OH230842   4.995   3.309   3.792
10300TIP3    H130843   5.048   3.365   3.849
10300TIP3    H230844   4.957   3.243   3.851
10301TIP3   OH230845   6.332   2.829   3.589
10301TIP3    H130846   6.336   2.747   3.540
10301TIP3    H230847   6.270   2.883   3.539
10302TIP3   OH230848   7.596   4.378   3.766
10302TIP3    H130849   7.609   4.339   3.679
10302TIP3    H230850   7.610   4.472   3.752
10303TIP3   OH230851   0.183   1.907   3.473
10303TIP3    H130852   0.133   1.962   3.533
10303TIP3    H230853   0.235   1.969   3.421
10304TIP3   OH230854   4.681   2.651   2.739
10304TIP3    H130855   4.674   2.724   2.801
10304TIP3    H230856   4.773   2.652   2.713
10305TIP3   OH230857   7.034   1.122   6.538
10305TIP3    H130858   6.964   1.122   6.603
10305TIP3    H230859   7.008   1.190   6.475
10306TIP3   OH230860   4.494   7.616   3.302
10306TIP3    H130861   4.492   7.709   3.278
10306TIP3    H230862   4.412   7.602   3.349
10307TIP3   OH230863   7.728   3.167   2.707
10307TIP3    H130864   7.675   3.190   2.631
10307TIP3    H230865   7.666   3.133   2.771
10308TIP3   OH230866   0.901   4.111   6.514
10308TIP3    H130867   0.876   4.028   6.555
10308TIP3    H230868   0.855   4.178   6.564
10309TIP3   OH230869   6.776   1.212   5.931
10309TIP3    H130870   6.773   1.217   6.026
10309TIP3    H230871   6.859   1.254   5.907
10310TIP3   OH230872   1.440   7.821   1.018
10310TIP3    H130873   1.409   7.751   0.961
10310TIP3    H230874   1.502   7.871   0.965
10311TIP3   OH230875   0.917   3.908   1.528
10311TIP3    H130876   0.898   3.824   1.487
10311TIP3    H230877   0.839   3.926   1.582
10312TIP3   OH230878   6.671   5.497   5.243
10312TIP3    H130879   6.630   5.566   5.190
10312TIP3    H230880   6.679   5.423   5.183
10313TIP3   OH230881   2.202   5.059   3.741
10313TIP3    H130882   2.193   5.154   3.751
10313TIP3    H230883   2.295   5.043   3.756
10314TIP3   OH230884   6.196   1.690   2.277
10314TIP3    H130885   6.168   1.738   2.355
10314TIP3    H230886   6.114   1.663   2.235
10315TIP3   OH230887   1.071   3.830   6.729
10315TIP3    H130888   1.123   3.763   6.772
10315TIP3    H230889   1.097   3.825   6.637
10316TIP3   OH230890   2.514   3.437   0.779
10316TIP3    H130891   2.578   3.507   0.785
10316TIP3    H230892   2.511   3.399   0.867
10317TIP3   OH230893   2.017   2.567   3.831
10317TIP3    H130894   2.034   2.624   3.906
10317TIP3    H230895   2.047   2.481   3.859
10318TIP3   OH230896   6.049   2.283   2.899
10318TIP3    H130897   6.102   2.205   2.881
10318TIP3    H230898   6.020   2.312   2.813
10319TIP3   OH230899   4.171   2.641   0.235
10319TIP3    H130900   4.211   2.659   0.150
10319TIP3    H230901   4.154   2.547   0.235
10320TIP3   OH230902   6.668   4.072   5.079
10320TIP3    H130903   6.698   4.018   5.005
10320TIP3    H230904   6.578   4.043   5.094
10321TIP3   OH230905   0.064   5.680   5.741
10321TIP3    H130906   0.112   5.625   5.803
10321TIP3    H230907  -0.026   5.647   5.746
10322TIP3   OH230908   5.644   6.592   2.343
10322TIP3    H130909   5.579   6.662   2.338
10322TIP3    H230910   5.635   6.558   2.432
10323TIP3   OH230911   6.148   2.543   3.750
10323TIP3    H130912   6.228   2.494   3.731
10323TIP3    H230913   6.095   2.534   3.670
10324TIP3   OH230914   5.289   6.456   2.995
10324TIP3    H130915   5.343   6.531   2.971
10324TIP3    H230916   5.201   6.479   2.967
10325TIP3   OH230917   1.520   3.083   2.852
10325TIP3    H130918   1.601   3.038   2.827
10325TIP3    H230919   1.535   3.174   2.828
10326TIP3   OH230920   5.295   4.477   6.397
10326TIP3    H130921   5.377   4.433   6.373
10326TIP3    H230922   5.304   4.496   6.490
10327TIP3   OH230923   3.563   0.367   0.910
10327TIP3    H130924   3.608   0.322   0.982
10327TIP3    H230925   3.631   0.384   0.845
10328TIP3   OH230926   7.347   5.759   4.185
10328TIP3    H130927   7.324   5.851   4.173
10328TIP3    H230928   7.399   5.736   4.109
10329TIP3   OH230929   1.251   3.179   4.368
10329TIP3    H130930   1.180   3.243   4.358
10329TIP3    H230931   1.324   3.229   4.405
10330TIP3   OH230932   3.098   4.353   6.104
10330TIP3    H130933   3.142   4.305   6.174
10330TIP3    H230934   3.169   4.393   6.054
10331TIP3   OH230935   2.651   7.199   6.002
10331TIP3    H130936   2.740   7.233   5.991
10331TIP3    H230937   2.662   7.121   6.056
10332TIP3   OH230938   1.330   2.982   1.860
10332TIP3    H130939   1.244   3.024   1.868
10332TIP3    H230940   1.393   3.050   1.885
10333TIP3   OH230941   5.756   0.895   6.242
10333TIP3    H130942   5.844   0.857   6.247
10333TIP3    H230943   5.699   0.821   6.221
10334TIP3   OH230944   6.901   6.639   4.457
10334TIP3    H130945   6.809   6.662   4.446
10334TIP3    H230946   6.930   6.687   4.534
10335TIP3   OH230947   0.759   6.540   2.464
10335TIP3    H130948   0.797   6.576   2.383
10335TIP3    H230949   0.707   6.612   2.500
10336TIP3   OH230950   1.101   1.011   4.128
10336TIP3    H130951   1.025   0.958   4.154
10336TIP3    H230952   1.069   1.101   4.132
10337TIP3   OH230953   3.480   4.211   1.059
10337TIP3    H130954   3.477   4.159   1.139
10337TIP3    H230955   3.403   4.182   1.009
10338TIP3   OH230956   2.238   3.673   0.267
10338TIP3    H130957   2.285   3.653   0.186
10338TIP3    H230958   2.233   3.769   0.268
10339TIP3   OH230959   3.164   1.363   0.646
10339TIP3    H130960   3.114   1.337   0.723
10339TIP3    H230961   3.253   1.377   0.678
10340TIP3   OH230962   5.972   5.633   6.133
10340TIP3    H130963   5.953   5.623   6.039
10340TIP3    H230964   5.916   5.705   6.160
10341TIP3   OH230965   3.099   2.017   5.567
10341TIP3    H130966   3.053   2.099   5.586
10341TIP3    H230967   3.185   2.045   5.535
10342TIP3   OH230968   7.992   7.221   3.315
10342TIP3    H130969   7.914   7.227   3.370
10342TIP3    H230970   7.967   7.161   3.245
10343TIP3   OH230971   0.099   5.512   4.239
10343TIP3    H130972   0.019   5.526   4.188
10343TIP3    H230973   0.164   5.567   4.196
10344TIP3   OH230974   6.577   1.181   5.739
10344TIP3    H130975   6.644   1.190   5.807
10344TIP3    H230976   6.596   1.253   5.678
10345TIP3   OH230977   6.351   5.880   2.238
10345TIP3    H130978   6.355   5.975   2.254
10345TIP3    H230979   6.441   5.855   2.218
10346TIP3   OH230980   7.761   7.355   4.787
10346TIP3    H130981   7.807   7.439   4.784
10346TIP3    H230982   7.823   7.295   4.827
10347TIP3   OH230983   2.672   5.895   3.475
10347TIP3    H130984   2.592   5.866   3.519
10347TIP3    H230985   2.716   5.813   3.451
10348TIP3   OH230986   5.364   3.688   0.713
10348TIP3    H130987   5.411   3.760   0.754
10348TIP3    H230988   5.364   3.618   0.779
10349TIP3   OH230989   7.772   0.561   3.630
10349TIP3    H130990   7.795   0.621   3.701
10349TIP3    H230991   7.838   0.576   3.563
10350TIP3   OH230992   0.697   0.830   0.551
10350TIP3    H130993   0.786   0.802   0.533
10350TIP3    H230994   0.651   0.822   0.467
10351TIP3   OH230995   5.990   3.383   3.674
10351TIP3    H130996   5.989   3.296   3.635
10351TIP3    H230997   5.932   3.435   3.618
10352TIP3   OH230998   0.711   1.838   5.951
10352TIP3    H130999   0.785   1.886   5.988
10352TIP3    H231000   0.740   1.747   5.947
10353TIP3   OH231001   1.321   2.550   1.498
10353TIP3    H131002   1.412   2.521   1.490
10353TIP3    H231003   1.324   2.644   1.481
10354TIP3   OH231004   3.379   5.361   0.008
10354TIP3    H131005   3.415   5.443  -0.026
10354TIP3    H231006   3.299   5.387   0.053
10355TIP3   OH231007   3.848   4.697   5.679
10355TIP3    H131008   3.935   4.684   5.642
10355TIP3    H231009   3.847   4.788   5.708
10356TIP3   OH231010   8.088   5.856   5.958
10356TIP3    H131011   8.152   5.879   5.891
10356TIP3    H231012   8.021   5.808   5.911
10357TIP3   OH231013   2.659   2.448   5.557
10357TIP3    H131014   2.633   2.511   5.489
10357TIP3    H231015   2.653   2.363   5.515
10358TIP3   OH231016   7.419   5.358   6.666
10358TIP3    H131017   7.454   5.430   6.614
10358TIP3    H231018   7.481   5.286   6.652
10359TIP3   OH231019   0.858   3.818   0.804
10359TIP3    H131020   0.918   3.762   0.754
10359TIP3    H231021   0.887   3.807   0.895
10360TIP3   OH231022   1.544   7.850   2.584
10360TIP3    H131023   1.484   7.798   2.531
10360TIP3    H231024   1.581   7.913   2.522
10361TIP3   OH231025   8.031   0.255   4.453
10361TIP3    H131026   7.948   0.209   4.463
10361TIP3    H231027   8.097   0.192   4.482
10362TIP3   OH231028   4.759   5.873   2.059
10362TIP3    H131029   4.759   5.826   2.143
10362TIP3    H231030   4.851   5.894   2.044
10363TIP3   OH231031   4.578   6.853   5.647
10363TIP3    H131032   4.624   6.873   5.729
10363TIP3    H231033   4.649   6.832   5.585
10364TIP3   OH231034   6.836   3.786   1.471
10364TIP3    H131035   6.876   3.755   1.552
10364TIP3    H231036   6.796   3.870   1.494
10365TIP3   OH231037   6.503   3.548   2.248
10365TIP3    H131038   6.464   3.626   2.208
10365TIP3    H231039   6.576   3.582   2.300
10366TIP3   OH231040   0.338   1.656   2.445
10366TIP3    H131041   0.293   1.716   2.504
10366TIP3    H231042   0.431   1.668   2.463
10367TIP3   OH231043   1.203   3.127   5.264
10367TIP3    H131044   1.244   3.046   5.231
10367TIP3    H231045   1.238   3.196   5.208
10368TIP3   OH231046   5.121   6.275   5.696
10368TIP3    H131047   5.201   6.310   5.658
10368TIP3    H231048   5.151   6.205   5.754
10369TIP3   OH231049   5.463   6.243   3.007
10369TIP3    H131050   5.448   6.243   3.102
10369TIP3    H231051   5.402   6.308   2.973
10370TIP3   OH231052   0.921   0.774   0.415
10370TIP3    H131053   0.977   0.831   0.361
10370TIP3    H231054   0.972   0.760   0.494
10371TIP3   OH231055   0.437   7.400   5.368
10371TIP3    H131056   0.421   7.493   5.381
10371TIP3    H231057   0.517   7.383   5.418
10372TIP3   OH231058   5.219   5.443   3.045
10372TIP3    H131059   5.125   5.457   3.040
10372TIP3    H231060   5.230   5.380   3.117
10373TIP3   OH231061   7.250   3.547   3.708
10373TIP3    H131062   7.346   3.537   3.708
10373TIP3    H231063   7.232   3.599   3.786
10374TIP3   OH231064   1.613   5.772   1.962
10374TIP3    H131065   1.629   5.776   2.056
10374TIP3    H231066   1.533   5.719   1.954
10375TIP3   OH231067   7.034   3.364   3.660
10375TIP3    H131068   6.977   3.420   3.607
10375TIP3    H231069   7.117   3.412   3.665
10376TIP3   OH231070   5.372   4.617   2.098
10376TIP3    H131071   5.415   4.589   2.017
10376TIP3    H231072   5.387   4.544   2.159
10377TIP3   OH231073   4.206   2.424   1.246
10377TIP3    H131074   4.231   2.401   1.156
10377TIP3    H231075   4.289   2.444   1.289
10378TIP3   OH231076   1.307   3.582   3.114
10378TIP3    H131077   1.369   3.649   3.143
10378TIP3    H231078   1.348   3.499   3.142
10379TIP3   OH231079   7.062   4.541   3.562
10379TIP3    H131080   7.150   4.515   3.589
10379TIP3    H231081   7.042   4.619   3.614
10380TIP3   OH231082   0.690   6.091   6.458
10380TIP3    H131083   0.649   6.178   6.455
10380TIP3    H231084   0.765   6.101   6.515
10381TIP3   OH231085   6.252   6.703   0.044
10381TIP3    H131086   6.319   6.645   0.078
10381TIP3    H231087   6.270   6.788   0.084
10382TIP3   OH231088   1.221   0.848   1.178
10382TIP3    H131089   1.138   0.875   1.140
10382TIP3    H231090   1.286   0.868   1.110
10383TIP3   OH231091   2.961   3.099   4.424
10383TIP3    H131092   2.968   3.014   4.382
10383TIP3    H231093   2.883   3.139   4.385
10384TIP3   OH231094   4.667   7.619   5.310
10384TIP3    H131095   4.615   7.690   5.272
10384TIP3    H231096   4.718   7.662   5.379
10385TIP3   OH231097   4.769   5.632   4.218
10385TIP3    H131098   4.707   5.591   4.158
10385TIP3    H231099   4.853   5.628   4.172
10386TIP3   OH231100   7.978   6.889   1.707
10386TIP3    H131101   7.956   6.977   1.737
10386TIP3    H231102   7.933   6.830   1.769
10387TIP3   OH231103   6.157   7.393   2.350
10387TIP3    H131104   6.166   7.417   2.442
10387TIP3    H231105   6.117   7.307   2.351
10388TIP3   OH231106   7.194   1.176   2.511
10388TIP3    H131107   7.198   1.102   2.449
10388TIP3    H231108   7.250   1.243   2.471
10389TIP3   OH231109   7.890   3.028   5.037
10389TIP3    H131110   7.850   2.965   4.977
10389TIP3    H231111   7.981   2.999   5.045
10390TIP3   OH231112   4.182   6.191   6.343
10390TIP3    H131113   4.181   6.144   6.260
10390TIP3    H231114   4.260   6.247   6.339
10391TIP3   OH231115   3.074   7.499   4.197
10391TIP3    H131116   3.109   7.431   4.140
10391TIP3    H231117   3.063   7.456   4.282
10392TIP3   OH231118   8.114   4.960   2.524
10392TIP3    H131119   8.121   4.886   2.463
10392TIP3    H231120   8.141   5.036   2.472
10393TIP3   OH231121   7.230   5.126   5.458
10393TIP3    H131122   7.318   5.098   5.432
10393TIP3    H231123   7.190   5.157   5.376
10394TIP3   OH231124   0.786   3.571   6.534
10394TIP3    H131125   0.701   3.535   6.557
10394TIP3    H231126   0.830   3.585   6.618
10395TIP3   OH231127   1.041   0.757   6.634
10395TIP3    H131128   1.112   0.704   6.671
10395TIP3    H231129   1.085   0.816   6.572
10396TIP3   OH231130   3.624   3.794   5.757
10396TIP3    H131131   3.554   3.741   5.795
10396TIP3    H231132   3.701   3.775   5.811
10397TIP3   OH231133   1.697   6.712   4.649
10397TIP3    H131134   1.768   6.663   4.609
10397TIP3    H231135   1.739   6.765   4.717
10398TIP3   OH231136   8.286   2.825   1.631
10398TIP3    H131137   8.192   2.831   1.652
10398TIP3    H231138   8.321   2.912   1.651
10399TIP3   OH231139   3.443   2.600   2.345
10399TIP3    H131140   3.475   2.672   2.400
10399TIP3    H231141   3.479   2.521   2.386
10400TIP3   OH231142   1.319   2.166   0.908
10400TIP3    H131143   1.328   2.073   0.930
10400TIP3    H231144   1.250   2.169   0.842
10401TIP3   OH231145   1.741   4.064   1.878
10401TIP3    H131146   1.802   3.992   1.861
10401TIP3    H231147   1.738   4.072   1.973
10402TIP3   OH231148   0.478   1.751   1.344
10402TIP3    H131149   0.525   1.819   1.393
10402TIP3    H231150   0.497   1.769   1.252
10403TIP3   OH231151   4.605   2.221   4.212
10403TIP3    H131152   4.681   2.185   4.257
10403TIP3    H231153   4.530   2.187   4.261
10404TIP3   OH231154   3.188   7.135   3.027
10404TIP3    H131155   3.225   7.049   3.049
10404TIP3    H231156   3.264   7.194   3.026
10405TIP3   OH231157   5.229   4.799   2.241
10405TIP3    H131158   5.290   4.733   2.207
10405TIP3    H231159   5.285   4.860   2.289
10406TIP3   OH231160   0.951   3.019   0.437
10406TIP3    H131161   0.959   3.007   0.531
10406TIP3    H231162   0.986   3.107   0.421
10407TIP3   OH231163   5.915   4.066   0.577
10407TIP3    H131164   5.971   4.144   0.568
10407TIP3    H231165   5.826   4.099   0.565
10408TIP3   OH231166   6.791   5.061   2.703
10408TIP3    H131167   6.759   5.042   2.615
10408TIP3    H231168   6.882   5.030   2.703
10409TIP3   OH231169   6.259   7.737   5.569
10409TIP3    H131170   6.344   7.772   5.597
10409TIP3    H231171   6.272   7.714   5.477
10410TIP3   OH231172   0.119   0.177   5.859
10410TIP3    H131173   0.078   0.106   5.810
10410TIP3    H231174   0.128   0.248   5.795
10411TIP3   OH231175   3.426   6.486   6.406
10411TIP3    H131176   3.459   6.465   6.494
10411TIP3    H231177   3.496   6.456   6.347
10412TIP3   OH231178   5.288   6.885   3.065
10412TIP3    H131179   5.211   6.933   3.097
10412TIP3    H231180   5.312   6.827   3.137
10413TIP3   OH231181   7.673   1.471   0.061
10413TIP3    H131182   7.618   1.399   0.030
10413TIP3    H231183   7.633   1.550   0.024
10414TIP3   OH231184   0.908   4.971   5.001
10414TIP3    H131185   0.826   4.943   4.960
10414TIP3    H231186   0.930   5.053   4.958
10415TIP3   OH231187   6.745   5.525   1.455
10415TIP3    H131188   6.791   5.448   1.420
10415TIP3    H231189   6.802   5.556   1.525
10416TIP3   OH231190   0.986   5.182   1.942
10416TIP3    H131191   1.028   5.264   1.968
10416TIP3    H231192   0.894   5.194   1.967
10417TIP3   OH231193   4.019   6.063   1.465
10417TIP3    H131194   4.063   6.144   1.440
10417TIP3    H231195   3.970   6.086   1.544
10418TIP3   OH231196   4.284   3.173   1.721
10418TIP3    H131197   4.373   3.137   1.713
10418TIP3    H231198   4.230   3.099   1.747
10419TIP3   OH231199   7.378   2.043   2.168
10419TIP3    H131200   7.461   2.005   2.141
10419TIP3    H231201   7.394   2.137   2.171
10420TIP3   OH231202   8.150   4.346   5.005
10420TIP3    H131203   8.238   4.331   4.970
10420TIP3    H231204   8.157   4.428   5.054
10421TIP3   OH231205   3.806   2.415   5.531
10421TIP3    H131206   3.815   2.337   5.585
10421TIP3    H231207   3.731   2.397   5.475
10422TIP3   OH231208   6.335   3.926   3.008
10422TIP3    H131209   6.330   3.946   2.915
10422TIP3    H231210   6.388   3.997   3.045
10423TIP3   OH231211   6.182   4.938   4.677
10423TIP3    H131212   6.114   4.896   4.729
10423TIP3    H231213   6.254   4.875   4.678
10424TIP3   OH231214   7.844   1.100   5.104
10424TIP3    H131215   7.909   1.167   5.124
10424TIP3    H231216   7.844   1.094   5.009
10425TIP3   OH231217   6.432   4.774   5.965
10425TIP3    H131218   6.496   4.837   5.932
10425TIP3    H231219   6.457   4.691   5.924
10426TIP3   OH231220   0.323   2.231   6.355
10426TIP3    H131221   0.305   2.303   6.294
10426TIP3    H231222   0.402   2.189   6.320
10427TIP3   OH231223   0.921   2.360   6.719
10427TIP3    H131224   0.911   2.384   6.811
10427TIP3    H231225   0.913   2.265   6.717
10428TIP3   OH231226   7.666   0.170   2.718
10428TIP3    H131227   7.750   0.160   2.673
10428TIP3    H231228   7.650   0.264   2.720
10429TIP3   OH231229   4.252   6.544   1.263
10429TIP3    H131230   4.269   6.634   1.233
10429TIP3    H231231   4.289   6.489   1.194
10430TIP3   OH231232   0.651   6.774   4.271
10430TIP3    H131233   0.654   6.820   4.354
10430TIP3    H231234   0.660   6.681   4.294
10431TIP3   OH231235   0.961   7.534   2.188
10431TIP3    H131236   0.871   7.520   2.160
10431TIP3    H231237   0.974   7.628   2.182
10432TIP3   OH231238   0.861   3.327   2.007
10432TIP3    H131239   0.859   3.422   2.000
10432TIP3    H231240   0.811   3.308   2.086
10433TIP3   OH231241   5.417   6.935   4.387
10433TIP3    H131242   5.373   6.990   4.322
10433TIP3    H231243   5.348   6.911   4.449
10434TIP3   OH231244   0.458   2.830   5.789
10434TIP3    H131245   0.426   2.765   5.851
10434TIP3    H231246   0.480   2.780   5.710
10435TIP3   OH231247   7.453   3.862   6.066
10435TIP3    H131248   7.399   3.803   6.119
10435TIP3    H231249   7.395   3.890   5.996
10436TIP3   OH231250   4.744   5.234   5.110
10436TIP3    H131251   4.766   5.142   5.124
10436TIP3    H231252   4.649   5.236   5.115
10437TIP3   OH231253   8.204   6.368   2.546
10437TIP3    H131254   8.146   6.436   2.512
10437TIP3    H231255   8.149   6.291   2.553
10438TIP3   OH231256   6.533   4.139   3.049
10438TIP3    H131257   6.583   4.103   2.976
10438TIP3    H231258   6.524   4.232   3.028
10439TIP3   OH231259   1.663   0.692   5.898
10439TIP3    H131260   1.680   0.729   5.985
10439TIP3    H231261   1.651   0.769   5.842
10440TIP3   OH231262   6.236   5.920   6.306
10440TIP3    H131263   6.167   5.913   6.240
10440TIP3    H231264   6.316   5.896   6.258
10441TIP3   OH231265   1.189   4.178   4.401
10441TIP3    H131266   1.203   4.273   4.409
10441TIP3    H231267   1.122   4.170   4.333
10442TIP3   OH231268   5.708   7.619   2.175
10442TIP3    H131269   5.670   7.703   2.149
10442TIP3    H231270   5.794   7.617   2.132
10443TIP3   OH231271   8.021   1.351   5.132
10443TIP3    H131272   8.107   1.315   5.151
10443TIP3    H231273   8.035   1.410   5.058
10444TIP3   OH231274   5.918   0.321   0.334
10444TIP3    H131275   5.931   0.415   0.329
10444TIP3    H231276   5.969   0.293   0.410
10445TIP3   OH231277   2.750   4.765   3.226
10445TIP3    H131278   2.817   4.826   3.195
10445TIP3    H231279   2.678   4.776   3.164
10446TIP3   OH231280   7.490   4.937   6.048
10446TIP3    H131281   7.447   5.013   6.087
10446TIP3    H231282   7.486   4.869   6.115
10447TIP3   OH231283   6.578   2.041   0.892
10447TIP3    H131284   6.508   1.976   0.888
10447TIP3    H231285   6.625   2.021   0.973
10448TIP3   OH231286   0.017   6.984   1.947
10448TIP3    H131287  -0.057   6.928   1.969
10448TIP3    H231288  -0.016   7.073   1.959
10449TIP3   OH231289   5.330   6.408   4.608
10449TIP3    H131290   5.291   6.494   4.592
10449TIP3    H231291   5.405   6.426   4.666
10450TIP3   OH231292   2.138   5.067   0.721
10450TIP3    H131293   2.186   4.988   0.696
10450TIP3    H231294   2.123   5.057   0.815
10451TIP3   OH231295   5.576   6.329   0.822
10451TIP3    H131296   5.517   6.387   0.872
10451TIP3    H231297   5.664   6.359   0.845
10452TIP3   OH231298   1.309   2.554   2.665
10452TIP3    H131299   1.276   2.627   2.718
10452TIP3    H231300   1.378   2.593   2.611
10453TIP3   OH231301   3.811   0.401   2.227
10453TIP3    H131302   3.817   0.469   2.295
10453TIP3    H231303   3.891   0.412   2.175
10454TIP3   OH231304   5.081   6.256   6.323
10454TIP3    H131305   5.149   6.244   6.389
10454TIP3    H231306   5.057   6.348   6.328
10455TIP3   OH231307   7.610   6.797   0.198
10455TIP3    H131308   7.537   6.743   0.169
10455TIP3    H231309   7.623   6.859   0.127
10456TIP3   OH231310   3.150   3.776   4.276
10456TIP3    H131311   3.196   3.750   4.355
10456TIP3    H231312   3.205   3.744   4.204
10457TIP3   OH231313   5.394   4.003   3.468
10457TIP3    H131314   5.397   4.017   3.373
10457TIP3    H231315   5.361   3.913   3.477
10458TIP3   OH231316   0.143   1.822   0.479
10458TIP3    H131317   0.073   1.758   0.465
10458TIP3    H231318   0.116   1.899   0.430
10459TIP3   OH231319   5.202   6.649   4.196
10459TIP3    H131320   5.188   6.567   4.148
10459TIP3    H231321   5.222   6.713   4.127
10460TIP3   OH231322   8.252   5.839   1.890
10460TIP3    H131323   8.305   5.814   1.967
10460TIP3    H231324   8.175   5.782   1.895
10461TIP3   OH231325   5.043   4.055   3.849
10461TIP3    H131326   4.977   4.001   3.892
10461TIP3    H231327   5.089   3.995   3.790
10462TIP3   OH231328   7.196   3.629   3.424
10462TIP3    H131329   7.265   3.677   3.378
10462TIP3    H231330   7.234   3.609   3.509
10463TIP3   OH231331   2.586   1.353   5.582
10463TIP3    H131332   2.652   1.284   5.584
10463TIP3    H231333   2.560   1.364   5.673
10464TIP3   OH231334   4.485   0.761   1.711
10464TIP3    H131335   4.416   0.757   1.777
10464TIP3    H231336   4.566   0.767   1.761
10465TIP3   OH231337   0.364   3.637   0.158
10465TIP3    H131338   0.313   3.652   0.078
10465TIP3    H231339   0.454   3.628   0.127
10466TIP3   OH231340   1.571   4.516   2.158
10466TIP3    H131341   1.545   4.527   2.249
10466TIP3    H231342   1.517   4.578   2.109
10467TIP3   OH231343   3.005   6.169   5.254
10467TIP3    H131344   3.079   6.207   5.301
10467TIP3    H231345   2.944   6.141   5.322
10468TIP3   OH231346   3.353   2.061   5.480
10468TIP3    H131347   3.299   2.101   5.411
10468TIP3    H231348   3.437   2.107   5.475
10469TIP3   OH231349   5.295   4.664   4.802
10469TIP3    H131350   5.223   4.688   4.744
10469TIP3    H231351   5.262   4.589   4.852
10470TIP3   OH231352   1.436   5.639   1.459
10470TIP3    H131353   1.364   5.701   1.463
10470TIP3    H231354   1.509   5.689   1.423
10471TIP3   OH231355   7.251   7.056   4.904
10471TIP3    H131356   7.346   7.067   4.903
10471TIP3    H231357   7.227   7.049   4.812
10472TIP3   OH231358   4.124   7.689   0.588
10472TIP3    H131359   4.139   7.608   0.539
10472TIP3    H231360   4.194   7.691   0.653
10473TIP3   OH231361   2.926   6.401   0.805
10473TIP3    H131362   2.936   6.494   0.785
10473TIP3    H231363   2.994   6.383   0.869
10474TIP3   OH231364   2.953   6.861   3.429
10474TIP3    H131365   3.040   6.828   3.452
10474TIP3    H231366   2.904   6.782   3.404
10475TIP3   OH231367   7.423   5.840   0.753
10475TIP3    H131368   7.477   5.760   0.751
10475TIP3    H231369   7.487   5.911   0.746
10476TIP3   OH231370   5.434   3.389   2.398
10476TIP3    H131371   5.491   3.363   2.470
10476TIP3    H231372   5.346   3.364   2.428
10477TIP3   OH231373   2.696   2.845   2.629
10477TIP3    H131374   2.688   2.899   2.551
10477TIP3    H231375   2.786   2.813   2.628
10478TIP3   OH231376   4.265   6.732   2.470
10478TIP3    H131377   4.246   6.719   2.377
10478TIP3    H231378   4.209   6.805   2.496
10479TIP3   OH231379   6.548   1.656   6.590
10479TIP3    H131380   6.639   1.663   6.620
10479TIP3    H231381   6.540   1.724   6.523
10480TIP3   OH231382   5.845   6.105   2.757
10480TIP3    H131383   5.864   6.022   2.713
10480TIP3    H231384   5.750   6.105   2.769
10481TIP3   OH231385   1.431   4.758   3.774
10481TIP3    H131386   1.475   4.840   3.750
10481TIP3    H231387   1.372   4.740   3.701
10482TIP3   OH231388   4.111   1.561   5.450
10482TIP3    H131389   4.118   1.472   5.416
10482TIP3    H231390   4.158   1.558   5.533
10483TIP3   OH231391   5.976   3.550   0.718
10483TIP3    H131392   5.957   3.638   0.684
10483TIP3    H231393   5.945   3.491   0.650
10484TIP3   OH231394   0.799   0.120   1.394
10484TIP3    H131395   0.796   0.171   1.313
10484TIP3    H231396   0.810   0.185   1.463
10485TIP3   OH231397   2.333   7.441   0.977
10485TIP3    H131398   2.333   7.391   0.895
10485TIP3    H231399   2.358   7.377   1.044
10486TIP3   OH231400   5.260   4.938   5.953
10486TIP3    H131401   5.276   4.849   5.922
10486TIP3    H231402   5.346   4.972   5.975
10487TIP3   OH231403   8.024   0.790   0.764
10487TIP3    H131404   8.079   0.847   0.711
10487TIP3    H231405   8.005   0.715   0.706
10488TIP3   OH231406   4.177   4.351   4.826
10488TIP3    H131407   4.219   4.339   4.741
10488TIP3    H231408   4.120   4.275   4.836
10489TIP3   OH231409   5.638   5.506   1.231
10489TIP3    H131410   5.645   5.585   1.284
10489TIP3    H231411   5.569   5.525   1.168
10490TIP3   OH231412   3.811   3.477   3.951
10490TIP3    H131413   3.893   3.476   4.000
10490TIP3    H231414   3.763   3.401   3.984
10491TIP3   OH231415   6.791   1.516   5.953
10491TIP3    H131416   6.781   1.456   6.027
10491TIP3    H231417   6.737   1.478   5.884
10492TIP3   OH231418   1.938   3.304   1.211
10492TIP3    H131419   1.878   3.285   1.282
10492TIP3    H231420   1.883   3.311   1.133
10493TIP3   OH231421   1.301   6.753   2.067
10493TIP3    H131422   1.391   6.776   2.044
10493TIP3    H231423   1.302   6.658   2.077
10494TIP3   OH231424   3.053   0.142   3.587
10494TIP3    H131425   3.030   0.107   3.501
10494TIP3    H231426   2.980   0.200   3.610
10495TIP3   OH231427   7.901   3.947   6.670
10495TIP3    H131428   7.863   3.944   6.757
10495TIP3    H231429   7.854   3.879   6.621
10496TIP3   OH231430   1.379   6.648   6.459
10496TIP3    H131431   1.458   6.638   6.512
10496TIP3    H231432   1.370   6.564   6.413
10497TIP3   OH231433   2.167   4.076   1.175
10497TIP3    H131434   2.198   4.056   1.263
10497TIP3    H231435   2.246   4.102   1.128
10498TIP3   OH231436   2.691   0.258   1.260
10498TIP3    H131437   2.738   0.229   1.182
10498TIP3    H231438   2.631   0.186   1.280
10499TIP3   OH231439   0.755   2.585   5.076
10499TIP3    H131440   0.811   2.508   5.081
10499TIP3    H231441   0.666   2.550   5.066
10500TIP3   OH231442   7.260   4.429   2.455
10500TIP3    H131443   7.269   4.507   2.511
10500TIP3    H231444   7.344   4.424   2.408
10501TIP3   OH231445   2.984   4.254   0.409
10501TIP3    H131446   3.043   4.204   0.351
10501TIP3    H231447   3.040   4.286   0.479
10502TIP3   OH231448   6.051   2.777   6.281
10502TIP3    H131449   6.046   2.836   6.356
10502TIP3    H231450   6.063   2.690   6.320
10503TIP3   OH231451   0.342   0.268   6.282
10503TIP3    H131452   0.261   0.225   6.311
10503TIP3    H231453   0.364   0.223   6.200
10504TIP3   OH231454   0.670   0.371   5.964
10504TIP3    H131455   0.598   0.341   5.910
10504TIP3    H231456   0.721   0.428   5.907
10505TIP3   OH231457   8.149   7.251   0.703
10505TIP3    H131458   8.079   7.292   0.753
10505TIP3    H231459   8.187   7.187   0.763
10506TIP3   OH231460   7.089   3.734   5.971
10506TIP3    H131461   6.996   3.727   5.994
10506TIP3    H231462   7.102   3.668   5.902
10507TIP3   OH231463   2.725   6.839   0.950
10507TIP3    H131464   2.777   6.907   0.907
10507TIP3    H231465   2.669   6.804   0.882
10508TIP3   OH231466   5.845   4.755   1.102
10508TIP3    H131467   5.812   4.841   1.128
10508TIP3    H231468   5.885   4.719   1.181
10509TIP3   OH231469   1.158   5.553   4.853
10509TIP3    H131470   1.229   5.605   4.815
10509TIP3    H231471   1.202   5.493   4.913
10510TIP3   OH231472   7.635   7.386   5.229
10510TIP3    H131473   7.562   7.366   5.288
10510TIP3    H231474   7.598   7.380   5.141
10511TIP3   OH231475   3.640   1.613   5.837
10511TIP3    H131476   3.668   1.621   5.928
10511TIP3    H231477   3.632   1.703   5.807
10512TIP3   OH231478   6.825   1.324   4.063
10512TIP3    H131479   6.750   1.313   4.005
10512TIP3    H231480   6.893   1.364   4.009
10513TIP3   OH231481   5.953   3.843   6.264
10513TIP3    H131482   5.912   3.757   6.274
10513TIP3    H231483   5.928   3.872   6.176
10514TIP3   OH231484   5.930   0.994   4.209
10514TIP3    H131485   5.871   0.941   4.261
10514TIP3    H231486   5.972   1.053   4.273
10515TIP3   OH231487   5.545   6.173   4.459
10515TIP3    H131488   5.556   6.088   4.417
10515TIP3    H231489   5.467   6.211   4.418
10516TIP3   OH231490   2.382   3.870   3.703
10516TIP3    H131491   2.462   3.859   3.754
10516TIP3    H231492   2.407   3.927   3.630
10517TIP3   OH231493   2.479   3.072   0.146
10517TIP3    H131494   2.388   3.056   0.121
10517TIP3    H231495   2.475   3.152   0.198
10518TIP3   OH231496   1.160   4.509   2.548
10518TIP3    H131497   1.101   4.553   2.486
10518TIP3    H231498   1.101   4.458   2.604
10519TIP3   OH231499   5.831   6.727   2.123
10519TIP3    H131500   5.778   6.650   2.146
10519TIP3    H231501   5.812   6.741   2.030
10520TIP3   OH231502   1.633   0.620   2.076
10520TIP3    H131503   1.669   0.569   2.003
10520TIP3    H231504   1.637   0.711   2.047
10521TIP3   OH231505   6.113   5.386   5.967
10521TIP3    H131506   6.101   5.401   6.061
10521TIP3    H231507   6.042   5.436   5.926
10522TIP3   OH231508   0.607   2.002   4.177
10522TIP3    H131509   0.567   1.938   4.236
10522TIP3    H231510   0.593   2.086   4.220
10523TIP3   OH231511   3.746   1.251   4.761
10523TIP3    H131512   3.783   1.171   4.799
10523TIP3    H231513   3.809   1.278   4.695
10524TIP3   OH231514   3.402   3.200   4.074
10524TIP3    H131515   3.319   3.245   4.089
10524TIP3    H231516   3.412   3.142   4.149
10525TIP3   OH231517   4.137   7.780   0.072
10525TIP3    H131518   4.125   7.724  -0.005
10525TIP3    H231519   4.157   7.867   0.035
10526TIP3   OH231520   5.826   6.130   6.140
10526TIP3    H131521   5.733   6.143   6.121
10526TIP3    H231522   5.856   6.215   6.171
10527TIP3   OH231523   5.600   4.710   6.407
10527TIP3    H131524   5.530   4.757   6.362
10527TIP3    H231525   5.654   4.779   6.446
10528TIP3   OH231526   7.533   3.892   6.562
10528TIP3    H131527   7.588   3.844   6.500
10528TIP3    H231528   7.502   3.968   6.512
10529TIP3   OH231529   7.641   5.514   2.651
10529TIP3    H131530   7.568   5.505   2.712
10529TIP3    H231531   7.694   5.435   2.664
10530TIP3   OH231532   1.414   2.287   3.869
10530TIP3    H131533   1.444   2.227   3.800
10530TIP3    H231534   1.469   2.364   3.860
10531TIP3   OH231535   7.149   2.061   5.436
10531TIP3    H131536   7.215   2.091   5.500
10531TIP3    H231537   7.074   2.035   5.489
10532TIP3   OH231538   3.160   2.223   4.856
10532TIP3    H131539   3.234   2.280   4.838
10532TIP3    H231540   3.090   2.282   4.883
10533TIP3   OH231541   7.754   5.831   4.954
10533TIP3    H131542   7.834   5.802   4.910
10533TIP3    H231543   7.723   5.905   4.903
10534TIP3   OH231544   3.647   0.166   2.757
10534TIP3    H131545   3.723   0.175   2.814
10534TIP3    H231546   3.572   0.170   2.816
10535TIP3   OH231547   7.713   1.362   4.522
10535TIP3    H131548   7.781   1.302   4.554
10535TIP3    H231549   7.635   1.307   4.514
10536TIP3   OH231550   0.367   2.365   1.201
10536TIP3    H131551   0.368   2.427   1.129
10536TIP3    H231552   0.420   2.407   1.269
10537TIP3   OH231553   0.418   7.131   0.118
10537TIP3    H131554   0.381   7.213   0.086
10537TIP3    H231555   0.434   7.148   0.211
10538TIP3   OH231556   4.596   0.380   2.385
10538TIP3    H131557   4.691   0.375   2.374
10538TIP3    H231558   4.584   0.427   2.468
10539TIP3   OH231559   0.265   3.439   3.598
10539TIP3    H131560   0.275   3.390   3.680
10539TIP3    H231561   0.331   3.508   3.604
10540TIP3   OH231562   0.296   6.213   4.521
10540TIP3    H131563   0.220   6.268   4.539
10540TIP3    H231564   0.370   6.261   4.558
10541TIP3   OH231565   4.049   6.920   5.792
10541TIP3    H131566   4.132   6.926   5.744
10541TIP3    H231567   3.984   6.902   5.724
10542TIP3   OH231568   0.380   1.383   6.566
10542TIP3    H131569   0.421   1.378   6.653
10542TIP3    H231570   0.300   1.433   6.580
10543TIP3   OH231571   1.626   4.903   5.794
10543TIP3    H131572   1.545   4.929   5.838
10543TIP3    H231573   1.649   4.819   5.833
10544TIP3   OH231574   5.890   3.956   4.400
10544TIP3    H131575   5.956   3.938   4.334
10544TIP3    H231576   5.807   3.935   4.357
10545TIP3   OH231577   0.903   6.758   1.800
10545TIP3    H131578   0.913   6.712   1.716
10545TIP3    H231579   0.808   6.761   1.814
10546TIP3   OH231580   6.304   6.276   5.822
10546TIP3    H131581   6.305   6.269   5.727
10546TIP3    H231582   6.313   6.370   5.840
10547TIP3   OH231583   5.381   2.925   1.758
10547TIP3    H131584   5.291   2.950   1.779
10547TIP3    H231585   5.386   2.933   1.663
10548TIP3   OH231586   2.249   3.976   4.772
10548TIP3    H131587   2.265   3.905   4.709
10548TIP3    H231588   2.249   3.933   4.857
10549TIP3   OH231589   5.510   1.895   0.858
10549TIP3    H131590   5.465   1.976   0.836
10549TIP3    H231591   5.542   1.862   0.774
10550TIP3   OH231592   0.307   6.323   3.410
10550TIP3    H131593   0.259   6.388   3.461
10550TIP3    H231594   0.301   6.355   3.320
10551TIP3   OH231595   7.313   5.694   3.762
10551TIP3    H131596   7.244   5.674   3.699
10551TIP3    H231597   7.328   5.788   3.752
10552TIP3   OH231598   5.945   4.612   4.014
10552TIP3    H131599   5.949   4.701   4.050
10552TIP3    H231600   5.863   4.576   4.050
10553TIP3   OH231601   4.965   3.888   1.956
10553TIP3    H131602   5.009   3.881   2.041
10553TIP3    H231603   4.911   3.967   1.964
10554TIP3   OH231604   1.801   0.090   3.837
10554TIP3    H131605   1.745   0.149   3.888
10554TIP3    H231606   1.766   0.095   3.748
10555TIP3   OH231607   6.842   0.094   4.896
10555TIP3    H131608   6.768   0.118   4.953
10555TIP3    H231609   6.808   0.104   4.807
10556TIP3   OH231610   7.288   6.206   3.395
10556TIP3    H131611   7.333   6.272   3.449
10556TIP3    H231612   7.338   6.126   3.409
10557TIP3   OH231613   0.394   2.636   3.987
10557TIP3    H131614   0.375   2.637   3.893
10557TIP3    H231615   0.489   2.649   3.991
10558TIP3   OH231616   7.923   6.413   2.249
10558TIP3    H131617   7.913   6.322   2.275
10558TIP3    H231618   8.015   6.434   2.266
10559TIP3   OH231619   2.212   1.634   2.570
10559TIP3    H131620   2.155   1.690   2.517
10559TIP3    H231621   2.300   1.659   2.545
10560TIP3   OH231622   3.899   3.140   5.665
10560TIP3    H131623   3.931   3.144   5.575
10560TIP3    H231624   3.878   3.048   5.680
10561TIP3   OH231625   3.751   4.183   2.289
10561TIP3    H131626   3.680   4.134   2.250
10561TIP3    H231627   3.745   4.271   2.251
10562TIP3   OH231628   1.373   1.339   5.511
10562TIP3    H131629   1.319   1.267   5.478
10562TIP3    H231630   1.365   1.333   5.606
10563TIP3   OH231631   1.280   1.317   4.611
10563TIP3    H131632   1.248   1.384   4.551
10563TIP3    H231633   1.305   1.244   4.555
10564TIP3   OH231634   4.904   1.292   1.665
10564TIP3    H131635   4.977   1.345   1.700
10564TIP3    H231636   4.835   1.301   1.731
10565TIP3   OH231637   4.774   2.154   3.823
10565TIP3    H131638   4.838   2.083   3.826
10565TIP3    H231639   4.826   2.233   3.818
10566TIP3   OH231640   0.315   4.439   4.785
10566TIP3    H131641   0.263   4.426   4.705
10566TIP3    H231642   0.404   4.416   4.760
10567TIP3   OH231643   3.199   2.138   1.575
10567TIP3    H131644   3.225   2.220   1.532
10567TIP3    H231645   3.180   2.078   1.502
10568TIP3   OH231646   2.001   1.521   4.966
10568TIP3    H131647   1.906   1.533   4.973
10568TIP3    H231648   2.018   1.517   4.872
10569TIP3   OH231649   1.419   5.822   5.722
10569TIP3    H131650   1.356   5.894   5.735
10569TIP3    H231651   1.460   5.810   5.807
10570TIP3   OH231652   7.682   0.225   4.724
10570TIP3    H131653   7.763   0.276   4.734
10570TIP3    H231654   7.612   0.290   4.728
10571TIP3   OH231655   5.336   6.404   5.551
10571TIP3    H131656   5.315   6.424   5.460
10571TIP3    H231657   5.286   6.468   5.602
10572TIP3   OH231658   7.639   4.747   4.334
10572TIP3    H131659   7.673   4.714   4.250
10572TIP3    H231660   7.579   4.818   4.309
10573TIP3   OH231661   7.884   0.531   3.299
10573TIP3    H131662   7.901   0.572   3.214
10573TIP3    H231663   7.958   0.557   3.354
10574TIP3   OH231664   2.796   2.596   1.926
10574TIP3    H131665   2.781   2.529   1.859
10574TIP3    H231666   2.709   2.632   1.943
10575TIP3   OH231667   2.536   1.475   1.410
10575TIP3    H131668   2.499   1.390   1.388
10575TIP3    H231669   2.614   1.482   1.355
10576TIP3   OH231670   7.439   4.695   2.909
10576TIP3    H131671   7.454   4.695   3.003
10576TIP3    H231672   7.519   4.733   2.872
10577TIP3   OH231673   1.270   7.300   5.433
10577TIP3    H131674   1.189   7.259   5.403
10577TIP3    H231675   1.313   7.232   5.485
10578TIP3   OH231676   2.890   0.912   3.473
10578TIP3    H131677   2.874   0.984   3.411
10578TIP3    H231678   2.941   0.953   3.543
10579TIP3   OH231679   7.981   2.248   6.327
10579TIP3    H131680   7.934   2.179   6.374
10579TIP3    H231681   8.068   2.250   6.369
10580TIP3   OH231682   7.927   4.061   6.367
10580TIP3    H131683   7.995   4.080   6.303
10580TIP3    H231684   7.882   3.984   6.331
10581TIP3   OH231685   2.538   1.507   3.566
10581TIP3    H131686   2.483   1.438   3.527
10581TIP3    H231687   2.621   1.501   3.518
10582TIP3   OH231688   3.797   7.066   3.576
10582TIP3    H131689   3.754   7.124   3.639
10582TIP3    H231690   3.832   7.125   3.509
10583TIP3   OH231691   1.407   3.059   2.482
10583TIP3    H131692   1.381   3.024   2.397
10583TIP3    H231693   1.499   3.084   2.469
10584TIP3   OH231694   7.923   4.798   2.216
10584TIP3    H131695   7.937   4.705   2.199
10584TIP3    H231696   7.915   4.805   2.311
10585TIP3   OH231697   6.807   5.108   0.611
10585TIP3    H131698   6.750   5.041   0.573
10585TIP3    H231699   6.747   5.178   0.637
10586TIP3   OH231700   1.311   3.186   6.072
10586TIP3    H131701   1.264   3.262   6.037
10586TIP3    H231702   1.354   3.147   5.997
10587TIP3   OH231703   3.709   3.955   2.629
10587TIP3    H131704   3.744   4.044   2.635
10587TIP3    H231705   3.775   3.906   2.579
10588TIP3   OH231706   1.102   3.053   2.219
10588TIP3    H131707   1.196   3.039   2.214
10588TIP3    H231708   1.064   2.966   2.206
10589TIP3   OH231709   4.147   7.389   6.506
10589TIP3    H131710   4.167   7.443   6.582
10589TIP3    H231711   4.195   7.308   6.521
10590TIP3   OH231712   6.185   4.225   5.416
10590TIP3    H131713   6.149   4.147   5.457
10590TIP3    H231714   6.109   4.269   5.377
10591TIP3   OH231715   1.879   5.374   3.088
10591TIP3    H131716   1.943   5.417   3.031
10591TIP3    H231717   1.882   5.425   3.170
10592TIP3   OH231718   2.293   2.549   4.014
10592TIP3    H131719   2.362   2.581   4.072
10592TIP3    H231720   2.212   2.583   4.051
10593TIP3   OH231721   5.641   2.602   2.779
10593TIP3    H131722   5.617   2.644   2.696
10593TIP3    H231723   5.646   2.674   2.841
10594TIP3   OH231724   1.072   5.270   6.385
10594TIP3    H131725   0.983   5.296   6.411
10594TIP3    H231726   1.062   5.178   6.358
10595TIP3   OH231727   0.468   1.317   3.206
10595TIP3    H131728   0.480   1.399   3.158
10595TIP3    H231729   0.512   1.251   3.151
10596TIP3   OH231730   7.188   0.652   5.542
10596TIP3    H131731   7.260   0.588   5.537
10596TIP3    H231732   7.231   0.737   5.535
10597TIP3   OH231733   4.362   6.421   4.280
10597TIP3    H131734   4.386   6.332   4.307
10597TIP3    H231735   4.299   6.450   4.346
10598TIP3   OH231736   5.070   0.331   2.785
10598TIP3    H131737   5.010   0.278   2.733
10598TIP3    H231738   5.019   0.355   2.863
10599TIP3   OH231739   0.845   7.443   5.016
10599TIP3    H131740   0.771   7.463   4.959
10599TIP3    H231741   0.853   7.520   5.073
10600TIP3   OH231742   6.362   2.895   2.532
10600TIP3    H131743   6.298   2.913   2.601
10600TIP3    H231744   6.359   2.800   2.522
10601TIP3   OH231745   0.363   2.133   3.376
10601TIP3    H131746   0.354   2.166   3.465
10601TIP3    H231747   0.375   2.212   3.322
10602TIP3   OH231748   4.373   1.829   0.376
10602TIP3    H131749   4.328   1.856   0.296
10602TIP3    H231750   4.454   1.881   0.377
10603TIP3   OH231751   4.103   1.426   3.794
10603TIP3    H131752   4.101   1.363   3.866
10603TIP3    H231753   4.142   1.504   3.832
10604TIP3   OH231754   7.217   5.219   0.323
10604TIP3    H131755   7.145   5.158   0.339
10604TIP3    H231756   7.178   5.306   0.330
10605TIP3   OH231757   0.568   3.290   5.032
10605TIP3    H131758   0.507   3.350   5.074
10605TIP3    H231759   0.653   3.336   5.036
10606TIP3   OH231760   5.206   6.449   3.505
10606TIP3    H131761   5.149   6.523   3.485
10606TIP3    H231762   5.294   6.487   3.508
10607TIP3   OH231763   2.657   0.945   1.162
10607TIP3    H131764   2.599   0.870   1.149
10607TIP3    H231765   2.745   0.911   1.144
10608TIP3   OH231766   2.805   3.715   4.514
10608TIP3    H131767   2.739   3.688   4.451
10608TIP3    H231768   2.767   3.692   4.599
10609TIP3   OH231769   5.101   0.439   6.210
10609TIP3    H131770   5.148   0.356   6.204
10609TIP3    H231771   5.164   0.505   6.180
10610TIP3   OH231772   2.850   4.849   0.813
10610TIP3    H131773   2.909   4.903   0.865
10610TIP3    H231774   2.769   4.899   0.809
10611TIP3   OH231775   7.208   2.418   2.667
10611TIP3    H131776   7.141   2.358   2.698
10611TIP3    H231777   7.290   2.369   2.675
10612TIP3   OH231778   1.283   5.106   2.655
10612TIP3    H131779   1.296   5.133   2.746
10612TIP3    H231780   1.257   5.014   2.661
10613TIP3   OH231781   4.025   4.225   0.611
10613TIP3    H131782   4.082   4.168   0.559
10613TIP3    H231783   3.981   4.280   0.546
10614TIP3   OH231784   3.817   5.158   5.218
10614TIP3    H131785   3.899   5.132   5.261
10614TIP3    H231786   3.792   5.081   5.166
10615TIP3   OH231787   4.357   6.710   5.993
10615TIP3    H131788   4.440   6.690   6.037
10615TIP3    H231789   4.318   6.624   5.977
10616TIP3   OH231790   1.166   4.113   6.444
10616TIP3    H131791   1.195   4.022   6.434
10616TIP3    H231792   1.071   4.105   6.459
10617TIP3   OH231793   7.576   2.107   0.368
10617TIP3    H131794   7.558   2.014   0.360
10617TIP3    H231795   7.635   2.114   0.443
10618TIP3   OH231796   4.268   3.826   3.407
10618TIP3    H131797   4.200   3.822   3.339
10618TIP3    H231798   4.309   3.740   3.404
10619TIP3   OH231799   0.471   1.040   1.971
10619TIP3    H131800   0.411   1.039   1.897
10619TIP3    H231801   0.418   1.009   2.045
10620TIP3   OH231802   1.655   5.318   4.564
10620TIP3    H131803   1.639   5.348   4.474
10620TIP3    H231804   1.702   5.390   4.605
10621TIP3   OH231805   2.341   3.579   0.592
10621TIP3    H131806   2.399   3.605   0.520
10621TIP3    H231807   2.400   3.539   0.656
10622TIP3   OH231808   7.957   1.402   6.765
10622TIP3    H131809   8.011   1.354   6.703
10622TIP3    H231810   7.869   1.366   6.752
10623TIP3   OH231811   6.089   3.855   1.717
10623TIP3    H131812   6.025   3.817   1.656
10623TIP3    H231813   6.134   3.779   1.755
10624TIP3   OH231814   7.803   2.037   6.393
10624TIP3    H131815   7.835   1.973   6.456
10624TIP3    H231816   7.768   1.985   6.321
10625TIP3   OH231817   4.519   2.209   2.424
10625TIP3    H131818   4.537   2.302   2.408
10625TIP3    H231819   4.462   2.184   2.351
10626TIP3   OH231820   4.366   6.801   4.586
10626TIP3    H131821   4.448   6.827   4.544
10626TIP3    H231822   4.393   6.768   4.672
10627TIP3   OH231823   5.564   4.424   1.995
10627TIP3    H131824   5.651   4.463   2.002
10627TIP3    H231825   5.567   4.347   2.051
10628TIP3   OH231826   7.621   1.234   5.277
10628TIP3    H131827   7.679   1.276   5.341
10628TIP3    H231828   7.680   1.190   5.216
10629TIP3   OH231829   7.247   6.029   2.325
10629TIP3    H131830   7.182   6.076   2.272
10629TIP3    H231831   7.305   6.097   2.359
10630TIP3   OH231832   4.490   1.743   1.208
10630TIP3    H131833   4.426   1.795   1.160
10630TIP3    H231834   4.486   1.656   1.167
10631TIP3   OH231835   4.904   1.044   0.927
10631TIP3    H131836   4.931   0.981   0.994
10631TIP3    H231837   4.985   1.077   0.889
10632TIP3   OH231838   5.996   5.019   3.842
10632TIP3    H131839   6.075   5.005   3.790
10632TIP3    H231840   5.975   4.932   3.877
10633TIP3   OH231841   3.860   2.124   3.993
10633TIP3    H131842   3.800   2.059   3.955
10633TIP3    H231843   3.886   2.178   3.919
10634TIP3   OH231844   3.214   7.367   6.508
10634TIP3    H131845   3.251   7.285   6.541
10634TIP3    H231846   3.287   7.429   6.512
10635TIP3   OH231847   2.898   1.477   3.736
10635TIP3    H131848   2.903   1.393   3.783
10635TIP3    H231849   2.810   1.510   3.756
10636TIP3   OH231850   6.028   2.114   1.798
10636TIP3    H131851   6.058   2.180   1.861
10636TIP3    H231852   5.934   2.130   1.791
10637TIP3   OH231853   8.333   5.412   3.943
10637TIP3    H131854   8.323   5.352   4.017
10637TIP3    H231855   8.257   5.470   3.949
10638TIP3   OH231856   3.691   0.920   0.796
10638TIP3    H131857   3.640   0.872   0.861
10638TIP3    H231858   3.753   0.972   0.847
10639TIP3   OH231859   8.293   3.026   6.085
10639TIP3    H131860   8.267   3.013   6.177
10639TIP3    H231861   8.259   3.113   6.063
10640TIP3   OH231862   8.112   0.295   6.307
10640TIP3    H131863   8.103   0.366   6.370
10640TIP3    H231864   8.166   0.331   6.237
10641TIP3   OH231865   8.184   6.617   4.196
10641TIP3    H131866   8.256   6.681   4.199
10641TIP3    H231867   8.116   6.656   4.251
10642TIP3   OH231868   1.859   0.456   1.054
10642TIP3    H131869   1.933   0.407   1.019
10642TIP3    H231870   1.788   0.392   1.058
10643TIP3   OH231871   8.168   2.777   4.442
10643TIP3    H131872   8.205   2.716   4.379
10643TIP3    H231873   8.159   2.860   4.395
10644TIP3   OH231874   2.901   3.540   1.281
10644TIP3    H131875   2.905   3.499   1.368
10644TIP3    H231876   2.978   3.506   1.235
10645TIP3   OH231877   4.019   7.130   0.946
10645TIP3    H131878   3.953   7.131   1.015
10645TIP3    H231879   3.977   7.083   0.874
10646TIP3   OH231880   2.568   5.363   3.005
10646TIP3    H131881   2.595   5.379   2.915
10646TIP3    H231882   2.583   5.270   3.019
10647TIP3   OH231883   5.520   5.502   6.601
10647TIP3    H131884   5.539   5.539   6.687
10647TIP3    H231885   5.579   5.549   6.541
10648TIP3   OH231886   4.575   1.622   3.455
10648TIP3    H131887   4.535   1.693   3.404
10648TIP3    H231888   4.582   1.550   3.393
10649TIP3   OH231889   2.179   4.400   2.697
10649TIP3    H131890   2.174   4.463   2.625
10649TIP3    H231891   2.094   4.356   2.697
10650TIP3   OH231892   2.458   3.416   2.990
10650TIP3    H131893   2.395   3.410   2.917
10650TIP3    H231894   2.411   3.464   3.058
10651TIP3   OH231895   1.514   2.023   0.030
10651TIP3    H131896   1.495   2.111   0.060
10651TIP3    H231897   1.605   2.027   0.000
10652TIP3   OH231898   4.409   1.834   2.421
10652TIP3    H131899   4.428   1.914   2.371
10652TIP3    H231900   4.336   1.793   2.374
10653TIP3   OH231901   1.591   2.284   3.240
10653TIP3    H131902   1.684   2.299   3.258
10653TIP3    H231903   1.547   2.308   3.321
10654TIP3   OH231904   3.148   5.833   0.524
10654TIP3    H131905   3.124   5.855   0.434
10654TIP3    H231906   3.176   5.916   0.562
10655TIP3   OH231907   7.800   6.602   6.088
10655TIP3    H131908   7.794   6.620   5.994
10655TIP3    H231909   7.886   6.564   6.100
10656TIP3   OH231910   3.969   3.585   5.079
10656TIP3    H131911   4.016   3.613   5.000
10656TIP3    H231912   4.038   3.557   5.139
10657TIP3   OH231913   1.731   5.885   3.595
10657TIP3    H131914   1.817   5.854   3.623
10657TIP3    H231915   1.730   5.978   3.618
10658TIP3   OH231916   8.255   4.514   5.286
10658TIP3    H131917   8.313   4.439   5.303
10658TIP3    H231918   8.205   4.524   5.368
10659TIP3   OH231919   2.330   1.036   2.445
10659TIP3    H131920   2.330   1.077   2.532
10659TIP3    H231921   2.368   0.950   2.459
10660TIP3   OH231922   4.162   2.158   4.412
10660TIP3    H131923   4.164   2.239   4.362
10660TIP3    H231924   4.107   2.099   4.361
10661TIP3   OH231925   6.725   3.377   2.168
10661TIP3    H131926   6.643   3.423   2.184
10661TIP3    H231927   6.715   3.338   2.082
10662TIP3   OH231928   0.185   6.014   0.198
10662TIP3    H131929   0.163   5.961   0.121
10662TIP3    H231930   0.238   5.956   0.253
10663TIP3   OH231931   0.292   6.377   1.241
10663TIP3    H131932   0.243   6.441   1.294
10663TIP3    H231933   0.226   6.336   1.185
10664TIP3   OH231934   3.833   6.714   3.731
10664TIP3    H131935   3.911   6.705   3.785
10664TIP3    H231936   3.778   6.640   3.756
10665TIP3   OH231937   5.546   7.174   5.194
10665TIP3    H131938   5.487   7.164   5.268
10665TIP3    H231939   5.562   7.084   5.164
10666TIP3   OH231940   6.348   7.829   3.288
10666TIP3    H131941   6.443   7.827   3.273
10666TIP3    H231942   6.319   7.740   3.269
10667TIP3   OH231943   2.772   3.610   1.020
10667TIP3    H131944   2.780   3.572   1.107
10667TIP3    H231945   2.844   3.570   0.970
10668TIP3   OH231946   3.380   3.370   0.346
10668TIP3    H131947   3.442   3.313   0.391
10668TIP3    H231948   3.297   3.323   0.349
10669TIP3   OH231949   5.918   7.831   6.368
10669TIP3    H131950   5.994   7.870   6.410
10669TIP3    H231951   5.946   7.815   6.278
10670TIP3   OH231952   2.563   1.432   0.392
10670TIP3    H131953   2.600   1.505   0.343
10670TIP3    H231954   2.474   1.460   0.413
10671TIP3   OH231955   5.686   5.369   3.757
10671TIP3    H131956   5.593   5.347   3.763
10671TIP3    H231957   5.695   5.450   3.806
10672TIP3   OH231958   6.102   5.103   3.588
10672TIP3    H131959   6.076   5.191   3.560
10672TIP3    H231960   6.164   5.074   3.521
10673TIP3   OH231961   1.884   0.926   0.253
10673TIP3    H131962   1.934   0.930   0.172
10673TIP3    H231963   1.796   0.901   0.225
10674TIP3   OH231964   0.500   2.872   0.477
10674TIP3    H131965   0.415   2.900   0.445
10674TIP3    H231966   0.493   2.777   0.484
10675TIP3   OH231967   1.388   2.713   5.003
10675TIP3    H131968   1.452   2.687   4.937
10675TIP3    H231969   1.335   2.781   4.960
10676TIP3   OH231970   3.745   2.209   2.008
10676TIP3    H131971   3.760   2.206   1.914
10676TIP3    H231972   3.673   2.271   2.019
10677TIP3   OH231973   2.015   5.430   5.379
10677TIP3    H131974   1.974   5.478   5.307
10677TIP3    H231975   1.970   5.345   5.380
10678TIP3   OH231976   3.613   0.826   4.143
10678TIP3    H131977   3.705   0.815   4.168
10678TIP3    H231978   3.599   0.921   4.145
10679TIP3   OH231979   2.431   3.688   6.352
10679TIP3    H131980   2.448   3.628   6.280
10679TIP3    H231981   2.335   3.695   6.354
10680TIP3   OH231982   5.413   3.584   2.696
10680TIP3    H131983   5.498   3.598   2.737
10680TIP3    H231984   5.402   3.489   2.692
10681TIP3   OH231985   1.104   5.719   3.865
10681TIP3    H131986   1.083   5.654   3.798
10681TIP3    H231987   1.036   5.785   3.856
10682TIP3   OH231988   3.794   2.526   3.166
10682TIP3    H131989   3.725   2.576   3.209
10682TIP3    H231990   3.789   2.439   3.206
10683TIP3   OH231991   6.849   3.876   3.680
10683TIP3    H131992   6.920   3.912   3.625
10683TIP3    H231993   6.802   3.817   3.622
10684TIP3   OH231994   5.910   4.491   1.195
10684TIP3    H131995   5.820   4.482   1.165
10684TIP3    H231996   5.904   4.540   1.277
10685TIP3   OH231997   5.681   4.492   1.554
10685TIP3    H131998   5.746   4.559   1.536
10685TIP3    H231999   5.599   4.540   1.568
10686TIP3   OH232000   0.259   6.605   2.439
10686TIP3    H132001   0.222   6.590   2.352
10686TIP3    H232002   0.192   6.573   2.499
10687TIP3   OH232003   2.417   2.117   0.472
10687TIP3    H132004   2.363   2.110   0.394
10687TIP3    H232005   2.363   2.082   0.543
10688TIP3   OH232006   4.312   3.200   3.078
10688TIP3    H132007   4.237   3.173   3.131
10688TIP3    H232008   4.338   3.120   3.031
10689TIP3   OH232009   4.700   1.617   2.563
10689TIP3    H132010   4.618   1.611   2.514
10689TIP3    H232011   4.692   1.552   2.632
10690TIP3   OH232012   7.264   0.267   4.670
10690TIP3    H132013   7.313   0.239   4.748
10690TIP3    H232014   7.247   0.360   4.686
10691TIP3   OH232015   3.230   7.207   0.784
10691TIP3    H132016   3.306   7.197   0.727
10691TIP3    H232017   3.157   7.224   0.724
10692TIP3   OH232018   4.578   0.941   2.697
10692TIP3    H132019   4.635   1.005   2.740
10692TIP3    H232020   4.518   0.994   2.644
10693TIP3   OH232021   2.933   3.004   0.754
10693TIP3    H132022   2.838   2.996   0.765
10693TIP3    H232023   2.970   2.974   0.837
10694TIP3   OH232024   3.830   7.399   1.214
10694TIP3    H132025   3.776   7.337   1.261
10694TIP3    H232026   3.796   7.399   1.125
10695TIP3   OH232027   4.024   2.125   6.505
10695TIP3    H132028   4.076   2.139   6.584
10695TIP3    H232029   4.087   2.126   6.433
10696TIP3   OH232030   3.706   7.836   6.217
10696TIP3    H132031   3.792   7.800   6.236
10696TIP3    H232032   3.695   7.826   6.123
10697TIP3   OH232033   1.725   1.975   3.477
10697TIP3    H132034   1.721   1.921   3.398
10697TIP3    H232035   1.704   1.916   3.549
10698TIP3   OH232036   7.648   1.368   1.299
10698TIP3    H132037   7.568   1.387   1.251
10698TIP3    H232038   7.621   1.361   1.390
10699TIP3   OH232039   5.230   4.363   6.810
10699TIP3    H132040   5.282   4.427   6.762
10699TIP3    H232041   5.182   4.316   6.743
10700TIP3   OH232042   2.929   7.788   6.095
10700TIP3    H132043   2.937   7.698   6.065
10700TIP3    H232044   2.929   7.782   6.190
10701TIP3   OH232045   3.660   6.583   4.688
10701TIP3    H132046   3.644   6.490   4.669
10701TIP3    H232047   3.635   6.628   4.607
10702TIP3   OH232048   3.653   0.910   0.378
10702TIP3    H132049   3.724   0.846   0.371
10702TIP3    H232050   3.652   0.955   0.293
10703TIP3   OH232051   0.353   4.667   1.436
10703TIP3    H132052   0.351   4.711   1.521
10703TIP3    H232053   0.388   4.732   1.376
10704TIP3   OH232054   3.784   3.138   0.262
10704TIP3    H132055   3.839   3.061   0.276
10704TIP3    H232056   3.701   3.103   0.230
10705TIP3   OH232057   5.582   6.551   2.611
10705TIP3    H132058   5.490   6.563   2.635
10705TIP3    H232059   5.631   6.593   2.682
10706TIP3   OH232060   7.217   3.049   1.524
10706TIP3    H132061   7.123   3.032   1.521
10706TIP3    H232062   7.226   3.140   1.495
10707TIP3   OH232063   6.135   1.942   0.273
10707TIP3    H132064   6.130   2.037   0.277
10707TIP3    H232065   6.215   1.924   0.223
10708TIP3   OH232066   7.227   2.773   6.295
10708TIP3    H132067   7.246   2.865   6.279
10708TIP3    H232068   7.263   2.755   6.382
10709TIP3   OH232069   0.185   4.536   3.284
10709TIP3    H132070   0.213   4.625   3.261
10709TIP3    H232071   0.091   4.542   3.295
10710TIP3   OH232072   3.668   3.244   4.020
10710TIP3    H132073   3.691   3.184   3.950
10710TIP3    H232074   3.572   3.245   4.020
10711TIP3   OH232075   1.361   7.273   1.979
10711TIP3    H132076   1.414   7.196   1.958
10711TIP3    H232077   1.407   7.346   1.937
10712TIP3   OH232078   5.977   1.286   1.091
10712TIP3    H132079   5.991   1.380   1.103
10712TIP3    H232080   5.894   1.268   1.135
10713TIP3   OH232081   3.398   1.103   1.304
10713TIP3    H132082   3.443   1.034   1.354
10713TIP3    H232083   3.367   1.059   1.225
10714TIP3   OH232084   1.385   1.971   3.969
10714TIP3    H132085   1.473   1.951   3.999
10714TIP3    H232086   1.378   2.066   3.975
10715TIP3   OH232087   2.719   3.719   5.690
10715TIP3    H132088   2.761   3.659   5.751
10715TIP3    H232089   2.788   3.781   5.666
10716TIP3   OH232090   4.135   0.559   2.383
10716TIP3    H132091   4.150   0.468   2.411
10716TIP3    H232092   4.205   0.609   2.425
10717TIP3   OH232093   1.057   7.307   2.600
10717TIP3    H132094   1.045   7.242   2.531
10717TIP3    H232095   1.137   7.279   2.646
10718TIP3   OH232096   6.978   1.493   0.169
10718TIP3    H132097   7.056   1.518   0.118
10718TIP3    H232098   6.951   1.409   0.133
10719TIP3   OH232099   1.206   5.514   5.365
10719TIP3    H132100   1.154   5.533   5.287
10719TIP3    H232101   1.183   5.424   5.388
10720TIP3   OH232102   5.400   5.010   2.351
10720TIP3    H132103   5.340   5.072   2.308
10720TIP3    H232104   5.477   5.063   2.371
10721TIP3   OH232105   7.815   2.571   0.677
10721TIP3    H132106   7.855   2.589   0.592
10721TIP3    H232107   7.727   2.539   0.656
10722TIP3   OH232108   6.168   6.140   5.069
10722TIP3    H132109   6.247   6.103   5.109
10722TIP3    H232110   6.160   6.227   5.108
10723TIP3   OH232111   5.594   5.697   6.434
10723TIP3    H132112   5.647   5.740   6.367
10723TIP3    H232113   5.529   5.763   6.459
10724TIP3   OH232114   2.388   4.533   2.816
10724TIP3    H132115   2.411   4.463   2.877
10724TIP3    H232116   2.329   4.492   2.753
10725TIP3   OH232117   6.666   6.954   0.521
10725TIP3    H132118   6.655   7.048   0.513
10725TIP3    H232119   6.675   6.938   0.615
10726TIP3   OH232120   1.322   6.448   5.622
10726TIP3    H132121   1.291   6.494   5.544
10726TIP3    H232122   1.278   6.363   5.619
10727TIP3   OH232123   3.718   3.351   3.082
10727TIP3    H132124   3.691   3.403   3.158
10727TIP3    H232125   3.687   3.400   3.006
10728TIP3   OH232126   0.893   0.257   5.631
10728TIP3    H132127   0.862   0.346   5.646
10728TIP3    H232128   0.834   0.222   5.564
10729TIP3   OH232129   4.161   3.305   4.887
10729TIP3    H132130   4.229   3.355   4.842
10729TIP3    H232131   4.079   3.346   4.862
10730TIP3   OH232132   7.065   5.919   4.808
10730TIP3    H132133   7.019   5.878   4.734
10730TIP3    H232134   7.043   6.012   4.800
10731TIP3   OH232135   5.642   7.516   4.456
10731TIP3    H132136   5.701   7.589   4.472
10731TIP3    H232137   5.608   7.531   4.368
10732TIP3   OH232138   7.076   4.629   4.942
10732TIP3    H132139   7.120   4.564   4.886
10732TIP3    H232140   7.146   4.690   4.967
10733TIP3   OH232141   7.954   1.770   6.215
10733TIP3    H132142   7.870   1.805   6.187
10733TIP3    H232143   8.007   1.768   6.136
10734TIP3   OH232144   2.572   6.164   6.314
10734TIP3    H132145   2.502   6.227   6.300
10734TIP3    H232146   2.534   6.080   6.288
10735TIP3   OH232147   5.016   2.646   1.326
10735TIP3    H132148   4.982   2.595   1.252
10735TIP3    H232149   5.106   2.616   1.336
10736TIP3   OH232150   2.625   5.952   0.873
10736TIP3    H132151   2.704   5.904   0.900
10736TIP3    H232152   2.553   5.891   0.890
10737TIP3   OH232153   1.685   3.326   5.455
10737TIP3    H132154   1.618   3.385   5.490
10737TIP3    H232155   1.703   3.265   5.526
10738TIP3   OH232156   7.059   5.549   0.962
10738TIP3    H132157   6.976   5.581   0.928
10738TIP3    H232158   7.116   5.542   0.885
10739TIP3   OH232159   6.720   3.536   2.455
10739TIP3    H132160   6.779   3.561   2.526
10739TIP3    H232161   6.695   3.446   2.475
10740TIP3   OH232162   0.336   4.788   4.984
10740TIP3    H132163   0.327   4.870   5.033
10740TIP3    H232164   0.417   4.799   4.934
10741TIP3   OH232165   6.772   3.321   5.294
10741TIP3    H132166   6.863   3.336   5.319
10741TIP3    H232167   6.777   3.259   5.221
10742TIP3   OH232168   4.049   3.372   5.714
10742TIP3    H132169   3.974   3.313   5.704
10742TIP3    H232170   4.049   3.395   5.807
10743TIP3   OH232171   8.047   0.422   2.916
10743TIP3    H132172   8.031   0.464   2.832
10743TIP3    H232173   7.988   0.347   2.918
10744TIP3   OH232174   2.087   5.986   2.521
10744TIP3    H132175   2.117   6.034   2.599
10744TIP3    H232176   2.166   5.947   2.485
10745TIP3   OH232177   4.724   7.265   5.285
10745TIP3    H132178   4.783   7.282   5.358
10745TIP3    H232179   4.653   7.213   5.322
10746TIP3   OH232180   6.308   5.730   2.499
10746TIP3    H132181   6.255   5.751   2.422
10746TIP3    H232182   6.324   5.636   2.493
10747TIP3   OH232183   4.994   2.584   5.644
10747TIP3    H132184   4.979   2.563   5.552
10747TIP3    H232185   5.061   2.653   5.641
10748TIP3   OH232186   7.635   0.811  -0.007
10748TIP3    H132187   7.625   0.825  -0.101
10748TIP3    H232188   7.581   0.880   0.033
10749TIP3   OH232189   1.700   7.494   3.477
10749TIP3    H132190   1.618   7.534   3.448
10749TIP3    H232191   1.723   7.434   3.406
10750TIP3   OH232192   1.216   1.971   1.783
10750TIP3    H132193   1.296   2.002   1.826
10750TIP3    H232194   1.235   1.879   1.762
10751TIP3   OH232195   0.897   6.170   2.394
10751TIP3    H132196   0.876   6.183   2.302
10751TIP3    H232197   0.987   6.136   2.394
10752TIP3   OH232198   2.603   5.509   1.667
10752TIP3    H132199   2.596   5.423   1.626
10752TIP3    H232200   2.590   5.493   1.760
10753TIP3   OH232201   5.647   7.415   5.257
10753TIP3    H132202   5.741   7.415   5.275
10753TIP3    H232203   5.628   7.327   5.225
10754TIP3   OH232204   4.402   0.826   2.874
10754TIP3    H132205   4.321   0.807   2.827
10754TIP3    H232206   4.437   0.905   2.832
10755TIP3   OH232207   5.044   5.345   1.012
10755TIP3    H132208   5.095   5.343   0.931
10755TIP3    H232209   5.070   5.266   1.059
10756TIP3   OH232210   1.603   0.258   4.726
10756TIP3    H132211   1.671   0.238   4.661
10756TIP3    H232212   1.588   0.352   4.717
10757TIP3   OH232213   4.409   0.601   5.899
10757TIP3    H132214   4.464   0.669   5.936
10757TIP3    H232215   4.419   0.527   5.958
10758TIP3   OH232216   1.051   4.677   5.664
10758TIP3    H132217   1.048   4.768   5.634
10758TIP3    H232218   0.990   4.674   5.737
10759TIP3   OH232219   2.123   7.763   1.493
10759TIP3    H132220   2.060   7.691   1.488
10759TIP3    H232221   2.208   7.721   1.506
10760TIP3   OH232222   0.429   5.049   3.007
10760TIP3    H132223   0.385   5.095   3.078
10760TIP3    H232224   0.360   5.036   2.942
10761TIP3   OH232225   4.140   3.078   3.259
10761TIP3    H132226   4.116   3.141   3.327
10761TIP3    H232227   4.056   3.047   3.224
10762TIP3   OH232228   2.879   3.104   1.599
10762TIP3    H132229   2.949   3.169   1.598
10762TIP3    H232230   2.921   3.025   1.634
10763TIP3   OH232231   3.473   3.997   5.608
10763TIP3    H132232   3.538   4.065   5.624
10763TIP3    H232233   3.520   3.915   5.624
10764TIP3   OH232234   2.859   4.195   4.816
10764TIP3    H132235   2.936   4.216   4.867
10764TIP3    H232236   2.856   4.262   4.747
10765TIP3   OH232237   0.830   7.794   6.400
10765TIP3    H132238   0.878   7.713   6.382
10765TIP3    H232239   0.779   7.775   6.478
10766TIP3   OH232240   1.659   4.798   0.118
10766TIP3    H132241   1.610   4.719   0.141
10766TIP3    H232242   1.628   4.865   0.179
10767TIP3   OH232243   1.731   7.792   4.297
10767TIP3    H132244   1.826   7.789   4.314
10767TIP3    H232245   1.717   7.876   4.254
10768TIP3   OH232246   3.581   7.805   5.913
10768TIP3    H132247   3.649   7.826   5.848
10768TIP3    H232248   3.528   7.885   5.918
10769TIP3   OH232249   6.343   7.610   6.127
10769TIP3    H132250   6.330   7.516   6.131
10769TIP3    H232251   6.317   7.634   6.038
10770TIP3   OH232252   3.307   6.439   3.135
10770TIP3    H132253   3.234   6.420   3.194
10770TIP3    H232254   3.357   6.357   3.131
10771TIP3   OH232255   4.778   3.844   2.604
10771TIP3    H132256   4.699   3.801   2.571
10771TIP3    H232257   4.849   3.807   2.553
10772TIP3   OH232258   3.826   4.763   1.983
10772TIP3    H132259   3.770   4.686   1.979
10772TIP3    H232260   3.790   4.823   1.918
10773TIP3   OH232261   1.071   7.382   4.875
10773TIP3    H132262   0.994   7.395   4.930
10773TIP3    H232263   1.145   7.401   4.932
10774TIP3   OH232264   8.131   3.759   4.372
10774TIP3    H132265   8.216   3.763   4.416
10774TIP3    H232266   8.076   3.707   4.432
10775TIP3   OH232267   2.917   3.700   1.697
10775TIP3    H132268   2.991   3.729   1.645
10775TIP3    H232269   2.884   3.780   1.738
10776TIP3   OH232270   0.813   2.454   1.318
10776TIP3    H132271   0.777   2.393   1.383
10776TIP3    H232272   0.747   2.523   1.311
10777TIP3   OH232273   0.730   3.277   0.514
10777TIP3    H132274   0.785   3.200   0.519
10777TIP3    H232275   0.772   3.333   0.449
10778TIP3   OH232276   2.718   4.927   5.548
10778TIP3    H132277   2.690   4.975   5.627
10778TIP3    H232278   2.792   4.977   5.515
10779TIP3   OH232279   5.647   0.066   0.733
10779TIP3    H132280   5.663  -0.012   0.681
10779TIP3    H232281   5.588   0.119   0.679
10780TIP3   OH232282   5.602   0.672   6.128
10780TIP3    H132283   5.619   0.629   6.212
10780TIP3    H232284   5.559   0.604   6.075
10781TIP3   OH232285   8.168   0.828   1.003
10781TIP3    H132286   8.116   0.835   0.923
10781TIP3    H232287   8.134   0.751   1.048
10782TIP3   OH232288   5.339   6.831   3.360
10782TIP3    H132289   5.281   6.758   3.381
10782TIP3    H232290   5.427   6.796   3.375
10783TIP3   OH232291   1.212   6.389   0.359
10783TIP3    H132292   1.162   6.366   0.280
10783TIP3    H232293   1.303   6.392   0.329
10784TIP3   OH232294   1.792   6.112   6.227
10784TIP3    H132295   1.877   6.090   6.265
10784TIP3    H232296   1.808   6.190   6.174
10785TIP3   OH232297   4.498   7.167   5.433
10785TIP3    H132298   4.503   7.096   5.369
10785TIP3    H232299   4.412   7.207   5.417
10786TIP3   OH232300   6.578   2.202   4.182
10786TIP3    H132301   6.569   2.158   4.267
10786TIP3    H232302   6.649   2.154   4.138
10787TIP3   OH232303   6.252   7.693   2.327
10787TIP3    H132304   6.275   7.740   2.407
10787TIP3    H232305   6.208   7.614   2.357
10788TIP3   OH232306   4.161   4.590   2.154
10788TIP3    H132307   4.165   4.496   2.136
10788TIP3    H232308   4.236   4.606   2.211
10789TIP3   OH232309   1.101   5.229   1.252
10789TIP3    H132310   1.175   5.206   1.196
10789TIP3    H232311   1.118   5.320   1.278
10790TIP3   OH232312   4.762   7.561   4.893
10790TIP3    H132313   4.811   7.600   4.965
10790TIP3    H232314   4.780   7.618   4.818
10791TIP3   OH232315   0.450   0.151   2.262
10791TIP3    H132316   0.442   0.063   2.226
10791TIP3    H232317   0.365   0.192   2.246
10792TIP3   OH232318   6.962   1.457   1.851
10792TIP3    H132319   7.042   1.422   1.812
10792TIP3    H232320   6.982   1.467   1.944
10793TIP3   OH232321   0.386   4.274   0.205
10793TIP3    H132322   0.402   4.334   0.132
10793TIP3    H232323   0.414   4.323   0.283
10794TIP3   OH232324   7.063   4.723   6.473
10794TIP3    H132325   7.000   4.662   6.434
10794TIP3    H232326   7.020   4.808   6.470
10795TIP3   OH232327   7.460   5.016   3.732
10795TIP3    H132328   7.401   4.991   3.661
10795TIP3    H232329   7.438   5.107   3.750
10796TIP3   OH232330   0.686   2.232   0.941
10796TIP3    H132331   0.632   2.179   0.999
10796TIP3    H232332   0.755   2.267   0.998
10797TIP3   OH232333   1.471   3.163   6.527
10797TIP3    H132334   1.406   3.117   6.474
10797TIP3    H232335   1.476   3.250   6.488
10798TIP3   OH232336   8.024   1.034   6.342
10798TIP3    H132337   8.033   0.985   6.260
10798TIP3    H232338   8.099   1.093   6.344
10799TIP3   OH232339   6.392   3.133   2.410
10799TIP3    H132340   6.408   3.090   2.326
10799TIP3    H232341   6.404   3.063   2.475
10800TIP3   OH232342   0.677   3.379   4.752
10800TIP3    H132343   0.620   3.376   4.676
10800TIP3    H232344   0.653   3.302   4.803
10801TIP3   OH232345   7.043   6.505   0.729
10801TIP3    H132346   7.045   6.434   0.665
10801TIP3    H232347   7.001   6.578   0.684
10802TIP3   OH232348   1.866   5.091   6.411
10802TIP3    H132349   1.844   5.183   6.404
10802TIP3    H232350   1.920   5.073   6.334
10803TIP3   OH232351   5.877   6.655   0.541
10803TIP3    H132352   5.865   6.598   0.617
10803TIP3    H232353   5.790   6.691   0.525
10804TIP3   OH232354   0.947   1.185   0.666
10804TIP3    H132355   0.899   1.247   0.720
10804TIP3    H232356   1.008   1.142   0.726
10805TIP3   OH232357   3.563   4.202   6.632
10805TIP3    H132358   3.615   4.241   6.562
10805TIP3    H232359   3.553   4.272   6.697
10806TIP3   OH232360   0.783   0.679   3.335
10806TIP3    H132361   0.701   0.683   3.287
10806TIP3    H232362   0.841   0.740   3.289
10807TIP3   OH232363   2.139   3.669   1.099
10807TIP3    H132364   2.138   3.642   1.191
10807TIP3    H232365   2.157   3.589   1.050
10808TIP3   OH232366   4.307   3.994   2.073
10808TIP3    H132367   4.262   3.970   1.992
10808TIP3    H232368   4.264   3.942   2.141
10809TIP3   OH232369   1.226   1.401   2.200
10809TIP3    H132370   1.155   1.399   2.136
10809TIP3    H232371   1.300   1.439   2.153
10810TIP3   OH232372   4.345   3.673   1.787
10810TIP3    H132373   4.297   3.734   1.842
10810TIP3    H232374   4.381   3.727   1.716
10811TIP3   OH232375   7.459   4.144   6.000
10811TIP3    H132376   7.443   4.207   6.070
10811TIP3    H232377   7.451   4.058   6.042
10812TIP3   OH232378   7.409   5.404   4.069
10812TIP3    H132379   7.454   5.326   4.101
10812TIP3    H232380   7.322   5.372   4.044
10813TIP3   OH232381   7.918   2.272   3.143
10813TIP3    H132382   7.873   2.349   3.109
10813TIP3    H232383   7.878   2.198   3.097
10814TIP3   OH232384   5.467   4.604   1.666
10814TIP3    H132385   5.473   4.558   1.750
10814TIP3    H232386   5.462   4.697   1.690
10815TIP3   OH232387   7.775   1.443   2.603
10815TIP3    H132388   7.863   1.424   2.636
10815TIP3    H232389   7.787   1.518   2.544
10816TIP3   OH232390   1.387   0.976   0.297
10816TIP3    H132391   1.386   0.883   0.322
10816TIP3    H232392   1.296   1.004   0.309
10817TIP3   OH232393   5.537   6.472   4.792
10817TIP3    H132394   5.576   6.387   4.811
10817TIP3    H232395   5.508   6.505   4.877
10818TIP3   OH232396   4.551   5.771   4.652
10818TIP3    H132397   4.552   5.734   4.740
10818TIP3    H232398   4.595   5.856   4.661
10819TIP3   OH232399   6.239   2.504   5.870
10819TIP3    H132400   6.189   2.584   5.853
10819TIP3    H232401   6.172   2.438   5.886
10820TIP3   OH232402   1.148   0.180   5.698
10820TIP3    H132403   1.060   0.210   5.675
10820TIP3    H232404   1.152   0.186   5.793
10821TIP3   OH232405   0.143   4.574   3.002
10821TIP3    H132406   0.170   4.533   3.084
10821TIP3    H232407   0.049   4.555   2.996
10822TIP3   OH232408   1.722   4.830   2.437
10822TIP3    H132409   1.694   4.885   2.364
10822TIP3    H232410   1.648   4.832   2.498
10823TIP3   OH232411   0.292   1.382   5.877
10823TIP3    H132412   0.246   1.416   5.800
10823TIP3    H232413   0.310   1.291   5.856
10824TIP3   OH232414   1.010   4.079   2.939
10824TIP3    H132415   0.946   4.065   2.869
10824TIP3    H232416   1.052   3.994   2.951
10825TIP3   OH232417   4.886   2.481   1.150
10825TIP3    H132418   4.932   2.516   1.073
10825TIP3    H232419   4.856   2.394   1.123
10826TIP3   OH232420   1.946   0.741   6.157
10826TIP3    H132421   2.036   0.735   6.188
10826TIP3    H232422   1.915   0.651   6.153
10827TIP3   OH232423   5.410   4.595   5.616
10827TIP3    H132424   5.388   4.502   5.625
10827TIP3    H232425   5.506   4.597   5.619
10828TIP3   OH232426   1.998   0.108   4.731
10828TIP3    H132427   2.081   0.148   4.759
10828TIP3    H232428   1.933   0.145   4.791
10829TIP3   OH232429   1.743   4.147   2.193
10829TIP3    H132430   1.764   4.237   2.221
10829TIP3    H232431   1.647   4.145   2.189
10830TIP3   OH232432   2.855   6.347   0.546
10830TIP3    H132433   2.817   6.260   0.553
10830TIP3    H232434   2.885   6.367   0.635
10831TIP3   OH232435   0.690   7.701   6.620
10831TIP3    H132436   0.741   7.722   6.698
10831TIP3    H232437   0.640   7.623   6.644
10832TIP3   OH232438   1.440   2.122   5.915
10832TIP3    H132439   1.503   2.102   5.846
10832TIP3    H232440   1.486   2.100   5.996
10833TIP3   OH232441   2.597   6.582   4.583
10833TIP3    H132442   2.570   6.578   4.675
10833TIP3    H232443   2.686   6.618   4.586
10834TIP3   OH232444   7.933   7.036   0.976
10834TIP3    H132445   7.941   6.983   1.055
10834TIP3    H232446   7.856   7.001   0.931
10835TIP3   OH232447   1.749   4.905   3.426
10835TIP3    H132448   1.799   4.911   3.345
10835TIP3    H232449   1.812   4.875   3.491
10836TIP3   OH232450   5.083   7.109   6.180
10836TIP3    H132451   5.162   7.056   6.171
10836TIP3    H232452   5.073   7.122   6.274
10837TIP3   OH232453   5.887   3.316   0.592
10837TIP3    H132454   5.918   3.229   0.618
10837TIP3    H232455   5.898   3.318   0.497
10838TIP3   OH232456   8.231   4.326   4.245
10838TIP3    H132457   8.317   4.346   4.283
10838TIP3    H232458   8.174   4.311   4.320
10839TIP3   OH232459   2.376   7.135   5.554
10839TIP3    H132460   2.366   7.049   5.596
10839TIP3    H232461   2.452   7.174   5.598
10840TIP3   OH232462   4.479   2.413   6.513
10840TIP3    H132463   4.544   2.382   6.575
10840TIP3    H232464   4.397   2.411   6.561
10841TIP3   OH232465   3.183   6.799   1.249
10841TIP3    H132466   3.120   6.858   1.290
10841TIP3    H232467   3.129   6.727   1.214
10842TIP3   OH232468   0.110   2.453   0.968
10842TIP3    H132469   0.138   2.362   0.961
10842TIP3    H232470   0.178   2.503   0.923
10843TIP3   OH232471   7.568   5.936   3.933
10843TIP3    H132472   7.550   5.843   3.948
10843TIP3    H232473   7.595   5.969   4.019
10844TIP3   OH232474   7.136   3.428   4.315
10844TIP3    H132475   7.205   3.402   4.254
10844TIP3    H232476   7.054   3.406   4.269
10845TIP3   OH232477   5.840   6.964   0.693
10845TIP3    H132478   5.795   6.940   0.612
10845TIP3    H232479   5.770   6.982   0.755
10846TIP3   OH232480   5.376   0.537   6.539
10846TIP3    H132481   5.459   0.554   6.583
10846TIP3    H232482   5.401   0.495   6.456
10847TIP3   OH232483   6.733   6.469   6.380
10847TIP3    H132484   6.801   6.407   6.355
10847TIP3    H232485   6.712   6.446   6.471
10848TIP3   OH232486   4.936   6.090   5.930
10848TIP3    H132487   4.999   6.096   6.002
10848TIP3    H232488   4.859   6.138   5.961
10849TIP3   OH232489   3.009   5.626   5.287
10849TIP3    H132490   3.017   5.612   5.193
10849TIP3    H232491   2.972   5.544   5.320
10850TIP3   OH232492   3.381   0.298   2.423
10850TIP3    H132493   3.329   0.370   2.460
10850TIP3    H232494   3.390   0.236   2.495
10851TIP3   OH232495   6.081   0.635   0.890
10851TIP3    H132496   6.128   0.703   0.939
10851TIP3    H232497   6.047   0.681   0.813
10852TIP3   OH232498   3.881   2.311   0.403
10852TIP3    H132499   3.964   2.306   0.356
10852TIP3    H232500   3.824   2.250   0.356
10853TIP3   OH232501   0.651   2.671   3.890
10853TIP3    H132502   0.681   2.741   3.832
10853TIP3    H232503   0.663   2.590   3.839
10854TIP3   OH232504   7.027   0.249   5.010
10854TIP3    H132505   7.018   0.157   4.985
10854TIP3    H232506   6.949   0.292   4.975
10855TIP3   OH232507   2.870   4.430   3.872
10855TIP3    H132508   2.964   4.434   3.891
10855TIP3    H232509   2.840   4.350   3.914
10856TIP3   OH232510   3.267   7.522   3.305
10856TIP3    H132511   3.308   7.437   3.319
10856TIP3    H232512   3.173   7.503   3.303
10857TIP3   OH232513   6.616   3.687   6.481
10857TIP3    H132514   6.670   3.688   6.560
10857TIP3    H232515   6.583   3.777   6.474
10858TIP3   OH232516   5.012   2.800   3.263
10858TIP3    H132517   5.090   2.790   3.208
10858TIP3    H232518   4.962   2.870   3.221
10859TIP3   OH232519   6.486   6.837   4.333
10859TIP3    H132520   6.463   6.849   4.425
10859TIP3    H232521   6.491   6.925   4.297
10860TIP3   OH232522   7.169   1.541   4.084
10860TIP3    H132523   7.125   1.580   4.160
10860TIP3    H232524   7.262   1.555   4.100
10861TIP3   OH232525   3.564   2.854   2.971
10861TIP3    H132526   3.524   2.941   2.972
10861TIP3    H232527   3.655   2.870   2.946
10862TIP3   OH232528   6.981   0.477   3.096
10862TIP3    H132529   6.954   0.569   3.098
10862TIP3    H232530   6.995   0.458   3.004
10863TIP3   OH232531   1.741   1.746   0.638
10863TIP3    H132532   1.824   1.722   0.681
10863TIP3    H232533   1.729   1.678   0.572
10864TIP3   OH232534   7.511   0.636   6.631
10864TIP3    H132535   7.477   0.721   6.603
10864TIP3    H232536   7.604   0.650   6.645
10865TIP3   OH232537   6.123   5.953   1.145
10865TIP3    H132538   6.129   5.959   1.050
10865TIP3    H232539   6.066   5.878   1.161
10866TIP3   OH232540   2.298   1.181   1.113
10866TIP3    H132541   2.331   1.270   1.107
10866TIP3    H232542   2.251   1.167   1.030
10867TIP3   OH232543   2.262   0.360   3.775
10867TIP3    H132544   2.279   0.371   3.682
10867TIP3    H232545   2.186   0.301   3.779
10868TIP3   OH232546   1.353   3.021   6.299
10868TIP3    H132547   1.346   3.081   6.225
10868TIP3    H232548   1.437   2.977   6.286
10869TIP3   OH232549   0.119   5.827   2.196
10869TIP3    H132550   0.176   5.849   2.269
10869TIP3    H232551   0.097   5.735   2.209
10870TIP3   OH232552   0.098   4.772   5.753
10870TIP3    H132553   0.060   4.859   5.772
10870TIP3    H232554   0.043   4.738   5.682
10871TIP3   OH232555   4.301   1.469   1.706
10871TIP3    H132556   4.286   1.377   1.725
10871TIP3    H232557   4.215   1.510   1.712
10872TIP3   OH232558   1.304   5.999   0.189
10872TIP3    H132559   1.309   5.981   0.283
10872TIP3    H232560   1.246   5.931   0.155
10873TIP3   OH232561   0.240   3.776   2.604
10873TIP3    H132562   0.207   3.797   2.517
10873TIP3    H232563   0.288   3.694   2.592
10874TIP3   OH232564   0.324   6.747   4.891
10874TIP3    H132565   0.246   6.761   4.945
10874TIP3    H232566   0.303   6.670   4.839
10875TIP3   OH232567   7.832   4.036   5.303
10875TIP3    H132568   7.762   3.978   5.274
10875TIP3    H232569   7.791   4.093   5.368
10876TIP3   OH232570   3.381   5.969   5.533
10876TIP3    H132571   3.401   5.945   5.443
10876TIP3    H232572   3.328   5.897   5.566
10877TIP3   OH232573   4.812   6.256   6.514
10877TIP3    H132574   4.863   6.332   6.485
10877TIP3    H232575   4.803   6.202   6.436
10878TIP3   OH232576   7.644   6.675   1.609
10878TIP3    H132577   7.659   6.628   1.691
10878TIP3    H232578   7.729   6.675   1.566
10879TIP3   OH232579   8.377   3.991   5.633
10879TIP3    H132580   8.289   3.984   5.671
10879TIP3    H232581   8.367   4.052   5.560
10880TIP3   OH232582   0.950   3.301   1.401
10880TIP3    H132583   0.969   3.223   1.452
10880TIP3    H232584   0.910   3.362   1.464
10881TIP3   OH232585   5.406   1.342   2.398
10881TIP3    H132586   5.340   1.296   2.347
10881TIP3    H232587   5.406   1.431   2.363
10882TIP3   OH232588   4.618   0.636   2.255
10882TIP3    H132589   4.638   0.563   2.314
10882TIP3    H232590   4.598   0.709   2.313
10883TIP3   OH232591   7.570   1.645   4.958
10883TIP3    H132592   7.520   1.667   4.880
10883TIP3    H232593   7.509   1.595   5.012
10884TIP3   OH232594   5.763   6.869   3.673
10884TIP3    H132595   5.819   6.943   3.648
10884TIP3    H232596   5.821   6.811   3.724
10885TIP3   OH232597   1.568   6.771   1.957
10885TIP3    H132598   1.556   6.703   1.891
10885TIP3    H232599   1.658   6.759   1.987
10886TIP3   OH232600   2.301   2.880   2.408
10886TIP3    H132601   2.337   2.832   2.334
10886TIP3    H232602   2.373   2.935   2.439
10887TIP3   OH232603   5.962   3.771   5.215
10887TIP3    H132604   5.873   3.756   5.181
10887TIP3    H232605   5.957   3.747   5.307
10888TIP3   OH232606   5.220   2.064   3.977
10888TIP3    H132607   5.225   1.969   3.981
10888TIP3    H232608   5.309   2.094   3.997
10889TIP3   OH232609   7.321   4.624   2.644
10889TIP3    H132610   7.412   4.630   2.616
10889TIP3    H232611   7.324   4.631   2.739
10890TIP3   OH232612   8.097   7.034   0.403
10890TIP3    H132613   8.158   6.963   0.382
10890TIP3    H232614   8.013   6.990   0.415
10891TIP3   OH232615   0.513   5.377   3.114
10891TIP3    H132616   0.573   5.444   3.148
10891TIP3    H232617   0.430   5.423   3.103
10892TIP3   OH232618   0.443   3.535   0.675
10892TIP3    H132619   0.368   3.585   0.706
10892TIP3    H232620   0.434   3.533   0.580
10893TIP3   OH232621   2.161   6.708   2.627
10893TIP3    H132622   2.154   6.750   2.541
10893TIP3    H232623   2.254   6.685   2.635
10894TIP3   OH232624   7.004   5.695   6.197
10894TIP3    H132625   7.009   5.636   6.273
10894TIP3    H232626   6.955   5.770   6.230
10895TIP3   OH232627   5.293   7.691   1.690
10895TIP3    H132628   5.240   7.628   1.643
10895TIP3    H232629   5.301   7.766   1.630
10896TIP3   OH232630   0.390   1.996   2.850
10896TIP3    H132631   0.384   2.092   2.851
10896TIP3    H232632   0.450   1.975   2.921
10897TIP3   OH232633   8.248   3.496   5.018
10897TIP3    H132634   8.190   3.497   5.094
10897TIP3    H232635   8.282   3.407   5.015
10898TIP3   OH232636   5.004   5.124   0.745
10898TIP3    H132637   4.988   5.085   0.831
10898TIP3    H232638   4.969   5.060   0.683
10899TIP3   OH232639   6.094   6.973   1.103
10899TIP3    H132640   6.168   6.998   1.159
10899TIP3    H232641   6.018   7.018   1.141
10900TIP3   OH232642   0.978   1.773   6.042
10900TIP3    H132643   0.917   1.700   6.031
10900TIP3    H232644   0.973   1.794   6.135
10901TIP3   OH232645   3.748   5.242   6.681
10901TIP3    H132646   3.787   5.164   6.642
10901TIP3    H232647   3.659   5.216   6.704
10902TIP3   OH232648   5.311   4.044   1.011
10902TIP3    H132649   5.307   3.996   1.093
10902TIP3    H232650   5.263   4.125   1.028
10903TIP3   OH232651   2.107   1.445   3.145
10903TIP3    H132652   2.061   1.484   3.219
10903TIP3    H232653   2.165   1.515   3.114
10904TIP3   OH232654   7.492   0.630   5.226
10904TIP3    H132655   7.546   0.650   5.302
10904TIP3    H232656   7.550   0.581   5.167
10905TIP3   OH232657   0.784   1.905   4.755
10905TIP3    H132658   0.827   1.990   4.761
10905TIP3    H232659   0.691   1.925   4.748
10906TIP3   OH232660   5.406   3.386   5.897
10906TIP3    H132661   5.370   3.426   5.977
10906TIP3    H232662   5.463   3.316   5.929
10907TIP3   OH232663   1.066   4.479   2.899
10907TIP3    H132664   1.106   4.563   2.924
10907TIP3    H232665   0.974   4.501   2.882
10908TIP3   OH232666   7.100   0.175   6.288
10908TIP3    H132667   7.011   0.145   6.274
10908TIP3    H232668   7.118   0.233   6.214
10909TIP3   OH232669   0.071   5.851   0.698
10909TIP3    H132670   0.038   5.766   0.670
10909TIP3    H232671   0.044   5.911   0.628
10910TIP3   OH232672   3.068   5.092   2.789
10910TIP3    H132673   3.033   5.058   2.706
10910TIP3    H232674   3.026   5.177   2.800
10911TIP3   OH232675   0.961   3.537   0.089
10911TIP3    H132676   0.955   3.632   0.076
10911TIP3    H232677   0.928   3.500   0.007
10912TIP3   OH232678   3.143   3.174   1.195
10912TIP3    H132679   3.232   3.141   1.205
10912TIP3    H232680   3.149   3.266   1.222
10913TIP3   OH232681   0.493   6.644   6.058
10913TIP3    H132682   0.581   6.675   6.038
10913TIP3    H232683   0.489   6.641   6.154
10914TIP3   OH232684   5.008   3.037   3.092
10914TIP3    H132685   4.961   3.024   3.010
10914TIP3    H232686   5.070   3.108   3.073
10915TIP3   OH232687   4.459   7.341   5.998
10915TIP3    H132688   4.494   7.428   5.983
10915TIP3    H232689   4.383   7.335   5.939
10916TIP3   OH232690   1.273   0.576   6.286
10916TIP3    H132691   1.262   0.615   6.373
10916TIP3    H232692   1.194   0.600   6.238
10917TIP3   OH232693   6.125   6.217   6.296
10917TIP3    H132694   6.061   6.270   6.247
10917TIP3    H232695   6.146   6.145   6.237
10918TIP3   OH232696   3.031   2.348   4.497
10918TIP3    H132697   2.972   2.334   4.571
10918TIP3    H232698   3.102   2.402   4.533
10919TIP3   OH232699   4.282   0.268   6.725
10919TIP3    H132700   4.313   0.357   6.741
10919TIP3    H232701   4.361   0.214   6.732
10920TIP3   OH232702   0.294   5.824   1.718
10920TIP3    H132703   0.253   5.745   1.754
10920TIP3    H232704   0.263   5.895   1.774
10921TIP3   OH232705   6.965   0.206   0.455
10921TIP3    H132706   6.897   0.190   0.390
10921TIP3    H232707   6.918   0.212   0.538
10922TIP3   OH232708   2.079   1.641   0.905
10922TIP3    H132709   2.113   1.730   0.907
10922TIP3    H232710   2.012   1.640   0.974
10923TIP3   OH232711   4.346   4.509   0.297
10923TIP3    H132712   4.304   4.451   0.233
10923TIP3    H232713   4.329   4.597   0.265
10924TIP3   OH232714   5.254   7.517   2.880
10924TIP3    H132715   5.297   7.513   2.966
10924TIP3    H232716   5.250   7.426   2.852
10925TIP3   OH232717   7.341   2.807   0.611
10925TIP3    H132718   7.289   2.783   0.535
10925TIP3    H232719   7.394   2.881   0.581
10926TIP3   OH232720   2.959   7.534   5.144
10926TIP3    H132721   3.047   7.545   5.181
10926TIP3    H232722   2.900   7.556   5.216
10927TIP3   OH232723   5.014   0.305   0.050
10927TIP3    H132724   5.014   0.367   0.123
10927TIP3    H232725   5.022   0.219   0.092
10928TIP3   OH232726   3.553   1.265   1.151
10928TIP3    H132727   3.491   1.222   1.211
10928TIP3    H232728   3.639   1.244   1.187
10929TIP3   OH232729   7.716   5.094   5.181
10929TIP3    H132730   7.718   5.042   5.100
10929TIP3    H232731   7.633   5.071   5.222
10930TIP3   OH232732   0.955   5.439   0.754
10930TIP3    H132733   0.988   5.528   0.766
10930TIP3    H232734   0.910   5.419   0.836
10931TIP3   OH232735   1.310   7.529   6.362
10931TIP3    H132736   1.315   7.482   6.446
10931TIP3    H232737   1.357   7.472   6.301
10932TIP3   OH232738   2.302   0.465   3.520
10932TIP3    H132739   2.226   0.488   3.467
10932TIP3    H232740   2.338   0.549   3.548
10933TIP3   OH232741   8.156   2.960   0.131
10933TIP3    H132742   8.242   3.001   0.144
10933TIP3    H232743   8.117   3.009   0.058
10934TIP3   OH232744   4.955   6.344   4.469
10934TIP3    H132745   4.951   6.432   4.431
10934TIP3    H232746   4.877   6.338   4.524
10935TIP3   OH232747   5.984   6.546   5.239
10935TIP3    H132748   5.944   6.493   5.170
10935TIP3    H232749   5.979   6.636   5.206
10936TIP3   OH232750   1.407   5.636   4.778
10936TIP3    H132751   1.411   5.725   4.813
10936TIP3    H232752   1.416   5.647   4.684
10937TIP3   OH232753   0.153   7.299   6.044
10937TIP3    H132754   0.100   7.377   6.030
10937TIP3    H232755   0.119   7.235   5.982
10938TIP3   OH232756   1.292   4.045   0.254
10938TIP3    H132757   1.342   4.049   0.172
10938TIP3    H232758   1.201   4.057   0.227
10939TIP3   OH232759   4.241   6.377   2.456
10939TIP3    H132760   4.330   6.383   2.489
10939TIP3    H232761   4.195   6.452   2.495
10940TIP3   OH232762   5.327   2.503   6.652
10940TIP3    H132763   5.326   2.407   6.644
10940TIP3    H232764   5.420   2.526   6.651
10941TIP3   OH232765   3.758   1.826   2.467
10941TIP3    H132766   3.846   1.815   2.431
10941TIP3    H232767   3.751   1.759   2.536
10942TIP3   OH232768   6.556   1.517   3.375
10942TIP3    H132769   6.614   1.484   3.443
10942TIP3    H232770   6.587   1.477   3.295
10943TIP3   OH232771   7.078   2.935   6.084
10943TIP3    H132772   7.161   2.963   6.045
10943TIP3    H232773   7.062   2.999   6.154
10944TIP3   OH232774   5.443   5.400   4.052
10944TIP3    H132775   5.388   5.434   3.981
10944TIP3    H232776   5.382   5.357   4.111
10945TIP3   OH232777   0.883   3.132   1.129
10945TIP3    H132778   0.955   3.108   1.072
10945TIP3    H232779   0.923   3.144   1.216
10946TIP3   OH232780   6.914   7.099   6.354
10946TIP3    H132781   6.832   7.052   6.337
10946TIP3    H232782   6.969   7.079   6.279
10947TIP3   OH232783   7.259   3.329   6.590
10947TIP3    H132784   7.240   3.357   6.679
10947TIP3    H232785   7.263   3.234   6.594
10948TIP3   OH232786   8.017   3.873   1.844
10948TIP3    H132787   8.096   3.862   1.791
10948TIP3    H232788   7.976   3.786   1.844
10949TIP3   OH232789   6.063   1.234   4.639
10949TIP3    H132790   6.083   1.215   4.548
10949TIP3    H232791   5.969   1.218   4.647
10950TIP3   OH232792   2.646   7.752   2.102
10950TIP3    H132793   2.676   7.743   2.012
10950TIP3    H232794   2.726   7.751   2.154
10951TIP3   OH232795   7.217   4.088   0.619
10951TIP3    H132796   7.300   4.123   0.587
10951TIP3    H232797   7.203   4.007   0.570
10952TIP3   OH232798   6.327   3.624   3.285
10952TIP3    H132799   6.236   3.648   3.267
10952TIP3    H232800   6.365   3.609   3.199
10953TIP3   OH232801   8.186   4.426   1.715
10953TIP3    H132802   8.159   4.376   1.638
10953TIP3    H232803   8.188   4.517   1.686
10954TIP3   OH232804   2.086   4.509   1.123
10954TIP3    H132805   2.066   4.477   1.211
10954TIP3    H232806   2.135   4.590   1.137
10955TIP3   OH232807   5.677   5.630   4.397
10955TIP3    H132808   5.700   5.542   4.369
10955TIP3    H232809   5.729   5.645   4.476
10956TIP3   OH232810   8.345   4.592   0.982
10956TIP3    H132811   8.254   4.580   0.955
10956TIP3    H232812   8.348   4.560   1.072
10957TIP3   OH232813   6.308   5.011   3.816
10957TIP3    H132814   6.328   5.096   3.854
10957TIP3    H232815   6.331   4.948   3.884
10958TIP3   OH232816   3.535   1.608   4.937
10958TIP3    H132817   3.479   1.628   5.012
10958TIP3    H232818   3.475   1.591   4.865
10959TIP3   OH232819   0.793   2.737   0.491
10959TIP3    H132820   0.859   2.762   0.556
10959TIP3    H232821   0.752   2.819   0.466
10960TIP3   OH232822   8.012   4.740   4.193
10960TIP3    H132823   8.067   4.815   4.175
10960TIP3    H232824   8.041   4.673   4.131
10961TIP3   OH232825   6.030   7.612   1.496
10961TIP3    H132826   6.101   7.633   1.434
10961TIP3    H232827   5.978   7.546   1.450
10962TIP3   OH232828   1.205   1.428   6.134
10962TIP3    H132829   1.276   1.364   6.137
10962TIP3    H232830   1.203   1.466   6.222
10963TIP3   OH232831   4.926   7.417   1.562
10963TIP3    H132832   4.852   7.436   1.619
10963TIP3    H232833   4.930   7.322   1.558
10964TIP3   OH232834   4.222   5.583   0.522
10964TIP3    H132835   4.238   5.677   0.518
10964TIP3    H232836   4.234   5.553   0.432
10965TIP3   OH232837   3.705   3.839   2.255
10965TIP3    H132838   3.620   3.865   2.290
10965TIP3    H232839   3.694   3.845   2.160
10966TIP3   OH232840   4.185   3.656   0.978
10966TIP3    H132841   4.113   3.715   0.957
10966TIP3    H232842   4.239   3.704   1.040
10967TIP3   OH232843   2.069   2.243   0.279
10967TIP3    H132844   2.051   2.337   0.288
10967TIP3    H232845   2.158   2.239   0.244
10968TIP3   OH232846   3.167   3.704   0.482
10968TIP3    H132847   3.132   3.731   0.397
10968TIP3    H232848   3.192   3.613   0.470
10969TIP3   OH232849   4.545   1.491   5.553
10969TIP3    H132850   4.600   1.565   5.578
10969TIP3    H232851   4.538   1.497   5.458
10970TIP3   OH232852   5.235   5.645   4.959
10970TIP3    H132853   5.230   5.724   4.905
10970TIP3    H232854   5.177   5.662   5.033
10971TIP3   OH232855   1.637   7.048   4.175
10971TIP3    H132856   1.621   7.042   4.269
10971TIP3    H232857   1.713   7.105   4.166
10972TIP3   OH232858   7.448   7.069   5.234
10972TIP3    H132859   7.471   7.080   5.326
10972TIP3    H232860   7.428   7.157   5.203
10973TIP3   OH232861   4.416   6.624   1.069
10973TIP3    H132862   4.501   6.609   1.111
10973TIP3    H232863   4.438   6.652   0.980
10974TIP3   OH232864   1.638   2.685   2.620
10974TIP3    H132865   1.671   2.606   2.662
10974TIP3    H232866   1.584   2.653   2.548
10975TIP3   OH232867   5.495   2.006   3.829
10975TIP3    H132868   5.498   2.046   3.916
10975TIP3    H232869   5.429   1.937   3.837
10976TIP3   OH232870   2.586   6.199   4.950
10976TIP3    H132871   2.615   6.132   4.888
10976TIP3    H232872   2.574   6.152   5.033
10977TIP3   OH232873   5.262   3.877   1.317
10977TIP3    H132874   5.352   3.851   1.339
10977TIP3    H232875   5.226   3.912   1.398
10978TIP3   OH232876   0.506   0.151   2.562
10978TIP3    H132877   0.572   0.219   2.572
10978TIP3    H232878   0.461   0.171   2.480
10979TIP3   OH232879   1.035   7.650   1.581
10979TIP3    H132880   1.116   7.599   1.592
10979TIP3    H232881   1.040   7.683   1.492
10980TIP3   OH232882   0.958   5.949   3.825
10980TIP3    H132883   1.000   5.955   3.739
10980TIP3    H232884   0.947   6.040   3.853
10981TIP3   OH232885   1.782   6.730   6.052
10981TIP3    H132886   1.848   6.799   6.058
10981TIP3    H232887   1.702   6.769   6.088
10982TIP3   OH232888   3.499   0.648   3.618
10982TIP3    H132889   3.438   0.577   3.639
10982TIP3    H232890   3.536   0.673   3.703
10983TIP3   OH232891   2.358   7.286   0.740
10983TIP3    H132892   2.325   7.335   0.665
10983TIP3    H232893   2.453   7.295   0.734
10984TIP3   OH232894   7.111   4.944   4.387
10984TIP3    H132895   7.071   5.030   4.401
10984TIP3    H232896   7.049   4.899   4.329
10985TIP3   OH232897   0.626   6.001   4.730
10985TIP3    H132898   0.710   5.974   4.692
10985TIP3    H232899   0.561   5.948   4.684
10986TIP3   OH232900   7.292   4.016   3.847
10986TIP3    H132901   7.283   3.942   3.907
10986TIP3    H232902   7.367   3.994   3.792
10987TIP3   OH232903   3.301   5.516   6.393
10987TIP3    H132904   3.212   5.521   6.428
10987TIP3    H232905   3.302   5.581   6.322
10988TIP3   OH232906   2.492   3.087   4.484
10988TIP3    H132907   2.551   3.098   4.558
10988TIP3    H232908   2.405   3.082   4.522
10989TIP3   OH232909   1.413   7.546   1.920
10989TIP3    H132910   1.463   7.585   1.991
10989TIP3    H232911   1.452   7.583   1.840
10990TIP3   OH232912   5.853   1.610   0.079
10990TIP3    H132913   5.919   1.645   0.020
10990TIP3    H232914   5.844   1.677   0.147
10991TIP3   OH232915   2.280   5.679   3.167
10991TIP3    H132916   2.369   5.645   3.175
10991TIP3    H232917   2.286   5.771   3.193
10992TIP3   OH232918   4.555   4.387   4.877
10992TIP3    H132919   4.572   4.293   4.881
10992TIP3    H232920   4.636   4.427   4.909
10993TIP3   OH232921   1.008   3.416   6.001
10993TIP3    H132922   1.017   3.385   5.911
10993TIP3    H232923   0.969   3.503   5.993
10994TIP3   OH232924   0.212   1.423   3.280
10994TIP3    H132925   0.165   1.411   3.197
10994TIP3    H232926   0.298   1.383   3.264
10995TIP3   OH232927   7.079   7.651   6.053
10995TIP3    H132928   7.030   7.732   6.046
10995TIP3    H232929   7.021   7.591   6.100
10996TIP3   OH232930   6.022   4.019   3.611
10996TIP3    H132931   6.034   3.950   3.676
10996TIP3    H232932   6.023   3.973   3.527
10997TIP3   OH232933   0.365   5.875   3.923
10997TIP3    H132934   0.431   5.925   3.971
10997TIP3    H232935   0.409   5.794   3.899
10998TIP3   OH232936   7.857   0.820   1.448
10998TIP3    H132937   7.795   0.811   1.376
10998TIP3    H232938   7.821   0.767   1.519
10999TIP3   OH232939   6.794   1.801   5.156
10999TIP3    H132940   6.829   1.804   5.067
10999TIP3    H232941   6.790   1.893   5.183
11000TIP3   OH232942   3.128   1.694   3.237
11000TIP3    H132943   3.079   1.685   3.318
11000TIP3    H232944   3.217   1.668   3.261
11001TIP3   OH232945   8.122   7.539   3.095
11001TIP3    H132946   8.135   7.553   3.001
11001TIP3    H232947   8.036   7.496   3.101
11002TIP3   OH232948   2.398   7.056   1.976
11002TIP3    H132949   2.347   6.993   2.028
11002TIP3    H232950   2.488   7.043   2.005
11003TIP3   OH232951   3.162   3.161   0.410
11003TIP3    H132952   3.103   3.086   0.418
11003TIP3    H232953   3.249   3.124   0.425
11004TIP3   OH232954   2.886   7.718   0.963
11004TIP3    H132955   2.810   7.756   1.007
11004TIP3    H232956   2.898   7.773   0.885
11005TIP3   OH232957   5.200   0.245   4.460
11005TIP3    H132958   5.234   0.200   4.383
11005TIP3    H232959   5.136   0.184   4.497
11006TIP3   OH232960   4.410   0.290   2.717
11006TIP3    H132961   4.501   0.261   2.725
11006TIP3    H232962   4.360   0.223   2.764
11007TIP3   OH232963   2.867   2.401   0.585
11007TIP3    H132964   2.790   2.384   0.530
11007TIP3    H232965   2.918   2.320   0.582
11008TIP3   OH232966   0.041   2.900   1.975
11008TIP3    H132967  -0.009   2.832   1.930
11008TIP3    H232968  -0.004   2.982   1.951
11009TIP3   OH232969   6.161   2.992   6.125
11009TIP3    H132970   6.232   3.033   6.174
11009TIP3    H232971   6.114   2.939   6.190
11010TIP3   OH232972   2.214   2.798   3.074
11010TIP3    H132973   2.136   2.837   3.114
11010TIP3    H232974   2.207   2.821   2.981
11011TIP3   OH232975   2.225   5.519   1.868
11011TIP3    H132976   2.279   5.575   1.923
11011TIP3    H232977   2.137   5.529   1.902
11012TIP3   OH232978   7.225   3.939   4.754
11012TIP3    H132979   7.183   3.853   4.759
11012TIP3    H232980   7.193   3.977   4.672
11013TIP3   OH232981   5.041   1.462   1.865
11013TIP3    H132982   4.995   1.407   1.928
11013TIP3    H232983   5.131   1.467   1.899
11014TIP3   OH232984   7.358   6.792   4.441
11014TIP3    H132985   7.310   6.790   4.358
11014TIP3    H232986   7.449   6.775   4.417
11015TIP3   OH232987   1.407   4.348   3.694
11015TIP3    H132988   1.500   4.332   3.682
11015TIP3    H232989   1.374   4.365   3.606
11016TIP3   OH232990   6.851   3.352   4.286
11016TIP3    H132991   6.804   3.272   4.263
11016TIP3    H232992   6.843   3.359   4.382
11017TIP3   OH232993   7.873   0.289   6.211
11017TIP3    H132994   7.816   0.269   6.285
11017TIP3    H232995   7.960   0.299   6.249
11018TIP3   OH232996   4.466   1.946   6.099
11018TIP3    H132997   4.527   2.017   6.079
11018TIP3    H232998   4.441   1.961   6.190
11019TIP3   OH232999   6.530   4.642   5.007
11019TIP3    H133000   6.495   4.598   4.929
11019TIP3    H233001   6.625   4.633   4.997
11020TIP3   OH233002   4.965   5.400   2.234
11020TIP3    H133003   4.926   5.364   2.314
11020TIP3    H233004   5.053   5.428   2.262
11021TIP3   OH233005   6.304   7.699   5.040
11021TIP3    H133006   6.214   7.709   5.010
11021TIP3    H233007   6.348   7.651   4.969
11022TIP3   OH233008   4.970   0.771   2.760
11022TIP3    H133009   5.039   0.707   2.745
11022TIP3    H233010   5.009   0.835   2.820
11023TIP3   OH233011   6.688   3.117   4.237
11023TIP3    H133012   6.721   3.118   4.147
11023TIP3    H233013   6.722   3.035   4.274
11024TIP3   OH233014   6.526   0.175   1.505
11024TIP3    H133015   6.560   0.258   1.472
11024TIP3    H233016   6.597   0.112   1.490
11025TIP3   OH233017   5.250   1.565   3.266
11025TIP3    H133018   5.248   1.645   3.319
11025TIP3    H233019   5.190   1.583   3.194
11026TIP3   OH233020   7.301   1.513   6.378
11026TIP3    H133021   7.363   1.507   6.451
11026TIP3    H233022   7.215   1.507   6.418
11027TIP3   OH233023   4.783   5.472   2.025
11027TIP3    H133024   4.850   5.414   2.060
11027TIP3    H233025   4.811   5.560   2.051
11028TIP3   OH233026   5.115   7.452   1.892
11028TIP3    H133027   5.087   7.541   1.872
11028TIP3    H233028   5.139   7.415   1.807
11029TIP3   OH233029   7.495   3.323   4.571
11029TIP3    H133030   7.521   3.410   4.540
11029TIP3    H233031   7.494   3.270   4.492
11030TIP3   OH233032   1.757   0.712   4.129
11030TIP3    H133033   1.683   0.746   4.179
11030TIP3    H233034   1.758   0.618   4.149
11031TIP3   OH233035   7.219   6.074   5.897
11031TIP3    H133036   7.246   6.023   5.821
11031TIP3    H233037   7.178   6.152   5.861
11032TIP3   OH233038   5.304   3.764   3.458
11032TIP3    H133039   5.251   3.768   3.379
11032TIP3    H233040   5.278   3.681   3.500
11033TIP3   OH233041   3.804   1.965   4.831
11033TIP3    H133042   3.812   2.042   4.775
11033TIP3    H233043   3.760   1.900   4.776
11034TIP3   OH233044   5.466   4.912   6.247
11034TIP3    H133045   5.498   4.997   6.278
11034TIP3    H233046   5.382   4.900   6.292
11035TIP3   OH233047   3.985   4.958   6.440
11035TIP3    H133048   3.921   5.016   6.397
11035TIP3    H233049   4.043   5.018   6.487
11036TIP3   OH233050   6.885   7.535   6.215
11036TIP3    H133051   6.829   7.471   6.259
11036TIP3    H233052   6.833   7.564   6.139
11037TIP3   OH233053   2.952   2.337   5.005
11037TIP3    H133054   3.000   2.355   5.086
11037TIP3    H233055   2.926   2.245   5.013
11038TIP3   OH233056   6.612   5.797   0.474
11038TIP3    H133057   6.569   5.773   0.392
11038TIP3    H233058   6.650   5.883   0.458
11039TIP3   OH233059   3.268   3.776   0.858
11039TIP3    H133060   3.287   3.818   0.773
11039TIP3    H233061   3.172   3.773   0.862
11040TIP3   OH233062   0.710   4.250   5.267
11040TIP3    H133063   0.668   4.256   5.182
11040TIP3    H233064   0.804   4.250   5.248
11041TIP3   OH233065   0.741   1.284   3.354
11041TIP3    H133066   0.804   1.313   3.421
11041TIP3    H233067   0.655   1.297   3.394
11042TIP3   OH233068   1.357   0.702   3.524
11042TIP3    H133069   1.286   0.639   3.532
11042TIP3    H233070   1.318   0.786   3.545
11043TIP3   OH233071   7.295   6.263   4.632
11043TIP3    H133072   7.336   6.256   4.718
11043TIP3    H233073   7.209   6.223   4.643
11044TIP3   OH233074   4.797   4.324   5.645
11044TIP3    H133075   4.885   4.320   5.608
11044TIP3    H233076   4.758   4.240   5.624
11045TIP3   OH233077   5.810   6.927   3.369
11045TIP3    H133078   5.901   6.901   3.354
11045TIP3    H233079   5.763   6.844   3.377
11046TIP3   OH233080   0.177   5.291   1.690
11046TIP3    H133081   0.224   5.212   1.719
11046TIP3    H233082   0.169   5.279   1.595
11047TIP3   OH233083   4.435   1.471   0.259
11047TIP3    H133084   4.400   1.496   0.345
11047TIP3    H233085   4.524   1.508   0.258
11048TIP3   OH233086   4.787   2.057   1.949
11048TIP3    H133087   4.737   1.988   1.904
11048TIP3    H233088   4.748   2.062   2.036
11049TIP3   OH233089   2.339   0.108   5.050
11049TIP3    H133090   2.263   0.049   5.048
11049TIP3    H233091   2.350   0.129   5.143
11050TIP3   OH233092   3.635   4.499   0.746
11050TIP3    H133093   3.716   4.450   0.745
11050TIP3    H233094   3.638   4.550   0.826
11051TIP3   OH233095   1.892   6.819   4.854
11051TIP3    H133096   1.932   6.896   4.895
11051TIP3    H233097   1.955   6.794   4.786
11052TIP3   OH233098   5.360   4.502   4.131
11052TIP3    H133099   5.396   4.577   4.084
11052TIP3    H233100   5.399   4.508   4.219
11053TIP3   OH233101   7.495   4.825   2.035
11053TIP3    H133102   7.435   4.866   2.097
11053TIP3    H233103   7.439   4.769   1.982
11054TIP3   OH233104   0.293   7.545   5.784
11054TIP3    H133105   0.339   7.559   5.867
11054TIP3    H233106   0.257   7.630   5.762
11055TIP3   OH233107   6.910   0.074   5.763
11055TIP3    H133108   6.987   0.100   5.813
11055TIP3    H233109   6.921   0.117   5.678
11056TIP3   OH233110   2.977   5.791   2.238
11056TIP3    H133111   3.052   5.742   2.273
11056TIP3    H233112   3.015   5.846   2.169
11057TIP3   OH233113   6.975   7.644   0.350
11057TIP3    H133114   6.900   7.697   0.377
11057TIP3    H233115   6.960   7.625   0.258
11058TIP3   OH233116   7.694   4.527   6.452
11058TIP3    H133117   7.606   4.504   6.480
11058TIP3    H233118   7.690   4.621   6.433
11059TIP3   OH233119   3.143   7.340   3.687
11059TIP3    H133120   3.126   7.394   3.764
11059TIP3    H233121   3.229   7.302   3.702
11060TIP3   OH233122   7.478   0.135   1.324
11060TIP3    H133123   7.479   0.153   1.418
11060TIP3    H233124   7.526   0.208   1.285
11061TIP3   OH233125   1.295   3.543   4.423
11061TIP3    H133126   1.215   3.524   4.471
11061TIP3    H233127   1.326   3.626   4.460
11062TIP3   OH233128   6.307   6.371   1.075
11062TIP3    H133129   6.349   6.289   1.102
11062TIP3    H233130   6.369   6.413   1.016
11063TIP3   OH233131   2.945   7.096   3.724
11063TIP3    H133132   2.953   7.191   3.728
11063TIP3    H233133   2.858   7.077   3.759
11064TIP3   OH233134   0.461   4.701   3.960
11064TIP3    H133135   0.383   4.741   3.998
11064TIP3    H233136   0.479   4.753   3.882
11065TIP3   OH233137   1.387   7.475   3.062
11065TIP3    H133138   1.429   7.390   3.072
11065TIP3    H233139   1.410   7.523   3.141
11066TIP3   OH233140   5.927   5.284   2.399
11066TIP3    H133141   5.921   5.189   2.384
11066TIP3    H233142   6.017   5.297   2.430
11067TIP3   OH233143   4.316   6.542   5.625
11067TIP3    H133144   4.374   6.529   5.700
11067TIP3    H233145   4.375   6.552   5.550
11068TIP3   OH233146   4.705   1.285   3.414
11068TIP3    H133147   4.674   1.195   3.403
11068TIP3    H233148   4.630   1.339   3.391
11069TIP3   OH233149   2.748   4.185   0.114
11069TIP3    H133150   2.734   4.143   0.199
11069TIP3    H233151   2.793   4.267   0.134
11070TIP3   OH233152   6.835   4.311   3.288
11070TIP3    H133153   6.888   4.236   3.260
11070TIP3    H233154   6.811   4.355   3.207
11071TIP3   OH233155   2.589   6.224   2.924
11071TIP3    H133156   2.682   6.223   2.945
11071TIP3    H233157   2.553   6.297   2.974
11072TIP3   OH233158   6.367   1.948   6.308
11072TIP3    H133159   6.339   1.856   6.301
11072TIP3    H233160   6.313   1.985   6.377
11073TIP3   OH233161   4.196   1.544   2.758
11073TIP3    H133162   4.140   1.539   2.835
11073TIP3    H233163   4.151   1.489   2.693
11074TIP3   OH233164   0.369   1.927   2.227
11074TIP3    H133165   0.387   2.008   2.178
11074TIP3    H233166   0.428   1.930   2.302
11075TIP3   OH233167   1.743   6.912   0.367
11075TIP3    H133168   1.657   6.884   0.397
11075TIP3    H233169   1.725   6.963   0.287
11076TIP3   OH233170   6.118   3.792   2.855
11076TIP3    H133171   6.172   3.838   2.919
11076TIP3    H233172   6.133   3.699   2.874
11077TIP3   OH233173   2.294   1.928   3.230
11077TIP3    H133174   2.389   1.940   3.228
11077TIP3    H233175   2.258   2.011   3.201
11078TIP3   OH233176   6.810   6.601   5.842
11078TIP3    H133177   6.812   6.550   5.923
11078TIP3    H233178   6.780   6.539   5.776
11079TIP3   OH233179   2.456   6.318   1.572
11079TIP3    H133180   2.377   6.276   1.606
11079TIP3    H233181   2.517   6.317   1.646
11080TIP3   OH233182   1.486   2.614   3.340
11080TIP3    H133183   1.475   2.679   3.409
11080TIP3    H233184   1.431   2.645   3.268
11081TIP3   OH233185   1.551   3.195   5.745
11081TIP3    H133186   1.526   3.114   5.789
11081TIP3    H233187   1.502   3.194   5.663
11082TIP3   OH233188   6.289   3.778   6.648
11082TIP3    H133189   6.362   3.839   6.648
11082TIP3    H233190   6.301   3.725   6.570
11083TIP3   OH233191   3.533   1.360   0.135
11083TIP3    H133192   3.538   1.453   0.156
11083TIP3    H233193   3.511   1.357   0.042
11084TIP3   OH233194   4.656   1.525   5.175
11084TIP3    H133195   4.696   1.438   5.166
11084TIP3    H233196   4.574   1.519   5.126
11085TIP3   OH233197   2.118   6.024   6.038
11085TIP3    H133198   2.165   5.941   6.035
11085TIP3    H233199   2.072   6.024   6.121
11086TIP3   OH233200   3.564   2.661   3.545
11086TIP3    H133201   3.602   2.579   3.512
11086TIP3    H233202   3.502   2.688   3.477
11087TIP3   OH233203   2.906   2.890   3.288
11087TIP3    H133204   2.997   2.867   3.272
11087TIP3    H233205   2.906   2.985   3.298
11088TIP3   OH233206   7.932   5.285   2.982
11088TIP3    H133207   7.954   5.239   2.900
11088TIP3    H233208   7.954   5.377   2.964
11089TIP3   OH233209   2.001   3.510   3.694
11089TIP3    H133210   1.920   3.497   3.744
11089TIP3    H233211   2.062   3.548   3.758
11090TIP3   OH233212   4.298   0.034   0.103
11090TIP3    H133213   4.341  -0.008   0.028
11090TIP3    H233214   4.356   0.016   0.177
11091TIP3   OH233215   1.884   4.797   1.015
11091TIP3    H133216   1.805   4.748   1.037
11091TIP3    H233217   1.933   4.739   0.956
11092TIP3   OH233218   4.722   6.783   0.363
11092TIP3    H133219   4.717   6.840   0.440
11092TIP3    H233220   4.652   6.813   0.306
11093TIP3   OH233221   6.584   5.805   2.584
11093TIP3    H133222   6.493   5.787   2.559
11093TIP3    H233223   6.597   5.897   2.562
11094TIP3   OH233224   4.159   1.091   6.639
11094TIP3    H133225   4.126   1.117   6.726
11094TIP3    H233226   4.224   1.158   6.618
11095TIP3   OH233227   6.469   1.315   6.036
11095TIP3    H133228   6.487   1.389   5.978
11095TIP3    H233229   6.411   1.351   6.102
11096TIP3   OH233230   6.229   6.119   6.059
11096TIP3    H133231   6.216   6.181   5.987
11096TIP3    H233232   6.301   6.063   6.030
11097TIP3   OH233233   7.261   2.159   3.220
11097TIP3    H133234   7.261   2.254   3.230
11097TIP3    H233235   7.199   2.128   3.286
11098TIP3   OH233236   7.682   4.603   2.297
11098TIP3    H133237   7.599   4.650   2.288
11098TIP3    H233238   7.678   4.535   2.229
11099TIP3   OH233239   7.111   3.923   3.616
11099TIP3    H133240   7.149   3.918   3.703
11099TIP3    H233241   7.184   3.905   3.556
11100TIP3   OH233242   4.192   3.595   3.245
11100TIP3    H133243   4.110   3.612   3.198
11100TIP3    H233244   4.163   3.557   3.328
11101TIP3   OH233245   3.052   1.662   2.914
11101TIP3    H133246   3.007   1.577   2.920
11101TIP3    H233247   3.030   1.706   2.995
11102TIP3   OH233248   4.205   3.911   1.347
11102TIP3    H133249   4.242   3.837   1.298
11102TIP3    H233250   4.111   3.902   1.335
11103TIP3   OH233251   7.648   4.831   5.840
11103TIP3    H133252   7.622   4.874   5.922
11103TIP3    H233253   7.699   4.897   5.794
11104TIP3   OH233254   5.412   1.294   1.920
11104TIP3    H133255   5.466   1.372   1.935
11104TIP3    H233256   5.472   1.230   1.882
11105TIP3   OH233257   5.774   3.435   2.310
11105TIP3    H133258   5.736   3.523   2.308
11105TIP3    H233259   5.867   3.449   2.295
11106TIP3   OH233260   2.799   0.394   5.018
11106TIP3    H133261   2.709   0.397   4.986
11106TIP3    H233262   2.821   0.485   5.036
11107TIP3   OH233263   0.263   1.424   5.006
11107TIP3    H133264   0.330   1.408   4.940
11107TIP3    H233265   0.262   1.344   5.059
11108TIP3   OH233266   0.214   6.026   1.892
11108TIP3    H133267   0.124   6.029   1.924
11108TIP3    H233268   0.267   6.013   1.971
11109TIP3   OH233269   2.807   4.841   2.104
11109TIP3    H133270   2.711   4.844   2.106
11109TIP3    H233271   2.828   4.812   2.015
11110TIP3   OH233272   3.821   4.756   4.710
11110TIP3    H133273   3.742   4.759   4.764
11110TIP3    H233274   3.840   4.847   4.688
11111TIP3   OH233275   0.391   6.826   1.103
11111TIP3    H133276   0.433   6.841   1.019
11111TIP3    H233277   0.327   6.897   1.111
11112TIP3   OH233278   0.567   4.645   2.689
11112TIP3    H133279   0.502   4.639   2.759
11112TIP3    H233280   0.568   4.737   2.664
11113TIP3   OH233281   3.600   7.428   2.506
11113TIP3    H133282   3.505   7.426   2.517
11113TIP3    H233283   3.627   7.513   2.542
11114TIP3   OH233284   5.211   2.556   0.858
11114TIP3    H133285   5.280   2.613   0.826
11114TIP3    H233286   5.157   2.537   0.781
11115TIP3   OH233287   0.213   5.407   6.200
11115TIP3    H133288   0.159   5.348   6.253
11115TIP3    H233289   0.152   5.471   6.163
11116TIP3   OH233290   5.486   2.232   4.001
11116TIP3    H133291   5.495   2.327   3.994
11116TIP3    H233292   5.510   2.212   4.091
11117TIP3   OH233293   4.737   6.582   5.683
11117TIP3    H133294   4.734   6.657   5.742
11117TIP3    H233295   4.795   6.520   5.726
11118TIP3   OH233296   3.571   2.786   1.214
11118TIP3    H133297   3.510   2.769   1.143
11118TIP3    H233298   3.524   2.759   1.293
11119TIP3   OH233299   7.730   5.271   4.577
11119TIP3    H133300   7.763   5.182   4.564
11119TIP3    H233301   7.680   5.266   4.658
11120TIP3   OH233302   5.343   7.757   3.697
11120TIP3    H133303   5.413   7.818   3.721
11120TIP3    H233304   5.285   7.757   3.773
11121TIP3   OH233305   7.529   5.238   1.850
11121TIP3    H133306   7.504   5.172   1.784
11121TIP3    H233307   7.602   5.198   1.897
11122TIP3   OH233308   8.002   7.277   4.170
11122TIP3    H133309   8.062   7.324   4.228
11122TIP3    H233310   7.915   7.307   4.196
11123TIP3   OH233311   3.921   2.028   2.941
11123TIP3    H133312   3.946   1.941   2.912
11123TIP3    H233313   3.945   2.085   2.868
11124TIP3   OH233314   5.037   2.898   1.969
11124TIP3    H133315   4.986   2.854   1.901
11124TIP3    H233316   5.070   2.977   1.927
11125TIP3   OH233317   4.464   3.418   0.283
11125TIP3    H133318   4.491   3.482   0.217
11125TIP3    H233319   4.441   3.339   0.233
11126TIP3   OH233320   5.840   4.702   5.815
11126TIP3    H133321   5.820   4.735   5.902
11126TIP3    H233322   5.894   4.624   5.830
11127TIP3   OH233323   2.350   0.701   2.329
11127TIP3    H133324   2.372   0.612   2.359
11127TIP3    H233325   2.396   0.758   2.390
11128TIP3   OH233326   0.473   5.364   5.790
11128TIP3    H133327   0.473   5.377   5.885
11128TIP3    H233328   0.437   5.445   5.754
11129TIP3   OH233329   5.397   0.958   2.809
11129TIP3    H133330   5.404   1.003   2.894
11129TIP3    H233331   5.336   1.012   2.758
11130TIP3   OH233332   2.272   1.775   2.046
11130TIP3    H133333   2.271   1.680   2.031
11130TIP3    H233334   2.356   1.792   2.087
11131TIP3   OH233335   0.472   5.099   4.939
11131TIP3    H133336   0.538   5.157   4.976
11131TIP3    H233337   0.522   5.021   4.913
11132TIP3   OH233338   0.796   1.099   3.126
11132TIP3    H133339   0.769   1.012   3.095
11132TIP3    H233340   0.794   1.091   3.222
11133TIP3   OH233341   4.392   6.793   2.934
11133TIP3    H133342   4.421   6.849   2.862
11133TIP3    H233343   4.394   6.705   2.898
11134TIP3   OH233344   7.234   7.210   6.566
11134TIP3    H133345   7.170   7.269   6.528
11134TIP3    H233346   7.215   7.210   6.660
11135TIP3   OH233347   4.190   5.055   2.736
11135TIP3    H133348   4.212   5.121   2.803
11135TIP3    H233349   4.120   5.096   2.685
11136TIP3   OH233350   2.998   4.454   1.862
11136TIP3    H133351   3.062   4.391   1.828
11136TIP3    H233352   2.921   4.401   1.881
11137TIP3   OH233353   1.303   3.744   3.431
11137TIP3    H133354   1.255   3.712   3.507
11137TIP3    H233355   1.240   3.799   3.384
11138TIP3   OH233356   4.584   3.803   3.391
11138TIP3    H133357   4.525   3.768   3.324
11138TIP3    H233358   4.557   3.894   3.402
11139TIP3   OH233359   0.184   0.296   0.015
11139TIP3    H133360   0.189   0.202   0.029
11139TIP3    H233361   0.112   0.307  -0.047
11140TIP3   OH233362   7.892   1.306   1.648
11140TIP3    H133363   7.868   1.342   1.733
11140TIP3    H233364   7.891   1.211   1.660
11141TIP3   OH233365   1.645   4.472   4.657
11141TIP3    H133366   1.734   4.455   4.625
11141TIP3    H233367   1.588   4.434   4.590
11142TIP3   OH233368   0.978   1.001   0.036
11142TIP3    H133369   0.920   0.958   0.099
11142TIP3    H233370   0.933   0.995  -0.048
11143TIP3   OH233371   2.246   6.601   6.737
11143TIP3    H133372   2.217   6.529   6.680
11143TIP3    H233373   2.221   6.573   6.825
11144TIP3   OH233374   8.124   6.231   1.476
11144TIP3    H133375   8.048   6.286   1.455
11144TIP3    H233376   8.126   6.228   1.571
11145TIP3   OH233377   4.483   3.373   3.211
11145TIP3    H133378   4.425   3.311   3.166
11145TIP3    H233379   4.434   3.399   3.289
11146TIP3   OH233380   2.204   4.758   1.078
11146TIP3    H133381   2.250   4.692   1.026
11146TIP3    H233382   2.137   4.793   1.019
11147TIP3   OH233383   3.889   5.477   5.101
11147TIP3    H133384   3.842   5.551   5.140
11147TIP3    H233385   3.910   5.420   5.174
11148TIP3   OH233386   3.334   7.486   6.776
11148TIP3    H133387   3.362   7.492   6.685
11148TIP3    H233388   3.372   7.404   6.807
11149TIP3   OH233389   0.567   3.170   4.447
11149TIP3    H133390   0.509   3.244   4.464
11149TIP3    H233391   0.528   3.098   4.498
11150TIP3   OH233392   7.555   6.806   6.413
11150TIP3    H133393   7.567   6.828   6.506
11150TIP3    H233394   7.599   6.721   6.403
11151TIP3   OH233395   4.680   4.273   6.515
11151TIP3    H133396   4.669   4.183   6.547
11151TIP3    H233397   4.704   4.262   6.423
11152TIP3   OH233398   7.766   3.151   6.334
11152TIP3    H133399   7.847   3.159   6.386
11152TIP3    H233400   7.767   3.061   6.302
11153TIP3   OH233401   0.773   1.758   2.829
11153TIP3    H133402   0.728   1.678   2.858
11153TIP3    H233403   0.831   1.729   2.759
11154TIP3   OH233404   8.053   6.534   6.197
11154TIP3    H133405   8.124   6.506   6.140
11154TIP3    H233406   8.094   6.541   6.284
11155TIP3   OH233407   0.118   0.968   4.335
11155TIP3    H133408   0.129   0.878   4.365
11155TIP3    H233409   0.107   1.018   4.416
11156TIP3   OH233410   7.212   7.485   4.336
11156TIP3    H133411   7.203   7.554   4.270
11156TIP3    H233412   7.123   7.457   4.354
11157TIP3   OH233413   7.491   6.976   0.762
11157TIP3    H133414   7.491   6.881   0.757
11157TIP3    H233415   7.504   6.996   0.855
11158TIP3   OH233416   6.539   0.730   4.207
11158TIP3    H133417   6.516   0.787   4.135
11158TIP3    H233418   6.521   0.781   4.286
11159TIP3   OH233419   3.020   6.655   4.825
11159TIP3    H133420   3.005   6.653   4.920
11159TIP3    H233421   3.097   6.600   4.812
11160TIP3   OH233422   0.941   1.898   1.199
11160TIP3    H133423   0.960   1.923   1.109
11160TIP3    H233424   1.015   1.930   1.250
11161TIP3   OH233425   6.214   0.252   1.414
11161TIP3    H133426   6.224   0.281   1.505
11161TIP3    H233427   6.206   0.157   1.420
11162TIP3   OH233428   6.981   3.986   1.135
11162TIP3    H133429   6.985   3.999   1.040
11162TIP3    H233430   7.072   3.973   1.162
11163TIP3   OH233431   2.334   7.527   3.324
11163TIP3    H133432   2.382   7.512   3.405
11163TIP3    H233433   2.306   7.440   3.296
11164TIP3   OH233434   1.644   5.948   1.740
11164TIP3    H133435   1.637   5.895   1.819
11164TIP3    H233436   1.732   5.986   1.744
11165TIP3   OH233437   2.936   6.660   0.724
11165TIP3    H133438   2.944   6.747   0.763
11165TIP3    H233439   2.961   6.673   0.632
11166TIP3   OH233440   0.587   7.807   5.875
11166TIP3    H133441   0.669   7.845   5.843
11166TIP3    H233442   0.615   7.737   5.934
11167TIP3   OH233443   3.787   4.512   3.130
11167TIP3    H133444   3.742   4.451   3.071
11167TIP3    H233445   3.877   4.481   3.132
11168TIP3   OH233446   2.082   4.317   0.815
11168TIP3    H133447   2.174   4.299   0.835
11168TIP3    H233448   2.035   4.243   0.853
11169TIP3   OH233449   4.819   1.668   6.191
11169TIP3    H133450   4.740   1.657   6.138
11169TIP3    H233451   4.858   1.580   6.195
11170TIP3   OH233452   8.327   6.555   2.716
11170TIP3    H133453   8.281   6.481   2.677
11170TIP3    H233454   8.266   6.590   2.781
11171TIP3   OH233455   6.347   3.125   0.947
11171TIP3    H133456   6.391   3.164   1.023
11171TIP3    H233457   6.254   3.145   0.961
11172TIP3   OH233458   7.368   4.384   3.018
11172TIP3    H133459   7.400   4.431   2.941
11172TIP3    H233460   7.441   4.328   3.045
11173TIP3   OH233461   2.411   4.448   3.303
11173TIP3    H133462   2.492   4.495   3.324
11173TIP3    H233463   2.367   4.504   3.239
11174TIP3   OH233464   3.008   6.854   5.278
11174TIP3    H133465   2.999   6.945   5.304
11174TIP3    H233466   3.090   6.826   5.319
11175TIP3   OH233467   3.171   5.304   5.749
11175TIP3    H133468   3.199   5.392   5.776
11175TIP3    H233469   3.241   5.273   5.692
11176TIP3   OH233470   0.032   6.902   0.188
11176TIP3    H133471   0.127   6.890   0.187
11176TIP3    H233472   0.010   6.919   0.096
11177TIP3   OH233473   3.076   4.810   2.217
11177TIP3    H133474   2.995   4.823   2.167
11177TIP3    H233475   3.099   4.898   2.248
11178TIP3   OH233476   5.921   5.803   3.136
11178TIP3    H133477   5.997   5.849   3.170
11178TIP3    H233478   5.853   5.870   3.129
11179TIP3   OH233479   6.918   5.852   3.521
11179TIP3    H133480   6.979   5.916   3.558
11179TIP3    H233481   6.945   5.843   3.429
11180TIP3   OH233482   0.492   3.411   2.955
11180TIP3    H133483   0.414   3.357   2.939
11180TIP3    H233484   0.559   3.350   2.983
11181TIP3   OH233485   1.594   0.088   4.340
11181TIP3    H133486   1.603   0.024   4.270
11181TIP3    H233487   1.531   0.049   4.401
11182TIP3   OH233488   5.048   5.834   5.928
11182TIP3    H133489   5.013   5.919   5.902
11182TIP3    H233490   4.985   5.799   5.990
11183TIP3   OH233491   2.371   3.787   6.623
11183TIP3    H133492   2.422   3.762   6.546
11183TIP3    H233493   2.290   3.737   6.615
11184TIP3   OH233494   5.054   0.908   1.146
11184TIP3    H133495   5.069   0.815   1.160
11184TIP3    H233496   5.084   0.950   1.227
11185TIP3   OH233497   6.447   1.005   1.278
11185TIP3    H133498   6.499   0.934   1.240
11185TIP3    H233499   6.357   0.977   1.266
11186TIP3   OH233500   4.011   5.675   4.242
11186TIP3    H133501   3.918   5.660   4.255
11186TIP3    H233502   4.048   5.587   4.229
11187TIP3   OH233503   1.067   2.310   1.939
11187TIP3    H133504   1.123   2.271   1.873
11187TIP3    H233505   1.126   2.359   1.995
11188TIP3   OH233506   3.979   4.679   4.372
11188TIP3    H133507   3.909   4.623   4.406
11188TIP3    H233508   3.934   4.752   4.329
11189TIP3   OH233509   2.080   2.842   0.863
11189TIP3    H133510   2.150   2.780   0.883
11189TIP3    H233511   2.122   2.928   0.862
11190TIP3   OH233512   7.354   2.207   6.526
11190TIP3    H133513   7.449   2.207   6.514
11190TIP3    H233514   7.325   2.293   6.495
11191TIP3   OH233515   5.069   4.680   1.117
11191TIP3    H133516   5.152   4.651   1.155
11191TIP3    H233517   5.007   4.612   1.142
11192TIP3   OH233518   0.537   2.201   4.332
11192TIP3    H133519   0.500   2.184   4.419
11192TIP3    H233520   0.589   2.281   4.343
11193TIP3   OH233521   3.512   5.832   2.408
11193TIP3    H133522   3.464   5.754   2.379
11193TIP3    H233523   3.489   5.841   2.500
11194TIP3   OH233524   7.983   3.074   2.761
11194TIP3    H133525   8.031   3.157   2.769
11194TIP3    H233526   7.892   3.101   2.750
11195TIP3   OH233527   0.620   6.766   2.481
11195TIP3    H133528   0.613   6.853   2.520
11195TIP3    H233529   0.589   6.778   2.391
11196TIP3   OH233530   7.547   4.300   5.258
11196TIP3    H133531   7.467   4.325   5.210
11196TIP3    H233532   7.616   4.303   5.191
11197TIP3   OH233533   0.271   2.742   2.711
11197TIP3    H133534   0.350   2.777   2.752
11197TIP3    H233535   0.219   2.819   2.689
11198TIP3   OH233536   5.722   3.696   2.027
11198TIP3    H133537   5.768   3.613   2.040
11198TIP3    H233538   5.646   3.673   1.973
11199TIP3   OH233539   5.021   7.387   4.974
11199TIP3    H133540   5.054   7.469   4.938
11199TIP3    H233541   4.932   7.408   5.003
11200TIP3   OH233542   7.547   1.398   1.570
11200TIP3    H133543   7.585   1.311   1.585
11200TIP3    H233544   7.453   1.385   1.579
11201TIP3   OH233545   6.325   1.716   1.046
11201TIP3    H133546   6.415   1.698   1.072
11201TIP3    H233547   6.281   1.631   1.047
11202TIP3   OH233548   3.043   7.600   5.746
11202TIP3    H133549   3.087   7.675   5.706
11202TIP3    H233550   3.043   7.532   5.678
11203TIP3   OH233551   3.698   4.677   0.930
11203TIP3    H133552   3.741   4.700   1.012
11203TIP3    H233553   3.732   4.739   0.866
11204TIP3   OH233554   3.265   0.302   4.136
11204TIP3    H133555   3.263   0.358   4.059
11204TIP3    H233556   3.199   0.235   4.119
11205TIP3   OH233557   6.968   5.332   5.728
11205TIP3    H133558   7.021   5.325   5.649
11205TIP3    H233559   6.894   5.274   5.713
11206TIP3   OH233560   7.898   7.662   3.963
11206TIP3    H133561   7.935   7.644   4.050
11206TIP3    H233562   7.887   7.757   3.962
11207TIP3   OH233563   1.486   4.489   5.310
11207TIP3    H133564   1.512   4.420   5.249
11207TIP3    H233565   1.568   4.525   5.343
11208TIP3   OH233566   7.746   3.345   1.751
11208TIP3    H133567   7.750   3.349   1.656
11208TIP3    H233568   7.757   3.253   1.772
11209TIP3   OH233569   2.425   4.261   1.022
11209TIP3    H133570   2.374   4.253   0.942
11209TIP3    H233571   2.437   4.171   1.053
11210TIP3   OH233572   3.699   2.548   1.205
11210TIP3    H133573   3.677   2.641   1.205
11210TIP3    H233574   3.616   2.503   1.218
11211TIP3   OH233575   1.336   3.286   1.240
11211TIP3    H133576   1.319   3.346   1.168
11211TIP3    H233577   1.425   3.255   1.226
11212TIP3   OH233578   2.913   2.899   4.767
11212TIP3    H133579   2.837   2.953   4.792
11212TIP3    H233580   2.949   2.869   4.850
11213TIP3   OH233581   6.259   0.404   5.078
11213TIP3    H133582   6.266   0.448   5.162
11213TIP3    H233583   6.258   0.475   5.014
11214TIP3   OH233584   5.925   5.590   5.001
11214TIP3    H133585   5.831   5.609   4.998
11214TIP3    H233586   5.965   5.660   4.949
11215TIP3   OH233587   5.850   6.325   1.074
11215TIP3    H133588   5.927   6.317   1.016
11215TIP3    H233589   5.852   6.415   1.103
11216TIP3   OH233590   2.386   7.369   1.730
11216TIP3    H133591   2.383   7.273   1.721
11216TIP3    H233592   2.383   7.385   1.824
11217TIP3   OH233593   4.129   5.337   2.036
11217TIP3    H133594   4.102   5.363   1.948
11217TIP3    H233595   4.225   5.331   2.030
11218TIP3   OH233596   1.587   2.569   1.742
11218TIP3    H133597   1.559   2.659   1.728
11218TIP3    H233598   1.608   2.536   1.655
11219TIP3   OH233599   6.563   0.485   5.545
11219TIP3    H133600   6.559   0.532   5.462
11219TIP3    H233601   6.569   0.554   5.611
11220TIP3   OH233602   4.875   4.004   5.595
11220TIP3    H133603   4.844   4.007   5.686
11220TIP3    H233604   4.964   4.040   5.599
11221TIP3   OH233605   3.695   3.843   5.411
11221TIP3    H133606   3.738   3.758   5.398
11221TIP3    H233607   3.730   3.874   5.494
11222TIP3   OH233608   2.058   3.118   5.789
11222TIP3    H133609   2.004   3.089   5.863
11222TIP3    H233610   2.147   3.117   5.823
11223TIP3   OH233611   0.305   1.456   5.599
11223TIP3    H133612   0.401   1.460   5.601
11223TIP3    H233613   0.276   1.545   5.617
11224TIP3   OH233614   1.252   4.659   2.112
11224TIP3    H133615   1.332   4.712   2.104
11224TIP3    H233616   1.253   4.603   2.035
11225TIP3   OH233617   7.558   6.001   1.910
11225TIP3    H133618   7.571   6.020   2.003
11225TIP3    H233619   7.597   6.077   1.865
11226TIP3   OH233620   1.152   7.510   2.913
11226TIP3    H133621   1.234   7.501   2.962
11226TIP3    H233622   1.175   7.483   2.824
11227TIP3   OH233623   3.823   5.646   3.594
11227TIP3    H133624   3.762   5.657   3.667
11227TIP3    H233625   3.910   5.653   3.633
11228TIP3   OH233626   5.898   7.704   5.309
11228TIP3    H133627   5.898   7.627   5.253
11228TIP3    H233628   5.917   7.670   5.397
11229TIP3   OH233629   5.659   0.066   5.203
11229TIP3    H133630   5.611   0.118   5.139
11229TIP3    H233631   5.729   0.123   5.234
11230TIP3   OH233632   6.767   6.644   2.667
11230TIP3    H133633   6.809   6.569   2.623
11230TIP3    H233634   6.784   6.718   2.608
11231TIP3   OH233635   7.154   6.552   0.047
11231TIP3    H133636   7.158   6.462   0.079
11231TIP3    H233637   7.235   6.593   0.077
11232TIP3   OH233638   7.824   3.080   1.798
11232TIP3    H133639   7.841   3.042   1.712
11232TIP3    H233640   7.799   3.005   1.852
11233TIP3   OH233641   1.592   0.571   4.759
11233TIP3    H133642   1.615   0.527   4.840
11233TIP3    H233643   1.520   0.630   4.782
11234TIP3   OH233644   7.588   6.639   0.789
11234TIP3    H133645   7.645   6.596   0.725
11234TIP3    H233646   7.637   6.633   0.872
11235TIP3   OH233647   6.548   0.354   3.958
11235TIP3    H133648   6.612   0.308   4.012
11235TIP3    H233649   6.571   0.331   3.868
11236TIP3   OH233650   2.289   4.426   4.052
11236TIP3    H133651   2.283   4.415   3.957
11236TIP3    H233652   2.287   4.521   4.066
11237TIP3   OH233653   5.985   0.224   5.569
11237TIP3    H133654   5.929   0.293   5.605
11237TIP3    H233655   6.027   0.264   5.494
11238TIP3   OH233656   7.393   1.746   3.049
11238TIP3    H133657   7.462   1.772   2.988
11238TIP3    H233658   7.408   1.653   3.065
11239TIP3   OH233659   3.413   3.361   2.963
11239TIP3    H133660   3.397   3.409   3.045
11239TIP3    H233661   3.340   3.299   2.958
11240TIP3   OH233662   6.396   4.047   1.400
11240TIP3    H133663   6.301   4.046   1.391
11240TIP3    H233664   6.428   4.072   1.313
11241TIP3   OH233665   3.250   2.420   1.973
11241TIP3    H133666   3.315   2.397   1.907
11241TIP3    H233667   3.202   2.494   1.936
11242TIP3   OH233668   4.521   6.034   5.904
11242TIP3    H133669   4.448   5.978   5.879
11242TIP3    H233670   4.560   6.062   5.821
11243TIP3   OH233671   0.077   4.138   6.218
11243TIP3    H133672  -0.018   4.141   6.220
11243TIP3    H233673   0.103   4.209   6.159
11244TIP3   OH233674   1.252   1.273   0.249
11244TIP3    H133675   1.283   1.224   0.325
11244TIP3    H233676   1.267   1.214   0.175
11245TIP3   OH233677   4.381   4.718   4.615
11245TIP3    H133678   4.469   4.686   4.599
11245TIP3    H233679   4.370   4.711   4.710
11246TIP3   OH233680   5.975   4.470   3.085
11246TIP3    H133681   5.983   4.526   3.162
11246TIP3    H233682   5.923   4.521   3.023
11247TIP3   OH233683   2.181   6.963   1.226
11247TIP3    H133684   2.256   6.907   1.204
11247TIP3    H233685   2.106   6.918   1.188
11248TIP3   OH233686   2.156   4.384   4.623
11248TIP3    H133687   2.221   4.322   4.657
11248TIP3    H233688   2.136   4.353   4.535
11249TIP3   OH233689   3.264   3.883   5.819
11249TIP3    H133690   3.181   3.921   5.791
11249TIP3    H233691   3.327   3.955   5.812
11250TIP3   OH233692   3.543   6.192   3.143
11250TIP3    H133693   3.616   6.138   3.115
11250TIP3    H233694   3.501   6.142   3.213
11251TIP3   OH233695   6.716   7.328   5.852
11251TIP3    H133696   6.633   7.296   5.817
11251TIP3    H233697   6.698   7.346   5.945
11252TIP3   OH233698   6.778   7.634   5.980
11252TIP3    H133699   6.721   7.710   5.984
11252TIP3    H233700   6.772   7.603   5.890
11253TIP3   OH233701   3.239   4.394   0.534
11253TIP3    H133702   3.251   4.478   0.579
11253TIP3    H233703   3.212   4.418   0.445
11254TIP3   OH233704   2.745   2.994   0.976
11254TIP3    H133705   2.666   2.949   0.947
11254TIP3    H233706   2.768   2.951   1.059
11255TIP3   OH233707   5.837   5.014   5.090
11255TIP3    H133708   5.800   5.097   5.061
11255TIP3    H233709   5.820   5.013   5.185
11256TIP3   OH233710   3.068   4.385   1.219
11256TIP3    H133711   3.093   4.398   1.127
11256TIP3    H233712   3.007   4.456   1.237
11257TIP3   OH233713   5.115   2.623   6.224
11257TIP3    H133714   5.096   2.572   6.145
11257TIP3    H233715   5.029   2.647   6.258
11258TIP3   OH233716   3.019   5.963   4.795
11258TIP3    H133717   2.958   6.019   4.843
11258TIP3    H233718   3.002   5.875   4.830
11259TIP3   OH233719   6.335   3.426   3.780
11259TIP3    H133720   6.358   3.462   3.694
11259TIP3    H233721   6.283   3.495   3.821
11260TIP3   OH233722   7.489   2.230   5.821
11260TIP3    H133723   7.481   2.214   5.915
11260TIP3    H233724   7.583   2.241   5.806
11261TIP3   OH233725   6.848   6.466   5.020
11261TIP3    H133726   6.762   6.433   4.994
11261TIP3    H233727   6.907   6.391   5.008
11262TIP3   OH233728   1.110   2.115   5.711
11262TIP3    H133729   1.107   2.022   5.734
11262TIP3    H233730   1.184   2.122   5.650
11263TIP3   OH233731   4.836   4.489   2.316
11263TIP3    H133732   4.759   4.507   2.370
11263TIP3    H233733   4.801   4.468   2.230
11264TIP3   OH233734   5.588   3.925   4.933
11264TIP3    H133735   5.572   4.016   4.959
11264TIP3    H233736   5.514   3.902   4.878
11265TIP3   OH233737   6.139   6.577   1.989
11265TIP3    H133738   6.204   6.644   1.967
11265TIP3    H233739   6.138   6.575   2.085
11266TIP3   OH233740   6.660   2.102   4.443
11266TIP3    H133741   6.703   2.179   4.478
11266TIP3    H233742   6.710   2.028   4.478
11267TIP3   OH233743   0.276   6.033   4.861
11267TIP3    H133744   0.313   5.955   4.903
11267TIP3    H233745   0.352   6.089   4.845
11268TIP3   OH233746   5.771   0.526   3.279
11268TIP3    H133747   5.844   0.518   3.217
11268TIP3    H233748   5.810   0.509   3.365
11269TIP3   OH233749   3.640   0.131   3.835
11269TIP3    H133750   3.654   0.092   3.748
11269TIP3    H233751   3.728   0.156   3.864
11270TIP3   OH233752   7.849   5.529   0.842
11270TIP3    H133753   7.840   5.609   0.893
11270TIP3    H233754   7.869   5.461   0.907
11271TIP3   OH233755   4.373   7.458   4.624
11271TIP3    H133756   4.396   7.389   4.563
11271TIP3    H233757   4.350   7.533   4.569
11272TIP3   OH233758   4.087   2.959   2.362
11272TIP3    H133759   4.050   2.876   2.330
11272TIP3    H233760   4.180   2.954   2.341
11273TIP3   OH233761   0.642   0.287   1.676
11273TIP3    H133762   0.579   0.230   1.633
11273TIP3    H233763   0.621   0.280   1.769
11274TIP3   OH233764   2.421   4.001   1.088
11274TIP3    H133765   2.356   3.943   1.047
11274TIP3    H233766   2.502   3.950   1.088
11275TIP3   OH233767   5.624   5.308   5.493
11275TIP3    H133768   5.563   5.375   5.460
11275TIP3    H233769   5.641   5.252   5.417
11276TIP3   OH233770   3.697   7.042   1.675
11276TIP3    H133771   3.653   7.127   1.681
11276TIP3    H233772   3.626   6.978   1.673
11277TIP3   OH233773   0.373   0.658   0.200
11277TIP3    H133774   0.285   0.671   0.166
11277TIP3    H233775   0.383   0.562   0.202
11278TIP3   OH233776   6.916   2.474   0.252
11278TIP3    H133777   7.003   2.498   0.285
11278TIP3    H233778   6.906   2.382   0.277
11279TIP3   OH233779   4.782   6.369   1.976
11279TIP3    H133780   4.701   6.420   1.970
11279TIP3    H233781   4.782   6.333   2.064
11280TIP3   OH233782   3.072   3.770   3.989
11280TIP3    H133783   3.004   3.817   3.940
11280TIP3    H233784   3.048   3.678   3.981
11281TIP3   OH233785   0.285   2.200   0.145
11281TIP3    H133786   0.337   2.120   0.143
11281TIP3    H233787   0.257   2.208   0.236
11282TIP3   OH233788   2.842   0.242   6.055
11282TIP3    H133789   2.844   0.163   6.001
11282TIP3    H233790   2.922   0.238   6.108
11283TIP3   OH233791   2.079   7.793   0.865
11283TIP3    H133792   2.068   7.700   0.888
11283TIP3    H233793   2.046   7.799   0.775
11284TIP3   OH233794   5.237   0.639   6.035
11284TIP3    H133795   5.304   0.578   6.003
11284TIP3    H233796   5.238   0.710   5.972
11285TIP3   OH233797   2.158   7.053   1.737
11285TIP3    H133798   2.146   7.053   1.642
11285TIP3    H233799   2.227   6.988   1.753
11286TIP3   OH233800   2.667   7.590   1.841
11286TIP3    H133801   2.604   7.557   1.777
11286TIP3    H233802   2.735   7.631   1.788
11287TIP3   OH233803   7.032   2.959   3.786
11287TIP3    H133804   6.990   2.935   3.869
11287TIP3    H233805   7.125   2.960   3.805
11288TIP3   OH233806   6.918   5.641   4.647
11288TIP3    H133807   6.886   5.552   4.660
11288TIP3    H233808   6.986   5.633   4.580
11289TIP3   OH233809   6.481   1.558   0.159
11289TIP3    H133810   6.537   1.493   0.201
11289TIP3    H233811   6.537   1.596   0.090
11290TIP3   OH233812   4.257   7.523   1.247
11290TIP3    H133813   4.234   7.443   1.295
11290TIP3    H233814   4.328   7.496   1.188
11291TIP3   OH233815   0.665   2.709   6.138
11291TIP3    H133816   0.674   2.743   6.049
11291TIP3    H233817   0.755   2.700   6.169
11292TIP3   OH233818   1.575   3.145   3.776
11292TIP3    H133819   1.550   3.227   3.735
11292TIP3    H233820   1.626   3.099   3.710
11293TIP3   OH233821   6.141   6.219   6.801
11293TIP3    H133822   6.141   6.168   6.720
11293TIP3    H233823   6.099   6.161   6.865
11294TIP3   OH233824   3.727   7.832   1.221
11294TIP3    H133825   3.762   7.897   1.160
11294TIP3    H233826   3.641   7.810   1.186
11295TIP3   OH233827   6.593   5.715   1.304
11295TIP3    H133828   6.670   5.745   1.256
11295TIP3    H233829   6.627   5.655   1.371
11296TIP3   OH233830   7.097   0.675   4.910
11296TIP3    H133831   7.146   0.755   4.931
11296TIP3    H233832   7.006   0.703   4.904
11297TIP3   OH233833   1.445   5.833   3.428
11297TIP3    H133834   1.537   5.806   3.419
11297TIP3    H233835   1.401   5.789   3.355
11298TIP3   OH233836   4.757   2.862   0.580
11298TIP3    H133837   4.827   2.920   0.551
11298TIP3    H233838   4.693   2.864   0.509
11299TIP3   OH233839   4.219   7.757   5.222
11299TIP3    H133840   4.140   7.809   5.230
11299TIP3    H233841   4.280   7.796   5.284
11300TIP3   OH233842   7.749   7.428   6.755
11300TIP3    H133843   7.739   7.341   6.793
11300TIP3    H233844   7.732   7.415   6.662
11301TIP3   OH233845   3.628   0.885   3.367
11301TIP3    H133846   3.544   0.928   3.351
11301TIP3    H233847   3.687   0.957   3.391
11302TIP3   OH233848   6.344   3.077   6.282
11302TIP3    H133849   6.438   3.094   6.290
11302TIP3    H233850   6.313   3.072   6.372
11303TIP3   OH233851   4.492   1.607   1.855
11303TIP3    H133852   4.458   1.693   1.878
11303TIP3    H233853   4.441   1.580   1.779
11304TIP3   OH233854   2.293   3.107   3.749
11304TIP3    H133855   2.232   3.073   3.683
11304TIP3    H233856   2.353   3.163   3.699
11305TIP3   OH233857   3.067   3.950   1.686
11305TIP3    H133858   3.003   4.020   1.679
11305TIP3    H233859   3.084   3.924   1.596
11306TIP3   OH233860   2.694   0.694   1.727
11306TIP3    H133861   2.696   0.701   1.823
11306TIP3    H233862   2.643   0.770   1.699
11307TIP3   OH233863   4.001   5.043   2.529
11307TIP3    H133864   3.990   4.948   2.536
11307TIP3    H233865   3.917   5.075   2.496
11308TIP3   OH233866   0.436   7.676   2.361
11308TIP3    H133867   0.359   7.638   2.319
11308TIP3    H233868   0.461   7.749   2.304
11309TIP3   OH233869   8.046   4.452   0.534
11309TIP3    H133870   8.128   4.425   0.574
11309TIP3    H233871   7.982   4.449   0.605
11310TIP3   OH233872   5.054   4.839   2.005
11310TIP3    H133873   5.106   4.834   2.085
11310TIP3    H233874   4.969   4.803   2.029
11311TIP3   OH233875   5.093   7.120   2.081
11311TIP3    H133876   5.051   7.088   2.160
11311TIP3    H233877   5.038   7.193   2.052
11312TIP3   OH233878   3.139   1.041   1.153
11312TIP3    H133879   3.070   1.085   1.104
11312TIP3    H233880   3.114   1.051   1.245
11313TIP3   OH233881   6.497   0.921   5.597
11313TIP3    H133882   6.508   1.001   5.649
11313TIP3    H233883   6.479   0.952   5.509
11314TIP3   OH233884   6.334   6.950   1.250
11314TIP3    H133885   6.315   6.968   1.342
11314TIP3    H233886   6.395   6.876   1.252
11315TIP3   OH233887   8.261   2.838   4.739
11315TIP3    H133888   8.187   2.840   4.677
11315TIP3    H233889   8.309   2.920   4.721
11316TIP3   OH233890   0.091   7.480   0.994
11316TIP3    H133891   0.090   7.387   1.018
11316TIP3    H233892   0.183   7.500   0.979
11317TIP3   OH233893   1.576   1.365   4.447
11317TIP3    H133894   1.669   1.349   4.463
11317TIP3    H233895   1.539   1.383   4.533
11318TIP3   OH233896   5.148   0.904   5.529
11318TIP3    H133897   5.074   0.874   5.581
11318TIP3    H233898   5.108   0.946   5.453
11319TIP3   OH233899   4.369   4.808   0.785
11319TIP3    H133900   4.378   4.811   0.880
11319TIP3    H233901   4.428   4.877   0.753
11320TIP3   OH233902   2.068   7.565   5.106
11320TIP3    H133903   2.052   7.650   5.147
11320TIP3    H233904   2.048   7.578   5.013
11321TIP3   OH233905   3.372   2.841   5.070
11321TIP3    H133906   3.355   2.813   5.160
11321TIP3    H233907   3.300   2.901   5.050
11322TIP3   OH233908   2.498   2.137   2.567
11322TIP3    H133909   2.530   2.200   2.631
11322TIP3    H233910   2.412   2.171   2.541
11323TIP3   OH233911   8.142   4.756   4.621
11323TIP3    H133912   8.112   4.711   4.700
11323TIP3    H233913   8.225   4.714   4.598
11324TIP3   OH233914   2.894   3.737   0.617
11324TIP3    H133915   2.878   3.832   0.616
11324TIP3    H233916   2.976   3.726   0.569
11325TIP3   OH233917   4.928   6.707   1.795
11325TIP3    H133918   4.869   6.720   1.721
11325TIP3    H233919   4.881   6.648   1.854
11326TIP3   OH233920   3.533   1.982   4.254
11326TIP3    H133921   3.507   1.913   4.315
11326TIP3    H233922   3.485   2.059   4.284
11327TIP3   OH233923   7.793   6.022   2.709
11327TIP3    H133924   7.823   5.969   2.634
11327TIP3    H233925   7.873   6.061   2.744
11328TIP3   OH233926   1.504   5.792   3.043
11328TIP3    H133927   1.504   5.726   3.112
11328TIP3    H233928   1.425   5.844   3.059
11329TIP3   OH233929   8.094   0.438   3.902
11329TIP3    H133930   8.075   0.368   3.840
11329TIP3    H233931   8.188   0.451   3.896
11330TIP3   OH233932   7.302   0.220   0.988
11330TIP3    H133933   7.390   0.182   0.988
11330TIP3    H233934   7.307   0.292   0.925
11331TIP3   OH233935   8.260   0.480   3.152
11331TIP3    H133936   8.292   0.421   3.084
11331TIP3    H233937   8.243   0.563   3.107
11332TIP3   OH233938   2.780   5.635   2.549
11332TIP3    H133939   2.807   5.724   2.526
11332TIP3    H233940   2.768   5.638   2.644
11333TIP3   OH233941   7.874   2.016   2.048
11333TIP3    H133942   7.887   1.954   2.120
11333TIP3    H233943   7.812   2.080   2.083
11334TIP3   OH233944   2.584   1.826   6.123
11334TIP3    H133945   2.613   1.773   6.197
11334TIP3    H233946   2.603   1.916   6.150
11335TIP3   OH233947   7.879   3.585   4.295
11335TIP3    H133948   7.904   3.633   4.374
11335TIP3    H233949   7.788   3.558   4.312
11336TIP3   OH233950   0.424   0.434   0.777
11336TIP3    H133951   0.401   0.519   0.816
11336TIP3    H233952   0.519   0.436   0.771
11337TIP3   OH233953   5.905   3.292   0.327
11337TIP3    H133954   5.993   3.254   0.322
11337TIP3    H233955   5.852   3.240   0.266
11338TIP3   OH233956   2.097   0.359   0.145
11338TIP3    H133957   2.175   0.392   0.101
11338TIP3    H233958   2.087   0.417   0.221
11339TIP3   OH233959   8.256   2.905   1.000
11339TIP3    H133960   8.247   2.894   0.905
11339TIP3    H233961   8.334   2.960   1.010
11340TIP3   OH233962   7.740   2.838   0.395
11340TIP3    H133963   7.764   2.929   0.414
11340TIP3    H233964   7.662   2.845   0.341
11341TIP3   OH233965   7.222   4.275   3.773
11341TIP3    H133966   7.274   4.275   3.693
11341TIP3    H233967   7.211   4.182   3.795
11342TIP3   OH233968   7.319   2.931   4.413
11342TIP3    H133969   7.403   2.972   4.390
11342TIP3    H233970   7.258   2.964   4.348
11343TIP3   OH233971   7.558   1.873   2.076
11343TIP3    H133972   7.588   1.853   1.988
11343TIP3    H233973   7.576   1.793   2.126
11344TIP3   OH233974   5.340   6.008   6.266
11344TIP3    H133975   5.335   6.079   6.330
11344TIP3    H233976   5.421   5.962   6.288
11345TIP3   OH233977   2.378   0.884   1.259
11345TIP3    H133978   2.339   0.912   1.176
11345TIP3    H233979   2.431   0.808   1.236
11346TIP3   OH233980   7.110   4.556   0.375
11346TIP3    H133981   7.113   4.615   0.300
11346TIP3    H233982   7.165   4.598   0.441
11347TIP3   OH233983   3.208   0.827   0.902
11347TIP3    H133984   3.208   0.867   0.989
11347TIP3    H233985   3.246   0.741   0.916
11348TIP3   OH233986   6.729   7.197   2.458
11348TIP3    H133987   6.812   7.244   2.449
11348TIP3    H233988   6.686   7.208   2.373
11349TIP3   OH233989   3.021   1.078   1.978
11349TIP3    H133990   3.085   1.148   1.993
11349TIP3    H233991   3.034   1.019   2.052
11350TIP3   OH233992   1.120   4.886   6.162
11350TIP3    H133993   1.128   4.814   6.099
11350TIP3    H233994   1.116   4.965   6.108
11351TIP3   OH233995   6.605   7.056   5.487
11351TIP3    H133996   6.589   7.008   5.406
11351TIP3    H233997   6.691   7.097   5.475
11352TIP3   OH233998   5.078   5.242   5.974
11352TIP3    H133999   5.068   5.156   6.014
11352TIP3    H234000   5.173   5.253   5.964
11353TIP3   OH234001   3.137   2.972   6.709
11353TIP3    H134002   3.079   3.047   6.722
11353TIP3    H234003   3.175   2.986   6.622
11354TIP3   OH234004   0.617   6.461   3.052
11354TIP3    H134005   0.576   6.546   3.065
11354TIP3    H234006   0.580   6.427   2.971
11355TIP3   OH234007   3.290   5.673   2.903
11355TIP3    H134008   3.229   5.621   2.849
11355TIP3    H234009   3.274   5.644   2.992
11356TIP3   OH234010   5.704   7.837   0.033
11356TIP3    H134011   5.784   7.806   0.076
11356TIP3    H234012   5.699   7.787  -0.048
11357TIP3   OH234013   0.309   1.557   4.016
11357TIP3    H134014   0.387   1.506   3.996
11357TIP3    H234015   0.242   1.492   4.035
11358TIP3   OH234016   2.061   2.065   6.454
11358TIP3    H134017   1.982   2.013   6.470
11358TIP3    H234018   2.048   2.145   6.504
11359TIP3   OH234019   4.429   5.666   0.227
11359TIP3    H134020   4.411   5.709   0.144
11359TIP3    H234021   4.521   5.685   0.245
11360TIP3   OH234022   1.421   6.218   1.465
11360TIP3    H134023   1.405   6.237   1.557
11360TIP3    H234024   1.334   6.221   1.424
11361TIP3   OH234025   0.885   4.608   0.278
11361TIP3    H134026   0.815   4.568   0.226
11361TIP3    H234027   0.853   4.603   0.369
11362TIP3   OH234028   0.978   1.702   4.072
11362TIP3    H134029   0.978   1.636   4.002
11362TIP3    H234030   0.913   1.766   4.045
11363TIP3   OH234031   2.914   2.094   0.990
11363TIP3    H134032   2.857   2.138   0.927
11363TIP3    H234033   2.999   2.090   0.947
11364TIP3   OH234034   6.640   0.941   2.847
11364TIP3    H134035   6.605   0.879   2.782
11364TIP3    H234036   6.707   0.891   2.893
11365TIP3   OH234037   4.493   0.590   0.093
11365TIP3    H134038   4.482   0.673   0.139
11365TIP3    H234039   4.405   0.552   0.091
11366TIP3   OH234040   2.801   5.234   2.280
11366TIP3    H134041   2.711   5.232   2.247
11366TIP3    H234042   2.854   5.256   2.204
11367TIP3   OH234043   1.840   0.273   4.854
11367TIP3    H134044   1.867   0.360   4.885
11367TIP3    H234045   1.748   0.266   4.879
11368TIP3   OH234046   6.000   5.057   0.401
11368TIP3    H134047   5.940   5.127   0.428
11368TIP3    H234048   5.958   4.977   0.433
11369TIP3   OH234049   1.522   6.094   3.449
11369TIP3    H134050   1.618   6.094   3.448
11369TIP3    H234051   1.499   6.002   3.438
11370TIP3   OH234052   6.382   4.925   5.671
11370TIP3    H134053   6.474   4.914   5.695
11370TIP3    H234054   6.380   4.912   5.576
11371TIP3   OH234055   7.874   4.099   5.844
11371TIP3    H134056   7.821   4.177   5.861
11371TIP3    H234057   7.810   4.033   5.817
11372TIP3   OH234058   6.817   7.112   4.391
11372TIP3    H134059   6.887   7.051   4.368
11372TIP3    H234060   6.744   7.085   4.336
11373TIP3   OH234061   0.461   5.941   5.411
11373TIP3    H134062   0.520   5.947   5.486
11373TIP3    H234063   0.459   6.030   5.374
11374TIP3   OH234064   5.961   5.209   4.320
11374TIP3    H134065   5.964   5.230   4.413
11374TIP3    H234066   6.053   5.205   4.293
11375TIP3   OH234067   2.863   0.312   4.646
11375TIP3    H134068   2.845   0.394   4.692
11375TIP3    H234069   2.903   0.339   4.564
11376TIP3   OH234070   2.104   6.403   0.705
11376TIP3    H134071   2.078   6.383   0.615
11376TIP3    H234072   2.178   6.345   0.723
11377TIP3   OH234073   1.671   0.986   5.848
11377TIP3    H134074   1.584   1.017   5.825
11377TIP3    H234075   1.670   0.982   5.944
11378TIP3   OH234076   4.973   2.821   0.191
11378TIP3    H134077   4.913   2.764   0.142
11378TIP3    H234078   4.921   2.898   0.212
11379TIP3   OH234079   0.689   4.007   1.678
11379TIP3    H134080   0.709   3.933   1.735
11379TIP3    H234081   0.623   4.058   1.726
11380TIP3   OH234082   0.709   0.423   3.990
11380TIP3    H134083   0.762   0.388   3.918
11380TIP3    H234084   0.695   0.514   3.967
11381TIP3   OH234085   4.990   6.762   2.269
11381TIP3    H134086   5.015   6.671   2.279
11381TIP3    H234087   4.916   6.760   2.208
11382TIP3   OH234088   4.848   5.447   6.711
11382TIP3    H134089   4.881   5.364   6.677
11382TIP3    H234090   4.755   5.431   6.728
11383TIP3   OH234091   4.252   1.535   2.349
11383TIP3    H134092   4.266   1.457   2.295
11383TIP3    H234093   4.237   1.606   2.286
11384TIP3   OH234094   4.199   6.181   0.636
11384TIP3    H134095   4.277   6.147   0.592
11384TIP3    H234096   4.222   6.178   0.729
11385TIP3   OH234097   1.540   5.886   5.966
11385TIP3    H134098   1.579   5.973   5.956
11385TIP3    H234099   1.479   5.895   6.039
11386TIP3   OH234100   5.471   7.316   4.320
11386TIP3    H134101   5.566   7.319   4.306
11386TIP3    H234102   5.446   7.226   4.299
11387TIP3   OH234103   5.449   1.390   4.321
11387TIP3    H134104   5.408   1.340   4.251
11387TIP3    H234105   5.376   1.427   4.370
11388TIP3   OH234106   2.468   7.755   2.588
11388TIP3    H134107   2.495   7.731   2.676
11388TIP3    H234108   2.520   7.832   2.566
11389TIP3   OH234109   4.058   1.725   0.517
11389TIP3    H134110   3.984   1.738   0.575
11389TIP3    H234111   4.019   1.699   0.433
11390TIP3   OH234112   2.469   3.988   2.956
11390TIP3    H134113   2.559   4.007   2.984
11390TIP3    H234114   2.472   3.896   2.930
11391TIP3   OH234115   7.495   6.513   5.846
11391TIP3    H134116   7.547   6.475   5.775
11391TIP3    H234117   7.531   6.601   5.858
11392TIP3   OH234118   2.142   4.728   5.398
11392TIP3    H134119   2.123   4.812   5.356
11392TIP3    H234120   2.060   4.701   5.437
11393TIP3   OH234121   4.411   2.632   6.335
11393TIP3    H134122   4.430   2.556   6.390
11393TIP3    H234123   4.397   2.703   6.398
11394TIP3   OH234124   4.845   4.460   4.972
11394TIP3    H134125   4.855   4.453   4.877
11394TIP3    H234126   4.901   4.390   5.006
11395TIP3   OH234127   6.048   1.952   1.386
11395TIP3    H134128   6.116   1.959   1.319
11395TIP3    H234129   5.973   1.999   1.350
11396TIP3   OH234130   1.462   3.279   4.611
11396TIP3    H134131   1.544   3.234   4.633
11396TIP3    H234132   1.393   3.219   4.640
11397TIP3   OH234133   6.911   6.496   0.977
11397TIP3    H134134   6.944   6.490   0.888
11397TIP3    H234135   6.950   6.576   1.012
11398TIP3   OH234136   3.415   5.596   0.325
11398TIP3    H134137   3.496   5.548   0.344
11398TIP3    H234138   3.366   5.538   0.267
11399TIP3   OH234139   6.062   1.239   4.322
11399TIP3    H134140   6.116   1.257   4.245
11399TIP3    H234141   6.075   1.315   4.379
11400TIP3   OH234142   7.288   4.667   5.516
11400TIP3    H134143   7.319   4.696   5.430
11400TIP3    H234144   7.311   4.575   5.520
11401TIP3   OH234145   1.729   3.508   0.646
11401TIP3    H134146   1.674   3.496   0.569
11401TIP3    H234147   1.671   3.546   0.711
11402TIP3   OH234148   7.675   7.646   4.212
11402TIP3    H134149   7.654   7.711   4.144
11402TIP3    H234150   7.591   7.627   4.254
11403TIP3   OH234151   0.394   0.850   5.154
11403TIP3    H134152   0.479   0.853   5.196
11403TIP3    H234153   0.408   0.887   5.067
11404TIP3   OH234154   6.459   3.115   0.291
11404TIP3    H134155   6.525   3.062   0.336
11404TIP3    H234156   6.382   3.057   0.286
11405TIP3   OH234157   6.368   6.433   4.849
11405TIP3    H134158   6.338   6.524   4.858
11405TIP3    H234159   6.430   6.422   4.921
11406TIP3   OH234160   4.086   0.582   2.101
11406TIP3    H134161   4.094   0.487   2.100
11406TIP3    H234162   4.085   0.605   2.194
11407TIP3   OH234163   8.085   3.845   3.025
11407TIP3    H134164   8.127   3.792   3.093
11407TIP3    H234165   8.115   3.934   3.041
11408TIP3   OH234166   3.782   1.703   0.655
11408TIP3    H134167   3.795   1.614   0.688
11408TIP3    H234168   3.690   1.707   0.629
11409TIP3   OH234169   0.872   4.923   1.714
11409TIP3    H134170   0.952   4.881   1.681
11409TIP3    H234171   0.881   5.015   1.688
11410TIP3   OH234172   5.446   0.723   2.693
11410TIP3    H134173   5.433   0.646   2.749
11410TIP3    H234174   5.403   0.795   2.740
11411TIP3   OH234175   7.554   2.094   3.116
11411TIP3    H134176   7.558   2.023   3.179
11411TIP3    H234177   7.460   2.116   3.109
11412TIP3   OH234178   8.102   6.983   4.744
11412TIP3    H134179   8.039   6.987   4.672
11412TIP3    H234180   8.182   7.022   4.708
11413TIP3   OH234181   6.605   2.795   1.626
11413TIP3    H134182   6.654   2.793   1.544
11413TIP3    H234183   6.513   2.793   1.599
11414TIP3   OH234184   0.613   6.152   2.449
11414TIP3    H134185   0.613   6.231   2.395
11414TIP3    H234186   0.696   6.109   2.430
11415TIP3   OH234187   1.143   1.282   4.175
11415TIP3    H134188   1.188   1.287   4.091
11415TIP3    H234189   1.187   1.347   4.229
11416TIP3   OH234190   1.287   6.400   2.240
11416TIP3    H134191   1.328   6.315   2.258
11416TIP3    H234192   1.199   6.378   2.210
11417TIP3   OH234193   6.316   7.299   5.084
11417TIP3    H134194   6.244   7.256   5.131
11417TIP3    H234195   6.273   7.343   5.010
11418TIP3   OH234196   3.043   7.355   1.556
11418TIP3    H134197   3.014   7.445   1.566
11418TIP3    H234198   3.138   7.362   1.547
11419TIP3   OH234199   3.102   4.769   6.565
11419TIP3    H134200   3.006   4.764   6.566
11419TIP3    H234201   3.121   4.862   6.569
11420TIP3   OH234202   4.567   1.811   4.876
11420TIP3    H134203   4.476   1.805   4.903
11420TIP3    H234204   4.611   1.851   4.952
11421TIP3   OH234205   4.102   4.281   4.418
11421TIP3    H134206   4.092   4.209   4.480
11421TIP3    H234207   4.197   4.298   4.417
11422TIP3   OH234208   5.543   6.985   5.506
11422TIP3    H134209   5.480   7.043   5.462
11422TIP3    H234210   5.554   6.912   5.445
11423TIP3   OH234211   2.080   1.225   2.017
11423TIP3    H134212   2.144   1.160   1.987
11423TIP3    H234213   2.083   1.219   2.113
11424TIP3   OH234214   1.843   2.207   0.833
11424TIP3    H134215   1.890   2.264   0.772
11424TIP3    H234216   1.894   2.210   0.914
11425TIP3   OH234217   4.601   4.903   5.623
11425TIP3    H134218   4.545   4.964   5.670
11425TIP3    H234219   4.646   4.853   5.692
11426TIP3   OH234220   5.730   6.151   6.455
11426TIP3    H134221   5.642   6.116   6.443
11426TIP3    H234222   5.737   6.221   6.391
11427TIP3   OH234223   1.800   6.771   2.130
11427TIP3    H134224   1.840   6.854   2.104
11427TIP3    H234225   1.851   6.742   2.205
11428TIP3   OH234226   4.677   4.779   0.908
11428TIP3    H134227   4.593   4.785   0.954
11428TIP3    H234228   4.693   4.686   0.898
11429TIP3   OH234229   7.355   0.486   0.900
11429TIP3    H134230   7.433   0.538   0.887
11429TIP3    H234231   7.309   0.528   0.973
11430TIP3   OH234232   0.230   2.391   2.383
11430TIP3    H134233   0.189   2.369   2.467
11430TIP3    H234234   0.194   2.477   2.362
11431TIP3   OH234235   1.086   3.930   4.791
11431TIP3    H134236   1.094   4.019   4.757
11431TIP3    H234237   0.992   3.919   4.807
11432TIP3   OH234238   4.407   4.846   3.909
11432TIP3    H134239   4.484   4.803   3.872
11432TIP3    H234240   4.342   4.776   3.917
11433TIP3   OH234241   4.421   4.434   6.386
11433TIP3    H134242   4.360   4.418   6.458
11433TIP3    H234243   4.491   4.486   6.425
11434TIP3   OH234244   7.891   7.282   0.253
11434TIP3    H134245   7.892   7.247   0.164
11434TIP3    H234246   7.975   7.256   0.290
11435TIP3   OH234247   2.553   1.316   4.514
11435TIP3    H134248   2.569   1.397   4.563
11435TIP3    H234249   2.632   1.304   4.461
11436TIP3   OH234250   6.268   2.795   3.835
11436TIP3    H134251   6.322   2.836   3.768
11436TIP3    H234252   6.214   2.732   3.787
11437TIP3   OH234253   0.115   1.332   2.194
11437TIP3    H134254   0.153   1.373   2.116
11437TIP3    H234255   0.190   1.299   2.243
11438TIP3   OH234256   6.437   6.387   2.494
11438TIP3    H134257   6.531   6.380   2.477
11438TIP3    H234258   6.404   6.298   2.483
11439TIP3   OH234259   4.275   1.771   1.879
11439TIP3    H134260   4.189   1.737   1.904
11439TIP3    H234261   4.272   1.775   1.784
11440TIP3   OH234262   7.145   6.674   1.959
11440TIP3    H134263   7.151   6.592   1.910
11440TIP3    H234264   7.232   6.713   1.952
11441TIP3   OH234265   0.382   5.708   1.485
11441TIP3    H134266   0.357   5.732   1.574
11441TIP3    H234267   0.349   5.780   1.431
11442TIP3   OH234268   1.670   5.823   6.354
11442TIP3    H134269   1.723   5.888   6.309
11442TIP3    H234270   1.733   5.760   6.390
11443TIP3   OH234271   4.401   1.162   4.018
11443TIP3    H134272   4.420   1.193   4.107
11443TIP3    H234273   4.473   1.198   3.966
11444TIP3   OH234274   1.977   2.240   4.521
11444TIP3    H134275   1.984   2.149   4.494
11444TIP3    H234276   1.975   2.238   4.617
11445TIP3   OH234277   4.832   0.197   3.688
11445TIP3    H134278   4.882   0.276   3.671
11445TIP3    H234279   4.807   0.165   3.601
11446TIP3   OH234280   3.479   1.265   3.634
11446TIP3    H134281   3.408   1.267   3.570
11446TIP3    H234282   3.546   1.324   3.599
11447TIP3   OH234283   7.998   6.344   1.970
11447TIP3    H134284   8.039   6.390   2.043
11447TIP3    H234285   8.060   6.274   1.947
11448TIP3   OH234286   0.068   3.735   2.891
11448TIP3    H134287   0.153   3.735   2.935
11448TIP3    H234288   0.024   3.813   2.925
11449TIP3   OH234289   7.034   7.234   4.201
11449TIP3    H134290   7.085   7.224   4.281
11449TIP3    H234291   7.006   7.145   4.179
11450TIP3   OH234292   4.424   5.407   3.479
11450TIP3    H134293   4.506   5.448   3.505
11450TIP3    H234294   4.401   5.449   3.395
11451TIP3   OH234295   2.907   6.040   5.037
11451TIP3    H134296   2.845   6.008   5.103
11451TIP3    H234297   2.952   6.113   5.080
11452TIP3   OH234298   2.458   3.572   1.214
11452TIP3    H134299   2.436   3.660   1.244
11452TIP3    H234300   2.470   3.521   1.294
11453TIP3   OH234301   8.296   0.055   2.161
11453TIP3    H134302   8.226   0.020   2.217
11453TIP3    H234303   8.261   0.048   2.072
11454TIP3   OH234304   1.220   5.486   6.454
11454TIP3    H134305   1.172   5.408   6.425
11454TIP3    H234306   1.272   5.511   6.378
11455TIP3   OH234307   7.664   2.385   5.387
11455TIP3    H134308   7.716   2.403   5.309
11455TIP3    H234309   7.614   2.307   5.365
11456TIP3   OH234310   3.662   3.866   4.333
11456TIP3    H134311   3.722   3.796   4.306
11456TIP3    H234312   3.578   3.821   4.345
11457TIP3   OH234313   0.185   5.792   0.387
11457TIP3    H134314   0.192   5.710   0.338
11457TIP3    H234315   0.223   5.773   0.472
11458TIP3   OH234316   1.443   3.721   4.569
11458TIP3    H134317   1.398   3.798   4.534
11458TIP3    H234318   1.505   3.757   4.633
11459TIP3   OH234319   7.747   1.659   6.488
11459TIP3    H134320   7.793   1.611   6.420
11459TIP3    H234321   7.672   1.604   6.511
11460TIP3   OH234322   7.918   5.105   1.178
11460TIP3    H134323   7.905   5.010   1.189
11460TIP3    H234324   7.859   5.144   1.243
11461TIP3   OH234325   4.160   6.586   4.380
11461TIP3    H134326   4.185   6.653   4.444
11461TIP3    H234327   4.077   6.551   4.414
11462TIP3   OH234328   3.808   4.345   4.308
11462TIP3    H134329   3.890   4.353   4.358
11462TIP3    H234330   3.763   4.271   4.349
11463TIP3   OH234331   4.238   5.840   6.341
11463TIP3    H134332   4.209   5.898   6.271
11463TIP3    H234333   4.204   5.880   6.421
11464TIP3   OH234334   1.211   2.825   4.185
11464TIP3    H134335   1.167   2.896   4.232
11464TIP3    H234336   1.227   2.861   4.097
11465TIP3   OH234337   3.630   3.663   4.008
11465TIP3    H134338   3.675   3.747   4.013
11465TIP3    H234339   3.699   3.599   3.989
11466TIP3   OH234340   5.997   5.290   3.818
11466TIP3    H134341   6.003   5.200   3.788
11466TIP3    H234342   5.973   5.283   3.911
11467TIP3   OH234343   5.304   5.985   1.175
11467TIP3    H134344   5.282   5.901   1.215
11467TIP3    H234345   5.236   5.999   1.110
11468TIP3   OH234346   1.939   4.506   4.755
11468TIP3    H134347   2.001   4.468   4.693
11468TIP3    H234348   1.938   4.443   4.828
11469TIP3   OH234349   7.160   4.935   5.988
11469TIP3    H134350   7.207   5.017   6.007
11469TIP3    H234351   7.139   4.899   6.074
11470TIP3   OH234352   8.117   3.431   5.614
11470TIP3    H134353   8.133   3.349   5.567
11470TIP3    H234354   8.181   3.431   5.685
11471TIP3   OH234355   5.761   3.203   6.255
11471TIP3    H134356   5.806   3.190   6.339
11471TIP3    H234357   5.827   3.239   6.197
11472TIP3   OH234358   6.589   1.308   1.172
11472TIP3    H134359   6.625   1.371   1.110
11472TIP3    H234360   6.537   1.249   1.118
11473TIP3   OH234361   3.411   1.790   1.431
11473TIP3    H134362   3.504   1.769   1.436
11473TIP3    H234363   3.385   1.809   1.521
11474TIP3   OH234364   4.210   5.917   4.635
11474TIP3    H134365   4.223   5.919   4.540
11474TIP3    H234366   4.145   5.848   4.650
11475TIP3   OH234367   1.665   2.436   4.963
11475TIP3    H134368   1.662   2.346   4.931
11475TIP3    H234369   1.641   2.430   5.055
11476TIP3   OH234370   8.212   2.755   1.366
11476TIP3    H134371   8.207   2.847   1.339
11476TIP3    H234372   8.267   2.755   1.444
11477TIP3   OH234373   5.996   3.610   4.391
11477TIP3    H134374   5.984   3.679   4.455
11477TIP3    H234375   6.073   3.638   4.340
11478TIP3   OH234376   4.049   4.768   5.333
11478TIP3    H134377   4.084   4.722   5.257
11478TIP3    H234378   4.083   4.857   5.325
11479TIP3   OH234379   4.312   6.024   5.119
11479TIP3    H134380   4.219   6.010   5.102
11479TIP3    H234381   4.314   6.099   5.178
11480TIP3   OH234382   0.023   5.138   4.440
11480TIP3    H134383  -0.060   5.099   4.465
11480TIP3    H234384   0.040   5.105   4.351
11481TIP3   OH234385   1.011  -0.013   1.522
11481TIP3    H134386   0.925   0.017   1.493
11481TIP3    H234387   1.073   0.039   1.471
11482TIP3   OH234388  -0.006   0.086   3.366
11482TIP3    H134389   0.026   0.045   3.446
11482TIP3    H234390  -0.074   0.026   3.334
11483TIP3   OH234391   8.130   1.159   4.629
11483TIP3    H134392   8.162   1.185   4.715
11483TIP3    H234393   8.209   1.146   4.577
11484TIP3   OH234394   4.322   2.882   5.026
11484TIP3    H134395   4.276   2.813   4.979
11484TIP3    H234396   4.272   2.893   5.107
11485TIP3   OH234397   5.507   3.142   1.999
11485TIP3    H134398   5.536   3.208   2.062
11485TIP3    H234399   5.415   3.127   2.021
11486TIP3   OH234400   2.347   6.957   0.969
11486TIP3    H134401   2.266   7.008   0.975
11486TIP3    H234402   2.373   6.964   0.877
11487TIP3   OH234403   5.977   4.068   4.784
11487TIP3    H134404   5.997   4.038   4.872
11487TIP3    H234405   5.909   4.008   4.753
11488TIP3   OH234406   5.942   2.348   5.848
11488TIP3    H134407   5.978   2.269   5.887
11488TIP3    H234408   5.863   2.367   5.898
11489TIP3   OH234409   2.018   5.060   3.951
11489TIP3    H134410   2.055   5.041   4.037
11489TIP3    H234411   2.089   5.044   3.889
11490TIP3   OH234412   5.179   1.047   1.350
11490TIP3    H134413   5.160   1.123   1.407
11490TIP3    H234414   5.261   1.070   1.306
11491TIP3   OH234415   4.113   2.466   4.381
11491TIP3    H134416   4.017   2.463   4.373
11491TIP3    H234417   4.128   2.504   4.467
11492TIP3   OH234418   1.296   5.872   1.367
11492TIP3    H134419   1.239   5.843   1.438
11492TIP3    H234420   1.380   5.891   1.409
11493TIP3   OH234421   2.520   4.886   0.636
11493TIP3    H134422   2.605   4.860   0.602
11493TIP3    H234423   2.499   4.967   0.590
11494TIP3   OH234424   3.439   1.177   3.072
11494TIP3    H134425   3.392   1.197   2.991
11494TIP3    H234426   3.528   1.209   3.056
11495TIP3   OH234427   3.641   7.486   4.107
11495TIP3    H134428   3.576   7.545   4.144
11495TIP3    H234429   3.608   7.398   4.128
11496TIP3   OH234430   2.742   2.941   6.473
11496TIP3    H134431   2.773   2.869   6.529
11496TIP3    H234432   2.779   3.020   6.512
11497TIP3   OH234433   5.707   2.867   1.426
11497TIP3    H134434   5.709   2.772   1.425
11497TIP3    H234435   5.616   2.889   1.444
11498TIP3   OH234436   0.221   4.298   3.032
11498TIP3    H134437   0.137   4.266   3.065
11498TIP3    H234438   0.283   4.285   3.104
11499TIP3   OH234439   7.448   1.485   4.128
11499TIP3    H134440   7.465   1.427   4.202
11499TIP3    H234441   7.499   1.563   4.147
11500TIP3   OH234442   1.847   0.753   3.880
11500TIP3    H134443   1.803   0.748   3.965
11500TIP3    H234444   1.785   0.798   3.823
11501TIP3   OH234445   3.104   7.794   4.887
11501TIP3    H134446   3.016   7.811   4.922
11501TIP3    H234447   3.163   7.816   4.959
11502TIP3   OH234448   2.285   6.195   6.258
11502TIP3    H134449   2.263   6.280   6.220
11502TIP3    H234450   2.297   6.138   6.182
11503TIP3   OH234451   7.023   6.125   3.400
11503TIP3    H134452   7.119   6.124   3.400
11503TIP3    H234453   6.999   6.065   3.470
11504TIP3   OH234454   4.880   0.640   6.115
11504TIP3    H134455   4.962   0.592   6.124
11504TIP3    H234456   4.899   0.725   6.156
11505TIP3   OH234457   5.549   3.581   4.222
11505TIP3    H134458   5.477   3.519   4.234
11505TIP3    H234459   5.625   3.525   4.204
11506TIP3   OH234460   4.935   1.597   4.029
11506TIP3    H134461   4.938   1.579   3.935
11506TIP3    H234462   4.953   1.512   4.070
11507TIP3   OH234463   4.070   5.976   2.556
11507TIP3    H134464   4.038   6.002   2.469
11507TIP3    H234465   4.114   6.054   2.590
11508TIP3   OH234466   1.713   0.041   5.428
11508TIP3    H134467   1.746   0.044   5.518
11508TIP3    H234468   1.746   0.121   5.387
11509TIP3   OH234469   2.259   4.245   1.988
11509TIP3    H134470   2.221   4.331   2.008
11509TIP3    H234471   2.200   4.207   1.924
11510TIP3   OH234472   7.958   3.495   1.212
11510TIP3    H134473   7.934   3.567   1.153
11510TIP3    H234474   7.999   3.430   1.156
11511TIP3   OH234475   5.835   3.985   3.844
11511TIP3    H134476   5.880   4.045   3.786
11511TIP3    H234477   5.789   4.041   3.907
11512TIP3   OH234478   3.973   3.648   3.078
11512TIP3    H134479   3.956   3.558   3.050
11512TIP3    H234480   3.944   3.702   3.005
11513TIP3   OH234481   6.129   4.075   5.847
11513TIP3    H134482   6.047   4.098   5.802
11513TIP3    H234483   6.164   4.001   5.797
11514TIP3   OH234484   6.149   5.930   0.858
11514TIP3    H134485   6.130   5.935   0.764
11514TIP3    H234486   6.217   5.997   0.871
11515TIP3   OH234487   6.183   0.528   5.874
11515TIP3    H134488   6.189   0.531   5.778
11515TIP3    H234489   6.095   0.558   5.894
11516TIP3   OH234490   6.363   4.936   4.283
11516TIP3    H134491   6.442   4.964   4.236
11516TIP3    H234492   6.354   4.999   4.354
11517TIP3   OH234493   6.810   1.049   3.977
11517TIP3    H134494   6.798   0.957   3.952
11517TIP3    H234495   6.765   1.057   4.061
11518TIP3   OH234496   0.350   0.510   2.047
11518TIP3    H134497   0.278   0.555   2.003
11518TIP3    H234498   0.365   0.432   1.994
11519TIP3   OH234499   7.624   1.520   1.889
11519TIP3    H134500   7.678   1.450   1.852
11519TIP3    H234501   7.579   1.480   1.963
11520TIP3   OH234502   2.994   6.553   3.816
11520TIP3    H134503   3.055   6.548   3.889
11520TIP3    H234504   2.916   6.596   3.852
11521TIP3   OH234505   2.953   0.218   5.227
11521TIP3    H134506   3.029   0.256   5.182
11521TIP3    H234507   2.989   0.176   5.305
11522TIP3   OH234508   8.310   3.541   4.703
11522TIP3    H134509   8.308   3.631   4.737
11522TIP3    H234510   8.219   3.511   4.710
11523TIP3   OH234511   2.769   4.143   0.929
11523TIP3    H134512   2.778   4.228   0.885
11523TIP3    H234513   2.817   4.153   1.011
11524TIP3   OH234514   2.093   4.980   4.732
11524TIP3    H134515   2.004   4.948   4.713
11524TIP3    H234516   2.092   4.996   4.826
11525TIP3   OH234517   1.326   7.000   5.090
11525TIP3    H134518   1.292   7.033   5.008
11525TIP3    H234519   1.412   6.964   5.068
11526TIP3   OH234520   6.123   5.407   0.640
11526TIP3    H134521   6.122   5.487   0.693
11526TIP3    H234522   6.072   5.428   0.563
11527TIP3   OH234523   2.875   0.070   6.405
11527TIP3    H134524   2.930   0.022   6.468
11527TIP3    H234525   2.934   0.088   6.332
11528TIP3   OH234526   1.649   6.916   6.495
11528TIP3    H134527   1.645   6.825   6.524
11528TIP3    H234528   1.741   6.931   6.473
11529TIP3   OH234529   5.380   5.689   1.511
11529TIP3    H134530   5.434   5.667   1.586
11529TIP3    H234531   5.290   5.681   1.543
11530TIP3   OH234532   3.189   6.178   5.883
11530TIP3    H134533   3.215   6.166   5.792
11530TIP3    H234534   3.148   6.095   5.907
11531TIP3   OH234535   4.953   0.246   6.651
11531TIP3    H134536   5.010   0.318   6.623
11531TIP3    H234537   5.014   0.176   6.677
11532TIP3   OH234538   3.625   5.480   1.177
11532TIP3    H134539   3.591   5.438   1.097
11532TIP3    H234540   3.639   5.407   1.237
11533TIP3   OH234541   4.329   6.219   6.063
11533TIP3    H134542   4.385   6.156   6.019
11533TIP3    H234543   4.269   6.250   5.995
11534TIP3   OH234544   7.453   4.198   2.279
11534TIP3    H134545   7.469   4.104   2.267
11534TIP3    H234546   7.455   4.210   2.374
11535TIP3   OH234547   5.685   6.695   3.480
11535TIP3    H134548   5.694   6.775   3.532
11535TIP3    H234549   5.747   6.634   3.519
11536TIP3   OH234550   5.304   2.494   6.353
11536TIP3    H134551   5.276   2.509   6.444
11536TIP3    H234552   5.239   2.540   6.301
11537TIP3   OH234553   1.508   0.152   5.891
11537TIP3    H134554   1.563   0.210   5.837
11537TIP3    H234555   1.539   0.167   5.980
11538TIP3   OH234556   1.378   2.451   0.666
11538TIP3    H134557   1.322   2.456   0.589
11538TIP3    H234558   1.407   2.360   0.668
11539TIP3   OH234559   2.880   7.204   4.964
11539TIP3    H134560   2.860   7.193   4.871
11539TIP3    H234561   2.906   7.295   4.973
11540TIP3   OH234562   2.502   2.353   3.582
11540TIP3    H134563   2.467   2.278   3.629
11540TIP3    H234564   2.472   2.429   3.632
11541TIP3   OH234565   4.325   1.294   0.967
11541TIP3    H134566   4.341   1.217   1.023
11541TIP3    H234567   4.240   1.278   0.927
11542TIP3   OH234568   4.929   0.886   5.010
11542TIP3    H134569   5.018   0.880   5.045
11542TIP3    H234570   4.887   0.953   5.062
11543TIP3   OH234571   0.816   7.214   0.306
11543TIP3    H134572   0.779   7.289   0.353
11543TIP3    H234573   0.911   7.230   0.306
11544TIP3   OH234574   3.921   2.994   3.128
11544TIP3    H134575   3.870   2.948   3.195
11544TIP3    H234576   3.895   2.952   3.046
11545TIP3   OH234577   0.612   0.179   6.548
11545TIP3    H134578   0.563   0.262   6.549
11545TIP3    H234579   0.562   0.121   6.606
11546TIP3   OH234580   5.473   1.447   0.242
11546TIP3    H134581   5.413   1.457   0.317
11546TIP3    H234582   5.469   1.531   0.196
11547TIP3   OH234583   4.210   4.142   4.205
11547TIP3    H134584   4.261   4.111   4.279
11547TIP3    H234585   4.170   4.224   4.234
11548TIP3   OH234586   1.043   7.199   2.046
11548TIP3    H134587   0.964   7.202   2.100
11548TIP3    H234588   1.039   7.114   2.002
11549TIP3   OH234589   6.451   6.597   3.366
11549TIP3    H134590   6.508   6.641   3.302
11549TIP3    H234591   6.453   6.505   3.341
11550TIP3   OH234592   6.417   1.346   1.838
11550TIP3    H134593   6.387   1.436   1.825
11550TIP3    H234594   6.337   1.294   1.844
11551TIP3   OH234595   2.010   5.190   4.961
11551TIP3    H134596   1.974   5.275   4.987
11551TIP3    H234597   1.933   5.134   4.952
11552TIP3   OH234598   1.489   1.119   2.105
11552TIP3    H134599   1.547   1.099   2.178
11552TIP3    H234600   1.401   1.119   2.144
11553TIP3   OH234601   3.567   4.515   6.077
11553TIP3    H134602   3.624   4.529   6.152
11553TIP3    H234603   3.623   4.526   6.000
11554TIP3   OH234604   5.817   2.655   0.098
11554TIP3    H134605   5.778   2.570   0.076
11554TIP3    H234606   5.847   2.689   0.014
11555TIP3   OH234607   4.329   2.515   2.522
11555TIP3    H134608   4.400   2.484   2.466
11555TIP3    H234609   4.360   2.501   2.611
11556TIP3   OH234610   3.369   6.933   1.374
11556TIP3    H134611   3.343   7.005   1.318
11556TIP3    H234612   3.315   6.859   1.345
11557TIP3   OH234613   5.886   1.845   4.700
11557TIP3    H134614   5.800   1.809   4.720
11557TIP3    H234615   5.947   1.773   4.716
11558TIP3   OH234616   2.123   6.584   3.676
11558TIP3    H134617   2.035   6.614   3.696
11558TIP3    H234618   2.159   6.556   3.760
11559TIP3   OH234619   4.465   0.580   2.997
11559TIP3    H134620   4.448   0.672   2.977
11559TIP3    H234621   4.554   0.579   3.032
11560TIP3   OH234622   3.472   2.082   0.768
11560TIP3    H134623   3.485   2.033   0.849
11560TIP3    H234624   3.549   2.140   0.763
11561TIP3   OH234625   0.705   0.825   2.660
11561TIP3    H134626   0.673   0.750   2.610
11561TIP3    H234627   0.730   0.788   2.745
11562TIP3   OH234628   0.595   2.905   2.097
11562TIP3    H134629   0.636   2.826   2.061
11562TIP3    H234630   0.662   2.942   2.155
11563TIP3   OH234631   7.875   3.885   3.867
11563TIP3    H134632   7.836   3.964   3.906
11563TIP3    H234633   7.897   3.829   3.942
11564TIP3   OH234634   3.821   2.036   5.569
11564TIP3    H134635   3.856   2.068   5.486
11564TIP3    H234636   3.892   2.049   5.632
11565TIP3   OH234637   1.773   4.290   1.385
11565TIP3    H134638   1.719   4.221   1.347
11565TIP3    H234639   1.769   4.361   1.321
11566TIP3   OH234640   3.111   4.258   0.735
11566TIP3    H134641   3.179   4.292   0.677
11566TIP3    H234642   3.085   4.333   0.789
11567TIP3   OH234643   4.315   5.878   5.831
11567TIP3    H134644   4.247   5.873   5.763
11567TIP3    H234645   4.285   5.820   5.900
11568TIP3   OH234646   3.054   1.841   0.830
11568TIP3    H134647   2.969   1.816   0.866
11568TIP3    H234648   3.112   1.767   0.851
11569TIP3   OH234649   3.809   5.685   4.533
11569TIP3    H134650   3.774   5.765   4.494
11569TIP3    H234651   3.904   5.696   4.530
11570TIP3   OH234652   3.775   7.219   4.042
11570TIP3    H134653   3.771   7.214   4.137
11570TIP3    H234654   3.858   7.176   4.019
11571TIP3   OH234655   6.631   4.988   0.331
11571TIP3    H134656   6.626   4.901   0.371
11571TIP3    H234657   6.716   4.988   0.285
11572TIP3   OH234658   0.551   3.369   1.766
11572TIP3    H134659   0.600   3.293   1.797
11572TIP3    H234660   0.608   3.444   1.785
11573TIP3   OH234661   4.009   4.282   1.477
11573TIP3    H134662   3.982   4.316   1.393
11573TIP3    H234663   3.981   4.348   1.541
11574TIP3   OH234664   1.983   1.819   0.268
11574TIP3    H134665   1.944   1.906   0.262
11574TIP3    H234666   1.913   1.759   0.244
11575TIP3   OH234667   2.461   4.113   3.535
11575TIP3    H134668   2.515   4.146   3.607
11575TIP3    H234669   2.392   4.178   3.525
11576TIP3   OH234670   4.107   0.344   4.075
11576TIP3    H134671   4.013   0.330   4.088
11576TIP3    H234672   4.149   0.300   4.149
11577TIP3   OH234673   5.903   7.364   3.531
11577TIP3    H134674   5.939   7.418   3.461
11577TIP3    H234675   5.979   7.317   3.566
11578TIP3   OH234676   0.825   6.680   5.182
11578TIP3    H134677   0.790   6.754   5.230
11578TIP3    H234678   0.749   6.624   5.165
11579TIP3   OH234679   7.091   5.784   2.349
11579TIP3    H134680   7.146   5.863   2.342
11579TIP3    H234681   7.085   5.767   2.443
11580TIP3   OH234682   3.218   5.865   4.342
11580TIP3    H134683   3.305   5.831   4.362
11580TIP3    H234684   3.200   5.928   4.411
11581TIP3   OH234685   2.396   5.747   0.843
11581TIP3    H134686   2.353   5.742   0.929
11581TIP3    H234687   2.440   5.662   0.834
11582TIP3   OH234688   1.924   2.524   2.069
11582TIP3    H134689   1.997   2.524   2.130
11582TIP3    H234690   1.934   2.605   2.019
11583TIP3   OH234691   4.509   5.160   4.487
11583TIP3    H134692   4.526   5.171   4.580
11583TIP3    H234693   4.491   5.249   4.455
11584TIP3   OH234694   4.944   3.227   3.429
11584TIP3    H134695   4.958   3.314   3.391
11584TIP3    H234696   5.031   3.199   3.457
11585TIP3   OH234697   5.208   2.782   5.721
11585TIP3    H134698   5.287   2.729   5.731
11585TIP3    H234699   5.204   2.801   5.627
11586TIP3   OH234700   6.636   3.853   4.535
11586TIP3    H134701   6.641   3.948   4.526
11586TIP3    H234702   6.596   3.839   4.620
11587TIP3   OH234703   3.709   1.168   3.133
11587TIP3    H134704   3.714   1.201   3.223
11587TIP3    H234705   3.772   1.096   3.130
11588TIP3   OH234706   7.964   0.827   5.271
11588TIP3    H134707   7.940   0.854   5.360
11588TIP3    H234708   8.041   0.880   5.250
11589TIP3   OH234709   3.766   4.877   0.757
11589TIP3    H134710   3.776   4.954   0.812
11589TIP3    H234711   3.802   4.903   0.672
11590TIP3   OH234712   8.222   6.523   5.660
11590TIP3    H134713   8.281   6.558   5.593
11590TIP3    H234714   8.209   6.431   5.636
11591TIP3   OH234715   6.181   4.424   6.729
11591TIP3    H134716   6.266   4.402   6.768
11591TIP3    H234717   6.151   4.499   6.779
11592TIP3   OH234718   4.939   7.466   3.156
11592TIP3    H134719   5.014   7.407   3.165
11592TIP3    H234720   4.885   7.426   3.087
11593TIP3   OH234721   3.846   0.092   2.444
11593TIP3    H134722   3.892   0.029   2.500
11593TIP3    H234723   3.828   0.166   2.502
11594TIP3   OH234724   6.934   4.540   1.075
11594TIP3    H134725   7.027   4.541   1.052
11594TIP3    H234726   6.926   4.468   1.137
11595TIP3   OH234727   7.884   6.762   1.915
11595TIP3    H134728   7.830   6.838   1.935
11595TIP3    H234729   7.839   6.688   1.956
11596TIP3   OH234730   5.436   6.787   0.108
11596TIP3    H134731   5.438   6.706   0.160
11596TIP3    H234732   5.343   6.809   0.102
11597TIP3   OH234733   5.957   6.227   4.018
11597TIP3    H134734   5.957   6.300   4.080
11597TIP3    H234735   6.041   6.184   4.032
11598TIP3   OH234736   5.230   1.385   0.619
11598TIP3    H134737   5.151   1.427   0.583
11598TIP3    H234738   5.302   1.441   0.590
11599TIP3   OH234739   7.345   5.606   3.162
11599TIP3    H134740   7.439   5.623   3.153
11599TIP3    H234741   7.305   5.657   3.091
11600TIP3   OH234742   2.643   1.553   6.539
11600TIP3    H134743   2.595   1.553   6.622
11600TIP3    H234744   2.582   1.589   6.475
11601TIP3   OH234745   2.617   0.545   1.345
11601TIP3    H134746   2.652   0.459   1.319
11601TIP3    H234747   2.529   0.526   1.378
11602TIP3   OH234748   4.130   0.330   4.491
11602TIP3    H134749   4.218   0.367   4.491
11602TIP3    H234750   4.131   0.266   4.420
11603TIP3   OH234751   7.239   3.341   3.431
11603TIP3    H134752   7.171   3.401   3.401
11603TIP3    H234753   7.313   3.398   3.452
11604TIP3   OH234754   1.371   5.676   1.899
11604TIP3    H134755   1.397   5.598   1.851
11604TIP3    H234756   1.328   5.643   1.978
11605TIP3   OH234757   3.309   7.800   3.409
11605TIP3    H134758   3.282   7.803   3.501
11605TIP3    H234759   3.273   7.717   3.376
11606TIP3   OH234760   1.794   4.470   5.374
11606TIP3    H134761   1.868   4.411   5.390
11606TIP3    H234762   1.812   4.547   5.428
11607TIP3   OH234763   1.725   7.119   5.096
11607TIP3    H134764   1.662   7.138   5.166
11607TIP3    H234765   1.710   7.188   5.032
11608TIP3   OH234766   3.981   0.525   5.170
11608TIP3    H134767   3.997   0.591   5.238
11608TIP3    H234768   4.064   0.479   5.161
11609TIP3   OH234769   3.923   3.947   5.871
11609TIP3    H134770   3.859   4.002   5.917
11609TIP3    H234771   3.900   3.858   5.898
11610TIP3   OH234772   0.651   4.618   5.465
11610TIP3    H134773   0.727   4.577   5.507
11610TIP3    H234774   0.575   4.584   5.513
11611TIP3   OH234775   3.363   1.259   5.183
11611TIP3    H134776   3.409   1.178   5.161
11611TIP3    H234777   3.426   1.307   5.238
11612TIP3   OH234778   7.583   5.526   4.825
11612TIP3    H134779   7.559   5.582   4.898
11612TIP3    H234780   7.624   5.585   4.762
11613TIP3   OH234781   0.521   3.940   3.445
11613TIP3    H134782   0.564   4.008   3.393
11613TIP3    H234783   0.541   3.858   3.398
11614TIP3   OH234784   2.948   6.344   2.476
11614TIP3    H134785   2.947   6.271   2.414
11614TIP3    H234786   2.919   6.419   2.424
11615TIP3   OH234787   7.009   6.196   4.759
11615TIP3    H134788   6.926   6.239   4.736
11615TIP3    H234789   7.044   6.249   4.831
11616TIP3   OH234790   2.233   4.744   3.681
11616TIP3    H134791   2.294   4.739   3.754
11616TIP3    H234792   2.173   4.670   3.695
11617TIP3   OH234793   6.901   1.260   1.320
11617TIP3    H134794   6.934   1.258   1.230
11617TIP3    H234795   6.870   1.350   1.332
11618TIP3   OH234796   4.000   5.242   1.391
11618TIP3    H134797   4.009   5.216   1.483
11618TIP3    H234798   3.978   5.335   1.395
11619TIP3   OH234799   7.756   2.794   5.700
11619TIP3    H134800   7.674   2.766   5.740
11619TIP3    H234801   7.738   2.798   5.607
11620TIP3   OH234802   7.451   5.562   3.489
11620TIP3    H134803   7.434   5.475   3.454
11620TIP3    H234804   7.368   5.608   3.481
11621TIP3   OH234805   3.056   3.335   0.161
11621TIP3    H134806   2.961   3.322   0.153
11621TIP3    H234807   3.071   3.341   0.255
11622TIP3   OH234808   1.639   5.506   4.334
11622TIP3    H134809   1.584   5.563   4.389
11622TIP3    H234810   1.626   5.539   4.245
11623TIP3   OH234811   0.977   3.463   5.274
11623TIP3    H134812   1.064   3.476   5.236
11623TIP3    H234813   0.990   3.394   5.339
11624TIP3   OH234814   2.632   5.135   4.877
11624TIP3    H134815   2.552   5.184   4.858
11624TIP3    H234816   2.648   5.085   4.797
11625TIP3   OH234817   4.963   0.121   6.415
11625TIP3    H134818   4.951   0.183   6.486
11625TIP3    H234819   4.947   0.172   6.335
11626TIP3   OH234820   7.635   3.440   1.967
11626TIP3    H134821   7.683   3.409   1.891
11626TIP3    H234822   7.671   3.390   2.040
11627TIP3   OH234823   3.018   4.994   4.151
11627TIP3    H134824   3.028   4.930   4.222
11627TIP3    H234825   3.006   4.941   4.072
11628TIP3   OH234826   0.511   2.014   5.213
11628TIP3    H134827   0.448   1.945   5.237
11628TIP3    H234828   0.459   2.077   5.164
11629TIP3   OH234829   5.495   6.272   2.301
11629TIP3    H134830   5.534   6.215   2.235
11629TIP3    H234831   5.561   6.279   2.370
11630TIP3   OH234832   5.785   1.960   1.148
11630TIP3    H134833   5.778   2.035   1.089
11630TIP3    H234834   5.756   1.994   1.233
11631TIP3   OH234835   5.185   2.280   3.299
11631TIP3    H134836   5.250   2.306   3.364
11631TIP3    H234837   5.236   2.244   3.227
11632TIP3   OH234838   3.424   3.658   5.344
11632TIP3    H134839   3.496   3.700   5.391
11632TIP3    H234840   3.454   3.569   5.327
11633TIP3   OH234841   1.601   5.400   2.344
11633TIP3    H134842   1.580   5.319   2.389
11633TIP3    H234843   1.533   5.462   2.372
11634TIP3   OH234844   1.949   4.302   5.891
11634TIP3    H134845   1.867   4.352   5.889
11634TIP3    H234846   2.015   4.365   5.919
11635TIP3   OH234847   7.817   2.249   0.287
11635TIP3    H134848   7.741   2.194   0.269
11635TIP3    H234849   7.892   2.193   0.267
11636TIP3   OH234850   0.130   5.664   6.420
11636TIP3    H134851   0.177   5.581   6.426
11636TIP3    H234852   0.173   5.722   6.482
11637TIP3   OH234853   7.931   3.143   3.860
11637TIP3    H134854   7.955   3.066   3.809
11637TIP3    H234855   7.965   3.126   3.947
11638TIP3   OH234856   2.395   2.282   4.023
11638TIP3    H134857   2.304   2.261   4.042
11638TIP3    H234858   2.408   2.369   4.061
11639TIP3   OH234859   1.594   3.960   3.687
11639TIP3    H134860   1.640   3.990   3.765
11639TIP3    H234861   1.504   3.991   3.697
11640TIP3   OH234862   6.487   1.089   3.243
11640TIP3    H134863   6.415   1.107   3.304
11640TIP3    H234864   6.550   1.159   3.260
11641TIP3   OH234865   2.417   4.876   5.891
11641TIP3    H134866   2.349   4.840   5.835
11641TIP3    H234867   2.451   4.801   5.941
11642TIP3   OH234868   2.399   4.193   5.126
11642TIP3    H134869   2.451   4.161   5.053
11642TIP3    H234870   2.351   4.268   5.090
11643TIP3   OH234871   5.686   2.274   0.342
11643TIP3    H134872   5.771   2.229   0.339
11643TIP3    H234873   5.630   2.215   0.393
11644TIP3   OH234874   8.261   6.059   2.135
11644TIP3    H134875   8.189   6.021   2.086
11644TIP3    H234876   8.322   5.987   2.149
11645TIP3   OH234877   6.041   1.717   4.032
11645TIP3    H134878   6.128   1.699   4.067
11645TIP3    H234879   6.051   1.709   3.937
11646TIP3   OH234880   0.587   5.047   1.757
11646TIP3    H134881   0.673   5.030   1.796
11646TIP3    H234882   0.580   5.143   1.755
11647TIP3   OH234883   5.162   7.062   2.537
11647TIP3    H134884   5.104   7.051   2.612
11647TIP3    H234885   5.104   7.078   2.463
11648TIP3   OH234886   3.392   5.568   5.006
11648TIP3    H134887   3.349   5.507   5.065
11648TIP3    H234888   3.332   5.643   5.002
11649TIP3   OH234889   6.739   2.167   3.471
11649TIP3    H134890   6.667   2.228   3.487
11649TIP3    H234891   6.809   2.197   3.528
11650TIP3   OH234892   3.535   4.007   1.230
11650TIP3    H134893   3.559   4.029   1.320
11650TIP3    H234894   3.618   3.983   1.188
11651TIP3   OH234895   7.808   6.033   5.959
11651TIP3    H134896   7.823   6.115   6.007
11651TIP3    H234897   7.884   5.979   5.980
11652TIP3   OH234898   1.895   3.334   5.739
11652TIP3    H134899   1.944   3.298   5.813
11652TIP3    H234900   1.928   3.288   5.662
11653TIP3   OH234901   2.734   4.084   3.019
11653TIP3    H134902   2.697   4.149   3.079
11653TIP3    H234903   2.805   4.043   3.068
11654TIP3   OH234904   3.224   1.878   3.511
11654TIP3    H134905   3.291   1.886   3.578
11654TIP3    H234906   3.242   1.950   3.450
11655TIP3   OH234907   0.195   4.323   0.824
11655TIP3    H134908   0.138   4.291   0.755
11655TIP3    H234909   0.262   4.256   0.833
11656TIP3   OH234910   6.850   4.684   2.793
11656TIP3    H134911   6.791   4.751   2.828
11656TIP3    H234912   6.893   4.647   2.869
11657TIP3   OH234913   2.534   7.812   3.349
11657TIP3    H134914   2.516   7.732   3.300
11657TIP3    H234915   2.620   7.798   3.388
11658TIP3   OH234916   6.321   6.957   2.041
11658TIP3    H134917   6.228   6.944   2.055
11658TIP3    H234918   6.364   6.914   2.115
11659TIP3   OH234919   1.202   1.999   2.518
11659TIP3    H134920   1.197   2.087   2.481
11659TIP3    H234921   1.112   1.976   2.539
11660TIP3   OH234922   5.889   1.933   3.582
11660TIP3    H134923   5.821   1.878   3.621
11660TIP3    H234924   5.857   2.023   3.594
11661TIP3   OH234925   6.633   7.534   1.531
11661TIP3    H134926   6.611   7.625   1.514
11661TIP3    H234927   6.727   7.528   1.514
11662TIP3   OH234928   6.974   6.999   5.222
11662TIP3    H134929   7.004   7.072   5.167
11662TIP3    H234930   6.902   7.036   5.273
11663TIP3   OH234931   0.946   1.798   6.300
11663TIP3    H134932   0.893   1.721   6.323
11663TIP3    H234933   1.008   1.806   6.372
11664TIP3   OH234934   2.450   1.027   0.872
11664TIP3    H134935   2.431   0.987   0.787
11664TIP3    H234936   2.402   0.973   0.935
11665TIP3   OH234937   2.017   1.850   4.718
11665TIP3    H134938   2.105   1.880   4.695
11665TIP3    H234939   2.026   1.754   4.722
11666TIP3   OH234940   3.234   3.195   5.620
11666TIP3    H134941   3.323   3.206   5.587
11666TIP3    H234942   3.222   3.265   5.683
11667TIP3   OH234943   6.410   2.391   2.933
11667TIP3    H134944   6.375   2.365   2.847
11667TIP3    H234945   6.491   2.438   2.912
11668TIP3   OH234946   0.324   2.885   0.066
11668TIP3    H134947   0.372   2.809   0.099
11668TIP3    H234948   0.233   2.870   0.092
11669TIP3   OH234949   7.913   6.262   0.562
11669TIP3    H134950   7.960   6.318   0.502
11669TIP3    H234951   7.946   6.174   0.545
11670TIP3   OH234952   4.376   7.029   6.691
11670TIP3    H134953   4.327   6.951   6.666
11670TIP3    H234954   4.409   7.065   6.609
11671TIP3   OH234955   5.347   7.578   6.064
11671TIP3    H134956   5.415   7.636   6.096
11671TIP3    H234957   5.393   7.496   6.044
11672TIP3   OH234958   4.124   5.714   3.469
11672TIP3    H134959   4.219   5.725   3.470
11672TIP3    H234960   4.098   5.725   3.561
11673TIP3   OH234961   0.617   3.126   2.683
11673TIP3    H134962   0.546   3.062   2.690
11673TIP3    H234963   0.691   3.083   2.726
11674TIP3   OH234964   4.601   3.104   1.744
11674TIP3    H134965   4.694   3.124   1.734
11674TIP3    H234966   4.584   3.034   1.682
11675TIP3   OH234967   7.657   7.329   3.296
11675TIP3    H134968   7.573   7.373   3.312
11675TIP3    H234969   7.704   7.387   3.237
11676TIP3   OH234970   0.581   1.138   1.655
11676TIP3    H134971   0.658   1.182   1.691
11676TIP3    H234972   0.617   1.068   1.599
11677TIP3   OH234973   7.332   4.063   5.063
11677TIP3    H134974   7.265   3.998   5.040
11677TIP3    H234975   7.282   4.143   5.080
11678TIP3   OH234976   0.414   2.109   6.737
11678TIP3    H134977   0.448   2.049   6.671
11678TIP3    H234978   0.329   2.071   6.763
11679TIP3   OH234979   0.955   2.703   3.019
11679TIP3    H134980   1.033   2.696   2.965
11679TIP3    H234981   0.971   2.644   3.093
11680TIP3   OH234982   0.011   1.379   5.116
11680TIP3    H134983   0.091   1.417   5.082
11680TIP3    H234984  -0.022   1.442   5.180
11681TIP3   OH234985   4.948   3.620   2.631
11681TIP3    H134986   4.969   3.616   2.537
11681TIP3    H234987   4.860   3.584   2.637
11682TIP3   OH234988   6.245   7.332   5.788
11682TIP3    H134989   6.247   7.426   5.809
11682TIP3    H234990   6.156   7.305   5.809
11683TIP3   OH234991   6.866   3.693   6.345
11683TIP3    H134992   6.871   3.779   6.304
11683TIP3    H234993   6.814   3.708   6.425
11684TIP3   OH234994   7.939   4.905   4.933
11684TIP3    H134995   7.920   4.838   4.998
11684TIP3    H234996   7.997   4.967   4.978
11685TIP3   OH234997   1.873   7.471  -0.008
11685TIP3    H134998   1.792   7.470  -0.059
11685TIP3    H234999   1.862   7.399   0.055
11686TIP3   OH235000   7.749   1.312   0.381
11686TIP3    H135001   7.782   1.340   0.467
11686TIP3    H235002   7.827   1.312   0.325
11687TIP3   OH235003   2.773   1.758   0.333
11687TIP3    H135004   2.765   1.723   0.422
11687TIP3    H235005   2.790   1.851   0.346
11688TIP3   OH235006   0.812   4.852   2.261
11688TIP3    H135007   0.799   4.758   2.268
11688TIP3    H235008   0.786   4.873   2.172
11689TIP3   OH235009   1.531   4.729   4.601
11689TIP3    H135010   1.559   4.643   4.633
11689TIP3    H235011   1.581   4.791   4.654
11690TIP3   OH235012   2.823   4.184   4.006
11690TIP3    H135013   2.730   4.173   3.989
11690TIP3    H235014   2.862   4.099   3.984
11691TIP3   OH235015   4.422  -0.020   1.205
11691TIP3    H135016   4.339  -0.008   1.160
11691TIP3    H235017   4.488   0.013   1.145
11692TIP3   OH235018   7.548   4.474   3.375
11692TIP3    H135019   7.639   4.455   3.398
11692TIP3    H235020   7.517   4.395   3.330
11693TIP3   OH235021   5.913   4.637   1.494
11693TIP3    H135022   5.919   4.605   1.584
11693TIP3    H235023   5.980   4.704   1.488
11694TIP3   OH235024   8.082   6.544   1.495
11694TIP3    H135025   8.029   6.530   1.573
11694TIP3    H235026   8.034   6.501   1.424
11695TIP3   OH235027   1.694   0.969   5.528
11695TIP3    H135028   1.714   0.988   5.620
11695TIP3    H235029   1.630   0.897   5.532
11696TIP3   OH235030   1.303   7.575   4.130
11696TIP3    H135031   1.317   7.596   4.038
11696TIP3    H235032   1.378   7.615   4.175
11697TIP3   OH235033   1.426   3.992   0.016
11697TIP3    H135034   1.449   4.020  -0.073
11697TIP3    H235035   1.509   3.967   0.055
11698TIP3   OH235036   4.244   2.408   6.692
11698TIP3    H135037   4.253   2.357   6.773
11698TIP3    H235038   4.155   2.444   6.696
11699TIP3   OH235039   0.091   6.752   1.378
11699TIP3    H135040   0.073   6.790   1.464
11699TIP3    H235041   0.077   6.824   1.317
11700TIP3   OH235042   5.893   6.048   3.618
11700TIP3    H135043   5.813   5.996   3.624
11700TIP3    H235044   5.964   5.984   3.624
11701TIP3   OH235045   1.938   1.014   1.468
11701TIP3    H135046   2.015   0.982   1.421
11701TIP3    H235047   1.968   1.028   1.557
11702TIP3   OH235048   2.902   6.635   4.557
11702TIP3    H135049   2.928   6.641   4.649
11702TIP3    H235050   2.931   6.548   4.530
11703TIP3   OH235051   5.513   1.067   4.054
11703TIP3    H135052   5.449   1.068   3.983
11703TIP3    H235053   5.554   0.981   4.048
11704TIP3   OH235054   0.537   6.483   2.813
11704TIP3    H135055   0.468   6.543   2.842
11704TIP3    H235056   0.501   6.441   2.734
11705TIP3   OH235057   7.019   6.077   2.120
11705TIP3    H135058   7.092   6.069   2.059
11705TIP3    H235059   6.979   5.989   2.121
11706TIP3   OH235060   0.347   6.180   2.684
11706TIP3    H135061   0.383   6.208   2.768
11706TIP3    H235062   0.358   6.256   2.627
11707TIP3   OH235063   6.092   2.323   1.956
11707TIP3    H135064   6.183   2.336   1.928
11707TIP3    H235065   6.065   2.409   1.989
11708TIP3   OH235066   2.303   7.313   2.326
11708TIP3    H135067   2.277   7.400   2.353
11708TIP3    H235068   2.221   7.269   2.302
11709TIP3   OH235069   4.312   2.564   5.484
11709TIP3    H135070   4.354   2.566   5.397
11709TIP3    H235071   4.237   2.623   5.475
11710TIP3   OH235072   0.666   4.845   6.536
11710TIP3    H135073   0.697   4.892   6.459
11710TIP3    H235074   0.611   4.908   6.582
11711TIP3   OH235075   6.844   2.870   3.190
11711TIP3    H135076   6.904   2.941   3.171
11711TIP3    H235077   6.786   2.904   3.258
11712TIP3   OH235078   3.435   6.520   6.678
11712TIP3    H135079   3.369   6.520   6.748
11712TIP3    H235080   3.404   6.586   6.616
11713TIP3   OH235081   6.965   6.127   2.433
11713TIP3    H135082   6.907   6.201   2.415
11713TIP3    H235083   7.042   6.167   2.473
11714TIP3   OH235084   6.704   0.683   0.811
11714TIP3    H135085   6.779   0.651   0.760
11714TIP3    H235086   6.630   0.681   0.750
11715TIP3   OH235087   2.805   2.090   3.895
11715TIP3    H135088   2.894   2.112   3.868
11715TIP3    H235089   2.776   2.164   3.948
11716TIP3   OH235090   3.802   7.038   1.158
11716TIP3    H135091   3.835   6.965   1.211
11716TIP3    H235092   3.713   7.053   1.191
11717TIP3   OH235093   3.056   4.974   6.148
11717TIP3    H135094   2.992   4.994   6.080
11717TIP3    H235095   3.069   4.880   6.143
11718TIP3   OH235096   3.670   2.772   0.691
11718TIP3    H135097   3.701   2.803   0.776
11718TIP3    H235098   3.746   2.730   0.652
11719TIP3   OH235099   0.464   1.885   3.366
11719TIP3    H135100   0.427   1.970   3.341
11719TIP3    H235101   0.475   1.891   3.461
11720TIP3   OH235102   3.961   3.476   4.797
11720TIP3    H135103   3.898   3.545   4.817
11720TIP3    H235104   3.909   3.395   4.799
11721TIP3   OH235105   6.703   2.386   0.500
11721TIP3    H135106   6.673   2.322   0.564
11721TIP3    H235107   6.785   2.350   0.465
11722TIP3   OH235108   5.817   4.992   5.373
11722TIP3    H135109   5.836   4.942   5.452
11722TIP3    H235110   5.722   4.989   5.365
11723TIP3   OH235111   4.818   3.318   6.767
11723TIP3    H135112   4.819   3.228   6.799
11723TIP3    H235113   4.909   3.336   6.743
11724TIP3   OH235114   1.993   4.385   3.486
11724TIP3    H135115   1.904   4.349   3.488
11724TIP3    H235116   1.985   4.465   3.434
11725TIP3   OH235117   2.620   5.111   3.398
11725TIP3    H135118   2.533   5.079   3.376
11725TIP3    H235119   2.620   5.117   3.494
11726TIP3   OH235120   0.602   7.797   1.087
11726TIP3    H135121   0.664   7.733   1.052
11726TIP3    H235122   0.545   7.818   1.013
11727TIP3   OH235123   5.660   5.877   3.805
11727TIP3    H135124   5.607   5.908   3.878
11727TIP3    H235125   5.747   5.864   3.841
11728TIP3   OH235126   5.563   5.036   5.408
11728TIP3    H135127   5.495   5.078   5.462
11728TIP3    H235128   5.515   4.995   5.336
11729TIP3   OH235129   3.203   7.233   0.138
11729TIP3    H135130   3.177   7.145   0.164
11729TIP3    H235131   3.147   7.253   0.063
11730TIP3   OH235132   7.790   3.447   0.790
11730TIP3    H135133   7.840   3.439   0.709
11730TIP3    H235134   7.708   3.401   0.771
11731TIP3   OH235135   7.113   5.045   6.645
11731TIP3    H135136   7.059   4.988   6.590
11731TIP3    H235137   7.083   5.028   6.734
11732TIP3   OH235138  -0.020   1.319   3.384
11732TIP3    H135139  -0.035   1.334   3.477
11732TIP3    H235140   0.066   1.359   3.367
11733TIP3   OH235141   5.175   2.686   4.718
11733TIP3    H135142   5.123   2.635   4.656
11733TIP3    H235143   5.249   2.717   4.667
11734TIP3   OH235144   3.311   7.327   4.111
11734TIP3    H135145   3.333   7.320   4.204
11734TIP3    H235146   3.282   7.240   4.086
11735TIP3   OH235147   3.386   3.609   4.164
11735TIP3    H135148   3.452   3.562   4.112
11735TIP3    H235149   3.412   3.593   4.255
11736TIP3   OH235150   2.615   0.049   2.523
11736TIP3    H135151   2.590   0.015   2.437
11736TIP3    H235152   2.700   0.090   2.510
11737TIP3   OH235153   4.059   2.094   6.216
11737TIP3    H135154   4.108   2.058   6.142
11737TIP3    H235155   3.995   2.152   6.175
11738TIP3   OH235156   2.391   4.234   5.421
11738TIP3    H135157   2.374   4.197   5.334
11738TIP3    H235158   2.427   4.161   5.471
11739TIP3   OH235159   7.047   7.037   2.298
11739TIP3    H135160   7.025   7.125   2.327
11739TIP3    H235161   7.033   7.040   2.203
11740TIP3   OH235162   1.599   5.748   3.790
11740TIP3    H135163   1.506   5.736   3.810
11740TIP3    H235164   1.602   5.761   3.696
11741TIP3   OH235165   5.799   1.221   5.238
11741TIP3    H135166   5.770   1.246   5.326
11741TIP3    H235167   5.739   1.266   5.179
11742TIP3   OH235168   0.806   3.670   3.519
11742TIP3    H135169   0.822   3.763   3.535
11742TIP3    H235170   0.893   3.630   3.515
11743TIP3   OH235171   2.594   1.406   2.654
11743TIP3    H135172   2.652   1.374   2.724
11743TIP3    H235173   2.600   1.501   2.660
11744TIP3   OH235174   7.398   4.895   4.296
11744TIP3    H135175   7.402   4.900   4.201
11744TIP3    H235176   7.305   4.903   4.317
11745TIP3   OH235177   1.452   6.750   5.049
11745TIP3    H135178   1.527   6.796   5.012
11745TIP3    H235179   1.423   6.690   4.980
11746TIP3   OH235180   3.716   5.227   1.309
11746TIP3    H135181   3.810   5.222   1.321
11746TIP3    H235182   3.700   5.182   1.226
11747TIP3   OH235183   7.858   5.987   6.251
11747TIP3    H135184   7.769   6.020   6.262
11747TIP3    H235185   7.915   6.059   6.276
11748TIP3   OH235186   5.006   2.061   5.641
11748TIP3    H135187   5.011   2.013   5.724
11748TIP3    H235188   4.930   2.118   5.651
11749TIP3   OH235189   1.434   7.592   0.170
11749TIP3    H135190   1.346   7.602   0.207
11749TIP3    H235191   1.491   7.639   0.231
11750TIP3   OH235192   6.417   4.395   1.730
11750TIP3    H135193   6.399   4.487   1.713
11750TIP3    H235194   6.494   4.375   1.677
11751TIP3   OH235195   0.124   6.228   1.725
11751TIP3    H135196   0.201   6.186   1.763
11751TIP3    H235197   0.122   6.197   1.635
11752TIP3   OH235198   2.786   7.277   3.981
11752TIP3    H135199   2.862   7.235   4.022
11752TIP3    H235200   2.782   7.364   4.022
11753TIP3   OH235201   4.580   3.966   1.768
11753TIP3    H135202   4.504   3.958   1.710
11753TIP3    H235203   4.582   3.883   1.816
11754TIP3   OH235204   1.917   3.930   0.779
11754TIP3    H135205   1.968   3.896   0.706
11754TIP3    H235206   1.854   3.860   0.799
11755TIP3   OH235207   7.152   0.880   3.013
11755TIP3    H135208   7.200   0.945   3.063
11755TIP3    H235209   7.162   0.908   2.922
11756TIP3   OH235210   0.090   7.055   5.905
11756TIP3    H135211   0.025   7.018   5.845
11756TIP3    H235212   0.137   6.979   5.939
11757TIP3   OH235213   0.598   1.325   5.828
11757TIP3    H135214   0.644   1.333   5.745
11757TIP3    H235215   0.635   1.393   5.883
11758TIP3   OH235216   6.140   4.653   6.318
11758TIP3    H135217   6.114   4.573   6.363
11758TIP3    H235218   6.236   4.653   6.322
11759TIP3   OH235219   0.295   3.206   1.838
11759TIP3    H135220   0.311   3.300   1.839
11759TIP3    H235221   0.349   3.173   1.766
11760TIP3   OH235222   2.675   7.072   3.804
11760TIP3    H135223   2.678   7.147   3.863
11760TIP3    H235224   2.638   7.106   3.723
11761TIP3   OH235225   1.771   0.649   0.316
11761TIP3    H135226   1.799   0.558   0.328
11761TIP3    H235227   1.738   0.675   0.402
11762TIP3   OH235228   2.932   4.301   5.259
11762TIP3    H135229   2.969   4.289   5.347
11762TIP3    H235230   2.902   4.392   5.259
11763TIP3   OH235231   5.533   2.362   5.678
11763TIP3    H135232   5.579   2.290   5.634
11763TIP3    H235233   5.599   2.399   5.737
11764TIP3   OH235234   4.786   1.362   6.643
11764TIP3    H135235   4.725   1.379   6.715
11764TIP3    H235236   4.753   1.416   6.571
11765TIP3   OH235237   0.510   6.801   2.192
11765TIP3    H135238   0.482   6.781   2.102
11765TIP3    H235239   0.558   6.883   2.184
11766TIP3   OH235240   3.377   4.814   6.401
11766TIP3    H135241   3.368   4.909   6.390
11766TIP3    H235242   3.299   4.788   6.449
11767TIP3   OH235243   1.257   0.300   1.870
11767TIP3    H135244   1.256   0.384   1.916
11767TIP3    H235245   1.169   0.265   1.881
11768TIP3   OH235246   0.220   4.393   6.671
11768TIP3    H135247   0.297   4.450   6.670
11768TIP3    H235248   0.233   4.337   6.748
11769TIP3   OH235249   2.948   2.869   3.576
11769TIP3    H135250   2.921   2.843   3.488
11769TIP3    H235251   2.907   2.955   3.588
11770TIP3   OH235252   5.724   1.635   2.293
11770TIP3    H135253   5.647   1.581   2.277
11770TIP3    H235254   5.701   1.720   2.255
11771TIP3   OH235255   0.679   6.565   5.551
11771TIP3    H135256   0.662   6.654   5.519
11771TIP3    H235257   0.638   6.563   5.637
11772TIP3   OH235258   7.738   0.487   5.849
11772TIP3    H135259   7.675   0.508   5.780
11772TIP3    H235260   7.806   0.554   5.841
11773TIP3   OH235261   5.794   1.589   5.171
11773TIP3    H135262   5.781   1.574   5.265
11773TIP3    H235263   5.781   1.504   5.130
11774TIP3   OH235264   6.631   4.888   5.763
11774TIP3    H135265   6.690   4.876   5.837
11774TIP3    H235266   6.689   4.905   5.688
11775TIP3   OH235267   0.833   5.858   4.308
11775TIP3    H135268   0.738   5.868   4.294
11775TIP3    H235269   0.873   5.922   4.249
11776TIP3   OH235270   4.447   3.035   6.650
11776TIP3    H135271   4.406   3.016   6.735
11776TIP3    H235272   4.499   3.114   6.665
11777TIP3   OH235273   3.483   5.188   6.729
11777TIP3    H135274   3.442   5.273   6.714
11777TIP3    H235275   3.465   5.168   6.821
11778TIP3   OH235276   0.142   1.490   6.609
11778TIP3    H135277   0.064   1.434   6.600
11778TIP3    H235278   0.132   1.529   6.696
11779TIP3   OH235279   7.851   5.330   5.187
11779TIP3    H135280   7.853   5.370   5.101
11779TIP3    H235281   7.815   5.242   5.173
11780TIP3   OH235282   7.853   2.776   0.872
11780TIP3    H135283   7.935   2.737   0.903
11780TIP3    H235284   7.820   2.713   0.808
11781TIP3   OH235285   1.450   0.269   0.894
11781TIP3    H135286   1.361   0.236   0.888
11781TIP3    H235287   1.492   0.214   0.960
11782TIP3   OH235288   7.331   2.012   4.070
11782TIP3    H135289   7.288   2.021   4.155
11782TIP3    H235290   7.266   1.969   4.015
11783TIP3   OH235291   8.053   1.484   1.184
11783TIP3    H135292   8.022   1.497   1.274
11783TIP3    H235293   7.974   1.489   1.131
11784TIP3   OH235294   3.930   3.861   1.194
11784TIP3    H135295   3.889   3.872   1.108
11784TIP3    H235296   3.869   3.903   1.255
11785TIP3   OH235297   2.375   5.244   4.821
11785TIP3    H135298   2.303   5.262   4.760
11785TIP3    H235299   2.332   5.234   4.906
11786TIP3   OH235300   0.819   3.544   5.636
11786TIP3    H135301   0.839   3.605   5.565
11786TIP3    H235302   0.724   3.549   5.645
11787TIP3   OH235303   0.109   7.582   1.827
11787TIP3    H135304   0.037   7.644   1.836
11787TIP3    H235305   0.172   7.607   1.895
11788TIP3   OH235306   3.822   3.879   4.013
11788TIP3    H135307   3.826   3.851   4.104
11788TIP3    H235308   3.797   3.971   4.018
11789TIP3   OH235309   0.478   4.518   6.657
11789TIP3    H135310   0.534   4.474   6.593
11789TIP3    H235311   0.490   4.611   6.640
11790TIP3   OH235312   7.453   4.273   1.817
11790TIP3    H135313   7.362   4.288   1.791
11790TIP3    H235314   7.484   4.358   1.848
11791TIP3   OH235315   2.138   4.836   1.470
11791TIP3    H135316   2.059   4.823   1.522
11791TIP3    H235317   2.106   4.861   1.384
11792TIP3   OH235318   6.274   1.854   2.655
11792TIP3    H135319   6.202   1.853   2.592
11792TIP3    H235320   6.345   1.806   2.612
11793TIP3   OH235321   2.488   0.852   2.790
11793TIP3    H135322   2.482   0.797   2.869
11793TIP3    H235323   2.399   0.884   2.777
11794TIP3   OH235324   2.790   4.914   4.389
11794TIP3    H135325   2.718   4.977   4.391
11794TIP3    H235326   2.815   4.902   4.481
11795TIP3   OH235327   6.114   6.829   4.659
11795TIP3    H135328   6.153   6.892   4.719
11795TIP3    H235329   6.020   6.843   4.668
11796TIP3   OH235330   7.581   4.570   2.586
11796TIP3    H135331   7.557   4.480   2.564
11796TIP3    H235332   7.623   4.603   2.506
11797TIP3   OH235333   3.575   3.347   5.929
11797TIP3    H135334   3.579   3.282   5.858
11797TIP3    H235335   3.482   3.362   5.942
11798TIP3   OH235336   0.169   6.579   0.444
11798TIP3    H135337   0.217   6.615   0.518
11798TIP3    H235338   0.215   6.498   0.421
11799TIP3   OH235339   8.068   2.932   3.127
11799TIP3    H135340   8.022   2.987   3.191
11799TIP3    H235341   8.101   2.859   3.179
11800TIP3   OH235342   7.188   7.518  -0.051
11800TIP3    H135343   7.136   7.598  -0.059
11800TIP3    H235344   7.184   7.496   0.042
11801TIP3   OH235345   0.629   1.045   2.870
11801TIP3    H135346   0.705   1.081   2.915
11801TIP3    H235347   0.647   1.058   2.777
11802TIP3   OH235348   5.647   0.245   0.314
11802TIP3    H135349   5.742   0.243   0.304
11802TIP3    H235350   5.620   0.327   0.274
11803TIP3   OH235351   7.687   0.707   2.205
11803TIP3    H135352   7.727   0.627   2.170
11803TIP3    H235353   7.624   0.675   2.270
11804TIP3   OH235354   7.077   6.721   4.247
11804TIP3    H135355   7.044   6.697   4.334
11804TIP3    H235356   7.060   6.643   4.193
11805TIP3   OH235357   7.410   6.249   4.396
11805TIP3    H135358   7.377   6.274   4.482
11805TIP3    H235359   7.368   6.165   4.377
11806TIP3   OH235360   7.720   3.433   1.372
11806TIP3    H135361   7.807   3.449   1.335
11806TIP3    H235362   7.702   3.510   1.425
11807TIP3   OH235363   5.675   5.078   3.895
11807TIP3    H135364   5.702   5.029   3.818
11807TIP3    H235365   5.735   5.153   3.898
11808TIP3   OH235366   2.014   5.945   0.058
11808TIP3    H135367   2.046   6.035   0.049
11808TIP3    H235368   2.050   5.899  -0.017
11809TIP3   OH235369   0.134   1.234   4.032
11809TIP3    H135370   0.201   1.218   4.098
11809TIP3    H235371   0.106   1.146   4.005
11810TIP3   OH235372   7.684   7.448   1.703
11810TIP3    H135373   7.650   7.382   1.763
11810TIP3    H235374   7.611   7.509   1.691
11811TIP3   OH235375   4.001   2.765   6.197
11811TIP3    H135376   4.039   2.745   6.112
11811TIP3    H235377   4.018   2.858   6.210
11812TIP3   OH235378   0.411   6.992   3.271
11812TIP3    H135379   0.427   6.943   3.190
11812TIP3    H235380   0.499   7.008   3.306
11813TIP3   OH235381   3.823   5.734   6.035
11813TIP3    H135382   3.888   5.746   6.105
11813TIP3    H235383   3.865   5.675   5.973
11814TIP3   OH235384   6.702   5.920   4.053
11814TIP3    H135385   6.696   5.828   4.027
11814TIP3    H235386   6.771   5.956   3.997
11815TIP3   OH235387   4.676   5.272   0.094
11815TIP3    H135388   4.718   5.344   0.142
11815TIP3    H235389   4.730   5.261   0.016
11816TIP3   OH235390   4.600   6.980   1.517
11816TIP3    H135391   4.674   6.927   1.488
11816TIP3    H235392   4.537   6.917   1.552
11817TIP3   OH235393   0.847   6.255   3.348
11817TIP3    H135394   0.830   6.267   3.254
11817TIP3    H235395   0.767   6.285   3.390
11818TIP3   OH235396   5.192   0.774   3.146
11818TIP3    H135397   5.166   0.833   3.076
11818TIP3    H235398   5.120   0.711   3.153
11819TIP3   OH235399   0.659   7.147   1.520
11819TIP3    H135400   0.747   7.183   1.531
11819TIP3    H235401   0.674   7.054   1.500
11820TIP3   OH235402   7.690   5.530   5.266
11820TIP3    H135403   7.748   5.456   5.247
11820TIP3    H235404   7.602   5.496   5.250
11821TIP3   OH235405   8.319   6.011   0.479
11821TIP3    H135406   8.388   5.970   0.427
11821TIP3    H235407   8.277   6.071   0.418
11822TIP3   OH235408   1.233   1.447   0.604
11822TIP3    H135409   1.239   1.428   0.698
11822TIP3    H235410   1.199   1.537   0.601
11823TIP3   OH235411   1.843   3.574   6.046
11823TIP3    H135412   1.784   3.554   5.974
11823TIP3    H235413   1.922   3.607   6.005
11824TIP3   OH235414   0.870   2.757   4.719
11824TIP3    H135415   0.902   2.734   4.632
11824TIP3    H235416   0.882   2.678   4.771
11825TIP3   OH235417   0.573   3.084   1.395
11825TIP3    H135418   0.656   3.112   1.433
11825TIP3    H235419   0.516   3.065   1.470
11826TIP3   OH235420   3.541   3.261   1.133
11826TIP3    H135421   3.525   3.329   1.068
11826TIP3    H235422   3.637   3.253   1.136
11827TIP3   OH235423   6.723   4.289   6.746
11827TIP3    H135424   6.729   4.359   6.811
11827TIP3    H235425   6.767   4.325   6.669
11828TIP3   OH235426   0.734   6.955   5.148
11828TIP3    H135427   0.827   6.972   5.130
11828TIP3    H235428   0.699   6.921   5.065
11829TIP3   OH235429   5.514   7.716   6.372
11829TIP3    H135430   5.514   7.624   6.398
11829TIP3    H235431   5.443   7.756   6.422
11830TIP3   OH235432   2.970   5.917   6.588
11830TIP3    H135433   3.054   5.960   6.575
11830TIP3    H235434   2.905   5.982   6.561
11831TIP3   OH235435   1.709   5.519   2.093
11831TIP3    H135436   1.739   5.594   2.145
11831TIP3    H235437   1.677   5.456   2.158
11832TIP3   OH235438   2.285   3.930   1.719
11832TIP3    H135439   2.360   3.969   1.765
11832TIP3    H235440   2.234   3.887   1.788
11833TIP3   OH235441   7.708   6.277   1.486
11833TIP3    H135442   7.636   6.340   1.481
11833TIP3    H235443   7.665   6.191   1.480
11834TIP3   OH235444   7.934   3.581   5.235
11834TIP3    H135445   7.999   3.512   5.243
11834TIP3    H235446   7.977   3.659   5.269
11835TIP3   OH235447   1.344   2.365   4.746
11835TIP3    H135448   1.314   2.454   4.728
11835TIP3    H235449   1.264   2.315   4.760
11836TIP3   OH235450   0.781   6.425   0.690
11836TIP3    H135451   0.877   6.420   0.686
11836TIP3    H235452   0.753   6.335   0.705
11837TIP3   OH235453   6.781   5.268   3.694
11837TIP3    H135454   6.689   5.288   3.680
11837TIP3    H235455   6.826   5.307   3.619
11838TIP3   OH235456   2.238   1.392   5.092
11838TIP3    H135457   2.294   1.469   5.090
11838TIP3    H235458   2.154   1.421   5.055
11839TIP3   OH235459   5.556   5.340   1.699
11839TIP3    H135460   5.574   5.363   1.608
11839TIP3    H235461   5.576   5.246   1.704
11840TIP3   OH235462   5.372   6.141   5.505
11840TIP3    H135463   5.362   6.234   5.527
11840TIP3    H235464   5.439   6.140   5.436
11841TIP3   OH235465   0.134   1.702   3.300
11841TIP3    H135466   0.150   1.758   3.376
11841TIP3    H235467   0.188   1.624   3.316
11842TIP3   OH235468   3.299   1.796   1.193
11842TIP3    H135469   3.219   1.748   1.177
11842TIP3    H235470   3.333   1.762   1.276
11843TIP3   OH235471   2.166   7.769   3.747
11843TIP3    H135472   2.102   7.718   3.697
11843TIP3    H235473   2.140   7.860   3.735
11844TIP3   OH235474   5.019   4.249   2.079
11844TIP3    H135475   5.015   4.317   2.012
11844TIP3    H235476   4.944   4.192   2.061
11845TIP3   OH235477   3.311   3.938   0.648
11845TIP3    H135478   3.241   3.901   0.594
11845TIP3    H235479   3.375   3.971   0.585
11846TIP3   OH235480   4.067   5.680   4.620
11846TIP3    H135481   4.058   5.596   4.575
11846TIP3    H235482   4.055   5.658   4.713
11847TIP3   OH235483   6.146   3.584   0.313
11847TIP3    H135484   6.225   3.530   0.309
11847TIP3    H235485   6.169   3.662   0.262
11848TIP3   OH235486   6.137   3.827   3.854
11848TIP3    H135487   6.209   3.833   3.791
11848TIP3    H235488   6.113   3.734   3.855
11849TIP3   OH235489   4.587   0.292   0.677
11849TIP3    H135490   4.656   0.246   0.725
11849TIP3    H235491   4.629   0.373   0.647
11850TIP3   OH235492   6.459   1.477   0.830
11850TIP3    H135493   6.402   1.454   0.903
11850TIP3    H235494   6.485   1.568   0.847
11851TIP3   OH235495   4.504   0.903   5.551
11851TIP3    H135496   4.455   0.826   5.580
11851TIP3    H235497   4.457   0.977   5.591
11852TIP3   OH235498   4.006   1.996   2.214
11852TIP3    H135499   3.991   2.086   2.241
11852TIP3    H235500   4.061   2.003   2.135
11853TIP3   OH235501   2.235   4.316   3.782
11853TIP3    H135502   2.226   4.224   3.807
11853TIP3    H235503   2.265   4.313   3.691
11854TIP3   OH235504   2.434   2.797   1.154
11854TIP3    H135505   2.484   2.829   1.229
11854TIP3    H235506   2.345   2.785   1.187
11855TIP3   OH235507   1.072   5.687   0.724
11855TIP3    H135508   1.113   5.675   0.810
11855TIP3    H235509   1.110   5.768   0.690
11856TIP3   OH235510   1.769   1.859   3.970
11856TIP3    H135511   1.849   1.888   4.013
11856TIP3    H235512   1.702   1.921   3.999
11857TIP3   OH235513   8.117   4.414   0.264
11857TIP3    H135514   8.062   4.423   0.342
11857TIP3    H235515   8.105   4.322   0.238
11858TIP3   OH235516   1.463   4.436   0.713
11858TIP3    H135517   1.533   4.385   0.673
11858TIP3    H235518   1.383   4.402   0.674
11859TIP3   OH235519   3.114   6.490   1.774
11859TIP3    H135520   3.134   6.516   1.684
11859TIP3    H235521   3.065   6.564   1.810
11860TIP3   OH235522   6.139   3.840   0.167
11860TIP3    H135523   6.128   3.924   0.124
11860TIP3    H235524   6.178   3.861   0.252
11861TIP3   OH235525   5.698   5.098   2.211
11861TIP3    H135526   5.770   5.100   2.149
11861TIP3    H235527   5.739   5.117   2.296
11862TIP3   OH235528   8.296   1.243   6.737
11862TIP3    H135529   8.350   1.171   6.705
11862TIP3    H235530   8.206   1.216   6.717
11863TIP3   OH235531   0.387   7.499   1.288
11863TIP3    H135532   0.423   7.428   1.234
11863TIP3    H235533   0.463   7.537   1.332
11864TIP3   OH235534   0.335   3.412   1.549
11864TIP3    H135535   0.292   3.433   1.467
11864TIP3    H235536   0.409   3.356   1.524
11865TIP3   OH235537   5.107   2.677   4.981
11865TIP3    H135538   5.161   2.677   4.901
11865TIP3    H235539   5.108   2.586   5.010
11866TIP3   OH235540   0.565   2.429   6.523
11866TIP3    H135541   0.631   2.462   6.584
11866TIP3    H235542   0.590   2.338   6.507
11867TIP3   OH235543   4.464   7.834   4.799
11867TIP3    H135544   4.530   7.791   4.744
11867TIP3    H235545   4.510   7.910   4.836
11868TIP3   OH235546   5.057   6.702   4.741
11868TIP3    H135547   4.966   6.673   4.734
11868TIP3    H235548   5.094   6.687   4.654
11869TIP3   OH235549   2.609   2.167   4.147
11869TIP3    H135550   2.521   2.196   4.122
11869TIP3    H235551   2.639   2.231   4.210
11870TIP3   OH235552   3.069   5.601   2.014
11870TIP3    H135553   3.009   5.538   1.974
11870TIP3    H235554   3.052   5.683   1.967
11871TIP3   OH235555   5.381   0.469   3.733
11871TIP3    H135556   5.324   0.532   3.689
11871TIP3    H235557   5.463   0.473   3.684
11872TIP3   OH235558   6.953   0.562   0.009
11872TIP3    H135559   6.913   0.609  -0.064
11872TIP3    H235560   6.906   0.593   0.086
11873TIP3   OH235561   1.734   6.465   3.686
11873TIP3    H135562   1.713   6.416   3.765
11873TIP3    H235563   1.796   6.532   3.715
11874TIP3   OH235564   4.348   3.967   5.681
11874TIP3    H135565   4.312   3.996   5.764
11874TIP3    H235566   4.411   3.898   5.704
11875TIP3   OH235567   1.564   2.158   4.941
11875TIP3    H135568   1.470   2.145   4.933
11875TIP3    H235569   1.589   2.105   5.016
11876TIP3   OH235570   8.217   6.248   5.545
11876TIP3    H135571   8.294   6.265   5.599
11876TIP3    H235572   8.246   6.268   5.456
11877TIP3   OH235573   3.113   2.638   5.807
11877TIP3    H135574   3.195   2.657   5.762
11877TIP3    H235575   3.138   2.623   5.898
11878TIP3   OH235576   8.325   4.179   3.696
11878TIP3    H135577   8.326   4.236   3.620
11878TIP3    H235578   8.268   4.106   3.671
11879TIP3   OH235579   4.088   0.590   4.296
11879TIP3    H135580   4.175   0.559   4.321
11879TIP3    H235581   4.048   0.515   4.253
11880TIP3   OH235582   7.014   0.424   1.828
11880TIP3    H135583   7.062   0.356   1.875
11880TIP3    H235584   6.990   0.488   1.895
11881TIP3   OH235585   4.397   2.786   2.900
11881TIP3    H135586   4.308   2.767   2.871
11881TIP3    H235587   4.412   2.728   2.974
11882TIP3   OH235588   6.172   1.294   3.262
11882TIP3    H135589   6.164   1.388   3.282
11882TIP3    H235590   6.214   1.257   3.339
11883TIP3   OH235591   0.267   6.466   3.172
11883TIP3    H135592   0.247   6.426   3.087
11883TIP3    H235593   0.196   6.529   3.186
11884TIP3   OH235594   1.271   7.777   0.764
11884TIP3    H135595   1.267   7.739   0.676
11884TIP3    H235596   1.180   7.780   0.793
11885TIP3   OH235597   6.217   5.250   2.942
11885TIP3    H135598   6.241   5.336   2.909
11885TIP3    H235599   6.219   5.259   3.037
11886TIP3   OH235600   5.674   3.539   5.809
11886TIP3    H135601   5.591   3.497   5.833
11886TIP3    H235602   5.658   3.575   5.721
11887TIP3   OH235603   4.173   5.225   3.411
11887TIP3    H135604   4.116   5.201   3.338
11887TIP3    H235605   4.262   5.212   3.378
11888TIP3   OH235606   3.942   7.784   4.034
11888TIP3    H135607   3.882   7.814   3.966
11888TIP3    H235608   3.934   7.849   4.104
11889TIP3   OH235609   7.750   4.180   6.552
11889TIP3    H135610   7.818   4.114   6.559
11889TIP3    H235611   7.738   4.212   6.641
11890TIP3   OH235612   6.093   4.901   1.348
11890TIP3    H135613   6.149   4.824   1.361
11890TIP3    H235614   6.102   4.951   1.429
11891TIP3   OH235615   5.272   2.836   0.579
11891TIP3    H135616   5.340   2.829   0.512
11891TIP3    H235617   5.190   2.836   0.530
11892TIP3   OH235618   6.313   3.892   4.073
11892TIP3    H135619   6.248   3.866   4.008
11892TIP3    H235620   6.263   3.908   4.153
11893TIP3   OH235621   3.879   7.214   2.931
11893TIP3    H135622   3.931   7.295   2.940
11893TIP3    H235623   3.808   7.224   2.993
11894TIP3   OH235624   1.496   4.710   0.930
11894TIP3    H135625   1.410   4.714   0.887
11894TIP3    H235626   1.556   4.683   0.860
11895TIP3   OH235627   7.761   2.283   2.555
11895TIP3    H135628   7.820   2.303   2.627
11895TIP3    H235629   7.702   2.359   2.551
11896TIP3   OH235630   3.304   5.939   3.054
11896TIP3    H135631   3.383   5.929   3.107
11896TIP3    H235632   3.329   5.908   2.967
11897TIP3   OH235633   5.977   5.213   0.798
11897TIP3    H135634   5.978   5.279   0.729
11897TIP3    H235635   5.997   5.261   0.879
11898TIP3   OH235636   6.446   2.996   4.067
11898TIP3    H135637   6.510   2.998   3.996
11898TIP3    H235638   6.366   3.031   4.028
11899TIP3   OH235639   7.303   0.934   4.066
11899TIP3    H135640   7.341   0.996   4.128
11899TIP3    H235641   7.219   0.910   4.105
11900TIP3   OH235642   7.910   2.342   0.515
11900TIP3    H135643   7.899   2.291   0.435
11900TIP3    H235644   7.887   2.432   0.489
11901TIP3   OH235645   7.151   6.260   2.568
11901TIP3    H135646   7.186   6.179   2.604
11901TIP3    H235647   7.121   6.309   2.644
11902TIP3   OH235648   5.536   0.019   4.858
11902TIP3    H135649   5.463  -0.023   4.904
11902TIP3    H235650   5.551   0.101   4.905
11903TIP3   OH235651   7.594   1.060   3.505
11903TIP3    H135652   7.583   0.978   3.554
11903TIP3    H235653   7.655   1.111   3.558
11904TIP3   OH235654   0.918   1.431   2.769
11904TIP3    H135655   0.940   1.520   2.741
11904TIP3    H235656   0.829   1.438   2.804
11905TIP3   OH235657   0.721   6.962   0.371
11905TIP3    H135658   0.732   7.056   0.357
11905TIP3    H235659   0.742   6.949   0.463
11906TIP3   OH235660   2.118   3.220   3.380
11906TIP3    H135661   2.175   3.296   3.396
11906TIP3    H235662   2.109   3.217   3.285
11907TIP3   OH235663   0.462   1.042   0.110
11907TIP3    H135664   0.381   1.091   0.102
11907TIP3    H235665   0.527   1.106   0.139
11908TIP3   OH235666   4.563   6.025   2.257
11908TIP3    H135667   4.629   5.999   2.192
11908TIP3    H235668   4.526   5.942   2.287
11909TIP3   OH235669   2.745   7.676   5.655
11909TIP3    H135670   2.758   7.718   5.570
11909TIP3    H235671   2.831   7.681   5.698
11910TIP3   OH235672   4.199   0.353   5.165
11910TIP3    H135673   4.182   0.259   5.174
11910TIP3    H235674   4.264   0.372   5.232
11911TIP3   OH235675   4.298   2.101   2.233
11911TIP3    H135676   4.316   2.016   2.193
11911TIP3    H235677   4.310   2.163   2.161
11912TIP3   OH235678   3.954   5.357   0.323
11912TIP3    H135679   3.927   5.437   0.368
11912TIP3    H235680   3.915   5.365   0.236
11913TIP3   OH235681   1.741   6.574   3.189
11913TIP3    H135682   1.824   6.618   3.208
11913TIP3    H235683   1.725   6.519   3.266
11914TIP3   OH235684   8.187   2.297   5.202
11914TIP3    H135685   8.188   2.349   5.282
11914TIP3    H235686   8.138   2.351   5.139
11915TIP3   OH235687   3.819   6.316   4.156
11915TIP3    H135688   3.837   6.404   4.123
11915TIP3    H235689   3.793   6.267   4.078
11916TIP3   OH235690   0.702   0.950   5.154
11916TIP3    H135691   0.648   0.997   5.217
11916TIP3    H235692   0.785   0.998   5.152
11917TIP3   OH235693   1.655   4.016   2.961
11917TIP3    H135694   1.562   4.030   2.980
11917TIP3    H235695   1.663   4.032   2.867
11918TIP3   OH235696   7.601   2.313   4.893
11918TIP3    H135697   7.524   2.299   4.838
11918TIP3    H235698   7.651   2.231   4.886
11919TIP3   OH235699   1.839   7.074   6.722
11919TIP3    H135700   1.744   7.071   6.733
11919TIP3    H235701   1.855   7.026   6.640
11920TIP3   OH235702   4.046   3.075   1.434
11920TIP3    H135703   4.079   3.164   1.423
11920TIP3    H235704   4.033   3.044   1.344
11921TIP3   OH235705   3.640   2.987   4.448
11921TIP3    H135706   3.717   3.014   4.498
11921TIP3    H235707   3.675   2.960   4.363
11922TIP3   OH235708   2.520   2.141   6.747
11922TIP3    H135709   2.579   2.104   6.682
11922TIP3    H235710   2.568   2.215   6.785
11923TIP3   OH235711   1.524   3.655   1.464
11923TIP3    H135712   1.453   3.689   1.518
11923TIP3    H235713   1.575   3.733   1.440
11924TIP3   OH235714   0.552   1.386   3.973
11924TIP3    H135715   0.561   1.362   3.881
11924TIP3    H235716   0.598   1.317   4.020
11925TIP3   OH235717   7.034   2.668   5.126
11925TIP3    H135718   7.080   2.587   5.105
11925TIP3    H235719   6.962   2.671   5.063
11926TIP3   OH235720   6.200   0.906   0.411
11926TIP3    H135721   6.191   0.811   0.420
11926TIP3    H235722   6.239   0.934   0.494
11927TIP3   OH235723   0.692   0.594   2.515
11927TIP3    H135724   0.706   0.586   2.421
11927TIP3    H235725   0.735   0.517   2.552
11928TIP3   OH235726   7.968   4.348   5.480
11928TIP3    H135727   7.986   4.302   5.398
11928TIP3    H235728   7.926   4.283   5.536
11929TIP3   OH235729   3.266   4.471   4.760
11929TIP3    H135730   3.198   4.478   4.694
11929TIP3    H235731   3.240   4.533   4.828
11930TIP3   OH235732   4.109   1.581   2.054
11930TIP3    H135733   4.039   1.645   2.064
11930TIP3    H235734   4.071   1.512   1.998
11931TIP3   OH235735   7.974   0.265   2.130
11931TIP3    H135736   7.975   0.210   2.208
11931TIP3    H235737   7.935   0.209   2.062
11932TIP3   OH235738   0.812   5.761   5.500
11932TIP3    H135739   0.833   5.853   5.482
11932TIP3    H235740   0.778   5.761   5.589
11933TIP3   OH235741   4.305   0.373   1.873
11933TIP3    H135742   4.266   0.296   1.832
11933TIP3    H235743   4.231   0.430   1.893
11934TIP3   OH235744   5.159   0.294   5.150
11934TIP3    H135745   5.147   0.199   5.159
11934TIP3    H235746   5.248   0.310   5.182
11935TIP3   OH235747   6.985   3.118   0.407
11935TIP3    H135748   6.945   3.163   0.332
11935TIP3    H235749   7.072   3.157   0.414
11936TIP3   OH235750   4.168   5.611   1.796
11936TIP3    H135751   4.086   5.655   1.817
11936TIP3    H235752   4.142   5.535   1.744
11937TIP3   OH235753   5.620   7.268   4.935
11937TIP3    H135754   5.553   7.256   4.868
11937TIP3    H235755   5.589   7.217   5.010
11938TIP3   OH235756   3.082   1.398   4.372
11938TIP3    H135757   3.141   1.458   4.417
11938TIP3    H235758   3.082   1.429   4.281
11939TIP3   OH235759   1.258   2.927   3.946
11939TIP3    H135760   1.253   2.907   3.853
11939TIP3    H235761   1.350   2.915   3.969
11940TIP3   OH235762   1.367   6.252   0.094
11940TIP3    H135763   1.410   6.312   0.155
11940TIP3    H235764   1.349   6.174   0.146
11941TIP3   OH235765   0.622   5.653   1.618
11941TIP3    H135766   0.556   5.682   1.555
11941TIP3    H235767   0.662   5.577   1.578
11942TIP3   OH235768   1.089   6.699   5.989
11942TIP3    H135769   1.093   6.787   6.025
11942TIP3    H235770   1.168   6.690   5.937
11943TIP3   OH235771   0.955   0.182   4.194
11943TIP3    H135772   0.995   0.119   4.253
11943TIP3    H235773   1.007   0.178   4.114
11944TIP3   OH235774   4.658   0.519   1.888
11944TIP3    H135775   4.686   0.528   1.797
11944TIP3    H235776   4.739   0.526   1.939
11945TIP3   OH235777   6.641   0.318   5.767
11945TIP3    H135778   6.734   0.334   5.746
11945TIP3    H235779   6.593   0.361   5.697
11946TIP3   OH235780   0.252   6.803   5.961
11946TIP3    H135781   0.256   6.708   5.973
11946TIP3    H235782   0.322   6.823   5.899
11947TIP3   OH235783   8.233   6.909   3.108
11947TIP3    H135784   8.163   6.851   3.139
11947TIP3    H235785   8.252   6.966   3.182
11948TIP3   OH235786   2.746   2.153   2.820
11948TIP3    H135787   2.673   2.108   2.777
11948TIP3    H235788   2.776   2.092   2.887
11949TIP3   OH235789   7.881   6.739   1.466
11949TIP3    H135790   7.954   6.681   1.446
11949TIP3    H235791   7.917   6.805   1.524
11950TIP3   OH235792   6.822   0.975   1.374
11950TIP3    H135793   6.848   1.060   1.340
11950TIP3    H235794   6.888   0.953   1.439
11951TIP3   OH235795   0.210   2.470   4.111
11951TIP3    H135796   0.270   2.539   4.083
11951TIP3    H235797   0.263   2.391   4.115
11952TIP3   OH235798   3.394   7.437   3.850
11952TIP3    H135799   3.482   7.414   3.818
11952TIP3    H235800   3.391   7.403   3.939
11953TIP3   OH235801   4.155   0.459   1.532
11953TIP3    H135802   4.117   0.475   1.619
11953TIP3    H235803   4.245   0.490   1.539
11954TIP3   OH235804   1.987   6.421   0.444
11954TIP3    H135805   1.976   6.328   0.422
11954TIP3    H235806   1.899   6.451   0.465
11955TIP3   OH235807   0.336   3.206   5.635
11955TIP3    H135808   0.389   3.277   5.671
11955TIP3    H235809   0.400   3.138   5.613
11956TIP3   OH235810   3.131   7.025   0.971
11956TIP3    H135811   3.199   7.011   1.037
11956TIP3    H235812   3.166   7.094   0.915
11957TIP3   OH235813   1.303   2.472   0.083
11957TIP3    H135814   1.243   2.426   0.023
11957TIP3    H235815   1.247   2.536   0.126
11958TIP3   OH235816   3.172   7.288   5.055
11958TIP3    H135817   3.146   7.318   4.968
11958TIP3    H235818   3.244   7.227   5.039
11959TIP3   OH235819   6.189   6.230   4.789
11959TIP3    H135820   6.152   6.208   4.874
11959TIP3    H235821   6.249   6.303   4.808
11960TIP3   OH235822   3.301   7.655   0.540
11960TIP3    H135823   3.322   7.702   0.460
11960TIP3    H235824   3.359   7.693   0.607
11961TIP3   OH235825   5.141   6.366   0.188
11961TIP3    H135826   5.081   6.293   0.203
11961TIP3    H235827   5.214   6.351   0.248
11962TIP3   OH235828   4.886   4.052   5.337
11962TIP3    H135829   4.849   4.030   5.422
11962TIP3    H235830   4.975   4.018   5.341
11963TIP3   OH235831   6.852   1.052   2.336
11963TIP3    H135832   6.833   1.030   2.427
11963TIP3    H235833   6.803   1.133   2.321
11964TIP3   OH235834   7.237   2.849   1.180
11964TIP3    H135835   7.269   2.845   1.270
11964TIP3    H235836   7.227   2.757   1.154
11965TIP3   OH235837   1.065   4.962   2.258
11965TIP3    H135838   0.978   4.926   2.278
11965TIP3    H235839   1.054   5.057   2.267
11966TIP3   OH235840   1.565   0.549   1.524
11966TIP3    H135841   1.474   0.548   1.494
11966TIP3    H235842   1.584   0.642   1.539
11967TIP3   OH235843   2.805   5.409   6.415
11967TIP3    H135844   2.883   5.446   6.374
11967TIP3    H235845   2.817   5.423   6.509
11968TIP3   OH235846   3.305   2.708   4.849
11968TIP3    H135847   3.345   2.622   4.834
11968TIP3    H235848   3.358   2.746   4.919
11969TIP3   OH235849   4.894   3.040   2.804
11969TIP3    H135850   4.819   2.982   2.815
11969TIP3    H235851   4.875   3.088   2.723
11970TIP3   OH235852   6.878   6.133   3.130
11970TIP3    H135853   6.926   6.147   3.212
11970TIP3    H235854   6.932   6.070   3.082
11971TIP3   OH235855   5.064   2.470   1.902
11971TIP3    H135856   5.111   2.542   1.859
11971TIP3    H235857   5.076   2.485   1.995
11972TIP3   OH235858   3.505   0.438   6.692
11972TIP3    H135859   3.538   0.349   6.691
11972TIP3    H235860   3.581   0.493   6.675
11973TIP3   OH235861   7.004   4.851   1.038
11973TIP3    H135862   6.978   4.760   1.024
11973TIP3    H235863   6.935   4.902   0.996
11974TIP3   OH235864   3.162   7.412   0.320
11974TIP3    H135865   3.178   7.330   0.273
11974TIP3    H235866   3.074   7.439   0.294
11975TIP3   OH235867   7.104   6.966   6.510
11975TIP3    H135868   7.025   7.005   6.473
11975TIP3    H235869   7.165   7.039   6.520
11976TIP3   OH235870   0.316   1.071   3.332
11976TIP3    H135871   0.243   1.133   3.337
11976TIP3    H235872   0.301   1.022   3.252
11977TIP3   OH235873   3.106   5.068   3.763
11977TIP3    H135874   3.127   5.128   3.834
11977TIP3    H235875   3.190   5.048   3.722
11978TIP3   OH235876   6.125   6.458   6.070
11978TIP3    H135877   6.093   6.541   6.035
11978TIP3    H235878   6.083   6.392   6.015
11979TIP3   OH235879   0.523   5.870   6.364
11979TIP3    H135880   0.596   5.920   6.400
11979TIP3    H235881   0.508   5.801   6.429
11980TIP3   OH235882   8.012   1.910   5.654
11980TIP3    H135883   7.963   1.984   5.688
11980TIP3    H235884   8.103   1.940   5.652
11981TIP3   OH235885   3.042   1.041   3.694
11981TIP3    H135886   3.119   1.005   3.738
11981TIP3    H235887   3.001   1.099   3.759
11982TIP3   OH235888   3.489   1.916   6.275
11982TIP3    H135889   3.553   1.958   6.218
11982TIP3    H235890   3.468   1.983   6.340
11983TIP3   OH235891   5.039   2.425   2.329
11983TIP3    H135892   5.112   2.366   2.307
11983TIP3    H235893   5.066   2.510   2.294
11984TIP3   OH235894   0.956   5.713   1.970
11984TIP3    H135895   0.890   5.763   1.923
11984TIP3    H235896   1.004   5.778   2.022
11985TIP3   OH235897   4.595   4.426   0.358
11985TIP3    H135898   4.509   4.466   0.345
11985TIP3    H235899   4.626   4.464   0.440
11986TIP3   OH235900   7.370   3.861   2.250
11986TIP3    H135901   7.289   3.849   2.201
11986TIP3    H235902   7.428   3.908   2.190
11987TIP3   OH235903   3.290   0.943   0.449
11987TIP3    H135904   3.318   0.991   0.371
11987TIP3    H235905   3.363   0.953   0.510
11988TIP3   OH235906   3.429   1.935   1.010
11988TIP3    H135907   3.421   1.847   0.972
11988TIP3    H235908   3.377   1.932   1.090
11989TIP3   OH235909   1.722   1.092   1.069
11989TIP3    H135910   1.679   1.030   1.128
11989TIP3    H235911   1.780   1.037   1.016
11990TIP3   OH235912   6.189   4.969   2.909
11990TIP3    H135913   6.282   4.979   2.928
11990TIP3    H235914   6.158   5.059   2.895
11991TIP3   OH235915   1.889   6.868   3.460
11991TIP3    H135916   1.932   6.831   3.383
11991TIP3    H235917   1.805   6.823   3.465
11992TIP3   OH235918   7.400   3.510   3.137
11992TIP3    H135919   7.339   3.578   3.107
11992TIP3    H235920   7.487   3.545   3.117
11993TIP3   OH235921   5.046   4.566   0.846
11993TIP3    H135922   5.104   4.643   0.845
11993TIP3    H235923   5.015   4.560   0.936
11994TIP3   OH235924   6.540   4.614   5.724
11994TIP3    H135925   6.568   4.704   5.708
11994TIP3    H235926   6.486   4.591   5.648
11995TIP3   OH235927   0.665   5.685   2.612
11995TIP3    H135928   0.582   5.692   2.564
11995TIP3    H235929   0.717   5.623   2.561
11996TIP3   OH235930   1.756   6.178   3.578
11996TIP3    H135931   1.842   6.137   3.579
11996TIP3    H235932   1.771   6.268   3.607
11997TIP3   OH235933   2.528   5.649   5.927
11997TIP3    H135934   2.534   5.602   6.010
11997TIP3    H235935   2.572   5.732   5.943
11998TIP3   OH235936   0.552   5.425   1.022
11998TIP3    H135937   0.511   5.493   1.075
11998TIP3    H235938   0.545   5.346   1.075
11999TIP3   OH235939   4.143   1.860   5.610
11999TIP3    H135940   4.154   1.845   5.516
11999TIP3    H235941   4.228   1.842   5.648
12000TIP3   OH235942   3.436   5.568   5.363
12000TIP3    H135943   3.452   5.654   5.324
12000TIP3    H235944   3.518   5.520   5.348
12001TIP3   OH235945   3.293   0.314   1.010
12001TIP3    H135946   3.229   0.298   0.941
12001TIP3    H235947   3.377   0.317   0.964
12002TIP3   OH235948   5.236   7.492   6.349
12002TIP3    H135949   5.276   7.459   6.268
12002TIP3    H235950   5.216   7.584   6.330
12003TIP3   OH235951   3.415   2.807   2.564
12003TIP3    H135952   3.445   2.895   2.587
12003TIP3    H235953   3.331   2.821   2.520
12004TIP3   OH235954   6.392   7.371   2.891
12004TIP3    H135955   6.419   7.293   2.938
12004TIP3    H235956   6.307   7.394   2.929
12005TIP3   OH235957   2.966   6.162   2.243
12005TIP3    H135958   3.045   6.108   2.237
12005TIP3    H235959   2.964   6.211   2.161
12006TIP3   OH235960   7.030   1.639   1.425
12006TIP3    H135961   7.107   1.677   1.382
12006TIP3    H235962   6.984   1.714   1.463
12007TIP3   OH235963   1.233   3.765   2.527
12007TIP3    H135964   1.273   3.704   2.466
12007TIP3    H235965   1.201   3.837   2.472
12008TIP3   OH235966   5.029   5.198   4.678
12008TIP3    H135967   5.032   5.197   4.582
12008TIP3    H235968   4.963   5.264   4.698
12009TIP3   OH235969   4.541   6.243   6.278
12009TIP3    H135970   4.466   6.246   6.218
12009TIP3    H235971   4.520   6.308   6.345
12010TIP3   OH235972   4.960   1.487   3.782
12010TIP3    H135973   4.973   1.399   3.746
12010TIP3    H235974   4.876   1.516   3.746
12011TIP3   OH235975   7.513   4.090   6.401
12011TIP3    H135976   7.585   4.113   6.459
12011TIP3    H235977   7.546   4.109   6.313
12012TIP3   OH235978   5.977   4.968  -0.012
12012TIP3    H135979   6.025   4.984  -0.093
12012TIP3    H235980   5.908   4.906  -0.036
12013TIP3   OH235981   8.232   6.872   5.752
12013TIP3    H135982   8.275   6.799   5.708
12013TIP3    H235983   8.184   6.917   5.682
12014TIP3   OH235984   6.875   6.808   3.382
12014TIP3    H135985   6.857   6.764   3.465
12014TIP3    H235986   6.803   6.782   3.325
12015TIP3   OH235987   5.995   6.048   5.374
12015TIP3    H135988   5.936   5.981   5.410
12015TIP3    H235989   6.050   6.000   5.312
12016TIP3   OH235990   5.661   3.752   3.152
12016TIP3    H135991   5.742   3.728   3.106
12016TIP3    H235992   5.685   3.750   3.245
12017TIP3   OH235993   1.977   2.662   2.646
12017TIP3    H135994   2.001   2.585   2.698
12017TIP3    H235995   2.006   2.736   2.699
12018TIP3   OH235996   1.551   6.569   5.519
12018TIP3    H135997   1.534   6.640   5.457
12018TIP3    H235998   1.468   6.555   5.563
12019TIP3   OH235999   4.958   1.669   4.453
12019TIP3    H136000   4.995   1.584   4.428
12019TIP3    H236001   4.909   1.697   4.375
12020TIP3   OH236002   0.295   5.636   2.048
12020TIP3    H136003   0.237   5.631   2.123
12020TIP3    H236004   0.252   5.583   1.980
12021TIP3   OH236005   8.181   3.593   3.208
12021TIP3    H136006   8.260   3.591   3.155
12021TIP3    H236007   8.149   3.503   3.208
12022TIP3   OH236008   2.449   0.851   4.800
12022TIP3    H136009   2.531   0.813   4.767
12022TIP3    H236010   2.396   0.866   4.722
12023TIP3   OH236011   6.277   1.613   4.349
12023TIP3    H136012   6.204   1.558   4.376
12023TIP3    H236013   6.279   1.683   4.413
12024TIP3   OH236014   0.850   0.881   1.742
12024TIP3    H136015   0.837   0.789   1.720
12024TIP3    H236016   0.799   0.893   1.823
12025TIP3   OH236017   4.876   3.971   3.533
12025TIP3    H136018   4.832   3.917   3.599
12025TIP3    H236019   4.968   3.972   3.559
12026TIP3   OH236020   2.794   3.909   4.938
12026TIP3    H136021   2.745   3.991   4.928
12026TIP3    H236022   2.855   3.907   4.864
12027TIP3   OH236023   6.539   1.235   4.703
12027TIP3    H136024   6.542   1.283   4.620
12027TIP3    H236025   6.448   1.246   4.733
12028TIP3   OH236026   0.386   4.756   1.714
12028TIP3    H136027   0.479   4.732   1.714
12028TIP3    H236028   0.380   4.828   1.776
12029TIP3   OH236029   5.940   1.353   5.820
12029TIP3    H136030   6.009   1.318   5.876
12029TIP3    H236031   5.984   1.368   5.736
12030TIP3   OH236032   4.054   4.514   0.486
12030TIP3    H136033   4.126   4.524   0.425
12030TIP3    H236034   4.094   4.524   0.572
12031TIP3   OH236035   7.790   2.913   2.005
12031TIP3    H136036   7.850   2.950   2.070
12031TIP3    H236037   7.763   2.829   2.042
12032TIP3   OH236038   3.734   5.672   2.472
12032TIP3    H136039   3.677   5.744   2.447
12032TIP3    H236040   3.821   5.712   2.482
12033TIP3   OH236041   6.522   3.821   1.433
12033TIP3    H136042   6.453   3.877   1.397
12033TIP3    H236043   6.601   3.850   1.388
12034TIP3   OH236044   0.169   5.300   2.149
12034TIP3    H136045   0.120   5.218   2.150
12034TIP3    H236046   0.261   5.273   2.155
12035TIP3   OH236047   6.866   2.848   2.173
12035TIP3    H136048   6.826   2.934   2.157
12035TIP3    H236049   6.813   2.787   2.123
12036TIP3   OH236050   7.195   1.309   2.050
12036TIP3    H136051   7.146   1.227   2.059
12036TIP3    H236052   7.265   1.289   1.988
12037TIP3   OH236053   7.054   6.866   0.101
12037TIP3    H136054   6.982   6.911   0.057
12037TIP3    H236055   7.033   6.873   0.194
12038TIP3   OH236056   7.485   7.085   1.707
12038TIP3    H136057   7.544   7.103   1.633
12038TIP3    H236058   7.468   6.991   1.702
12039TIP3   OH236059   0.838   4.621   3.582
12039TIP3    H136060   0.807   4.617   3.492
12039TIP3    H236061   0.854   4.714   3.597
12040TIP3   OH236062   2.893   6.442   6.559
12040TIP3    H136063   2.895   6.371   6.623
12040TIP3    H236064   2.984   6.450   6.530
12041TIP3   OH236065   1.684   6.033   2.989
12041TIP3    H136066   1.657   5.943   2.971
12041TIP3    H236067   1.693   6.036   3.085
12042TIP3   OH236068   1.108   3.041   5.711
12042TIP3    H136069   1.158   2.975   5.663
12042TIP3    H236070   1.092   3.001   5.797
12043TIP3   OH236071   3.669   5.796   0.970
12043TIP3    H136072   3.591   5.837   1.009
12043TIP3    H236073   3.730   5.868   0.957
12044TIP3   OH236074   0.575   3.454   4.056
12044TIP3    H136075   0.585   3.376   4.002
12044TIP3    H236076   0.591   3.527   3.995
12045TIP3   OH236077   1.116   6.741   2.659
12045TIP3    H136078   1.106   6.675   2.591
12045TIP3    H236079   1.206   6.731   2.690
12046TIP3   OH236080   5.885   3.814   0.662
12046TIP3    H136081   5.902   3.904   0.633
12046TIP3    H236082   5.817   3.782   0.603
12047TIP3   OH236083   0.925   4.730   3.946
12047TIP3    H136084   1.018   4.755   3.948
12047TIP3    H236085   0.920   4.652   4.001
12048TIP3   OH236086   4.044   6.072   4.218
12048TIP3    H136087   3.961   6.079   4.170
12048TIP3    H236088   4.111   6.067   4.150
12049TIP3   OH236089   8.100   0.081   1.509
12049TIP3    H136090   8.145   0.146   1.454
12049TIP3    H236091   8.066   0.017   1.447
12050TIP3   OH236092   0.019   2.589   6.279
12050TIP3    H136093  -0.015   2.510   6.321
12050TIP3    H236094   0.052   2.642   6.351
12051TIP3   OH236095   6.471   5.014   0.094
12051TIP3    H136096   6.459   5.109   0.099
12051TIP3    H236097   6.503   4.989   0.180
12052TIP3   OH236098   1.216   0.664   2.215
12052TIP3    H136099   1.232   0.746   2.168
12052TIP3    H236100   1.123   0.669   2.241
12053TIP3   OH236101   5.005   6.142   0.180
12053TIP3    H136102   5.016   6.065   0.124
12053TIP3    H236103   4.984   6.106   0.266
12054TIP3   OH236104   0.646   4.543   4.716
12054TIP3    H136105   0.670   4.627   4.754
12054TIP3    H236106   0.715   4.483   4.745
12055TIP3   OH236107   1.314   4.403   4.126
12055TIP3    H136108   1.397   4.357   4.136
12055TIP3    H236109   1.335   4.494   4.148
12056TIP3   OH236110   3.588   2.377   2.451
12056TIP3    H136111   3.678   2.345   2.440
12056TIP3    H236112   3.564   2.352   2.540
12057TIP3   OH236113   3.033   5.817   3.004
12057TIP3    H136114   3.113   5.863   3.029
12057TIP3    H236115   3.018   5.754   3.075
12058TIP3   OH236116   1.204   7.758   4.860
12058TIP3    H136117   1.184   7.833   4.804
12058TIP3    H236118   1.194   7.681   4.803
12059TIP3   OH236119   1.799   5.649   0.801
12059TIP3    H136120   1.760   5.647   0.889
12059TIP3    H236121   1.872   5.709   0.808
12060TIP3   OH236122   0.151   7.602   0.435
12060TIP3    H136123   0.190   7.641   0.357
12060TIP3    H236124   0.188   7.514   0.440
12061TIP3   OH236125   4.037   0.563   4.721
12061TIP3    H136126   4.113   0.513   4.749
12061TIP3    H236127   3.978   0.498   4.683
12062TIP3   OH236128   5.685   2.198   3.403
12062TIP3    H136129   5.685   2.114   3.357
12062TIP3    H236130   5.630   2.184   3.479
12063TIP3   OH236131   5.334   1.137   0.479
12063TIP3    H136132   5.295   1.073   0.538
12063TIP3    H236133   5.287   1.218   0.496
12064TIP3   OH236134   5.198   6.667   0.427
12064TIP3    H136135   5.172   6.758   0.446
12064TIP3    H236136   5.195   6.624   0.513
12065TIP3   OH236137   0.847   5.999   3.543
12065TIP3    H136138   0.897   6.079   3.529
12065TIP3    H236139   0.807   5.981   3.458
12066TIP3   OH236140   5.422   3.256   4.635
12066TIP3    H136141   5.341   3.306   4.643
12066TIP3    H236142   5.485   3.318   4.600
12067TIP3   OH236143   3.841   6.787   1.263
12067TIP3    H136144   3.868   6.766   1.352
12067TIP3    H236145   3.746   6.795   1.267
12068TIP3   OH236146   1.754   1.131   5.101
12068TIP3    H136147   1.823   1.125   5.034
12068TIP3    H236148   1.802   1.133   5.184
12069TIP3   OH236149   4.905   7.695   0.145
12069TIP3    H136150   4.883   7.611   0.106
12069TIP3    H236151   4.904   7.679   0.239
12070TIP3   OH236152   6.339   3.504   1.370
12070TIP3    H136153   6.286   3.578   1.342
12070TIP3    H236154   6.349   3.516   1.464
12071TIP3   OH236155   2.034   6.037   4.546
12071TIP3    H136156   2.119   6.003   4.518
12071TIP3    H236157   2.001   5.972   4.607
12072TIP3   OH236158   3.296   5.683   6.159
12072TIP3    H136159   3.356   5.687   6.086
12072TIP3    H236160   3.225   5.743   6.136
12073TIP3   OH236161   2.178   3.225   5.398
12073TIP3    H136162   2.142   3.288   5.335
12073TIP3    H236163   2.214   3.280   5.468
12074TIP3   OH236164   5.979   6.625   4.085
12074TIP3    H136165   6.051   6.649   4.144
12074TIP3    H236166   5.926   6.564   4.136
12075TIP3   OH236167   6.211   0.834   1.065
12075TIP3    H136168   6.166   0.918   1.064
12075TIP3    H236169   6.224   0.814   1.157
12076TIP3   OH236170   7.799   6.931   5.420
12076TIP3    H136171   7.886   6.936   5.461
12076TIP3    H236172   7.782   6.837   5.411
12077TIP3   OH236173   7.219   1.045   5.051
12077TIP3    H136174   7.276   1.118   5.027
12077TIP3    H236175   7.131   1.076   5.033
12078TIP3   OH236176   0.679   0.327   4.609
12078TIP3    H136177   0.698   0.368   4.693
12078TIP3    H236178   0.676   0.233   4.627
12079TIP3   OH236179   3.514   4.635   5.665
12079TIP3    H136180   3.481   4.699   5.602
12079TIP3    H236181   3.534   4.686   5.743
12080TIP3   OH236182   2.002   4.294   0.328
12080TIP3    H136183   1.967   4.206   0.345
12080TIP3    H236184   1.927   4.352   0.338
12081TIP3   OH236185   1.391   0.209   5.254
12081TIP3    H136186   1.349   0.147   5.314
12081TIP3    H236187   1.400   0.289   5.306
12082TIP3   OH236188   4.784   0.106   3.398
12082TIP3    H136189   4.717   0.097   3.330
12082TIP3    H236190   4.858   0.055   3.365
12083TIP3   OH236191   8.286   5.016   3.908
12083TIP3    H136192   8.262   5.037   3.998
12083TIP3    H236193   8.258   4.925   3.897
12084TIP3   OH236194   2.393   7.136   1.471
12084TIP3    H136195   2.361   7.046   1.464
12084TIP3    H236196   2.442   7.137   1.553
12085TIP3   OH236197   2.036   4.434   4.375
12085TIP3    H136198   2.050   4.388   4.292
12085TIP3    H236199   1.966   4.497   4.356
12086TIP3   OH236200   2.026   7.737   2.815
12086TIP3    H136201   2.082   7.766   2.886
12086TIP3    H236202   2.052   7.646   2.799
12087TIP3   OH236203   2.380   4.670   0.089
12087TIP3    H136204   2.301   4.637   0.132
12087TIP3    H236205   2.349   4.740   0.031
12088TIP3   OH236206   7.250   2.675   3.434
12088TIP3    H136207   7.318   2.677   3.500
12088TIP3    H236208   7.168   2.686   3.483
12089TIP3   OH236209   2.300   5.508   4.401
12089TIP3    H136210   2.292   5.513   4.305
12089TIP3    H236211   2.307   5.414   4.419
12090TIP3   OH236212   6.063   0.330   5.329
12090TIP3    H136213   6.141   0.285   5.295
12090TIP3    H236214   6.046   0.401   5.266
12091TIP3   OH236215   6.563   4.055   5.701
12091TIP3    H136216   6.535   4.007   5.779
12091TIP3    H236217   6.538   3.999   5.628
12092TIP3   OH236218   0.587   2.988   4.225
12092TIP3    H136219   0.609   3.044   4.299
12092TIP3    H236220   0.532   2.919   4.262
12093TIP3   OH236221   3.003   4.880   5.012
12093TIP3    H136222   2.930   4.866   5.071
12093TIP3    H236223   2.973   4.947   4.951
12094TIP3   OH236224   8.019   4.582   4.833
12094TIP3    H136225   8.046   4.597   4.924
12094TIP3    H236226   8.026   4.487   4.822
12095TIP3   OH236227   1.981   2.675   4.659
12095TIP3    H136228   1.941   2.651   4.743
12095TIP3    H236229   1.990   2.770   4.664
12096TIP3   OH236230   3.413   1.666   3.896
12096TIP3    H136231   3.477   1.722   3.940
12096TIP3    H236232   3.334   1.673   3.949
12097TIP3   OH236233   4.260   7.024   3.431
12097TIP3    H136234   4.214   7.036   3.348
12097TIP3    H236235   4.314   6.946   3.417
12098TIP3   OH236236   2.264   4.479   1.752
12098TIP3    H136237   2.235   4.389   1.751
12098TIP3    H236238   2.260   4.507   1.661
12099TIP3   OH236239   6.229   0.549   3.467
12099TIP3    H136240   6.292   0.621   3.479
12099TIP3    H236241   6.182   0.571   3.387
12100TIP3   OH236242   8.065   6.301   3.990
12100TIP3    H136243   8.126   6.311   3.917
12100TIP3    H236244   8.017   6.221   3.971
12101TIP3   OH236245   3.355   1.193   6.295
12101TIP3    H136246   3.262   1.186   6.271
12101TIP3    H236247   3.363   1.280   6.333
12102TIP3   OH236248   7.153   3.068   1.060
12102TIP3    H136249   7.194   3.138   1.111
12102TIP3    H236250   7.176   2.988   1.107
12103TIP3   OH236251   3.146   5.333   0.553
12103TIP3    H136252   3.115   5.309   0.466
12103TIP3    H236253   3.173   5.424   0.544
12104TIP3   OH236254   3.582   1.055   6.243
12104TIP3    H136255   3.671   1.084   6.263
12104TIP3    H236256   3.525   1.118   6.287
12105TIP3   OH236257   7.788   1.238   2.181
12105TIP3    H136258   7.842   1.315   2.198
12105TIP3    H236259   7.791   1.187   2.262
12106TIP3   OH236260   3.905   5.489   1.351
12106TIP3    H136261   3.826   5.534   1.322
12106TIP3    H236262   3.977   5.540   1.313
12107TIP3   OH236263   6.674   6.043   1.168
12107TIP3    H136264   6.711   5.959   1.196
12107TIP3    H236265   6.750   6.101   1.162
12108TIP3   OH236266   0.633   4.506   2.453
12108TIP3    H136267   0.711   4.452   2.464
12108TIP3    H236268   0.622   4.549   2.538
12109TIP3   OH236269   4.965   0.623   0.492
12109TIP3    H136270   4.995   0.627   0.583
12109TIP3    H236271   5.039   0.657   0.441
12110TIP3   OH236272   2.348   7.620   1.619
12110TIP3    H136273   2.384   7.614   1.530
12110TIP3    H236274   2.350   7.530   1.651
12111TIP3   OH236275   0.800   4.319   6.655
12111TIP3    H136276   0.751   4.399   6.633
12111TIP3    H236277   0.797   4.315   6.750
12112TIP3   OH236278   7.382   5.308   0.561
12112TIP3    H136279   7.330   5.228   0.555
12112TIP3    H236280   7.384   5.328   0.654
12113TIP3   OH236281   6.327   0.684   5.533
12113TIP3    H136282   6.267   0.737   5.585
12113TIP3    H236283   6.413   0.724   5.546
12114TIP3   OH236284   8.179   1.818   3.441
12114TIP3    H136285   8.193   1.912   3.427
12114TIP3    H236286   8.263   1.777   3.420
12115TIP3   OH236287   3.272   4.782   0.410
12115TIP3    H136288   3.200   4.812   0.355
12115TIP3    H236289   3.231   4.749   0.489
12116TIP3   OH236290   2.155   6.203   2.959
12116TIP3    H136291   2.206   6.276   2.925
12116TIP3    H236292   2.072   6.243   2.986
12117TIP3   OH236293   2.007   7.366   3.268
12117TIP3    H136294   2.046   7.282   3.290
12117TIP3    H236295   1.914   7.347   3.255
12118TIP3   OH236296   8.128   0.547   2.404
12118TIP3    H136297   8.154   0.564   2.313
12118TIP3    H236298   8.170   0.615   2.455
12119TIP3   OH236299   3.726   3.454   5.050
12119TIP3    H136300   3.674   3.463   5.130
12119TIP3    H236301   3.816   3.448   5.081
12120TIP3   OH236302   4.849   2.642   4.772
12120TIP3    H136303   4.901   2.722   4.760
12120TIP3    H236304   4.765   2.674   4.805
12121TIP3   OH236305   3.193   0.356  -0.044
12121TIP3    H136306   3.189   0.375   0.050
12121TIP3    H236307   3.277   0.392  -0.072
12122TIP3   OH236308   0.172   0.754   1.983
12122TIP3    H136309   0.160   0.785   1.893
12122TIP3    H236310   0.224   0.822   2.025
12123TIP3   OH236311   7.595   3.817   1.720
12123TIP3    H136312   7.676   3.861   1.697
12123TIP3    H236313   7.528   3.885   1.715
12124TIP3   OH236314   4.575   5.030   0.676
12124TIP3    H136315   4.659   4.985   0.679
12124TIP3    H236316   4.594   5.114   0.634
12125TIP3   OH236317   3.893   2.656   0.563
12125TIP3    H136318   3.891   2.560   0.566
12125TIP3    H236319   3.873   2.677   0.471
12126TIP3   OH236320   3.724   3.869   0.996
12126TIP3    H136321   3.660   3.798   0.986
12126TIP3    H236322   3.754   3.887   0.907
12127TIP3   OH236323   4.876   7.566   6.274
12127TIP3    H136324   4.907   7.491   6.224
12127TIP3    H236325   4.949   7.628   6.272
12128TIP3   OH236326   5.019   4.995   5.798
12128TIP3    H136327   5.055   4.960   5.716
12128TIP3    H236328   5.096   5.022   5.848
12129TIP3   OH236329   7.054   0.506   0.987
12129TIP3    H136330   7.050   0.414   0.962
12129TIP3    H236331   7.100   0.549   0.915
12130TIP3   OH236332   6.366   4.488   2.009
12130TIP3    H136333   6.276   4.471   2.036
12130TIP3    H236334   6.375   4.445   1.925
12131TIP3   OH236335   1.372   7.358   6.551
12131TIP3    H136336   1.366   7.263   6.545
12131TIP3    H236337   1.454   7.373   6.598
12132TIP3   OH236338   3.651   2.560   5.736
12132TIP3    H136339   3.664   2.537   5.644
12132TIP3    H236340   3.735   2.597   5.763
12133TIP3   OH236341   6.724   5.456   2.600
12133TIP3    H136342   6.732   5.397   2.525
12133TIP3    H236343   6.750   5.542   2.566
12134TIP3   OH236344   5.899   4.377   0.226
12134TIP3    H136345   5.931   4.455   0.180
12134TIP3    H236346   5.972   4.352   0.283
12135TIP3   OH236347   4.799   3.023   0.269
12135TIP3    H136348   4.725   2.988   0.319
12135TIP3    H236349   4.807   3.113   0.298
12136TIP3   OH236350   2.830   4.130   3.693
12136TIP3    H136351   2.746   4.172   3.711
12136TIP3    H236352   2.884   4.199   3.656
12137TIP3   OH236353   7.231   4.080   6.422
12137TIP3    H136354   7.194   4.105   6.337
12137TIP3    H236355   7.326   4.082   6.408
12138TIP3   OH236356   7.804   1.259   0.935
12138TIP3    H136357   7.725   1.249   0.988
12138TIP3    H236358   7.837   1.170   0.925
12139TIP3   OH236359   7.381   7.670   2.265
12139TIP3    H136360   7.343   7.678   2.352
12139TIP3    H236361   7.339   7.740   2.214
12140TIP3   OH236362   3.511   6.129   4.489
12140TIP3    H136363   3.494   6.141   4.395
12140TIP3    H236364   3.561   6.047   4.494
12141TIP3   OH236365   1.825   4.449   6.495
12141TIP3    H136366   1.901   4.502   6.472
12141TIP3    H236367   1.770   4.507   6.547
12142TIP3   OH236368   7.384   4.906   4.013
12142TIP3    H136369   7.393   4.932   3.921
12142TIP3    H236370   7.369   4.811   4.009
12143TIP3   OH236371   1.292   3.188   1.501
12143TIP3    H136372   1.383   3.167   1.519
12143TIP3    H236373   1.294   3.233   1.417
12144TIP3   OH236374   3.658   7.220   4.821
12144TIP3    H136375   3.676   7.303   4.777
12144TIP3    H236376   3.743   7.189   4.852
12145TIP3   OH236377   6.681   3.239   2.910
12145TIP3    H136378   6.702   3.332   2.904
12145TIP3    H236379   6.766   3.196   2.914
12146TIP3   OH236380   0.928   6.747   4.882
12146TIP3    H136381   0.948   6.838   4.858
12146TIP3    H236382   0.858   6.754   4.946
12147TIP3   OH236383   4.150   0.065   3.084
12147TIP3    H136384   4.189   0.070   3.171
12147TIP3    H236385   4.220   0.094   3.025
12148TIP3   OH236386   2.183   0.660   0.865
12148TIP3    H136387   2.099   0.662   0.819
12148TIP3    H236388   2.211   0.568   0.860
12149TIP3   OH236389   1.554   4.557   0.222
12149TIP3    H136390   1.493   4.583   0.290
12149TIP3    H236391   1.503   4.496   0.167
12150TIP3   OH236392   4.305   3.252   5.976
12150TIP3    H136393   4.319   3.165   5.937
12150TIP3    H236394   4.212   3.253   5.997
12151TIP3   OH236395   4.957   4.446   1.907
12151TIP3    H136396   4.907   4.493   1.974
12151TIP3    H236397   5.010   4.514   1.865
12152TIP3   OH236398   3.343   1.626   2.025
12152TIP3    H136399   3.275   1.559   2.014
12152TIP3    H236400   3.337   1.679   1.945
12153TIP3   OH236401   1.031   3.403   5.720
12153TIP3    H136402   0.966   3.448   5.665
12153TIP3    H236403   1.112   3.407   5.669
12154TIP3   OH236404   5.814   3.613   6.292
12154TIP3    H136405   5.720   3.610   6.273
12154TIP3    H236406   5.825   3.557   6.369
12155TIP3   OH236407   0.553   1.077   0.846
12155TIP3    H136408   0.504   1.159   0.847
12155TIP3    H236409   0.506   1.021   0.785
12156TIP3   OH236410   3.705   1.504   4.469
12156TIP3    H136411   3.765   1.429   4.463
12156TIP3    H236412   3.712   1.546   4.383
12157TIP3   OH236413   2.888   7.066   3.287
12157TIP3    H136414   2.901   7.007   3.361
12157TIP3    H236415   2.974   7.106   3.273
12158TIP3   OH236416   8.149   2.115   6.519
12158TIP3    H136417   8.065   2.117   6.565
12158TIP3    H236418   8.137   2.052   6.449
12159TIP3   OH236419   0.138   4.577   5.949
12159TIP3    H136420   0.068   4.583   6.014
12159TIP3    H236421   0.126   4.653   5.893
12160TIP3   OH236422   0.287  -0.076   5.614
12160TIP3    H136423   0.200  -0.074   5.655
12160TIP3    H236424   0.290   0.004   5.561
12161TIP3   OH236425   3.838   0.017   5.083
12161TIP3    H136426   3.900  -0.035   5.033
12161TIP3    H236427   3.760  -0.039   5.091
12162TIP3   OH236428   5.397   0.906   2.370
12162TIP3    H136429   5.419   0.922   2.278
12162TIP3    H236430   5.480   0.914   2.416
12163TIP3   OH236431   0.200   1.621   1.631
12163TIP3    H136432   0.286   1.597   1.667
12163TIP3    H236433   0.216   1.702   1.583
12164TIP3   OH236434   1.323   5.600   3.750
12164TIP3    H136435   1.342   5.528   3.811
12164TIP3    H236436   1.249   5.569   3.698
12165TIP3   OH236437   4.254   3.670   4.947
12165TIP3    H136438   4.263   3.623   5.031
12165TIP3    H236439   4.247   3.762   4.972
12166TIP3   OH236440   3.073   4.842   3.393
12166TIP3    H136441   3.023   4.771   3.432
12166TIP3    H236442   3.160   4.836   3.433
12167TIP3   OH236443   2.987   2.840   1.667
12167TIP3    H136444   2.961   2.868   1.755
12167TIP3    H236445   2.946   2.754   1.656
12168TIP3   OH236446   5.651   6.113   2.115
12168TIP3    H136447   5.715   6.042   2.125
12168TIP3    H236448   5.598   6.086   2.040
12169TIP3   OH236449   5.668   4.849   3.735
12169TIP3    H136450   5.709   4.774   3.777
12169TIP3    H236451   5.682   4.835   3.641
12170TIP3   OH236452   1.849   5.209   5.397
12170TIP3    H136453   1.843   5.172   5.485
12170TIP3    H236454   1.785   5.281   5.396
12171TIP3   OH236455   5.372   4.741   1.070
12171TIP3    H136456   5.431   4.711   1.140
12171TIP3    H236457   5.372   4.668   1.007
12172TIP3   OH236458   1.989   0.969   2.483
12172TIP3    H136459   1.985   1.040   2.548
12172TIP3    H236460   1.905   0.923   2.494
12173TIP3   OH236461   0.144   3.744   5.731
12173TIP3    H136462   0.153   3.839   5.726
12173TIP3    H236463   0.068   3.724   5.677
12174TIP3   OH236464   2.559   5.527   6.162
12174TIP3    H136465   2.562   5.533   6.257
12174TIP3    H236466   2.635   5.474   6.138
12175TIP3   OH236467   4.743   6.034   6.340
12175TIP3    H136468   4.675   6.101   6.337
12175TIP3    H236469   4.741   5.992   6.254
12176TIP3   OH236470   5.284   1.820   3.764
12176TIP3    H136471   5.209   1.856   3.716
12176TIP3    H236472   5.276   1.725   3.753
12177TIP3   OH236473   1.487   6.405   5.279
12177TIP3    H136474   1.408   6.415   5.331
12177TIP3    H236475   1.558   6.430   5.339
12178TIP3   OH236476   1.240   5.967   6.805
12178TIP3    H136477   1.252   5.986   6.712
12178TIP3    H236478   1.322   5.997   6.846
12179TIP3   OH236479   2.757   7.406   2.614
12179TIP3    H136480   2.812   7.439   2.543
12179TIP3    H236481   2.667   7.419   2.583
12180TIP3   OH236482   3.602   4.571   3.950
12180TIP3    H136483   3.545   4.518   3.895
12180TIP3    H236484   3.660   4.616   3.888
12181TIP3   OH236485   7.060   5.993   0.694
12181TIP3    H136486   7.005   6.009   0.771
12181TIP3    H236487   7.004   6.013   0.619
12182TIP3   OH236488   4.634   3.677   1.791
12182TIP3    H136489   4.575   3.635   1.853
12182TIP3    H236490   4.618   3.633   1.708
12183TIP3   OH236491   3.806   0.086   0.426
12183TIP3    H136492   3.831   0.169   0.467
12183TIP3    H236493   3.886   0.056   0.384
12184TIP3   OH236494   5.980   3.637   5.542
12184TIP3    H136495   5.966   3.547   5.512
12184TIP3    H236496   5.894   3.678   5.535
12185TIP3   OH236497   8.234   3.493   5.855
12185TIP3    H136498   8.220   3.465   5.946
12185TIP3    H236499   8.328   3.502   5.847
12186TIP3   OH236500   8.135   4.630   5.996
12186TIP3    H136501   8.144   4.676   6.080
12186TIP3    H236502   8.073   4.685   5.947
12187TIP3   OH236503   0.978   2.175   1.395
12187TIP3    H136504   1.067   2.199   1.371
12187TIP3    H236505   0.988   2.116   1.470
12188TIP3   OH236506   4.444   4.157   4.045
12188TIP3    H136507   4.358   4.129   4.075
12188TIP3    H236508   4.432   4.181   3.953
12189TIP3   OH236509   1.154   1.378   2.535
12189TIP3    H136510   1.195   1.448   2.586
12189TIP3    H236511   1.142   1.416   2.448
12190TIP3   OH236512   1.347   0.517   2.002
12190TIP3    H136513   1.303   0.577   2.063
12190TIP3    H236514   1.440   0.534   2.015
12191TIP3   OH236515   3.344   5.043   5.768
12191TIP3    H136516   3.431   5.032   5.731
12191TIP3    H236517   3.353   5.013   5.859
12192TIP3   OH236518   1.247   6.286   0.795
12192TIP3    H136519   1.340   6.304   0.804
12192TIP3    H236520   1.237   6.195   0.824
12193TIP3   OH236521   5.169   3.292   2.436
12193TIP3    H136522   5.128   3.367   2.392
12193TIP3    H236523   5.099   3.256   2.492
12194TIP3   OH236524   8.108   6.429   5.054
12194TIP3    H136525   8.120   6.452   4.962
12194TIP3    H236526   8.183   6.372   5.075
12195TIP3   OH236527   7.473   5.694   2.258
12195TIP3    H136528   7.510   5.721   2.173
12195TIP3    H236529   7.466   5.599   2.252
12196TIP3   OH236530   7.844   7.008   5.147
12196TIP3    H136531   7.770   6.949   5.163
12196TIP3    H236532   7.882   7.023   5.233
12197TIP3   OH236533   1.557   0.400   5.084
12197TIP3    H136534   1.496   0.454   5.134
12197TIP3    H236535   1.520   0.312   5.089
12198TIP3   OH236536   6.910   1.664   5.357
12198TIP3    H136537   6.907   1.733   5.423
12198TIP3    H236538   6.874   1.704   5.278
12199TIP3   OH236539   2.855   2.578   4.615
12199TIP3    H136540   2.813   2.659   4.586
12199TIP3    H236541   2.937   2.606   4.654
12200TIP3   OH236542   6.171   6.674   3.724
12200TIP3    H136543   6.213   6.607   3.671
12200TIP3    H236544   6.242   6.713   3.774
12201TIP3   OH236545   1.366   0.826   3.286
12201TIP3    H136546   1.453   0.819   3.248
12201TIP3    H236547   1.369   0.771   3.365
12202TIP3   OH236548   3.050   2.272   2.859
12202TIP3    H136549   2.980   2.290   2.796
12202TIP3    H236550   3.130   2.271   2.807
12203TIP3   OH236551   7.730   5.093   3.612
12203TIP3    H136552   7.642   5.074   3.646
12203TIP3    H236553   7.785   5.099   3.690
12204TIP3   OH236554   5.426   3.796   5.190
12204TIP3    H136555   5.435   3.751   5.275
12204TIP3    H236556   5.339   3.770   5.160
12205TIP3   OH236557   1.999   4.088   3.405
12205TIP3    H136558   1.986   4.181   3.390
12205TIP3    H236559   1.963   4.073   3.493
12206TIP3   OH236560   1.105   3.908   4.459
12206TIP3    H136561   1.197   3.921   4.435
12206TIP3    H236562   1.102   3.818   4.494
12207TIP3   OH236563   7.113   1.283   1.139
12207TIP3    H136564   7.147   1.283   1.050
12207TIP3    H236565   7.171   1.224   1.187
12208TIP3   OH236566   1.493   3.448   6.432
12208TIP3    H136567   1.504   3.521   6.371
12208TIP3    H236568   1.399   3.445   6.449
12209TIP3   OH236569   0.691   3.316   6.789
12209TIP3    H136570   0.737   3.399   6.779
12209TIP3    H236571   0.607   3.329   6.745
12210TIP3   OH236572   3.959   5.553   5.880
12210TIP3    H136573   4.049   5.532   5.854
12210TIP3    H236574   3.928   5.475   5.926
12211TIP3   OH236575   3.787   4.446   0.122
12211TIP3    H136576   3.784   4.374   0.059
12211TIP3    H236577   3.695   4.458   0.148
12212TIP3   OH236578   0.045   0.508   3.843
12212TIP3    H136579   0.107   0.509   3.916
12212TIP3    H236580   0.100   0.509   3.765
12213TIP3   OH236581   0.356   4.771   2.858
12213TIP3    H136582   0.268   4.739   2.879
12213TIP3    H236583   0.374   4.837   2.924
12214TIP3   OH236584   4.094   5.067   5.396
12214TIP3    H136585   4.150   5.084   5.472
12214TIP3    H236586   4.148   5.090   5.321
12215TIP3   OH236587   3.687   5.889   3.788
12215TIP3    H136588   3.599   5.857   3.767
12215TIP3    H236589   3.720   5.827   3.853
12216TIP3   OH236590   3.599   4.135   3.812
12216TIP3    H136591   3.583   4.229   3.802
12216TIP3    H236592   3.686   4.130   3.851
12217TIP3   OH236593   3.443   0.229   4.354
12217TIP3    H136594   3.358   0.262   4.325
12217TIP3    H236595   3.457   0.149   4.305
12218TIP3   OH236596   7.699   2.924   5.415
12218TIP3    H136597   7.757   2.969   5.477
12218TIP3    H236598   7.643   2.994   5.381
12219TIP3   OH236599   1.186   4.751   5.905
12219TIP3    H136600   1.091   4.760   5.915
12219TIP3    H236601   1.197   4.690   5.832
12220TIP3   OH236602   3.459   3.833   6.684
12220TIP3    H136603   3.483   3.845   6.592
12220TIP3    H236604   3.403   3.908   6.704
12221TIP3   OH236605   3.902   3.309   0.428
12221TIP3    H136606   3.842   3.284   0.357
12221TIP3    H236607   3.959   3.233   0.439
12222TIP3   OH236608   4.315   2.191   3.568
12222TIP3    H136609   4.371   2.220   3.497
12222TIP3    H236610   4.294   2.100   3.547
12223TIP3   OH236611   4.040   6.505   5.921
12223TIP3    H136612   3.997   6.477   6.002
12223TIP3    H236613   3.984   6.574   5.886
12224TIP3   OH236614   5.528   5.695   2.355
12224TIP3    H136615   5.503   5.724   2.443
12224TIP3    H236616   5.624   5.697   2.356
12225TIP3   OH236617   7.332   2.458   5.604
12225TIP3    H136618   7.239   2.438   5.593
12225TIP3    H236619   7.377   2.386   5.561
12226TIP3   OH236620   1.819   6.129   1.094
12226TIP3    H136621   1.734   6.156   1.128
12226TIP3    H236622   1.850   6.206   1.045
12227TIP3   OH236623   6.727   1.194   4.918
12227TIP3    H136624   6.691   1.245   4.990
12227TIP3    H236625   6.657   1.192   4.852
12228TIP3   OH236626   2.445   0.183   1.565
12228TIP3    H136627   2.445   0.089   1.548
12228TIP3    H236628   2.408   0.192   1.653
12229TIP3   OH236629   7.867   0.242   3.289
12229TIP3    H136630   7.888   0.248   3.196
12229TIP3    H236631   7.902   0.323   3.327
12230TIP3   OH236632   7.220   1.028   6.013
12230TIP3    H136633   7.236   0.944   5.969
12230TIP3    H236634   7.137   1.016   6.058
12231TIP3   OH236635   8.040   4.351   1.092
12231TIP3    H136636   8.029   4.311   1.178
12231TIP3    H236637   8.116   4.306   1.054
12232TIP3   OH236638   3.120   1.703   5.639
12232TIP3    H136639   3.209   1.733   5.619
12232TIP3    H236640   3.084   1.771   5.696
12233TIP3   OH236641   7.393   2.437   2.935
12233TIP3    H136642   7.386   2.499   2.863
12233TIP3    H236643   7.311   2.387   2.930
12234TIP3   OH236644   0.477   0.825   6.468
12234TIP3    H136645   0.438   0.799   6.551
12234TIP3    H236646   0.562   0.863   6.491
12235TIP3   OH236647   1.551   1.191   0.061
12235TIP3    H136648   1.528   1.283   0.070
12235TIP3    H236649   1.489   1.144   0.117
12236TIP3   OH236650   7.440   4.004   0.294
12236TIP3    H136651   7.454   4.063   0.368
12236TIP3    H236652   7.378   4.051   0.237
12237TIP3   OH236653   7.165   3.582   1.056
12237TIP3    H136654   7.072   3.606   1.052
12237TIP3    H236655   7.169   3.513   1.122
12238TIP3   OH236656   7.118   7.629   3.341
12238TIP3    H136657   7.052   7.698   3.335
12238TIP3    H236658   7.098   7.571   3.268
12239TIP3   OH236659   2.422   6.353   2.053
12239TIP3    H136660   2.475   6.280   2.084
12239TIP3    H236661   2.460   6.430   2.094
12240TIP3   OH236662   2.926   4.044   6.289
12240TIP3    H136663   3.014   4.008   6.302
12240TIP3    H236664   2.868   3.967   6.294
12241TIP3   OH236665   6.810   3.739   2.248
12241TIP3    H136666   6.772   3.679   2.312
12241TIP3    H236667   6.881   3.690   2.208
12242TIP3   OH236668   1.042   0.152   3.691
12242TIP3    H136669   0.984   0.127   3.618
12242TIP3    H236670   1.119   0.096   3.680
12243TIP3   OH236671   6.658   0.198   4.187
12243TIP3    H136672   6.712   0.224   4.261
12243TIP3    H236673   6.583   0.257   4.190
12244TIP3   OH236674   7.769   3.834   4.590
12244TIP3    H136675   7.688   3.827   4.639
12244TIP3    H236676   7.748   3.891   4.516
12245TIP3   OH236677   0.635   6.858   4.913
12245TIP3    H136678   0.650   6.894   4.825
12245TIP3    H236679   0.567   6.914   4.950
12246TIP3   OH236680   6.116   2.778   2.437
12246TIP3    H136681   6.134   2.692   2.398
12246TIP3    H236682   6.045   2.762   2.499
12247TIP3   OH236683   1.598   5.492   6.298
12247TIP3    H136684   1.654   5.439   6.241
12247TIP3    H236685   1.660   5.544   6.350
12248TIP3   OH236686   7.307   5.452   6.271
12248TIP3    H136687   7.314   5.527   6.211
12248TIP3    H236688   7.225   5.466   6.317
12249TIP3   OH236689   7.715   3.678   1.499
12249TIP3    H136690   7.667   3.704   1.420
12249TIP3    H236691   7.655   3.698   1.571
12250TIP3   OH236692   3.913   6.146   4.621
12250TIP3    H136693   3.897   6.102   4.705
12250TIP3    H236694   4.005   6.128   4.602
12251TIP3   OH236695   1.681   2.851   6.031
12251TIP3    H136696   1.776   2.845   6.016
12251TIP3    H236697   1.644   2.787   5.969
12252TIP3   OH236698   0.740   3.306   2.266
12252TIP3    H136699   0.803   3.291   2.337
12252TIP3    H236700   0.696   3.387   2.290
12253TIP3   OH236701   5.182   5.868   6.516
12253TIP3    H136702   5.228   5.945   6.484
12253TIP3    H236703   5.153   5.822   6.437
12254TIP3   OH236704   6.027   0.583   5.618
12254TIP3    H136705   6.103   0.528   5.598
12254TIP3    H236706   6.053   0.671   5.591
12255TIP3   OH236707   3.016   1.237   5.666
12255TIP3    H136708   3.074   1.197   5.731
12255TIP3    H236709   3.056   1.322   5.646
12256TIP3   OH236710   8.123   4.092   0.552
12256TIP3    H136711   8.059   4.022   0.563
12256TIP3    H236712   8.085   4.167   0.599
12257TIP3   OH236713   5.050   2.445   6.616
12257TIP3    H136714   5.033   2.464   6.708
12257TIP3    H236715   5.035   2.529   6.572
12258TIP3   OH236716   6.480   4.466   1.372
12258TIP3    H136717   6.409   4.407   1.397
12258TIP3    H236718   6.505   4.510   1.453
12259TIP3   OH236719   0.852   6.924   2.224
12259TIP3    H136720   0.931   6.913   2.171
12259TIP3    H236721   0.815   7.008   2.195
12260TIP3   OH236722   0.467   1.923   6.542
12260TIP3    H136723   0.509   1.865   6.478
12260TIP3    H236724   0.373   1.905   6.533
12261TIP3   OH236725   7.012   0.889   5.274
12261TIP3    H136726   6.951   0.959   5.251
12261TIP3    H236727   7.097   0.918   5.242
12262TIP3   OH236728   6.034   0.776   4.832
12262TIP3    H136729   5.954   0.791   4.884
12262TIP3    H236730   6.062   0.864   4.807
12263TIP3   OH236731   3.717   6.685   2.019
12263TIP3    H136732   3.730   6.775   2.050
12263TIP3    H236733   3.715   6.633   2.099
12264TIP3   OH236734   3.785   7.261   6.194
12264TIP3    H136735   3.830   7.193   6.245
12264TIP3    H236736   3.785   7.229   6.104
12265TIP3   OH236737   3.519   0.890   1.436
12265TIP3    H136738   3.469   0.828   1.383
12265TIP3    H236739   3.605   0.849   1.447
12266TIP3   OH236740   1.642   7.022   0.984
12266TIP3    H136741   1.634   7.077   1.062
12266TIP3    H236742   1.556   7.026   0.942
12267TIP3   OH236743   0.407   6.193   0.574
12267TIP3    H136744   0.314   6.218   0.572
12267TIP3    H236745   0.427   6.166   0.484
12268TIP3   OH236746   6.844   2.129   1.399
12268TIP3    H136747   6.761   2.088   1.420
12268TIP3    H236748   6.822   2.220   1.382
12269TIP3   OH236749   6.344   2.847  -0.028
12269TIP3    H136750   6.349   2.791   0.049
12269TIP3    H236751   6.282   2.803  -0.086
12270TIP3   OH236752   8.095   7.032   4.253
12270TIP3    H136753   8.082   7.118   4.213
12270TIP3    H236754   8.011   6.987   4.242
12271TIP3   OH236755   7.581   7.049   4.909
12271TIP3    H136756   7.639   7.121   4.933
12271TIP3    H236757   7.623   7.009   4.833
12272TIP3   OH236758   7.073   6.681   5.914
12272TIP3    H136759   7.113   6.618   5.855
12272TIP3    H236760   7.135   6.688   5.987
12273TIP3   OH236761   7.178   3.693   5.112
12273TIP3    H136762   7.267   3.726   5.106
12273TIP3    H236763   7.123   3.770   5.102
12274TIP3   OH236764   1.921   2.077   3.043
12274TIP3    H136765   1.945   2.024   2.968
12274TIP3    H236766   1.860   2.022   3.093
12275TIP3   OH236767   2.054   5.387   0.482
12275TIP3    H136768   2.028   5.436   0.561
12275TIP3    H236769   1.981   5.399   0.421
12276TIP3   OH236770   3.126   1.353   1.083
12276TIP3    H136771   3.141   1.443   1.112
12276TIP3    H236772   3.066   1.317   1.148
12277TIP3   OH236773   3.595   4.880   5.307
12277TIP3    H136774   3.665   4.820   5.331
12277TIP3    H236775   3.609   4.897   5.214
12278TIP3   OH236776   5.542   7.479   6.777
12278TIP3    H136777   5.567   7.439   6.694
12278TIP3    H236778   5.513   7.406   6.831
12279TIP3   OH236779   5.952   1.757   2.841
12279TIP3    H136780   5.923   1.692   2.904
12279TIP3    H236781   6.048   1.754   2.845
12280TIP3   OH236782   4.864   1.169   4.027
12280TIP3    H136783   4.916   1.245   4.053
12280TIP3    H236784   4.782   1.206   3.996
12281TIP3   OH236785   8.214   3.620   0.744
12281TIP3    H136786   8.204   3.553   0.676
12281TIP3    H236787   8.303   3.653   0.732
12282TIP3   OH236788   6.602   1.696   3.972
12282TIP3    H136789   6.543   1.685   4.047
12282TIP3    H236790   6.681   1.647   3.996
12283TIP3   OH236791   4.823   6.822   0.091
12283TIP3    H136792   4.772   6.829   0.172
12283TIP3    H236793   4.873   6.741   0.102
12284TIP3   OH236794   8.151   7.544   6.374
12284TIP3    H136795   8.103   7.614   6.418
12284TIP3    H236796   8.115   7.542   6.286
12285TIP3   OH236797   7.352   1.227   5.334
12285TIP3    H136798   7.436   1.187   5.312
12285TIP3    H236799   7.376   1.310   5.377
12286TIP3   OH236800   3.815   5.963   4.403
12286TIP3    H136801   3.889   5.992   4.350
12286TIP3    H236802   3.816   6.021   4.479
12287TIP3   OH236803   2.914   3.724   3.691
12287TIP3    H136804   2.849   3.752   3.626
12287TIP3    H236805   2.919   3.629   3.681
12288TIP3   OH236806   6.597   1.692   0.803
12288TIP3    H136807   6.660   1.740   0.750
12288TIP3    H236808   6.601   1.734   0.889
12289TIP3   OH236809   3.752   2.091   0.757
12289TIP3    H136810   3.791   2.176   0.777
12289TIP3    H236811   3.768   2.079   0.663
12290TIP3   OH236812   5.615   4.422   6.422
12290TIP3    H136813   5.627   4.516   6.420
12290TIP3    H236814   5.701   4.386   6.441
12291TIP3   OH236815   7.546   6.069   0.556
12291TIP3    H136816   7.500   6.090   0.475
12291TIP3    H236817   7.604   5.996   0.533
12292TIP3   OH236818   6.305   7.010   5.301
12292TIP3    H136819   6.268   7.058   5.375
12292TIP3    H236820   6.236   7.012   5.235
12293TIP3   OH236821   2.024   2.046   6.067
12293TIP3    H136822   2.048   1.957   6.091
12293TIP3    H236823   2.098   2.078   6.015
12294TIP3   OH236824   5.018   2.096   4.747
12294TIP3    H136825   4.958   2.166   4.722
12294TIP3    H236826   5.022   2.039   4.671
12295TIP3   OH236827   1.173   7.550   4.678
12295TIP3    H136828   1.119   7.541   4.600
12295TIP3    H236829   1.157   7.471   4.728
12296TIP3   OH236830   2.297   1.460   2.237
12296TIP3    H136831   2.256   1.375   2.246
12296TIP3    H236832   2.282   1.485   2.146
12297TIP3   OH236833   0.011   4.232   2.612
12297TIP3    H136834   0.062   4.158   2.645
12297TIP3    H236835  -0.048   4.194   2.547
12298TIP3   OH236836   1.144   7.503   6.119
12298TIP3    H136837   1.228   7.471   6.086
12298TIP3    H236838   1.112   7.432   6.174
12299TIP3   OH236839   3.849   0.403   4.599
12299TIP3    H136840   3.898   0.363   4.527
12299TIP3    H236841   3.789   0.464   4.557
12300TIP3   OH236842   0.226   2.501   2.805
12300TIP3    H136843   0.192   2.454   2.729
12300TIP3    H236844   0.256   2.585   2.770
12301TIP3   OH236845   0.794   5.581   2.190
12301TIP3    H136846   0.704   5.613   2.199
12301TIP3    H236847   0.843   5.659   2.162
12302TIP3   OH236848   7.664   3.815   3.476
12302TIP3    H136849   7.677   3.761   3.554
12302TIP3    H236850   7.744   3.801   3.425
12303TIP3   OH236851   2.650   3.845   5.154
12303TIP3    H136852   2.688   3.868   5.069
12303TIP3    H236853   2.677   3.916   5.212
12304TIP3   OH236854   3.044   3.383   5.394
12304TIP3    H136855   3.018   3.383   5.486
12304TIP3    H236856   3.100   3.460   5.384
12305TIP3   OH236857   7.689   3.058   3.843
12305TIP3    H136858   7.672   3.052   3.749
12305TIP3    H236859   7.775   3.099   3.850
12306TIP3   OH236860   5.659   0.205   3.176
12306TIP3    H136861   5.669   0.209   3.271
12306TIP3    H236862   5.673   0.113   3.155
12307TIP3   OH236863   3.169   0.800   2.834
12307TIP3    H136864   3.246   0.855   2.850
12307TIP3    H236865   3.174   0.778   2.741
12308TIP3   OH236866   0.948   4.412   5.951
12308TIP3    H136867   0.876   4.403   5.888
12308TIP3    H236868   1.027   4.391   5.901
12309TIP3   OH236869   7.713   6.964   1.956
12309TIP3    H136870   7.733   7.052   1.924
12309TIP3    H236871   7.639   6.935   1.903
12310TIP3   OH236872   7.164   3.553   4.024
12310TIP3    H136873   7.235   3.491   4.037
12310TIP3    H236874   7.086   3.499   4.014
12311TIP3   OH236875   3.523   4.533   4.725
12311TIP3    H136876   3.555   4.496   4.807
12311TIP3    H236877   3.435   4.498   4.715
12312TIP3   OH236878   5.234   3.840   4.427
12312TIP3    H136879   5.271   3.755   4.402
12312TIP3    H236880   5.309   3.891   4.457
12313TIP3   OH236881   3.616   0.949   1.827
12313TIP3    H136882   3.559   0.925   1.900
12313TIP3    H236883   3.555   0.976   1.758
12314TIP3   OH236884   3.214   4.047   6.185
12314TIP3    H136885   3.236   3.960   6.219
12314TIP3    H236886   3.223   4.105   6.260
12315TIP3   OH236887   3.577   7.587   0.276
12315TIP3    H136888   3.598   7.530   0.350
12315TIP3    H236889   3.585   7.676   0.311
12316TIP3   OH236890   5.144   7.475   4.349
12316TIP3    H136891   5.221   7.493   4.403
12316TIP3    H236892   5.091   7.554   4.357
12317TIP3   OH236893   0.647   0.204   3.226
12317TIP3    H136894   0.695   0.285   3.246
12317TIP3    H236895   0.702   0.135   3.262
12318TIP3   OH236896   6.293   5.252   1.711
12318TIP3    H136897   6.387   5.268   1.702
12318TIP3    H236898   6.259   5.329   1.757
12319TIP3   OH236899   5.088   0.088   0.884
12319TIP3    H136900   5.005   0.054   0.916
12319TIP3    H236901   5.153   0.055   0.946
12320TIP3   OH236902   0.082   1.177   4.487
12320TIP3    H136903   0.115   1.245   4.545
12320TIP3    H236904   0.039   1.226   4.416
12321TIP3   OH236905   7.698   5.917   4.381
12321TIP3    H136906   7.649   5.861   4.442
12321TIP3    H236907   7.633   5.944   4.316
12322TIP3   OH236908   0.769   4.517   1.560
12322TIP3    H136909   0.843   4.532   1.502
12322TIP3    H236910   0.700   4.482   1.504
12323TIP3   OH236911   4.087   1.569   0.122
12323TIP3    H136912   4.173   1.529   0.114
12323TIP3    H236913   4.075   1.618   0.041
12324TIP3   OH236914   2.038   5.009   5.327
12324TIP3    H136915   1.996   5.095   5.321
12324TIP3    H236916   2.127   5.023   5.296
12325TIP3   OH236917   6.149   1.138   5.660
12325TIP3    H136918   6.197   1.123   5.741
12325TIP3    H236919   6.147   1.233   5.650
12326TIP3   OH236920   5.625   2.575   6.315
12326TIP3    H136921   5.534   2.544   6.309
12326TIP3    H236922   5.643   2.611   6.228
12327TIP3   OH236923   1.425   3.954   0.723
12327TIP3    H136924   1.346   3.901   0.727
12327TIP3    H236925   1.395   4.040   0.694
12328TIP3   OH236926   6.214   4.360   1.377
12328TIP3    H136927   6.190   4.344   1.469
12328TIP3    H236928   6.154   4.304   1.327
12329TIP3   OH236929   0.243   0.530   1.543
12329TIP3    H136930   0.151   0.558   1.547
12329TIP3    H236931   0.240   0.435   1.550
12330TIP3   OH236932   6.667   0.675   3.847
12330TIP3    H136933   6.635   0.715   3.928
12330TIP3    H236934   6.590   0.673   3.790
12331TIP3   OH236935   2.090   4.739   4.343
12331TIP3    H136936   2.170   4.789   4.357
12331TIP3    H236937   2.120   4.649   4.328
12332TIP3   OH236938   0.194   7.516   4.664
12332TIP3    H136939   0.216   7.595   4.615
12332TIP3    H236940   0.226   7.533   4.753
12333TIP3   OH236941   3.392   1.053   6.547
12333TIP3    H136942   3.477   1.026   6.513
12333TIP3    H236943   3.402   1.147   6.564
12334TIP3   OH236944   0.089   4.872   0.986
12334TIP3    H136945   0.033   4.796   0.971
12334TIP3    H236946   0.176   4.844   0.956
12335TIP3   OH236947   3.451   6.780   6.321
12335TIP3    H136948   3.433   6.702   6.374
12335TIP3    H236949   3.424   6.756   6.233
12336TIP3   OH236950   7.660   6.391   5.633
12336TIP3    H136951   7.670   6.325   5.564
12336TIP3    H236952   7.747   6.397   5.674
12337TIP3   OH236953   0.158   5.180   0.987
12337TIP3    H136954   0.110   5.132   0.919
12337TIP3    H236955   0.249   5.174   0.960
12338TIP3   OH236956   4.334   1.212   2.698
12338TIP3    H136957   4.306   1.126   2.669
12338TIP3    H236958   4.272   1.273   2.657
12339TIP3   OH236959   4.633   6.915   1.921
12339TIP3    H136960   4.611   6.843   1.861
12339TIP3    H236961   4.655   6.988   1.863
12340TIP3   OH236962   0.685   3.314   1.048
12340TIP3    H136963   0.670   3.302   0.955
12340TIP3    H236964   0.771   3.277   1.064
12341TIP3   OH236965   5.718   1.415   3.396
12341TIP3    H136966   5.716   1.500   3.351
12341TIP3    H236967   5.639   1.371   3.368
12342TIP3   OH236968   3.087   7.156   2.157
12342TIP3    H136969   3.139   7.237   2.154
12342TIP3    H236970   3.116   7.112   2.237
12343TIP3   OH236971   2.418   3.606   2.331
12343TIP3    H136972   2.362   3.588   2.255
12343TIP3    H236973   2.494   3.549   2.318
12344TIP3   OH236974   5.451   2.695   1.251
12344TIP3    H136975   5.389   2.627   1.224
12344TIP3    H236976   5.536   2.663   1.221
12345TIP3   OH236977   0.957   2.981   4.095
12345TIP3    H136978   0.896   3.043   4.136
12345TIP3    H236979   1.042   3.025   4.102
12346TIP3   OH236980   6.636   3.257   2.560
12346TIP3    H136981   6.568   3.251   2.627
12346TIP3    H236982   6.638   3.171   2.519
12347TIP3   OH236983   2.233   5.481   1.589
12347TIP3    H136984   2.199   5.493   1.677
12347TIP3    H236985   2.283   5.561   1.571
12348TIP3   OH236986   7.250   6.476   0.379
12348TIP3    H136987   7.322   6.468   0.443
12348TIP3    H236988   7.288   6.444   0.297
12349TIP3   OH236989   4.313   1.199   1.909
12349TIP3    H136990   4.248   1.132   1.890
12349TIP3    H236991   4.395   1.164   1.873
12350TIP3   OH236992   1.720   6.208   0.635
12350TIP3    H136993   1.637   6.246   0.664
12350TIP3    H236994   1.777   6.284   0.621
12351TIP3   OH236995   8.101   7.251   2.963
12351TIP3    H136996   8.032   7.310   2.934
12351TIP3    H236997   8.061   7.197   3.030
12352TIP3   OH236998   7.376   4.494   5.795
12352TIP3    H136999   7.333   4.579   5.808
12352TIP3    H237000   7.460   4.516   5.755
12353TIP3   OH237001   7.264   4.677   1.918
12353TIP3    H137002   7.191   4.635   1.963
12353TIP3    H237003   7.269   4.633   1.833
12354TIP3   OH237004   5.235   4.965   2.583
12354TIP3    H137005   5.254   4.872   2.592
12354TIP3    H237006   5.299   4.997   2.519
12355TIP3   OH237007   4.038   0.646   3.450
12355TIP3    H137008   4.099   0.699   3.501
12355TIP3    H237009   3.955   0.693   3.455
12356TIP3   OH237010   4.758   7.237   5.004
12356TIP3    H137011   4.784   7.218   5.095
12356TIP3    H237012   4.768   7.153   4.959
12357TIP3   OH237013   4.601   7.756   4.039
12357TIP3    H137014   4.594   7.852   4.036
12357TIP3    H237015   4.534   7.730   4.102
12358TIP3   OH237016   6.072   2.568   6.419
12358TIP3    H137017   6.017   2.501   6.459
12358TIP3    H237018   6.160   2.550   6.453
12359TIP3   OH237019   0.902   6.006   2.664
12359TIP3    H137020   0.900   6.043   2.576
12359TIP3    H237021   0.828   6.047   2.709
12360TIP3   OH237022   4.564   5.647   4.896
12360TIP3    H137023   4.636   5.611   4.948
12360TIP3    H237024   4.533   5.722   4.947
12361TIP3   OH237025   4.370   3.006   5.867
12361TIP3    H137026   4.419   2.969   5.940
12361TIP3    H237027   4.339   2.930   5.818
12362TIP3   OH237028   7.028   4.730   3.966
12362TIP3    H137029   6.997   4.742   3.876
12362TIP3    H237030   7.078   4.648   3.962
12363TIP3   OH237031   3.978   3.399   2.270
12363TIP3    H137032   4.018   3.335   2.329
12363TIP3    H237033   4.004   3.370   2.182
12364TIP3   OH237034   0.012   1.014   5.846
12364TIP3    H137035  -0.067   1.068   5.852
12364TIP3    H237036   0.010   0.961   5.926
12365TIP3   OH237037   6.263   2.347   0.266
12365TIP3    H137038   6.259   2.441   0.249
12365TIP3    H237039   6.275   2.308   0.180
12366TIP3   OH237040   6.847   5.812   1.226
12366TIP3    H137041   6.896   5.841   1.149
12366TIP3    H237042   6.914   5.791   1.291
12367TIP3   OH237043   7.806   3.364   3.781
12367TIP3    H137044   7.863   3.293   3.814
12367TIP3    H237045   7.859   3.443   3.789
12368TIP3   OH237046   5.479   4.620   0.756
12368TIP3    H137047   5.556   4.641   0.809
12368TIP3    H237048   5.514   4.606   0.668
12369TIP3   OH237049   7.547   7.098   5.482
12369TIP3    H137050   7.528   7.038   5.555
12369TIP3    H237051   7.630   7.066   5.446
12370TIP3   OH237052   2.732   1.338   4.115
12370TIP3    H137053   2.750   1.301   4.202
12370TIP3    H237054   2.643   1.307   4.095
12371TIP3   OH237055   2.208   0.628   6.172
12371TIP3    H137056   2.198   0.543   6.214
12371TIP3    H237057   2.277   0.615   6.107
12372TIP3   OH237058   0.297   1.853   0.199
12372TIP3    H137059   0.324   1.910   0.271
12372TIP3    H237060   0.212   1.887   0.172
12373TIP3   OH237061   7.073   7.087   6.146
12373TIP3    H137062   7.120   7.041   6.076
12373TIP3    H237063   7.093   7.180   6.131
12374TIP3   OH237064   3.857   7.445   5.362
12374TIP3    H137065   3.780   7.397   5.393
12374TIP3    H237066   3.823   7.529   5.331
12375TIP3   OH237067   5.603   4.426   5.350
12375TIP3    H137068   5.552   4.463   5.279
12375TIP3    H237069   5.642   4.501   5.394
12376TIP3   OH237070   2.545   1.694   0.960
12376TIP3    H137071   2.477   1.710   1.025
12376TIP3    H237072   2.552   1.776   0.911
12377TIP3   OH237073   6.770   5.637   3.961
12377TIP3    H137074   6.708   5.573   3.926
12377TIP3    H237075   6.816   5.670   3.884
12378TIP3   OH237076   7.845   2.536   3.094
12378TIP3    H137077   7.893   2.559   3.015
12378TIP3    H237078   7.762   2.584   3.087
12379TIP3   OH237079   0.933   7.520   5.443
12379TIP3    H137080   0.926   7.536   5.537
12379TIP3    H237081   0.845   7.539   5.409
12380TIP3   OH237082   3.388   3.999   2.745
12380TIP3    H137083   3.350   4.045   2.670
12380TIP3    H237084   3.376   3.906   2.724
12381TIP3   OH237085   0.384   6.717   6.659
12381TIP3    H137086   0.462   6.671   6.692
12381TIP3    H237087   0.392   6.712   6.564
12382TIP3   OH237088   5.233   4.949   1.315
12382TIP3    H137089   5.152   4.899   1.308
12382TIP3    H237090   5.268   4.950   1.226
12383TIP3   OH237091   5.573   1.853   1.580
12383TIP3    H137092   5.576   1.860   1.676
12383TIP3    H237093   5.480   1.859   1.559
12384TIP3   OH237094   8.170   4.696   5.561
12384TIP3    H137095   8.143   4.785   5.581
12384TIP3    H237096   8.089   4.645   5.565
12385TIP3   OH237097   1.788   5.820   3.963
12385TIP3    H137098   1.731   5.789   3.893
12385TIP3    H237099   1.842   5.743   3.985
12386TIP3   OH237100   3.059   1.603   0.546
12386TIP3    H137101   2.979   1.646   0.575
12386TIP3    H237102   3.129   1.665   0.567
12387TIP3   OH237103   8.280   4.541   0.083
12387TIP3    H137104   8.235   4.499   0.156
12387TIP3    H237105   8.300   4.629   0.114
12388TIP3   OH237106   4.339   1.929   4.624
12388TIP3    H137107   4.377   2.001   4.674
12388TIP3    H237108   4.360   1.851   4.674
12389TIP3   OH237109   8.082   7.698   5.002
12389TIP3    H137110   8.131   7.766   5.049
12389TIP3    H237111   8.006   7.680   5.058
12390TIP3   OH237112   0.373   0.316   4.219
12390TIP3    H137113   0.335   0.254   4.157
12390TIP3    H237114   0.458   0.278   4.242
12391TIP3   OH237115   4.249   2.459   1.650
12391TIP3    H137116   4.286   2.376   1.622
12391TIP3    H237117   4.155   2.444   1.653
12392TIP3   OH237118   1.634   6.189   0.268
12392TIP3    H137119   1.608   6.099   0.288
12392TIP3    H237120   1.682   6.183   0.186
12393TIP3   OH237121   0.509   3.244   5.349
12393TIP3    H137122   0.597   3.238   5.386
12393TIP3    H237123   0.486   3.337   5.356
12394TIP3   OH237124   2.255   1.009   1.898
12394TIP3    H137125   2.299   1.043   1.820
12394TIP3    H237126   2.323   1.006   1.965
12395TIP3   OH237127   1.162   0.681   4.186
12395TIP3    H137128   1.120   0.764   4.165
12395TIP3    H237129   1.091   0.616   4.180
12396TIP3   OH237130   5.641   7.470   5.637
12396TIP3    H137131   5.550   7.449   5.659
12396TIP3    H237132   5.665   7.540   5.698
12397TIP3   OH237133   3.023   7.552   3.436
12397TIP3    H137134   3.075   7.597   3.502
12397TIP3    H237135   2.946   7.607   3.424
12398TIP3   OH237136   3.008   1.097   1.702
12398TIP3    H137137   3.049   1.011   1.687
12398TIP3    H237138   3.003   1.106   1.797
12399TIP3   OH237139   0.762   4.706   3.298
12399TIP3    H137140   0.705   4.783   3.297
12399TIP3    H237141   0.702   4.632   3.294
12400TIP3   OH237142   5.169   3.237   3.571
12400TIP3    H137143   5.249   3.274   3.610
12400TIP3    H237144   5.103   3.245   3.640
12401TIP3   OH237145   6.899   4.037   0.868
12401TIP3    H137146   6.817   4.072   0.901
12401TIP3    H237147   6.887   4.032   0.773
12402TIP3   OH237148   1.433   6.783   3.145
12402TIP3    H137149   1.400   6.851   3.203
12402TIP3    H237150   1.414   6.701   3.190
12403TIP3   OH237151   4.890   7.761   4.707
12403TIP3    H137152   4.896   7.854   4.731
12403TIP3    H237153   4.933   7.755   4.622
12404TIP3   OH237154   4.051   5.194   5.910
12404TIP3    H137155   4.110   5.120   5.924
12404TIP3    H237156   4.075   5.229   5.825
12405TIP3   OH237157   4.489   4.771   0.525
12405TIP3    H137158   4.431   4.769   0.602
12405TIP3    H237159   4.552   4.701   0.541
12406TIP3   OH237160   3.174   3.066   3.639
12406TIP3    H137161   3.109   3.070   3.710
12406TIP3    H237162   3.126   3.092   3.561
12407TIP3   OH237163   2.176   7.614   5.704
12407TIP3    H137164   2.231   7.691   5.716
12407TIP3    H237165   2.151   7.616   5.612
12408TIP3   OH237166   1.824   6.720   0.667
12408TIP3    H137167   1.868   6.693   0.747
12408TIP3    H237168   1.886   6.781   0.626
12409TIP3   OH237169   7.267   5.013   3.061
12409TIP3    H137170   7.191   5.068   3.082
12409TIP3    H237171   7.244   4.972   2.978
12410TIP3   OH237172   2.325   3.966   6.257
12410TIP3    H137173   2.286   3.880   6.239
12410TIP3    H237174   2.250   4.023   6.274
12411TIP3   OH237175   8.186   1.104   0.380
12411TIP3    H137176   8.233   1.085   0.299
12411TIP3    H237177   8.109   1.153   0.353
12412TIP3   OH237178   0.689   5.788   4.877
12412TIP3    H137179   0.784   5.796   4.877
12412TIP3    H237180   0.657   5.878   4.866
12413TIP3   OH237181   1.133   1.596   4.894
12413TIP3    H137182   1.152   1.507   4.863
12413TIP3    H237183   1.109   1.644   4.815
12414TIP3   OH237184   1.058   4.650   2.330
12414TIP3    H137185   1.016   4.736   2.335
12414TIP3    H237186   1.108   4.652   2.249
12415TIP3   OH237187   6.752   7.455   1.190
12415TIP3    H137188   6.723   7.364   1.176
12415TIP3    H237189   6.820   7.468   1.124
12416TIP3   OH237190   1.344   6.455   1.147
12416TIP3    H137191   1.276   6.420   1.205
12416TIP3    H237192   1.415   6.481   1.205
12417TIP3   OH237193   7.162   4.171   6.724
12417TIP3    H137194   7.119   4.088   6.745
12417TIP3    H237195   7.181   4.166   6.631
12418TIP3   OH237196   7.073   6.504   4.806
12418TIP3    H137197   7.157   6.530   4.767
12418TIP3    H237198   7.009   6.564   4.768
12419TIP3   OH237199   1.666   6.133   5.923
12419TIP3    H137200   1.680   6.175   5.838
12419TIP3    H237201   1.731   6.172   5.980
12420TIP3   OH237202   8.056   6.318   3.635
12420TIP3    H137203   7.980   6.361   3.595
12420TIP3    H237204   8.087   6.257   3.568
12421TIP3   OH237205   0.027   5.693   5.471
12421TIP3    H137206   0.095   5.749   5.434
12421TIP3    H237207   0.041   5.698   5.565
12422TIP3   OH237208   4.692   6.047   4.679
12422TIP3    H137209   4.741   5.967   4.657
12422TIP3    H237210   4.642   6.024   4.757
12423TIP3   OH237211   0.276   4.552   5.126
12423TIP3    H137212   0.363   4.543   5.163
12423TIP3    H237213   0.283   4.626   5.065
12424TIP3   OH237214   3.390   7.084   2.803
12424TIP3    H137215   3.341   7.163   2.778
12424TIP3    H237216   3.474   7.092   2.758
12425TIP3   OH237217   0.327   0.141   5.445
12425TIP3    H137218   0.365   0.098   5.369
12425TIP3    H237219   0.261   0.201   5.409
12426TIP3   OH237220   2.828   1.185   3.150
12426TIP3    H137221   2.896   1.251   3.163
12426TIP3    H237222   2.855   1.111   3.206
12427TIP3   OH237223   5.235   1.137   4.580
12427TIP3    H137224   5.304   1.193   4.617
12427TIP3    H237225   5.202   1.087   4.655
12428TIP3   OH237226   1.714   4.393   3.701
12428TIP3    H137227   1.674   4.438   3.775
12428TIP3    H237228   1.689   4.445   3.625
12429TIP3   OH237229   4.939   6.142   6.709
12429TIP3    H137230   4.896   6.060   6.685
12429TIP3    H237231   4.893   6.209   6.657
12430TIP3   OH237232   1.627   6.368   6.521
12430TIP3    H137233   1.590   6.367   6.609
12430TIP3    H237234   1.583   6.296   6.475
12431TIP3   OH237235   6.132   2.381   4.714
12431TIP3    H137236   6.152   2.435   4.791
12431TIP3    H237237   6.037   2.388   4.704
12432TIP3   OH237238   4.215   5.250   2.487
12432TIP3    H137239   4.222   5.242   2.392
12432TIP3    H237240   4.148   5.186   2.512
12433TIP3   OH237241   4.398   3.930   2.607
12433TIP3    H137242   4.315   3.890   2.580
12433TIP3    H237243   4.382   3.962   2.696
12434TIP3   OH237244   3.069   0.513   0.722
12434TIP3    H137245   3.146   0.567   0.739
12434TIP3    H237246   3.102   0.440   0.671
12435TIP3   OH237247   5.687   0.332   4.089
12435TIP3    H137248   5.725   0.245   4.077
12435TIP3    H237249   5.674   0.339   4.183
12436TIP3   OH237250   4.831   1.044   2.105
12436TIP3    H137251   4.839   1.119   2.046
12436TIP3    H237252   4.909   0.992   2.088
12437TIP3   OH237253   3.799   3.265   4.880
12437TIP3    H137254   3.759   3.335   4.931
12437TIP3    H237255   3.727   3.204   4.861
12438TIP3   OH237256   5.299   1.287   4.099
12438TIP3    H137257   5.338   1.361   4.052
12438TIP3    H237258   5.317   1.212   4.043
12439TIP3   OH237259   7.458   3.092   2.257
12439TIP3    H137260   7.401   3.168   2.245
12439TIP3    H237261   7.424   3.027   2.196
12440TIP3   OH237262   6.629   6.801   3.283
12440TIP3    H137263   6.633   6.843   3.369
12440TIP3    H237264   6.568   6.855   3.232
12441TIP3   OH237265   2.512   3.326   2.532
12441TIP3    H137266   2.535   3.346   2.623
12441TIP3    H237267   2.453   3.397   2.506
12442TIP3   OH237268   3.769   5.114   2.448
12442TIP3    H137269   3.690   5.080   2.489
12442TIP3    H237270   3.748   5.205   2.427
12443TIP3   OH237271   1.970   2.336   1.456
12443TIP3    H137272   1.977   2.430   1.474
12443TIP3    H237273   2.057   2.311   1.425
12444TIP3   OH237274   3.517   6.644   0.338
12444TIP3    H137275   3.425   6.639   0.362
12444TIP3    H237276   3.520   6.709   0.268
12445TIP3   OH237277   3.166   3.771   1.522
12445TIP3    H137278   3.243   3.773   1.465
12445TIP3    H237279   3.200   3.788   1.610
12446TIP3   OH237280   4.805   2.556   5.853
12446TIP3    H137281   4.834   2.615   5.922
12446TIP3    H237282   4.851   2.585   5.774
12447TIP3   OH237283   4.933   0.279   3.044
12447TIP3    H137284   4.979   0.248   3.122
12447TIP3    H237285   4.926   0.201   2.988
12448TIP3   OH237286   0.569   5.863   0.496
12448TIP3    H137287   0.599   5.844   0.406
12448TIP3    H237288   0.620   5.940   0.522
12449TIP3   OH237289   2.330   0.711   3.629
12449TIP3    H137290   2.405   0.768   3.643
12449TIP3    H237291   2.302   0.685   3.716
12450TIP3   OH237292   6.079   3.535   4.792
12450TIP3    H137293   6.109   3.605   4.850
12450TIP3    H237294   6.151   3.472   4.791
12451TIP3   OH237295   1.441   1.651   5.180
12451TIP3    H137296   1.511   1.632   5.243
12451TIP3    H237297   1.431   1.570   5.131
12452TIP3   OH237298   4.401   6.628   2.692
12452TIP3    H137299   4.360   6.682   2.624
12452TIP3    H237300   4.448   6.561   2.644
12453TIP3   OH237301   6.477   5.780   6.222
12453TIP3    H137302   6.396   5.731   6.205
12453TIP3    H237303   6.539   5.714   6.251
12454TIP3   OH237304   7.543   2.573   3.142
12454TIP3    H137305   7.575   2.495   3.187
12454TIP3    H237306   7.478   2.541   3.080
12455TIP3   OH237307   6.794   6.807   6.050
12455TIP3    H137308   6.734   6.739   6.080
12455TIP3    H237309   6.782   6.879   6.111
12456TIP3   OH237310   2.194   3.534   6.582
12456TIP3    H137311   2.287   3.516   6.594
12456TIP3    H237312   2.158   3.453   6.546
12457TIP3   OH237313   6.107   4.944   4.958
12457TIP3    H137314   6.040   5.008   4.986
12457TIP3    H237315   6.065   4.859   4.971
12458TIP3   OH237316   4.457   5.017   5.908
12458TIP3    H137317   4.466   5.095   5.854
12458TIP3    H237318   4.369   5.024   5.946
12459TIP3   OH237319   1.492   7.297   1.640
12459TIP3    H137320   1.479   7.204   1.657
12459TIP3    H237321   1.561   7.323   1.701
12460TIP3   OH237322   3.251   3.154   1.805
12460TIP3    H137323   3.275   3.129   1.715
12460TIP3    H237324   3.328   3.199   1.839
12461TIP3   OH237325   7.802   0.228   3.930
12461TIP3    H137326   7.740   0.281   3.979
12461TIP3    H237327   7.839   0.288   3.865
12462TIP3   OH237328   8.017   2.714   6.388
12462TIP3    H137329   8.048   2.776   6.321
12462TIP3    H237330   8.018   2.629   6.344
12463TIP3   OH237331   3.569   7.698   6.713
12463TIP3    H137332   3.543   7.780   6.755
12463TIP3    H237333   3.487   7.656   6.687
12464TIP3   OH237334   5.889   3.074   2.909
12464TIP3    H137335   5.974   3.071   2.953
12464TIP3    H237336   5.842   3.146   2.951
12465TIP3   OH237337   4.337   0.157   3.290
12465TIP3    H137338   4.380   0.242   3.291
12465TIP3    H237339   4.325   0.134   3.382
12466TIP3   OH237340   2.260   7.844   2.050
12466TIP3    H137341   2.316   7.769   2.072
12466TIP3    H237342   2.203   7.854   2.126
12467TIP3   OH237343   7.913   5.088   5.396
12467TIP3    H137344   7.984   5.106   5.335
12467TIP3    H237345   7.839   5.063   5.340
12468TIP3   OH237346   5.855   6.407   2.652
12468TIP3    H137347   5.839   6.419   2.746
12468TIP3    H237348   5.897   6.321   2.646
12469TIP3   OH237349   0.171   6.702   3.390
12469TIP3    H137350   0.175   6.794   3.419
12469TIP3    H237351   0.175   6.707   3.295
12470TIP3   OH237352   4.513   6.613   4.046
12470TIP3    H137353   4.479   6.690   4.000
12470TIP3    H237354   4.465   6.610   4.128
12471TIP3   OH237355   1.204   0.255   0.678
12471TIP3    H137356   1.110   0.270   0.671
12471TIP3    H237357   1.243   0.332   0.636
12472TIP3   OH237358   5.367   5.243   5.759
12472TIP3    H137359   5.380   5.177   5.827
12472TIP3    H237360   5.404   5.323   5.797
12473TIP3   OH237361   2.477   2.884   3.075
12473TIP3    H137362   2.499   2.864   3.166
12473TIP3    H237363   2.385   2.858   3.066
12474TIP3   OH237364   2.723   2.232   0.843
12474TIP3    H137365   2.635   2.261   0.867
12474TIP3    H237366   2.716   2.205   0.751
12475TIP3   OH237367   4.294   6.711   1.519
12475TIP3    H137368   4.284   6.647   1.448
12475TIP3    H237369   4.280   6.796   1.477
12476TIP3   OH237370   1.117   1.209   5.475
12476TIP3    H137371   1.079   1.181   5.559
12476TIP3    H237372   1.083   1.297   5.462
12477TIP3   OH237373   4.445   6.717   3.488
12477TIP3    H137374   4.520   6.773   3.470
12477TIP3    H237375   4.436   6.662   3.410
12478TIP3   OH237376   1.757   1.246   2.539
12478TIP3    H137377   1.670   1.214   2.518
12478TIP3    H237378   1.741   1.329   2.584
12479TIP3   OH237379   1.211   2.779   6.519
12479TIP3    H137380   1.247   2.864   6.546
12479TIP3    H237381   1.284   2.718   6.529
12480TIP3   OH237382   6.986   2.082   6.744
12480TIP3    H137383   6.913   2.105   6.801
12480TIP3    H237384   7.056   2.143   6.767
12481TIP3   OH237385   7.360   3.193   3.761
12481TIP3    H137386   7.422   3.262   3.736
12481TIP3    H237387   7.379   3.121   3.701
12482TIP3   OH237388   1.565   2.669   4.011
12482TIP3    H137389   1.627   2.636   4.076
12482TIP3    H237390   1.605   2.749   3.978
12483TIP3   OH237391   2.199   0.605   4.825
12483TIP3    H137392   2.148   0.682   4.851
12483TIP3    H237393   2.183   0.596   4.731
12484TIP3   OH237394   5.084   2.339   1.396
12484TIP3    H137395   5.025   2.351   1.321
12484TIP3    H237396   5.054   2.258   1.437
12485TIP3   OH237397   2.788   3.455   2.574
12485TIP3    H137398   2.840   3.535   2.577
12485TIP3    H237399   2.749   3.448   2.661
12486TIP3   OH237400   4.746   2.180   2.580
12486TIP3    H137401   4.665   2.176   2.529
12486TIP3    H237402   4.750   2.270   2.610
12487TIP3   OH237403   0.392   7.288   1.536
12487TIP3    H137404   0.411   7.335   1.454
12487TIP3    H237405   0.479   7.266   1.571
12488TIP3   OH237406   5.555   4.256   6.232
12488TIP3    H137407   5.556   4.185   6.296
12488TIP3    H237408   5.588   4.332   6.281
12489TIP3   OH237409   5.394   3.201   5.254
12489TIP3    H137410   5.361   3.112   5.269
12489TIP3    H237411   5.482   3.201   5.293
12490TIP3   OH237412   7.669   6.060   3.632
12490TIP3    H137413   7.704   5.981   3.674
12490TIP3    H237414   7.698   6.132   3.688
12491TIP3   OH237415   1.247   3.572   2.059
12491TIP3    H137416   1.308   3.536   1.994
12491TIP3    H237417   1.198   3.496   2.090
12492TIP3   OH237418   2.370   2.311   0.735
12492TIP3    H137419   2.420   2.334   0.814
12492TIP3    H237420   2.354   2.217   0.744
12493TIP3   OH237421   4.689   2.681   6.524
12493TIP3    H137422   4.596   2.702   6.529
12493TIP3    H237423   4.711   2.646   6.610
12494TIP3   OH237424   6.887   3.599   1.107
12494TIP3    H137425   6.889   3.624   1.015
12494TIP3    H237426   6.803   3.554   1.118
12495TIP3   OH237427   2.841   3.480   3.186
12495TIP3    H137428   2.815   3.389   3.198
12495TIP3    H237429   2.892   3.480   3.105
12496TIP3   OH237430   0.539   3.978   6.454
12496TIP3    H137431   0.532   3.913   6.523
12496TIP3    H237432   0.460   4.032   6.463
12497TIP3   OH237433   2.861   6.130   2.978
12497TIP3    H137434   2.899   6.159   3.061
12497TIP3    H237435   2.937   6.102   2.926
12498TIP3   OH237436   2.743   2.908   1.860
12498TIP3    H137437   2.657   2.893   1.901
12498TIP3    H237438   2.726   2.976   1.794
12499TIP3   OH237439   2.032   7.397   2.297
12499TIP3    H137440   2.030   7.384   2.392
12499TIP3    H237441   2.055   7.311   2.261
12500TIP3   OH237442   3.237   2.563   1.191
12500TIP3    H137443   3.179   2.591   1.262
12500TIP3    H237444   3.207   2.613   1.115
12501TIP3   OH237445   1.604   7.426   4.683
12501TIP3    H137446   1.643   7.508   4.715
12501TIP3    H237447   1.522   7.454   4.641
12502TIP3   OH237448   7.201   6.583   3.127
12502TIP3    H137449   7.258   6.547   3.194
12502TIP3    H237450   7.123   6.527   3.130
12503TIP3   OH237451   4.514   0.334   1.614
12503TIP3    H137452   4.606   0.361   1.618
12503TIP3    H237453   4.468   0.408   1.575
12504TIP3   OH237454   7.977   3.760   1.470
12504TIP3    H137455   8.019   3.674   1.477
12504TIP3    H237456   7.885   3.743   1.490
12505TIP3   OH237457   2.097   6.697   5.929
12505TIP3    H137458   2.179   6.665   5.892
12505TIP3    H237459   2.058   6.750   5.860
12506TIP3   OH237460   4.969   0.660   1.452
12506TIP3    H137461   5.050   0.672   1.502
12506TIP3    H237462   4.920   0.741   1.465
12507TIP3   OH237463   0.080   0.194   6.345
12507TIP3    H137464   0.045   0.236   6.425
12507TIP3    H237465   0.067   0.100   6.360
12508TIP3   OH237466   5.086   0.052   4.840
12508TIP3    H137467   5.024   0.116   4.875
12508TIP3    H237468   5.064   0.046   4.747
12509TIP3   OH237469   7.343   1.199   4.118
12509TIP3    H137470   7.351   1.265   4.048
12509TIP3    H237471   7.323   1.250   4.196
12510TIP3   OH237472   0.037   1.529   1.118
12510TIP3    H137473  -0.051   1.535   1.156
12510TIP3    H237474   0.072   1.446   1.152
12511TIP3   OH237475   4.753   4.419   1.548
12511TIP3    H137476   4.846   4.411   1.526
12511TIP3    H237477   4.715   4.469   1.476
12512TIP3   OH237478   6.599   6.062   0.501
12512TIP3    H137479   6.667   6.117   0.462
12512TIP3    H237480   6.524   6.120   0.509
12513TIP3   OH237481   1.095   3.631   2.947
12513TIP3    H137482   1.098   3.547   2.903
12513TIP3    H237483   1.165   3.626   3.012
12514TIP3   OH237484   2.351   5.248   1.911
12514TIP3    H137485   2.305   5.207   1.838
12514TIP3    H237486   2.303   5.328   1.929
12515TIP3   OH237487   3.113   0.154   6.236
12515TIP3    H137488   3.195   0.106   6.246
12515TIP3    H237489   3.133   0.224   6.174
12516TIP3   OH237490   1.776   4.124   5.741
12516TIP3    H137491   1.847   4.182   5.766
12516TIP3    H237492   1.731   4.170   5.670
12517TIP3   OH237493   6.793   4.976   0.874
12517TIP3    H137494   6.708   4.933   0.877
12517TIP3    H237495   6.837   4.937   0.798
12518TIP3   OH237496   3.155   2.319   3.720
12518TIP3    H137497   3.125   2.229   3.730
12518TIP3    H237498   3.123   2.364   3.798
12519TIP3   OH237499   8.154   0.272   2.523
12519TIP3    H137500   8.214   0.266   2.597
12519TIP3    H237501   8.172   0.357   2.484
12520TIP3   OH237502   4.962   3.458   4.827
12520TIP3    H137503   4.943   3.397   4.899
12520TIP3    H237504   4.939   3.544   4.862
12521TIP3   OH237505   0.815   5.667   6.827
12521TIP3    H137506   0.888   5.725   6.804
12521TIP3    H237507   0.857   5.589   6.864
12522TIP3   OH237508   2.383   2.409   4.357
12522TIP3    H137509   2.316   2.461   4.402
12522TIP3    H237510   2.378   2.322   4.398
12523TIP3   OH237511   0.061   5.239   6.342
12523TIP3    H137512  -0.026   5.266   6.373
12523TIP3    H237513   0.062   5.144   6.352
12524TIP3   OH237514   1.598   6.084   3.801
12524TIP3    H137515   1.660   6.026   3.845
12524TIP3    H237516   1.596   6.163   3.855
12525TIP3   OH237517   1.535   2.398   3.006
12525TIP3    H137518   1.597   2.344   2.958
12525TIP3    H237519   1.542   2.369   3.097
12526TIP3   OH237520   2.827   2.070   3.092
12526TIP3    H137521   2.841   2.158   3.127
12526TIP3    H237522   2.915   2.032   3.086
12527TIP3   OH237523   5.450   1.504   0.526
12527TIP3    H137524   5.514   1.573   0.510
12527TIP3    H237525   5.501   1.431   0.562
12528TIP3   OH237526   1.704   5.151   5.940
12528TIP3    H137527   1.718   5.114   6.027
12528TIP3    H237528   1.651   5.229   5.955
12529TIP3   OH237529   0.066   6.379   4.563
12529TIP3    H137530   0.077   6.466   4.525
12529TIP3    H237531  -0.004   6.339   4.511
12530TIP3   OH237532   2.768   0.190   5.458
12530TIP3    H137533   2.760   0.245   5.380
12530TIP3    H237534   2.771   0.253   5.531
12531TIP3   OH237535   2.354   5.703   5.083
12531TIP3    H137536   2.305   5.776   5.046
12531TIP3    H237537   2.388   5.655   5.007
12532TIP3   OH237538   1.201   5.930   6.505
12532TIP3    H137539   1.281   5.881   6.488
12532TIP3    H237540   1.155   5.931   6.421
12533TIP3   OH237541   0.184   6.569   2.168
12533TIP3    H137542   0.271   6.530   2.161
12533TIP3    H237543   0.130   6.518   2.108
12534TIP3   OH237544   7.903   3.774   5.629
12534TIP3    H137545   7.860   3.689   5.635
12534TIP3    H237546   7.859   3.829   5.693
12535TIP3   OH237547   6.205   4.643   1.421
12535TIP3    H137548   6.208   4.635   1.516
12535TIP3    H237549   6.218   4.554   1.389
12536TIP3   OH237550   2.060   2.081   1.595
12536TIP3    H137551   2.050   2.147   1.664
12536TIP3    H237552   2.009   2.116   1.521
12537TIP3   OH237553   2.318   4.655   3.118
12537TIP3    H137554   2.281   4.725   3.172
12537TIP3    H237555   2.399   4.692   3.083
12538TIP3   OH237556   1.686   5.497   3.399
12538TIP3    H137557   1.620   5.489   3.468
12538TIP3    H237558   1.708   5.590   3.398
12539TIP3   OH237559   7.481   7.738   0.183
12539TIP3    H137560   7.388   7.745   0.202
12539TIP3    H237561   7.490   7.653   0.138
12540TIP3   OH237562   0.294   2.493   5.016
12540TIP3    H137563   0.256   2.542   5.088
12540TIP3    H237564   0.293   2.555   4.942
12541TIP3   OH237565   0.549   1.064   2.372
12541TIP3    H137566   0.551   1.151   2.331
12541TIP3    H237567   0.639   1.034   2.368
12542TIP3   OH237568   2.604   6.735   5.615
12542TIP3    H137569   2.530   6.707   5.561
12542TIP3    H237570   2.581   6.705   5.703
12543TIP3   OH237571   3.797   6.046   0.936
12543TIP3    H137572   3.828   6.089   0.856
12543TIP3    H237573   3.836   6.097   1.007
12544TIP3   OH237574   6.006   7.360   5.936
12544TIP3    H137575   5.949   7.380   5.862
12544TIP3    H237576   5.976   7.418   6.006
12545TIP3   OH237577   1.985   1.553   2.884
12545TIP3    H137578   1.894   1.581   2.894
12545TIP3    H237579   2.008   1.515   2.969
12546TIP3   OH237580   7.037   3.934   5.107
12546TIP3    H137581   6.980   4.008   5.092
12546TIP3    H237582   7.095   3.962   5.178
12547TIP3   OH237583   1.761   3.698   6.284
12547TIP3    H137584   1.665   3.699   6.287
12547TIP3    H237585   1.782   3.658   6.200
12548TIP3   OH237586   5.505   5.059   5.951
12548TIP3    H137587   5.536   5.029   5.865
12548TIP3    H237588   5.577   5.112   5.985
12549TIP3   OH237589   0.794   0.794   3.065
12549TIP3    H137590   0.850   0.846   3.008
12549TIP3    H237591   0.792   0.708   3.024
12550TIP3   OH237592   4.759   0.839   1.539
12550TIP3    H137593   4.684   0.898   1.525
12550TIP3    H237594   4.803   0.875   1.616
12551TIP3   OH237595   1.267   2.818   0.527
12551TIP3    H137596   1.322   2.820   0.605
12551TIP3    H237597   1.297   2.741   0.478
12552TIP3   OH237598   3.249   5.571   0.532
12552TIP3    H137599   3.198   5.651   0.543
12552TIP3    H237600   3.304   5.588   0.456
12553TIP3   OH237601   4.737   4.933   3.137
12553TIP3    H137602   4.693   4.981   3.207
12553TIP3    H237603   4.795   4.998   3.096
12554TIP3   OH237604   5.035   5.005   4.985
12554TIP3    H137605   5.011   4.913   4.984
12554TIP3    H237606   4.956   5.051   4.956
12555TIP3   OH237607   7.415   7.363   2.696
12555TIP3    H137608   7.482   7.323   2.751
12555TIP3    H237609   7.461   7.432   2.649
12556TIP3   OH237610   6.960   3.998   6.503
12556TIP3    H137611   7.050   4.031   6.500
12556TIP3    H237612   6.939   3.980   6.411
12557TIP3   OH237613   3.302   2.905   5.634
12557TIP3    H137614   3.221   2.933   5.677
12557TIP3    H237615   3.334   2.985   5.590
12558TIP3   OH237616   0.254   6.324   4.193
12558TIP3    H137617   0.250   6.229   4.203
12558TIP3    H237618   0.310   6.337   4.116
12559TIP3   OH237619   5.475   3.621   6.516
12559TIP3    H137620   5.437   3.692   6.465
12559TIP3    H237621   5.531   3.574   6.454
12560TIP3   OH237622   6.424   0.699   2.233
12560TIP3    H137623   6.465   0.744   2.307
12560TIP3    H237624   6.340   0.743   2.222
12561TIP3   OH237625   4.751   2.741   5.510
12561TIP3    H137626   4.687   2.750   5.580
12561TIP3    H237627   4.832   2.778   5.546
12562TIP3   OH237628   0.938   4.298   0.436
12562TIP3    H137629   0.925   4.235   0.506
12562TIP3    H237630   0.879   4.370   0.456
12563TIP3   OH237631   7.682   3.630   6.528
12563TIP3    H137632   7.655   3.671   6.445
12563TIP3    H237633   7.770   3.597   6.510
12564TIP3   OH237634   7.449   5.280   3.442
12564TIP3    H137635   7.409   5.273   3.355
12564TIP3    H237636   7.533   5.234   3.434
12565TIP3   OH237637   2.232   6.681   1.957
12565TIP3    H137638   2.256   6.723   1.874
12565TIP3    H237639   2.315   6.668   2.002
12566TIP3   OH237640   6.131   3.585   0.974
12566TIP3    H137641   6.089   3.634   1.045
12566TIP3    H237642   6.096   3.623   0.894
12567TIP3   OH237643   8.203   0.187   5.280
12567TIP3    H137644   8.239   0.098   5.282
12567TIP3    H237645   8.109   0.174   5.269
12568TIP3   OH237646   0.233   0.865   5.365
12568TIP3    H137647   0.179   0.944   5.362
12568TIP3    H237648   0.288   0.870   5.287
12569TIP3   OH237649   3.031   1.610   4.787
12569TIP3    H137650   3.086   1.578   4.858
12569TIP3    H237651   2.942   1.609   4.822
12570TIP3   OH237652   5.936   5.723   5.621
12570TIP3    H137653   5.892   5.732   5.537
12570TIP3    H237654   6.007   5.786   5.618
12571TIP3   OH237655   1.340   3.612   2.328
12571TIP3    H137656   1.436   3.615   2.325
12571TIP3    H237657   1.314   3.579   2.243
12572TIP3   OH237658   6.240   7.663   5.876
12572TIP3    H137659   6.306   7.699   5.817
12572TIP3    H237660   6.160   7.712   5.854
12573TIP3   OH237661   5.424   6.049   4.901
12573TIP3    H137662   5.429   6.063   4.996
12573TIP3    H237663   5.473   6.122   4.864
12574TIP3   OH237664   1.580   3.384   1.460
12574TIP3    H137665   1.580   3.350   1.371
12574TIP3    H237666   1.565   3.478   1.450
12575TIP3   OH237667   1.196   0.405   3.136
12575TIP3    H137668   1.248   0.360   3.069
12575TIP3    H237669   1.136   0.461   3.086
12576TIP3   OH237670   7.091   6.932   2.593
12576TIP3    H137671   7.164   6.912   2.534
12576TIP3    H237672   7.094   6.863   2.660
12577TIP3   OH237673   7.189   2.522   0.107
12577TIP3    H137674   7.270   2.532   0.058
12577TIP3    H237675   7.214   2.539   0.198
12578TIP3   OH237676   5.389   7.036   2.841
12578TIP3    H137677   5.367   6.952   2.880
12578TIP3    H237678   5.419   7.090   2.914
12579TIP3   OH237679   1.436   6.382   6.734
12579TIP3    H137680   1.497   6.390   6.807
12579TIP3    H237681   1.419   6.473   6.707
12580TIP3   OH237682   4.964   7.854   0.591
12580TIP3    H137683   5.003   7.809   0.517
12580TIP3    H237684   4.871   7.833   0.586
12581TIP3   OH237685   6.186   0.448   6.594
12581TIP3    H137686   6.092   0.444   6.611
12581TIP3    H237687   6.200   0.384   6.524
12582TIP3   OH237688   3.221   5.655   2.321
12582TIP3    H137689   3.216   5.560   2.317
12582TIP3    H237690   3.295   5.677   2.263
12583TIP3   OH237691   1.857   3.039   0.736
12583TIP3    H137692   1.879   3.099   0.665
12583TIP3    H237693   1.927   3.051   0.800
12584TIP3   OH237694   4.726   0.577   1.626
12584TIP3    H137695   4.811   0.542   1.599
12584TIP3    H237696   4.728   0.669   1.599
12585TIP3   OH237697   0.624   2.491   5.680
12585TIP3    H137698   0.660   2.565   5.729
12585TIP3    H237699   0.538   2.522   5.652
12586TIP3   OH237700   2.308   3.670   4.258
12586TIP3    H137701   2.293   3.619   4.179
12586TIP3    H237702   2.253   3.628   4.324
12587TIP3   OH237703   5.431   5.484   5.365
12587TIP3    H137704   5.374   5.462   5.291
12587TIP3    H237705   5.370   5.499   5.438
12588TIP3   OH237706   7.703   1.075   1.282
12588TIP3    H137707   7.706   1.163   1.247
12588TIP3    H237708   7.690   1.087   1.376
12589TIP3   OH237709   5.756   2.757   5.840
12589TIP3    H137710   5.833   2.753   5.897
12589TIP3    H237711   5.779   2.703   5.765
12590TIP3   OH237712   7.593   5.059   2.260
12590TIP3    H137713   7.645   4.988   2.297
12590TIP3    H237714   7.504   5.024   2.256
12591TIP3   OH237715   6.311   2.282   3.600
12591TIP3    H137716   6.242   2.240   3.652
12591TIP3    H237717   6.339   2.214   3.539
12592TIP3   OH237718   4.771   4.117   2.402
12592TIP3    H137719   4.745   4.134   2.311
12592TIP3    H237720   4.692   4.081   2.443
12593TIP3   OH237721   8.141   7.786   1.946
12593TIP3    H137722   8.186   7.868   1.924
12593TIP3    H237723   8.135   7.739   1.863
12594TIP3   OH237724   7.675   5.156   1.303
12594TIP3    H137725   7.668   5.238   1.351
12594TIP3    H237726   7.586   5.134   1.279
12595TIP3   OH237727   5.578   0.778   0.647
12595TIP3    H137728   5.490   0.789   0.612
12595TIP3    H237729   5.605   0.866   0.673
12596TIP3   OH237730   1.931   7.438   5.289
12596TIP3    H137731   1.987   7.477   5.223
12596TIP3    H237732   1.842   7.463   5.264
12597TIP3   OH237733   5.704   2.579   2.466
12597TIP3    H137734   5.637   2.644   2.488
12597TIP3    H237735   5.778   2.601   2.523
12598TIP3   OH237736   7.127   7.321   1.945
12598TIP3    H137737   7.090   7.334   2.032
12598TIP3    H237738   7.222   7.320   1.959
12599TIP3   OH237739   5.187   4.952   6.331
12599TIP3    H137740   5.096   4.980   6.329
12599TIP3    H237741   5.195   4.901   6.412
12600TIP3   OH237742   2.733   5.817   5.529
12600TIP3    H137743   2.670   5.882   5.562
12600TIP3    H237744   2.678   5.747   5.492
12601TIP3   OH237745   7.445   2.277   3.658
12601TIP3    H137746   7.530   2.263   3.700
12601TIP3    H237747   7.458   2.243   3.569
12602TIP3   OH237748   6.995   1.615   2.910
12602TIP3    H137749   7.074   1.579   2.869
12602TIP3    H237750   7.013   1.709   2.919
12603TIP3   OH237751   2.183   0.061   0.142
12603TIP3    H137752   2.110   0.002   0.161
12603TIP3    H237753   2.150   0.119   0.073
12604TIP3   OH237754   6.349   2.014   0.599
12604TIP3    H137755   6.365   2.028   0.693
12604TIP3    H237756   6.298   1.934   0.595
12605TIP3   OH237757   7.149   7.693   4.154
12605TIP3    H137758   7.225   7.689   4.096
12605TIP3    H237759   7.083   7.638   4.112
12606TIP3   OH237760   7.410   1.812   1.515
12606TIP3    H137761   7.499   1.778   1.511
12606TIP3    H237762   7.376   1.779   1.598
12607TIP3   OH237763   2.965   0.013   5.438
12607TIP3    H137764   2.978   0.034   5.531
12607TIP3    H237765   2.884   0.058   5.415
12608TIP3   OH237766   5.933   5.679   1.098
12608TIP3    H137767   5.870   5.636   1.155
12608TIP3    H237768   6.012   5.689   1.152
12609TIP3   OH237769   0.194   4.315   4.343
12609TIP3    H137770   0.244   4.396   4.354
12609TIP3    H237771   0.213   4.265   4.423
12610TIP3   OH237772   2.803   5.437   6.042
12610TIP3    H137773   2.843   5.522   6.061
12610TIP3    H237774   2.877   5.380   6.021
12611TIP3   OH237775   4.083   6.249   2.659
12611TIP3    H137776   4.090   6.275   2.567
12611TIP3    H237777   4.160   6.289   2.700
12612TIP3   OH237778   4.134   6.333   1.404
12612TIP3    H137779   4.097   6.367   1.486
12612TIP3    H237780   4.186   6.406   1.370
12613TIP3   OH237781   5.344   5.265   6.085
12613TIP3    H137782   5.379   5.302   6.166
12613TIP3    H237783   5.395   5.185   6.070
12614TIP3   OH237784   3.619   1.262   3.978
12614TIP3    H137785   3.533   1.258   3.937
12614TIP3    H237786   3.653   1.172   3.971
12615TIP3   OH237787   6.193   0.900   6.107
12615TIP3    H137788   6.249   0.949   6.167
12615TIP3    H237789   6.254   0.851   6.051
12616TIP3   OH237790   6.115   0.400   1.203
12616TIP3    H137791   6.150   0.358   1.282
12616TIP3    H237792   6.061   0.471   1.236
12617TIP3   OH237793   5.219   1.223   1.722
12617TIP3    H137794   5.276   1.229   1.799
12617TIP3    H237795   5.228   1.308   1.679
12618TIP3   OH237796   1.599   1.675   3.455
12618TIP3    H137797   1.694   1.669   3.460
12618TIP3    H237798   1.570   1.679   3.546
12619TIP3   OH237799   5.666   7.721   3.868
12619TIP3    H137800   5.679   7.678   3.784
12619TIP3    H237801   5.596   7.784   3.852
12620TIP3   OH237802   6.469   1.150   0.986
12620TIP3    H137803   6.391   1.168   0.933
12620TIP3    H237804   6.499   1.064   0.957
12621TIP3   OH237805   3.017   6.057   0.390
12621TIP3    H137806   3.053   6.056   0.479
12621TIP3    H237807   3.020   6.150   0.365
12622TIP3   OH237808   8.133   1.857   0.463
12622TIP3    H137809   8.184   1.936   0.481
12622TIP3    H237810   8.053   1.868   0.515
12623TIP3   OH237811   2.941   6.140   4.482
12623TIP3    H137812   2.918   6.058   4.525
12623TIP3    H237813   2.963   6.114   4.392
12624TIP3   OH237814   6.033   4.660   0.259
12624TIP3    H137815   5.946   4.673   0.221
12624TIP3    H237816   6.093   4.703   0.198
12625TIP3   OH237817   5.729   2.625   0.597
12625TIP3    H137818   5.767   2.696   0.648
12625TIP3    H237819   5.668   2.669   0.537
12626TIP3   OH237820   1.096   0.595   5.532
12626TIP3    H137821   1.046   0.676   5.517
12626TIP3    H237822   1.100   0.587   5.628
12627TIP3   OH237823   0.816   0.512   0.535
12627TIP3    H137824   0.738   0.511   0.479
12627TIP3    H237825   0.876   0.572   0.491
12628TIP3   OH237826   3.420   1.651   0.973
12628TIP3    H137827   3.433   1.611   1.059
12628TIP3    H237828   3.325   1.664   0.966
12629TIP3   OH237829   7.334   7.700   5.197
12629TIP3    H137830   7.294   7.727   5.279
12629TIP3    H237831   7.282   7.625   5.168
12630TIP3   OH237832   5.821   3.038   3.262
12630TIP3    H137833   5.752   3.100   3.286
12630TIP3    H237834   5.796   3.007   3.175
12631TIP3   OH237835   7.219   3.597   4.524
12631TIP3    H137836   7.195   3.545   4.447
12631TIP3    H237837   7.315   3.594   4.526
12632TIP3   OH237838   1.781   1.371   3.630
12632TIP3    H137839   1.831   1.319   3.567
12632TIP3    H237840   1.831   1.453   3.638
12633TIP3   OH237841   2.526   5.633   5.445
12633TIP3    H137842   2.478   5.604   5.523
12633TIP3    H237843   2.471   5.703   5.409
12634TIP3   OH237844   1.440   5.230   1.491
12634TIP3    H137845   1.389   5.150   1.474
12634TIP3    H237846   1.376   5.301   1.483
12635TIP3   OH237847   4.476   5.542   3.239
12635TIP3    H137848   4.563   5.503   3.244
12635TIP3    H237849   4.493   5.634   3.217
12636TIP3   OH237850   3.612   6.371   6.200
12636TIP3    H137851   3.633   6.304   6.264
12636TIP3    H237852   3.558   6.326   6.134
12637TIP3   OH237853   7.128   6.579   6.357
12637TIP3    H137854   7.043   6.538   6.371
12637TIP3    H237855   7.158   6.545   6.273
12638TIP3   OH237856   7.287   0.854   4.608
12638TIP3    H137857   7.352   0.857   4.678
12638TIP3    H237858   7.214   0.906   4.640
12639TIP3   OH237859   2.831   6.842   2.344
12639TIP3    H137860   2.904   6.881   2.296
12639TIP3    H237861   2.873   6.784   2.407
12640TIP3   OH237862   2.241   1.270   0.139
12640TIP3    H137863   2.279   1.188   0.107
12640TIP3    H237864   2.293   1.338   0.096
12641TIP3   OH237865   6.525   6.033   5.378
12641TIP3    H137866   6.502   6.079   5.459
12641TIP3    H237867   6.596   5.973   5.404
12642TIP3   OH237868   3.151   3.624   5.414
12642TIP3    H137869   3.240   3.655   5.395
12642TIP3    H237870   3.136   3.650   5.505
12643TIP3   OH237871   1.752   3.011   4.372
12643TIP3    H137872   1.747   3.094   4.420
12643TIP3    H237873   1.660   2.988   4.356
12644TIP3   OH237874   7.786   1.735   5.696
12644TIP3    H137875   7.818   1.825   5.704
12644TIP3    H237876   7.864   1.681   5.703
12645TIP3   OH237877   7.312   2.693   6.049
12645TIP3    H137878   7.286   2.731   6.133
12645TIP3    H237879   7.348   2.766   5.999
12646TIP3   OH237880   6.024   6.836   3.552
12646TIP3    H137881   6.089   6.788   3.500
12646TIP3    H237882   6.047   6.816   3.642
12647TIP3   OH237883   5.751   5.815   6.223
12647TIP3    H137884   5.672   5.852   6.184
12647TIP3    H237885   5.799   5.890   6.257
12648TIP3   OH237886   7.424   5.250   4.396
12648TIP3    H137887   7.337   5.262   4.357
12648TIP3    H237888   7.451   5.163   4.367
12649TIP3   OH237889   0.926   7.199   4.384
12649TIP3    H137890   0.860   7.268   4.376
12649TIP3    H237891   0.958   7.187   4.294
12650TIP3   OH237892   4.008   7.257   3.898
12650TIP3    H137893   4.006   7.347   3.931
12650TIP3    H237894   3.976   7.264   3.808
12651TIP3   OH237895   6.962   0.591   6.560
12651TIP3    H137896   6.888   0.570   6.617
12651TIP3    H237897   6.934   0.562   6.473
12652TIP3   OH237898   0.051   2.128   2.829
12652TIP3    H137899   0.011   2.077   2.900
12652TIP3    H237900   0.132   2.162   2.866
12653TIP3   OH237901   2.479   3.506   6.141
12653TIP3    H137902   2.416   3.434   6.138
12653TIP3    H237903   2.504   3.520   6.050
12654TIP3   OH237904   4.796   4.890   0.686
12654TIP3    H137905   4.831   4.817   0.635
12654TIP3    H237906   4.762   4.849   0.766
12655TIP3   OH237907   7.813   6.579   6.613
12655TIP3    H137908   7.882   6.628   6.659
12655TIP3    H237909   7.820   6.608   6.522
12656TIP3   OH237910   5.394   2.306   3.480
12656TIP3    H137911   5.386   2.312   3.575
12656TIP3    H237912   5.417   2.215   3.463
12657TIP3   OH237913   2.193   4.683   0.446
12657TIP3    H137914   2.171   4.770   0.414
12657TIP3    H237915   2.151   4.623   0.384
12658TIP3   OH237916   6.061   5.639   1.703
12658TIP3    H137917   6.037   5.713   1.647
12658TIP3    H237918   5.977   5.602   1.731
12659TIP3   OH237919   7.663   0.072   5.039
12659TIP3    H137920   7.680  -0.004   5.095
12659TIP3    H237921   7.726   0.064   4.967
12660TIP3   OH237922   5.641   0.607   4.586
12660TIP3    H137923   5.614   0.591   4.676
12660TIP3    H237924   5.733   0.634   4.593
12661TIP3   OH237925   6.823   6.626   4.059
12661TIP3    H137926   6.761   6.559   4.032
12661TIP3    H237927   6.777   6.709   4.044
12662TIP3   OH237928   7.543   0.376   0.254
12662TIP3    H137929   7.606   0.394   0.184
12662TIP3    H237930   7.590   0.321   0.316
12663TIP3   OH237931   7.096   4.594   5.707
12663TIP3    H137932   7.176   4.627   5.666
12663TIP3    H237933   7.124   4.565   5.794
12664TIP3   OH237934   6.259   4.363   0.589
12664TIP3    H137935   6.230   4.444   0.546
12664TIP3    H237936   6.346   4.384   0.622
12665TIP3   OH237937   7.539   5.778   3.326
12665TIP3    H137938   7.562   5.732   3.246
12665TIP3    H237939   7.527   5.708   3.391
12666TIP3   OH237940   2.496   2.554   6.569
12666TIP3    H137941   2.469   2.625   6.511
12666TIP3    H237942   2.438   2.561   6.645
12667TIP3   OH237943   8.294   1.375   2.472
12667TIP3    H137944   8.335   1.389   2.387
12667TIP3    H237945   8.226   1.442   2.477
12668TIP3   OH237946   5.296   6.519   2.605
12668TIP3    H137947   5.292   6.494   2.512
12668TIP3    H237948   5.336   6.443   2.648
12669TIP3   OH237949   4.473   1.116   5.312
12669TIP3    H137950   4.510   1.092   5.227
12669TIP3    H237951   4.550   1.131   5.368
12670TIP3   OH237952   5.410   4.049   6.061
12670TIP3    H137953   5.485   4.005   6.022
12670TIP3    H237954   5.448   4.113   6.121
12671TIP3   OH237955   1.947   2.306   6.097
12671TIP3    H137956   1.917   2.318   6.188
12671TIP3    H237957   1.956   2.211   6.088
12672TIP3   OH237958   6.750   4.787   2.083
12672TIP3    H137959   6.726   4.723   2.150
12672TIP3    H237960   6.754   4.737   2.002
12673TIP3   OH237961   6.970   3.345   6.727
12673TIP3    H137962   6.878   3.329   6.708
12673TIP3    H237963   7.017   3.274   6.684
12674TIP3   OH237964   0.627   6.929   6.517
12674TIP3    H137965   0.657   7.000   6.461
12674TIP3    H237966   0.655   6.954   6.605
12675TIP3   OH237967   8.164   4.154   5.471
12675TIP3    H137968   8.165   4.156   5.376
12675TIP3    H237969   8.213   4.231   5.498
12676TIP3   OH237970   6.397   5.485   1.072
12676TIP3    H137971   6.412   5.579   1.079
12676TIP3    H237972   6.343   5.464   1.149
12677TIP3   OH237973   6.644   6.763   1.992
12677TIP3    H137974   6.631   6.851   2.027
12677TIP3    H237975   6.733   6.740   2.018
12678TIP3   OH237976   8.168   7.303   0.407
12678TIP3    H137977   8.161   7.326   0.499
12678TIP3    H237978   8.170   7.207   0.406
12679TIP3   OH237979   2.790   7.548   4.411
12679TIP3    H137980   2.871   7.556   4.361
12679TIP3    H237981   2.738   7.624   4.386
12680TIP3   OH237982   7.859   5.878   1.287
12680TIP3    H137983   7.820   5.931   1.218
12680TIP3    H237984   7.943   5.919   1.305
12681TIP3   OH237985   7.680   5.994   1.104
12681TIP3    H137986   7.602   5.979   1.158
12681TIP3    H237987   7.696   6.089   1.111
12682TIP3   OH237988   0.963   2.784   5.567
12682TIP3    H137989   0.945   2.857   5.509
12682TIP3    H237990   0.953   2.706   5.512
12683TIP3   OH237991   3.360   7.263   4.694
12683TIP3    H137992   3.311   7.325   4.748
12683TIP3    H237993   3.450   7.267   4.728
12684TIP3   OH237994   6.229   1.707   4.774
12684TIP3    H137995   6.219   1.759   4.694
12684TIP3    H237996   6.274   1.628   4.745
12685TIP3   OH237997   2.704   4.303   2.781
12685TIP3    H137998   2.734   4.213   2.773
12685TIP3    H237999   2.692   4.333   2.691
12686TIP3   OH238000   3.210   0.194   4.637
12686TIP3    H138001   3.173   0.273   4.676
12686TIP3    H238002   3.149   0.170   4.568
12687TIP3   OH238003   0.581   4.263   1.200
12687TIP3    H138004   0.605   4.197   1.265
12687TIP3    H238005   0.500   4.302   1.233
12688TIP3   OH238006   4.392   6.222   5.633
12688TIP3    H138007   4.438   6.260   5.708
12688TIP3    H238008   4.301   6.248   5.645
12689TIP3   OH238009   5.335   2.926   1.460
12689TIP3    H138010   5.247   2.955   1.435
12689TIP3    H238011   5.393   2.987   1.416
12690TIP3   OH238012   4.627   0.585   0.850
12690TIP3    H138013   4.549   0.544   0.888
12690TIP3    H238014   4.654   0.650   0.914
12691TIP3   OH238015   3.893   3.604   0.127
12691TIP3    H138016   3.927   3.549   0.057
12691TIP3    H238017   3.816   3.558   0.159
12692TIP3   OH238018   8.007   5.008   3.393
12692TIP3    H138019   7.965   4.975   3.472
12692TIP3    H238020   7.935   5.031   3.335
12693TIP3   OH238021   3.808   4.724   2.903
12693TIP3    H138022   3.769   4.687   2.982
12693TIP3    H238023   3.889   4.674   2.891
12694TIP3   OH238024   1.266   4.953   5.423
12694TIP3    H138025   1.305   4.909   5.348
12694TIP3    H238026   1.315   5.035   5.431
12695TIP3   OH238027   8.087   5.265   3.261
12695TIP3    H138028   8.040   5.197   3.310
12695TIP3    H238029   8.021   5.333   3.245
12696TIP3   OH238030   6.324   2.067   3.972
12696TIP3    H138031   6.394   2.129   3.957
12696TIP3    H238032   6.251   2.098   3.918
12697TIP3   OH238033   5.125   7.043   0.820
12697TIP3    H138034   5.075   7.111   0.864
12697TIP3    H238035   5.164   6.991   0.891
12698TIP3   OH238036   3.690   5.951  -0.019
12698TIP3    H138037   3.664   5.962  -0.110
12698TIP3    H238038   3.707   5.858  -0.010
12699TIP3   OH238039   1.630   3.788   5.805
12699TIP3    H138040   1.683   3.840   5.865
12699TIP3    H238041   1.688   3.769   5.731
12700TIP3   OH238042   5.628   4.372   0.308
12700TIP3    H138043   5.720   4.377   0.282
12700TIP3    H238044   5.614   4.280   0.331
12701TIP3   OH238045   4.548   0.725   4.244
12701TIP3    H138046   4.550   0.782   4.168
12701TIP3    H238047   4.638   0.692   4.252
12702TIP3   OH238048   2.245   1.718   4.425
12702TIP3    H138049   2.302   1.758   4.491
12702TIP3    H238050   2.261   1.624   4.433
12703TIP3   OH238051   0.295   0.453   3.096
12703TIP3    H138052   0.255   0.373   3.132
12703TIP3    H238053   0.240   0.475   3.021
12704TIP3   OH238054   3.952   2.909   2.620
12704TIP3    H138055   3.972   2.930   2.528
12704TIP3    H238056   3.959   2.813   2.624
12705TIP3   OH238057   6.476   1.760   3.288
12705TIP3    H138058   6.544   1.778   3.223
12705TIP3    H238059   6.513   1.689   3.341
12706TIP3   OH238060   5.012   1.862   0.168
12706TIP3    H138061   5.009   1.952   0.200
12706TIP3    H238062   4.920   1.834   0.167
12707TIP3   OH238063   6.097   2.446   3.478
12707TIP3    H138064   6.163   2.396   3.526
12707TIP3    H238065   6.039   2.379   3.441
12708TIP3   OH238066   0.111   3.869   0.465
12708TIP3    H138067   0.142   3.926   0.395
12708TIP3    H238068   0.023   3.844   0.438
12709TIP3   OH238069   2.358   0.096   3.308
12709TIP3    H138070   2.296   0.161   3.274
12709TIP3    H238071   2.429   0.147   3.346
12710TIP3   OH238072   1.156   2.376   3.544
12710TIP3    H138073   1.142   2.314   3.615
12710TIP3    H238074   1.085   2.440   3.553
12711TIP3   OH238075   6.888   4.900   6.797
12711TIP3    H138076   6.862   4.937   6.881
12711TIP3    H238077   6.807   4.896   6.746
12712TIP3   OH238078   2.040   7.447   3.534
12712TIP3    H138079   2.032   7.441   3.439
12712TIP3    H238080   1.974   7.512   3.560
12713TIP3   OH238081   2.538   4.446   1.816
12713TIP3    H138082   2.558   4.444   1.910
12713TIP3    H238083   2.444   4.460   1.812
12714TIP3   OH238084   3.816   1.103   2.266
12714TIP3    H138085   3.758   1.131   2.337
12714TIP3    H238086   3.875   1.177   2.252
12715TIP3   OH238087   6.399   0.198   3.085
12715TIP3    H138088   6.359   0.169   3.167
12715TIP3    H238089   6.369   0.288   3.074
12716TIP3   OH238090   7.881   1.826   5.446
12716TIP3    H138091   7.946   1.857   5.508
12716TIP3    H238092   7.823   1.770   5.498
12717TIP3   OH238093   4.815   0.946   6.330
12717TIP3    H138094   4.826   0.861   6.372
12717TIP3    H238095   4.766   0.999   6.393
12718TIP3   OH238096   0.200   5.754   1.169
12718TIP3    H138097   0.154   5.811   1.108
12718TIP3    H238098   0.200   5.668   1.127
12719TIP3   OH238099   5.059   4.755   6.100
12719TIP3    H138100   5.124   4.825   6.088
12719TIP3    H238101   4.976   4.796   6.073
12720TIP3   OH238102   2.995   5.466   5.016
12720TIP3    H138103   2.900   5.467   5.007
12720TIP3    H238104   3.016   5.376   5.044
12721TIP3   OH238105   3.472   2.070   3.361
12721TIP3    H138106   3.525   2.059   3.441
12721TIP3    H238107   3.410   2.139   3.382
12722TIP3   OH238108   0.868   3.596   2.126
12722TIP3    H138109   0.947   3.636   2.162
12722TIP3    H238110   0.804   3.601   2.197
12723TIP3   OH238111   5.848   2.499   6.177
12723TIP3    H138112   5.835   2.517   6.270
12723TIP3    H238113   5.870   2.406   6.174
12724TIP3   OH238114   5.662   7.060   6.067
12724TIP3    H138115   5.625   7.096   5.987
12724TIP3    H238116   5.637   7.122   6.135
12725TIP3   OH238117   3.740   4.100   5.161
12725TIP3    H138118   3.770   4.115   5.071
12725TIP3    H238119   3.791   4.160   5.214
12726TIP3   OH238120   0.583   3.641   5.755
12726TIP3    H138121   0.615   3.728   5.780
12726TIP3    H238122   0.503   3.630   5.806
12727TIP3   OH238123   8.167   6.051   2.452
12727TIP3    H138124   8.090   6.064   2.397
12727TIP3    H238125   8.131   6.037   2.540
12728TIP3   OH238126   0.863   0.607   6.485
12728TIP3    H138127   0.927   0.642   6.548
12728TIP3    H238128   0.839   0.521   6.521
12729TIP3   OH238129   3.109   3.774   3.313
12729TIP3    H138130   3.189   3.732   3.280
12729TIP3    H238131   3.059   3.702   3.350
12730TIP3   OH238132   1.656   2.972   3.550
12730TIP3    H138133   1.729   2.921   3.585
12730TIP3    H238134   1.685   2.999   3.463
12731TIP3   OH238135   4.908   2.186   3.208
12731TIP3    H138136   4.905   2.108   3.263
12731TIP3    H238137   4.827   2.183   3.157
12732TIP3   OH238138   6.049   1.221   3.659
12732TIP3    H138139   6.017   1.309   3.679
12732TIP3    H238140   6.070   1.183   3.745
12733TIP3   OH238141   1.225   7.735   2.099
12733TIP3    H138142   1.289   7.804   2.112
12733TIP3    H238143   1.255   7.663   2.155
12734TIP3   OH238144   1.264   4.451   1.898
12734TIP3    H138145   1.183   4.446   1.848
12734TIP3    H238146   1.279   4.362   1.929
12735TIP3   OH238147   5.898   3.297   1.706
12735TIP3    H138148   5.877   3.285   1.799
12735TIP3    H238149   5.814   3.284   1.661
12736TIP3   OH238150   6.670   6.245   0.813
12736TIP3    H138151   6.596   6.305   0.824
12736TIP3    H238152   6.720   6.281   0.740
12737TIP3   OH238153   4.410   2.816   1.107
12737TIP3    H138154   4.345   2.756   1.145
12737TIP3    H238155   4.465   2.759   1.053
12738TIP3   OH238156   5.808   0.717   0.508
12738TIP3    H138157   5.724   0.719   0.555
12738TIP3    H238158   5.807   0.796   0.455
12739TIP3   OH238159   0.311   3.822   3.040
12739TIP3    H138160   0.389   3.877   3.042
12739TIP3    H238161   0.337   3.741   3.084
12740TIP3   OH238162   6.884   7.158   5.724
12740TIP3    H138163   6.816   7.208   5.770
12740TIP3    H238164   6.949   7.224   5.699
12741TIP3   OH238165   2.206   3.015   0.316
12741TIP3    H138166   2.247   2.992   0.400
12741TIP3    H238167   2.150   2.940   0.296
12742TIP3   OH238168   1.325   6.836   0.852
12742TIP3    H138169   1.307   6.774   0.782
12742TIP3    H238170   1.308   6.787   0.932
12743TIP3   OH238171   8.031   6.294   0.855
12743TIP3    H138172   8.046   6.386   0.832
12743TIP3    H238173   7.962   6.265   0.796
12744TIP3   OH238174   4.514   0.060   1.506
12744TIP3    H138175   4.571   0.128   1.473
12744TIP3    H238176   4.441   0.057   1.444
12745TIP3   OH238177   8.050   3.912   2.154
12745TIP3    H138178   7.976   3.858   2.183
12745TIP3    H238179   8.114   3.849   2.121
12746TIP3   OH238180   8.229   6.048   3.829
12746TIP3    H138181   8.139   6.060   3.799
12746TIP3    H238182   8.221   6.013   3.917
12747TIP3   OH238183   7.569   7.670   4.865
12747TIP3    H138184   7.559   7.756   4.825
12747TIP3    H238185   7.599   7.688   4.954
12748TIP3   OH238186   7.327   1.102   2.818
12748TIP3    H138187   7.244   1.121   2.775
12748TIP3    H238188   7.317   1.138   2.906
12749TIP3   OH238189   5.223   0.876   5.098
12749TIP3    H138190   5.280   0.925   5.157
12749TIP3    H238191   5.276   0.859   5.021
12750TIP3   OH238192   1.773   1.183   6.112
12750TIP3    H138193   1.785   1.276   6.131
12750TIP3    H238194   1.703   1.181   6.046
12751TIP3   OH238195   1.617   2.322   1.881
12751TIP3    H138196   1.642   2.252   1.819
12751TIP3    H238197   1.620   2.402   1.829
12752TIP3   OH238198   5.174   1.458   5.204
12752TIP3    H138199   5.206   1.536   5.249
12752TIP3    H238200   5.141   1.401   5.273
12753TIP3   OH238201   6.751   6.057   1.519
12753TIP3    H138202   6.843   6.033   1.530
12753TIP3    H238203   6.703   5.977   1.541
12754TIP3   OH238204   1.567   7.229   1.167
12754TIP3    H138205   1.596   7.245   1.257
12754TIP3    H238206   1.486   7.280   1.158
12755TIP3   OH238207   1.757   2.246   6.343
12755TIP3    H138208   1.708   2.164   6.344
12755TIP3    H238209   1.817   2.239   6.417
12756TIP3   OH238210   4.321   5.622   2.032
12756TIP3    H138211   4.397   5.567   2.009
12756TIP3    H238212   4.273   5.632   1.950
12757TIP3   OH238213   0.451   7.061   5.115
12757TIP3    H138214   0.449   7.123   5.042
12757TIP3    H238215   0.540   7.067   5.149
12758TIP3   OH238216   5.068   1.576   5.724
12758TIP3    H138217   4.993   1.550   5.778
12758TIP3    H238218   5.030   1.609   5.643
12759TIP3   OH238219   5.162   6.752   5.237
12759TIP3    H138220   5.161   6.846   5.251
12759TIP3    H238221   5.120   6.740   5.151
12760TIP3   OH238222   3.790   7.756   1.975
12760TIP3    H138223   3.776   7.729   1.884
12760TIP3    H238224   3.825   7.845   1.968
12761TIP3   OH238225   3.996   6.438   5.219
12761TIP3    H138226   3.975   6.422   5.127
12761TIP3    H238227   3.946   6.371   5.267
12762TIP3   OH238228   3.801   4.112   1.644
12762TIP3    H138229   3.890   4.076   1.649
12762TIP3    H238230   3.806   4.194   1.693
12763TIP3   OH238231   0.715   3.755   2.823
12763TIP3    H138232   0.797   3.756   2.774
12763TIP3    H238233   0.663   3.826   2.785
12764TIP3   OH238234   0.195   4.379   2.772
12764TIP3    H138235   0.206   4.345   2.861
12764TIP3    H238236   0.103   4.363   2.752
12765TIP3   OH238237   2.638   3.452   2.276
12765TIP3    H138238   2.675   3.394   2.208
12765TIP3    H238239   2.670   3.415   2.358
12766TIP3   OH238240   0.297   1.121   5.792
12766TIP3    H138241   0.331   1.072   5.867
12766TIP3    H238242   0.210   1.086   5.777
12767TIP3   OH238243   1.857   7.172   1.247
12767TIP3    H138244   1.789   7.193   1.311
12767TIP3    H238245   1.839   7.081   1.221
12768TIP3   OH238246   2.361   7.086   2.507
12768TIP3    H138247   2.327   7.161   2.458
12768TIP3    H238248   2.414   7.037   2.444
12769TIP3   OH238249   2.239   4.117   3.066
12769TIP3    H138250   2.312   4.072   3.023
12769TIP3    H238251   2.221   4.064   3.144
12770TIP3   OH238252   5.281   5.222   3.629
12770TIP3    H138253   5.265   5.233   3.722
12770TIP3    H238254   5.232   5.294   3.588
12771TIP3   OH238255   1.607   2.590   6.409
12771TIP3    H138256   1.637   2.565   6.322
12771TIP3    H238257   1.625   2.684   6.415
12772TIP3   OH238258   4.160   0.874   5.983
12772TIP3    H138259   4.117   0.791   6.004
12772TIP3    H238260   4.102   0.915   5.918
12773TIP3   OH238261   8.153   7.412   4.340
12773TIP3    H138262   8.231   7.413   4.395
12773TIP3    H238263   8.132   7.505   4.327
12774TIP3   OH238264   4.356   4.386   4.384
12774TIP3    H138265   4.392   4.374   4.472
12774TIP3    H238266   4.403   4.461   4.349
12775TIP3   OH238267   2.921   6.079   6.203
12775TIP3    H138268   2.924   6.148   6.270
12775TIP3    H238269   2.874   6.119   6.129
12776TIP3   OH238270   5.768   4.392   4.446
12776TIP3    H138271   5.784   4.479   4.485
12776TIP3    H238272   5.800   4.330   4.512
12777TIP3   OH238273   5.680   3.968   5.426
12777TIP3    H138274   5.668   4.058   5.393
12777TIP3    H238275   5.593   3.929   5.419
12778TIP3   OH238276   2.253   4.281   6.427
12778TIP3    H138277   2.244   4.234   6.510
12778TIP3    H238278   2.199   4.232   6.365
12779TIP3   OH238279   1.006   7.470   4.450
12779TIP3    H138280   0.915   7.441   4.444
12779TIP3    H238281   1.010   7.546   4.391
12780TIP3   OH238282   5.919   4.916   4.432
12780TIP3    H138283   6.009   4.902   4.463
12780TIP3    H238284   5.880   4.973   4.499
12781TIP3   OH238285   4.265   2.160   4.022
12781TIP3    H138286   4.347   2.181   3.978
12781TIP3    H238287   4.247   2.235   4.078
12782TIP3   OH238288   2.840   0.529   1.578
12782TIP3    H138289   2.780   0.460   1.605
12782TIP3    H238290   2.794   0.610   1.599
12783TIP3   OH238291   7.225   0.422   0.660
12783TIP3    H138292   7.167   0.498   0.649
12783TIP3    H238293   7.254   0.427   0.751
12784TIP3   OH238294   5.111   2.849   6.415
12784TIP3    H138295   5.076   2.789   6.349
12784TIP3    H238296   5.193   2.881   6.377
12785TIP3   OH238297   5.825   0.250   6.420
12785TIP3    H138298   5.829   0.247   6.515
12785TIP3    H238299   5.888   0.184   6.391
12786TIP3   OH238300   0.131   7.594   1.366
12786TIP3    H138301   0.202   7.595   1.302
12786TIP3    H238302   0.173   7.623   1.448
12787TIP3   OH238303   5.228   7.716   1.328
12787TIP3    H138304   5.151   7.682   1.373
12787TIP3    H238305   5.227   7.674   1.242
12788TIP3   OH238306   5.010   1.954   3.350
12788TIP3    H138307   5.034   1.981   3.261
12788TIP3    H238308   4.929   1.906   3.339
12789TIP3   OH238309   1.740   7.460   4.194
12789TIP3    H138310   1.783   7.539   4.226
12789TIP3    H238311   1.710   7.415   4.273
12790TIP3   OH238312   5.722   5.272   5.999
12790TIP3    H138313   5.721   5.327   5.920
12790TIP3    H238314   5.815   5.249   6.009
12791TIP3   OH238315   7.992   2.586   2.509
12791TIP3    H138316   8.044   2.506   2.522
12791TIP3    H238317   8.048   2.657   2.540
12792TIP3   OH238318   1.677   1.851   1.973
12792TIP3    H138319   1.711   1.772   2.016
12792TIP3    H238320   1.671   1.916   2.044
12793TIP3   OH238321   6.723   3.866   1.170
12793TIP3    H138322   6.784   3.938   1.153
12793TIP3    H238323   6.775   3.787   1.158
12794TIP3   OH238324   1.503   6.845   0.099
12794TIP3    H138325   1.436   6.816   0.161
12794TIP3    H238326   1.490   6.789   0.022
12795TIP3   OH238327   0.747   0.530   1.012
12795TIP3    H138328   0.707   0.509   1.097
12795TIP3    H238329   0.765   0.624   1.017
12796TIP3   OH238330   1.175   3.678   5.935
12796TIP3    H138331   1.222   3.599   5.908
12796TIP3    H238332   1.084   3.662   5.910
12797TIP3   OH238333   8.007   1.063   4.068
12797TIP3    H138334   8.087   1.051   4.018
12797TIP3    H238335   7.947   1.107   4.008
12798TIP3   OH238336   5.569   3.390   6.331
12798TIP3    H138337   5.559   3.418   6.240
12798TIP3    H238338   5.642   3.328   6.331
12799TIP3   OH238339   4.857   5.839   0.646
12799TIP3    H138340   4.781   5.793   0.682
12799TIP3    H238341   4.933   5.795   0.685
12800TIP3   OH238342   6.155   7.001   4.440
12800TIP3    H138343   6.212   7.051   4.498
12800TIP3    H238344   6.130   6.924   4.492
12801TIP3   OH238345   5.044   0.720   1.935
12801TIP3    H138346   5.093   0.729   1.853
12801TIP3    H238347   5.039   0.810   1.969
12802TIP3   OH238348   7.741   7.656   5.369
12802TIP3    H138349   7.757   7.564   5.390
12802TIP3    H238350   7.660   7.677   5.415
12803TIP3   OH238351   1.386   4.360   5.683
12803TIP3    H138352   1.366   4.420   5.611
12803TIP3    H238353   1.344   4.399   5.759
12804TIP3   OH238354   2.281   4.817   6.578
12804TIP3    H138355   2.360   4.829   6.526
12804TIP3    H238356   2.311   4.816   6.668
12805TIP3   OH238357   6.569   2.649   0.408
12805TIP3    H138358   6.635   2.718   0.413
12805TIP3    H238359   6.618   2.569   0.429
12806TIP3   OH238360   0.121   1.268   0.437
12806TIP3    H138361   0.045   1.211   0.452
12806TIP3    H238362   0.130   1.317   0.519
12807TIP3   OH238363   4.851   5.617   4.927
12807TIP3    H138364   4.819   5.683   4.988
12807TIP3    H238365   4.931   5.583   4.968
12808TIP3   OH238366   7.809   2.948   0.010
12808TIP3    H138367   7.834   2.941   0.102
12808TIP3    H238368   7.770   2.863  -0.011
12809TIP3   OH238369   5.726   4.152   4.595
12809TIP3    H138370   5.665   4.149   4.521
12809TIP3    H238371   5.775   4.069   4.589
12810TIP3   OH238372   2.714   3.183   4.333
12810TIP3    H138373   2.631   3.165   4.378
12810TIP3    H238374   2.690   3.191   4.241
12811TIP3   OH238375   7.508   3.507   3.439
12811TIP3    H138376   7.474   3.596   3.428
12811TIP3    H238377   7.595   3.509   3.399
12812TIP3   OH238378   1.385   6.048   1.053
12812TIP3    H138379   1.455   6.083   1.108
12812TIP3    H238380   1.310   6.104   1.073
12813TIP3   OH238381   1.989   2.321   6.488
12813TIP3    H138382   1.934   2.389   6.449
12813TIP3    H238383   2.006   2.352   6.577
12814TIP3   OH238384   3.024   3.502   0.979
12814TIP3    H138385   3.023   3.413   1.012
12814TIP3    H238386   3.116   3.519   0.959
12815TIP3   OH238387   0.277   1.115   1.044
12815TIP3    H138388   0.215   1.059   0.995
12815TIP3    H238389   0.343   1.054   1.077
12816TIP3   OH238390   7.307   0.093   1.650
12816TIP3    H138391   7.273   0.075   1.738
12816TIP3    H238392   7.231   0.120   1.599
12817TIP3   OH238393   6.225   0.694   2.495
12817TIP3    H138394   6.255   0.605   2.480
12817TIP3    H238395   6.303   0.748   2.481
12818TIP3   OH238396   3.812   5.715   2.078
12818TIP3    H138397   3.897   5.670   2.077
12818TIP3    H238398   3.748   5.645   2.087
12819TIP3   OH238399   0.262   5.503   3.086
12819TIP3    H138400   0.204   5.535   3.155
12819TIP3    H238401   0.303   5.581   3.050
12820TIP3   OH238402   7.476   6.392   2.695
12820TIP3    H138403   7.520   6.403   2.779
12820TIP3    H238404   7.384   6.411   2.713
12821TIP3   OH238405   4.907   6.343   3.519
12821TIP3    H138406   4.830   6.400   3.513
12821TIP3    H238407   4.955   6.375   3.595
12822TIP3   OH238408   0.167   0.898   0.334
12822TIP3    H138409   0.177   0.910   0.240
12822TIP3    H238410   0.098   0.833   0.342
12823TIP3   OH238411   7.757   3.665   0.082
12823TIP3    H138412   7.775   3.757   0.060
12823TIP3    H238413   7.702   3.633   0.011
12824TIP3   OH238414   6.659   5.572   6.222
12824TIP3    H138415   6.595   5.507   6.193
12824TIP3    H238416   6.686   5.542   6.309
12825TIP3   OH238417   1.788   1.434   4.186
12825TIP3    H138418   1.693   1.432   4.192
12825TIP3    H238419   1.818   1.412   4.274
12826TIP3   OH238420   7.893   7.784   1.091
12826TIP3    H138421   7.799   7.791   1.110
12826TIP3    H238422   7.910   7.853   1.026
12827TIP3   OH238423   7.585   1.791   2.852
12827TIP3    H138424   7.674   1.797   2.818
12827TIP3    H238425   7.563   1.698   2.847
12828TIP3   OH238426   4.469   2.905   5.442
12828TIP3    H138427   4.509   2.875   5.524
12828TIP3    H238428   4.381   2.932   5.467
12829TIP3   OH238429   2.725   2.355   4.303
12829TIP3    H138430   2.690   2.442   4.319
12829TIP3    H238431   2.819   2.364   4.320
12830TIP3   OH238432   8.018   1.694   0.884
12830TIP3    H138433   8.031   1.606   0.920
12830TIP3    H238434   8.059   1.752   0.948
12831TIP3   OH238435   4.927   3.901   0.724
12831TIP3    H138436   4.987   3.903   0.650
12831TIP3    H238437   4.907   3.808   0.737
12832TIP3   OH238438   4.845   2.033   6.748
12832TIP3    H138439   4.899   1.973   6.697
12832TIP3    H238440   4.794   1.977   6.806
12833TIP3   OH238441   4.349   7.103   4.715
12833TIP3    H138442   4.254   7.100   4.727
12833TIP3    H238443   4.368   7.028   4.659
12834TIP3   OH238444   3.957   6.501   3.480
12834TIP3    H138445   3.917   6.447   3.549
12834TIP3    H238446   4.046   6.517   3.511
12835TIP3   OH238447   4.875   7.195   4.290
12835TIP3    H138448   4.863   7.100   4.282
12835TIP3    H238449   4.936   7.217   4.219
12836TIP3   OH238450   1.671   3.571   2.693
12836TIP3    H138451   1.711   3.658   2.683
12836TIP3    H238452   1.580   3.584   2.666
12837TIP3   OH238453   1.457   4.645   2.400
12837TIP3    H138454   1.413   4.725   2.373
12837TIP3    H238455   1.480   4.660   2.492
12838TIP3   OH238456   0.474   0.470   5.121
12838TIP3    H138457   0.534   0.521   5.065
12838TIP3    H238458   0.492   0.501   5.209
12839TIP3   OH238459   5.563   7.282   0.203
12839TIP3    H138460   5.490   7.274   0.265
12839TIP3    H238461   5.571   7.194   0.165
12840TIP3   OH238462   7.494   4.476   6.700
12840TIP3    H138463   7.438   4.490   6.776
12840TIP3    H238464   7.577   4.445   6.737
12841TIP3   OH238465   7.917   7.394   5.210
12841TIP3    H138466   7.919   7.455   5.136
12841TIP3    H238467   7.824   7.377   5.225
12842TIP3   OH238468   0.411   4.741   3.447
12842TIP3    H138469   0.456   4.703   3.522
12842TIP3    H238470   0.319   4.719   3.461
12843TIP3   OH238471   2.646   4.827   3.754
12843TIP3    H138472   2.689   4.793   3.675
12843TIP3    H238473   2.660   4.758   3.819
12844TIP3   OH238474   7.967   2.229   1.656
12844TIP3    H138475   8.033   2.220   1.587
12844TIP3    H238476   7.969   2.145   1.702
12845TIP3   OH238477   1.989   6.855   5.752
12845TIP3    H138478   1.938   6.795   5.698
12845TIP3    H238479   2.033   6.913   5.690
12846TIP3   OH238480   0.382   2.430  -0.006
12846TIP3    H138481   0.334   2.351   0.018
12846TIP3    H238482   0.398   2.421  -0.099
12847TIP3   OH238483   0.136   4.817   1.634
12847TIP3    H138484   0.131   4.904   1.594
12847TIP3    H238485   0.226   4.809   1.665
12848TIP3   OH238486   4.212   5.181   0.230
12848TIP3    H138487   4.207   5.226   0.145
12848TIP3    H238488   4.282   5.117   0.220
12849TIP3   OH238489   5.565   2.059   5.922
12849TIP3    H138490   5.582   2.142   5.876
12849TIP3    H238491   5.651   2.018   5.929
12850TIP3   OH238492   4.906   5.743   1.217
12850TIP3    H138493   4.886   5.656   1.182
12850TIP3    H238494   4.947   5.790   1.144
12851TIP3   OH238495   7.714   6.009   4.739
12851TIP3    H138496   7.792   6.001   4.685
12851TIP3    H238497   7.696   6.103   4.741
12852TIP3   OH238498   6.010   1.506   0.309
12852TIP3    H138499   6.091   1.549   0.338
12852TIP3    H238500   5.994   1.543   0.222
12853TIP3   OH238501   6.310   6.052   1.317
12853TIP3    H138502   6.234   6.023   1.265
12853TIP3    H238503   6.378   6.069   1.252
12854TIP3   OH238504   3.142   5.882   1.680
12854TIP3    H138505   3.196   5.921   1.612
12854TIP3    H238506   3.075   5.834   1.633
12855TIP3   OH238507   0.511   1.138   3.507
12855TIP3    H138508   0.529   1.044   3.511
12855TIP3    H238509   0.446   1.147   3.437
12856TIP3   OH238510   7.197   0.385   2.421
12856TIP3    H138511   7.282   0.342   2.418
12856TIP3    H238512   7.165   0.383   2.331
12857TIP3   OH238513   6.859   5.603   5.998
12857TIP3    H138514   6.786   5.617   6.057
12857TIP3    H238515   6.936   5.629   6.048
12858TIP3   OH238516   5.966   2.799   2.834
12858TIP3    H138517   5.947   2.886   2.867
12858TIP3    H238518   6.001   2.751   2.910
12859TIP3   OH238519   3.760   3.235   0.833
12859TIP3    H138520   3.791   3.326   0.839
12859TIP3    H238521   3.831   3.184   0.871
12860TIP3   OH238522   1.183   5.074   3.489
12860TIP3    H138523   1.143   5.153   3.454
12860TIP3    H238524   1.153   5.004   3.430
12861TIP3   OH238525   1.725   0.091   2.236
12861TIP3    H138526   1.727   0.161   2.301
12861TIP3    H238527   1.649   0.111   2.181
12862TIP3   OH238528   3.284   4.628   3.898
12862TIP3    H138529   3.326   4.543   3.910
12862TIP3    H238530   3.296   4.647   3.805
12863TIP3   OH238531   0.892   5.334   6.613
12863TIP3    H138532   0.948   5.404   6.646
12863TIP3    H238533   0.803   5.367   6.622
12864TIP3   OH238534   0.989   3.626   3.264
12864TIP3    H138535   1.026   3.714   3.264
12864TIP3    H238536   1.054   3.573   3.218
12865TIP3   OH238537   2.473   5.045   3.796
12865TIP3    H138538   2.523   4.964   3.786
12865TIP3    H238539   2.526   5.111   3.750
12866TIP3   OH238540   3.964   3.833   3.298
12866TIP3    H138541   3.938   3.789   3.217
12866TIP3    H238542   3.951   3.767   3.366
12867TIP3   OH238543   0.786   2.836   3.680
12867TIP3    H138544   0.806   2.822   3.588
12867TIP3    H238545   0.843   2.908   3.707
12868TIP3   OH238546   2.185   2.416   6.024
12868TIP3    H138547   2.099   2.383   6.047
12868TIP3    H238548   2.239   2.337   6.015
12869TIP3   OH238549   6.657   3.574   5.273
12869TIP3    H138550   6.689   3.484   5.279
12869TIP3    H238551   6.574   3.573   5.320
12870TIP3   OH238552   4.441   1.738   3.856
12870TIP3    H138553   4.356   1.769   3.885
12870TIP3    H238554   4.479   1.813   3.810
12871TIP3   OH238555   7.213   1.397   1.505
12871TIP3    H138556   7.211   1.412   1.599
12871TIP3    H238557   7.171   1.474   1.467
12872TIP3   OH238558   3.987   5.432   2.238
12872TIP3    H138559   4.037   5.407   2.160
12872TIP3    H238560   4.054   5.463   2.300
12873TIP3   OH238561   4.529   4.613   2.072
12873TIP3    H138562   4.456   4.660   2.032
12873TIP3    H238563   4.501   4.596   2.162
12874TIP3   OH238564   1.545   3.499   6.764
12874TIP3    H138565   1.478   3.567   6.765
12874TIP3    H238566   1.548   3.469   6.673
12875TIP3   OH238567   7.851   6.531   3.224
12875TIP3    H138568   7.799   6.452   3.236
12875TIP3    H238569   7.798   6.586   3.167
12876TIP3   OH238570   1.021   7.246   3.432
12876TIP3    H138571   0.974   7.309   3.377
12876TIP3    H238572   1.009   7.162   3.387
12877TIP3   OH238573   2.989   0.124   2.184
12877TIP3    H138574   2.974   0.219   2.183
12877TIP3    H238575   3.079   0.115   2.217
12878TIP3   OH238576   6.624   2.839   5.247
12878TIP3    H138577   6.658   2.800   5.328
12878TIP3    H238578   6.529   2.838   5.259
12879TIP3   OH238579   3.919   4.093   3.186
12879TIP3    H138580   3.868   4.060   3.111
12879TIP3    H238581   3.933   4.016   3.241
12880TIP3   OH238582   6.316   1.795   4.050
12880TIP3    H138583   6.324   1.890   4.041
12880TIP3    H238584   6.336   1.778   4.142
12881TIP3   OH238585   6.015   4.731   0.799
12881TIP3    H138586   5.991   4.821   0.775
12881TIP3    H238587   5.971   4.717   0.883
12882TIP3   OH238588   6.188   7.532   0.218
12882TIP3    H138589   6.134   7.458   0.192
12882TIP3    H238590   6.245   7.498   0.286
12883TIP3   OH238591   7.085   7.195   5.057
12883TIP3    H138592   7.119   7.135   4.990
12883TIP3    H238593   7.162   7.221   5.107
12884TIP3   OH238594   4.576   0.988   5.077
12884TIP3    H138595   4.624   0.945   5.149
12884TIP3    H238596   4.603   0.941   4.999
12885TIP3   OH238597   7.361   2.968   3.208
12885TIP3    H138598   7.272   2.983   3.239
12885TIP3    H238599   7.407   3.050   3.224
12886TIP3   OH238600   4.889   1.107   5.560
12886TIP3    H138601   4.910   1.157   5.639
12886TIP3    H238602   4.870   1.019   5.592
12887TIP3   OH238603   0.383   4.859   5.859
12887TIP3    H138604   0.347   4.831   5.775
12887TIP3    H238605   0.445   4.790   5.883
12888TIP3   OH238606   2.272   3.909   4.367
12888TIP3    H138607   2.343   3.964   4.333
12888TIP3    H238608   2.269   3.834   4.309
12889TIP3   OH238609   7.113   7.109   0.839
12889TIP3    H138610   7.131   7.069   0.924
12889TIP3    H238611   7.049   7.178   0.858
12890TIP3   OH238612   0.164   3.410   0.181
12890TIP3    H138613   0.175   3.361   0.262
12890TIP3    H238614   0.249   3.451   0.165
12891TIP3   OH238615   6.856   2.151   6.085
12891TIP3    H138616   6.873   2.230   6.033
12891TIP3    H238617   6.914   2.158   6.160
12892TIP3   OH238618   3.545   0.232   6.074
12892TIP3    H138619   3.569   0.309   6.022
12892TIP3    H238620   3.605   0.164   6.046
12893TIP3   OH238621   8.218   2.093   3.398
12893TIP3    H138622   8.130   2.129   3.405
12893TIP3    H238623   8.274   2.160   3.436
12894TIP3   OH238624   3.938   7.450   0.546
12894TIP3    H138625   4.007   7.385   0.533
12894TIP3    H238626   3.911   7.438   0.637
12895TIP3   OH238627   5.540   7.513   1.818
12895TIP3    H138628   5.512   7.421   1.825
12895TIP3    H238629   5.497   7.556   1.892
12896TIP3   OH238630   2.219   2.011   3.918
12896TIP3    H138631   2.230   1.939   3.856
12896TIP3    H238632   2.269   1.984   3.996
12897TIP3   OH238633   4.623   7.737   4.596
12897TIP3    H138634   4.674   7.816   4.579
12897TIP3    H238635   4.685   7.665   4.584
12898TIP3   OH238636   6.886   3.653   4.796
12898TIP3    H138637   6.875   3.592   4.868
12898TIP3    H238638   6.980   3.658   4.781
12899TIP3   OH238639   6.758   4.293   4.950
12899TIP3    H138640   6.842   4.246   4.953
12899TIP3    H238641   6.697   4.238   4.998
12900TIP3   OH238642   2.898   6.553   5.523
12900TIP3    H138643   2.818   6.558   5.471
12900TIP3    H238644   2.969   6.559   5.459
12901TIP3   OH238645   2.245   6.245   1.113
12901TIP3    H138646   2.305   6.316   1.090
12901TIP3    H238647   2.279   6.212   1.197
12902TIP3   OH238648   4.685   1.090   6.529
12902TIP3    H138649   4.678   1.119   6.620
12902TIP3    H238650   4.652   1.164   6.478
12903TIP3   OH238651   5.520   7.418   2.263
12903TIP3    H138652   5.447   7.383   2.314
12903TIP3    H238653   5.480   7.457   2.186
12904TIP3   OH238654   5.697   3.510   1.551
12904TIP3    H138655   5.747   3.550   1.621
12904TIP3    H238656   5.628   3.574   1.531
12905TIP3   OH238657   4.647   7.457   2.693
12905TIP3    H138658   4.671   7.549   2.681
12905TIP3    H238659   4.568   7.460   2.748
12906TIP3   OH238660   6.585   7.200   0.435
12906TIP3    H138661   6.573   7.295   0.444
12906TIP3    H238662   6.496   7.165   0.428
12907TIP3   OH238663   6.014   4.014   5.506
12907TIP3    H138664   5.957   3.975   5.440
12907TIP3    H238665   5.956   4.064   5.562
12908TIP3   OH238666   7.546   5.027   6.419
12908TIP3    H138667   7.570   5.050   6.508
12908TIP3    H238668   7.588   4.942   6.405
12909TIP3   OH238669   2.427   1.422   1.089
12909TIP3    H138670   2.428   1.405   0.995
12909TIP3    H238671   2.510   1.467   1.107
12910TIP3   OH238672   3.166   3.925   5.068
12910TIP3    H138673   3.240   3.985   5.076
12910TIP3    H238674   3.090   3.981   5.058
12911TIP3   OH238675   4.002   0.484   0.715
12911TIP3    H138676   3.941   0.426   0.763
12911TIP3    H238677   3.958   0.568   0.713
12912TIP3   OH238678   5.346   6.956   0.493
12912TIP3    H138679   5.256   6.944   0.462
12912TIP3    H238680   5.349   6.906   0.575
12913TIP3   OH238681   0.663   5.913   0.849
12913TIP3    H138682   0.597   5.856   0.889
12913TIP3    H238683   0.711   5.854   0.791
12914TIP3   OH238684   0.273   6.766   0.654
12914TIP3    H138685   0.268   6.815   0.736
12914TIP3    H238686   0.315   6.826   0.593
12915TIP3   OH238687   2.279   3.379   5.589
12915TIP3    H138688   2.232   3.436   5.651
12915TIP3    H238689   2.365   3.419   5.580
12916TIP3   OH238690   5.276   0.671   0.048
12916TIP3    H138691   5.337   0.733   0.007
12916TIP3    H238692   5.320   0.586   0.039
12917TIP3   OH238693   1.902   3.738   3.554
12917TIP3    H138694   1.920   3.651   3.590
12917TIP3    H238695   1.989   3.775   3.536
12918TIP3   OH238696   1.892   2.842   1.058
12918TIP3    H138697   1.936   2.810   0.980
12918TIP3    H238698   1.945   2.916   1.087
12919TIP3   OH238699   7.656   0.537   0.918
12919TIP3    H138700   7.698   0.458   0.953
12919TIP3    H238701   7.680   0.538   0.825
12920TIP3   OH238702   5.590   3.469   3.511
12920TIP3    H138703   5.509   3.518   3.496
12920TIP3    H238704   5.575   3.423   3.593
12921TIP3   OH238705   7.306   6.691   1.253
12921TIP3    H138706   7.380   6.648   1.209
12921TIP3    H238707   7.347   6.759   1.306
12922TIP3   OH238708   0.162   4.809   3.201
12922TIP3    H138709   0.203   4.892   3.176
12922TIP3    H238710   0.079   4.807   3.152
12923TIP3   OH238711   4.103   4.114   5.248
12923TIP3    H138712   4.098   4.131   5.342
12923TIP3    H238713   4.098   4.201   5.207
12924TIP3   OH238714   5.691   0.475   0.625
12924TIP3    H138715   5.603   0.474   0.588
12924TIP3    H238716   5.730   0.556   0.591
12925TIP3   OH238717   1.007   0.899   3.352
12925TIP3    H138718   1.019   0.985   3.313
12925TIP3    H238719   1.091   0.856   3.342
12926TIP3   OH238720   5.827   4.980   1.388
12926TIP3    H138721   5.914   4.941   1.381
12926TIP3    H238722   5.805   5.006   1.299
12927TIP3   OH238723   3.041   1.502   1.385
12927TIP3    H138724   3.119   1.448   1.388
12927TIP3    H238725   2.980   1.460   1.446
12928TIP3   OH238726   7.067   2.097   3.388
12928TIP3    H138727   7.042   2.006   3.407
12928TIP3    H238728   7.047   2.145   3.468
12929TIP3   OH238729   7.610   3.728   2.610
12929TIP3    H138730   7.680   3.663   2.605
12929TIP3    H238731   7.570   3.713   2.696
12930TIP3   OH238732   2.299   5.081   1.466
12930TIP3    H138733   2.310   5.107   1.374
12930TIP3    H238734   2.234   5.010   1.462
12931TIP3   OH238735   7.836   1.126   3.672
12931TIP3    H138736   7.896   1.053   3.658
12931TIP3    H238737   7.893   1.203   3.672
12932TIP3   OH238738   6.574   5.384   1.695
12932TIP3    H138739   6.620   5.461   1.661
12932TIP3    H238740   6.573   5.396   1.790
12933TIP3   OH238741   2.582   2.330   4.595
12933TIP3    H138742   2.641   2.319   4.670
12933TIP3    H238743   2.525   2.403   4.621
12934TIP3   OH238744   8.182   0.841   5.005
12934TIP3    H138745   8.183   0.913   5.068
12934TIP3    H238746   8.266   0.798   5.016
12935TIP3   OH238747   3.668   7.321   6.620
12935TIP3    H138748   3.746   7.339   6.569
12935TIP3    H238749   3.638   7.235   6.590
12936TIP3   OH238750   6.938   5.767   2.136
12936TIP3    H138751   6.995   5.780   2.211
12936TIP3    H238752   6.908   5.676   2.144
12937TIP3   OH238753   7.423   2.105   3.444
12937TIP3    H138754   7.396   2.119   3.353
12937TIP3    H238755   7.437   2.010   3.450
12938TIP3   OH238756   7.752   0.450   1.692
12938TIP3    H138757   7.776   0.370   1.738
12938TIP3    H238758   7.798   0.444   1.608
12939TIP3   OH238759   2.424   2.281   1.717
12939TIP3    H138760   2.408   2.189   1.698
12939TIP3    H238761   2.519   2.287   1.728
12940TIP3   OH238762   1.982   5.937   3.017
12940TIP3    H138763   2.028   6.000   3.073
12940TIP3    H238764   1.894   5.975   3.006
12941TIP3   OH238765   6.297   0.974   4.751
12941TIP3    H138766   6.333   1.045   4.698
12941TIP3    H238767   6.311   0.895   4.698
12942TIP3   OH238768   1.282   2.778   5.983
12942TIP3    H138769   1.316   2.696   5.948
12942TIP3    H238770   1.228   2.752   6.058
12943TIP3   OH238771   7.143   6.130   6.654
12943TIP3    H138772   7.192   6.170   6.582
12943TIP3    H238773   7.177   6.041   6.660
12944TIP3   OH238774   5.010   6.838   5.013
12944TIP3    H138775   5.017   6.816   4.920
12944TIP3    H238776   4.922   6.810   5.038
12945TIP3   OH238777   4.527   5.412   6.595
12945TIP3    H138778   4.541   5.487   6.653
12945TIP3    H238779   4.447   5.435   6.547
12946TIP3   OH238780   4.432   4.855   1.030
12946TIP3    H138781   4.409   4.788   1.093
12946TIP3    H238782   4.395   4.936   1.066
12947TIP3   OH238783   0.475   3.000   3.964
12947TIP3    H138784   0.383   2.973   3.971
12947TIP3    H238785   0.505   3.008   4.054
12948TIP3   OH238786   0.927   2.164   3.528
12948TIP3    H138787   0.908   2.071   3.518
12948TIP3    H238788   0.958   2.173   3.618
12949TIP3   OH238789   5.350   3.142   5.681
12949TIP3    H138790   5.445   3.133   5.679
12949TIP3    H238791   5.318   3.070   5.627
12950TIP3   OH238792   4.825   0.098   4.937
12950TIP3    H138793   4.867   0.116   5.021
12950TIP3    H238794   4.742   0.057   4.960
12951TIP3   OH238795   7.306   7.257   5.605
12951TIP3    H138796   7.332   7.347   5.585
12951TIP3    H238797   7.388   7.208   5.605
12952TIP3   OH238798   3.624   5.185   3.421
12952TIP3    H138799   3.716   5.204   3.441
12952TIP3    H238800   3.576   5.227   3.492
12953TIP3   OH238801   1.308   0.703   1.690
12953TIP3    H138802   1.388   0.725   1.737
12953TIP3    H238803   1.238   0.739   1.746
12954TIP3   OH238804   5.510   2.403   0.969
12954TIP3    H138805   5.495   2.480   1.023
12954TIP3    H238806   5.466   2.422   0.886
12955TIP3   OH238807   3.192   3.497   5.029
12955TIP3    H138808   3.119   3.446   5.063
12955TIP3    H238809   3.197   3.472   4.936
12956TIP3   OH238810   3.178   5.900   5.920
12956TIP3    H138811   3.236   5.871   5.850
12956TIP3    H238812   3.090   5.895   5.882
12957TIP3   OH238813   2.509   7.479   5.405
12957TIP3    H138814   2.423   7.460   5.366
12957TIP3    H238815   2.572   7.438   5.346
12958TIP3   OH238816   5.713   7.159   3.483
12958TIP3    H138817   5.790   7.211   3.504
12958TIP3    H238818   5.747   7.073   3.458
12959TIP3   OH238819   2.776   3.254   0.173
12959TIP3    H138820   2.686   3.258   0.141
12959TIP3    H238821   2.769   3.260   0.268
12960TIP3   OH238822   8.219   6.323   2.204
12960TIP3    H138823   8.236   6.229   2.207
12960TIP3    H238824   8.257   6.351   2.120
12961TIP3   OH238825   7.749   4.221   1.783
12961TIP3    H138826   7.794   4.301   1.810
12961TIP3    H238827   7.660   4.249   1.763
12962TIP3   OH238828   5.980   0.959   5.895
12962TIP3    H138829   5.933   0.994   5.971
12962TIP3    H238830   6.072   0.976   5.915
12963TIP3   OH238831   0.492   1.153   5.593
12963TIP3    H138832   0.424   1.131   5.656
12963TIP3    H238833   0.534   1.232   5.628
12964TIP3   OH238834   1.675   0.659   2.676
12964TIP3    H138835   1.709   0.687   2.591
12964TIP3    H238836   1.582   0.683   2.673
12965TIP3   OH238837   2.764   5.357   0.598
12965TIP3    H138838   2.697   5.316   0.543
12965TIP3    H238839   2.722   5.367   0.684
12966TIP3   OH238840   2.096   6.940   3.628
12966TIP3    H138841   2.045   6.880   3.573
12966TIP3    H238842   2.043   7.019   3.633
12967TIP3   OH238843   7.469   0.913   1.628
12967TIP3    H138844   7.537   0.849   1.604
12967TIP3    H238845   7.409   0.913   1.554
12968TIP3   OH238846   4.214   7.351   2.629
12968TIP3    H138847   4.195   7.349   2.536
12968TIP3    H238848   4.160   7.281   2.666
12969TIP3   OH238849   7.407   1.756   5.253
12969TIP3    H138850   7.373   1.831   5.205
12969TIP3    H238851   7.329   1.716   5.293
12970TIP3   OH238852   8.130   2.321   2.456
12970TIP3    H138853   8.077   2.244   2.431
12970TIP3    H238854   8.149   2.365   2.373
12971TIP3   OH238855   4.487   7.750   6.472
12971TIP3    H138856   4.414   7.746   6.410
12971TIP3    H238857   4.513   7.658   6.484
12972TIP3   OH238858   8.111   6.845   5.993
12972TIP3    H138859   8.087   6.754   5.977
12972TIP3    H238860   8.150   6.874   5.910
12973TIP3   OH238861   7.665   7.433   5.542
12973TIP3    H138862   7.740   7.376   5.526
12973TIP3    H238863   7.670   7.453   5.635
12974TIP3   OH238864   5.210   5.185   6.501
12974TIP3    H138865   5.223   5.179   6.406
12974TIP3    H238866   5.116   5.174   6.514
12975TIP3   OH238867   2.324   6.023   4.374
12975TIP3    H138868   2.393   6.016   4.440
12975TIP3    H238869   2.347   6.100   4.323
12976TIP3   OH238870   2.516   3.311   3.916
12976TIP3    H138871   2.584   3.254   3.951
12976TIP3    H238872   2.481   3.263   3.841
12977TIP3   OH238873   0.278   4.908   5.485
12977TIP3    H138874   0.247   4.827   5.444
12977TIP3    H238875   0.199   4.961   5.497
12978TIP3   OH238876   7.792   5.373   5.903
12978TIP3    H138877   7.817   5.301   5.845
12978TIP3    H238878   7.727   5.335   5.962
12979TIP3   OH238879   5.773   3.253   1.948
12979TIP3    H138880   5.713   3.187   1.913
12979TIP3    H238881   5.849   3.203   1.979
12980TIP3   OH238882   2.815   1.707   5.270
12980TIP3    H138883   2.761   1.650   5.325
12980TIP3    H238884   2.862   1.763   5.332
12981TIP3   OH238885   7.133   7.313   5.805
12981TIP3    H138886   7.163   7.268   5.726
12981TIP3    H238887   7.145   7.406   5.786
12982TIP3   OH238888   3.175   0.017   4.171
12982TIP3    H138889   3.115   0.089   4.189
12982TIP3    H238890   3.155  -0.048   4.239
12983TIP3   OH238891   5.323   4.166   2.925
12983TIP3    H138892   5.395   4.118   2.885
12983TIP3    H238893   5.281   4.213   2.853
12984TIP3   OH238894   7.056   4.987   2.702
12984TIP3    H138895   7.100   4.938   2.772
12984TIP3    H238896   7.090   4.948   2.622
12985TIP3   OH238897   7.256   6.776   6.174
12985TIP3    H138898   7.202   6.760   6.252
12985TIP3    H238899   7.346   6.770   6.206
12986TIP3   OH238900   2.941   1.914   6.233
12986TIP3    H138901   2.963   1.852   6.164
12986TIP3    H238902   2.893   1.983   6.189
12987TIP3   OH238903   4.898   5.430   3.884
12987TIP3    H138904   4.951   5.452   3.960
12987TIP3    H238905   4.889   5.512   3.835
12988TIP3   OH238906   1.098   5.234   2.291
12988TIP3    H138907   1.153   5.242   2.213
12988TIP3    H238908   1.059   5.321   2.301
12989TIP3   OH238909   1.578   3.056   0.756
12989TIP3    H138910   1.668   3.061   0.724
12989TIP3    H238911   1.552   2.965   0.739
12990TIP3   OH238912   3.783   2.927   1.377
12990TIP3    H138913   3.702   2.929   1.326
12990TIP3    H238914   3.812   3.018   1.380
12991TIP3   OH238915   8.272   1.154   6.409
12991TIP3    H138916   8.214   1.213   6.456
12991TIP3    H238917   8.334   1.123   6.475
12992TIP3   OH238918   3.718   2.897   5.947
12992TIP3    H138919   3.714   2.804   5.970
12992TIP3    H238920   3.650   2.938   6.002
12993TIP3   OH238921   7.983   2.041   0.252
12993TIP3    H138922   8.069   2.027   0.213
12993TIP3    H238923   7.956   1.954   0.281
12994TIP3   OH238924   1.927   4.869   6.171
12994TIP3    H138925   1.850   4.816   6.191
12994TIP3    H238926   1.909   4.905   6.085
12995TIP3   OH238927   7.049   6.490   4.096
12995TIP3    H138928   6.958   6.519   4.095
12995TIP3    H238929   7.082   6.510   4.009
12996TIP3   OH238930   0.135   2.660   0.053
12996TIP3    H138931   0.045   2.629   0.044
12996TIP3    H238932   0.180   2.628  -0.025
12997TIP3   OH238933   4.358   3.205   3.451
12997TIP3    H138934   4.383   3.297   3.448
12997TIP3    H238935   4.263   3.205   3.465
12998TIP3   OH238936   2.177   2.005   1.887
12998TIP3    H138937   2.221   1.927   1.919
12998TIP3    H238938   2.115   1.973   1.822
12999TIP3   OH238939   7.804   2.548   3.372
12999TIP3    H138940   7.804   2.457   3.401
12999TIP3    H238941   7.826   2.543   3.278
13000TIP3   OH238942   7.098   4.139   2.658
13000TIP3    H138943   7.060   4.054   2.637
13000TIP3    H238944   7.155   4.122   2.733
13001TIP3   OH238945   5.741   0.372   2.138
13001TIP3    H138946   5.661   0.337   2.179
13001TIP3    H238947   5.714   0.395   2.049
13002TIP3   OH238948   4.832   6.251   2.236
13002TIP3    H138949   4.796   6.198   2.307
13002TIP3    H238950   4.892   6.192   2.190
13003TIP3   OH238951   6.800   4.551   3.451
13003TIP3    H138952   6.888   4.583   3.474
13003TIP3    H238953   6.816   4.478   3.391
13004TIP3   OH238954   1.473   1.149   1.665
13004TIP3    H138955   1.474   1.064   1.623
13004TIP3    H238956   1.534   1.141   1.738
13005TIP3   OH238957   1.620   0.894   5.116
13005TIP3    H138958   1.656   0.980   5.141
13005TIP3    H238959   1.534   0.891   5.158
13006TIP3   OH238960   1.836   0.912   0.516
13006TIP3    H138961   1.752   0.957   0.520
13006TIP3    H238962   1.848   0.892   0.423
13007TIP3   OH238963   6.220   6.325   2.662
13007TIP3    H138964   6.220   6.336   2.757
13007TIP3    H238965   6.238   6.412   2.627
13008TIP3   OH238966   3.397   2.577   0.001
13008TIP3    H138967   3.388   2.487   0.032
13008TIP3    H238968   3.416   2.568  -0.092
13009TIP3   OH238969   2.103   2.129   1.292
13009TIP3    H138970   2.101   2.034   1.282
13009TIP3    H238971   2.181   2.147   1.344
13010TIP3   OH238972   2.863   4.980   1.129
13010TIP3    H138973   2.812   5.040   1.074
13010TIP3    H238974   2.949   4.977   1.087
13011TIP3   OH238975   4.652   6.097   4.425
13011TIP3    H138976   4.680   6.115   4.515
13011TIP3    H238977   4.663   6.003   4.415
13012TIP3   OH238978   2.503   0.898   1.506
13012TIP3    H138979   2.433   0.914   1.569
13012TIP3    H238980   2.458   0.873   1.425
13013TIP3   OH238981   3.078   7.608   2.571
13013TIP3    H138982   3.013   7.653   2.625
13013TIP3    H238983   3.155   7.600   2.628
13014TIP3   OH238984   4.780   6.576   4.086
13014TIP3    H138985   4.688   6.602   4.083
13014TIP3    H238986   4.782   6.489   4.048
13015TIP3   OH238987   5.427   4.582   5.190
13015TIP3    H138988   5.468   4.666   5.171
13015TIP3    H238989   5.372   4.564   5.113
13016TIP3   OH238990   3.722   6.207   2.165
13016TIP3    H138991   3.733   6.122   2.209
13016TIP3    H238992   3.638   6.200   2.119
13017TIP3   OH238993   6.554   0.341   2.796
13017TIP3    H138994   6.619   0.316   2.862
13017TIP3    H238995   6.553   0.268   2.734
13018TIP3   OH238996   7.494   4.401   4.856
13018TIP3    H138997   7.503   4.306   4.852
13018TIP3    H238998   7.563   4.434   4.799
13019TIP3   OH238999   5.209   7.234   2.791
13019TIP3    H139000   5.257   7.151   2.786
13019TIP3    H239001   5.138   7.217   2.853
13020TIP3   OH239002   5.910   2.064   4.520
13020TIP3    H139003   5.938   2.113   4.597
13020TIP3    H239004   5.907   1.973   4.549
13021TIP3   OH239005   7.104   2.510   3.999
13021TIP3    H139006   7.108   2.604   4.015
13021TIP3    H239007   7.044   2.477   4.065
13022TIP3   OH239008   6.629   5.437   1.949
13022TIP3    H139009   6.596   5.349   1.967
13022TIP3    H239010   6.603   5.488   2.026
13023TIP3   OH239011   0.633   1.135   6.447
13023TIP3    H139012   0.690   1.062   6.421
13023TIP3    H239013   0.584   1.101   6.522
13024TIP3   OH239014   6.140   7.020   3.172
13024TIP3    H139015   6.068   7.021   3.109
13024TIP3    H239016   6.164   7.112   3.182
13025TIP3   OH239017   8.018   6.156   2.792
13025TIP3    H139018   8.103   6.120   2.767
13025TIP3    H239019   8.024   6.165   2.887
13026TIP3   OH239020   1.648   6.953   2.401
13026TIP3    H139021   1.603   6.942   2.318
13026TIP3    H239022   1.696   7.035   2.392
13027TIP3   OH239023   8.258   0.593   5.935
13027TIP3    H139024   8.279   0.504   5.963
13027TIP3    H239025   8.315   0.649   5.988
13028TIP3   OH239026   0.912   0.805   4.132
13028TIP3    H139027   0.848   0.834   4.067
13028TIP3    H239028   0.860   0.785   4.210
13029TIP3   OH239029   3.921   0.386   3.817
13029TIP3    H139030   3.887   0.360   3.731
13029TIP3    H239031   3.920   0.306   3.869
13030TIP3   OH239032   6.902   6.952   0.314
13030TIP3    H139033   6.876   7.037   0.279
13030TIP3    H239034   6.833   6.930   0.376
13031TIP3   OH239035   1.607   3.063   2.205
13031TIP3    H139036   1.662   3.140   2.217
13031TIP3    H239037   1.650   2.995   2.257
13032TIP3   OH239038   1.183   5.465   1.358
13032TIP3    H139039   1.254   5.529   1.366
13032TIP3    H239040   1.175   5.427   1.445
13033TIP3   OH239041   0.825   6.225   4.221
13033TIP3    H139042   0.880   6.161   4.173
13033TIP3    H239043   0.823   6.191   4.310
13034TIP3   OH239044   7.706   3.290   2.269
13034TIP3    H139045   7.730   3.336   2.350
13034TIP3    H239046   7.617   3.257   2.286
13035TIP3   OH239047   2.427   4.599   0.971
13035TIP3    H139048   2.416   4.518   0.920
13035TIP3    H239049   2.434   4.569   1.061
13036TIP3   OH239050   2.883   4.171   1.667
13036TIP3    H139051   2.883   4.172   1.763
13036TIP3    H239052   2.807   4.117   1.643
13037TIP3   OH239053   5.082   3.782   5.497
13037TIP3    H139054   5.024   3.848   5.536
13037TIP3    H239055   5.137   3.831   5.435
13038TIP3   OH239056   7.027   2.473   5.589
13038TIP3    H139057   6.959   2.466   5.522
13038TIP3    H239058   7.057   2.564   5.582
13039TIP3   OH239059   8.237   6.297   6.168
13039TIP3    H139060   8.244   6.260   6.080
13039TIP3    H239061   8.287   6.238   6.223
13040TIP3   OH239062   3.304   3.614   6.193
13040TIP3    H139063   3.346   3.699   6.205
13040TIP3    H239064   3.274   3.589   6.281
13041TIP3   OH239065   6.298   0.268   4.076
13041TIP3    H139066   6.364   0.308   4.018
13041TIP3    H239067   6.284   0.181   4.039
13042TIP3   OH239068   5.926   6.684   6.613
13042TIP3    H139069   5.861   6.675   6.683
13042TIP3    H239070   5.946   6.777   6.611
13043TIP3   OH239071   3.557   3.578   4.394
13043TIP3    H139072   3.616   3.504   4.378
13043TIP3    H239073   3.572   3.601   4.486
13044TIP3   OH239074   7.215   3.096   4.915
13044TIP3    H139075   7.241   3.154   4.843
13044TIP3    H239076   7.274   3.021   4.907
13045TIP3   OH239077   6.585   7.676   3.496
13045TIP3    H139078   6.621   7.733   3.428
13045TIP3    H239079   6.513   7.727   3.533
13046TIP3   OH239080   1.244   6.494   5.379
13046TIP3    H139081   1.150   6.502   5.367
13046TIP3    H239082   1.280   6.578   5.349
13047TIP3   OH239083   6.706   0.752   1.683
13047TIP3    H139084   6.715   0.739   1.777
13047TIP3    H239085   6.643   0.824   1.674
13048TIP3   OH239086   7.971   1.409   5.863
13048TIP3    H139087   7.879   1.422   5.885
13048TIP3    H239088   7.980   1.446   5.775
13049TIP3   OH239089   2.143   4.224   1.739
13049TIP3    H139090   2.186   4.151   1.694
13049TIP3    H239091   2.057   4.231   1.697
13050TIP3   OH239092   6.475   5.844   3.418
13050TIP3    H139093   6.549   5.904   3.414
13050TIP3    H239094   6.417   5.881   3.484
13051TIP3   OH239095   3.086   4.350   2.148
13051TIP3    H139096   3.051   4.403   2.220
13051TIP3    H239097   3.128   4.413   2.090
13052TIP3   OH239098   4.051   2.677   5.209
13052TIP3    H139099   4.004   2.651   5.130
13052TIP3    H239100   4.129   2.623   5.209
13053TIP3   OH239101   1.120   6.885   3.564
13053TIP3    H139102   1.124   6.976   3.593
13053TIP3    H239103   1.065   6.886   3.486
13054TIP3   OH239104   3.211   4.201   0.244
13054TIP3    H139105   3.301   4.233   0.245
13054TIP3    H239106   3.181   4.218   0.155
13055TIP3   OH239107   7.531   6.541   1.128
13055TIP3    H139108   7.614   6.528   1.173
13055TIP3    H239109   7.477   6.467   1.157
13056TIP3   OH239110   5.107   7.461   4.637
13056TIP3    H139111   5.137   7.397   4.573
13056TIP3    H239112   5.045   7.413   4.692
13057TIP3   OH239113   0.113   7.382   0.735
13057TIP3    H139114   0.044   7.358   0.673
13057TIP3    H239115   0.067   7.423   0.808
13058TIP3   OH239116   5.563   3.356   2.167
13058TIP3    H139117   5.647   3.366   2.213
13058TIP3    H239118   5.499   3.346   2.237
13059TIP3   OH239119   7.665   4.035   0.596
13059TIP3    H139120   7.573   4.056   0.580
13059TIP3    H239121   7.664   3.946   0.632
13060TIP3   OH239122   3.790   3.086   5.130
13060TIP3    H139123   3.737   3.149   5.081
13060TIP3    H239124   3.870   3.076   5.077
13061TIP3   OH239125   0.585   5.560   6.335
13061TIP3    H139126   0.516   5.493   6.337
13061TIP3    H239127   0.666   5.511   6.327
13062TIP3   OH239128   1.728   1.684   2.483
13062TIP3    H139129   1.779   1.707   2.405
13062TIP3    H239130   1.731   1.762   2.538
13063TIP3   OH239131   7.859   0.684   6.237
13063TIP3    H139132   7.934   0.658   6.289
13063TIP3    H239133   7.790   0.622   6.260
13064TIP3   OH239134   6.773   5.200   1.746
13064TIP3    H139135   6.735   5.129   1.693
13064TIP3    H239136   6.737   5.280   1.708
13065TIP3   OH239137   4.606   3.268   6.511
13065TIP3    H139138   4.551   3.285   6.587
13065TIP3    H239139   4.678   3.331   6.519
13066TIP3   OH239140   0.597   1.686   2.530
13066TIP3    H139141   0.623   1.776   2.551
13066TIP3    H239142   0.679   1.637   2.530
13067TIP3   OH239143   8.134   7.541   0.886
13067TIP3    H139144   8.104   7.458   0.923
13067TIP3    H239145   8.107   7.537   0.794
13068TIP3   OH239146   1.390   7.150   0.475
13068TIP3    H139147   1.377   7.223   0.534
13068TIP3    H239148   1.408   7.190   0.390
13069TIP3   OH239149   7.732   5.568   3.930
13069TIP3    H139150   7.732   5.552   3.836
13069TIP3    H239151   7.642   5.591   3.950
13070TIP3   OH239152   4.804   7.559   4.461
13070TIP3    H139153   4.861   7.634   4.447
13070TIP3    H239154   4.722   7.582   4.416
13071TIP3   OH239155   6.086   6.326   2.907
13071TIP3    H139156   6.104   6.232   2.905
13071TIP3    H239157   6.009   6.333   2.964
13072TIP3   OH239158   2.252   4.695   4.023
13072TIP3    H139159   2.254   4.790   4.037
13072TIP3    H239160   2.160   4.672   4.029
13073TIP3   OH239161   6.141   7.063   6.543
13073TIP3    H139162   6.187   7.120   6.604
13073TIP3    H239163   6.197   7.061   6.465
13074TIP3   OH239164   3.219   7.821   6.803
13074TIP3    H139165   3.223   7.725   6.806
13074TIP3    H239166   3.308   7.849   6.828
13075TIP3   OH239167   6.845   4.069   2.164
13075TIP3    H139168   6.803   4.146   2.201
13075TIP3    H239169   6.827   3.999   2.227
13076TIP3   OH239170   1.590   0.363   4.347
13076TIP3    H139171   1.496   0.366   4.362
13076TIP3    H239172   1.614   0.272   4.363
13077TIP3   OH239173   6.947   2.851   5.312
13077TIP3    H139174   6.968   2.795   5.236
13077TIP3    H239175   6.902   2.793   5.373
13078TIP3   OH239176   1.622   3.832   4.006
13078TIP3    H139177   1.640   3.795   4.092
13078TIP3    H239178   1.706   3.867   3.976
13079TIP3   OH239179   1.881   4.431   3.046
13079TIP3    H139180   1.950   4.472   3.098
13079TIP3    H239181   1.880   4.479   2.963
13080TIP3   OH239182   3.313  -0.018   5.143
13080TIP3    H139183   3.331   0.063   5.192
13080TIP3    H239184   3.242   0.006   5.083
13081TIP3   OH239185   7.608   2.711   5.979
13081TIP3    H139186   7.664   2.636   5.999
13081TIP3    H239187   7.551   2.680   5.909
13082TIP3   OH239188   4.240   5.456   1.197
13082TIP3    H139189   4.294   5.522   1.241
13082TIP3    H239190   4.176   5.507   1.147
13083TIP3   OH239191   6.844   2.615   0.822
13083TIP3    H139192   6.892   2.679   0.874
13083TIP3    H239193   6.913   2.560   0.783
13084TIP3   OH239194   7.321   0.381   1.741
13084TIP3    H139195   7.302   0.290   1.715
13084TIP3    H239196   7.390   0.409   1.682
13085TIP3   OH239197   4.021   4.358   3.111
13085TIP3    H139198   3.977   4.275   3.131
13085TIP3    H239199   4.055   4.388   3.195
13086TIP3   OH239200   2.964   4.899   6.828
13086TIP3    H139201   3.007   4.970   6.781
13086TIP3    H239202   2.874   4.929   6.841
13087TIP3   OH239203   6.939   2.326   6.308
13087TIP3    H139204   6.931   2.341   6.402
13087TIP3    H239205   7.033   2.323   6.291
13088TIP3   OH239206   2.904   2.392   3.899
13088TIP3    H139207   2.843   2.418   3.829
13088TIP3    H239208   2.937   2.475   3.933
13089TIP3   OH239209   1.870   6.255   4.527
13089TIP3    H139210   1.837   6.223   4.443
13089TIP3    H239211   1.922   6.183   4.562
13090TIP3   OH239212   6.852   5.514   3.035
13090TIP3    H139213   6.915   5.495   2.965
13090TIP3    H239214   6.849   5.610   3.038
13091TIP3   OH239215   3.149   4.263   1.701
13091TIP3    H139216   3.195   4.252   1.618
13091TIP3    H239217   3.063   4.222   1.686
13092TIP3   OH239218   6.460   7.070   2.443
13092TIP3    H139219   6.426   7.095   2.357
13092TIP3    H239220   6.528   7.135   2.462
13093TIP3   OH239221   8.199   7.521   4.686
13093TIP3    H139222   8.152   7.440   4.665
13093TIP3    H239223   8.284   7.511   4.644
13094TIP3   OH239224   3.361   7.244   1.498
13094TIP3    H139225   3.413   7.324   1.486
13094TIP3    H239226   3.402   7.200   1.572
13095TIP3   OH239227   3.577   0.424   4.173
13095TIP3    H139228   3.556   0.347   4.227
13095TIP3    H239229   3.507   0.486   4.191
13096TIP3   OH239230   2.114   5.337   1.358
13096TIP3    H139231   2.040   5.287   1.393
13096TIP3    H239232   2.142   5.391   1.431
13097TIP3   OH239233   2.490   2.029   1.041
13097TIP3    H139234   2.518   2.096   1.104
13097TIP3    H239235   2.487   1.949   1.093
13098TIP3   OH239236   4.145   4.110   4.630
13098TIP3    H139237   4.085   4.047   4.590
13098TIP3    H239238   4.135   4.097   4.724
13099TIP3   OH239239   5.507   3.835   1.791
13099TIP3    H139240   5.577   3.890   1.827
13099TIP3    H239241   5.427   3.883   1.812
13100TIP3   OH239242   7.125   4.878   5.604
13100TIP3    H139243   7.202   4.823   5.593
13100TIP3    H239244   7.134   4.945   5.536
13101TIP3   OH239245   1.451   3.676   6.286
13101TIP3    H139246   1.457   3.762   6.327
13101TIP3    H239247   1.471   3.692   6.194
13102TIP3   OH239248   2.423   1.884   2.624
13102TIP3    H139249   2.359   1.920   2.685
13102TIP3    H239250   2.461   1.961   2.581
13103TIP3   OH239251   6.954   1.906   3.063
13103TIP3    H139252   6.910   1.991   3.071
13103TIP3    H239253   7.044   1.928   3.041
13104TIP3   OH239254   0.325   2.303   4.823
13104TIP3    H139255   0.265   2.236   4.854
13104TIP3    H239256   0.293   2.384   4.862
13105TIP3   OH239257   1.661   7.661   6.537
13105TIP3    H139258   1.603   7.597   6.579
13105TIP3    H239259   1.689   7.618   6.456
13106TIP3   OH239260   0.586   3.260   3.502
13106TIP3    H139261   0.585   3.340   3.554
13106TIP3    H239262   0.625   3.194   3.559
13107TIP3   OH239263   2.769   3.370   0.484
13107TIP3    H139264   2.737   3.281   0.467
13107TIP3    H239265   2.700   3.427   0.449
13108TIP3   OH239266   4.453   3.401   1.716
13108TIP3    H139267   4.407   3.481   1.743
13108TIP3    H239268   4.392   3.331   1.739
13109TIP3   OH239269   7.127   0.879   3.837
13109TIP3    H139270   7.164   0.918   3.916
13109TIP3    H239271   7.150   0.939   3.767
13110TIP3   OH239272   7.182   6.513   3.857
13110TIP3    H139273   7.185   6.546   3.767
13110TIP3    H239274   7.248   6.565   3.904
13111TIP3   OH239275   6.849   5.169   2.011
13111TIP3    H139276   6.763   5.138   2.038
13111TIP3    H239277   6.836   5.205   1.924
13112TIP3   OH239278   1.961   7.048   5.223
13112TIP3    H139279   1.896   7.105   5.183
13112TIP3    H239280   2.019   7.107   5.271
13113TIP3   OH239281   1.728   5.113   6.651
13113TIP3    H139282   1.766   5.087   6.567
13113TIP3    H239283   1.641   5.145   6.629
13114TIP3   OH239284   7.445   0.394   3.631
13114TIP3    H139285   7.412   0.444   3.706
13114TIP3    H239286   7.446   0.456   3.559
13115TIP3   OH239287   3.179   4.427   5.201
13115TIP3    H139288   3.248   4.414   5.266
13115TIP3    H239289   3.098   4.412   5.249
13116TIP3   OH239290   7.801   2.078   5.668
13116TIP3    H139291   7.755   2.136   5.729
13116TIP3    H239292   7.826   2.135   5.595
13117TIP3   OH239293   3.303   1.760   0.313
13117TIP3    H139294   3.258   1.821   0.371
13117TIP3    H239295   3.353   1.815   0.253
13118TIP3   OH239296   4.742   4.330   2.973
13118TIP3    H139297   4.724   4.383   2.896
13118TIP3    H239298   4.686   4.253   2.963
13119TIP3   OH239299   6.720   0.022   1.407
13119TIP3    H139300   6.663   0.037   1.331
13119TIP3    H239301   6.745  -0.070   1.400
13120TIP3   OH239302   7.780   4.075   0.941
13120TIP3    H139303   7.732   4.152   0.911
13120TIP3    H239304   7.739   4.002   0.896
13121TIP3   OH239305   3.233   3.533   6.728
13121TIP3    H139306   3.261   3.620   6.756
13121TIP3    H239307   3.144   3.525   6.762
13122TIP3   OH239308   5.968   7.089   3.711
13122TIP3    H139309   5.967   7.098   3.616
13122TIP3    H239310   6.058   7.110   3.736
13123TIP3   OH239311   4.499   2.219   1.250
13123TIP3    H139312   4.496   2.271   1.330
13123TIP3    H239313   4.557   2.146   1.271
13124TIP3   OH239314   7.358   2.871   0.899
13124TIP3    H139315   7.312   2.851   0.818
13124TIP3    H239316   7.296   2.849   0.968
13125TIP3   OH239317   5.661   2.413   5.971
13125TIP3    H139318   5.715   2.449   6.042
13125TIP3    H239319   5.577   2.457   5.980
13126TIP3   OH239320   2.609   2.602   4.264
13126TIP3    H139321   2.560   2.684   4.266
13126TIP3    H239322   2.542   2.533   4.268
13127TIP3   OH239323   0.436   6.441   2.556
13127TIP3    H139324   0.522   6.442   2.515
13127TIP3    H239325   0.387   6.509   2.509
13128TIP3   OH239326   7.949   4.822   6.561
13128TIP3    H139327   7.981   4.733   6.543
13128TIP3    H239328   7.982   4.842   6.649
13129TIP3   OH239329  -0.050   6.995   3.630
13129TIP3    H139330  -0.052   6.983   3.725
13129TIP3    H239331  -0.063   7.089   3.617
13130TIP3   OH239332   7.619   3.800   0.322
13130TIP3    H139333   7.553   3.870   0.319
13130TIP3    H239334   7.593   3.739   0.253
13131TIP3   OH239335   4.024   4.555   0.024
13131TIP3    H139336   3.936   4.533   0.054
13131TIP3    H239337   4.073   4.575   0.104
13132TIP3   OH239338   5.653   6.687   3.916
13132TIP3    H139339   5.721   6.715   3.855
13132TIP3    H239340   5.625   6.768   3.959
13133TIP3   OH239341   4.679   1.281   5.023
13133TIP3    H139342   4.646   1.347   4.962
13133TIP3    H239343   4.613   1.212   5.021
13134TIP3   OH239344   8.217   1.206   0.968
13134TIP3    H139345   8.218   1.110   0.969
13134TIP3    H239346   8.261   1.232   1.049
13135TIP3   OH239347   0.338   6.114   2.395
13135TIP3    H139348   0.419   6.133   2.441
13135TIP3    H239349   0.270   6.156   2.447
13136TIP3   OH239350   2.742   4.410   2.435
13136TIP3    H139351   2.655   4.368   2.436
13136TIP3    H239352   2.738   4.472   2.362
13137TIP3   OH239353   6.875   4.888   5.920
13137TIP3    H139354   6.968   4.903   5.939
13137TIP3    H239355   6.874   4.814   5.860
13138TIP3   OH239356   6.573   6.730   3.897
13138TIP3    H139357   6.537   6.814   3.923
13138TIP3    H239358   6.520   6.703   3.821
13139TIP3   OH239359   4.014   4.896   1.673
13139TIP3    H139360   3.927   4.912   1.638
13139TIP3    H239361   4.015   4.802   1.693
13140TIP3   OH239362   4.676   3.836   2.274
13140TIP3    H139363   4.624   3.905   2.233
13140TIP3    H239364   4.632   3.820   2.358
13141TIP3   OH239365   7.712   4.300   4.325
13141TIP3    H139366   7.728   4.339   4.239
13141TIP3    H239367   7.652   4.361   4.369
13142TIP3   OH239368   0.692   4.422   3.739
13142TIP3    H139369   0.738   4.499   3.703
13142TIP3    H239370   0.603   4.431   3.706
13143TIP3   OH239371   0.412   1.311   2.798
13143TIP3    H139372   0.465   1.256   2.740
13143TIP3    H239373   0.344   1.347   2.742
13144TIP3   OH239374  -0.036   4.854   4.993
13144TIP3    H139375   0.019   4.809   4.929
13144TIP3    H239376   0.024   4.910   5.042
13145TIP3   OH239377   5.689   0.937   3.753
13145TIP3    H139378   5.645   0.872   3.808
13145TIP3    H239379   5.769   0.893   3.723
13146TIP3   OH239380   3.298   0.237   5.289
13146TIP3    H139381   3.370   0.273   5.238
13146TIP3    H239382   3.291   0.295   5.365
13147TIP3   OH239383   2.050   6.053   2.261
13147TIP3    H139384   2.034   6.015   2.347
13147TIP3    H239385   2.115   6.122   2.276
13148TIP3   OH239386   6.625   6.308   0.173
13148TIP3    H139387   6.571   6.233   0.151
13148TIP3    H239388   6.673   6.328   0.093
13149TIP3   OH239389   1.250   7.139   6.288
13149TIP3    H139390   1.336   7.127   6.247
13149TIP3    H239391   1.263   7.115   6.380
13150TIP3   OH239392   6.289   0.459   2.146
13150TIP3    H139393   6.350   0.525   2.177
13150TIP3    H239394   6.344   0.393   2.105
13151TIP3   OH239395   3.512   4.370   5.617
13151TIP3    H139396   3.437   4.330   5.662
13151TIP3    H239397   3.512   4.461   5.646
13152TIP3   OH239398   1.574   5.410   5.971
13152TIP3    H139399   1.597   5.501   5.952
13152TIP3    H239400   1.501   5.391   5.911
13153TIP3   OH239401   3.044   4.275   4.148
13153TIP3    H139402   2.973   4.235   4.098
13153TIP3    H239403   3.102   4.201   4.169
13154TIP3   OH239404   7.004   4.339   2.468
13154TIP3    H139405   7.080   4.383   2.430
13154TIP3    H239406   7.041   4.261   2.511
13155TIP3   OH239407   1.944   7.703   2.455
13155TIP3    H139408   1.997   7.624   2.470
13155TIP3    H239409   1.879   7.702   2.525
13156TIP3   OH239410   0.367   4.809   0.990
13156TIP3    H139411   0.377   4.854   1.074
13156TIP3    H239412   0.434   4.741   0.991
13157TIP3   OH239413   7.860   0.773   2.435
13157TIP3    H139414   7.785   0.727   2.472
13157TIP3    H239415   7.870   0.737   2.347
13158TIP3   OH239416   1.906   4.260   1.615
13158TIP3    H139417   1.886   4.347   1.649
13158TIP3    H239418   1.862   4.257   1.530
13159TIP3   OH239419   1.247   4.949   6.604
13159TIP3    H139420   1.197   4.966   6.525
13159TIP3    H239421   1.267   5.037   6.638
13160TIP3   OH239422   4.439   3.815   1.555
13160TIP3    H139423   4.350   3.846   1.535
13160TIP3    H239424   4.486   3.824   1.472
13161TIP3   OH239425   5.939   6.860   1.475
13161TIP3    H139426   5.988   6.779   1.490
13161TIP3    H239427   6.000   6.930   1.501
13162TIP3   OH239428   6.656   1.668   0.402
13162TIP3    H139429   6.676   1.738   0.340
13162TIP3    H239430   6.737   1.619   0.410
13163TIP3   OH239431   0.801   3.006   2.279
13163TIP3    H139432   0.885   3.026   2.319
13163TIP3    H239433   0.761   3.091   2.263
13164TIP3   OH239434   3.176   4.824   0.853
13164TIP3    H139435   3.243   4.802   0.918
13164TIP3    H239436   3.138   4.905   0.884
13165TIP3   OH239437   3.497   7.498   3.532
13165TIP3    H139438   3.490   7.405   3.549
13165TIP3    H239439   3.436   7.514   3.460
13166TIP3   OH239440   7.611   2.383   0.588
13166TIP3    H139441   7.600   2.395   0.683
13166TIP3    H239442   7.700   2.350   0.578
13167TIP3   OH239443   4.846   6.689   2.783
13167TIP3    H139444   4.820   6.684   2.692
13167TIP3    H239445   4.845   6.598   2.813
13168TIP3   OH239446   2.173   3.560   4.481
13168TIP3    H139447   2.214   3.483   4.522
13168TIP3    H239448   2.099   3.581   4.538
13169TIP3   OH239449   6.074   4.171   1.211
13169TIP3    H139450   6.087   4.132   1.297
13169TIP3    H239451   5.978   4.175   1.202
13170TIP3   OH239452   3.512   4.015   4.159
13170TIP3    H139453   3.586   3.964   4.193
13170TIP3    H239454   3.472   3.958   4.093
13171TIP3   OH239455   3.642   4.822   4.099
13171TIP3    H139456   3.647   4.731   4.069
13171TIP3    H239457   3.552   4.848   4.083
13172TIP3   OH239458   0.315   7.298   3.451
13172TIP3    H139459   0.382   7.340   3.504
13172TIP3    H239460   0.360   7.274   3.370
13173TIP3   OH239461   2.853   0.653   6.352
13173TIP3    H139462   2.759   0.653   6.333
13173TIP3    H239463   2.859   0.619   6.441
13174TIP3   OH239464   2.864   3.138   6.619
13174TIP3    H139465   2.864   3.168   6.710
13174TIP3    H239466   2.955   3.147   6.591
13175TIP3   OH239467   0.763   2.863   5.113
13175TIP3    H139468   0.711   2.920   5.056
13175TIP3    H239469   0.779   2.785   5.061
13176TIP3   OH239470   0.796   0.618   5.357
13176TIP3    H139471   0.848   0.611   5.277
13176TIP3    H239472   0.709   0.590   5.331
13177TIP3   OH239473   0.218   5.198   6.608
13177TIP3    H139474   0.166   5.132   6.563
13177TIP3    H239475   0.156   5.268   6.629
13178TIP3   OH239476   3.359   1.551   2.300
13178TIP3    H139477   3.346   1.591   2.214
13178TIP3    H239478   3.366   1.457   2.283
13179TIP3   OH239479   1.719   0.964   2.907
13179TIP3    H139480   1.641   0.988   2.956
13179TIP3    H239481   1.753   1.046   2.873
13180TIP3   OH239482   0.243   5.166   4.193
13180TIP3    H139483   0.286   5.251   4.199
13180TIP3    H239484   0.314   5.103   4.206
13181TIP3   OH239485   7.012   7.360   6.424
13181TIP3    H139486   6.949   7.293   6.397
13181TIP3    H239487   6.959   7.438   6.438
13182TIP3   OH239488   5.650   4.806   2.305
13182TIP3    H139489   5.702   4.885   2.290
13182TIP3    H239490   5.585   4.833   2.370
13183TIP3   OH239491   5.630   0.769   3.999
13183TIP3    H139492   5.690   0.731   4.064
13183TIP3    H239493   5.557   0.708   3.995
13184TIP3   OH239494   7.137   3.628   6.438
13184TIP3    H139495   7.052   3.630   6.395
13184TIP3    H239496   7.132   3.553   6.498
13185TIP3   OH239497   4.094   6.682   0.661
13185TIP3    H139498   4.118   6.736   0.736
13185TIP3    H239499   4.174   6.675   0.609
13186TIP3   OH239500   7.606  -0.018   3.677
13186TIP3    H139501   7.587   0.068   3.714
13186TIP3    H239502   7.522  -0.049   3.644
13187TIP3   OH239503   7.766   7.155   3.477
13187TIP3    H139504   7.703   7.129   3.544
13187TIP3    H239505   7.714   7.201   3.411
13188TIP3   OH239506   5.375   2.925   5.206
13188TIP3    H139507   5.304   2.871   5.242
13188TIP3    H239508   5.400   2.880   5.125
13189TIP3   OH239509   0.877   7.718   3.985
13189TIP3    H139510   0.833   7.798   3.955
13189TIP3    H239511   0.948   7.750   4.041
13190TIP3   OH239512   5.571   5.781   2.634
13190TIP3    H139513   5.607   5.852   2.581
13190TIP3    H239514   5.648   5.741   2.676
13191TIP3   OH239515   0.733   1.737   4.280
13191TIP3    H139516   0.748   1.720   4.373
13191TIP3    H239517   0.802   1.799   4.255
13192TIP3   OH239518   1.132   5.642   3.303
13192TIP3    H139519   1.084   5.690   3.370
13192TIP3    H239520   1.092   5.555   3.302
13193TIP3   OH239521   3.559   1.405   5.335
13193TIP3    H139522   3.580   1.418   5.428
13193TIP3    H239523   3.612   1.470   5.289
13194TIP3   OH239524   6.775   4.958   2.461
13194TIP3    H139525   6.810   4.869   2.468
13194TIP3    H239526   6.753   4.967   2.368
13195TIP3   OH239527   2.531   5.460   6.441
13195TIP3    H139528   2.623   5.442   6.457
13195TIP3    H239529   2.497   5.378   6.404
13196TIP3   OH239530   7.793   4.755   4.687
13196TIP3    H139531   7.820   4.711   4.606
13196TIP3    H239532   7.873   4.760   4.739
13197TIP3   OH239533   1.603   6.528   1.209
13197TIP3    H139534   1.644   6.614   1.221
13197TIP3    H239535   1.583   6.524   1.116
13198TIP3   OH239536   5.138   7.624   4.863
13198TIP3    H139537   5.122   7.590   4.775
13198TIP3    H239538   5.176   7.711   4.848
13199TIP3   OH239539   2.473   6.440   1.141
13199TIP3    H139540   2.535   6.465   1.073
13199TIP3    H239541   2.503   6.487   1.219
13200TIP3   OH239542   3.434   3.973   4.801
13200TIP3    H139543   3.439   3.969   4.896
13200TIP3    H239544   3.346   4.007   4.783
13201TIP3   OH239545   4.236   0.198   4.262
13201TIP3    H139546   4.228   0.108   4.290
13201TIP3    H239547   4.293   0.195   4.185
13202TIP3   OH239548   5.542   3.210   0.346
13202TIP3    H139549   5.577   3.277   0.288
13202TIP3    H239550   5.544   3.130   0.294
13203TIP3   OH239551   6.011   6.506   5.511
13203TIP3    H139552   6.045   6.573   5.570
13203TIP3    H239553   5.979   6.556   5.435
13204TIP3   OH239554   4.499   2.787   3.969
13204TIP3    H139555   4.430   2.815   3.908
13204TIP3    H239556   4.480   2.695   3.986
13205TIP3   OH239557   3.706   4.532   5.465
13205TIP3    H139558   3.749   4.589   5.527
13205TIP3    H239559   3.655   4.472   5.519
13206TIP3   OH239560   6.203   3.393   0.725
13206TIP3    H139561   6.137   3.455   0.755
13206TIP3    H239562   6.261   3.382   0.800
13207TIP3   OH239563   5.463   1.918   5.386
13207TIP3    H139564   5.479   1.974   5.462
13207TIP3    H239565   5.368   1.906   5.384
13208TIP3   OH239566   1.800   0.792   1.680
13208TIP3    H139567   1.851   0.862   1.719
13208TIP3    H239568   1.863   0.744   1.626
13209TIP3   OH239569   1.827   6.610   5.641
13209TIP3    H139570   1.738   6.597   5.607
13209TIP3    H239571   1.833   6.547   5.713
13210TIP3   OH239572   0.057   1.683   3.677
13210TIP3    H139573   0.030   1.774   3.686
13210TIP3    H239574   0.145   1.687   3.641
13211TIP3   OH239575   3.476   2.198   4.470
13211TIP3    H139576   3.386   2.174   4.448
13211TIP3    H239577   3.479   2.293   4.458
13212TIP3   OH239578   0.415   2.431   4.591
13212TIP3    H139579   0.404   2.351   4.540
13212TIP3    H239580   0.378   2.410   4.677
13213TIP3   OH239581   2.729   0.263   1.551
13213TIP3    H139582   2.636   0.244   1.566
13213TIP3    H239583   2.738   0.261   1.456
13214TIP3   OH239584   1.990   7.806   0.622
13214TIP3    H139585   2.018   7.732   0.569
13214TIP3    H239586   1.972   7.875   0.559
13215TIP3   OH239587   3.761   4.919   1.383
13215TIP3    H139588   3.720   4.965   1.310
13215TIP3    H239589   3.762   4.982   1.454
13216TIP3   OH239590   7.439   4.935   1.361
13216TIP3    H139591   7.392   4.873   1.306
13216TIP3    H239592   7.371   4.978   1.413
13217TIP3   OH239593   6.901   4.711   1.702
13217TIP3    H139594   6.879   4.748   1.616
13217TIP3    H239595   6.828   4.738   1.758
13218TIP3   OH239596   5.713   2.852   3.451
13218TIP3    H139597   5.773   2.889   3.386
13218TIP3    H239598   5.729   2.758   3.449
13219TIP3   OH239599   3.176   3.938   2.963
13219TIP3    H139600   3.233   3.984   3.026
13219TIP3    H239601   3.234   3.876   2.919
13220TIP3   OH239602   5.755   5.826   5.180
13220TIP3    H139603   5.672   5.779   5.171
13220TIP3    H239604   5.803   5.777   5.247
13221TIP3   OH239605   3.264   7.147   6.669
13221TIP3    H139606   3.185   7.176   6.715
13221TIP3    H239607   3.336   7.174   6.726
13222TIP3   OH239608   4.416   4.773   2.491
13222TIP3    H139609   4.366   4.844   2.450
13222TIP3    H239610   4.431   4.804   2.581
13223TIP3   OH239611   0.980   0.414   6.255
13223TIP3    H139612   1.047   0.434   6.320
13223TIP3    H239613   0.938   0.334   6.288
13224TIP3   OH239614   4.089   0.659   3.795
13224TIP3    H139615   4.070   0.731   3.735
13224TIP3    H239616   4.003   0.624   3.819
13225TIP3   OH239617   0.850   4.110   5.951
13225TIP3    H139618   0.791   4.171   5.995
13225TIP3    H239619   0.931   4.160   5.939
13226TIP3   OH239620   4.688   6.528   6.035
13226TIP3    H139621   4.671   6.620   6.053
13226TIP3    H239622   4.781   6.517   6.057
13227TIP3   OH239623   3.047   7.023   0.200
13227TIP3    H139624   3.044   7.036   0.294
13227TIP3    H239625   3.045   6.928   0.188
13228TIP3   OH239626   3.329   7.550   0.174
13228TIP3    H139627   3.415   7.565   0.213
13228TIP3    H239628   3.279   7.506   0.243
13229TIP3   OH239629   1.275   6.558   0.918
13229TIP3    H139630   1.296   6.517   1.002
13229TIP3    H239631   1.261   6.484   0.858
13230TIP3   OH239632   5.472   5.121   3.185
13230TIP3    H139633   5.494   5.098   3.095
13230TIP3    H239634   5.498   5.045   3.237
13231TIP3   OH239635   8.004   5.490   0.260
13231TIP3    H139636   7.926   5.435   0.260
13231TIP3    H239637   8.075   5.433   0.289
13232TIP3   OH239638   5.539   2.962   4.003
13232TIP3    H139639   5.501   2.914   3.929
13232TIP3    H239640   5.492   3.046   4.003
13233TIP3   OH239641   1.369   0.547   2.462
13233TIP3    H139642   1.309   0.540   2.388
13233TIP3    H239643   1.373   0.458   2.498
13234TIP3   OH239644   3.647   7.123   2.652
13234TIP3    H139645   3.741   7.106   2.657
13234TIP3    H239646   3.639   7.218   2.660
13235TIP3   OH239647   1.959   4.147   0.992
13235TIP3    H139648   1.947   4.060   0.953
13235TIP3    H239649   2.017   4.132   1.066
13236TIP3   OH239650   4.977   2.885   3.771
13236TIP3    H139651   4.970   2.871   3.676
13236TIP3    H239652   5.017   2.805   3.804
13237TIP3   OH239653   0.425   4.165   5.969
13237TIP3    H139654   0.392   4.130   5.886
13237TIP3    H239655   0.471   4.092   6.010
13238TIP3   OH239656   6.677   1.340   0.702
13238TIP3    H139657   6.753   1.393   0.676
13238TIP3    H239658   6.640   1.385   0.777
13239TIP3   OH239659   3.446   7.552   4.876
13239TIP3    H139660   3.503   7.610   4.825
13239TIP3    H239661   3.360   7.560   4.835
13240TIP3   OH239662   2.114   4.535   2.977
13240TIP3    H139663   2.159   4.488   2.907
13240TIP3    H239664   2.184   4.576   3.027
13241TIP3   OH239665   5.025   1.345   4.142
13241TIP3    H139666   5.026   1.344   4.237
13241TIP3    H239667   5.116   1.327   4.117
13242TIP3   OH239668   8.024   4.662   0.161
13242TIP3    H139669   8.037   4.661   0.066
13242TIP3    H239670   8.067   4.583   0.192
13243TIP3   OH239671   0.377   0.121   4.633
13243TIP3    H139672   0.306   0.163   4.583
13243TIP3    H239673   0.394   0.182   4.705
13244TIP3   OH239674   3.455   1.504   2.883
13244TIP3    H139675   3.405   1.553   2.817
13244TIP3    H239676   3.447   1.555   2.963
13245TIP3   OH239677   2.169   5.763   2.880
13245TIP3    H139678   2.213   5.820   2.817
13245TIP3    H239679   2.129   5.823   2.943
13246TIP3   OH239680   5.686   7.584   5.903
13246TIP3    H139681   5.626   7.655   5.926
13246TIP3    H239682   5.697   7.534   5.984
13247TIP3   OH239683   6.031   1.062   3.428
13247TIP3    H139684   6.050   1.109   3.346
13247TIP3    H239685   6.039   1.130   3.495
13248TIP3   OH239686   6.390   3.798   0.782
13248TIP3    H139687   6.361   3.781   0.693
13248TIP3    H239688   6.311   3.820   0.830
13249TIP3   OH239689   6.182   4.125   4.624
13249TIP3    H139690   6.122   4.125   4.699
13249TIP3    H239691   6.138   4.073   4.558
13250TIP3   OH239692   2.066   0.471   5.963
13250TIP3    H139693   2.098   0.551   6.003
13250TIP3    H239694   2.134   0.445   5.901
13251TIP3   OH239695   7.591   6.139   2.160
13251TIP3    H139696   7.577   6.233   2.150
13251TIP3    H239697   7.585   6.124   2.254
13252TIP3   OH239698   7.821   2.769   4.943
13252TIP3    H139699   7.801   2.738   5.031
13252TIP3    H239700   7.826   2.689   4.890
13253TIP3   OH239701   2.886   1.777   5.028
13253TIP3    H139702   2.875   1.707   4.964
13253TIP3    H239703   2.837   1.747   5.105
13254TIP3   OH239704   4.345   0.810   0.123
13254TIP3    H139705   4.289   0.836   0.050
13254TIP3    H239706   4.288   0.818   0.200
13255TIP3   OH239707   4.385   0.050   0.607
13255TIP3    H139708   4.470   0.075   0.643
13255TIP3    H239709   4.329   0.127   0.620
13256TIP3   OH239710   2.971   0.420   0.967
13256TIP3    H139711   2.906   0.489   0.977
13256TIP3    H239712   3.020   0.444   0.888
13257TIP3   OH239713   4.487   6.937   2.707
13257TIP3    H139714   4.544   6.864   2.683
13257TIP3    H239715   4.522   7.012   2.658
13258TIP3   OH239716   1.355   2.873   2.911
13258TIP3    H139717   1.412   2.942   2.878
13258TIP3    H239718   1.405   2.792   2.898
13259TIP3   OH239719   1.561   6.103   5.048
13259TIP3    H139720   1.620   6.174   5.023
13259TIP3    H239721   1.611   6.023   5.028
13260TIP3   OH239722   2.107   2.304   3.814
13260TIP3    H139723   2.195   2.327   3.783
13260TIP3    H239724   2.117   2.217   3.852
13261TIP3   OH239725   0.877   3.360   0.263
13261TIP3    H139726   0.937   3.289   0.241
13261TIP3    H239727   0.917   3.438   0.224
13262TIP3   OH239728   2.330   7.342   1.997
13262TIP3    H139729   2.244   7.339   2.037
13262TIP3    H239730   2.372   7.260   2.023
13263TIP3   OH239731   4.794   5.795   5.114
13263TIP3    H139732   4.863   5.823   5.173
13263TIP3    H239733   4.720   5.852   5.135
13264TIP3   OH239734   7.318   1.135   1.222
13264TIP3    H139735   7.380   1.120   1.150
13264TIP3    H239736   7.317   1.053   1.271
13265TIP3   OH239737   2.728   4.391   5.061
13265TIP3    H139738   2.823   4.379   5.065
13265TIP3    H239739   2.694   4.343   5.135
13266TIP3   OH239740   0.613   5.326   3.694
13266TIP3    H139741   0.695   5.278   3.684
13266TIP3    H239742   0.580   5.301   3.780
13267TIP3   OH239743   0.941   0.298   2.034
13267TIP3    H139744   0.911   0.215   1.995
13267TIP3    H239745   0.987   0.272   2.114
13268TIP3   OH239746   3.386   0.624   2.544
13268TIP3    H139747   3.454   0.688   2.564
13268TIP3    H239748   3.401   0.554   2.608
13269TIP3   OH239749   0.615   6.403   4.231
13269TIP3    H139750   0.648   6.452   4.306
13269TIP3    H239751   0.689   6.351   4.202
13270TIP3   OH239752   0.378   0.536   3.889
13270TIP3    H139753   0.473   0.549   3.894
13270TIP3    H239754   0.342   0.624   3.881
13271TIP3   OH239755   2.041   1.148   4.673
13271TIP3    H139756   1.982   1.195   4.615
13271TIP3    H239757   1.993   1.068   4.696
13272TIP3   OH239758   4.967   0.345   5.793
13272TIP3    H139759   4.941   0.355   5.701
13272TIP3    H239760   4.911   0.274   5.825
13273TIP3   OH239761   2.925   1.262   0.822
13273TIP3    H139762   2.961   1.256   0.910
13273TIP3    H239763   2.866   1.187   0.816
13274TIP3   OH239764   4.511   2.375   1.467
13274TIP3    H139765   4.567   2.446   1.436
13274TIP3    H239766   4.558   2.338   1.542
13275TIP3   OH239767   2.856   2.761   6.727
13275TIP3    H139768   2.816   2.813   6.797
13275TIP3    H239769   2.950   2.770   6.741
13276TIP3   OH239770   2.636   2.084   2.036
13276TIP3    H139771   2.723   2.092   2.073
13276TIP3    H239772   2.649   2.090   1.941
13277TIP3   OH239773   4.085   0.939   3.223
13277TIP3    H139774   4.063   0.848   3.244
13277TIP3    H239775   4.134   0.970   3.299
13278TIP3   OH239776   4.191   6.733   6.239
13278TIP3    H139777   4.120   6.755   6.179
13278TIP3    H239778   4.181   6.639   6.254
13279TIP3   OH239779   6.237   6.507   3.055
13279TIP3    H139780   6.181   6.464   2.991
13279TIP3    H239781   6.232   6.450   3.133
13280TIP3   OH239782   6.485   7.463   2.422
13280TIP3    H139783   6.503   7.394   2.358
13280TIP3    H239784   6.523   7.542   2.383
13281TIP3   OH239785   4.406   3.455   3.462
13281TIP3    H139786   4.481   3.513   3.478
13281TIP3    H239787   4.366   3.444   3.549
13282TIP3   OH239788   0.704   7.623   6.064
13282TIP3    H139789   0.712   7.599   6.156
13282TIP3    H239790   0.794   7.630   6.033
13283TIP3   OH239791   2.748   4.041   2.759
13283TIP3    H139792   2.737   3.947   2.744
13283TIP3    H239793   2.754   4.050   2.854
13284TIP3   OH239794   0.858   3.031   2.778
13284TIP3    H139795   0.890   2.974   2.848
13284TIP3    H239796   0.935   3.050   2.725
13285TIP3   OH239797   8.059   4.097   3.155
13285TIP3    H139798   8.029   4.184   3.129
13285TIP3    H239799   8.111   4.112   3.234
13286TIP3   OH239800   2.287   5.507   6.216
13286TIP3    H139801   2.379   5.495   6.193
13286TIP3    H239802   2.251   5.419   6.216
13287TIP3   OH239803   6.861   0.563   0.582
13287TIP3    H139804   6.794   0.554   0.515
13287TIP3    H239805   6.871   0.474   0.617
13288TIP3   OH239806   3.866   7.033   6.660
13288TIP3    H139807   3.900   7.094   6.726
13288TIP3    H239808   3.862   6.949   6.706
13289TIP3   OH239809   8.221   5.556   2.731
13289TIP3    H139810   8.226   5.489   2.799
13289TIP3    H239811   8.308   5.596   2.731
13290TIP3   OH239812   8.150   6.620   2.899
13290TIP3    H139813   8.165   6.569   2.980
13290TIP3    H239814   8.055   6.627   2.894
13291TIP3   OH239815   0.408   5.058   6.434
13291TIP3    H139816   0.359   5.100   6.505
13291TIP3    H239817   0.474   5.123   6.409
13292TIP3   OH239818   1.689   6.710   3.523
13292TIP3    H139819   1.674   6.619   3.498
13292TIP3    H239820   1.696   6.708   3.619
13293TIP3   OH239821   3.562   2.501   1.520
13293TIP3    H139822   3.656   2.519   1.514
13293TIP3    H239823   3.521   2.579   1.484
13294TIP3   OH239824   1.588   0.283   2.821
13294TIP3    H139825   1.579   0.208   2.761
13294TIP3    H239826   1.673   0.321   2.797
13295TIP3   OH239827   2.591   5.832   0.251
13295TIP3    H139828   2.576   5.840   0.157
13295TIP3    H239829   2.504   5.816   0.288
13296TIP3   OH239830   0.448   4.467   3.627
13296TIP3    H139831   0.392   4.397   3.593
13296TIP3    H239832   0.394   4.511   3.693
13297TIP3   OH239833   3.439   7.819   1.917
13297TIP3    H139834   3.348   7.850   1.920
13297TIP3    H239835   3.479   7.872   1.848
13298TIP3   OH239836   2.929   7.221   6.636
13298TIP3    H139837   2.980   7.203   6.557
13298TIP3    H239838   2.846   7.257   6.602
13299TIP3   OH239839   4.314   4.338   0.046
13299TIP3    H139840   4.284   4.261   0.094
13299TIP3    H239841   4.318   4.310  -0.045
13300TIP3   OH239842   2.431   4.112   6.060
13300TIP3    H139843   2.349   4.121   6.012
13300TIP3    H239844   2.406   4.068   6.142
13301TIP3   OH239845   2.206   6.149   0.366
13301TIP3    H139846   2.124   6.153   0.416
13301TIP3    H239847   2.230   6.056   0.368
13302TIP3   OH239848   7.050   2.495   0.713
13302TIP3    H139849   7.024   2.404   0.696
13302TIP3    H239850   7.122   2.487   0.776
13303TIP3   OH239851   6.364   1.187   2.855
13303TIP3    H139852   6.313   1.235   2.920
13303TIP3    H239853   6.311   1.189   2.776
13304TIP3   OH239854   7.016   1.516   6.733
13304TIP3    H139855   6.990   1.502   6.642
13304TIP3    H239856   6.974   1.445   6.782
13305TIP3   OH239857   8.192   5.332   0.419
13305TIP3    H139858   8.255   5.402   0.435
13305TIP3    H239859   8.216   5.264   0.481
13306TIP3   OH239860   0.171   3.448   3.940
13306TIP3    H139861   0.229   3.380   3.907
13306TIP3    H239862   0.143   3.416   4.026
13307TIP3   OH239863   2.019   2.369   0.702
13307TIP3    H139864   2.106   2.355   0.740
13307TIP3    H239865   2.036   2.417   0.621
13308TIP3   OH239866   4.635   3.595   3.575
13308TIP3    H139867   4.728   3.586   3.595
13308TIP3    H239868   4.629   3.678   3.527
13309TIP3   OH239869   0.913   1.242   4.650
13309TIP3    H139870   0.833   1.190   4.642
13309TIP3    H239871   0.890   1.327   4.614
13310TIP3   OH239872   2.297   4.526   4.351
13310TIP3    H139873   2.360   4.469   4.309
13310TIP3    H239874   2.222   4.470   4.372
13311TIP3   OH239875   0.451   7.553   6.354
13311TIP3    H139876   0.434   7.483   6.290
13311TIP3    H239877   0.404   7.525   6.433
13312TIP3   OH239878   6.922   2.281   5.779
13312TIP3    H139879   6.940   2.355   5.721
13312TIP3    H239880   7.008   2.253   5.810
13313TIP3   OH239881  -0.031   6.054   2.739
13313TIP3    H139882  -0.009   6.049   2.832
13313TIP3    H239883   0.052   6.070   2.696
13314TIP3   OH239884   2.890   1.042   2.269
13314TIP3    H139885   2.970   1.093   2.264
13314TIP3    H239886   2.863   1.049   2.361
13315TIP3   OH239887   7.055   7.672   2.698
13315TIP3    H139888   7.068   7.638   2.787
13315TIP3    H239889   6.968   7.642   2.674
13316TIP3   OH239890   0.794  -0.016   6.709
13316TIP3    H139891   0.888  -0.036   6.702
13316TIP3    H239892   0.777   0.045   6.638
13317TIP3   OH239893   5.942   2.696   4.182
13317TIP3    H139894   6.011   2.760   4.161
13317TIP3    H239895   5.860   2.743   4.166
13318TIP3   OH239896   7.085   2.407   2.234
13318TIP3    H139897   7.059   2.491   2.271
13318TIP3    H239898   7.028   2.343   2.277
13319TIP3   OH239899   4.546   0.210   1.847
13319TIP3    H139900   4.482   0.138   1.849
13319TIP3    H239901   4.540   0.244   1.758
13320TIP3   OH239902   6.471   5.130   6.071
13320TIP3    H139903   6.443   5.050   6.116
13320TIP3    H239904   6.421   5.130   5.989
13321TIP3   OH239905   5.716   4.346   3.609
13321TIP3    H139906   5.662   4.267   3.601
13321TIP3    H239907   5.803   4.313   3.633
13322TIP3   OH239908   0.787   7.430   2.639
13322TIP3    H139909   0.738   7.510   2.656
13322TIP3    H239910   0.879   7.458   2.637
13323TIP3   OH239911   6.131   5.396   1.959
13323TIP3    H139912   6.154   5.377   2.051
13323TIP3    H239913   6.120   5.491   1.956
13324TIP3   OH239914   4.541   7.423   5.642
13324TIP3    H139915   4.610   7.466   5.693
13324TIP3    H239916   4.571   7.333   5.632
13325TIP3   OH239917   3.580   2.148   3.035
13325TIP3    H139918   3.620   2.194   2.961
13325TIP3    H239919   3.616   2.060   3.032
13326TIP3   OH239920   7.757   4.717   2.777
13326TIP3    H139921   7.725   4.679   2.695
13326TIP3    H239922   7.738   4.810   2.769
13327TIP3   OH239923   3.693   1.376   2.861
13327TIP3    H139924   3.623   1.433   2.831
13327TIP3    H239925   3.692   1.383   2.956
13328TIP3   OH239926  -0.027   1.521   5.741
13328TIP3    H139927   0.035   1.591   5.762
13328TIP3    H239928   0.013   1.476   5.666
13329TIP3   OH239929   0.797   1.778   5.478
13329TIP3    H139930   0.798   1.825   5.561
13329TIP3    H239931   0.876   1.808   5.433
13330TIP3   OH239932   4.501   0.456   4.131
13330TIP3    H139933   4.436   0.513   4.172
13330TIP3    H239934   4.563   0.516   4.089
13331TIP3   OH239935   7.620   2.260   6.444
13331TIP3    H139936   7.598   2.301   6.360
13331TIP3    H239937   7.676   2.186   6.421
13332TIP3   OH239938   2.819  -0.015   3.818
13332TIP3    H139939   2.752   0.047   3.788
13332TIP3    H239940   2.831  -0.074   3.743
13333TIP3   OH239941   3.230   2.888   3.936
13333TIP3    H139942   3.180   2.897   4.017
13333TIP3    H239943   3.316   2.924   3.957
13334TIP3   OH239944   1.139   0.180   5.126
13334TIP3    H139945   1.234   0.189   5.116
13334TIP3    H239946   1.113   0.255   5.179
13335TIP3   OH239947   8.233   4.360   0.738
13335TIP3    H139948   8.234   4.419   0.813
13335TIP3    H239949   8.188   4.281   0.770
13336TIP3   OH239950   5.844   4.839   6.534
13336TIP3    H139951   5.874   4.748   6.543
13336TIP3    H239952   5.817   4.863   6.623
13337TIP3   OH239953   6.936   3.537   5.029
13337TIP3    H139954   6.897   3.566   5.111
13337TIP3    H239955   7.025   3.572   5.030
13338TIP3   OH239956   2.633   2.313   0.384
13338TIP3    H139957   2.650   2.286   0.294
13338TIP3    H239958   2.545   2.278   0.403
13339TIP3   OH239959   6.426   7.026   4.908
13339TIP3    H139960   6.474   7.095   4.954
13339TIP3    H239961   6.450   6.945   4.953
13340TIP3   OH239962   6.262   4.856   5.176
13340TIP3    H139963   6.268   4.763   5.155
13340TIP3    H239964   6.230   4.898   5.096
13341TIP3   OH239965   7.126   6.010   1.240
13341TIP3    H139966   7.133   5.975   1.151
13341TIP3    H239967   7.133   5.933   1.297
13342TIP3   OH239968   2.468   6.875   5.374
13342TIP3    H139969   2.460   6.968   5.352
13342TIP3    H239970   2.560   6.855   5.360
13343TIP3   OH239971   2.061   4.370   5.466
13343TIP3    H139972   2.127   4.302   5.452
13343TIP3    H239973   2.094   4.420   5.541
13344TIP3   OH239974   0.795   7.081   6.160
13344TIP3    H139975   0.772   7.103   6.069
13344TIP3    H239976   0.738   7.137   6.213
13345TIP3   OH239977   0.755   4.924   6.274
13345TIP3    H139978   0.701   4.903   6.198
13345TIP3    H239979   0.795   5.009   6.253
13346TIP3   OH239980   8.178   5.476   1.702
13346TIP3    H139981   8.131   5.415   1.645
13346TIP3    H239982   8.220   5.538   1.643
13347TIP3   OH239983   1.555   3.520   4.347
13347TIP3    H139984   1.520   3.481   4.268
13347TIP3    H239985   1.486   3.510   4.412
13348TIP3   OH239986   6.868   1.689   0.653
13348TIP3    H139987   6.909   1.634   0.720
13348TIP3    H239988   6.879   1.639   0.572
13349TIP3   OH239989   3.262   2.486   5.441
13349TIP3    H139990   3.279   2.578   5.422
13349TIP3    H239991   3.347   2.443   5.430
13350TIP3   OH239992   5.069   1.754   6.296
13350TIP3    H139993   5.076   1.683   6.359
13350TIP3    H239994   4.988   1.734   6.248
13351TIP3   OH239995   2.261   2.516   1.255
13351TIP3    H139996   2.357   2.514   1.253
13351TIP3    H239997   2.239   2.605   1.283
13352TIP3   OH239998   5.276   1.185   5.372
13352TIP3    H139999   5.327   1.162   5.450
13352TIP3    H240000   5.193   1.218   5.406
13353TIP3   OH240001   6.420   0.691   1.921
13353TIP3    H140002   6.445   0.662   2.008
13353TIP3    H240003   6.327   0.667   1.913
13354TIP3   OH240004   3.488   4.518   6.535
13354TIP3    H140005   3.397   4.536   6.559
13354TIP3    H240006   3.491   4.530   6.440
13355TIP3   OH240007   7.000   2.635   2.368
13355TIP3    H140008   7.071   2.670   2.422
13355TIP3    H240009   6.951   2.712   2.339
13356TIP3   OH240010   1.346   6.672   2.459
13356TIP3    H140011   1.411   6.706   2.397
13356TIP3    H240012   1.397   6.617   2.519
13357TIP3   OH240013   3.643   4.748   6.302
13357TIP3    H140014   3.668   4.768   6.211
13357TIP3    H240015   3.553   4.780   6.309
13358TIP3   OH240016   4.679   3.249   0.044
13358TIP3    H140017   4.656   3.342   0.043
13358TIP3    H240018   4.597   3.204   0.067
13359TIP3   OH240019   3.151   3.720   4.817
13359TIP3    H140020   3.137   3.810   4.786
13359TIP3    H240021   3.121   3.665   4.745
13360TIP3   OH240022   8.027   4.571   6.534
13360TIP3    H140023   7.995   4.500   6.478
13360TIP3    H240024   8.122   4.556   6.538
13361TIP3   OH240025   1.047   7.214   0.951
13361TIP3    H140026   1.066   7.120   0.955
13361TIP3    H240027   1.005   7.233   1.035
13362TIP3   OH240028   6.046   7.428   0.921
13362TIP3    H140029   5.994   7.359   0.962
13362TIP3    H240030   6.096   7.383   0.853
13363TIP3   OH240031   6.744   5.631   0.658
13363TIP3    H140032   6.700   5.693   0.600
13363TIP3    H240033   6.760   5.680   0.739
13364TIP3   OH240034   7.930   5.217   4.220
13364TIP3    H140035   7.928   5.300   4.174
13364TIP3    H240036   7.990   5.231   4.293
13365TIP3   OH240037   2.398   7.793   1.172
13365TIP3    H140038   2.454   7.716   1.186
13365TIP3    H240039   2.310   7.765   1.197
13366TIP3   OH240040   0.312   0.918   2.401
13366TIP3    H140041   0.396   0.964   2.407
13366TIP3    H240042   0.248   0.984   2.427
13367TIP3   OH240043   7.926   5.532   2.261
13367TIP3    H140044   7.848   5.555   2.312
13367TIP3    H240045   7.986   5.606   2.274
13368TIP3   OH240046   4.171   0.394   5.551
13368TIP3    H140047   4.148   0.421   5.639
13368TIP3    H240048   4.239   0.456   5.524
13369TIP3   OH240049   0.998   1.696   5.234
13369TIP3    H140050   1.065   1.751   5.194
13369TIP3    H240051   1.046   1.621   5.269
13370TIP3   OH240052   1.062   2.538   6.047
13370TIP3    H140053   1.138   2.483   6.027
13370TIP3    H240054   1.004   2.527   5.972
13371TIP3   OH240055   0.637   6.895   0.952
13371TIP3    H140056   0.678   6.862   1.032
13371TIP3    H240057   0.616   6.817   0.902
13372TIP3   OH240058   3.407   6.933   4.557
13372TIP3    H140059   3.327   6.907   4.604
13372TIP3    H240060   3.419   7.025   4.578
13373TIP3   OH240061   7.474   1.957   5.464
13373TIP3    H140062   7.525   1.877   5.476
13373TIP3    H240063   7.437   1.948   5.376
13374TIP3   OH240064   3.555   0.083   0.312
13374TIP3    H140065   3.635   0.110   0.356
13374TIP3    H240066   3.573  -0.006   0.281
13375TIP3   OH240067   4.765   6.241   1.212
13375TIP3    H140068   4.792   6.170   1.270
13375TIP3    H240069   4.835   6.247   1.148
13376TIP3   OH240070   7.351   2.298   1.491
13376TIP3    H140071   7.381   2.389   1.481
13376TIP3    H240072   7.257   2.304   1.502
13377TIP3   OH240073   5.694   5.420   5.767
13377TIP3    H140074   5.682   5.376   5.683
13377TIP3    H240075   5.605   5.437   5.798
13378TIP3   OH240076   8.068   7.305   5.976
13378TIP3    H140077   8.092   7.269   5.891
13378TIP3    H240078   8.024   7.233   6.021
13379TIP3   OH240079   2.773   2.041   1.489
13379TIP3    H140080   2.804   2.069   1.403
13379TIP3    H240081   2.851   2.040   1.544
13380TIP3   OH240082   1.127   5.977   4.847
13380TIP3    H140083   1.205   5.953   4.796
13380TIP3    H240084   1.150   6.059   4.889
13381TIP3   OH240085   3.999   7.608   1.283
13381TIP3    H140086   4.082   7.588   1.240
13381TIP3    H240087   3.933   7.566   1.227
13382TIP3   OH240088   7.441   5.954   0.313
13382TIP3    H140089   7.418   5.869   0.275
13382TIP3    H240090   7.510   5.988   0.257
13383TIP3   OH240091   6.739   0.725   3.500
13383TIP3    H140092   6.671   0.777   3.457
13383TIP3    H240093   6.761   0.774   3.579
13384TIP3   OH240094   1.543   2.545   2.420
13384TIP3    H140095   1.577   2.455   2.428
13384TIP3    H240096   1.473   2.539   2.356
13385TIP3   OH240097   0.288   4.110   5.219
13385TIP3    H140098   0.257   4.064   5.142
13385TIP3    H240099   0.350   4.050   5.260
13386TIP3   OH240100   1.643   3.673   2.350
13386TIP3    H140101   1.717   3.632   2.395
13386TIP3    H240102   1.658   3.767   2.361
13387TIP3   OH240103   0.930   5.092   5.736
13387TIP3    H140104   0.978   5.036   5.675
13387TIP3    H240105   0.837   5.074   5.718
13388TIP3   OH240106   4.197   3.263   0.730
13388TIP3    H140107   4.133   3.324   0.695
13388TIP3    H240108   4.280   3.289   0.689
13389TIP3   OH240109   4.660   0.288   3.092
13389TIP3    H140110   4.749   0.323   3.083
13389TIP3    H240111   4.672   0.196   3.116
13390TIP3   OH240112   4.417   5.699   4.435
13390TIP3    H140113   4.402   5.723   4.527
13390TIP3    H240114   4.344   5.740   4.388
13391TIP3   OH240115   4.160   7.377   4.769
13391TIP3    H140116   4.242   7.382   4.719
13391TIP3    H240117   4.181   7.413   4.855
13392TIP3   OH240118   1.249   5.386   5.039
13392TIP3    H140119   1.321   5.342   5.084
13392TIP3    H240120   1.176   5.383   5.101
13393TIP3   OH240121   6.996   0.758   5.713
13393TIP3    H140122   7.050   0.741   5.790
13393TIP3    H240123   7.033   0.702   5.644
13394TIP3   OH240124   6.799   3.926   4.879
13394TIP3    H140125   6.740   3.864   4.835
13394TIP3    H240126   6.883   3.880   4.883
13395TIP3   OH240127   2.575   3.889   0.246
13395TIP3    H140128   2.662   3.918   0.272
13395TIP3    H240129   2.580   3.879   0.151
13396TIP3   OH240130   1.142   4.341   0.785
13396TIP3    H140131   1.207   4.291   0.834
13396TIP3    H240132   1.094   4.389   0.852
13397TIP3   OH240133   3.993   2.496   4.632
13397TIP3    H140134   3.983   2.588   4.658
13397TIP3    H240135   3.904   2.466   4.613
13398TIP3   OH240136   5.023   6.920   3.972
13398TIP3    H140137   4.989   7.008   3.955
13398TIP3    H240138   5.017   6.875   3.887
13399TIP3   OH240139   3.583   0.794   6.350
13399TIP3    H140140   3.566   0.742   6.272
13399TIP3    H240141   3.574   0.885   6.321
13400TIP3   OH240142   1.517   3.058   3.124
13400TIP3    H140143   1.508   3.041   3.030
13400TIP3    H240144   1.431   3.092   3.150
13401TIP3   OH240145   6.213   1.986   2.031
13401TIP3    H140146   6.275   1.925   1.991
13401TIP3    H240147   6.163   2.022   1.958
13402TIP3   OH240148   4.966   0.609   3.521
13402TIP3    H140149   4.901   0.569   3.578
13402TIP3    H240150   4.917   0.637   3.443
13403TIP3   OH240151   3.276   1.969   4.004
13403TIP3    H140152   3.336   2.031   3.964
13403TIP3    H240153   3.291   1.978   4.098
13404TIP3   OH240154   3.058   1.546   1.977
13404TIP3    H140155   2.973   1.511   1.950
13404TIP3    H240156   3.097   1.581   1.896
13405TIP3   OH240157   3.016   2.769   0.089
13405TIP3    H140158   3.001   2.863   0.092
13405TIP3    H240159   2.929   2.731   0.101
13406TIP3   OH240160   0.677   4.233   1.984
13406TIP3    H140161   0.687   4.317   1.938
13406TIP3    H240162   0.713   4.168   1.924
13407TIP3   OH240163   0.788   1.250   6.780
13407TIP3    H140164   0.831   1.249   6.695
13407TIP3    H240165   0.727   1.324   6.776
13408TIP3   OH240166   5.361   7.185   2.090
13408TIP3    H140167   5.405   7.121   2.146
13408TIP3    H240168   5.276   7.146   2.071
13409TIP3   OH240169   7.037   4.494   1.801
13409TIP3    H140170   6.998   4.570   1.758
13409TIP3    H240171   6.964   4.451   1.846
13410TIP3   OH240172   0.247   7.053   1.605
13410TIP3    H140173   0.301   7.130   1.588
13410TIP3    H240174   0.189   7.047   1.530
13411TIP3   OH240175   7.818   5.563   1.676
13411TIP3    H140176   7.726   5.544   1.658
13411TIP3    H240177   7.864   5.482   1.656
13412TIP3   OH240178   3.137   2.179   0.796
13412TIP3    H140179   3.129   2.248   0.862
13412TIP3    H240180   3.225   2.143   0.810
13413TIP3   OH240181   2.385   1.832   3.769
13413TIP3    H140182   2.474   1.845   3.734
13413TIP3    H240183   2.387   1.745   3.808
13414TIP3   OH240184   5.446   3.779   5.476
13414TIP3    H140185   5.422   3.851   5.534
13414TIP3    H240186   5.392   3.705   5.505
13415TIP3   OH240187   5.334   6.265   0.366
13415TIP3    H140188   5.332   6.173   0.392
13415TIP3    H240189   5.392   6.306   0.430
13416TIP3   OH240190   5.931   4.227   1.508
13416TIP3    H140191   5.852   4.253   1.556
13416TIP3    H240192   6.003   4.268   1.555
13417TIP3   OH240193   7.226   3.821   2.653
13417TIP3    H140194   7.247   3.764   2.728
13417TIP3    H240195   7.299   3.883   2.648
13418TIP3   OH240196   2.822   1.223   3.464
13418TIP3    H140197   2.894   1.246   3.405
13418TIP3    H240198   2.781   1.307   3.487
13419TIP3   OH240199   0.971   0.495   4.181
13419TIP3    H140200   0.965   0.418   4.238
13419TIP3    H240201   0.898   0.484   4.119
13420TIP3   OH240202   0.357   3.897   2.230
13420TIP3    H140203   0.410   3.972   2.257
13420TIP3    H240204   0.291   3.889   2.299
13421TIP3   OH240205   0.765   3.199   6.024
13421TIP3    H140206   0.795   3.273   6.077
13421TIP3    H240207   0.790   3.222   5.934
13422TIP3   OH240208   0.588   1.962   1.490
13422TIP3    H140209   0.512   2.020   1.489
13422TIP3    H240210   0.644   1.993   1.419
13423TIP3   OH240211   0.725   4.545   0.016
13423TIP3    H140212   0.649   4.537   0.075
13423TIP3    H240213   0.714   4.476  -0.048
13424TIP3   OH240214   1.097   5.533   3.624
13424TIP3    H140215   1.025   5.489   3.668
13424TIP3    H240216   1.058   5.570   3.544
13425TIP3   OH240217   3.648   7.191   1.335
13425TIP3    H140218   3.687   7.127   1.395
13425TIP3    H240219   3.590   7.243   1.391
13426TIP3   OH240220   0.352   7.090   3.818
13426TIP3    H140221   0.427   7.126   3.866
13426TIP3    H240222   0.300   7.167   3.794
13427TIP3   OH240223   5.522   0.797   1.043
13427TIP3    H140224   5.520   0.722   0.983
13427TIP3    H240225   5.434   0.834   1.039
13428TIP3   OH240226   2.286   2.963   5.418
13428TIP3    H140227   2.250   3.050   5.435
13428TIP3    H240228   2.244   2.906   5.482
13429TIP3   OH240229   3.074   0.036   1.169
13429TIP3    H140230   3.107   0.091   1.240
13429TIP3    H240231   3.086  -0.054   1.201
13430TIP3   OH240232   1.998   3.688   4.639
13430TIP3    H140233   1.991   3.656   4.729
13430TIP3    H240234   1.965   3.778   4.643
13431TIP3   OH240235   0.558   4.147   5.600
13431TIP3    H140236   0.647   4.112   5.599
13431TIP3    H240237   0.514   4.103   5.527
13432TIP3   OH240238   5.299   7.474   0.921
13432TIP3    H140239   5.233   7.431   0.866
13432TIP3    H240240   5.255   7.552   0.953
13433TIP3   OH240241   6.023   5.474   2.778
13433TIP3    H140242   6.094   5.512   2.830
13433TIP3    H240243   5.975   5.419   2.840
13434TIP3   OH240244   3.497   7.235   3.603
13434TIP3    H140245   3.417   7.182   3.610
13434TIP3    H240246   3.547   7.214   3.682
13435TIP3   OH240247   0.278   7.409   6.551
13435TIP3    H140248   0.227   7.362   6.485
13435TIP3    H240249   0.237   7.387   6.634
13436TIP3   OH240250   5.909   0.006   1.259
13436TIP3    H140251   5.875   0.095   1.266
13436TIP3    H240252   5.968  -0.004   1.334
13437TIP3   OH240253   3.997   5.859   5.378
13437TIP3    H140254   4.065   5.886   5.316
13437TIP3    H240255   3.919   5.849   5.324
13438TIP3   OH240256   4.263   3.854   0.737
13438TIP3    H140257   4.258   3.762   0.713
13438TIP3    H240258   4.333   3.889   0.681
13439TIP3   OH240259   3.607   5.961   3.525
13439TIP3    H140260   3.600   5.904   3.601
13439TIP3    H240261   3.671   5.918   3.468
13440TIP3   OH240262   4.790   5.023   1.587
13440TIP3    H140263   4.774   5.110   1.623
13440TIP3    H240264   4.719   4.969   1.622
13441TIP3   OH240265   1.882   4.863   4.483
13441TIP3    H140266   1.882   4.958   4.485
13441TIP3    H240267   1.962   4.840   4.434
13442TIP3   OH240268   3.518   2.869   1.713
13442TIP3    H140269   3.439   2.859   1.766
13442TIP3    H240270   3.528   2.963   1.701
13443TIP3   OH240271   2.098   3.630   2.397
13443TIP3    H140272   2.095   3.724   2.382
13443TIP3    H240273   2.007   3.604   2.408
13444TIP3   OH240274   5.435   0.597   2.246
13444TIP3    H140275   5.458   0.505   2.235
13444TIP3    H240276   5.506   0.645   2.205
13445TIP3   OH240277   4.358   0.570   4.375
13445TIP3    H140278   4.433   0.618   4.339
13445TIP3    H240279   4.390   0.535   4.458
13446TIP3   OH240280   6.277   7.653   1.309
13446TIP3    H140281   6.357   7.618   1.269
13446TIP3    H240282   6.297   7.745   1.326
13447TIP3   OH240283   6.022   5.868   1.542
13447TIP3    H140284   5.931   5.847   1.521
13447TIP3    H240285   6.016   5.937   1.608
13448TIP3   OH240286   7.445   7.559   0.430
13448TIP3    H140287   7.416   7.623   0.495
13448TIP3    H240288   7.469   7.613   0.354
13449TIP3   OH240289   5.975   4.656   3.297
13449TIP3    H140290   5.990   4.750   3.299
13449TIP3    H240291   6.035   4.621   3.363
13450TIP3   OH240292   0.797   4.509   2.843
13450TIP3    H140293   0.802   4.571   2.916
13450TIP3    H240294   0.767   4.561   2.769
13451TIP3   OH240295   6.718   1.788   2.227
13451TIP3    H140296   6.667   1.868   2.215
13451TIP3    H240297   6.688   1.753   2.311
13452TIP3   OH240298   1.588   3.187   1.641
13452TIP3    H140299   1.584   3.268   1.590
13452TIP3    H240300   1.663   3.200   1.700
13453TIP3   OH240301   5.709   1.602   0.376
13453TIP3    H140302   5.740   1.525   0.328
13453TIP3    H240303   5.788   1.639   0.415
13454TIP3   OH240304   2.645   1.188   6.593
13454TIP3    H140305   2.736   1.180   6.564
13454TIP3    H240306   2.650   1.229   6.679
13455TIP3   OH240307   1.185   2.293   5.922
13455TIP3    H140308   1.119   2.252   5.865
13455TIP3    H240309   1.249   2.223   5.938
13456TIP3   OH240310   0.370   6.546   0.178
13456TIP3    H140311   0.386   6.474   0.240
13456TIP3    H240312   0.398   6.624   0.225
13457TIP3   OH240313   2.231   6.642   1.683
13457TIP3    H140314   2.140   6.671   1.676
13457TIP3    H240315   2.239   6.570   1.620
13458TIP3   OH240316   4.306   2.850   3.791
13458TIP3    H140317   4.252   2.771   3.780
13458TIP3    H240318   4.308   2.889   3.704
13459TIP3   OH240319   8.113   2.791   3.800
13459TIP3    H140320   8.032   2.819   3.758
13459TIP3    H240321   8.129   2.858   3.867
13460TIP3   OH240322   8.238   7.696   1.177
13460TIP3    H140323   8.158   7.734   1.214
13460TIP3    H240324   8.296   7.684   1.252
13461TIP3   OH240325   8.236   3.451   2.863
13461TIP3    H140326   8.266   3.541   2.873
13461TIP3    H240327   8.264   3.406   2.942
13462TIP3   OH240328   7.184   4.371   1.256
13462TIP3    H140329   7.171   4.446   1.314
13462TIP3    H240330   7.153   4.296   1.305
13463TIP3   OH240331   2.156   5.286   6.200
13463TIP3    H140332   2.168   5.194   6.177
13463TIP3    H240333   2.093   5.319   6.136
13464TIP3   OH240334   6.457   1.108   2.329
13464TIP3    H140335   6.542   1.132   2.292
13464TIP3    H240336   6.397   1.106   2.255
13465TIP3   OH240337   1.890   5.461   0.261
13465TIP3    H140338   1.916   5.432   0.173
13465TIP3    H240339   1.890   5.557   0.256
13466TIP3   OH240340   2.749   0.080   3.416
13466TIP3    H140341   2.723   0.172   3.417
13466TIP3    H240342   2.675   0.034   3.455
13467TIP3   OH240343   0.113   1.575   0.835
13467TIP3    H140344   0.150   1.663   0.822
13467TIP3    H240345   0.068   1.580   0.920
13468TIP3   OH240346   0.685   5.969   1.239
13468TIP3    H140347   0.596   5.937   1.226
13468TIP3    H240348   0.696   6.039   1.175
13469TIP3   OH240349   8.121   1.845   1.915
13469TIP3    H140350   8.112   1.939   1.896
13469TIP3    H240351   8.031   1.812   1.914
13470TIP3   OH240352   7.480   0.029   0.165
13470TIP3    H140353   7.459   0.057   0.076
13470TIP3    H240354   7.560  -0.023   0.157
13471TIP3   OH240355   6.422   1.349   5.510
13471TIP3    H140356   6.432   1.429   5.458
13471TIP3    H240357   6.370   1.376   5.586
13472TIP3   OH240358   7.283   6.971   5.943
13472TIP3    H140359   7.245   6.907   6.003
13472TIP3    H240360   7.364   6.930   5.913
13473TIP3   OH240361   3.161   2.555   2.256
13473TIP3    H140362   3.242   2.565   2.305
13473TIP3    H240363   3.174   2.476   2.203
13474TIP3   OH240364   2.027   7.631   4.819
13474TIP3    H140365   2.071   7.713   4.798
13474TIP3    H240366   1.944   7.635   4.770
13475TIP3   OH240367   6.008   5.288   1.492
13475TIP3    H140368   5.919   5.307   1.463
13475TIP3    H240369   6.007   5.304   1.586
13476TIP3   OH240370  -0.022   1.413   3.651
13476TIP3    H140371   0.034   1.347   3.691
13476TIP3    H240372   0.000   1.494   3.697
13477TIP3   OH240373   5.581   5.044   4.997
13477TIP3    H140374   5.601   5.105   4.926
13477TIP3    H240375   5.538   5.097   5.064
13478TIP3   OH240376   3.451   3.989   6.465
13478TIP3    H140377   3.480   4.064   6.518
13478TIP3    H240378   3.357   4.004   6.452
13479TIP3   OH240379   4.453   1.362   5.754
13479TIP3    H140380   4.432   1.274   5.723
13479TIP3    H240381   4.491   1.406   5.679
13480TIP3   OH240382   7.268   2.917   5.683
13480TIP3    H140383   7.242   2.972   5.757
13480TIP3    H240384   7.280   2.979   5.611
13481TIP3   OH240385   6.480   6.485   1.388
13481TIP3    H140386   6.395   6.445   1.370
13481TIP3    H240387   6.480   6.502   1.482
13482TIP3   OH240388   2.247   2.036   6.707
13482TIP3    H140389   2.223   2.048   6.615
13482TIP3    H240390   2.334   2.077   6.714
13483TIP3   OH240391   1.380   4.215   2.026
13483TIP3    H140392   1.442   4.250   2.090
13483TIP3    H240393   1.396   4.121   2.025
13484TIP3   OH240394   6.345   6.598   1.628
13484TIP3    H140395   6.344   6.675   1.686
13484TIP3    H240396   6.270   6.610   1.570
13485TIP3   OH240397   7.537   1.689   1.136
13485TIP3    H140398   7.534   1.782   1.157
13485TIP3    H240399   7.452   1.655   1.164
13486TIP3   OH240400   3.874   7.164   1.849
13486TIP3    H140401   3.817   7.223   1.898
13486TIP3    H240402   3.818   7.131   1.778
13487TIP3   OH240403   7.011   5.003   4.052
13487TIP3    H140404   7.028   5.057   3.975
13487TIP3    H240405   7.013   4.913   4.019
13488TIP3   OH240406   7.375   5.313   0.073
13488TIP3    H140407   7.317   5.372   0.025
13488TIP3    H240408   7.316   5.266   0.133
13489TIP3   OH240409   3.018   6.980   4.928
13489TIP3    H140410   2.954   6.914   4.902
13489TIP3    H240411   2.966   7.056   4.951
13490TIP3   OH240412   7.787   7.564   1.308
13490TIP3    H140413   7.712   7.507   1.288
13490TIP3    H240414   7.754   7.653   1.292
13491TIP3   OH240415   3.257   4.019   3.346
13491TIP3    H140416   3.270   4.047   3.256
13491TIP3    H240417   3.205   3.939   3.339
13492TIP3   OH240418   7.061   2.834   6.611
13492TIP3    H140419   7.135   2.798   6.563
13492TIP3    H240420   6.984   2.795   6.571
13493TIP3   OH240421   2.725   0.589   3.853
13493TIP3    H140422   2.776   0.664   3.824
13493TIP3    H240423   2.643   0.627   3.884
13494TIP3   OH240424   4.055   6.120   5.160
13494TIP3    H140425   4.022   6.132   5.249
13494TIP3    H240426   4.138   6.168   5.159
13495TIP3   OH240427   6.446   6.507   5.490
13495TIP3    H140428   6.380   6.562   5.447
13495TIP3    H240429   6.526   6.558   5.488
13496TIP3   OH240430   5.347   3.522   1.384
13496TIP3    H140431   5.425   3.567   1.419
13496TIP3    H240432   5.283   3.527   1.455
13497TIP3   OH240433   4.085   4.395   2.528
13497TIP3    H140434   4.179   4.416   2.527
13497TIP3    H240435   4.081   4.302   2.505
13498TIP3   OH240436   2.146   0.956   3.684
13498TIP3    H140437   2.057   0.989   3.689
13498TIP3    H240438   2.158   0.905   3.764
13499TIP3   OH240439   6.631   3.726   2.822
13499TIP3    H140440   6.559   3.678   2.781
13499TIP3    H240441   6.593   3.811   2.844
13500TIP3   OH240442   3.757   0.488   1.788
13500TIP3    H140443   3.700   0.480   1.712
13500TIP3    H240444   3.714   0.555   1.842
13501TIP3   OH240445   4.336   3.422   4.011
13501TIP3    H140446   4.310   3.344   3.962
13501TIP3    H240447   4.429   3.432   3.992
13502TIP3   OH240448   6.868   0.820   2.200
13502TIP3    H140449   6.866   0.906   2.243
13502TIP3    H240450   6.779   0.785   2.212
13503TIP3   OH240451   1.536   2.225   1.097
13503TIP3    H140452   1.521   2.311   1.135
13503TIP3    H240453   1.481   2.223   1.018
13504TIP3   OH240454   1.049   5.254   2.558
13504TIP3    H140455   1.046   5.245   2.463
13504TIP3    H240456   1.123   5.199   2.585
13505TIP3   OH240457   7.151   5.507   3.890
13505TIP3    H140458   7.219   5.573   3.884
13505TIP3    H240459   7.128   5.487   3.799
13506TIP3   OH240460   3.529   5.329   4.149
13506TIP3    H140461   3.453   5.280   4.179
13506TIP3    H240462   3.497   5.379   4.074
13507TIP3   OH240463   6.002   7.540   0.624
13507TIP3    H140464   6.011   7.454   0.582
13507TIP3    H240465   5.911   7.542   0.653
13508TIP3   OH240466   1.974   1.942   2.818
13508TIP3    H140467   1.950   1.929   2.726
13508TIP3    H240468   2.048   1.884   2.832
13509TIP3   OH240469   0.647   7.083   4.400
13509TIP3    H140470   0.739   7.102   4.384
13509TIP3    H240471   0.609   7.070   4.314
13510TIP3   OH240472   6.219   5.501   5.264
13510TIP3    H140473   6.255   5.412   5.263
13510TIP3    H240474   6.238   5.533   5.352
13511TIP3   OH240475   4.054   6.434   1.660
13511TIP3    H140476   4.098   6.487   1.726
13511TIP3    H240477   3.965   6.470   1.655
13512TIP3   OH240478   2.256   2.266   5.397
13512TIP3    H140479   2.332   2.228   5.354
13512TIP3    H240480   2.227   2.336   5.338
13513TIP3   OH240481   3.516   3.094   2.462
13513TIP3    H140482   3.599   3.130   2.493
13513TIP3    H240483   3.475   3.165   2.413
13514TIP3   OH240484   4.397   7.517   2.338
13514TIP3    H140485   4.485   7.480   2.349
13514TIP3    H240486   4.401   7.602   2.383
13515TIP3   OH240487   7.956   6.021   4.622
13515TIP3    H140488   7.935   6.067   4.540
13515TIP3    H240489   8.037   5.974   4.603
13516TIP3   OH240490   0.096   7.342   4.892
13516TIP3    H140491   0.150   7.353   4.970
13516TIP3    H240492   0.075   7.431   4.864
13517TIP3   OH240493   2.662   0.997   4.272
13517TIP3    H140494   2.726   0.968   4.337
13517TIP3    H240495   2.583   1.014   4.322
13518TIP3   OH240496   2.520   6.325   2.406
13518TIP3    H140497   2.483   6.319   2.494
13518TIP3    H240498   2.600   6.271   2.410
13519TIP3   OH240499   5.969   5.492   3.634
13519TIP3    H140500   5.891   5.540   3.660
13519TIP3    H240501   5.972   5.416   3.692
13520TIP3   OH240502   3.631   1.075   2.487
13520TIP3    H140503   3.592   1.094   2.572
13520TIP3    H240504   3.675   0.991   2.499
13521TIP3   OH240505   2.268   5.916   4.923
13521TIP3    H140506   2.214   5.988   4.891
13521TIP3    H240507   2.273   5.855   4.850
13522TIP3   OH240508   2.046   3.900   2.342
13522TIP3    H140509   1.957   3.920   2.371
13522TIP3    H240510   2.101   3.960   2.393
13523TIP3   OH240511   6.974   1.682   1.710
13523TIP3    H140512   6.970   1.635   1.627
13523TIP3    H240513   6.942   1.620   1.775
13524TIP3   OH240514   5.932   2.710   6.043
13524TIP3    H140515   5.965   2.759   6.118
13524TIP3    H240516   5.877   2.642   6.081
13525TIP3   OH240517   2.252   4.121   2.767
13525TIP3    H140518   2.259   4.209   2.731
13525TIP3    H240519   2.263   4.133   2.862
13526TIP3   OH240520   6.341   3.989   1.672
13526TIP3    H140521   6.356   4.008   1.580
13526TIP3    H240522   6.261   3.936   1.674
13527TIP3   OH240523   3.764   5.675   3.962
13527TIP3    H140524   3.743   5.624   4.040
13527TIP3    H240525   3.833   5.736   3.990
13528TIP3   OH240526   8.107   4.411   6.213
13528TIP3    H140527   8.078   4.430   6.124
13528TIP3    H240528   8.027   4.387   6.260
13529TIP3   OH240529   2.612   1.478   6.193
13529TIP3    H140530   2.598   1.391   6.231
13529TIP3    H240531   2.695   1.506   6.231
13530TIP3   OH240532   1.044   3.380   4.479
13530TIP3    H140533   1.035   3.421   4.393
13530TIP3    H240534   1.007   3.444   4.540
13531TIP3   OH240535   7.831   3.004   2.373
13531TIP3    H140536   7.893   2.972   2.308
13531TIP3    H240537   7.866   3.089   2.400
13532TIP3   OH240538   7.834   6.949   5.749
13532TIP3    H140539   7.865   7.034   5.780
13532TIP3    H240540   7.747   6.966   5.714
13533TIP3   OH240541   1.182   1.178   5.083
13533TIP3    H140542   1.138   1.227   5.013
13533TIP3    H240543   1.234   1.245   5.129
13534TIP3   OH240544   2.255   3.112   4.051
13534TIP3    H140545   2.306   3.034   4.074
13534TIP3    H240546   2.249   3.110   3.956
13535TIP3   OH240547   0.642   3.612   6.112
13535TIP3    H140548   0.734   3.615   6.140
13535TIP3    H240549   0.611   3.702   6.122
13536TIP3   OH240550   3.104   3.391   2.515
13536TIP3    H140551   3.120   3.299   2.494
13536TIP3    H240552   3.092   3.434   2.430
13537TIP3   OH240553   0.589   0.291   1.953
13537TIP3    H140554   0.497   0.266   1.939
13537TIP3    H240555   0.634   0.208   1.968
13538TIP3   OH240556   5.956   0.040   6.070
13538TIP3    H140557   5.980  -0.044   6.033
13538TIP3    H240558   5.867   0.057   6.039
13539TIP3   OH240559   8.094   6.562   0.815
13539TIP3    H140560   8.111   6.642   0.765
13539TIP3    H240561   8.179   6.538   0.852
13540TIP3   OH240562   8.197   0.478   0.651
13540TIP3    H140563   8.112   0.514   0.626
13540TIP3    H240564   8.217   0.414   0.582
13541TIP3   OH240565   3.645   5.292   0.506
13541TIP3    H140566   3.697   5.212   0.516
13541TIP3    H240567   3.558   5.268   0.536
13542TIP3   OH240568   2.712   2.222   3.421
13542TIP3    H140569   2.656   2.281   3.472
13542TIP3    H240570   2.756   2.280   3.358
13543TIP3   OH240571   1.428   2.469   6.211
13543TIP3    H140572   1.337   2.451   6.236
13543TIP3    H240573   1.466   2.509   6.289
13544TIP3   OH240574   8.076   4.566   0.948
13544TIP3    H140575   8.036   4.519   1.021
13544TIP3    H240576   8.005   4.616   0.909
13545TIP3   OH240577   5.327   1.809   4.066
13545TIP3    H140578   5.396   1.872   4.089
13545TIP3    H240579   5.368   1.753   3.999
13546TIP3   OH240580   1.286   6.896   3.935
13546TIP3    H140581   1.257   6.813   3.973
13546TIP3    H240582   1.371   6.877   3.896
13547TIP3   OH240583   2.014   7.646   4.093
13547TIP3    H140584   1.964   7.679   4.018
13547TIP3    H240585   2.039   7.557   4.068
13548TIP3   OH240586   2.347   5.439   2.168
13548TIP3    H140587   2.347   5.531   2.194
13548TIP3    H240588   2.261   5.425   2.130
13549TIP3   OH240589   8.204   2.441   5.759
13549TIP3    H140590   8.200   2.347   5.744
13549TIP3    H240591   8.112   2.470   5.755
13550TIP3   OH240592   3.481  -0.017   3.012
13550TIP3    H140593   3.532  -0.005   3.092
13550TIP3    H240594   3.458   0.071   2.985
13551TIP3   OH240595   3.170   2.623   6.624
13551TIP3    H140596   3.234   2.615   6.553
13551TIP3    H240597   3.222   2.646   6.701
13552TIP3   OH240598   7.592   6.049   6.322
13552TIP3    H140599   7.546   6.057   6.405
13552TIP3    H240600   7.543   6.105   6.262
13553TIP3   OH240601   6.924   6.118   0.921
13553TIP3    H140602   6.948   6.147   1.009
13553TIP3    H240603   6.836   6.151   0.908
13554TIP3   OH240604   4.425   2.115   1.766
13554TIP3    H140605   4.366   2.138   1.694
13554TIP3    H240606   4.389   2.160   1.842
13555TIP3   OH240607   3.831   1.931   6.446
13555TIP3    H140608   3.746   1.961   6.480
13555TIP3    H240609   3.890   2.004   6.463
13556TIP3   OH240610   6.107   5.723   1.300
13556TIP3    H140611   6.104   5.790   1.368
13556TIP3    H240612   6.193   5.682   1.310
13557TIP3   OH240613   0.912   2.473   5.829
13557TIP3    H140614   0.895   2.438   5.741
13557TIP3    H240615   0.832   2.519   5.852
13558TIP3   OH240616   0.260   6.970   3.488
13558TIP3    H140617   0.210   7.050   3.508
13558TIP3    H240618   0.303   6.989   3.405
13559TIP3   OH240619   6.642   4.744   1.815
13559TIP3    H140620   6.639   4.837   1.796
13559TIP3    H240621   6.609   4.702   1.735
13560TIP3   OH240622   1.412   1.255   3.064
13560TIP3    H140623   1.369   1.301   3.136
13560TIP3    H240624   1.381   1.299   2.985
13561TIP3   OH240625   3.158   1.589   0.909
13561TIP3    H140626   3.211   1.514   0.884
13561TIP3    H240627   3.078   1.551   0.944
13562TIP3   OH240628   1.098   6.636   3.650
13562TIP3    H140629   1.101   6.731   3.656
13562TIP3    H240630   1.052   6.618   3.568
13563TIP3   OH240631   4.676   6.878   5.247
13563TIP3    H140632   4.694   6.800   5.299
13563TIP3    H240633   4.763   6.911   5.222
13564TIP3   OH240634   4.786   7.741   2.768
13564TIP3    H140635   4.810   7.830   2.796
13564TIP3    H240636   4.849   7.684   2.814
13565TIP3   OH240637   4.013   5.471   3.010
13565TIP3    H140638   3.997   5.434   2.923
13565TIP3    H240639   4.006   5.566   2.998
13566TIP3   OH240640   4.873   1.667   0.472
13566TIP3    H140641   4.791   1.648   0.517
13566TIP3    H240642   4.864   1.759   0.444
13567TIP3   OH240643   7.041   1.956   3.851
13567TIP3    H140644   7.106   1.986   3.787
13567TIP3    H240645   6.994   2.035   3.876
13568TIP3   OH240646   4.869   3.830   3.307
13568TIP3    H140647   4.775   3.815   3.321
13568TIP3    H240648   4.896   3.885   3.381
13569TIP3   OH240649   4.840   6.637   5.107
13569TIP3    H140650   4.799   6.624   5.021
13569TIP3    H240651   4.768   6.629   5.169
13570TIP3   OH240652   4.286   5.013   6.575
13570TIP3    H140653   4.357   4.951   6.562
13570TIP3    H240654   4.298   5.046   6.664
13571TIP3   OH240655   0.766   6.590   6.303
13571TIP3    H140656   0.855   6.623   6.299
13571TIP3    H240657   0.756   6.537   6.224
13572TIP3   OH240658   3.051   5.888   1.958
13572TIP3    H140659   3.098   5.912   1.878
13572TIP3    H240660   3.106   5.923   2.029
13573TIP3   OH240661   1.902   4.676   2.079
13573TIP3    H140662   1.982   4.637   2.043
13573TIP3    H240663   1.831   4.619   2.050
13574TIP3   OH240664   2.175   1.443   4.495
13574TIP3    H140665   2.217   1.396   4.568
13574TIP3    H240666   2.089   1.401   4.486
13575TIP3   OH240667   2.539   3.515   3.384
13575TIP3    H140668   2.463   3.473   3.342
13575TIP3    H240669   2.543   3.602   3.345
13576TIP3   OH240670   7.344   0.905   3.433
13576TIP3    H140671   7.432   0.904   3.396
13576TIP3    H240672   7.297   0.838   3.385
13577TIP3   OH240673   1.181   2.172   3.312
13577TIP3    H140674   1.194   2.210   3.399
13577TIP3    H240675   1.147   2.243   3.259
13578TIP3   OH240676   2.315   6.904   2.184
13578TIP3    H140677   2.259   6.982   2.185
13578TIP3    H240678   2.394   6.931   2.231
13579TIP3   OH240679   3.602   1.180   2.063
13579TIP3    H140680   3.668   1.123   2.101
13579TIP3    H240681   3.558   1.219   2.138
13580TIP3   OH240682   4.166   6.529   1.897
13580TIP3    H140683   4.160   6.478   1.978
13580TIP3    H240684   4.124   6.613   1.918
13581TIP3   OH240685   8.250   2.835   0.727
13581TIP3    H140686   8.188   2.789   0.783
13581TIP3    H240687   8.250   2.785   0.645
13582TIP3   OH240688   4.608   4.513   1.344
13582TIP3    H140689   4.674   4.578   1.320
13582TIP3    H240690   4.527   4.545   1.303
13583TIP3   OH240691   6.360   6.137   2.351
13583TIP3    H140692   6.304   6.089   2.412
13583TIP3    H240693   6.302   6.205   2.314
13584TIP3   OH240694   6.636   6.612   6.171
13584TIP3    H140695   6.633   6.548   6.242
13584TIP3    H240696   6.544   6.626   6.147
13585TIP3   OH240697   5.949   0.193   4.400
13585TIP3    H140698   5.960   0.110   4.445
13585TIP3    H240699   6.018   0.195   4.334
13586TIP3   OH240700   7.529   7.149   6.525
13586TIP3    H140701   7.485   7.134   6.441
13586TIP3    H240702   7.458   7.149   6.589
13587TIP3   OH240703   3.697   4.891   6.051
13587TIP3    H140704   3.781   4.914   6.010
13587TIP3    H240705   3.667   4.972   6.092
13588TIP3   OH240706   3.886   0.907   6.267
13588TIP3    H140707   3.856   0.821   6.295
13588TIP3    H240708   3.967   0.922   6.316
13589TIP3   OH240709   4.979   5.977   2.274
13589TIP3    H140710   4.991   5.891   2.315
13589TIP3    H240711   4.938   6.030   2.342
13590TIP3   OH240712   3.565   0.501   3.910
13590TIP3    H140713   3.514   0.445   3.851
13590TIP3    H240714   3.570   0.451   3.992
13591TIP3   OH240715   2.132   6.373   5.819
13591TIP3    H140716   2.199   6.441   5.809
13591TIP3    H240717   2.150   6.311   5.747
13592TIP3   OH240718   3.575   3.086   5.790
13592TIP3    H140719   3.496   3.037   5.768
13592TIP3    H240720   3.638   3.019   5.817
13593TIP3   OH240721   3.889   3.128   1.180
13593TIP3    H140722   3.930   3.208   1.213
13593TIP3    H240723   3.910   3.127   1.087
13594TIP3   OH240724   2.575   4.229   5.849
13594TIP3    H140725   2.556   4.194   5.936
13594TIP3    H240726   2.492   4.267   5.820
13595TIP3   OH240727   6.558   2.539   0.815
13595TIP3    H140728   6.563   2.445   0.830
13595TIP3    H240729   6.485   2.550   0.754
13596TIP3   OH240730   2.802   5.989   0.193
13596TIP3    H140731   2.873   5.986   0.258
13596TIP3    H240732   2.735   5.931   0.227
13597TIP3   OH240733   2.961   6.996   6.144
13597TIP3    H140734   2.873   6.984   6.180
13597TIP3    H240735   2.950   6.989   6.049
13598TIP3   OH240736   4.867   7.149   3.968
13598TIP3    H140737   4.810   7.085   3.925
13598TIP3    H240738   4.809   7.222   3.988
13599TIP3   OH240739   3.506   2.566   2.961
13599TIP3    H140740   3.417   2.555   2.927
13599TIP3    H240741   3.523   2.660   2.955
13600TIP3   OH240742   6.692   7.367   6.322
13600TIP3    H140743   6.627   7.435   6.338
13600TIP3    H240744   6.648   7.286   6.349
13601TIP3   OH240745   4.950   5.411   1.621
13601TIP3    H140746   4.894   5.486   1.602
13601TIP3    H240747   4.893   5.351   1.669
13602TIP3   OH240748   2.660   0.782   5.486
13602TIP3    H140749   2.640   0.696   5.524
13602TIP3    H240750   2.593   0.794   5.418
13603TIP3   OH240751   0.681   5.755   0.251
13603TIP3    H140752   0.758   5.807   0.230
13603TIP3    H240753   0.679   5.687   0.183
13604TIP3   OH240754   2.712   3.565   5.317
13604TIP3    H140755   2.744   3.645   5.276
13604TIP3    H240756   2.781   3.500   5.303
13605TIP3   OH240757   0.593   1.899   3.020
13605TIP3    H140758   0.670   1.860   2.979
13605TIP3    H240759   0.561   1.831   3.079
13606TIP3   OH240760   4.314   7.640   3.017
13606TIP3    H140761   4.237   7.690   3.045
13606TIP3    H240762   4.295   7.550   3.044
13607TIP3   OH240763   1.402   7.674   6.049
13607TIP3    H140764   1.451   7.756   6.054
13607TIP3    H240765   1.323   7.690   6.100
13608TIP3   OH240766   5.487   6.371   0.557
13608TIP3    H140767   5.567   6.342   0.513
13608TIP3    H240768   5.497   6.341   0.647
13609TIP3   OH240769   4.475   0.270   5.580
13609TIP3    H140770   4.565   0.296   5.562
13609TIP3    H240771   4.465   0.278   5.675
13610TIP3   OH240772   7.339   4.118   1.001
13610TIP3    H140773   7.345   4.026   0.976
13610TIP3    H240774   7.249   4.143   0.982
13611TIP3   OH240775   6.053   2.062   0.879
13611TIP3    H140776   6.035   2.129   0.813
13611TIP3    H240777   6.060   2.111   0.961
13612TIP3   OH240778   5.188   6.203   4.509
13612TIP3    H140779   5.237   6.276   4.546
13612TIP3    H240780   5.105   6.242   4.481
13613TIP3   OH240781   5.024   5.550   4.092
13613TIP3    H140782   5.037   5.632   4.140
13613TIP3    H240783   5.110   5.531   4.054
13614TIP3   OH240784   1.282   1.319   5.805
13614TIP3    H140785   1.277   1.415   5.799
13614TIP3    H240786   1.210   1.295   5.864
13615TIP3   OH240787   2.106   0.313   6.655
13615TIP3    H140788   2.156   0.371   6.713
13615TIP3    H240789   2.168   0.290   6.585
13616TIP3   OH240790   4.384   4.572   2.314
13616TIP3    H140791   4.386   4.654   2.363
13616TIP3    H240792   4.423   4.508   2.374
13617TIP3   OH240793   7.343   1.450   2.982
13617TIP3    H140794   7.374   1.429   3.069
13617TIP3    H240795   7.423   1.467   2.931
13618TIP3   OH240796   2.753   2.469   6.058
13618TIP3    H140797   2.758   2.445   5.966
13618TIP3    H240798   2.659   2.472   6.077
13619TIP3   OH240799   1.321   5.491   2.473
13619TIP3    H140800   1.314   5.397   2.484
13619TIP3    H240801   1.247   5.527   2.523
13620TIP3   OH240802   5.758   0.969   6.697
13620TIP3    H140803   5.727   1.030   6.764
13620TIP3    H240804   5.769   1.022   6.618
13621TIP3   OH240805   0.294   1.013   6.056
13621TIP3    H140806   0.341   1.024   6.139
13621TIP3    H240807   0.202   1.030   6.079
13622TIP3   OH240808   1.201   4.476   4.437
13622TIP3    H140809   1.150   4.528   4.375
13622TIP3    H240810   1.177   4.512   4.523
13623TIP3   OH240811   0.606   0.168   3.628
13623TIP3    H140812   0.622   0.262   3.620
13623TIP3    H240813   0.581   0.156   3.719
13624TIP3   OH240814   7.775   2.386   1.434
13624TIP3    H140815   7.685   2.356   1.442
13624TIP3    H240816   7.811   2.378   1.523
13625TIP3   OH240817   4.830   1.784   3.831
13625TIP3    H140818   4.787   1.783   3.746
13625TIP3    H240819   4.784   1.718   3.883
13626TIP3   OH240820   1.411   7.190   6.003
13626TIP3    H140821   1.399   7.102   5.967
13626TIP3    H240822   1.359   7.247   5.946
13627TIP3   OH240823   7.015   0.623   5.171
13627TIP3    H140824   6.998   0.704   5.219
13627TIP3    H240825   7.094   0.643   5.119
13628TIP3   OH240826   0.564   5.694   1.093
13628TIP3    H140827   0.557   5.618   1.150
13628TIP3    H240828   0.522   5.765   1.143
13629TIP3   OH240829   7.608   0.218   1.561
13629TIP3    H140830   7.645   0.147   1.613
13629TIP3    H240831   7.683   0.265   1.526
13630TIP3   OH240832   6.397   3.486   0.330
13630TIP3    H140833   6.464   3.544   0.366
13630TIP3    H240834   6.372   3.430   0.403
13631TIP3   OH240835   2.570   6.951   1.157
13631TIP3    H140836   2.495   6.971   1.102
13631TIP3    H240837   2.631   6.904   1.100
13632TIP3   OH240838   6.753   3.482   3.591
13632TIP3    H140839   6.818   3.487   3.520
13632TIP3    H240840   6.694   3.556   3.574
13633TIP3   OH240841   5.325   4.811   3.495
13633TIP3    H140842   5.290   4.754   3.427
13633TIP3    H240843   5.341   4.753   3.569
13634TIP3   OH240844   7.169   3.365   1.272
13634TIP3    H140845   7.074   3.361   1.280
13634TIP3    H240846   7.202   3.346   1.360
13635TIP3   OH240847   0.982   0.842   2.847
13635TIP3    H140848   1.012   0.826   2.757
13635TIP3    H240849   1.030   0.921   2.873
13636TIP3   OH240850   3.941   2.314   0.669
13636TIP3    H140851   3.923   2.294   0.577
13636TIP3    H240852   4.019   2.262   0.690
13637TIP3   OH240853   1.584   2.253   0.673
13637TIP3    H140854   1.597   2.215   0.586
13637TIP3    H240855   1.655   2.217   0.726
13638TIP3   OH240856   7.940   2.887   1.253
13638TIP3    H140857   7.957   2.798   1.283
13638TIP3    H240858   7.854   2.883   1.212
13639TIP3   OH240859   1.522   7.371   2.356
13639TIP3    H140860   1.494   7.421   2.280
13639TIP3    H240861   1.467   7.292   2.354
13640TIP3   OH240862   8.053   4.190   1.625
13640TIP3    H140863   7.984   4.182   1.691
13640TIP3    H240864   8.113   4.118   1.646
13641TIP3   OH240865   1.327   1.685   1.752
13641TIP3    H140866   1.329   1.601   1.706
13641TIP3    H240867   1.360   1.665   1.839
13642TIP3   OH240868   1.999   0.977   3.004
13642TIP3    H140869   1.904   0.980   3.005
13642TIP3    H240870   2.026   1.058   3.047
13643TIP3   OH240871  -0.016   4.286   1.014
13643TIP3    H140872  -0.007   4.363   1.070
13643TIP3    H240873   0.054   4.295   0.949
13644TIP3   OH240874   6.708   0.924   4.662
13644TIP3    H140875   6.681   0.987   4.729
13644TIP3    H240876   6.708   0.974   4.580
13645TIP3   OH240877   0.765   1.358   0.980
13645TIP3    H140878   0.762   1.263   0.987
13645TIP3    H240879   0.748   1.390   1.069
13646TIP3   OH240880   5.614   5.139   6.282
13646TIP3    H140881   5.630   5.218   6.232
13646TIP3    H240882   5.608   5.169   6.373
13647TIP3   OH240883   5.680   2.482   3.753
13647TIP3    H140884   5.770   2.488   3.783
13647TIP3    H240885   5.628   2.518   3.824
13648TIP3   OH240886   6.418   3.655   5.703
13648TIP3    H140887   6.492   3.663   5.763
13648TIP3    H240888   6.458   3.651   5.616
13649TIP3   OH240889   1.155   5.231   1.548
13649TIP3    H140890   1.192   5.148   1.519
13649TIP3    H240891   1.061   5.222   1.531
13650TIP3   OH240892   1.086   1.590   1.469
13650TIP3    H140893   1.105   1.505   1.508
13650TIP3    H240894   1.062   1.646   1.543
13651TIP3   OH240895   0.563   7.543   5.039
13651TIP3    H140896   0.508   7.511   4.968
13651TIP3    H240897   0.543   7.636   5.044
13652TIP3   OH240898   0.290   1.238   5.193
13652TIP3    H140899   0.381   1.252   5.219
13652TIP3    H240900   0.239   1.270   5.267
13653TIP3   OH240901   7.259   7.319   4.699
13653TIP3    H140902   7.346   7.282   4.683
13653TIP3    H240903   7.274   7.390   4.761
13654TIP3   OH240904   2.964   0.642   2.885
13654TIP3    H140905   3.048   0.688   2.885
13654TIP3    H240906   2.914   0.685   2.815
13655TIP3   OH240907   3.020   0.146   4.420
13655TIP3    H140908   2.936   0.184   4.393
13655TIP3    H240909   3.020   0.058   4.383
13656TIP3   OH240910   7.587   3.910   2.936
13656TIP3    H140911   7.513   3.906   2.996
13656TIP3    H240912   7.658   3.947   2.988
13657TIP3   OH240913   4.999   0.323   0.337
13657TIP3    H140914   5.093   0.315   0.326
13657TIP3    H240915   4.989   0.386   0.409
13658TIP3   OH240916   7.629   3.302   4.033
13658TIP3    H140917   7.660   3.319   3.944
13658TIP3    H240918   7.685   3.231   4.065
13659TIP3   OH240919   7.461   0.605   0.586
13659TIP3    H140920   7.422   0.518   0.592
13659TIP3    H240921   7.435   0.638   0.500
13660TIP3   OH240922   2.959   2.107   6.011
13660TIP3    H140923   2.958   2.203   6.016
13660TIP3    H240924   3.051   2.084   6.025
13661TIP3   OH240925   0.124   5.746   4.848
13661TIP3    H140926   0.213   5.737   4.883
13661TIP3    H240927   0.096   5.833   4.877
13662TIP3   OH240928   3.395   5.506   4.740
13662TIP3    H140929   3.400   5.531   4.832
13662TIP3    H240930   3.484   5.516   4.707
13663TIP3   OH240931   3.711   7.460   4.608
13663TIP3    H140932   3.700   7.498   4.521
13663TIP3    H240933   3.797   7.489   4.636
13664TIP3   OH240934   6.896   1.229   3.062
13664TIP3    H140935   6.964   1.297   3.067
13664TIP3    H240936   6.911   1.174   3.139
13665TIP3   OH240937   8.232   2.212   1.480
13665TIP3    H140938   8.237   2.120   1.454
13665TIP3    H240939   8.258   2.261   1.402
13666TIP3   OH240940   3.934   6.979   0.693
13666TIP3    H140941   3.890   6.895   0.701
13666TIP3    H240942   3.948   6.991   0.599
13667TIP3   OH240943   6.792   6.209   5.917
13667TIP3    H140944   6.744   6.130   5.939
13667TIP3    H240945   6.726   6.279   5.924
13668TIP3   OH240946   4.986   5.932   5.286
13668TIP3    H140947   5.018   6.017   5.255
13668TIP3    H240948   4.957   5.950   5.376
13669TIP3   OH240949   8.018   3.917   4.732
13669TIP3    H140950   8.049   3.952   4.648
13669TIP3    H240951   7.925   3.902   4.718
13670TIP3   OH240952   2.490   0.921   3.678
13670TIP3    H140953   2.431   0.996   3.692
13670TIP3    H240954   2.578   0.959   3.679
13671TIP3   OH240955   5.097   1.201   6.022
13671TIP3    H140956   5.028   1.178   6.084
13671TIP3    H240957   5.140   1.117   6.001
13672TIP3   OH240958   1.835   4.395   1.081
13672TIP3    H140959   1.904   4.462   1.078
13672TIP3    H240960   1.880   4.313   1.059
13673TIP3   OH240961   7.036   2.724   3.613
13673TIP3    H140962   7.015   2.806   3.658
13673TIP3    H240963   7.012   2.655   3.674
13674TIP3   OH240964   2.491   5.191   6.390
13674TIP3    H140965   2.477   5.182   6.295
13674TIP3    H240966   2.431   5.127   6.429
13675TIP3   OH240967   2.966   3.518   6.145
13675TIP3    H140968   2.969   3.452   6.214
13675TIP3    H240969   2.873   3.536   6.133
13676TIP3   OH240970   0.018   2.830   3.195
13676TIP3    H140971   0.049   2.765   3.258
13676TIP3    H240972   0.004   2.909   3.247
13677TIP3   OH240973   5.076   2.812   5.319
13677TIP3    H140974   5.046   2.852   5.238
13677TIP3    H240975   5.030   2.728   5.323
13678TIP3   OH240976   2.392   1.261   5.405
13678TIP3    H140977   2.441   1.261   5.323
13678TIP3    H240978   2.455   1.290   5.472
13679TIP3   OH240979   5.391   2.660   2.055
13679TIP3    H140980   5.428   2.648   1.968
13679TIP3    H240981   5.437   2.737   2.090
13680TIP3   OH240982   3.889   0.484   6.718
13680TIP3    H140983   3.884   0.557   6.780
13680TIP3    H240984   3.944   0.518   6.647
13681TIP3   OH240985   7.147   5.340   6.593
13681TIP3    H140986   7.237   5.338   6.626
13681TIP3    H240987   7.112   5.254   6.614
13682TIP3   OH240988   7.521   7.475   0.107
13682TIP3    H140989   7.538   7.392   0.063
13682TIP3    H240990   7.576   7.472   0.185
13683TIP3   OH240991   8.302   0.896   4.641
13683TIP3    H140992   8.209   0.917   4.640
13683TIP3    H240993   8.306   0.809   4.680
13684TIP3   OH240994   0.219   6.280   6.072
13684TIP3    H140995   0.277   6.214   6.111
13684TIP3    H240996   0.133   6.236   6.068
13685TIP3   OH240997   8.026   7.292   0.954
13685TIP3    H140998   7.999   7.201   0.958
13685TIP3    H240999   7.944   7.342   0.956
13686TIP3   OH241000   3.217   5.469   5.506
13686TIP3    H141001   3.224   5.376   5.485
13686TIP3    H241002   3.273   5.513   5.442
13687TIP3   OH241003   1.821   2.774   3.622
13687TIP3    H141004   1.777   2.692   3.601
13687TIP3    H241005   1.909   2.747   3.650
13688TIP3   OH241006   3.658   3.295   5.564
13688TIP3    H141007   3.588   3.230   5.559
13688TIP3    H241008   3.732   3.248   5.604
13689TIP3   OH241009   0.556   5.364   2.576
13689TIP3    H141010   0.633   5.373   2.520
13689TIP3    H241011   0.589   5.323   2.656
13690TIP3   OH241012   0.951   4.008   3.524
13690TIP3    H141013   1.000   4.043   3.598
13690TIP3    H241014   0.867   4.054   3.525
13691TIP3   OH241015   4.458   7.786   2.427
13691TIP3    H141016   4.464   7.844   2.351
13691TIP3    H241017   4.544   7.790   2.468
13692TIP3   OH241018   6.425   1.809   1.919
13692TIP3    H141019   6.400   1.727   1.877
13692TIP3    H241020   6.520   1.807   1.924
13693TIP3   OH241021   7.442   4.685   3.498
13693TIP3    H141022   7.446   4.604   3.446
13693TIP3    H241023   7.360   4.726   3.473
13694TIP3   OH241024   0.772   0.516   5.633
13694TIP3    H141025   0.835   0.529   5.562
13694TIP3    H241026   0.701   0.577   5.613
13695TIP3   OH241027   7.126   2.482   1.943
13695TIP3    H141028   7.136   2.398   1.899
13695TIP3    H241029   7.114   2.460   2.035
13696TIP3   OH241030   0.051   5.464   4.884
13696TIP3    H141031   0.142   5.441   4.862
13696TIP3    H241032   0.044   5.557   4.863
13697TIP3   OH241033   3.289   4.593   1.583
13697TIP3    H141034   3.245   4.556   1.506
13697TIP3    H241035   3.347   4.660   1.548
13698TIP3   OH241036   5.627   2.197   3.685
13698TIP3    H141037   5.623   2.284   3.724
13698TIP3    H241038   5.566   2.144   3.737
13699TIP3   OH241039   5.358   5.048   4.436
13699TIP3    H141040   5.268   5.019   4.422
13699TIP3    H241041   5.363   5.067   4.530
13700TIP3   OH241042   3.891   2.599   2.914
13700TIP3    H141043   3.887   2.514   2.870
13700TIP3    H241044   3.852   2.582   3.000
13701TIP3   OH241045   0.948   0.323   0.937
13701TIP3    H141046   0.905   0.361   1.014
13701TIP3    H241047   1.009   0.390   0.907
13702TIP3   OH241048   3.408   3.926   3.753
13702TIP3    H141049   3.495   3.965   3.747
13702TIP3    H241050   3.400   3.899   3.844
13703TIP3   OH241051   4.885   0.692   5.259
13703TIP3    H141052   4.911   0.783   5.271
13703TIP3    H241053   4.964   0.642   5.281
13704TIP3   OH241054   0.157   4.038   2.722
13704TIP3    H141055   0.244   4.073   2.743
13704TIP3    H241056   0.174   3.949   2.693
13705TIP3   OH241057   2.515   7.646   0.826
13705TIP3    H141058   2.533   7.574   0.886
13705TIP3    H241059   2.497   7.604   0.742
13706TIP3   OH241060   5.852   6.515   3.618
13706TIP3    H141061   5.868   6.424   3.642
13706TIP3    H241062   5.869   6.565   3.698
13707TIP3   OH241063   6.847   6.646   4.776
13707TIP3    H141064   6.847   6.586   4.850
13707TIP3    H241065   6.888   6.726   4.810
13708TIP3   OH241066   8.152   4.833   6.192
13708TIP3    H141067   8.243   4.837   6.221
13708TIP3    H241068   8.116   4.919   6.214
13709TIP3   OH241069   2.674   7.433   2.087
13709TIP3    H141070   2.688   7.476   2.003
13709TIP3    H241071   2.661   7.505   2.149
13710TIP3   OH241072   0.676   0.666   3.883
13710TIP3    H141073   0.691   0.741   3.940
13710TIP3    H241074   0.653   0.704   3.798
13711TIP3   OH241075   4.555   0.523   5.083
13711TIP3    H141076   4.645   0.492   5.094
13711TIP3    H241077   4.540   0.578   5.160
13712TIP3   OH241078   5.117   3.797   3.250
13712TIP3    H141079   5.137   3.742   3.175
13712TIP3    H241080   5.022   3.811   3.245
13713TIP3   OH241081   4.326   0.143   6.464
13713TIP3    H141082   4.371   0.142   6.549
13713TIP3    H241083   4.237   0.114   6.485
13714TIP3   OH241084   7.677   6.707   2.461
13714TIP3    H141085   7.591   6.677   2.429
13714TIP3    H241086   7.709   6.764   2.391
13715TIP3   OH241087   3.455   3.324   1.903
13715TIP3    H141088   3.461   3.399   1.962
13715TIP3    H241089   3.518   3.261   1.938
13716TIP3   OH241090   4.463   2.449   2.759
13716TIP3    H141091   4.512   2.531   2.754
13716TIP3    H241092   4.521   2.388   2.804
13717TIP3   OH241093   2.024   3.748   5.921
13717TIP3    H141094   2.097   3.795   5.882
13717TIP3    H241095   1.947   3.802   5.901
13718TIP3   OH241096   3.282   1.237   3.449
13718TIP3    H141097   3.238   1.322   3.441
13718TIP3    H241098   3.223   1.175   3.406
13719TIP3   OH241099   1.545   0.754   4.269
13719TIP3    H141100   1.603   0.811   4.319
13719TIP3    H241101   1.457   0.785   4.290
13720TIP3   OH241102   0.551   2.393   2.271
13720TIP3    H141103   0.513   2.375   2.357
13720TIP3    H241104   0.494   2.460   2.233
13721TIP3   OH241105   7.551   6.399   2.185
13721TIP3    H141106   7.550   6.484   2.230
13721TIP3    H241107   7.478   6.404   2.123
13722TIP3   OH241108   4.124   6.567   2.816
13722TIP3    H141109   4.107   6.584   2.724
13722TIP3    H241110   4.202   6.513   2.817
13723TIP3   OH241111   1.789   7.738   0.231
13723TIP3    H141112   1.785   7.662   0.288
13723TIP3    H241113   1.859   7.718   0.169
13724TIP3   OH241114   3.907   7.135   0.029
13724TIP3    H141115   3.872   7.154  -0.058
13724TIP3    H241116   3.873   7.206   0.084
13725TIP3   OH241117   5.261   1.512   5.525
13725TIP3    H141118   5.207   1.591   5.523
13725TIP3    H241119   5.212   1.451   5.580
13726TIP3   OH241120   0.822   7.363   3.874
13726TIP3    H141121   0.757   7.425   3.842
13726TIP3    H241122   0.871   7.411   3.941
13727TIP3   OH241123   3.040   7.460   4.481
13727TIP3    H141124   2.985   7.518   4.534
13727TIP3    H241125   3.130   7.481   4.507
13728TIP3   OH241126   7.196   3.081   3.435
13728TIP3    H141127   7.102   3.084   3.449
13728TIP3    H241128   7.224   3.173   3.432
13729TIP3   OH241129   4.535   7.310   6.287
13729TIP3    H141130   4.504   7.297   6.197
13729TIP3    H241131   4.616   7.259   6.290
13730TIP3   OH241132   4.167   3.531   4.590
13730TIP3    H141133   4.107   3.515   4.662
13730TIP3    H241134   4.254   3.513   4.626
13731TIP3   OH241135   3.160   0.045   0.917
13731TIP3    H141136   3.088   0.067   0.858
13731TIP3    H241137   3.123   0.054   1.004
13732TIP3   OH241138   2.790   4.356   4.243
13732TIP3    H141139   2.749   4.271   4.261
13732TIP3    H241140   2.880   4.334   4.217
13733TIP3   OH241141   2.657   7.430   1.322
13733TIP3    H141142   2.658   7.398   1.413
13733TIP3    H241143   2.742   7.402   1.286
13734TIP3   OH241144   5.193   3.852   5.792
13734TIP3    H141145   5.208   3.947   5.794
13734TIP3    H241146   5.236   3.822   5.712
13735TIP3   OH241147   1.477   2.804   0.696
13735TIP3    H141148   1.543   2.757   0.645
13735TIP3    H241149   1.439   2.738   0.754
13736TIP3   OH241150   8.141   3.550   1.408
13736TIP3    H141151   8.197   3.619   1.372
13736TIP3    H241152   8.090   3.518   1.333
13737TIP3   OH241153   4.830   3.373   4.170
13737TIP3    H141154   4.840   3.433   4.245
13737TIP3    H241155   4.887   3.300   4.190
13738TIP3   OH241156   0.453   1.456   4.496
13738TIP3    H141157   0.509   1.441   4.421
13738TIP3    H241158   0.405   1.537   4.475
13739TIP3   OH241159   3.693   7.684   0.594
13739TIP3    H141160   3.769   7.699   0.538
13739TIP3    H241161   3.727   7.692   0.683
13740TIP3   OH241162   3.839   1.946   0.548
13740TIP3    H141163   3.771   1.932   0.481
13740TIP3    H241164   3.829   1.873   0.608
13741TIP3   OH241165   5.558   3.617   6.130
13741TIP3    H141166   5.471   3.598   6.165
13741TIP3    H241167   5.543   3.636   6.037
13742TIP3   OH241168   0.015   2.449   4.884
13742TIP3    H141169  -0.016   2.424   4.797
13742TIP3    H241170  -0.041   2.521   4.911
13743TIP3   OH241171   2.173   1.779   0.508
13743TIP3    H141172   2.176   1.868   0.543
13743TIP3    H241173   2.137   1.789   0.420
13744TIP3   OH241174   1.959   7.037   0.504
13744TIP3    H141175   1.879   6.993   0.477
13744TIP3    H241176   1.997   6.980   0.571
13745TIP3   OH241177   7.285   7.637   5.878
13745TIP3    H141178   7.252   7.712   5.829
13745TIP3    H241179   7.224   7.627   5.951
13746TIP3   OH241180   3.217   4.258   1.416
13746TIP3    H141181   3.175   4.175   1.395
13746TIP3    H241182   3.211   4.309   1.335
13747TIP3   OH241183   0.630   3.322   0.760
13747TIP3    H141184   0.684   3.295   0.686
13747TIP3    H241185   0.565   3.381   0.723
13748TIP3   OH241186   4.389   4.772   5.772
13748TIP3    H141187   4.415   4.832   5.842
13748TIP3    H241188   4.391   4.685   5.813
13749TIP3   OH241189   1.743   2.312   0.158
13749TIP3    H141190   1.784   2.317   0.245
13749TIP3    H241191   1.761   2.223   0.128
13750TIP3   OH241192   1.604   5.940   5.544
13750TIP3    H141193   1.538   5.882   5.581
13750TIP3    H241194   1.561   6.025   5.540
13751TIP3   OH241195   7.148   0.410   6.120
13751TIP3    H141196   7.200   0.389   6.042
13751TIP3    H241197   7.206   0.465   6.173
13752TIP3   OH241198   3.436   6.738   3.442
13752TIP3    H141199   3.514   6.745   3.387
13752TIP3    H241200   3.469   6.740   3.532
13753TIP3   OH241201   7.181   1.869   4.423
13753TIP3    H141202   7.268   1.831   4.434
13753TIP3    H241203   7.126   1.796   4.396
13754TIP3   OH241204   8.049   1.975   4.758
13754TIP3    H141205   8.076   1.915   4.688
13754TIP3    H241206   7.968   2.015   4.725
13755TIP3   OH241207   1.613   4.242   5.554
13755TIP3    H141208   1.611   4.314   5.491
13755TIP3    H241209   1.534   4.254   5.607
13756TIP3   OH241210   8.004   7.623   0.147
13756TIP3    H141211   7.972   7.664   0.228
13756TIP3    H241212   8.049   7.544   0.176
13757TIP3   OH241213   2.044   4.619   0.797
13757TIP3    H141214   2.122   4.633   0.743
13757TIP3    H241215   2.027   4.525   0.791
13758TIP3   OH241216   4.687   0.848   3.796
13758TIP3    H141217   4.731   0.923   3.757
13758TIP3    H241218   4.758   0.788   3.818
13759TIP3   OH241219   3.786   5.969   6.657
13759TIP3    H141220   3.707   5.916   6.666
13759TIP3    H241221   3.844   5.937   6.726
13760TIP3   OH241222   3.601   2.169   5.711
13760TIP3    H141223   3.613   2.236   5.643
13760TIP3    H241224   3.647   2.092   5.677
13761TIP3   OH241225   6.973   7.704   5.372
13761TIP3    H141226   6.929   7.758   5.438
13761TIP3    H241227   7.064   7.735   5.373
13762TIP3   OH241228   5.166   1.464   0.248
13762TIP3    H141229   5.191   1.549   0.285
13762TIP3    H241230   5.104   1.427   0.311
13763TIP3   OH241231   2.205   0.985   5.387
13763TIP3    H141232   2.159   0.932   5.322
13763TIP3    H241233   2.186   1.076   5.361
13764TIP3   OH241234   3.313   5.834   0.246
13764TIP3    H141235   3.352   5.764   0.300
13764TIP3    H241236   3.220   5.830   0.266
13765TIP3   OH241237   0.209   3.486   1.325
13765TIP3    H141238   0.148   3.415   1.310
13765TIP3    H241239   0.158   3.565   1.306
13766TIP3   OH241240   0.925   6.004   0.953
13766TIP3    H141241   0.959   5.983   0.866
13766TIP3    H241242   0.842   6.049   0.937
13767TIP3   OH241243   3.881   2.296   3.771
13767TIP3    H141244   3.940   2.307   3.697
13767TIP3    H241245   3.794   2.305   3.734
13768TIP3   OH241246   4.707   6.010   3.426
13768TIP3    H141247   4.776   5.963   3.379
13768TIP3    H241248   4.749   6.039   3.507
13769TIP3   OH241249   2.356   3.168   4.872
13769TIP3    H141250   2.338   3.142   4.962
13769TIP3    H241251   2.446   3.139   4.856
13770TIP3   OH241252   7.125   0.704   0.832
13770TIP3    H141253   7.106   0.696   0.739
13770TIP3    H241254   7.074   0.780   0.860
13771TIP3   OH241255   1.146   3.403   2.794
13771TIP3    H141256   1.184   3.387   2.708
13771TIP3    H241257   1.151   3.319   2.839
13772TIP3   OH241258   3.089   7.499   0.647
13772TIP3    H141259   3.161   7.556   0.621
13772TIP3    H241260   3.020   7.518   0.583
13773TIP3   OH241261   6.782   2.697   5.467
13773TIP3    H141262   6.786   2.677   5.561
13773TIP3    H241263   6.817   2.619   5.424
13774TIP3   OH241264   7.480   0.022   6.191
13774TIP3    H141265   7.557   0.070   6.221
13774TIP3    H241266   7.427   0.008   6.270
13775TIP3   OH241267   4.443   0.577   1.492
13775TIP3    H141268   4.482   0.605   1.409
13775TIP3    H241269   4.452   0.654   1.549
13776TIP3   OH241270   8.112   4.148   0.256
13776TIP3    H141271   8.134   4.143   0.350
13776TIP3    H241272   8.061   4.069   0.239
13777TIP3   OH241273   3.458   6.992   0.755
13777TIP3    H141274   3.483   7.004   0.847
13777TIP3    H241275   3.474   6.900   0.738
13778TIP3   OH241276   2.465   1.431   4.883
13778TIP3    H141277   2.505   1.477   4.809
13778TIP3    H241278   2.471   1.338   4.859
13779TIP3   OH241279   5.787   1.409   3.844
13779TIP3    H141280   5.758   1.333   3.894
13779TIP3    H241281   5.836   1.461   3.907
13780TIP3   OH241282   3.520   0.312   5.124
13780TIP3    H141283   3.598   0.329   5.176
13780TIP3    H241284   3.484   0.399   5.106
13781TIP3   OH241285   7.637   7.270   2.159
13781TIP3    H141286   7.606   7.311   2.240
13781TIP3    H241287   7.581   7.194   2.147
13782TIP3   OH241288   6.105   5.108   5.444
13782TIP3    H141289   6.102   5.157   5.527
13782TIP3    H241290   6.013   5.099   5.419
13783TIP3   OH241291   0.436   6.520   2.179
13783TIP3    H141292   0.473   6.606   2.160
13783TIP3    H241293   0.512   6.466   2.200
13784TIP3   OH241294   6.102   3.072   2.423
13784TIP3    H141295   6.114   2.979   2.406
13784TIP3    H241296   6.189   3.110   2.412
13785TIP3   OH241297   7.527   7.436   2.341
13785TIP3    H141298   7.598   7.447   2.404
13785TIP3    H241299   7.495   7.525   2.325
13786TIP3   OH241300   1.135   5.680   0.343
13786TIP3    H141301   1.185   5.638   0.413
13786TIP3    H241302   1.084   5.610   0.304
13787TIP3   OH241303   4.768   7.509   4.164
13787TIP3    H141304   4.715   7.471   4.095
13787TIP3    H241305   4.705   7.537   4.230
13788TIP3   OH241306   2.359   2.039   0.803
13788TIP3    H141307   2.382   1.954   0.768
13788TIP3    H241308   2.398   2.041   0.890
13789TIP3   OH241309   5.328   4.090   0.722
13789TIP3    H141310   5.319   4.041   0.804
13789TIP3    H241311   5.250   4.144   0.718
13790TIP3   OH241312   5.091   4.335  -0.009
13790TIP3    H141313   5.158   4.385  -0.057
13790TIP3    H241314   5.140   4.287   0.058
13791TIP3   OH241315   4.326   0.991   1.060
13791TIP3    H141316   4.378   0.987   0.979
13791TIP3    H241317   4.235   0.987   1.030
13792TIP3   OH241318   8.091   0.020   2.354
13792TIP3    H141319   8.111   0.080   2.427
13792TIP3    H241320   8.089  -0.067   2.395
13793TIP3   OH241321   3.619   0.446   2.668
13793TIP3    H141322   3.641   0.354   2.682
13793TIP3    H241323   3.676   0.474   2.596
13794TIP3   OH241324   5.309   2.086   0.892
13794TIP3    H141325   5.350   2.097   0.978
13794TIP3    H241326   5.215   2.082   0.910
13795TIP3   OH241327   2.002   6.955   5.500
13795TIP3    H141328   2.052   6.888   5.452
13795TIP3    H241329   1.977   7.019   5.433
13796TIP3   OH241330   2.626   4.624   0.781
13796TIP3    H141331   2.692   4.690   0.805
13796TIP3    H241332   2.562   4.627   0.853
13797TIP3   OH241333   6.791   0.272   5.442
13797TIP3    H141334   6.705   0.313   5.433
13797TIP3    H241335   6.853   0.344   5.440
13798TIP3   OH241336   2.345   6.949   3.758
13798TIP3    H141337   2.403   7.003   3.704
13798TIP3    H241338   2.258   6.961   3.719
13799TIP3   OH241339   4.387   5.442   6.254
13799TIP3    H141340   4.325   5.491   6.307
13799TIP3    H241341   4.473   5.467   6.288
13800TIP3   OH241342   3.350   0.586   0.909
13800TIP3    H141343   3.404   0.540   0.973
13800TIP3    H241344   3.372   0.545   0.825
13801TIP3   OH241345   6.362   6.642   2.598
13801TIP3    H141346   6.376   6.585   2.523
13801TIP3    H241347   6.450   6.663   2.629
13802TIP3   OH241348   6.703   2.324   5.167
13802TIP3    H141349   6.646   2.312   5.243
13802TIP3    H241350   6.646   2.310   5.091
13803TIP3   OH241351   0.513   0.506   1.582
13803TIP3    H141352   0.425   0.524   1.549
13803TIP3    H241353   0.506   0.419   1.621
13804TIP3   OH241354   1.839   5.207   5.695
13804TIP3    H141355   1.776   5.176   5.760
13804TIP3    H241356   1.837   5.302   5.703
13805TIP3   OH241357   0.277   2.676   3.745
13805TIP3    H141358   0.204   2.641   3.796
13805TIP3    H241359   0.258   2.770   3.737
13806TIP3   OH241360   6.032   1.586   6.583
13806TIP3    H141361   5.965   1.598   6.515
13806TIP3    H241362   6.015   1.498   6.617
13807TIP3   OH241363   8.030   7.263   3.877
13807TIP3    H141364   7.997   7.283   3.964
13807TIP3    H241365   8.102   7.201   3.892
13808TIP3   OH241366   7.755   4.560   6.730
13808TIP3    H141367   7.850   4.561   6.725
13808TIP3    H241368   7.726   4.545   6.640
13809TIP3   OH241369   3.293   7.163   1.241
13809TIP3    H141370   3.263   7.178   1.330
13809TIP3    H241371   3.280   7.247   1.196
13810TIP3   OH241372   3.755   7.361   3.317
13810TIP3    H141373   3.757   7.453   3.343
13810TIP3    H241374   3.840   7.326   3.344
13811TIP3   OH241375   8.179   3.028   1.261
13811TIP3    H141376   8.087   3.056   1.264
13811TIP3    H241377   8.189   2.986   1.176
13812TIP3   OH241378   2.324   7.546   3.034
13812TIP3    H141379   2.389   7.558   3.103
13812TIP3    H241380   2.374   7.509   2.961
13813TIP3   OH241381   2.510   6.049   1.461
13813TIP3    H141382   2.568   6.119   1.493
13813TIP3    H241383   2.502   5.989   1.535
13814TIP3   OH241384   1.750   7.136   2.839
13814TIP3    H141385   1.685   7.192   2.797
13814TIP3    H241386   1.834   7.179   2.822
13815TIP3   OH241387   3.795   5.045   4.594
13815TIP3    H141388   3.799   5.088   4.509
13815TIP3    H241389   3.704   5.019   4.604
13816TIP3   OH241390   7.979   2.908   4.739
13816TIP3    H141391   7.927   2.881   4.815
13816TIP3    H241392   7.999   3.000   4.756
13817TIP3   OH241393   2.547   3.895   4.369
13817TIP3    H141394   2.515   3.867   4.454
13817TIP3    H241395   2.579   3.814   4.328
13818TIP3   OH241396   5.644   7.043   0.858
13818TIP3    H141397   5.666   7.123   0.905
13818TIP3    H241398   5.558   7.059   0.820
13819TIP3   OH241399   4.955   2.301   4.263
13819TIP3    H141400   4.940   2.394   4.246
13819TIP3    H241401   4.957   2.261   4.176
13820TIP3   OH241402   2.256   6.259   3.895
13820TIP3    H141403   2.216   6.241   3.810
13820TIP3    H241404   2.267   6.354   3.898
13821TIP3   OH241405   3.822   6.940   2.048
13821TIP3    H141406   3.799   6.935   2.140
13821TIP3    H241407   3.814   7.033   2.026
13822TIP3   OH241408   8.094   4.989   4.483
13822TIP3    H141409   8.105   4.901   4.520
13822TIP3    H241410   8.070   5.043   4.558
13823TIP3   OH241411   5.737   6.983   2.238
13823TIP3    H141412   5.769   7.036   2.166
13823TIP3    H241413   5.816   6.948   2.279
13824TIP3   OH241414   2.237   3.846   0.914
13824TIP3    H141415   2.211   3.790   0.988
13824TIP3    H241416   2.173   3.826   0.845
13825TIP3   OH241417   1.986   0.541   2.985
13825TIP3    H141418   2.013   0.596   3.059
13825TIP3    H241419   1.989   0.600   2.909
13826TIP3   OH241420   6.439   5.176   6.471
13826TIP3    H141421   6.473   5.240   6.408
13826TIP3    H241422   6.483   5.095   6.448
13827TIP3   OH241423   3.430   7.199   5.257
13827TIP3    H141424   3.401   7.256   5.328
13827TIP3    H241425   3.417   7.250   5.177
13828TIP3   OH241426   2.822   2.335   4.757
13828TIP3    H141427   2.824   2.424   4.721
13828TIP3    H241428   2.864   2.343   4.842
13829TIP3   OH241429   1.224   1.016   5.852
13829TIP3    H141430   1.142   1.054   5.820
13829TIP3    H241431   1.290   1.046   5.789
13830TIP3   OH241432   0.640   6.223   1.092
13830TIP3    H141433   0.566   6.191   1.042
13830TIP3    H241434   0.603   6.249   1.176
13831TIP3   OH241435   0.915   5.737   6.429
13831TIP3    H141436   0.854   5.777   6.491
13831TIP3    H241437   0.957   5.810   6.385
13832TIP3   OH241438   1.102   3.712   3.632
13832TIP3    H141439   1.098   3.625   3.672
13832TIP3    H241440   1.117   3.771   3.705
13833TIP3   OH241441   1.615   6.964   4.447
13833TIP3    H141442   1.671   6.972   4.524
13833TIP3    H241443   1.539   7.020   4.466
13834TIP3   OH241444   6.468   5.671   3.728
13834TIP3    H141445   6.413   5.711   3.661
13834TIP3    H241446   6.452   5.577   3.721
13835TIP3   OH241447   5.856   2.977   0.977
13835TIP3    H141448   5.892   2.977   1.066
13835TIP3    H241449   5.844   2.884   0.956
13836TIP3   OH241450   2.816   0.576   6.591
13836TIP3    H141451   2.818   0.486   6.556
13836TIP3    H241452   2.783   0.566   6.680
13837TIP3   OH241453   8.130   1.831   5.943
13837TIP3    H141454   8.083   1.844   5.861
13837TIP3    H241455   8.176   1.913   5.957
13838TIP3   OH241456   6.722   3.338   0.618
13838TIP3    H141457   6.633   3.338   0.655
13838TIP3    H241458   6.768   3.270   0.667
13839TIP3   OH241459   1.375   7.778   6.519
13839TIP3    H141460   1.351   7.726   6.442
13839TIP3    H241461   1.294   7.786   6.569
13840TIP3   OH241462   7.477   7.011   3.962
13840TIP3    H141463   7.486   7.007   3.867
13840TIP3    H241464   7.536   7.081   3.989
13841TIP3   OH241465   3.747   0.648   5.775
13841TIP3    H141466   3.759   0.719   5.712
13841TIP3    H241467   3.770   0.687   5.860
13842TIP3   OH241468   5.870   3.612   2.682
13842TIP3    H141469   5.835   3.686   2.632
13842TIP3    H241470   5.959   3.600   2.649
13843TIP3   OH241471   5.591   2.854   6.481
13843TIP3    H141472   5.562   2.770   6.516
13843TIP3    H241473   5.672   2.834   6.434
13844TIP3   OH241474   5.759   3.790   4.035
13844TIP3    H141475   5.798   3.836   3.960
13844TIP3    H241476   5.720   3.712   3.996
13845TIP3   OH241477   2.153   2.193   2.129
13845TIP3    H141478   2.205   2.230   2.200
13845TIP3    H241479   2.215   2.179   2.058
13846TIP3   OH241480   4.979   1.927   4.966
13846TIP3    H141481   4.997   1.989   4.896
13846TIP3    H241482   4.985   1.979   5.046
13847TIP3   OH241483   7.515   3.115   2.886
13847TIP3    H141484   7.519   3.019   2.884
13847TIP3    H241485   7.538   3.138   2.976
13848TIP3   OH241486   7.558   1.868   3.310
13848TIP3    H141487   7.481   1.833   3.355
13848TIP3    H241488   7.629   1.860   3.375
13849TIP3   OH241489   8.044   6.007   5.166
13849TIP3    H141490   8.108   5.997   5.095
13849TIP3    H241491   7.987   6.078   5.138
13850TIP3   OH241492   0.406   6.445   5.454
13850TIP3    H141493   0.490   6.435   5.410
13850TIP3    H241494   0.428   6.468   5.544
13851TIP3   OH241495   0.247   6.794   5.596
13851TIP3    H141496   0.322   6.823   5.648
13851TIP3    H241497   0.196   6.874   5.582
13852TIP3   OH241498   4.222   5.301   0.504
13852TIP3    H141499   4.242   5.265   0.590
13852TIP3    H241500   4.223   5.396   0.517
13853TIP3   OH241501   6.195   0.618   3.966
13853TIP3    H141502   6.181   0.535   4.011
13853TIP3    H241503   6.182   0.684   4.033
13854TIP3   OH241504   6.304   7.669   5.304
13854TIP3    H141505   6.300   7.573   5.295
13854TIP3    H241506   6.301   7.701   5.214
13855TIP3   OH241507   4.039   1.768   2.338
13855TIP3    H141508   4.004   1.696   2.285
13855TIP3    H241509   4.026   1.845   2.283
13856TIP3   OH241510   5.942   5.662   5.293
13856TIP3    H141511   6.036   5.665   5.312
13856TIP3    H241512   5.935   5.603   5.219
13857TIP3   OH241513   6.950   2.433   1.120
13857TIP3    H141514   6.937   2.386   1.202
13857TIP3    H241515   6.958   2.364   1.054
13858TIP3   OH241516   1.828   2.828   1.652
13858TIP3    H141517   1.844   2.735   1.668
13858TIP3    H241518   1.733   2.837   1.651
13859TIP3   OH241519   4.274   5.502   2.299
13859TIP3    H141520   4.344   5.437   2.306
13859TIP3    H241521   4.296   5.554   2.222
13860TIP3   OH241522   7.809   6.092   6.580
13860TIP3    H141523   7.828   6.116   6.489
13860TIP3    H241524   7.715   6.075   6.582
13861TIP3   OH241525   7.131   3.493   2.417
13861TIP3    H141526   7.147   3.404   2.447
13861TIP3    H241527   7.211   3.541   2.438
13862TIP3   OH241528   8.144   1.512   3.046
13862TIP3    H141529   8.132   1.417   3.047
13862TIP3    H241530   8.106   1.542   3.128
13863TIP3   OH241531   2.958   1.415   5.200
13863TIP3    H141532   3.010   1.437   5.277
13863TIP3    H241533   2.882   1.474   5.206
13864TIP3   OH241534   8.161   2.051   2.639
13864TIP3    H141535   8.224   2.087   2.703
13864TIP3    H241536   8.081   2.037   2.690
13865TIP3   OH241537   2.450   2.687   0.242
13865TIP3    H141538   2.455   2.755   0.174
13865TIP3    H241539   2.378   2.631   0.214
13866TIP3   OH241540   6.629   0.626   4.739
13866TIP3    H141541   6.697   0.668   4.792
13866TIP3    H241542   6.556   0.615   4.799
13867TIP3   OH241543   5.974   7.478   6.171
13867TIP3    H141544   6.041   7.447   6.232
13867TIP3    H241545   5.984   7.573   6.170
13868TIP3   OH241546   2.953   2.116   2.552
13868TIP3    H141547   3.006   2.048   2.594
13868TIP3    H241548   2.872   2.118   2.603
13869TIP3   OH241549   6.091   2.686   4.665
13869TIP3    H141550   6.127   2.712   4.581
13869TIP3    H241551   6.058   2.597   4.650
13870TIP3   OH241552   4.604   3.170   1.334
13870TIP3    H141553   4.648   3.253   1.317
13870TIP3    H241554   4.529   3.193   1.390
13871TIP3   OH241555   2.381   0.518   5.947
13871TIP3    H141556   2.336   0.468   5.879
13871TIP3    H241557   2.406   0.453   6.012
13872TIP3   OH241558   4.897   6.017   0.418
13872TIP3    H141559   4.915   5.928   0.388
13872TIP3    H241560   4.873   6.007   0.510
13873TIP3   OH241561   1.634   4.795   5.013
13873TIP3    H141562   1.684   4.809   5.093
13873TIP3    H241563   1.673   4.718   4.973
13874TIP3   OH241564   3.919   0.329   0.476
13874TIP3    H141565   3.986   0.337   0.408
13874TIP3    H241566   3.957   0.373   0.552
13875TIP3   OH241567   2.136   0.693   2.752
13875TIP3    H141568   2.161   0.650   2.670
13875TIP3    H241569   2.042   0.708   2.745
13876TIP3   OH241570   7.853   5.751   5.233
13876TIP3    H141571   7.841   5.820   5.167
13876TIP3    H241572   7.795   5.680   5.203
13877TIP3   OH241573   2.800   6.218   0.040
13877TIP3    H141574   2.803   6.152   0.109
13877TIP3    H241575   2.843   6.176  -0.035
13878TIP3   OH241576   7.658   2.698   4.202
13878TIP3    H141577   7.638   2.742   4.119
13878TIP3    H241578   7.723   2.631   4.179
13879TIP3   OH241579   4.600   4.410   5.483
13879TIP3    H141580   4.603   4.353   5.559
13879TIP3    H241581   4.684   4.397   5.439
13880TIP3   OH241582  -0.027   3.642   2.641
13880TIP3    H141583   0.054   3.694   2.641
13880TIP3    H241584   0.002   3.552   2.631
13881TIP3   OH241585   6.485   4.101   1.144
13881TIP3    H141586   6.576   4.071   1.143
13881TIP3    H241587   6.490   4.195   1.123
13882TIP3   OH241588   2.963   7.223   0.704
13882TIP3    H141589   2.936   7.278   0.631
13882TIP3    H241590   2.971   7.283   0.778
13883TIP3   OH241591   5.910   2.547   3.258
13883TIP3    H141592   5.912   2.548   3.354
13883TIP3    H241593   5.893   2.456   3.235
13884TIP3   OH241594   3.162   2.804   3.238
13884TIP3    H141595   3.255   2.817   3.257
13884TIP3    H241596   3.156   2.715   3.206
13885TIP3   OH241597   2.160   1.620   1.513
13885TIP3    H141598   2.105   1.614   1.435
13885TIP3    H241599   2.121   1.558   1.575
13886TIP3   OH241600   8.216   3.063   3.713
13886TIP3    H141601   8.172   3.114   3.645
13886TIP3    H241602   8.184   2.974   3.700
13887TIP3   OH241603   6.920   5.923   0.453
13887TIP3    H141604   6.909   5.828   0.449
13887TIP3    H241605   6.881   5.955   0.371
13888TIP3   OH241606   0.527   3.028   5.133
13888TIP3    H141607   0.560   3.103   5.183
13888TIP3    H241608   0.514   3.062   5.044
13889TIP3   OH241609   1.703   4.653   0.491
13889TIP3    H141610   1.745   4.739   0.496
13889TIP3    H241611   1.616   4.671   0.456
13890TIP3   OH241612   7.672   3.440   6.737
13890TIP3    H141613   7.619   3.487   6.672
13890TIP3    H241614   7.757   3.483   6.735
13891TIP3   OH241615   2.305   1.763   1.729
13891TIP3    H141616   2.333   1.719   1.809
13891TIP3    H241617   2.225   1.716   1.703
13892TIP3   OH241618   3.543   0.257   6.361
13892TIP3    H141619   3.550   0.177   6.413
13892TIP3    H241620   3.556   0.227   6.271
13893TIP3   OH241621   0.514   7.158   0.653
13893TIP3    H141622   0.521   7.063   0.643
13893TIP3    H241623   0.479   7.188   0.570
13894TIP3   OH241624   7.494   2.444   5.121
13894TIP3    H141625   7.522   2.373   5.179
13894TIP3    H241626   7.531   2.422   5.036
13895TIP3   OH241627   0.644   2.912   0.711
13895TIP3    H141628   0.617   2.829   0.749
13895TIP3    H241629   0.603   2.913   0.624
13896TIP3   OH241630   1.640   1.957   4.651
13896TIP3    H141631   1.669   2.045   4.628
13896TIP3    H241632   1.652   1.906   4.570
13897TIP3   OH241633   7.783   4.124   2.033
13897TIP3    H141634   7.873   4.095   2.016
13897TIP3    H241635   7.753   4.160   1.949
13898TIP3   OH241636   6.999   5.034   5.336
13898TIP3    H141637   6.964   5.089   5.265
13898TIP3    H241638   7.014   4.949   5.295
13899TIP3   OH241639   3.736   3.457   3.656
13899TIP3    H141640   3.805   3.478   3.719
13899TIP3    H241641   3.656   3.493   3.695
13900TIP3   OH241642   6.760   4.557   3.825
13900TIP3    H141643   6.729   4.508   3.901
13900TIP3    H241644   6.845   4.518   3.804
13901TIP3   OH241645   2.308   1.891   5.453
13901TIP3    H141646   2.213   1.903   5.460
13901TIP3    H241647   2.320   1.797   5.445
13902TIP3   OH241648   3.128   3.310   2.229
13902TIP3    H141649   3.173   3.394   2.216
13902TIP3    H241650   3.198   3.246   2.236
13903TIP3   OH241651   6.283   3.772   2.446
13903TIP3    H141652   6.188   3.767   2.432
13903TIP3    H241653   6.301   3.704   2.511
13904TIP3   OH241654   6.264   3.356   6.261
13904TIP3    H141655   6.320   3.423   6.222
13904TIP3    H241656   6.325   3.288   6.290
13905TIP3   OH241657   6.320   5.092   4.514
13905TIP3    H141658   6.279   5.019   4.560
13905TIP3    H241659   6.306   5.167   4.572
13906TIP3   OH241660   3.328   5.252   1.681
13906TIP3    H141661   3.406   5.234   1.627
13906TIP3    H241662   3.269   5.179   1.661
13907TIP3   OH241663   7.992   6.954   2.553
13907TIP3    H141664   7.985   6.975   2.460
13907TIP3    H241665   7.933   6.880   2.566
13908TIP3   OH241666   7.451   0.545   1.556
13908TIP3    H141667   7.439   0.555   1.462
13908TIP3    H241668   7.541   0.576   1.572
13909TIP3   OH241669   0.639   7.150   5.367
13909TIP3    H141670   0.708   7.176   5.307
13909TIP3    H241671   0.644   7.213   5.439
13910TIP3   OH241672   8.269   3.800   4.761
13910TIP3    H141673   8.195   3.855   4.737
13910TIP3    H241674   8.294   3.829   4.849
13911TIP3   OH241675   5.132   6.151   4.004
13911TIP3    H141676   5.076   6.075   4.020
13911TIP3    H241677   5.191   6.153   4.080
13912TIP3   OH241678   1.933   5.077   2.270
13912TIP3    H141679   1.840   5.098   2.281
13912TIP3    H241680   1.948   5.080   2.176
13913TIP3   OH241681   6.316   5.538   5.879
13913TIP3    H141682   6.393   5.496   5.840
13913TIP3    H241683   6.253   5.467   5.890
13914TIP3   OH241684   6.488   4.190   1.898
13914TIP3    H141685   6.461   4.103   1.867
13914TIP3    H241686   6.464   4.250   1.827
13915TIP3   OH241687   0.797   0.484   1.914
13915TIP3    H141688   0.710   0.447   1.928
13915TIP3    H241689   0.856   0.423   1.959
13916TIP3   OH241690   4.202   6.257   5.829
13916TIP3    H141691   4.172   6.335   5.783
13916TIP3    H241692   4.130   6.195   5.820
13917TIP3   OH241693   2.604   0.411   0.538
13917TIP3    H141694   2.523   0.459   0.558
13917TIP3    H241695   2.601   0.396   0.444
13918TIP3   OH241696   2.934   6.291   1.972
13918TIP3    H141697   2.905   6.245   1.893
13918TIP3    H241698   2.874   6.366   1.978
13919TIP3   OH241699   5.714   3.018   2.181
13919TIP3    H141700   5.798   3.044   2.145
13919TIP3    H241701   5.714   3.053   2.270
13920TIP3   OH241702   2.843   6.408   3.620
13920TIP3    H141703   2.878   6.413   3.709
13920TIP3    H241704   2.804   6.321   3.614
13921TIP3   OH241705   5.016   4.160   2.345
13921TIP3    H141706   4.930   4.136   2.379
13921TIP3    H241707   4.999   4.238   2.291
13922TIP3   OH241708   3.354   6.341   6.079
13922TIP3    H141709   3.298   6.412   6.111
13922TIP3    H241710   3.310   6.310   5.999
13923TIP3   OH241711   6.607   1.369   1.600
13923TIP3    H141712   6.539   1.354   1.665
13923TIP3    H241713   6.601   1.293   1.542
13924TIP3   OH241714   6.808   7.626   6.517
13924TIP3    H141715   6.865   7.700   6.538
13924TIP3    H241716   6.756   7.656   6.443
13925TIP3   OH241717   0.096   5.538   2.223
13925TIP3    H141718   0.115   5.450   2.190
13925TIP3    H241719   0.029   5.524   2.290
13926TIP3   OH241720   3.324   0.654   0.641
13926TIP3    H141721   3.322   0.731   0.699
13926TIP3    H241722   3.257   0.672   0.576
13927TIP3   OH241723   6.249   4.395   3.343
13927TIP3    H141724   6.234   4.301   3.344
13927TIP3    H241725   6.214   4.426   3.427
13928TIP3   OH241726   7.576   3.159   6.546
13928TIP3    H141727   7.636   3.150   6.472
13928TIP3    H241728   7.553   3.252   6.547
13929TIP3   OH241729   5.478   2.916   3.333
13929TIP3    H141730   5.565   2.900   3.370
13929TIP3    H241731   5.493   2.924   3.239
13930TIP3   OH241732   6.571   5.342   5.851
13930TIP3    H141733   6.609   5.287   5.782
13930TIP3    H241734   6.562   5.283   5.926
13931TIP3   OH241735   7.595   7.203   2.833
13931TIP3    H141736   7.523   7.144   2.857
13931TIP3    H241737   7.674   7.157   2.862
13932TIP3   OH241738   4.986   0.801   2.316
13932TIP3    H141739   4.909   0.786   2.371
13932TIP3    H241740   5.057   0.754   2.360
13933TIP3   OH241741   6.378   6.747   6.741
13933TIP3    H141742   6.308   6.738   6.676
13933TIP3    H241743   6.341   6.710   6.821
13934TIP3   OH241744   7.639   4.327   2.131
13934TIP3    H141745   7.699   4.252   2.121
13934TIP3    H241746   7.563   4.291   2.177
13935TIP3   OH241747   7.419   5.840   4.438
13935TIP3    H141748   7.419   5.806   4.348
13935TIP3    H241749   7.330   5.824   4.470
13936TIP3   OH241750   3.017   6.164   3.853
13936TIP3    H141751   3.047   6.097   3.914
13936TIP3    H241752   3.022   6.122   3.767
13937TIP3   OH241753   5.048   5.305   5.675
13937TIP3    H141754   5.073   5.254   5.752
13937TIP3    H241755   5.019   5.389   5.711
13938TIP3   OH241756   5.407   5.391   6.310
13938TIP3    H141757   5.488   5.441   6.308
13938TIP3    H241758   5.398   5.362   6.401
13939TIP3   OH241759   7.595   3.879   0.861
13939TIP3    H141760   7.571   3.851   0.773
13939TIP3    H241761   7.513   3.872   0.911
13940TIP3   OH241762   2.359   5.064   3.470
13940TIP3    H141763   2.334   5.043   3.560
13940TIP3    H241764   2.337   5.157   3.460
13941TIP3   OH241765   0.065   7.626   3.206
13941TIP3    H141766   0.130   7.561   3.181
13941TIP3    H241767  -0.010   7.608   3.150
13942TIP3   OH241768   6.039   4.015   5.050
13942TIP3    H141769   6.003   4.090   5.097
13942TIP3    H241770   6.007   3.939   5.098
13943TIP3   OH241771   3.865   4.733   3.320
13943TIP3    H141772   3.946   4.784   3.326
13943TIP3    H241773   3.872   4.686   3.236
13944TIP3   OH241774   1.013   4.271   1.925
13944TIP3    H141775   1.016   4.344   1.986
13944TIP3    H241776   0.965   4.304   1.849
13945TIP3   OH241777   2.488   3.260   0.346
13945TIP3    H141778   2.434   3.237   0.422
13945TIP3    H241779   2.480   3.356   0.340
13946TIP3   OH241780   0.625   6.113   5.200
13946TIP3    H141781   0.704   6.059   5.195
13946TIP3    H241782   0.560   6.064   5.150
13947TIP3   OH241783   2.151   6.361   2.534
13947TIP3    H141784   2.176   6.307   2.459
13947TIP3    H241785   2.071   6.321   2.567
13948TIP3   OH241786   7.078   6.684   1.414
13948TIP3    H141787   7.158   6.698   1.362
13948TIP3    H241788   7.079   6.590   1.434
13949TIP3   OH241789   5.406   3.809   6.288
13949TIP3    H141790   5.344   3.742   6.258
13949TIP3    H241791   5.479   3.803   6.225
13950TIP3   OH241792   1.504   4.310   2.950
13950TIP3    H141793   1.416   4.277   2.969
13950TIP3    H241794   1.555   4.292   3.029
13951TIP3   OH241795   8.195   3.354   3.807
13951TIP3    H141796   8.202   3.259   3.812
13951TIP3    H241797   8.279   3.387   3.836
13952TIP3   OH241798   1.708   2.622   0.293
13952TIP3    H141799   1.733   2.714   0.294
13952TIP3    H241800   1.697   2.598   0.385
13953TIP3   OH241801   4.127   2.942   5.257
13953TIP3    H141802   4.079   2.859   5.253
13953TIP3    H241803   4.152   2.951   5.349
13954TIP3   OH241804   5.092   5.607   5.166
13954TIP3    H141805   5.069   5.515   5.150
13954TIP3    H241806   5.058   5.626   5.253
13955TIP3   OH241807   3.372   3.300   4.419
13955TIP3    H141808   3.366   3.237   4.491
13955TIP3    H241809   3.456   3.282   4.377
13956TIP3   OH241810   7.680   6.188   0.767
13956TIP3    H141811   7.674   6.157   0.677
13956TIP3    H241812   7.604   6.246   0.777
13957TIP3   OH241813   3.847   1.937   0.226
13957TIP3    H141814   3.837   1.994   0.150
13957TIP3    H241815   3.758   1.915   0.252
13958TIP3   OH241816   8.057   3.157   3.469
13958TIP3    H141817   7.980   3.208   3.495
13958TIP3    H241818   8.130   3.219   3.472
13959TIP3   OH241819   5.158   5.220   1.621
13959TIP3    H141820   5.090   5.287   1.622
13959TIP3    H241821   5.236   5.265   1.589
13960TIP3   OH241822   1.428   5.007   5.005
13960TIP3    H141823   1.433   5.074   5.073
13960TIP3    H241824   1.496   4.944   5.028
13961TIP3   OH241825   5.094   1.957   6.125
13961TIP3    H141826   5.164   1.948   6.059
13961TIP3    H241827   5.088   1.871   6.165
13962TIP3   OH241828   1.886   7.298   0.560
13962TIP3    H141829   1.806   7.289   0.611
13962TIP3    H241830   1.925   7.210   0.561
13963TIP3   OH241831   4.678   2.162   0.094
13963TIP3    H141832   4.763   2.156   0.137
13963TIP3    H241833   4.626   2.220   0.150
13964TIP3   OH241834   6.502   1.844   4.363
13964TIP3    H141835   6.581   1.896   4.375
13964TIP3    H241836   6.440   1.878   4.428
13965TIP3   OH241837   7.461   4.891   5.664
13965TIP3    H141838   7.544   4.875   5.708
13965TIP3    H241839   7.480   4.878   5.571
13966TIP3   OH241840   7.104   7.777   0.012
13966TIP3    H141841   7.010   7.758   0.012
13966TIP3    H241842   7.111   7.865  -0.027
13967TIP3   OH241843   1.164   6.584   3.062
13967TIP3    H141844   1.070   6.565   3.067
13967TIP3    H241845   1.193   6.544   2.979
13968TIP3   OH241846   2.642   4.139   4.332
13968TIP3    H141847   2.625   4.046   4.343
13968TIP3    H241848   2.568   4.183   4.373
13969TIP3   OH241849   1.526   6.282   2.394
13969TIP3    H141850   1.464   6.279   2.466
13969TIP3    H241851   1.574   6.363   2.406
13970TIP3   OH241852   7.829   0.099   3.551
13970TIP3    H141853   7.812   0.192   3.557
13970TIP3    H241854   7.744   0.057   3.566
13971TIP3   OH241855   0.221   0.206   4.425
13971TIP3    H141856   0.221   0.111   4.416
13971TIP3    H241857   0.263   0.238   4.345
13972TIP3   OH241858   2.132   3.607   1.395
13972TIP3    H141859   2.180   3.610   1.478
13972TIP3    H241860   2.065   3.674   1.404
13973TIP3   OH241861   7.344   0.400   6.565
13973TIP3    H141862   7.410   0.466   6.586
13973TIP3    H241863   7.260   0.443   6.581
13974TIP3   OH241864   7.369   4.443   0.777
13974TIP3    H141865   7.293   4.391   0.801
13974TIP3    H241866   7.365   4.519   0.836
13975TIP3   OH241867   4.370   3.230   5.277
13975TIP3    H141868   4.342   3.248   5.366
13975TIP3    H241869   4.428   3.154   5.286
13976TIP3   OH241870   4.882   6.092   3.644
13976TIP3    H141871   4.877   6.178   3.601
13976TIP3    H241872   4.967   6.057   3.617
13977TIP3   OH241873   0.704   5.557   6.015
13977TIP3    H141874   0.613   5.583   6.026
13977TIP3    H241875   0.707   5.467   6.049
13978TIP3   OH241876   6.729   3.091   0.801
13978TIP3    H141877   6.730   3.130   0.888
13978TIP3    H241878   6.778   3.009   0.811
13979TIP3   OH241879   6.688   2.675   2.555
13979TIP3    H141880   6.704   2.750   2.497
13979TIP3    H241881   6.593   2.675   2.568
13980TIP3   OH241882   3.444   5.847   3.262
13980TIP3    H141883   3.407   5.774   3.213
13980TIP3    H241884   3.526   5.814   3.299
13981TIP3   OH241885   3.011   5.725   4.231
13981TIP3    H141886   2.926   5.747   4.270
13981TIP3    H241887   3.075   5.752   4.297
13982TIP3   OH241888   8.200   2.436   2.228
13982TIP3    H141889   8.271   2.472   2.281
13982TIP3    H241890   8.244   2.397   2.152
13983TIP3   OH241891   1.992   1.395   6.352
13983TIP3    H141892   2.024   1.309   6.322
13983TIP3    H241893   2.019   1.456   6.284
13984TIP3   OH241894   1.684   6.352   1.398
13984TIP3    H141895   1.619   6.350   1.468
13984TIP3    H241896   1.657   6.425   1.342
13985TIP3   OH241897   0.264   3.149   4.299
13985TIP3    H141898   0.227   3.207   4.365
13985TIP3    H241899   0.307   3.080   4.350
13986TIP3   OH241900   8.221   1.534   4.647
13986TIP3    H141901   8.192   1.461   4.593
13986TIP3    H241902   8.313   1.516   4.666
13987TIP3   OH241903   2.525   4.867   6.433
13987TIP3    H141904   2.514   4.856   6.339
13987TIP3    H241905   2.603   4.921   6.442
13988TIP3   OH241906   6.280   0.834   0.064
13988TIP3    H141907   6.193   0.875   0.066
13988TIP3    H241908   6.317   0.862  -0.020
13989TIP3   OH241909   2.327   7.516   4.685
13989TIP3    H141910   2.353   7.450   4.749
13989TIP3    H241911   2.395   7.584   4.691
13990TIP3   OH241912   7.811   4.512   1.860
13990TIP3    H141913   7.810   4.585   1.798
13990TIP3    H241914   7.720   4.505   1.888
13991TIP3   OH241915   5.475   0.023   5.431
13991TIP3    H141916   5.511   0.019   5.343
13991TIP3    H241917   5.492   0.112   5.461
13992TIP3   OH241918   4.816   3.159   1.543
13992TIP3    H141919   4.908   3.143   1.525
13992TIP3    H241920   4.771   3.133   1.463
13993TIP3   OH241921   6.473   3.877   0.175
13993TIP3    H141922   6.384   3.851   0.199
13993TIP3    H241923   6.467   3.900   0.082
13994TIP3   OH241924   0.197   3.473   5.348
13994TIP3    H141925   0.124   3.532   5.366
13994TIP3    H241926   0.223   3.493   5.258
13995TIP3   OH241927   0.308   6.066   6.448
13995TIP3    H141928   0.328   6.158   6.428
13995TIP3    H241929   0.381   6.017   6.410
13996TIP3   OH241930   5.923   1.731   1.235
13996TIP3    H141931   5.853   1.792   1.210
13996TIP3    H241932   5.990   1.786   1.275
13997TIP3   OH241933   4.315   2.270   2.001
13997TIP3    H141934   4.393   2.324   1.990
13997TIP3    H241935   4.252   2.329   2.044
13998TIP3   OH241936   2.764   2.679   0.210
13998TIP3    H141937   2.725   2.763   0.234
13998TIP3    H241938   2.733   2.618   0.277
13999TIP3   OH241939   6.619   6.178   4.942
13999TIP3    H141940   6.681   6.106   4.953
13999TIP3    H241941   6.535   6.143   4.970
14000TIP3   OH241942   3.312   1.061   0.797
14000TIP3    H141943   3.362   1.029   0.721
14000TIP3    H241944   3.279   0.982   0.838
14001TIP3   OH241945   1.396   6.302   3.622
14001TIP3    H141946   1.462   6.236   3.644
14001TIP3    H241947   1.419   6.332   3.535
14002TIP3   OH241948   1.090   3.314   1.883
14002TIP3    H141949   1.127   3.326   1.970
14002TIP3    H241950   0.996   3.303   1.898
14003TIP3   OH241951   3.818   5.550   0.989
14003TIP3    H141952   3.784   5.460   0.984
14003TIP3    H241953   3.745   5.600   1.027
14004TIP3   OH241954   4.591   6.088   2.997
14004TIP3    H141955   4.606   6.107   2.904
14004TIP3    H241956   4.518   6.144   3.022
14005TIP3   OH241957   5.471   0.710   3.178
14005TIP3    H141958   5.482   0.634   3.121
14005TIP3    H241959   5.384   0.742   3.158
14006TIP3   OH241960   2.045   2.848   2.418
14006TIP3    H141961   2.140   2.845   2.426
14006TIP3    H241962   2.014   2.771   2.467
14007TIP3   OH241963   4.200   4.362   2.887
14007TIP3    H141964   4.140   4.352   2.962
14007TIP3    H241965   4.194   4.454   2.863
14008TIP3   OH241966   0.765   5.551   3.944
14008TIP3    H141967   0.755   5.477   4.004
14008TIP3    H241968   0.806   5.512   3.866
14009TIP3   OH241969   6.521   4.061   4.136
14009TIP3    H141970   6.453   3.994   4.131
14009TIP3    H241971   6.476   4.143   4.117
14010TIP3   OH241972   4.750   5.884   2.801
14010TIP3    H141973   4.679   5.843   2.851
14010TIP3    H241974   4.822   5.822   2.808
14011TIP3   OH241975   0.989   6.405   1.101
14011TIP3    H141976   0.906   6.432   1.062
14011TIP3    H241977   0.984   6.436   1.191
14012TIP3   OH241978   1.169   3.135   2.923
14012TIP3    H141979   1.251   3.151   2.970
14012TIP3    H241980   1.109   3.102   2.989
14013TIP3   OH241981   1.531   2.056   0.474
14013TIP3    H141982   1.447   2.101   0.480
14013TIP3    H241983   1.522   2.001   0.396
14014TIP3   OH241984   5.042   1.345   5.435
14014TIP3    H141985   4.995   1.283   5.491
14014TIP3    H241986   4.987   1.424   5.435
14015TIP3   OH241987   2.277   0.715   2.021
14015TIP3    H141988   2.315   0.630   2.044
14015TIP3    H241989   2.326   0.778   2.074
14016TIP3   OH241990   6.784   7.274   3.717
14016TIP3    H141991   6.803   7.355   3.763
14016TIP3    H241992   6.719   7.298   3.651
14017TIP3   OH241993   6.630   7.751   0.126
14017TIP3    H141994   6.559   7.687   0.129
14017TIP3    H241995   6.610   7.806   0.050
14018TIP3   OH241996   1.072   7.336   3.134
14018TIP3    H141997   1.050   7.274   3.064
14018TIP3    H241998   1.097   7.416   3.087
14019TIP3   OH241999   0.475   0.154   1.305
14019TIP3    H142000   0.482   0.076   1.249
14019TIP3    H242001   0.538   0.138   1.376
14020TIP3   OH242002   5.168   6.770   5.537
14020TIP3    H142003   5.192   6.695   5.591
14020TIP3    H242004   5.223   6.762   5.459
14021TIP3   OH242005   2.770   5.419   1.386
14021TIP3    H142006   2.785   5.353   1.453
14021TIP3    H242007   2.857   5.441   1.354
14022TIP3   OH242008   3.490   3.629   0.436
14022TIP3    H142009   3.533   3.648   0.353
14022TIP3    H242010   3.447   3.545   0.422
14023TIP3   OH242011   3.520   5.774   4.441
14023TIP3    H142012   3.540   5.685   4.471
14023TIP3    H242013   3.572   5.830   4.498
14024TIP3   OH242014   4.717   3.417   1.663
14024TIP3    H142015   4.726   3.328   1.629
14024TIP3    H242016   4.634   3.417   1.709
14025TIP3   OH242017   7.949   7.614   5.857
14025TIP3    H142018   8.041   7.617   5.882
14025TIP3    H242019   7.912   7.696   5.890
14026TIP3   OH242020   7.600   3.257   6.029
14026TIP3    H142021   7.528   3.256   6.091
14026TIP3    H242022   7.636   3.169   6.031
14027TIP3   OH242023   2.062   7.599   0.443
14027TIP3    H142024   2.097   7.547   0.370
14027TIP3    H242025   2.020   7.534   0.500
14028TIP3   OH242026   5.646   4.016   6.687
14028TIP3    H142027   5.643   3.923   6.712
14028TIP3    H242028   5.555   4.044   6.688
14029TIP3   OH242029   1.004   4.306   2.711
14029TIP3    H142030   1.032   4.341   2.796
14029TIP3    H242031   0.909   4.297   2.719
14030TIP3   OH242032   7.747   1.261   1.879
14030TIP3    H142033   7.695   1.196   1.928
14030TIP3    H242034   7.832   1.260   1.922
14031TIP3   OH242035   7.382   7.684   3.969
14031TIP3    H142036   7.346   7.771   3.951
14031TIP3    H242037   7.469   7.685   3.929
14032TIP3   OH242038   6.849   5.198   6.667
14032TIP3    H142039   6.865   5.213   6.760
14032TIP3    H242040   6.921   5.142   6.639
14033TIP3   OH242041   6.950   1.563   1.141
14033TIP3    H142042   7.037   1.529   1.123
14033TIP3    H242043   6.955   1.596   1.231
14034TIP3   OH242044   6.888   4.462   5.564
14034TIP3    H142045   6.974   4.482   5.599
14034TIP3    H242046   6.878   4.368   5.578
14035TIP3   OH242047   5.237   5.839   5.318
14035TIP3    H142048   5.263   5.758   5.363
14035TIP3    H242049   5.143   5.829   5.305
14036TIP3   OH242050   1.258   0.400   1.588
14036TIP3    H142051   1.294   0.425   1.673
14036TIP3    H242052   1.173   0.443   1.585
14037TIP3   OH242053   3.328   4.759   2.052
14037TIP3    H142054   3.276   4.717   1.984
14037TIP3    H242055   3.269   4.764   2.127
14038TIP3   OH242056   7.277   0.515   0.130
14038TIP3    H142057   7.195   0.473   0.153
14038TIP3    H242058   7.343   0.446   0.139
14039TIP3   OH242059   0.633   2.432   6.249
14039TIP3    H142060   0.598   2.494   6.184
14039TIP3    H242061   0.605   2.468   6.333
14040TIP3   OH242062   4.292   6.971   5.667
14040TIP3    H142063   4.366   6.911   5.667
14040TIP3    H242064   4.260   6.969   5.576
14041TIP3   OH242065   6.872   1.767   6.396
14041TIP3    H142066   6.895   1.857   6.419
14041TIP3    H242067   6.822   1.775   6.315
14042TIP3   OH242068   6.368   6.599   6.080
14042TIP3    H142069   6.334   6.591   5.991
14042TIP3    H242070   6.323   6.531   6.129
14043TIP3   OH242071   4.233   3.957   1.807
14043TIP3    H142072   4.154   3.906   1.792
14043TIP3    H242073   4.235   4.021   1.737
14044TIP3   OH242074   0.580   3.690   0.953
14044TIP3    H142075   0.521   3.658   1.021
14044TIP3    H242076   0.526   3.751   0.902
14045TIP3   OH242077   1.453   3.768   6.025
14045TIP3    H142078   1.373   3.795   5.980
14045TIP3    H242079   1.509   3.733   5.955
14046TIP3   OH242080   6.806   3.823   5.831
14046TIP3    H142081   6.764   3.902   5.865
14046TIP3    H242082   6.736   3.757   5.831
14047TIP3   OH242083   2.006   7.198   2.918
14047TIP3    H142084   2.038   7.285   2.893
14047TIP3    H242085   2.038   7.140   2.849
14048TIP3   OH242086   5.772   6.164   1.626
14048TIP3    H142087   5.720   6.230   1.671
14048TIP3    H242088   5.861   6.199   1.627
14049TIP3   OH242089   8.167   5.945   5.711
14049TIP3    H142090   8.233   6.013   5.707
14049TIP3    H242091   8.159   5.913   5.621
14050TIP3   OH242092   0.127   3.832   0.024
14050TIP3    H142093   0.179   3.764  -0.019
14050TIP3    H242094   0.192   3.897   0.052
14051TIP3   OH242095   3.647   0.646   6.557
14051TIP3    H142096   3.729   0.671   6.600
14051TIP3    H242097   3.634   0.714   6.490
14052TIP3   OH242098   5.727   5.392   4.289
14052TIP3    H142099   5.774   5.309   4.294
14052TIP3    H242100   5.637   5.368   4.266
14053TIP3   OH242101   2.189   3.326   1.365
14053TIP3    H142102   2.196   3.419   1.383
14053TIP3    H242103   2.102   3.315   1.327
14054TIP3   OH242104   0.706   2.752   2.887
14054TIP3    H142105   0.730   2.730   2.797
14054TIP3    H242106   0.782   2.726   2.939
14055TIP3   OH242107   7.378   3.936   3.107
14055TIP3    H142108   7.345   4.022   3.132
14055TIP3    H242109   7.423   3.904   3.185
14056TIP3   OH242110   4.423   2.780   6.597
14056TIP3    H142111   4.430   2.875   6.599
14056TIP3    H242112   4.403   2.756   6.688
14057TIP3   OH242113   4.448   4.980   2.672
14057TIP3    H142114   4.364   5.026   2.670
14057TIP3    H242115   4.505   5.030   2.614
14058TIP3   OH242116   2.555   3.392   5.026
14058TIP3    H142117   2.568   3.432   4.940
14058TIP3    H242118   2.611   3.315   5.026
14059TIP3   OH242119  -0.011   7.509   5.683
14059TIP3    H142120  -0.044   7.422   5.658
14059TIP3    H242121   0.081   7.494   5.706
14060TIP3   OH242122   4.666   1.196   5.464
14060TIP3    H142123   4.688   1.289   5.454
14060TIP3    H242124   4.744   1.158   5.506
14061TIP3   OH242125   7.020   0.263   2.582
14061TIP3    H142126   6.968   0.221   2.514
14061TIP3    H242127   7.082   0.318   2.533
14062TIP3   OH242128   4.516   4.586  -0.036
14062TIP3    H142129   4.524   4.494  -0.012
14062TIP3    H242130   4.515   4.632   0.048
14063TIP3   OH242131   5.731   2.843   4.977
14063TIP3    H142132   5.813   2.795   4.963
14063TIP3    H242133   5.760   2.929   5.009
14064TIP3   OH242134   4.841   3.293   1.181
14064TIP3    H142135   4.777   3.307   1.112
14064TIP3    H242136   4.912   3.244   1.139
14065TIP3   OH242137   4.737   2.774   5.001
14065TIP3    H142138   4.689   2.745   5.079
14065TIP3    H242139   4.693   2.855   4.976
14066TIP3   OH242140   3.742   1.109   5.699
14066TIP3    H142141   3.748   1.174   5.630
14066TIP3    H242142   3.755   1.159   5.780
14067TIP3   OH242143   0.814   0.638   4.716
14067TIP3    H142144   0.825   0.595   4.632
14067TIP3    H242145   0.903   0.663   4.742
14068TIP3   OH242146   2.697   7.774   4.309
14068TIP3    H142147   2.683   7.842   4.243
14068TIP3    H242148   2.609   7.749   4.337
14069TIP3   OH242149   2.204   3.681   2.734
14069TIP3    H142150   2.256   3.762   2.737
14069TIP3    H242151   2.179   3.671   2.643
14070TIP3   OH242152   2.728   1.741   6.346
14070TIP3    H142153   2.790   1.813   6.331
14070TIP3    H242154   2.723   1.734   6.442
14071TIP3   OH242155   6.146   0.859   5.673
14071TIP3    H142156   6.167   0.939   5.625
14071TIP3    H242157   6.098   0.888   5.750
14072TIP3   OH242158   4.669   5.427   4.047
14072TIP3    H142159   4.642   5.505   3.999
14072TIP3    H242160   4.743   5.392   3.996
14073TIP3   OH242161   1.767   3.130   1.024
14073TIP3    H142162   1.792   3.038   1.028
14073TIP3    H242163   1.715   3.137   0.944
14074TIP3   OH242164   3.929   6.179   1.983
14074TIP3    H142165   3.870   6.163   2.056
14074TIP3    H242166   3.893   6.256   1.939
14075TIP3   OH242167   7.076   0.083   5.533
14075TIP3    H142168   7.077   0.172   5.497
14075TIP3    H242169   7.159   0.074   5.579
14076TIP3   OH242170   3.753   4.978   0.481
14076TIP3    H142171   3.660   4.993   0.463
14076TIP3    H242172   3.770   4.889   0.450
14077TIP3   OH242173   6.160   7.423   4.889
14077TIP3    H142174   6.071   7.425   4.926
14077TIP3    H242175   6.154   7.361   4.816
14078TIP3   OH242176   3.015   1.415   2.258
14078TIP3    H142177   3.013   1.463   2.176
14078TIP3    H242178   2.928   1.375   2.264
14079TIP3   OH242179   6.256   0.128   5.263
14079TIP3    H142180   6.278   0.037   5.243
14079TIP3    H242181   6.337   0.177   5.246
14080TIP3   OH242182   3.021   2.920   0.403
14080TIP3    H142183   2.996   2.846   0.348
14080TIP3    H242184   2.938   2.960   0.429
14081TIP3   OH242185   6.283   1.669   6.231
14081TIP3    H142186   6.257   1.605   6.165
14081TIP3    H242187   6.204   1.684   6.283
14082TIP3   OH242188   4.836   3.054   4.384
14082TIP3    H142189   4.866   2.981   4.330
14082TIP3    H242190   4.742   3.060   4.367
14083TIP3   OH242191   3.428   2.853   6.010
14083TIP3    H142192   3.428   2.799   5.931
14083TIP3    H242193   3.339   2.843   6.044
14084TIP3   OH242194   2.773   5.544   6.675
14084TIP3    H142195   2.724   5.593   6.741
14084TIP3    H242196   2.793   5.607   6.607
14085TIP3   OH242197   0.028   3.172   0.121
14085TIP3    H142198   0.099   3.231   0.146
14085TIP3    H242199  -0.013   3.214   0.046
14086TIP3   OH242200   5.184   0.972   1.800
14086TIP3    H142201   5.179   1.052   1.747
14086TIP3    H242202   5.204   1.004   1.889
14087TIP3   OH242203   4.840   0.631   4.394
14087TIP3    H142204   4.896   0.556   4.414
14087TIP3    H242205   4.891   0.682   4.330
14088TIP3   OH242206   0.581   5.986   4.055
14088TIP3    H142207   0.656   5.928   4.043
14088TIP3    H242208   0.590   6.018   4.145
14089TIP3   OH242209   7.400   6.342   5.415
14089TIP3    H142210   7.336   6.401   5.454
14089TIP3    H242211   7.451   6.397   5.356
14090TIP3   OH242212   3.102   3.976   4.728
14090TIP3    H142213   3.060   3.964   4.643
14090TIP3    H242214   3.151   4.058   4.719
14091TIP3   OH242215   1.408   0.540   0.956
14091TIP3    H142216   1.406   0.446   0.974
14091TIP3    H242217   1.317   0.567   0.960
14092TIP3   OH242218   0.923   6.171   6.555
14092TIP3    H142219   0.930   6.201   6.464
14092TIP3    H242220   0.992   6.106   6.564
14093TIP3   OH242221   3.314   4.499   6.282
14093TIP3    H142222   3.276   4.523   6.366
14093TIP3    H242223   3.297   4.574   6.225
14094TIP3   OH242224   8.298   2.807   6.724
14094TIP3    H142225   8.203   2.814   6.718
14094TIP3    H242226   8.322   2.866   6.796
14095TIP3   OH242227   0.792   3.173   3.682
14095TIP3    H142228   0.843   3.220   3.615
14095TIP3    H242229   0.856   3.116   3.725
14096TIP3   OH242230   4.605   1.782   0.887
14096TIP3    H142231   4.604   1.776   0.791
14096TIP3    H242232   4.516   1.810   0.910
14097TIP3   OH242233   5.246   6.843   2.010
14097TIP3    H142234   5.282   6.862   2.096
14097TIP3    H242235   5.241   6.747   2.007
14098TIP3   OH242236   1.101   1.650   2.751
14098TIP3    H142237   1.134   1.595   2.821
14098TIP3    H242238   1.113   1.739   2.783
14099TIP3   OH242239   2.657   2.233   0.133
14099TIP3    H142240   2.579   2.236   0.077
14099TIP3    H242241   2.730   2.242   0.072
14100TIP3   OH242242   0.089   2.364   3.383
14100TIP3    H142243   0.010   2.406   3.348
14100TIP3    H242244   0.120   2.308   3.313
14101TIP3   OH242245   7.660   1.665   1.529
14101TIP3    H142246   7.744   1.639   1.493
14101TIP3    H242247   7.613   1.583   1.543
14102TIP3   OH242248   1.097   6.944   0.980
14102TIP3    H142249   1.158   6.916   0.911
14102TIP3    H242250   1.051   6.865   1.006
14103TIP3   OH242251   4.953   5.977   4.105
14103TIP3    H142252   4.880   5.937   4.058
14103TIP3    H242253   4.915   6.054   4.148
14104TIP3   OH242254   2.286   4.571   4.765
14104TIP3    H142255   2.232   4.507   4.719
14104TIP3    H242256   2.252   4.572   4.855
14105TIP3   OH242257   1.545   5.855   0.944
14105TIP3    H142258   1.487   5.844   0.869
14105TIP3    H242259   1.501   5.921   0.998
14106TIP3   OH242260   4.924   3.769   2.364
14106TIP3    H142261   4.996   3.817   2.324
14106TIP3    H242262   4.851   3.779   2.303
14107TIP3   OH242263   1.732   1.648   2.907
14107TIP3    H142264   1.684   1.730   2.895
14107TIP3    H242265   1.731   1.633   3.002
14108TIP3   OH242266   6.751   7.770   0.908
14108TIP3    H142267   6.704   7.781   0.990
14108TIP3    H242268   6.682   7.774   0.841
14109TIP3   OH242269   1.013   6.937   4.468
14109TIP3    H142270   1.104   6.934   4.497
14109TIP3    H242271   0.994   7.030   4.459
14110TIP3   OH242272   6.973   2.320   5.089
14110TIP3    H142273   6.885   2.308   5.052
14110TIP3    H242274   7.032   2.292   5.019
14111TIP3   OH242275   7.180   3.632   0.596
14111TIP3    H142276   7.145   3.700   0.655
14111TIP3    H242277   7.162   3.666   0.508
14112TIP3   OH242278   6.599   5.829   0.026
14112TIP3    H142279   6.529   5.836  -0.039
14112TIP3    H242280   6.614   5.735   0.034
14113TIP3   OH242281   5.425   5.682   0.033
14113TIP3    H142282   5.480   5.729  -0.029
14113TIP3    H242283   5.339   5.722   0.025
14114TIP3   OH242284   1.269   5.033   1.787
14114TIP3    H142285   1.227   4.984   1.858
14114TIP3    H242286   1.243   5.124   1.801
14115TIP3   OH242287   6.315   2.333   1.082
14115TIP3    H142288   6.351   2.303   0.999
14115TIP3    H242289   6.259   2.407   1.058
14116TIP3   OH242290   4.046   5.906   0.747
14116TIP3    H142291   3.997   5.960   0.686
14116TIP3    H242292   4.103   5.968   0.793
14117TIP3   OH242293   6.973   1.308   3.487
14117TIP3    H142294   6.936   1.263   3.562
14117TIP3    H242295   6.924   1.390   3.481
14118TIP3   OH242296   5.555   7.181   6.317
14118TIP3    H142297   5.650   7.181   6.322
14118TIP3    H242298   5.529   7.094   6.345
14119TIP3   OH242299   5.733   7.476   0.096
14119TIP3    H142300   5.713   7.436   0.011
14119TIP3    H242301   5.658   7.453   0.151
14120TIP3   OH242302   1.519   4.816   2.638
14120TIP3    H142303   1.578   4.869   2.691
14120TIP3    H242304   1.432   4.851   2.654
14121TIP3   OH242305   7.256   7.710   1.533
14121TIP3    H142306   7.237   7.617   1.538
14121TIP3    H242307   7.238   7.744   1.620
14122TIP3   OH242308   6.918   5.888   2.574
14122TIP3    H142309   6.987   5.909   2.636
14122TIP3    H242310   6.910   5.966   2.519
14123TIP3   OH242311   0.719   4.119   3.617
14123TIP3    H142312   0.715   4.197   3.673
14123TIP3    H242313   0.629   4.108   3.585
14124TIP3   OH242314   0.795   3.112   1.827
14124TIP3    H142315   0.815   3.192   1.875
14124TIP3    H242316   0.832   3.042   1.880
14125TIP3   OH242317   4.426   1.179   4.316
14125TIP3    H142318   4.506   1.181   4.369
14125TIP3    H242319   4.391   1.091   4.330
14126TIP3   OH242320   3.417   1.753   6.720
14126TIP3    H142321   3.428   1.659   6.708
14126TIP3    H242322   3.443   1.769   6.811
14127TIP3   OH242323   6.069   6.879   0.490
14127TIP3    H142324   6.126   6.900   0.564
14127TIP3    H242325   5.997   6.829   0.529
14128TIP3   OH242326   4.440   7.093   6.450
14128TIP3    H142327   4.484   7.171   6.415
14128TIP3    H242328   4.428   7.037   6.373
14129TIP3   OH242329   1.422   2.125   1.932
14129TIP3    H142330   1.380   2.151   2.013
14129TIP3    H242331   1.514   2.151   1.943
14130TIP3   OH242332   1.449   7.236   3.601
14130TIP3    H142333   1.500   7.271   3.673
14130TIP3    H242334   1.493   7.155   3.577
14131TIP3   OH242335   0.665   0.640   5.983
14131TIP3    H142336   0.589   0.679   6.026
14131TIP3    H242337   0.657   0.546   5.999
14132TIP3   OH242338   3.367   7.284   0.558
14132TIP3    H142339   3.401   7.258   0.472
14132TIP3    H242340   3.333   7.372   0.544
14133TIP3   OH242341   8.081   2.682   3.291
14133TIP3    H142342   8.052   2.667   3.381
14133TIP3    H242343   8.119   2.599   3.263
14134TIP3   OH242344   5.162   5.945   3.579
14134TIP3    H142345   5.226   5.886   3.618
14134TIP3    H242346   5.186   6.032   3.610
14135TIP3   OH242347   6.212   1.566   2.875
14135TIP3    H142348   6.155   1.489   2.873
14135TIP3    H242349   6.240   1.577   2.784
14136TIP3   OH242350   4.155   6.601   4.077
14136TIP3    H142351   4.176   6.588   4.169
14136TIP3    H242352   4.059   6.595   4.073
14137TIP3   OH242353   0.114   1.636   1.878
14137TIP3    H142354   0.138   1.614   1.787
14137TIP3    H242355   0.142   1.560   1.929
14138TIP3   OH242356   4.537   4.829   1.567
14138TIP3    H142357   4.594   4.768   1.614
14138TIP3    H242358   4.454   4.783   1.560
14139TIP3   OH242359   2.982   1.755   1.491
14139TIP3    H142360   3.009   1.671   1.454
14139TIP3    H242361   2.914   1.787   1.431
14140TIP3   OH242362   8.160   7.398   6.625
14140TIP3    H142363   8.179   7.425   6.535
14140TIP3    H242364   8.119   7.475   6.665
14141TIP3   OH242365   7.574   5.807   5.924
14141TIP3    H142366   7.609   5.743   5.986
14141TIP3    H242367   7.491   5.769   5.895
14142TIP3   OH242368   0.782   4.496   1.937
14142TIP3    H142369   0.858   4.538   1.899
14142TIP3    H242370   0.786   4.518   2.030
14143TIP3   OH242371   2.933   5.765   0.681
14143TIP3    H142372   3.021   5.788   0.652
14143TIP3    H242373   2.901   5.704   0.615
14144TIP3   OH242374   5.769   2.731   6.720
14144TIP3    H142375   5.758   2.796   6.789
14144TIP3    H242376   5.861   2.738   6.694
14145TIP3   OH242377   3.854   2.220   4.764
14145TIP3    H142378   3.895   2.237   4.680
14145TIP3    H242379   3.911   2.263   4.828
14146TIP3   OH242380   1.031   0.020   5.984
14146TIP3    H142381   1.092   0.093   5.975
14146TIP3    H242382   0.962   0.053   6.042
14147TIP3   OH242383   0.559   0.111   3.890
14147TIP3    H142384   0.589   0.107   3.981
14147TIP3    H242385   0.485   0.172   3.892
14148TIP3   OH242386   1.776   0.500   5.423
14148TIP3    H142387   1.737   0.530   5.505
14148TIP3    H242388   1.823   0.576   5.389
14149TIP3   OH242389   5.576   6.564   6.106
14149TIP3    H142390   5.530   6.646   6.085
14149TIP3    H242391   5.508   6.497   6.102
14150TIP3   OH242392   7.180   4.820   6.244
14150TIP3    H142393   7.123   4.777   6.307
14150TIP3    H242394   7.268   4.793   6.269
14151TIP3   OH242395   5.620   7.029   0.114
14151TIP3    H142396   5.713   7.026   0.137
14151TIP3    H242397   5.593   6.937   0.108
14152TIP3   OH242398   4.797   4.579   6.750
14152TIP3    H142399   4.797   4.617   6.662
14152TIP3    H242400   4.717   4.528   6.755
14153TIP3   OH242401   3.702   5.530   4.735
14153TIP3    H142402   3.702   5.589   4.660
14153TIP3    H242403   3.769   5.465   4.715
14154TIP3   OH242404   7.890   1.641   4.121
14154TIP3    H142405   7.837   1.674   4.050
14154TIP3    H242406   7.848   1.558   4.146
14155TIP3   OH242407   3.486   4.486   4.308
14155TIP3    H142408   3.500   4.403   4.263
14155TIP3    H242409   3.565   4.538   4.288
14156TIP3   OH242410   0.216   0.425   0.966
14156TIP3    H142411   0.266   0.374   0.902
14156TIP3    H242412   0.268   0.503   0.981
14157TIP3   OH242413   4.220   3.311   5.498
14157TIP3    H142414   4.186   3.378   5.438
14157TIP3    H242415   4.177   3.330   5.582
14158TIP3   OH242416   2.119   3.270   3.109
14158TIP3    H142417   2.050   3.334   3.092
14158TIP3    H242418   2.136   3.230   3.024
14159TIP3   OH242419   7.317   6.336   0.149
14159TIP3    H142420   7.332   6.272   0.080
14159TIP3    H242421   7.405   6.362   0.177
14160TIP3   OH242422   1.044   2.735   3.559
14160TIP3    H142423   1.007   2.647   3.567
14160TIP3    H242424   0.998   2.773   3.485
14161TIP3   OH242425   3.730   5.207   4.333
14161TIP3    H142426   3.800   5.273   4.336
14161TIP3    H242427   3.676   5.233   4.258
14162TIP3   OH242428   7.965   0.940   2.990
14162TIP3    H142429   7.932   1.007   3.050
14162TIP3    H242430   8.052   0.970   2.966
14163TIP3   OH242431   2.813   5.190   2.607
14163TIP3    H142432   2.770   5.222   2.527
14163TIP3    H242433   2.882   5.255   2.624
14164TIP3   OH242434   7.490   4.206   3.278
14164TIP3    H142435   7.397   4.195   3.258
14164TIP3    H242436   7.533   4.203   3.192
14165TIP3   OH242437   2.891   4.972   5.909
14165TIP3    H142438   2.839   5.026   5.850
14165TIP3    H242439   2.982   4.987   5.883
14166TIP3   OH242440   1.778   1.341   2.039
14166TIP3    H142441   1.871   1.361   2.033
14166TIP3    H242442   1.774   1.260   2.090
14167TIP3   OH242443   0.005   4.916   2.749
14167TIP3    H142444   0.024   4.848   2.684
14167TIP3    H242445  -0.068   4.965   2.713
14168TIP3   OH242446   4.010   1.830   0.985
14168TIP3    H142447   4.036   1.921   0.968
14168TIP3    H242448   4.085   1.793   1.032
14169TIP3   OH242449   5.867   3.460   6.527
14169TIP3    H142450   5.923   3.531   6.558
14169TIP3    H242451   5.835   3.418   6.606
14170TIP3   OH242452   5.512   2.296   4.322
14170TIP3    H142453   5.491   2.275   4.413
14170TIP3    H242454   5.588   2.242   4.302
14171TIP3   OH242455   1.448   3.918   2.024
14171TIP3    H142456   1.478   3.930   1.934
14171TIP3    H242457   1.481   3.832   2.049
14172TIP3   OH242458   2.005   3.969   2.713
14172TIP3    H142459   2.096   3.997   2.717
14172TIP3    H242460   1.961   4.037   2.664
14173TIP3   OH242461   6.481   0.216   4.813
14173TIP3    H142462   6.429   0.295   4.798
14173TIP3    H242463   6.534   0.236   4.891
14174TIP3   OH242464   1.963   4.745   5.079
14174TIP3    H142465   1.917   4.662   5.074
14174TIP3    H242466   1.910   4.800   5.137
14175TIP3   OH242467   2.233   0.636   3.878
14175TIP3    H142468   2.202   0.548   3.856
14175TIP3    H242469   2.328   0.627   3.889
14176TIP3   OH242470   2.295   1.480   0.323
14176TIP3    H142471   2.310   1.406   0.264
14176TIP3    H242472   2.249   1.544   0.271
14177TIP3   OH242473   2.857   4.438   6.172
14177TIP3    H142474   2.950   4.422   6.163
14177TIP3    H242475   2.815   4.376   6.112
14178TIP3   OH242476   0.596   4.997   3.811
14178TIP3    H142477   0.578   5.072   3.869
14178TIP3    H242478   0.533   5.007   3.740
14179TIP3   OH242479   5.878   6.120   1.254
14179TIP3    H142480   5.966   6.138   1.220
14179TIP3    H242481   5.821   6.179   1.205
14180TIP3   OH242482   5.869   5.243   6.648
14180TIP3    H142483   5.905   5.165   6.605
14180TIP3    H242484   5.902   5.237   6.738
14181TIP3   OH242485   6.982   0.862   1.566
14181TIP3    H142486   6.899   0.833   1.604
14181TIP3    H242487   7.041   0.871   1.640
14182TIP3   OH242488   7.528   3.723   1.287
14182TIP3    H142489   7.488   3.763   1.365
14182TIP3    H242490   7.560   3.798   1.236
14183TIP3   OH242491   3.256   5.386   2.302
14183TIP3    H142492   3.179   5.339   2.268
14183TIP3    H242493   3.324   5.369   2.237
14184TIP3   OH242494   3.403   1.006   1.669
14184TIP3    H142495   3.434   0.980   1.582
14184TIP3    H242496   3.317   0.965   1.676
14185TIP3   OH242497   3.984   7.388   1.651
14185TIP3    H142498   4.023   7.467   1.688
14185TIP3    H242499   3.934   7.349   1.722
14186TIP3   OH242500   6.633   2.650   6.637
14186TIP3    H142501   6.725   2.637   6.615
14186TIP3    H242502   6.630   2.737   6.676
14187TIP3   OH242503   3.660   3.908   6.282
14187TIP3    H142504   3.595   3.964   6.323
14187TIP3    H242505   3.704   3.864   6.355
14188TIP3   OH242506   2.236   7.507   6.410
14188TIP3    H142507   2.169   7.443   6.386
14188TIP3    H242508   2.270   7.477   6.494
14189TIP3   OH242509   4.997   6.460   2.337
14189TIP3    H142510   4.918   6.409   2.323
14189TIP3    H242511   5.069   6.403   2.309
14190TIP3   OH242512   4.558   4.120   2.927
14190TIP3    H142513   4.574   4.027   2.910
14190TIP3    H242514   4.510   4.121   3.011
14191TIP3   OH242515   7.097   2.268   1.537
14191TIP3    H142516   7.091   2.216   1.457
14191TIP3    H242517   7.013   2.254   1.581
14192TIP3   OH242518   5.150   3.350   0.715
14192TIP3    H142519   5.217   3.330   0.780
14192TIP3    H242520   5.194   3.342   0.631
14193TIP3   OH242521   4.604   1.426   2.776
14193TIP3    H142522   4.559   1.379   2.847
14193TIP3    H242523   4.535   1.449   2.715
14194TIP3   OH242524   5.204   3.714   1.103
14194TIP3    H142525   5.230   3.755   1.186
14194TIP3    H242526   5.178   3.788   1.047
14195TIP3   OH242527   6.963   3.828   4.560
14195TIP3    H142528   6.898   3.779   4.611
14195TIP3    H242529   7.034   3.765   4.545
14196TIP3   OH242530   2.307   3.426   2.784
14196TIP3    H142531   2.283   3.519   2.787
14196TIP3    H242532   2.274   3.396   2.699
14197TIP3   OH242533   8.012   0.224   6.858
14197TIP3    H142534   7.974   0.308   6.881
14197TIP3    H242535   8.106   0.241   6.854
14198TIP3   OH242536   3.809   3.802   3.708
14198TIP3    H142537   3.902   3.826   3.718
14198TIP3    H242538   3.776   3.796   3.798
14199TIP3   OH242539   0.016   1.792   4.241
14199TIP3    H142540  -0.025   1.878   4.238
14199TIP3    H242541   0.051   1.784   4.330
14200TIP3   OH242542   4.884   3.573   1.198
14200TIP3    H142543   4.906   3.603   1.286
14200TIP3    H242544   4.906   3.480   1.199
14201TIP3   OH242545   0.521   7.160   4.871
14201TIP3    H142546   0.448   7.121   4.823
14201TIP3    H242547   0.515   7.254   4.853
14202TIP3   OH242548   2.558   5.314   5.906
14202TIP3    H142549   2.619   5.378   5.942
14202TIP3    H242550   2.516   5.358   5.832
14203TIP3   OH242551   5.862   5.691   4.158
14203TIP3    H142552   5.769   5.669   4.169
14203TIP3    H242553   5.896   5.698   4.247
14204TIP3   OH242554   5.824   5.646   2.384
14204TIP3    H142555   5.835   5.722   2.327
14204TIP3    H242556   5.888   5.583   2.353
14205TIP3   OH242557   3.313   5.306   4.382
14205TIP3    H142558   3.268   5.383   4.348
14205TIP3    H242559   3.367   5.340   4.453
14206TIP3   OH242560   5.887   0.441   4.388
14206TIP3    H142561   5.905   0.347   4.390
14206TIP3    H242562   5.933   0.476   4.465
14207TIP3   OH242563   1.044   1.155   6.246
14207TIP3    H142564   1.039   1.130   6.338
14207TIP3    H242565   0.957   1.189   6.226
14208TIP3   OH242566   3.513   3.558   2.062
14208TIP3    H142567   3.592   3.547   2.116
14208TIP3    H242568   3.510   3.652   2.044
14209TIP3   OH242569   3.794   7.776   0.860
14209TIP3    H142570   3.837   7.700   0.897
14209TIP3    H242571   3.737   7.809   0.931
14210TIP3   OH242572   0.756   1.913   5.121
14210TIP3    H142573   0.823   1.981   5.126
14210TIP3    H242574   0.673   1.959   5.132
14211TIP3   OH242575   2.065   3.179   4.736
14211TIP3    H142576   2.136   3.156   4.796
14211TIP3    H242577   2.010   3.239   4.786
14212TIP3   OH242578   2.928   1.232   3.865
14212TIP3    H142579   2.990   1.275   3.923
14212TIP3    H242580   2.869   1.184   3.923
14213TIP3   OH242581   0.996   2.640   1.237
14213TIP3    H142582   0.943   2.562   1.251
14213TIP3    H242583   0.995   2.685   1.322
14214TIP3   OH242584   1.554   0.528   1.189
14214TIP3    H142585   1.568   0.527   1.095
14214TIP3    H242586   1.467   0.566   1.200
14215TIP3   OH242587   7.248   7.202   3.809
14215TIP3    H142588   7.319   7.245   3.762
14215TIP3    H242589   7.244   7.247   3.893
14216TIP3   OH242590   3.785   5.272   3.808
14216TIP3    H142591   3.704   5.238   3.847
14216TIP3    H242592   3.853   5.212   3.838
14217TIP3   OH242593   5.418   7.290   5.967
14217TIP3    H142594   5.500   7.292   5.916
14217TIP3    H242595   5.349   7.301   5.901
14218TIP3   OH242596   3.853   0.233   1.349
14218TIP3    H142597   3.942   0.253   1.320
14218TIP3    H242598   3.849   0.137   1.347
14219TIP3   OH242599   5.162   4.515   5.999
14219TIP3    H142600   5.083   4.464   5.982
14219TIP3    H242601   5.130   4.604   6.010
14220TIP3   OH242602   2.626   5.788   4.180
14220TIP3    H142603   2.532   5.777   4.185
14220TIP3    H242604   2.649   5.834   4.261
14221TIP3   OH242605   8.166   3.062   4.331
14221TIP3    H142606   8.238   3.113   4.368
14221TIP3    H242607   8.090   3.120   4.335
14222TIP3   OH242608   8.076   0.614   4.836
14222TIP3    H142609   8.082   0.707   4.856
14222TIP3    H242610   8.030   0.610   4.752
14223TIP3   OH242611   6.303   2.630   1.318
14223TIP3    H142612   6.302   2.678   1.235
14223TIP3    H242613   6.211   2.616   1.338
14224TIP3   OH242614   2.454   1.380   3.228
14224TIP3    H142615   2.391   1.350   3.162
14224TIP3    H242616   2.417   1.353   3.311
14225TIP3   OH242617   7.255   0.948   0.997
14225TIP3    H142618   7.313   0.905   0.935
14225TIP3    H242619   7.232   1.031   0.954
14226TIP3   OH242620   6.582   2.867   5.833
14226TIP3    H142621   6.558   2.777   5.853
14226TIP3    H242622   6.502   2.917   5.847
14227TIP3   OH242623   0.160   3.087   5.185
14227TIP3    H142624   0.225   3.088   5.255
14227TIP3    H242625   0.169   3.172   5.143
14228TIP3   OH242626   7.302   5.152   6.057
14228TIP3    H142627   7.307   5.139   6.151
14228TIP3    H242628   7.254   5.234   6.046
14229TIP3   OH242629   1.917   5.760   2.048
14229TIP3    H142630   1.860   5.803   2.112
14229TIP3    H242631   1.856   5.720   1.985
14230TIP3   OH242632   2.364   1.718   2.325
14230TIP3    H142633   2.439   1.725   2.265
14230TIP3    H242634   2.320   1.637   2.300
14231TIP3   OH242635   1.043   7.139   5.374
14231TIP3    H142636   1.084   7.054   5.390
14231TIP3    H242637   0.954   7.117   5.344
14232TIP3   OH242638   4.701   0.755   2.866
14232TIP3    H142639   4.660   0.793   2.788
14232TIP3    H242640   4.792   0.740   2.840
14233TIP3   OH242641   5.405   0.219   4.251
14233TIP3    H142642   5.386   0.303   4.210
14233TIP3    H242643   5.489   0.232   4.295
14234TIP3   OH242644   7.658   2.159   1.861
14234TIP3    H142645   7.741   2.111   1.864
14234TIP3    H242646   7.613   2.125   1.783
14235TIP3   OH242647   6.593   3.597   5.012
14235TIP3    H142648   6.596   3.502   5.021
14235TIP3    H242649   6.609   3.630   5.100
14236TIP3   OH242650   6.444   1.880   5.760
14236TIP3    H142651   6.510   1.937   5.798
14236TIP3    H242652   6.365   1.933   5.755
14237TIP3   OH242653   4.245   2.818   5.719
14237TIP3    H142654   4.173   2.768   5.758
14237TIP3    H242655   4.307   2.751   5.689
14238TIP3   OH242656   5.352   4.921   0.198
14238TIP3    H142657   5.387   5.011   0.192
14238TIP3    H242658   5.273   4.923   0.144
14239TIP3   OH242659   7.849   3.120   5.579
14239TIP3    H142660   7.783   3.136   5.647
14239TIP3    H242661   7.860   3.205   5.537
14240TIP3   OH242662   4.556   6.195   6.607
14240TIP3    H142663   4.648   6.192   6.584
14240TIP3    H242664   4.544   6.282   6.646
14241TIP3   OH242665   0.782   0.957   3.533
14241TIP3    H142666   0.798   1.051   3.525
14241TIP3    H242667   0.853   0.916   3.483
14242TIP3   OH242668   1.286   1.942   6.369
14242TIP3    H142669   1.360   1.984   6.412
14242TIP3    H242670   1.237   1.900   6.439
14243TIP3   OH242671   3.637   4.467   5.158
14243TIP3    H142672   3.732   4.475   5.168
14243TIP3    H242673   3.601   4.491   5.243
14244TIP3   OH242674   7.072   1.959   4.705
14244TIP3    H142675   6.997   1.903   4.687
14244TIP3    H242676   7.098   1.993   4.619
14245TIP3   OH242677   7.692   0.279   5.213
14245TIP3    H142678   7.681   0.214   5.144
14245TIP3    H242679   7.687   0.364   5.168
14246TIP3   OH242680   3.549   6.022   0.771
14246TIP3    H142681   3.557   5.965   0.694
14246TIP3    H242682   3.609   5.984   0.835
14247TIP3   OH242683   4.598   2.914   3.148
14247TIP3    H142684   4.615   2.826   3.114
14247TIP3    H242685   4.679   2.936   3.195
14248TIP3   OH242686   6.499   5.342   3.684
14248TIP3    H142687   6.478   5.262   3.635
14248TIP3    H242688   6.425   5.354   3.744
14249TIP3   OH242689   3.309   3.411   5.984
14249TIP3    H142690   3.217   3.387   5.979
14249TIP3    H242691   3.331   3.401   6.077
14250TIP3   OH242692   3.089   4.967   5.433
14250TIP3    H142693   3.154   4.923   5.378
14250TIP3    H242694   3.011   4.972   5.379
14251TIP3   OH242695   0.228   2.793   3.035
14251TIP3    H142696   0.160   2.829   3.092
14251TIP3    H242697   0.181   2.763   2.957
14252TIP3   OH242698   7.587   0.798   3.298
14252TIP3    H142699   7.612   0.759   3.382
14252TIP3    H242700   7.581   0.724   3.238
14253TIP3   OH242701   5.011   0.082   4.555
14253TIP3    H142702   4.980   0.038   4.476
14253TIP3    H242703   4.933   0.119   4.595
14254TIP3   OH242704   8.116   0.788   3.324
14254TIP3    H142705   8.170   0.866   3.340
14254TIP3    H242706   8.105   0.786   3.229
14255TIP3   OH242707   2.432   0.403   4.769
14255TIP3    H142708   2.486   0.478   4.795
14255TIP3    H242709   2.495   0.336   4.744
14256TIP3   OH242710   0.370   3.100   1.590
14256TIP3    H142711   0.335   3.183   1.559
14256TIP3    H242712   0.318   3.034   1.545
14257TIP3   OH242713   3.680   5.958   3.053
14257TIP3    H142714   3.685   5.972   2.958
14257TIP3    H242715   3.660   5.865   3.063
14258TIP3   OH242716   5.504   2.776   2.548
14258TIP3    H142717   5.419   2.743   2.517
14258TIP3    H242718   5.488   2.869   2.566
14259TIP3   OH242719   3.151   2.697   0.942
14259TIP3    H142720   3.160   2.791   0.956
14259TIP3    H242721   3.126   2.688   0.850
14260TIP3   OH242722   3.392   6.093   0.216
14260TIP3    H142723   3.353   6.006   0.203
14260TIP3    H242724   3.336   6.152   0.165
14261TIP3   OH242725   2.633   6.481   3.369
14261TIP3    H142726   2.637   6.386   3.370
14261TIP3    H242727   2.600   6.505   3.456
14262TIP3   OH242728   3.905   6.183   3.192
14262TIP3    H142729   3.912   6.118   3.121
14262TIP3    H242730   3.934   6.265   3.153
14263TIP3   OH242731   3.747   1.936   3.843
14263TIP3    H142732   3.795   1.881   3.781
14263TIP3    H242733   3.732   1.879   3.919
14264TIP3   OH242734   7.238   3.922   1.182
14264TIP3    H142735   7.299   3.919   1.256
14264TIP3    H242736   7.288   3.887   1.108
14265TIP3   OH242737   8.154   4.680   2.444
14265TIP3    H142738   8.166   4.608   2.507
14265TIP3    H242739   8.219   4.663   2.377
14266TIP3   OH242740   4.263   1.270   6.328
14266TIP3    H142741   4.299   1.244   6.413
14266TIP3    H242742   4.325   1.235   6.265
14267TIP3   OH242743   5.412   2.558   0.468
14267TIP3    H142744   5.475   2.487   0.456
14267TIP3    H242745   5.449   2.631   0.417
14268TIP3   OH242746   4.949   6.972   5.803
14268TIP3    H142747   4.940   6.949   5.711
14268TIP3    H242748   5.041   6.996   5.813
14269TIP3   OH242749   5.049   0.312   1.933
14269TIP3    H142750   4.978   0.375   1.927
14269TIP3    H242751   5.113   0.353   1.991
14270TIP3   OH242752   5.890   4.824   0.487
14270TIP3    H142753   5.839   4.755   0.531
14270TIP3    H242754   5.953   4.776   0.434
14271TIP3   OH242755   4.297   1.920   0.721
14271TIP3    H142756   4.330   1.839   0.682
14271TIP3    H242757   4.242   1.959   0.652
14272TIP3   OH242758   0.920   5.388   3.769
14272TIP3    H142759   0.917   5.321   3.701
14272TIP3    H242760   0.956   5.344   3.845
14273TIP3   OH242761   3.739   0.439   6.393
14273TIP3    H142762   3.663   0.383   6.377
14273TIP3    H242763   3.713   0.495   6.466
14274TIP3   OH242764   0.395   1.710   6.201
14274TIP3    H142765   0.403   1.790   6.148
14274TIP3    H242766   0.415   1.639   6.140
14275TIP3   OH242767   2.558   3.079   1.730
14275TIP3    H142768   2.560   3.099   1.637
14275TIP3    H242769   2.575   3.164   1.773
14276TIP3   OH242770   3.280   6.978   4.999
14276TIP3    H142771   3.272   6.913   5.069
14276TIP3    H242772   3.191   6.990   4.967
14277TIP3   OH242773   5.788   5.924   1.916
14277TIP3    H142774   5.783   5.940   1.822
14277TIP3    H242775   5.769   5.831   1.926
14278TIP3   OH242776   7.540   3.936   2.462
14278TIP3    H142777   7.562   3.858   2.514
14278TIP3    H242778   7.483   3.903   2.394
14279TIP3   OH242779   7.397   7.745   6.607
14279TIP3    H142780   7.364   7.834   6.618
14279TIP3    H242781   7.318   7.691   6.606
14280TIP3   OH242782   6.463   4.942   4.924
14280TIP3    H142783   6.414   4.872   4.882
14280TIP3    H242784   6.532   4.897   4.973
14281TIP3   OH242785   3.688   5.967   2.784
14281TIP3    H142786   3.738   5.887   2.772
14281TIP3    H242787   3.752   6.037   2.776
14282TIP3   OH242788   7.689   0.081   6.399
14282TIP3    H142789   7.747   0.127   6.460
14282TIP3    H242790   7.601   0.109   6.424
14283TIP3   OH242791   5.282   2.700   2.426
14283TIP3    H142792   5.341   2.730   2.357
14283TIP3    H242793   5.292   2.604   2.426
14284TIP3   OH242794   3.047   4.345   3.542
14284TIP3    H142795   3.132   4.304   3.532
14284TIP3    H242796   3.008   4.342   3.454
14285TIP3   OH242797   6.754   5.113   3.332
14285TIP3    H142798   6.764   5.113   3.237
14285TIP3    H242799   6.687   5.179   3.350
14286TIP3   OH242800   6.427   6.328   6.191
14286TIP3    H142801   6.336   6.305   6.175
14286TIP3    H242802   6.473   6.244   6.197
14287TIP3   OH242803   2.375   6.869   1.623
14287TIP3    H142804   2.433   6.853   1.549
14287TIP3    H242805   2.319   6.792   1.627
14288TIP3   OH242806   5.444   2.020   3.510
14288TIP3    H142807   5.510   1.956   3.539
14288TIP3    H242808   5.428   2.074   3.588
14289TIP3   OH242809   0.519   1.215   4.975
14289TIP3    H142810   0.483   1.251   4.894
14289TIP3    H242811   0.487   1.125   4.978
14290TIP3   OH242812   4.577   7.407   3.491
14290TIP3    H142813   4.562   7.485   3.436
14290TIP3    H242814   4.655   7.367   3.452
14291TIP3   OH242815   7.688   7.598   0.596
14291TIP3    H142816   7.674   7.503   0.597
14291TIP3    H242817   7.605   7.635   0.626
14292TIP3   OH242818   6.176   5.808   4.952
14292TIP3    H142819   6.112   5.874   4.927
14292TIP3    H242820   6.191   5.757   4.873
14293TIP3   OH242821   5.675   3.229   3.891
14293TIP3    H142822   5.597   3.250   3.840
14293TIP3    H242823   5.685   3.134   3.883
14294TIP3   OH242824   5.770   3.852   4.749
14294TIP3    H142825   5.715   3.887   4.819
14294TIP3    H242826   5.726   3.773   4.719
14295TIP3   OH242827   3.797   3.575   5.443
14295TIP3    H142828   3.806   3.598   5.536
14295TIP3    H242829   3.869   3.515   5.426
14296TIP3   OH242830   5.634   5.770   0.630
14296TIP3    H142831   5.574   5.804   0.563
14296TIP3    H242832   5.657   5.848   0.681
14297TIP3   OH242833   7.620   4.267   3.016
14297TIP3    H142834   7.660   4.345   2.977
14297TIP3    H242835   7.657   4.194   2.968
14298TIP3   OH242836   7.039   6.164   4.069
14298TIP3    H142837   7.112   6.149   4.009
14298TIP3    H242838   6.967   6.111   4.034
14299TIP3   OH242839   6.630   5.973   4.318
14299TIP3    H142840   6.671   5.963   4.232
14299TIP3    H242841   6.626   6.068   4.330
14300TIP3   OH242842   7.511   7.701   1.348
14300TIP3    H142843   7.495   7.612   1.314
14300TIP3    H242844   7.460   7.705   1.429
14301TIP3   OH242845   1.499   2.770   1.281
14301TIP3    H142846   1.526   2.830   1.351
14301TIP3    H242847   1.558   2.791   1.208
14302TIP3   OH242848   5.285   2.365   5.570
14302TIP3    H142849   5.371   2.354   5.609
14302TIP3    H242850   5.229   2.396   5.642
14303TIP3   OH242851   2.741   0.807   1.443
14303TIP3    H142852   2.716   0.723   1.405
14303TIP3    H242853   2.660   0.844   1.477
14304TIP3   OH242854   0.801   2.174   2.463
14304TIP3    H142855   0.823   2.183   2.370
14304TIP3    H242856   0.708   2.151   2.464
14305TIP3   OH242857   3.678   4.163   5.585
14305TIP3    H142858   3.701   4.171   5.493
14305TIP3    H242859   3.628   4.243   5.603
14306TIP3   OH242860  -0.008   6.039   3.003
14306TIP3    H142861  -0.085   6.062   3.055
14306TIP3    H242862   0.067   6.064   3.058
14307TIP3   OH242863   5.782   5.827   4.674
14307TIP3    H142864   5.737   5.744   4.682
14307TIP3    H242865   5.849   5.825   4.743
14308TIP3   OH242866   3.279   7.108   3.893
14308TIP3    H142867   3.345   7.045   3.865
14308TIP3    H242868   3.231   7.130   3.813
14309TIP3   OH242869   5.711   6.029   0.281
14309TIP3    H142870   5.644   5.962   0.270
14309TIP3    H242871   5.794   5.983   0.266
14310TIP3   OH242872   4.251   7.529   5.048
14310TIP3    H142873   4.335   7.537   5.002
14310TIP3    H242874   4.236   7.615   5.086
14311TIP3   OH242875   1.263   6.720   4.300
14311TIP3    H142876   1.187   6.695   4.352
14311TIP3    H242877   1.245   6.810   4.273
14312TIP3   OH242878   5.920   0.833   3.080
14312TIP3    H142879   5.940   0.740   3.066
14312TIP3    H242880   5.824   0.837   3.077
14313TIP3   OH242881   3.720   6.492   3.330
14313TIP3    H142882   3.804   6.478   3.372
14313TIP3    H242883   3.709   6.588   3.329
14314TIP3   OH242884   6.824   2.208   1.734
14314TIP3    H142885   6.826   2.115   1.756
14314TIP3    H242886   6.731   2.232   1.737
14315TIP3   OH242887   4.703   6.301   4.808
14315TIP3    H142888   4.734   6.263   4.890
14315TIP3    H242889   4.721   6.234   4.742
14316TIP3   OH242890   0.908   2.503   3.584
14316TIP3    H142891   0.829   2.484   3.635
14316TIP3    H242892   0.880   2.495   3.493
14317TIP3   OH242893   0.731   2.481   1.622
14317TIP3    H142894   0.676   2.470   1.700
14317TIP3    H242895   0.817   2.447   1.647
14318TIP3   OH242896   8.192   6.130   0.996
14318TIP3    H142897   8.142   6.199   0.953
14318TIP3    H242898   8.144   6.113   1.077
14319TIP3   OH242899   6.163   5.026   1.117
14319TIP3    H142900   6.136   5.002   1.206
14319TIP3    H242901   6.257   5.041   1.124
14320TIP3   OH242902   8.268   4.610   4.364
14320TIP3    H142903   8.181   4.592   4.399
14320TIP3    H242904   8.267   4.573   4.276
14321TIP3   OH242905   3.475   7.694   4.538
14321TIP3    H142906   3.539   7.728   4.600
14321TIP3    H242907   3.527   7.650   4.471
14322TIP3   OH242908   1.975   0.041   2.786
14322TIP3    H142909   2.056  -0.007   2.800
14322TIP3    H242910   1.982   0.119   2.841
14323TIP3   OH242911   5.105   0.019   6.753
14323TIP3    H142912   5.190   0.031   6.796
14323TIP3    H242913   5.125  -0.031   6.674
14324TIP3   OH242914   4.524   4.808   6.480
14324TIP3    H142915   4.497   4.736   6.538
14324TIP3    H242916   4.518   4.772   6.392
14325TIP3   OH242917   5.770   2.891   4.089
14325TIP3    H142918   5.676   2.903   4.074
14325TIP3    H242919   5.802   2.852   4.008
14326TIP3   OH242920   6.742   5.144   6.014
14326TIP3    H142921   6.654   5.122   6.045
14326TIP3    H242922   6.764   5.074   5.953
14327TIP3   OH242923   2.985   6.324   0.292
14327TIP3    H142924   2.964   6.361   0.378
14327TIP3    H242925   2.937   6.378   0.230
14328TIP3   OH242926   7.895   0.790   5.998
14328TIP3    H142927   7.926   0.878   6.014
14328TIP3    H242928   7.890   0.750   6.085
14329TIP3   OH242929   1.072   5.399   5.663
14329TIP3    H142930   1.002   5.444   5.711
14329TIP3    H242931   1.026   5.340   5.603
14330TIP3   OH242932   4.680   1.900   4.570
14330TIP3    H142933   4.770   1.931   4.584
14330TIP3    H242934   4.667   1.907   4.476
14331TIP3   OH242935   3.277   4.241   6.364
14331TIP3    H142936   3.236   4.259   6.449
14331TIP3    H242937   3.301   4.327   6.330
14332TIP3   OH242938   2.136   1.303   4.234
14332TIP3    H142939   2.137   1.372   4.167
14332TIP3    H242940   2.103   1.346   4.313
14333TIP3   OH242941   1.367   2.223   2.188
14333TIP3    H142942   1.400   2.309   2.214
14333TIP3    H242943   1.282   2.216   2.232
14334TIP3   OH242944   4.010   6.054   2.890
14334TIP3    H142945   3.937   6.114   2.872
14334TIP3    H242946   4.077   6.078   2.826
14335TIP3   OH242947   5.309   6.908   1.010
14335TIP3    H142948   5.287   6.867   1.094
14335TIP3    H242949   5.393   6.869   0.986
14336TIP3   OH242950   2.536   1.377   2.009
14336TIP3    H142951   2.583   1.307   1.964
14336TIP3    H242952   2.479   1.332   2.071
14337TIP3   OH242953   7.541   7.386   4.985
14337TIP3    H142954   7.605   7.367   4.917
14337TIP3    H242955   7.495   7.463   4.954
14338TIP3   OH242956   4.661   2.235   1.645
14338TIP3    H142957   4.612   2.191   1.715
14338TIP3    H242958   4.750   2.243   1.679
14339TIP3   OH242959   6.875   7.320   2.691
14339TIP3    H142960   6.869   7.231   2.728
14339TIP3    H242961   6.807   7.369   2.737
14340TIP3   OH242962   6.798   1.284   6.718
14340TIP3    H142963   6.773   1.191   6.720
14340TIP3    H242964   6.800   1.310   6.810
14341TIP3   OH242965   3.896   5.361   2.784
14341TIP3    H142966   3.857   5.277   2.760
14341TIP3    H242967   3.830   5.426   2.760
14342TIP3   OH242968   5.925   2.576   3.895
14342TIP3    H142969   5.956   2.568   3.985
14342TIP3    H242970   5.997   2.542   3.842
14343TIP3   OH242971   1.409   3.758   0.480
14343TIP3    H142972   1.369   3.764   0.393
14343TIP3    H242973   1.436   3.847   0.500
14344TIP3   OH242974   1.863   1.609   5.455
14344TIP3    H142975   1.914   1.651   5.524
14344TIP3    H242976   1.857   1.518   5.482
14345TIP3   OH242977   6.990   2.227   0.932
14345TIP3    H142978   6.996   2.229   0.836
14345TIP3    H242979   7.019   2.139   0.956
14346TIP3   OH242980   6.023   4.912   1.624
14346TIP3    H142981   6.036   4.981   1.690
14346TIP3    H242982   5.936   4.878   1.641
14347TIP3   OH242983   8.094   5.959   4.314
14347TIP3    H142984   8.001   5.937   4.311
14347TIP3    H242985   8.127   5.918   4.394
14348TIP3   OH242986   1.896   3.807   1.378
14348TIP3    H142987   1.802   3.823   1.384
14348TIP3    H242988   1.928   3.873   1.316
14349TIP3   OH242989   8.236   0.469   1.594
14349TIP3    H142990   8.237   0.417   1.514
14349TIP3    H242991   8.184   0.547   1.571
14350TIP3   OH242992   2.918   2.001   4.522
14350TIP3    H142993   2.964   2.031   4.443
14350TIP3    H242994   2.873   2.078   4.555
14351TIP3   OH242995   7.958   1.798   5.195
14351TIP3    H142996   7.905   1.729   5.156
14351TIP3    H242997   7.936   1.796   5.288
14352TIP3   OH242998   2.582   1.660   5.913
14352TIP3    H142999   2.586   1.717   5.989
14352TIP3    H243000   2.492   1.627   5.911
14353TIP3   OH243001   0.103   7.341   4.469
14353TIP3    H143002   0.170   7.366   4.405
14353TIP3    H243003   0.137   7.372   4.553
14354TIP3   OH243004   2.850   3.425   4.399
14354TIP3    H143005   2.893   3.476   4.330
14354TIP3    H243006   2.814   3.349   4.353
14355TIP3   OH243007   6.316   5.795   3.036
14355TIP3    H143008   6.396   5.818   2.989
14355TIP3    H243009   6.307   5.862   3.103
14356TIP3   OH243010   5.110   3.606   6.710
14356TIP3    H143011   5.124   3.675   6.646
14356TIP3    H243012   5.156   3.635   6.788
14357TIP3   OH243013   0.413   0.620   2.537
14357TIP3    H143014   0.413   0.661   2.450
14357TIP3    H243015   0.505   0.620   2.564
14358TIP3   OH243016   0.142   0.938   1.447
14358TIP3    H143017   0.211   0.991   1.407
14358TIP3    H243018   0.064   0.993   1.443
14359TIP3   OH243019   2.261   3.432   3.893
14359TIP3    H143020   2.219   3.346   3.891
14359TIP3    H243021   2.342   3.417   3.943
14360TIP3   OH243022   4.375   1.240   6.571
14360TIP3    H143023   4.361   1.325   6.612
14360TIP3    H243024   4.437   1.257   6.500
14361TIP3   OH243025   1.870   4.184   2.623
14361TIP3    H143026   1.838   4.233   2.548
14361TIP3    H243027   1.816   4.213   2.696
14362TIP3   OH243028   7.678   2.626   3.656
14362TIP3    H143029   7.750   2.571   3.687
14362TIP3    H243030   7.700   2.644   3.564
14363TIP3   OH243031   6.396   4.745   4.735
14363TIP3    H143032   6.423   4.735   4.644
14363TIP3    H243033   6.395   4.655   4.769
14364TIP3   OH243034   6.278   3.681   2.100
14364TIP3    H143035   6.270   3.751   2.035
14364TIP3    H243036   6.223   3.709   2.173
14365TIP3   OH243037   0.840   1.185   1.723
14365TIP3    H143038   0.818   1.225   1.807
14365TIP3    H243039   0.862   1.094   1.745
14366TIP3   OH243040   0.901   3.434   4.017
14366TIP3    H143041   0.890   3.509   4.076
14366TIP3    H243042   0.854   3.363   4.060
14367TIP3   OH243043   8.130   6.922   2.857
14367TIP3    H143044   8.117   6.832   2.887
14367TIP3    H243045   8.168   6.968   2.932
14368TIP3   OH243046   6.243   4.283   0.993
14368TIP3    H143047   6.207   4.214   1.049
14368TIP3    H243048   6.167   4.331   0.962
14369TIP3   OH243049   5.048   0.317   3.514
14369TIP3    H143050   5.081   0.407   3.519
14369TIP3    H243051   5.107   0.267   3.571
14370TIP3   OH243052   4.654   5.524   4.614
14370TIP3    H143053   4.585   5.484   4.561
14370TIP3    H243054   4.629   5.616   4.621
14371TIP3   OH243055   4.545   1.948   3.703
14371TIP3    H143056   4.578   2.004   3.773
14371TIP3    H243057   4.467   1.993   3.672
14372TIP3   OH243058   1.392   0.700   2.696
14372TIP3    H143059   1.344   0.683   2.615
14372TIP3    H243060   1.363   0.787   2.723
14373TIP3   OH243061   5.108   3.286   3.107
14373TIP3    H143062   5.017   3.312   3.102
14373TIP3    H243063   5.157   3.367   3.094
14374TIP3   OH243064   2.704   0.755   3.325
14374TIP3    H143065   2.756   0.718   3.254
14374TIP3    H243066   2.763   0.815   3.370
14375TIP3   OH243067   3.688   6.090   0.226
14375TIP3    H143068   3.699   6.019   0.162
14375TIP3    H243069   3.595   6.115   0.219
14376TIP3   OH243070   1.077   7.100   2.382
14376TIP3    H143071   1.107   7.009   2.388
14376TIP3    H243072   1.105   7.130   2.296
14377TIP3   OH243073   6.236   7.409   3.600
14377TIP3    H143074   6.278   7.390   3.684
14377TIP3    H243075   6.191   7.492   3.614
14378TIP3   OH243076   6.659   1.500   2.249
14378TIP3    H143077   6.712   1.577   2.229
14378TIP3    H243078   6.568   1.532   2.248
14379TIP3   OH243079   2.039   1.111   5.565
14379TIP3    H143080   2.108   1.050   5.540
14379TIP3    H243081   1.981   1.114   5.489
14380TIP3   OH243082   5.864   6.653   1.104
14380TIP3    H143083   5.956   6.654   1.129
14380TIP3    H243084   5.823   6.718   1.160
14381TIP3   OH243085   2.212   4.209   4.215
14381TIP3    H143086   2.225   4.289   4.164
14381TIP3    H243087   2.182   4.144   4.152
14382TIP3   OH243088   2.133   0.554   3.333
14382TIP3    H143089   2.038   0.555   3.342
14382TIP3    H243090   2.153   0.627   3.274
14383TIP3   OH243091   1.155   6.131   5.904
14383TIP3    H143092   1.238   6.164   5.936
14383TIP3    H243093   1.141   6.050   5.953
14384TIP3   OH243094   0.506   2.417   3.547
14384TIP3    H143095   0.478   2.435   3.458
14384TIP3    H243096   0.437   2.361   3.584
14385TIP3   OH243097   8.048   0.876   4.477
14385TIP3    H143098   8.033   0.955   4.425
14385TIP3    H243099   8.086   0.814   4.415
14386TIP3   OH243100   2.815   5.139   6.264
14386TIP3    H143101   2.910   5.151   6.254
14386TIP3    H243102   2.782   5.225   6.287
14387TIP3   OH243103   1.043   7.782   4.419
14387TIP3    H143104   1.096   7.802   4.496
14387TIP3    H243105   0.954   7.806   4.443
14388TIP3   OH243106   1.916   6.452   6.773
14388TIP3    H143107   1.971   6.449   6.695
14388TIP3    H243108   1.979   6.454   6.846
14389TIP3   OH243109   5.956   1.262   4.941
14389TIP3    H143110   5.988   1.303   5.021
14389TIP3    H243111   5.864   1.240   4.960
14390TIP3   OH243112   4.325   7.593   6.282
14390TIP3    H143113   4.355   7.507   6.314
14390TIP3    H243114   4.250   7.573   6.226
14391TIP3   OH243115   2.142   7.272   5.713
14391TIP3    H143116   2.105   7.307   5.632
14391TIP3    H243117   2.201   7.203   5.685
14392TIP3   OH243118   5.036   4.554   6.307
14392TIP3    H143119   5.127   4.546   6.335
14392TIP3    H243120   5.039   4.615   6.233
14393TIP3   OH243121   6.988   3.715   2.556
14393TIP3    H143122   7.005   3.625   2.527
14393TIP3    H243123   7.073   3.749   2.582
14394TIP3   OH243124   5.804   3.903   2.202
14394TIP3    H143125   5.767   3.824   2.162
14394TIP3    H243126   5.812   3.965   2.130
14395TIP3   OH243127   5.666   4.551   6.731
14395TIP3    H143128   5.673   4.640   6.766
14395TIP3    H243129   5.719   4.553   6.651
14396TIP3   OH243130   1.311   5.512   0.463
14396TIP3    H143131   1.354   5.495   0.546
14396TIP3    H243132   1.257   5.434   0.447
14397TIP3   OH243133   3.844   5.695   0.719
14397TIP3    H143134   3.843   5.664   0.810
14397TIP3    H243135   3.913   5.761   0.717
14398TIP3   OH243136   4.108   0.683   0.514
14398TIP3    H143137   4.078   0.743   0.581
14398TIP3    H243138   4.108   0.597   0.556
14399TIP3   OH243139   1.137   7.120   1.541
14399TIP3    H143140   1.183   7.109   1.624
14399TIP3    H243141   1.084   7.040   1.533
14400TIP3   OH243142   3.693   2.376   6.633
14400TIP3    H143143   3.720   2.306   6.694
14400TIP3    H243144   3.739   2.355   6.552
14401TIP3   OH243145   4.133   7.414   6.226
14401TIP3    H143146   4.132   7.395   6.320
14401TIP3    H243147   4.128   7.328   6.184
14402TIP3   OH243148   5.348   4.639   1.350
14402TIP3    H143149   5.421   4.665   1.406
14402TIP3    H243150   5.272   4.639   1.408
14403TIP3   OH243151   5.178   1.488   1.290
14403TIP3    H143152   5.150   1.579   1.285
14403TIP3    H243153   5.101   1.441   1.322
14404TIP3   OH243154   0.597   5.302   2.835
14404TIP3    H143155   0.544   5.233   2.875
14404TIP3    H243156   0.633   5.351   2.909
14405TIP3   OH243157   2.669   6.550   2.701
14405TIP3    H143158   2.711   6.626   2.741
14405TIP3    H243159   2.728   6.477   2.721
14406TIP3   OH243160   7.427   7.097   4.286
14406TIP3    H143161   7.505   7.147   4.263
14406TIP3    H243162   7.416   7.035   4.214
14407TIP3   OH243163   3.396   7.129   5.616
14407TIP3    H143164   3.363   7.191   5.551
14407TIP3    H243165   3.429   7.185   5.687
14408TIP3   OH243166   7.825   7.612   3.422
14408TIP3    H143167   7.838   7.699   3.386
14408TIP3    H243168   7.903   7.563   3.398
14409TIP3   OH243169   6.711   7.214   1.902
14409TIP3    H143170   6.802   7.239   1.887
14409TIP3    H243171   6.663   7.297   1.906
14410TIP3   OH243172   2.814   3.605   0.265
14410TIP3    H143173   2.867   3.682   0.286
14410TIP3    H243174   2.836   3.585   0.174
14411TIP3   OH243175   6.803   7.582   2.614
14411TIP3    H143176   6.713   7.587   2.646
14411TIP3    H243177   6.819   7.489   2.600
14412TIP3   OH243178   6.438   5.412   2.728
14412TIP3    H143179   6.513   5.357   2.750
14412TIP3    H243180   6.460   5.498   2.762
14413TIP3   OH243181   3.174   4.964   1.362
14413TIP3    H143182   3.117   4.915   1.421
14413TIP3    H243183   3.258   4.917   1.365
14414TIP3   OH243184   7.171   1.030   3.632
14414TIP3    H143185   7.185   1.112   3.680
14414TIP3    H243186   7.243   1.026   3.569
14415TIP3   OH243187   8.257   2.637   4.204
14415TIP3    H143188   8.265   2.732   4.214
14415TIP3    H243189   8.298   2.618   4.120
14416TIP3   OH243190   0.372   5.806   4.974
14416TIP3    H143191   0.450   5.769   4.932
14416TIP3    H243192   0.362   5.756   5.055
14417TIP3   OH243193   3.193   3.431   3.731
14417TIP3    H143194   3.214   3.521   3.756
14417TIP3    H243195   3.271   3.381   3.754
14418TIP3   OH243196   4.210   2.603   3.743
14418TIP3    H143197   4.277   2.539   3.721
14418TIP3    H243198   4.148   2.555   3.799
14419TIP3   OH243199   4.881   1.524   3.393
14419TIP3    H143200   4.946   1.565   3.449
14419TIP3    H243201   4.830   1.468   3.452
14420TIP3   OH243202   1.708   4.763   3.882
14420TIP3    H143203   1.662   4.680   3.865
14420TIP3    H243204   1.663   4.827   3.827
14421TIP3   OH243205   2.441   4.917   0.924
14421TIP3    H143206   2.450   4.875   0.839
14421TIP3    H243207   2.347   4.914   0.943
14422TIP3   OH243208   3.942   2.341   6.133
14422TIP3    H143209   4.029   2.368   6.104
14422TIP3    H243210   3.885   2.413   6.109
14423TIP3   OH243211   7.749   6.286   1.058
14423TIP3    H143212   7.833   6.300   1.014
14423TIP3    H243213   7.689   6.262   0.988
14424TIP3   OH243214   5.626   3.621   2.843
14424TIP3    H143215   5.650   3.670   2.922
14424TIP3    H243216   5.705   3.624   2.789
14425TIP3   OH243217   7.256   4.116   2.890
14425TIP3    H143218   7.282   4.204   2.918
14425TIP3    H243219   7.332   4.083   2.843
14426TIP3   OH243220   5.421   2.740   4.597
14426TIP3    H143221   5.441   2.822   4.641
14426TIP3    H243222   5.448   2.755   4.506
14427TIP3   OH243223   7.730   5.155   6.242
14427TIP3    H143224   7.678   5.200   6.176
14427TIP3    H243225   7.666   5.104   6.292
14428TIP3   OH243226   6.417   1.862   4.954
14428TIP3    H143227   6.442   1.909   4.875
14428TIP3    H243228   6.360   1.791   4.922
14429TIP3   OH243229   4.502   6.473   5.808
14429TIP3    H143230   4.559   6.448   5.880
14429TIP3    H243231   4.561   6.508   5.741
14430TIP3   OH243232   8.095   7.174   5.237
14430TIP3    H143233   8.111   7.142   5.148
14430TIP3    H243234   8.030   7.243   5.227
14431TIP3   OH243235   6.681   7.549   5.714
14431TIP3    H143236   6.661   7.521   5.625
14431TIP3    H243237   6.715   7.470   5.757
14432TIP3   OH243238   1.056   1.742   3.623
14432TIP3    H143239   1.122   1.803   3.655
14432TIP3    H243240   1.039   1.684   3.697
14433TIP3   OH243241   3.087   7.813   5.520
14433TIP3    H143242   3.139   7.888   5.546
14433TIP3    H243243   3.024   7.847   5.456
14434TIP3   OH243244   3.785   1.177   1.251
14434TIP3    H143245   3.773   1.231   1.328
14434TIP3    H243246   3.861   1.122   1.271
14435TIP3   OH243247   6.086   3.577   2.490
14435TIP3    H143248   6.153   3.509   2.494
14435TIP3    H243249   6.058   3.578   2.399
14436TIP3   OH243250   0.178   1.366   1.938
14436TIP3    H143251   0.104   1.308   1.922
14436TIP3    H243252   0.233   1.357   1.860
14437TIP3   OH243253   7.113   1.253   2.748
14437TIP3    H143254   7.150   1.230   2.663
14437TIP3    H243255   7.054   1.326   2.730
14438TIP3   OH243256   5.281   2.163   4.845
14438TIP3    H143257   5.277   2.082   4.895
14438TIP3    H243258   5.213   2.154   4.778
14439TIP3   OH243259   7.029   6.241   5.058
14439TIP3    H143260   7.047   6.157   5.100
14439TIP3    H243261   7.044   6.306   5.127
14440TIP3   OH243262   7.378   1.658   4.765
14440TIP3    H143263   7.370   1.629   4.674
14440TIP3    H243264   7.399   1.752   4.758
14441TIP3   OH243265   5.359   5.027   5.178
14441TIP3    H143266   5.331   5.099   5.122
14441TIP3    H243267   5.352   4.949   5.122
14442TIP3   OH243268   5.544   3.204   6.061
14442TIP3    H143269   5.599   3.210   6.139
14442TIP3    H243270   5.586   3.137   6.007
14443TIP3   OH243271   5.631   3.482   6.691
14443TIP3    H143272   5.633   3.577   6.704
14443TIP3    H243273   5.616   3.472   6.597
14444TIP3   OH243274   2.797   0.959   6.222
14444TIP3    H143275   2.712   0.974   6.264
14444TIP3    H243276   2.821   0.870   6.248
14445TIP3   OH243277   1.616   1.750   1.738
14445TIP3    H143278   1.530   1.788   1.717
14445TIP3    H243279   1.637   1.783   1.825
14446TIP3   OH243280   1.692   1.802   4.375
14446TIP3    H143281   1.674   1.731   4.436
14446TIP3    H243282   1.785   1.795   4.355
14447TIP3   OH243283   8.120   3.864   0.101
14447TIP3    H143284   8.209   3.883   0.131
14447TIP3    H243285   8.127   3.779   0.058
14448TIP3   OH243286   4.244   1.790   4.395
14448TIP3    H143287   4.300   1.859   4.358
14448TIP3    H243288   4.249   1.802   4.489
14449TIP3   OH243289   4.772   7.028   0.518
14449TIP3    H143290   4.709   7.037   0.589
14449TIP3    H243291   4.835   7.099   0.532
14450TIP3   OH243292   1.593   2.461   1.485
14450TIP3    H143293   1.622   2.372   1.504
14450TIP3    H243294   1.633   2.482   1.400
14451TIP3   OH243295   2.153   3.853   3.534
14451TIP3    H143296   2.224   3.858   3.598
14451TIP3    H243297   2.107   3.937   3.543
14452TIP3   OH243298   6.063   0.380   2.960
14452TIP3    H143299   6.159   0.389   2.966
14452TIP3    H243300   6.040   0.324   3.034
14453TIP3   OH243301   6.810   1.248   0.116
14453TIP3    H143302   6.805   1.287   0.029
14453TIP3    H243303   6.720   1.249   0.148
14454TIP3   OH243304   3.695   2.476   4.588
14454TIP3    H143305   3.652   2.553   4.550
14454TIP3    H243306   3.649   2.461   4.670
14455TIP3   OH243307   4.469   7.696   6.060
14455TIP3    H143308   4.562   7.697   6.080
14455TIP3    H243309   4.426   7.725   6.140
14456TIP3   OH243310   0.234   1.415   2.602
14456TIP3    H143311   0.275   1.449   2.523
14456TIP3    H243312   0.149   1.382   2.573
14457TIP3   OH243313   1.718   7.500   0.386
14457TIP3    H143314   1.709   7.419   0.336
14457TIP3    H243315   1.781   7.479   0.455
14458TIP3   OH243316   3.718  -0.025   0.740
14458TIP3    H143317   3.701   0.068   0.727
14458TIP3    H243318   3.644  -0.069   0.699
14459TIP3   OH243319   4.843   6.562   3.239
14459TIP3    H143320   4.752   6.559   3.210
14459TIP3    H243321   4.865   6.470   3.256
14460TIP3   OH243322   5.685   2.875   0.172
14460TIP3    H143323   5.735   2.796   0.155
14460TIP3    H243324   5.691   2.926   0.091
14461TIP3   OH243325   1.311   5.001   1.404
14461TIP3    H143326   1.330   4.907   1.399
14461TIP3    H243327   1.307   5.029   1.313
14462TIP3   OH243328   8.263   4.237   1.417
14462TIP3    H143329   8.268   4.149   1.380
14462TIP3    H243330   8.296   4.228   1.506
14463TIP3   OH243331   1.649   4.918   1.368
14463TIP3    H143332   1.647   5.012   1.386
14463TIP3    H243333   1.621   4.910   1.277
14464TIP3   OH243334   2.567   4.490   3.658
14464TIP3    H143335   2.505   4.539   3.604
14464TIP3    H243336   2.647   4.542   3.654
14465TIP3   OH243337   5.785   4.131   2.358
14465TIP3    H143338   5.776   4.080   2.278
14465TIP3    H243339   5.861   4.093   2.403
14466TIP3   OH243340   4.900   4.538   4.729
14466TIP3    H143341   4.834   4.606   4.723
14466TIP3    H243342   4.955   4.550   4.652
14467TIP3   OH243343   4.535   4.190   5.656
14467TIP3    H143344   4.450   4.234   5.649
14467TIP3    H243345   4.513   4.099   5.675
14468TIP3   OH243346   2.202   3.139   2.363
14468TIP3    H143347   2.173   3.050   2.381
14468TIP3    H243348   2.288   3.129   2.324
14469TIP3   OH243349   6.772   5.246   3.076
14469TIP3    H143350   6.723   5.255   2.995
14469TIP3    H243351   6.824   5.326   3.081
14470TIP3   OH243352   5.399   6.255   1.630
14470TIP3    H143353   5.370   6.174   1.589
14470TIP3    H243354   5.379   6.245   1.723
14471TIP3   OH243355   3.976   0.326   2.541
14471TIP3    H143356   4.065   0.334   2.507
14471TIP3    H243357   3.988   0.308   2.635
14472TIP3   OH243358   5.440   6.270   3.300
14472TIP3    H143359   5.533   6.290   3.314
14472TIP3    H243360   5.414   6.219   3.377
14473TIP3   OH243361   2.502   1.225   1.298
14473TIP3    H143362   2.563   1.160   1.264
14473TIP3    H243363   2.419   1.205   1.254
14474TIP3   OH243364   6.644   1.793   1.060
14474TIP3    H143365   6.719   1.851   1.072
14474TIP3    H243366   6.602   1.790   1.146
14475TIP3   OH243367   2.448   7.704   4.417
14475TIP3    H143368   2.377   7.645   4.394
14475TIP3    H243369   2.436   7.722   4.510
14476TIP3   OH243370   2.110   4.526   6.492
14476TIP3    H143371   2.157   4.448   6.460
14476TIP3    H243372   2.138   4.534   6.583
14477TIP3   OH243373   3.670   0.279   0.035
14477TIP3    H143374   3.695   0.370   0.018
14477TIP3    H243375   3.580   0.284   0.067
14478TIP3   OH243376   1.021   4.109   0.218
14478TIP3    H143377   0.962   4.170   0.175
14478TIP3    H243378   1.001   4.117   0.311
14479TIP3   OH243379   3.620   0.773   2.626
14479TIP3    H143380   3.712   0.796   2.609
14479TIP3    H243381   3.616   0.761   2.721
14480TIP3   OH243382   1.483   4.411   1.385
14480TIP3    H143383   1.530   4.493   1.400
14480TIP3    H243384   1.526   4.374   1.307
14481TIP3   OH243385   4.819   0.715   6.479
14481TIP3    H143386   4.882   0.644   6.472
14481TIP3    H243387   4.824   0.743   6.570
14482TIP3   OH243388   4.333   6.995   5.957
14482TIP3    H143389   4.318   7.016   5.864
14482TIP3    H243390   4.346   6.901   5.959
14483TIP3   OH243391   4.009   4.994   6.822
14483TIP3    H143392   3.916   4.975   6.814
14483TIP3    H243393   4.053   4.919   6.782
14484TIP3   OH243394   1.299   5.585   2.173
14484TIP3    H143395   1.215   5.606   2.213
14484TIP3    H243396   1.362   5.639   2.219
14485TIP3   OH243397   0.593   1.693   3.197
14485TIP3    H143398   0.512   1.649   3.174
14485TIP3    H243399   0.574   1.739   3.278
14486TIP3   OH243400   5.568   6.934   6.462
14486TIP3    H143401   5.590   6.846   6.433
14486TIP3    H243402   5.549   6.924   6.555
14487TIP3   OH243403   0.411   7.631   6.040
14487TIP3    H143404   0.385   7.561   6.100
14487TIP3    H243405   0.503   7.649   6.062
14488TIP3   OH243406   4.464   6.350   0.901
14488TIP3    H143407   4.545   6.359   0.952
14488TIP3    H243408   4.396   6.332   0.966
14489TIP3   OH243409   8.002   6.423   5.877
14489TIP3    H143410   7.978   6.379   5.795
14489TIP3    H243411   8.085   6.467   5.857
14490TIP3   OH243412   7.747   6.483   3.935
14490TIP3    H143413   7.831   6.530   3.941
14490TIP3    H243414   7.683   6.543   3.971
14491TIP3   OH243415   5.502   1.632   4.587
14491TIP3    H143416   5.580   1.686   4.596
14491TIP3    H243417   5.434   1.682   4.633
14492TIP3   OH243418   0.038   7.777   0.861
14492TIP3    H143419   0.014   7.780   0.769
14492TIP3    H243420   0.085   7.859   0.877
14493TIP3   OH243421   7.130   0.923   2.719
14493TIP3    H143422   7.114   1.005   2.672
14493TIP3    H243423   7.044   0.882   2.727
14494TIP3   OH243424   5.412   2.993   4.674
14494TIP3    H143425   5.364   3.002   4.757
14494TIP3    H243426   5.426   3.082   4.644
14495TIP3   OH243427   3.187   2.238   2.422
14495TIP3    H143428   3.175   2.238   2.327
14495TIP3    H243429   3.103   2.211   2.457
14496TIP3   OH243430   5.047   1.374   4.437
14496TIP3    H143431   5.142   1.381   4.448
14496TIP3    H243432   5.014   1.358   4.526
14497TIP3   OH243433   0.844   5.333   4.518
14497TIP3    H143434   0.797   5.366   4.441
14497TIP3    H243435   0.892   5.408   4.551
14498TIP3   OH243436   8.201   2.202   0.234
14498TIP3    H143437   8.147   2.252   0.172
14498TIP3    H243438   8.216   2.261   0.307
14499TIP3   OH243439   0.532   0.696   4.532
14499TIP3    H143440   0.523   0.746   4.614
14499TIP3    H243441   0.527   0.604   4.559
14500TIP3   OH243442   4.598   0.829   4.790
14500TIP3    H143443   4.660   0.759   4.811
14500TIP3    H243444   4.637   0.876   4.716
14501TIP3   OH243445   3.646   2.847   4.821
14501TIP3    H143446   3.658   2.940   4.841
14501TIP3    H243447   3.652   2.804   4.906
14502TIP3   OH243448   3.650   5.904   5.520
14502TIP3    H143449   3.567   5.942   5.548
14502TIP3    H243450   3.679   5.851   5.594
14503TIP3   OH243451   6.231   7.260   2.621
14503TIP3    H143452   6.289   7.184   2.620
14503TIP3    H243453   6.242   7.298   2.709
14504TIP3   OH243454   6.176   2.689   4.409
14504TIP3    H143455   6.198   2.735   4.328
14504TIP3    H243456   6.240   2.617   4.413
14505TIP3   OH243457   6.345   2.220   6.638
14505TIP3    H143458   6.431   2.181   6.620
14505TIP3    H243459   6.312   2.244   6.552
14506TIP3   OH243460   3.691   6.206   5.854
14506TIP3    H143461   3.676   6.294   5.821
14506TIP3    H243462   3.780   6.207   5.888
14507TIP3   OH243463   5.783   1.274   0.453
14507TIP3    H143464   5.866   1.301   0.493
14507TIP3    H243465   5.717   1.294   0.520
14508TIP3   OH243466   4.656   2.909   2.848
14508TIP3    H143467   4.656   2.973   2.919
14508TIP3    H243468   4.565   2.904   2.820
14509TIP3   OH243469   5.536   5.233   0.703
14509TIP3    H143470   5.463   5.181   0.735
14509TIP3    H243471   5.517   5.245   0.610
14510TIP3   OH243472   5.934   0.701   2.396
14510TIP3    H143473   5.889   0.648   2.462
14510TIP3    H243474   6.022   0.714   2.433
14511TIP3   OH243475   5.920   1.727   3.235
14511TIP3    H143476   5.992   1.781   3.202
14511TIP3    H243477   5.963   1.660   3.289
14512TIP3   OH243478   1.103   5.710   5.584
14512TIP3    H143479   1.014   5.722   5.552
14512TIP3    H243480   1.157   5.706   5.504
14513TIP3   OH243481   2.488   1.039   4.470
14513TIP3    H143482   2.411   0.999   4.511
14513TIP3    H243483   2.489   1.128   4.506
14514TIP3   OH243484   0.972   0.818   0.689
14514TIP3    H143485   0.944   0.798   0.778
14514TIP3    H243486   1.041   0.883   0.700
14515TIP3   OH243487   3.571   5.403   6.156
14515TIP3    H143488   3.599   5.477   6.210
14515TIP3    H243489   3.597   5.426   6.067
14516TIP3   OH243490   4.119   7.186   5.256
14516TIP3    H143491   4.081   7.235   5.184
14516TIP3    H243492   4.187   7.243   5.292
14517TIP3   OH243493   2.778   4.424   0.914
14517TIP3    H143494   2.694   4.429   0.868
14517TIP3    H243495   2.839   4.470   0.856
14518TIP3   OH243496   1.589   5.955   4.544
14518TIP3    H143497   1.609   5.959   4.637
14518TIP3    H243498   1.550   6.040   4.524
14519TIP3   OH243499   4.426   0.569   2.083
14519TIP3    H143500   4.502   0.603   2.131
14519TIP3    H243501   4.358   0.634   2.097
14520TIP3   OH243502   5.532   1.630   3.273
14520TIP3    H143503   5.528   1.718   3.237
14520TIP3    H243504   5.466   1.581   3.223
14521TIP3   OH243505   5.446   3.237   2.944
14521TIP3    H143506   5.376   3.195   2.894
14521TIP3    H243507   5.402   3.303   2.997
14522TIP3   OH243508   7.603   1.801   0.629
14522TIP3    H143509   7.543   1.752   0.685
14522TIP3    H243510   7.673   1.739   0.609
14523TIP3   OH243511   5.821   5.490  -0.039
14523TIP3    H143512   5.864   5.405  -0.027
14523TIP3    H243513   5.830   5.534   0.046
14524TIP3   OH243514   1.811   7.308   6.566
14524TIP3    H143515   1.818   7.251   6.643
14524TIP3    H243516   1.740   7.369   6.587
14525TIP3   OH243517   3.277   3.979   1.168
14525TIP3    H143518   3.370   4.000   1.160
14525TIP3    H243519   3.237   4.014   1.089
14526TIP3   OH243520   0.694   7.560   2.336
14526TIP3    H143521   0.607   7.587   2.365
14526TIP3    H243522   0.754   7.614   2.387
14527TIP3   OH243523   0.232   0.184   3.172
14527TIP3    H143524   0.217   0.171   3.266
14527TIP3    H243525   0.145   0.182   3.134
14528TIP3   OH243526   1.270   4.525   5.470
14528TIP3    H143527   1.345   4.531   5.412
14528TIP3    H243528   1.194   4.527   5.411
14529TIP3   OH243529   7.334   5.619   0.910
14529TIP3    H143530   7.350   5.693   0.851
14529TIP3    H243531   7.321   5.659   0.996
14530TIP3   OH243532   1.977   1.287   3.817
14530TIP3    H143533   1.884   1.279   3.839
14530TIP3    H243534   2.009   1.356   3.875
14531TIP3   OH243535   1.247   0.288   1.111
14531TIP3    H143536   1.183   0.219   1.099
14531TIP3    H243537   1.208   0.347   1.175
14532TIP3   OH243538   4.462   6.382   4.698
14532TIP3    H143539   4.512   6.344   4.770
14532TIP3    H243540   4.528   6.419   4.640
14533TIP3   OH243541   6.647   4.360   5.742
14533TIP3    H143542   6.638   4.456   5.737
14533TIP3    H243543   6.685   4.345   5.829
14534TIP3   OH243544   2.500   0.914   5.307
14534TIP3    H143545   2.404   0.916   5.309
14534TIP3    H243546   2.523   0.962   5.227
14535TIP3   OH243547   3.982   6.036   4.875
14535TIP3    H143548   3.963   6.045   4.969
14535TIP3    H243549   3.954   5.947   4.853
14536TIP3   OH243550   3.449   6.915   3.895
14536TIP3    H143551   3.482   6.878   3.814
14536TIP3    H243552   3.436   6.840   3.953
14537TIP3   OH243553   2.335   0.133   2.079
14537TIP3    H143554   2.247   0.109   2.108
14537TIP3    H243555   2.394   0.090   2.140
14538TIP3   OH243556   6.234   0.040   0.689
14538TIP3    H143557   6.285  -0.040   0.699
14538TIP3    H243558   6.298   0.111   0.701
14539TIP3   OH243559   2.059   4.892   1.822
14539TIP3    H143560   2.023   4.927   1.740
14539TIP3    H243561   2.040   4.799   1.819
14540TIP3   OH243562   4.641   7.505   6.439
14540TIP3    H143563   4.605   7.427   6.397
14540TIP3    H243564   4.725   7.520   6.394
14541TIP3   OH243565   0.423   0.796   3.417
14541TIP3    H143566   0.421   0.723   3.355
14541TIP3    H243567   0.348   0.850   3.394
14542TIP3   OH243568   0.395   0.189   0.650
14542TIP3    H143569   0.397   0.278   0.685
14542TIP3    H243570   0.351   0.137   0.717
14543TIP3   OH243571   6.010   7.238   4.728
14543TIP3    H143572   6.059   7.157   4.742
14543TIP3    H243573   5.955   7.248   4.806
14544TIP3   OH243574   8.129   2.649   5.301
14544TIP3    H143575   8.209   2.698   5.282
14544TIP3    H243576   8.059   2.702   5.263
14545TIP3   OH243577   1.473   0.223   1.557
14545TIP3    H143578   1.397   0.279   1.573
14545TIP3    H243579   1.546   0.271   1.595
14546TIP3   OH243580   6.844   0.643   2.508
14546TIP3    H143581   6.800   0.620   2.425
14546TIP3    H243582   6.832   0.566   2.563
14547TIP3   OH243583   6.814   0.460   5.118
14547TIP3    H143584   6.804   0.487   5.027
14547TIP3    H243585   6.897   0.498   5.146
14548TIP3   OH243586   6.663   5.922   3.707
14548TIP3    H143587   6.632   5.831   3.710
14548TIP3    H243588   6.633   5.955   3.622
14549TIP3   OH243589   6.763   4.351   2.613
14549TIP3    H143590   6.774   4.256   2.621
14549TIP3    H243591   6.846   4.381   2.575
14550TIP3   OH243592   0.141   2.246   3.831
14550TIP3    H143593   0.095   2.296   3.899
14550TIP3    H243594   0.211   2.200   3.878
14551TIP3   OH243595   3.172   0.230   6.519
14551TIP3    H143596   3.145   0.232   6.427
14551TIP3    H243597   3.144   0.144   6.550
14552TIP3   OH243598   4.705   6.208   0.388
14552TIP3    H143599   4.755   6.285   0.417
14552TIP3    H243600   4.772   6.145   0.361
14553TIP3   OH243601   3.426   1.288   5.905
14553TIP3    H143602   3.388   1.323   5.985
14553TIP3    H243603   3.516   1.320   5.906
14554TIP3   OH243604   5.049   4.196   6.638
14554TIP3    H143605   5.030   4.220   6.547
14554TIP3    H243606   5.013   4.107   6.647
14555TIP3   OH243607   4.247   7.135   4.380
14555TIP3    H143608   4.334   7.166   4.406
14555TIP3    H243609   4.235   7.170   4.292
14556TIP3   OH243610   2.529   1.645   0.244
14556TIP3    H143611   2.458   1.707   0.225
14556TIP3    H243612   2.597   1.698   0.284
14557TIP3   OH243613   6.917   4.798   4.242
14557TIP3    H143614   6.945   4.828   4.156
14557TIP3    H243615   6.859   4.724   4.224
14558TIP3   OH243616   0.928   3.289   3.474
14558TIP3    H143617   1.018   3.316   3.489
14558TIP3    H243618   0.893   3.352   3.411
14559TIP3   OH243619   3.528   5.693   1.370
14559TIP3    H143620   3.604   5.721   1.320
14559TIP3    H243621   3.504   5.609   1.333
14560TIP3   OH243622   2.999   3.234   1.884
14560TIP3    H143623   2.994   3.330   1.880
14560TIP3    H243624   3.091   3.214   1.865
14561TIP3   OH243625   7.933   2.096   3.376
14561TIP3    H143626   7.920   2.142   3.293
14561TIP3    H243627   7.889   2.012   3.365
14562TIP3   OH243628   0.258   3.905   0.851
14562TIP3    H143629   0.319   3.980   0.849
14562TIP3    H243630   0.178   3.939   0.812
14563TIP3   OH243631   2.606   2.626   1.024
14563TIP3    H143632   2.690   2.667   1.041
14563TIP3    H243633   2.545   2.668   1.084
14564TIP3   OH243634   2.445   7.606   0.157
14564TIP3    H143635   2.365   7.555   0.174
14564TIP3    H243636   2.431   7.688   0.204
14565TIP3   OH243637   2.163   7.800   3.034
14565TIP3    H143638   2.184   7.849   3.113
14565TIP3    H243639   2.174   7.708   3.059
14566TIP3   OH243640   7.434   6.389   6.579
14566TIP3    H143641   7.419   6.480   6.605
14566TIP3    H243642   7.493   6.394   6.504
14567TIP3   OH243643   1.248   3.680   5.567
14567TIP3    H143644   1.184   3.629   5.616
14567TIP3    H243645   1.251   3.764   5.613
14568TIP3   OH243646   4.242   4.973   1.446
14568TIP3    H143647   4.323   5.010   1.410
14568TIP3    H243648   4.233   5.016   1.532
14569TIP3   OH243649   1.173   3.401   3.545
14569TIP3    H143650   1.259   3.442   3.536
14569TIP3    H243651   1.139   3.432   3.629
14570TIP3   OH243652   7.334   0.587   4.585
14570TIP3    H143653   7.317   0.669   4.632
14570TIP3    H243654   7.250   0.564   4.546
14571TIP3   OH243655   4.766   1.829   3.577
14571TIP3    H143656   4.687   1.879   3.599
14571TIP3    H243657   4.734   1.758   3.522
14572TIP3   OH243658   6.209   5.833   3.927
14572TIP3    H143659   6.219   5.737   3.930
14572TIP3    H243660   6.288   5.864   3.883
14573TIP3   OH243661   5.289   4.496   2.673
14573TIP3    H143662   5.256   4.409   2.697
14573TIP3    H243663   5.365   4.477   2.617
14574TIP3   OH243664   0.593   7.130   3.610
14574TIP3    H143665   0.635   7.100   3.691
14574TIP3    H243666   0.501   7.138   3.634
14575TIP3   OH243667   1.187   0.954   5.512
14575TIP3    H143668   1.158   1.041   5.486
14575TIP3    H243669   1.116   0.896   5.487
14576TIP3   OH243670   1.292   5.231   6.187
14576TIP3    H143671   1.231   5.197   6.122
14576TIP3    H243672   1.245   5.220   6.271
14577TIP3   OH243673   6.916   2.634   3.359
14577TIP3    H143674   6.955   2.662   3.441
14577TIP3    H243675   6.861   2.707   3.332
14578TIP3   OH243676   3.248   1.593   3.693
14578TIP3    H143677   3.337   1.611   3.723
14578TIP3    H243678   3.192   1.633   3.759
14579TIP3   OH243679   7.239   3.887   0.446
14579TIP3    H143680   7.188   3.862   0.369
14579TIP3    H243681   7.324   3.913   0.411
14580TIP3   OH243682   7.235   0.255   1.253
14580TIP3    H143683   7.309   0.202   1.281
14580TIP3    H243684   7.236   0.250   1.157
14581TIP3   OH243685   5.946   4.985   3.334
14581TIP3    H143686   5.895   5.024   3.405
14581TIP3    H243687   6.037   4.991   3.363
14582TIP3   OH243688   1.101   7.801   4.156
14582TIP3    H143689   1.172   7.738   4.157
14582TIP3    H243690   1.064   7.799   4.244
14583TIP3   OH243691   2.363   2.742   0.545
14583TIP3    H143692   2.405   2.705   0.622
14583TIP3    H243693   2.352   2.668   0.485
14584TIP3   OH243694   5.366   5.529   0.285
14584TIP3    H143695   5.414   5.566   0.210
14584TIP3    H243696   5.277   5.514   0.251
14585TIP3   OH243697   3.867   4.683   6.450
14585TIP3    H143698   3.786   4.694   6.399
14585TIP3    H243699   3.915   4.764   6.435
14586TIP3   OH243700   5.423   5.488   1.866
14586TIP3    H143701   5.472   5.447   1.795
14586TIP3    H243702   5.333   5.491   1.834
14587TIP3   OH243703   6.915   2.350   3.281
14587TIP3    H143704   6.863   2.327   3.358
14587TIP3    H243705   6.961   2.430   3.306
14588TIP3   OH243706   0.327   4.051   5.741
14588TIP3    H143707   0.276   3.980   5.700
14588TIP3    H243708   0.394   4.072   5.676
14589TIP3   OH243709   6.954   3.117   3.567
14589TIP3    H143710   6.968   3.058   3.641
14589TIP3    H243711   6.984   3.203   3.598
14590TIP3   OH243712   4.287   3.617   0.623
14590TIP3    H143713   4.337   3.559   0.681
14590TIP3    H243714   4.208   3.567   0.602
14591TIP3   OH243715   0.105   2.630   2.295
14591TIP3    H143716   0.182   2.687   2.297
14591TIP3    H243717   0.089   2.616   2.202
14592TIP3   OH243718   3.765   7.644   1.716
14592TIP3    H143719   3.670   7.637   1.729
14592TIP3    H243720   3.777   7.627   1.623
14593TIP3   OH243721   1.152   3.342   2.147
14593TIP3    H143722   1.065   3.304   2.140
14593TIP3    H243723   1.191   3.302   2.225
14594TIP3   OH243724   6.261   6.253   0.338
14594TIP3    H143725   6.224   6.296   0.261
14594TIP3    H243726   6.336   6.307   0.362
14595TIP3   OH243727   3.069   1.945   3.097
14595TIP3    H143728   3.154   1.982   3.121
14595TIP3    H243729   3.054   1.877   3.162
14596TIP3   OH243730   6.319   3.570   5.040
14596TIP3    H143731   6.399   3.614   5.012
14596TIP3    H243732   6.249   3.632   5.023
14597TIP3   OH243733   7.357   5.957   3.732
14597TIP3    H143734   7.425   5.970   3.797
14597TIP3    H243735   7.403   5.960   3.648
14598TIP3   OH243736   5.804   0.205   3.810
14598TIP3    H143737   5.786   0.276   3.749
14598TIP3    H243738   5.732   0.209   3.874
14599TIP3   OH243739   3.035   4.738   0.260
14599TIP3    H143740   3.082   4.699   0.187
14599TIP3    H243741   3.015   4.827   0.231
14600TIP3   OH243742   0.472   1.050   6.232
14600TIP3    H143743   0.523   1.088   6.161
14600TIP3    H243744   0.512   1.087   6.312
14601TIP3   OH243745   0.854   4.227   5.516
14601TIP3    H143746   0.852   4.323   5.515
14601TIP3    H243747   0.821   4.202   5.429
14602TIP3   OH243748   6.304   2.732   4.979
14602TIP3    H143749   6.263   2.780   5.051
14602TIP3    H243750   6.365   2.795   4.941
14603TIP3   OH243751   2.594   3.007   2.844
14603TIP3    H143752   2.568   2.961   2.924
14603TIP3    H243753   2.624   2.937   2.786
14604TIP3   OH243754   2.955   2.741   2.589
14604TIP3    H143755   2.929   2.763   2.500
14604TIP3    H243756   3.005   2.659   2.580
14605TIP3   OH243757   5.927   0.718   6.522
14605TIP3    H143758   5.954   0.805   6.552
14605TIP3    H243759   5.945   0.718   6.428
14606TIP3   OH243760   6.019   6.855   0.877
14606TIP3    H143761   5.962   6.898   0.813
14606TIP3    H243762   6.007   6.905   0.958
14607TIP3   OH243763   7.186   7.404   1.096
14607TIP3    H143764   7.099   7.435   1.070
14607TIP3    H243765   7.211   7.461   1.169
14608TIP3   OH243766   6.667   2.152   5.411
14608TIP3    H143767   6.758   2.176   5.393
14608TIP3    H243768   6.665   2.136   5.505
14609TIP3   OH243769   5.419   6.503   2.136
14609TIP3    H143770   5.456   6.568   2.196
14609TIP3    H243771   5.448   6.419   2.171
14610TIP3   OH243772   0.374   3.874   1.157
14610TIP3    H143773   0.413   3.787   1.160
14610TIP3    H243774   0.328   3.878   1.073
14611TIP3   OH243775   0.778   3.697   5.021
14611TIP3    H143776   0.748   3.770   4.967
14611TIP3    H243777   0.855   3.731   5.066
14612TIP3   OH243778   0.788   3.703   3.055
14612TIP3    H143779   0.855   3.644   3.022
14612TIP3    H243780   0.732   3.721   2.979
14613TIP3   OH243781   1.519   7.669   0.736
14613TIP3    H143782   1.574   7.738   0.700
14613TIP3    H243783   1.429   7.696   0.717
14614TIP3   OH243784   7.254   3.195   0.407
14614TIP3    H143785   7.285   3.231   0.490
14614TIP3    H243786   7.328   3.204   0.347
14615TIP3   OH243787   0.452   3.608   2.476
14615TIP3    H143788   0.430   3.516   2.491
14615TIP3    H243789   0.458   3.645   2.564
14616TIP3   OH243790   1.160   2.695   2.852
14616TIP3    H143791   1.216   2.773   2.855
14616TIP3    H243792   1.105   2.707   2.775
14617TIP3   OH243793   1.398   0.043   1.992
14617TIP3    H143794   1.391   0.131   1.956
14617TIP3    H243795   1.312   0.027   2.032
14618TIP3   OH243796   4.854   7.223   5.513
14618TIP3    H143797   4.798   7.214   5.590
14618TIP3    H243798   4.942   7.233   5.548
14619TIP3   OH243799   0.778   2.404   4.161
14619TIP3    H143800   0.742   2.414   4.249
14619TIP3    H243801   0.799   2.494   4.133
14620TIP3   OH243802   0.791   4.747   2.995
14620TIP3    H143803   0.769   4.746   3.088
14620TIP3    H243804   0.718   4.792   2.953
14621TIP3   OH243805   4.502   5.492   5.671
14621TIP3    H143806   4.455   5.530   5.597
14621TIP3    H243807   4.474   5.544   5.746
14622TIP3   OH243808   0.706   1.471   0.317
14622TIP3    H143809   0.787   1.519   0.336
14622TIP3    H243810   0.645   1.500   0.384
14623TIP3   OH243811   7.010   3.276   1.641
14623TIP3    H143812   6.968   3.355   1.608
14623TIP3    H243813   6.941   3.229   1.687
14624TIP3   OH243814   7.939   2.205   5.448
14624TIP3    H143815   7.952   2.112   5.428
14624TIP3    H243816   7.892   2.239   5.372
14625TIP3   OH243817   6.030   2.991   4.697
14625TIP3    H143818   6.008   2.900   4.676
14625TIP3    H243819   6.042   3.033   4.612
14626TIP3   OH243820   5.270   7.776   2.782
14626TIP3    H143821   5.262   7.685   2.808
14626TIP3    H243822   5.352   7.806   2.822
14627TIP3   OH243823   0.508   2.782   5.240
14627TIP3    H143824   0.597   2.757   5.217
14627TIP3    H243825   0.491   2.861   5.188
14628TIP3   OH243826   6.294   0.224   2.565
14628TIP3    H143827   6.264   0.186   2.482
14628TIP3    H243828   6.245   0.177   2.632
14629TIP3   OH243829   5.293   6.916   6.120
14629TIP3    H143830   5.373   6.899   6.071
14629TIP3    H243831   5.301   6.860   6.198
14630TIP3   OH243832   1.911   6.318   6.417
14630TIP3    H143833   1.918   6.407   6.381
14630TIP3    H243834   1.827   6.318   6.463
14631TIP3   OH243835   5.406   5.847   2.848
14631TIP3    H143836   5.448   5.814   2.927
14631TIP3    H243837   5.456   5.807   2.776
14632TIP3   OH243838   1.895   6.510   5.894
14632TIP3    H143839   1.913   6.602   5.917
14632TIP3    H243840   1.975   6.480   5.851
14633TIP3   OH243841   7.227   6.468   5.851
14633TIP3    H143842   7.318   6.499   5.854
14633TIP3    H243843   7.227   6.399   5.784
14634TIP3   OH243844   0.443   5.800   4.534
14634TIP3    H143845   0.413   5.880   4.491
14634TIP3    H243846   0.504   5.760   4.472
14635TIP3   OH243847   3.310   2.185   4.219
14635TIP3    H143848   3.379   2.234   4.174
14635TIP3    H243849   3.243   2.250   4.239
14636TIP3   OH243850   7.188   1.101   4.419
14636TIP3    H143851   7.189   1.162   4.345
14636TIP3    H243852   7.259   1.040   4.401
14637TIP3   OH243853   0.341   6.047   6.170
14637TIP3    H143854   0.367   5.955   6.164
14637TIP3    H243855   0.279   6.050   6.243
14638TIP3   OH243856   2.903   5.620   4.511
14638TIP3    H143857   2.966   5.583   4.573
14638TIP3    H243858   2.858   5.544   4.473
14639TIP3   OH243859   3.572   2.964   5.259
14639TIP3    H143860   3.519   2.988   5.183
14639TIP3    H243861   3.662   2.981   5.231
14640TIP3   OH243862   3.404   1.053   3.315
14640TIP3    H143863   3.397   1.139   3.357
14640TIP3    H243864   3.411   1.072   3.221
14641TIP3   OH243865   0.629   2.366   1.938
14641TIP3    H143866   0.653   2.426   2.009
14641TIP3    H243867   0.707   2.313   1.924
14642TIP3   OH243868   3.866   1.573   5.582
14642TIP3    H143869   3.947   1.581   5.531
14642TIP3    H243870   3.894   1.542   5.668
14643TIP3   OH243871   0.690   7.150   0.027
14643TIP3    H143872   0.597   7.138   0.045
14643TIP3    H243873   0.729   7.167   0.113
14644TIP3   OH243874   8.056   5.657   1.881
14644TIP3    H143875   7.985   5.687   1.824
14644TIP3    H243876   8.104   5.594   1.827
14645TIP3   OH243877   1.732   6.373   1.672
14645TIP3    H143878   1.712   6.326   1.592
14645TIP3    H243879   1.816   6.338   1.701
14646TIP3   OH243880   2.909   6.477   0.056
14646TIP3    H143881   2.859   6.542   0.006
14646TIP3    H243882   2.859   6.396   0.047
14647TIP3   OH243883   3.547   5.163   2.153
14647TIP3    H143884   3.584   5.080   2.180
14647TIP3    H243885   3.613   5.228   2.178
14648TIP3   OH243886   4.921   5.163   6.274
14648TIP3    H143887   4.848   5.103   6.258
14648TIP3    H243888   4.919   5.179   6.369
14649TIP3   OH243889   0.544   0.305   5.547
14649TIP3    H143890   0.467   0.249   5.533
14649TIP3    H243891   0.614   0.262   5.498
14650TIP3   OH243892   4.013   0.909   1.585
14650TIP3    H143893   4.083   0.855   1.548
14650TIP3    H243894   3.957   0.847   1.632
14651TIP3   OH243895   5.205   5.595   2.714
14651TIP3    H143896   5.300   5.597   2.704
14651TIP3    H243897   5.191   5.564   2.804
14652TIP3   OH243898   4.845   5.387   5.887
14652TIP3    H143899   4.842   5.292   5.876
14652TIP3    H243900   4.835   5.400   5.982
14653TIP3   OH243901   3.922   4.315   0.316
14653TIP3    H143902   3.892   4.349   0.231
14653TIP3    H243903   3.913   4.390   0.375
14654TIP3   OH243904   1.902   6.645   3.832
14654TIP3    H143905   1.836   6.631   3.900
14654TIP3    H243906   1.967   6.703   3.873
14655TIP3   OH243907   3.430   2.264   2.258
14655TIP3    H143908   3.358   2.212   2.293
14655TIP3    H243909   3.472   2.303   2.334
14656TIP3   OH243910   1.123   7.509   5.257
14656TIP3    H143911   1.043   7.520   5.308
14656TIP3    H243912   1.166   7.595   5.261
14657TIP3   OH243913   6.522   0.328   0.432
14657TIP3    H143914   6.518   0.422   0.449
14657TIP3    H243915   6.534   0.322   0.337
14658TIP3   OH243916   5.115   6.754   0.167
14658TIP3    H143917   5.135   6.848   0.170
14658TIP3    H243918   5.130   6.723   0.257
14659TIP3   OH243919   1.727   0.921   6.407
14659TIP3    H143920   1.775   0.994   6.446
14659TIP3    H243921   1.647   0.961   6.373
14660TIP3   OH243922   1.420   0.916   1.530
14660TIP3    H143923   1.390   0.837   1.576
14660TIP3    H243924   1.360   0.925   1.456
14661TIP3   OH243925   2.800   1.112   1.360
14661TIP3    H143926   2.784   1.018   1.368
14661TIP3    H243927   2.716   1.153   1.381
14662TIP3   OH243928   1.627   7.311   3.794
14662TIP3    H143929   1.707   7.348   3.831
14662TIP3    H243930   1.624   7.221   3.829
14663TIP3   OH243931   8.216   4.855   3.004
14663TIP3    H143932   8.275   4.889   2.937
14663TIP3    H243933   8.149   4.808   2.955
14664TIP3   OH243934   7.819   3.742   0.865
14664TIP3    H143935   7.819   3.647   0.851
14664TIP3    H243936   7.727   3.765   0.875
14665TIP3   OH243937   4.615   5.882   0.495
14665TIP3    H143938   4.703   5.861   0.529
14665TIP3    H243939   4.558   5.876   0.572
14666TIP3   OH243940   0.599   5.401   6.630
14666TIP3    H143941   0.555   5.334   6.681
14666TIP3    H243942   0.582   5.482   6.677
14667TIP3   OH243943   1.544   6.676   0.668
14667TIP3    H143944   1.636   6.701   0.675
14667TIP3    H243945   1.505   6.743   0.612
14668TIP3   OH243946   3.991   7.380   5.123
14668TIP3    H143947   3.941   7.374   5.204
14668TIP3    H243948   4.003   7.474   5.109
14669TIP3   OH243949   5.654   7.779   4.745
14669TIP3    H143950   5.695   7.794   4.831
14669TIP3    H243951   5.700   7.702   4.710
14670TIP3   OH243952   7.299   1.705   0.462
14670TIP3    H143953   7.277   1.620   0.499
14670TIP3    H243954   7.306   1.689   0.368
14671TIP3   OH243955   5.628   0.597   2.496
14671TIP3    H143956   5.571   0.591   2.420
14671TIP3    H243957   5.572   0.631   2.566
14672TIP3   OH243958   7.417   3.918   4.310
14672TIP3    H143959   7.397   4.004   4.275
14672TIP3    H243960   7.334   3.870   4.306
14673TIP3   OH243961   0.321   6.888   2.395
14673TIP3    H143962   0.333   6.802   2.433
14673TIP3    H243963   0.370   6.886   2.312
14674TIP3   OH243964   7.481   6.023   3.458
14674TIP3    H143965   7.516   5.956   3.400
14674TIP3    H243966   7.554   6.045   3.516
14675TIP3   OH243967   3.162   3.264   6.684
14675TIP3    H143968   3.208   3.344   6.711
14675TIP3    H243969   3.225   3.218   6.628
14676TIP3   OH243970   2.067   7.318   1.170
14676TIP3    H143971   1.981   7.288   1.198
14676TIP3    H243972   2.124   7.299   1.245
14677TIP3   OH243973   6.097   7.526   4.167
14677TIP3    H143974   6.056   7.612   4.177
14677TIP3    H243975   6.050   7.486   4.094
14678TIP3   OH243976   6.701   3.755   3.463
14678TIP3    H143977   6.705   3.691   3.392
14678TIP3    H243978   6.653   3.829   3.427
14679TIP3   OH243979   2.609   1.778   1.667
14679TIP3    H143980   2.534   1.771   1.608
14679TIP3    H243981   2.586   1.721   1.741
14680TIP3   OH243982   6.828   4.246   1.472
14680TIP3    H143983   6.784   4.168   1.505
14680TIP3    H243984   6.920   4.220   1.464
14681TIP3   OH243985   4.763   1.391   4.650
14681TIP3    H143986   4.701   1.403   4.721
14681TIP3    H243987   4.829   1.331   4.685
14682TIP3   OH243988   1.938   2.989   4.170
14682TIP3    H143989   1.884   2.977   4.248
14682TIP3    H243990   1.879   3.028   4.105
14683TIP3   OH243991   2.693   2.084   2.331
14683TIP3    H143992   2.664   2.086   2.423
14683TIP3    H243993   2.635   2.145   2.286
14684TIP3   OH243994   3.433   0.789   0.046
14684TIP3    H143995   3.462   0.854  -0.019
14684TIP3    H243996   3.369   0.836   0.099
14685TIP3   OH243997   7.886   5.871   1.802
14685TIP3    H143998   7.864   5.957   1.839
14685TIP3    H243999   7.809   5.848   1.749
14686TIP3   OH244000   4.003   2.624   5.467
14686TIP3    H144001   3.995   2.621   5.372
14686TIP3    H244002   3.925   2.579   5.499
14687TIP3   OH244003   0.741   6.780   6.036
14687TIP3    H144004   0.784   6.779   5.951
14687TIP3    H244005   0.800   6.831   6.092
14688TIP3   OH244006   3.641   4.746   0.346
14688TIP3    H144007   3.609   4.743   0.436
14688TIP3    H244008   3.735   4.736   0.353
14689TIP3   OH244009   8.257   2.693   0.493
14689TIP3    H144010   8.188   2.736   0.442
14689TIP3    H244011   8.323   2.668   0.428
14690TIP3   OH244012   5.336   4.711   5.852
14690TIP3    H144013   5.388   4.783   5.817
14690TIP3    H244014   5.353   4.638   5.792
14691TIP3   OH244015   2.815   5.557   3.918
14691TIP3    H144016   2.802   5.464   3.937
14691TIP3    H244017   2.727   5.595   3.923
14692TIP3   OH244018   5.889   3.497   1.959
14692TIP3    H144019   5.917   3.524   1.872
14692TIP3    H244020   5.853   3.409   1.946
14693TIP3   OH244021   8.251   7.557   5.386
14693TIP3    H144022   8.248   7.559   5.482
14693TIP3    H244023   8.172   7.605   5.359
14694TIP3   OH244024   3.829   1.252   5.121
14694TIP3    H144025   3.813   1.198   5.044
14694TIP3    H244026   3.780   1.332   5.104
14695TIP3   OH244027   2.685   4.585   2.224
14695TIP3    H144028   2.764   4.636   2.205
14695TIP3    H244029   2.614   4.650   2.220
14696TIP3   OH244030   6.224   6.882   0.253
14696TIP3    H144031   6.320   6.883   0.250
14696TIP3    H244032   6.203   6.846   0.339
14697TIP3   OH244033   0.276   7.720   0.229
14697TIP3    H144034   0.331   7.663   0.176
14697TIP3    H244035   0.306   7.809   0.207
14698TIP3   OH244036   5.358   1.875   0.531
14698TIP3    H144037   5.433   1.862   0.589
14698TIP3    H244038   5.284   1.834   0.576
14699TIP3   OH244039   4.928   3.440   0.868
14699TIP3    H144040   4.944   3.399   0.953
14699TIP3    H244041   4.996   3.405   0.810
14700TIP3   OH244042   5.217   4.520   5.013
14700TIP3    H144043   5.147   4.467   4.974
14700TIP3    H244044   5.173   4.572   5.081
14701TIP3   OH244045   0.946   5.121   3.346
14701TIP3    H144046   0.866   5.095   3.299
14701TIP3    H244047   0.984   5.190   3.292
14702TIP3   OH244048   7.269   4.424   5.278
14702TIP3    H144049   7.277   4.518   5.259
14702TIP3    H244050   7.304   4.415   5.367
14703TIP3   OH244051   6.578   2.803   0.958
14703TIP3    H144052   6.545   2.829   1.045
14703TIP3    H244053   6.527   2.856   0.897
14704TIP3   OH244054   5.622   5.599   4.951
14704TIP3    H144055   5.573   5.677   4.975
14704TIP3    H244056   5.558   5.528   4.956
14705TIP3   OH244057   7.676   4.964   0.376
14705TIP3    H144058   7.725   5.014   0.311
14705TIP3    H244059   7.710   4.875   0.369
14706TIP3   OH244060   8.020   0.710   3.940
14706TIP3    H144061   7.968   0.699   4.019
14706TIP3    H244062   8.037   0.621   3.909
14707TIP3   OH244063   3.071   4.637   3.587
14707TIP3    H144064   3.049   4.545   3.569
14707TIP3    H244065   3.162   4.634   3.617
14708TIP3   OH244066   0.344   5.732   0.600
14708TIP3    H144067   0.358   5.716   0.693
14708TIP3    H244068   0.429   5.757   0.566
14709TIP3   OH244069   3.422   6.130   0.491
14709TIP3    H144070   3.438   6.096   0.403
14709TIP3    H244071   3.346   6.081   0.522
14710TIP3   OH244072   2.835   7.204   5.636
14710TIP3    H144073   2.829   7.108   5.632
14710TIP3    H244074   2.748   7.232   5.665
14711TIP3   OH244075   5.464   0.537   0.464
14711TIP3    H144076   5.449   0.631   0.476
14711TIP3    H244077   5.521   0.531   0.387
14712TIP3   OH244078   1.229   3.439   2.533
14712TIP3    H144079   1.244   3.514   2.475
14712TIP3    H244080   1.262   3.364   2.483
14713TIP3   OH244081   6.925   0.113   1.929
14713TIP3    H144082   6.896   0.180   1.992
14713TIP3    H244083   6.882   0.137   1.847
14714TIP3   OH244084   6.931   0.058   2.433
14714TIP3    H144085   7.010   0.008   2.454
14714TIP3    H244086   6.860   0.009   2.474
14715TIP3   OH244087   3.707   5.667   5.347
14715TIP3    H144088   3.675   5.741   5.400
14715TIP3    H244089   3.706   5.593   5.407
14716TIP3   OH244090   3.922   5.324   5.634
14716TIP3    H144091   3.872   5.257   5.682
14716TIP3    H244092   3.979   5.274   5.575
14717TIP3   OH244093   1.199   5.812   2.446
14717TIP3    H144094   1.112   5.809   2.406
14717TIP3    H244095   1.199   5.739   2.509
14718TIP3   OH244096   5.221   5.587   2.228
14718TIP3    H144097   5.264   5.520   2.176
14718TIP3    H244098   5.238   5.561   2.319
14719TIP3   OH244099   1.765   6.788   4.230
14719TIP3    H144100   1.725   6.875   4.226
14719TIP3    H244101   1.720   6.745   4.303
14720TIP3   OH244102   7.854   4.396   4.104
14720TIP3    H144103   7.851   4.317   4.051
14720TIP3    H244104   7.931   4.444   4.071
14721TIP3   OH244105   1.702   4.579   0.780
14721TIP3    H144106   1.680   4.613   0.693
14721TIP3    H244107   1.768   4.512   0.763
14722TIP3   OH244108   7.975   6.233   5.666
14722TIP3    H144109   8.060   6.215   5.624
14722TIP3    H244110   7.911   6.193   5.608
14723TIP3   OH244111   5.325   7.532   2.050
14723TIP3    H144112   5.281   7.486   1.979
14723TIP3    H244113   5.265   7.601   2.075
14724TIP3   OH244114   5.806   4.105   1.081
14724TIP3    H144115   5.722   4.112   1.034
14724TIP3    H244116   5.870   4.090   1.012
14725TIP3   OH244117   1.618   3.053   4.630
14725TIP3    H144118   1.661   2.984   4.680
14725TIP3    H244119   1.549   3.009   4.581
14726TIP3   OH244120   2.648   7.121   3.113
14726TIP3    H144121   2.703   7.096   3.188
14726TIP3    H244122   2.657   7.216   3.108
14727TIP3   OH244123   7.914   6.692   2.608
14727TIP3    H144124   7.843   6.676   2.546
14727TIP3    H244125   7.952   6.606   2.625
14728TIP3   OH244126   3.349   3.998   4.364
14728TIP3    H144127   3.365   4.063   4.433
14728TIP3    H244128   3.407   4.024   4.293
14729TIP3   OH244129   3.275   6.471   5.776
14729TIP3    H144130   3.207   6.476   5.844
14729TIP3    H244131   3.275   6.379   5.749
14730TIP3   OH244132   7.171   2.260   2.906
14730TIP3    H144133   7.188   2.170   2.935
14730TIP3    H244134   7.113   2.296   2.973
14731TIP3   OH244135   5.535   5.016   1.248
14731TIP3    H144136   5.479   5.092   1.265
14731TIP3    H244137   5.584   5.040   1.169
14732TIP3   OH244138   2.071   0.299   1.254
14732TIP3    H144139   2.071   0.316   1.349
14732TIP3    H244140   1.979   0.281   1.234
14733TIP3   OH244141   3.526   2.390   0.535
14733TIP3    H144142   3.580   2.352   0.604
14733TIP3    H244143   3.473   2.456   0.580
14734TIP3   OH244144   3.430   5.713   4.150
14734TIP3    H144145   3.464   5.660   4.222
14734TIP3    H244146   3.335   5.696   4.151
14735TIP3   OH244147   3.996   4.893   4.961
14735TIP3    H144148   4.073   4.918   5.012
14735TIP3    H244149   4.011   4.802   4.937
14736TIP3   OH244150   1.639   7.264   1.418
14736TIP3    H144151   1.623   7.213   1.498
14736TIP3    H244152   1.621   7.354   1.444
14737TIP3   OH244153   1.142   1.889   3.849
14737TIP3    H144154   1.065   1.884   3.906
14737TIP3    H244155   1.211   1.924   3.905
14738TIP3   OH244156   6.251   5.527   6.469
14738TIP3    H144157   6.343   5.551   6.473
14738TIP3    H244158   6.204   5.606   6.494
14739TIP3   OH244159   0.175   0.785   5.784
14739TIP3    H144160   0.140   0.732   5.712
14739TIP3    H244161   0.107   0.850   5.801
14740TIP3   OH244162   5.396   1.355   3.613
14740TIP3    H144163   5.451   1.302   3.670
14740TIP3    H244164   5.427   1.335   3.524
14741TIP3   OH244165   6.838   7.223   0.309
14741TIP3    H144166   6.759   7.265   0.345
14741TIP3    H244167   6.857   7.272   0.229
14742TIP3   OH244168   6.625   1.473   5.730
14742TIP3    H144169   6.561   1.486   5.800
14742TIP3    H244170   6.584   1.511   5.652
14743TIP3   OH244171   8.134   6.554   2.339
14743TIP3    H144172   8.162   6.638   2.302
14743TIP3    H244173   8.173   6.488   2.282
14744TIP3   OH244174   3.379   1.183   0.266
14744TIP3    H144175   3.293   1.224   0.260
14744TIP3    H244176   3.436   1.239   0.214
14745TIP3   OH244177   1.302   0.019   3.653
14745TIP3    H144178   1.347  -0.008   3.733
14745TIP3    H244179   1.331   0.109   3.637
14746TIP3   OH244180   4.312   4.625   2.967
14746TIP3    H144181   4.395   4.665   2.994
14746TIP3    H244182   4.323   4.532   2.985
14747TIP3   OH244183   7.880   5.089   6.586
14747TIP3    H144184   7.932   5.012   6.612
14747TIP3    H244185   7.946   5.156   6.568
14748TIP3   OH244186   1.963   7.441   5.565
14748TIP3    H144187   1.895   7.507   5.580
14748TIP3    H244188   1.963   7.428   5.470
14749TIP3   OH244189   0.954   0.777   3.802
14749TIP3    H144190   0.938   0.754   3.710
14749TIP3    H244191   1.019   0.713   3.831
14750TIP3   OH244192   6.230   1.954   1.187
14750TIP3    H144193   6.315   1.998   1.192
14750TIP3    H244194   6.244   1.880   1.129
14751TIP3   OH244195   3.132   7.763   0.094
14751TIP3    H144196   3.176   7.707   0.158
14751TIP3    H244197   3.157   7.725   0.009
14752TIP3   OH244198   0.663   4.154   4.150
14752TIP3    H144199   0.650   4.193   4.237
14752TIP3    H244200   0.577   4.123   4.125
14753TIP3   OH244201   4.057   3.027   4.745
14753TIP3    H144202   4.148   3.046   4.768
14753TIP3    H244203   4.007   3.055   4.822
14754TIP3   OH244204   4.282   2.441   3.163
14754TIP3    H144205   4.281   2.346   3.155
14754TIP3    H244206   4.198   2.469   3.126
14755TIP3   OH244207   1.562   5.631   2.839
14755TIP3    H144208   1.527   5.667   2.757
14755TIP3    H244209   1.516   5.681   2.907
14756TIP3   OH244210   4.751   0.809   0.380
14756TIP3    H144211   4.706   0.839   0.300
14756TIP3    H244212   4.760   0.888   0.433
14757TIP3   OH244213   4.249   1.024   5.165
14757TIP3    H144214   4.189   1.010   5.238
14757TIP3    H244215   4.332   1.049   5.206
14758TIP3   OH244216   6.817   4.319   4.688
14758TIP3    H144217   6.814   4.223   4.686
14758TIP3    H244218   6.781   4.342   4.774
14759TIP3   OH244219   0.060   2.718   6.031
14759TIP3    H144220   0.063   2.702   6.125
14759TIP3    H244221   0.110   2.646   5.992
14760TIP3   OH244222   6.031   5.877   2.044
14760TIP3    H144223   5.943   5.900   2.016
14760TIP3    H244224   6.089   5.934   1.993
14761TIP3   OH244225   7.400   0.850   0.766
14761TIP3    H144226   7.417   0.913   0.696
14761TIP3    H244227   7.384   0.767   0.720
14762TIP3   OH244228   7.676   1.336   3.299
14762TIP3    H144229   7.582   1.318   3.305
14762TIP3    H244230   7.696   1.383   3.380
14763TIP3   OH244231   3.025   1.550   6.270
14763TIP3    H144232   3.024   1.627   6.327
14763TIP3    H244233   2.962   1.490   6.310
14764TIP3   OH244234   4.854   3.596   1.474
14764TIP3    H144235   4.863   3.669   1.535
14764TIP3    H244236   4.783   3.543   1.511
14765TIP3   OH244237   7.261   5.000   1.584
14765TIP3    H144238   7.186   5.050   1.553
14765TIP3    H244239   7.242   4.982   1.676
14766TIP3   OH244240   0.077   3.084   1.713
14766TIP3    H144241   0.158   3.116   1.754
14766TIP3    H244242   0.015   3.156   1.723
14767TIP3   OH244243   0.773   5.762   3.694
14767TIP3    H144244   0.811   5.827   3.752
14767TIP3    H244245   0.679   5.774   3.703
14768TIP3   OH244246   0.812   0.145   6.089
14768TIP3    H144247   0.739   0.179   6.038
14768TIP3    H244248   0.815   0.200   6.168
14769TIP3   OH244249   1.154   6.680   4.759
14769TIP3    H144250   1.187   6.767   4.737
14769TIP3    H244251   1.074   6.697   4.809
14770TIP3   OH244252   7.363   1.810   6.697
14770TIP3    H144253   7.336   1.836   6.785
14770TIP3    H244254   7.454   1.838   6.691
14771TIP3   OH244255   7.536   2.889   1.899
14771TIP3    H144256   7.518   2.947   1.825
14771TIP3    H244257   7.611   2.930   1.943
14772TIP3   OH244258   5.809   5.515   4.707
14772TIP3    H144259   5.763   5.525   4.791
14772TIP3    H244260   5.771   5.437   4.668
14773TIP3   OH244261   1.868   1.643   3.623
14773TIP3    H144262   1.784   1.685   3.642
14773TIP3    H244263   1.933   1.712   3.637
14774TIP3   OH244264   1.600   1.440   5.303
14774TIP3    H144265   1.524   1.438   5.361
14774TIP3    H244266   1.672   1.408   5.357
14775TIP3   OH244267   1.708   5.443   6.716
14775TIP3    H144268   1.655   5.391   6.656
14775TIP3    H244269   1.775   5.483   6.661
14776TIP3   OH244270   6.074   2.346   0.453
14776TIP3    H144271   6.019   2.424   0.439
14776TIP3    H244272   6.156   2.367   0.408
14777TIP3   OH244273   4.507   6.758   0.833
14777TIP3    H144274   4.587   6.799   0.867
14777TIP3    H244275   4.539   6.691   0.772
14778TIP3   OH244276   2.111   1.550   0.649
14778TIP3    H144277   2.118   1.580   0.740
14778TIP3    H244278   2.128   1.629   0.597
14779TIP3   OH244279   5.193   5.497   6.080
14779TIP3    H144280   5.119   5.436   6.076
14779TIP3    H244281   5.269   5.440   6.093
14780TIP3   OH244282   0.462   6.195   2.958
14780TIP3    H144283   0.389   6.224   3.013
14780TIP3    H244284   0.456   6.099   2.959
14781TIP3   OH244285   7.513   1.969   1.140
14781TIP3    H144286   7.549   1.986   1.052
14781TIP3    H244287   7.484   2.055   1.170
14782TIP3   OH244288   4.411   2.389   3.750
14782TIP3    H144289   4.381   2.322   3.688
14782TIP3    H244290   4.459   2.341   3.817
14783TIP3   OH244291   7.965   0.066   6.068
14783TIP3    H144292   7.980   0.106   5.983
14783TIP3    H244293   7.938   0.138   6.124
14784TIP3   OH244294   3.403   0.949   6.049
14784TIP3    H144295   3.430   0.994   6.130
14784TIP3    H244296   3.473   0.969   5.987
14785TIP3   OH244297   3.116   2.770   4.661
14785TIP3    H144298   3.184   2.777   4.728
14785TIP3    H244299   3.046   2.828   4.691
14786TIP3   OH244300   7.486   2.201   1.274
14786TIP3    H144301   7.460   2.216   1.365
14786TIP3    H244302   7.502   2.289   1.240
14787TIP3   OH244303   1.824   2.606   2.394
14787TIP3    H144304   1.730   2.587   2.399
14787TIP3    H244305   1.854   2.603   2.485
14788TIP3   OH244306   5.085   3.227   5.527
14788TIP3    H144307   5.104   3.210   5.619
14788TIP3    H244308   5.113   3.317   5.512
14789TIP3   OH244309   1.166   1.025   2.948
14789TIP3    H144310   1.206   1.025   3.035
14789TIP3    H244311   1.112   1.104   2.946
14790TIP3   OH244312   7.703   1.771   4.702
14790TIP3    H144313   7.653   1.816   4.634
14790TIP3    H244314   7.648   1.774   4.780
14791TIP3   OH244315   7.993   1.458   5.384
14791TIP3    H144316   7.991   1.439   5.290
14791TIP3    H244317   7.903   1.443   5.413
14792TIP3   OH244318   4.647   6.794   6.145
14792TIP3    H144319   4.600   6.877   6.160
14792TIP3    H244320   4.701   6.783   6.224
14793TIP3   OH244321   2.254   2.026   2.781
14793TIP3    H144322   2.252   1.943   2.829
14793TIP3    H244323   2.177   2.074   2.812
14794TIP3   OH244324   2.124   5.723   0.678
14794TIP3    H144325   2.096   5.711   0.769
14794TIP3    H244326   2.208   5.678   0.673
14795TIP3   OH244327   7.789   4.237   3.888
14795TIP3    H144328   7.715   4.283   3.850
14795TIP3    H244329   7.751   4.161   3.932
14796TIP3   OH244330   7.798   6.593   2.097
14796TIP3    H144331   7.743   6.642   2.158
14796TIP3    H244332   7.842   6.528   2.152
14797TIP3   OH244333   2.445   0.048   0.061
14797TIP3    H144334   2.355   0.058   0.093
14797TIP3    H244335   2.475  -0.034   0.101
14798TIP3   OH244336   2.854   7.162   2.032
14798TIP3    H144337   2.942   7.176   2.067
14798TIP3    H244338   2.829   7.246   1.995
14799TIP3   OH244339   7.041   4.676   3.258
14799TIP3    H144340   7.135   4.658   3.265
14799TIP3    H244341   7.029   4.756   3.310
14800TIP3   OH244342   4.319   5.190   3.966
14800TIP3    H144343   4.327   5.123   3.897
14800TIP3    H244344   4.231   5.226   3.954
14801TIP3   OH244345   3.629   0.130   1.632
14801TIP3    H144346   3.635   0.212   1.582
14801TIP3    H244347   3.564   0.078   1.584
14802TIP3   OH244348   4.587   0.868   2.408
14802TIP3    H144349   4.575   0.889   2.501
14802TIP3    H244350   4.677   0.894   2.389
14803TIP3   OH244351   0.365   4.093   2.500
14803TIP3    H144352   0.432   4.126   2.441
14803TIP3    H244353   0.392   4.125   2.587
14804TIP3   OH244354   2.037   1.171   6.220
14804TIP3    H144355   1.942   1.160   6.211
14804TIP3    H244356   2.073   1.087   6.191
14805TIP3   OH244357   0.725   2.952   0.075
14805TIP3    H144358   0.659   2.903   0.025
14805TIP3    H244359   0.674   3.003   0.137
14806TIP3   OH244360   5.692   2.124   5.635
14806TIP3    H144361   5.759   2.182   5.599
14806TIP3    H244362   5.738   2.042   5.652
14807TIP3   OH244363   4.954   6.757   0.978
14807TIP3    H144364   4.973   6.663   0.977
14807TIP3    H244365   4.989   6.788   1.061
14808TIP3   OH244366   6.071   5.209   5.697
14808TIP3    H144367   6.018   5.145   5.744
14808TIP3    H244368   6.076   5.284   5.756
14809TIP3   OH244369   6.226   5.041   3.317
14809TIP3    H144370   6.271   5.100   3.256
14809TIP3    H244371   6.248   4.954   3.285
14810TIP3   OH244372   0.677   7.521   0.975
14810TIP3    H144373   0.667   7.510   1.069
14810TIP3    H244374   0.658   7.434   0.939
14811TIP3   OH244375   3.968   1.222   4.184
14811TIP3    H144376   3.904   1.172   4.234
14811TIP3    H244377   4.039   1.239   4.246
14812TIP3   OH244378   4.202   2.427   4.128
14812TIP3    H144379   4.165   2.418   4.215
14812TIP3    H244380   4.126   2.437   4.070
14813TIP3   OH244381   6.582   2.378   0.013
14813TIP3    H144382   6.493   2.382   0.048
14813TIP3    H244383   6.570   2.390  -0.082
14814TIP3   OH244384   3.672   1.367   1.453
14814TIP3    H144385   3.582   1.379   1.422
14814TIP3    H244386   3.666   1.294   1.515
14815TIP3   OH244387   7.782   4.203   1.423
14815TIP3    H144388   7.858   4.227   1.476
14815TIP3    H244389   7.769   4.278   1.365
14816TIP3   OH244390   4.327   2.931   4.640
14816TIP3    H144391   4.420   2.944   4.662
14816TIP3    H244392   4.304   2.848   4.682
14817TIP3   OH244393   2.572   1.879   5.096
14817TIP3    H144394   2.627   1.819   5.046
14817TIP3    H244395   2.536   1.938   5.031
14818TIP3   OH244396   6.091   4.148   4.121
14818TIP3    H144397   6.144   4.111   4.191
14818TIP3    H244398   6.017   4.190   4.167
14819TIP3   OH244399   2.400   4.233   4.405
14819TIP3    H144400   2.317   4.216   4.360
14819TIP3    H244401   2.377   4.228   4.498
14820TIP3   OH244402   6.486   1.065   6.742
14820TIP3    H144403   6.505   1.033   6.654
14820TIP3    H244404   6.396   1.035   6.760
14821TIP3   OH244405   7.910   7.080   3.100
14821TIP3    H144406   7.937   6.996   3.137
14821TIP3    H244407   7.825   7.062   3.061
14822TIP3   OH244408   2.696   5.194   5.137
14822TIP3    H144409   2.622   5.176   5.195
14822TIP3    H244410   2.666   5.164   5.051
14823TIP3   OH244411   6.201   6.111   4.027
14823TIP3    H144412   6.263   6.172   4.069
14823TIP3    H244413   6.253   6.033   4.010
14824TIP3   OH244414   0.255   0.819   3.141
14824TIP3    H144415   0.216   0.867   3.068
14824TIP3    H244416   0.318   0.759   3.100
14825TIP3   OH244417   8.055   7.827   5.646
14825TIP3    H144418   7.970   7.823   5.689
14825TIP3    H244419   8.067   7.740   5.607
14826TIP3   OH244420   3.943   2.595   2.544
14826TIP3    H144421   3.849   2.606   2.552
14826TIP3    H244422   3.963   2.519   2.598
14827TIP3   OH244423   1.202   7.815   6.198
14827TIP3    H144424   1.177   7.731   6.236
14827TIP3    H244425   1.181   7.879   6.267
14828TIP3   OH244426   0.410   6.314   1.999
14828TIP3    H144427   0.423   6.390   2.056
14828TIP3    H244428   0.387   6.352   1.914
14829TIP3   OH244429   4.090   2.877   1.157
14829TIP3    H144430   4.044   2.926   1.226
14829TIP3    H244431   4.098   2.939   1.085
14830TIP3   OH244432   0.349   6.992   4.738
14830TIP3    H144433   0.265   7.037   4.729
14830TIP3    H244434   0.330   6.916   4.794
   8.29830   7.82371   6.77553   0.00000   0.00000  -2.76610   0.00000  -2.76610  -3.91185
